/*--------------------------------*- C++ -*----------------------------------*\
  =========                 |
  \\      /  F ield         | OpenFOAM: The Open Source CFD Toolbox
   \\    /   O peration     | Website:  https://openfoam.org
    \\  /    A nd           | Version:  10
     \\/     M anipulation  |
\*---------------------------------------------------------------------------*/
FoamFile
{
    format      ascii;
    class       surfaceScalarField;
    location    "0.4";
    object      phi;
}
// * * * * * * * * * * * * * * * * * * * * * * * * * * * * * * * * * * * * * //

dimensions      [0 3 -1 0 0 0 0];

internalField   nonuniform List<scalar> 
214403
(
-0.000488377
0.000377822
1.99581e-05
9.05966e-05
-0.000219212
-0.000753162
6.92683e-05
0.000903106
-0.000709181
5.50884e-07
-2.48193e-06
0.000711112
0.000630499
-0.000407583
-0.0010203
0.000797383
0.000854157
-0.00102555
0.000233629
-6.22333e-05
-0.000354624
0.000372674
-4.38003e-06
-1.36707e-05
-5.134e-05
-0.000115055
-0.000609205
0.0007756
-0.00111386
0.00064122
-0.000174076
0.000646717
-0.0015947
0.0011371
0.00111536
-0.000657757
0.000902544
0.000119724
-0.00103164
9.36955e-06
0.000331445
-0.00067972
0.000129712
0.000218563
-0.000671797
0.000208796
0.000350401
0.0001126
4.21013e-05
-0.000791177
0.000926562
-0.000177486
-0.000648947
0.000638385
1.05626e-05
0.000131291
0.000791385
-0.00103956
0.000116886
-0.000778806
0.000633242
0.000211707
-6.61425e-05
-0.000764894
0.000751209
1.36853e-05
0.000262473
7.86361e-06
-7.96141e-05
-0.000190723
0.0010148
-0.000595517
-0.00135424
0.000934957
-8.72151e-06
-0.000210691
4.25462e-06
0.000215158
0.000450805
-0.000410381
-4.0424e-05
-0.000813993
-0.000293741
0.000291816
0.000815917
-0.000135261
0.000902507
-0.000734351
-3.28962e-05
0.000445994
5.01894e-05
0.000135232
-0.000631415
-0.000670412
-0.000311052
0.000867576
0.000113888
0.000649807
-0.000791084
1.22826e-05
0.000128994
0.000210341
-0.000192075
0.000694917
-0.000713183
0.000530448
0.000646968
-0.000807553
-0.000369864
0.000726272
-0.000444756
-3.24884e-05
-0.000249027
-0.000403279
0.00041326
-9.98158e-06
0.000179933
-0.000345667
0.000873956
-0.000708222
0.000911736
4.15431e-05
-0.00017009
-0.000783189
-0.000394385
-0.000367492
0.000396716
0.00036516
-9.27407e-05
-0.000425711
0.000374226
0.000144226
0.000255788
-0.000175332
-0.000666136
0.00058568
-9.60569e-05
0.000542948
-0.000199457
-0.000247435
0.00105071
-3.89413e-05
-0.00101177
-0.000454386
0.000908898
-0.000454513
5.13222e-05
-0.00093536
0.000566094
0.000317944
0.000155884
-5.92976e-05
0.00039794
-0.000494526
0.0003584
3.10278e-06
-0.000361502
0.000644247
-1.06988e-05
0.000126064
-0.000759612
-0.000869043
9.99646e-05
0.000924962
8.28825e-05
4.89058e-05
0.000537695
-0.000669484
-0.000246513
-0.001785
0.00169717
0.000334345
0.000428029
7.34188e-05
6.73848e-05
-0.000568832
0.000278543
0.000219146
-0.000695837
0.000198147
0.000881012
0.00050867
-0.000943688
7.94149e-05
0.000706824
-0.000141992
0.000110468
-0.000459429
-0.000283305
0.000632268
0.000225898
0.0003335
0.000106431
-0.000665829
0.000126486
-9.29095e-05
-0.000279341
0.000245764
0.000512741
-0.000902742
0.000615899
0.000775422
-0.000738892
-0.000240033
0.000203502
0.000748424
-0.000125215
-0.000590339
0.000766665
-2.0433e-05
-0.000155892
0.000565629
-0.000736444
1.88493e-05
0.000151966
-0.000584747
8.94471e-05
0.000877879
-0.000382578
-0.00105622
-0.00106157
0.00088703
0.00123076
-0.000516715
0.000519431
9.90811e-05
-0.000101796
8.7521e-05
-0.000663534
-0.000621953
-1.22428e-05
0.000300644
0.000333552
-0.000967056
0.00041235
0.000602113
-4.74069e-05
0.00101022
-0.00078481
3.33503e-05
-0.000258757
4.36168e-05
2.69312e-05
-0.000693148
0.0006226
3.87856e-05
-0.000208496
0.00100486
-0.000835154
-0.0024016
0.000334756
0.000250179
0.00181666
-0.000189923
0.000601423
-0.000188403
-0.000223097
0.000367006
-0.000183724
-0.000721295
0.000538014
8.51038e-05
0.000544207
-0.000679559
5.02482e-05
-1.49987e-05
0.000585218
0.000205433
-0.000775652
-0.000132447
-2.76523e-05
-0.000240989
0.000401088
-0.000632199
0.000684864
-9.73204e-06
-4.29332e-05
4.18559e-05
-0.000641906
-0.000425374
0.000387084
0.000114707
-7.64166e-05
-0.00110843
-6.12943e-05
0.000529129
0.000640599
-0.00032527
-0.000137915
0.000268656
0.00019453
0.000476517
-0.00164521
0.000213344
0.000955352
-0.000263159
0.000525942
-0.000281516
1.87329e-05
0.00034638
-0.000293275
5.96734e-05
-0.000112778
9.64665e-06
-0.000725993
0.000716347
9.53138e-08
0.000570633
-0.000570728
0.000510164
-0.000128669
8.11274e-05
-0.000462623
-0.000306013
0.00044623
0.000150636
-0.000290853
-0.000228416
0.000966573
-0.000267574
-0.000470583
0.000473076
-0.000810231
-1.49148e-05
0.00035207
0.00055841
0.000483169
-0.00104158
0.000728541
-0.000813762
0.000216478
-0.000131256
2.33429e-05
-0.000144176
0.00101874
-0.000897906
3.32308e-05
-0.000150083
0.000676711
-0.000559859
0.000171696
0.00132573
0.00033827
-0.00183569
-0.00124516
0.00106707
0.000687031
-0.000508938
5.14692e-05
0.000496765
-0.000639915
9.16812e-05
0.000624999
0.000687611
-0.000219761
-0.00109285
0.00105238
-0.000657411
-3.35064e-06
-0.000391619
6.98762e-05
-0.000163522
-0.000436628
0.000530274
-0.000462631
-1.09176e-05
0.000473548
0.000663738
2.40609e-05
4.07422e-05
0.000866139
5.81516e-05
-0.00123391
0.00030962
-0.000669264
0.000126217
0.000120254
0.000422792
-0.000435053
0.000113842
4.88075e-05
0.000272405
5.16108e-05
0.000116743
-0.00084227
0.000673916
-0.000198796
-0.00104978
0.0006889
0.000559672
0.000422395
-0.000496514
-0.000329063
0.000403183
0.000666747
3.30148e-06
-0.000668165
-1.8831e-06
0.000511927
-0.00070779
-0.000229397
0.00042526
0.00133695
-0.00040757
-0.000282395
-0.000646987
0.000711661
4.75799e-06
-0.000651368
-6.50504e-05
-0.000423633
0.000498703
0.00100564
-0.00108071
0.000930394
-0.000237176
-0.000885687
0.000192468
0.000173346
-0.000236113
0.000984233
-0.000921467
-0.0010522
0.000962425
0.000893394
-0.00080362
3.66771e-05
-0.000885593
0.000327125
0.000521791
0.00105698
-5.47268e-05
-4.70669e-05
-0.000955191
0.000793078
-0.000136179
0.000144673
-0.000801572
-0.000930819
-0.000886755
0.00102224
0.000795333
-0.000150644
0.00047534
0.000136978
-0.000461674
-0.000359458
1.46427e-05
0.000680509
-0.000335692
-6.91933e-05
0.000923097
-0.000840065
-1.38391e-05
-0.00085192
0.000822859
0.000139509
-0.000110448
-3.92983e-07
-0.000469602
0.0011198
0.000113762
-0.000453562
-0.000337051
0.00067685
-0.000369797
9.31809e-06
0.000360479
0.00014935
0.000510797
-0.000487139
-0.000173007
0.000881221
-0.000536349
-0.000124067
-0.000220806
1.66399e-05
-0.000286005
0.000269365
-0.000492887
-0.000136075
0.000196085
0.000432877
5.51551e-05
0.00031815
-0.000688279
0.000314974
0.00115435
-2.76475e-05
0.00039571
-0.00152241
1.52334e-05
-0.000129741
-0.00120065
0.00131516
9.50818e-05
-0.000335215
-0.000495913
0.000736046
1.51492e-05
0.00066405
-1.54619e-05
-7.39657e-06
-0.000365185
0.000372581
0.000814243
-0.000350364
-0.000350117
-0.000484708
0.000406442
-0.00041462
0.000865358
-0.000729504
-9.01252e-05
-4.57287e-05
8.10341e-05
-0.000415987
0.000187063
0.00014789
-0.000696873
-0.000212831
0.000142162
0.000767542
0.000580785
-0.000974624
0.000683197
-0.000289359
-3.01075e-05
0.000929295
-0.000919461
2.02742e-05
8.12355e-06
0.000993517
-0.0010169
1.52609e-05
-0.0010686
0.00087435
-0.000702203
0.000896455
0.000916291
-0.000899096
-1.71947e-05
-0.000893468
0.00118391
-0.00020551
-8.49283e-05
-0.000769808
0.000201673
-5.30653e-05
0.0006212
-0.00127851
0.000100875
0.000809607
0.000368025
0.00024464
-0.000311906
0.000148301
-0.000313199
0.000340941
0.000614012
-0.000641755
-0.000314359
-0.000156325
0.000194847
0.000275837
-0.000450394
0.000294987
-0.000564118
0.000719526
0.000103004
3.25644e-05
-0.00102904
-0.000442384
0.000456546
-1.41619e-05
0.000744096
-0.000730735
-1.33609e-05
-0.000725296
-4.732e-05
-0.00019734
0.000136398
-0.000933942
0.00105936
-0.000261812
0.000408281
0.000770796
-0.000950109
-0.000228967
0.000817105
-0.000909207
4.77394e-05
4.43626e-05
0.00047522
0.000119504
-0.000483105
-0.000111619
-0.000698526
-1.49661e-05
0.00084989
0.000433044
-3.30931e-05
-0.000513017
0.000113067
0.000486517
-0.000398499
0.000463675
-0.000551692
-0.000766018
0.000108902
0.0010654
-0.00028657
-0.000361873
0.00121071
-0.000562265
-0.000348798
-0.00040687
5.7142e-05
6.64602e-05
0.000336017
-0.000751275
-0.000591735
-4.48698e-05
0.000928455
-0.00029185
7.30138e-05
0.000166762
0.000477604
-0.00071738
-0.000246011
0.000609802
-0.000363791
0.000103835
-0.00087631
0.000365604
0.000539065
0.000379643
-0.000852248
-0.000848796
1.27074e-06
0.00104673
-0.000199202
0.000123319
0.000130254
0.000410913
-0.000664487
0.000677879
-0.000654057
-2.38226e-05
0.000151147
-9.97281e-05
0.000793158
-0.000844577
0.000740189
-0.00022937
0.000346224
-0.000857042
0.00137209
-0.000421055
0.00108094
-0.00203197
0.00022452
0.000418383
-0.000159799
-0.000483105
-0.00061847
0.000246062
0.000342122
3.02863e-05
0.000464842
-0.00035521
-8.8022e-06
-0.000100829
-0.000256105
-0.000376613
0.00103354
-0.000400822
-0.000475895
0.000646612
0.000230677
-0.000401393
0.000789938
-5.51604e-05
-0.000248261
-0.00116701
0.000785501
-6.88839e-05
-0.0011108
0.00104625
0.000446373
-0.000381824
0.000673686
-0.000776146
-9.64329e-05
0.000198892
0.000417517
-0.000741628
-0.000382623
-0.000413961
-0.000398429
0.000217398
0.000594992
-0.000587383
0.000195319
0.000582617
-0.000190553
0.00079132
-0.000750372
-0.000521924
0.000480976
3.35576e-06
3.89185e-06
-0.000650768
0.000643521
1.04969e-05
-0.000595473
-1.67435e-05
0.000601719
-0.000176962
-0.000917404
0.000146862
-0.000558993
0.000498378
-8.62472e-05
-0.000378822
-0.000145545
-6.30155e-05
5.02175e-06
0.000868958
2.85647e-05
-0.00223775
0.00159583
0.00110773
-0.000465808
-0.000668512
4.54815e-05
1.57481e-05
0.000607282
-0.000147527
0.00209048
-0.00245692
0.000513962
0.000121619
0.000152148
-0.000366348
9.25812e-05
-0.00146213
0.000775148
9.42882e-05
0.000592694
-8.25803e-06
-0.000990325
-0.000153682
0.00115226
-0.000343281
0.00145122
-0.00103075
-7.71847e-05
0.000633689
0.000927397
-0.000826492
-0.000734593
-0.000768276
0.000717131
0.000886887
-0.000835743
0.000307408
0.000409482
-0.000518727
-0.000198163
0.000325989
-0.000204642
-0.000500168
-0.00145898
-9.47313e-05
0.00121468
0.000339037
0.000431846
8.29906e-05
-0.000268775
0.000459637
0.00064591
-0.000583401
-0.000522145
-0.000765468
0.000182461
0.000725399
-0.000142392
3.90513e-05
0.000271217
0.000873638
-0.000911681
0.000890251
9.28335e-05
-7.14025e-05
0.000567188
0.000421546
-0.000396166
-9.23029e-06
-0.000106566
0.000511962
-0.000582309
-0.000134053
0.000379419
-0.00111008
0.000438323
0.000292342
3.68209e-05
0.000584659
-0.00065516
3.36798e-05
-0.000241684
5.35162e-05
-0.000223985
0.000412153
0.000972792
-0.000685707
3.89028e-05
-0.000523677
-0.000429218
0.000570883
0.000382012
0.00194834
-0.00207575
0.000669011
-0.00054161
-0.000415197
0.000508006
0.000197103
-0.000289911
-0.000975536
0.000405244
0.000858661
-0.000288369
-0.000434841
0.000577897
0.000726126
-0.000869183
0.00107438
-0.000444899
-0.000693194
6.37168e-05
-1.36773e-05
-0.000224629
0.000638909
-0.000400603
-0.000113645
6.27441e-05
-0.000797896
0.000735791
0.000216187
-0.000819054
-0.000132925
0.00102853
-0.000838979
-0.000204519
0.000200959
0.000309597
-0.000703567
0.000193011
-0.000385151
-0.000744396
0.000676485
0.000453062
-0.000118938
-0.000319825
-8.49132e-05
0.000400408
-0.000430537
0.000899349
-0.00086922
0.000121794
-0.00110982
0.000988028
0.000377581
-0.000491034
0.000314413
0.000220825
0.000113278
0.000160822
-0.000494925
2.04935e-05
-0.000950599
0.000930106
-0.000510539
6.21259e-05
-0.000179734
0.000628147
-6.86549e-05
0.000749372
-0.000682268
1.55083e-06
-0.000475501
-0.000257281
0.000276802
0.000455981
-0.000169691
-0.000424748
-0.000382483
-0.000582911
0.000482429
0.000482965
3.46633e-05
-0.000586838
0.00099141
-0.000369778
-9.71034e-05
-0.000524528
0.000731465
-0.00011448
-0.000518556
-9.84284e-05
-6.75682e-05
0.000727702
-0.000897964
0.00023783
0.000476035
2.86877e-05
0.000222472
-0.000727194
-1.05999e-05
-0.000429668
0.000212578
0.00022769
-0.000287038
0.000349696
0.000655994
-0.000718652
-0.000930405
-0.000280929
-0.000240281
0.000898791
-0.00088117
1.77916e-05
0.000269229
0.00059415
9.15147e-05
-0.000310564
-0.000531175
0.000750225
-0.000391866
-0.000786736
0.000204886
0.000973715
-0.000355058
-0.000412236
0.000408376
0.000358918
-0.000904816
0.000865382
0.000901004
-0.00086157
-0.000118777
-0.00023263
-0.000657187
0.00100859
-0.000933726
0.00014408
0.000964067
-0.000174421
-0.000166556
0.00040464
-0.000238084
-0.000376906
0.000700872
-0.000521787
0.000197821
-1.59504e-05
0.00118682
-0.000449149
-0.000721717
-0.000431508
-0.000204635
0.000842157
-0.000206014
0.000143185
-0.000364389
0.000784756
-0.000563552
4.08451e-05
0.000549533
-9.08912e-05
5.66965e-06
-0.000900963
0.000919048
-2.37546e-05
0.00102814
-0.0001295
-0.00155068
0.000652041
-0.000952981
-6.83856e-05
0.00117825
-0.000156885
-0.000524417
0.000788713
6.21231e-05
-0.000326419
0.00059423
-0.000618031
2.3801e-05
-0.000506041
5.62541e-05
-0.000420252
0.000870039
-0.00077077
0.00107008
-0.000232298
-6.70132e-05
0.000476528
-0.00018607
-0.000588839
0.000298381
-0.000898548
0.000919791
-2.12436e-05
0.000763842
-0.0011025
7.6044e-05
0.000262614
-0.000855746
-0.000226483
0.00145497
-0.000372744
0.000623016
-1.86062e-05
-0.000136766
-0.000467644
-0.000362791
-0.00057217
0.00133537
-4.80568e-05
-0.000910802
0.000528322
0.00134626
-0.00152885
-0.000132034
0.000314626
0.0003779
0.000176946
-0.000431527
-0.000649351
0.000646679
2.67192e-06
-0.000162915
0.000912226
-7.00311e-05
-0.000679279
-0.000198834
0.000228123
0.000778384
-0.000807672
0.000494699
0.00123921
-0.000708887
-0.00102502
0.000937573
-0.00113281
0.000361582
-0.000166345
0.000775472
2.6622e-05
-0.000802094
4.81107e-06
0.000746337
-0.000751148
0.000867694
-0.00106094
0.000957088
2.59074e-05
-3.36459e-05
0.000774244
-0.000766505
-3.83505e-05
0.00137752
-0.00137771
3.85418e-05
-0.000119182
-0.00029678
-0.000633247
0.00104921
-0.000405046
-0.000220926
9.02872e-05
0.000731761
-0.0012927
0.000470652
-0.000696424
-0.000163898
0.000731779
0.000128545
-0.00077821
0.000876377
-0.000252471
0.000154304
0.000132765
0.000597802
-0.000201159
-0.000529407
-0.000257525
5.14659e-05
0.000492439
-0.000286379
5.75573e-06
0.000230906
-0.000295906
5.92444e-05
-0.000327137
0.000742169
-0.000414897
-1.3486e-07
0.000216648
-0.000700404
-0.000414791
-2.5281e-06
-0.000643762
0.00064629
-0.000264716
-0.000237462
0.000111366
0.000390812
0.000396448
-0.000213395
-0.000183053
0.000920759
-0.000936264
-0.000187799
0.000203303
-7.16385e-05
-0.00057042
0.000522686
0.000119372
1.54952e-05
3.93342e-05
0.000484395
-0.000539224
0.000244221
-0.00019328
-0.000816986
0.000766045
0.000615672
-2.8913e-05
-0.000586759
-0.0008975
-0.00058459
0.000877374
0.000604716
0.000508285
0.000768825
-0.00132517
0.000492086
-0.000164362
0.000251522
-0.000579246
-0.000168897
0.000157876
-0.00110062
0.00111164
0.00028868
-0.000561302
-0.000550299
0.000822921
-4.94768e-05
-0.000135192
0.000629874
-0.000445205
0.000421056
-0.000522774
0.000196846
-9.51281e-05
0.000218674
-0.000415271
-0.000363169
0.000559766
-0.000811251
0.00088217
-0.000211264
0.000140344
0.000896777
0.00118666
-0.00131314
-0.0007703
-0.000684811
0.000698215
-1.34039e-05
-0.000128976
0.000779394
-0.000921144
0.000270726
7.22334e-06
-3.23819e-05
-0.000913071
0.000938229
0.000786507
7.11708e-05
-0.000915839
5.81612e-05
-0.00033818
-0.000557394
0.000714774
0.0001808
-0.000749877
0.00111568
-0.000498
0.000132197
-0.000313023
-0.000374429
0.000233891
-4.82929e-05
-1.17879e-05
-0.00052934
0.000589421
-0.00178284
-1.38016e-05
0.000165419
0.00163123
7.66145e-05
-0.00044254
-0.000248572
0.000614497
0.00116082
-6.79706e-05
-0.000403559
-0.000689293
-0.00021072
-0.000448596
0.000120574
0.000538741
0.000353332
1.749e-05
-0.000370821
0.000521246
0.000265181
-0.000169229
-0.000617198
0.000405651
-0.000312891
0.000830828
-0.000923588
2.37742e-05
0.000809351
-0.000263351
-0.000569774
0.000254751
0.000307719
0.000598353
-0.000434089
2.72467e-05
0.000406842
-0.000533605
8.45071e-05
0.000143796
7.93973e-05
-0.000728165
0.000504972
-0.000661415
0.000999095
0.000314932
0.00102565
-0.000194114
-0.00114646
-0.000624528
0.00065361
-0.00104838
0.0010193
-0.000108313
-0.000517106
0.000209283
0.000416136
-0.000492231
0.00105064
0.000327395
-0.000382917
9.38455e-05
-3.83236e-05
-0.000345001
-0.00104685
0.000329882
0.00106197
0.000713972
-0.000675173
-1.68252e-05
-2.19734e-05
0.000583094
-0.000673589
0.000121676
-3.11807e-05
0.000132502
0.000561643
-0.00100801
0.000313869
2.16579e-05
0.000485501
-0.000507159
0.000331073
-0.000832496
0.000633926
-0.000304457
0.000878396
0.000704605
-0.00127854
0.000211149
-0.000233767
-0.0011138
0.00113641
-0.000289235
0.000536037
-0.00110356
0.000856754
-0.000809878
0.000619916
0.000846162
-0.0006562
-0.000493784
0.000689865
-0.000447603
0.000251522
-0.000106518
0.000489213
6.88411e-05
-0.000451536
0.000220743
-0.000335149
0.000333012
-0.000218606
0.0004701
0.000183412
0.00018143
-0.000834943
0.00124633
-0.000847166
-3.41292e-05
-0.000365031
-1.45709e-05
-0.000615896
0.000630467
0.000336471
-0.000519598
-0.00171682
0.00189995
-6.77497e-05
-0.000808528
-0.000247362
0.00112364
-4.92077e-05
-0.00039309
0.000442298
0.000144286
0.000539137
-8.99498e-05
-0.000593473
-0.000148198
-0.000539396
0.000410904
0.000276689
0.00045935
-0.000403168
-0.000678135
0.001088
-0.000824673
0.000252965
0.000287779
-0.000540743
0.000846827
-2.36507e-05
-0.000100709
-0.000722468
-0.000150114
-0.000272391
0.000422506
0.000252862
0.000206253
0.0016627
-0.00199987
-0.000700796
0.00103796
0.000221411
0.000558504
-0.000393135
-0.000386779
-0.00058507
0.00112475
0.000710344
-0.00125003
0.000709754
0.000245057
-0.000117911
-0.0008369
0.00112226
-0.00078789
0.000453591
-0.000787959
-0.00060839
0.000296581
-0.000876611
0.00118842
-0.000948748
0.00176909
-0.000775199
-4.51415e-05
-5.3086e-05
-0.000385899
-0.00060929
0.00104828
0.000835779
0.000343688
-0.000991696
-0.000187771
0.000459626
-0.00120387
0.000735058
9.18748e-06
-0.00101722
-2.90964e-05
0.000660845
0.000385468
-0.000216196
0.000563704
0.000248737
-0.000596245
-0.000117243
0.00050411
0.000420984
-0.000807852
-0.00110266
0.000552642
-6.02282e-06
0.000556036
7.8708e-05
-0.000275984
0.000554351
-0.000357075
0.000479885
-0.000242013
0.000161112
-0.000398984
0.000504127
0.000106535
2.71149e-05
-0.000637778
-0.00060232
0.000678987
0.000262602
-0.000339269
-0.000161407
0.000814669
1.61234e-05
-0.000669385
0.000620328
-0.000364043
-0.000245393
-1.0892e-05
0.000575713
-1.91744e-05
-0.000556539
0.000405113
0.000323379
-8.85444e-05
-0.000639948
0.000202285
0.000472405
0.000427726
-0.00110242
2.18131e-05
-0.000933412
0.000911599
-0.000497476
0.00192504
-0.000297087
-0.00113048
-1.85077e-05
0.000674575
-0.000656068
-3.32228e-05
-0.00047707
9.23741e-05
0.000417919
-0.000887166
0.000462213
0.000333307
9.16469e-05
0.000176667
0.000163375
-0.00104849
0.000708443
0.000525174
0.00088384
-0.000301805
-0.00110721
0.000812439
-0.000275503
-0.000774272
0.000237335
-0.00104693
0.00057783
0.00165914
-0.00119004
2.63454e-05
0.000434698
-0.000449963
-1.10812e-05
-0.000423491
0.000449628
-2.61367e-05
-0.00102927
8.07465e-06
0.00043612
9.05597e-05
0.000233022
0.000708093
-0.00103167
0.000497198
-0.00062726
0.000460467
-0.000330405
-0.000530298
0.000444797
1.59229e-05
6.95779e-05
-9.09773e-05
-0.000831759
0.00109998
-0.000177241
-0.000389126
0.000168171
0.000623044
-0.000402088
0.000655513
-0.000251149
9.15431e-05
-0.000495908
-0.000431451
-7.98043e-05
0.000514344
-3.0888e-06
-7.46635e-05
-2.74457e-05
0.000766113
-0.000664004
6.37937e-05
-6.09351e-05
0.000655242
-0.0006581
-0.000676183
0.000923685
-0.000986408
0.000738905
-1.89707e-05
-0.000807161
0.000826132
-0.000338657
1.05802e-05
0.000777679
-0.000449602
-0.000544636
0.000666926
-0.000926198
0.000803908
-0.000561098
5.3637e-05
0.00017041
-0.000255591
0.000727309
4.9096e-05
-0.000520814
-0.00018852
1.80341e-05
-0.000314222
-0.000283905
-0.00092706
0.000941965
0.000269
-0.000413407
-1.9536e-05
-0.000148487
0.000581429
-0.00141794
0.000488993
0.000198226
0.000730723
-0.00046613
0.00102901
-0.000493095
-6.97807e-05
0.000302458
0.000118741
-0.000609719
0.000606673
0.000639418
-0.00124609
9.70676e-05
0.00129663
-0.000370361
-0.00102333
-1.69338e-07
-2.37264e-05
-0.000624413
0.000648309
-0.000645096
0.00102095
-0.000392936
1.70815e-05
0.000583689
-0.000382612
-0.000520133
0.000319056
0.000157456
-1.61436e-05
0.000191682
0.00105138
0.000251167
-0.00146659
0.000164039
-0.000776198
-5.75164e-05
0.000228074
0.000605641
0.00023952
-0.000273686
-0.000340264
0.00108977
-0.000767356
0.000591415
-0.000913826
-0.00010678
0.000705971
-0.00124676
0.000647574
0.000421589
-0.000546372
-5.23773e-05
0.00017716
-0.000513808
-0.000164151
4.11903e-05
0.000636768
-0.000358533
-0.000340329
0.000698862
8.75593e-05
-0.000901827
0.000810468
3.79949e-06
0.000397313
-0.000366534
-0.000389312
-0.000967791
0.00121847
-0.000235989
-1.46886e-05
0.000899406
0.000243968
-0.000974321
-0.000169053
-0.00055046
-0.000920491
-0.00013754
0.00160849
0.000570632
-0.000194555
0.000656032
-0.00103211
-0.000678744
2.56097e-06
-0.000723372
0.000383043
8.90196e-05
-0.000805044
0.000226377
0.000489648
0.000234924
-0.000890715
0.000504123
0.000151668
0.000170249
3.0692e-05
-0.00079324
0.000592298
0.000113784
0.000430565
-1.84284e-05
0.000749766
-0.000175693
-0.000555644
-0.000290507
-2.09472e-05
-0.000268591
0.000580045
-0.000168287
-0.000245073
0.000443967
-3.06072e-05
-0.000650089
-2.03228e-05
-0.00114059
0.000405575
0.000617775
0.00163825
-2.99136e-05
0.00022877
-0.00183711
-0.000797448
0.0011819
0.000254024
-0.000638471
-0.000223767
0.000105857
0.000693392
-0.000575481
7.84574e-05
0.000230997
-0.000179647
-0.000129807
-0.00121139
-0.000262462
0.00103926
0.000434587
1.72318e-05
0.000548416
-0.000106298
2.12094e-05
0.0002496
-0.000798213
0.000527404
-0.000509523
1.62874e-05
0.000194034
0.000299201
-0.000736835
0.000833936
-7.98693e-05
0.000395294
-0.000327372
-6.79219e-05
-0.00060316
1.27021e-05
-0.000414446
0.0010049
-0.000275586
0.000401752
-0.000317361
0.000191195
-0.000585218
0.000658437
-0.000266583
0.000193363
0.000280389
-6.01006e-05
-0.000590473
0.000370185
-0.000241967
0.0016688
-0.00217671
-0.000206542
-0.000140346
0.000122853
0.000224035
0.000773702
-0.00121046
-2.64404e-05
0.000463199
-0.000295665
0.000217079
0.00041473
-0.000336142
-9.55926e-05
0.000495674
-0.000158741
-0.000241341
-0.000575391
0.000146496
0.000116941
0.000311953
-0.000333652
1.68191e-05
0.000316833
0.000717041
-0.000343227
-0.000354161
-1.96527e-05
5.78704e-05
0.000366614
-0.000564382
0.000139898
-0.000381551
-0.000429751
0.000460394
0.000350908
-0.000231924
0.000563034
-0.00046809
0.00013698
0.000191417
-0.000341753
0.000237568
-8.72333e-05
0.000711951
-1.94016e-06
-0.000710011
0.000582553
-0.000700291
0.000328772
-0.000211035
-0.00084999
5.6853e-07
0.000849422
0.000344605
-0.000300419
8.37025e-05
-0.000127889
-1.79192e-05
0.000740305
-0.000817159
9.47734e-05
-0.000340846
0.000444711
8.75528e-05
-0.000393968
0.00076644
0.000743209
-0.000590721
0.0005907
2.12437e-08
6.65102e-06
-0.000943927
0.000937276
0.00130293
0.000138815
-0.000285235
-0.00115651
0.000287198
-0.00101944
-0.000131028
0.000863273
0.000184433
0.000234178
0.000135672
-0.000554284
-0.000368266
-0.000339724
4.50369e-06
0.000703486
-0.000169421
0.000224656
-0.000423501
-0.000804095
0.000153849
0.00104806
-0.000397814
-0.00150379
0.00111136
0.000510905
-0.00011848
0.000692384
-2.41534e-05
-0.000668231
-0.000384177
-0.000565317
0.000340362
0.000609132
-0.0003912
-0.000584226
0.000171331
-0.000535134
0.000289511
0.000359407
0.000241602
-0.000317686
-0.000542618
0.000618702
-0.000372909
-9.95054e-06
0.00038286
-0.000876279
0.000374711
0.000348393
0.000153176
0.00023626
-0.000587689
-0.000183704
0.000777166
-0.000231441
-1.50845e-05
-0.000530641
-0.000513486
0.000829193
0.000484815
-0.000800521
-0.000174543
-0.000340684
0.000137564
0.000377663
-0.00020505
-0.000185909
0.000390959
-0.000382189
-0.00076649
-0.000355111
0.000183554
1.33706e-05
0.000358242
-0.000555166
0.000730046
-0.000515172
-0.000751348
0.000536474
-0.000281617
0.000103913
0.00055241
-0.000374706
0.000521542
-0.000357148
-3.53413e-05
-0.000129053
-0.000591747
9.9354e-05
0.00046011
3.22832e-05
-0.000380333
0.000839174
-0.00091305
0.000393786
2.55081e-05
0.000493756
0.00125202
-0.00092534
-0.000712618
0.000385933
-0.000656305
0.00015149
0.00123486
-0.000655589
-0.000421831
0.000715947
0.000361473
-6.9047e-05
0.000733533
-0.000276342
-0.000388145
4.42905e-05
-0.000504186
-0.000291641
0.000751537
0.000801835
-0.00052238
-2.14706e-05
-0.000257984
0.000238761
0.000178795
-0.000586976
-0.000167016
0.000190847
0.000450233
-0.000474063
-0.000114014
0.00069087
-0.000889665
0.00031281
-0.00044355
0.000105048
0.000107459
0.000231044
-0.00103684
0.00101038
2.64663e-05
0.000865212
-0.000841861
-2.33509e-05
0.000263942
-0.00104366
-0.000421569
0.00120129
0.000222886
0.000438368
0.000115913
-1.58341e-05
0.000384091
-0.000368257
0.000692227
0.000615701
-0.00130793
-0.000709597
0.000437323
0.000295907
-2.36325e-05
-0.000392598
0.000120968
0.000316948
-4.53181e-05
-0.0011293
0.000500354
0.000639482
-1.05338e-05
-0.000362771
-0.000407918
0.00039778
0.000704828
-0.000121701
-0.000421106
-0.000162021
-0.000653238
0.000708803
-0.000435898
0.000104451
-0.000709639
-3.17652e-05
0.000636953
2.0863e-05
-0.000362327
0.000341463
0.0016128
0.000110346
8.32605e-05
-0.00180641
-9.61086e-05
-0.00017024
-0.000941237
0.00120759
0.000306052
-0.000432232
-0.000179677
0.000305857
8.81226e-05
0.000879486
-0.000344049
-0.000623559
0.000970045
-0.000955443
-2.87408e-06
-1.17285e-05
-0.000534098
-0.000486874
0.000769339
0.000251633
0.000318462
0.000237732
-0.000634774
7.85795e-05
-2.96068e-06
0.000601588
-0.000600702
2.07464e-06
-0.000787923
0.000256807
0.000644399
-0.000113283
0.000616648
0.000391718
-0.000656289
-0.000352076
1.76308e-05
-0.00055469
0.000259334
-0.000156143
0.000866855
-0.000431061
-7.16787e-05
-7.12803e-05
0.00057402
-0.000813457
-4.86106e-07
0.000813943
0.00104706
0.000482689
-0.000333251
-0.0011965
-0.000725304
1.71783e-05
0.000725756
-8.02608e-05
-0.000177188
-0.00041949
0.000676939
-7.56767e-05
-9.42466e-05
-0.000231944
0.000401867
0.000191066
-0.000946365
0.000701031
5.42678e-05
0.000712916
-8.7664e-05
-0.000703751
7.84998e-05
-0.00067215
0.000142159
6.99229e-06
0.000522999
-0.000270192
0.000181625
-0.000374063
0.00046263
0.000157648
0.000110161
-0.000926997
0.000659187
3.405e-05
-0.000664994
-3.34275e-05
0.000664372
0.000601159
8.80716e-05
-2.1745e-05
-0.000667486
-0.000701741
0.000158784
0.000594568
-0.000545323
-0.000719317
0.00126464
0.00103723
-0.000521293
0.000230053
-0.000745988
9.40841e-05
0.000562755
-0.000350788
-0.000855764
0.000228259
0.000190762
0.000436743
0.000962044
-0.00101084
4.87974e-05
-0.000625578
-0.000215283
0.000443527
0.000397334
-0.000908709
-0.000705533
0.000465948
0.00114829
0.000854325
-0.000906454
-6.13997e-05
0.000113529
-0.000145681
0.000391994
-0.000312482
6.61692e-05
-0.00104669
0.000306564
0.000252836
0.00048729
-0.00151567
0.00180417
0.000338769
-0.000627261
0.000608129
-0.00145659
3.75919e-05
0.000810864
-0.000635979
0.000797057
-0.00143522
0.00127415
-0.000635217
0.00139672
0.000117902
-0.000879404
3.32078e-05
0.000658988
-0.000129851
-0.000562344
0.00101195
-0.00076514
-9.53173e-06
-0.000237279
-0.000179047
-0.000147885
0.000244765
8.21662e-05
-0.000479035
-0.000949177
0.000822278
0.000605934
-0.000659659
0.00088945
0.00078216
0.000605545
-0.000405308
-0.000567767
0.00036753
0.000200794
-0.000283069
-0.000110886
0.000193161
0.000443511
-0.000440167
-0.000589206
0.000585862
-0.000186794
0.000505018
-4.77295e-05
-0.000270494
-0.000723299
-0.000124222
0.000880729
-0.00054677
-0.000155606
0.000695411
6.9644e-06
0.000231286
-0.000514659
0.000283372
0.000189256
-0.000230052
0.000884766
-0.00084397
0.000753757
-0.00105632
0.000156048
0.000146518
0.000484336
-0.000501046
1.67105e-05
-0.00066083
1.17137e-06
0.00061729
-0.000262223
-0.000587915
0.000232848
0.000185342
0.000171488
0.000713532
-0.00107036
0.00042964
-0.000506493
7.68533e-05
-1.21857e-06
0.000531769
-0.000606966
7.64158e-05
-0.000761959
-7.13732e-05
0.00102259
-0.000325402
-4.96019e-05
8.29863e-05
0.000292018
4.39721e-05
-0.000350637
0.000278832
2.78331e-05
0.000631542
-0.00060605
-0.000171173
6.7732e-05
0.00105891
-0.000676136
-0.000450508
-0.000386079
0.000771923
-0.000385844
-0.000992496
0.000352358
-0.000186458
0.000826595
0.000793966
-0.000711994
-0.00112866
-0.000353883
-0.000474986
0.00163219
-0.000803316
-0.00103935
0.000660227
0.000991936
-0.000612813
-1.82919e-05
-0.000958475
0.000976767
0.00142727
-8.37225e-06
-0.000838662
-0.000580235
0.000823237
-0.000527472
-8.78504e-05
-0.000207914
-0.00057598
0.000409218
-9.91059e-05
0.000265867
1.24783e-06
-0.000710745
0.000709497
-0.000457386
0.000461356
-3.96985e-06
-0.000337482
-0.000293372
-0.000884368
0.00151522
-0.000820946
0.000185225
-9.35934e-05
0.000729314
0.000182625
0.000356071
0.000905223
-0.000833981
-0.000669611
0.000598368
-0.000219658
-0.000514075
0.000570246
0.000163487
-0.000479548
-0.000262708
0.000743763
-1.50715e-06
0.000194777
-0.000110017
-0.000505329
0.000420569
0.000545136
2.84694e-05
-0.000700478
0.000126873
0.000182243
-0.000116655
0.000197498
-0.00022668
0.000210714
-0.000181531
0.000438087
0.000421634
-0.000437871
-0.000421849
0.000252766
0.000609679
-0.000634795
-0.000227651
0.00048736
0.000192625
-0.000377527
0.000613912
-0.000702178
0.000116735
-0.000821842
0.000545602
0.000335829
-5.95888e-05
0.000947573
-0.000312619
-0.00102103
-0.000224759
0.000683923
0.000334803
0.000658618
-0.000307414
-0.000536057
-0.000174511
-0.000111274
-0.000894468
0.000805535
7.70526e-05
1.18801e-05
-4.6652e-05
0.00110783
-0.000106722
-0.000954455
-0.000710283
0.000155761
0.000329764
-0.000138458
-0.000708077
0.000212467
0.000634068
0.00066177
8.10854e-05
-3.89207e-07
-0.000742466
-0.00105745
2.57328e-05
-1.50384e-05
0.00104675
-0.000254235
0.000298823
-0.000472586
0.000427998