/*--------------------------------*- C++ -*----------------------------------*\
  =========                 |
  \\      /  F ield         | OpenFOAM: The Open Source CFD Toolbox
   \\    /   O peration     | Website:  https://openfoam.org
    \\  /    A nd           | Version:  10
     \\/     M anipulation  |
\*---------------------------------------------------------------------------*/
FoamFile
{
    format      ascii;
    class       volScalarField;
    location    "0.4";
    object      SgRate;
}
// * * * * * * * * * * * * * * * * * * * * * * * * * * * * * * * * * * * * * //

dimensions      [1 -1 -3 -1 0 0 0];

internalField   nonuniform List<scalar> 
111485
(
2.86018e-14
2.76166e-14
7.12469e-14
4.21738e-15
8.22998e-14
1.86858e-14
6.53619e-15
4.94113e-15
2.94364e-15
9.71308e-15
1.78719e-14
1.75191e-13
1.93087e-16
8.89084e-16
1.63311e-15
2.15141e-14
1.32077e-12
1.72702e-13
2.30751e-15
5.04933e-13
8.54102e-13
3.95934e-15
1.52971e-14
7.84698e-15
1.15424e-13
3.82598e-14
1.08465e-13
1.86629e-13
2.75443e-14
4.44379e-14
3.25309e-13
2.08653e-12
6.13219e-14
6.93977e-14
5.99272e-15
2.91578e-11
1.60414e-13
1.64873e-13
4.19844e-13
3.83849e-14
7.42307e-13
8.34417e-14
1.40125e-14
1.88577e-13
7.69261e-14
0.00157797
9.59606e-14
1.49224e-14
8.17595e-14
1.367e-14
1.85729e-13
7.9498e-14
4.87624e-13
4.51474e-13
4.59482e-13
2.2861e-13
4.79268e-14
7.12637e-13
2.35717e-15
2.21467e-14
2.80847e-14
6.59216e-14
4.54009e-14
7.20089e-14
2.03665e-13
1.17652e-13
4.78256e-14
1.75204e-14
2.14037e-15
9.65837e-15
1.30808e-13
4.6888e-14
1.55972e-13
9.51917e-15
2.25525e-12
1.38626e-13
7.24127e-14
5.33712e-15
9.16962e-15
2.05857e-14
2.27285e-13
1.34787e-13
3.16412e-13
4.59018e-12
2.82367e-15
8.02501e-15
6.71549e-13
8.68804e-14
1.05983e-13
7.75924e-13
1.87724e-14
2.82334e-15
8.78965e-15
2.46988e-13
1.2068e-13
2.87187e-14
4.1212e-15
9.40401e-14
1.53681e-13
6.67825e-13
7.34671e-14
1.41935e-14
4.5103e-14
8.17179e-14
2.28198e-14
4.94923e-15
2.42345e-15
9.55391e-13
1.76101e-15
8.44952e-14
1.85983e-12
2.0693e-14
3.85023e-14
6.40391e-14
2.58415e-13
6.35967e-13
8.43663e-14
3.07318e-11
1.23427e-14
2.32527e-13
9.41978e-14
2.62583e-13
2.01853e-14
3.33712e-12
5.68618e-14
5.27747e-13
4.55507e-15
8.14286e-14
6.59442e-13
1.40492e-13
6.73884e-14
8.42463e-14
1.50267e-12
3.75338e-13
8.51197e-15
2.34075e-14
9.50726e-15
4.27446e-14
3.2156e-14
3.05992e-16
2.22703e-14
2.03625e-15
1.11357e-15
7.0826e-14
1.63281e-13
8.98568e-14
8.82895e-14
1.43144e-13
3.73322e-12
2.11167e-15
2.22403e-14
2.79163e-14
3.9597e-14
9.97361e-13
1.80393e-13
2.06514e-14
7.62102e-16
2.0308e-14
5.76355e-14
5.47162e-06
3.67889e-14
7.94117e-15
2.54544e-14
3.95488e-13
4.22287e-15
5.74729e-14
5.88148e-14
4.1303e-12
1.65071e-13
3.61505e-13
2.08675e-13
3.07284e-13
2.04119e-13
1.77162e-14
2.34227e-13
3.18037e-13
4.76306e-14
1.28423e-14
2.56798e-14
1.35877e-13
1.97542e-14
4.97337e-14
9.63023e-15
1.99194e-15
1.35442e-15
6.64869e-12
1.59841e-14
2.29607e-13
2.28452e-13
6.10277e-15
4.378e-13
1.44988e-14
5.88251e-14
3.64941e-14
3.18319e-14
1.44401e-14
4.14253e-14
1.06621e-13
3.5108e-12
3.89752e-15
2.81734e-14
1.11429e-13
9.85665e-14
1.86102e-13
6.9102e-14
2.06462e-13
9.13692e-15
1.73174e-13
8.96237e-14
3.63972e-14
1.5576e-14
4.4787e-13
7.52243e-14
1.75751e-14
1.23036e-13
7.36664e-14
1.13409e-13
1.48107e-13
2.63914e-13
4.93515e-13
1.32453e-14
0.00119704
1.15973e-13
3.28859e-14
2.71649e-14
6.24422e-14
2.51938e-13
7.78858e-14
2.74342e-13
1.51869e-13
1.73792e-14
8.52878e-14
3.98357e-13
2.03829e-14
4.7609e-14
3.73399e-13
8.73253e-14
1.19638e-12
1.01793e-14
7.94427e-13
7.24084e-13
2.58709e-13
2.36438e-13
1.00505e-12
2.99791e-14
5.03106e-13
2.14497e-12
1.47778e-13
1.00285e-13
6.07009e-14
1.92837e-14
3.92621e-13
4.14825e-13
1.85752e-13
9.3446e-13
6.52223e-14
1.7172e-13
1.796e-15
1.21204e-14
1.1419e-13
1.35904e-13
4.05111e-14
5.27679e-13
0.000112153
7.04213e-14
4.22653e-15
6.07669e-14
4.8484e-12
1.7498e-13
1.37496e-14
2.4248e-14
1.31675e-14
8.71518e-15
5.57216e-15
5.1503e-15
7.20941e-13
1.31197e-13
2.03193e-13
1.82507e-15
6.08645e-13
6.20463e-13
3.6378e-13
5.50738e-14
1.08621e-13
3.53572e-14
2.04763e-14
8.82182e-15
3.27508e-15
3.17058e-14
1.89391e-13
2.85542e-15
1.27033e-14
4.43374e-14
1.07657e-11
5.26288e-15
4.72911e-14
6.06195e-15
1.09822e-13
2.58669e-14
7.80653e-14
2.31757e-14
1.3129e-13
1.30252e-12
9.02484e-14
1.87565e-13
4.92166e-13
3.25995e-15
7.65039e-13
7.38647e-13
1.90602e-13
4.12369e-15
2.42571e-14
6.06135e-15
2.52344e-14
1.79607e-13
1.03601e-12
2.57478e-14
9.48291e-14
9.25544e-15
1.51256e-13
3.56237e-13
3.09968e-15
1.07376e-14
3.66074e-14
1.41869e-13
1.43753e-13
9.81316e-15
1.88901e-12
8.63095e-14
1.20076e-13
3.09799e-13
7.00027e-14
9.81017e-14
6.78069e-15
2.99365e-13
2.61342e-14
8.73903e-14
8.57868e-13
1.86578e-13
1.68406e-13
8.69144e-14
1.60981e-13
5.54992e-13
8.09192e-13
4.49253e-14
1.52589e-13
9.217e-13
2.72852e-15
1.89663e-14
3.58908e-14
2.54757e-14
4.33855e-13
2.78519e-14
5.1391e-14
3.87958e-14
2.51749e-12
3.69274e-13
3.96552e-14
8.03483e-15
1.63588e-13
2.82978e-15
5.51527e-15
1.90992e-14
5.86314e-14
1.66577e-14
9.53671e-14
4.16146e-14
3.01494e-14
4.10866e-14
0.000195211
2.00199e-12
1.88618e-15
1.67297e-12
3.01651e-13
2.78167e-15
2.91568e-14
6.2603e-15
1.93581e-13
6.04764e-14
9.12962e-14
4.76649e-14
7.33787e-14
3.23139e-13
1.15664e-14
2.33556e-13
8.70141e-14
4.38639e-13
5.98e-14
3.53696e-12
2.89703e-14
5.73043e-15
1.04779e-13
2.98904e-12
2.30006e-14
9.66327e-14
2.17119e-13
1.18706e-13
1.23966e-14
1.56807e-13
3.18799e-14
7.9608e-14
6.47109e-14
6.49722e-14
3.42349e-14
3.74573e-14
1.87445e-13
3.31939e-14
2.31608e-12
8.68776e-14
3.72474e-13
3.50801e-14
1.32233e-13
6.78515e-14
1.69213e-14
1.17803e-13
6.94971e-15
4.98358e-14
1.10248e-13
6.58844e-15
2.99817e-13
7.61666e-14
8.46841e-15
1.89134e-13
3.90243e-14
2.09128e-14
8.06051e-14
9.15869e-14
1.48218e-14
1.02897e-13
1.54158e-13
8.9704e-14
5.06265e-14
0.000156144
1.1912e-13
2.85762e-13
6.58694e-14
8.88179e-15
2.70384e-14
1.12841e-12
9.77751e-15
9.36659e-14
9.77963e-15
5.90654e-13
1.89144e-13
1.04453e-13
9.83536e-15
1.34303e-12
9.1025e-15
2.10223e-13
2.8387e-12
2.75552e-14
1.0369e-13
1.12351e-12
0.000579779
2.7606e-13
2.16306e-13
1.41238e-13
1.33069e-13
4.35848e-15
3.541e-13
1.46416e-13
1.68461e-13
9.65221e-15
2.05177e-13
4.65218e-14
3.87101e-14
6.14731e-14
1.69811e-13
5.8492e-15
8.53698e-13
2.61501e-14
1.01602e-14
4.34656e-14
7.16783e-13
2.61925e-14
1.10601e-11
9.27608e-14
3.26022e-13
3.20926e-13
3.2059e-13
6.52381e-13
6.45292e-14
7.32279e-14
1.29755e-12
1.32614e-13
3.2738e-14
5.41508e-15
8.13463e-14
4.38201e-13
7.53265e-13
3.08578e-15
7.71735e-14
9.12212e-14
1.25911e-14
1.44851e-14
2.02359e-14
5.79105e-14
2.43339e-13
6.00076e-13
2.01078e-13
1.75365e-14
6.27906e-14
1.59676e-13
2.92451e-13
6.34118e-14
2.15527e-14
6.95835e-14
2.13583e-14
1.11733e-12
5.17185e-14
1.81397e-13
8.85662e-13
3.74535e-13
1.10433e-13
1.54186e-14
1.44439e-14
1.27321e-12
4.76169e-13
9.22231e-14
1.70837e-13
2.90438e-13
2.14779e-14
4.01057e-14
6.31261e-12
1.38987e-13
8.15096e-15
3.703e-14
1.29852e-14
1.2137e-13
4.27213e-14
4.08154e-15
2.82224e-14
1.74722e-14
4.96378e-13
1.44495e-13
1.63852e-13
8.45505e-15
3.89245e-15
9.95614e-14
1.32865e-13
8.04124e-13
5.84464e-14
7.45964e-14
1.53638e-14
4.22163e-14
1.32997e-13
6.16634e-14
1.22227e-12
3.7422e-14
1.07802e-14
1.38783e-14
1.41437e-13
8.13585e-15
1.40916e-12
2.67846e-13
3.6459e-14
1.35283e-14
1.48865e-14
5.64032e-14
2.26112e-13
4.33684e-13
1.56764e-14
8.59097e-14
1.34873e-13
2.56579e-12
1.5855e-13
3.05287e-14
6.48026e-14
2.53283e-14
2.69872e-14
1.02186e-14
1.59305e-13
5.81831e-14
3.33644e-13
9.56531e-14
7.79359e-14
8.94945e-14
1.29907e-12
1.9946e-13
3.16779e-13
1.07587e-13
8.39078e-13
5.84953e-14
7.36845e-14
1.02942e-13
1.96456e-15
1.41767e-13
2.45874e-15
4.62328e-14
5.52327e-13
5.95376e-14
4.89489e-14
5.9108e-14
9.35194e-14
2.35809e-14
8.9847e-12
7.39534e-15
2.36817e-13
1.60564e-13
1.35465e-13
4.35835e-14
1.20999e-13
1.24978e-13
1.53469e-12
4.53031e-15
4.01363e-14
1.01981e-13
6.23827e-14
2.38614e-13
8.53698e-14
8.31212e-15
2.18052e-13
6.84412e-14
3.25338e-13
4.15043e-14
1.22764e-14
7.58772e-14
1.75582e-13
1.1234e-13
2.72036e-14
1.4888e-13
7.49732e-14
1.03695e-11
3.22754e-14
4.97447e-14
2.42301e-13
1.81077e-13
1.94702e-13
2.80762e-14
7.62465e-12
2.23502e-13
1.90883e-13
4.00362e-14
1.01255e-13
1.3806e-13
9.47228e-14
5.38123e-14
8.46799e-14
1.32411e-13
1.03533e-13
2.24519e-13
1.14922e-12
2.1498e-13
9.58024e-14
1.26244e-13
4.83238e-14
6.84333e-14
2.01087e-14
3.11716e-13
2.68782e-14
8.54274e-14
1.24826e-09
4.78741e-15
5.54568e-13
2.6137e-14
5.69594e-14
7.68298e-14
9.2639e-13
4.73365e-14
9.50935e-15
1.72415e-14
4.68101e-14
3.80585e-13
3.4579e-14
2.38049e-13
4.75631e-12
5.25697e-13
2.54779e-13
4.42883e-14
2.00191e-13
0.000773702
7.19882e-14
8.72854e-14
3.90745e-14
1.68444e-12
3.5807e-14
2.8239e-14
8.28601e-14
2.56974e-12
4.99609e-14
1.42322e-13
5.45943e-13
4.31809e-14
2.11892e-14
1.80717e-13
1.198e-12
1.48115e-13
1.11899e-12
2.74782e-13
3.42746e-14
4.15044e-14
9.56433e-14
4.82971e-15
1.1729e-13
2.8122e-14
6.35087e-15
9.71464e-14
5.66499e-13
4.95975e-14
7.86631e-13
6.38288e-13
6.38231e-14
2.28834e-13
7.49134e-15
1.83124e-13
8.28981e-13
1.21017e-13
3.65013e-13
2.24992e-13
2.56118e-15
9.2699e-15
5.09981e-12
1.93789e-13
3.12397e-14
1.70018e-14
7.21744e-14
3.23186e-14
1.07977e-13
4.83853e-14
2.03556e-14
3.86299e-13
3.49688e-14
2.13286e-12
9.39894e-14
1.15365e-13
1.35472e-14
3.45853e-14
1.85072e-13
1.6003e-13
3.22476e-15
5.49367e-14
6.6684e-14
8.39799e-14
7.75302e-13
1.54137e-14
3.81704e-13
7.43334e-14
4.15933e-14
4.51139e-14
1.78692e-14
1.41168e-14
8.81895e-14
3.52922e-13
1.60736e-13
3.98779e-13
2.55284e-14
3.62571e-13
3.17139e-12
4.04941e-14
1.27214e-13
6.97349e-14
2.25742e-14
6.52954e-14
4.19202e-13
1.98416e-13
2.4832e-13
6.05387e-15
3.73322e-13
4.64495e-14
9.75445e-13
4.671e-14
6.10899e-14
1.7574e-13
4.26924e-14
4.49796e-14
2.17022e-14
2.16832e-13
5.90327e-14
0.000243694
9.91339e-13
4.45526e-14
2.00727e-12
4.13954e-14
7.54723e-14
5.76818e-13
1.57573e-12
1.56763e-12
2.75978e-14
9.97512e-14
3.58339e-14
5.91342e-13
7.7192e-15
1.71647e-14
4.86775e-13
1.27004e-13
2.14069e-13
5.28509e-14
6.47738e-15
1.37548e-12
1.29286e-13
1.15674e-15
7.41836e-15
5.98756e-14
6.15378e-12
2.00265e-13
4.74495e-15
4.02736e-13
2.03599e-13
4.45486e-14
4.9284e-15
9.18616e-13
1.33016e-14
2.38666e-13
9.41696e-13
5.53601e-13
1.11323e-14
2.50096e-13
1.32237e-14
1.84879e-12
4.21751e-13
1.34767e-13
6.62192e-14
3.02997e-12
2.45575e-13
2.57333e-13
8.64257e-15
1.0748e-12
4.78966e-14
3.07154e-13
5.24935e-13
7.68765e-13
5.47411e-14
1.6448e-12
1.47452e-12
7.50744e-12
7.7307e-14
4.91363e-14
1.4426e-12
8.95831e-13
1.11822e-12
1.47652e-15
6.71588e-13
9.57691e-13
1.97059e-13
5.18638e-14
1.32895e-13
7.83614e-13
5.12551e-14
5.02846e-14
5.13101e-15
1.91659e-13
2.46605e-13
3.36775e-13
1.10302e-13
1.43363e-13
3.67649e-14
4.04816e-14
1.41595e-14
1.24524e-13
9.88969e-14
4.55654e-14
6.74033e-13
5.50384e-13
6.46911e-13
2.07802e-14
1.7042e-13
1.16105e-12
1.91196e-11
6.65719e-13
2.34515e-14
6.75808e-14
9.52338e-14
1.05974e-12
2.56796e-13
1.08639e-14
9.86024e-14
1.49066e-14
4.04749e-13
3.33467e-12
1.04031e-13
6.7803e-13
5.52115e-13
3.37557e-13
8.2131e-14
1.70921e-12
1.81143e-12
6.52491e-13
5.20764e-14
4.84351e-14
2.204e-12
9.56506e-15
1.12974e-14
1.16009e-13
1.35592e-14
2.44577e-13
9.99132e-15
1.0977e-14
2.21304e-14
8.90913e-14
1.1924e-14
1.82526e-13
6.76772e-14
5.88745e-14
6.90578e-14
4.90195e-13
3.13317e-14
8.14997e-14
2.72053e-15
3.53357e-14
6.01184e-14
2.67201e-13
4.72979e-13
3.755e-13
2.36544e-14
1.04168e-13
4.18262e-15
3.98227e-13
2.42028e-13
1.45659e-12
3.98793e-14
4.57262e-15
6.23854e-14
2.08134e-14
1.64528e-14
6.33638e-13
3.45407e-14
5.40341e-13
2.96363e-13
9.23034e-15
8.89456e-13
2.76445e-14
4.43106e-13
2.05124e-15
4.12583e-14
1.13274e-14
3.455e-15
7.30026e-13
1.1355e-13
8.39612e-15
2.59935e-13
3.52787e-13
5.50471e-14
5.96698e-14
2.46194e-13
6.38488e-14
1.5602e-13
2.66306e-13
5.56001e-14
3.23029e-14
1.43629e-13
1.53012e-13
4.11335e-14
1.79863e-12
1.18842e-13
9.18041e-15
2.55555e-14
6.73055e-13
4.57456e-14
2.71657e-13
2.11061e-13
9.95348e-15
4.33966e-13
1.56587e-13
2.00961e-15
8.84306e-14
5.06283e-14
3.64571e-13
9.48231e-14
5.29738e-14
2.90349e-14
1.09052e-13
2.29958e-13
2.08542e-14
2.02515e-16
2.56176e-15
1.80339e-13
1.2182e-13
2.47242e-13
4.50658e-15
4.70154e-14
1.022e-13
2.54509e-12
3.0731e-13
1.05461e-07
1.62757e-13
1.64632e-14
1.98412e-14
1.27435e-13
6.48069e-13
7.54421e-15
1.08006e-12
2.03615e-12
1.63761e-13
2.95713e-13
6.80769e-13
2.74527e-13
1.61968e-13
6.71224e-14
3.26125e-13
2.75349e-13
2.51486e-13
5.50512e-13
5.59654e-15
2.79746e-13
1.87048e-13
8.78948e-14
3.83832e-14
3.53928e-13
1.75388e-13
7.7554e-14
1.6958e-12
4.82605e-13
6.34302e-14
9.25325e-14
2.10753e-13
1.27328e-14
1.60338e-14
2.4235e-13
8.22768e-15
1.90733e-14
2.43795e-14
9.99737e-14
3.382e-13
6.48035e-14
7.61996e-15
8.8217e-15
9.14084e-14
4.18668e-14
6.77007e-14
2.9447e-14
3.39299e-13
9.30971e-14
6.69444e-13
3.18594e-12
9.01731e-14
1.04932e-13
4.53051e-15
2.81094e-13
1.00805e-12
6.00398e-14
1.44894e-13
5.33054e-15
6.20077e-15
3.28122e-13
2.58534e-13
2.72237e-13
2.41183e-13
1.3667e-14
6.03045e-14
4.51561e-15
2.88231e-14
2.06223e-14
2.83188e-14
1.42568e-14
1.04416e-12
1.38928e-15
2.38409e-15
1.06785e-13
1.01362e-14
4.71713e-14
2.55728e-13
1.33846e-12
5.97646e-14
5.51002e-14
1.84929e-13
3.35625e-14
1.55254e-13
5.36235e-14
3.10872e-14
2.15657e-14
8.0342e-14
3.84572e-12
5.65963e-15
5.53965e-13
3.68326e-14
1.49025e-12
6.3703e-14
5.49021e-14
8.08211e-15
1.87374e-12
3.53835e-13
4.69021e-14
6.1252e-16
6.11564e-09
1.0215e-14
1.06181e-14
3.5193e-12
3.93764e-14
1.12412e-14
2.67682e-13
2.70654e-13
1.28411e-13
2.59963e-13
4.48154e-14
2.66955e-14
3.48346e-13
5.37244e-14
9.51757e-13
2.80062e-13
6.62132e-14
3.74045e-14
1.63169e-14
3.2951e-13
5.75675e-14
5.6683e-14
6.41435e-14
3.07506e-14
8.33889e-14
7.11976e-14
2.50766e-13
1.26464e-14
1.57558e-13
9.67845e-14
1.87144e-14
1.55201e-13
5.75259e-13
1.18257e-13
1.70974e-14
1.90035e-13
2.07628e-13
7.0735e-14
2.61165e-13
1.70319e-13
5.22137e-14
1.03641e-13
2.44195e-14
8.72677e-15
5.95545e-13
9.45699e-14
2.08622e-15
5.69804e-14
3.83652e-14
1.32618e-13
5.5442e-14
6.28324e-13
2.18285e-14
1.957e-15
1.56458e-15
2.52717e-14
1.78708e-14
1.39567e-13
3.76772e-13
1.36606e-13
3.13242e-13
1.21673e-14
6.48193e-14
1.12622e-15
9.6717e-15
8.21403e-14
2.81233e-15
3.06443e-14
8.21165e-14
5.99179e-15
5.67517e-15
5.85615e-14
3.95544e-14
1.20237e-13
2.81198e-15
5.06375e-14
2.25685e-14
1.25999e-13
3.96778e-13
1.73274e-12
1.30876e-13
2.861e-13
1.29196e-13
5.48191e-13
1.28362e-12
3.60562e-14
9.0363e-14
7.74316e-14
2.94442e-14
5.90984e-14
1.55231e-13
8.67993e-13
3.57749e-13
4.41027e-15
3.81894e-13
4.45473e-14
1.74114e-14
5.95411e-13
1.06734e-14
9.67987e-14
1.70771e-13
4.00293e-15
4.07401e-15
2.81872e-14
1.28499e-14
3.02692e-13
1.88997e-14
4.32224e-14
8.56664e-15
1.04294e-14
1.9802e-13
1.74846e-14
4.70069e-13
1.17481e-14
6.87577e-14
1.11158e-14
6.22502e-13
1.7353e-14
6.72774e-14
4.29736e-15
6.04672e-14
4.30869e-14
2.00734e-13
2.12484e-13
7.51703e-14
2.10656e-13
1.26149e-15
9.79855e-15
6.07079e-16
9.8182e-14
1.06054e-13
9.49749e-14
3.83645e-13
1.54411e-13
5.61951e-13
9.70498e-13
3.64573e-13
5.60886e-15
6.03894e-15
2.05362e-14
2.21624e-14
1.13667e-13
5.55647e-14
5.78327e-14
7.61865e-13
1.00723e-13
5.80883e-13
1.3121e-14
1.42259e-13
9.0561e-14
3.74037e-14
2.89278e-14
2.16362e-15
1.0466e-12
5.30546e-15
5.2321e-14
9.67027e-14
1.08149e-14
3.55194e-14
7.78741e-15
1.28894e-14
2.13698e-13
2.66559e-15
2.29257e-14
1.19757e-13
2.30237e-14
1.9815e-14
5.89192e-14
7.19965e-14
1.20371e-13
2.69145e-14
3.5798e-15
1.32201e-13
3.49883e-14
6.15597e-15
1.13646e-13
1.12903e-14
1.06214e-13
7.4854e-14
7.96232e-14
3.45339e-13
3.43633e-14
5.12385e-14
7.581e-14
2.19587e-14
1.8213e-14
3.12796e-15
3.51656e-14
6.93574e-14
1.86585e-13
4.2522e-14
3.69343e-14
9.18573e-12
3.69888e-14
3.15366e-13
1.15459e-13
2.86226e-15
1.05914e-13
7.44752e-14
5.88816e-14
5.60615e-14
1.07657e-14
1.21505e-13
1.07317e-14
3.31247e-14
1.97308e-14
4.81315e-14
4.18207e-15
3.9271e-14
6.4454e-14
1.72377e-14
2.49789e-15
9.4661e-14
1.33381e-12
3.92745e-15
5.48475e-14
6.28716e-14
1.79968e-12
3.14503e-14
9.47667e-12
5.2552e-14
2.69313e-13
5.59777e-14
1.40986e-14
4.33927e-14
1.17522e-13
3.91051e-14
1.60647e-14
8.83901e-15
7.99798e-15
3.09463e-13
4.45501e-13
1.21551e-13
1.18523e-13
8.76975e-14
7.80741e-16
1.33858e-14
1.83476e-13
5.44664e-14
1.71624e-14
3.42898e-14
7.06208e-15
1.67334e-14
6.97829e-14
1.92601e-14
5.36943e-14
1.12881e-14
1.11469e-12
8.91126e-14
7.64377e-15
9.06555e-13
1.40327e-14
1.41937e-11
6.41407e-15
9.91759e-15
5.07699e-15
5.29294e-14
1.50033e-13
1.15492e-13
1.05579e-12
6.88175e-15
3.10049e-13
1.49751e-13
1.49309e-14
1.04318e-14
3.73562e-14
5.22002e-13
2.49139e-14
4.6968e-15
4.94637e-13
4.09448e-14
1.78115e-13
6.75198e-14
1.19662e-13
1.78309e-14
8.30486e-15
2.40599e-14
4.76413e-14
3.00793e-14
2.63234e-14
8.47719e-15
1.72252e-14
3.3616e-14
1.88137e-08
3.96491e-15
1.28095e-13
6.79824e-16
3.81162e-14
2.67679e-14
3.24674e-13
9.47788e-14
3.11555e-12
1.41126e-14
1.19144e-13
1.23654e-13
1.72335e-15
5.75219e-14
1.47162e-13
1.19759e-13
1.17879e-13
3.46125e-15
4.40185e-13
2.41751e-08
6.09465e-16
5.30652e-14
3.60901e-12
4.51506e-14
1.14077e-13
5.24478e-15
4.75288e-14
1.00667e-13
1.46231e-08
1.94024e-13
6.33614e-15
2.04688e-14
9.69392e-14
2.21491e-13
2.58398e-14
7.47114e-14
1.09177e-14
1.35417e-13
8.42344e-13
2.48721e-13
2.02814e-13
4.5757e-15
3.47217e-13
3.29613e-13
5.8906e-15
3.80127e-14
8.10492e-13
1.09387e-13
8.682e-13
2.18332e-13
3.41043e-13
5.85003e-13
7.53364e-14
1.14876e-13
2.25959e-13
4.73543e-14
2.18193e-14
3.22739e-13
2.1728e-13
1.09528e-14
4.25624e-14
7.25417e-13
1.09681e-13
3.45565e-14
5.08857e-15
1.16908e-13
6.77965e-14
7.25554e-15
4.88259e-14
2.2242e-14
2.39136e-13
1.29272e-13
1.51043e-13
8.64571e-15
8.06985e-14
6.9165e-14
1.46821e-14
2.17596e-14
6.14037e-14
1.1788e-13
8.27249e-14
6.35007e-13
1.30084e-13
1.06506e-13
3.45774e-16
2.41756e-14
2.82249e-13
2.23199e-15
1.20103e-13
5.31491e-05
1.34551e-12
4.7186e-13
1.06601e-13
1.06352e-15
6.0688e-15
5.47686e-14
1.23826e-13
5.62344e-14
1.85785e-14
5.17996e-14
6.09545e-13
2.98205e-13
4.38763e-14
4.47896e-15
1.40007e-13
1.36157e-13
6.77648e-15
2.58684e-13
3.04819e-13
2.07163e-13
2.42019e-13
6.21663e-13
9.36887e-14
7.25892e-09
5.71138e-14
2.01668e-14
1.9836e-13
6.74825e-13
6.39648e-14
1.55582e-12
4.85421e-14
7.21587e-13
1.65239e-13
5.41727e-14
6.55519e-14
2.3403e-13
9.63707e-14
8.48601e-14
3.74252e-14
4.20145e-14
3.6553e-14
5.86422e-15
2.21313e-13
6.03511e-14
3.37744e-12
8.9512e-14
3.88127e-14
1.36081e-14
9.57175e-12
9.58997e-15
3.9262e-13
2.09463e-14
4.64909e-13
5.80961e-13
1.57864e-13
5.04473e-13
9.84091e-14
3.66811e-14
1.07104e-12
3.37683e-13
3.96994e-12
6.09829e-13
3.79493e-13
1.7424e-14
3.3999e-14
1.33562e-13
3.54705e-13
9.03039e-15
7.96227e-13
3.24824e-12
9.13499e-14
1.45293e-12
8.72968e-12
9.08952e-15
2.68983e-14
6.75555e-14
9.46785e-13
1.91382e-14
1.30464e-10
2.97469e-14
3.50443e-13
4.51253e-13
2.73249e-13
2.95803e-13
7.87308e-14
1.41804e-14
1.24356e-13
9.08826e-13
3.17926e-13
3.82418e-13
5.14023e-15
2.83174e-13
3.84516e-13
8.45248e-14
1.49643e-12
2.95733e-14
5.42149e-13
3.41775e-11
2.48785e-14
1.3403e-13
7.46221e-14
7.54965e-15
1.19608e-14
3.25467e-12
8.93807e-14
7.90508e-15
8.27868e-14
1.07165e-13
2.81512e-13
1.02889e-12
5.21686e-13
8.25099e-13
1.65614e-13
8.7977e-12
1.48225e-14
9.34402e-15
1.25218e-13
1.1558e-12
1.55978e-14
1.10877e-13
8.16694e-15
1.41862e-13
3.69415e-14
4.70158e-13
5.41503e-14
1.61119e-13
2.41618e-14
3.92783e-14
0.000119065
8.23566e-15
1.78764e-13
3.8324e-13
2.81607e-15
7.60253e-13
2.02513e-13
1.95885e-14
2.64447e-13
1.42697e-13
2.07571e-13
4.25074e-13
1.45521e-13
1.9747e-14
4.29966e-14
3.9318e-15
3.75999e-15
4.07465e-14
6.74459e-14
5.01537e-13
1.00924e-14
3.73447e-14
7.00188e-14
2.37238e-14
7.42823e-14
9.89851e-14
1.38052e-14
2.34042e-13
1.31142e-14
5.08416e-14
5.55485e-13
5.87378e-14
6.32947e-14
4.23272e-13
3.02411e-13
1.96724e-14
5.48638e-14
1.4504e-14
8.84469e-14
4.04606e-14
5.38048e-13
1.38462e-14
1.30778e-13
1.62343e-13
6.47475e-15
4.32203e-13
2.72474e-13
8.91881e-14
4.80007e-15
1.13301e-13
3.43862e-14
2.18292e-14
1.09625e-13
2.78689e-14
1.6512e-14
1.95454e-13
2.31849e-14
1.82507e-13
2.19875e-13
1.60387e-14
1.82119e-13
1.24818e-13
3.51574e-13
3.91116e-14
2.35605e-13
1.42215e-15
3.28028e-13
9.14505e-14
3.16427e-14
1.62806e-14
1.77396e-13
4.90679e-13
5.34623e-15
6.2865e-14
1.92073e-13
1.51624e-13
2.45045e-14
6.0948e-14
4.13547e-14
5.47901e-13
8.85548e-14
4.93309e-14
1.20195e-13
2.58071e-11
7.96221e-15
2.53481e-14
1.7209e-14
7.14521e-14
1.32083e-14
8.3863e-15
1.53088e-14
3.57504e-15
6.49236e-14
4.46704e-15
4.15389e-14
9.26683e-13
9.5926e-14
4.29153e-14
2.63028e-14
1.43368e-12
1.08143e-14
5.35082e-13
1.97495e-14
9.88536e-15
7.45998e-14
1.99273e-14
3.30565e-13
8.54401e-14
5.89541e-14
3.69007e-13
2.69554e-14
4.81274e-14
6.01741e-14
6.56596e-13
1.11864e-13
2.66219e-14
7.65502e-14
4.02722e-14
2.28905e-13
0.000279249
3.5195e-15
1.86726e-14
3.1649e-14
3.17752e-14
2.3252e-12
6.04642e-13
5.4883e-14
1.17989e-14
9.11396e-14
1.72526e-14
7.64013e-14
2.30294e-14
1.49474e-13
2.41633e-14
2.28802e-14
7.46839e-14
1.74819e-13
8.17764e-14
9.63203e-14
3.90062e-14
1.07334e-14
6.89929e-14
1.79427e-14
3.81481e-14
2.28153e-13
6.19977e-14
1.49597e-13
1.29914e-12
1.69448e-13
2.75209e-13
3.37058e-13
8.94356e-15
8.49717e-15
2.04938e-14
2.47427e-15
4.3632e-13
2.99603e-14
6.24525e-13
1.76373e-12
5.96405e-14
1.86982e-13
1.63601e-13
3.36749e-14
7.47646e-14
5.11405e-14
7.23591e-15
1.18398e-12
5.22708e-13
4.84428e-14
3.87351e-14
6.44043e-14
1.15295e-13
9.26689e-14
7.39151e-14
2.20415e-13
2.85254e-14
4.07629e-13
1.94245e-14
1.02618e-13
1.00611e-13
1.64832e-14
2.23709e-14
6.45428e-14
2.24188e-15
5.98479e-14
9.27955e-13
1.1126e-14
6.35769e-15
1.61585e-13
8.19236e-13
2.20003e-13
1.37596e-14
5.5815e-13
4.81201e-14
7.43806e-14
5.27148e-15
5.21218e-13
4.51269e-14
7.05755e-14
6.19772e-13
6.22139e-14
1.34677e-13
4.77123e-14
8.44663e-15
1.84785e-14
9.94276e-14
8.83143e-15
5.55311e-14
5.62829e-14
6.52792e-14
2.33186e-14
7.37453e-15
2.01509e-14
2.0972e-13
1.23721e-14
3.00543e-14
3.77114e-14
4.95639e-15
5.03924e-14
2.54083e-14
1.07505e-14
9.04894e-14
7.50372e-14
1.38258e-13
2.00536e-14
3.93533e-13
5.98044e-14
1.35014e-12
1.86733e-14
2.12494e-14
2.82974e-14
4.46301e-14
6.82451e-14
6.53681e-15
1.66421e-05
1.63342e-13
1.33762e-14
2.48716e-14
9.3073e-14
1.46528e-13
3.70968e-15
9.11463e-13
6.04162e-13
2.08907e-13
1.10263e-13
2.11344e-15
5.23004e-14
4.05369e-16
1.13819e-14
7.57492e-14
9.24397e-14
2.68028e-14
1.7113e-13
2.13964e-13
1.69668e-13
8.26417e-14
3.01086e-13
3.77091e-13
1.04342e-13
2.33387e-12
0.000759601
1.8017e-13
1.06434e-14
7.14881e-13
2.00463e-15
7.09358e-14
3.05424e-14
1.60632e-14
4.5832e-14
2.92793e-13
7.35846e-15
1.56823e-13
1.20683e-13
2.59117e-14
9.31041e-14
4.8011e-13
1.18428e-14
3.44787e-13
6.12141e-13
4.31889e-14
1.91495e-13
6.38467e-14
3.1407e-13
6.5192e-14
1.60967e-13
6.56884e-15
8.47278e-14
1.32075e-13
9.6813e-14
4.75262e-15
2.51476e-14
1.20783e-13
1.21987e-14
3.62775e-14
2.0248e-13
3.44908e-14
5.55364e-14
3.49525e-14
4.33279e-14
1.38516e-14
7.04375e-14
1.04453e-13
3.34748e-15
1.72826e-13
1.61182e-14
3.26979e-15
9.95966e-14
3.48067e-14
7.07503e-14
1.51192e-15
7.55889e-16
1.21996e-13
2.65366e-13
7.3589e-14
4.94586e-13
5.23293e-13
1.53861e-13
2.92911e-12
5.9782e-14
3.01e-15
2.8084e-14
8.67954e-14
6.36067e-11
3.4695e-13
1.42031e-15
5.42949e-15
3.57253e-14
1.47501e-14
1.37909e-13
1.19628e-12
6.00602e-14
4.56681e-14
7.85042e-12
3.366e-13
1.14314e-13
1.28877e-13
2.57158e-13
1.96122e-13
1.07431e-13
1.40521e-13
3.83292e-14
4.40333e-14
5.48122e-15
1.01891e-14
1.81548e-13
4.34809e-14
6.91578e-14
5.37479e-15
1.30438e-14
2.09117e-12
2.96846e-14
3.63402e-14
2.31678e-14
9.96857e-14
1.09954e-13
8.60295e-13
2.75265e-13
9.04417e-15
3.25925e-13
2.8513e-13
2.00829e-11
6.63133e-14
3.92067e-13
8.32861e-13
4.6532e-13
4.00255e-13
7.07169e-14
1.53673e-13
6.48072e-14
1.48854e-14
2.02568e-14
5.10695e-14
6.12735e-15
1.45419e-13
2.6984e-13
3.15862e-13
2.49595e-12
3.53882e-14
5.035e-14
1.07868e-13
1.97488e-12
3.49505e-15
1.90408e-13
6.76629e-14
2.45686e-15
1.93147e-13
1.74385e-14
8.05146e-14
8.97725e-14
2.05902e-13
1.38584e-12
3.52769e-15
5.30169e-14
5.77924e-13
6.12602e-14
5.79425e-15
1.03784e-15
1.52118e-13
3.37555e-14
2.9838e-15
4.41825e-13
1.82521e-13
2.66507e-14
0.000356791
7.51506e-16
9.47612e-14
4.56088e-15
1.61294e-08
7.69352e-12
2.49479e-13
8.96602e-12
4.94323e-15
4.08668e-14
2.97635e-12
2.84834e-13
2.42689e-14
4.90787e-14
1.74019e-13
9.16959e-14
6.57327e-14
9.16276e-14
6.05357e-13
5.76671e-13
1.82811e-13
1.3494e-14
5.12079e-14
1.20584e-13
2.25328e-14
1.05925e-13
1.70434e-13
2.01293e-13
1.80493e-13
8.89328e-13
8.14119e-14
6.07253e-15
1.13113e-13
4.91621e-14
1.68228e-13
1.47891e-13
1.98735e-13
5.35265e-15
3.39796e-14
5.80063e-14
2.21006e-12
1.09634e-13
8.03319e-14
1.10412e-13
3.0972e-12
7.06068e-14
1.17657e-14
1.63207e-13
5.02912e-14
1.33716e-13
7.55872e-14
3.2089e-13
3.80895e-15
1.77684e-13
1.6099e-13
2.13753e-14
4.74862e-13
5.42308e-14
7.86441e-14
6.18366e-14
1.84278e-05
1.34334e-13
1.55874e-12
1.95145e-11
0.000873214
2.64645e-13
3.4812e-14
1.63044e-13
7.94446e-14
1.41785e-13
2.63225e-14
2.375e-13
8.33247e-15
5.9207e-14
0.000103271
3.04673e-13
7.26804e-14
1.74474e-14
1.69416e-13
2.44294e-11
1.95952e-13
1.76062e-14
2.60426e-12
2.10802e-14
1.91771e-13
7.83644e-14
3.77181e-13
4.03392e-14
5.13548e-13
6.76819e-11
4.15195e-13
3.63547e-13
1.96436e-13
2.68723e-14
2.39914e-13
1.37877e-14
8.22778e-15
9.28584e-14
1.09586e-14
2.99442e-13
3.35489e-14
2.65962e-14
2.65677e-14
7.77906e-14
3.92919e-14
2.29008e-13
4.43829e-14
1.8817e-14
5.12476e-14
0.000976391
5.94564e-15
6.31851e-14
4.81103e-14
7.68126e-15
5.02006e-13
1.40767e-14
4.49501e-15
6.3114e-13
1.76022e-14
7.772e-13
6.18818e-13
7.25258e-14
6.4398e-14
7.22282e-14
1.83929e-14
1.32676e-14
1.0532e-13
7.3641e-13
6.48568e-14
3.16432e-15
4.20311e-15
1.11814e-14
5.03113e-14
1.2719e-13
1.56038e-13
1.75704e-13
1.27413e-13
1.28662e-13
2.68051e-13
8.49638e-13
1.66072e-14
8.4938e-14
0.000698928
2.69046e-12
2.90369e-14
3.96535e-14
1.9298e-13
7.4003e-11
1.54081e-14
7.33878e-14
9.38476e-13
7.78318e-13
0.000895378
4.56136e-14
6.84446e-14
2.6559e-14
3.10555e-14
6.41051e-13
4.07545e-13
3.98593e-14
1.39362e-15
4.11372e-14
2.0118e-13
2.46598e-14
1.55214e-14
3.51144e-13
2.27815e-13
7.0327e-14
5.90551e-15
7.19719e-14
7.05703e-14
1.75293e-13
6.92679e-13
2.28553e-13
2.69633e-13
5.87631e-14
0.000174773
3.86412e-13
3.28316e-09
4.08138e-13
9.32553e-15
6.16589e-14
8.86708e-13
9.62359e-15
4.81847e-14
1.29371e-14
3.15001e-15
5.92695e-15
4.49921e-13
1.5925e-14
6.73458e-13
8.76085e-14
2.66521e-13
4.01237e-14
1.88339e-12
2.9331e-15
1.89924e-13
9.56446e-13
2.12281e-13
1.56642e-14
1.30618e-14
3.92041e-13
1.59985e-13
6.93969e-14
4.55099e-12
1.59916e-13
2.78666e-13
4.83819e-15
4.04235e-13
1.82409e-13
2.98459e-14
7.76135e-13
1.70384e-14
3.95078e-13
1.00838e-13
1.41283e-13
4.83825e-14
6.47767e-13
1.37775e-12
5.748e-15
3.83383e-13
1.7862e-13
4.48435e-13
9.70093e-15
7.49248e-14
2.5305e-14
5.39601e-14
9.83846e-15
7.51094e-14
3.51714e-13
6.62476e-15
4.25791e-14
1.75801e-14
2.75818e-13
1.07639e-14
7.44682e-14
1.85243e-13
1.51264e-12
3.47921e-13
4.47206e-14
3.18163e-13
1.51267e-13
1.78276e-13
9.5814e-13
3.62102e-14
1.37755e-13
2.32554e-14
4.53404e-13
1.4232e-13
1.43361e-13
3.43434e-13
1.2617e-13
1.45157e-13
1.15422e-13
6.14479e-13
3.58492e-14
1.72027e-13
2.85573e-13
4.87142e-13
2.0137e-14
5.14716e-14
8.7448e-13
1.10195e-12
7.66915e-14
6.01543e-13
1.03066e-13
4.11326e-13
9.02853e-14
1.08342e-13
1.40452e-12
1.35004e-13
1.14194e-13
2.2667e-13
2.64924e-13
1.17484e-13
2.50014e-14
1.42547e-14
1.30663e-05
9.3371e-14
3.34321e-14
1.29062e-13
5.90378e-13
1.84561e-13
2.59417e-13
1.20658e-14
2.53969e-14
4.69123e-14
1.54634e-14
1.02161e-12
5.19293e-13
3.7717e-14
1.28628e-13
4.20915e-13
2.85669e-13
4.53836e-13
3.86297e-14
3.88518e-13
1.40081e-13
2.87673e-14
2.23106e-15
2.49494e-14
5.1641e-14
9.10102e-14
1.79431e-13
2.06641e-15
1.14284e-12
4.23587e-10
0.00115267
3.43803e-14
1.99145e-13
7.87922e-14
2.36475e-13
2.35931e-14
1.11418e-12
4.68702e-14
3.68067e-14
7.20522e-14
6.23737e-13
4.61252e-14
2.18857e-14
1.77904e-13
5.99709e-13
1.44504e-13
2.36222e-13
1.30648e-14
1.68342e-14
1.24873e-15
3.1026e-13
2.01625e-13
4.34281e-14
6.51864e-14
1.25897e-13
4.39715e-14
3.01078e-15
8.7944e-13
3.6082e-14
8.74623e-14
9.44235e-14
1.70471e-13
4.60974e-13
1.2628e-15
7.01144e-13
8.52616e-15
5.11915e-14
2.6097e-13
1.96736e-13
1.87613e-13
3.42355e-15
3.18004e-12
9.75442e-15
3.47702e-13
8.83108e-14
2.4792e-13
7.20337e-14
2.49562e-14
3.05352e-13
1.10726e-13
6.33281e-15
2.90799e-14
1.96092e-14
1.49414e-13
3.31681e-14
7.66676e-15
2.65194e-14
3.15517e-13
0.000484441
0.0015066
9.39666e-13
4.18038e-15
3.99321e-14
6.78786e-14
4.07394e-13
3.21289e-14
3.26894e-14
4.25773e-14
5.40348e-15
9.41098e-13
3.43031e-14
2.93218e-14
1.87432e-14
3.4284e-13
9.23099e-14
3.1975e-13
5.98857e-15
4.38102e-15
2.57633e-14
1.39329e-15
1.27962e-13
0.000548756
4.53668e-15
1.92246e-14
8.86096e-12
5.941e-14
1.8786e-13
1.37896e-14
2.63015e-13
6.7604e-14
8.04403e-14
6.75948e-14
6.42372e-15
1.53767e-14
1.90544e-14
8.89659e-14
7.71621e-14
7.61171e-15
1.17399e-14
4.72688e-14
1.441e-13
1.08769e-12
3.53269e-13
4.56725e-14
1.02249e-11
9.98498e-14
1.64189e-14
4.96827e-14
2.05743e-14
8.82971e-14
2.29262e-14
2.01342e-13
2.93786e-14
9.38682e-14
7.51886e-15
3.09595e-15
1.22409e-13
1.55773e-13
3.13422e-13
4.9338e-14
3.27367e-14
4.91995e-14
5.22902e-14
6.82673e-14
1.77439e-14
3.4429e-14
1.45642e-13
1.06106e-13
4.60893e-14
2.62498e-15
2.07968e-14
8.3672e-14
3.93931e-13
1.99448e-14
6.90023e-13
8.40765e-14
4.84917e-14
3.43582e-15
1.48184e-13
3.23151e-10
3.61524e-13
3.2427e-14
1.45179e-13
1.64168e-14
1.11519e-14
1.0452e-13
4.24615e-14
2.21071e-13
5.77961e-14
1.77622e-14
1.97917e-14
2.99854e-14
3.28466e-14
5.60291e-15
1.40941e-14
2.24305e-14
2.59598e-14
4.55288e-14
3.60869e-14
5.1242e-14
2.75299e-14
7.30603e-14
8.67507e-14
2.70707e-09
4.64835e-13
5.80447e-13
4.34824e-13
2.05461e-15
8.48059e-14
9.19384e-14
1.03821e-12
1.06731e-13
1.09138e-11
9.10047e-15
8.5042e-14
1.6085e-14
8.51736e-12
1.84436e-14
8.90638e-05
5.07132e-14
3.6956e-15
6.22494e-14