/*--------------------------------*- C++ -*----------------------------------*\
  =========                 |
  \\      /  F ield         | OpenFOAM: The Open Source CFD Toolbox
   \\    /   O peration     | Website:  https://openfoam.org
    \\  /    A nd           | Version:  10
     \\/     M anipulation  |
\*---------------------------------------------------------------------------*/
FoamFile
{
    format      ascii;
    class       surfaceScalarField;
    location    "1.6";
    object      phi;
}
// * * * * * * * * * * * * * * * * * * * * * * * * * * * * * * * * * * * * * //

dimensions      [0 3 -1 0 0 0 0];

internalField   nonuniform List<scalar> 
214403
(
-0.00325322
0.00249099
0.000139486
0.000622744
-0.00152232
-0.00520755
0.000393968
0.0063359
-0.0048308
1.12221e-05
-5.64171e-05
0.00487599
0.00427621
-0.0028574
-0.00717569
0.00575688
0.0056345
-0.00710532
0.00165751
-0.000186688
-0.00247723
0.00258302
-3.09437e-05
-7.48471e-05
-0.000392826
-0.000771463
-0.00426199
0.00542628
-0.00767173
0.00437479
-0.00114575
0.00444269
-0.0108614
0.00763324
0.00777502
-0.00454688
0.00636408
0.000767853
-0.0072014
6.94651e-05
0.00238317
-0.00469608
0.000982011
0.00133089
-0.00464861
0.00143937
0.00241379
0.000795453
0.000221803
-0.00544566
0.00659174
-0.00136788
-0.00470521
0.00469088
1.43256e-05
0.000915077
0.00555635
-0.00714858
0.000677151
-0.00546973
0.00454851
0.00136533
-0.000444112
-0.00559828
0.00544666
0.000151621
0.00184189
-2.25071e-05
-0.000455621
-0.00136376
0.00712092
-0.00425091
-0.00950313
0.00663312
-3.60518e-05
-0.00149638
4.36086e-05
0.00148883
0.00306815
-0.00298301
-8.51457e-05
-0.00567743
-0.00196274
0.00195034
0.00568983
-0.00106294
0.00627349
-0.00504116
-0.000169388
0.00305863
0.000297959
0.00104603
-0.00440262
-0.00471335
-0.00224
0.00608943
0.000863929
0.0044341
-0.00561329
4.01575e-05
0.00113904
0.00144605
-0.00123372
0.00472535
-0.00493769
0.00362654
0.00472351
-0.00570104
-0.00264901
0.00508115
-0.00317547
-0.000153687
-0.00175199
-0.00282437
0.00288011
-5.57347e-05
0.00112274
-0.00233574
0.0062388
-0.00502579
0.00642044
0.000308789
-0.00111213
-0.0056171
-0.0027073
-0.00277557
0.00284619
0.00263667
-0.00054906
-0.00311531
0.00275031
0.000914058
0.00204304
-0.00133322
-0.00445041
0.00374059
-0.00078293
0.0039276
-0.00142323
-0.00172144
0.00737607
-0.000178257
-0.00719781
-0.0031857
0.00626405
-0.00307834
0.000579395
-0.00691158
0.00401878
0.0023134
0.00109972
-0.000446434
0.0027432
-0.00339649
0.00262557
-2.22714e-05
-0.0026033
0.00458902
-0.000114717
0.000849907
-0.00532421
-0.00589994
0.000714137
0.00628553
0.000456901
0.000428555
0.00400676
-0.00489221
-0.0018702
-0.0125967
0.0122142
0.00225277
0.00275848
0.000508997
0.000613051
-0.00388053
0.00189459
0.00147761
-0.00468276
0.00131056
0.00605667
0.00360927
-0.00660732
0.000530754
0.00511048
-0.00105221
0.000880028
-0.00327808
-0.00193409
0.00433214
0.00150863
0.00229684
0.00067691
-0.00448239
0.000863531
-0.000655269
-0.00197387
0.00176561
0.00333004
-0.00602211
0.00420071
0.00540964
-0.00513124
-0.00173091
0.00145252
0.00514439
-0.000934328
-0.00393064
0.00532288
-0.000212268
-0.00117998
0.00402132
-0.00517063
7.45983e-05
0.00107471
-0.003825
0.000261903
0.00610654
-0.00254345
-0.0074605
-0.00740267
0.00600323
0.00885994
-0.00373297
0.00374404
0.000733449
-0.00074452
0.000571595
-0.004751
-0.00413692
-8.56349e-05
0.0021486
0.00207395
-0.00656504
0.00281295
0.00420861
-0.000456524
0.00724143
-0.00581135
0.000318121
-0.00174819
0.000336125
0.000135445
-0.00478887
0.0043173
0.000278116
-0.00143183
0.00702076
-0.00586705
-0.0167932
0.00202589
0.00182604
0.0129412
-0.00143282
0.00429891
-0.00136653
-0.00149955
0.00234207
-0.00121401
-0.00499308
0.00386501
0.000571815
0.00369014
-0.00466616
0.000404204
-4.96506e-05
0.00402482
0.00135153
-0.0053267
-0.00083538
-0.000136649
-0.00178739
0.00275942
-0.00432252
0.00473159
-0.000181756
-0.000227317
0.000183881
-0.00440685
-0.00306244
0.00271861
0.000823519
-0.000479693
-0.00770973
-0.00048975
0.00374833
0.00445116
-0.00236213
-0.00100064
0.00199749
0.00136528
0.00339193
-0.0113905
0.00152309
0.00647544
-0.00181977
0.00364951
-0.00199782
0.000168079
0.00256589
-0.00200153
0.000246631
-0.000810987
8.79815e-05
-0.00496502
0.00487704
8.15663e-06
0.00389131
-0.00389947
0.00350326
-0.000687482
0.000451623
-0.0032674
-0.00219153
0.00312856
0.00103678
-0.00197381
-0.00152106
0.00656458
-0.00159148
-0.00345205
0.00319825
-0.00551848
-0.000175655
0.00249589
0.00347404
0.00363219
-0.00710623
0.00498537
-0.00561435
0.00146379
-0.000834811
0.000464357
-0.000908694
0.00665423
-0.00620989
0.00021177
-0.00107094
0.00477851
-0.00391934
0.00121339
0.00998245
0.00283116
-0.014027
-0.0085506
0.00750769
0.00487863
-0.00383573
0.000412261
0.00323438
-0.00432045
0.000673806
0.00416733
0.00462066
-0.00149647
-0.00729152
0.00731984
-0.00449338
-0.0001066
-0.00271986
0.000337702
-0.000997606
-0.00313867
0.00379858
-0.00316655
1.14575e-05
0.00315509
0.0045473
0.000144863
0.000293211
0.00579621
0.000496763
-0.00884583
0.00255285
-0.00475299
0.000975088
0.000831499
0.00294641
-0.00300087
0.00074556
0.000368332
0.00188698
0.000657367
0.000521767
-0.00591009
0.00473096
-0.00123227
-0.00714189
0.0045576
0.00381656
0.00284554
-0.00336271
-0.00221
0.00272717
0.00463632
-1.54536e-05
-0.00463712
1.62528e-05
0.00354437
-0.00500362
-0.00168884
0.0031481
0.00916975
-0.00278879
-0.00142785
-0.00495311
0.00512106
-8.93351e-06
-0.00469769
-0.00041443
-0.00283138
0.00332122
0.00686273
-0.00735257
0.00578316
-0.00195203
-0.00558063
0.00174949
0.0010925
-0.00159945
0.00691326
-0.00640631
-0.00735553
0.0066903
0.00636197
-0.00569674
0.000368275
-0.00616253
0.00236939
0.00342487
0.00781122
-0.00038873
-0.000198004
-0.00722449
0.00533245
-0.00103899
0.00103298
-0.00532643
-0.00660635
-0.00604218
0.00714082
0.00550771
-0.00117063
0.00336176
0.000915474
-0.00310661
-0.00252382
0.000137103
0.0048917
-0.00250498
-0.000548128
0.00642888
-0.00594763
6.68773e-05
-0.00574153
0.00532899
0.00104292
-0.000630379
-0.000187363
-0.00333248
0.00795394
0.00101506
-0.00336407
-0.00248889
0.00483789
-0.00266794
3.30388e-05
0.0026349
0.000822504
0.00373106
-0.00345073
-0.00110282
0.00611347
-0.00356895
-0.000951875
-0.00159264
7.96159e-05
-0.00188011
0.0018005
-0.00337696
-0.000924015
0.00128289
0.00301809
0.000385398
0.00213082
-0.00474604
0.00222982
0.00763386
-0.00069059
0.00297027
-0.00991354
0.000524275
-0.000725928
-0.00891635
0.009118
0.000562542
-0.00251819
-0.00331171
0.00526736
0.000197935
0.00456599
-0.000216621
1.90314e-05
-0.00280765
0.00278862
0.00563631
-0.00210518
-0.00251606
-0.00340326
0.00284396
-0.00281766
0.00606827
-0.00506462
-0.000623318
-0.000380336
0.000622762
-0.00292626
0.00128379
0.00101971
-0.00498292
-0.00152178
0.00102304
0.00548166
0.00419166
-0.00674248
0.00449364
-0.00194281
-0.000140825
0.00628621
-0.00628622
0.000140834
2.49222e-05
0.00707289
-0.0070715
-2.63049e-05
-0.00769791
0.0061831
-0.00497154
0.00648636
0.00647869
-0.0063173
-0.000161398
-0.00630226
0.0084072
-0.0014908
-0.000614141
-0.00538239
0.00131048
-0.000405348
0.00447727
-0.0089203
0.000666012
0.00574743
0.00250686
0.00156465
-0.00213953
0.00119764
-0.00226226
0.00256138
0.00413396
-0.00443308
-0.00233665
-0.00105306
0.00133639
0.00205332
-0.00317498
0.00207429
-0.003961
0.00506169
0.000963611
9.10294e-05
-0.0073569
-0.00326726
0.00325918
8.07934e-06
0.00428418
-0.00414789
-0.000136286
-0.00525255
-0.000343763
-0.00138926
0.00125596
-0.00687825
0.00799591
-0.00237362
0.00303711
0.00517989
-0.00660809
-0.00160891
0.00578171
-0.00629967
0.000190918
0.000327039
0.00331088
0.000855957
-0.00342991
-0.000736924
-0.00500023
-0.000261746
0.00651793
0.00296504
-0.000212705
-0.00361327
0.000860934
0.00334184
-0.00284354
0.00327597
-0.00377427
-0.00547661
0.0010378
0.00747591
-0.00195992
-0.00260141
0.00876549
-0.00420416
-0.00267879
-0.00299213
0.000670693
0.000765914
0.00218249
-0.00562719
-0.00401963
-0.000322524
0.00643926
-0.00209711
0.000590127
0.00106201
0.00334722
-0.00499936
-0.00181139
0.00442225
-0.00261086
0.00136137
-0.00690808
0.00255458
0.00411224
0.00290259
-0.00624892
-0.00580208
7.83713e-05
0.00721537
-0.00149166
0.00101147
0.000879707
0.00274384
-0.00463501
0.00471474
-0.00471261
-2.12622e-06
0.00146964
-0.000558491
0.0049177
-0.00582886
0.00512971
-0.00161579
0.00246
-0.00597392
0.00985304
-0.00317785
0.0073397
-0.0140149
0.00155347
0.0028865
-0.00120015
-0.00323982
-0.00446464
0.00183553
0.00234026
0.000288847
0.00320641
-0.0024129
-7.26912e-05
-0.000720812
-0.00199714
-0.00252228
0.00734353
-0.00282412
-0.00358617
0.00465615
0.00185397
-0.00292395
0.00541626
-0.00029298
-0.00178144
-0.00799495
0.00527465
-0.000454679
-0.00760263
0.00704755
0.00325806
-0.00270297
0.00487035
-0.00549226
-0.000777271
0.00139918
0.00275037
-0.00499844
-0.00259325
-0.00298169
-0.00274685
0.00154352
0.00418502
-0.00420176
0.00132302
0.00417382
-0.00129508
0.00519712
-0.00494011
-0.00343842
0.00318141
3.2117e-05
-4.08447e-05
-0.00461635
0.00462507
0.000129788
-0.00419832
-0.000143012
0.00421155
-0.0011542
-0.00689661
0.00108288
-0.00399917
0.00360047
-0.000684174
-0.00267782
-0.00112336
-0.000400585
-3.87336e-06
0.00636231
5.64564e-06
-0.015663
0.0109902
0.00797403
-0.00330123
-0.00475562
0.00032134
0.000165419
0.00426886
-0.000945507
0.0148405
-0.0174846
0.00358964
0.000755333
0.00117889
-0.00263547
0.000701249
-0.010206
0.00549208
0.000735942
0.00397795
-0.00011253
-0.00679683
-0.00100416
0.00791352
-0.00266842
0.0100584
-0.00699893
-0.000391055
0.00454923
0.00656393
-0.00608635
-0.00502681
-0.00529326
0.00504622
0.00624897
-0.00600193
0.00214617
0.0029885
-0.00372918
-0.00140549
0.00211849
-0.00140835
-0.00338796
-0.0103933
-0.000398386
0.00846517
0.00232649
0.00319819
0.000510342
-0.00187299
0.00321651
0.00436845
-0.00400541
-0.00357954
-0.00517613
0.00116971
0.0050213
-0.00101488
0.00062004
0.00177096
0.00601619
-0.00631854
0.00620565
0.000598177
-0.000485292
0.00391492
0.00308148
-0.00277237
-0.000104653
-0.000788597
0.00366562
-0.00413396
-0.00086156
0.00232242
-0.00782037
0.0032856
0.00221234
0.00019255
0.00412681
-0.00455837
0.000239015
-0.00161679
0.000316652
-0.00149992
0.00280005
0.00666645
-0.00476807
0.000220113
-0.00377764
-0.00297414
0.00399907
0.00275271
0.0134664
-0.0145331
0.00483148
-0.00376478
-0.00278637
0.00346268
0.00139036
-0.00206666
-0.00675425
0.0029089
0.00586753
-0.00202218
-0.00266803
0.00386144
0.00491179
-0.00610521
0.00746353
-0.00282181
-0.00497478
0.000333063
0.000132428
-0.00181364
0.00437918
-0.00269797
-0.000756928
0.000728101
-0.00577325
0.0053682
0.00169497
-0.00575306
-0.0013101
0.0068397
-0.00561418
-0.00148727
0.00139252
0.00207251
-0.0048998
0.00143477
-0.00289236
-0.00523455
0.00471623
0.00341069
-0.000863257
-0.0022518
-0.000662585
0.00274708
-0.00291495
0.00627738
-0.00610951
0.000666136
-0.00750449
0.00683835
0.00258944
-0.00339436
0.00219743
0.00146394
0.000862971
0.0011964
-0.00352331
-0.000123137
-0.0064234
0.00654653
-0.00361138
0.000481975
-0.00117709
0.00430649
-0.000474307
0.00520587
-0.00471611
-1.54485e-05
-0.00337264
-0.00181888
0.00197037
0.00322114
-0.00123432
-0.00300157
-0.00274856
-0.0040444
0.00337524
0.00341772
0.000159566
-0.00414245
0.00695078
-0.00285281
-0.000374454
-0.00372351
0.00417881
-0.000480861
-0.00302417
-0.000673781
-0.000572206
0.00522144
-0.00653842
0.00188919
0.0033497
0.000129612
0.00162594
-0.00510525
-0.000129024
-0.00276266
0.00133779
0.0015539
-0.00190476
0.00247387
0.00467788
-0.00524698
-0.0066894
-0.00176456
-0.00188398
0.00623799
-0.00628559
0.000163959
0.00195744
0.00416419
0.000578519
-0.00211616
-0.00368208
0.00521972
-0.00277438
-0.0054241
0.00136922
0.00682926
-0.00243573
-0.00269643
0.00279725
0.00233491
-0.0061877
0.00595222
0.0062128
-0.00597732
-0.000884448
-0.00153581
-0.00466846
0.00708873
-0.00635842
0.000630153
0.0064882
-0.000759933
-0.00111496
0.00293518
-0.00182022
-0.00259169
0.00479971
-0.00361279
0.00140477
-9.52127e-05
0.00828975
-0.00311139
-0.00508314
-0.00303863
-0.00150282
0.00608372
-0.00154227
0.000943447
-0.00248965
0.00562465
-0.00407845
0.000271743
0.0038291
-0.00067031
1.30828e-05
-0.00604841
0.00603966
-4.32669e-06
0.00717615
-0.00128305
-0.0104963
0.00460321
-0.00663168
-0.000646555
0.00827787
-0.000999635
-0.00358442
0.00542126
0.000440601
-0.00227744
0.0037574
-0.00376009
2.68471e-06
-0.0036123
0.000392806
-0.00306825
0.00628774
-0.00538716
0.00742766
-0.00149171
-0.000548792
0.00332773
-0.00137727
-0.00402926
0.0020788
-0.00619862
0.00623656
-3.79383e-05
0.00533635
-0.00772888
0.000599675
0.00179285
-0.00584861
-0.00161602
0.0100486
-0.002584
0.00446835
-0.000240029
-0.000911557
-0.00331676
-0.00251351
-0.00425998
0.00952057
-0.000439009
-0.00624911
0.00377317
0.00982713
-0.0109585
-0.00104571
0.00217709
0.00274277
0.00131058
-0.00304189
-0.00349369
0.00358876
-9.50723e-05
-0.00111214
0.0062396
-0.000408441
-0.00471902
-0.00129231
0.00154467
0.00534828
-0.00560064
0.00369385
0.0087257
-0.00504417
-0.00737538
0.00642154
-0.00768747
0.00244793
-0.00118199
0.00553053
4.5449e-05
-0.00557598
7.69367e-05
0.00534908
-0.00542602
0.00618068
-0.00746177
0.00661745
0.0001019
-6.0206e-05
0.00542386
-0.00546555
5.83365e-05
0.00894124
-0.00893363
-6.59483e-05
-0.000721468
-0.00216469
-0.0044541
0.00734025
-0.00277853
-0.00162262
0.000547159
0.00508184
-0.00890864
0.00327963
-0.00432393
-0.00113246
0.00463236
0.000824035
-0.00555155
0.0061087
-0.00163856
0.00108141
0.000808922
0.00419243
-0.0014258
-0.00357556
-0.00193926
0.00043564
0.00340361
-0.00189999
5.1017e-07
0.00158374
-0.00204468
0.000460425
-0.0021961
0.00536208
-0.00310995
-5.60306e-05
0.00153654
-0.0048985
-0.00283666
3.1012e-05
-0.0046517
0.00462069
-0.00182233
-0.00174077
0.000805462
0.00275764
0.00261892
-0.00151034
-0.00110858
0.00650182
-0.00649075
-0.00129418
0.00128311
-0.000616523
-0.00402264
0.00372002
0.000919144
-1.95286e-05
2.48234e-05
0.00366254
-0.00366784
0.00182242
-0.00150795
-0.00581493
0.00550046
0.00424295
-0.000121987
-0.00412096
-0.00616479
-0.00400579
0.0059481
0.00422248
0.00348191
0.00542164
-0.00934256
0.00344433
-0.00122116
0.00193505
-0.00415822
-0.00141881
0.00140469
-0.00788201
0.00789613
0.00199575
-0.00396133
-0.00384467
0.00581024
-0.00041952
-0.000952457
0.00439916
-0.00302718
0.00304724
-0.0037431
0.00136122
-0.000665365
0.00174062
-0.00289475
-0.002792
0.00394614
-0.00540295
0.0060739
-0.00158875
0.000917798
0.00632967
0.00812185
-0.00896031
-0.00549121
-0.00496534
0.00493905
2.62955e-05
-0.000592605
0.0056206
-0.00702278
0.00199479
0.000183188
-0.000274478
-0.00589821
0.0059895
0.00529045
0.000221112
-0.0060849
0.000573341
-0.00237003
-0.0039933
0.00502393
0.0013394
-0.00569343
0.00806436
-0.00285898
0.000488053
-0.00224401
-0.00278238
0.00166231
-0.000317644
-6.88186e-05
-0.00382907
0.00421553
-0.0123749
7.61242e-05
0.00106022
0.0112386
0.000503133
-0.00321888
-0.00166765
0.00438339
0.00787334
-0.000657278
-0.00255848
-0.00465758
-0.00138699
-0.00305317
0.000577555
0.00386261
0.00232383
-2.95497e-06
-0.00232088
0.0036906
0.00190856
-0.00125182
-0.00434734
0.00289157
-0.00228445
0.00565362
-0.00626075
0.000172815
0.00573933
-0.00188289
-0.00402926
0.0014165
0.00205231
0.00440453
-0.00283349
0.000216575
0.00261692
-0.00371395
0.000545929
0.000977471
0.000616218
-0.00508366
0.00348997
-0.0047727
0.00700699
0.00212049
0.00725598
-0.00152342
-0.00785306
-0.00462369
0.00451484
-0.00717611
0.00728495
-0.00068786
-0.0034719
0.00121388
0.00294588
-0.00387857
0.00735261
0.00225469
-0.00260691
0.000596141
-0.000243927
-0.00233528
-0.00740377
0.0022925
0.00744655
0.00492844
-0.00490055
-7.92003e-05
5.13063e-05
0.0040612
-0.00478686
0.00100987
-0.000284213
0.000992829
0.00395197
-0.00705262
0.00210782
2.52886e-05
0.00346593
-0.00349121
0.00221705
-0.00566361
0.00443939
-0.00222014
0.00595711
0.00503947
-0.00877644
0.00157116
-0.00170508
-0.00780229
0.0079362
-0.00224649
0.00378733
-0.00775692
0.00621608
-0.00569406
0.00449064
0.00586409
-0.00466067
-0.00353246
0.00483028
-0.00311726
0.00181944
-0.000772628
0.0033864
0.000548757
-0.00316253
0.00164072
-0.00239941
0.00247007
-0.00171137
0.00323973
0.00121191
0.00107489
-0.00552653
0.00866236
-0.00586754
-0.000376595
-0.00241823
-6.13342e-07
-0.00421354
0.00421415
0.00263181
-0.00390303
-0.0118856
0.0131568
-0.000565142
-0.00572764
-0.00172303
0.00801582
-0.000356155
-0.00267817
0.00303432
0.000814961
0.00384305
-0.000656821
-0.00400119
-0.00107978
-0.00390574
0.00314553
0.00183999
0.00315408
-0.0026494
-0.0046416
0.00755401
-0.0059021
0.00177467
0.00189024
-0.00366491
0.00595912
8.34442e-05
-0.000707899
-0.00533466
-0.00116443
-0.0019858
0.00315024
0.00207487
0.00138449
0.0115805
-0.0139092
-0.00489188
0.00722054
0.00177355
0.00381277
-0.00290883
-0.00267749
-0.00407422
0.0078491
0.00515908
-0.00893396
0.00484891
0.00167859
-0.000634781
-0.00589273
0.00760433
-0.00508741
0.00326874
-0.00578566
-0.0045602
0.00208837
-0.00585259
0.00832441
-0.00704269
0.0125233
-0.00489131
-0.000589302
-0.000223287
-0.00294355
-0.00405276
0.00721959
0.00570929
0.00236384
-0.00664822
-0.0014249
0.00321942
-0.00852394
0.00531935
-1.48322e-05
-0.00713616
-0.000278184
0.00465495
0.00275939
-0.00154421
0.0038909
0.00170017
-0.00404687
-0.000896309
0.00359339
0.00290676
-0.00560384
-0.00772922
0.00395774
-0.000341435
0.00411292
0.000650142
-0.00199326
0.00398429
-0.00264117
0.00326905
-0.00163766
0.00116821
-0.0027996
0.00337498
0.000708873
0.000319376
-0.00440323
-0.00446623
0.00480342
0.00177735
-0.00211454
-0.00109824
0.00572445
0.000103375
-0.00472958
0.00453012
-0.00263709
-0.00171822
-0.00017481
0.00397566
2.44564e-05
-0.00400012
0.00289131
0.00224081
-0.000508673
-0.00462344
0.00134961
0.0035114
0.00298373
-0.00784474
8.21005e-05
-0.00659518
0.00651308
-0.00344535
0.0131962
-0.00193858
-0.00781226
-7.46529e-05
0.00472644
-0.00465178
-0.000320016
-0.00348508
0.000626349
0.00317874
-0.00632202
0.00326042
0.00245982
0.00060178
0.00130936
0.00101227
-0.00728252
0.00496089
0.00376939
0.00594463
-0.0022167
-0.00749732
0.00561419
-0.00186534
-0.00537213
0.00162328
-0.00720338
0.00419458
0.0113369
-0.00832812
-1.5549e-05
0.00283829
-0.00284321
2.04704e-05
-0.0029219
0.0028964
2.5498e-05
-0.00724199
0.000102839
0.00306493
0.000821556
0.00172763
0.00477577
-0.00732495
0.00373938
-0.0044685
0.00290138
-0.00217226
-0.00376135
0.00328106
-0.000112857
0.000593145
-0.000748029
-0.00615133
0.00782936
-0.000930004
-0.00277775
0.00132922
0.00439539
-0.00294685
0.00461541
-0.00178224
0.000670404
-0.00350357
-0.00305691
-0.000526307
0.00356969
1.3517e-05
-0.000549904
-2.18115e-05
0.0052126
-0.00464088
0.000605985
-0.000500771
0.00484334
-0.00494855
-0.00453533
0.00640071
-0.00680688
0.0049415
-1.92294e-05
-0.00555165
0.00557088
-0.00203722
0.00017779
0.00521401
-0.00335457
-0.00386157
0.00452115
-0.00617392
0.00551435
-0.00397266
0.000295639
0.00118814
-0.00177965
0.00504909
0.000269643
-0.00353909
-0.00132896
0.000183045
-0.00225734
-0.00193837
-0.00651948
0.00650976
0.00194809
-0.00295704
-0.000314984
-0.000804651
0.00407667
-0.00957511
0.00321567
0.000931617
0.00542783
-0.00313374
0.00723745
-0.0036059
-0.000497813
0.00213685
0.000887307
-0.00435312
0.00422351
0.00426259
-0.00848609
0.000628346
0.00936843
-0.00217783
-0.00781895
-0.000120054
-0.000175496
-0.00428529
0.00458084
-0.0044077
0.00724057
-0.00296446
0.000131594
0.00414827
-0.0025881
-0.00374564
0.00218547
0.00110312
-0.000147227
0.00135054
0.00662877
0.00184859
-0.00958242
0.00110506
-0.00522862
-0.00055983
0.00164483
0.00414362
0.00167091
-0.00189498
-0.0025583
0.00764452
-0.00517045
0.00409097
-0.00656504
-0.000863599
0.0050089
-0.00867937
0.00453408
0.00301115
-0.00382539
-0.000383876
0.00119812
-0.00336289
-0.00117536
-0.000111163
0.00464941
-0.00250225
-0.00234337
0.00484562
0.000587002
-0.00656129
0.00582297
0.000151319
0.00255514
-0.00248709
-0.00257031
-0.0048245
0.00608636
-0.00113007
-0.000131789
0.00608281
0.00165202
-0.00651476
-0.00122006
-0.00248573
-0.00375166
-0.000465014
0.0067024
0.00400006
-0.00122205
0.00464268
-0.00742069
-0.00436288
-0.000172454
-0.00505724
0.00271387
0.000656074
-0.00570882
0.00182506
0.00322768
0.00172982
-0.00626425
0.00341245
0.00112198
0.00114357
0.000201479
-0.00552113
0.00417608
0.000697568
0.00294951
-0.000202576
0.00523638
-0.00103636
-0.00399744
-0.00205174
-0.000211765
-0.001912
0.0041755
-0.00121718
-0.0016381
0.00313042
-0.000275144
-0.0046309
-8.24575e-05
-0.00784325
0.00282564
0.00412129
0.0112825
-0.000131735
0.00156884
-0.0127196
-0.00539936
0.00818286
0.00172681
-0.00451031
-0.00146735
0.000760158
0.00478387
-0.00407668
0.000585823
0.00165531
-0.00128249
-0.000958647
-0.00854628
-0.00176823
0.00736586
0.00294864
0.000191283
0.00371331
-0.000750508
0.000137123
0.00182809
-0.00575359
0.00378838
-0.0034765
-1.14394e-05
0.00128484
0.00220309
-0.00497082
0.00614322
-0.000981119
0.00280058
-0.00251538
-0.0002852
-0.00416152
0.000513382
-0.00319011
0.00683825
-0.00186518
0.00281062
-0.00217166
0.00122622
-0.00403363
0.00454479
-0.00187742
0.00136626
0.00176581
-0.000309988
-0.00406548
0.00260966
-0.00180311
0.0113125
-0.0152028
-0.00156648
-0.00109245
0.00106929
0.00158964
0.00528934
-0.00818611
-0.000382231
0.003279
-0.0021642
0.00161346
0.00278893
-0.00223818
-0.00066869
0.00344837
-0.000952245
-0.00182744
-0.00385548
0.000853685
0.000906258
0.00209554
-0.00223837
0.000189359
0.00204901
0.00496697
-0.00235937
-0.00252597
-8.1632e-05
0.000387795
0.00258226
-0.00392717
0.000957107
-0.00265776
-0.00320725
0.00327435
0.00259066
-0.00157401
0.00397495
-0.00335606
0.000955127
0.00128632
-0.00242929
0.00167114
-0.000528172
0.00496844
3.28209e-05
-0.00500126
0.0039874
-0.00491365
0.00243285
-0.0015066
-0.00637448
-0.000126788
0.00650127
0.00257382
-0.00214095
0.000508943
-0.000941809
-0.000124455
0.00496938
-0.00550414
0.00065922
-0.00223945
0.00280474
0.000721036
-0.00259775
0.00553297
0.00512913
-0.0042712
0.00418082
9.03821e-05
-9.02727e-07
-0.00668262
0.00668353
0.00907596
0.00107396
-0.00188546
-0.00826446
0.00192923
-0.0074069
-0.000926855
0.00640452
0.00140689
0.0016825
0.000990219
-0.00407962
-0.00249596
-0.00247098
4.32804e-06
0.00496261
-0.00121349
0.00164278
-0.00292526
-0.0055438
0.00101375
0.00727314
-0.0027431
-0.011029
0.00807481
0.00355684
-0.00060266
0.00480151
-3.91149e-05
-0.0047624
-0.0028599
-0.0038638
0.00249276
0.00423094
-0.00275413
-0.00397315
0.00118348
-0.0039938
0.00217549
0.00251588
0.00159614
-0.00212414
-0.00381371
0.00434172
-0.00270611
-3.54962e-06
0.00270966
-0.00622844
0.00256877
0.00255639
0.00110328
0.00160676
-0.00427998
-0.00132058
0.00541259
-0.00172189
-0.000125281
-0.00356542
-0.00363648
0.00606265
0.00350606
-0.00593224
-0.00113521
-0.00236961
0.000937314
0.0025675
-0.00153679
-0.00123726
0.00277405
-0.00270114
-0.00571193
-0.00261592
0.00131959
1.86861e-05
0.00265086
-0.00398913
0.00508693
-0.00365949
-0.00534212
0.00391469
-0.00191313
0.000697373
0.0038073
-0.00259154
0.0036357
-0.0025634
-0.000353191
-0.000719104
-0.00416016
0.00068821
0.00324728
0.000224667
-0.00257496
0.00589604
-0.00644025
0.00251875
0.000181075
0.00374043
0.00633124
-0.0049862
-0.00398307
0.00263802
-0.00469416
0.00103931
0.00874178
-0.00464577
-0.00307858
0.00500876
0.00271559
-0.000539599
0.00485619
-0.00184958
-0.00246701
0.000301141
-0.00327223
-0.00213408
0.00510517
0.00553729
-0.00365549
-0.000221251
-0.00166054
0.00168974
0.00126135
-0.00416457
-0.0011707
0.00132458
0.00324468
-0.00339857
-0.000969929
0.00500114
-0.00619913
0.00216792
-0.00315581
0.000765046
0.0007608
0.00162996
-0.00711572
0.00711675
-1.03206e-06
0.00587592
-0.00580341
-7.25024e-05
0.00198983
-0.00759193
-0.00293095
0.00853305
0.00161335
0.00306631
0.000732927
-7.1997e-05
0.00270242
-0.00263043
0.00476317
0.00421996
-0.00898313
-0.00482678
0.00294575
0.00208286
-0.000201834
-0.00270947
0.000891024
0.00220203
-0.000383589
-0.00809883
0.00379241
0.00444309
-0.000136666
-0.0026081
-0.00291563
0.00281761
0.00489362
-0.000840525
-0.00305442
-0.00099867
-0.0044414
0.00480626
-0.00293983
0.000753521
-0.00495392
-0.000238204
0.00443861
-1.26912e-05
-0.00255609
0.00256878
0.0118137
9.9311e-05
0.00128122
-0.0131942
-0.00046356
-0.000950083
-0.00684981
0.00826345
0.00211206
-0.00286497
-0.001321
0.00207391
0.0008357
0.0063276
-0.00257044
-0.00459286
0.0068523
-0.00680925
7.13737e-05
-0.000114424
-0.00382678
-0.00343473
0.00538165
0.00187986
0.00222591
0.00162458
-0.00436661
0.000516115
1.58675e-05
0.00415402
-0.00423249
6.2607e-05
-0.00557042
0.00180375
0.00451173
-0.000745052
0.00436922
0.00263873
-0.00441787
-0.00259008
7.79146e-05
-0.00388883
0.00187763
-0.000979714
0.00595439
-0.00316087
-0.000411463
-0.000491066
0.0040634
-0.00544374
0.000191096
0.00525265
0.00767956
0.00340893
-0.00251119
-0.0085773
-0.00511056
8.48178e-05
0.00510366
-0.000460153
-0.00119074
-0.00304386
0.00469475
-0.000597726
-0.00063923
-0.00163351
0.00287047
0.00131452
-0.00666958
0.005041
0.000314058
0.00499186
-0.000698038
-0.00489884
0.000605022
-0.00501243
0.00103445
0.000388281
0.0035897
-0.00188966
0.00125778
-0.00266637
0.00329825
0.00105145
0.00075444
-0.00627552
0.00446963
0.000184358
-0.00448801
-0.000250193
0.00455384
0.00426357
0.000632204
-0.000153943
-0.00474184
-0.00507624
0.00115817
0.00457545
-0.00364491
-0.0048723
0.00851722
0.00720342
-0.0036498
0.00156245
-0.00511607
0.000573844
0.00398162
-0.00244341
-0.00586755
0.00112937
0.00202838
0.00270979
0.00723354
-0.00744192
0.00020838
-0.00446267
-0.00151457
0.00312667
0.00285057
-0.00637154
-0.00488566
0.00331223
0.00794497
0.00579105
-0.0060405
-0.000744663
0.00099411
-0.000861459
0.00282311
-0.00222814
0.000266493
-0.00725635
0.00237598
0.00166346
0.00321692
-0.0108555
0.0133373
0.0023251
-0.00480694
0.00486892
-0.010555
-0.000490601
0.00617664
-0.0043685
0.00554587
-0.010193
0.00901559
-0.00449202
0.00985515
0.000974607
-0.00633774
0.000385642
0.00459457
-0.00112924
-0.00385097
0.00699186
-0.00527455
-0.000135342
-0.00158197
-0.00123661
-0.00118482
0.00181735
0.000604083
-0.00332725
-0.0069343
0.00597544
0.00428612
-0.00472107
0.0062759
0.00543703
0.00403385
-0.00295843
-0.00369894
0.00262352
0.00142044
-0.0018428
-0.000810308
0.00123267
0.003141
-0.00311481
-0.00412969
0.0041035
-0.00127859
0.00365877
-0.000263909
-0.00211627
-0.00490891
-0.000885647
0.0061802
-0.00382479
-0.000945223
0.00472845
4.15626e-05
0.00163537
-0.00364931
0.00201395
0.00127964
-0.00165166
0.00616037
-0.00578834
0.00523949
-0.00738697
0.00109441
0.00105307
0.00318606
-0.00345009
0.000264031
-0.00480125
8.01797e-05
0.00434695
-0.00167795
-0.00420397
0.00153497
0.00137555
0.00109259
0.00478068
-0.00724881
0.00312089
-0.00339652
0.000275629
-3.75194e-05
0.00378115
-0.00427595
0.000532326
-0.00526685
-0.000461931
0.00700841
-0.0023034
-0.000387388
0.000529916
0.00216087
0.000320162
-0.00261946
0.00194149
0.000357809
0.00433096
-0.00414683
-0.00104559
0.000520155
0.00741058
-0.00468019
-0.00325055
-0.00251262
0.00526269
-0.00275007
-0.00669588
0.00254061
-0.00150292
0.00565819
0.00523803
-0.00473719
-0.0077572
-0.00267034
-0.00318324
0.0109438
-0.00509024
-0.0076335
0.00480965
0.00695608
-0.00413223
-4.28174e-05
-0.00669559
0.00673841
0.0101525
6.00472e-06
-0.00586531
-0.00429321
0.00587188
-0.00378445
-0.000573379
-0.00151405
-0.00433153
0.00308651
-0.000762385
0.00200741
2.071e-05
-0.00496223
0.00494152
-0.00321293
0.00331022
-9.72918e-05
-0.00234954
-0.00241228
-0.00618788
0.0109497
-0.00591608
0.00126773
-0.000639261
0.00528761
0.0014363
0.00234524
0.00647979
-0.00585835
-0.00482
0.00419856
-0.0016332
-0.00344384
0.00380517
0.00127187
-0.00348355
-0.00175253
0.00523453
1.54272e-06
0.0012548
-0.000713525
-0.00350037
0.0029591
0.00382587
0.000200342
-0.00489132
0.000865113
0.00115805
-0.000815737
0.00134487
-0.00162063
0.00160712
-0.00133137
0.00316103
0.00303911
-0.00313945
-0.00306069
0.00170116
0.00422985
-0.00433022
-0.00160078
0.00332507
0.0014543
-0.00264252
0.00406672
-0.0048948
0.00102842
-0.00562394
0.00392833
0.0021435
-0.000447886
0.00655862
-0.00217696
-0.00689428
-0.00174434
0.00464436
0.00233802
0.0044673
-0.0021531
-0.00390632
-0.00110799
-0.000609633
-0.00602392
0.00561549
0.000504507
-9.6078e-05
-0.000316784
0.00758949
-0.000767921
-0.00650479
-0.0049709
0.00101539
0.00221117
-0.00079934
-0.00501547
0.00141232
0.00440249
0.0045145
0.000610165
-2.48774e-05
-0.00509978
-0.00718214
6.86692e-05
-5.29339e-05
0.00716641
-0.00180622
0.00195724
-0.00325721
0.00310619
-0.00471813
0.00586304
-0.000526238
-0.000618672
0.00614565
-0.00569859
-0.00516519
-0.00452203
0.00406606
-0.00128255
0.00173851
0.00365978
-0.000162207
-0.00114973
-0.00234784
-0.00699125
0.00672761
0.00331597
-0.00305233
0.00340378
0.0012914
-0.000430378
-0.0042648
0.0011589
0.00296971
-0.00371665
-0.00041196
-0.00219484
0.00221331
-1.84657e-05
-0.00128943
-0.00329663
0.00330747
0.00582795
-0.00580123
-2.67203e-05
-0.00280776
-0.00226532
0.00220811
-0.000255926
-0.00351734
-0.000431385
0.00420465
-0.000392991
-0.00304793
0.0027007
0.000740217
0.00460837
-0.00523062
0.000622246
-0.00588563
0.00596042
0.00552026
-0.00559505
-0.00393824
0.00303736
-0.00205024
0.00295112
-0.00165544
0.000708303
0.00149665
-0.000549518
-0.000125255
0.00710341
-0.000109556
-0.0068686
-0.00378184
0.00183231
0.0018639
0.00216509
0.00275119
-0.00479642
-0.000119857
0.000208275
-0.00599088
-0.000239507
-0.00500561
0.00504743
-4.18208e-05
-0.00403087
0.002063
-0.00440367
0.00117465
-0.00262765
0.000132006
0.00236911
0.00103107
0.00342555
6.64806e-05
-0.00292802
-0.000564013
0.00287588
-0.0071618
0.00574032
-0.0014544
0.00119464
-0.0016346
0.00597699
-0.00553703
0.0073762
0.00215921
-0.00113462
-0.0084008
-0.00188666
-0.00309274
-0.000998652
0.00597805
0.00220686
0.00910711
-0.00818014
-0.00313384
0.00107932
0.00687569
-0.00665886
-0.00129615
-0.00231938
0.000305348
0.00475528
-0.00274125
-0.000823252
0.00651447
-0.00348435
0.00514128
-0.0040816
-0.00156862
0.000508941
0.00157162
0.00409318
-0.0056648
0.003824
0.000843064
-0.000503486
-0.00416358
-0.00351127
0.00281288
0.000276528
0.000421867
-0.000312526
-0.00507779
0.000300843
0.00508947
-0.00365767
-0.000461842
-0.000141414
0.00426093
0.00211109
-0.00468337
5.43208e-05