/*--------------------------------*- C++ -*----------------------------------*\
  =========                 |
  \\      /  F ield         | OpenFOAM: The Open Source CFD Toolbox
   \\    /   O peration     | Website:  https://openfoam.org
    \\  /    A nd           | Version:  10
     \\/     M anipulation  |
\*---------------------------------------------------------------------------*/
FoamFile
{
    format      ascii;
    class       volScalarField;
    location    "62";
    object      T;
}
// * * * * * * * * * * * * * * * * * * * * * * * * * * * * * * * * * * * * * //

dimensions      [0 0 0 1 0 0 0];

internalField   nonuniform List<scalar> 
59698
(
286.62
292.869
293.305
293.542
299.953
283.15
292.536
293.493
303.15
303.15
303.15
293.179
283.15
293.767
300.133
303.15
294.065
293.448
293.175
293.797
303.282
302.129
303.148
303.15
295.671
293.447
293.104
298.353
295.689
295.358
300.291
303.15
303.15
298.839
302.367
293.265
283.382
283.465
293.181
297.55
296.231
283.15
296.571
293.849
283.15
296.6
293.303
295.264
294.649
293.578
293.062
293.339
292.348
294.539
294.38
293.195
294.283
302.176
294.242
282.978
291.247
294.301
299.618
293.203
286.787
294.462
303.15
293.177
293.175
303.15
283.15
293.782
283.136
298.566
283.15
297.799
294.539
287.694
291.645
294.139
299.953
292.579
303.15
293.441
303.702
294.507
294.184
293.555
298.873
293.88
303.15
294.739
298.979
293.539
293.769
293.512
299.053
293.521
298.901
283.15
299.105
283.128
285.91
284.503
293.371
283.15
293.469
293.134
303.15
283.15
293.402
293.656
298.858
283.15
293.39
284.294
293.377
293.386
293.408
303.15
292.069
292.837
293.404
289.234
289.491
289.389
295.476
303.15
289.742
284.338
287.516
284.381
303.15
292.757
290.225
291.659
284.575
303.15
293.123
293.462
293.464
293.764
290.847
292.132
284.337
293.579
284.586
284.483
291.99
301.182
283.138
303.15
288.083
284.188
294.055
293.369
293.308
293.474
296.962
283.15
289.675
293.189
290.77
299.55
297.818
296.697
292.906
280.914
299.36
292.194
300.384
283.151
300.95
301.014
285.532
292.809
303.15
283.237
303.15
298.939
302.763
300.415
298.644
285.223
298.709
300.854
300.765
293.859
291.969
294.717
294.359
293.668
296.596
297.459
299.39
293.591
293.917
296.576
303.155
299.387
283.15
284.142
292.441
292.801
299.296
290.943
297.338
295.414
293.589
298.036
293.134
293.707
299.131
303.15
294.872
292.596
293.279
294.06
297.842
296.022
282.053
296.329
292.639
299.289
295.275
299.341
295.829
291.35
295.653
285.01
283.15
296.158
295.171
295.831
293.134
294.815
295.991
293.738
293.564
295.002
290.86
293.984
289.949
303.15
294.638
293.581
282.929
285.609
293.63
293.301
293.827
294.939
295.144
303.15
293.591
294.749
294.119
295.303
292.85
293.039
303.12
283.15
294.456
294.34
294.822
295.345
292.667
303.15
293.473
293.03
293.325
286.647
303.101
292.996
287.328
293.709
284.438
293.633
293.969
303.15
303.15
292.904
293.336
289.074
295.134
290.679
292.951
303.15
286.022
294.611
301.399
291.288
293.396
293.414
294.889
293.603
292.717
293.627
295.1
292.674
291.441
283.15
283.15
292.613
293.236
293.2
287.821
293.657
294.629
293.058
292.204
293.266
293.37
283.15
293.715
292.672
283.15
293.725
283.15
293.586
293.871
293.42
293.999
303.15
298.33
286.249
294.105
293.712
292.429
283.15
300.185
290.667
298.886
281.566
303.15
293.797
293.696
292.552
298.462
293.851
295.121
295.547
292.633
294.98
298.954
293.019
295.6
301.431
293.729
289.167
292.818
293.044
301.356
303.15
284.201
300.742
302.093
292.997
293.638
303.15
293.301
293.848
303.15
295.004
283.15
283.15
293.551
290.47
293.542
282.755
292.677
283.15
292.74
283.15
296.428
303.15
293.539
286.394
283.15
303.15
283.15
292.713
293.303
293.515
293.505
283.148
293.503
283.15
283.15
293.408
293.817
303.15
294.608
290.736
303.133
301.991
301.772
293.518
292.672
292.794
288.506
295.719
292.733
293.36
293.548
293.483
295.957
293.287
295.676
302.253
297.895
303.15
295.281
303.15
292.851
289.835
292.957
283.573
302.3
302.831
294.384
293.218
290.793
282.008
293.015
293.207
303.15
294.394
293.273
283.15
295.497
302.787
285.302
291.842
287.573
303.15
303.15
298.653
292.866
291.933
283.15
292.189
303.15
293.652
293.148
302.913
294.846
283.15
293.463
299.206
292.738
293.295
294.104
286.334
294.008
293.624
290.639
303.15
284.304
284.556
290.054
293.385
283.96
293.936
303.15
293.569
293.406
291.899
294.112
294.981
295.104
283.15
283.15
283.15
294.05
293.141
302.758
292.117
293.704
294.021
293.375
293.598
293.379
283.15
300.93
293.368
293.505
293.384
291.938
292.864
299.042
290.502
291.361
293.474
292.104
293.488
293.435
293.506
289.59
283.15
283.15
295.192
299.059
294.68
283.15
303.15
293.326
303.15
293.352
290.287
294.706
290.688
283.15
283.15
291.637
293.348
283.15
293.384
283.15
283.15
289.562
293.964
293.391
283.15
283.15
302.995
294.947
292.607
289.838
288.751
284.893
301.481
303.15
293.427
293.558
283.15
283.15
286.364
293.393
303.15
290.001
292.983
293.115
281.267
289.378
291.83
282.228
283.132
290.84
283.147
293.352
303.15
293.475
303.15
292.889
293.312
283.15
295.584
291.514
291.836
283.15
303.15
293.5
283.123
293.32
303.15
286.374
293.343
291.21
303.15
292.077
293.455
283.15
291.904
290.959
293.527
291.009
292.278
295.527
303.15
283.15
293.565
285.261
293.206
292.367
283.15
292.43
293.184
289.728
291.65
291.958
296.415
293.078
293.122
283.15
293.37
303.15
282.782
283.15
283.15
290.933
290.971
283.15
293.46
291.041
291.616
292.895
283.15
291.075
292.53
292.316
292.538
292.526
292.113
291.114
291.146
292.396
297.856
285.621
292.233
283.15
291.153
291.921
302.959
295.263
293.735
290.929
292.228
292.02
292.078
295.602
283.15
293.222
291.362
293.063
292.148
292.082
292.333
293.096
286.959
293.495
292.773
283.15
303.15
292.04
294.054
292.804
293.72
293.658
283.15
283.15
293.17
288.561
291.777
291.998
293.251
290.808
303.148
293.607
292.389
293.668
293.391
290.99
283.796
301.812
291.639
293.687
293.771
291.801
288.928
283.15
293.523
292.812
293.535
292.862
291.68
283.15
295.322
293.226
292.88
292.429
293.517
283.15
283.15
291.899
290.954
291.899
292.954
291.993
295.737
290.799
297.153
293.962
291.728
290.814
293.62
293.625
292.589
283.15
292.869
283.15
283.15
292.548
291.772
293.24
303.15
296.516
293.124
292.092
283.15
293.67
283.15
293.755
283.15
293.362
297.639
289.347
293.162
303.15
283.15
297.879
297.946
293.191
292.059
295.604
297.227
295.563
283.15
296.237
293.303
282.86
283.15
290.524
300.332
283.15
291.116
292.811
303.15
297.634
287.947
293.09
293.824
283.271
297.043
294.592
294.53
283.597
283.451
292.466
286.005
292.898
296.872
293.742
298.09
283.15
292.92
290.273
295.07
303.15
293.416
296.903
283.15
298.223
295.934
292.318
293.864
296.74
285.247
283.15
294.935
294.575
283.15
283.15
292.343
283.15
289.448
293.557
292.409
294.538
294.557
297.428
283.15
293.703
290.461
294.88
295.29
295.322
283.15
284.361
298.838
293.571
288.636
297.673
301.099
293.494
302.763
283.15
283.15
283.15
292.666
292.765
283.15
292.554
293.573
298.048
283.164
292.524
291.713
283.15
282.348
283.15
283.15
292.576
283.15
303.103
298.501
303.15
292.55
284.575
288.638
292.545
282.178
293.47
283.228
283.15
283.15
291.278
294.725
296.697
283.15
295.797
292.658
292.671
283.15
292.656
292.684
283.162
283.15
283.132
283.174
303.15
283.15
283.15
283.15
283.15
291.193
292.946
291.044
283.15
294.638
293.275
283.15
285.403
283.15
292.754
283.15
299.43
295.186
291.976
292.587
292.76
295.904
303.15
295.884
292.893
283.15
292.601
283.149
293.311
283.15
292.045
283.15
284.108
283.15
290.385
283.15
293.503
291.774
294.918
292.69
291.904
292.717
292.104
283.15
283.15
292.71
293.545
293.048
293.215
283.15
294.323
296.325
296.009
283.15
294.116
295.072
293.417
296.749
303.15
283.15
295.896
292.364
283.15
292.192
293.415
283.15
295.892
292.244
289.331
293.593
283.15
287.206
287.61
283.15
303.15
289.197
289.7
289.205
295.914
297.65
294.001
296.707
290.216
294.987
295.625
293.564
291.43
290.738
286.601
292.116
283.15
289.768
283.15
296.569
295.757
291.92
290.298
283.15
283.15
297.546
291.279
290.053
296.148
296.761
284.977
295.39
285.345
294.009
293.186
284.901
283.15
293.38
292.94
293.24
284.681
293.291
284.803
303.15
293.34
293.498
294.487
303.15
293.565
296.663
294.178
293.519
293.859
294.467
295.687
292.888
303.15
303.15
283.15
295.555
283.15
293.569
291.461
302.712
298.557
293.046
295.018
302.165
297.858
294.94
295.856
293.727
293.131
295.696
293.882
290.636
287.743
294.115
283.15
291.765
303.15
283.168
294.722
300.393
294.708
303.15
303.15
292.73
293.394
294.908
292.727
292.408
292.605
283.15
293.741
293.219
298.387
283.15
294.562
295.255
302.803
293.054
293.699
302.8
292.855
293.537
302.808
292.74
294.551
295.192
296.444
295.363
295.991
295.234
293.479
292.908
303.15
295.487
296.535
293.256
283.15
293.209
297.701
293.095
293.626
286.299
295.355
292.794
287.749
294.509
290.942
292.827
303.15
293.568
288.105
283.15
303.15
294.041
294.208
295.989
294.323
289.337
303.15
303.15
293.087
283.15
295.019
294.441
294.312
294.426
293.95
303.15
303.15
284.107
294.315
295.129
303.15
294.083
296.119
303.15
282.444
292.911
283.569
291.985
294.356
292.922
293.209
294.105
303.15
293.775
291.731
293.102
292.933
283.978
293.565
294.39
301.062
303.15
297.243
302.918
293.024
301.674
287.11
291.093
295.279
297.729
297.176
289.461
289.148
293.328
283.15
288.118
292.878
303.15
293.336
300.975
293.128
294.507
294.323
294.938
283.15
302.392
289.602
294.811
294.646
292.522
283.15
303.15
293.513
286.77
283.15
292.947
292.986
294.664
293.475
304.93
293.336
295.044
292.737
295.302
293.402
287.084
294.941
303.15
292.73
292.911
292.918
290.194
293.277
300.807
301.125
293.371
295.893
299.15
302.601
293.683
293.371
284.762
302.579
287.713
300.266
291.919
292.139
295.94
295.794
295.39
293.305
295.257
303.15
286.063
298.861
295.794
293.753
292.99
297.242
293.72
298.993
293.77
293.133
293.665
293.568
303.15
293.361
303.15
292.584
292.864
294.041
292.086
293.173
285.397
292.805
303.15
294.483
291.963
288.949
292.442
293.369
303.15
303.15
293.553
293.425
283.15
303.15
293.131
293.509
294.142
283.15
303.15
292.821
293.142
293.187
284.855
285.239
292.618
283.15
284.978
303.15
293.306
283.15
303.143
303.15
297.274
290.565
293.221
297.354
296.696
292.319
303.15
293.244
293.238
296.904
282.332
296.649
292.11
303.15
293.387
303.15
296.776
284.591
283.15
291.183
297.601
293.495
302.765
297.494
295.756
297.46
291.399
297.622
283.15
283.15
297.492
297.424
294.318
303.15
292.809
291.91
293.735
293.664
294.081
294.361
294.158
293.332
291.255
293.251
300.616
285.591
297.028
303.023
293.203
303.15
294.745
283.15
299.96
303.15
303.15
293.496
283.15
300.656
293.197
283.15
303.15
292.054
292.899
303.15
293.493
291.79
293.095
293.671
302.96
303.15
297.491
293.752
283.15
289.041
292.017
293.17
283.097
303.15
293.121
303.15
293.204
303.15
293.152
297.885
297.78
296.967
297.557
294.279
293.143
286.808
293.749
283.15
292.023
298.05
294.835
296.659
283.15
301.156
293.202
303.15
293.316
297.004
296.295
303.15
303.15
293.282
288.942
287.34
294.31
289.22
289.605
303.15
303.15
283.15
292.115
287.786
303.15
299.771
303.15
287.568
303.15
303.15
303.15
291.704
290.756
299.278
303.15
292.603
292.93
303.15
291.923
287.297
282.677
293.721
283.735
295.846
291.701
292.135
283.311
293.655
292.23
303.15
303.15
285.192
288.646
292.72
283.578
283.284
292.912
289.883
293.123
283.15
295.28
291.709
294.634
287.7
285.208
293.96
303.15
292.229
284.059
290.956
293.992
300.945
291.981
292.381
292.556
293.507
298.105
292.207
292.856
293.492
283.902
286.789
283.772
292.978
284.862
292.867
284.223
303.15
294.061
290.559
288.488
292.64
303.112
303.15
288.986
284.406
294.778
300.624
284.975
285.124
298.436
294.549
284.946
282.307
294.005
303.15
287.371
283.15
283.129
285.152
303.15
297.608
283.151
292.964
303.15
284.928
300.029
303.15
283.15
289.26
295.14
296.54
297.868
283.514
303.15
285.246
291.855
293.361
283.15
293.935
283.15
303.125
293.453
303.15
294.352
293.463
292.607
293.423
293.424
293.572
300.121
298.994
285.917
283.138
299.317
293.599
299.427
303.15
283.15
290.198
296.282
285.77
292.942
292.79
288.097
293.754
293.564
293.143
293.546
293.538
296.75
303.15
293.692
293.546
303.15
288.56
293.572
283.15
288.2
303.15
296.124
293.571
303.15
296.849
302.676
290.22
292.504
286.911
288.126
303.15
283.15
303.15
283.15
283.15
294.162
293.575
283.14
291.904
283.208
303.15
288.299
288.775
287.965
294.29
288.256
294.901
289.065
286.217
303.15
287.444
291.783
292.992
303.15
300.56
292.906
289.596
303.228
303.15
299.151
293.496
290.46
303.15
293.429
290.51
293.5
297.734
297.121
290.166
295.029
303.15
303.15
290.27
290.294
283.941
295.154
283.153
283.578
303.15
283.799
290.225
303.15
283.15
283.005
283.15
290.351
299.841
303.15
290.325
303.15
303.15
283.684
293.806
283.15
283.149
303.15
293.269
292.423
303.15
303.15
291.361
283.127
290.958
303.15
283.139
293.464
290.99
290.991
300.711
283.15
290.993
303.15
294.707
294.216
303.15
303.15
303.15
292.523
283.15
291.125
291.879
303.15
283.14
291.298
303.15
303.15
303.15
292.416
283.15
293.58
283.15
293.787
291.629
283.15
296.144
303.15
283.15
291.549
291.431
291.412
294.063
283.15
293.468
291.775
291.82
293.855
283.14
283.15
303.15
283.15
283.15
283.15
292.927
303.15
293.616
294.222
303.15
285.307
293.662
293.206
293.483
292.945
293.562
297.214
292.949
296.722
295.918
292.535
293.474
288.894
292.191
292.28
293.479
292.185
298.96
293.639
287.27
286.22
304.96
284.04
292.369
300.336
283.134
293.555
291.729
303.15
294.402
296.511
295.252
292.629
301.434
296.252
292.198
298.927
293.101
302.824
297.658
300.39
292.317
285.25
294.22
289.325
294.341
295.909
297.476
292.778
296.646
283.15
290.705
294.761
292.784
283.143
299.571
293.015
288.102
293.087
283.15
297.877
293.731
283.15
293.605
292.507
291.796
295.051
283.15
293.101
298.401
293.737
300.327
292.878
294.44
292.872
293.605
298.433
291.693
292.484
284.609
293.489
292.676
293.367
283.15
303.15
292.511
297.146
298.042
301.575
283.454
292.507
292.852
293.563
292.406
292.399
303.151
291.674
293.653
292.542
283.139
292.59
292.569
292.761
301.991
293.901
292.685
303.188
293.706
285.869
283.15
299.013
292.84
302.108
302.828
294.659
292.77
293.239
292.053
293.426
292.683
293.536
283.15
287.188
292.677
295.16
302.943
293.04
288.179
293.001
298.902
293.012
283.158
293.133
292.341
293.462
292.697
295.254
293.326
302.926
293.271
292.683
291.265
298.25
302.943
293.28
292.697
292.74
298.524
294.066
294.319
288.185
289.742
293.326
294.462
289.06
294.119
292.921
289.314
302.813
292.836
293.35
289.444
293.385
293.3
294.02
299.711
292.581
294.611
292.218
293.459
292.744
293.138
292.729
295.055
287.187
298.585
299.531
289.309
292.988
289.238
294.789
295.992
293.359
292.692
286.53
298.677
285.53
293.077
292.824
291.523
291.987
291.515
296.22
287.99
296.562
290.289
292.864
293.169
299.579
303.15
293.42
289.426
292.992
296.973
293.404
299.695
287.634
293.409
288.044
287.609
299.656
293.625
286.695
301.301
292.077
283.15
293.159
294.341
292.002
289.329
293.416
303.15
294.295
301.439
293.172
285.305
285.005
283.15
284.814
301.371
287.263
290.356
292.986
283.15
283.231
295.982
285.23
283.15
298.922
291.966
290.405
290.571
283.15
303.15
298.535
293.429
294.384
295.7
295.013
301.376
293.37
301.195
295.297
292.986
292.1
303.15
293.614
300.073
295.455
295.69
291.919
302.833
286.646
295.631
293.861
292.382
296.231
295.422
283.15
291.14
292.617
295.758
294.1
286.125
293.356
292.66
296.436
296.081
295.181
296.198
294.296
295.793
294.783
286.196
291.983
295.618
295.818
296.788
300.269
297.339
297.455
297.952
301.231
285.954
303.146
283.15
290.482
283.15
292.641
301.783
303.554
295.267
303.01
303.129
291.145
283.15
292.1
292.667
290.827
290.29
300.602
283.15
291.096
303.15
290.274
293.485
293.614
301.066
295.243
290.225
302.014
294.058
289.215
302.274
286.672
295.418
291.735
292.613
294.625
300.55
302.96
293.23
289.821
289.041
294.069
295.288
294.649
295.88
289.934
284.159
292.549
294.209
294.248
295.8
291.134
292.71
292.773
293.773
292.977
293.356
290.95
294.092
292.896
292.178
293.338
293.398
294.699
293.331
293.34
293.554
286.561
302.177
291.961
299.925
296.661
294.703
292.803
295.977
303.15
284.067
292.883
292.669
295.298
296.773
295.479
294.31
298.708
288.435
287.188
283.142
292.921
291.344
291.61
293.34
293.34
292.668
287.006
296.16
297.903
300.887
295.604
294.843
293.511
292.604
293.844
295.387
293.748
295.511
294.703
289.671
293.417
295.69
300.953
296.724
293.162
303.15
292.574
295.695
293.367
294.686
283.15
293.639
292.377
293.48
290.631
292.791
293.641
293.603
292.934
293.275
295.196
293.145
295.382
290.841
292.431
293.593
283.15
293.638
292.265
293.738
293.57
295.098
295.179
292.84
293.158
295.479
292.756
292.72
296.651
296.177
293.434
297.956
292.569
293.911
292.246
293.693
293.668
292.311
296.017
293.076
296.422
295.426
294.961
299.986
292.908
296.173
295.107
296.779
295.663
293.658
292.867
293.023
292.96
292.805
293.411
303.15
294.006
289.361
283.15
283.15
292.516
292.929
293.224
299.283
292.202
292.901
293.547
293.787
292.917
292.616
292.831
300.855
286.341
287.369
293.274
293.894
293.729
292.933
294.224
292.822
283.15
292.965
291.721
295.924
293.281
283.89
292.71
284.192
288.497
292.318
294.619
291.669
293.31
303.15
291.37
293.614
293.774
293.252
292.015
292.362
293.166
293.492
303.15
287.158
291.364
293.437
293.289
293.653
292.015
293.511
291.374
290.498
283.15
283.15
294.584
293.428
291.661
294.164
293.516
291.602
293.115
293.614
293.104
303.15
283.41
292.812
293.591
290.628
292.719
295.83
293.205
292.071
285.196
292.975
289.285
295.58
291.021
293.909
302.022
294.381
293.608
283.15
294.238
293.214
296.875
293.814
300.485
291.964
301.246
292.647
297.621
292.807
294.611
292.911
293.749
292.975
293.898
295.043
292.921
292.808
293.359
292.99
293.06
292.155
292.259
292.98
292.925
293.221
292.772
292.067
299.349
293.969
293.879
283.15
283.15
291.124
292.775
294.358
294.574
294.045
291.647
292.2
293.62
292.323
294.092
289.774
292.797
292.178
292.133
292.126
286.013
293.603
290.946
293.094
302.667
290.505
292.683
296.8
293.348
285.565
293.404
298.647
303.388
296.196
293.644
293.174
293.117
298.424
293.781
290.084
292.882
293.939
286.381
285.961
292.734
292.757
293.282
291.082
294.027
284.497
292.773
293.742
293.555
293.055
294.723
294.949
284.536
292.258
292.245
293.064
293.69
293.71
287.022
292.729
292.94
284.049
293.266
284.355
292.919
303.15
303.15
292.774
292.03
295.682
293.267
292.881
293.105
297.007
293.319
291.967
293.541
293.51
291.254
290.809
292.798
290.874
292.731
293.681
292.617
295.401
295.464
293.31
294.528
294.511
293.762
292.726
303.245
284.309
303.15
291.548
291.765
292.736
296.09
292.962
284.471
293.149
292.605
291.146
294.382
294.514
283.15
303.15
282.89
292.775
301.981
284.039
303.15
293.364
300.86
294.274
283.15
291.747
293.05
292.881
292.969
303.15
303.15
293.357
283.15
296.68
284.555
295.557
294.34
294.945
293.899
292.699
296.77
284.541
283.15
300.785
303.15
303.15
297.818
293.858
294.848
294.729
285.18
283.15
300.972
292.101
284.303
291.233
291.803
303.15
284.321
292.947
284.472
291.013
292.795
300.839
292.807
292.664
292.652
294.422
292.198
292.68
283.15
292.164
293.716
292.682
296.683
301.943
302.709
293.557
295.795
293.646
293.21
291.447
292.102
300.581
293.042
283.15
291.82
290.47
290.345
290.517
291.798
290.476
283.15
303.15
297.125
287.889
292.501
295.103
291.546
297.939
283.146
293.498
283.671
293.455
293.466
292.981
287.526
287.823
287.66
292.185
294.933
303.15
295.69
284.94
292.877
297.804
298.037
293.773
292.091
293.203
298.08
293.245
296.159
293.185
292.437
298.682
292.774
294.559
298.116
294.14
296.562
293.841
293.088
293.089
297.006
293.302
284.007
291.94
292.562
293.075
293.3
292.748
291.936
291.522
291.253
293.718
295.875
292.068
283.15
292.533
293.419
291.864
299.659
291.872
294.1
286.315
291.133
290.724
292.065
293.853
292.799
293.494
292.373
293.395
292.746
293.201
283.15
290.847
293.396
296.813
292.617
296.331
294.102
295.962
297.505
295.566
287.429
297.249
294.002
295.383
293.199
294.175
297.507
292.76
292.612
293.417
292.773
290.559
294.816
293.356
293.842
293.569
283.15
290.115
292.472
293.604
293.402
293.171
293.275
292.306
292.248
293.711
291.635
295.595
298.737
292.844
302.764
301.087
303.15
293.801
294.232
293.4
295.413
293.445
295.141
293.733
293.678
292.106
302.513
283.15
298.123
290.014
294.413
292.773
300.316
284.398
288.341
300.869
287.181
290.683
290.297
292.971
283.118
291.994
289.954
282.4
293.562
293.486
293.609
296.778
292.316
284.921
291.393
302.407
292.655
292.302
297.399
303.181
293.035
291.647
294.842
290.953
292.734
293.494
293.225
284.311
293.241
294.576
293.103
293.178
291.426
293.445
293.839
284.765
292.964
293.586
300.293
293.148
293.539
293.595
294.65
300.45
290.229
293.588
290.699
298.926
288.529
292.401
293.382
283.222
283.15
297.234
293.223
285.055
297.046
283.145
291.994
292.088
298.609
293.576
292.452
290.655
293.316
283.15
283.149
292.386
293.223
282.64
291.903
292.099
292.44
303.151
293.613
293.217
293.661
286.005
293.094
292.388
292.099
297.339
286.011
283.744
293.36
284.423
283.286
293.773
293.674
293.806
292.315
284.347
293.85
293.275
289.465
297.386
287.131
291.299
291.974
293.571
295.708
292.028
296.345
293.144
293.257
293.329
296.768
292.719
303.15
287.454
294.978
285.617
293.85
285.809
292.046
296.631
287.979
293.038
303.15
286.264
292.078
288.22
285.272
285.173
290.774
285.461
288.53
291.91
294.508
295.596
292.6
289.244
294.609
294.001
293.04
294.637
293.01
293.07
293.931
288.529
299.544
288.961
288.385
287.413
292.961
286.461
302.407
291.909
295.185
292.957
293.431
294.838
291.015
291.254
293.361
292.972
295.859
283.15
292.503
291.784
293.252
283.15
283.15
302.584
296.431
286.897
293.387
293.619
294.45
293.923
303.104
283.15
292.354
292.883
294.411
292.47
292.769
292.849
292.133
284.077
299.068
291.817
293.567
291.559
293.922
290.922
293.926
300.072
292.615
299.599
291.841
299.154
299.188
302.336
302.087
299.496
299.689
299.541
289.067
293.381
292.465
291.828
292.883
288.849
293.573
294.171
290.626
292.548
285.595
292.292
292.825
291.579
289.995
293.516
291.232
301.042
293.605
299.981
301.476
289.116
293.456
293.753
291.981
290.302
299.061
290.778
292.413
293.636
292.125
283.15
292.029
292.099
293.185
293.888
292.962
292.121
290.843
292.78
290.853
292.179
293.903
293.118
292.826
292.128
297.39
293.436
291.744
293.319
292.636
292.187
295.936
283.15
292.869
293.089
292.132
293.625
290.961
293.083
292.853
293.01
301.899
302.262
294.633
293.483
301.108
304.62
292.447
302.211
302.155
293.386
292.457
292.947
293.156
302.349
294.177
287.426
293.119
302.346
293.524
293.69
292.607
292.478
292.78
294.12
292.534
303.081
293.483
296.163
292.788
292.506
292.552
292.545
293.106
292.497
290.509
292.511
293.142
293.047
293.035
294.125
293.048
299.251
292.822
292.672
292.467
287.066
301.442
292.341
301.094
291.195
300.514
292.579
301.533
283.15
298.678
292.537
290.923
290.452
296.674
298.688
297.844
294.205
292.56
293.573
300.216
292.589
291.798
298.932
290.504
283.151
292.944
284.224
299.026
287.929
299.041
291.655
293.102
293.784
295.767
293.196
293.251
292.675
296.739
289.165
295.203
292.894
297.328
291.705
286.486
298.139
297.065
291.273
291.796
297.134
290.32
287.468
297.551
298.815
303.15
292.207
285.555
293.553
304.278
291.271
287.632
296.087
283.15
296.475
283.15
291.651
294.776
297.508
291.553
292.294
293.738
292.176
292.228
293.889
294.098
301.831
283.15
296.495
286.164
297.307
292.654
294.451
292.661
301.923
294.084
295.018
294.923
288.687
295.619
300.131
292.676
292.648
293.46
293.613
299.371
296.626
292.565
292.557
290.752
291.935
294.536
294.233
303.144
295.586
295.696
290.637
299.176
290.29
293.486
303.15
293.354
283.15
293.308
292.683
286.967
294.901
292.378
293.181
292.326
291.092
283.15
293.514
287.952
292.801
294.349
291.28
292.814
289.721
293.407
298.281
295.801
300.581
291.786
290.842
293.027
294.057
284.596
296.419
297.133
292.203
296.645
293.736
296.631
297.125
300.247
295.157
294.377
290.553
292.722
292.738
303.109
303.15
292.88
295.385
290.313
293.43
292.974
303.15
303.15
293.943
294.789
293.438
295.101
295.231
287.267
295.087
294.703
295.176
295.232
295.849
289.752
291.714
292.532
298.621
293.483
293.972
293.049
288.079
302.512
290.589
293.622
292.561
294.032
287.758
283.15
292.826
292.349
288.985
293.989
291.632
289.747
302.71
284.324
284.022
298.269
295.653
303.15
288.1
297.619
300.902
293.643
292.392
295.847
296.003
293.485
294.073
293.256
294.752
292.657
286.922
291.695
296.358
292.358
293.721
297.255
293.397
297.035
293.497
292.413
293.086
293.107
292.122
294.053
295.572
295.033
293.493
300.823
295.228
292.184
292.245
289.496
293.369
293.268
293.103
292.347
289.487
293.279
291.996
303.15
293.491
293.549
294.251
294.71
291.678
293.257
302.504
295.146
297.414
289.855
289.769
287.305
293.399
293.79
293.698
294.144
290.405
291.346
293.292
293.342
292.916
293.006
293.46
293.353
288.254
294.247
295.595
285.178
291.718
291.994
294.499
294.386
293.147
295.972
295.661
295.901
295.664
294.997
295.659
293.427
295.381
295.331
290.231
292.123
291.503
295.208
287.813
294.78
293.029
302.97
294.674
295.681
296.884
285.49
295.17
290.262
285.43
289.437
290.276
293.751
292.035
282.85
289.331
295.003
292.763
292.904
300.07
297.3
283.145
297.862
292.747
300.968
290.299
293.523
289.137
293.564
301.325
296.123
293.601
291.779
295.247
293.154
283.15
294.643
292.584
293.593
293.07
295.591
292.576
284.272
292.309
288.115
293.661
291.952
295.011
292.788
290.92
284.28
285.021
291.12
293.483
290.429
289.487
292.985
296.961
293.22
297.627
286.676
284.096
299.377
290.219
285.218
303.2
293.385
292.761
284.031
294.593
293.009
283.15
289.775
284.155
293.143
294.368
292.627
290.825
291.371
287.296
290.106
297.476
295.795
293.541
297.289
283.603
292.691
288.673
303.15
297.599
293.006
292.292
292.77
294.257
293.118
294.308
292.829
298.144
290.149
303.15
290.132
289.597
287.537
289.977
289.547
291.984
286.337
303.15
292.124
289.714
286.585
292.771
292.838
292.436
293.038
289.997
296.714
293.365
289.803
292.817
293.843
293.767
301.588
292.632
288.675
292.759
293.501
296.616
292.556
294.977
293.394
300.901
292.989
292.825
294.081
293.364
293.879
286.235
295.416
293.769
295.871
293.477
293.824
293.605
302.447
292.958
293.369
295.441
303.113
293.143
294.44
283.15
293.808
296.741
289.413
293.049
291.567
293.658
295.696
293.552
293.877
295.699
294.577
296.626
293.324
293.732
292.999
293.655
303.15
293.605
290.908
293.566
292.85
293.728
293.283
292.262
292.641
287.487
283.185
292.54
293.899
291.25
293.665
290.307
294.444
293.665
293.455
292.255
284.935
286.156
292.158
291.499
291.847
292.974
294.287
292.677
291.706
293.116
294.409
292.394
298.839
290.604
293.749
296.534
293.659
293.779
296.888
297.076
296.905
293.063
292.751
291.795
292.282
293.66
292.911
297.222
287.57
301.623
293.572
292.281
293.766
293.109
292.924
291.73
291.548
293.255
291.698
292.81
293.578
287.041
294.358
288.475
295.191
285.361
291.97
293.543
285.35
286.019
283.15
283.15
292.893
290.044
296.741
285.541
285.983
285.563
293.005
290.553
290.976
296.133
293.566
291.742
283.15
293.703
293.589
291.627
291.004
286.719
287.807
288.537
291.264
291.32
297.69
294.16
294.194
294.446
300.989
285.02
295.939
294.458
285.051
284.933
293.023
293.198
290.682
291.434
296.454
293.161
283.15
291.204
293.435
297.491
285.019
293.645
291.137
295.806
296.931
289.189
292.231
293.919
300.251
293.38
301.694
294.021
292.718
292.559
293.83
293.449
294.114
291.093
293.666
284.093
291.121
293.641
292.665
294.001
293.471
291.279
293.337
293.484
293.715
292.341
293.037
283.715
292.132
293.16
293.94
293.63
284.775
292.071
293.45
283.15
293.382
294.177
294.106
293.484
289.401
293.746
293.201
293.669
301.232
283.573
292.912
288.411
283.15
293.535
288.447
293.535
293.433
293.873
283.15
293.07
293.246
292.19
283.15
293.905
293.234
293.438
284.908
293.819
286.959
293.969
293.46
293.374
293.236
292.742
293.97
292.787
294.103
283.15
293.246
292.96
293.247
293.232
294.245
293.182
293.875
293.721
287.006
293.672
293.444
294.58
294.165
294.021
294.108
294.465
293.459
290.611
294.086
293.623
292.171
294.145
293.775
294.207
286.037
302.489
294.507
295.214
297.189
293.364
295.383
285.851
292.84
283.15
293.667
293.342
295.696
285.813
291.758
296.68
293.527
290.913
298.884
292.077
291.787
290.553
290.807
294.236
292.682
292.627
293.089
283.15
293.106
292.677
292.59
292.606
292.605
292.521
293.39
293.64
293.764
292.801
293.657
293.749
293.474
293.337
293.157
292.221
292.814
293.472
292.426
292.488
293.464
293.093
284.123
295.011
291.901
292.639
294.62
294.113
293.607
294.377
292.639
293.645
293.575
293.719
293.448
284.891
293.72
292.79
287.658
292.896
283.726
293.206
293.322
283.216
284.923
283.15
293.402
293.451
283.749
293.166
293.123
283.15
284.992
290.096
285.252
293.454
292.741
293.801
294.097
294.199
294.097
294.115
294.161
293.268
293.417
293.352
285.299
293.47
289.568
285.504
285.344
290.981
293.993
293.648
293.29
294.118
294.045
294.463
292.304
290.272
293.524
293.585
293.664
291.616
294.136
293.404
293.61
294.295
293.889
293.502
293.626
294.031
293.475
291.42
293.593
293.367
293.834
294.351
293.048
293.591
283.15
292.661
285.881
293.342
293.488
290.622
293.965
292.309
289.991
293.414
293.607
293.168
292.671
288.737
291.638
289.235
301.69
295.531
289.025
292.068
292.328
296.053
293.238
292.964
290.263
291.442
289.023
293.441
291.684
293.281
296.327
288.943
303.15
293.523
293.386
294.05
288.742
295.595
291.086
293.785
290.81
290.982
300.424
283.209
290.838
295.203
293.576
293.782
293.526
290.606
294.364
293.774
293.096
293.618
291.43
293.565
289.674
291.999
293.978
283.15
284.928
289.148
291.542
293.796
291.372
292.736
292.616
292.634
293.57
285.765
287.993
292.51
293.687
293.703
294.26
303.15
292.61
293.652
296.827
303.15
288.254
293.288
294.027
293.274
290.405
291.744
292.653
288.97
294.027
292.687
285.251
295.328
283.15
293.664
293.242
293.583
293.446
293.537
294.195
293.55
293.759
293.144
293.872
299.043
292.574
292.023
292.149
294.897
292.313
292.769
286.515
293.018
294.088
292.391
303.15
293.621
293.609
283.195
292.35
293.229
293.519
291.232
292.019
292.149
292.872
293.841
292.624
294.735
292.532
292.664
291.9
293.306
291.783
292.472
293.563
293.589
292.047
294.365
292.397
293.968
293.313
294.051
293.952
294.061
293.122
293.077
293.211
292.317
293.725
293.444