/*--------------------------------*- C++ -*----------------------------------*\
  =========                 |
  \\      /  F ield         | OpenFOAM: The Open Source CFD Toolbox
   \\    /   O peration     | Website:  https://openfoam.org
    \\  /    A nd           | Version:  10
     \\/     M anipulation  |
\*---------------------------------------------------------------------------*/
FoamFile
{
    format      ascii;
    class       surfaceScalarField;
    location    "21";
    object      phi;
}
// * * * * * * * * * * * * * * * * * * * * * * * * * * * * * * * * * * * * * //

dimensions      [0 3 -1 0 0 0 0];

internalField   nonuniform List<scalar> 
214403
(
-0.00046727
0.000358399
1.96811e-05
8.91899e-05
-0.000224256
-0.000756942
6.40456e-05
0.000917153
-0.000693592
4.83234e-06
-9.49119e-06
0.000698251
0.000615817
-0.000414055
-0.00103221
0.000830445
0.000831631
-0.00105149
0.000250636
-3.07771e-05
-0.000355419
0.000370295
-3.69169e-06
-1.1184e-05
-5.80631e-05
-0.000109759
-0.000624221
0.000792043
-0.00114898
0.000654179
-0.000172854
0.000667657
-0.00157627
0.00111442
0.00112352
-0.000661673
0.000958579
0.000113725
-0.00107176
-5.44674e-07
0.000340731
-0.000675236
0.000139003
0.000195501
-0.000700126
0.000220007
0.000363168
0.000116952
3.21104e-05
-0.000775134
0.000933179
-0.000190156
-0.00067171
0.000676624
-4.91401e-06
0.000129396
0.000807481
-0.00103517
9.8288e-05
-0.000809533
0.000676587
0.000205546
-7.26e-05
-0.000821469
0.000800213
2.12562e-05
0.000268005
-7.70352e-06
-5.28551e-05
-0.000207446
0.00106207
-0.000635525
-0.00141198
0.000985442
-5.24071e-06
-0.000214462
6.3e-06
0.000213403
0.00044279
-0.00043241
-1.03806e-05
-0.000816591
-0.000282543
0.00028096
0.000818175
-0.000154273
0.000923521
-0.000744943
-2.43053e-05
0.000454415
4.81916e-05
0.000158785
-0.000661392
-0.000692456
-0.000333707
0.000896615
0.000129547
0.000638627
-0.000808602
4.9972e-06
0.000164977
0.00021828
-0.000190899
0.000715517
-0.000742898
0.000517757
0.00067704
-0.000815375
-0.000379422
0.000756083
-0.000474214
-2.1405e-05
-0.000260464
-0.000406626
0.000414488
-7.86173e-06
0.0001629
-0.000341737
0.000916996
-0.000738158
0.00095513
4.55151e-05
-0.000165437
-0.000835208
-0.000389273
-0.000399371
0.000408979
0.000379666
-7.92961e-05
-0.000447083
0.000396101
0.000130278
0.000287968
-0.000192659
-0.000625727
0.000530418
-0.000113933
0.000564226
-0.000203899
-0.000246393
0.00108642
-2.88233e-05
-0.0010576
-0.000464443
0.000906217
-0.000441774
7.84853e-05
-0.000989108
0.0005772
0.000333423
0.000166192
-6.67806e-05
0.000406733
-0.000506145
0.00037578
-3.9228e-06
-0.000371857
0.000693757
-1.51016e-05
0.000122475
-0.00080113
-0.00087887
0.00011074
0.000934321
5.84902e-05
5.87671e-05
0.000583755
-0.000701013
-0.000280714
-0.00182174
0.00176718
0.000335283
0.000393659
7.13933e-05
8.89808e-05
-0.000554033
0.000286616
0.000217215
-0.000701037
0.000197206
0.000903557
0.000541335
-0.000990477
8.20668e-05
0.000767147
-0.000155457
0.000126302
-0.000473316
-0.000278344
0.000625357
0.000214913
0.000330325
9.86686e-05
-0.000643907
0.000123362
-9.25966e-05
-0.000283518
0.000252753
0.000475819
-0.000861118
0.000600213
0.000806976
-0.00075955
-0.00026019
0.000212764
0.000736917
-0.000134795
-0.00058221
0.000789151
-3.3381e-05
-0.000173559
0.000599191
-0.000765962
8.65772e-06
0.000158113
-0.000548698
3.6205e-05
0.00087672
-0.000364227
-0.00103655
-0.000973601
0.00081771
0.00119244
-0.000555128
0.000558675
0.000109784
-0.000113332
8.76039e-05
-0.000709513
-0.000594881
-1.23665e-05
0.000309308
0.00029794
-0.000905184
0.000388709
0.000585572
-6.90968e-05
0.00106626
-0.000860023
5.57086e-05
-0.000261945
4.8515e-05
1.79516e-05
-0.000684627
0.000618161
3.54486e-05
-0.000193649
0.000957122
-0.000798922
-0.00238853
0.000258962
0.000270748
0.00185882
-0.000217458
0.000641423
-0.000203704
-0.000220261
0.000314113
-0.000165499
-0.000669352
0.000520738
7.52333e-05
0.000467612
-0.000594109
5.1264e-05
-1.04049e-05
0.000573317
0.000200401
-0.000763313
-0.000113926
-1.8137e-05
-0.000236911
0.000368974
-0.000623865
0.000680334
-2.50572e-05
-3.14118e-05
2.15235e-05
-0.000612595
-0.000441288
0.000390665
0.000118765
-6.81418e-05
-0.00114614
-7.22572e-05
0.000558297
0.0006601
-0.000338815
-0.000144357
0.000288229
0.000194943
0.000509873
-0.00171052
0.000237349
0.000963295
-0.000260141
0.000523666
-0.000285972
2.24466e-05
0.000369693
-0.000287447
3.58522e-05
-0.000118098
8.72269e-06
-0.000717781
0.000709058
2.38463e-06
0.000581977
-0.000584362
0.000501784
-9.81811e-05
6.64706e-05
-0.000470074
-0.000315048
0.000449605
0.000148898
-0.000283456
-0.000217143
0.000924573
-0.000222166
-0.000485264
0.00043734
-0.000745105
-2.85734e-05
0.000336338
0.000501892
0.00051402
-0.00101591
0.000738013
-0.000829027
0.000212041
-0.000121027
7.32818e-05
-0.000132222
0.000960132
-0.000901192
2.76089e-05
-0.000154849
0.000691069
-0.000563829
0.000165854
0.00144598
0.000415375
-0.00202721
-0.00126975
0.00111717
0.000724143
-0.000571562
5.80486e-05
0.00044647
-0.000600186
9.56673e-05
0.000595467
0.000659826
-0.000215101
-0.00104019
0.00110007
-0.000668242
-2.16633e-05
-0.00041016
4.91495e-05
-0.000144138
-0.000452543
0.000547531
-0.000457151
2.56329e-06
0.000454587
0.000668403
2.33648e-05
4.62457e-05
0.000832605
6.77128e-05
-0.00127262
0.000372305
-0.00066704
0.000147166
0.000118992
0.000400883
-0.000432077
0.00010716
5.31553e-05
0.000271762
0.000103508
7.3804e-05
-0.000878228
0.000700916
-0.000175976
-0.00102454
0.000653275
0.000547236
0.000419832
-0.000496795
-0.000323842
0.000400804
0.000677604
-7.04504e-06
-0.000677293
6.73486e-06
0.000507515
-0.000717864
-0.000246742
0.000457091
0.00131634
-0.000398265
-0.000205067
-0.000713013
0.000762755
-1.52471e-06
-0.000700186
-6.10436e-05
-0.000384859
0.000453102
0.000943393
-0.00101164
0.000825207
-0.000290298
-0.000793386
0.000258478
0.000151618
-0.000223453
0.000968084
-0.000896249
-0.00108798
0.000991108
0.000940295
-0.000843423
4.92281e-05
-0.000848369
0.00032713
0.000472011
0.00106001
-5.68908e-05
-2.15975e-05
-0.000981524
0.000766737
-0.000149531
0.000147749
-0.000764956
-0.000863893
-0.000786761
0.000931015
0.00071964
-0.000168784
0.000484062
0.000131239
-0.000446518
-0.000362783
1.95507e-05
0.000701529
-0.000358297
-8.27759e-05
0.0009311
-0.000866297
1.79725e-05
-0.000824235
0.000765468
0.000148973
-9.0206e-05
-2.76232e-05
-0.00048076
0.00114701
0.000146307
-0.00048479
-0.000356616
0.000695099
-0.00038277
5.02531e-06
0.000377744
0.000117421
0.000533512
-0.000492976
-0.000157956
0.000872837
-0.000503061
-0.000134372
-0.000235403
8.6194e-06
-0.000266141
0.000257521
-0.000482954
-0.000130301
0.000183136
0.000430119
5.06588e-05
0.000278496
-0.000624259
0.000295105
0.00109542
-9.89631e-05
0.000428086
-0.00142455
7.42799e-05
-9.89781e-05
-0.00128823
0.00131293
8.27983e-05
-0.000372802
-0.000487163
0.000777167
3.1784e-05
0.000674806
-3.81872e-05
2.71778e-06
-0.000406062
0.000403344
0.000806088
-0.000299852
-0.000359929
-0.000488377
0.000406314
-0.000400891
0.000906814
-0.000754383
-9.18348e-05
-6.05958e-05
8.88498e-05
-0.000420053
0.000183675
0.000147528
-0.000738949
-0.000223951
0.000150665
0.000812234
0.000615113
-0.000999538
0.000658793
-0.000274368
-2.73614e-05
0.000902833
-0.000903884
2.84127e-05
-2.96313e-06
0.00081759
-0.000810088
-4.53836e-06
-0.00114842
0.000916654
-0.000735971
0.000967736
0.000957579
-0.000926676
-3.09025e-05
-0.000879433
0.00117758
-0.000215136
-8.30062e-05
-0.000786525
0.00019031
-6.18809e-05
0.000658096
-0.00128962
9.92071e-05
0.000828519
0.000361898
0.000225037
-0.000307293
0.000171106
-0.000324622
0.000369453
0.000593892
-0.000638723
-0.000336578
-0.000151242
0.000192833
0.000294987
-0.000466904
0.000305367
-0.000589474
0.000751011
0.000140042
1.18469e-05
-0.00103132
-0.000469133
0.000468087
1.0456e-06
0.000495938
-0.000476635
-1.93034e-05
-0.000761506
-5.0364e-05
-0.000200976
0.000186361
-0.00100017
0.00116385
-0.000350046
0.000450092
0.000774119
-0.000984935
-0.000239275
0.000859949
-0.000934134
2.54275e-05
4.87575e-05
0.000456344
0.000118669
-0.000471722
-0.000103291
-0.000719025
-4.30419e-05
0.000948428
0.000426545
-3.088e-05
-0.000520084
0.000124419
0.000480601
-0.000411666
0.000474276
-0.00054321
-0.000819025
0.00015408
0.00111504
-0.000276328
-0.000387502
0.00128027
-0.000616439
-0.000388992
-0.000435386
0.000105353
0.000118021
0.000312558
-0.000819571
-0.000554504
-4.83015e-05
0.000890782
-0.000287977
8.68965e-05
0.000138286
0.00049786
-0.000723043
-0.000259106
0.000634647
-0.000375541
0.00020853
-0.00100594
0.000362024
0.000601375
0.000418498
-0.000901852
-0.000831865
9.96548e-06
0.00103663
-0.00021473
0.000147184
0.000126454
0.000394593
-0.000668231
0.000571492
-0.000576072
4.58053e-06
0.000210631
-7.95513e-05
0.000707096
-0.000838176
0.000755727
-0.000238478
0.000362035
-0.000879284
0.00139208
-0.00044968
0.00104048
-0.00198288
0.000221982
0.000413985
-0.000171631
-0.000464335
-0.000644989
0.000265558
0.000337253
4.2177e-05
0.000460724
-0.000347239
-9.50141e-06
-0.000103984
-0.000287181
-0.00036203
0.00105623
-0.000407023
-0.000517083
0.000672085
0.000266986
-0.000421988
0.000780016
-4.26588e-05
-0.000256757
-0.00118389
0.00078206
-6.5075e-05
-0.00113011
0.00104261
0.000484226
-0.000396728
0.000720787
-0.000812087
-0.000117219
0.000208519
0.000403502
-0.000732014
-0.000381544
-0.000418512
-0.000383843
0.000217339
0.000585016
-0.000594738
0.000184613
0.000587415
-0.000177289
0.000694289
-0.000659879
-0.000455452
0.000421042
4.25723e-06
-6.14553e-06
-0.000663117
0.000665005
1.60906e-05
-0.000565019
-2.13227e-05
0.000570252
-0.000167971
-0.0009941
0.000156647
-0.000574811
0.000516543
-9.83793e-05
-0.00038036
-0.00016018
-5.41979e-05
-1.22021e-05
0.000957752
1.30295e-05
-0.00229262
0.00161358
0.00116582
-0.000486781
-0.00067677
4.57391e-05
2.44797e-05
0.000606551
-0.000133542
0.00214661
-0.00252853
0.000515459
0.000109588
0.000168949
-0.000379127
0.00010059
-0.00145151
0.000781987
0.00010051
0.000569017
-1.6997e-05
-0.000962632
-0.000137217
0.00111685
-0.000387941
0.00144736
-0.00100335
-5.60712e-05
0.000650884
0.000945306
-0.000874915
-0.000721275
-0.000778187
0.000742112
0.00092071
-0.000884635
0.000308116
0.000430501
-0.000536103
-0.000202515
0.000298185
-0.00020075
-0.000477795
-0.00154469
-6.13178e-05
0.00126108
0.000344929
0.000463319
7.2946e-05
-0.000270707
0.000465787
0.000624393
-0.000576343
-0.000513837
-0.00077423
0.000172503
0.000753939
-0.000152212
9.13157e-05
0.000242304
0.000843956
-0.000889373
0.000877606
8.52893e-05
-7.35222e-05
0.000565379
0.000443959
-0.000399164
-1.5806e-05
-0.000112244
0.000527214
-0.000587736
-0.000117025
0.000333855
-0.00112546
0.000475115
0.000316491
3.49583e-05
0.000615059
-0.000682763
3.27454e-05
-0.000231255
4.47214e-05
-0.000214979
0.000401512
0.000946307
-0.000676847
2.87249e-05
-0.000537563
-0.000421126
0.000565704
0.000392985
0.00203919
-0.00218143
0.000712865
-0.000570622
-0.000400784
0.000497826
0.000200728
-0.00029777
-0.00089294
0.000388781
0.000778051
-0.000273892
-0.000385888
0.000561642
0.000722252
-0.000898006
0.00107683
-0.000416535
-0.000709878
4.95863e-05
1.85552e-05
-0.000258426
0.000628585
-0.000388714
-0.00010915
0.000108258
-0.000830972
0.000780119
0.000252549
-0.00083514
-0.000197528
0.000973599
-0.000801703
-0.000214938
0.000200623
0.000294895
-0.000703299
0.000207781
-0.000410728
-0.000750815
0.000668526
0.000493017
-0.000122588
-0.000318701
-9.62747e-05
0.000401505
-0.000428062
0.000922632
-0.000896076
9.70814e-05
-0.00111412
0.00101704
0.000367824
-0.00048384
0.000316639
0.000210404
0.000122498
0.000172677
-0.00050558
-2.24293e-05
-0.000928894
0.000951323
-0.000520013
6.90132e-05
-0.000168616
0.000619616
-6.13656e-05
0.000705165
-0.000642615
-1.18414e-06
-0.000476426
-0.000252227
0.000275322
0.000453331
-0.000177279
-0.000421735
-0.000391407
-0.000575213
0.000478983
0.000487637
2.15289e-05
-0.000590215
0.000997805
-0.000410414
-5.31961e-05
-0.000534195
0.000543828
-5.2955e-05
-0.000396892
-9.39812e-05
-8.66413e-05
0.000759374
-0.0009473
0.000274567
0.000479236
1.85223e-05
0.000233405
-0.000731164
-1.76988e-05
-0.000395573
0.00019099
0.000222282
-0.000280876
0.000364715
0.00070353
-0.000787368
-0.000990899
-0.00025006
-0.000271154
0.000889038
-0.000851328
2.04352e-05
0.000265973
0.00056492
8.1703e-05
-0.000300492
-0.000533994
0.000752783
-0.000399194
-0.000779235
0.000196605
0.000981824
-0.0003497
-0.000386173
0.000401537
0.000334336
-0.000917948
0.000883769
0.00093492
-0.000900741
-0.000127746
-0.00022315
-0.000672005
0.0010229
-0.000923111
8.67682e-05
0.000938371
-0.000102028
-0.000161108
0.000423077
-0.00026197
-0.00037234
0.000688586
-0.0005184
0.000202155
-1.44021e-05
0.00120401
-0.000449185
-0.000740424
-0.000431577
-0.000207992
0.000863883
-0.000224314
0.000139463
-0.00036514
0.000826971
-0.000601294
3.89265e-05
0.000551825
-9.67259e-05
-2.90676e-06
-0.000878997
0.000878845
3.05843e-06
0.00103294
-0.000182921
-0.00150957
0.00065955
-0.000953725
-9.30338e-05
0.00119021
-0.000143454
-0.000515542
0.000779189
6.4022e-05
-0.000327669
0.000452382
-0.000447991
-4.39021e-06
-0.000537938
5.20964e-05
-0.000464556
0.000950398
-0.000773476
0.00106638
-0.000222321
-7.05854e-05
0.000483419
-0.000202626
-0.000582307
0.000301514
-0.000932859
0.000940347
-7.48844e-06
0.000769334
-0.00111832
9.09342e-05
0.000258054
-0.000871178
-0.000238798
0.00148997
-0.00037999
0.00064258
-2.57116e-05
-0.000135525
-0.000481343
-0.000366966
-0.000622899
0.00139137
-6.50218e-05
-0.000918481
0.000555441
0.0014135
-0.00157657
-0.00014967
0.00031274
0.000395588
0.000188659
-0.000437063
-0.000410485
0.000426926
-1.64409e-05
-0.000164744
0.000922033
-5.90954e-05
-0.000698194
-0.000201353
0.000238729
0.000800861
-0.000838237
0.000523575
0.0012273
-0.000717878
-0.00103299
0.00092193
-0.00110613
0.000351588
-0.000167386
0.0008156
1.14674e-05
-0.000827067
1.5157e-05
0.000794051
-0.000809208
0.000896834
-0.00108495
0.000957451
1.00315e-05
-8.22673e-06
0.000696291
-0.000698096
1.75993e-05
0.00127295
-0.00126758
-2.29751e-05
-0.000108404
-0.000321138
-0.000650605
0.00108015
-0.000397171
-0.000237732
7.94577e-05
0.000754264
-0.0013095
0.000475775
-0.000620172
-0.000162464
0.000664766
0.000117871
-0.000751002
0.000829615
-0.000221597
0.000142984
0.000115269
0.000601275
-0.000204425
-0.000512119
-0.000282794
6.69672e-05
0.000488421
-0.000272594
1.73146e-06
0.000233468
-0.000296929
6.17296e-05
-0.000317137
0.00078099
-0.000452388
-1.1465e-05
0.000232553
-0.00073587
-0.000429541
5.3833e-06
-0.000685368
0.000679985
-0.000261469
-0.000250987
0.000116274
0.000396182
0.000375277
-0.000216363
-0.000158914
0.000959538
-0.000953169
-0.000194506
0.000188136
-8.6977e-05
-0.000570293
0.00052594
0.000131329
-2.43289e-06
3.26088e-06
0.00052627
-0.000527098
0.000263796
-0.000216755
-0.000838637
0.000791596
0.000607203
-1.52412e-05
-0.000591962
-0.000870799
-0.000562985
0.000839548
0.000594237
0.00050946
0.000796981
-0.00137146
0.000482271
-0.000173858
0.000272052
-0.000580465
-0.000193433
0.000193277
-0.00106682
0.00106698
0.000301687
-0.000594094
-0.000577133
0.000869539
-6.05642e-05
-0.000133451
0.000629238
-0.000435223
0.000438021
-0.000538362
0.000195044
-9.47027e-05
0.000251346
-0.000416197
-0.000402018
0.000566868
-0.000789225
0.000888439
-0.000236225
0.000137011
0.000907989
0.00116845
-0.00128745
-0.000788985
-0.00069618
0.00069322
2.96076e-06
-7.91762e-05
0.00082403
-0.00102601
0.00028116
3.0722e-05
-5.16307e-05
-0.000791752
0.00081266
0.00075993
3.17897e-05
-0.00087425
8.25302e-05
-0.000340038
-0.000574465
0.000722579
0.000191924
-0.000822452
0.00116557
-0.000412623
6.95047e-05
-0.000323331
-0.000397165
0.000235706
-4.91085e-05
-8.33485e-06
-0.000569007
0.000626451
-0.00185732
7.94686e-06
0.000165873
0.0016835
7.16669e-05
-0.000460298
-0.000239065
0.000627696
0.00116193
-9.56022e-05
-0.000376263
-0.000690061
-0.000199411
-0.000438381
8.07522e-05
0.000557039
0.00033346
-1.16508e-06
-0.000332294
0.000547091
0.000291422
-0.000181466
-0.000657047
0.000422893
-0.000334652
0.000832838
-0.000921079
2.66707e-05
0.000866913
-0.000286658
-0.000606926
0.000210457
0.000300898
0.000650571
-0.000404552
3.09259e-05
0.000373626
-0.000529706
7.60748e-05
0.000139807
8.82385e-05
-0.000728431
0.000500385
-0.000706358
0.00103365
0.000312114
0.00106699
-0.000225571
-0.00115353
-0.000679491
0.000664647
-0.00105333
0.00106818
-9.92664e-05
-0.000497112
0.000174082
0.000422296
-0.000559381
0.00106127
0.000318019
-0.000384348
9.14067e-05
-2.5078e-05
-0.000348382
-0.00111016
0.000347339
0.00111121
0.000728091
-0.000726474
-7.09327e-06
5.47634e-06
0.000587024
-0.000685795
0.00014552
-4.6749e-05
0.000151149
0.000592214
-0.0010551
0.000311741
2.55015e-06
0.000496466
-0.000499016
0.00032982
-0.00084445
0.000665779
-0.000318667
0.00085603
0.00072107
-0.00125843
0.000242333
-0.000247973
-0.00114968
0.00115532
-0.000348339
0.000576393
-0.00115624
0.000928185
-0.000825776
0.000657398
0.000862051
-0.000693673
-0.00050623
0.000693269
-0.000447939
0.0002609
-0.000111717
0.000486455
7.94471e-05
-0.000454186
0.000235865
-0.000343611
0.000354146
-0.000246401
0.000465589
0.000173332
0.000153301
-0.000792223
0.00129584
-0.000879302
-5.32047e-05
-0.000363329
3.93117e-08
-0.000628163
0.000628124
0.000395187
-0.000576765
-0.00176846
0.00195003
-7.89212e-05
-0.00085669
-0.00025973
0.00119534
-5.0709e-05
-0.000384376
0.000435085
0.000119849
0.000568711
-9.03567e-05
-0.000598203
-0.000155475
-0.00056111
0.000452952
0.000263633
0.000454422
-0.00038081
-0.000668493
0.00113163
-0.000880735
0.000255101
0.000269834
-0.000524935
0.000857571
-9.9635e-07
-9.82418e-05
-0.000758333
-0.00016748
-0.000285189
0.000452669
0.000297622
0.000197135
0.0017098
-0.0020564
-0.000725994
0.0010726
0.00025641
0.000546336
-0.000417887
-0.000384858
-0.00059612
0.00114618
0.000758708
-0.00130877
0.000673939
0.00023386
-9.01316e-05
-0.000817667
0.00109101
-0.000727384
0.000469405
-0.000833033
-0.000623635
0.000285261
-0.000781043
0.00111942
-0.00101741
0.00182374
-0.000714529
-9.17977e-05
-2.90781e-05
-0.00042396
-0.00058497
0.00103801
0.000824025
0.000340865
-0.000967384
-0.000197506
0.00044227
-0.00118001
0.000744607
-6.86983e-06
-0.00104113
-3.94203e-05
0.000680714
0.000399832
-0.000208309
0.000540147
0.000235294
-0.000567133
-0.000132179
0.000529825
0.00042728
-0.000824925
-0.00108311
0.000557632
-5.17877e-05
0.000577268
9.54065e-05
-0.000287912
0.000574555
-0.000382049
0.000470383
-0.00023666
0.000167904
-0.000401628
0.000445835
8.49253e-05
4.36734e-05
-0.000574434
-0.000642909
0.00069001
0.000255392
-0.000302492
-0.000155697
0.000835156
1.66534e-05
-0.000696112
0.00067487
-0.000396047
-0.0002618
-1.70228e-05
0.000568552
3.76258e-06
-0.000572314
0.000416159
0.000322308
-7.30664e-05
-0.000665401
0.000199329
0.000525038
0.000448242
-0.00117261
-7.26966e-07
-0.000941963
0.00094269
-0.000490522
0.00189889
-0.000277063
-0.0011313
-8.1965e-06
0.000709178
-0.000700981
-4.64347e-05
-0.000500039
8.97555e-05
0.000456718
-0.000927738
0.000471903
0.00036064
9.51947e-05
0.000189364
0.000157574
-0.00108602
0.000739083
0.000541732
0.000855815
-0.000319838
-0.00107771
0.000834586
-0.000286648
-0.000798974
0.000251035
-0.0010414
0.000593921
0.0015873
-0.00113982
-2.7555e-06
0.000408537
-0.000408514
2.73279e-06
-0.000421626
0.000417192
4.43387e-06
-0.00105882
1.56161e-05
0.000447082
0.000118594
0.000256254
0.000701449
-0.0010763
0.000538062
-0.000639187
0.000412977
-0.000311853
-0.000541297
0.000474041
-1.78981e-05
8.51537e-05
-0.000106576
-0.000882143
0.00112607
-0.000137354
-0.000399578
0.000192398
0.000632527
-0.000425347
0.00067663
-0.000261464
9.98e-05
-0.000514966
-0.000438583
-7.63556e-05
0.000513374
1.56417e-06
-7.90663e-05
-4.21615e-06
0.000751103
-0.000667821
9.24469e-05
-7.85676e-05
0.000733594
-0.000747473
-0.000660375
0.000924067
-0.000968511
0.000704819
4.87953e-06
-0.000830651
0.000825771
-0.000296282
2.57153e-05
0.000747407
-0.00047684
-0.00055671
0.000650838
-0.000887488
0.00079336
-0.000572226
4.40506e-05
0.00017156
-0.000270867
0.000731554
4.09198e-05
-0.000501607
-0.000193211
2.74633e-05
-0.000322629
-0.00028856
-0.000934598
0.000939137
0.000284022
-0.000415403
-4.89939e-05
-0.000104134
0.000568531
-0.00142863
0.000482571
0.000142611
0.000803447
-0.000439158
0.00103468
-0.000520469
-7.5052e-05
0.000306421
0.000120309
-0.000619941
0.000620443
0.000632449
-0.00125289
8.41498e-05
0.00136181
-0.000313873
-0.00113208
-1.77222e-05
-2.48579e-05
-0.000615942
0.000658522
-0.000655924
0.00107992
-0.000434579
1.05812e-05
0.000621826
-0.00039253
-0.000563542
0.000334246
0.000158488
-2.11915e-05
0.000194229
0.000953029
0.000262049
-0.00137412
0.000159044
-0.00066096
-8.55842e-05
0.000216794
0.00052975
0.000244704
-0.00027412
-0.000367749
0.0011518
-0.000774899
0.000602447
-0.000979349
-0.000127733
0.000743067
-0.00128464
0.000669309
0.000444936
-0.00056311
-5.69788e-05
0.000175152
-0.000482545
-0.000167829
-1.63476e-05
0.000666722
-0.000367048
-0.000346324
0.000713372
9.25485e-05
-0.000988968
0.000876708
1.97111e-05
0.000376904
-0.00036425
-0.000379702
-0.000613036
0.000776849
-0.000148556
-1.52564e-05
0.000868474
0.000238007
-0.000934481
-0.000172
-0.000337183
-0.000494617
-5.65225e-05
0.000888322
0.000574637
-0.000174604
0.000666219
-0.00106625
-0.000625059
-3.53161e-05
-0.00074611
0.000399786
9.42524e-05
-0.000819804
0.000262142
0.00046341
0.000243827
-0.000873263
0.000480235
0.000149201
0.000129439
3.48939e-05
-0.000652671
0.000488338
9.73004e-05
0.000421473
-2.95932e-05
0.000753992
-0.000149081
-0.000575317
-0.000294102
-3.26735e-05
-0.000275568
0.000602344
-0.00017514
-0.000235874
0.000451045
-4.00311e-05
-0.000683169
-9.28653e-06
-0.00115298
0.000414598
0.000606199
0.00164237
-1.35663e-05
0.000224236
-0.00185304
-0.00071748
0.0011154
0.000225984
-0.000623906
-0.000204463
0.000111271
0.00070622
-0.000613028
8.37734e-05
0.000237666
-0.000183901
-0.000137538
-0.0012326
-0.000254171
0.0010662
0.000420571
2.7835e-05
0.000534047
-0.00010746
1.59137e-05
0.000262965
-0.000824937
0.000546059
-0.000499024
-1.74613e-06
0.000183968
0.000316802
-0.000716529
0.000885263
-0.000140899
0.000403156
-0.000363372
-3.97843e-05
-0.000581274
8.38334e-05
-0.000453178
0.000950618
-0.000269326
0.000405075
-0.000312232
0.000176484
-0.000579714
0.000652142
-0.000269502
0.000197075
0.000251613
-4.1814e-05
-0.000586682
0.000376883
-0.0002594
0.00162705
-0.0021901
-0.000225179
-0.000157302
0.000153983
0.000228498
0.000753403
-0.0011772
-5.35312e-05
0.000477324
-0.000311577
0.000232377
0.00040079
-0.000321591
-9.38501e-05
0.000492846
-0.000134986
-0.00026401
-0.00055404
0.000122992
0.000129534
0.000301514
-0.000322634
2.7674e-05
0.00029496
0.000711175
-0.000338649
-0.000360766
-1.17592e-05
5.45821e-05
0.000371348
-0.000563704
0.000137774
-0.000380688
-0.000461129
0.000470291
0.000371526
-0.000202126
0.000519978
-0.000445506
0.000127654
0.000183979
-0.00034842
0.000240024
-7.5583e-05
0.00068316
1.94064e-05
-0.000702566
0.000588622
-0.000725498
0.000359383
-0.000222507
-0.000920949
-2.58104e-05
0.00094676
0.000372356
-0.000308967
7.20789e-05
-0.000135467
-3.0913e-05
0.0006544
-0.000713129
8.9642e-05
-0.000320785
0.000401605
0.000103159
-0.000373229
0.000799785
0.000739014
-0.000619778
0.000614331
5.44661e-06
1.44267e-05
-0.000982906
0.00096848
0.00132813
0.000159312
-0.000282883
-0.00120456
0.000275822
-0.00108174
-0.000132413
0.000938332
0.000205809
0.000242825
0.000139383
-0.000588017
-0.000372099
-0.0003728
5.68684e-06
0.000739212
-0.000177309
0.000243547
-0.000438336
-0.000816604
0.000148151
0.00107165
-0.000403198
-0.00160543
0.00117576
0.000517861
-8.81966e-05
0.0007082
5.87e-06
-0.00071407
-0.000411288
-0.000553448
0.000357845
0.000606891
-0.000404611
-0.00058698
0.000174987
-0.000574146
0.000312347
0.000359099
0.000236981
-0.000308463
-0.000565004
0.000636485
-0.000389913
2.62579e-07
0.000389651
-0.000931878
0.000377994
0.000384919
0.000168965
0.000229681
-0.000617266
-0.000186561
0.000799085
-0.000253758
-1.98658e-05
-0.000525461
-0.000536175
0.000889482
0.000527832
-0.00088114
-0.000163439
-0.00033875
0.000129732
0.000372458
-0.000220821
-0.000177618
0.000398438
-0.000394666
-0.000829607
-0.000381158
0.000189505
2.42187e-06
0.000382593
-0.000574519
0.000760423
-0.000554183
-0.000800104
0.000593864
-0.000281947
0.000100763
0.000570052
-0.000388869
0.000522655
-0.000367889
-5.19232e-05
-0.000102843
-0.000598827
9.719e-05
0.000467869
3.37685e-05
-0.000369979
0.000848416
-0.000925152
0.000360782
2.6761e-05
0.000537609
0.000880531
-0.000709651
-0.000551247
0.000380366
-0.00070509
0.000146783
0.00131873
-0.000670995
-0.000442939
0.00072198
0.000391954
-7.88477e-05
0.000698257
-0.000264745
-0.000354664
4.07026e-05
-0.0004202
-0.000277308
0.000656805
0.00079518
-0.000524471
-3.23065e-05
-0.000238403
0.000251496
0.000187621
-0.000616426
-0.000167159
0.000189116
0.000466671
-0.000488628
-0.000142442
0.00073973
-0.000911274
0.000313986
-0.000454624
0.000109627
0.000110069
0.000234928
-0.000972616
0.000988735
-1.61193e-05
0.000665318
-0.00065551
-9.80726e-06
0.000270465
-0.0010446
-0.000401165
0.0011753
0.000238671
0.000454207
0.000106207
-1.11373e-05
0.000387573
-0.000376435
0.000638361
0.000571053
-0.00120941
-0.000691336
0.000422022
0.000298349
-2.90354e-05
-0.000388299
0.000127986
0.000315629
-5.53159e-05
-0.00118699
0.000554235
0.000651277
-1.85265e-05
-0.000375928
-0.00041959
0.000405605
0.000608949
-9.63449e-05
-0.000391806
-0.000120798
-0.000638832
0.000688458
-0.000419605
0.000116075
-0.000736583
-3.66362e-05
0.000657144
-8.49459e-07
-0.00036835
0.0003692
0.0017766
1.23524e-05
0.000190186
-0.00197914
-6.83268e-05
-0.000133928
-0.000985871
0.00118813
0.000302897
-0.00041009
-0.000189432
0.000296625
0.000120368
0.000917475
-0.000371891
-0.000665951
0.000999803
-0.000999833
-1.95267e-06
1.98295e-06
-0.000562242
-0.000507188
0.000792739
0.000276692
0.000327485
0.000249982
-0.000652102
7.46348e-05
4.78216e-06
0.000608151
-0.000621587
8.65316e-06
-0.00083621
0.000268471
0.000677591
-0.000109853
0.000626254
0.00037826
-0.000633786
-0.000370728
1.5373e-05
-0.000572833
0.000289459
-0.000148698
0.000859042
-0.000452538
-5.8894e-05
-7.06129e-05
0.000582045
-0.000775378
4.12747e-05
0.000734104
0.00113241
0.0004869
-0.000366091
-0.00125322
-0.000739162
1.58961e-05
0.000738639
-6.59135e-05
-0.000171299
-0.000438364
0.000675577
-7.99611e-05
-8.87536e-05
-0.000239064
0.000407778
0.000186335
-0.000944827
0.000712259
4.62328e-05
0.000583038
-9.16985e-05
-0.000566886
7.55467e-05
-0.000703456
0.000141338
4.3434e-05
0.000518684
-0.000274228
0.000181922
-0.000382367
0.000474673
0.00015869
0.000103286
-0.000936882
0.000674906
3.32685e-05
-0.000634689
-4.47764e-05
0.000646197
0.000627622
8.23617e-05
-1.09171e-05
-0.000699067
-0.000750528
0.000174745
0.00067929
-0.00053857
-0.000714747
0.00125332
0.00102941
-0.000522336
0.000226205
-0.000733277
8.14837e-05
0.000573774
-0.000352361
-0.000839135
0.000150838
0.000299865
0.000388432
0.00103518
-0.00107272
3.75369e-05
-0.000642981
-0.000218007
0.000449927
0.000411062
-0.000816801
-0.000634273
0.000425339
0.00102574
0.000831226
-0.000868203
-0.000106476
0.000143453
-0.000120149
0.000404081
-0.000318699
3.47662e-05
-0.00106552
0.00034798
0.000244743
0.000472793
-0.00155705
0.00192659
0.00033338
-0.000702919
0.000691164
-0.00150773
-8.55296e-05
0.0009021
-0.000618319
0.000799013
-0.00147201
0.00129131
-0.000644105
0.00140955
0.000143934
-0.000909373
5.7628e-05
0.000681463
-0.000159435
-0.000579657
0.00103625
-0.000776971
-2.62651e-05
-0.000233011
-0.000178084
-0.000170857
0.00026128
8.76609e-05
-0.000479646
-0.00100503
0.000861324
0.000623353
-0.000694485
0.000925028
0.000805705
0.000578368
-0.000425071
-0.000529817
0.000376519
0.000204256
-0.000264339
-0.000116762
0.000176845
0.000451564
-0.00044643
-0.000595975
0.000590841
-0.00018345
0.00052634
-3.81276e-05
-0.000304762
-0.000743738
-0.000118935
0.000920301
-0.000549942
-0.000135171
0.000679847
5.26526e-06
0.000234864
-0.000524739
0.000289876
0.000183515
-0.000243831
0.000906488
-0.000846173
0.000710897
-0.00100068
0.000145073
0.000144712
0.0004596
-0.000494902
3.5302e-05
-0.00071398
1.94946e-05
0.000626973
-0.000239408
-0.000605545
0.000217981
0.000201433
0.000162367
0.00070976
-0.00107356
0.000450419
-0.000488844
3.84249e-05
-5.30271e-06
0.000543006
-0.000613849
7.61452e-05
-0.000784148
-7.57489e-05
0.00104341
-0.000330873
-5.66349e-05
7.64597e-05
0.000311048
4.57096e-05
-0.000378315
0.00027918
5.34253e-05
0.000620036
-0.000593545
-0.00014664
7.26497e-05
0.00105074
-0.000663116
-0.000460278
-0.000358634
0.000752897
-0.000394263
-0.000974597
0.000373254
-0.000228355
0.000829697
0.000768863
-0.000696203
-0.00113818
-0.000382124
-0.000456617
0.00157007
-0.000731334
-0.00109777
0.000698544
0.000995746
-0.000596524
-2.39517e-05
-0.000933756
0.000957708
0.00148575
3.57053e-06
-0.000856195
-0.000633122
0.000860364
-0.000554203
-7.52711e-05
-0.00023089
-0.000626548
0.000442534
-0.000109376
0.00029339
8.53991e-06
-0.000643259
0.00063472
-0.000461612
0.000475097
-1.34848e-05
-0.000342205
-0.000362458
-0.000928528
0.00163319
-0.000874453
0.000190807
-9.77221e-05
0.000781368
0.000207071
0.000335909
0.000892945
-0.000805857
-0.000666636
0.000579548
-0.000249018
-0.000512505
0.000565202
0.000196322
-0.000517349
-0.000263303
0.000781388
-7.35575e-07
0.000169473
-9.71641e-05
-0.000476452
0.000404143
0.000571123
2.51166e-05
-0.000730104
0.000133864
0.000176427
-0.000122652
0.000193085
-0.000232892
0.000231922
-0.000192115
0.000468178
0.000457962
-0.000468009
-0.000458131
0.0002285
0.000533197
-0.000552099
-0.000209598
0.000476811
0.000206733
-0.000377123
0.000603548
-0.000731894
0.000153463
-0.000801023
0.000560311
0.000301088
-6.03756e-05
0.00093648
-0.000312193
-0.00098292
-0.000256034
0.000681863
0.000343033
0.000663536
-0.000323292
-0.000558563
-0.000152303
-9.01569e-05
-0.000892398
0.000834675
7.88721e-05
-2.1149e-05
-5.56151e-05
0.00111406
-0.000115534
-0.000942913
-0.000730544
0.000149073
0.000325437
-0.000114023
-0.000719187
0.000202214
0.000630995
0.000666202
9.2558e-05
-1.62168e-06
-0.000757139
-0.000993031
-8.39288e-06
6.42574e-06
0.000994998
-0.000261583
0.000282943
-0.000467025
0.000445665
-0.000684775
0.000866832
-9.04399e-05