/*--------------------------------*- C++ -*----------------------------------*\
  =========                 |
  \\      /  F ield         | OpenFOAM: The Open Source CFD Toolbox
   \\    /   O peration     | Website:  https://openfoam.org
    \\  /    A nd           | Version:  10
     \\/     M anipulation  |
\*---------------------------------------------------------------------------*/
FoamFile
{
    format      ascii;
    class       volScalarField;
    location    "21";
    object      SgRate;
}
// * * * * * * * * * * * * * * * * * * * * * * * * * * * * * * * * * * * * * //

dimensions      [1 -1 -3 -1 0 0 0];

internalField   nonuniform List<scalar> 
111485
(
1.70781e-09
0.00671451
0.0205677
5.72509e-12
0.0452722
2.50361e-09
0.0323502
0.00364297
0.00784836
0.00113432
0.0216999
0.00907677
0.00151669
0.00573258
0.00685094
0.0277822
0.00390293
1.99756
0.0044365
2.5174e-08
0.000692794
2.32622e-10
0.0331164
0.0365079
0.00776039
2.14504e-09
0.0400058
4.38744e-07
0.0164327
0.000902611
0.0435241
1.20766e-09
6.3544e-09
2.55501e-08
0.00968345
1.80201e-06
0.0129587
0.00379286
4.2629e-05
0.0225976
0.000722329
0.0718416
0.0132134
0.000999946
3.70519e-05
3.90992e-08
0.0328338
0.00121788
0.047479
1.45153e-08
2.94781e-08
3.58482e-07
1.05433e-08
0.0441617
3.48823e-08
7.55086e-06
0.00408385
4.18561e-10
2.79285e-05
0.00440724
0.0165843
5.8175e-09
0.0157555
0.0885377
1.50069e-07
7.57323e-06
0.300992
0.0701765
0.0131028
0.0319892
7.56861e-06
0.00043755
2.14739e-07
0.010202
5.78021e-09
1.84182e-09
1.11726e-09
0.042524
1.98402e-09
4.93163e-07
0.0050194
0.040511
9.26246e-10
2.18108e-09
0.00198385
0.00410403
0.00249507
0.0219686
5.08164e-05
1.49118e-07
0.000869475
0.042554
0.00461709
7.62054e-09
0.0560532
4.24372e-10
0.000505089
0.00142356
2.85276e-05
0.0014877
5.53842e-10
0.0194131
3.54575e-08
0.0214822
0.00271053
2.63131e-07
1.92189e-10
4.506e-09
0.000681161
1.18904e-05
8.67035e-07
7.25883e-05
0.00109124
0.00272791
5.60318e-09
3.62375e-09
1.55481e-09
1.64877e-07
0.00713315
1.58897e-10
1.14178e-09
3.35986e-06
0.00124902
4.51687e-08
0.00231623
0.000533253
1.97736e-06
3.15173e-07
1.75698e-11
0.000178247
0.000991052
0.0276666
0.000884791
3.17025e-06
1.47405e-06
0.0374917
1.98168e-10
1.60023e-08
0.0168701
0.00428386
0.000174423
0.00347325
0.0196895
0.00308599
0.00380357
6.0397e-08
2.27635e-10
8.26354e-10
2.22225e-09
0.0327132
0.00174712
0.000530883
0.00197865
1.96601e-07
1.66264e-06
0.00656602
0.0070552
0.00990854
1.63356e-05
1.09077e-07
7.81805e-11
0.0394702
0.0249988
6.28256e-06
1.5749e-06
1.08393e-06
0.00369419
0.000451772
3.74167e-05
6.79133e-05
4.09873e-11
2.10361e-09
0.00362662
2.9344e-11
5.34112e-09
8.30104e-08
8.18673e-09
1.61645e-07
4.09492e-09
1.02161e-07
1.49793e-07
4.98305e-09
0.00376974
0.00540167
0.0172213
4.11536e-07
0.00645095
8.71242e-07
0.000101402
5.52783e-09
1.17145e-06
9.14276e-08
1.31598e-07
4.67674e-07
0.011078
0.0228111
0.00016757
1.56988e-08
2.00859e-08
0.00881982
0.000509547
7.31095e-05
0.0111952
1.05311e-08
3.05501e-08
1.20164e-07
0.0273971
2.00599e-07
0.000230774
0.0065254
0.00205798
1.53019e-07
1.42172e-07
1.16439e-10
1.86114e-06
5.06134e-06
0.122627
2.98409e-10
2.74997e-07
4.11795e-07
0.121746
1.35317e-09
2.77228e-07
0.0119539
5.04398e-06
1.15718e-10
2.22294e-11
0.166683
7.42088e-05
4.08413e-07
1.72481e-06
2.95182e-07
2.03633e-08
0.00286346
6.5151e-07
2.52979e-07
0.00285514
1.38519e-09
0.00116134
5.3289e-07
4.95551e-07
6.81915e-07
1.34903e-07
7.4933e-08
3.35012e-05
7.28138e-09
1.44422e-07
1.48116e-09
0.0306634
0.00260945
3.57518e-07
4.05803e-07
3.92579e-07
2.53423e-11
3.63492e-06
0.000153319
5.71087e-09
1.21313e-06
0.00184339
1.53819e-09
1.06472e-07
1.04251e-06
1.71845e-08
6.55524e-11
1.41287e-07
1.5337e-11
9.68194e-10
1.24519e-08
0.00296611
0.0225405
0.00605291
0.0013819
0.0399481
0.00216666
0.000588346
0.000595916
6.07524e-08
2.03778e-08
9.40386e-09
1.83204e-09
0.00202882
9.54372e-09
0.0216332
4.45224e-07
2.77657e-11
0.00454885
0.00796162
0.000649817
7.2761e-06
4.98087e-06
0.000636169
0.00238579
0.00186686
1.64552e-10
0.000775055
3.27697e-10
6.86032e-06
4.94108e-06
0.266815
0.0683024
0.0166748
6.04759e-09
0.00144089
1.12808e-06
1.0878e-07
2.22689e-10
2.20288e-09
0.000461982
6.29525e-08
2.88783e-08
0.0213033
0.00886336
0.0181927
4.57189e-07
7.73141e-10
3.91373e-09
1.52572e-06
7.61354e-05
0.00531071
0.186915
1.46573e-05
1.73448e-10
1.02797e-09
4.48682e-10
1.49337e-06
1.31349e-05
0.0122085
5.71652e-08
7.74128e-06
1.32266e-06
0.00112862
0.0672458
2.17e-05
0.0107047
5.82777e-06
0.000795716
9.27791e-07
1.07582e-08
9.79919e-06
5.89761e-09
0.00468324
2.68485e-09
0.00264754
0.000229681
0.00213718
3.29024e-07
6.82302e-05
0.025827
0.000652048
0.0353804
2.88203e-05
0.0078399
0.0230704
0.0148826
1.7563e-07
6.85767e-09
9.12822e-09
1.86715e-08
0.0212091
0.00664445
0.0369276
0.0625763
0.000882313
0.0202341
4.19869e-10
8.77469e-09
0.0155074
0.000880221
0.0399749
0.000856222
0.000824261
0.0176808
2.16559e-10
2.99775e-08
0.000325803
3.44607e-11
0.000119966
2.24705e-05
2.84252e-07
0.000149428
0.0106894
3.86929e-05
0.000448249
2.10087e-08
8.49616e-08
9.05971e-07
1.22973e-08
0.00137688
5.5164e-09
0.00506547
0.112075
0.000503769
1.99468e-09
4.27367e-06
0.00285094
1.38443e-07
0.0272838
7.80828e-09
0.0389696
0.0195745
1.32134e-10
0.000688225
0.00281108
1.78474e-09
0.000596522
6.29461e-08
0.00531527
1.66372e-08
3.26187e-10
1.31738e-05
3.53573e-10
0.0100704
6.68756e-08
1.5328e-12
0.0174661
3.38052e-06
0.0189955
0.0193524
3.90371e-11
1.44029e-06
0.00108285
1.77745e-06
0.000108077
0.010827
0.121659
0.905681
9.72605e-07
0.00372468
0.000238945
3.80602e-09
0.0350469
0.0325553
1.94482e-09
2.43535e-05
0.000112205
1.38763e-06
0.0255285
0.0260447
2.43577e-07
3.64947e-09
0.00634353
0.0203151
6.21724e-07
8.51048e-05
1.68364e-06
2.47967e-05
1.23004e-09
0.00451441
0.00599856
4.12771e-10
0.00954912
7.3418e-05
2.00446e-06
6.19354e-11
4.80873e-07
4.2798e-10
0.00877332
1.37027e-06
0.00716191
0.00241242
0.00339223
4.6485e-09
0.00223289
1.35138e-08
0.0303181
2.93209e-09
1.79437e-08
0.000977565
0.0317594
1.78874e-09
2.03546e-09
7.6313e-06
1.54084e-09
3.14536e-08
0.000877088
6.74834e-11
1.06149e-06
1.6672e-09
0.00138475
8.47282e-09
4.47087e-08
3.12802e-09
0.00809742
8.87434e-09
0.00436274
0.00167181
0.00677951
5.06883e-10
0.000625439
4.68544e-08
6.0779e-11
0.00961252
0.00457399
0.0294267
0.0222543
5.65354e-07
0.00186672
0.0726624
7.38389e-09
6.77812e-07
0.00874893
1.05686e-09
2.29192e-08
1.94519e-06
0.00426516
0.00098691
0.0691589
2.00815e-06
2.94965e-08
0.000234184
1.3152e-05
0.00136538
2.28586e-07
9.62887e-09
0.0759635
0.0443451
6.0323e-08
2.31013e-08
4.05091e-07
2.1053e-11
3.0295e-05
0.0543876
6.53197e-09
4.78981e-09
0.00282025
5.0083e-10
0.0304429
4.12373e-09
0.000350349
1.25121e-09
0.00263736
0.0019901
7.00242e-07
5.5882e-09
0.00108549
0.00153341
5.6054e-09
4.17466e-09
0.0162955
3.85034e-09
3.82533e-05
2.94687e-07
0.00147298
0.000795455
0.066227
9.13366e-11
8.20394e-07
0.0121973
0.00388534
0.00149997
0.00430973
0.00589119
0.0208954
1.87733e-08
0.020724
0.00708962
1.46664e-10
0.00225821
0.0314628
0.0125463
3.44877e-08
0.00552242
0.00399873
0.00128581
0.00143213
6.1509e-06
0.0137908
3.7216e-05
0.000167057
0.0266216
0.00205554
0.0010955
1.31289e-06
6.51055e-05
0.621606
5.89609e-09
0.000418674
8.1362e-08
6.14806e-07
1.19247e-08
0.00364574
4.93053e-05
1.81115e-05
2.99721e-06
0.018375
0.0103348
6.29e-09
3.53215e-06
0.00173901
1.45136e-09
5.39151e-11
9.07429e-09
7.95471e-10
0.0151439
3.00232e-11
0.000651099
0.00982018
5.86521e-07
0.00181082
0.0147751
1.01769e-06
3.88677e-08
0.000691463
6.91662e-10
0.0570607
3.29882e-09
9.89502e-09
8.01848e-07
4.33138e-07
0.00208436
0.032764
2.74404e-09
6.4376e-08
0.0728064
0.00535854
0.0268218
0.0235832
0.000930542
0.00355676
0.000696064
0.0569313
0.0404512
1.31935e-07
2.64193e-05
0.0358986
0.00710749
6.17498e-07
0.0242326
0.0236323
2.1525e-08
0.0104653
1.64315e-05
5.45085e-07
0.0318817
0.000298811
1.23055e-05
2.84044e-09
0.0388247
0.00158781
0.0185386
0.0168087
1.82686e-08
6.83678e-08
0.00928
0.000400061
3.1477e-06
0.0144722
0.0148632
3.69697e-08
9.50846e-09
6.86904e-07
9.9321e-08
2.14121e-09
0.00129589
6.08888e-10
0.00243095
1.01056e-06
0.00023551
1.30912e-08
0.000492524
5.1875e-05
0.0395132
3.2497e-10
0.0365388
5.99885e-09
4.14081e-10
2.01015e-08
0.0446486
0.000497593
5.62645e-07
0.000762504
2.27743e-09
4.14253e-10
0.238653
4.12754e-08
1.48979e-06
0.00178345
7.07196e-06
6.48495e-10
0.0349812
0.00649306
0.00300168
9.1144e-12
3.68073e-09
0.000135539
3.9021e-10
2.27611e-06
9.10483e-09
0.00104542
3.11253e-08
1.12869e-09
4.47269e-09
0.000759273
0.0386082
0.0269227
1.87433e-11
4.12139
0.143014
0.00323172
2.53214e-10
2.55558e-09
0.0567914
0.000304759
7.51464e-07
1.71549e-05
0.170031
0.00291534
9.84674e-08
0.00105399
0.056435
0.0015212
1.45573e-09
2.49532e-08
4.95302e-09
3.76138e-09
1.14141e-09
2.59964e-11
0.0193706
1.36235e-09
8.46365e-09
1.917e-08
0.0117697
9.05434e-09
4.65913e-09
1.48694e-08
0.10565
3.16177e-07
3.55696e-07
8.75737e-09
7.26048e-10
4.90543e-07
2.15173e-11
0.00228761
3.56479e-08
9.33649e-08
2.95556e-09
8.489e-11
2.1843e-10
4.53197e-11
0.0159173
2.06887e-09
1.18494e-08
0.000816593
2.1864e-10
4.6315e-07
0.00140756
6.90874e-08
1.58128e-08
0.599817
1.20421e-07
0.0338669
0.000201387
0.048026
0.00376557
1.47809e-06
2.86296e-07
0.0766487
8.39059e-09
3.45331e-07
0.00169283
0.517774
1.52997e-08
3.91502e-09
0.00291231
0.00313635
0.00143535
1.3672e-06
7.71971e-11
4.73244e-13
1.57936e-08
6.73644e-07
6.75979e-08
6.95413e-08
0.00159347
3.59132e-08
5.86523e-07
1.72691e-10
2.86425e-09
0.000558343
2.01448e-07
8.07299e-09
2.08911e-09
8.91156e-07
4.51096e-05
3.38362e-08
8.1912e-09
0.000759968
3.57066e-11
5.65879e-07
0.00106068
6.46231e-10
0.00125276
7.65063e-07
0.000617688
8.85928e-06
5.54076e-09
3.79588e-06
4.00496e-07
0.000852479
0.00176934
3.49344e-05
0.00285779
8.7127e-05
2.7458e-07
2.11229e-08
1.00567e-05
0.0178048
0.00323383
3.18661e-09
0.00418735
2.81629e-07
2.95576e-06
6.62839e-07
0.000300083
2.28227e-05
0.00571665
2.41618e-07
0.00215997
1.72308e-08
1.91135e-08
0.000765768
3.47259e-09
1.01696e-06
6.25929e-07
9.86686e-10
7.60193e-08
0.0573269
7.61807e-08
6.29656e-09
0.0016726
8.16507e-10
1.56932e-08
0.00390978
7.83345e-09
0.00329882
0.00630749
2.44284e-05
3.82723e-07
1.87542e-08
0.0283068
2.03952e-05
0.00186512
6.06276e-05
1.92064e-05
7.88557e-08
0.0007628
0.00834474
5.97953e-10
2.30556e-05
0.000334168
2.22565e-05
8.44271e-06
1.61918e-05
4.30506e-06
1.0457e-10
1.30058e-06
1.25447e-08
1.38056e-08
0.00118435
0.00848975
4.34434e-09
5.60465e-09
5.78358e-05
6.23523e-05
4.26652e-11
1.45196e-05
9.8743e-09
2.29475e-10
3.46066e-10
7.70049e-09
1.06144e-07
8.2383e-09
0.000331961
0.000856346
5.60463e-11
1.36608e-08
8.38309e-05
0.00212693
0.00216564
1.53306e-09
0.000544609
6.97204e-11
0.000235179
5.47395e-10
8.52309e-10
1.07872e-05
0.0217682
2.04731e-06
2.00849e-09
3.27488e-09
0.000593827
8.51679e-09
0.000388429
4.64957e-09
0.00846009
1.46137e-10
3.86457e-05
0.0266915
4.35948e-11
1.79237e-08
9.96313e-09
4.25951e-05
1.60497e-08
3.73219e-09
3.52934e-08
9.09287e-05
0.000907105
0.00530907
1.16521e-05
2.04075e-05
4.01631e-09
6.92165e-05
0.00260323
0.0380581
4.97295e-08
9.78954e-06
0.00717645
4.61256e-09
1.56668e-07
2.77565e-06
4.13986e-09
1.35889e-08
0.00174099
0.00396187
0.0012563
9.67627e-11
1.80515e-09
0.00101243
2.12296e-06
1.35877e-06
2.91788e-10
0.00393324
2.85658e-09
1.96278e-08
3.0864e-06
5.49784e-06
1.77927e-08
0.00299734
4.42145e-07
0.00112563
3.92462e-07
9.43536e-11
6.24085e-08
8.062e-11
1.28512e-08
0.000157082
0.338892
3.63922e-09
8.63038e-09
1.79184e-08
9.10406e-11
7.83611e-07
9.30164e-09
0.0422654
2.08785e-05
0.0250559
4.7001e-09
3.33754e-05
3.17948e-05
1.32554e-06
7.19901e-05
8.59045e-10
0.00182412
0.0276318
0.00637752
0.00164649
0.000328358
8.94928e-09
1.2897e-11
1.28311e-09
0.00329885
0.00125597
0.00543313
8.16873e-12
0.17599
6.44944e-10
0.0432917
0.00322208
1.50951e-08
2.53256e-09
4.85349e-08
1.55982e-08
0.0313026
4.41096e-08
2.10167e-06
0.0055765
0.00535616
1.29526e-06
5.23757e-07
1.33896e-06
9.23171e-07
7.92231e-09
1.17685e-11
0.0203828
0.000519704
4.76226e-09
3.75944e-09
1.10405e-05
6.84237e-09
0.00132789
0.00738345
2.71615e-08
0.00270957
1.27607e-11
5.74089e-08
3.74313e-09
0.00589043
3.91328e-10
0.00214968
0.000107303
0.000878923
0.0143969
0.0273991
1.88502e-05
4.59876e-08
0.000449583
4.82959e-08
0.0031727
1.2919e-08
3.8299e-08
1.52582e-06
5.64452e-08
0.00118882
4.63504e-09
0.00568391
0.00627257
9.30462e-11
7.26352e-06
4.57973e-09
0.000537156
3.17457e-05
2.34998e-09
0.00368667
0.000214229
9.79362e-09
1.4977e-07
0.00339387
0.00110915
0.0134683
1.31723e-10
0.000778553
1.5905e-07
1.22191e-08
0.00867719
8.10073e-08
0.103836
1.41938e-09
0.00292093
0.00075211
5.03195e-11
0.000673735
8.18966e-09
1.33897e-10
0.00227572
1.59179e-05
0.00591971
4.40101e-10
3.4177e-08
8.41285e-10
0.0247243
8.68778e-07
0.000643251
1.06264e-07
1.51795e-05
1.2538e-06
3.25431e-05
5.22633e-07
5.39716e-08
2.20792e-08
1.67672e-08
1.09118e-06
0.0177234
0.013709
0.000820172
1.4921e-05
0.00080146
4.26931e-11
1.60757e-07
1.80006e-09
4.49775e-06
0.000257255
1.0878e-07
0.000241542
8.70214e-06
0.00239965
1.54067e-11
0.000113407
0.00014411
9.45559e-05
0.00123772
2.65385e-05
1.52388e-05
3.69361e-08
0.0313762
7.13017e-09
1.18452e-09
3.40429e-05
0.0744606
1.64758e-05
1.51674e-08
0.000792904
1.19474e-05
1.60582e-08
1.97402e-08
2.13789e-05
5.87739e-08
0.00104031
0.00527236
0.000144168
0.000110001
0.000555633
7.30787e-10
4.82438e-10
2.91248e-09
5.02398e-06
0.000102754
0.000582785
0.00102665
0.0113029
4.56866e-09
5.65659e-06
0.000704159
4.61702e-07
2.11006e-05
2.52275
0.000739184
0.00215734
0.000859546
0.015334
1.57457e-10
3.59133e-05
3.17851e-08
3.52463e-09
4.58661e-09
5.47435e-09
0.00338166
1.30661e-09
3.29314e-09
1.56841e-06
2.33962e-09
2.47097e-10
1.71496e-08
8.78534e-05
0.00100099
3.42606e-05
0.00233867
0.00129161
0.00624317
1.99211e-09
0.00373261
4.6843e-06
0.00708149
1.69011e-07
1.3637e-09
1.93026e-09
0.00915006
0.00465112
3.77288e-11
2.38985e-05
1.90543e-07
1.11798e-07
2.89804e-07
2.66683e-07
2.70785e-08
5.83678e-09
0.00131168
2.59339e-09
1.24655e-07
4.75507e-09
9.23147e-09
1.50935e-08
8.98622e-06
1.90527e-06
1.98462e-08
6.56136e-06
0.000547487
9.89653e-09
0.000149781
2.20688e-08
5.2996e-07
3.79325e-09
2.30829e-09
0.00454802
0.000743948
0.000109451
6.01098e-09
6.77704e-10
4.39132e-08
0.00383574
7.77613e-09
0.00559183
0.217455
7.6795e-05
5.31539e-10
0.000598581
0.0664322
3.09313e-09
0.000122967
0.0133438
3.15501e-09
0.00332017
3.6625e-10
0.000756228
0.000892467
0.00960797
2.97877e-10
3.61492e-08
2.49545e-08
2.33969e-09
5.78491e-08
7.5797e-08
2.27194e-11
1.22299e-10
0.0349412
0.00136757
2.57884e-10
0.0026541
8.24436e-08
5.8183e-06
4.36924e-09
0.000821964
3.21237e-08
5.81232e-05
0.00152462
7.66447e-09
0.00475022
4.84353e-08
0.000240773
3.46085e-09
6.45314e-09
0.00918532
1.36398e-09
4.82462e-05
0.0105333
1.28679e-09
5.76434e-09
0.0860001
9.50316e-06
0.0597477
2.49802e-09
0.285353
3.95382e-08
6.61168e-06
3.57742e-06
0.00800761
1.55812e-06
0.00135966
0.00179671
9.53218e-07
0.00017605
0.00115442
1.51518e-08
9.31851e-10
7.48467e-06
0.000818359
0.000707509
4.907e-09
0.0362379
0.000990091
4.34173e-09
0.00455631
1.18505e-09
1.08674e-08
1.22739e-06
0.00402431
0.00588322
0.000971275
8.77308e-09
2.42519e-09
7.48368e-11
1.11109e-08
1.06737e-08
1.74631e-08
2.98592e-09
1.34245e-10
3.9072e-09
1.92302e-10
5.39272e-09
0.00106601
0.000635177
2.08483e-10
2.61435e-07
4.08834e-09
8.40431e-09
2.10456e-09
0.00062297
0.0015455
0.0182455
4.38443e-09
1.38349e-09
1.65516e-08
0.000611075
8.8273e-08
5.81804e-09
0.194738
4.99279e-09
5.40483e-08
0.00114753
3.19438e-06
9.97006e-08
0.0043901
0.00139926
4.88061e-09
0.00128164
0.0021765
6.09876e-09
0.0111135
0.0047971
0.00129626
0.00972626
2.12357e-07
7.39144e-08
3.46453e-09
0.00610356
1.84539e-05
0.00903083
0.00106923
0.000481056
0.00135221
0.00201941
9.18721e-08
1.14848e-08
0.00677356
1.68363e-06
0.009916
8.03861e-08
0.0108777
0.000621321
0.00182004
0.000361023
1.49935e-10
7.91288e-09
5.61145e-10
1.01414e-11
2.75758e-09
5.05915e-06
0.000620616
2.37363e-09
3.54575e-11
8.11054e-09
3.10786e-07
6.46731e-09
2.14779e-10
1.46903e-08
4.15389e-08
0.000167692
8.86198e-05
0.00084087
0.00454397
2.24552e-09
2.05028e-07
0.0331762
2.90792e-06
4.01239e-10
1.04731e-08
0.0107632
9.41493e-09
2.93382e-10
0.000347046
0.00463927
0.000952705
0.0269912
0.0270039
2.99182e-08
2.14888e-07
0.00306371
6.91598e-06
2.67183e-10
0.0168442
1.05568e-07
3.57384e-09
0.0276985
0.993873
0.00348096
1.3588e-07
3.03672e-08
0.015513
0.00993347
2.96268e-07
2.12083e-05
0.00203506
3.90957e-09
1.35584e-05
6.88242e-06
0.00113131
1.42688e-07
0.0211309
4.87616e-09
4.24406e-06
1.20116e-07
0.0143368
0.00217371
7.15803e-08
3.04069e-06
9.61835e-10
1.66132e-07
4.15576e-10
2.18249e-10
2.60258e-08
0.709781
5.47422e-09
3.76914e-10
1.25703e-05
7.67953e-06
0.000474008
4.56014e-07
1.96254e-05
3.81156e-08
1.2676e-05
3.6636e-07
9.78667e-08
3.74352e-06
0.0314246
1.56587e-07
6.33478e-05
3.10874e-08
3.20151e-10
2.69163e-06
0.0188454
0.00230369
8.8356e-10
0.0026736
0.0450722
0.00333782
4.38427e-08
6.33839e-09
3.79271e-06
1.23625e-07
1.59837e-05
8.08611e-11
0.00023904
0.0120765
0.00076908
0.00354239
1.04303e-07
1.98378e-07
4.71086e-06
1.21087e-07
1.46849e-07
3.00065e-08
1.23729e-06
0.00556149
2.25736e-06
0.0193334
2.70967e-07
3.15692e-13
5.40398e-08
1.07175e-06
3.64312e-07
5.08914e-05
1.15278e-05
0.000207111
2.57743e-05
0.0246064
3.84416e-07
9.00013e-07
2.83296e-07
3.87506e-07
6.40584e-09
4.26191e-10
0.00187325
1.4479e-05
0.00203844
1.01329
0.0321954
0.00777667
9.1759e-06
0.0370778
4.97015e-08
5.96456e-08
2.39422e-05
7.82262e-07
1.25376e-06
0.00615529
6.69947e-07
6.21152e-09
8.48911e-09
0.000238728
8.52538e-06
5.49875e-10
0.0596449
1.03239e-07
1.82488e-07
9.80774e-07
3.27458e-08
2.81414e-09
9.77402e-06
0.00244716
1.34396e-08
4.11998e-10
1.0264e-10
0.00252626
0.00889063
0.0129526
0.00100116
0.00538776
4.62857e-07
1.45996e-07
1.76304e-07
2.74532e-07
3.59835e-07
0.0013021
0.00195956
0.00638798
0.00736831
2.35564e-07
6.30455e-07
3.03702e-07
0.146419
0.0072611
6.27576e-10
0.00332298
5.76344e-07
6.32827e-10
7.74145e-09
1.01693e-08
7.3272e-09
1.44781e-09
3.73064e-09
1.20251e-09
0.00513703
1.22926e-09
7.59557e-07
0.00143973
4.29665e-10
0.00401895
1.26436e-07
1.23482e-07
2.05137e-09
1.77856e-05
1.03976e-07
0.0206452
0.000112771
1.3769e-06
6.29863e-07
1.64379e-07
0.0160506
5.26738e-09
4.43599e-07
5.81577e-05
9.41158e-07
0.000132624
3.48488e-07
1.96549e-08
5.25036e-07
0.000360472
2.4465e-07
0.00942277
0.000756241
2.22848e-08
1.0594e-06
8.8348e-09
0.00399586
0.000764471
5.526e-05
0.00576428
0.000547807
0.000272011
2.66453e-10
0.00114893
7.91069e-10
0.000349998
0.0193903
2.32603e-07
8.95817e-06
1.13482e-08
3.4961e-06
1.11399e-06
0.000218762
1.30587e-09
5.49926e-07
1.47393e-06
4.55389e-07
0.00131566
4.52962e-09
0.00582516
7.7648e-06
2.19706e-08
2.99064e-10
4.29847e-06
2.08388e-06
7.19346e-08
7.08527e-09
1.94734e-06
0.000831509
4.31602e-06
0.00515329
0.0740749
6.56594e-11
3.50389e-12
8.31872e-05
3.10363e-10
8.53617e-05
7.23427e-09
3.94004e-07
0.00166856
0.0377631
8.02498e-08
6.44959e-10
0.000659839
1.53259e-06
5.7882e-05
0.0451478
2.07632e-09
1.99042e-08
4.07812e-08
9.9232e-06
2.8902e-08
0.00301445
5.11357e-07
3.98806e-09
6.21382e-09
4.09854e-06
3.43147e-07
0.0012603
0.000638921
0.0201633
0.013554
3.58897e-10
6.08763e-06
0.000421441
0.000796114
2.88445e-08
0.000886354
0.00154926
2.18109e-06
1.31712e-07
3.2614e-07
8.05385e-10
2.78703e-07
4.66415e-07
6.284e-06
3.25271e-07
0.000409749
4.37682e-07
9.35612e-05
6.30964e-06
7.15842e-05
2.7326e-06
1.90473e-09
0.0220112
0.00805651
1.09524e-07
0.0867755
4.22638e-06
3.57889e-06
2.83173e-07
0.0010347
4.52633e-06
0.00216675
1.18097e-05
0.000973475
3.83536e-07
6.57803e-10
0.000634706
8.11704e-06
0.0012397
4.73919e-08
0.0129556
8.07891e-07
0.0195049
1.4146e-06
1.51313e-08
7.92951e-06
0.0129606
0.00240615
4.50403e-09
0.000382209
2.34474e-07
0.00104769
3.51912e-05
0.00595471
0.000645325
2.95638e-08
0.011705
0.000768561
0.00481817
0.000562506
0.00131327
1.8331e-11
0.00524719
1.1962e-06
2.13159e-07
1.0451e-08
2.27847e-05
2.02486e-08
0.000799703
4.04876e-09
2.73165e-10
0.00237613
0.00156372
3.06724e-07
0.279304
0.00073695
0.0282758
0.0166424
1.57381e-06
0.00510765
0.000719259
1.1324e-07
0.0032687
0.000435113
1.09066e-05
0.00280277
0.000698373
0.00152094
0.000893245
0.017554
8.10565e-07
0.00241312
1.38709e-08
0.0166169
3.26196e-08
1.22134e-08
0.000950982
8.36011e-08
0.00686409
5.52496e-10
1.19846e-08
0.00134084
1.64851e-10
1.63492e-09
0.000589225
8.46844e-09
0.0005982
6.22788e-07
0.00110273
0.0182722
0.010516
3.21067e-06
0.00806664
0.000745019
0.555136
9.32252e-12
0.0667458
0.000523452
0.0179642
0.0180585
0.00183327
0.0533271
1.32058e-07
1.49501e-07
1.99121e-08
0.00228868
3.55901e-08
2.2917e-08
5.25812e-08
1.23214e-08
1.09681e-09
0.0040388
5.92831e-08
0.00716279
1.74096e-06
6.37569e-07
7.84789e-07
1.00361e-06
6.28201e-07
0.00239652
1.13613e-10
9.33181e-09
0.000234623
3.82414e-07
0.0941369
5.62688e-09
2.79401e-07
0.0173234
1.08538e-06
6.26583e-09
0.0165182
5.24841e-06
0.000598626
0.00410454
0.0110901
4.69217e-09
4.85673e-09
3.36707e-05
7.00527e-09
1.49794e-09
1.5803e-10
2.36897e-08
0.0412499
2.00389e-05
0.0851765
1.2875e-06
0.0408028
0.0187269
0.00542969
0.00288437
0.0079018
0.0201679
0.00199077
2.21887e-09
1.68261e-09
5.81093e-10
0.00500888
4.88573e-09
0.0300638
9.29452e-06
0.000649203
3.46089e-05
1.28344e-08
2.78496e-07
9.56567e-10
0.0011066
0.00198384
0.000277763
3.35469e-08
2.09827e-08
1.25707e-09
0.00848099
0.000253873
0.000107767
0.000634461
1.66583e-08
0.0461511
1.56562e-08
6.4203e-09
1.05895e-08
1.03551e-08
0.00284915
5.75157e-09
0.00627824
5.57502e-07
0.00209839
5.56788e-08
3.43161e-10
3.20879e-06
9.52777e-09
0.00273755
0.0184003
5.9545e-09
2.78056e-08
3.54927e-07
0.00114295
0.000558916
3.15772e-07
0.0109369
0.00167381
0.00108533
0.291767
0.000784298
1.5637e-05
7.55091e-08
0.00305627
0.000348768
1.72245e-07
0.00369032
1.73396e-09
0.0116524
3.17279e-05
8.65668e-07
1.70206e-07
6.48139e-06
3.38305e-10
0.000430888
2.55167e-09
5.0113e-07
0.176963
2.59981e-09
0.00442233
3.07079e-05
9.00626e-09
1.0244e-08
0.00148016
1.22241e-08
2.79733e-09
0.00162576
5.03685e-05
8.79124e-10
0.000432179
0.000820493
1.9196e-07
7.76537e-12
1.36723e-10
0.000244864
0.00196434
0.00225996
5.19889e-09
1.00226e-08
2.49025e-06
0.00294384
0.00139233
0.0103226
0.00689883
1.21687e-10
0.00261171
2.05486e-07
5.26846e-08
0.000939761
2.85966e-08
9.87106e-10
0.000426421
7.37256e-11
0.000400824
0.000967577
6.13616e-05
1.72487e-08
6.49664e-09
1.80263e-10
6.30769e-10
3.6943e-07
0.00231416
0.00380398
6.31224e-07
6.75102e-08
4.66235e-12
0.00104275
0.00397845
0.027538
0.0946586
6.38248e-09
2.18512e-05
4.03354e-06
3.63778e-09
5.84316e-10
0.000406349
0.00330355
2.39146e-09
1.75753e-07
0.000554013
0.00111279
0.00382769
3.89205e-06
2.00855
2.2598e-10
1.1737e-08
2.48148e-06
0.000363976
5.29042e-07
0.634797
2.10898e-07
0.00659713
2.05597e-09
9.66277e-09
2.76932e-07
0.00108574
7.7488e-09
0.00317964
7.82709e-10
0.0217427
0.0159689
0.838374
5.92294e-10
3.29152e-11
1.10099e-08
1.16983e-09
0.00543596
6.05826e-06
6.58968e-09
0.000690474
3.51005e-07
0.00385639
2.17827e-08
4.62547e-08
3.05263e-08
0.0256205
2.03176e-07
2.25626e-10
1.01447e-09
8.57999e-10
0.00340698
1.50319e-07
0.000963345
0.000937468
1.24487e-07
0.00613319
1.07476e-10
5.39734e-11
4.37343e-10
0.0128822
3.69387e-06
7.86461e-09
3.04318e-10
1.05234e-10
0.000407935
0.00216843
0.00607363
0.000756395
0.00110432
0.0055926
0.012073
1.44547e-08
1.79465e-11
4.84563e-09
0.00100054
1.56675e-11
0.020521
9.05433e-10
0.0155282
7.73615e-07
0.00115429
2.417e-06
0.00170148
6.99598e-10
4.51302e-10
0.0164966
0.261292
6.08892e-07
0.00260005
1.62765e-08
0.000287716
1.58745e-06
5.14236e-08
9.24157e-08
5.91072e-06
6.27956e-09
0.000370441
0.000728445
0.0287582
6.96156e-09
1.45627e-06
1.4651e-08
0.000635784
0.00336406
0.000111361
7.64613e-10
0.00383595
5.82856e-09
0.00351466
0.0195649
0.000891903
4.8522e-11
2.04894e-05
0.00030517
3.90388e-06
0.00476978
2.61992e-06
0.00119913
1.17863e-07
2.67711e-11
3.53063e-06
1.22018e-06
0.000170853
2.07857e-08
1.7148e-07
2.1069e-06
0.431391
1.93288e-10
4.15226e-10
1.62144e-09
1.91112e-11
2.18034e-09
0.000480765
0.000132698
0.000755636
1.17039e-06
3.74542e-06
0.000914223
6.42451e-12
0.00609703
3.75459e-10
9.48069e-09
1.45845e-09
4.06673e-07
6.20953e-05
4.32439e-07
2.38974e-09
4.76037e-09
0.0119423
7.5192e-09
2.60578e-09
0.0132034
1.94953e-07
0.0364003
0.0654726
0.384354
1.309e-09
0.204669
1.27478
1.80662
0.668947
6.39892e-10
4.28214e-11
0.00276913
0.0052226
1.18257e-06
0.00294433
0.000705793
0.0234396
5.62638e-07
7.28686e-08
0.000480745
3.94368e-09
9.65704e-11
8.95088e-06
3.4934e-05
0.000488565
2.1917e-10
0.00207983
2.08361e-06
1.4407e-08
2.15807e-05
0.00500775
0.0404384
4.94327e-08
0.0115855
5.7768e-09
8.85646e-07
4.05237e-05
0.0038886
1.46255e-08
3.24799e-05
0.00239267
1.82417e-07
6.00534e-05
1.35587e-09
0.0241957
9.399e-07
0.00628247
1.25773e-08
0.0033818
2.6907e-09
2.88632e-08
4.13465e-09
0.00209062
0.00207218
4.50688e-08
0.0105537
0.00672431
0.00102865
1.07469e-08
0.00361989
5.98662e-07
0.173731
2.62812e-08
0.0246457
0.0243532
0.0455884
7.77424e-05
1.50095e-09
0.0647061
3.40876e-08
0.213438
5.07549e-10
4.5413e-05
6.56171e-05
1.66444e-09
1.93601e-05
3.1675e-08
0.0198109
3.5161e-10
0.000737179
1.08867e-08
2.26054e-07
1.46265e-08
1.37185e-08
0.000360244
0.00499454
0.137656
9.28612e-08
4.23909e-06
0.04079
2.60805e-08
0.000800092
2.17066e-08
5.5534e-08
5.90236e-08
4.97847e-07
3.35645e-11
4.65022e-10
4.51218e-11
2.0922e-07
1.15863e-08
0.00112139
3.59602e-07
3.63793e-07
8.80314e-10
5.2644e-07
0.198166
0.00382247
2.22442e-07
1.0392e-06
2.05019e-07
6.26267e-09
6.96672e-09
3.71335e-07
3.41944e-08
4.7309e-08
8.81023e-06
1.86363e-07
2.08724e-09
5.78088e-09
0.311864
1.32936e-08
0.0193402
9.55684e-10
1.5341e-07
0.00365868
5.06359e-09
2.61958e-11
0.000852918
1.42982e-10
1.19834e-10
0.0200248
0.00105457
5.51722e-07
3.96217e-08
6.20882e-10
2.52839e-07
1.02615e-07
0.0133566
9.52756e-08
1.96035e-09
0.00220868
4.69205e-05
0.123518
1.1081e-09
6.67249e-10
8.30544e-09
0.000223056
0.171015
2.56612e-08
3.60415e-09
1.28075e-07
1.10978e-06
2.62386e-09
0.0206295
0.0233425
1.71181e-08
5.93595e-10
1.00024e-06
2.95077e-09
3.66664e-07
5.48975e-11
4.54569e-07
5.29015e-10
0.0602026
6.11353e-06
2.53704e-09
1.09525e-09
0.00126373
9.74698e-10
0.00104098
1.00248e-08
1.17239e-08
2.01293e-07
8.84061e-05
0.000774548
1.57693e-06
0.000922624
0.00112101
0.54282
1.94569e-07
0.00075215
1.95191e-07
5.07855e-10
3.64459e-07
0.00236725
0.000688225
0.000781272
5.66601e-10
1.95389e-07
1.50116e-10
0.00292514
1.79495e-08
0.0100148
3.14571e-06
0.0551792
1.98851e-08
3.90876e-09
0.0171982
5.39688e-06
1.1868e-09
1.85941e-07
0.000265751
3.95826e-08
1.26452e-11
0.0385078
0.0118751
6.31731e-07
4.13718e-07
4.13701e-07
0.0156479
3.24477e-07
0.00543851
1.57039e-07
0.0199329
2.22199e-06
8.29318e-06
1.34853e-10
1.76764e-08
3.87377e-09
8.20983e-07
1.86416e-09
4.95833e-08
6.27386e-12
7.90513e-06
0.0069449
0.00150837
0.00280668
3.87361e-10
0.00407946
0.000918472
0.00179362
2.29545e-08
4.88542e-06
0.0398876
1.07296e-08
7.67502e-09
2.40578e-09
2.99945e-07
0.00141927
8.22836e-09
8.65416e-10
3.06199e-07
1.05478e-08
0.625388
0.00100849
0.0800792
2.31453e-10
3.07102e-09
0.000786964
4.72469e-10
5.31397e-07
1.00494e-08
7.14683e-05
3.26488e-10
0.0093653
8.15452e-09
3.82785e-09
2.00125e-05
0.00268428
0.0012055
2.46806e-08
0.00127917
7.01217e-10
0.00436124
0.227737
0.00200953
7.81594e-09
0.000395951
4.26739e-10
5.40522e-08
6.79894e-06
0.0157823
0.000172578
4.85366e-09
2.00595e-07
0.00367767
0.000638866
0.00810124
1.08528e-08
7.12516e-09
6.05366e-08
2.41307e-08
4.18637e-09
2.49344e-09
0.00125143
0.00069112
2.79853e-09
0.00139196
1.92433e-10
5.59753e-09
0.0707029
1.18513e-08
1.03115e-10
0.000647832
2.37531e-09
6.85034e-11
1.05402
1.58754e-10
3.0284e-11
0.00510843
0.00156469
3.75571e-09
0.000694135
7.81046e-10
0.0195118
0.00083276
1.24149e-07
1.68758e-05
2.02765e-11
3.01912e-09
2.30383e-08
3.89051e-09
0.104845
0.000756756
0.000249832
8.65383e-10
0.000864205
1.63224e-10
6.53387e-09
8.55503e-10
0.00174926
3.4307e-05
2.39499e-07
2.50069e-11
1.73188e-08
0.000899341
1.87472e-05
7.58751e-09
5.0009e-06
0.00185261
0.00143098
6.49986e-07
0.0014493
1.8219e-05
0.000795298
7.27584e-07
0.001139
6.00092e-06
0.0302447
3.51826e-08
0.00546265
7.82058e-06
1.81203e-05
9.74994e-11
0.00156508
1.85109e-09
0.00451073
0.0193305
2.78368e-08
0.00264964
1.43803e-05
4.61303e-09
0.00817011
6.8857e-09
4.77099e-10
1.90556e-09
8.88784e-10
8.91621e-08
1.9974e-09
1.33322e-08
2.06059e-09
0.239103
7.60857e-07
7.44597e-11
4.7823e-11
1.06664e-09
2.17805e-09
0.0296689
0.779374
4.2095e-05
1.85045e-05
1.3499e-10
0.00158989
0.00105479
0.00086177
5.26437e-07
3.00847e-07
9.40596e-09
1.67527e-08
5.00973e-08
3.91201e-06
2.01582e-06
0.00356873
0.00124967
1.4656e-09
0.000109146
7.05948e-06
8.47591e-10
0.0262227
8.99941e-08
1.9632e-09
3.88438e-08
0.165444
0.00115006
2.68177e-11
0.0215845
3.07485e-09
0.000814037
9.70927e-07
0.000664158
0.0482009
8.44279e-10
1.15764e-09
8.85428e-09
4.88379e-07
0.00645647
0.230654
0.026849
0.0450916
0.00267469
0.000159785
2.50261e-10
2.01395e-06
0.106098
0.00157042
1.70464e-06
5.72595e-05
8.09451e-08
0.00170097
5.80297e-09
0.210844
0.000713297
6.85018e-10
0.000169683
0.000143386
2.12042e-09
0.0116493
5.55198e-10
4.40803e-09
0.202207
0.0278535
1.60498e-09
2.34741e-09
2.4473e-08
3.06533e-10
1.78816e-09
1.95522e-06
4.40805e-10
1.99991e-11
0.00344544
9.1017e-11
2.55276e-09
3.55864e-09
1.43404e-05
8.91073e-09
3.02377e-06
1.33536e-08
2.10722e-09
3.95853e-07
1.2368e-06
0.00242391
0.000714584
1.38179e-06
0.00487887
4.42598e-08
0.00603728
0.0105614
6.03383e-09
0.00679671
3.85577e-09
0.000768279
0.000710893
6.92475e-06
0.00150373
0.00127909
9.87351e-08
1.74619e-11
0.0177948
3.06698e-09
3.54309e-10
1.30684e-08
2.94802e-07
3.01481e-09
3.41812e-07
0.0402112
1.8338e-10
8.22905e-10
0.327211
6.09928e-11
0.000287444
1.76292e-07
0.0339358
4.39538e-10
1.1207e-05
2.54923e-06
0.0043049
2.41081e-07
0.000400357
3.40231e-06
0.0251938
4.5528e-06
0.00126108
8.7847e-05
4.75779e-06
1.11514e-08
0.000989094
5.41452e-06
2.10607e-05
8.55384e-08
2.78936e-09
0.000480146
0.000219681
0.020632
0.0108091