/*--------------------------------*- C++ -*----------------------------------*\
  =========                 |
  \\      /  F ield         | OpenFOAM: The Open Source CFD Toolbox
   \\    /   O peration     | Website:  https://openfoam.org
    \\  /    A nd           | Version:  10
     \\/     M anipulation  |
\*---------------------------------------------------------------------------*/
FoamFile
{
    format      ascii;
    class       volScalarField;
    location    "41";
    object      SgP;
}
// * * * * * * * * * * * * * * * * * * * * * * * * * * * * * * * * * * * * * //

dimensions      [1 -1 -3 -1 0 0 0];

internalField   nonuniform List<scalar> 
59698
(
0.00309474
0.00189759
0.00239471
0.00281341
1.13993e-06
0.00145199
0.00249703
1.10824e-07
1.98915e-09
3.92595e-09
0.000586478
1.69645e-09
1.58158e-09
0.00237196
2.75987e-08
4.26632e-07
9.78154e-09
3.90781e-09
1.74476e-09
5.89381e-10
0.000365093
1.55909e-06
0.000498819
8.81898e-08
1.98509e-07
1.14891e-09
1.21369e-09
0.00248185
0.00239382
2.16004e-09
1.35338e-07
0.000600653
6.6789e-08
0.00403487
1.10766e-06
3.91381e-09
0.000464809
5.04506e-07
1.76308e-08
0.00245237
2.97804e-08
2.30461e-07
2.31958e-08
2.46105e-08
0.000402108
1.04915e-07
2.40096e-09
4.88552e-08
0.00290846
3.3084e-08
2.95862e-10
2.11704e-09
0.00178396
0.00274564
0.00216824
2.05041e-09
8.44744e-08
1.55251e-08
1.77034e-08
2.74736e-05
0.00178289
6.28807e-08
1.98469e-07
1.49665e-09
5.01696e-07
4.29972e-08
1.75064e-09
3.15292e-09
4.21241e-09
6.78154e-09
6.13205e-07
2.79873e-08
0.000359699
1.81564e-06
0.000411956
1.10348e-06
2.1652e-08
2.23407e-08
6.3913e-09
9.56287e-09
4.7919e-07
9.89382e-10
3.9654e-09
8.31304e-09
1.69743e-05
3.15111e-08
9.50523e-09
2.3025e-07
2.33549e-06
2.40728e-08
4.52013e-09
6.36021e-08
1.70285e-07
6.86037e-09
6.26766e-08
0.00372231
1.33837e-07
6.06134e-08
4.98727e-08
8.59691e-10
0.00353599
2.07742e-05
2.95409e-07
0.00329209
5.48947e-08
0.000564777
2.4439e-09
2.30086e-09
2.65064e-09
4.40539e-10
3.79034e-08
2.7226e-06
1.36138e-06
1.56285e-07
1.00873e-07
3.53567e-08
3.60658e-07
0.00366088
3.08892e-07
1.15443e-08
2.33269e-09
3.08029e-07
2.24544e-07
3.39006e-09
1.77144e-09
8.24451e-09
7.91078e-09
7.21013e-09
1.27817e-08
3.9919e-07
0.0033563
3.95557e-09
1.10587e-09
1.82629e-07
6.31365e-08
3.2405e-09
5.08197e-07
2.59103e-10
1.74222e-09
5.86861e-09
2.12392e-08
0.00240444
0.00252093
1.58434e-09
1.96677e-07
8.25778e-10
5.53586e-07
3.93674e-07
0.00465135
7.09344e-07
0.000257408
0.000434375
2.82744e-08
2.63508e-07
9.08043e-09
1.04625e-07
7.41531e-09
0.00168886
6.72452e-08
6.02794e-10
3.06689e-09
7.85434e-09
2.20206e-08
9.67987e-08
1.87348e-08
0.00222907
1.02075e-09
0.000566841
0.0015253
6.92086e-09
2.55543e-07
1.47696e-06
2.18471e-07
9.28065e-07
5.75512e-07
0.00126058
4.4091e-09
0.00139581
0.000326012
0.00293323
2.25261e-06
7.42569e-07
4.00619e-07
1.16049e-08
2.52745e-07
6.85042e-08
3.71307e-07
0.00247059
1.14259e-10
1.84373e-08
6.47546e-09
7.27289e-09
2.30771e-08
6.05498e-07
1.22287e-07
0.00432272
1.85549e-06
0.0029444
1.2756e-05
9.04893e-08
0.000227094
6.73181e-07
1.4863e-09
2.77744e-09
0.0035681
0.00244689
3.53774e-08
0.0020581
0.00270793
0.00350374
0.00251232
6.32361e-09
0.00262724
1.56821e-08
2.29734e-09
0.00348989
9.96485e-09
4.72307e-08
1.54837e-07
4.65899e-09
1.37131e-05
0.00217452
1.75862e-09
5.09547e-07
8.93174e-09
0.00274728
2.1186e-08
5.49158e-09
4.85974e-08
6.83591e-07
7.56948e-09
1.87409e-08
7.43223e-09
1.13447e-08
9.72509e-09
9.29955e-09
3.06758e-07
2.02304e-08
1.82478e-07
8.18636e-09
0.00270581
1.18846e-07
3.47303e-08
0.000664542
8.9692e-09
2.20092e-07
2.3109e-05
3.50276e-06
5.29116e-09
4.9884e-09
6.14651e-08
6.2856e-09
3.12135e-08
0.000233553
1.91344e-08
0.001699
1.10062e-07
5.40903e-08
0.0032534
2.7708e-09
7.76961e-06
1.80149e-09
7.84616e-09
0.00270845
0.00357841
8.55243e-07
1.14838e-09
1.07141e-07
2.03381e-08
6.21942e-10
3.1067e-09
1.53369e-06
6.91633e-05
6.68582e-10
1.23512e-07
5.07289e-08
0.00151618
4.01715e-08
2.9501e-09
1.22919e-09
0.000574133
2.0509e-09
1.5757e-09
4.6616e-07
0.00335014
1.02551e-07
5.26998e-09
0.000647202
3.80835e-07
1.0043e-07
2.73071e-06
0.00232506
9.26014e-09
1.42334e-09
7.0308e-07
0.00283358
4.94062e-10
1.52542e-07
1.44437e-08
6.62317e-07
3.0733e-09
2.36223e-09
6.86647e-08
6.48738e-10
1.07795e-09
1.1988e-09
3.63835e-07
2.19582e-08
5.4032e-09
4.51591e-10
0.00196741
4.41402e-08
3.22677e-09
2.3799e-08
0.00198651
5.49838e-09
0.000403389
8.63981e-09
0.000829308
8.83244e-08
9.89724e-08
2.7203e-07
1.74111e-08
2.98218e-09
1.5847e-06
2.55371e-07
1.67367e-08
9.04608e-09
4.50549e-10
0.000361923
0.00289925
4.01905e-08
3.59259e-07
2.37578e-06
0.000430955
1.032e-08
8.04191e-09
4.40338e-09
1.40002e-07
0.00122095
2.13304e-08
0.00206218
0.00258982
4.95352e-09
9.98545e-08
1.33384e-09
2.65443e-10
1.25248e-06
1.40154e-09
0.00203383
9.23928e-10
1.43761e-08
1.25361e-06
7.94218e-10
9.56329e-07
0.00191614
2.69101e-06
1.46461e-08
3.32735e-08
1.82539e-09
2.21989e-08
1.12502e-08
1.10599e-07
3.58954e-09
1.38152e-10
1.04125e-07
0.0028991
0.00201719
2.9533e-08
9.76646e-07
1.13316e-07
0.000533992
0.00379154
0.000651134
2.08138e-08
2.9788e-09
3.76482e-08
2.16235e-09
0.000460526
2.48782e-09
0.000347123
4.6353e-08
4.50303e-08
5.15564e-08
8.31923e-10
6.77267e-06
1.12975e-08
0.000544824
8.15529e-10
3.59479e-08
2.13552e-08
0.000457502
0.00330054
3.33415e-09
5.38926e-05
0.00179762
3.5898e-06
0.00189329
0.00278845
8.35043e-08
0.00243872
0.00236491
0.00266115
5.31565e-09
0.0015384
0.0043308
0.00384038
0.0027631
5.91065e-09
8.23492e-07
1.88023e-07
0.000404301
0.00163746
0.000434523
4.81904e-10
2.03941e-07
2.04739e-09
2.29519e-06
0.00189801
0.00175709
0.00296968
0.00226122
0.00249159
0.00166466
8.19274e-09
2.31424e-09
7.88412e-09
1.73382e-08
0.00143462
5.51017e-10
7.79244e-09
0.00196075
0.00116547
2.3478e-08
3.69314e-08
1.41176e-08
1.39963e-08
0.00125835
3.58849e-09
0.00211828
1.9233e-07
0.00331296
5.08948e-09
4.54433e-08
1.93001e-07
2.01948e-06
8.67929e-08
4.5146e-10
2.17372e-09
1.29526e-07
0.00262956
6.86409e-09
7.57704e-08
1.96754e-06
6.34491e-07
1.17859e-07
3.40643e-07
1.42118e-09
1.15314e-06
1.71281e-07
6.101e-08
4.5261e-09
0.00320823
6.32224e-09
2.19832e-09
2.08784e-07
3.60853e-07
9.29847e-09
4.63551e-08
6.19614e-09
0.00247464
4.43552e-09
1.99713e-10
6.85641e-09
6.5375e-08
2.09007e-06
8.1719e-07
2.15557e-09
0.00300892
0.00196533
2.44034e-08
2.27287e-07
1.56591e-08
1.92705e-08
2.51858e-07
4.19544e-08
4.5311e-08
2.06874e-08
1.63396e-09
1.64385e-09
2.49262e-07
4.06895e-07
3.78143e-10
4.35072e-08
0.00402044
2.21071e-07
1.58845e-08
0.00245404
3.71751e-08
0.000365619
9.74355e-10
1.18356e-07
2.03884e-07
1.21281e-08
1.71036e-08
1.12239e-09
8.43556e-08
2.17517e-09
5.20805e-09
8.30449e-09
5.76392e-09
7.92554e-09
1.36535e-06
5.41922e-08
1.60368e-08
2.61535e-09
6.87313e-09
9.70797e-09
7.03675e-08
2.48628e-08
1.71249e-08
3.46718e-09
4.95898e-09
3.85001e-09
2.18937e-09
6.30879e-06
3.2964e-08
2.59447e-09
0.00339741
0.00370797
3.00073e-09
0.00384557
1.82768e-08
5.59988e-09
0.00150507
3.55694e-10
1.35529e-08
0.00178834
2.06777e-09
0.000384878
4.2955e-08
2.53016e-09
4.56409e-08
3.01353e-06
1.48317e-08
5.18107e-09
8.94075e-06
0.000166964
1.87231e-08
7.41164e-06
1.86333e-08
2.28112e-09
3.16549e-08
1.9189e-09
5.37697e-09
1.48349e-08
1.91145e-08
1.61896e-08
2.5833e-09
2.23588e-09
0.000768502
1.71538e-09
1.60502e-08
1.01387e-05
1.53061e-08
1.81212e-09
1.21267e-06
2.29768e-08
8.57838e-09
0.000539254
7.77748e-10
7.78808e-09
1.9094e-07
1.57796e-09
4.40321e-08
1.30362e-09
2.93163e-10
4.3523e-10
0.00200338
2.30885e-09
0.000732638
4.08868e-08
0.00320777
1.5172e-08
3.27928e-09
0.000313338
1.17314e-09
1.30578e-08
1.79826e-08
1.64136e-08
1.98525e-09
0.0031675
8.11958e-09
1.6816e-08
8.5136e-10
4.18559e-08
9.30229e-07
0.00264949
0.000349776
7.15479e-09
7.951e-09
1.64415e-09
2.71763e-09
0.00349912
1.35459e-08
4.43335e-09
2.41864e-09
0.00108761
0.00385597
1.5237e-08
1.27701e-08
1.56177e-09
1.12113e-08
4.30697e-09
4.13571e-09
5.14791e-09
4.92019e-09
3.61386e-08
7.88779e-05
7.2692e-09
5.03292e-09
7.87066e-09
1.82158e-08
2.52449e-05
0.00241925
1.13681e-08
0.00266358
1.63796e-09
8.80576e-09
4.32302e-09
0.00269465
0.000211256
1.16996e-09
8.44016e-09
8.64547e-10
2.89501e-08
6.36017e-09
2.89488e-09
0.00156975
0.0032367
1.32643e-07
1.68103e-07
0.000607899
1.44881e-09
5.06878e-09
1.61197e-09
4.25964e-07
0.00218551
3.5111e-08
1.72267e-09
0.000439477
7.61552e-09
3.18814e-08
3.41049e-09
2.44949e-09
4.49856e-09
9.06132e-10
7.68943e-06
1.01389e-09
0.00182156
5.23759e-08
1.12722e-07
6.85929e-09
1.55523e-06
3.53249e-06
5.39036e-09
2.27236e-08
0.00239479
0.00318945
7.27742e-08
3.86822e-09
7.84847e-07
1.84157e-09
0.00356359
3.2318e-10
2.01224e-08
0.000428464
0.00255415
4.11471e-09
1.60541e-09
1.96958e-07
6.08797e-07
3.53431e-07
0.000378103
0.00143903
1.2233e-10
6.808e-09
1.03289e-09
4.79122e-09
0.00277503
2.71677e-08
0.00302928
1.04387e-08
0.00134051
0.00209609
0.0024518
6.39956e-08
4.16302e-09
0.000650606
1.30278e-09
2.28152e-10
1.02022e-09
4.35999e-09
1.81373e-08
4.89108e-09
1.50712e-09
9.18024e-08
6.96133e-08
7.95081e-09
2.72408e-09
0.001864
4.17919e-08
3.74279e-08
0.000362158
9.91848e-09
3.47504e-08
3.82286e-08
1.95974e-09
1.37892e-09
0.000646941
0.00196353
0.002415
3.87692e-09
1.13891e-08
6.8956e-09
1.63841e-07
0.00194601
1.34523e-09
5.70125e-07
2.65063e-08
1.31836e-05
0.000344566
0.00169852
2.25244e-07
1.48094e-07
2.23544e-08
0.00445575
0.000532171
1.89462e-08
8.73944e-07
3.81331e-09
7.08172e-08
3.44928e-06
0.00231971
2.45663e-08
1.20656e-07
1.00901e-07
1.59301e-05
2.57002e-08
0.00185634
2.37781e-09
5.18538e-08
1.1628e-08
0.00213014
6.86223e-10
6.87332e-09
2.08615e-07
4.46445e-06
0.000599781
1.1339e-07
7.04766e-08
0.000383645
4.16173e-08
2.5211e-09
0.00196777
0.00219678
5.43027e-09
8.13359e-09
0.000401565
1.01604e-08
1.75628e-08
0.000373921
3.51291e-10
0.00274032
2.51531e-09
1.92936e-08
1.87804e-07
4.19642e-09
3.96399e-08
3.56466e-08
4.97644e-05
3.75552e-09
6.12722e-09
7.08365e-09
1.17275e-08
9.70707e-08
1.53291e-08
0.000326091
6.81192e-09
2.01887e-08
0.00145241
5.70923e-08
9.84364e-08
8.53787e-06
0.00193856
2.38506e-06
0.000541646
6.93837e-09
0.000383092
1.34919e-08
2.71344e-09
1.58837e-09
0.00324346
3.95659e-07
3.25875e-08
7.13052e-05
6.44061e-08
0.00159737
1.70498e-07
9.83706e-06
3.56329e-09
0.00100439
3.3407e-09
0.00130413
5.38155e-05
2.45381e-07
0.000651794
0.00185342
1.22688e-06
1.11329e-05
4.06845e-09
1.13403e-06
2.56703e-08
4.08639e-05
0.000444818
0.000428806
0.00211176
3.53373e-08
3.21082e-08
0.000561236
4.58829e-08
0.00235283
6.49044e-10
0.000401156
2.34528e-09
2.81832e-09
2.94133e-05
0.000503637
0.000206045
0.000108509
7.69335e-09
5.08661e-09
1.85036e-09
0.000487193
2.12424e-09
0.00350809
0.00489863
2.47694e-09
0.00049971
2.05765e-09
8.84963e-10
2.93144e-09
3.18947e-06
0.000469632
3.01342e-09
1.2949e-09
1.05182e-06
4.3512e-09
1.12198e-07
3.87054e-09
3.11423e-09
8.89504e-08
2.63824e-07
3.13045e-08
1.07413e-08
0.000532567
8.07021e-10
0.000127661
2.75631e-10
2.48254e-09
0.00128154
1.50607e-09
7.75649e-06
8.98256e-08
7.44125e-09
0.00010882
1.27827e-08
0.00157167
2.72459e-08
4.71653e-10
0.00174588
5.96413e-09
1.15049e-08
0.000307139
1.24761e-09
0.00212857
1.7475e-08
1.60168e-09
0.00438207
3.0597e-09
5.38304e-09
1.49746e-08
1.63901e-08
0.000319936
7.89046e-09
5.60446e-09
1.68898e-07
0.00180903
0.000633464
0.00058406
2.24417e-08
1.78425e-09
0.000379941
0.00245121
6.89639e-09
8.57953e-09
5.57818e-08
1.19515e-08
3.10378e-09
2.57674e-08
0.000412258
0.00149976
0.00271668
1.49189e-07
2.03976e-09
0.00276304
0.00414724
0.00538716
5.0976e-08
1.81283e-08
1.6569e-07
4.38654e-07
1.80885e-08
2.75918e-08
7.86745e-07
2.8495e-08
7.49957e-09
8.15045e-09
1.35409e-06
7.27766e-08
7.37325e-09
0.00254233
1.6612e-09
5.98536e-08
1.87579e-08
2.85295e-08
6.49417e-09
3.90495e-10
0.000761136
1.89235e-08
3.11233e-09
0.00193675
1.90394e-08
2.39209e-08
0.00328156
2.93971e-08
3.33445e-07
5.72807e-09
2.00393e-08
2.50132e-08
0.000825781
3.13479e-08
0.00227582
1.83755e-07
2.05238e-07
3.70474e-08
0.0055241
0.000294953
4.73313e-09
5.2529e-09
9.92309e-07
1.44105e-09
1.19305e-08
8.57613e-09
0.00167193
1.16106e-09
2.2946e-09
8.19053e-09
2.47493e-09
3.70031e-08
2.36838e-08
7.53751e-09
0.000429221
0.00219274
0.000466222
6.49634e-08
0.00314148
0.00256274
5.61558e-08
1.87159e-09
0.00183289
6.44232e-06
0.00154625
0.0020821
0.00203124
3.32719e-09
6.03948e-08
0.0023783
2.0277e-07
3.37222e-08
1.90021e-07
2.64509e-08
0.000443686
2.18512e-08
0.00053842
1.69312e-05
2.57161e-08
0.00196207
2.00012e-08
0.000608724
6.87794e-09
1.81531e-08
1.16397e-09
3.9941e-08
0.00158818
0.00377498
1.25322e-09
0.00039562
0.00188891
0.00140229
0.00278248
5.6765e-10
1.01051e-08
1.17207e-09
0.00355467
7.72319e-10
1.29671e-07
0.00356113
5.80208e-09
0.00359825
0.00351659
0.00379017
1.53393e-08
5.71829e-08
4.61333e-08
9.05421e-09
1.10085e-08
6.15714e-08
1.31653e-08
5.33798e-09
0.000475227
3.6551e-09
3.69914e-08
2.77243e-07
5.21487e-10
0.00168077
2.94019e-08
4.61035e-09
6.87406e-08
2.77274e-10
7.01485e-08
3.87547e-09
2.03133e-07
0.00310092
3.12315e-05
8.90096e-10
1.56414e-08
0.00216864
0.00314921
1.78529e-07
0.000760398
1.0024e-08
7.78563e-09
0.00257395
2.22833e-08
0.00322068
0.000542244
1.04717e-09
7.24341e-08
0.000765799
1.74195e-08
2.49335e-08
0.00250808
6.31855e-09
1.35559e-08
3.12108e-09
0.0005346
3.14965e-06
0.00193147
1.80248e-07
9.38707e-09
0.00175211
1.3307e-07
2.55633e-10
5.95041e-06
2.18468e-09
7.16641e-07
0.00133427
2.76249e-09
9.16685e-10
1.17775e-08
5.91244e-09
1.54758e-08
5.83475e-09
1.2758e-08
1.03686e-06
9.68272e-10
1.32692e-09
0.00176183
4.65727e-09
5.52768e-06
2.93491e-08
3.86766e-06
1.35251e-06
1.21143e-06
5.36912e-06
1.26153e-06
5.34299e-09
1.65827e-08
0.0010031
2.88613e-06
2.48408e-08
2.25585e-08
2.52077e-08
0.000449091
1.36684e-06
8.21824e-08
2.28903e-07
3.70244e-09
0.00226329
5.2702e-09
1.22669e-08
2.08979e-08
1.18518e-08
2.99208e-08
0.00212634
5.57495e-08
2.40684e-08
1.86743e-08
4.96498e-09
0.000477736
2.27135e-09
4.98113e-09
3.35604e-08
2.48477e-10
1.45813e-09
6.33844e-09
9.35532e-09
1.38306e-08
0.000332136
1.18571e-08
1.31693e-08
2.4794e-09
1.99961e-08
1.23872e-08
1.01572e-08
5.84781e-08
0.000380628
0.00250587
1.58513e-08
8.31957e-09
0.00284487
1.68194e-09
4.31504e-05
0.00203094
4.94244e-09
7.06352e-07
1.53266e-06
0.00186472
2.19415e-08
3.19637e-08
2.25417e-07
1.74247e-05
8.67355e-07
2.16368e-07
1.39901e-09
3.87901e-09
4.3244e-07
1.09658e-07
5.7893e-09
1.55034e-09
1.23105e-08
7.56095e-09
3.05695e-06
0.0012941
6.41009e-08
3.65856e-08
5.30116e-08
0.00264617
0.00253859
9.32974e-07
1.51399e-08
3.4024e-08
4.01391e-08
4.60225e-09
2.89631e-09
1.81477e-07
4.2217e-09
3.45955e-08
2.00963e-09
1.25909e-08
2.2682e-08
3.26422e-09
4.17165e-07
2.8347e-09
0.00043443
9.50396e-08
0.00394822
0.00165207
1.1244e-07
2.16258e-08
0.0005797
0.000345168
2.88471e-08
2.42604e-08
9.25545e-06
2.27986e-09
1.96592e-09
2.44383e-08
1.79452e-08
0.000781454
0.000646972
9.84415e-09
1.21561e-08
7.88898e-09
3.44634e-07
5.07902e-08
0.00275949
0.000496415
1.4367e-08
0.000238786
7.35593e-09
0.000315414
0.000227785
0.000223592
2.80501e-08
1.04559e-07
1.87448e-09
1.00194e-07
2.53777e-08
0.00240342
4.88726e-09
4.28005e-08
7.08017e-09
7.70099e-08
2.27945e-05
0.00194524
0.00235663
2.20638e-08
3.08768e-08
0.000377621
4.02275e-08
1.03598e-06
1.05093e-08
0.00304788
4.18346e-08
2.33368e-08
8.53516e-06
0.00262292
6.83082e-08
2.29699e-08
0.0013129
2.0925e-08
4.65868e-10
1.39406e-09
4.29358e-09
3.19745e-08
1.35795e-08
6.31817e-10
2.25392e-08
3.68908e-08
1.17043e-08
6.28625e-08
1.89223e-08
5.66352e-07
0.00196964
2.99386e-09
1.57187e-08
5.71217e-08
0.00200076
8.73195e-07
2.00909e-08
0.000374207
2.9943e-09
2.25159e-07
1.46247e-07
0.000983777
3.60099e-07
3.21826e-10
1.22061e-07
1.40037e-08
1.22672e-07
5.1464e-08
3.14563e-09
1.52497e-07
6.88375e-09
8.69835e-08
7.68223e-10
0.000584269
5.20026e-08
0.00213514
1.30768e-09
6.54957e-08
2.18192e-06
1.07268e-08
6.17543e-06
4.77365e-09
6.49183e-10
2.44742e-07
4.18555e-08
4.89576e-09
1.7124e-05
6.10893e-08
7.6655e-08
0.000547243
3.08603e-09
0.000563698
3.20189e-08
2.26666e-09
7.64682e-09
5.80366e-09
1.98046e-08
3.8972e-07
3.23602e-07
1.50747e-07
0.00246839
2.10374e-07
0.0039323
0.0020952
0.00329191
8.49616e-08
2.1814e-07
0.00143526
3.96608e-09
2.49582e-08
2.97593e-08
0.00236962
9.17605e-09
0.000635586
0.000492211
2.831e-09
0.00262598
5.07167e-06
0.00264009
1.89495e-08
0.00249646
5.59395e-08
0.000340182
1.64794e-09
3.9791e-09
4.26343e-08
0.000746729
7.81765e-07
4.16577e-10
2.68742e-08
6.34558e-10
0.000532965
0.000313623
5.69995e-08
0.00190917
4.55256e-07
0.000544665
3.19879e-08
5.59914e-10
6.42144e-09
2.62266e-09
8.95497e-08
2.03988e-05
5.69692e-09
1.33182e-06
4.52389e-08
4.23129e-08
4.72448e-09
9.88513e-05
2.24426e-07
1.88421e-09
6.45206e-09
0.000432449
1.09045e-06
7.81834e-08
0.00152077
1.77549e-06
1.48795e-06
7.74592e-09
8.53518e-09
3.87112e-09
0.000681508
2.73945e-08
5.53302e-09
1.49534e-08
3.62631e-07
9.98078e-07
2.05639e-07
1.82133e-09
3.1811e-06
6.72025e-07
7.47452e-09
5.9841e-09
5.49951e-06
2.61084e-09
5.26665e-09
0.00246569
0.00229114
6.18129e-08
4.53928e-09
1.1482e-09
3.37223e-08
0.00192995
2.58389e-07
1.38412e-06
5.57016e-10
5.49595e-07
3.28884e-08
0.00111997
0.000444876
6.5242e-07
2.43751e-08
3.5082e-06
5.68964e-07
0.000100695
2.22909e-09
1.88319e-08
0.00118799
2.54913e-08
7.83108e-07
5.89664e-07
2.0268e-06
1.22914e-06
1.16839e-08
0.0016229
1.31129e-05
2.47807e-09
1.21154e-08
4.70585e-09
0.000427673
0.00011346
1.89683e-08
0.000637651
1.22696e-07
7.26897e-05
0.00292452
0.000398953
0.00282005
0.00183697
0.00221777
4.55048e-10
2.78651e-06
8.51175e-08
3.42142e-06
1.49835e-05
2.21254e-06
2.01789e-09
3.99263e-07
1.48603e-08
3.30587e-07
0.000761567
2.83794e-07
9.08633e-10
0.00178427
1.45893e-07
0.000207825
1.83497e-07
4.23938e-07
5.11054e-09
4.01537e-07
2.19665e-07
0.00156857
2.09639e-07
3.57927e-08
1.49592e-07
2.59352e-05
0.00129743
0.00136284
0.00293864
4.89111e-09
0.000502802
0.00155107
0.00175329
0.0014947
2.4505e-07
0.00224661
2.67936e-07
4.83542e-09
5.62276e-09
6.97926e-09
0.00152607
0.00183418
5.6486e-09
1.46768e-08
8.43854e-09
4.2333e-07
0.000298097
0.00368296
0.00140462
8.21599e-08
0.00247909
8.60723e-10
3.61996e-08
0.00112953
0.00080457
5.39275e-09
2.78241e-06
1.22564e-08
6.61709e-09
0.00352022
6.34313e-09
0.00042328
1.17075e-09
0.00037871
0.000405405
0.000581334
0.00196687
3.39335e-07
0.00161712
1.27e-08
1.18351e-05
0.000460544
0.00124695
0.00220791
0.00109662
7.53477e-09
0.00124435
8.97516e-09
1.59634e-08
0.00292752
1.64012e-07
6.57806e-06
5.63689e-08
5.36208e-08
0.000573392
1.43448e-06
3.40039e-09
1.49207e-07
4.35848e-07
0.000403282
0.00219802
2.81447e-07
7.63211e-09
0.000614677
1.8183e-08
1.56991e-08
5.22141e-08
6.0476e-07
0.00214077
3.83137e-09
0.00241631
8.42214e-10
0.000256111
0.00433596
8.69407e-09
3.03795e-06
0.00242901
4.99197e-05
5.20281e-06
2.46791e-09
0.00177967
0.00277878
5.17712e-10
0.000489116
8.50858e-07
0.000618779
1.49179e-08
8.52744e-07
5.12262e-07
3.52606e-08
7.54771e-11
0.000345758
0.00131353
6.75204e-09
1.2314e-09
0.00218118
1.11216e-08
2.20686e-09
3.86455e-08
1.8753e-09
7.87436e-08
0.0035411
0.00209412
2.64222e-08
5.47217e-10
0.0022114
2.05808e-07
0.00270354
2.78531e-09
1.90129e-06
4.55881e-08
7.44498e-09
2.75061e-09
1.07628e-08
0.00333553
5.03849e-09
2.80092e-07
0.000274723
0.0024547
0.000453095
1.37823e-08
1.17866e-06
2.56821e-09
0.000229126
0.00228077
8.64649e-10
3.74777e-09
3.98015e-08
3.42219e-08
0.000502528
2.71564e-07
0.000529732
1.99447e-07
6.68569e-09
5.85791e-11
4.96444e-08
0.00022103
0.000394062
5.50387e-09
0.00385894
0.00246587
8.98436e-09
3.08096e-10
3.95646e-09
7.53216e-09
3.88572e-09
1.58549e-08
0.00275228
0.000620022
0.000514084
7.75877e-05
0.000348252
0.000381681
2.92147e-09
4.27042e-08
1.57497e-09
3.0281e-08
1.89156e-08
0.00234622
1.11429e-08
4.99833e-09
0.00115978
1.9151e-08
7.91816e-08
8.74565e-08
1.80173e-09
8.30772e-08
3.52991e-08
0.00227168
5.40843e-09
1.47979e-08
4.40326e-09
1.6425e-08
2.18998e-08
0.0038752
4.52706e-07
1.16124e-07
7.37405e-08
1.04559e-09
4.53387e-05
1.05194e-06
3.28162e-09
5.74993e-07
1.23871e-05
1.04532e-08
1.13362e-08
1.03906e-05
1.79732e-06
2.48933e-07
0.00304101
4.04296e-09
3.97843e-07
1.36866e-06
0.00291704
2.2456e-07
3.98764e-10
1.92243e-06
1.50217e-05
3.45811e-07
1.04511e-08
1.69982e-07
4.60565e-08
6.6123e-08
1.99658e-08
3.31391e-08
0.00184445
2.25445e-09
1.18251e-08
1.08198e-08
6.69019e-10
4.63421e-09
9.50319e-10
0.00421356
1.24451e-07
2.29643e-09
3.30553e-09
3.21564e-09
1.08778e-09
4.98895e-08
5.17404e-09
2.82961e-09
5.61173e-08
1.33738e-08
0.00228542
3.05633e-09
0.000384393
3.52546e-08
1.18305e-07
1.80606e-08
1.2099e-06
1.02098e-09
0.00315759
9.58633e-09
0.00178969
2.96061e-07
4.04597e-08
1.34644e-08
1.81825e-06
2.86547e-09
3.73829e-09
2.94405e-09
0.000259167
0.000626661
0.00213671
1.00917e-07
1.57345e-07
0.00227855
1.72739e-06
3.37244e-09
1.38293e-08
2.97725e-07
1.18387e-08
0.00425579
2.79335e-06
0.00314093
2.74261e-08
7.71379e-09
0.00158791
0.00149227
0.00180523
1.70594e-08
1.47637e-06
0.00193968
1.70978e-09
1.23215e-05
1.5174e-07
0.0018381
0.000459302
1.80923e-07
0.00238576
2.04687e-05
6.21395e-07
0.00205397
0.00224226
1.92207e-08
0.00245269
0.00311828
0.00186893
2.49357e-08
4.34475e-09
6.27787e-09
8.99133e-10
2.90034e-09
0.00163022
0.00282562
0.00182463
2.90579e-09
0.00303323
2.75307e-09
0.00228055
0.00258009
5.78085e-09
3.79998e-08
0.00170916
2.45858e-08
1.31502e-08
3.2035e-07
4.28663e-10
0.0026455
0.00199029
8.30429e-07
0.00163492
4.67982e-09
3.05074e-09
7.34514e-09
3.30614e-08
6.95428e-08
3.13283e-07
1.20567e-09
5.64157e-09
1.48947e-08
8.12711e-09
6.26206e-09
1.04324e-07
3.72445e-10
2.32279e-08
2.11278e-06
1.2154e-08
3.56497e-08
2.78365e-09
1.25364e-07
1.53893e-09
5.16586e-09
2.22653e-07
1.65289e-09
3.0815e-09
0.00194104
3.52428e-08
5.34922e-09
6.52834e-07
3.07656e-09
1.47494e-08
4.83859e-08
0.00185726
9.35284e-08
0.00220807
0.00153834
1.72688e-08
2.07287e-08
5.76424e-08
6.80746e-09
0.00163042
4.96924e-08
2.26555e-07
3.66731e-07
2.92112e-08
0.00243807
0.00154752
1.94861e-09
3.20772e-09
7.0148e-09
6.37904e-08
5.89955e-08
7.45079e-09
4.16559e-07
5.13932e-09
1.48643e-06
2.49146e-09
1.52386e-09
6.4919e-09
1.60955e-08
2.33659e-07
7.6647e-09
1.90596e-08
0.00444201
0.00150047
0.00265774
0.00160668
1.48422e-06
1.25041e-08
0.00208232
6.96294e-07
6.94197e-09
0.000410058
1.3181e-09
1.48185e-07
0.0024246
4.40049e-08
1.28134e-07
2.30307e-08
4.39702e-08
0.00139993
8.48403e-09
1.06379e-09
2.11539e-07
2.6476e-09
4.86051e-07
5.97832e-06
6.7154e-08
0.00211108
4.18857e-08
0.000460605
2.5645e-07
0.00209868
4.03797e-10
5.01753e-09
2.68164e-07
3.92096e-09
0.00183884
3.83329e-07
0.000518156
1.49303e-07
1.84983e-07
1.33835e-07
2.66518e-08
8.83481e-09
4.99762e-08
3.02061e-06
4.20647e-08
2.60886e-06
0.00324757
5.35515e-08
0.00421552
5.65209e-09
2.52501e-09
4.56973e-06
0.00186418
1.42363e-08
1.33401e-09
9.03258e-07
5.69609e-08
3.38649e-08
0.00233957
1.34779e-08
6.10534e-07
0.00262084
1.35757e-09
8.10689e-09
4.18231e-07
9.93597e-10
8.18542e-09
0.0026186
5.47778e-09
0.00285942
2.31774e-08
2.15588e-07
3.93392e-08
0.000894218
6.05701e-08
2.77614e-08
1.48784e-07
0.0026217
1.58845e-06
1.25447e-08
9.36059e-09
1.24426e-07
0.00207292
3.22753e-09
5.17275e-08
6.29719e-08
1.59009e-06
0.00261559
0.00027003
0.00118989
1.74499e-08
0.000357977
1.17789e-08
9.04725e-07
0.000789914
1.15454e-08
0.000881063
3.28269e-06
4.85657e-09
2.65307e-09
1.19762e-08
0.0026179
1.52522e-08
2.68306e-09
2.60805e-07
1.12179e-08
5.61584e-09
0.000301421
2.92345e-09
4.47837e-08
0.00251978
1.26432e-06
4.52619e-09
0.00210903
3.2536e-06
6.52303e-09
1.36851e-08
1.20332e-05
4.3048e-08
2.24484e-07
1.67036e-08
4.13502e-08
6.01154e-08
4.74036e-06
0.0010977
4.84209e-08
0.00248244
1.50675e-08
3.79408e-08
0.00271653
3.09687e-08
7.8338e-08
9.89528e-09
1.33875e-07
0.00244809
3.01323e-08
2.1315e-08
0.00163504
5.79956e-09
0.0027603
1.42256e-09
8.00587e-09
1.11282e-09
9.36827e-09
0.00151682
5.3753e-08
1.40089e-09
2.58813e-09
1.42778e-08
5.28903e-08
0.00255188
4.81639e-09
4.56742e-09
1.93196e-09
1.54992e-07
5.29234e-06
5.03952e-09
0.00156968
3.49767e-08
1.03382e-08
6.57004e-09
5.11708e-08
0.000429641
6.72613e-07
1.59022e-10
9.89506e-10
0.00182631
0.00217026
6.14378e-08
3.87849e-09
0.0018357
1.68783e-08
8.38913e-10
0.0035603
9.54471e-09
0.00275307
2.92212e-07
1.82175e-08
1.96296e-08
9.76743e-09
9.60702e-09
4.40386e-09
3.05093e-05
7.42436e-07
2.2608e-09
4.06348e-08
5.62997e-08
5.60421e-09
0.00267627
8.6892e-09
1.33754e-08
0.001974
2.61509e-08
3.59995e-08
3.09231e-10
0.00228717
2.82564e-08
1.32464e-07
3.52305e-09
3.70032e-08
4.05693e-09
0.0023377
5.95383e-09
7.00519e-09
0.000613774
1.11747e-08
7.20414e-09
0.00241627
6.5254e-08
3.87165e-10
3.24699e-08
6.09426e-09
0.00188362
4.57246e-07
6.07608e-08
3.51958e-09
4.02055e-07
1.41296e-07
9.0039e-09
1.34767e-09
1.0278e-09
3.53219e-08
1.04881e-08
8.65724e-10
7.9467e-09
6.16297e-09
1.06221e-08
0.00239723
7.20703e-07
1.47918e-08
2.13965e-09
9.10058e-10
0.00219992
1.9404e-08
0.0033984
9.3983e-07
0.00163979
7.53996e-10
0.00222952
0.00292638
8.82981e-09
9.59316e-09
8.95485e-08
0.00210511
0.00251644
3.06979e-07
7.64617e-09
2.50181e-07
1.05137e-09
2.22589e-07
8.73554e-09
9.42799e-08
1.66209e-08
1.36334e-09
4.091e-09
1.01417e-09
6.48507e-09
9.26753e-09
3.86508e-09
5.08234e-09
1.51705e-08
9.00698e-08
3.07763e-11
3.36197e-09
7.49373e-10
5.98672e-09
1.46916e-09
1.78876e-07
0.00196491
0.00289195
4.5053e-09
0.0023096
1.46286e-08
3.10955e-09
4.82607e-09
1.63965e-06
1.80654e-07
7.15929e-08
9.89775e-10
1.14614e-08
2.14021e-09
8.2757e-09
1.65814e-09
1.35095e-08
1.41351e-07
0.00164275
2.43124e-09
2.11053e-08
0.00145403
0.00184815
0.0022715
0.0020636
0.00176517
4.81035e-08
3.776e-08
3.00433e-09
8.24901e-09
7.60162e-09
1.39146e-06
3.9391e-09
3.04433e-08
3.53456e-08
7.18292e-09
2.42665e-09
2.63632e-09
7.64121e-07
3.15506e-06
3.96698e-07
6.03897e-09
1.6661e-09
3.52994e-09
0.00294865
2.52404e-09
0.00192132
1.09936e-07
8.78863e-09
7.52421e-07
0.00105424
6.75868e-08
4.07852e-10
3.77023e-09
3.20537e-08
1.50753e-09
2.38722e-08
1.05874e-09
0.00114517
3.55311e-10
4.18223e-08
0.00284521
2.91369e-09
0.00137985
5.86608e-08
0.00223834
1.01461e-07
0.00126306
3.54641e-10
0.00289501
0.00232081
2.79501e-08
4.05759e-09
0.00158363
1.98644e-08
0.00187
1.70265e-08
7.86413e-09
5.10128e-10
1.67939e-08
2.04968e-08
1.5076e-08
6.60902e-07
0.0029232
0.00166192
1.2177e-06
3.9137e-09
3.47263e-07
0.00315882
0.00136205
0.0024525
0.00243187
5.33943e-09
6.08217e-08
2.76472e-08
1.24563e-08
0.00314706
6.50438e-09
0.00153862
0.00333251
5.41178e-09
3.26409e-09
0.00166383
0.00313809
2.95347e-08
7.82964e-10
0.00174364
9.1282e-08
2.54821e-09
4.79391e-07
9.76564e-08
0.000406633
7.13918e-08
5.8324e-08
2.47216e-07
2.70066e-07
9.42833e-08
3.85355e-09
4.76275e-09
1.10354e-08
2.0559e-09
2.0473e-08
8.67142e-09
1.86133e-10
2.24677e-09
0.00206938
0.00293928
3.27297e-10
2.63931e-08
6.61369e-09
3.08087e-09
4.78868e-07
1.94955e-08
2.34272e-09
0.00270664
0.00156068
0.00144874
0.00165414
4.87715e-08
0.00136333
2.55032e-07
0.00390715
6.48144e-10
0.00235585
2.725e-08
3.77431e-08
1.55586e-07
6.35508e-10
0.003053
1.85412e-07
0.00423643
6.19578e-09
1.28589e-09
9.6808e-09
9.13251e-09
0.0013912
0.00297235
1.69113e-10
2.95829e-09
2.43821e-08
0.00167442
4.12205e-09
0.00280327
3.52148e-07
2.03488e-09
5.75985e-09
0.00241513
3.61817e-08
0.00221639
8.47067e-08
0.00395988
0.00330977
7.98785e-08
2.23466e-09
0.00365683
8.89376e-09
8.51419e-07
0.000344637
1.61098e-08
1.41257e-07
2.27745e-08
8.85702e-09
0.0031112
4.96517e-09
7.39756e-08
3.68703e-10
7.03267e-08
7.0111e-09
4.85327e-09
1.51583e-08
1.00717e-08
1.7763e-08
0.00294979
2.19884e-08
2.55556e-08
4.95346e-09
1.43774e-08
9.06805e-09
8.84343e-09
1.1647e-08
0.00220134
8.2111e-09
0.00303552
0.00189493
4.9675e-09
0.000360671
2.93594e-09
3.44531e-09
2.71246e-08
3.49397e-08
3.07953e-08
0.00158138
0.00209814
1.14218e-07
1.0305e-07
8.4776e-08
0.00308501
0.00110982
4.82173e-08
0.00216338
0.00454016
1.26583e-06
0.00258995
0.000410464
6.55917e-09
7.82742e-07
2.5342e-08
0.000563895
6.77588e-10
0.00253119
3.41088e-10
2.42896e-09
0.000636555
0.000341711
2.00573e-08
0.000460456
4.22227e-08
1.08081e-07
2.57726e-08
2.69775e-09
3.93951e-07
2.88615e-09
4.85131e-09
0.00243088
1.33701e-08
1.39029e-08
4.5261e-09
1.22004e-07
1.65471e-09
4.57001e-05
2.96735e-08
2.0319e-08
8.03726e-08
1.68692e-07
0.000297091
0.00227306
4.17791e-08
7.05199e-09
0.00236653
0.00234104
3.6991e-08
2.33844e-08
1.28497e-08
3.13885e-09
3.04859e-08
1.10879e-08
0.00200142
0.00448309
6.26268e-09
2.08051e-09
3.84793e-09
5.99077e-09
0.00255209
0.000394485
1.75432e-09
1.8786e-08
1.57463e-08
0.00211901
1.05006e-05
1.0941e-06
0.0019432
2.49079e-08
2.59036e-08
5.08336e-09
4.11903e-08
2.52861e-08
0.00220469
5.43855e-08
0.000310603
5.51924e-09
6.25262e-09
0.00320556
0.00260273
7.55865e-09
0.00306976
1.08307e-09
1.47363e-09
4.53238e-07
5.03665e-09
3.67706e-09
0.00179331
2.67255e-08
1.23832e-07
0.00384898
1.25584e-08
0.00154969
0.00311531
1.4507e-08
0.00330207
1.4469e-08
1.31076e-08
1.82775e-08
1.8714e-07
9.85277e-09
4.63674e-08
5.93e-09
2.42835e-08
4.80925e-07
1.94786e-08
0.00232338
6.50219e-09
0.00301316
8.19427e-10
1.15344e-08
5.54276e-09
0.00231047
8.20137e-09
0.00231151
0.00192372
0.0032023
1.57194e-08
0.00209367
1.44371e-07
2.13171e-08
3.18694e-09
8.00256e-09
1.29637e-08
7.64333e-08
1.47291e-07
2.94535e-07
3.41978e-09
0.00291376
3.31398e-08
1.20214e-09
1.01582e-09
4.52405e-09
7.0214e-10
0.00200401
3.60076e-08
0.00294258
2.70041e-08
0.000624947
3.59981e-09
3.52353e-09
0.00182159
0.00346347
6.65928e-08
3.68653e-09
0.00375515
1.56717e-08
1.05145e-09
3.32529e-09
1.31699e-08
6.28922e-10
1.36441e-08
1.53883e-09
1.39728e-08
2.93941e-09
6.07572e-08
2.70169e-08
0.00246219
5.69838e-07
1.02775e-07
1.15562e-08
4.65144e-09
0.00208843
1.37503e-08
0.00298249
4.1356e-08
2.79888e-08
6.25324e-09
6.16777e-09
7.96468e-08
7.66488e-07
0.00134425
0.00121787
8.17038e-09
0.00381152
2.34757e-08
0.00286311
9.0439e-09
1.32536e-08
2.90517e-09
0.00269749
0.00132519
0.00042741
4.4742e-08
2.0517e-09
0.00133794
5.35772e-09
3.62061e-09
9.13708e-09
5.35851e-09
0.00245399
0.00209684
1.81358e-08
3.15145e-08
5.15776e-08
3.95806e-09
3.24839e-06
1.81591e-06
6.21348e-09
2.52554e-08
0.00163009
9.11298e-09
3.11562e-08
1.08718e-09
3.00413e-08
4.65998e-09
0.00229692
4.69192e-09