/*--------------------------------*- C++ -*----------------------------------*\
  =========                 |
  \\      /  F ield         | OpenFOAM: The Open Source CFD Toolbox
   \\    /   O peration     | Website:  https://openfoam.org
    \\  /    A nd           | Version:  10
     \\/     M anipulation  |
\*---------------------------------------------------------------------------*/
FoamFile
{
    format      ascii;
    class       volScalarField;
    location    "41";
    object      T;
}
// * * * * * * * * * * * * * * * * * * * * * * * * * * * * * * * * * * * * * //

dimensions      [0 0 0 1 0 0 0];

internalField   nonuniform List<scalar> 
59698
(
286.63
283.15
283.15
283.15
299.926
283.15
292.522
283.15
303.15
303.15
303.15
283.15
283.15
283.15
300.108
303.15
283.154
283.15
283.15
293.805
303.283
302.121
303.148
303.15
295.68
283.15
283.15
298.341
295.696
295.344
300.291
303.15
303.15
298.829
302.365
283.15
283.382
283.468
283.15
297.582
296.231
283.15
296.572
292.394
283.15
296.6
283.15
295.261
294.642
283.15
293.058
283.15
283.15
292.825
294.381
283.15
294.27
302.178
294.195
282.977
291.249
294.291
299.613
283.15
286.782
285.783
303.15
283.15
283.15
303.15
283.15
293.769
283.136
298.556
283.15
297.792
292.974
287.693
291.645
294.145
299.955
292.556
303.15
283.15
303.702
292.877
283.567
283.15
298.892
283.15
303.15
294.736
298.995
283.15
283.15
283.15
299.07
283.15
298.919
283.15
299.122
283.129
285.892
284.494
283.15
283.15
283.15
283.15
303.15
283.15
283.15
283.15
298.875
283.15
283.15
283.15
283.15
283.15
283.15
303.15
283.15
283.474
283.15
283.15
283.15
283.15
295.475
303.15
283.15
283.15
287.533
283.15
303.15
292.779
290.249
291.652
283.15
303.15
283.15
283.15
283.15
283.15
290.852
292.126
283.15
283.153
283.15
283.15
283.15
301.182
283.138
303.15
288.079
283.15
294.063
293.336
283.15
283.15
296.946
283.15
289.666
283.15
290.78
299.549
297.79
296.667
283.15
280.92
299.359
292.076
300.371
283.151
300.937
300.999
285.545
283.15
303.15
283.238
303.15
298.911
302.762
300.403
298.618
283.15
298.736
300.855
300.76
283.15
283.15
294.717
291.037
283.15
296.607
297.473
299.382
283.15
293.944
296.565
303.155
299.377
283.15
284.148
292.418
283.15
299.287
290.95
297.316
295.415
293.575
298.019
283.15
283.153
299.139
303.15
294.872
283.15
283.15
283.151
297.838
296.004
282.052
296.311
283.15
299.271
295.289
299.325
295.84
291.351
295.61
285.01
283.15
296.17
295.178
295.843
283.15
294.822
295.97
283.15
283.15
295.001
283.15
293.993
289.922
303.15
294.644
283.15
282.929
285.617
293.63
283.15
293.83
294.935
295.142
303.15
283.15
294.742
294.127
295.302
283.15
283.15
303.12
283.15
294.461
294.359
294.781
295.304
283.15
303.15
283.15
283.15
283.15
286.647
303.101
283.15
287.34
290.901
283.15
290.658
293.999
303.15
303.15
283.15
283.15
289.108
295.1
290.69
292.951
303.15
286.049
294.593
301.421
291.281
283.15
283.15
294.87
283.15
283.15
293.618
295.098
283.15
291.44
283.15
283.15
283.15
283.15
283.15
287.812
293.345
294.118
283.15
283.15
283.15
283.15
283.15
283.15
292.67
283.15
283.156
283.15
283.151
283.151
293.406
283.156
303.15
298.338
286.253
283.154
283.153
292.428
283.15
300.177
290.666
298.878
281.565
303.15
293.801
283.15
284.448
298.462
293.829
295.124
295.538
283.15
294.98
298.951
283.15
295.602
301.434
283.15
289.168
292.834
283.15
301.345
303.15
284.221
300.749
302.081
283.15
283.15
303.15
283.15
283.15
303.15
295.004
283.15
283.15
283.15
290.472
283.15
282.758
292.683
283.15
283.15
283.15
296.43
303.15
283.15
283.15
283.15
303.15
283.15
283.15
283.15
293.517
283.15
283.148
283.15
283.15
283.15
283.15
283.15
303.15
294.603
290.766
303.133
301.993
301.77
283.15
283.15
283.15
288.51
295.722
283.15
283.15
283.15
283.15
295.918
293.239
295.684
302.248
297.867
303.15
295.279
303.15
283.15
289.832
283.15
283.573
302.293
302.827
289.687
283.15
290.793
282.014
283.15
283.15
303.15
290.03
283.15
283.15
295.497
302.787
285.303
291.843
287.584
303.15
303.15
298.647
283.15
291.947
283.15
283.15
303.15
283.15
283.15
302.912
294.871
283.15
283.15
299.212
283.15
283.15
285.09
286.325
285.104
283.15
290.635
303.15
284.304
283.15
290.055
283.15
283.963
293.92
303.15
284.803
285.052
291.883
285.205
294.989
295.111
283.15
283.15
283.15
285.16
284.935
302.758
292.116
293.712
291.175
283.15
284.812
283.15
283.15
300.929
283.15
283.15
283.15
291.95
292.872
299.039
290.495
291.378
283.15
292.11
283.15
283.15
283.15
289.572
283.15
283.15
295.185
299.055
294.682
283.15
303.15
283.15
303.15
283.15
290.267
294.709
290.688
283.155
283.15
291.623
283.15
283.15
283.15
283.15
283.15
289.542
293.961
283.15
283.15
283.15
302.995
294.936
283.15
289.841
288.75
283.15
301.457
303.15
283.15
283.15
283.15
283.15
286.367
283.15
303.15
290.007
283.15
283.15
281.266
289.38
291.838
282.225
283.132
290.845
283.147
283.15
303.15
283.15
303.15
283.15
283.15
283.15
295.583
291.515
291.827
283.15
303.15
283.15
283.123
283.15
303.15
286.394
283.15
291.206
303.15
292.069
283.15
283.15
291.898
290.957
293.523
283.15
292.286
295.528
303.15
283.15
283.15
285.282
283.15
292.36
283.15
292.432
283.15
289.743
291.64
291.953
296.415
283.15
283.15
283.15
283.15
303.15
282.782
283.15
283.15
290.924
290.975
283.15
283.15
291.046
291.622
283.15
283.15
291.078
283.15
283.15
292.535
283.15
292.109
291.112
291.144
283.15
297.839
285.644
283.15
283.15
291.154
291.673
302.962
295.264
283.15
290.906
292.018
291.906
291.945
295.6
283.15
283.15
291.229
283.15
290.206
289.754
283.15
283.15
286.918
283.15
283.15
283.15
303.15
292.042
294.044
283.15
283.15
283.15
283.15
283.15
283.15
288.557
284.779
283.152
283.15
283.15
303.147
293.587
292.193
283.15
291.779
291.003
283.793
301.833
291.63
283.15
283.15
284.535
288.938
283.15
283.15
283.15
283.15
283.15
287.04
283.15
295.309
293.231
283.15
291.966
283.15
283.15
283.15
283.241
283.15
286.193
283.15
283.264
295.749
290.797
297.179
285.018
286.23
290.814
283.15
283.15
291.623
283.15
283.15
283.15
283.15
292.549
291.766
283.15
303.15
296.535
283.15
283.15
283.15
293.662
283.15
283.15
283.15
283.15
297.641
289.344
283.15
303.15
283.15
297.846
297.947
283.15
283.151
295.613
297.225
295.521
283.15
296.225
283.15
282.859
283.15
290.548
300.334
283.15
291.072
283.15
303.15
297.637
287.943
283.15
283.15
283.268
297.044
294.59
294.529
283.596
283.451
283.15
286.011
283.15
296.884
293.733
298.115
283.15
283.15
290.233
295.069
303.15
283.15
296.904
283.15
298.217
295.936
283.15
293.834
296.738
283.15
283.15
294.931
294.567
283.15
283.15
283.15
283.15
289.445
283.15
283.15
294.533
294.55
297.398
283.15
293.693
290.471
294.878
295.291
295.32
283.15
284.364
298.819
283.15
288.637
297.673
301.058
283.15
302.77
283.15
283.15
283.15
283.15
283.15
283.15
283.15
283.15
298.045
283.164
292.533
288.46
283.15
282.348
283.15
283.15
283.15
283.15
303.102
298.5
303.15
283.15
284.567
288.634
283.15
282.177
283.15
283.228
283.15
283.15
291.274
294.718
296.696
283.15
295.802
283.15
283.15
283.15
283.15
283.15
283.162
283.15
283.133
283.174
303.15
283.15
283.15
283.15
283.15
291.181
283.15
291.046
283.15
294.64
283.15
283.15
285.405
283.15
283.15
283.15
299.442
295.183
291.978
283.15
283.15
295.904
303.15
295.894
283.15
283.15
289.856
283.149
283.15
283.15
283.15
283.15
284.104
283.15
290.381
283.15
283.15
291.764
294.915
289.78
291.895
283.15
290.028
283.15
283.15
283.15
283.15
283.15
283.15
283.15
294.319
296.328
296.012
283.15
294.114
295.076
283.15
296.744
303.15
283.15
295.888
291.972
283.15
283.15
293.425
283.15
295.884
283.15
283.15
293.583
283.15
283.15
283.15
283.15
303.15
283.15
283.15
283.15
295.908
297.653
283.15
296.717
290.216
294.979
295.618
283.15
291.432
290.744
286.587
292.079
283.15
289.764
283.15
296.545
295.759
288.622
290.3
283.15
283.15
297.549
291.275
290.058
296.145
296.765
283.15
295.389
285.341
293.99
283.15
283.15
283.15
283.15
283.15
291.859
283.15
283.15
283.15
303.15
283.15
283.15
294.478
303.15
283.15
296.67
294.452
291.452
291.3
291.193
295.689
283.161
303.15
303.15
283.15
295.559
283.15
284.271
291.449
302.71
298.557
283.15
295.027
302.158
297.861
294.942
295.857
293.727
283.15
295.695
283.331
290.664
287.744
294.111
283.15
283.15
303.15
283.168
294.717
300.387
294.706
303.15
303.15
283.15
293.389
294.906
283.151
283.15
292.596
283.15
293.47
283.15
298.349
283.15
294.56
295.254
302.798
283.15
293.645
302.794
283.15
283.15
302.802
283.15
294.547
295.194
296.445
295.366
295.983
295.215
283.15
283.15
303.15
295.486
296.534
292.193
283.15
283.15
297.703
283.15
284.439
283.15
295.322
283.15
287.745
291.232
290.855
283.15
303.15
284.422
288.101
283.15
303.15
294.034
294.208
295.976
293.558
289.32
303.15
303.15
293.093
283.15
295.016
293.44
293.589
294.421
293.359
303.15
303.15
284.105
294.308
295.12
303.15
293.771
296.121
303.15
282.445
292.6
283.571
283.151
294.353
283.15
283.15
294.105
303.15
293.63
289.371
283.15
283.15
283.15
283.15
294.39
301.063
303.15
297.261
302.917
283.15
301.67
287.091
291.083
295.271
297.733
297.129
289.455
289.167
283.15
283.15
288.101
283.15
303.15
283.15
300.972
283.15
294.508
293.947
294.94
283.15
302.395
289.609
294.814
294.648
283.15
283.15
303.15
283.15
286.772
283.15
283.15
283.15
294.666
283.15
304.948
283.15
295.046
283.15
295.301
283.15
287.085
294.944
303.15
283.15
283.15
283.15
290.196
283.15
300.814
301.115
283.15
295.896
299.119
302.606
293.687
283.15
283.15
302.578
287.724
300.254
291.913
283.15
295.942
295.797
295.403
293.309
295.261
303.15
286.055
298.848
295.797
283.15
283.15
297.243
283.15
299.01
293.77
283.15
293.664
284.462
303.15
293.364
303.15
292.585
283.15
294.03
292.086
283.15
285.39
283.15
303.15
294.484
291.949
288.949
292.443
293.377
303.15
303.15
284.057
284.098
283.15
303.15
283.15
283.15
284.067
283.15
303.15
283.199
283.15
283.15
283.15
285.26
283.15
283.15
284.969
303.15
283.15
283.15
303.143
303.15
297.274
290.568
283.15
297.376
296.693
292.339
303.15
283.15
283.15
296.919
282.325
296.646
283.15
303.15
283.15
303.15
296.769
284.583
283.15
291.176
297.596
283.15
302.761
297.486
295.751
297.451
291.407
297.62
283.15
283.15
297.486
297.42
288.14
303.15
283.15
291.918
287.768
283.15
287.493
286.859
285.471
283.15
291.258
283.15
300.61
285.591
297.028
303.022
283.15
303.15
294.734
283.15
299.952
303.15
303.15
293.478
283.15
300.651
283.15
283.15
303.15
292.047
283.15
303.15
285.564
283.426
283.15
283.15
302.959
303.15
297.5
293.596
283.15
289.056
292.01
283.15
283.096
303.15
283.15
303.15
283.15
303.15
283.15
297.885
297.78
296.977
297.557
294.286
283.15
286.797
283.15
283.15
292.032
298.052
294.82
296.655
283.15
301.151
283.15
303.15
283.15
297.028
296.295
303.15
303.15
283.15
288.937
287.344
294.297
289.22
289.622
303.15
303.15
283.15
283.15
287.791
303.15
299.756
303.15
287.573
303.15
303.15
303.15
291.702
290.773
299.277
303.15
292.59
292.933
303.15
291.899
287.302
282.678
293.724
283.734
295.848
291.688
290.119
283.309
293.659
290.335
303.15
303.15
285.181
288.645
292.717
283.572
283.277
283.15
289.88
283.15
283.15
295.28
291.708
294.485
287.716
285.225
293.967
303.15
292.221
284.067
290.957
293.99
300.941
283.16
292.387
283.15
283.15
298.108
290.064
283.15
283.15
283.904
286.788
283.764
283.15
284.853
290.901
284.216
303.15
294.052
290.562
288.483
292.634
303.112
303.15
283.15
284.404
294.764
300.639
284.975
285.123
298.434
294.552
284.949
282.309
294.007
303.15
287.369
283.15
283.128
285.157
303.15
297.645
283.152
283.15
303.15
284.93
300.026
303.15
283.15
289.248
295.143
296.521
297.867
283.517
303.15
285.256
289.423
283.15
283.15
293.964
283.15
303.125
283.15
303.15
294.35
283.15
292.604
283.15
283.15
283.15
300.147
298.993
285.917
283.138
299.312
283.15
299.45
303.15
283.15
283.15
296.278
285.773
283.15
283.15
288.104
287.858
283.15
283.15
283.15
283.15
296.748
303.15
293.673
283.15
303.15
288.563
283.15
283.15
288.199
303.15
296.121
283.15
303.15
296.849
302.68
290.213
283.486
286.92
288.124
303.15
283.15
303.15
283.15
283.15
285.549
283.15
283.14
291.898
283.209
303.15
288.298
288.775
287.963
294.285
288.257
294.9
289.063
286.224
303.15
287.443
291.78
283.36
303.15
300.569
283.589
289.594
303.228
303.15
299.159
283.15
290.461
303.15
283.15
290.511
283.15
297.733
297.172
290.166
295.072
303.15
303.15
290.268
290.294
283.938
295.157
283.154
283.578
303.15
283.802
290.224
303.15
283.15
283.004
283.15
290.349
299.834
303.15
290.322
303.15
303.15
283.685
283.15
283.15
283.149
303.15
293.25
283.15
303.15
303.15
291.367
283.127
290.962
303.15
283.139
283.15
290.992
290.994
300.698
283.15
290.997
303.15
294.75
294.262
303.15
303.15
303.15
283.15
283.15
291.126
291.867
303.15
283.14
291.292
303.15
303.15
303.15
283.15
283.15
283.151
283.15
283.151
290.9
283.15
296.132
303.15
283.15
290.455
290.193
290.316
294.107
283.15
283.15
285.022
284.897
283.15
283.14
283.15
303.15
283.15
283.15
283.15
283.15
303.15
283.15
294.233
303.15
285.313
283.15
293.198
283.15
290.696
283.15
297.183
283.15
296.724
295.933
283.15
283.15
283.15
283.15
283.493
283.15
283.15
298.965
283.15
287.276
283.15
304.961
284.043
283.15
300.345
283.134
283.15
291.722
303.15
294.407
296.508
295.24
283.15
301.439
296.246
283.15
298.931
293.101
302.821
297.713
300.381
283.15
285.251
294.226
289.335
294.341
295.909
297.505
283.15
296.666
283.15
283.15
294.748
283.15
283.143
299.54
283.15
288.1
283.15
283.15
297.869
293.71
283.15
283.15
292.486
283.15
295.052
283.15
293.105
298.437
283.15
300.329
292.884
294.444
283.15
293.623
298.444
291.678
283.15
284.615
283.162
283.15
291.339
283.15
303.15
292.483
297.128
298.058
301.574
283.457
292.5
283.15
283.15
283.15
283.15
303.151
285.951
283.15
283.15
283.139
283.15
283.15
283.15
301.986
283.15
283.15
303.187
293.197
283.15
283.15
299.002
283.15
302.103
302.824
294.636
283.15
283.15
283.15
283.15
283.15
293.537
283.15
283.15
283.15
295.157
302.943
285.43
288.178
283.15
298.904
293.008
283.158
283.15
291.032
283.15
283.15
295.255
283.15
302.926
293.264
283.15
291.269
298.234
302.943
283.15
292.707
283.151
298.508
284.135
294.306
288.183
289.74
283.15
294.454
289.08
294.122
283.15
289.33
302.813
283.15
283.15
289.442
283.15
283.15
294.012
299.702
283.15
294.596
283.158
283.15
283.15
293.128
283.15
295.054
287.19
298.572
299.513
289.321
283.15
283.15
294.788
295.978
283.15
283.15
283.15
298.713
285.526
283.15
283.15
283.15
283.15
283.15
296.201
288.001
296.574
283.15
292.524
283.15
299.564
303.15
293.415
283.15
283.15
296.957
283.15
299.684
283.15
283.15
283.15
283.15
299.645
283.15
283.15
301.3
283.153
283.15
293.16
287.281
283.154
289.347
286.629
303.15
286.263
301.439
283.15
283.15
283.15
283.15
283.15
301.37
287.255
290.35
292.966
283.15
283.228
295.982
283.15
283.15
298.92
291.97
290.405
290.572
283.15
303.15
298.538
293.42
294.382
295.704
295.031
301.376
283.15
301.18
295.292
293.016
292.083
303.15
283.15
300.071
295.46
295.698
291.92
302.834
286.648
295.641
293.879
292.402
296.233
295.415
283.15
291.136
292.618
295.758
294.102
283.15
283.15
283.15
296.434
296.079
295.207
296.197
294.308
295.754
294.787
283.15
291.997
295.616
295.819
296.783
300.258
297.333
297.453
297.953
301.22
283.15
303.146
283.146
290.481
283.15
283.15
301.778
303.556
295.262
303.009
303.129
291.143
283.15
292.112
283.15
290.845
283.15
300.592
283.15
291.104
303.15
283.15
293.482
283.15
301.074
295.242
283.15
302.013
294.079
289.244
302.28
286.675
295.417
291.738
292.614
294.613
300.554
302.96
293.23
289.823
289.037
294.037
295.288
294.575
295.88
283.15
283.15
283.15
294.184
294.225
295.786
291.134
283.15
283.15
283.15
283.15
283.15
290.95
294.069
292.869
292.164
283.15
293.404
294.556
283.15
283.15
283.356
286.561
302.175
291.948
299.932
296.657
294.699
283.15
295.964
303.15
283.15
283.15
283.15
295.295
296.77
295.479
294.334
298.693
288.437
283.15
283.142
283.15
291.36
291.604
283.15
283.15
292.672
283.15
296.161
297.88
300.893
295.605
294.834
283.15
283.15
283.15
295.387
292.23
295.512
294.7
289.674
283.416
295.69
300.952
296.705
283.15
303.15
292.578
295.695
291.883
294.709
283.15
283.15
283.15
283.15
290.617
283.15
283.15
283.15
292.924
283.15
295.197
283.15
295.384
290.861
283.151
293.626
283.15
283.15
292.266
283.704
283.15
295.104
295.188
283.15
283.15
295.48
283.15
283.15
296.649
296.176
283.15
297.948
283.15
293.919
283.15
293.696
287.218
285.144
296.018
293.08
296.427
295.431
294.959
299.988
292.902
296.159
295.105
296.788
295.655
293.662
283.43
283.15
283.15
283.15
283.15
303.15
294.016
289.355
283.15
283.15
292.504
283.15
283.15
299.282
283.15
283.15
293.554
283.15
283.15
291.806
283.15
300.844
286.343
287.374
293.276
283.17
293.734
283.15
283.396
283.15
283.15
283.15
291.737
295.921
283.15
283.15
283.15
284.191
288.5
283.266
294.62
283.15
283.15
303.15
283.15
293.612
283.693
283.162
292.017
283.15
283.15
283.15
303.15
287.17
291.353
293.011
283.15
283.15
292.018
283.15
291.375
290.498
283.15
283.15
294.587
293.409
291.668
294.161
293.511
291.611
283.15
283.15
283.15
303.15
283.41
283.15
283.15
290.629
283.15
295.857
283.15
292.065
285.194
292.978
289.284
295.581
291.026
293.911
302.018
294.392
293.601
283.15
294.275
293.176
296.899
283.151
300.484
291.953
301.238
283.15
297.605
283.15
294.483
283.15
283.15
283.15
293.942
295.034
292.917
283.15
293.365
283.15
283.15
292.195
283.15
283.15
283.15
283.15
283.15
283.151
299.345
293.967
286.358
283.15
283.15
291.127
283.605
294.338
294.56
283.152
291.621
283.15
283.152
291.981
293.65
289.77
283.15
283.26
283.255
283.15
283.15
283.151
290.945
283.15
302.665
290.512
283.15
296.797
283.15
285.562
287.934
298.651
303.389
296.196
283.15
283.15
283.15
298.423
283.15
290.084
283.15
283.152
286.387
285.988
283.15
283.15
283.15
283.15
283.152
283.15
283.15
283.15
293.553
293.044
294.724
294.939
283.15
283.15
292.249
293.065
283.15
283.15
283.15
283.15
283.15
283.15
283.15
283.15
283.15
303.15
303.15
283.15
291.999
295.688
293.226
283.15
283.15
297.014
283.15
291.973
283.15
283.15
291.247
290.808
283.15
290.87
283.15
283.15
283.15
295.407
295.467
283.15
291.371
290.913
283.15
283.15
303.244
283.15
303.15
283.15
283.686
283.15
296.101
283.15
283.15
283.15
283.15
291.116
289.238
291.667
283.15
303.15
282.892
283.15
301.987
284.043
303.15
283.15
300.871
294.278
283.15
291.753
292.31
283.163
283.15
303.15
303.15
283.15
283.15
296.672
283.15
295.56
294.161
294.929
293.905
283.15
296.77
283.15
283.15
300.78
303.15
303.15
297.765
293.823
294.849
294.728
283.15
283.15
300.95
292.104
283.15
291.197
291.783
303.15
283.15
283.15
283.15
291.017
283.15
300.841
283.15
283.15
283.15
294.438
292.2
283.15
283.15
292.167
283.151
283.15
296.702
301.947
302.71
293.574
295.796
283.15
293.208
291.451
292.107
300.579
283.15
283.15
291.818
290.467
290.341
290.515
291.802
290.477
283.15
303.15
297.134
283.15
283.15
295.093
291.548
297.936
283.146
283.15
283.663
283.15
283.15
283.15
283.15
283.15
283.15
292.179
294.939
303.15
295.678
284.942
292.873
297.802
298.036
283.15
292.089
283.15
298.077
283.15
296.173
283.15
283.154
298.675
283.155
294.566
298.118
294.135
296.548
293.86
283.15
283.15
296.994
283.15
283.15
291.94
283.332
286.181
283.15
283.15
291.935
291.518
291.257
283.15
295.863
292.069
283.15
291.776
283.15
283.373
299.686
291.877
294.093
286.32
291.137
290.755
292.063
293.861
283.15
283.15
292.374
283.15
283.795
283.15
283.15
290.827
283.15
296.847
283.375
296.33
294.096
295.959
297.503
295.577
287.434
297.248
293.996
295.382
283.15
283.913
297.504
283.15
283.355
283.15
283.15
290.561
294.807
283.15
283.15
283.15
283.15
290.086
291.591
283.15
283.15
283.15
283.15
291.782
283.15
283.15
283.15
295.597
298.739
283.15
302.762
301.084
303.15
283.15
284.78
283.15
295.417
293.149
295.138
283.15
290.001
283.15
302.513
283.15
298.129
290.01
294.432
292.758
300.333
283.15
288.335
300.868
287.181
290.683
290.295
283.15
283.118
285.621
289.971
282.399
293.565
283.15
283.15
296.772
286.373
284.912
291.392
302.411
283.867
283.303
297.372
303.182
283.15
286.698
294.86
290.947
283.15
283.15
283.15
284.311
286.832
294.555
292.102
289.497
290.624
293.368
283.15
283.15
283.15
283.15
300.292
283.15
283.15
283.15
294.659
300.419
290.235
283.15
283.15
298.932
283.15
283.15
283.15
283.222
283.15
297.233
283.15
285.052
297.046
283.144
291.986
291.329
298.615
283.15
292.041
290.665
283.15
283.15
283.149
291.356
293.23
282.637
291.915
287.499
292.431
303.151
293.62
283.15
293.676
285.987
291.878
291.068
290.26
297.346
286.006
283.742
293.309
284.42
283.286
283.15
283.15
293.808
292.273
284.35
293.842
283.15
289.464
297.406
287.147
291.214
291.962
283.15
295.698
283.15
296.35
288.881
283.15
293.35
296.779
292.733
303.15
287.465
295.002
285.603
293.842
285.805
283.271
296.628
287.995
293.075
303.15
286.252
283.247
288.232
285.275
285.176
290.772
285.464
288.549
291.903
294.532
295.59
283.15
289.254
294.121
283.15
293.045
294.225
293.003
293.06
293.595
288.529
299.557
288.966
288.39
287.417
292.951
286.462
302.41
283.25
295.18
292.966
283.15
294.84
291.017
291.255
283.15
283.15
295.855
283.15
292.507
291.776
283.15
283.15
283.15
302.586
296.429
286.883
293.378
283.698
294.453
283.15
303.106
283.15
292.338
283.15
289.726
292.456
292.751
283.15
284.191
284.083
299.055
283.384
283.15
289.456
293.927
290.926
293.924
300.081
292.617
299.593
291.833
299.152
299.22
302.345
302.082
299.499
299.685
299.541
289.061
293.378
290.786
291.784
292.881
288.853
293.548
294.176
290.625
292.553
285.593
292.301
283.15
291.585
290.017
290.088
291.229
301.038
284.612
299.973
301.467
289.117
283.15
283.15
283.16
290.321
299.058
290.776
283.155
283.154
283.154
283.15
283.152
283.155
293.162
283.15
283.15
283.155
290.845
283.15
290.851
283.15
283.15
283.15
283.153
292.122
297.39
283.151
291.734
283.15
283.15
283.15
295.942
283.15
283.15
283.15
283.15
283.15
290.96
283.15
283.15
283.15
301.894
302.259
293.964
283.15
301.086
304.628
283.15
302.208
302.153
283.15
283.15
283.15
283.15
302.346
294.181
283.15
283.15
302.344
283.15
283.15
283.15
283.15
283.15
283.246
283.15
303.081
283.15
296.166
283.15
283.15
283.15
283.15
283.808
283.15
290.519
283.15
293.15
283.15
283.15
291.254
283.15
299.28
283.15
283.15
283.15
287.063
301.446
283.15
301.102
291.154
300.532
283.15
301.546
283.15
298.684
283.15
290.918
290.42
296.687
298.663
297.844
294.226
283.15
293.572
300.214
283.15
291.797
298.938
283.15
283.151
283.15
284.223
299.033
287.925
299.05
291.657
292.648
283.221
295.786
283.15
283.15
283.15
296.74
289.173
295.225
283.15
297.347
283.15
283.15
298.136
297.085
291.275
291.785
297.145
290.278
287.463
297.55
298.817
303.15
283.15
285.565
283.158
304.297
291.275
287.625
296.083
283.15
296.476
283.15
286.237
294.77
297.5
283.15
292.29
283.15
283.15
292.226
285.521
291.733
301.822
283.15
296.49
286.16
297.303
283.15
289.026
283.15
301.913
283.168
295.005
294.907
288.696
295.604
300.136
283.15
283.15
283.15
283.202
299.377
296.647
283.15
283.15
290.751
283.15
294.538
292.876
303.144
295.586
295.695
290.641
299.184
290.291
293.489
303.15
293.35
283.15
283.15
283.15
286.958
294.937
292.371
293.163
283.15
291.1
283.15
283.342
287.949
283.15
294.373
291.285
292.809
289.714
283.15
298.273
295.803
300.583
291.783
283.15
293.018
294.069
284.598
296.426
297.113
292.208
296.633
293.731
296.616
297.106
300.251
295.157
294.387
290.559
283.15
283.15
303.106
303.15
283.15
295.387
290.32
283.15
283.15
303.15
303.15
293.943
294.788
283.15
295.099
295.232
287.267
295.088
294.702
295.178
295.234
295.839
289.765
291.525
283.15
298.634
283.909
293.973
293.04
283.15
302.51
290.591
283.812
283.15
294.031
283.15
283.15
283.15
292.35
283.15
293.988
291.641
283.15
302.715
283.15
283.15
298.257
295.642
303.15
288.093
297.62
300.901
283.15
283.15
295.835
295.992
293.487
292.276
283.15
294.736
292.652
283.15
291.697
296.368
292.355
293.711
297.257
293.394
297.04
293.498
292.399
283.15
283.15
283.15
283.158
295.569
295.034
293.493
300.81
295.225
283.15
283.15
283.15
293.376
293.27
283.15
292.256
289.486
283.15
283.164
303.15
283.15
293.55
294.244
294.707
283.15
283.15
302.454
295.144
297.431
289.866
289.799
283.15
283.15
283.15
283.15
294.152
290.412
283.15
293.29
293.341
292.915
293.005
283.15
293.353
283.15
294.262
295.603
285.174
291.733
283.236
293.112
292.318
283.15
295.974
295.666
295.903
295.667
295.002
295.665
293.417
295.395
295.333
290.224
292.136
291.501
295.212
283.15
294.781
283.15
302.968
294.683
295.688
296.878
285.488
295.171
290.263
285.423
283.15
290.27
293.732
283.27
282.851
283.15
295.035
283.15
292.885
300.069
297.321
283.146
297.867
283.15
300.962
290.299
293.523
283.15
293.578
301.329
296.123
283.152
291.779
295.249
293.154
283.15
294.467
288.407
293.591
293.081
295.623
292.576
283.15
285.147
283.15
293.674
291.949
295.034
292.806
290.913
283.15
283.15
291.121
283.15
290.42
289.474
292.984
296.969
283.15
297.63
286.654
283.15
299.372
290.193
283.15
303.201
283.15
283.15
283.15
294.551
283.15
283.15
289.773
283.15
283.15
291.253
292.63
290.82
291.366
287.302
290.1
297.477
295.796
283.15
297.285
283.595
283.15
288.658
303.15
297.601
283.537
292.284
292.751
294.257
293.108
291.409
283.15
298.151
290.128
303.15
290.131
289.598
287.553
289.975
289.548
291.988
286.346
303.15
283.15
289.722
286.579
283.15
283.15
283.15
283.152
289.995
296.715
283.15
283.15
292.815
283.15
283.15
301.587
283.15
288.658
283.15
293.504
296.617
292.536
294.979
283.15
300.9
283.15
283.15
293.696
283.15
283.15
286.228
295.417
293.769
295.888
283.15
283.172
283.15
302.449
283.15
283.15
295.442
303.114
283.15
294.446
283.15
293.815
296.742
289.412
283.15
288.388
283.15
295.696
283.15
293.879
295.7
293.973
296.631
283.15
283.15
283.15
283.15
303.15
283.15
283.15
283.15
283.15
290.818
283.15
283.15
283.15
287.504
283.185
283.15
290.915
283.15
293.68
290.309
291.072
283.15
293.455
283.15
283.15
283.15
283.15
283.15
283.15
283.15
290.646
283.15
283.15
293.124
290.669
292.371
298.845
290.599
283.15
296.543
283.15
283.15
296.894
297.081
296.911
283.15
283.15
287.175
292.273
283.15
283.15
297.211
287.572
301.635
283.15
286.587
293.772
293.101
283.15
287.858
287.864
283.15
287.872
283.15
293.581
287.027
294.355
288.456
295.19
283.15
292.01
283.15
283.15
283.15
283.15
283.15
283.15
290.048
296.737
283.15
283.15
283.15
292.99
283.15
290.955
296.124
292.196
291.741
283.15
284.582
285.167
291.631
291
286.699
287.816
288.538
291.265
291.32
297.694
283.971
283.763
294.44
300.988
285.032
295.932
294.449
285.061
284.942
293.018
287.963
290.686
291.434
296.452
283.15
283.15
291.197
293.42
297.51
285.028
283.15
291.135
295.809
296.94
289.222
291.891
293.933
300.241
293.378
301.682
294.031
286.146
286.098
293.821
283.15
293.931
291.097
283.15
284.088
291.124
293.644
292.67
293.805
283.15
283.15
283.15
283.15
283.15
286.925
283.152
283.71
288.111
283.15
283.16
283.15
284.782
283.187
283.15
283.15
293.181
293.97
288.731
283.15
283.15
293.755
293.193
283.15
301.231
283.575
283.15
288.407
283.15
283.15
288.453
283.15
283.15
293.873
283.15
283.15
283.15
283.15
283.15
293.691
283.15
283.15
283.15
283.15
286.961
283.15
283.15
293.182
283.15
283.15
293.967
283.15
294.092
283.15
283.15
283.15
283.15
293.226
283.763
293.187
293.88
283.834
287.001
283.726
283.15
294.578
283.257
294.02
283.195
294.466
283.15
290.614
283.189
289.014
292.171
294.142
293.758
294.204
283.15
302.496
290.217
295.232
297.196
283.15
295.384
283.15
283.15
283.15
283.264
283.15
295.691
283.15
291.749
296.671
283.15
290.917
298.88
292.078
291.805
290.553
290.81
290.782
283.15
283.15
283.15
283.15
283.15
283.15
283.15
283.15
283.15
283.15
283.15
283.15
283.15
283.15
283.155
283.15
283.15
283.15
292.496
283.15
285.57
283.15
292.426
283.15
283.15
283.15
283.15
295.007
283.15
283.15
294.629
294.105
283.15
290.213
283.15
283.15
283.15
283.15
283.15
284.883
283.15
283.15
283.15
283.15
283.724
283.15
283.23
283.216
284.916
283.15
283.92
283.247
283.745
283.216
283.214
283.15
284.998
290.099
283.15
283.15
283.626
293.567
283.226
292.509
283.219
283.225
285.223
283.15
283.15
283.15
285.299
283.15
289.57
285.503
285.343
290.978
283.154
283.154
283.15
294.122
294.044
294.341
283.15
290.28
283.15
283.153
283.15
285.92
294.14
293.391
283.15
294.289
293.889
283.15
283.15
294.036
283.15
290.607
283.15
283.15
283.154
294.355
283.15
284.555
283.15
283.15
283.15
283.15
283.15
290.626
293.97
283.15
289.991
283.15
283.15
283.15
283.15
288.736
286.142
289.233
301.694
295.522
289.027
283.15
283.15
296.053
283.15
292.97
290.262
283.15
289.024
283.15
291.68
283.358
296.348
288.942
303.15
283.15
283.15
293.608
288.741
295.6
291.086
283.15
290.807
290.979
300.444
283.209
290.838
295.201
283.15
283.15
283.15
290.604
294.362
283.15
292.389
283.15
291.426
283.15
289.683
291.987
293.939
283.15
284.902
289.159
291.539
283.15
291.371
283.15
283.15
283.15
283.15
285.766
287.987
283.15
293.689
283.15
285.376
303.15
283.15
284.658
296.838
303.15
288.267
283.15
294.034
283.15
290.411
291.728
283.15
288.985
283.15
283.15
285.252
295.334
283.15
283.15
293.232
283.15
283.15
293.543
294.197
283.15
293.548
283.15
293.839
299.042
292.603
292.027
283.162
294.899
283.15
283.15
286.517
283.15
283.171
283.15
303.15
283.15
283.15
283.195
283.15
283.15
283.15
291.238
283.15
283.15
283.15
283.15
283.15
294.737
283.15
283.15
285.459
283.15
291.785
283.15
293.559
283.15
283.15
294.336
283.15
293.976
283.15
283.158
283.157
283.167
283.15
283.15
283.15
292.324
283.152
283.15
288.341
298.862
283.152
283.153
283.15
283.151
283.15
283.15
283.15
295.294
283.158
283.15
284.674
284.937
283.15
283.15
283.15
283.15
283.15
289.49
283.15
283.15
283.15
283.15
283.15
283.15
283.15
294.03
286.457
302.573
293.966
283.15
286.064
294.636
286.435
284.457
283.15
285.118
292.453
294.123
294.1
283.15
292.92
283.15
283.15
283.15
283.15
283.15
283.15
294.549
286.73
286.914
283.15
294.758
292.431
283.15
283.15
290.496
290.559
294.348
283.15
292.254
290.919
283.317
283.15
283.15
296.237
283.15
292.074
294.473
283.15
286.247
283.15
295.043
293.687
286.213
286.874
283.15
283.15
286.754
286.644
295.67
283.15
283.15
283.15
294.47
294.859
295.614
286.233
283.15
295.668
283.15
283.15
295.199
292.483
290.627
292.682
294.022
292.222
294.377
294.435
295.218
283.15
293.757
291.792
283.15
295.975
293.044
294.002
296.332
294.556
283.188
293.685
283.15
294.573
283.15
295.065
289.504
295.54
290.588
295.284
283.15
283.15
284.247
295.584
283.15
295.355
302.651
295.329
295.135
283.15
291.582
293.678
293.587