/*--------------------------------*- C++ -*----------------------------------*\
  =========                 |
  \\      /  F ield         | OpenFOAM: The Open Source CFD Toolbox
   \\    /   O peration     | Website:  https://openfoam.org
    \\  /    A nd           | Version:  10
     \\/     M anipulation  |
\*---------------------------------------------------------------------------*/
FoamFile
{
    format      ascii;
    class       volVectorField;
    location    "41";
    object      U;
}
// * * * * * * * * * * * * * * * * * * * * * * * * * * * * * * * * * * * * * //

dimensions      [0 1 -1 0 0 0 0];

internalField   nonuniform List<vector> 
59698
(
(0.584676 0.00592525 -0.00172251)
(0.564656 -0.00115187 -0.000863901)
(0.56641 -0.000684286 0.00169778)
(0.578771 -0.00342377 -0.0012704)
(0.563011 0.000789105 -0.00295805)
(0.197726 0.198051 -0.0063482)
(0.566923 0.000235723 0.000405931)
(0.564019 0.000855438 -0.000297284)
(0.19988 -0.199527 -0.000424141)
(0.201229 -0.200788 -1.5002e-05)
(0.200369 -0.198722 -0.000624823)
(0.566994 -0.000281998 -0.000397391)
(0.199806 0.200486 -0.000570928)
(0.56162 -0.000755717 -0.000205529)
(0.562081 0.00112639 -0.00259109)
(0.203976 -0.197101 0.00179979)
(0.564668 0.000134496 0.000200633)
(0.566119 -0.00125437 0.000387668)
(0.567581 -0.000543356 0.000311737)
(0.567345 -0.000368281 -7.97671e-05)
(0.142901 -0.0998441 -0.0248949)
(0.536216 -0.00144673 -0.00280641)
(0.264928 -0.172511 -0.00682495)
(0.198824 -0.199921 -0.00136795)
(0.570339 0.000565667 0.00111879)
(0.566271 -0.00114852 0.000436008)
(0.566461 -0.000344806 -0.000422637)
(0.557297 -0.000198387 -0.00122141)
(0.570304 0.00143237 0.000894347)
(0.572442 -0.00046839 0.000441381)
(0.548136 -0.000336414 -0.000376408)
(0.198534 -0.198564 -0.000168932)
(0.201143 -0.197945 0.00226387)
(0.559761 0.00123008 -0.000849693)
(0.549116 0.0114984 -0.00755478)
(0.566752 -0.000893569 -0.00039365)
(0.274969 0.0656947 -0.0385321)
(0.53952 0.000722345 0.000144493)
(0.561729 0.000131488 0.000571027)
(0.568098 0.00146842 -0.00273454)
(0.563898 0.000429139 -8.38417e-05)
(0.1949 0.197809 -0.00173743)
(0.562376 0.000581654 -0.000597701)
(0.563709 0.000442754 0.000108807)
(0.196728 0.199572 -0.000252654)
(0.560904 0.00366326 0.00513754)
(0.567024 -0.000871764 0.000374812)
(0.561581 -0.000324091 0.0014854)
(0.562932 0.000328697 0.00087687)
(0.565415 -0.000674795 0.00021699)
(0.567926 0.000157274 -0.000168412)
(0.566879 -0.000873955 0.000352203)
(0.566501 -8.99592e-05 -0.000789966)
(0.560473 -0.00016313 0.000448942)
(0.572422 0.00289338 0.0010195)
(0.567373 -0.000509336 -0.000134958)
(0.562755 -0.000990638 0.000605037)
(0.524704 -0.0018984 -0.000283282)
(0.564641 -0.00078692 -0.000387242)
(0.268472 0.121116 -0.0194103)
(0.559159 0.00459442 -0.00252846)
(0.564615 0.00134739 0.000528236)
(0.577819 0.0147613 0.00651325)
(0.567528 -0.000586375 0.000386008)
(0.561817 0.000252288 0.000711516)
(0.561414 0.000188603 0.00207556)
(0.199519 -0.199945 -1.27478e-05)
(0.567125 -0.00053619 -0.000626956)
(0.566973 -0.000441382 -0.000628658)
(0.199516 -0.19921 -7.82594e-05)
(0.209074 0.182289 -0.007861)
(0.565284 -0.000727472 1.66281e-05)
(0.166609 0.118606 -0.0341623)
(0.59382 -0.0105949 0.0192371)
(0.202915 0.20354 -0.000369941)
(0.589689 -0.0253279 0.0205935)
(0.56117 0.000256714 0.000986143)
(0.561032 0.000247954 -0.00162849)
(0.566859 0.000817714 -0.000636003)
(0.571496 0.00156567 0.000123079)
(0.552678 -0.00186246 -4.47538e-05)
(0.56792 0.000240045 -0.000122575)
(0.20125 -0.200755 -6.35977e-05)
(0.565154 -0.00071522 0.000599385)
(0.399821 -0.103749 0.0148246)
(0.562832 0.000190994 -9.84966e-05)
(0.563157 -0.00122784 0.00162172)
(0.557755 0.000485923 0.00714799)
(0.561912 0.00136492 0.00097706)
(0.560512 -0.000172962 0.00158271)
(0.199534 -0.199175 -0.000162969)
(0.560433 0.000899646 0.000574318)
(0.560787 -0.000525688 0.00164794)
(0.56588 -0.000332211 0.000396518)
(0.56158 0.00116912 0.000982216)
(0.563517 -0.00366403 0.00130413)
(0.558556 0.000672364 0.00121647)
(0.562286 0.000485854 0.000549403)
(0.559166 0.000638599 0.00122186)
(0.199679 0.200038 -3.46088e-06)
(0.556309 0.00152548 0.000830009)
(0.567496 0.00520274 0.00622446)
(0.562978 1.59712e-05 0.000222341)
(0.563017 -0.00164809 -0.00446743)
(0.567108 -0.000556752 0.00084068)
(0.198838 0.198575 0.000131416)
(0.565488 -0.000997999 0.00059313)
(0.567226 -0.000349649 -0.000406687)
(0.200747 -0.200892 -6.21691e-05)
(0.199793 0.199689 -0.000370605)
(0.56632 -0.000767924 -0.000342932)
(0.570379 -0.0104757 -5.15917e-06)
(0.561712 0.00138298 0.00155562)
(0.200897 0.198779 -0.000337801)
(0.561015 -0.000187693 0.000281659)
(0.567387 -3.3126e-05 0.000156585)
(0.567087 0.00133578 -0.00135846)
(0.565098 0.00305398 0.000756998)
(0.563602 -0.000865798 0.00208872)
(0.200899 -0.200442 0.00044176)
(0.565588 -7.07734e-05 -2.31937e-05)
(0.558238 -0.00637519 -0.00375638)
(0.563059 -0.00504783 0.00580613)
(0.564463 -7.52447e-05 0.000120514)
(0.564018 0.000124801 0.000207312)
(0.565983 -0.000320317 -0.000138543)
(0.565953 -8.99587e-05 -0.000526728)
(0.199563 -0.199511 0.0004848)
(0.561983 -0.000618496 -0.000189759)
(0.567493 0.000315789 -0.00199466)
(0.567363 0.000340396 0.000568875)
(0.567173 -0.000182483 -0.00107748)
(0.2014 -0.200547 -1.36908e-05)
(0.5793 0.00682486 0.000450747)
(0.572786 -0.000144297 0.00015872)
(0.56849 -0.000189185 -0.000181662)
(0.569757 0.00383192 -0.00109019)
(0.201034 -0.200694 0.000300158)
(0.567378 -0.000340649 -0.000267304)
(0.568537 -1.07494e-05 -0.000361505)
(0.56535 -0.000260379 0.000879578)
(0.562662 0.00317402 -0.00103106)
(0.566088 -0.000851269 -0.000463411)
(0.5674 -0.000332561 -0.000308801)
(0.56599 0.00220365 -0.000455053)
(0.567413 -0.000272552 2.02997e-05)
(0.563604 -0.00396089 0.000304621)
(0.566457 -0.00373069 -0.000529385)
(0.562337 0.000376617 0.00090751)
(0.552302 -0.000195673 8.35223e-05)
(0.40859 0.14421 0.0731378)
(0.200198 -0.199653 0.000118936)
(0.562139 -0.0001067 7.80611e-05)
(0.55667 -0.00217554 -0.00379679)
(0.563073 -0.000269954 -0.000169766)
(0.560675 0.000201025 -0.000464051)
(0.566512 -0.00103374 -0.000272218)
(0.558871 -0.000965107 0.00305775)
(0.563546 -0.000289812 -0.000357828)
(0.199707 0.199541 -0.000112358)
(0.564885 0.000102606 0.000174501)
(0.56279 -0.000380471 0.000248806)
(0.567892 -0.000621869 -0.000237615)
(0.554706 0.00186354 -0.00112334)
(0.562863 -0.000523595 -0.000207254)
(0.566832 -3.63897e-05 -0.000236571)
(0.567005 -0.000195023 -0.00067942)
(0.412164 0.0869494 0.00612053)
(0.554764 -0.00055073 -0.000401138)
(0.567024 -0.000129465 -0.000502441)
(0.55931 0.00177541 -0.00252987)
(0.211024 0.173808 0.000848148)
(0.553132 0.00140036 -0.0021665)
(0.552665 0.00130224 -0.00209233)
(0.578344 0.0013461 -0.00550871)
(0.562495 0.000272745 0.000353603)
(0.199574 -0.198907 0.000796502)
(0.53842 0.00499149 0.0029782)
(0.198955 -0.197824 -0.00579347)
(0.562012 0.000593167 -0.000501785)
(0.510539 -0.00192449 0.00530121)
(0.548397 -0.000516089 -0.000532776)
(0.562681 0.000416215 -0.000997825)
(0.565434 9.58875e-06 -0.000260417)
(0.564583 0.000577128 -0.0008268)
(0.5436 -0.00030062 -0.000320015)
(0.543531 6.25684e-05 -0.00093179)
(0.559582 0.00373934 0.00123436)
(0.566612 -5.4029e-05 0.000159614)
(0.563911 0.00152071 0.000729773)
(0.561608 0.000223444 0.000715305)
(0.562587 -0.000313431 0.000615394)
(0.562827 0.000550339 0.000497068)
(0.561858 -0.000388525 -0.000505122)
(0.554588 0.000275206 -0.000446873)
(0.557351 0.00327905 0.000802294)
(0.576426 0.00617758 -0.0138854)
(0.575779 0.00377445 -0.00219049)
(0.152155 -0.144077 -0.0196147)
(0.55422 -0.000541814 9.50432e-05)
(0.203042 0.205888 0.0027156)
(0.545971 0.000571513 0.000906126)
(0.573206 0.000377982 0.000273935)
(0.566611 -0.000379839 -0.000480664)
(0.552874 0.000959264 0.00112673)
(0.566788 0.000156588 0.000158621)
(0.563927 0.000387031 -0.000760519)
(0.557131 -0.00209296 0.00125845)
(0.554556 0.0115113 0.00047376)
(0.562344 0.000308769 -0.000203954)
(0.566011 0.000201603 0.000204294)
(0.564884 0.000211924 0.000469218)
(0.554734 0.000438565 0.00221158)
(0.199002 -0.197043 -0.00110197)
(0.565289 -0.000284591 -0.000194916)
(0.560081 0.000609996 -0.000134633)
(0.566198 -0.00076728 5.75774e-05)
(0.560973 -0.00061922 -0.00185677)
(0.561533 -0.000680105 -0.000170426)
(0.564924 0.000507849 -0.000597256)
(0.581993 0.0241726 0.0226936)
(0.563826 -0.00026313 0.000344485)
(0.564985 4.67719e-05 9.28588e-05)
(0.556992 0.000938198 0.00287884)
(0.565095 -0.000396867 -0.000236633)
(0.553673 0.00260855 0.00294642)
(0.564356 5.32481e-05 -7.48107e-05)
(0.566049 0.00058471 -0.000491595)
(0.578 0.00283771 -0.000879616)
(0.593454 0.0121488 0.00959207)
(0.199023 0.198602 -0.000392212)
(0.563329 1.21836e-05 0.000453153)
(0.56571 0.000394555 9.31809e-05)
(0.564458 0.000123115 -0.000359365)
(0.563541 -0.000549002 0.000486485)
(0.567914 -0.000482608 -2.34703e-05)
(0.565012 0.00161566 0.00153395)
(0.564077 0.000345305 0.000168785)
(0.558618 0.00137068 0.00348587)
(0.562145 -0.000907386 0.00048893)
(0.564767 -0.000221267 -8.09533e-05)
(0.563769 -0.00122268 -0.000498384)
(0.570474 5.85991e-05 -6.43134e-05)
(0.197427 -0.19788 0.0033443)
(0.566671 -0.000288333 -5.32367e-05)
(0.564166 0.000288495 0.00389533)
(0.582369 0.00509605 0.0161949)
(0.591501 -0.00718004 0.0129344)
(0.566259 2.99426e-05 0.000156399)
(0.566964 -0.000823682 0.000427395)
(0.561346 0.00106286 0.00400806)
(0.562575 -0.000467851 0.0004372)
(0.563405 0.00102288 0.000873014)
(0.198216 -0.193516 0.00312016)
(0.566492 -0.00138073 -9.04838e-05)
(0.563351 0.000349304 0.000413786)
(0.560513 0.00209545 0.000591943)
(0.561255 -0.000662118 0.000602427)
(0.565985 -0.000496125 -0.000126009)
(0.564967 -0.000163452 -3.61282e-05)
(0.197609 -0.108353 -0.000799004)
(0.200409 0.200039 0.000142337)
(0.563526 -0.000937406 0.000581174)
(0.559879 0.000577431 -0.00117067)
(0.558101 -0.00147427 0.00230109)
(0.586976 0.007469 0.00249383)
(0.56535 5.31583e-05 -5.94511e-05)
(0.196916 -0.198434 -0.00166084)
(0.565522 -0.00116881 0.000404904)
(0.564886 -0.000180214 -0.000152567)
(0.566669 -0.00096217 -9.65226e-05)
(0.563114 -0.00127736 -0.000744245)
(0.545937 -0.118403 0.0772768)
(0.56475 -0.000121615 -0.000243497)
(0.565054 -0.000278925 5.25564e-05)
(0.557608 0.000375635 0.00140904)
(0.564885 -0.00164605 -0.0037399)
(0.564282 -0.000620743 0.00149923)
(0.570062 0.000255317 0.000195358)
(0.200814 -0.200143 0.000136812)
(0.195988 -0.195355 0.00168646)
(0.567466 8.86503e-06 -2.5902e-05)
(0.566988 -0.000901757 0.000494112)
(0.581558 0.00205744 0.00127132)
(0.587068 0.00640746 0.000911342)
(0.577918 -0.00116599 0.00145384)
(0.566053 -0.000289869 -0.000688817)
(0.299241 -0.213238 -0.0187767)
(0.574311 0.00133464 0.000513544)
(0.563431 0.00229091 0.00300699)
(0.586129 0.0175898 0.000994908)
(0.567497 0.000353705 0.000316975)
(0.565338 -0.000868757 0.000551879)
(0.56698 -0.00100978 0.000172329)
(0.569819 -0.0010755 0.000833963)
(0.560571 -0.0015041 0.000731199)
(0.568318 -0.000256267 -0.000622551)
(0.568039 0.00157144 -0.000608715)
(0.565015 -1.60795e-05 -0.000153192)
(0.562984 0.00119641 0.00366769)
(0.566214 0.00163593 -6.152e-05)
(0.198724 0.198916 -0.000102154)
(0.195968 0.197806 0.00149909)
(0.56713 -0.00016981 -0.000392578)
(0.567222 -0.000489088 -0.000170192)
(0.567025 -0.000189894 -0.000281515)
(0.569026 0.000314858 -0.00147466)
(0.560499 -0.0011187 -0.000320895)
(0.56232 -0.000376711 0.000257001)
(0.567255 -0.000116261 -0.000232193)
(0.565201 7.3666e-05 0.000157358)
(0.563346 -0.00203913 0.000539635)
(0.56609 0.000371072 0.000114895)
(0.200736 0.200934 0.00131613)
(0.561473 -0.00326933 0.001682)
(0.56693 0.000691795 -0.000101037)
(0.202035 0.202597 -0.000457703)
(0.566735 -0.000207496 0.000183178)
(0.195215 0.197029 -0.00207476)
(0.565266 0.00249587 -0.00204217)
(0.562532 0.003038 -0.00304864)
(0.594693 -0.00991644 0.0181638)
(0.564553 -0.000555952 8.34992e-05)
(0.199744 -0.199403 0.000632358)
(0.600415 -0.0129145 0.018443)
(0.555737 -0.000167164 0.000677076)
(0.564233 -6.50115e-06 -0.000330902)
(0.566684 -0.000327677 0.000455371)
(0.567176 0.000551101 -0.000200972)
(0.199172 0.199228 -0.000186284)
(0.548337 -0.000127176 -0.00207117)
(0.564063 -0.000934062 0.000318816)
(0.55893 0.000231399 -0.00067883)
(0.58245 -0.0108663 0.0167032)
(0.199616 -0.199996 -0.00018162)
(0.567466 0.000539531 0.000618216)
(0.562784 -0.00062079 0.000164527)
(0.56641 -6.48884e-05 0.000227319)
(0.557067 -0.00123117 -0.000421446)
(0.567955 0.000258713 -0.00013213)
(0.563854 0.00125368 0.000963414)
(0.56679 0.0025893 -0.00169576)
(0.564934 -0.000392665 0.000193963)
(0.565444 7.24133e-05 2.97827e-05)
(0.557784 0.000820327 -0.00117736)
(0.564896 -0.00017647 -0.000135932)
(0.564367 0.000211224 -7.02265e-05)
(0.540925 0.0012571 -0.00103725)
(0.562797 5.98181e-05 -0.000227801)
(0.562772 0.000130417 0.000276132)
(0.567645 0.000157411 0.000118637)
(0.561926 -0.00101343 0.000702333)
(0.569817 -0.0031742 -0.00102174)
(0.199482 -0.199202 -0.000145805)
(0.590184 0.00278311 0.00631126)
(0.546933 0.000638471 -0.000845633)
(0.554158 0.00244274 -0.00695672)
(0.564773 -0.000157544 0.000126369)
(0.562213 0.000371033 0.000747734)
(0.199412 -0.199035 2.99663e-05)
(0.566523 0.00109586 -0.000553704)
(0.559171 -0.000273834 0.00065493)
(0.203242 -0.194653 0.000342084)
(0.565668 -5.45606e-05 0.000274298)
(0.199991 0.200037 -5.11777e-05)
(0.196477 0.201287 0.000519364)
(0.563184 -6.29857e-05 8.88381e-05)
(0.564634 -0.000682543 0.00118505)
(0.564509 -0.000418259 0.000180073)
(0.490942 -0.00576471 0.0026724)
(0.56783 0.000230175 0.000294727)
(0.19799 0.198556 0.000298517)
(0.565994 0.000187448 -0.000323284)
(0.197308 0.199024 0.00130121)
(0.56293 7.7923e-05 -0.000557568)
(0.200085 -0.200253 -1.3307e-05)
(0.564332 -0.000398505 0.000391072)
(0.565276 0.000224034 7.05996e-06)
(0.198899 0.198356 -1.16834e-05)
(0.199021 -0.199212 0.000129381)
(0.201361 0.198084 -0.00338401)
(0.563081 -7.12582e-05 -0.000270905)
(0.565783 0.00134812 0.000394802)
(0.560205 0.000766412 -0.000374997)
(0.566726 -0.000261269 -2.97864e-06)
(0.277642 0.142035 -0.00528262)
(0.563279 -0.000411763 0.000944148)
(0.199301 0.199501 2.96909e-05)
(0.19958 0.200005 -6.54143e-05)
(0.564883 0.0025902 0.000939879)
(0.560065 -0.000468542 5.3483e-05)
(0.199364 -0.196652 0.000739581)
(0.56376 0.000312426 0.00116824)
(0.574346 0.000242569 -4.66468e-06)
(0.379719 -0.147337 0.0155577)
(0.526816 -0.00159385 -0.000367097)
(0.551597 0.0162566 -0.0118463)
(0.56249 0.00264042 0.00162655)
(0.561073 -0.000249212 -0.0024972)
(0.563522 -0.00168509 0.00131319)
(0.562499 0.000477633 -0.000495162)
(0.563748 0.0001245 -0.000174997)
(0.565021 -1.49996e-05 -0.000428382)
(0.5647 -0.000535439 -0.000534417)
(0.553208 -0.00289738 -0.000621474)
(0.560779 0.00448975 0.000713852)
(0.575977 0.00424839 -0.00286483)
(0.581609 0.00303426 -0.00077103)
(0.564361 0.000352457 -0.00135596)
(0.530807 0.000418135 -0.00304329)
(0.571628 0.00242329 -0.00165721)
(0.198922 -0.199129 1.72545e-06)
(0.560191 0.000616896 -0.00129641)
(0.199601 -0.199554 0.000197242)
(0.561401 -5.04182e-05 0.000220762)
(0.584075 0.00152472 0.00226863)
(0.567121 1.01182e-05 -0.000124653)
(0.567412 -0.0276853 0.0127294)
(0.532957 -0.00246052 0.0009146)
(0.53521 -1.33898e-05 -0.00640818)
(0.561631 -0.00053422 0.000232444)
(0.563002 -0.000253992 0.000700822)
(0.563951 0.00124013 0.00236944)
(0.587874 0.0129946 0.0120733)
(0.563688 -3.32601e-05 7.88635e-05)
(0.564002 -0.000241079 0.000161846)
(0.200002 -0.199864 0.000343333)
(0.561638 -7.51293e-05 -0.000224568)
(0.558137 -0.00162027 1.41937e-05)
(0.199438 0.199208 -3.95033e-05)
(0.564305 -0.00147173 0.000760878)
(0.575406 0.0178203 0.00860379)
(0.572384 -0.00458553 0.00665024)
(0.564999 7.67668e-05 -0.0013532)
(0.561282 -0.000269228 0.00151589)
(0.200481 -0.200425 -0.00091606)
(0.205312 -0.20225 0.000306982)
(0.573891 0.00549561 -0.00122528)
(0.565849 -0.000371389 -0.00049729)
(0.563239 -0.00104144 -0.0040239)
(0.202961 0.200382 -0.00178362)
(0.565204 -0.000610134 -0.000386169)
(0.200616 -0.199904 0.000293482)
(0.562066 -0.000444768 -0.000183015)
(0.563746 -0.000806671 -0.00100687)
(0.516682 -0.00739896 -0.0033805)
(0.580697 -0.00165464 0.00291851)
(0.200022 0.199741 -4.23275e-05)
(0.565444 -0.00103877 0.000609777)
(0.554035 -0.000118722 0.000339003)
(0.562424 -9.10468e-05 -0.00190643)
(0.566141 -0.000689854 -0.000190367)
(0.563954 0.00100337 -0.000933424)
(0.565164 -0.00126542 -0.000156686)
(0.562716 0.00163434 0.000113312)
(0.562342 0.000225614 -6.32355e-06)
(0.580679 0.00141468 0.00230356)
(0.199645 -0.199553 0.000249733)
(0.546957 0.000437765 -0.00027689)
(0.561617 -0.000217659 0.00109401)
(0.577637 -0.00114341 0.00146904)
(0.564678 -0.000141727 -7.33904e-05)
(0.555148 -0.0014879 0.00161853)
(0.576996 6.26669e-05 0.000594421)
(0.2005 -0.199437 -0.000184884)
(0.560199 0.00512865 0.00196459)
(0.559693 0.00733698 0.00688835)
(0.567505 -0.000217955 -0.000146104)
(0.563813 0.000642946 -0.000607855)
(0.565741 0.000160395 6.04147e-06)
(0.560564 -0.00508396 -5.25502e-05)
(0.198388 0.198595 -0.00030469)
(0.199869 0.199794 2.63363e-06)
(0.198964 0.1998 2.51951e-05)
(0.563826 0.0021373 0.00289176)
(0.554075 -0.0031015 -0.00801707)
(0.504367 -0.00179592 0.000831784)
(0.57711 0.00104766 0.000578678)
(0.566686 -0.00296203 0.000958753)
(0.562947 -0.000507282 0.00067597)
(0.563177 0.000705436 -4.97988e-05)
(0.560062 0.000128793 0.000580035)
(0.563532 -0.000168278 0.000177246)
(0.202956 0.198904 -0.000350395)
(0.555919 -0.00673748 1.81679e-05)
(0.562531 -0.000555918 -0.000113537)
(0.560115 0.000892099 0.00129953)
(0.562621 -0.000549392 0.000547988)
(0.571971 0.000492349 0.000482924)
(0.567419 0.00077764 9.99759e-05)
(0.560649 0.000775904 -0.000879954)
(0.590324 -0.00131568 0.00684617)
(0.574148 0.000915532 0.000248979)
(0.559958 -0.00055281 -0.00130396)
(0.571362 0.000333059 -0.000111866)
(0.559749 0.000807681 0.00145965)
(0.562188 -2.35319e-05 -0.00015697)
(0.556181 0.00348711 0.00266535)
(0.566546 -0.000213507 -0.000460091)
(0.197299 0.196543 0.000418568)
(0.198805 0.198751 -9.77863e-05)
(0.573659 -0.00183209 0.000791942)
(0.557051 0.000335653 0.000315931)
(0.566082 7.33824e-05 0.000488537)
(0.199187 0.200506 0.000238446)
(0.20001 -0.199959 -0.000256175)
(0.562842 -0.000757804 -0.000132121)
(0.200485 -0.200707 -8.08102e-06)
(0.564092 0.000284087 -7.63815e-06)
(0.56727 -1.68144e-05 -1.9342e-05)
(0.565725 -0.000248659 0.000112572)
(0.570641 0.000212861 0.000271027)
(0.561082 -0.00425909 -0.00144568)
(0.197936 0.200093 0.00148548)
(0.56806 -0.000718712 5.23915e-05)
(0.564762 -0.000195228 -1.404e-05)
(0.198155 0.198359 0.000184487)
(0.563525 0.000321182 0.000485391)
(0.198279 0.2002 0.000328806)
(0.197313 0.196194 9.55633e-05)
(0.566804 0.000231282 -0.000500187)
(0.567467 0.000658414 -0.000131192)
(0.564261 -5.94483e-05 4.64783e-05)
(0.199171 0.198915 -0.000636638)
(0.199053 0.199096 0.000120406)
(0.486572 -0.000434637 -0.000881417)
(0.565738 -0.000502173 0.000991752)
(0.566091 8.6937e-05 -0.000244982)
(0.567074 -0.000400265 -0.000363235)
(0.564097 0.000507472 -0.000723965)
(0.565905 0.00023925 -0.000459027)
(0.563279 0.0205395 -0.0143937)
(0.199761 -0.200313 -0.00023531)
(0.564273 -0.000487619 -5.2083e-05)
(0.560922 1.86842e-05 0.000177543)
(0.199429 0.199453 -4.01949e-05)
(0.200328 0.19868 -0.000271681)
(0.557016 -0.000211356 0.000173895)
(0.563759 -0.000374012 1.22693e-05)
(0.198436 -0.198835 0.000601284)
(0.566663 -0.000299708 -7.98512e-05)
(0.564922 0.000185382 -0.000146026)
(0.564957 -2.67465e-05 -0.00106209)
(0.590491 0.0428562 -0.0160391)
(0.563175 0.00047744 8.27359e-05)
(0.568914 -0.000437696 -3.01037e-05)
(0.55902 0.0242427 -0.00306719)
(0.637458 0.129724 -0.0578077)
(0.566483 1.3404e-05 0.000115085)
(0.255568 0.159894 -0.00776435)
(0.561745 0.000570215 -0.000143193)
(0.200366 -0.199998 -5.62596e-06)
(0.558206 9.95339e-05 0.000968579)
(0.199712 -0.19953 0.000628273)
(0.565369 0.00013071 -0.000489929)
(0.563718 0.000439035 -0.000426917)
(0.199498 0.200291 -0.000229896)
(0.560796 0.000597657 0.000714798)
(0.565818 -0.000613301 -0.000277579)
(0.568217 -0.000302579 -0.000268502)
(0.199419 0.199113 4.96306e-05)
(0.198756 -0.199013 -0.000229832)
(0.561761 -0.0005532 0.000777472)
(0.16324 0.116321 0.0439564)
(0.56702 -0.00121192 -0.000643547)
(0.20042 -0.199736 0.000193764)
(0.582355 -0.000994183 0.00731477)
(0.561788 0.000466556 -0.000119566)
(0.567171 8.97604e-05 -0.000292367)
(0.200403 -0.198004 -0.00141036)
(0.568142 -0.000301537 -0.000173395)
(0.565567 -0.000981575 0.000584376)
(0.207097 0.195966 -0.00111437)
(0.568366 0.000181042 -0.00072322)
(0.566342 0.00026748 -0.00121368)
(0.567654 0.000311256 6.99825e-05)
(0.566522 -0.000305305 -9.92241e-05)
(0.568047 -6.29276e-05 -0.00019699)
(0.56613 -0.000432289 -0.000478966)
(0.200167 -0.200659 -0.00027218)
(0.19247 0.193548 0.000609749)
(0.560568 0.000414947 0.000981513)
(0.565502 0.000842691 0.00221946)
(0.564746 -7.35746e-05 -0.000369839)
(0.568096 9.93959e-05 -0.000357931)
(0.199521 0.199449 2.04673e-05)
(0.566058 -0.000204604 -3.88288e-05)
(0.565378 0.000112948 -0.00100249)
(0.570998 -0.000297401 0.000405067)
(0.5667 0.000209997 -0.000269457)
(0.568432 -4.85846e-05 -0.000362626)
(0.560427 0.000814268 0.000750105)
(0.565367 0.00051449 -0.00110354)
(0.565059 0.000510433 -0.000801132)
(0.198826 0.198663 -0.00034196)
(0.558744 0.000484932 -9.23286e-05)
(0.227818 -0.191956 -0.00759915)
(0.553938 -0.00353052 0.000498409)
(0.196659 0.191303 -0.00190576)
(0.198306 0.198716 -5.40263e-05)
(0.565707 -3.0432e-05 0.000147831)
(0.564825 1.26901e-05 0.00023518)
(0.199232 0.198886 -1.89957e-05)
(0.555979 -0.000474341 0.000475491)
(0.565507 -0.000625556 4.70777e-05)
(0.566355 -0.000482695 -0.000124718)
(0.566293 2.33367e-05 -0.000528903)
(0.199197 0.198411 0.000747988)
(0.56495 0.000280991 7.23731e-05)
(0.560081 -4.45672e-05 0.000668832)
(0.560652 4.96754e-05 0.000585047)
(0.567149 0.000210728 -0.000308097)
(0.562502 3.49419e-05 0.000398669)
(0.567025 -0.000103692 -0.000373581)
(0.565621 6.68154e-06 -0.000119596)
(0.565843 0.000167909 -0.000113562)
(0.562441 -7.92578e-05 0.000283566)
(0.573752 -0.000836075 0.000491519)
(0.157266 0.0630697 -0.0717456)
(0.56288 -2.78388e-05 0.000373614)
(0.198254 0.19872 0.000269312)
(0.565509 0.000174739 0.000908696)
(0.566676 -0.000172891 -0.000687141)
(0.56286 0.00228264 -0.000544515)
(0.558046 -0.00216425 0.00389327)
(0.564438 -0.00101309 0.00209777)
(0.568206 0.000386845 6.3477e-05)
(0.567406 -9.49736e-05 -0.00080733)
(0.566892 -0.000261315 -0.000269359)
(0.567035 -0.000808118 -0.000892904)
(0.561139 -0.00110292 0.000857895)
(0.198018 0.199519 -0.00288125)
(0.56662 -0.000245108 0.000254639)
(0.56598 0.000340621 0.00033311)
(0.567832 -0.000309619 9.0049e-05)
(0.566006 -9.99551e-05 -0.000393012)
(0.566368 -0.000737559 -0.000626773)
(0.562725 -7.43977e-05 0.00038745)
(0.556519 0.00649128 -0.0010818)
(0.572282 0.000784091 0.000646708)
(0.558252 0.00181181 -0.000928256)
(0.562489 0.0003139 -0.000889949)
(0.199323 0.19933 8.26824e-05)
(0.200508 -0.199734 -2.83863e-06)
(0.566787 0.000168318 0.000197822)
(0.567758 0.000427464 0.000321966)
(0.562625 -0.000526121 0.000433517)
(0.558809 0.000716021 -0.00210518)
(0.561555 -0.00086414 5.63435e-05)
(0.198842 0.199068 -0.000327614)
(0.199095 0.199301 -0.000156511)
(0.566916 -0.000797133 -0.000870113)
(0.564111 -0.000432157 0.000158724)
(0.565587 -0.000281486 -0.00032755)
(0.565744 -1.99863e-05 -0.000197032)
(0.565036 -0.000139682 -0.000741536)
(0.566391 -0.000370543 -0.000200046)
(0.220693 -0.15314 -0.0146126)
(0.568009 0.000177344 -2.68296e-05)
(0.561826 -0.00114621 0.000862689)
(0.559931 0.000519545 -0.000841334)
(0.556675 3.12074e-05 -0.00177905)
(0.568201 -0.000137723 -0.000102773)
(0.541725 0.00352994 -0.0128251)
(0.556948 0.0162335 -0.0106608)
(0.568001 0.000108264 3.52219e-05)
(0.562172 -0.000852732 0.000837862)
(0.560617 -0.000277616 0.00034931)
(0.5631 -0.000623627 0.000635874)
(0.573264 0.000257252 -0.00101507)
(0.19932 0.199351 2.69207e-06)
(0.556518 0.00230236 -0.00217945)
(0.567154 -5.68283e-05 2.15451e-05)
(0.550601 -0.00212927 -0.00585946)
(0.566139 0.000122436 -0.000576804)
(0.566898 7.91e-05 -0.00059621)
(0.19973 0.197602 -0.000812279)
(0.56321 -0.00096039 0.00411097)
(0.573327 -0.000456733 0.000104834)
(0.5671 1.86243e-07 -0.000580707)
(0.561134 0.000314185 0.000994506)
(0.553652 -0.000185937 -0.00168921)
(0.199309 0.20511 -0.00187082)
(0.197821 0.195524 -0.00103389)
(0.566087 0.000348081 0.000186364)
(0.566522 -0.000219532 -0.000166038)
(0.56652 -0.00010629 3.96488e-05)
(0.567708 -3.30266e-05 4.64102e-05)
(0.566353 0.000151793 6.12693e-06)
(0.565514 0.000585926 0.00045571)
(0.562495 -0.000642444 0.000809839)
(0.566492 0.00159175 -0.00273653)
(0.565633 -0.000218935 -0.000847124)
(0.56615 0.000864898 -0.000280336)
(0.564127 -0.0012756 0.00227368)
(0.561238 0.00116411 -0.000729222)
(0.562853 -0.000662299 0.000127991)
(0.56643 0.000200075 -0.000403676)
(0.198619 0.198618 0.000126751)
(0.566907 4.50886e-05 -0.000282688)
(0.200422 0.200585 -0.000121225)
(0.199606 0.199148 2.23808e-05)
(0.565823 0.000949514 -0.000461279)
(0.562747 8.48498e-05 0.000181266)
(0.566884 -0.000834036 0.00052888)
(0.200416 -0.200246 -3.48341e-05)
(0.5645 -1.76046e-05 0.000427926)
(0.560864 0.0010737 -0.00171713)
(0.567612 0.000533487 -0.00108623)
(0.199547 0.199646 9.24773e-05)
(0.565101 -0.000318663 -0.000194418)
(0.197084 0.198847 -0.000605908)
(0.563423 -0.000289355 0.0033693)
(0.198074 0.196988 -0.000118202)
(0.561757 -0.000268463 0.00104456)
(0.558438 -0.000239084 0.00106854)
(0.5637 -0.000149685 1.94089e-05)
(0.565623 0.000784493 -2.91386e-05)
(0.200338 -0.200252 0.000103902)
(0.198374 0.198349 -0.000170691)
(0.566853 0.00266907 -0.00301936)
(0.5553 -0.000243109 0.00187224)
(0.567462 8.84102e-05 -0.000848827)
(0.566236 7.53591e-05 -0.000355568)
(0.565196 3.40228e-05 -0.000755571)
(0.563959 0.00116182 -0.000335275)
(0.574595 0.00319595 -0.00126967)
(0.199746 0.199935 -0.000267932)
(0.581987 0.0070618 -0.000893105)
(0.565183 -0.000521262 -0.000738327)
(0.541641 0.0634992 -0.0393705)
(0.198089 0.196662 0.000529621)
(0.567619 0.00126482 -0.00161332)
(0.546545 0.000441152 0.00148342)
(0.19941 0.197821 0.00170509)
(0.58161 0.0022998 0.00103887)
(0.567747 -0.000208801 -0.000517168)
(0.199678 -0.199564 -6.93991e-05)
(0.558482 5.65722e-06 0.00128248)
(0.59629 0.00825586 0.00135313)
(0.566556 -0.000508087 -0.000167854)
(0.56199 -0.00145853 0.00244047)
(0.576243 0.00510059 0.027381)
(0.56038 0.000827089 -0.000440011)
(0.563964 -0.000139554 -0.000400413)
(0.560374 0.000104184 -0.00196668)
(0.539762 -0.000121565 -6.8405e-05)
(0.566893 -0.0231422 0.025871)
(0.564221 0.000307123 0.000814298)
(0.555476 -0.00109974 -0.000178673)
(0.566407 5.03923e-06 -0.000177116)
(0.575439 -0.00144237 0.000980906)
(0.567317 -3.69976e-05 7.71838e-05)
(0.567652 0.00222556 -0.00159939)
(0.199415 0.199488 1.7076e-05)
(0.566532 0.000726635 -0.000298712)
(0.580697 0.000460384 0.00147675)
(0.591017 0.00557093 0.00799962)
(0.19974 -0.199759 -7.61724e-05)
(0.562267 -0.00107402 0.00109815)
(0.569015 0.000419305 -0.000190251)
(0.197201 0.195144 0.000400993)
(0.557986 0.000402165 -7.09298e-05)
(0.562284 0.000161992 -0.000472992)
(0.566133 0.000405968 -0.000602151)
(0.568926 0.000370006 9.11574e-05)
(0.562045 -0.000548992 -0.000351011)
(0.56538 -0.000240566 0.000196271)
(0.198912 0.199229 -0.00023068)
(0.56228 -0.000280459 -0.00176477)
(0.570683 5.71199e-05 -0.000293973)
(0.19898 0.198969 0.000237526)
(0.200023 0.199453 -0.000105504)
(0.56582 0.000457457 0.000266245)
(0.199434 0.199786 -0.000107976)
(0.564462 -0.000191145 0.00038774)
(0.560284 -0.00405428 -0.000316285)
(0.566171 0.000255822 -0.000312173)
(0.562368 -0.000608085 -0.00229155)
(0.562327 -3.16562e-06 -0.00183071)
(0.283959 -0.0198487 0.0422916)
(0.199424 0.199669 0.000192966)
(0.571492 0.000317863 -1.25451e-05)
(0.566143 4.99736e-05 0.000153343)
(0.562951 0.00057548 -0.000470996)
(0.560646 0.00272864 -0.00192607)
(0.563176 -0.000146816 -0.000791542)
(0.199139 0.199303 -0.000233003)
(0.544478 -2.67261e-05 -0.000706824)
(0.560747 -0.000157943 -0.000914099)
(0.556094 0.00164436 0.00420283)
(0.567062 -0.000228575 0.00110968)
(0.563765 -0.00106417 -0.000310962)
(0.555178 0.0182595 -0.0205965)
(0.566524 -0.00167097 6.19687e-05)
(0.551132 0.00583591 -0.0108806)
(0.198611 0.195273 -0.00116103)
(0.199643 0.199578 0.000180762)
(0.199121 0.199116 -3.03038e-05)
(0.566741 0.000243942 -0.000244258)
(0.566091 -0.000218294 -0.000535462)
(0.19913 0.198572 -9.89515e-05)
(0.564101 -0.000133006 0.000803334)
(0.55767 0.00381095 0.00295962)
(0.557155 -0.000746611 -0.000589673)
(0.501193 0.0706634 -0.0406412)
(0.559335 -0.000793625 -0.000486989)
(0.565756 0.000200983 0.000125041)
(0.199831 0.204363 0.000336224)
(0.556996 0.0129722 -0.0208591)
(0.199876 0.199842 0.000158318)
(0.198918 0.19838 0.000352226)
(0.566096 -0.000230723 -4.89511e-05)
(0.317994 0.243246 0.0367046)
(0.289961 -0.117986 -0.00409879)
(0.56264 -0.00132874 -0.000119978)
(0.194325 -0.197747 0.000259763)
(0.566151 0.000117383 -8.5666e-05)
(0.56074 -0.00258291 -0.00515047)
(0.570042 0.0194322 -0.0138706)
(0.565663 -0.000205255 0.000336846)
(0.575703 0.0109822 -0.00367091)
(0.563859 0.000411498 0.000193695)
(0.570627 -0.0366342 -0.010747)
(0.199034 0.198999 5.94908e-05)
(0.1989 0.198035 0.00021469)
(0.564642 -0.00098533 -4.96928e-05)
(0.563577 -0.000699283 0.00106834)
(0.566983 -0.000417887 0.000197432)
(0.19587 0.198987 -0.00154663)
(0.560187 0.00115347 8.43451e-06)
(0.565496 -0.000413774 8.14327e-05)
(0.565802 -6.88179e-05 -0.0002737)
(0.199254 0.199481 0.000836558)
(0.565542 0.000217592 -0.000606551)
(0.565731 -0.000237603 -0.000279296)
(0.510916 0.0571409 0.0377887)
(0.199117 0.199149 -0.000148629)
(0.645139 0.172819 -0.00642581)
(0.522248 0.0735743 -0.0535423)
(0.200199 -0.199484 4.32165e-05)
(0.199811 0.199084 0.000347195)
(0.198922 0.198531 5.52017e-05)
(0.200467 0.199836 0.000424299)
(0.199958 0.199697 -0.000795057)
(0.565852 0.000581496 -0.000111101)
(0.566234 -0.000149802 0.00020844)
(0.564941 0.000511074 0.000163757)
(0.199454 0.198443 0.000173158)
(0.565025 -0.000329827 -0.000142667)
(0.567433 3.22967e-05 0.000435405)
(0.199648 0.198942 0.000263308)