/*--------------------------------*- C++ -*----------------------------------*\
  =========                 |
  \\      /  F ield         | OpenFOAM: The Open Source CFD Toolbox
   \\    /   O peration     | Website:  https://openfoam.org
    \\  /    A nd           | Version:  10
     \\/     M anipulation  |
\*---------------------------------------------------------------------------*/
FoamFile
{
    format      ascii;
    class       surfaceScalarField;
    location    "30";
    object      phi;
}
// * * * * * * * * * * * * * * * * * * * * * * * * * * * * * * * * * * * * * //

dimensions      [0 3 -1 0 0 0 0];

internalField   nonuniform List<scalar> 
109758
(
-3.20733e-06
0.00121987
-0.00121667
-0.00125231
0.00128812
-3.58034e-05
0.000104062
-0.00114948
0.00104542
-0.00143997
8.7865e-05
0.0013521
0.00146239
-0.000168365
-0.00125787
-3.61549e-05
-0.000405291
0.000396323
8.96786e-06
-0.0011085
-6.45105e-06
0.00111495
0.00202365
-0.000255864
-0.000384867
-0.00138292
-2.37291e-05
0.000849315
1.44642e-05
-0.00084005
0.000466473
-7.22147e-05
0.000596519
-0.000990777
-3.94332e-06
0.000586479
-0.000582535
0.00187424
-0.00152683
-0.00143869
0.00109129
0.000320892
0.00125915
-0.00143779
-0.000142248
0.0011887
-0.00121943
3.07303e-05
-0.00097406
0.0011082
0.00132825
0.000691398
-0.000946151
-0.00068448
0.000939233
0.000819872
-0.00157411
0.00140373
-0.000649491
0.00148434
0.000242329
-0.00110141
-0.000625253
0.00149976
0.000227973
-0.00121122
-0.000516519
-0.00144001
0.000171256
-0.000108888
0.00137764
0.000216029
-0.000290535
7.45061e-05
-2.63345e-05
-0.00119647
0.000285618
0.000937184
-0.000275467
0.000847431
-0.000571964
0.000251248
-0.000301532
0.00102946
0.0011621
0.000420088
-0.000405306
-0.00117688
1.76966e-05
0.000563461
0.000903181
0.00124121
0.00151615
-0.00194158
-0.000815779
-0.00109125
0.00108147
9.77314e-06
3.43295e-05
0.00112777
0.00149194
-0.00102646
0.000795226
-0.00126071
-0.00146098
0.0015297
-8.42985e-05
1.55756e-05
-4.98642e-05
0.000604469
-0.000554604
-1.44659e-05
0.000898709
-3.48296e-05
-0.000849414
-0.000827267
0.000824159
3.10834e-06
-0.000123933
-0.00131749
0.00110483
0.000336593
-0.00115986
0.00212103
-0.000718841
0.000577871
0.000170068
-0.000747939
0.00019802
0.00103987
-0.00147421
0.000236322
-0.000252298
-0.00111679
8.18788e-06
0.0013609
0.00114047
5.07127e-06
-0.00114554
0.00167385
-0.00110248
0.00073491
-0.00130628
-0.000392233
-0.000504917
0.000676485
0.000220666
-3.41807e-05
3.3354e-05
0.00167467
-0.00144773
0.001425
1.32618e-05
9.46905e-06
0.000796995
-0.000798021
1.0251e-06
0.000330627
-0.00214982
-0.00032915
0.00214834
0.0009978
-0.000282605
-0.000251207
-0.000463988
-0.00111259
0.00138822
-0.000195426
-8.01982e-05
1.65256e-05
0.00102437
-0.0010409
-0.00224782
0.000142353
0.000187774
0.00191769
0.00107967
-0.000522341
0.000519978
-0.00107731
0.000398902
0.000616595
1.42757e-05
0.00140007
-0.00141435
-0.00105875
0.00106229
-3.5443e-06
-0.00121995
0.00125428
-0.000329666
-0.00175389
-0.000430713
0.00251427
-0.00228278
0.00318387
-0.000667448
-0.000233644
-0.00111412
0.000983005
0.0011705
-0.00103939
-0.00180378
0.000708454
-5.92011e-05
0.00115453
-0.000718742
0.000263887
0.000645843
-0.000190987
-0.00149361
0.00142213
7.14855e-05
-0.00323447
0.00018958
0.00163163
0.00141326
-0.000314079
0.00130133
-0.00124954
0.000262289
0.001569
0.00151346
-0.00189095
-0.00113792
0.00151541
-0.00190197
0.000922405
0.000514666
0.000464897
0.0013926
-0.00153986
-0.000857904
0.00100516
-0.00147627
9.85757e-05
0.000349064
0.00102863
-0.00112266
-0.00079885
0.000445243
0.00107496
-7.64956e-05
-9.37242e-05
-0.000904745
0.00100527
-0.000590319
0.000372814
-0.000787768
0.00141962
5.19606e-05
0.000602625
-0.0020742
-0.000520686
0.000192209
0.000328477
-0.00211827
0.00134789
0.0015804
-0.000810016
0.000803013
-0.000759567
-4.34456e-05
-0.00062779
0.000201037
-0.00169152
0.000106557
-0.000881553
-0.000283753
-0.000270515
5.59994e-05
-0.000860658
0.00107517
0.00174241
-0.00158302
-0.000333486
0.000174099
-0.00170474
0.00153666
-0.00105187
0.00119817
-0.000810876
-0.00100333
0.000616039
-0.000650676
0.00269959
-0.00135005
-0.000698863
-0.000152329
8.23507e-05
0.00152943
-0.00145946
3.64597e-05
0.00216842
0.000227639
-0.00243252
0.000866564
-0.00157359
-0.0001322
0.000839223
0.00123859
-0.000233211
-0.000898827
0.000128823
0.000991571
-0.00135887
0.000238476
0.000543412
0.00204837
0.000129473
-0.00272126
0.00096182
-0.00113382
0.000180229
-8.22503e-06
0.000655138
0.00073573
-0.00276432
0.00137346
0.000933331
-0.000103681
6.16237e-05
-0.000891274
0.0019918
-0.00149352
-0.00296913
0.00247085
0.00169094
-0.00190377
0.000844418
-0.000631586
2.06509e-05
-0.00159256
0.00146377
0.000108143
0.00164651
-0.00115289
-0.000363109
-0.000130507
0.000889274
2.08928e-05
-0.000910167
-0.00170028
0.000293858
0.00118724
0.00021918
0.00111464
0.000743556
0.000571207
-0.0024294
0.000918731
-0.00165719
0.00114789
0.00249095
-0.00144436
-0.00219448
0.000917284
1.44736e-06
-0.000367339
0.00119329
0.00119915
-0.00202511
0.00105161
0.000300456
-0.000149034
-0.00120303
8.14726e-05
0.000922098
-0.00100357
0.00141379
-0.000116757
5.53307e-05
-0.00135236
-0.00057788
-1.89544e-06
0.000579775
-0.00132418
0.00102162
-0.000798856
-0.000237665
0.00179628
-0.00188898
0.000330366
0.000431873
-0.000362745
-0.00145273
0.00138361
0.000287594
-0.000293293
-0.000681616
0.000687315
-0.000368619
-0.000989286
0.00123668
0.00012122
0.000447801
-0.0012194
0.00126876
-0.000497166
0.000927649
0.000283493
-9.27681e-06
-0.00054947
-9.87652e-05
0.000657513
0.000179649
0.000352745
-0.00203701
0.00150461
-0.0013118
0.000166456
0.00134806
-0.000202712
0.00097335
0.000158283
9.90165e-05
-0.00123065
0.000204888
0.000768461
0.00143126
0.000288255
-0.00156123
-0.000766624
-0.000873114
0.00130307
0.000336664
0.00135782
0.000183595
0.000199485
-0.0017409
-0.00146856
0.00125564
-0.00041198
0.000624901
0.00134589
0.000290255
-0.00104591
0.00117823
-0.00108749
0.000955173
0.00146316
-0.00021122
-0.000286418
-0.000965518
4.01821e-05
-0.0016064
0.00174176
-0.000175546
-0.00152843
-3.72679e-05
-0.000421394
0.00198709
0.000938755
0.000505933
-0.00148564
4.09528e-05
-0.00101877
9.45099e-05
0.000894694
2.95618e-05
0.000184177
5.69269e-05
-0.00188273
0.00164162
-0.000930542
-6.17811e-06
0.00093672
0.000193157
0.00133189
-0.00134087
-0.00106142
0.00142124
-0.000773862
0.000414038
-0.00121259
-0.000777934
0.00157847
0.000412056
0.00127432
0.000244365
-0.000722701
-0.000795985
-0.00201016
-2.81341e-05
-0.000282891
0.00232119
-0.0012944
-0.000777548
0.000565843
0.00150611
0.00177654
-0.00174076
-0.000112078
7.63009e-05
-0.000263735
-0.000789037
-0.000701114
0.00146089
0.00108173
0.000271244
-0.00281386
0.00211387
0.000267188
-0.0023446
0.000214738
0.0011051
-0.00131984
3.51992e-05
-0.00108871
0.00105351
-0.00103484
-0.000214716
0.000197551
0.00105201
9.21627e-05
0.00134667
-0.00128468
-0.000154151
-0.00222005
-0.000254837
0.00057672
0.00189817
0.00122525
-0.00129639
0.0011086
-0.00103746
0.000159212
0.000143163
0.000922873
-0.000874086
0.000847516
2.65697e-05
-0.000919609
3.02006e-05
0.00133314
-0.000443734
0.000264627
-0.000672263
-0.000492878
0.000900514
0.000674458
-0.000702072
2.76142e-05
-0.000961837
0.000910022
-0.0002187
-5.0854e-05
-0.00101142
-1.05508e-05
0.00107282
0.00171111
-0.000192413
-0.0010859
-0.000432792
-0.000408061
-0.00186744
0.0025069
-0.000231394
-0.00162348
0.000562193
-0.00135687
0.0015149
-0.000158033
-0.000731705
0.000659221
-0.00102721
0.00109969
0.000547793
-0.000670699
-0.000497648
0.000620553
-0.000920513
-0.00126231
0.0010016
0.00118122
5.03322e-05
0.00141117
-0.000139901
-0.0013216
-0.000358588
0.00170981
-0.000286489
-0.00106473
-0.00159266
0.00134675
-9.6441e-05
0.000342345
-0.00117012
0.0009333
-0.00100758
0.0012444
0.00121557
6.58395e-06
-0.00122216
-0.00180177
0.000389402
0.00176143
-0.000345291
0.0014218
-0.00107651
8.78049e-05
0.00143511
-0.00152291
0.000197979
0.0012365
-0.00189542
0.000460939
-0.000951404
-0.00098919
0.0010617
0.000878891
0.000693861
-0.000199993
0.000511405
-0.00142024
0.00148336
-3.80396e-05
-2.50713e-05
-0.00141779
1.42008e-05
-1.66569e-05
0.000752209
-0.000451094
0.00184979
-0.00215091
-6.86022e-05
0.00180503
-0.00173643
-0.00118324
0.000849675
-6.5905e-06
0.000340155
-0.000902687
-0.00109779
0.00200048
-0.000674701
-0.000253289
0.00092799
0.00100462
1.26227e-05
-0.00101725
-0.00159631
-2.56975e-05
0.00131313
0.000308875
-0.000461723
0.000638653
0.000839069
-0.001016
-0.0017677
0.00048416
0.000821813
0.00172086
-0.00271151
0.000575348
0.0004153
-0.00144929
0.00146269
-3.97563e-05
2.63511e-05
0.00193043
-0.00192982
-1.536e-05
1.4753e-05
-0.00109048
1.53738e-05
0.000268938
0.000806166
7.65099e-05
-0.0011374
0.00106089
-0.00123405
-0.00175203
0.00118824
0.00179785
0.000148944
0.00161159
-0.000746147
-0.00101438
2.03931e-05
-0.00155812
-2.33757e-05
0.0015611
0.000256073
0.00139837
0.000329865
-0.00198431
0.000203732
0.00139802
-0.00147291
-0.000128843
-7.47655e-05
-0.00109354
0.00137204
-0.000894782
-0.00075767
0.000384939
0.00126751
0.000841789
4.83436e-05
-0.000890133
0.00135893
0.00130389
-0.0015747
-0.00108813
1.71707e-05
-0.00108206
0.00106489
0.000302833
0.000132515
5.89132e-05
-0.000494261
-0.00142048
-2.28065e-05
0.000469972
0.000973312
-0.00104625
-0.000536686
0.00158294
0.00084563
-0.00111029
0.000393713
-0.000129048
-0.00146892
0.000185123
0.00134016
-5.63668e-05
-0.00147992
0.00179842
-0.00141299
0.00109449
-5.94679e-06
-0.000888835
-0.0011428
0.00111076
3.20439e-05
-0.00147881
-0.000770773
0.00014609
0.00210349
-0.000136612
0.00130042
-0.00116381
0.00103751
-0.000815794
-0.00022172
0.000925079
-0.000931026
-0.00111137
-2.73814e-07
0.00111165
0.000508766
0.00138645
-1.33572e-05
-0.00188186
-0.00113548
0.000172962
0.000962518
-0.0012633
-0.000444592
0.00131581
0.000392086
-0.00190956
0.000262439
0.00186423
-0.000217108
0.000944211
-0.000916791
-2.74197e-05
-0.000726226
-0.00101926
0.00390935
-0.00216387
-0.00148286
0.000543207
-0.000373539
0.00131319
-0.000750879
-0.000179471
-0.00117522
0.00210557
-4.22484e-06
2.66194e-06
0.00130695
-0.00130538
0.000707916
-0.00209669
0.00285891
-0.00147013
-0.00121626
0.00121204
0.0015571
0.00040109
-0.00190732
-5.08737e-05
0.00108534
0.000148435
-0.00136326
0.000129481
0.00095035
0.000445359
-0.00159416
0.00019845
0.000903667
0.000181675
-0.000541824
0.00169141
-8.92257e-05
-0.00106036
0.000326657
-0.00148643
0.00190075
-0.000740977
-0.00167243
0.000121713
-4.81043e-07
0.0015512
0.000972062
0.0037445
-0.0005937
-0.00412286
0.000450127
0.000343071
-0.000596688
-0.000196509
0.000310155
0.0011236
-0.000508277
-0.000925483
-0.000905612
0.000884283
-0.000520494
-5.05202e-06
0.00169151
4.95358e-06
0.0013352
-0.0013501
0.000213964
-0.000199064
0.000316151
-0.000105603
0.000806863
-0.00101741
-0.00130102
0.00126667
0.000182789
0.000392594
-0.000768617
-0.00087986
0.00125588
0.000542048
0.00150842
-0.00150706
0.00112913
-0.00147856
0.00019972
0.000149719
0.00111266
2.13474e-07
-0.00111287
0.00242811
-0.0024973
0.00202063
-0.00195144
0.000370269
-0.000955443
-0.000476581
0.00106176
0.000384902
0.000204411
-0.00163419
0.000974057
-0.000580751
0.00124088
-0.00200276
0.000451951
0.00168568
-0.000134875
-0.00156227
-0.000861984
0.00313217
-0.000160164
0.00191859
-0.000633052
-0.00112537
0.000924624
-0.000466597
0.00171252
-0.00217055
0.000184365
-0.000870089
0.000740898
-5.51746e-05
-0.000382818
-0.00125549
0.00144247
0.00019584
0.00108108
-0.000611867
-0.000439618
-2.95966e-05
0.000548031
0.000229675
0.00029057
-0.00106828
-0.00077621
0.000995615
-0.000219405
0.000889327
-0.00082841
0.000123448
3.052e-05
-0.00135778
0.00132726
0.00104317
-0.00121544
-0.000210543
0.00026464
0.00118139
-0.000265075
-0.00118095
-4.01154e-06
-0.000963436
0.000967448
0.00052486
0.0016127
-0.000883392
-0.00125417
-8.68783e-05
-0.000626731
-0.00042462
0.00113823
-0.000294708
-0.00162196
1.07844e-05
0.00190589
-0.00103
0.000416921
0.00125941
-0.000646322
7.60695e-05
0.000967098
-0.000857787
0.000933857
0.000926186
0.000247592
9.977e-05
-0.00127355
-0.000489243
0.00218872
-0.000142378
-8.91336e-05
-0.000621714
0.000566738
0.00014411
-0.000206127
0.00243548
-0.000115477
0.00197585
-0.00102618
-0.000424801
0.00225378
-0.000275416
-0.00120926
0.0018075
-0.000322821
-0.00228046
0.00191555
0.000936555
-0.000571639
5.76714e-05
0.00104786
0.000870309
-0.00100407
-0.00131894
0.00139247
-0.000716766
-0.000988742
0.00191064
-0.000205129
0.000740314
0.000843138
-0.00158345
2.62111e-05
0.000168955
0.00222509
-0.00242026
-0.00117465
0.000992998
0.0014402
-0.00125855
0.00135765
-0.00214586
0.00172481
-0.000936598
0.000449863
-2.28547e-05
-0.000427009
-0.000923791
-0.000517047
0.000171901
0.00126894
-0.000473682
-0.000679012
8.94577e-05
0.00117075
-0.000969029
-0.000291182
0.000984409
-0.00102507
4.06624e-05
0.000109474
-0.0013064
0.00137854
-0.000181614
0.00114621
-0.00282829
0.00139752
0.00028456
0.000655336
-0.000874235
0.000218899
0.000867505
-0.000110785
-0.000859801
0.000103081
-0.000174287
-0.00286937
0.00259051
0.000453149
-0.00113316
0.000195124
0.00132092
-0.000382883
-0.0011863
3.82294e-05
0.00114807
0.00118314
0.000200005
0.000785276
-0.000590058
-4.90144e-05
0.0015284
0.000102568
-0.00168144
0.00140459
-6.39718e-05
0.00116673
-0.00110276
-0.000816626
0.000505673
0.00135455
-0.0010436
-0.000186207
0.00155277
-4.37267e-05
-0.00132284
-0.000187206
0.00144227
-0.000975313
-0.000279749
-0.00100248
-2.21805e-05
0.00118142
-0.000156758
0.000832389
-0.00174004
0.000949947
-4.22938e-05
-0.000891558
0.000696966
-0.000716475
0.000911066
0.000863738
3.41368e-05
-0.00010088
0.000132278
-0.00125862
-0.000303258
0.0014296
-0.000258102
-0.00138308
0.000618215
0.00102297
0.000493472
-2.11685e-05
0.00113425
0.000275169
-0.00138825
0.000581905
-0.000410254
0.00117246
-0.00134411
-0.000751688
0.000931234
0.00124283
-0.00142238
0.0020342
0.000510614
-0.00205134
1.85502e-07
-0.00121006
0.00120988
7.52446e-06
-0.00122612
0.00127512
-5.65192e-05
2.39565e-05
0.00131038
-0.00117857
-0.00015577
0.000394341
-0.00198937
-6.49564e-05
0.00165999
-0.00110085
0.00132086
-0.000220016
0.000202284
-9.24259e-05
0.00132593
-0.00143579
-0.00102586
0.000227837
-0.000708989
0.00107353
-0.00143069
0.00106615
-0.000327223
-8.10749e-05
0.000408298
0.00324023
-0.00158115
-0.000703544
-0.00095554
0.00130468
0.00334314
-0.00140759
0.00215979
-0.00199896
0.000189045
0.00110093
-0.000852276
0.00121915
-0.000386515
1.96446e-05
-0.000258599
4.95379e-05
0.00178946
-0.00125105
0.000470955
0.000960701
-0.00018061
-0.00105251
0.00174157
0.000130816
0.00122122
-0.00139807
0.000708617
-0.00053176
0.000181425
0.00245671
-0.00243585
0.000735105
6.38254e-07
-0.000735743
-3.76893e-07
-0.000956653
0.000957029
0.00170493
0.00013788
-0.000381593
-0.00146122
0.00221033
-0.000712152
-0.000935412
-0.000562765
-0.000139834
-0.00280368
0.000846819
-8.60759e-06
-0.000679292
0.0006879
0.00147052
-0.0013493
-0.00133362
0.0012124
0.00106471
0.000443981
-0.00125262
0.000863247
-0.000532048
-0.00131671
0.000985513
-0.00104283
-9.42332e-06
-0.000803486
0.00185574
-0.00159307
-6.78652e-06
0.00159986
0.000993082
9.3776e-05
-0.00105669
-3.01649e-05
-0.00127238
-2.08443e-05
0.00129323
6.4356e-05
0.00107034
-0.0011347
-0.00078265
0.00173429
-0.000125973
-0.000825669
-0.00187853
0.00226246
0.00142709
-0.00181103
0.000901133
0.000769237
-0.000208433
0.00133815
-0.000865033
-0.000264688
-0.000229706
-7.78835e-05
-0.00115526
0.00146285
0.00130459
-0.00114767
0.000912555
-0.00106948
-0.00123777
0.00128823
-5.04692e-05
-0.00151429
0.000253325
0.00130058
-3.96109e-05
-0.00264318
0.000528755
0.00201082
0.000103606
0.000260758
-0.000334839
-0.00130868
0.00138276
0.00190152
0.000181185
-0.00109222
-0.000990483
0.00103463
-0.000786339
-0.00104188
0.000793586
0.00119113
1.19512e-05
-0.00120308
0.000110358
-0.00202641
0.00148254
0.000433513
0.000752716
0.000448853
-0.000300436
0.000273682
-0.000881788
0.00128571
-0.000677605
-0.000545331
0.000529509
-0.000121951
0.000137773
-0.00362653
0.00437315
0.00141051
-0.00215712
0.00182008
-1.19214e-05
-0.00181946
1.13008e-05
9.11816e-06
0.00146345
-0.00157281
0.000100241
-0.00219291
0.00192121
-0.000510944
0.000974378
0.00121973
-0.00110391
-0.0010902
-0.000967719
-6.94972e-05
-0.000105247
0.00114246
0.00101032
5.26928e-05
-0.00106302
0.00128836
-7.10946e-05
-0.00121727
-0.00227725
0.00214596
8.45364e-05
4.6758e-05
7.06924e-05
0.00146805
-7.20668e-05
-0.00146668
0.000909383
0.000458542
-0.00297749
0.00160957
-0.000630634
0.000630641
-7.77263e-09
0.000923979
2.07594e-06
-0.000926055
-4.70235e-07
-0.000556872
0.000557342
-0.000530762
0.00108029
0.00072588
-0.0012754
3.53976e-06
-0.00114345
0.000897106
0.000242806
-0.00128303
-0.000526021
-0.000468206
3.21539e-06
-0.000888388
-0.000132153
0.00101733
-0.000687391
1.28566e-05
0.000674534
0.000235011
0.000729253
-0.000237593
-0.000726671
0.000502841
-0.000895075
0.000392234
-0.000243028
-0.000833232
-0.000310507
0.00138677
0.00070923
0.000940358
0.000138535
-0.00178812
0.00185638
-0.000675177
-0.00060158
-0.000579623
-6.80823e-05
-0.00153305
0.00178672
-0.00018559
0.00073583
0.000387559
0.000212709
-0.0013361
0.00232092
0.0010337
-0.00217692
-0.00117769
-2.84245e-06
0.000587581
-0.000584739
-0.00137316
4.09304e-05
0.000317688
0.00101454
-0.00134536
-0.000149384
0.00153063
-3.58851e-05
0.000374549
-0.000468463
0.001914
-0.000476424
0.000629237
-0.000152813
0.00093744
2.69658e-05
-0.000964406
0.000194461
0.000122396
-0.00123675
0.000919892
0.0013179
-0.00012956
-0.00122652
3.81754e-05
-0.00111338
-7.3668e-07
0.000237482
0.00032174
-0.00146026
0.000901034
-0.0013564
9.75427e-05
0.00125885
-5.32134e-05
-0.000949268
-0.000123822
0.00208989
0.000147306
-0.00211337
0.0011165
-0.00118254
6.60393e-05
-0.00119423
0.00118148
1.27478e-05
0.000959688
-0.00108351
0.000262432
0.000876415
0.00108902
-0.00222787
-0.00117274
-0.000640409
0.00181315
-9.09822e-06
0.0008361
-0.000827002
-1.94629e-05
-0.000909686
0.000929149
0.00111465
-0.00110767
-6.98071e-06
-0.00123535
4.74409e-05
0.00124201
-5.41017e-05
0.000302179
-0.00139091
0.0010624
0.000693716
0.000583302
-0.00233835
0.00106133
0.000721229
4.94349e-06
-0.000726172
4.73551e-05
0.00136526
-0.00141261
0.000672029
2.42842e-06
-0.00153969
0.0013706
0.00129898
-0.00112989
-0.000969583
0.000122999
0.00124328
-0.0003967
0.00169628
-0.00244406
0.000590872
0.000156914
-0.00218972
0.00048761
-0.001046
0.00115615
-0.000110143
2.55516e-05
-0.00115988
0.00113433
-0.00100389
-1.98408e-05
0.00102373
-0.00117449
6.35964e-06
0.00116813
0.0011237
-0.00123205
0.000108353
1.48175e-05
0.00173319
-0.00174801
-0.000256845
-0.000234239
0.0012438
0.00123783
-0.0012929
-0.000884027
0.000939104
-0.00069873
0.000127467
0.00135648
-0.000785216
0.000667521
-0.00156967
-0.000101739
-7.29407e-05
0.00153398
-0.00146104
0.000454905
0.000424172
-0.000580052
-0.000299025
-0.000706444
0.00115827
-0.00139186
0.000940032
-0.00112413
-0.000426885
0.00155102
0.00227608
-0.00140361
-0.000872473
-0.00043209
0.001635
0.00107132
-0.00227423
-0.00118646
0.00143896
-0.00143579
0.00118329
0.000508856
-0.000382342
-0.000584554
0.00045804
2.1252e-05
-1.36333e-05
-0.00127994
0.00127233
-0.000118945
-0.00180362
0.00192256
0.000404877
5.33408e-05
-0.00152636
0.00106814
-0.00150305
0.00116639
0.000336658
-0.000702812
-0.000351915
0.00101383
4.08965e-05
-0.000990692
0.000985656
5.03576e-06
0.000963426
-0.000814827
0.00120905
-1.03313e-05
-0.0015777
0.0015806
7.4292e-06
0.00304784
-0.000788119
-0.00152981
-0.000729919
-0.000471515
0.0016631
7.96261e-06
-0.00119954
-0.000550172
0.000819078
0.000457396
-0.000726302
-0.00132476
0.000778042
0.00137622
-0.000829505
0.000727394
-0.000868432
-0.000339353
0.0015074
3.9763e-05
-0.00120781
0.000906475
-0.000999682
0.000103596
-0.00213925
2.40168e-05
-2.10188e-05
0.00213625
-0.000297318
-8.38013e-05
-0.000799566
0.00118069
-0.00108512
0.00139583
-0.00110932
0.000798601
-0.00247941
-0.000334714
0.002608
-0.00160744
2.26737e-05
0.00160912
-2.43471e-05
0.00100649
0.000162805
-0.000678796
-0.000490503
-0.000317275
-0.00123371
0.000655384
0.000895599
0.00106789
-0.000418757
-0.00140753
0.00075839
-0.00138745
-0.00035771
-3.08887e-05
0.00177605
0.00111008
-0.000136193
-0.00101852
4.46317e-05
0.000940131
-0.000943971
3.8399e-06
-0.000745521
0.00242679
-0.00201606
0.000334787
0.00015632
0.00143146
-0.00230352
0.000715741
-0.000945722
-0.000307934
0.000994027
0.000259628
0.000330245
-0.000316911
-0.000959056
0.000822335
3.31785e-05
0.000161026
-0.00101654
-8.83484e-05
0.000616099
-0.002667
-0.00138855
2.84989e-05
0.00178203
-0.000421973
-0.000995166
0.00116126
-0.000166098
0.000489791
-0.000459339
-0.000649095
0.000618643
-0.000700625
-0.00128676
0.000808933
0.00117845
-0.000577187
0.00179593
-0.000661471
-0.000557269
-0.0014814
1.0237e-05
-0.00129632
0.00161633
-3.91319e-05
3.45275e-05
-0.00128147
0.00128607
0.00123733
0.00132708
-0.00141035
-0.00115406
0.00098215
-0.00101303
3.08844e-05
0.00125357
-7.96196e-06
-0.00124561
0.00106975
-0.00124164
0.000351326
-0.000179434
-0.000312225
-0.00091564
0.00222189
-0.0016452
0.00141222
-0.000212815
0.000445795
0.000547199
-0.000744673
0.00176757
-0.0015701
-0.00157597
-0.00114999
0.00187376
0.000852203
-8.45204e-05
-0.00173724
0.000176558
0.000274888
-0.00144942
-1.18926e-05
0.00118643
0.00133541
0.000351704
0.0018088
-0.001584
-0.000594418
0.00036962
-0.00133914
0.0013292
0.00108385
-0.00107392
0.00101489
0.000503135
-0.00115205
-0.000365973
0.000508223
-0.00111715
0.00092814
-0.000319212
0.00139176
-0.00114097
-0.00181296
0.00156217
0.00145997
-0.00162509
8.05977e-05
-0.000901072
0.000905028
-3.956e-06
0.000112693
-0.000102146
0.00151107
-0.00180531
0.0017031
-0.00140887
0.00112022
-0.00100752
0.00113737
-0.00122988
-3.76046e-05
0.00013011
-2.44459e-05
-0.000519487
0.000543933
-0.000123568
-0.00103694
0.00124388
-8.3368e-05
0.00191015
-0.00171909
0.000135734
-0.00032679
0.000204325
-0.00226694
0.000184087
0.00169607
-0.001736
-0.000187512
0.000227441
0.000371552
0.000279054
0.000461247
-0.00111185
-0.000100998
0.000948676
0.00092388
-0.00177156
-8.04926e-05
-0.00117154
-0.000325287
0.00157731
-0.000570263
0.00170886
-0.000464639
-0.000673956
-0.0010683
0.000453075
0.00168498
0.00104574
-0.00211857
0.000232241
0.000840586
-0.000305317
7.138e-05
0.00193001
0.000313031
0.00142702
-0.000488566
-0.00125148
-5.18495e-05
5.41321e-05
-0.00123865
0.00123637
0.00185861
0.000104449
-1.30836e-05
-0.00194998
0.00103631
0.000454083
-0.000412034
-0.00107836
-0.00112274
-0.000479851
0.000534289
9.19156e-05
0.000648199
-0.000657841
-8.22734e-05
0.000189504
1.64082e-05
-0.00144755
0.00100858
-0.000527311
-0.000136939
-0.000344334
0.000148168
0.000701588
-9.8125e-05
-0.000751631
-0.00112204
0.00096286
0.00120492
0.000743327
-0.00323134
0.00062997
0.00185805
0.000176845
-2.98181e-05
3.30043e-05
0.00127208
-0.00127527
0.00220461
-0.000708032
-0.000732176
-0.000764406
-0.00107605
1.36988e-05
0.00147783
-0.000415485
-0.000136307
-0.00103837
0.00125236
-7.76866e-05
0.00104288
-0.0014217
-0.000694553
0.00107338
-0.000986741
0.000958571
2.81702e-05
-2.95058e-05
0.000952359
-0.000922853
-0.000466117
-0.0010904
-0.000402367
0.00195888
-0.000809627
0.000906103
-9.6476e-05
-0.000152963
-0.00132768
-0.0003346
0.00181524
-0.00234367
0.000864102
-0.00127903
0.00275859
-0.00160424
3.71781e-05
0.00156706
0.000757879
0.000839144
-0.000810991
-0.000786031
0.000976152
-0.00055923
-0.000184668
-0.000232253
0.00130381
2.84268e-05
-0.00133224
0.00124607
-0.00372601
0.000136274
0.000845562
-3.13734e-05
-0.000814188
-0.00144439
-0.000572982
0.0019408
7.6576e-05
-0.000876456
0.00452879
-0.00277326
-0.000879076
-0.00263818
0.0031769
-0.000465286
-7.34273e-05
0.00157602
-0.000908559
0.00219144
-0.000771811
-0.00168094
0.00248283
-3.00762e-05
-4.82509e-06
-0.000121833
-0.000680336
0.000806994
0.00148793
0.00190659
-0.00216867
-0.00122585
-0.00152921
0.00180799
0.000495943
-0.000774718
0.00169573
-0.000310946
-0.00066318
-0.000721608
0.000144757
-0.00108543
-0.000188403
0.00112907
-0.0032228
9.97589e-05
0.00164948
0.00147356
-0.000591305
0.00225045
-0.000872478
-0.00078667
0.00038212
-0.000937757
0.00178698
-0.00123135
-0.000193153
-0.000553019
0.00104584
-0.00029967
-0.000918355
0.000977192
-6.23428e-05
3.50539e-06
0.00160084
-0.00180697
-8.67286e-05
0.000292866
-4.87269e-05
-0.0015958
0.00160844
3.60857e-05
0.00013039
-0.000116268
-0.00152648
0.00151236
0.00220862
-0.000362536
9.407e-05
-0.00194015
-0.00145324
-0.000305366
0.000372902
0.00138571
0.000491614
-0.000491627
1.24082e-08
0.00108931
-0.000741139
0.000726794
0.000226282
0.00208693
-0.000124719
-0.00218849
-0.000333195
0.000223183
0.000278658
-0.000168647
-0.00162883
-0.00202546
0.00292806
-0.00115806
0.00132611
0.00126298
-0.00143103
-6.50198e-05
0.00129227
-0.00162995
0.000402702
-0.00123985
-0.00129809
-8.23225e-05
-0.000334348
0.00171476
-7.02334e-06
-0.000660541
0.000667564
-7.59433e-06
-0.000952224
0.00221977
-0.00125995
0.000650681
0.000916364
0.001634
-0.000818261
7.66394e-05
-0.000892382
0.000717852
-0.000199467
-0.00119855
0.000680164
0.000901567
4.29075e-05
-0.00137383
0.000429357
-0.000648967
0.000537487
0.00203442
-0.00192294
0.00174307
0.00124571
0.000163157
-0.00315194
-0.00155841
-9.83546e-05
0.000315749
0.00134102
-0.00130669
0.00139178
-8.50943e-05
-9.1124e-05
0.000865389
-0.000129784
-0.000644481
-0.000267959
0.00055118
-0.000283221
0.00109044
0.0015496
-0.000695831
-0.00194421
0.000933243
-0.000934223
9.80038e-07
-0.00264392
0.00061716
0.00147736
0.000549393
0.00010715
-4.72358e-05
0.00128425
-0.00134416
0.000822272
3.38777e-06
-0.00082566
0.00168868
-0.00187532
-0.0012042
0.00139085
-0.00148695
-0.00287221
0.00171524
-0.000290427
0.000187577
0.0011957
-0.00109285
-0.000512311
0.00155843
-0.000164319
-0.000881799
0.000320252
-0.000846593
0.00124419
0.000973962
4.6722e-05
-0.00102068
0.0028928
-0.00069953
0.000171989
-0.00236526
0.00109304
0.000312817
0.000699757
-0.00167179
0.00080347
0.000168563
-0.00176034
4.97713e-05
0.00131989
0.000390679
-0.00032803
-0.000724103
0.000767009
0.000285123
0.00103114
-0.00132811
0.00029697
-0.00036514
-0.000709917
0.00107506
0.000910558
-0.000589657
-0.00103368
0.000712775
-0.000390059
-0.000216987
0.00156004
-0.000952999
-0.000766135
-0.001225
0.000947777
0.00104335
-0.0015053
0.00137452
-2.53472e-05
0.000156126
-8.79062e-06
-0.000928966
-0.000225089
-0.000820703
0.00103525
1.054e-05
0.00156996
-0.00147632
0.000428685
-0.000522318
0.002383
-0.00237113
0.00108117
-0.00041543
0.000456038
-4.06084e-05
-0.000870886
0.000859744
1.11413e-05
-7.87659e-05
0.00109077
0.000372614
-0.00138462
-0.000691429
-0.00108951
-0.000429832
0.00221077
-0.000645616
-0.000496035
0.00224169
-0.00110004
0.00111005
0.000297671
-0.00148649
-0.000214436
0.00165445
-0.000752337
-0.000687679
0.000235514
-0.00109242
-0.000479172
0.00133608
-0.000304696
0.000187126
-0.00152302
0.00164059
0.00151777
-0.00109915
-0.000839921
-0.000626609
-0.000186832
0.00165336
0.000453115
-0.000229415
-0.000227134
3.43356e-06
-0.00177971
0.0020762
-0.000211494
-8.4999e-05
0.000581185
0.000641819
-0.000610879
-0.000612124
-0.000244371
0.00126872
2.64507e-05
-0.0010508
0.00141728
6.05109e-05
-0.00126661
-0.00021118
-0.000174638
-0.0017407
-0.000431587
0.00234693
-0.000150272
0.00125949
-0.00110922
0.001525
0.00129516
-0.00173609
-0.00108407
0.00101106
7.75305e-07
-0.00101184
0.000111295
-0.00133158
-0.0003332
0.00155348
0.00238296
-0.000340057
-0.00112004
-0.000922867
3.39371e-05
0.00239587
-4.68477e-05
0.00117153
-0.00111953
-5.19997e-05
-0.000421727
-0.000821586
0.00124331
0.00217699
-0.000580961
-0.00136805
-0.00101841
-0.000995852
0.0016742
9.47575e-05
0.000402906
-0.00157171
0.00107405
5.65846e-05
-0.00135603
0.000848335
0.00045111
-6.83074e-06
0.0011818
6.85626e-06
-0.00118183
-0.000230326
-3.16106e-05
-0.00111814
-0.000294219
0.00141236
-1.88782e-05
-0.00097021
0.000989088
0.00207722
0.000157805
-0.000133225
-0.0021018
0.000869558
-0.00161099
0.000388376
0.000353058
0.000548517
1.34832e-06
-0.000549866
-0.00158317
0.000258325
-6.39423e-05
0.00138879
0.000567038
4.19385e-05
0.00123636
-0.00184534
-0.00058284
0.000629058
-0.00174776
0.00170154
0.000174438
-0.000229342
-0.00163507
0.00168997
0.00116337
-0.00108686
-0.00249704
0.000284818
0.000736541
-0.000751322
-0.000762021
0.000776802
-0.000672315
0.000675194
-2.87853e-06
-0.00159853
-0.000564537
0.0023953
-0.000343166
-0.0014876
-0.000931061
-0.000283103
0.00126327
-4.91072e-05
0.000268381
0.00151757
-0.000581214
-0.00120473
-0.00300955
-0.00252824
0.000197075
0.00242321
-9.20518e-05
0.000179904
0.000129732
-0.0010431
0.000733464
0.00166675
-0.00153989
-0.00171993
0.00121518
0.000347947
-0.00156313
0.00173236
-0.000320356
-0.00123974
-0.000172266
-0.00103591
-5.7383e-05
-0.000699162
0.00179246
0.00170075
-0.00143858
-0.000506309
0.000244144
7.50863e-05
0.000527324
-0.00162509
0.00102268
5.34678e-06
0.000884964
0.000136058
-0.00102637
-0.000824941
0.00105041
0.000296716
-0.000522184
1.23821e-05
0.00145327
-1.14323e-05
-0.00145422
-0.00109787
0.00111026
-0.00102294
-2.07552e-06
0.00102501
-0.00167023
-0.000154175
0.000417773
0.00140663
0.00117466
-0.00114862
0.00068741
-0.000713447
0.000289991
0.00102068
-0.00110211
-0.00020857
-0.00141358
0.00206886
-0.00023813
-0.000417156
0.000823714
-0.000787129
-3.65852e-05
1.61337e-05
0.000652562
0.00171431
-0.00138061
0.00117689
0.000506904
-0.000303183
-0.000340574
0.00075888
-0.000418306
-3.5468e-05
0.00118664
-0.00115117
-0.00185959
0.000705288
0.000361786
0.000792519
-0.00333964
0.002434
0.000921777
0.00247911
-0.000296294
-0.000424076
-0.00175874
0.000992005
0.0001217
0.000634622
-2.94361e-05
-0.000665033
5.98477e-05
0.00068674
-0.000538572
2.68132e-05
-0.00159487
0.00156805
-0.002755
0.00196983
-0.000874864
0.00211038
-0.00142829
0.000192782
0.0014409
-0.00194888
0.000602731
0.0011076
-0.00202317
0.000390071
0.000525501
-0.0010291
0.00123608
-0.000206976
0.00214738
0.000449588
-5.28533e-06
-0.00259168
-0.0010316
0.00104043
-8.83478e-06
0.0028075
-0.0025166
0.0003252
0.00166258
-5.40492e-05
-0.00160853
0.00119365
-0.00121678
2.31214e-05
-0.00119374
0.000134079
0.00105966
-0.000460147
-0.00112956
0.000395965
-0.0024417
0.00160114
0.000439497
0.00040107