/*--------------------------------*- C++ -*----------------------------------*\
  =========                 |
  \\      /  F ield         | OpenFOAM: The Open Source CFD Toolbox
   \\    /   O peration     | Website:  https://openfoam.org
    \\  /    A nd           | Version:  10
     \\/     M anipulation  |
\*---------------------------------------------------------------------------*/
FoamFile
{
    format      ascii;
    class       volScalarField;
    location    "30";
    object      SgRate;
}
// * * * * * * * * * * * * * * * * * * * * * * * * * * * * * * * * * * * * * //

dimensions      [1 -1 -3 -1 0 0 0];

internalField   nonuniform List<scalar> 
59698
(
0.0162593
0.00189724
0.00239403
0.00281327
0.0305832
0.00145199
0.00258299
1.1147e-07
1.98842e-09
3.93857e-09
0.000586476
1.68081e-09
1.5895e-09
0.00237208
0.000359373
4.27973e-07
9.78332e-09
3.90152e-09
1.74464e-09
0.00019951
0.00174356
0.0142582
0.000500069
8.81925e-08
0.0422663
1.16063e-09
9.76098e-10
0.0101295
0.00916687
0.0074904
0.00481306
0.000600682
6.67402e-08
0.0164333
0.00253288
3.915e-09
0.0193837
0.0205923
1.76512e-08
0.0250208
0.00853128
2.30456e-07
0.00369945
2.44805e-08
0.000402108
0.0322104
2.40889e-09
5.1115e-08
0.00302658
3.33108e-08
3.11281e-10
2.03223e-09
0.00178309
0.00284133
0.0113908
2.06728e-09
8.76593e-08
0.000213276
1.83152e-08
0.00289265
0.0054501
6.53339e-08
0.122292
1.48534e-09
0.0124892
4.22967e-08
1.75026e-09
3.19281e-09
4.13244e-09
6.77972e-09
6.12757e-07
2.89309e-08
0.000363507
0.0424351
0.000411958
0.0394111
2.29558e-08
0.00923068
4.51932e-05
0.00616018
0.00879875
1.04873e-09
3.97973e-09
7.97677e-09
0.00843612
3.22523e-08
9.11807e-09
2.30052e-07
0.063026
2.34154e-08
4.50721e-09
0.00055651
0.0146502
6.804e-09
6.2924e-08
0.00372019
0.00525244
6.05208e-08
0.000263916
8.5961e-10
0.0764223
0.00180593
0.0162028
0.0153203
5.41822e-08
0.000564779
2.37701e-09
2.25895e-09
2.6638e-09
4.40601e-10
3.71521e-08
2.73792e-06
0.0378729
1.56285e-07
1.00782e-07
3.4979e-08
3.60439e-07
0.00366041
3.10002e-07
1.1431e-08
2.3659e-09
3.0569e-07
2.22485e-07
3.3849e-09
1.80161e-09
7.94729e-09
0.0108032
7.20407e-09
1.32781e-08
3.98507e-07
0.0452789
3.90184e-09
1.10543e-09
0.1
0.00433696
0.00402609
5.07841e-07
2.56359e-10
1.71674e-09
5.34346e-09
2.12012e-08
0.00240459
0.00258979
2.36014e-07
1.96485e-07
6.34484e-10
5.52896e-07
3.93912e-07
0.00465083
0.0292653
0.000299343
0.000434376
0.00144967
2.63025e-07
9.69132e-09
1.08286e-07
7.21805e-09
0.00168889
0.0124233
6.02606e-10
0.000868048
7.86227e-09
0.0163629
0.00162539
0.00342719
0.0345956
1.01786e-09
0.0720927
0.00200342
7.25313e-09
0.0119415
1.49531e-06
0.0108255
0.0147609
0.0790169
0.00126122
4.37966e-09
0.00144577
0.000326011
0.00930021
0.00949042
0.0184006
0.0148562
1.15982e-08
0.0456131
0.000234926
0.0114832
0.00247286
1.10858e-10
1.91645e-08
6.58632e-09
7.16157e-09
0.00266484
0.0385855
0.00411829
0.00432321
0.00984521
0.0588346
2.69449e-05
0.00773845
0.000227088
0.00617421
0.0211154
2.45674e-09
0.0105274
0.00251461
0.00614581
0.00215152
0.00781888
0.0115398
0.00251023
6.10815e-09
0.0027887
1.56742e-08
0.00404193
0.00348973
9.85877e-09
4.67745e-08
0.0128258
0.00665989
0.00561734
0.00268695
1.7294e-09
0.0664635
0.000814568
0.0264179
0.00716082
0.000113747
0.0069321
0.158751
7.57034e-09
0.00459048
0.00287125
0.00325235
9.75269e-09
0.00054128
0.0831996
2.00798e-08
1.82441e-07
0.00105257
0.00270529
0.00147669
0.0134771
0.000664542
0.00060998
2.20197e-07
0.00378644
0.229732
5.44192e-09
5.04079e-09
6.41343e-08
6.67305e-09
3.25633e-08
0.000233554
1.89601e-08
0.0017685
1.14361e-07
5.65228e-08
0.00325255
2.62099e-09
1.39847e-05
1.81047e-09
8.25391e-09
0.00281555
0.00372535
0.0478915
1.15992e-09
1.06938e-07
2.02381e-08
6.17666e-10
3.06247e-09
0.044198
0.000222292
6.49775e-10
0.0179927
5.19688e-08
0.00151598
4.06232e-08
0.00211067
1.22284e-09
0.000574138
2.10885e-09
1.56898e-09
0.105554
0.0493579
0.0201985
5.44749e-09
0.000647377
0.0734057
1.04399e-07
0.0905288
0.0024111
8.84222e-09
1.4201e-09
7.3153e-07
0.00283331
6.99279e-10
1.56797e-07
0.00417781
6.60542e-07
2.50329e-05
2.25845e-09
6.86646e-08
8.05248e-10
1.01109e-09
1.1804e-09
0.0520254
2.26491e-08
5.71087e-09
4.09795e-10
0.00196691
4.43787e-08
4.2038e-09
2.37991e-08
0.00198598
5.78567e-09
0.00040339
8.22826e-09
0.000829308
8.96531e-08
9.71448e-08
0.323868
1.66606e-08
2.91016e-09
0.0476448
0.0104147
1.59076e-08
9.41607e-09
4.45401e-10
0.000361923
0.009369
0.00226607
0.0203318
0.205945
0.000430956
0.000251338
7.80775e-09
4.22216e-09
0.00910625
0.00448594
0.000142414
0.00215857
0.00259022
0.000127581
9.70096e-05
1.2803e-09
0.000214937
0.0393602
1.55923e-09
0.00204815
0.0080371
1.34711e-08
0.0402322
7.9539e-10
0.245462
0.00216931
0.0141798
1.46156e-08
3.26581e-08
1.82636e-09
2.21759e-08
1.03509e-08
1.10641e-07
0.000203066
1.32117e-10
1.04128e-07
0.00289848
0.00206959
2.95764e-08
0.00167218
0.00188663
0.000533993
0.00379125
0.000651131
0.00601941
2.97756e-09
3.77444e-08
2.17049e-09
0.000460537
2.48946e-09
0.000347124
4.64637e-08
4.49749e-08
4.68084e-05
8.32198e-10
1.96126e-05
1.14624e-08
0.000544828
8.39621e-10
3.61649e-08
2.30423e-08
0.000457464
0.00343424
0.00257821
0.001338
0.00227089
0.0480427
0.00189291
0.00278883
8.33585e-08
0.00284728
0.00280957
0.00266166
5.14623e-09
0.0015384
0.0043302
0.0859375
0.0280527
0.000936978
0.00543133
0.0317184
0.0004043
0.00170776
0.000434527
4.88408e-10
0.0592331
2.02514e-09
0.0103725
0.00240215
0.0018384
0.00304225
0.00226106
0.00255903
0.310238
8.37405e-09
2.23128e-09
7.7907e-09
1.52871e-08
0.00143494
5.52831e-10
0.000213358
0.0021477
0.0163241
2.00136e-05
0.00213025
1.42533e-08
1.38803e-08
0.213316
3.51817e-09
0.00317864
1.92332e-07
0.003311
5.12179e-09
4.52689e-08
1.92559e-07
0.00240763
0.0700199
4.52028e-10
2.14957e-09
0.00906362
0.00263003
6.69795e-09
7.40164e-08
0.0328314
6.39692e-07
1.16964e-07
0.108475
1.39981e-09
0.00960065
1.71174e-07
0.0543056
4.42569e-09
0.0156858
0.0133266
2.19708e-09
2.1327e-07
3.58768e-07
0.00522996
4.52981e-08
0.00725071
0.0025791
4.42612e-09
2.0111e-10
6.89656e-09
6.37511e-08
2.09948e-06
0.0011253
0.0690836
0.00312137
0.00202113
2.44733e-08
2.2797e-07
1.49623e-08
1.93159e-08
0.00537925
4.06125e-08
4.52941e-08
1.98926e-08
0.0658729
0.000156638
0.0231955
0.0665098
0.00109489
4.33666e-08
0.0584897
2.20643e-07
1.58844e-08
0.00245523
0.0094174
0.000365618
9.69533e-10
0.0643936
0.00713873
2.65475e-08
1.71054e-08
1.12049e-09
8.41115e-08
2.17036e-09
5.08624e-09
0.00315484
1.3939e-08
0.0748107
0.00737886
5.41922e-08
0.00673658
2.56124e-09
6.88063e-09
9.70687e-09
7.04607e-08
2.48669e-08
0.00545431
0.00293642
4.87311e-09
3.8772e-09
2.184e-09
0.00126339
0.00357153
2.41894e-09
0.0107098
0.00389763
2.95494e-09
0.0426696
1.82751e-08
5.07356e-09
0.00150514
3.56568e-10
1.35524e-08
0.00185619
2.02612e-09
0.000384876
0.00966837
2.34606e-09
4.52729e-08
0.0677487
0.00808663
0.0135269
0.010039
0.0001734
0.0116403
7.7916e-06
1.86536e-08
2.28178e-09
3.17763e-08
1.91163e-09
5.43487e-09
1.4314e-08
1.92267e-08
0.000146725
0.000475385
2.66439e-06
0.0007685
1.72021e-09
1.58455e-08
9.18415e-05
1.51654e-08
1.80815e-09
0.0744101
2.28807e-08
1.2269e-06
0.000539254
1.13669e-06
7.73387e-09
1.91929e-07
1.63183e-09
4.49704e-08
1.34549e-09
2.78129e-10
0.000481356
0.00313477
2.31754e-09
0.000732638
4.09883e-08
0.00521064
1.46842e-08
3.4139e-09
0.000313339
1.28566e-09
1.25412e-08
0.00419694
1.68824e-08
2.07819e-09
0.00350516
7.91175e-09
1.62657e-08
8.52712e-10
4.2033e-08
9.25568e-07
0.00434144
0.000349776
7.26596e-09
1.71011e-06
1.70178e-09
2.70638e-09
0.00349956
1.3856e-08
4.60185e-09
2.27544e-09
0.00108763
0.00396347
1.50183e-08
1.24479e-08
1.62121e-09
1.07729e-08
4.53498e-09
4.47168e-09
5.36603e-09
4.83942e-09
0.225536
1.87952
7.08824e-09
5.02909e-09
8.08207e-09
1.85563e-08
0.000931995
0.00252247
1.14549e-08
0.00709926
1.67554e-09
8.99292e-09
4.32781e-09
0.00317868
0.00021122
1.25749e-09
8.50691e-09
8.8885e-10
2.81545e-08
7.33394e-09
2.84688e-09
0.00157008
0.109366
1.37939e-07
1.65248e-07
0.000607897
1.44938e-09
5.32253e-09
0.00338443
4.25702e-07
0.00218818
3.55174e-08
1.74952e-09
0.000439476
7.36495e-09
0.00827404
4.276e-09
2.2689e-09
4.46244e-09
8.95445e-10
7.86155e-06
0.000320083
0.00187962
5.13355e-08
1.15909e-07
0.000887127
0.0198781
0.0902116
1.39316e-05
2.24761e-08
0.00239424
0.00320914
0.0414967
3.86334e-09
7.8455e-07
1.88972e-09
0.00356589
3.13873e-10
1.83289e-08
0.000428465
0.00267551
0.0473133
1.52309e-09
2.0397e-07
6.10463e-07
3.53434e-07
0.000378103
0.00143855
1.22655e-10
6.28517e-09
1.08618e-09
4.70757e-09
0.0114051
0.00420368
0.0393318
1.05785e-08
0.00135423
0.0021527
0.00245336
6.41564e-08
4.23581e-09
0.000650627
1.25261e-09
2.29662e-10
9.99614e-10
6.6795e-06
1.86698e-08
5.01011e-09
1.49543e-09
0.00634365
6.93762e-08
8.56247e-09
2.72216e-09
0.00193343
4.17911e-08
3.68274e-08
0.000362151
9.8513e-09
0.00195628
0.00925456
1.91898e-09
1.3726e-09
0.000646937
0.0622822
0.00321693
3.80055e-09
1.05077e-08
0.000886663
0.0256611
0.00889807
1.3388e-09
0.0557095
2.63788e-08
0.00257405
0.000344566
0.00939937
7.17596e-05
1.48081e-07
0.0112016
0.00444894
0.000532173
0.00309423
0.0597373
3.96862e-09
7.12556e-08
0.244647
0.0023263
0.000321952
1.25419e-07
0.00190365
0.00176089
2.54289e-08
0.0151352
2.12318e-09
0.0599221
1.81406e-06
0.0246613
6.85233e-10
6.40202e-09
0.104887
0.237916
0.000599772
1.13632e-07
0.0501237
0.000383647
0.00225656
0.0051718
0.00196693
0.0083894
0.00407547
8.22833e-09
0.00040156
0.00195988
0.0142486
0.000373922
3.50646e-10
0.0027395
2.53708e-09
0.00436256
1.88011e-07
4.13771e-09
0.00608622
0.0052059
1.23468
3.75442e-09
0.0247167
0.0096568
0.0210596
0.00016543
0.00472152
0.000326092
0.000987526
0.00158695
0.00145236
0.00659375
0.0111193
0.10394
0.00193743
0.00544186
0.000541569
6.91711e-09
0.000383067
1.28393e-08
2.86905e-09
1.57918e-09
0.00324285
3.95471e-07
0.00950649
0.000214065
6.65197e-08
0.00162608
1.69602e-07
0.00688067
3.55253e-09
0.00100439
3.34959e-09
0.00130409
0.000117456
0.0137141
0.000651796
0.00185322
0.0199748
0.209602
3.89041e-09
0.00876417
2.58682e-08
0.00071332
0.000444785
0.000428799
0.00217208
3.67987e-08
0.00751605
0.000561237
0.00633868
0.00235274
6.34979e-10
0.000401156
2.37804e-09
2.8307e-09
3.33787e-05
0.00050364
0.00027499
0.000318106
7.6927e-09
5.05361e-09
1.86023e-09
0.000487182
2.01646e-09
0.00361204
0.00489816
3.13995e-09
0.000499713
0.00409846
1.04783e-09
2.92943e-09
0.0158963
0.000469632
2.98838e-09
1.2922e-09
0.0356403
0.00484031
1.15868e-07
3.8511e-09
3.09959e-09
0.0105856
2.63811e-07
0.00981589
1.07039e-08
0.000532568
8.30507e-10
0.000128447
2.86644e-10
2.47096e-09
0.0012807
1.50875e-09
0.00893917
8.98257e-08
6.3118e-06
0.000108824
1.2675e-08
0.00161937
0.000166964
4.03471e-10
0.00179964
5.96273e-09
1.06809e-08
0.00030713
1.24553e-09
0.00212859
1.738e-08
1.66288e-09
0.00438431
3.05394e-09
5.61045e-09
0.00372218
0.0182608
0.000319936
8.34666e-09
0.00293529
1.69178e-07
0.00460604
0.000633468
0.000584029
0.00448082
2.04082e-09
0.000379941
0.00245071
7.1158e-09
8.57558e-09
0.00261923
1.1856e-08
3.16078e-09
0.0654979
0.000412256
0.00149975
0.00271669
1.49195e-07
2.03727e-09
0.00276265
0.00414678
0.00538667
0.0202127
0.00399698
1.66471e-07
0.040797
0.000285685
2.90054e-08
0.115377
2.833e-08
0.000470586
0.00176754
0.0324914
0.0585298
7.36616e-09
0.00273433
1.66634e-09
0.0247168
0.00127835
2.90045e-08
0.000301563
3.86414e-10
0.000761136
0.0024456
3.11685e-09
0.00220794
0.00678388
0.0028159
0.00328204
3.05714e-08
0.0251102
0.00074084
2.00066e-08
2.49043e-08
0.000825766
2.92831e-08
0.00227451
1.90171e-07
2.05083e-07
3.65512e-08
0.00552481
0.000295116
4.50531e-09
5.27226e-09
0.00542475
1.45809e-09
1.228e-08
0.00961435
0.00173868
8.72858e-10
1.93178e-09
7.8247e-09
0.00121349
3.6363e-08
2.38951e-08
7.53654e-09
0.000429218
0.00363079
0.000466222
6.36429e-08
0.0140154
0.018682
0.0177909
2.10695e-09
0.00190987
0.0029505
0.00271157
0.00277135
0.00289468
0.00174743
6.0106e-08
0.00608954
2.1652e-07
0.0110501
0.0565161
2.75127e-08
0.000443705
2.20121e-08
0.000538422
0.000105346
2.63411e-08
0.00228181
2.06021e-08
0.000608724
6.88537e-09
1.51094e-08
1.18422e-09
4.12036e-08
0.00158903
0.00377425
0.0472652
0.000395621
0.00195827
0.00140249
0.0230318
5.65972e-10
1.04295e-08
1.21989e-09
0.00462055
9.87441e-10
1.34839e-07
0.00470913
5.98356e-09
0.00359758
0.00356811
0.00379005
0.00551612
0.00948168
0.0101092
0.00814723
0.00529366
0.00583598
1.29837e-08
5.87114e-09
0.000475257
0.00589575
0.00431368
2.87151e-07
5.31115e-10
0.00168219
0.00396886
4.39287e-09
6.28335e-08
2.64529e-10
0.0149444
3.69799e-09
0.0407096
0.00319354
0.734926
8.6356e-10
1.56075e-08
0.00217558
0.00317344
1.78373e-07
0.000760591
1.05517e-08
0.00695027
0.00371464
2.3667e-08
0.0067678
0.000542247
1.0485e-09
0.0197045
0.000765799
1.80318e-08
2.40112e-08
0.00260146
6.57682e-09
1.32015e-08
3.11888e-09
0.000534606
0.00811228
0.00200751
0.0922341
9.38031e-09
0.00181847
0.081907
2.54588e-10
0.00874723
2.1202e-09
0.0252649
0.00133338
2.91218e-09
8.78233e-10
1.1786e-08
6.16737e-09
1.54743e-08
4.9048e-09
1.31652e-08
1.03722e-06
9.4319e-10
1.34194e-09
0.00176178
6.35399e-09
0.00977066
2.94051e-08
0.00217734
0.000527984
1.21538e-06
0.0366436
0.0542511
3.03862e-05
1.93206e-06
0.0042668
0.459117
0.0239414
0.0262567
2.49261e-08
0.000449091
0.102682
7.89555e-08
2.28856e-07
3.70725e-09
0.0167198
5.50269e-09
1.60245e-08
2.1322e-08
2.79532e-07
2.99268e-08
0.00462225
0.00903558
2.94677e-07
5.6186e-07
5.2295e-09
0.000477736
2.27389e-09
4.91171e-09
0.00363123
2.50087e-10
1.54001e-09
6.83538e-09
3.46824e-07
1.37925e-08
0.117587
1.18822e-08
5.84578e-07
2.49073e-09
0.0056551
1.20607e-08
0.00110668
8.5461e-07
0.000380629
0.00250595
1.57833e-08
8.20491e-09
0.0030672
1.7098e-09
0.0186248
0.0122275
4.94419e-09
0.00115552
0.0840103
0.00295225
0.00436603
3.16947e-08
2.25344e-07
0.0037304
0.0363916
0.00890968
1.7158e-06
3.7729e-09
0.00193858
0.0019562
0.000209386
0.000326963
0.00105961
7.54846e-09
0.115928
0.0513442
0.00113821
3.65687e-08
5.34824e-08
0.00315979
0.00253904
0.0260139
0.000148309
3.42032e-08
6.77987e-05
4.5806e-09
2.89857e-09
3.60498e-05
4.22208e-09
3.89925e-05
1.92291e-09
1.29455e-08
4.00423e-05
3.17538e-09
0.0193647
2.76194e-09
0.000434431
6.37634e-05
0.00420435
0.00204752
5.51269e-05
0.0118663
0.000579702
0.000345167
2.79576e-08
2.37235e-08
9.25315e-06
2.32483e-09
1.98052e-09
2.3735e-08
1.66219e-08
0.000781455
0.000646981
9.8507e-09
1.2222e-08
7.82483e-09
3.4451e-07
0.000321886
0.00275962
0.0004964
4.48803e-05
0.000238787
7.34275e-09
0.000315401
0.000231945
0.000223588
0.0038889
0.103314
1.90436e-09
0.00478492
0.00157846
0.00414363
4.89743e-09
4.27479e-08
7.07533e-09
0.00841055
0.0200799
0.00484954
0.00235604
2.22975e-08
3.07238e-08
0.000377614
0.00480661
0.00941298
1.04084e-08
0.00313414
0.00287809
2.09343e-08
0.00358456
0.00264134
0.0145372
0.00194835
0.00158215
9.92901e-05
4.65172e-10
1.39121e-09
5.27168e-05
0.00566994
1.35753e-08
6.11197e-10
2.22359e-08
0.00502536
9.89578e-09
6.65985e-08
1.76502e-08
5.74112e-07
0.00198837
3.08312e-09
1.63882e-08
5.63079e-08
0.00208974
0.0283829
0.00203914
0.00122252
3.04326e-09
2.25163e-07
1.52805e-07
0.000983777
0.0146388
3.21989e-10
1.22076e-07
0.00120703
1.2268e-07
0.00088204
3.22941e-09
1.5125e-07
6.88498e-09
9.02504e-08
7.64352e-10
0.000584267
5.22975e-08
0.00213544
1.29007e-09
5.71806e-08
2.64697e-05
1.07416e-08
0.00539477
5.35457e-09
6.51197e-10
0.0476293
4.33024e-08
4.83597e-09
0.000283464
6.10865e-08
7.64063e-08
0.00054725
3.10014e-09
0.000563699
3.16244e-08
0.00095485
0.000346305
0.00275014
0.00429451
4.05593e-07
3.23256e-07
0.062522
0.00246839
2.10587e-07
0.00405601
0.00289985
0.00635283
7.97229e-05
2.15831e-07
0.35271
3.98766e-09
2.47818e-08
2.95226e-08
0.025344
0.00302078
0.000635588
0.00049219
2.80161e-09
0.0032164
0.0365141
0.00399917
0.00867813
0.0142388
5.59696e-08
0.000340344
1.65823e-09
4.17677e-09
0.00828933
0.000746716
0.0749571
4.15449e-10
0.000476353
6.36106e-10
0.000532966
0.000313622
0.000126886
0.0105272
0.0180463
0.000544623
0.00185418
5.35453e-10
6.02781e-09
2.77189e-09
0.000988949
0.00200494
6.16203e-09
0.000803615
0.00746959
0.00763607
5.34876e-09
0.00170371
0.00277108
1.40873e-09
6.42132e-09
0.000432449
0.0137622
0.0115887
0.00500945
0.0473648
0.00263758
7.54473e-09
0.00444075
4.05195e-09
0.000681522
2.87833e-08
0.022324
1.52254e-08
0.0205918
0.0116011
0.0341423
1.82256e-09
0.10093
0.00882863
0.00174844
0.0046526
0.0649256
2.17963e-09
0.00283043
0.00246545
0.00229171
0.00800775
3.82317e-09
1.1268e-09
3.33947e-08
0.00203454
0.0248849
0.293001
6.35632e-10
0.00898239
3.35816e-08
0.00126189
0.000444879
0.18968
2.42928e-08
0.286751
0.777533
0.000103938
2.22458e-09
1.89073e-08
0.00136786
0.00897861
0.00560589
0.0101487
0.0622776
0.0342251
1.2091e-08
0.00163675
0.0102527
0.0113403
1.2167e-08
0.000524885
0.000427673
0.000358385
0.000425719
0.000637652
0.138427
0.000273758
0.00292414
0.000398953
0.00308062
0.00201863
0.00221777
4.55172e-10
0.47788
0.0313762
0.184726
0.149015
0.00218224
2.01938e-09
0.00662057
1.53189e-08
3.30202e-07
0.000761567
0.0852355
8.99203e-10
0.00178828
1.45922e-07
0.000207822
0.0164325
4.23681e-07
0.00853895
4.01434e-07
2.20028e-07
0.00156869
0.000612289
0.00112356
0.0130129
2.92527e-05
0.00245645
0.00136291
0.0177994
4.84712e-09
0.000502803
0.00155117
0.015203
0.00164609
2.40631e-07
0.00224568
0.0314659
4.35645e-09
4.93921e-09
6.94004e-09
0.00152612
0.00183427
0.00307976
1.45085e-08
3.09206e-05
4.23369e-07
0.000298094
0.00380492
0.00140457
8.22683e-08
0.00268923
8.14275e-10
0.010742
0.00112948
0.000804531
0.00190109
0.00169598
0.00952425
6.36696e-09
0.0137922
0.000300803
0.000423319
1.17752e-09
0.00037871
0.00040541
0.000581335
0.001986
3.3888e-07
0.00163302
0.0094823
0.00174722
0.000460548
0.0187184
0.00225145
0.00129995
0.0145451
0.00743694
0.0122265
0.013128
0.006272
1.64006e-07
0.320902
0.0622544
5.47022e-08
0.00057342
0.0148278
2.73202e-09
0.0242471
0.000103601
0.000403296
0.0141919
2.81599e-07
7.74489e-05
0.000614671
1.82295e-08
9.24934e-05
5.2434e-08
0.031277
0.357815
0.000167665
0.0573163
8.41764e-10
0.000256112
0.00447782
2.52356e-05
0.102977
0.00253228
0.00169265
0.000469552
2.47336e-09
0.00343148
0.00288709
5.12509e-10
0.000489113
0.0266713
0.00061878
1.95268e-05
0.061867
5.12428e-07
4.59482e-05
7.81277e-11
0.000345763
0.00240644
6.56425e-09
1.23134e-09
0.00218476
1.11103e-08
0.0024842
3.53756e-08
1.8775e-09
7.87619e-08
0.00364349
0.00209945
2.74328e-08
5.46563e-10
0.00221536
2.03175e-07
0.00277812
2.84775e-09
0.0320822
4.54832e-08
7.51724e-09
2.75024e-09
0.00169217
0.0371195
5.05026e-09
2.79724e-07
0.000274719
0.00245556
0.000453101
1.44348e-08
0.296612
2.56782e-09
0.000232071
0.00234642
9.20883e-10
3.749e-09
3.97745e-08
3.42921e-08
0.00050253
2.74706e-07
0.000529724
1.99037e-07
6.38247e-09
5.87713e-11
0.0115781
0.000221123
0.000394063
5.97537e-09
0.00395138
0.00252593
0.0444961
3.09458e-10
3.44165e-09
9.29999e-09
4.79324e-09
1.8236e-08
0.00277921
0.000619986
0.000514079
0.000120106
0.000348199
0.00038168
2.93857e-09
4.27051e-08
1.19077e-09
0.0226459
1.88497e-08
0.00856246
1.09603e-08
0.0155547
0.00115985
1.88685e-08
7.9476e-08
0.00439666
1.8386e-09
0.00421318
0.0192584
0.00226884
4.88614e-09
1.47956e-08
4.15355e-09
1.47202e-08
2.11868e-08
0.00387115
0.0162747
1.16962e-07
0.010412
1.01895e-09
0.876033
0.441437
3.62254e-09
0.0410524
9.40496e-05
9.88132e-09
0.00875174
1.03116e-05
0.604122
0.0438876
0.00759612
4.01805e-09
0.0283283
0.392746
0.0029155
0.0250275
0.00412917
0.00221347
0.123127
0.0440893
1.03554e-08
0.00095603
0.0259546
0.0487542
2.09695e-08
0.000478539
0.0333405
1.99366e-09
0.0140333
1.0826e-08
6.44594e-10
0.00659959
9.14557e-10
0.00421521
0.00391811
2.47556e-09
0.00012693
3.37013e-09
1.08466e-09
0.00785848
0.006025
2.8251e-09
5.55741e-08
0.00176576
0.00228497
0.0040883
0.000384391
0.0115222
0.0637627
1.82073e-08
0.0332383
1.10421e-09
0.00328333
9.4028e-09
0.00384032
0.0302992
0.00410094
1.15161e-08
0.0273351
2.41423e-09
3.72398e-09
2.95485e-09
0.000259092
0.000626651
0.00753697
0.0259415
0.0146669
0.00737041
0.00547819
3.47753e-09
1.35282e-08
2.98022e-07
1.0268e-08
0.00425393
2.80532e-06
0.00316846
2.4126e-08
7.63596e-09
0.0015925
0.00149234
0.00180506
1.70627e-08
0.010206
0.00194097
1.70732e-09
0.00341766
1.56767e-07
0.00183826
0.000459312
0.00681492
0.00238528
0.00509675
0.000439777
0.00620636
0.00224187
1.89463e-08
0.00245118
0.00311726
0.00186896
2.48438e-08
4.32442e-09
6.2728e-09
8.61307e-10
0.0345031
0.00179641
0.00284324
0.00184176
2.97954e-09
0.00334252
0.00834338
0.0022811
0.00258064
6.3799e-09
3.757e-08
0.00170911
3.6673e-08
1.31603e-08
4.19592e-05
4.17352e-10
0.00264545
0.00204726
0.0290215
0.00167224
4.40851e-09
0.00298762
6.72956e-09
0.00426531
7.17341e-08
3.25663e-07
0.00036109
0.00279982
1.49705e-08
8.4815e-09
0.000920439
0.00594031
3.5145e-10
0.0199613
0.00613865
1.2054e-08
3.56108e-08
0.00159851
1.22335e-07
1.53031e-09
5.3412e-09
0.0219137
1.72513e-09
0.03767
0.00194127
3.44683e-08
5.27015e-09
6.76173e-07
3.04365e-09
8.30402e-08
0.0138262
0.0231739
0.00207068
0.0117546
0.00153848
1.70533e-08
8.82251e-08
0.0143895
6.23725e-09
0.00163039
4.91075e-08
0.0823327
0.0419138
2.86179e-08
0.00243781
0.00154738
1.94175e-09
3.20194e-09
0.0337957
0.00867053
0.0158522
7.47292e-09
4.29221e-07
4.98579e-09
0.0194646
2.49567e-09
1.57274e-09
6.54855e-09
1.68011e-08
0.0202526
7.59711e-09
0.000394521
0.00444136
0.00150006
0.00265751
0.00160652
0.0237016
1.14799e-08
0.00208219
0.0199796
6.69287e-09
0.000410059
1.35763e-09
1.4511e-07
0.00242322
0.0133965
1.34923e-07
2.30271e-08
4.40867e-08
0.00141191
8.60002e-09
1.10188e-09
2.11625e-07
2.6518e-09
4.85483e-07
3.79977e-05
0.0116057
0.00500025
4.36306e-08
0.000460516
0.000294168
0.0623099
4.04931e-10
5.01962e-09
0.0180645
4.03644e-09
0.00188584
4.21505e-07
0.000518173
1.49307e-07
0.0181923
1.38076e-07
0.0228912
0.000659324
0.0500774
0.0142411
4.07069e-08
0.0256733
0.00338705
0.0893926
0.00773464
5.64186e-09
2.62402e-09
0.25627
0.00259517
0.00109542
1.40013e-09
0.000160749
0.00336205
0.0307801
0.0108837
0.00288151
0.144371
0.00273436
1.35712e-09
0.0177495
0.0642029
0.0347572
8.42568e-09
0.00261817
4.70584e-09
0.00285921
0.00107096
0.0189514
0.0197439
0.00133082
0.0524004
0.0230364
0.00173343
0.00262121
0.0137076
0.00237057
0.000710478
0.0503968
0.00260897
0.000114744
0.0106826
0.0108807
0.0218744
0.00261522
0.00027041
0.00277427
0.0149337
0.000357982
1.12022e-08
0.172778
0.00336899
1.20667e-08
0.00160615
4.68627e-05
7.39343e-07
2.63913e-09
0.0186579
0.00261789
0.0141084
2.77732e-09
0.00566939
1.12471e-08
0.0164942
0.000301385
3.00247e-09
0.00874708
0.00251967
0.00661417
0.0040486
0.00210862
0.0159313
6.8296e-09
0.0156994
0.00660907
0.00930538
0.056239
3.13906e-08
0.0293592
0.034654
0.0170143
0.00114223
5.04629e-08
0.00284679
0.00096378
3.95307e-08
0.00283258
3.16889e-08
0.00134779
9.86483e-09
1.33497e-07
0.00244784
3.15114e-08
2.21297e-08
0.0537422
6.09823e-09
0.00275988
1.3934e-09
8.22817e-09
1.00091e-09
9.34093e-09
0.00246168
0.0299769
1.39725e-09
2.63345e-09
1.42987e-08
0.013807
0.00265507
4.76515e-09
4.45506e-09
2.41023e-09
0.034601
0.0068346
0.000684607
0.00229418
0.0032076
1.05674e-08
6.61922e-09
0.0027764
0.000429645
6.72616e-07
1.53369e-10
9.40666e-10
0.0019044
0.0023617
0.000159133
0.00863746
0.103093
0.000239706
8.24497e-10
0.00356755
9.6132e-09
0.0143413
0.0024386
1.80746e-08
1.92173e-08
5.58781e-08
9.50213e-09
0.0100962
0.0746147
0.0446997
0.00150709
4.30604e-08
5.62331e-08
5.61804e-09
0.00267607
0.000164046
1.30743e-08
0.00368638
0.0141902
0.00192358
1.78913e-10
0.0025753
0.000419083
0.0298663
3.56925e-09
3.70095e-08
0.0110609
0.00259046
6.13161e-09
0.00464321
0.000613263
1.12818e-08
7.31668e-09
0.00241537
0.0227152
3.66123e-10
3.14968e-08
5.92132e-09
0.00694845
4.55641e-07
6.32924e-08
3.50295e-09
4.19656e-07
0.00953611
9.35038e-09
0.0286035
1.0328e-09
3.50175e-08
0.00240226
8.18747e-10
7.28503e-09
0.000709237
0.000600459
0.0023967
7.1959e-07
0.00128714
2.14179e-09
8.34172e-10
0.0027267
0.00263951
0.00339888
0.301279
0.00163952
7.50427e-10
0.00222898
0.00303557
7.5918e-09
9.76586e-09
0.00402761
0.00217875
0.00320934
3.20422e-07
7.0995e-09
0.0140277
1.22699e-06
0.111805
9.0375e-09
0.0100999
0.0104128
0.0123024
3.45536e-09
1.04575e-09
6.60412e-09
9.16126e-09
4.0109e-09
5.06575e-09
1.56845e-08
0.0114783
3.21302e-11
3.37043e-09
0.00366483
6.04759e-09
1.39073e-09
0.0150422
0.00196454
0.00289144
4.52439e-09
0.00230902
1.47239e-08
3.06626e-09
4.86892e-09
0.0243738
0.0131881
0.0102766
8.74182e-10
1.05014e-08
2.15224e-09
8.30143e-09
1.70586e-09
1.34881e-08
1.41328e-07
0.00164263
0.0109643
0.00186022
0.00145442
0.00184842
0.00227146
0.00232119
0.00176661
4.52996e-08
0.000991761
3.0518e-09
8.3005e-09
7.6069e-09
1.393e-06
0.00142181
2.9982e-08
3.52025e-08
7.5459e-09
2.46097e-09
2.59268e-09
7.62947e-07
3.15501e-06
0.0537551
0.000327437
1.73278e-09
3.69364e-09
0.00294821
2.65501e-09
0.0019211
1.13526e-07
0.000265476
7.52322e-07
0.00105424
0.00107476
0.0192976
5.43798e-09
0.00100516
0.00119016
0.0512025
1.1351e-09
0.00114511
3.58688e-10
4.18309e-08
0.00372703
3.0306e-09
0.00137993
8.71346e-08
0.00223779
0.0192154
0.00126189
1.56107e-05
0.00860051
0.00240116
0.0108683
0.00350726
0.00162756
2.06661e-08
0.00507363
0.0297282
8.16861e-09
5.10294e-10
0.0635687
0.0088714
0.00644315
6.50231e-07
0.0655314
0.00211792
0.0152519
3.43083e-09
0.0172806
0.00315789
0.00141682
0.00245281
0.00243198
5.40809e-09
0.040223
0.014609
0.0145518
0.00314742
6.44625e-09
0.00153812
0.00333256
0.00096446
3.29299e-09
0.00166387
0.00313791
2.97582e-08
6.95197e-10
0.00174255
0.0360933
2.66947e-09
4.89048e-07
9.76165e-08
0.000406788
7.3776e-08
5.7432e-08
2.56857e-07
2.81128e-07
9.62195e-08
0.014064
5.16544e-09
1.21491e-08
2.19065e-09
2.0491e-08
0.000397875
2.44457e-10
2.07318e-09
0.00206999
0.00293902
3.49847e-10
2.50073e-08
0.000667856
3.21922e-09
1.39644e-06
0.0167953
2.48096e-09
0.00328148
0.00156125
0.0015038
0.0016839
0.006957
0.0042679
0.00110663
0.00390927
6.14886e-10
0.00235401
0.00436223
3.62129e-08
0.00755587
5.70521e-10
0.00305669
0.00188166
0.100179
6.04736e-09
1.25107e-09
9.95602e-09
9.04407e-09
0.0013923
0.00297285
1.30799e-10
3.0026e-09
2.53297e-08
0.00539576
4.05774e-09
0.00292035
3.52038e-07
1.76426e-09
0.00949737
0.00249951
3.52723e-08
0.00221654
8.41769e-08
0.00395587
0.00330685
7.96596e-08
2.28861e-09
0.00365735
8.77292e-09
8.51844e-07
0.000344637
1.58163e-08
0.120094
0.00158029
9.1376e-09
0.00310996
5.52731e-09
0.0117765
3.51965e-10
7.25056e-08
7.60986e-09
4.82393e-09
1.56192e-08
1.04297e-08
1.80116e-08
0.00303007
2.17463e-08
2.48881e-08
4.81789e-09
0.0185813
0.000397482
8.27041e-09
1.04615e-08
0.0022644
8.06559e-09
0.00303321
0.00452468
5.00183e-09
0.000360673
2.89554e-09
3.36667e-09
2.71094e-08
0.0121573
3.08335e-08
0.00158164
0.00209649
1.12525e-07
0.0843984
8.64748e-08
0.00318121
0.00110977
4.80896e-08
0.0023745
0.00453455
0.0264347
0.0111857
0.000410461
6.60499e-09
0.0374771
0.0398138
0.000563896
0.0179483
0.00261177
2.63277e-10
2.46372e-09
0.00063645
0.000341715
1.5717e-08
0.000460461
0.00438261
1.07448e-07
0.00118257
2.79188e-09
4.08796e-07
0.00595369
5.17988e-09
0.00251797
1.32146e-08
1.39021e-08
0.000201344
1.22015e-07
1.66074e-09
0.999615
3.05247e-08
0.0194114
8.14453e-08
1.68161e-07
0.000297091
0.0179516
4.30661e-08
7.09291e-09
0.0024338
0.00562732
3.70008e-08
2.3354e-08
1.30998e-08
3.07561e-09
3.15817e-08
1.11826e-08
0.00247383
0.00447792
6.73869e-09
2.32179e-09
0.0197298
6.477e-09
0.00254905
0.000394485
1.86857e-09
1.88076e-08
1.6854e-08
0.00236621
0.00924514
0.0125182
0.00658408
0.00173327
2.39485e-08
5.14544e-09
4.27269e-08
2.62906e-08
0.00266825
5.4316e-08
0.000310599
9.29027e-07
1.24368e-06
0.00328806
0.00267049
1.15998e-06
0.00315315
1.07738e-09
1.47541e-09
0.0225743
5.04546e-09
3.30367e-09
0.00186903
3.50793e-08
0.00991065
0.00385125
1.41009e-08
0.00709325
0.00311458
1.42657e-08
0.00330166
1.43791e-08
1.31613e-08
1.82882e-08
0.00361604
0.012865
4.63607e-08
0.00613815
0.00160831
0.152039
0.000167541
0.00369993
6.55735e-09
0.00310821
7.98578e-10
8.65697e-05
5.50111e-09
0.0221697
8.11942e-09
0.00230827
0.0026189
0.00319726
0.00688666
0.00215931
0.00220672
0.0168889
0.0067064
8.03124e-09
1.29311e-08
0.0122394
1.4739e-07
2.94228e-07
3.48418e-09
0.00291765
3.53595e-08
1.2085e-09
9.46138e-10
4.67164e-09
0.00140925
0.00206124
3.53741e-08
0.00343208
0.0010037
0.000624969
3.47653e-09
3.40234e-09
0.00182096
0.0183959
6.86039e-08
3.88524e-09
0.00712727
1.64289e-08
0.031397
2.6382e-07
0.00705899
5.77723e-10
1.3483e-08
1.50832e-09
1.40615e-08
3.80545e-09
6.05787e-08
2.70258e-08
0.00365947
5.70682e-07
0.0373672
1.2556e-08
0.00806635
0.00216926
0.00746504
0.00333007
0.0148252
0.0174397
0.00139623
0.0097537
8.2853e-08
7.66282e-07
0.00134986
0.00181217
8.27592e-09
0.00380739
2.34915e-08
0.00286577
1.02169e-08
1.70918e-08
2.85776e-09
0.00269998
0.00132549
0.000427405
0.0265242
2.18005e-09
0.00133819
5.25895e-09
4.13382e-09
8.95094e-09
5.69679e-09
0.00245341
0.00209681
1.79145e-08
0.000805962
0.00312295
3.87545e-09
0.015728
0.013279
6.16336e-09
2.39404e-08
0.00164042
8.50641e-09
3.65009e-08
1.263e-09
0.000328787
3.60195e-09
0.00235064
5.38219e-09
0.00531349
0.000526666
0.00118052
0.000533569
0.00837079
6.11113e-06
0.00868401
2.46391e-08
0.0539005
0.0219452
0.0972381
0.00189265
1.1545e-05
1.71369e-09
0.000277934
6.23772e-09
0.0101353
0.0300548
0.0247178
2.25811e-08
1.17702e-08
0.00781152
7.31301e-09
0.0174229
0.301683
0.0174763
1.42133e-08
8.97885e-09
0.0161674
0.00159612
2.83125e-07
8.90009e-09
0.161686
1.37396
5.41321e-09
5.51883e-08
2.05836e-08
0.00484964
5.19194e-07
5.87141e-07
6.07219e-09
1.28881e-08
0.00232353
1.20453e-09
0.00230298
5.07658e-09
0.00243511
0.00273805
0.00255849
1.21156e-09
9.49441e-09
7.07764e-09
0.00455894
0.0147852
0.00402145
0.00258579
2.35272e-08
0.00160012
0.00137076
1.45715e-08
2.13878e-09
0.00886518
5.27215e-09
0.0312064
9.32826e-10
0.0485495
0.0150216
0.000249872
0.00289211
1.68367e-09
0.00234754
6.32417e-08
1.11679e-08
0.0839278
2.13251e-07
3.11101e-08
8.2774e-06
0.0039582
0.00348485
0.00152091
0.00100345
1.5406e-08
3.46196e-09
0.00104053
4.9613e-07
1.52335e-07
0.068228
0.026491
1.62073e-09
1.31828e-09
0.00243534
0.0669145
0.0119712
0.00407679
4.28587e-09
0.00720754
0.00267636