/*--------------------------------*- C++ -*----------------------------------*\
  =========                 |
  \\      /  F ield         | OpenFOAM: The Open Source CFD Toolbox
   \\    /   O peration     | Website:  https://openfoam.org
    \\  /    A nd           | Version:  10
     \\/     M anipulation  |
\*---------------------------------------------------------------------------*/
FoamFile
{
    format      ascii;
    class       volScalarField;
    location    "8.7";
    object      p;
}
// * * * * * * * * * * * * * * * * * * * * * * * * * * * * * * * * * * * * * //

dimensions      [0 2 -2 0 0 0 0];

internalField   nonuniform List<scalar> 
111485
(
31.5346
0.267615
0.306662
31.5343
0.295013
30.5783
0.254526
0.264442
0.254679
0.303716
0.246719
0.287512
0.269344
0.176348
0.263695
0.324487
0.169265
35.1574
0.277247
31.5329
31.5347
30.5983
0.247689
0.332585
0.266488
31.4184
0.318579
0.299783
0.29611
31.5423
0.0756636
0.121617
31.5477
30.6017
34.3179
30.462
0.172998
0.238317
0.0515768
0.296487
30.7963
0.289942
0.302315
0.232974
-0.577918
31.6054
0.251956
0.313035
0.30642
31.6889
31.6779
29.5801
31.7118
0.192692
31.7337
0.223394
0.267697
30.6505
-0.0345072
0.286971
0.293779
31.5386
0.253983
0.10507
30.7506
0.242246
20.6213
0.247598
0.167305
0.246527
-0.119259
0.212461
30.9289
0.187141
31.5709
0.189911
30.6028
0.282404
30.5915
32.3158
-0.0154471
0.200169
30.6063
31.5546
0.2534
0.266181
7.41812
0.173275
0.00865555
0.187485
-0.389861
0.272715
0.265519
0.206077
0.292702
31.5548
31.5361
0.225001
-2.49374
0.649804
31.5348
0.315372
30.5703
0.25594
0.238306
31.7534
30.6329
0.141299
0.27138
-0.910186
0.120454
0.271618
0.301658
0.297011
31.4102
0.201913
31.4735
30.6207
0.196497
31.539
31.4176
26.8143
30.6098
30.6523
0.30501
35.776
26.6577
0.140968
31.5608
2.01336
6.22416e-05
0.222595
31.5751
26.2117
27.3489
0.260161
30.6033
0.204971
0.225496
0.3006
0.15885
0.243615
0.26252
0.31143
0.238797
0.139964
30.6029
31.5505
30.6644
0.25147
0.297746
31.5227
0.13563
0.035834
-2.14786
0.268168
0.253771
0.227045
-1.58702
31.5831
31.5343
0.259295
0.256694
-1.43296
-1.90186
0.159539
0.136446
30.7563
-1.2871
-1.14443
30.6425
31.5476
0.269607
30.6197
0.117509
0.0675847
30.7897
30.8435
31.4818
31.361
30.7359
31.5298
0.281902
0.271726
0.299133
0.264779
0.303843
0.219903
0.210611
31.538
0.155024
30.8288
31.4924
0.24942
0.275105
0.193905
0.286188
0.0720149
31.5753
0.297422
0.335501
21.4141
0.260839
0.165388
31.5386
0.236746
0.2558
30.8193
0.17341
0.254862
0.287267
0.183006
30.7051
31.5388
0.21343
20.0795
0.22196
30.6174
0.23221
0.214158
0.299905
31.5509
0.200948
0.133715
24.1492
30.6186
30.6436
-0.0189181
-1.85863
31.0286
29.2313
0.230191
0.123994
-0.185
31.0157
31.2565
0.122194
31.5633
0.231147
0.202138
0.218329
0.168366
0.210028
30.6488
-0.0135438
0.176423
30.6637
30.6057
0.153977
0.264034
31.2453
0.198983
0.171116
31.5512
25.5937
0.248714
31.5779
32.1057
28.8054
31.5291
0.210435
0.150995
-0.0219113
31.5676
0.110402
31.5345
31.532
31.5747
0.0991717
0.266959
0.269397
0.169646
0.2819
0.23487
0.218655
0.0971971
0.0948443
0.15214
30.4145
31.5481
0.10483
0.10873
-0.0853744
0.127473
31.5376
0.267127
0.261426
0.252514
0.351892
0.000438321
0.258996
0.16078
0.242583
30.6369
0.233927
30.6201
34.9923
32.3714
-0.0558948
0.256825
0.25849
31.4977
30.8907
0.212713
0.133993
31.5223
31.532
31.7548
0.165866
0.171885
0.275405
0.281328
0.249137
29.0408
30.6506
31.5566
0.237709
13.2782
0.200474
-0.00990962
0.0533698
30.6092
31.5342
31.5382
27.3298
0.22396
0.308059
30.6073
0.227486
31.2312
31.4783
0.239974
0.228842
0.285273
0.234638
32.0416
27.1882
30.6153
0.219486
0.0723851
0.0809221
30.7314
2.30314
-0.190346
0.313927
0.237043
5.50716
0.249617
30.5949
0.2389
0.241209
0.019572
0.213315
0.267498
30.6145
31.5622
30.6307
31.5449
0.267982
0.221958
0.233895
0.283731
30.6848
0.297204
30.6391
31.5664
0.261098
32.5661
27.9055
31.7261
30.4464
0.267936
30.6455
0.0790881
0.315093
30.5924
0.199209
0.250307
31.5227
0.218195
0.304121
0.283863
0.19613
0.163681
0.133211
32.0798
31.5541
0.271826
30.7162
0.29448
0.190824
30.7856
30.6442
0.226317
0.232041
0.112713
0.347963
30.6018
0.0801928
0.271775
30.5704
0.226083
0.213281
31.5325
31.5318
0.0988228
0.271708
30.5594
31.4821
23.5376
31.532
0.290919
30.6181
31.5354
0.267853
0.0243476
0.285618
0.315032
30.5859
27.3999
0.323646
27.7836
0.241685
0.353482
0.320754
21.2967
28.0867
-1.85749
-0.787791
31.5314
0.176546
0.311697
31.5438
-1.53776
0.29988
27.9395
0.282202
0.268288
0.167584
30.5947
1.06337
0.280918
0.201824
-0.0886492
26.5701
-1.94672
31.5443
0.228873
-0.651333
30.6455
0.255098
0.306383
25.8516
31.5631
29.9216
31.5301
0.28939
0.319551
0.3028
0.318799
0.165409
30.6217
0.136258
31.5844
0.338987
30.5319
31.5732
31.6071
0.281351
31.5564
31.5363
33.4555
31.5322
30.6777
0.270213
30.6431
29.7937
30.6186
31.4889
30.5563
31.5821
30.6007
0.27948
30.6121
0.252778
0.270672
0.122597
30.6081
0.273317
30.648
31.535
0.301052
0.358887
0.447753
-0.050009
29.4222
0.288638
0.277166
0.132259
-0.025056
0.285336
31.5514
0.0260837
25.8977
0.402286
30.6199
0.32273
26.7827
0.12356
0.326102
33.1722
30.8804
-0.0876982
31.5241
0.275749
0.244239
30.6695
30.6965
31.7935
30.6385
-3.42326
0.269882
30.5623
30.6653
0.279705
30.5984
0.249095
30.5992
0.273947
31.5366
0.355476
0.34417
0.346233
0.111919
30.4982
-0.47544
30.5587
30.6192
0.245131
30.6246
0.304758
31.8199
0.336626
31.5412
0.377115
31.5335
27.9733
0.00693369
0.174039
0.244463
0.32756
0.178216
0.25425
30.6601
0.211306
0.257259
30.6117
0.194102
0.138441
0.286757
30.8448
32.1939
0.376689
0.167889
15.0206
30.9083
0.228959
0.323582
0.308423
0.295423
0.652209
10.465
27.6067
-2.33686
12.8556
31.5368
0.344989
30.7118
28.0912
0.213088
10.2511
-2.41069
6.05823
27.5896
0.246251
0.307114
30.6439
29.8893
0.319407
31.5472
30.5975
30.6018
30.6043
0.297597
30.6332
31.3822
0.329958
0.195832
24.1747
0.143688
29.368
0.182208
31.7065
30.6536
0.276762
30.6145
30.6076
27.9591
0.199282
18.8224
0.205603
0.16664
31.5782
-0.440261
0.0381385
0.270444
0.343974
1.46583
0.257673
30.6254
0.274446
0.284098
31.5678
0.226879
0.224662
0.307247
0.153167
0.284973
0.292373
31.6034
0.295531
0.177013
27.8814
0.287422
0.366363
19.61
0.157092
0.30734
0.334309
0.314966
0.326656
0.104269
31.1496
0.305623
0.300354
32.9209
0.280737
0.226724
0.211875
30.6294
0.195102
31.6289
30.6056
30.6642
30.599
0.320826
28.323
-3.68658
31.5272
30.3327
0.322232
0.285679
31.5191
0.281665
31.531
31.5557
31.7162
0.213845
0.338272
28.0771
31.3524
30.6243
30.6279
0.139427
0.164925
27.3596
0.294779
-1.16581
30.6568
0.322664
0.271589
0.353096
30.5929
30.6161
0.306048
0.204264
27.8193
30.6443
30.5372
0.181412
31.5616
31.5129
30.6239
0.297025
0.310755
30.5967
33.9194
32.8736
0.60087
30.6557
30.5844
0.261964
0.104329
27.757
23.9689
4.91379
0.287681
0.00930473
30.4814
0.182358
0.328751
30.6345
31.7044
30.601
30.6197
30.6442
30.5958
0.357704
31.5333
30.6049
30.8159
0.336619
0.197334
31.5389
31.7606
0.235176
0.182537
0.207947
31.5098
30.609
0.1856
31.5523
0.264994
0.150722
0.208122
31.44
31.5362
31.5356
30.6259
0.373151
30.6095
30.5901
0.236987
31.5353
0.242315
0.370564
30.669
0.237354
31.4362
0.211183
0.301634
0.220146
0.261932
-4.52733
29.0564
0.198538
0.259764
0.0116744
31.2567
-7.83212
28.6882
0.111989
30.6373
0.232485
0.270638
0.216087
32.3335
31.5368
31.5632
0.181943
29.354
-0.0464762
29.9007
0.30113
0.155864
0.0752089
0.194577
30.6012
30.6708
31.0142
0.185056
30.595
29.039
-0.165239
30.6459
30.6733
31.5434
30.6044
0.0879021
30.52
30.6194
-5.61954
29.2844
30.7236
28.3363
30.6187
0.200895
0.0963644
31.5254
0.305132
4.46774
0.201187
-1.04736
0.171848
30.6512
0.262442
0.28602
0.20004
31.5524
-9.84968
0.0699679
26.0439
0.0284869
-0.0298497
0.0444873
0.202655
0.145219
-0.111586
0.155376
0.138795
30.5489
30.6429
0.0719618
0.0217716
30.6514
0.0874684
0.311781
0.127128
30.5747
-0.0288443
30.6227
0.109784
0.0913992
30.5917
-0.285283
0.151121
-0.178391
-0.058463
30.4074
0.281925
-0.156019
0.157977
-0.173544
0.207749
30.5809
30.664
0.2807
30.6041
0.384999
0.0726493
27.0196
-1.43774
-2.81978
-0.738411
30.6045
25.6972
0.199237
31.5577
37.7643
0.193141
30.5632
30.5849
-2.41534
-2.95709
30.6049
-0.0298317
30.6205
30.616
31.5652
31.5344
31.8394
31.5499
0.276973
30.5987
30.644
30.6692
-5.25307
0.441861
0.262339
0.187999
30.651
30.5796
0.195589
30.6131
30.5986
23.453
0.170806
0.216455
30.5926
30.5666
30.6266
30.5843
30.4175
30.5781
0.103024
30.6024
-0.351638
0.274213
30.6264
31.5788
31.7458
-0.0445695
31.7134
31.5369
30.6895
-0.39579
30.6193
0.128993
0.130241
-0.270618
30.5875
21.3233
0.228751
0.252391
30.6782
-0.328946
0.262492
31.5563
30.4782
27.6677
30.5707
0.195043
0.25502
0.145633
-0.914916
30.595
0.190918
30.3525
27.47
27.4998
30.6442
0.284478
30.6191
31.7865
0.16281
0.20235
31.7754
0.313108
29.3881
0.0678971
32.0064
30.619
30.5174
31.5361
0.154372
0.285881
1.95453
30.5994
30.7786
0.11562
30.6044
28.4167
31.5373
0.270832
-0.963778
0.425651
31.4807
0.128661
0.17756
33.0518
0.180064
30.6148
0.201564
0.229501
0.205884
0.0744062
-0.268651
30.6079
30.6203
30.6178
0.1268
30.9183
-0.0156063
31.5674
3.28259
31.5191
0.290481
0.312462
31.7946
30.6039
31.8617
30.6759
-0.030646
31.8907
27.6989
0.0906635
-0.00896758
31.7506
28.2844
30.9249
28.3676
30.5882
30.6093
0.0151251
0.369945
31.5335
31.4914
-2.02739
31.5632
0.0134951
0.154843
30.9085
0.235732
31.5359
0.066896
30.6147
0.30183
30.5896
-1.835
-0.767825
-0.143521
0.21251
0.200895
18.9905
30.2984
0.242957
31.6891
0.274174
31.5179
30.7418
30.5252
30.6692
30.766
30.6503
0.152143
0.10242
31.537
26.6932
31.546
0.164756
-0.0379199
31.5306
0.28746
-0.146731
31.7464
0.169584
0.135359
0.264674
-0.140008
30.6043
30.6092
30.7353
30.6025
0.251033
30.3502
0.240989
30.6136
0.215927
0.308439
30.636
0.183541
30.5978
30.6024
0.197805
0.0690466
8.88717
30.6151
31.8387
30.5578
0.257252
30.1448
31.7548
30.2186
3.90838
27.0693
-1.61025
28.2561
30.0764
31.099
0.125233
0.057471
0.32152
0.274172
31.4984
0.220907
30.6255
30.6441
0.0978206
30.4892
-2.06569
0.213061
0.178071
0.205634
-3.35168
0.255152
30.6376
-5.17104
-11.2154
0.28644
0.251661
0.233865
22.3233
31.5208
0.276902
31.5385
30.5852
-0.500767
0.28097
-3.90913
30.5565
29.941
0.115705
31.7455
30.5875
0.175581
31.8216
31.778
0.561971
0.186416
0.0357233
0.352857
0.181811
30.5997
30.606
-0.626037
0.260083
30.6006
31.7991
0.407951
30.6294
26.5219
27.1944
27.349
17.7285
26.6066
30.6065
0.332927
30.5378
0.0893512
30.5957
14.0553
30.8071
30.6779
30.6399
30.607
0.367825
30.6062
30.6043
27.8212
30.5723
30.6409
30.6049
0.241423
30.6741
0.225581
0.0775629
30.6888
0.44537
30.5978
0.231464
-0.279473
0.112151
0.132094
31.4168
0.129242
0.350319
-0.157236
31.5621
-0.00652258
0.22192
0.125334
29.4468
0.0876029
30.8624
30.6329
30.606
30.5956
0.111278
30.6204
30.5502
0.105117
-0.103887
0.0322716
30.6795
21.9398
0.380062
30.6439
-0.99749
31.7341
0.0829595
30.5685
30.5809
0.266794
30.5777
0.328022
31.5515
30.5956
0.221998
0.166842
0.184864
0.272015
-0.081009
0.22354
30.5954
32.1622
0.285153
0.190247
0.264419
0.0317901
30.6049
0.217948
30.6007
31.2314
0.257296
0.13746
30.633
0.171893
30.5842
0.185895
0.172594
30.8767
30.5963
30.6267
0.287328
30.6189
30.6191
0.29119
0.186923
0.227669
0.112199
30.6745
30.6717
0.33584
0.342506
30.6146
0.269328
30.9271
0.262624
30.5993
30.5976
0.19121
30.6022
0.250787
0.324047
30.6093
30.5966
0.226799
26.0535
0.361403
31.5358
0.161056
31.5796
26.7971
25.9136
0.322077
28.0033
27.7044
0.243073
27.5419
17.2413
25.5184
30.8234
31.5411
-0.274348
0.333304
30.777
30.6139
0.230338
0.29714
30.628
0.283828
30.5946
31.5608
0.311149
0.306432
0.483151
30.5941
30.6262
30.6167
30.6042
30.5643
30.5758
30.5939
30.565
30.5837
30.5892
30.615
31.5474
30.6186
30.5925
30.5935
31.256
30.5923
30.5989
30.607
30.7147
31.3432
0.347724
30.6167
30.5931
30.674
0.278288
30.656
31.5601
12.1058
30.5353
30.1721
0.250139
33.045
30.3836
14.2071
0.233891
30.6123
27.1385
29.1123
30.5856
0.242281
0.228563
0.239707
0.167941
0.213466
31.6439
30.5618
0.204228
0.227582
0.173628
30.5897
0.235636
0.284448
0.261754
0.0981393
0.14391
0.172222
0.157527
0.2401
31.6007
0.283607
0.281236
0.296068
0.243701
30.6206
30.6142
30.6255
31.5361
30.6107
0.228296
0.250178
30.6314
30.5849
30.5836
31.387
30.5943
31.5334
30.606
31.5486
0.234605
-0.0762672
0.258405
0.405631
30.4855
30.6365
0.223676
-0.579458
30.5962
30.6058
0.2754
31.6043
30.6133
0.361116
0.186927
0.224991
0.378433
0.240459
31.6299
0.0744637
0.27807
27.7086
31.5375
0.2298
31.6142
30.631
9.87925
5.48725
0.306175
31.1759
31.46
0.23261
0.276601
0.13041
0.228772
13.8402
31.5322
0.31381
32.9355
31.5612
30.3547
0.274811
30.5915
0.234942
0.0457384
0.225598
0.256415
31.5708
0.277953
31.5603
29.9463
31.5509
31.4937
0.134577
18.1922
30.6057
31.5331
33.4384
0.239395
27.5142
0.1715
0.217436
0.121355
0.22548
31.4095
31.4915
26.6819
0.297007
0.222108
-3.19849
31.7047
31.535
27.38
0.28318
0.181901
30.5991
0.0360706
10.3003
0.270067
0.186468
31.5298
26.6565
0.17739
0.229004
30.6218
0.333563
0.32066
0.255664
0.110972
0.18745
0.260095
27.7132
0.171726
0.198377
0.205861
31.9472
0.249491
28.05
0.33319
0.205696
31.5624
0.1085
0.188903
0.152949
0.270065
35.0008
8.65146
0.191496
17.3602
0.190464
30.6194
0.114479
0.201475
31.5459
30.6075
-0.997966
-0.0198446
0.295185
34.919
0.303748
-0.364176
-4.10804
0.0128402
31.5493
31.6327
0.220713
33.3777
0.229055
-0.416023
0.199926
0.165097
31.5296
0.313803
0.220765
31.5183
27.8591
0.200756
31.6035
0.18767
0.204903
31.5413
35.1264
0.285513
31.5234
30.5932
30.6391
0.14783
0.614238
0.294975
31.7677
0.280999
0.176784
30.8125
0.165396
0.122487
0.126658
-0.134057
30.6029
0.191765
0.237938
0.165321
0.132407
0.139433
-0.192105
0.326203
31.5351
-0.16724
0.123405
31.5334
0.157385
30.6576
30.6162
31.56
30.6769
31.5424
0.348814
30.6319
0.153752
0.218462
31.5665
0.357516
31.3235
0.104579
31.5468
-0.235042
30.6597
0.272457
0.381303
-0.286664
0.248609
0.12875
0.299941
0.148134
0.258898
11.4139
0.211332
0.177614
0.253787
31.5565
0.306047
-0.0439921
0.214287
0.272697
-0.221636
31.5624
27.2417
31.5323
0.314455
31.5268
24.799
0.129195
33.5649
0.36933
31.4874
31.4258
30.6054
0.251014
0.44804
0.196137
0.209261
0.138379
0.200323
0.250086
0.209895
0.112635
0.238766
0.210581
31.6303
30.4458
31.5307
0.261826
0.276157
30.7263
30.6048
25.3205
0.309064
0.123035
31.5297
0.209053
31.5292
-1.23985
0.324432
0.141098
31.537
31.5354
0.192165
31.5353
0.281053
0.187507
29.9425
0.257815
0.273914
0.132189
31.5163
-0.034139
28.0753
0.209768
0.284598
31.5423
31.5984
0.170122
22.327
31.666
0.231067
0.159531
31.5383
31.4513
27.8932
0.175066
25.264
0.23693
0.221099
0.312304
31.5336
28.207
0.208374
31.5327
30.637
31.5497
31.5411
28.6325
30.9255
30.3213
31.5241
31.5658
29.3275
33.5865
30.5962
0.315737
30.6317
27.117
25.6592
35.5891
27.6483
31.5353
0.221542
29.6204
30.8661
0.221669
32.8399
34.2784
31.1994
0.19241
33.4666
0.236583
0.0768813
0.351756
28.8038
31.5392
0.268481
-1.2277
31.3678
31.5262
0.259523
28.4878
0.250967
28.194
30.5407
31.013
0.259958
0.273818
31.5349
0.284374
31.7004
29.6123
-0.321827
0.27474
0.228243
30.623
0.252649
28.99
0.227764
30.5975
31.517
30.5923
28.0473
0.24208
0.244822
31.5582
-2.58566
31.5558
31.6146
31.5542
31.5342
0.23516
0.180344
0.220677
0.377448
31.4018
0.311204
0.271501
0.225162
0.212953
30.8282
0.204413
0.337049
0.151903
-1.11556
0.262683
31.7172
0.180597
0.238841
0.256646
0.271319
0.169453
31.6392
0.208227
31.128
31.5549
0.250283
31.5746
0.334732
31.5336
31.7804
30.3239
31.5477
31.5536
0.170046
31.5418
0.237015
28.9248
30.6406
0.272192
0.321986
0.242431
0.20306
31.6204
3.2432
31.5547
0.258927
31.7857
0.254003
0.224333
0.275283
0.283654
31.9016
31.9292
31.5454
0.217311
30.6816
31.4937
0.205782
30.5473
30.5885
0.346775
31.9008
0.14629
-1.10406
28.7284
30.0326
29.7913
0.171109
0.246894
31.5314
0.0386631
0.246703
28.1034
0.264472
31.5416
0.188613
0.318254
0.262599
31.5387
0.305738
0.193943
0.244136
0.305081
0.319643
31.5404
31.5337
0.0226387
31.505
30.5931
31.5325
0.173006
0.265065
0.236624
0.110647
27.6267
0.259012
0.253533
0.253681
-0.00697465
0.324721
0.254372
0.324636
30.6057
30.6053
30.6029
0.398854
30.6255
0.170699
21.222
0.28893
-1.74801
0.150522
0.123579
30.586
31.5446
0.294326
0.281078
31.5974
30.5842
31.5606
0.17586
0.284373
0.272472
0.321176
0.128977
0.243256
31.5268
31.5522
31.5367
0.200258
0.215705
0.0384702
0.279548
0.243379
0.309637
31.4148
31.5338
25.54
30.7511
0.144464
0.339085
31.5142
31.6497
31.573
31.5661
31.412
30.8947
0.274497
31.5356
0.175487
-7.53867e-05
30.6141
0.301724
0.115503
0.181376
31.7227
31.0725
0.276508
31.536
0.271494
-4.37147
0.187914
30.6958
23.9242
30.5994
31.5403
31.5071
30.4476
8.77554
31.5819
0.344572
0.256563
31.5492
31.539
0.271014
31.5492
30.6196
0.222637
-0.356731
31.48
31.4737
30.7418
0.171994
31.5353
31.5334
5.04913
0.214012
0.276754
31.5276
30.6105
28.8761
0.253563
0.264671
0.254383
0.252165
30.5957
0.250661
0.100736
0.0755939
30.4167
31.5369
31.5346
31.3648
31.5362
0.234797
0.249026
0.202465
31.627
31.5456
31.5341
31.5303
30.8586
0.221797
0.457846
0.0923836
30.5952
31.5356
31.7701
-3.51242
0.183647
0.148035
30.6102
-7.25521
33.0326
31.3884
31.5331
0.255743
0.325092
31.5295
31.6507
0.285222
31.541
0.184791
0.253993
11.242
31.514
30.7765
0.220888
0.142685
31.6617
10.4782
0.249143
0.386604
31.5352
31.5411
31.593
31.5731
0.13726
0.194433
31.5426
0.185471
0.25614
1.26948
31.5323
31.522
31.5224
31.5436
0.321903
33.5341
31.5337
31.1171
0.153917
0.222371
0.190482
31.4108
31.5469
0.283758
30.5339
31.5397
31.5362
31.5348
0.268308
30.8123
30.5439
30.6032
0.153268
0.304884
31.5118
31.5533
31.4541
0.279471
32.6141
31.541
31.4613
31.5547
31.5507
-0.344745
0.342015
31.7233
0.288268
0.313442
0.249457
31.5781
31.5616
31.5464
31.3983
30.5909
0.277567
31.5359
29.5842
29.4685
0.266741
30.6378
0.226161
31.5353
30.6313
0.308426
1.61897
28.2803
0.304502
31.537
0.290315
32.6042
31.6008
31.7227
36.3714
31.5522
0.227861
31.507
0.250278
30.6336
27.8966
31.5709
31.5039
0.117354
0.439934
30.6009
10.8897
30.6261
0.0435541
0.209575
0.342744
30.6443
-0.937469
0.205614
0.180624
0.34541
-1.99405
0.187842
30.4945
30.5933
-2.48763
0.192622
0.285689
31.658
30.1837
25.6686
13.3292
31.5621
30.6041
31.5555
31.5625
31.5693
33.2137
0.438598
0.108012
0.261807
27.9381
0.0487536
31.554
0.283902
31.5354
31.588
30.6168
30.877
-0.0150663
30.783
30.6137
31.5328
0.271592
31.5236
31.5415
0.198999
31.4295
23.1689
19.9218
18.5969
31.5689
19.4697
18.837
19.2727
22.0333
30.592
30.5956
0.250517
0.259347
27.981
28.6373
30.5944
0.237186
32.7696
30.9711
-0.00826048
31.5365
31.5365
0.189126
0.0987658
31.4194
30.5923
0.300858
28.1844
30.5493
-1.12558
0.25133
0.414027
31.2709
0.31356
31.5597
0.19014
-1.11335
0.286367
31.5341
-1.09944
0.310695
31.8882
-3.65164
31.4885
0.277978
30.1599
0.346736
31.2433
0.178844
31.5254
30.4199
30.627
-5.35681
-5.3822
31.6028
0.261931
0.415522
31.7423
31.5313
0.14969
0.0293639
-0.0315747
31.585
0.300254
0.291743
0.209941
-2.91323
31.5696
-0.217488
30.6331
-0.153403
31.5356
-6.40338
-7.48707
31.4448
0.232655
30.8324
0.212691
30.5991
31.4493
31.5741
31.6103
31.44
31.4852
0.304862
0.277966
-0.170973
31.557
25.4792
-0.129327
31.554
31.3875
31.6491
31.5316
31.6473
0.0980819
31.5336
31.5565
30.5928
0.0787863
31.4686
30.6091
30.2025
0.174928
30.6128
0.042573
-2.63217
0.0951454
0.160569
-0.0413403
32.8858
31.5421
31.5272
0.289749
0.201567
30.2977
25.3378
0.0805775
31.5423
31.5618
-0.0925484
31.4838
0.291667
31.5311
-0.0120792
0.169026
31.5572
30.5916
31.5293
31.5572
31.533
0.296277
31.5191
0.0881804
31.7979
31.5327
0.151146
30.6011
0.27178
31.1239
31.54
0.265931
0.256411
-0.0207904
31.5556
31.5555
31.5363
0.281313
0.0737966
31.8245
30.6037
30.6099
0.177947
31.4952
0.307242
-0.0882295
31.5279
31.5079
0.171628
31.513
30.6124
30.6139
31.8521
30.6211
-0.155601
24.9732
30.6819
31.5482
25.6276
31.5076
26.5022
31.4153
31.5021
31.0274
0.223537
31.2694
0.132737
31.462
31.4994
0.192504
0.19101
31.4793
31.4168
31.5313
0.134083
26.9768
31.5365
30.9592
31.516
0.179917
31.4884
-0.256642
31.5625
0.252714
27.8147
0.24548
31.5826
31.5337
0.293575
26.3305
31.5485
0.191257
0.257759
31.6321
31.5577
0.243677
0.153375
0.177683
0.127649
0.122384
0.292718
0.202543
0.22072
31.8161
-0.300862
25.2112
24.763
31.5346
31.5118
31.5334
0.19112
31.5625
31.5368
31.5617
-0.0738389
0.200067
23.9956
0.183213
31.561
0.281485
30.5719
0.202575
0.230917
25.5006
0.320176
31.4916
31.4112
30.6056
0.220991
0.25594
31.536
30.6167
0.197173
31.5518
-0.0602965
31.706
0.105872
31.5357
30.6049
31.4734
30.601
0.191689
30.6012
1.58078
30.6336
0.27837
31.528
31.5115
17.5401
16.2588
31.6014
31.5163
31.5352
31.5521
0.29603
-0.109837
21.0919
31.5621
0.299987
30.5908
30.6585
-1.23471
0.245196
0.145589
30.6075
0.153636
0.231484
0.239868
0.272097
31.5393
31.5675
31.5844
31.5616
30.608
30.5994
30.6061
31.3971
30.6093
30.6078
31.5351
30.6037
0.0134803
30.5987
31.5242
34.5204
31.5553
31.5336
11.16
30.5963
31.5243
0.217687
0.0896752
31.4304
31.4727
31.537
0.278629
30.7712
31.4899
0.00853379
30.6184
31.5249
31.5268
31.5547
0.22233
30.6091
-0.227403
31.5627
31.4847
31.5245
31.5296
31.5154
0.0365462
-0.125309
0.197049
31.5566
30.6737
31.6967
-0.0311782
31.5188
-0.133134
0.141145
30.6035
31.4797
23.9563
-1.16694
31.4498
28.2077
-1.11491
24.2744
0.299869
30.7501
0.212646
24.1411
22.596
31.5344
0.298013
30.6202
0.246372
0.173306
31.5538
0.295382
-0.667196
31.5285
0.124854
30.5994
31.4568
31.4956
31.4399
31.4909
30.601
31.5187
31.5505
-0.177299
28.5634
31.5331
31.5312
31.5162
31.53
0.263302
16.4405
-0.0617245
-0.736017
31.5197
0.341894
0.288803
31.5341
28.1246
31.2604
31.475
31.6235
31.8662
25.8994
28.7947
0.179396
31.5404
31.5752
24.5229
26.6399
30.6052
0.258017
31.5462
30.6455
31.5542
0.0542223
31.5684
30.5965
0.251075
30.6136
30.4814
31.167
31.7454
0.257064
31.5335
31.528
31.5219
31.4798
0.294003
0.124182
0.161216
0.273005
0.249734
0.209851
30.6185
26.3417
-0.186185
0.234959
26.2986
-0.151515
31.5319
-3.84077
30.6638
0.042796
31.5399
30.6035
0.240554
-5.0322
31.537
0.230488
31.545
31.551
0.022687
0.188366
31.5481
30.6016
31.694
30.6037
31.5132
27.5073
31.5539
31.5363
0.219894
31.5525
31.52
31.5242
0.268035
31.5692
27.6703
30.609
30.5891
29.3318
27.8328
0.263241
30.6011
27.8678
0.229564
31.5245
0.184323
0.261337
31.5303
0.23209
31.532
29.9449
31.7892
27.304
30.6342
31.472
31.5294
31.5671
0.293282
31.5603
31.5469
31.5464
31.0538
31.5299
31.2517
-0.0428098
31.5352
31.5657
0.130082
31.5364
30.607
30.6369
0.345534
31.5363
-0.263744
26.9737
-1.04923
0.0881591
30.5954
26.3187
0.241046
25.2551
30.6092
-0.329847
-1.03779
-0.00811403
0.153889
-0.561793
-4.17206
30.7265
30.6031
0.292794
0.0353321
0.0786607
0.313396
-1.09725
30.6182
0.121196
0.239269
0.26492
30.6478
0.286982
0.125012
0.227864
0.280316
-0.0576044
0.161332
0.226037
0.229634
0.00870886
0.208298
0.290154
27.7259
0.363812
0.0343524
0.273345
0.236348
0.106799
0.293559
0.0685525
28.3609
-0.0108462
28.1596
0.286613
0.310386
0.144888
0.211797
28.1101
30.5963
0.279316
0.254117
-0.094604
0.148859
0.161212
0.261137
19.5219
0.312285
31.5354
0.47516
-0.014085
0.190462
0.256215
-0.114051
-0.251193
0.295617
0.221141
0.116673
0.255645
0.268772
0.515188
24.7191
21.7525
0.256786
31.5398
31.536
0.259307
0.345393
0.120723
31.5308
0.105515
0.178492
0.245771
22.5192
31.529
-0.403072
0.0391424
-0.0357892
31.5686
0.200083
31.5382
0.242626
0.289609
0.187885
0.197186
31.5209
31.5437
0.255178
0.31384
0.365692
31.5118
0.259354
0.367399
0.233102
30.6347
0.251854
0.0865773
28.0945
0.226343
-5.46148
-0.00372763
30.4519
0.150938
0.0551091
31.5357
0.326769
0.0972516
5.99107
0.245604
0.35557
0.146663
0.367298
0.197968
-0.0684169
-0.493447
-0.0610311
0.436807
0.139474
0.220872
-0.226939
0.274815
0.301134
0.313623
0.305345
-0.181821
0.222304
31.5374
0.312411
0.271143
-0.00884097
0.219654
0.220027
30.6895
0.307035
0.243512
31.5188
0.0908268
-0.0118926
0.293404
0.324495
0.127279
-0.168428
0.319134
0.24408
0.174423
31.5364
31.5361
0.209626
30.6458
0.221441
0.360741
30.8576
0.126853
0.256792
0.048415
31.5464
0.25286
0.247886
0.141038
-0.117397
0.237911
0.243349
0.245228
0.299428
31.5357
31.4524
0.0484844
0.212691
0.156629
0.305833
31.4497
0.228317
0.368528
30.8554
0.201101
0.290186
-0.29457
-0.40819
0.245802
0.150754
0.214354
0.30396
30.6688
0.347332
0.183783
0.306362
-0.335264
31.4543
0.284216
32.0669
31.5338
0.228649
0.244044
0.232466
0.975565
-0.059849
6.25673
30.6181
0.165986
0.407565
0.496829
0.23363
31.5491
30.6437
30.6033
0.209986
0.231015
-0.436373
0.245288
30.5613
31.468
0.172028
0.244014
0.205173
0.253961
0.229433
0.359182
0.196051
17.7054
30.5949
0.299005
0.0844747
31.4639
0.256078
0.337511
0.177143
0.313487
0.260479
0.240813
31.4665
0.292893
0.255461
30.6401
30.6231
0.143987
0.321348
0.150154
0.117185
0.307015
0.377357
0.185094
0.269479
0.319524
0.0851311
31.4511
31.4228
0.0458047
0.144977
0.310431
0.0607716
0.30821
0.229818
0.299934
0.262762
0.296707
30.6079
30.672
0.029622
31.4467
27.5126
0.287472
0.227097
0.213415
0.061404
28.7864
0.238711
0.139204
29.3107
0.0516958
-0.365111
0.300188
0.315607
0.0929256
0.348104
-0.140128
0.130587
31.535
29.0871
0.0947289
0.169153
0.213778
0.161325
-0.0381322
0.212719
-0.0109127
29.1879
0.346399
0.265505
0.259347
-0.0366953
0.224022
0.0346912
-0.349373
0.262959
0.145513
28.7619
0.322153
0.328881
11.5117
27.3214
25.1566
0.356857
26.7072
0.0677602
0.303721
0.235383
0.354423
-0.0215182
20.3915
12.4986
32.3269
27.0191
0.208818
30.6004
30.601
-4.5519
31.5248
0.259252
0.25263
0.150308
0.239819
0.241655
0.286692
25.2484
0.151835
0.112345
0.208769
0.262256
0.252654
0.285514
30.6061
-0.367206
0.2586
-0.077559
30.6028
0.287966
0.232219
30.6023
31.4866
0.0725282
0.219321
31.684
0.326071
0.313132
0.055477
31.5497
30.6015
0.115806
-0.362221
0.337768
30.6044
30.5677
30.6033
0.310531
10.5256
9.62064
0.0996639
-1.01252
31.59
0.200379
-0.922804
0.289795
0.113647
0.0412793
0.186953
-1.50043
0.146093
30.8329
0.167519
0.217792
0.0704024
0.264087
0.103512
0.180604
0.0984482
0.122253
0.131421
0.154367
-1.05968
0.284765
0.0478658
-0.0855551
-1.33751
0.00876657
-0.986298
0.0980151
0.166481
0.232349
0.246536
0.172211
0.220329
-1.00975
0.166894
30.0045
0.27372
15.5391
0.235792
0.23606
30.6429
0.267688
30.0046
0.250533
30.1145
31.6337
0.374324
0.216708
27.5346
0.172835
0.289995
0.252074
31.4722
31.5533
0.453661
0.118528
-0.162027
0.246263
0.181897
0.235619
0.158063
0.280529
0.267872
26.1243
0.282291
30.6056
31.3478
0.251665
0.209144
0.061646
0.24483
0.19331
0.298803
0.264719
31.1558
-0.0108959
0.173812
0.292313
31.1944
31.584
0.276387
0.273607
24.746
0.21877
0.134001
0.2939
-0.505516
0.211169
0.271302
31.4909
18.5191
0.252564
0.121096
30.902
0.28098
0.19289
0.250857
-0.010031
0.20071
-0.131081
0.273142
0.241391
19.5924
0.222056
31.5331
0.272533
0.261987
0.202061
0.0694564
26.4568
0.0597973
0.0882799
0.277155
-0.0264958
29.7794
30.6054
0.259071
0.139911
0.299376
0.290191
0.222126
0.197243
0.00783217
0.244533
0.186053
0.102805
0.186671
28.2687
-0.107312
0.224713
0.0223865
0.207913
29.0445
30.591
-8.89574
-0.0188806
32.7078
-0.11405
0.250424
29.5212
20.2455
21.984
0.163795
0.226306
1.13027
23.5124
0.0711408
0.274658
30.493
0.954008
27.6238
0.248575
0.177091
30.7477
-0.0878583
0.274448
0.257851
0.210609
30.5952
-0.600074
0.202229
0.1016
0.29717
0.321474
0.244738
0.307569
-0.21355
0.256779
0.147404
0.222598
31.5216
25.959
26.3251
30.9305
0.206815
0.253709
0.280787
0.125662
0.164961
0.261791
0.270074
0.259114
0.25626
0.199545
0.281668
0.0425221
0.308855
0.1961
31.5325
0.206766
0.125204
0.266133
0.313075
30.4686
0.196065
0.213788
0.432046
0.283146
0.268884
30.6561
0.307528
0.258698
27.5706
0.30419
0.272181
30.91
0.207445
30.8741
30.6282
0.201403
0.0902144
0.285384
0.272895
30.5996
0.17891
0.191132
30.6441
0.311315
0.262615
0.259745
0.259632
31.0336
0.218738
0.227623
0.328438
30.8878
0.259413
0.147683
0.290249
0.227075
0.219027
31.663
29.9444
28.3857
0.126413
28.904
0.257001
0.172526
0.132338
31.4389
0.129543
30.7376
31.5321
31.3386
0.279561
-0.0499855
-0.368139
0.315123
0.291848
30.1102
27.6197
0.226365
0.186501
0.280695
-0.217519
0.255614
-1.10082
31.5381
23.0977
23.5636
30.5937
23.86
0.0780745
31.5366
0.291784
0.262017
0.288436
0.0840692
0.253948
25.4351
0.142386
0.303679
0.287591
0.213865
25.5998
31.5382
0.23454
0.197191
-0.705303
-1.69036
-0.00069421
-0.206227
-0.594304
-0.329478
0.249958
0.052388
0.215806
-2.7319
0.207927
0.30748
0.26018
0.214004
0.188383
-0.0316253
-1.98306
-1.5277
-3.34545
-4.5361
0.191086
0.172215
30.6566
-3.72457
-7.49123
0.160433
0.117936
0.0434078
0.310286
0.361453
-8.17114
0.120109
0.0127465
31.6664
0.268009
0.19934
0.245258
31.5504
0.160955
0.144715
0.136028
0.232968
31.5813
31.6859
0.272523
0.13976
0.170575
0.0792389
31.3894
31.5353
30.6199
0.292044
0.278142
0.111859
31.5456
0.198295
31.7023
31.7977
0.155949
0.124983
30.5819
0.12854
0.156141
-0.0646111
30.6067
31.549
0.187735
0.306353
31.7356
0.122013
0.266276
-0.151457
31.9611
31.9892
31.8587
-0.1606
0.124755
0.253798
0.274404
30.5837
0.135783
0.255958
0.231505
0.263119
30.7571
31.525
0.341416
0.164109
0.161666
0.266224
30.7489
-0.309848
30.6106
0.147257
0.00277532
0.252612
30.9461
28.6355
0.103723
0.221256
28.0817
28.2451
30.6073
0.330418
30.2774
26.8572
0.260516
0.264814
30.6119
27.6258
0.270485
0.306395
0.173524
0.248144
0.242778
28.1018
0.31521
25.7838
25.1347
31.6296
0.238319
0.327038
0.112771
25.2875
33.8497
0.339911
0.00759611
0.359162
0.299777
0.266054
0.287266
0.254602
0.36526
24.817
0.23911
0.148498
0.34276
0.29457
0.24241
17.9547
0.240655
0.236222
0.25249
0.241359
0.161609
24.0193
28.6363
0.26806
28.8717
29.2544
0.296651
28.931
0.261529
28.2419
28.5953
30.7824
27.4688
0.262548
0.162444
0.209584
28.1891
0.208356
0.253306
0.179902
28.6569
31.5371
0.270279
0.277326
-0.182746
0.271306
27.293
0.0457432
0.208139
0.128667
30.5898
30.9952
0.260519
0.170789
31.1047
28.7622
0.193909
0.0188478
28.123
0.170469
0.141963
0.181985
0.292223
28.4283
0.269518
4.43155
0.197603
0.392151
0.270533
0.142597
0.254394
0.223451
0.334596
27.7999
0.289585
0.321973
-0.215777
0.128703
0.202463
28.5883
0.192874
0.315738
0.227148
0.203153
0.29744
-0.169323
0.523537
0.0873995
0.252547
0.233965
0.213856
0.223668
0.27846
0.282507
0.330663
31.6508
-1.18795
31.5485
0.28133
0.295063
0.208568
0.142871
0.343071
0.257061
0.277244
-0.00526232
0.262152
0.181266
30.5722