/*--------------------------------*- C++ -*----------------------------------*\
  =========                 |
  \\      /  F ield         | OpenFOAM: The Open Source CFD Toolbox
   \\    /   O peration     | Website:  https://openfoam.org
    \\  /    A nd           | Version:  10
     \\/     M anipulation  |
\*---------------------------------------------------------------------------*/
FoamFile
{
    format      ascii;
    class       volScalarField;
    location    "8.7";
    object      T;
}
// * * * * * * * * * * * * * * * * * * * * * * * * * * * * * * * * * * * * * //

dimensions      [0 0 0 1 0 0 0];

internalField   nonuniform List<scalar> 
111485
(
303.15
285.105
300.966
303.15
298.401
283.15
298.91
293.378
296.31
286.247
300.505
296.184
300.2
284.57
299.965
286.756
299.295
297.83
294.027
303.15
303.15
283.15
297.227
288.691
301.54
303.15
293.183
300.608
288.849
303.15
300.726
294.302
303.15
283.15
283.448
283.15
302.28
297.576
283.149
296.586
283.15
289.593
297.004
302.88
303.191
303.15
287.367
288.55
289.634
303.15
303.15
283.15
303.15
298.903
303.15
293.478
287.891
283.15
283.321
295.429
295.83
303.15
302.047
300.255
283.15
284.549
300.245
291.518
302.1
302.525
303.162
301.89
303.15
302.098
303.15
295.35
283.15
293.444
283.15
283.15
283.238
293.368
283.15
303.15
300.299
284.207
283.15
301.538
303.116
299.068
283.335
289.567
300.85
300.368
289.761
303.15
303.15
301.538
303.149
283.414
303.15
286.652
283.15
285.163
285.744
283.15
283.15
293.049
301.445
283.146
298.889
288.062
301.282
301.693
303.15
301.97
303.15
283.15
300.113
303.15
303.15
283.15
283.15
283.15
283.399
303.151
283.15
301.802
303.15
283.176
303.086
301.929
303.15
283.15
283.15
292.483
283.15
294.191
298.765
301.076
303.137
296.791
298.946
284.766
302.273
297.771
283.15
303.15
283.15
297.111
284.923
303.15
303.144
287.305
283.156
293.693
295.605
302.52
283.154
303.15
303.15
292.153
286.238
283.153
283.157
301.167
283.684
283.15
283.152
283.152
283.15
303.15
283.206
283.15
291.521
287.16
283.15
303.15
303.15
283.15
303.15
303.15
297.62
293.471
295.759
289.748
301.366
300.402
283.19
303.15
301.432
303.15
303.15
300.136
286.274
301.394
301.318
295.722
303.15
300.87
284.592
283.16
300.763
297.041
303.15
300.395
288.185
303.15
283.225
300.163
284.801
300.667
303.15
303.15
300.682
283.15
292.742
283.15
300.586
298.685
290.351
303.15
301.743
300.515
283.15
283.15
283.15
289.485
283.157
283.15
303.15
298.621
291.345
289.909
283.15
303.15
303.107
303.15
284.328
300.059
299.233
299.483
299.352
283.15
283.144
298.828
283.15
283.15
288.744
288.349
283.15
301.169
298.848
303.15
283.15
301.008
303.15
303.15
303.121
303.15
288.255
285.857
290.765
303.15
298.307
303.15
303.15
303.15
283.148
298.069
300.957
299.394
291.182
299.452
296.209
283.21
290.308
291.553
283.15
303.15
283.149
292.426
298.724
286.449
303.15
297.965
297.232
298.859
302.959
283.166
297.069
299.332
301.993
283.15
283.605
283.15
283.149
303.15
283.883
290.244
286.307
303.15
283.15
297.557
285.235
303.15
303.15
303.15
284.581
290.216
301.045
284.397
292.998
283.15
283.15
303.15
298.32
303.15
283.819
289.466
283.153
283.15
303.15
303.15
283.15
294.321
289.948
283.15
295.675
283.15
303.15
301.051
297.263
293.951
295.783
283.15
283.15
283.15
296.574
290.986
302.358
283.15
283.15
283.15
290.068
296.912
283.212
290.458
283.15
292.767
299.529
284.197
298.656
285.254
283.15
303.15
283.15
303.15
290.654
296.624
287.926
291.917
283.15
286.348
283.15
303.15
293.784
303.15
301.751
303.15
283.15
291.924
283.15
288.762
284.618
283.15
283.98
297.994
283.15
300.122
284.662
298.811
303.022
291.035
285.992
283.15
303.15
303.143
283.15
300.969
300.833
283.15
283.15
294.679
284.362
298.159
296.804
283.15
295.087
296.085
283.15
302.044
283.894
303.15
303.15
288.236
298.561
283.15
303.15
303.15
303.15
300.72
283.15
303.15
293.92
283.171
286.956
299.943
283.15
283.15
302.605
283.15
302.452
301.425
297.824
288.752
283.15
293.889
303.38
303.15
298.609
292.28
303.15
283.15
283.305
283.15
290.013
286.094
291.627
283.15
292.848
296.553
293.04
303.147
283.15
303.15
303.15
283.169
292.706
283.15
284.314
303.133
283.15
303.15
303.15
303.15
301.815
290.502
285.986
284.186
284.311
283.15
285.69
303.15
300.716
283.15
303.15
303.15
300.656
303.15
303.15
283.151
303.15
283.15
300.656
283.15
283.15
283.15
303.15
283.15
303.15
283.15
283.663
283.15
303.125
301.839
283.741
283.15
303.084
283.15
303.15
284.705
284.666
286.108
297.485
283.15
297.455
297.568
292.269
286.801
285.262
303.15
291.738
283.15
299.838
283.15
296.757
283.15
292.057
298.556
303.151
283.15
286.781
303.15
295.473
299.06
283.15
283.15
283.15
283.15
303.15
293.655
283.15
283.15
283.237
283.15
299.791
283.15
284.789
303.15
283.433
303.121
284.631
291.879
283.15
301.44
283.15
283.15
285.684
283.15
283.254
283.15
299.644
303.15
290.637
303.15
283.15
302.375
284.465
300.061
285.651
300.058
289.452
283.15
300.606
284.544
283.15
283.14
300.316
301.575
283.15
282.451
301.045
303.062
283.119
303.15
287.561
302.16
284.402
285.383
288.186
282.56
283.15
303.15
300.573
303.15
283.546
283.15
283.15
291.739
282.678
303.149
303.117
283.15
286.267
299.56
283.15
283.15
299.574
303.15
283.15
283.15
283.15
286.15
283.15
303.15
284.818
284.217
303.15
299.667
283.15
289.236
303.15
283.15
286.145
283.15
283.15
283.15
285.361
283.15
285.437
291.934
303.15
300.336
283.447
298.68
300.924
283.311
283.456
283.15
288.942
298.412
303.15
302.254
296.018
296.85
284.709
297.414
297.169
303.15
300.228
303.135
283.15
297.116
284.821
283.15
292.342
295.69
284.842
298.738
300.607
292.302
283.15
298.878
283.468
303.15
300.566
301.955
294.054
283.15
286.48
303.15
283.15
283.15
283.15
283.3
283.15
303.15
303.15
283.15
300.39
299.217
303.15
285.613
303.15
303.15
303.15
290.005
283.417
283.15
303.15
283.15
283.15
286.793
292.349
283.15
295.102
283.137
283.15
295.277
302.213
287.763
283.15
283.15
300.225
292.058
283.15
283.15
283.15
293.959
303.15
303.15
283.15
296.205
302.372
283.15
282.393
301.726
286.52
283.15
283.15
287.442
302.963
283.15
283.16
287.227
283.752
288.76
283.15
285.681
300.284
283.15
303.15
283.15
283.15
283.15
283.15
295.634
303.15
283.15
283.15
295.248
291.783
303.15
303.15
289.827
298.393
298.29
303.15
283.15
297.965
303.15
283.825
298.796
298.317
303.15
303.15
303.15
283.15
286.049
283.15
283.15
302.699
303.15
297.785
302.27
283.15
294.02
283.258
296.402
291.948
283.417
289.756
283.15
283.15
296.85
288.028
290.815
283.15
283.15
297.769
294.942
283.15
283.903
284.582
283.475
303.15
303.15
303.15
290.719
283.15
300.029
283.15
284.369
297.566
298.48
292.231
283.15
283.15
303.15
295.338
283.15
283.15
303.096
283.15
283.15
303.15
283.15
299.296
283.15
283.15
283.15
283.15
283.15
303.15
283.15
283.171
298.746
303.15
302.527
283.131
283.398
283.095
285.505
283.15
284.448
290.503
283.399
303.15
283.149
299.711
283.15
300.228
283.145
283.144
286.191
297.459
283.204
291.86
297.968
283.15
283.15
299.032
299.777
283.15
297.323
291.248
297.533
283.15
283.243
283.15
297.845
296.966
283.15
300.039
297.614
283.149
299.744
283.15
295.621
283.145
303.125
283.162
283.16
283.15
283.15
284.417
283.15
302.969
283.586
283.064
303.148
303.149
303.147
283.15
283.15
293.764
303.15
303.184
283.869
283.15
283.15
303.154
303.149
283.15
303.165
283.15
283.15
303.15
303.15
303.15
303.15
283.362
283.15
283.15
283.15
303.157
283.304
283.886
293.415
283.15
283.15
283.335
283.15
283.15
283.15
287.228
293.563
283.15
283.15
283.15
283.15
283.15
283.15
284.006
283.15
303.15
291.548
283.15
303.15
303.15
303.153
303.15
303.15
283.15
303.171
283.15
283.694
283.144
303.152
283.15
303.062
284.388
292.056
303.15
303.128
284.443
303.15
283.15
303.15
283.15
294.007
293.451
284.631
303.148
283.15
293.22
283.15
283.15
303.15
283.15
294.815
283.15
303.15
283.163
298.134
303.15
284.372
283.15
283.574
283.15
283.15
283.15
303.15
285.841
283.468
284.225
283.15
283.15
285.628
283.15
283.15
303.15
284.322
303.164
298.527
303.15
303.127
303.128
283.15
303.13
283.15
283.44
289.126
301.002
283.798
283.167
283.15
283.15
283.15
303.183
283.15
302.9
303.15
292.681
303.15
288.712
283.822
303.15
283.15
303.15
283.15
301.781
303.15
303.15
286.399
300.541
283.15
283.15
283.15
283.15
283.15
283.15
300.795
283.578
303.15
303.15
303.157
303.15
300.172
284.413
283.15
302.105
303.15
301.618
283.15
302.565
283.15
283.148
303.152
283.311
302.103
300.212
283.147
283.15
289.338
303.15
293.352
303.15
283.15
303.15
283.15
283.15
283.15
300.794
302.045
303.15
303.15
303.15
302.898
283.15
303.15
292.862
283.084
303.15
297.495
298.289
296.463
283.374
283.15
283.15
283.15
283.15
294.604
283.15
294.848
283.15
303.057
289.83
283.15
302.855
283.15
283.15
302.735
283.148
302.918
283.15
303.15
283.15
302.384
283.15
303.15
283.15
283.148
283.15
283.171
283.15
283.15
303.15
292.972
301.081
296.1
296.997
303.15
303.115
283.15
283.15
285.684
283.15
283.158
302.84
298.765
302.941
303.15
283.358
283.15
303.15
283.15
302.993
283.317
298.28
283.15
303.15
288.083
303.15
283.15
283.125
295.076
283.147
283.15
283.15
283.149
303.15
283.15
303.142
303.15
303.15
289.937
302.987
302.993
289.005
293.228
283.15
283.15
303.088
289.075
283.15
303.15
284.723
283.15
303.15
283.15
283.15
283.15
297.428
283.15
302.94
283.15
300.491
283.15
283.15
283.15
283.15
283.15
283.15
285.007
283.15
283.15
283.15
283.15
283.15
283.15
291.982
283.15
298.347
302.933
283.15
302.32
283.15
302.512
303.145
292.288
288.782
303.15
292.153
284.776
303.109
303.15
303.14
295.037
288.662
283.15
287.882
283.15
283.15
283.15
283.15
287.506
283.15
283.15
291.638
303.136
285.309
283.15
283.15
302.516
283.15
283.184
303.15
299.879
283.15
283.15
302.82
283.15
303.178
303.15
283.15
289.053
297.946
292.697
285.653
292.525
294.107
283.15
283.15
302.284
290.584
292.755
284.402
283.15
294.356
283.15
303.15
300.728
298.709
283.15
297.397
283.15
292.751
297.191
303.15
283.15
283.15
301.77
283.15
283.15
300.494
296.118
283.195
291.216
283.15
283.15
302.796
300.512
283.15
300.631
283.15
300.486
283.15
283.15
300.791
283.15
283.227
301.588
283.15
283.15
302.426
283.15
287.907
303.15
290.388
303.15
303.15
303.15
300.939
283.15
283.15
299.522
283.15
302.991
283.15
283.15
303.15
283.151
288.196
283.15
283.15
288.059
288.238
283.15
283.675
283.15
303.15
302.412
283.724
301.558
283.15
283.15
283.15
283.15
283.15
283.15
283.15
283.15
283.15
283.15
283.15
303.15
283.15
283.15
283.15
283.15
283.15
283.15
283.15
283.15
303.15
286.95
283.15
283.15
283.15
294.68
283.15
303.15
302.89
283.15
283.15
294.686
283.15
283.15
301.808
295.163
283.15
303.659
303.597
283.15
301.497
293.933
297.526
301.462
298.113
303.15
283.15
296.357
291.754
301.404
283.15
302.138
302.41
300.857
288.035
287.315
301.044
301.77
301.772
303.15
285.856
297.518
285.523
297.221
283.15
283.15
283.15
303.15
283.15
291.967
297.891
283.15
283.15
283.15
283.15
283.15
303.15
283.15
303.15
292.116
303.114
298.997
302.838
283.15
283.15
285.407
283.167
283.15
283.15
301.693
303.15
283.15
298.129
299.489
297.499
298.627
300.787
303.15
291.034
302.582
303.15
303.15
300.311
303.15
283.15
282.988
295.532
302.948
283.15
303.15
289.583
286.147
297.123
292.165
302.385
303.15
303.136
303.15
303.15
283.15
298.93
283.15
291.784
290.44
299.672
284.764
303.15
301.916
303.15
283.15
303.15
303.15
291.482
299.529
283.15
303.15
303.133
291.764
303.029
299.326
292.783
288.318
292.89
283.15
303.15
283.15
291.22
298.278
303.151
303.15
303.15
303.15
297.463
302.554
283.15
299.946
301.119
284.856
299.492
303.15
303.15
298.661
292.941
283.15
302.902
299.726
302.604
291.958
297.283
298.227
303.15
286.98
298.154
291.319
283.15
289.041
303.15
288.388
301.048
303.15
288.702
301.27
300.117
293.152
283.149
283.159
283.238
301.626
300.909
303.15
288.816
301.473
303.15
283.15
303.15
303.209
298.737
290.761
296.754
303.254
283.149
297.508
303.15
303.15
292.765
303.15
300.294
283.304
301.309
291.522
303.15
283.661
293.187
303.15
283.054
298.654
303.15
300.676
286.247
303.15
303.15
283.993
303.15
283.15
283.15
285.912
299.222
291.157
303.15
285.217
297.461
283.15
298.823
298.857
288.966
303.097
283.15
301.497
299.614
298.823
300.064
288.657
290.754
302.478
303.15
301.544
288.711
303.15
298.833
283.15
283.15
303.15
283.15
303.15
297.435
283.15
300.507
283.631
303.15
283.789
283.15
289.834
303.15
303.144
303.15
294.144
302.993
303.117
299.857
290.406
289.435
290.583
298.41
303.15
299.383
292.155
298.92
303.15
283.87
283.45
299.24
287.161
283.51
303.15
283.15
303.15
285.323
303.15
303.328
284.683
303.359
302.954
303.15
303.15
283.15
300.538
300.624
285.489
303.085
286.999
295.648
301.871
292.486
288.143
302.075
296.078
283.15
283.15
303.15
285.808
289.695
283.15
283.15
303.15
301.982
288.663
303.15
296.371
303.15
283.155
285.183
301.089
303.15
303.15
292.263
303.15
283.301
290.609
283.15
297.129
294.622
296.076
303.15
302.707
283.15
302.66
293.396
303.15
303.15
288.786
283.15
303.15
301.794
284.434
303.15
303.15
283.15
302.343
303.468
289.49
299.682
298.028
303.15
303.159
302.602
303.15
283.15
303.15
303.15
303.15
303.15
303.15
303.15
303.15
283.15
303.15
303.15
283.34
303.15
303.34
303.15
303.16
303.15
303.15
300.929
303.678
303.15
291.999
303.15
303.15
283.15
302.554
303.15
302.125
303.114
283.289
283.15
303.15
302.922
283.149
303.15
303.15
291.358
283.15
292.577
283.15
283.15
283.153
291.203
284.839
303.15
296.639
283.15
303.75
303.134
284.312
302.589
283.15
292.155
303.084
301.674
283.15
303.15
283.15
304.108
284.817
296.868
303.15
303.15
303.15
303.15
303.15
303.15
302.34
302.805
297.608
291.998
303.15
287.125
292.63
284.972
303.206
283.15
286.91
302.749
284.759
283.148
287.475
303.15
283.381
302.916
292.519
302.842
301.899
303.15
302.223
303.15
303.15
297.92
303.15
284.467
303.15
303.15
283.15
303.15
303.15
302.841
303.15
283.297
283.15
283.15
285.802
284.909
300.894
286.085
303.15
294.68
303.15
290.448
303.15
287.134
300.674
301.476
293.341
303.15
303.15
303.15
289.801
283.15
303.15
289.555
283.15
283.15
301.817
303.15
286.189
283.148
283.15
303.15
303.15
300.648
298.174
303.15
293.41
303.037
283.15
298.556
303.15
286.414
288.229
302.14
303.15
296.283
296.729
302.951
301.876
301.653
303.15
303.15
303.147
303.15
283.15
303.15
289.558
300.06
294.322
302.126
283.15
300.352
291.386
298.211
283.601
298.309
289.587
302.158
283.15
283.15
283.15
302.205
283.15
290.469
283.15
301.257
303.161
289.711
298.038
283.15
303.15
301.245
301.223
303.15
283.15
303.15
286.429
301.434
302.976
302.332
298.001
288.436
303.15
303.15
303.15
294.224
285.957
289.78
295.86
283.955
302.954
303.15
303.15
283.15
283.15
285.419
299.573
303.15
303.15
283.15
303.15
303.15
303.15
300.245
303.15
285.353
292.437
283.15
283.248
293.348
285.694
303.15
303.15
301.88
303.15
299.22
283.147
297.559
303.15
303.15
283.15
303.15
303.15
303.15
305.178
303.15
301.833
301.109
303.15
303.15
301.611
303.15
283.15
287.239
303.103
303.15
303.15
303.15
297.913
303.15
303.15
302.465
302.484
301.771
303.15
283.15
303.15
302.039
302.505
301.518
302.528
283.15
300.639
287.485
297.44
283.15
303.15
303.15
303.15
303.15
294.354
287.566
299.646
303.15
303.15
303.15
303.15
283.15
303.148
284.766
285.143
283.15
303.15
303.15
283.148
299.582
294.919
283.15
303.15
303.15
303.15
303.15
289.604
289.66
303.15
303.15
302.394
303.15
301.439
283.949
291.873
303.15
283.15
301.157
303.123
303.15
303.033
301.313
286.814
303.15
303.15
303.15
303.15
293.279
284.144
303.15
302.692
298.048
289.384
303.15
303.15
303.15
303.15
299.531
303.151
303.15
303.15
298.245
302.584
288.336
303.15
303.15
297.731
303.15
303.15
303.15
303.15
288.806
303.15
283.15
283.15
295.922
291.084
303.15
303.15
303.15
296.988
303.146
303.15
303.15
303.15
303.15
303.406
300.871
303.15
287.331
302.64
299.375
303.15
303.15
303.15
303.15
283.15
285.652
303.15
302.845
283.15
302.174
303.15
303.134
303.15
283.15
301.918
285.673
283.15
302.824
303.15
302.416
283.15
303.15
303.15
303.151
303.15
283.27
303.15
290.843
283.15
283.15
303.15
303.15
298.818
302.378
283.15
302.408
283.15
284.092
287.982
302.703
283.15
303.155
302.987
303.134
284.39
283.156
302.982
283.15
283.15
283.156
302.071
302.287
303.15
283.15
283.15
295.32
303.15
283.15
303.15
303.15
303.15
303.108
303.045
302.929
302.446
303.15
302.902
303.15
284.816
303.15
303.15
283.15
303.15
303.11
303.15
283.15
303.15
288.313
303.15
303.15
303.166
283.15
302.835
302.062
296.667
303.15
289.281
294.454
283.79
289.933
283.15
283.15
287.21
284.318
283.15
303.821
283.15
286.413
303.15
283.15
303.156
303.15
303.15
303.012
303.155
303.15
283.15
303.138
303.15
283.15
283.105
298.73
302.701
303.15
301.842
303.15
285.709
303.152
301.178
303.15
303.15
301.041
303.15
303.15
303.15
287.69
303.15
285.144
303.15
303.147
303.15
283.15
283.15
303.15
303.15
303.15
288.708
302.547
303.15
303.15
288.575
286.499
291.205
303.15
302.7
287.673
287.531
303.15
303.15
287.663
283.15
291.892
303.15
303.152
303.149
303.15
300.514
283.15
302.301
283.15
303.15
303.15
303.15
303.15
303.15
284.33
302.246
291.029
303.15
303.15
290.56
303.15
303.15
303.15
303.15
303.15
300.14
303.15
303.15
283.15
299.443
303.15
283.15
303.15
301.364
283.15
299.947
290.817
302.684
300.01
299.425
303.15
303.15
303.15
300.818
288.469
283.15
303.15
300.307
303.15
303.15
291.956
303.15
287.478
303.15
297.811
284.312
303.15
283.15
303.15
303.15
303.15
285.24
303.15
300.48
303.15
303.15
299.689
283.15
284.747
303.15
303.15
288.097
301.53
296.408
303.15
303.15
303.15
301.548
292.27
303.15
283.15
303.15
300.658
303.15
284.77
296.287
303.15
303.15
301.128
303.15
303.15
283.15
303.15
283.15
294.543
303.15
283.15
303.15
303.15
303.15
303.15
303.15
303.15
283.15
301.497
283.15
302.074
303.15
303.15
296.062
300.466
303.15
283.15
303.15
300.872
283.15
303.15
303.15
303.15
300.724
303.15
297.655
303.15
285.824
283.15
286.728
303.15
303.15
298.483
283.15
303.15
287.845
283.245
303.15
303.15
285.071
283.845
300.842
301.725
301.177
293.139
301.731
283.844
303.15
297.69
283.15
283.15
303.15
303.15
303.15
301.199
303.15
303.15
303.15
303.129
283.169
283.15
283.556
303.15
302.011
283.15
303.142
296.083
283.15
294.564
303.15
303.15
283.15
299.875
283.925
303.15
283.15
299.9
303.15
297.635
303.15
295.293
303.15
283.15
303.15
283.15
299.409
283.15
283.226
283.15
286.197
303.15
303.15
283.15
283.15
303.15
303.15
303.15
303.15
284.875
284.732
283.15
303.15
283.232
283.15
283.15
303.154
289.848
283.535
283.15
301.49
284.866
300.455
288.16
303.15
303.15
303.15
303.15
283.15
283.15
283.15
303.15
283.15
283.15
303.15
283.15
297.269
283.15
303.15
283.15
303.15
303.15
283.307
283.15
303.15
301.939
303.149
303.15
303.15
303.15
288.714
283.15
303.15
303.149
283.15
303.15
303.15
303.15
295.227
283.15
283.18
303.15
303.15
303.15
303.15
303.15
303.149
303.147
284.098
303.15
283.15
303.15
303.149
303.15
303.148
303.149
283.15
283.15
283.15
303.15
303.15
283.15
303.149
283.15
287.697
283.15
301.805
283.15
303.154
303.15
284.604
283.15
284.447
297.363
303.15
284.688
303.173
303.15
297.37
283.15
303.15
303.15
303.15
303.15
283.15
303.15
303.15
299.139
283.15
303.15
303.15
303.15
303.15
292.307
290.326
303.17
283.165
303.15
301.805
302.309
303.15
283.15
283.15
303.15
303.15
303.15
283.15
283.15
283.82
303.15
303.15
303.197
303.151
283.15
288.839
303.15
283.15
303.15
288.069
303.15
283.15
302.112
283.15
283.15
283.15
303.15
299.665
303.15
303.15
303.15
283.15
284.5
293.59
295.198
289.528
303.12
303.017
283.15
283.15
301.013
283.692
283.15
303.149
303.15
303.15
283.15
294.538
303.15
283.15
302.977
303.15
303.15
283.793
303.15
303.15
288.397
289.534
303.15
283.15
303.15
283.15
303.15
303.15
303.15
303.15
283.945
303.15
303.15
303.15
302.926
303.15
303.15
283.15
283.15
283.15
283.15
302.939
283.15
283.15
300.954
303.15
284.766
284.925
303.15
301.113
303.15
283.15
303.15
283.15
283.15
303.15
303.15
303.15
302.658
303.15
303.15
303.15
283.15
303.15
283.15
286.363
303.15
303.15
291.604
303.15
283.15
283.15
302.413
303.15
303.147
283.15
303.191
286.646
283.15
283.15
299.187
283.15
283.15
303.046
303.161
293.314
303.167
303.151
303.152
283.15
283.15
302.641
283.451
285.816
300.833
283.157
283.15
291.033
301.557
301.454
283.15
300.203
290.688
300.131
302.197
302.74
284.679
295.463
299.192
286.251
293.282
300.089
303.15
297.947
297.546
302.786
283.657
292.337
301.132
287.327
303.15
301.04
303.15
300.708
301.485
283.631
284.969
303.15
283.15
302.275
301.678
283.146
303.173
288.543
302.673
301.823
300.811
303.15
303.232
301.114
295.047
300.415
288.929
302.908
301.624
302.183
302.265
284.208
302.497
301.581
283.179
303.15
302.892
303.15
303.15
302.089
301.995
294.247
303.15
284.66
292.293
292.322
300.891
303.15
284.005
285.182
284.386
303.15
298.758
303.15
296.359
295.359
300.737
303.142
303.15
303.15
301.934
301.25
302.781
303.15
292.6
302.741
289.939
283.15
298.335
293.979
303.15
300.497
283.15
283.203
283.15
302.568
303.096
303.15
302.979
298.368
283.148
300.489
302.215
295.313
283.534
295.834
297.047
283.459
303.133
284.728
296.308
283.318
296.833
300.491
300.233
300.34
301.996
289.79
301.564
303.15
302.714
302.644
302.646
296.489
302.881
283.15
302.006
293.42
303.15
283.432
286.834
301.184
302.594
290.514
284.816
287.692
302.619
296.359
303.15
303.15
294.992
283.15
292.66
283.43
303.15
290.556
290.295
283.909
303.15
297.274
298.48
284.22
301.225
294.16
290.167
300.524
303.106
303.15
303.15
283.526
302.606
283.348
285.782
303.15
303.016
303.036
303.15
285.41
300.785
297.826
283.245
299.551
302.367
300.498
286.886
283.15
303.106
301.811
283.734
283.137
303.15
303.071
303.15
303.15
284.173
302.524
296.361
283.034
283.153
303.15
283.15
302.948
303.042
302.497
301.398
303.15
283.15
283.15
301.809
301.865
283.214
295.863
303.15
303.15
301.606
285.482
283.258
301.668
301.77
301.718
284.403
303.15
283.15
298.449
297.744
303.15
302.699
302.075
284.694
284.964
302.105
303.052
303.15
298.121
284.428
283.15
303.15
300.571
301.202
302.009
289.601
302.067
285.647
300.127
300.265
290.33
297.513
303.15
303.15
300.923
284.455
302.086
283.151
300.491
301.7
283.62
288.295
302.416
283.15
283.15
283.029
303.15
303.15
299.923
298.929
302.282
283.147
283.15
283.93
283.151
283.15
283.151
303.074
300.919
299.159
295.864
283.367
303.097
300.123
303.15
283.15
302.553
289.222
300.77
292.691
283.502
303.06
283.148
283.15
302.834
301.195
302.611
283.156
291.27
284.865
303.15
284.255
301.03
283.15
283.309
284.932
284.153
283.15
283.15
301.626
283.15
289.361
302.524
302.701
301.772
283.479
298.285
290.005
283.15
303.346
292.072
283.15
283.15
283.15
303.15
301.195
302.41
299.16
301.459
299.909
288.847
283.155
290.982
290.156
303.058
291.073
299.973
292.058
283.15
286.289
301.074
301.537
283.15
283.973
299.627
283.15
303.15
283.187
301.271
303.15
284.016
302.254
303.019
303.15
283.15
292.788
303.153
301.685
283.15
283.15
283.15
302.192
297.555
303.143
302.189
303.167
303.15
288.369
303.167
290.432
300.216
300.176
296.58
283.156
301.693
283.15
290.584
301.402
289.444
290.48
298.967
300.681
301.589
287.171
291.139
285.014
283.172
302.212
286.126
283.149
283.144
300.198
283.079
300.29
286.989
296.046
299.42
289.191
299.262
283.121
299.13
283.15
289.99
289.034
298.652
283.329
283.15
300.563
283.15
302.797
283.15
303.15
286.483
286.483
283.15
298.976
298.551
287.038
303.15
303.15
301.724
289.783
302.996
283.724
301.569
287.081
303.147
284.191
288.193
303.15
301.418
283.15
283.15
287.561
287.02
283.145
285.243
301.488
286.236
301.171
303.15
285.106
301.739
291.186
303.15
303.15
301.61
302.04
303.15
293.019
294.275
283.678
296.381
286.786
290.01
303.15
302.777
296.997
285.01
283.15
287.721
291.908
299.641
283.163
283.746
282.945
301.943
303.116
283.151
303.133
303.15
300.559
293.057
298.801
293.824
283.15
291.936
295.97
285.591
283.21
291.551
283.15
300.259
303.164
292.535
284.096
303.144
291.848
298.601
288.229
300.346
291.326
287.316
283.15
303.142
285.345
289.881
293.469
283.15
283.15
283.15
303.141
283.15
283.137
286.426
303.15
283.15
303.167
283.172
291.102
288.948
303.533
302.91
289.855
303.15
296.963
303.176
301.996
287.257
283.15
292.907
303.145
303.093
286.184
283.15
283.15
283.474
286.014
303.053
303.144
287.51
289.471
283.48
283.162
289.847
293.205
303.15
283.15
303.096
303.15
302.326
285.009
302.333
303.093
284.054
283.769
284.033
302.85
302.177
297.383
293.975
303.07
291.269
291.024
303.15
303.097
302.579
285.431
283.377
303.15
285.938
283.384
302.929
301.661
302.169
283.15
300.321
301.842
303.15
302.149
285.407
303.15
297.881
303.15
283.15
300.669
302.681
286.33
302.484
283.15
285.161
303.01
283.15
302.303
285.371
294.866
284.337
303.15
303.016
302.871
286.502
283.15
287.12
284.248
289.777
285.724
302.244
303.15
283.15
283.15
293.122
283.15
301.039
302.155
290.356
283.15
294.014
283.15
303.15
283.15
300.048
298.541
283.151
285.27
301.717
303.072
303.156
291.826
294.173
301.192
283.209
301.791
283.145
303.15
303.142
299.042
283.15
300.828
294.746
303.15
300.936
287.304
301.943
284.893
288.192
283.15
302.215
287.725
298.397
303.074
283.15
303.15
291.63
302.154
283.077
283.147
286.734
298.319
303.149
284.48
301.016
300.988
301.242
303.153
299.872
287.638
284.919
301.571
299.875
283.724
283.104
303.16
303.149
303.15
297.322
283.163
283.15
303.15
303.149
289.896
298.896
300.265
287.773
302.798
303.15
286.422
301.544
303.15
300.944
283.795
301.444
303.15
284.533
301.372
295.495
302.762
303.15
303.15
285.166
295.029
296.34
287.367
303.15
303.15
283.15
287.201
302.396
296.128
303.15
285.54
303.15
303.15
300.441
288.701
283.15
295.513
295.839
299.054
283.15
303.15
292.649
287.211
303.15
297.918
300.477
300.383
303.15
303.15
303.15
300.19
298.291
302.796
299.858
283.15
292.861
287.654
290.567
300.55
303.15
303.15
300.729
303.096
286.542
296.066
303.15
303.147
283.15
286.424
298.89
285.568
303.15
303.15
283.34
303.122
303.15
303.15
283.15
290.497
303.15
303.15
284.567
299.259
283.15
303.15
284.613
301.306
300.141
286.972
294.911
303.15
283.492
303.15
303.15
283.311
300.508
290.372
300.372
303.15
303.129
302.169
292.606
299.771
301.341
284.443
283.452
300.823
298.352
303.15
302.744
284.124
299.696
301.357
287.665
303.15
297.389
301.386
301.473
301.513
292.861
303.15
283.15
299.16
283.15
283.15
287.731
283.15
284
283.15
283.15
283.15
283.15
302.75
288.125
302.697
283.15
295.65
290.91
284.722
283.15
303.15
302.671
301.725
303.161
302.63
283.15
294.761
300.235
290.143
283.15
283.15
299.791
285.922
283.15
283.15
303.149
290.541
283.15
287.119
303.149
303.152
284.306
283.15
288.168
292.376
300.775
294.566
302.955
285.605
302.492
295.211
286.251
283.15
283.533
291.587
303.072
289.088
302.649
283.15
292.337
287.727
301.004
301.242
284.875
303.105
284.888
297.024
302.981
303.146
285.118
303.145
303.003
293.266
302.67
283.15
303.15
303.15
294.724
291.004
283.155
301.078
284.672
284.144
284.604
303.145
288.326
300.43
283.15
283.15
302.497
303.15
294.524
302.897
303.182
299.785
303.222
302.879
283.15
301.264
302.875
283.15
303.15
301.292
303.15
284.296
298.727
283.163
291.497
283.15
287.557
303.011
299.713
283.15
303.022
290.875
301.172
303.125
303.078
283.15
283.15
301.92
301.983
283.793
302.805
302.406
302.361
303.141
283.15
293.669
283.15
302.782
287.839
302.985
303.15
283.15
302.815
285.097
291.444
302.028
283.15
302.575
301.976
301.544
302.475
303.044
303.211
303.008
303.15
283.15
301.496
297.775
303.086
303.15
289.886
284.868
303.15
283.15
285.287
303.184
303.165
302.915
301.112
284.251
303.096
290.626
294.182
303.148
289.004
303.164
283.15
289.798
283.15
299.925
298.082
284.76
288.141
299.581
296.621
295.245
299.132
293.721
303.153
293.785
296.334
283.161
299.343
293.811
303.15
298.862
299.098
303.15
291.132
303.172
301.657
303.15
286.897
286.006
302.795
289.631
283.15
283.15
300.326
301.112
283.712
283.15
303.15
300.194
302.307
300.583
299.828
302.78
292.533
289.599
286.607
292.445
284.296
290.357
283.303
295.653
290.39
293.892
287.05
284.269
303.163
283.27
303.148
285.581
300.69
283.151
300.364
298.352
288.705
302.084
285.377
299.034
283.15
302.949
283.154
283.116
287.627
299.623
303.15
300.32
303.016
299.89
302.755
303.15
301.232
284.942
294.869
302.032
303.149
283.703
283.15
290.253
285.224
285.735
303.129
303.148
283.15
283.15
283.176
303.15
293.423
303.15
303.149
294.211
303.431
303.15
300.393
303.15
303.15
293.629
290.564
303.15
289.794
302.041
289.518
303.15
303.15
285.913
283.331
290.277
303.225
303.15
303.145
285.454
283.244
283.15
288.941
287.561
303.15
284.294
303.15
303.15
303.132
287.304
303.15
303.147
283.275
303.152
302.655
287.885
283.152
283.595
297.287
290.7
303.15
285.915
284.415
301.302
287.08
302.197
290.544
293.807
303.15
303.15
284.002
303.148
302.942
295.823
302.938
302.735
287.142
283.15
285.295
283.217
297.078
302.577
285.356
303.15
283.786
286.691
303.124
283.175
303.15
286.358
283.15
300.09
303.15
299.688
299.85
283.252
283.357
302.314
290.786
301.309
303.15
301.372
301.724
303.15
303.15
298.289
293.361
283.15
288.733
303.15
295.17
283.355
303.15
296.847
298.667
288.95
303.15
302.752
294.152
295.311
284.454
303.161
298.627
296.059
283.971
303.123
302.795
287.337
298.378
289.779
290.755
289.7
283.15
302.94
303.152
303.15
303.175
293.02
296.246
302.973
301.266
303.15
284.439
303.15
303.04
302.853
303.15
293.494
296.181
303.15
285.358
303.095
303.15
303.088
303.158
286.041
293.277
291.067
288.367
293.357
303.15
301.178
291.357
295.305
293.406
303.141
303.15
300.525
303.189
284.232
303.19
303.15
303.15
303.143
303.15
284.923
303.15
284.211
303.146
303.15
290.177
303.144
292.424
295.463
303.133
295.263
285.97
283.443
303.124
302.932
284.663
283.15
297.059
303.15
285.485
302.909
302.02
303.016
298.372
287.026
303.15
298.647
289.862
299.307
283.15
283.609
303.15
303.145
303.19
294.016
303.15
292.383
289.3
303.195
303.15
284.774
298.704
293.168
299.537
302.463
301.569
300.344
303.15
284.704
296.898
302.354
285.564
298.3
292.233
284.454
291.587
303.15
286.613
291.768
290.092
299.392
303.15
286.426
284.078
303.15
302.414
288.106
302.087
283.15
303.15
299.788
301.672
288.952
301.965
301.895
301.789
303.15
289.273
285.114
301.943
302.221
297.09
303.15
283.201
303.15
301.965
303.15
302.792
303.15
291.618
303.15
296.446
283.15
289.397
303.15
283.15
292.15
301.413
300.371
289.159
300.451
303.15
302.483
303.15
302.357
285.189
303.15
300.358
290.351
303.15
300.765
303.15
303.15
293.136
283.15
285.531
293.173
300.884
303.15
291.117
293.798
288.144
289.618
288.078
299.179
300.228
300.756
287.341