/*--------------------------------*- C++ -*----------------------------------*\
  =========                 |
  \\      /  F ield         | OpenFOAM: The Open Source CFD Toolbox
   \\    /   O peration     | Website:  https://openfoam.org
    \\  /    A nd           | Version:  10
     \\/     M anipulation  |
\*---------------------------------------------------------------------------*/
FoamFile
{
    format      ascii;
    class       volVectorField;
    location    "8.7";
    object      U;
}
// * * * * * * * * * * * * * * * * * * * * * * * * * * * * * * * * * * * * * //

dimensions      [0 1 -1 0 0 0 0];

internalField   nonuniform List<vector> 
111485
(
(2.90806 -2.90845 0.00303719)
(8.50314 -0.0225885 -0.0492173)
(8.37783 0.0200715 0.0260721)
(2.90879 -2.90955 0.000238112)
(8.70411 0.0383485 -0.00334897)
(3.053 3.05136 0.000257252)
(8.55536 0.0251222 0.00204616)
(8.78859 -0.0252855 0.0120539)
(8.55955 -0.00490424 0.00617217)
(8.75977 -0.0952667 -0.0407223)
(8.42791 0.0207871 0.0250393)
(8.81743 -0.0216222 0.040938)
(8.30531 0.0071281 0.018634)
(8.38862 -0.0176148 -0.0608054)
(8.50299 0.0335906 0.0178414)
(8.68412 -0.0585269 -0.0481657)
(8.54685 -0.00947746 0.0127938)
(2.99986 -0.218479 0.444982)
(8.7273 0.0251637 -0.0193586)
(2.88803 -2.88414 -0.00146445)
(2.89324 -2.8928 -0.00336487)
(3.06062 3.05962 -0.00025576)
(8.63165 0.0295996 -0.00904742)
(8.7671 -0.0592507 -0.0172039)
(8.58778 0.0330544 -0.00999691)
(2.93167 -2.91852 -0.00292575)
(8.85905 -0.044262 0.0460154)
(8.38267 -0.0125991 0.00360961)
(8.75316 0.0152884 -0.019848)
(2.89834 -2.89974 0.000120738)
(8.82149 0.143519 -0.0374169)
(8.71502 -0.0193252 0.00244885)
(2.88612 -2.89237 0.00427139)
(3.05696 3.06324 -0.00751344)
(3.06466 1.28302 0.489954)
(3.07608 3.09664 -0.0449627)
(8.77868 0.143324 -0.0576082)
(8.49328 0.0311354 0.0744285)
(8.74921 2.64681 0.147551)
(8.71756 0.0422294 0.00325537)
(3.01948 3.04691 -0.0212855)
(8.814 0.0101107 -0.0508731)
(8.70827 0.0440002 0.0150897)
(8.40109 -0.0509648 0.00165659)
(8.78469 -0.153932 -0.0787457)
(2.9162 -2.89467 0.0152644)
(8.81316 -0.0405546 0.0414315)
(8.75434 -0.0547483 -0.0163553)
(8.81457 0.004023 -0.0382235)
(2.892 -2.8574 0.0158392)
(2.87552 -2.84929 0.0179391)
(3.47506 2.92443 0.0505507)
(2.86756 -2.85637 0.00941641)
(8.79949 0.0398554 -0.0740955)
(2.86017 -2.8482 0.00105096)
(8.69894 0.0232754 -0.00788355)
(8.7017 -0.0371456 -0.0182114)
(3.06059 3.05466 0.00174027)
(7.93568 -0.0177969 -0.139908)
(8.74211 0.0355781 -0.00528996)
(8.7406 0.0395213 -0.00378999)
(2.89921 -2.9049 0.003726)
(8.10322 0.00867349 0.053118)
(8.84327 -0.0227406 0.068788)
(3.15566 2.86068 0.00467672)
(7.97387 0.0182985 -0.0154043)
(6.13104 -0.485929 0.216859)
(8.77113 -0.0341466 0.0127539)
(7.90857 0.00422527 0.0230327)
(7.4796 -0.0147994 0.00363734)
(8.45966 0.0515276 -0.0428932)
(7.84718 -0.00859107 0.023957)
(3.1403 -2.8267 -0.0653767)
(8.01564 0.0150135 0.0622087)
(2.90543 -2.9044 -4.81746e-05)
(8.72721 -0.0203894 0.00969073)
(3.05974 3.05979 -0.000543579)
(8.80421 -0.0187898 0.0466341)
(3.05885 3.05699 -0.00041123)
(2.75518 2.68824 -0.0913114)
(8.4852 -0.131042 0.0890604)
(8.76234 0.0345278 0.00762098)
(3.04843 3.0412 -0.000160675)
(2.90587 -2.90601 0.00162946)
(8.25208 -0.00157274 0.0160699)
(7.90853 0.0216848 -0.0326125)
(6.79611 4.41313 -1.18398)
(8.6823 0.102514 0.0093576)
(8.36453 0.215342 0.184427)
(8.47019 0.0107866 0.02552)
(8.95942 0.17893 -0.113986)
(8.71308 -0.0150759 0.0139284)
(8.14983 -0.0126242 0.032622)
(8.28493 -0.00979112 0.0090365)
(8.82447 0.0267317 -0.0553803)
(2.90576 -2.90541 -0.000690242)
(2.90067 -2.89993 0.00166565)
(8.67895 0.095692 0.0298125)
(8.94094 -1.76469 0.125787)
(8.12973 0.0300001 0.0533896)
(2.90574 -2.90623 0.00134754)
(8.72878 -0.0475832 0.00467844)
(3.07294 3.07806 0.0168625)
(8.65694 0.000606271 -0.00481154)
(8.58095 -0.0445735 -0.0552282)
(3.00192 2.68587 -0.0632041)
(3.05958 3.05852 -0.00057002)
(8.72227 -0.0237459 -0.00240946)
(8.05856 -0.0443317 0.0102741)
(7.72345 -0.229767 -0.244835)
(8.24799 -0.00650699 0.0150619)
(8.66553 0.012304 -0.00476912)
(8.0817 -0.00496365 0.0328014)
(7.95635 -0.0416465 0.0177805)
(2.9337 -2.91786 0.00239715)
(7.65056 -0.0072903 0.0231033)
(2.91718 -2.90799 -0.00342879)
(3.07334 3.06028 0.0126959)
(8.51721 0.031975 0.0251978)
(2.90798 -2.90594 0.00104367)
(2.93296 -2.91733 -0.00134336)
(4.02197 3.16585 0.187859)
(3.0279 3.04055 -0.00582734)
(3.0661 3.05879 -0.0072693)
(8.32434 -0.0209716 0.0407573)
(2.3149 -1.629 -0.435512)
(3.83496 3.29929 0.116162)
(7.7269 -0.00214198 0.0375874)
(2.90542 -2.90426 -0.00102022)
(8.7668 0.658714 -0.236729)
(8.75043 0.169397 -0.0869884)
(8.66311 0.0982496 0.0292677)
(2.89264 -2.88538 -0.0142731)
(3.93909 3.42621 0.353043)
(3.67601 3.28083 0.154741)
(8.74995 0.0263021 -0.0161942)
(3.0619 3.06161 -0.000935258)
(8.68503 0.0207875 0.00143512)
(8.62793 0.0400183 0.0235808)
(8.48129 0.0382556 0.0363526)
(6.6468 0.000723519 0.0277304)
(8.6971 0.0449793 0.0105736)
(8.6233 0.0445205 0.0281459)
(8.2195 0.00869266 -0.0342743)
(8.59221 -0.0165818 0.00871945)
(8.49739 -0.00440494 0.0214217)
(3.06258 3.06285 -0.000624482)
(2.90573 -2.90699 0.000270616)
(3.05406 3.05574 0.00638071)
(8.70152 0.038543 0.00684482)
(8.22357 0.0147043 -0.0309978)
(2.89525 -2.89376 0.00181579)
(5.68055 -0.0332635 0.0573523)
(8.48308 0.0410989 0.0192267)
(9.29389 0.375259 0.16312)
(8.74874 0.0259592 -0.016966)
(8.70898 0.0269161 -0.00672044)
(8.06975 0.00265225 -0.0157485)
(9.38066 0.459216 0.112737)
(2.88961 -2.91686 0.0112494)
(2.90377 -2.90641 0.00278579)
(8.7339 0.0250516 -0.0167325)
(8.55615 -0.0304657 -0.0316687)
(9.44272 0.517349 0.122675)
(9.31383 0.452845 0.168807)
(8.09737 0.0119202 0.0414911)
(8.71455 0.108812 -0.0394283)
(3.02159 3.04684 0.000508118)
(9.55359 0.640142 0.151899)
(9.11449 0.460309 0.140378)
(3.05753 3.05938 0.000860364)
(2.90039 -2.89976 0.000226708)
(6.94785 0.00858699 -0.0540422)
(3.06085 3.06218 0.000396426)
(8.66941 -0.018802 -0.0035551)
(8.34147 0.00452463 -0.0192437)
(3.06 2.98683 -0.0167719)
(3.14282 -2.88352 0.0311909)
(2.8997 -2.88472 -0.00504407)
(3.01598 2.8487 -0.0294821)
(3.15859 -2.9078 0.0508821)
(2.90341 -2.90522 0.00263171)
(8.68015 0.0336585 0.0090693)
(8.69572 0.0207553 -0.0163339)
(8.66441 0.026742 -0.00898933)
(8.5547 -0.0254396 0.0307126)
(8.24406 -0.020337 0.00674294)
(8.27272 0.0140521 0.0262271)
(7.33693 0.0954433 0.0100717)
(2.90036 -2.89044 -0.000256044)
(8.01101 0.00127603 0.0103507)
(3.13504 -2.9074 0.0317228)
(2.9269 -2.93199 -0.00148545)
(8.34247 0.0159168 0.0297856)
(8.76394 -0.106294 -0.0394783)
(8.67962 0.0174985 -0.0397608)
(8.33331 -0.00975971 0.011032)
(8.48641 -0.00624599 0.009847)
(2.90028 -2.89551 0.00717479)
(8.32308 -0.0375686 0.00633189)
(8.29987 -0.00873614 -0.0522751)
(5.81524 1.86339 0.243454)
(8.50864 -0.068907 0.00538341)
(8.62895 -0.0144352 0.00816152)
(2.9142 -2.89781 -0.00469114)
(8.30654 0.0204798 0.0296733)
(8.71985 0.0206852 -0.00715525)
(3.18945 -2.8746 0.0142796)
(8.3673 0.0209339 0.0318421)
(8.78315 -0.00642143 0.0447748)
(8.21926 0.00929168 -0.0356522)
(8.28209 0.0217362 0.0389547)
(3.15559 -2.91709 0.0413109)
(2.89873 -2.8989 -0.000806264)
(8.27984 0.0221715 0.041846)
(5.43557 3.41486 -0.336428)
(8.88378 0.0390554 -0.0869136)
(3.05931 3.06038 -0.00188094)
(8.3315 0.016534 0.0347567)
(8.33792 0.00623118 0.00512033)
(8.83471 -0.0282663 0.0552367)
(2.90784 -2.90652 0.00113485)
(7.77815 -0.00233692 0.0207186)
(8.72851 0.125766 0.0656497)
(4.80473 3.23046 -0.352013)
(3.06089 3.06143 -0.00225511)
(3.0576 3.05927 0.000846958)
(8.92594 -0.0570603 0.0852063)
(8.33451 0.198329 -0.0238131)
(3.21505 2.71693 -0.06242)
(3.60596 -2.79211 0.113653)
(8.36315 0.00837732 0.0150945)
(8.63601 0.0148768 -0.000943136)
(8.72155 0.0192275 0.0081766)
(3.16902 2.76033 -0.081157)
(3.06618 -2.82277 -0.0108656)
(8.3976 0.100154 -0.119378)
(2.90508 -2.90489 0.00173742)
(7.96247 0.0104455 -0.0508813)
(8.26919 0.00560581 0.0344233)
(8.35958 0.00412367 0.0187589)
(8.37039 0.0170498 0.0215543)
(8.40424 0.00934605 0.0288616)
(3.04927 3.04989 0.00945525)
(6.3275 -0.0186368 -0.245203)
(8.50408 0.0191067 0.0332064)
(3.04456 3.04978 -0.00369006)
(3.05942 3.06137 0.000354415)
(8.86353 -0.10781 -0.010494)
(8.6617 0.0390981 -0.0130286)
(3.13223 2.67029 -0.083196)
(7.88527 -0.0033564 0.0239252)
(8.48744 0.024293 0.0224468)
(2.90738 -2.90595 -0.000886372)
(3.86418 3.64423 -0.0232358)
(8.72075 0.0801136 -0.0351558)
(2.91854 -2.88054 0.00158426)
(3.2301 -2.2891 -0.054537)
(4.44399 -1.54939 -0.157021)
(2.91046 -2.90223 -0.00145751)
(8.53767 -0.0152374 -0.0165487)
(8.29986 -0.0132452 -0.0164262)
(8.6444 0.0137823 -0.0211909)
(2.90377 -2.90422 -0.000213973)
(8.55579 0.0240983 0.020157)
(2.90877 -2.90952 0.000208975)
(2.90803 -2.90901 0.000686529)
(2.90016 -2.88886 0.00478367)
(5.83622 0.0224608 -0.0908092)
(8.78659 -0.042558 0.0498197)
(8.36322 0.0310396 0.0432133)
(8.52265 0.0286468 0.013899)
(8.81902 -0.0508967 -0.00208233)
(8.48286 0.0127472 0.0150331)
(8.6954 0.0314292 0.0110013)
(8.7585 0.149239 -0.0143019)
(8.57209 0.0113748 -0.00382569)
(8.64583 0.015187 -0.00440632)
(3.11235 3.06278 -0.00187227)
(2.8964 -2.89655 -0.00379934)
(5.33274 0.0354277 -0.130613)
(8.69479 -0.0196509 0.0022964)
(8.76424 0.0665418 0.0711639)
(8.27438 -0.0106659 -0.0135677)
(2.90842 -2.90671 0.000767125)
(8.64912 0.0275361 0.0160255)
(8.68524 0.0442922 0.0213355)
(8.50978 0.0196571 0.0109306)
(7.48135 -0.00777384 -0.0401125)
(7.84311 -0.089132 -0.196665)
(8.63541 0.0270042 0.00995753)
(8.4989 0.0240711 0.0155029)
(8.65392 0.0668299 -0.0423427)
(3.05991 3.06016 0.000391773)
(7.93892 0.044451 -0.00276274)
(3.05885 3.05922 -0.000944583)
(2.4839 1.89282 -0.395064)
(3.27748 -2.09395 -0.214171)
(8.99605 -0.0811172 0.120187)
(8.82158 -0.0509391 -0.00174403)
(8.6125 -0.00371488 0.00201314)
(2.91036 -2.90279 -0.000854827)
(3.0466 3.06446 0.0252264)
(8.63894 0.0290931 0.0143328)
(8.26964 0.0182744 -0.0115517)
(2.89697 -2.89615 0.000836477)
(2.9085 -2.90634 0.00239093)
(2.84003 -2.85497 0.0207511)
(8.20485 0.0113212 -0.00444426)
(8.60682 0.00944448 -0.0089795)
(8.21374 0.00213432 0.0301588)
(7.94573 0.0137845 -0.0424799)
(8.7742 0.019866 -0.0207816)
(3.50343 3.00787 0.0837958)
(3.05336 3.0607 0.00556551)
(2.90518 -2.90157 -0.00135345)
(8.60266 0.0334611 0.0230801)
(5.57842 -4.72544 -0.34207)
(8.19635 -0.00978257 0.012563)
(8.93092 -0.0624918 0.196185)
(7.19034 0.00543249 -0.149603)
(3.06109 3.06055 -0.000378169)
(2.9034 -2.90668 0.00205706)
(2.90831 -2.90947 -0.00145195)
(3.85355 3.2342 0.198155)
(8.71455 0.0263827 -0.00332393)
(8.78948 -0.0510956 0.00730719)
(3.06518 3.07304 0.00099381)
(8.6568 0.0241418 -0.00157258)
(3.23094 2.6201 0.184147)
(2.91099 -2.87738 -0.00716452)
(8.86897 -0.0304324 0.0727745)
(8.63393 0.0321727 0.0159121)
(8.82342 -0.0118499 0.0209488)
(8.66014 0.0247184 0.000446713)
(2.94201 2.60877 0.158097)
(3.81469 3.28453 0.20898)
(3.05284 3.05672 -0.00438057)
(8.6466 0.0303527 0.0115059)
(8.63469 0.0247932 -0.00119247)
(8.79362 0.156637 -0.0527211)
(3.02525 3.01832 0.00553171)
(6.03677 5.34552 -1.27893)
(8.24477 0.0823928 0.0749986)
(8.79585 -0.0419178 0.0208928)
(8.65622 0.0313057 0.0196396)
(8.24 0.856714 -0.0669748)
(8.77377 0.0195326 -0.0249237)
(3.04783 3.04783 0.00133626)
(8.77537 0.0211939 -0.0134842)
(8.43029 0.0120345 0.0176551)
(8.87576 -0.209575 -0.00192431)
(8.89702 -0.0534643 0.10893)
(8.59879 -0.0695212 -0.0634215)
(3.04629 3.05969 -0.0114212)
(2.90195 -2.90517 -0.00547049)
(3.06538 3.04748 0.0116455)
(2.88352 -2.89184 -0.000562193)
(8.7775 -0.0419619 0.000135199)
(8.69779 -0.0127951 0.00331706)
(8.70071 0.0417447 -0.0326)
(8.76784 0.0246593 -0.0274656)
(3.03474 3.03784 -0.0131552)
(8.67956 -0.0641345 -0.0235315)
(3.05639 3.05727 0.00110833)
(2.89502 -2.9033 0.000127196)
(8.76896 0.0249127 -0.0180665)
(2.67325 -2.67619 0.0385432)
(4.81709 -0.853307 -0.0676289)
(2.87182 -2.8611 0.00241118)
(3.08541 3.04439 0.024393)
(8.6859 0.0157374 -0.0120484)
(3.05884 3.05713 0.00111671)
(8.57756 0.0249099 -0.00487042)
(8.15949 0.00468191 -0.0378166)
(3.06421 3.06434 -0.000722911)
(7.85643 -0.00353611 -0.0373715)
(8.53824 0.0152857 0.0123035)
(3.08286 2.70581 -0.0990166)
(8.50082 0.0382187 0.0426385)
(8.03779 0.0428338 -0.00368767)
(8.55546 0.0405309 0.0120925)
(7.97308 0.0309228 0.101028)
(8.63348 0.0250134 0.00435121)
(8.24583 0.00214998 -0.0161176)
(3.02562 2.58857 -0.0130741)
(2.89575 -2.89038 0.0173633)
(7.38948 0.011819 0.173725)
(3.03809 3.04865 -0.0173194)
(8.5414 0.0460468 0.0405601)
(8.87551 -0.0450711 0.0889277)
(3.07294 2.93841 0.0245912)
(3.05225 3.06516 -0.000871566)
(8.75227 -0.0175653 0.00670233)
(8.43539 -0.039762 -0.0868535)
(8.45746 0.0452099 0.00138105)
(8.76664 0.0204904 -0.00783663)
(3.05946 3.05504 -0.0014861)
(8.9135 -0.025472 0.144074)
(8.78027 -0.0298829 0.0443073)
(3.0686 3.06339 -1.71882e-05)
(8.59324 0.133686 0.108948)
(8.20569 -0.0333991 -0.0886451)
(2.90115 -2.90062 -0.000714569)
(2.8978 -2.89776 0.000912538)
(8.56904 0.0258263 -0.00922477)
(8.62047 0.00761223 -0.0129704)
(3.07174 3.07185 -0.00387826)
(2.90382 -2.89781 -0.00453418)
(5.1345 -2.75815 0.63069)
(2.90757 -2.90953 0.000610431)
(8.61801 -0.00309024 0.0159568)
(3.03898 3.05048 0.00704413)
(2.90852 -2.90944 0.000235735)
(8.82776 -0.0125891 0.0287787)
(7.99852 -0.0934061 -0.231325)
(8.73116 -0.0522141 0.0117801)
(8.43572 -0.000914661 0.0162264)
(3.06626 3.06411 0.000198356)
(3.96493 3.05935 0.153099)
(8.43345 0.113082 0.161083)
(3.71637 3.27932 0.173375)
(8.40743 0.0360948 0.0658633)
(8.37396 -0.0712923 0.00689943)
(8.74155 -0.0253978 -0.0235115)
(6.0841 0.19809 0.226469)
(3.64724 3.14532 0.15711)
(8.7298 0.0141113 -0.0827213)
(8.844 0.274348 -0.0889792)
(2.90343 -2.90869 0.00536428)
(8.81661 0.0230753 -0.0872387)
(8.82826 -0.0393188 0.0325801)
(2.90888 -2.90826 0.00298603)
(8.50698 0.488425 -0.261242)
(7.43721 6.94457e-05 -0.102229)
(3.85708 3.03692 0.127605)
(8.79323 -0.0220437 0.0360859)
(8.68654 0.0137497 -0.00974757)
(8.63833 0.0235911 -0.00624876)
(3.05893 3.05626 -0.000857431)
(8.60009 -0.0128519 0.0596229)
(8.82562 -0.00358625 0.028176)
(8.56824 0.0839749 -0.00850517)
(5.40365 -0.0732993 0.0907004)
(3.71555 3.5052 -0.0716745)
(5.09858 -0.130513 0.170988)
(2.90272 -2.90665 0.0021367)
(7.9279 -0.269002 -0.262379)
(8.60195 -0.0144568 -0.0566584)
(3.06032 3.05809 0.00483982)
(8.18347 0.0205993 -0.0626868)
(6.7423 -0.0174949 0.123337)
(3.95964 3.50509 -0.0357062)
(2.90562 -2.90367 0.000186905)
(3.40655 -2.8901 0.0940221)
(2.90788 -2.90671 -0.000349313)
(8.53894 0.0475645 -0.00618226)
(8.62618 0.0463371 -0.0149351)
(8.54941 -0.0244637 -0.0248221)
(8.03036 0.0221096 -0.0448433)
(8.75372 -0.178568 -0.036956)
(3.05786 3.04474 -0.00588546)
(8.4927 0.000306246 -0.0213068)
(2.91423 -2.89284 0.000368768)
(8.40542 0.0314897 0.0203437)
(3.06968 3.07005 -0.00131279)
(2.90572 -2.90308 1.23387e-05)
(2.87601 -2.88415 -0.00388241)
(8.25972 -0.0555581 0.0119319)
(2.89512 -2.89625 -0.00245075)
(2.9072 -2.90742 0.00127471)
(3.01668 2.01589 -0.123237)
(2.90781 -2.9096 0.00101428)
(3.027 3.06892 0.028853)
(8.46571 -0.0313273 -0.0132197)
(3.0609 3.05666 0.00111801)
(3.62569 2.67939 0.0049909)
(3.06128 3.06312 0.00367122)
(2.89667 -2.88696 -0.00104704)
(3.0603 3.04925 -0.00423366)
(2.89564 -2.88096 -0.0147522)
(3.04225 3.04455 3.07204e-05)
(7.70364 0.00210176 -0.0659646)
(3.06496 3.04874 0.0121993)
(7.90126 0.117412 0.160306)
(8.64779 0.0117655 -0.00354877)
(8.91804 -0.362449 -0.0616088)
(3.06744 3.05217 -0.00063043)
(7.52707 0.0217697 0.125838)
(3.06499 3.05429 0.00295253)
(2.90838 -2.90959 -0.00131709)
(8.52208 -0.0810274 -0.0874004)
(8.53429 -0.0657816 -0.0790624)
(8.55347 -0.0185759 -0.0235397)
(8.93686 0.022972 -0.152182)
(3.51431 2.95963 -0.0973391)
(8.75621 0.0109183 -0.0455897)
(8.75324 0.0162977 -0.0415806)
(8.6499 0.0158004 -0.000275108)
(8.50944 0.00957363 0.00276077)
(8.6637 -0.0881684 -0.0607212)
(2.89512 -2.89666 -0.00082524)
(8.65771 0.0119712 8.92862e-05)
(3.99963 3.48549 -0.0258568)
(8.62622 0.022922 -0.0117081)
(3.05607 3.05269 -0.00110915)
(8.78535 0.0284753 -0.0394509)
(3.95621 3.28854 0.030182)
(8.66629 0.00758671 -0.0127013)
(8.69208 -0.0415048 0.0317915)
(3.35759 -1.68597 -0.020478)
(3.06126 3.06343 0.0340905)
(8.52159 0.0152207 0.0149741)
(2.90484 -2.90364 0.000540418)
(8.82264 0.0362881 -0.0575488)
(8.75792 0.0342944 -0.0373672)
(3.05807 3.04897 -0.0243758)
(3.05147 3.0503 0.00752183)
(2.99361 2.68626 -0.0598239)
(3.05784 3.06011 0.00147479)
(6.12295 -0.328144 0.165946)
(8.82755 0.030396 -0.0551269)
(3.10353 3.03053 -0.00223236)
(3.05401 3.05829 0.00301139)
(7.52818 0.00994091 -0.0179136)
(3.06272 3.06235 0.000165109)
(8.69131 0.0247259 -0.0318728)
(3.06051 3.0598 0.000293002)
(8.60745 -0.049976 -0.0377984)
(2.90875 -2.90895 0.000470043)
(8.07356 -0.0409242 -0.12274)
(6.66736 -0.0268473 0.00715403)
(8.0883 0.0255005 -0.017454)
(8.66928 0.0098165 -0.013722)
(3.07193 3.04937 -0.0100051)
(7.85913 0.00807183 -0.00113797)
(3.06577 3.0549 0.00275195)
(3.06122 3.06206 -0.00830461)
(8.56956 -0.0230802 -0.013717)
(3.05729 3.05367 -0.00139991)
(7.29054 0.00121182 -0.074312)
(2.95214 2.71789 -0.0900722)
(8.70217 0.022577 -0.0278267)
(2.89831 -2.90138 0.000271231)
(8.77612 0.0216315 -0.0193188)
(2.90991 -2.90722 0.000398294)
(3.62988 3.21407 0.0929838)
(8.87533 0.317695 -0.0208006)
(8.52609 -0.0729972 -0.0918067)
(8.65476 0.0365527 0.000200118)
(8.72649 -0.098917 -0.0646605)
(8.61568 0.0171644 -0.0088267)
(8.81242 -0.0624125 -0.00611763)
(3.0386 3.0619 -0.0136154)
(8.65014 0.0489882 0.0263542)
(8.56104 -0.0859241 -0.0886114)
(3.0597 3.06153 -0.00169061)
(7.26443 -0.10642 -0.281092)
(8.84561 -0.064312 -0.0440056)
(8.49354 0.036263 0.0323975)
(3.02718 2.98592 -0.0170702)
(3.76186 0.753254 -0.5949)
(8.31273 0.0210804 0.0274368)
(6.80018 -0.0268067 0.0689295)
(7.05328 1.82068 -0.0143648)
(3.7702 -1.91002 -0.156838)
(8.79561 -0.101418 -0.022414)
(8.25423 0.0317559 0.0613317)
(8.52055 -0.080399 -0.0885527)
(8.68417 -0.0488488 -0.0185038)
(8.54129 0.0500693 0.0211013)
(7.5871 0.98556 -0.0447409)
(3.77963 3.20867 0.0264367)
(7.71207 -0.291895 0.0679516)
(7.44571 -0.646844 0.156878)
(2.90235 -2.90396 0.00139386)
(7.5966 0.053299 -0.0224196)
(3.07571 3.01794 -0.0158122)
(3.58736 3.26278 0.0306414)
(8.61344 0.0189472 -0.00526392)
(7.64022 1.29933 -0.0455545)
(9.19066 -0.781948 -0.14174)
(8.28243 -1.4283 0.0290099)
(3.57773 3.40055 -0.250303)
(8.75937 -0.0543547 -0.0172161)
(8.64289 0.0505034 0.0391584)
(3.05318 3.04465 -0.00152922)
(3.93483 2.19294 -0.0899228)
(8.64263 0.0650643 0.040561)
(2.9061 -2.89489 0.0031569)
(3.05959 3.05827 -0.000631258)
(3.0501 3.04896 -0.00027204)
(3.06335 3.04743 0.00356821)
(8.75651 -0.090625 -0.0415512)
(3.06047 3.05969 0.00191725)
(2.91582 -2.91566 0.0154062)
(8.60006 -0.0531611 -0.0431128)
(7.90956 -0.00314563 -0.0242447)
(4.27862 -3.74552 -0.198261)
(8.64316 0.0635505 0.0391207)
(3.55944 2.87919 0.0646267)
(8.68961 -0.0358093 -0.0197784)
(2.84917 -2.84705 -0.0133978)
(3.05291 3.05899 -0.00226298)
(8.73453 -0.0557816 -0.0159311)
(3.05944 3.04171 -0.0117652)
(3.06103 3.05393 0.00169799)
(3.50424 3.35382 0.0968553)
(8.21297 -0.00645695 -0.00556547)
(5.03174 4.21439 -0.558586)
(8.60717 -0.0361374 -0.017453)
(8.61188 0.0186588 -0.007052)
(2.88024 -2.86151 -0.0229604)
(8.9337 -0.0230185 0.284064)
(8.18296 -0.0502425 -0.122824)
(8.57556 0.00147963 -0.00426015)
(8.68028 0.157023 0.0156707)
(8.72658 0.0852357 -0.18679)
(7.5011 0.00379235 -0.0706826)
(3.05453 3.05126 0.00174252)
(8.7455 0.00944393 0.0240791)
(8.67914 0.0371742 -0.00767007)
(2.87764 -2.91571 0.00574383)
(8.07249 -0.00582732 -0.00229566)
(8.75986 0.0485462 -0.0174514)
(8.75863 0.0402233 -0.0145849)
(7.95407 -0.0345634 -0.0790081)
(8.75567 0.0383752 -0.0160378)
(8.76025 0.0458569 -0.00520848)
(2.91133 -2.87273 0.0177493)
(8.75907 -0.0186635 0.0446397)
(7.24695 -0.0452554 -0.0134869)
(3.68312 3.20059 0.20265)
(8.75462 0.0329438 -0.021413)
(8.35417 0.00952999 -0.0198447)
(4.89707 3.98941 -0.601188)
(8.61289 0.0173641 -0.00706382)
(8.7587 0.0275044 -0.0266635)
(8.35734 0.00271808 -0.0349598)
(8.68788 0.0377512 0.00395082)
(8.58869 0.0849451 0.0372567)
(8.63484 0.00211811 0.0101867)
(2.99343 2.92577 0.00445133)
(8.68623 0.0459136 0.00646193)
(8.15322 -0.0538631 -0.110541)
(3.25552 -1.95143 0.0763726)
(8.64492 0.0746013 0.0460149)
(8.53366 0.0710208 0.0696036)
(8.66203 0.0257856 0.00160838)
(3.05498 3.04777 0.00270319)
(8.39617 0.048787 -0.0800176)
(2.90546 -2.89285 0.00722822)
(3.06047 3.0607 -0.00208182)
(3.04428 3.02331 -0.00124629)
(3.06518 3.0475 0.000663822)
(7.26941 0.00445404 -0.0333497)
(3.6426 3.13825 0.126433)
(6.55425 -0.463023 0.541041)
(2.89078 -2.89193 -0.000235257)
(3.05348 3.09441 -0.00462287)
(8.65364 0.086621 0.044545)
(8.70728 0.0226055 -0.0403391)
(2.90758 -2.90783 6.90194e-05)
(8.71621 -0.0530058 -0.00595121)
(2.90574 -2.90376 0.00846446)
(2.90773 -2.90571 -0.00111664)
(2.85935 -2.85945 0.00877972)
(8.84589 -0.0716507 -0.00968903)
(7.36505 0.0422378 -0.0201237)
(3.60572 3.24985 0.0404537)
(2.93492 -2.90236 0.00781269)
(3.05553 3.06549 -0.00407231)
(3.05741 3.0593 -0.000728444)
(8.90233 0.0179783 -0.0979859)
(8.64155 0.0180579 -0.000654341)
(3.63292 3.41666 0.15706)
(8.80424 0.0279006 -0.0481388)
(8.18914 -0.114369 -0.340536)
(3.05392 3.05533 -0.00154593)
(8.78126 0.0241797 -0.0418803)
(8.05034 0.00644611 0.0431008)
(8.54602 0.0452831 -0.0516207)
(3.06491 3.0633 -0.000198053)
(3.05587 3.0533 0.000345554)
(8.4846 0.0515325 0.0519052)
(8.67232 0.0211678 -0.00371789)
(3.61334 3.28788 0.0513678)
(3.04593 3.04696 0.000264169)
(3.09796 3.00356 -0.0124307)
(8.61864 -0.0163827 0.00726057)
(2.90324 -2.90318 -0.00321037)
(2.89895 -2.88786 0.00223476)
(3.0421 3.04262 0.000142104)
(8.77851 0.0270347 -0.0367936)
(7.67314 -0.038363 0.0137366)
(3.06328 3.06356 5.70022e-05)
(3.39608 0.690237 0.597583)
(3.69107 -0.388901 -0.146029)
(8.4898 0.0458595 -0.00265261)
(3.05424 3.05927 -0.00137066)
(3.06026 3.05475 -0.00235649)
(8.80654 -0.110931 -0.0170993)
(8.43594 0.14349 0.135659)
(3.6643 3.27562 0.154449)
(5.32581 1.73898 0.125499)
(8.31713 0.190307 0.239168)
(7.95776 0.0246397 -0.055665)
(8.46345 0.00521744 -0.00667175)
(3.16212 2.96977 -0.00754718)
(8.4138 0.0251594 -0.00359989)
(8.72071 -0.0589408 0.0625833)
(3.06528 3.05776 -0.00327835)
(2.88422 -2.83442 0.00503182)
(3.04391 3.04559 0.000452502)
(3.05428 3.054 -0.0006189)
(3.05996 3.06484 -0.00361034)
(3.06406 3.06515 -0.000639521)
(8.79597 0.0257714 -0.0389668)
(2.90557 -2.90486 0.00187242)
(3.0522 3.05284 0.000469253)
(3.04255 3.00263 -0.00402669)
(8.80398 0.0278075 -0.0493183)
(8.66578 0.0206997 0.000445232)
(2.91809 -2.87863 -0.000319701)
(2.87024 -2.84161 0.00384913)
(8.87316 -0.0428659 0.0767776)
(8.43057 0.0027826 0.00863319)
(8.4181 0.0065895 0.0127183)
(2.90666 -2.89893 -0.00162026)
(3.05026 3.05041 0.00208624)
(8.42467 0.00456061 0.0120392)
(2.90756 -2.90514 0.000400973)
(8.32267 0.0232024 0.00226386)
(8.51347 0.0143461 0.0300836)
(8.5359 0.0297613 0.00988903)
(2.91496 -2.8933 0.00826527)
(2.90691 -2.9084 0.000563311)
(2.90642 -2.90837 0.000191798)
(3.06053 3.06084 0.000863861)
(8.63034 -0.0414708 -0.023994)
(3.057 3.06008 0.00129376)
(3.05138 3.0487 -0.00010896)
(8.58883 0.0231949 -0.0342156)
(2.90712 -2.90809 0.00123723)
(8.46268 0.00133718 0.00992063)
(7.72202 -0.0671587 0.0264144)
(3.07801 2.9743 0.0160035)
(8.65536 0.0228722 -0.0071571)
(4.08132 0.624872 -0.107857)
(8.54453 0.00903116 0.00461477)
(8.83338 -0.0304016 0.0207171)
(7.79199 0.0320516 0.0110746)
(8.83423 -0.00159975 0.0577872)
(6.37762 0.139027 -0.242532)
(3.63935 2.91361 0.0587854)
(8.5252 0.00513012 0.00322702)
(8.86893 0.0700239 0.0110055)
(8.65905 -0.0208124 -0.00886706)
(3.13323 2.72737 -0.0914393)
(3.87697 0.38427 -0.197875)
(4.61693 -0.314945 0.155035)
(8.53502 0.0121916 0.00657577)
(3.05162 3.05612 0.00406514)
(8.36914 -0.0195085 -0.0617268)
(8.54977 -0.00851739 -0.0189619)
(8.29829 -0.0737126 -0.133945)
(3.17574 -2.24348 -0.170347)
(2.90767 -2.90882 0.00142059)
(2.9046 -2.90463 -5.03107e-05)
(8.69971 -0.0283189 -0.00319367)
(3.56579 2.95708 -0.0383341)
(8.25775 0.0287801 0.0134494)
(3.31825 3.02273 0.0421627)
(8.21517 -0.0172667 -0.0591643)
(8.44676 -0.0175141 0.00843003)
(8.35888 -0.0103955 0.0297802)
(8.66894 0.0217208 -0.00464451)
(3.0513 3.05127 -0.000993114)
(3.03806 3.02863 -0.00567678)
(3.10473 -2.82837 0.0142835)
(8.65503 0.0268696 0.00425047)
(3.06398 3.05523 -0.000613852)
(3.53029 3.03801 -0.134077)
(8.84388 0.165879 -0.139293)
(3.06944 3.06566 -0.00180717)
(3.04545 3.06047 0.00923677)
(2.89063 -2.88167 -0.00476237)
(3.062 3.06284 0.000914604)
(8.26807 -0.00323795 0.0282051)
(3.12211 2.96566 0.00601836)
(3.06079 3.05769 0.000953676)
(7.02262 0.996635 -0.729453)
(3.57854 2.89793 -0.039748)
(3.046 3.04759 -0.0253444)
(4.19018 -2.46528 0.154322)
(3.05836 3.05478 -0.00332421)
(6.74642 0.0268407 -0.0596276)
(8.42985 -0.0143969 0.0232373)
(2.896 -2.89635 -0.000190159)
(8.28455 0.0086339 -0.0219526)
(8.37166 1.36266 -0.186813)
(8.23792 -0.0801773 -0.132685)
(9.06346 0.34107 0.00830998)
(8.14682 0.00705268 -0.0132308)
(3.05742 3.03643 0.00966478)
(8.55176 -0.0817987 -0.0921847)
(8.85668 -0.0317945 0.0203764)
(8.23561 -0.0807019 -0.133112)
(2.90489 -2.90579 -0.000248453)
(8.98025 2.35949 0.629736)
(8.2483 0.0121589 0.0126686)
(4.06854 3.25151 -0.19236)
(8.19145 0.00333562 0.00917665)
(8.94195 0.113094 -0.0850238)
(8.53315 0.173155 0.0092421)
(8.46519 -0.0252085 -0.0333163)
(8.46893 0.0284571 0.00103166)
(9.01301 0.132994 -0.0500151)
(8.69066 -0.0152138 -0.0139963)
(8.60494 -0.0121365 0.00890477)
(3.03398 3.04559 0.0114517)
(3.04503 3.03006 0.00942278)
(8.30705 0.0226421 0.0117074)
(8.16722 0.0105544 0.0105021)
(3.05307 3.06033 -0.00129686)
(8.42396 0.00812947 0.000311702)
(8.82396 -0.0417157 0.00557447)
(8.62733 -0.0210534 0.00759864)
(3.05853 3.02722 -0.00114563)
(8.50367 0.172986 0.0382822)
(3.05084 3.04836 0.000173579)
(8.60935 -0.0118273 0.00758018)
(8.63734 -0.0134709 0.00576514)
(3.05833 3.05702 -0.000276623)
(8.25429 0.0448101 -0.0212661)
(8.61421 -0.00969333 0.00129995)
(8.46906 0.161483 0.0139679)
(8.3335 0.00206049 0.034069)
(3.12041 3.06192 -0.00464979)
(8.70843 -0.0230235 0.0256387)
(8.49497 0.197056 0.00227431)
(8.95575 -0.206821 0.0578381)
(7.53794 0.0989379 0.0260736)
(6.72707 0.0212357 -0.0951409)
(3.06023 3.02879 -0.00547798)
(3.05014 3.04736 0.00222158)
(8.35428 0.115563 0.015052)
(3.06219 3.0624 -0.000998459)
(7.29142 -0.0206486 -0.0183175)
(8.39366 -0.0449152 -0.0657733)
(5.12321 0.724133 -0.186088)
(9.2945 -0.594986 0.226893)
(8.20243 -0.365996 0.110118)
(9.13097 -0.324456 0.0911203)
(3.06156 3.06177 -0.000923523)
(4.14758 3.52324 0.0292227)
(8.6892 0.021501 -0.00670325)
(2.89291 -2.90456 -0.0098655)
(1.59318 -1.11211 0.475973)
(8.59754 -0.165092 -0.128644)
(3.04813 3.04067 -0.00604506)
(3.06364 3.06007 0.000320989)
(7.67572 -0.148462 -0.00290523)
(6.27475 -0.40657 0.0832572)
(3.06267 3.06302 -0.00035762)
(7.77223 -0.144612 0.025443)
(3.04951 3.04695 0.0012951)
(3.05829 3.06312 -0.00504471)
(2.90424 -2.9045 -0.000557302)
(2.90796 -2.9015 0.00592819)
(2.84989 -2.82554 0.00947029)
(2.902 -2.8963 -0.000348072)
(7.75539 0.0644475 -0.0292009)
(3.03707 3.01678 -0.00361751)
(3.05728 3.05864 0.00106007)
(3.04102 3.05711 0.00544098)
(7.22399 -1.59228 -0.414235)
(8.18271 -0.0678986 -0.149889)
(7.9215 0.000144299 -0.0827567)
(8.6899 0.0202502 -0.00746602)
(3.04288 3.02324 -3.47118e-05)
(3.07092 3.05969 0.000165311)
(8.32404 -0.142965 -0.174352)
(3.06054 3.06154 -0.00355984)
(3.05794 3.05487 0.000885518)
(4.86256 2.80208 0.102797)
(8.86163 -0.121617 -0.00823795)
(8.67281 0.0204063 -0.00737793)
(3.05664 3.05589 -0.000301928)
(3.05457 3.04924 0.00449567)
(3.04304 3.03473 -0.00394198)
(3.04783 3.04149 -0.0004156)
(3.06131 3.06007 -0.00333808)
(3.0683 3.05953 0.00185645)
(8.67826 -0.203176 -0.128198)
(3.06508 3.05628 -7.89182e-05)
(6.02058 0.0867268 0.202615)
(8.75157 -0.0199193 0.0229469)
(3.05805 3.06242 -0.000844239)
(2.8846 -2.89624 -0.007889)
(2.86479 -2.83535 0.00333721)
(7.33618 0.086493 0.397763)
(2.84439 -2.84113 -0.0116087)
(2.90297 -2.90535 0.00297297)
(3.0409 3.04603 -0.0191209)
(7.86279 -0.122689 0.00784673)
(3.04843 3.04739 0.000267033)
(8.62609 -0.113328 -0.0714752)
(6.87003 0.112834 -0.035385)
(5.66604 0.00717259 0.22688)
(3.04963 3.05191 0.000888826)
(5.90202 -1.50682 0.120316)
(8.69368 -0.01596 0.00277856)
(8.75794 0.0222448 -0.0224856)
(3.12144 -2.97878 -0.0338612)
(8.41955 -0.136291 -0.022133)
(8.5944 -0.0165594 -0.00912463)
(2.9082 -2.88769 0.00289218)
(3.16031 2.99881 0.0147275)
(4.10809 -3.1638 -0.265178)
(3.04198 3.041 0.00103383)
(8.6936 0.0170732 -0.00221949)
(8.68619 -0.0111604 0.0104719)
(8.83332 -0.106868 0.0440508)
(5.8106 -0.00660493 0.318608)
(3.06386 3.06213 -0.000334674)
(8.69653 0.0172292 -0.00380195)
(3.13942 2.98841 -0.00749692)
(3.82086 3.23402 -0.0133219)
(3.91086 -3.0422 -0.126072)
(3.05792 3.0584 0.00120081)
(8.71643 0.0262515 -0.00545127)
(3.0486 3.04161 0.00196855)
(2.87419 -2.82225 0.00150525)
(7.94598 -0.109498 -0.199704)
(8.53116 -0.0188211 0.0102253)
(2.87608 -2.82842 -0.00788095)
(8.57042 0.0153494 -0.0036378)
(3.25723 3.18555 -0.0189374)
(8.70458 -0.0746266 -0.0385437)
(2.87713 2.75296 0.0273086)
(3.06119 3.0631 -0.00137758)
(3.07387 3.06349 0.0100184)
(2.90847 -2.90904 0.000787693)
(8.42515 0.0134188 -0.0134436)
(7.53837 0.0161956 -0.0346046)
(8.73532 -0.0267066 0.181781)
(3.04536 3.04813 0.00199576)
(3.04069 2.98616 0.0205825)
(8.37754 0.0163751 -0.0147017)
(3.06162 3.06177 -0.00112307)
(3.55287 3.21698 0.0443446)
(2.90549 -2.90355 0.0002116)
(8.33569 0.05364 -0.0054663)
(8.87599 -0.218921 -0.064404)
(8.69358 0.0217709 -0.00920668)
(2.9013 -2.89542 0.00673511)
(6.88276 -0.0104553 0.192035)
(7.18518 0.00691411 0.184699)
(2.75069 2.43062 0.016888)
(7.76921 0.0996909 0.156213)
(3.0625 3.04663 0.00299617)
(8.2057 0.0772601 -0.00761102)
(8.81424 -0.0150072 0.0511443)
(8.53689 0.00583523 -0.0148018)
(8.82507 -0.111846 0.0133351)
(8.10684 -0.1785 -0.251522)
(3.06092 3.05763 0.000761704)
(3.06154 3.06132 -0.000177286)
(3.0543 3.05839 -0.00064557)
(7.10652 0.0701731 0.256262)
(3.032 3.005 0.00332967)
(8.62466 0.0363797 -0.015772)
(2.90424 -2.90391 -0.00022612)
(8.54045 -0.261691 0.182347)