/*--------------------------------*- C++ -*----------------------------------*\
  =========                 |
  \\      /  F ield         | OpenFOAM: The Open Source CFD Toolbox
   \\    /   O peration     | Website:  https://openfoam.org
    \\  /    A nd           | Version:  10
     \\/     M anipulation  |
\*---------------------------------------------------------------------------*/
FoamFile
{
    format      ascii;
    class       volScalarField;
    location    "9.9";
    object      p;
}
// * * * * * * * * * * * * * * * * * * * * * * * * * * * * * * * * * * * * * //

dimensions      [0 2 -2 0 0 0 0];

internalField   nonuniform List<scalar> 
111485
(
31.527
0.232344
0.263107
31.5281
0.248888
30.5489
0.214153
0.227116
0.212875
0.24529
0.207573
0.237925
0.229668
0.14157
0.223881
0.300056
0.157726
35.1579
0.235865
31.5269
31.5296
30.5673
0.207055
0.284781
0.220522
31.413
0.267807
0.278924
0.252582
31.535
-0.0111748
0.112142
31.5414
30.5661
34.3078
30.4224
0.0891304
0.240143
-0.051734
0.256411
30.7595
0.232984
0.262128
0.157023
-0.67323
31.5959
0.208552
0.27118
0.25012
31.6848
31.6752
29.5508
31.709
0.116986
31.731
0.201073
0.228069
30.6116
-0.100475
0.246956
0.254032
31.5317
0.221544
0.029409
30.7278
0.214568
20.5788
0.226279
0.134623
0.211282
-0.209925
0.178942
30.9249
0.154569
31.5624
0.174226
30.5708
0.227811
30.5605
32.3025
-0.112203
0.133778
30.5731
31.5463
0.21727
0.224325
7.32912
0.0997433
-0.0795835
0.176865
-0.483192
0.230629
0.232411
0.200344
0.236481
31.5466
31.5289
0.151912
-2.58411
0.574241
31.5279
0.260884
30.5324
0.202165
0.20077
31.7301
30.5966
0.132238
0.228316
-1.00732
0.118974
0.243086
0.259876
0.245879
31.4053
0.183743
31.4691
30.5816
0.168705
31.5331
31.412
26.7788
30.5765
30.6133
0.246132
35.789
26.6215
0.129773
31.5519
1.9345
-0.0849932
0.151956
31.5665
26.1743
27.3165
0.220818
30.5709
0.191488
0.194396
0.266294
0.101099
0.212834
0.239637
0.267586
0.179096
0.142319
30.5705
31.5424
30.627
0.216927
0.253763
31.517
0.0511978
0.0362229
-2.25077
0.229847
0.216311
0.187678
-1.68789
31.5739
31.5279
0.22098
0.213271
-1.53394
-2.0043
0.14506
0.0569653
30.718
-1.38719
-1.24393
30.6051
31.5396
0.222718
30.5851
0.116145
0.0687774
30.764
30.8406
31.4775
31.339
30.732
31.5236
0.243972
0.232514
0.261202
0.264049
0.249381
0.200534
0.126732
31.5315
0.137729
30.8257
31.485
0.229707
0.219651
0.114649
0.260339
0.073013
31.5668
0.260663
0.290728
21.3821
0.198415
0.157292
31.5296
0.217053
0.203824
30.8161
0.0945077
0.182047
0.243436
0.163613
30.7016
31.5313
0.193956
20.0264
0.145194
30.583
0.212762
0.198219
0.242246
31.5413
0.179879
0.0545172
24.1074
30.584
30.606
-0.109635
-1.96069
31.003
29.2246
0.212367
0.116922
-0.215124
30.9896
31.252
0.0415265
31.5546
0.191257
0.185436
0.20095
0.150067
0.192875
30.6111
-0.097541
0.161678
30.6255
30.5732
0.0793945
0.235356
31.2193
0.19217
0.156564
31.5431
25.5526
0.184704
31.5748
32.1047
28.7906
31.5244
0.196973
0.134466
-0.0214752
31.558
0.094258
31.5281
31.5249
31.5659
0.0153589
0.210061
0.237677
0.137864
0.230084
0.202654
0.186291
0.010524
0.089999
0.145942
30.3875
31.5401
0.0175096
0.0983038
-0.143046
0.123501
31.5315
0.234748
0.222226
0.22075
0.299649
-0.0925801
0.228383
0.129512
0.176427
30.5978
0.179558
30.5854
34.9794
32.3707
-0.132082
0.205212
0.2153
31.4932
30.853
0.189791
0.125693
31.5167
31.5244
31.7417
0.14873
0.165485
0.237327
0.244849
0.20957
29.0086
30.6142
31.5482
0.215182
13.1803
0.156622
-0.0952564
-0.0293566
30.5762
31.5268
31.5311
27.2949
0.19897
0.246665
30.5682
0.202017
31.2115
31.4749
0.164489
0.204183
0.234066
0.21175
32.0254
27.1527
30.5771
0.194839
0.0786775
-0.00498807
30.7049
2.20076
-0.271499
0.266984
0.21534
5.41095
0.212843
30.5631
0.200066
0.215756
-0.069808
0.138436
0.220924
30.5784
31.5536
30.5936
31.5387
0.235663
0.200494
0.177241
0.248473
30.6497
0.24945
30.6025
31.5593
0.2235
32.5662
27.8866
31.7169
30.4065
0.231737
30.6064
0.0719275
0.268299
30.5613
0.162523
0.224321
31.4986
0.192394
0.255744
0.258192
0.116597
0.164591
0.13119
32.0586
31.546
0.200261
30.6781
0.243881
0.114868
30.7626
30.606
0.200692
0.181897
0.10919
0.300644
30.5696
-0.00826317
0.222582
30.5414
0.156032
0.162986
31.5253
31.5257
0.0978255
0.225852
30.5206
31.4777
23.5267
31.5252
0.24458
30.5836
31.5288
0.218909
-0.0613403
0.224665
0.269431
30.5562
27.3665
0.253853
27.7493
0.171182
0.279822
0.264635
21.2586
28.0453
-1.8759
-0.882068
31.5237
0.0952293
0.264441
31.5342
-1.63839
0.242802
27.9055
0.230215
0.220126
0.168885
30.5645
1.06667
0.22929
0.202618
-0.180299
26.5345
-2.04373
31.5357
0.144747
-0.653009
30.6082
0.203719
0.244101
25.8125
31.5536
29.9181
31.5244
0.243214
0.320946
0.252822
0.268268
0.0857346
30.5877
0.082702
31.5773
0.29328
30.5034
31.5661
31.5992
0.230612
31.5481
31.5288
33.4383
31.5252
30.64
0.206413
30.604
29.7655
30.5817
31.4812
30.5267
31.5737
30.5694
0.227983
30.5751
0.193612
0.218978
0.0467521
30.5801
0.214526
30.6112
31.5279
0.250399
0.308937
0.397702
-0.138887
29.3953
0.228142
0.218511
0.129526
-0.0331761
0.232971
31.5435
0.0229021
25.8608
0.344204
30.5848
0.264185
26.7472
0.116155
0.275604
33.1715
30.8443
-0.0957736
31.5185
0.219046
0.187687
30.6315
30.6601
31.7689
30.6014
-3.53178
0.213552
30.5356
30.6267
0.236328
30.5673
0.194533
30.5674
0.194984
31.5297
0.298774
0.285735
0.321831
0.105283
30.4706
-0.474827
30.5306
30.584
0.191786
30.5895
0.248377
31.7946
0.277927
31.5335
0.32365
31.528
27.9406
-0.0617482
0.12033
0.186463
0.27466
0.123991
0.204117
30.6228
0.155439
0.203727
30.5776
0.103681
0.0572724
0.229463
30.8194
32.1736
0.331813
0.108694
14.9577
30.9044
0.172398
0.277994
0.253674
0.241063
0.646175
10.401
27.5726
-2.44163
12.7985
31.5306
0.287759
30.6736
28.0593
0.206427
10.1601
-2.51728
5.98966
27.5567
0.190856
0.261192
30.6163
29.8644
0.274114
31.5424
30.5666
30.5704
30.5766
0.241714
30.5966
31.373
0.274475
0.179446
24.1503
0.0960424
29.339
0.165348
31.7036
30.6159
0.220718
30.5789
30.579
27.9271
0.20261
18.7653
0.148199
0.174921
31.5735
-0.535714
-0.0208417
0.225887
0.265111
1.39372
0.211806
30.59
0.218464
0.230746
31.5588
0.199925
0.158896
0.256099
0.153549
0.236719
0.243431
31.5951
0.234738
0.0979625
27.8469
0.23921
0.30861
19.5552
0.173077
0.257321
0.276117
0.262166
0.276352
0.120315
31.1263
0.254346
0.242665
32.9211
0.226046
0.17183
0.210097
30.5942
0.19687
31.6198
30.573
30.6284
30.5713
0.275314
28.2901
-3.78873
31.5199
30.3021
0.271118
0.231046
31.5136
0.22493
31.524
31.5468
31.7129
0.15487
0.280803
28.0468
31.3426
30.5891
30.5924
0.0581462
0.141216
27.3257
0.241206
-1.26712
30.6189
0.269371
0.210073
0.346349
30.5625
30.5818
0.28128
0.190726
27.7869
30.607
30.5007
0.161078
31.5533
31.5086
30.5898
0.244128
0.268146
30.5656
33.9118
32.8669
0.594942
30.6172
30.5552
0.202331
0.0214749
27.7226
23.9301
4.82534
0.221397
0.0112627
30.4568
0.135418
0.267291
30.5954
31.7027
30.5684
30.5853
30.6074
30.5642
0.304975
31.5266
30.5725
30.7903
0.283503
0.182139
31.535
31.7584
0.172653
0.166116
0.19322
31.505
30.5763
0.167007
31.5442
0.211372
0.138965
0.19374
31.4359
31.5294
31.5288
30.5901
0.327955
30.5767
30.5581
0.16233
31.5286
0.221476
0.30792
30.6447
0.217017
31.4218
0.189998
0.252098
0.16224
0.200121
-4.64454
29.0261
0.177345
0.197699
0.0115491
31.2313
-7.95588
28.6711
0.109802
30.6013
0.1671
0.219303
0.150191
32.3317
31.5303
31.5537
0.17045
29.3266
-0.0553023
29.8726
0.260698
0.154098
0.0649561
0.179409
30.5698
30.6439
31.0123
0.169053
30.5667
29.0107
-0.261508
30.6073
30.6349
31.5366
30.5717
0.0756552
30.4953
30.5851
-5.74009
29.257
30.6851
28.3267
30.5848
0.133944
0.0631121
31.5197
0.259688
4.37918
0.133969
-1.14573
0.160833
30.6142
0.211608
0.197802
0.132531
31.544
-10.0038
0.0555421
26.0073
0.0117928
-0.120207
-0.04792
0.166487
0.139501
-0.203551
0.154842
0.130385
30.5126
30.6156
0.0663043
0.0170299
30.6135
0.0839199
0.262523
0.118511
30.5477
-0.121888
30.5866
0.100336
0.0823436
30.5617
-0.28937
0.142708
-0.271156
-0.0577168
30.3802
0.24507
-0.2489
0.0589412
-0.266236
0.13288
30.5452
30.628
0.208455
30.5716
0.333659
-0.00544208
26.9941
-1.54279
-2.926
-0.841991
30.5718
25.661
0.18134
31.5489
37.7732
0.116868
30.5349
30.5554
-2.52049
-3.05727
30.5718
-0.121191
30.586
30.581
31.5563
31.5273
31.8382
31.5417
0.200659
30.5713
30.6064
30.6313
-5.35689
0.367145
0.218131
0.170518
30.6209
30.5511
0.115545
30.5793
30.5692
23.409
0.0919037
0.194791
30.562
30.5374
30.5989
30.5553
30.3793
30.5493
0.0232806
30.574
-0.443491
0.233258
30.5908
31.5719
31.7434
-0.135789
31.7106
31.5304
30.654
-0.486961
30.5828
0.0497972
0.0461491
-0.362573
30.5563
21.2866
0.149503
0.215508
30.6721
-0.421454
0.203811
31.5517
30.452
27.6534
30.5415
0.177192
0.217878
0.0630906
-1.00992
30.5648
0.173335
30.3271
27.4357
27.4853
30.6066
0.249091
30.585
31.7844
0.0771626
0.176219
31.7734
0.256435
29.359
-0.0145228
31.987
30.5839
30.48
31.5295
0.145023
0.248116
1.88584
30.569
30.7529
0.104797
30.5718
28.3838
31.5302
0.218385
-1.05836
0.379644
31.4761
0.0424023
0.092568
33.0342
0.0950392
30.5871
0.130367
0.170918
0.168426
-0.012179
-0.356347
30.5748
30.5857
30.5831
0.0415037
30.8803
-0.10184
31.5582
3.17304
31.5148
0.253085
0.269155
31.7924
30.572
31.8602
30.6377
-0.117607
31.8901
27.6843
0.0803052
-0.0969263
31.7294
28.2537
30.9023
28.3361
30.5603
30.576
-0.0724521
0.309599
31.5274
31.4876
-2.13343
31.5561
-0.073985
0.146134
30.8838
0.161351
31.5293
0.0627905
30.5875
0.257193
30.5598
-1.93797
-0.86016
-0.236163
0.136281
0.123045
18.9381
30.2718
0.167239
31.6861
0.239408
31.5129
30.7056
30.5195
30.6328
30.7294
30.6125
0.0751286
0.0262702
31.5304
26.6764
31.5414
0.0854727
-0.131133
31.5231
0.251107
-0.239989
31.7442
0.160232
0.12649
0.231981
-0.233887
30.5718
30.575
30.6994
30.5708
0.215234
30.3121
0.164778
30.5803
0.136177
0.283038
30.5996
0.104006
30.5598
30.57
0.11906
-0.0143388
8.81938
30.5818
31.8376
30.5287
0.224103
30.1205
31.746
30.1913
3.8173
27.0334
-1.71108
28.2244
30.0491
31.0942
0.115091
0.0510176
0.271482
0.23558
31.4891
0.142903
30.5935
30.6063
0.0873226
30.4612
-2.16797
0.133717
0.171856
0.127098
-3.46458
0.20552
30.6004
-5.28504
-11.3502
0.226588
0.172832
0.208793
22.3288
31.5137
0.229052
31.5339
30.5559
-0.597069
0.222124
-4.03263
30.5208
29.9028
0.0301801
31.7431
30.5599
0.0972279
31.8201
31.7754
0.533416
0.107993
-0.0478387
0.323707
0.167296
30.5713
30.5732
-0.729331
0.230925
30.5693
31.7973
0.356833
30.6017
26.5038
27.1601
27.3155
17.6688
26.5858
30.5751
0.282618
30.5088
0.0101603
30.5659
13.9851
30.7814
30.6512
30.6025
30.5746
0.323154
30.5737
30.5718
27.7887
30.543
30.6037
30.5698
0.214056
30.6416
0.200173
-0.00366701
30.6619
0.391567
30.567
0.16972
-0.38687
0.105522
0.125523
31.4118
0.121568
0.305295
-0.24478
31.5532
-0.0893779
0.200586
0.123541
29.4181
0.0855707
30.8373
30.5957
30.5766
30.5643
0.109083
30.5855
30.5204
0.103251
-0.187486
0.0298419
30.6417
21.8915
0.333415
30.6078
-1.09692
31.7319
0.0748265
30.5414
30.5532
0.207135
30.5478
0.246709
31.5443
30.5658
0.169335
0.101999
0.17023
0.234625
-0.175186
0.195707
30.5655
32.1542
0.243485
0.174608
0.237483
-0.055666
30.5723
0.192279
30.5686
31.2262
0.21394
0.0484733
30.6053
0.155452
30.5467
0.171372
0.158257
30.8735
30.5649
30.5909
0.245579
30.5843
30.5847
0.248818
0.171755
0.149201
0.109407
30.645
30.635
0.285031
0.299786
30.5846
0.227042
30.9023
0.220262
30.5685
30.5673
0.147833
30.5694
0.191356
0.285167
30.5811
30.5656
0.188509
26.0177
0.314784
31.5289
0.0808732
31.5725
26.7809
25.8948
0.282653
27.9725
27.6741
0.204326
27.51
17.2072
25.4792
30.798
31.5363
-0.369912
0.286506
30.7433
30.5786
0.183368
0.249986
30.6002
0.241467
30.563
31.5563
0.255669
0.25492
0.483765
30.5634
30.5909
30.5822
30.5714
30.536
30.5476
30.5582
30.5364
30.5547
30.5578
30.5801
31.5428
30.5854
30.562
30.5645
31.2311
30.562
30.568
30.5739
30.6811
31.3341
0.300559
30.5825
30.5628
30.6363
0.244208
30.6168
31.5554
12.0473
30.509
30.1445
0.214856
33.0262
30.3568
14.155
0.196125
30.5791
27.1214
29.0947
30.5562
0.168481
0.192325
0.196552
0.135036
0.19453
31.639
30.532
0.178845
0.202472
0.141339
30.5577
0.202393
0.218944
0.2289
0.0938525
0.13947
0.141362
0.150661
0.208263
31.5918
0.2451
0.251866
0.251844
0.214105
30.5845
30.5791
30.5884
31.5295
30.5747
0.203758
0.220005
30.5957
30.5559
30.5549
31.3623
30.5648
31.5284
30.5793
31.5439
0.206694
-0.166933
0.228232
0.347255
30.4578
30.61
0.153365
-0.674824
30.5649
30.5733
0.228988
31.5952
30.579
0.332459
0.156477
0.195085
0.332311
0.174906
31.6252
0.0745546
0.240579
27.6943
31.5326
0.193682
31.6095
30.6038
9.81538
5.4025
0.258118
31.1509
31.4507
0.151374
0.239845
0.130463
0.203953
13.7868
31.5254
0.237396
32.9349
31.552
30.3277
0.228882
30.5619
0.210328
0.0450069
0.189283
0.2187
31.5629
0.256938
31.5519
29.9193
31.5429
31.4894
0.126697
18.1466
30.573
31.527
33.4375
0.214434
27.4994
0.149071
0.192583
0.113648
0.200585
31.3857
31.4889
26.6456
0.25139
0.203892
-3.30618
31.702
31.5279
27.3648
0.21421
0.128917
30.5665
0.0170232
10.2347
0.23263
0.168233
31.5234
26.6406
0.159357
0.204506
30.5869
0.277468
0.265674
0.203929
0.0900991
0.168352
0.24018
27.6992
0.16416
0.178138
0.18917
31.9353
0.213288
28.0373
0.300755
0.184867
31.5528
0.10393
0.165236
0.1331
0.243676
34.9888
8.58482
0.111073
17.3144
0.167097
30.6158
0.108138
0.180903
31.5423
30.5751
-1.07282
-0.107888
0.264495
34.9171
0.254172
-0.460779
-4.21657
-0.0664314
31.5462
31.6237
0.196798
33.3784
0.20188
-0.510957
0.178471
0.159593
31.524
0.254592
0.197693
31.5138
27.8337
0.186445
31.5954
0.172373
0.191302
31.5342
35.1302
0.247973
31.5181
30.5625
30.5999
0.141551
0.501064
0.249625
31.7589
0.236663
0.167845
30.7875
0.157995
0.113692
0.119549
-0.222356
30.5713
0.170997
0.235006
0.155786
0.123137
0.132583
-0.281853
0.283966
31.5282
-0.16516
0.115149
31.5269
0.147772
30.6197
30.582
31.5514
30.6383
31.5364
0.278861
30.595
0.145727
0.165197
31.5574
0.305908
31.3008
0.0967812
31.5422
-0.323938
30.656
0.229278
0.305436
-0.379684
0.238117
0.120846
0.254721
0.141776
0.249829
11.295
0.200792
0.148565
0.243857
31.5475
0.281694
-0.137567
0.203184
0.233213
-0.315289
31.5536
27.2068
31.5284
0.269782
31.5208
24.7712
0.121399
33.5606
0.315693
31.4826
31.4168
30.5728
0.223246
0.402732
0.183813
0.131792
0.131906
0.177908
0.228517
0.180636
0.101344
0.217992
0.18693
31.6103
30.4081
31.5211
0.223844
0.253257
30.7005
30.5722
25.2998
0.288499
0.112597
31.5239
0.185274
31.5221
-1.33972
0.279507
0.063927
31.5306
31.5283
0.163499
31.5286
0.221791
0.176161
29.9173
0.224119
0.234588
0.128153
31.5122
-0.119084
28.0444
0.152911
0.239707
31.536
31.5898
0.159094
22.2801
31.658
0.216587
0.150667
31.5313
31.4466
27.8633
0.153435
25.2387
0.199648
0.15027
0.255393
31.5255
28.1966
0.139661
31.5255
30.6023
31.5416
31.5349
28.6278
30.922
30.3176
31.5197
31.5675
29.2986
33.5886
30.5927
0.25652
30.6282
27.1004
25.6415
35.5929
27.6343
31.5278
0.150514
29.6069
30.8632
0.14755
32.8392
34.2805
31.1748
0.123723
33.4676
0.170291
-0.00321609
0.296332
28.7725
31.5337
0.201874
-1.32576
31.3641
31.5171
0.22381
28.4545
0.215998
28.1619
30.505
30.9934
0.222836
0.237106
31.5274
0.234532
31.679
29.5899
-0.41065
0.257565
0.159479
30.5846
0.217368
28.9772
0.173658
30.5658
31.5144
30.562
28.0266
0.225424
0.223039
31.5507
-2.69475
31.5513
31.6097
31.5497
31.5282
0.176269
0.120662
0.197835
0.272351
31.392
0.265778
0.232995
0.208584
0.151124
30.7909
0.186929
0.276527
0.116437
-1.21312
0.226652
31.7139
0.136977
0.175761
0.221055
0.205087
0.0946408
31.6356
0.134291
31.1239
31.5477
0.220132
31.5664
0.288276
31.5258
31.7782
30.2991
31.5441
31.5449
0.101193
31.5384
0.184777
28.8954
30.6049
0.22732
0.262015
0.217053
0.151283
31.612
3.15201
31.5464
0.206192
31.7829
0.209291
0.162397
0.217674
0.227741
31.9006
31.928
31.5427
0.198639
30.646
31.4891
0.186908
30.5204
30.5589
0.285698
31.9003
0.109349
-1.19963
28.6958
30.0289
29.7881
0.152679
0.206941
31.5255
0.0367835
0.192647
28.072
0.19875
31.5337
0.169258
0.275772
0.246137
31.533
0.260229
0.168565
0.169639
0.24272
0.268594
31.5339
31.5269
-0.06243
31.5002
30.5615
31.525
0.1533
0.198334
0.211083
0.0697604
27.5949
0.203036
0.216324
0.213767
-0.0536212
0.278608
0.194369
0.273543
30.5732
30.573
30.5706
0.347497
30.5899
0.116224
21.1712
0.23712
-1.85512
0.130571
0.115734
30.5561
31.5371
0.242639
0.229543
31.5903
30.5508
31.5513
0.153679
0.232637
0.219254
0.26784
0.124713
0.204936
31.522
31.5438
31.5296
0.19604
0.178137
0.0383426
0.237602
0.221523
0.25565
31.4122
31.5263
25.5015
30.7249
0.140164
0.294828
31.5074
31.6463
31.5514
31.5571
31.4024
30.892
0.219132
31.5301
0.100536
-0.0943443
30.5854
0.2411
0.11573
0.160089
31.715
31.0695
0.220217
31.5294
0.215773
-4.47887
0.164323
30.6936
23.913
30.5676
31.5349
31.502
30.4463
8.69869
31.5781
0.289504
0.215266
31.5422
31.532
0.214751
31.5444
30.5853
0.18933
-0.450127
31.4753
31.4691
30.735
0.159717
31.5285
31.5265
4.97347
0.157455
0.220965
31.5223
30.582
28.8664
0.197091
0.208691
0.198095
0.210881
30.565
0.236463
0.0894204
0.0751422
30.3776
31.5283
31.5276
31.3556
31.5295
0.201541
0.214467
0.174669
31.618
31.5376
31.5275
31.5227
30.8347
0.145735
0.460695
0.0916057
30.5674
31.5292
31.7612
-3.62031
0.111878
0.0622843
30.5743
-7.36565
33.0332
31.3836
31.5263
0.222774
0.289656
31.5249
31.6474
0.242603
31.5342
0.160099
0.224918
11.1692
31.5096
30.7505
0.195249
0.0554962
31.6601
10.408
0.248305
0.341473
31.5296
31.5363
31.5841
31.5662
0.131382
0.178127
31.5377
0.107492
0.19864
1.17887
31.5263
31.517
31.5178
31.5387
0.258275
33.5339
31.5278
31.113
0.145922
0.169573
0.177505
31.4077
31.5382
0.228233
30.5302
31.5328
31.5306
31.5293
0.233616
30.8089
30.514
30.5734
0.131818
0.267138
31.507
31.5451
31.4497
0.239922
32.611
31.5373
31.4569
31.5464
31.5427
-0.437983
0.296441
31.7139
0.248875
0.267175
0.214555
31.5689
31.5527
31.5401
31.3891
30.5614
0.232747
31.5301
29.5715
29.442
0.207506
30.6369
0.166562
31.5286
30.5956
0.225169
1.52906
28.2489
0.245205
31.5312
0.232648
32.5812
31.5955
31.7181
36.3779
31.5478
0.152164
31.5025
0.211635
30.5971
27.8635
31.563
31.4989
0.107553
0.385159
30.5687
10.827
30.5871
-0.0139436
0.134681
0.287725
30.6051
-1.03364
0.150422
0.102509
0.298192
-2.09681
0.132067
30.4697
30.5631
-2.59309
0.17236
0.228828
31.657
30.159
25.6302
13.274
31.5528
30.5761
31.5472
31.5536
31.5599
33.2105
0.384652
0.027726
0.236782
27.9251
-0.036939
31.5458
0.23951
31.5283
31.5786
30.583
30.8748
-0.0959081
30.7766
30.5745
31.5272
0.233516
31.5175
31.534
0.121364
31.4043
23.1348
19.8773
18.5495
31.5599
19.4235
18.784
19.22
21.9953
30.5615
30.5652
0.212527
0.202165
27.9497
28.6186
30.5632
0.197974
32.7694
30.9466
-0.0884421
31.5315
31.5299
0.126144
0.0184487
31.4098
30.5635
0.214307
28.1738
30.5225
-1.22599
0.209857
0.37219
31.2671
0.272567
31.5511
0.165214
-1.20963
0.245628
31.5279
-1.19124
0.27
31.8872
-3.76947
31.4846
0.241305
30.1554
0.307955
31.2389
0.103759
31.5214
30.3935
30.5905
-5.46621
-5.49181
31.5943
0.219857
0.339558
31.7329
31.5254
0.117479
0.0273826
-0.123805
31.5759
0.257406
0.249502
0.128586
-3.02246
31.5602
-0.3103
30.6035
-0.245078
31.5286
-6.51855
-7.60417
31.4402
0.20707
30.8071
0.134251
30.5668
31.445
31.5693
31.6033
31.4349
31.4781
0.248077
0.245075
-0.262954
31.552
25.4648
-0.220913
31.5492
31.3777
31.646
31.5224
31.6493
0.104209
31.5274
31.5479
30.5626
0.0842019
31.464
30.5763
30.1976
0.169703
30.5789
0.0349287
-2.7252
0.0390157
0.154722
-0.0488623
32.8878
31.5372
31.5211
0.28434
0.188841
30.2707
25.3212
0.0759215
31.5348
31.5531
-0.183672
31.4797
0.251026
31.5266
-0.0178191
0.0904788
31.5523
30.5613
31.5244
31.5489
31.5256
0.21751
31.5143
0.0833483
31.796
31.5271
0.136129
30.5642
0.227217
31.1208
31.5326
0.208309
0.229949
-0.111122
31.5473
31.5471
31.53
0.25463
-0.0122281
31.8238
30.5708
30.6059
0.162286
31.4907
0.262475
-0.179872
31.5223
31.503
0.155882
31.506
30.6058
30.58
31.8507
30.5859
-0.247027
24.9513
30.6552
31.5402
25.6075
31.5028
26.4847
31.4113
31.4977
31.0025
0.197327
31.2439
0.117253
31.4636
31.4946
0.0747635
0.175617
31.4748
31.3913
31.5265
0.118988
26.9421
31.5306
30.9526
31.5113
0.161192
31.4837
-0.347818
31.5532
0.198827
27.7863
0.17546
31.5793
31.5264
0.241533
26.294
31.5442
0.17881
0.205
31.6232
31.5494
0.185688
0.0829635
0.162371
0.112192
0.106988
0.228242
0.186986
0.147133
31.8148
-0.392407
25.1732
24.7231
31.5289
31.5084
31.526
0.176261
31.5534
31.5273
31.5528
-0.159719
0.130997
23.9545
0.121116
31.5525
0.217838
30.5457
0.122422
0.212408
25.4639
0.26802
31.4882
31.4058
30.5733
0.202645
0.201919
31.5295
30.5822
0.178731
31.5437
-0.155109
31.6991
0.020288
31.5287
30.5727
31.4645
30.5688
0.177434
30.5691
1.46757
30.5971
0.22393
31.5223
31.5064
17.4795
16.195
31.5965
31.5109
31.5278
31.5435
0.243483
-0.2005
21.0421
31.5542
0.245746
30.5598
30.6228
-1.33589
0.244491
0.0595691
30.5751
0.14211
0.173806
0.211459
0.227436
31.5322
31.558
31.5749
31.5532
30.5755
30.5672
30.574
31.3922
30.5769
30.5757
31.5285
30.5718
-0.0699122
30.5663
31.5194
34.5077
31.5468
31.5277
11.0921
30.5655
31.519
0.173362
-0.00128811
31.423
31.4632
31.5304
0.240493
30.7332
31.4828
-0.0802042
30.5842
31.5204
31.5193
31.5468
0.136821
30.5756
-0.321929
31.5558
31.477
31.5191
31.5237
31.5102
-0.0520578
-0.215673
0.176203
31.5482
30.6486
31.6882
-0.126041
31.5144
-0.218195
0.0477501
30.5694
31.4543
23.9142
-1.25776
31.4457
28.1771
-1.20498
24.2319
0.23703
30.7145
0.137439
24.099
22.568
31.5276
0.245884
30.586
0.193637
0.0932816
31.5517
0.242785
-0.759409
31.5217
0.0445009
30.57
31.4522
31.4907
31.435
31.4883
30.5693
31.5142
31.5414
-0.270977
28.5335
31.527
31.5238
31.5119
31.5263
0.224497
16.389
-0.15389
-0.836679
31.5151
0.292688
0.239316
31.5278
28.092
31.2393
31.4717
31.6206
31.8658
25.862
28.7663
0.117992
31.5349
31.5661
24.4929
26.626
30.5725
0.207467
31.5437
30.6178
31.5461
-0.0304694
31.5594
30.5656
0.192616
30.5799
30.4419
31.1425
31.7362
0.196252
31.5278
31.5225
31.5166
31.4559
0.226889
0.0374939
0.0734535
0.221681
0.175231
0.135749
30.5838
26.3049
-0.284876
0.165709
26.2612
-0.245161
31.5238
-3.94981
30.6367
-0.0428685
31.5338
30.5751
0.166578
-5.16656
31.5334
0.161609
31.539
31.5438
-0.0621865
0.108036
31.5395
30.5701
31.6913
30.5712
31.5083
27.493
31.5455
31.529
0.151708
31.5439
31.5132
31.5184
0.19464
31.5647
27.6562
30.5759
30.5575
29.3037
27.8023
0.189539
30.5732
27.8364
0.189988
31.5165
0.115136
0.193796
31.5253
0.191152
31.5249
29.9181
31.7818
27.269
30.5974
31.4626
31.5198
31.5579
0.251445
31.5516
31.5392
31.5377
31.0278
31.5238
31.2256
-0.134794
31.5285
31.5574
0.0496996
31.5301
30.5742
30.5978
0.307143
31.5308
-0.350409
26.9395
-1.14812
0.0845534
30.5629
26.2817
0.201391
25.2114
30.5769
-0.425841
-1.1355
-0.00818449
0.0763065
-0.666228
-4.28389
30.6896
30.5757
0.24451
-0.0540895
-0.00819877
0.271856
-1.19746
30.5819
0.111398
0.191383
0.217192
30.6087
0.24
0.117138
0.199517
0.233825
-0.145842
0.109193
0.217916
0.185557
0.00839333
0.188391
0.242548
27.7117
0.364138
0.0352206
0.220897
0.175111
0.109755
0.246682
0.0675525
28.3493
-0.0994081
28.1472
0.262277
0.262401
0.0810505
0.171554
28.0977
30.5635
0.234138
0.215814
-0.183738
0.0630439
0.149452
0.212532
19.4824
0.264101
31.5286
0.378896
-0.101959
0.112358
0.227701
-0.205521
-0.342208
0.240793
0.183751
0.0767552
0.231268
0.220211
0.51987
24.6797
21.7144
0.208824
31.5351
31.5293
0.212755
0.298588
0.116799
31.5257
0.0272509
0.0979671
0.208174
22.4845
31.5222
-0.485482
0.0367628
-0.127152
31.5592
0.188983
31.5309
0.208357
0.235108
0.11318
0.118747
31.5156
31.5369
0.17461
0.267479
0.319869
31.5048
0.221005
0.320714
0.172826
30.6006
0.214688
0.0844615
28.0849
0.197539
-5.57406
-0.0897653
30.4243
0.072012
-0.0441546
31.5287
0.267807
0.0914717
5.9078
0.184656
0.291838
0.137717
0.315153
0.130034
-0.0730574
-0.562758
-0.14733
0.381538
0.13002
0.170173
-0.315424
0.236674
0.226762
0.293036
0.260695
-0.275392
0.213128
31.5303
0.253425
0.211944
-0.0959544
0.208588
0.143767
30.6628
0.243835
0.214212
31.5116
0.0119396
-0.0163387
0.229352
0.266756
0.1209
-0.169346
0.26827
0.18777
0.0954082
31.5291
31.5295
0.130182
30.608
0.142093
0.283548
30.8533
0.119526
0.19445
0.00945546
31.5376
0.224442
0.214096
0.062815
-0.207883
0.20472
0.23165
0.207935
0.243638
31.529
31.4477
-0.0396613
0.151834
0.0783873
0.264645
31.445
0.15656
0.313279
30.8484
0.161906
0.241903
-0.298317
-0.497311
0.171858
0.0961466
0.204458
0.259409
30.6308
0.287062
0.150698
0.251366
-0.432262
31.4497
0.210113
32.0675
31.5273
0.193799
0.188556
0.197427
0.861212
-0.142685
6.19913
30.5851
0.110259
0.352525
0.458162
0.194808
31.5445
30.6045
30.5642
0.171402
0.192263
-0.533576
0.21706
30.5581
31.4633
0.132944
0.212074
0.128071
0.214881
0.190334
0.316193
0.127241
17.6585
30.5644
0.244409
0.0808409
31.4593
0.203723
0.294174
0.0786924
0.259987
0.216554
0.162442
31.4617
0.253279
0.212567
30.6026
30.6198
0.143012
0.319789
0.134887
0.110881
0.263495
0.333664
0.17866
0.241687
0.28066
0.0787827
31.4466
31.4178
0.0460986
0.137982
0.266852
-0.0319793
0.267082
0.188714
0.243908
0.228843
0.255172
30.5763
30.6346
-0.0690111
31.4423
27.4989
0.240639
0.198096
0.169388
-0.0305159
28.7584
0.165047
0.0459365
29.2838
-0.0423722
-0.460823
0.259129
0.27441
0.0925716
0.3012
-0.228867
0.124598
31.5285
29.059
0.0097896
0.156519
0.174239
0.149207
-0.117437
0.151687
-0.0968169
29.1601
0.302331
0.25452
0.220294
-0.130343
0.151235
-0.0518451
-0.442209
0.218751
0.140377
28.7305
0.259975
0.286763
11.4528
27.2881
25.1163
0.318304
26.6719
0.0698027
0.26486
0.198903
0.306339
-0.1048
20.3453
12.4434
32.3116
27.0024
0.129527
30.5681
30.5687
-4.66573
31.5182
0.23142
0.214694
0.112794
0.214741
0.214056
0.237826
25.209
0.139525
0.106826
0.144717
0.216229
0.226926
0.242473
30.5732
-0.462194
0.234052
-0.135592
30.5704
0.23012
0.1854
30.5701
31.4818
-0.00483091
0.194966
31.6766
0.275156
0.267325
-0.0225826
31.5416
30.5694
0.112583
-0.455934
0.290625
30.5718
30.5304
30.5711
0.256134
10.4629
9.55906
0.0791835
-1.1069
31.5808
0.183384
-1.01694
0.250556
0.110332
0.0378415
0.168944
-1.60218
0.142158
30.7946
0.14744
0.208913
0.0793195
0.229656
0.0966095
0.172715
0.0935705
0.115025
0.130669
0.0739493
-1.15857
0.241386
-0.0318219
-0.176541
-1.43988
-0.00517376
-1.0854
0.0894596
0.153673
0.20825
0.233014
0.0937652
0.206513
-1.11067
0.151096
29.9793
0.230836
15.4925
0.200844
0.186939
30.6054
0.197937
29.9788
0.200145
30.0892
31.6319
0.343001
0.154968
27.5035
0.159497
0.252103
0.182007
31.4675
31.5451
0.375061
0.098685
-0.254055
0.211601
0.172591
0.175502
0.0717083
0.223932
0.205026
26.1058
0.238785
30.5724
31.3257
0.228618
0.191994
-0.0292224
0.222324
0.17826
0.238865
0.192953
31.1522
-0.0985486
0.159032
0.230316
31.1907
31.5752
0.232924
0.222359
24.7243
0.140326
0.133528
0.241828
-0.511222
0.198705
0.235984
31.4859
18.4764
0.226648
0.0343834
30.864
0.257683
0.114842
0.195423
-0.109497
0.17486
-0.227954
0.228726
0.161222
19.5372
0.140408
31.5274
0.221451
0.198356
0.1898
0.0720052
26.4212
0.059422
-0.000622482
0.219093
-0.10915
29.7576
30.5732
0.231548
0.0559576
0.242008
0.240427
0.143056
0.177504
0.00417214
0.205152
0.183881
0.101104
0.108987
28.2388
-0.206018
0.166226
0.0218183
0.134921
29.0155
30.561
-9.02268
-0.10775
32.6886
-0.206037
0.181915
29.5178
20.1959
21.9524
0.100206
0.20064
1.03583
23.4815
-0.00591801
0.245304
30.4877
0.949824
27.6106
0.193709
0.15799
30.7125
-0.0948968
0.195199
0.180184
0.193539
30.5641
-0.695792
0.131431
0.0261195
0.21951
0.244698
0.158414
0.242851
-0.309737
0.18784
0.136915
0.196425
31.5174
25.9229
26.3079
30.9274
0.150299
0.221684
0.254744
0.0479896
0.149775
0.235352
0.217617
0.196325
0.196477
0.180552
0.215159
-0.0351527
0.25424
0.183459
31.5265
0.130047
0.0481386
0.206001
0.247144
30.4656
0.158372
0.17549
0.382644
0.233137
0.227794
30.6293
0.267597
0.215856
27.5568
0.262996
0.215144
30.9071
0.167175
30.8716
30.589
0.162136
0.0268564
0.227345
0.230753
30.5701
0.171812
0.133808
30.6051
0.277859
0.221223
0.223684
0.201545
31.0314
0.1557
0.164913
0.275499
30.8608
0.231406
0.136939
0.235244
0.203449
0.18631
31.6547
29.9166
28.3531
0.125454
28.8735
0.229404
0.150404
0.124724
31.4186
0.119781
30.7117
31.5263
31.3141
0.242905
-0.0456711
-0.462787
0.260469
0.261364
30.0932
27.6061
0.145288
0.111642
0.259344
-0.312231
0.224764
-1.19678
31.5322
23.0685
23.5275
30.5621
23.8287
0.0800655
31.53
0.264179
0.209185
0.257799
0.0810331
0.216105
25.3961
0.119017
0.251102
0.224771
0.132341
25.5611
31.5326
0.168227
0.174997
-0.802461
-1.79207
-0.0887377
-0.299511
-0.684688
-0.425376
0.23697
0.0497304
0.201113
-2.83996
0.190839
0.255348
0.204598
0.203318
0.172145
-0.120739
-2.08371
-1.62373
-3.45837
-4.65287
0.19074
0.0916722
30.618
-3.83025
-7.61106
0.153902
0.114248
0.0438157
0.258211
0.321293
-8.29121
0.117532
-0.0768056
31.6618
0.240207
0.160685
0.201597
31.5455
0.126408
0.118438
0.132322
0.193767
31.5722
31.6825
0.215271
0.131982
0.162841
0.0634342
31.3872
31.5281
30.5851
0.248295
0.227874
0.103638
31.5385
0.16907
31.6993
31.7971
0.149347
0.123406
30.5534
0.119667
0.147266
-0.0682139
30.5676
31.5408
0.169953
0.254564
31.734
0.108693
0.26201
-0.15931
31.9606
31.9885
31.857
-0.169586
0.113136
0.177424
0.26864
30.5452
0.128027
0.207162
0.155959
0.198358
30.7546
31.5193
0.333165
0.082807
0.0821585
0.22834
30.744
-0.402173
30.5777
0.135373
-0.0866086
0.202766
30.9409
28.6252
0.0186552
0.135413
28.0689
28.2333
30.5736
0.292588
30.2711
26.8413
0.208641
0.214923
30.5786
27.6115
0.227959
0.299629
0.17103
0.21102
0.21205
28.0886
0.263111
25.7641
25.1128
31.6181
0.199375
0.265866
0.105847
25.2679
33.8486
0.289385
-0.0804184
0.305605
0.242043
0.219919
0.2474
0.208436
0.355267
24.7933
0.189711
0.107113
0.333237
0.257051
0.184059
17.9119
0.204765
0.203641
0.216941
0.206773
0.151061
23.9941
28.6052
0.228869
28.8401
29.2266
0.248366
28.9017
0.234172
28.2119
28.5643
30.7573
27.4373
0.22465
0.151249
0.171606
28.1589
0.191935
0.213748
0.130431
28.6277
31.5304
0.231808
0.237204
-0.269156
0.233988
27.2579
0.0464053
0.206208
0.122255
30.56
30.9686
0.239417
0.152579
31.0787
28.7276
0.117521
0.0187792
28.0855
0.0892505
0.0663378
0.106005
0.253225
28.3969
0.223952
4.34772
0.196767
0.392866
0.195783
0.0688728
0.195059
0.197853
0.287735
27.77
0.237674
0.275209
-0.306532
0.0438908
0.126852
28.5606
0.158454
0.268104
0.199912
0.175596
0.250381
-0.257349
0.526062
0.00747815
0.189361
0.158509
0.196741
0.148355
0.199141
0.235683
0.272854
31.6259
-1.2823
31.539
0.235154
0.247046