/*--------------------------------*- C++ -*----------------------------------*\
  =========                 |
  \\      /  F ield         | OpenFOAM: The Open Source CFD Toolbox
   \\    /   O peration     | Website:  https://openfoam.org
    \\  /    A nd           | Version:  10
     \\/     M anipulation  |
\*---------------------------------------------------------------------------*/
FoamFile
{
    format      ascii;
    class       volScalarField;
    location    "9.9";
    object      SgT;
}
// * * * * * * * * * * * * * * * * * * * * * * * * * * * * * * * * * * * * * //

dimensions      [1 -1 -3 -1 0 0 0];

internalField   nonuniform List<scalar> 
111485
(
8.44104e-18
9.45561e-06
2.88145e-05
1.774e-19
5.91268e-05
2.07495e-18
5.55087e-05
7.22892e-06
2.30547e-05
1.44915e-06
5.605e-05
1.12509e-05
5.77654e-06
1.06386e-06
7.88067e-06
3.62867e-05
1.69568e-06
0.00313513
1.24947e-05
3.42823e-17
2.65871e-18
4.24552e-19
3.16956e-05
4.13541e-05
1.06868e-05
2.75805e-18
4.76389e-05
2.18802e-06
1.78964e-05
1.80934e-17
5.51396e-05
2.28235e-05
6.1902e-18
2.88231e-18
7.87841e-06
1.48757e-17
1.32523e-05
5.01774e-06
4.6982e-11
2.85354e-05
1.44583e-19
8.5048e-05
1.8937e-05
1.7579e-06
7.39588e-08
5.42385e-17
3.60057e-05
8.52774e-07
5.66619e-05
1.09098e-17
8.9796e-18
7.83487e-17
7.44806e-18
6.1711e-05
2.79621e-17
5.2616e-05
3.74111e-06
7.16116e-18
2.54694e-08
5.70877e-06
1.91742e-05
5.48303e-18
5.7365e-06
0.000117815
6.7418e-18
3.77265e-06
0.000379577
0.000113069
1.33319e-06
7.25331e-06
1.88925e-08
7.78437e-06
1.04937e-17
3.47686e-06
1.66065e-17
8.50192e-07
2.45826e-18
5.00907e-05
2.15336e-18
2.63262e-18
2.78513e-09
4.01014e-05
7.42538e-18
6.40085e-17
1.11135e-05
4.64792e-06
4.43045e-13
3.061e-05
7.26033e-08
8.80204e-06
3.22967e-07
4.92616e-05
1.41989e-05
7.1636e-08
6.2763e-05
2.90721e-18
6.57892e-19
2.14509e-06
3.24664e-11
1.3563e-06
6.90202e-18
2.15307e-05
9.84434e-18
2.17544e-05
5.54502e-06
2.40425e-18
8.54944e-19
9.0458e-06
4.88164e-06
7.34714e-11
6.55505e-06
5.78679e-06
4.48849e-06
3.81469e-06
2.4504e-18
4.04552e-08
5.00539e-18
6.64866e-19
1.54575e-05
9.90826e-20
3.91158e-18
2.59491e-17
7.1734e-18
3.69988e-18
1.95723e-06
3.65382e-09
1.78113e-18
2.00011e-06
1.25162e-18
3.42659e-08
1.75282e-06
3.92897e-05
2.57651e-17
9.42742e-17
3.32508e-18
5.81777e-05
1.8175e-18
5.0595e-05
3.03615e-05
3.35974e-06
2.88947e-07
2.39715e-06
2.68436e-05
3.19611e-06
4.84731e-06
1.55391e-05
7.0082e-18
4.70236e-18
3.25286e-18
3.35706e-05
1.84498e-06
2.45047e-18
2.71914e-10
5.6704e-06
5.23419e-10
1.30925e-05
1.94711e-05
1.29523e-05
7.71162e-11
2.10803e-17
1.14277e-19
6.28437e-05
2.76605e-05
2.15708e-09
3.86924e-10
7.04062e-06
4.07112e-06
3.65879e-18
5.25721e-09
5.38119e-08
1.35045e-18
5.28316e-18
1.57422e-07
3.58668e-21
6.63852e-06
2.49977e-06
2.54509e-18
1.11119e-17
2.88762e-18
1.13306e-17
3.68836e-17
2.23264e-18
1.77824e-06
8.15267e-06
3.57018e-05
4.95583e-06
9.08497e-06
4.86705e-06
9.18533e-08
5.42732e-18
5.82636e-06
5.51997e-19
6.73512e-19
7.83635e-06
1.24713e-05
3.41589e-05
1.35371e-05
6.00971e-06
9.98358e-18
8.00398e-06
5.76535e-07
5.12952e-08
1.69178e-05
2.79194e-06
1.57085e-17
4.52023e-06
3.0864e-05
8.76677e-17
1.92466e-07
9.35187e-06
2.37557e-06
4.31479e-07
4.00761e-17
1.68365e-18
1.00166e-05
1.24004e-14
0.000144775
1.40264e-18
8.03977e-06
2.45918e-05
0.000144019
3.37211e-17
3.86137e-06
1.64816e-05
2.57236e-16
9.0057e-19
5.53707e-18
0.000180569
3.0832e-10
3.06784e-18
3.4125e-18
1.16875e-05
9.29424e-06
1.82662e-05
1.9074e-17
1.37641e-17
1.71735e-08
4.11839e-17
2.94422e-06
1.11384e-05
1.92916e-05
1.40858e-05
1.19303e-05
5.63678e-18
3.00575e-10
7.47773e-07
6.91712e-18
7.79113e-18
3.65517e-05
2.47632e-05
9.56053e-18
7.616e-06
1.284e-05
1.65108e-18
6.4964e-17
1.61151e-07
6.49077e-18
1.20789e-16
5.27974e-08
1.373e-18
1.78175e-05
1.29425e-05
4.44521e-06
5.15777e-18
1.39726e-05
1.18028e-18
4.9636e-18
5.12837e-18
2.35943e-11
2.76559e-05
7.50315e-06
6.45463e-06
4.37494e-05
1.48422e-05
1.89242e-06
6.62828e-07
3.88154e-05
1.05578e-05
4.58418e-18
2.50937e-17
2.99554e-10
2.69122e-05
2.92679e-05
1.42749e-05
4.25214e-19
8.37159e-06
2.47922e-06
3.64175e-06
4.19297e-09
4.20454e-09
1.62885e-05
2.69892e-06
2.38981e-06
1.7567e-17
7.68902e-07
1.18354e-18
2.16032e-10
7.51396e-16
0.000286023
8.10825e-05
1.43363e-05
6.20194e-18
1.27512e-17
1.07134e-05
1.94828e-06
1.18e-17
1.94357e-18
5.39805e-17
3.67403e-07
6.96929e-05
4.73344e-06
1.6241e-05
2.27208e-05
7.53398e-19
2.98905e-18
7.47307e-18
4.56177e-06
1.51879e-15
1.21483e-06
0.000220613
3.63926e-10
3.57894e-19
7.76994e-19
2.94902e-18
4.70036e-17
7.17185e-05
1.43007e-05
6.33381e-18
6.28066e-06
4.38381e-18
3.1739e-17
8.32109e-05
7.03838e-06
1.34088e-05
1.12195e-05
5.06986e-17
2.72701e-17
1.60901e-18
1.12857e-05
2.21683e-05
6.20104e-06
2.25336e-18
3.84727e-13
1.86443e-07
2.60724e-06
9.56614e-06
4.07633e-08
3.39632e-05
7.66821e-19
4.46661e-05
4.25109e-06
9.38312e-06
3.01232e-05
1.61556e-05
2.54545e-17
4.16469e-17
2.5575e-17
6.77673e-18
3.74071e-05
1.16442e-05
3.93751e-05
8.04782e-05
7.46795e-19
2.22768e-05
4.39706e-20
6.82226e-18
2.00865e-05
1.50897e-17
9.32983e-05
1.37585e-17
1.90718e-19
2.76912e-05
7.97769e-19
1.62331e-05
3.25866e-07
4.51895e-18
1.19782e-06
1.97234e-05
3.83175e-18
1.07582e-05
1.09379e-05
9.78728e-06
8.00383e-07
3.20693e-06
6.62419e-06
9.24549e-18
1.92497e-18
2.26131e-06
1.30542e-18
7.43946e-06
0.000142435
1.27165e-17
1.65413e-17
3.24452e-05
1.36896e-07
9.90565e-06
2.56527e-05
2.83903e-19
5.48242e-05
2.29239e-05
1.71027e-18
1.00033e-06
2.89708e-06
8.68095e-18
2.31759e-18
1.31978e-05
6.3069e-06
1.28086e-17
1.02767e-18
4.30833e-11
5.84451e-18
1.45293e-05
1.28413e-18
1.80113e-18
2.03857e-05
2.00191e-09
1.42418e-05
3.61352e-05
1.33297e-18
1.05262e-16
1.80275e-06
6.4395e-18
1.80485e-07
1.70618e-05
0.000147115
0.00100979
5.4317e-18
3.2975e-06
6.26064e-07
1.13836e-17
4.70777e-05
3.78259e-05
7.52968e-18
8.45807e-12
1.07893e-07
1.04583e-17
2.91613e-05
2.88687e-05
1.67886e-05
2.08176e-18
7.96891e-07
2.15962e-05
2.73186e-05
9.85459e-10
3.81523e-17
7.73564e-13
1.83916e-17
1.54744e-08
3.72737e-05
2.55623e-18
1.00455e-05
1.14686e-07
1.18162e-16
7.11596e-18
7.96055e-19
1.63589e-18
4.79357e-06
1.14797e-05
7.84609e-06
2.46913e-06
3.19875e-06
1.04523e-17
2.31013e-06
3.63266e-18
4.9204e-05
4.57966e-18
1.58959e-18
1.48219e-17
4.39595e-05
9.77249e-18
4.29044e-18
1.96115e-10
6.58994e-19
2.86506e-17
1.26329e-06
8.52464e-18
7.1393e-17
1.00152e-18
1.78192e-17
1.09648e-17
1.07681e-17
3.90089e-18
8.37871e-06
8.4729e-18
6.51079e-07
2.29759e-06
1.0914e-06
3.17278e-18
1.03304e-06
1.56256e-18
5.7314e-19
3.35925e-06
2.1606e-06
3.27071e-05
3.02336e-05
2.99751e-17
2.46247e-06
9.88361e-05
1.02338e-05
1.21651e-06
3.93717e-06
4.10209e-18
2.76976e-05
2.61844e-17
6.0384e-06
7.64812e-19
9.18337e-05
1.90178e-18
2.57776e-05
2.95551e-07
6.24576e-10
1.40015e-17
2.45109e-06
1.75414e-18
9.56131e-05
5.89199e-05
9.06871e-18
3.68744e-18
1.52133e-17
2.30234e-18
1.65876e-12
6.50275e-05
1.0294e-17
2.51446e-17
2.89343e-06
2.76785e-18
4.06729e-05
5.27181e-19
3.75086e-07
3.52171e-19
5.8083e-07
1.32241e-09
1.18483e-06
1.56793e-05
6.37596e-17
5.01673e-07
4.57621e-18
1.45271e-19
1.80206e-05
1.79189e-18
3.5985e-08
1.16268e-17
1.93365e-06
1.60363e-18
7.77838e-05
9.27631e-19
5.046e-17
2.15252e-05
4.00009e-06
2.12317e-06
4.71216e-06
8.30368e-06
2.47873e-05
1.87651e-18
3.02349e-05
7.34452e-06
1.67644e-18
9.53873e-11
4.84739e-05
1.82713e-05
1.29368e-17
4.6884e-06
8.0489e-06
2.08854e-06
1.23189e-06
2.66784e-13
1.62392e-05
1.48094e-06
1.54034e-07
2.83684e-05
1.63417e-05
7.28084e-07
9.5986e-18
3.98735e-12
0.000780815
1.35976e-18
4.11718e-07
1.60612e-18
1.04728e-16
8.80211e-06
3.34602e-06
2.71065e-10
1.89461e-08
8.65401e-18
1.96187e-05
1.32744e-05
8.88093e-18
1.85673e-13
2.27618e-06
9.72464e-18
6.09445e-18
1.64884e-18
2.82875e-18
1.5585e-05
1.06232e-17
3.57451e-17
1.04353e-05
2.31155e-06
1.23814e-16
1.27842e-05
1.99832e-18
1.01191e-05
4.96437e-18
8.06146e-18
6.3168e-05
5.92519e-18
1.19328e-18
5.43978e-18
5.22011e-06
3.1547e-18
3.44873e-05
7.48602e-06
4.52736e-19
0.000106728
2.9066e-06
3.43339e-05
3.39311e-05
5.35164e-07
9.29871e-08
2.60769e-19
6.49079e-05
5.60121e-05
8.36772e-17
3.88671e-07
4.79288e-05
9.40842e-06
1.69112e-06
3.29506e-05
3.12112e-05
9.32503e-17
1.2959e-05
6.69644e-09
8.82943e-18
4.15244e-05
3.10343e-07
6.15712e-17
1.29883e-05
4.86097e-05
1.6143e-06
2.55959e-05
2.36046e-05
8.45258e-06
8.99152e-18
1.23152e-05
3.83505e-07
4.43422e-15
2.06382e-05
2.1505e-05
4.30553e-05
5.2957e-18
2.24031e-06
1.89897e-17
3.31064e-18
9.5957e-18
2.78025e-17
1.65794e-08
6.45639e-18
3.95029e-13
2.73322e-18
4.85953e-18
9.33104e-08
5.20816e-05
2.77607e-17
3.76068e-05
7.48182e-18
2.07968e-17
3.43763e-17
4.65051e-05
4.76902e-07
5.34251e-17
2.02914e-17
4.06273e-18
6.49677e-19
0.00024916
8.28538e-05
8.89933e-18
2.37794e-06
2.44626e-09
5.06865e-18
4.47612e-05
1.00908e-05
1.44083e-05
4.20127e-19
5.08468e-18
5.14479e-07
1.30424e-06
4.6605e-17
5.36152e-18
1.49718e-17
8.75249e-06
2.99496e-17
2.24759e-17
5.72136e-18
5.01559e-05
2.44742e-06
4.10318e-19
0.00463025
0.000407623
1.20789e-05
4.76278e-19
1.20645e-17
6.56983e-05
5.00487e-07
3.46262e-18
6.04378e-09
0.000136069
2.90688e-06
1.33899e-05
4.62769e-18
6.31835e-05
2.24496e-06
6.25593e-19
1.56078e-17
3.26955e-19
2.78479e-19
1.24575e-18
8.30711e-19
2.64834e-05
5.59727e-18
9.1618e-18
7.94993e-18
1.37166e-05
2.76255e-05
4.87294e-18
4.69348e-18
0.000127037
1.72441e-05
1.14411e-05
1.30491e-17
2.28269e-18
4.46934e-05
4.42785e-18
2.08045e-06
3.1046e-06
4.59786e-06
3.58729e-18
3.42118e-18
2.22644e-19
2.90218e-19
1.78446e-05
8.01923e-20
3.23944e-18
1.22314e-06
1.7912e-18
2.76159e-05
2.25315e-06
2.21309e-17
4.4287e-05
0.000427452
3.04859e-06
3.46981e-05
1.68109e-07
5.28229e-05
1.09954e-13
2.3548e-17
2.82731e-05
8.25216e-05
7.23652e-06
2.29537e-17
6.9022e-13
0.000904524
1.21082e-05
7.28646e-19
2.93159e-06
3.02346e-06
1.39516e-06
7.4815e-17
6.5893e-18
1.93973e-17
1.58505e-05
4.84525e-17
3.11275e-06
3.06856e-18
1.5131e-06
1.69396e-06
4.40545e-05
6.50096e-07
2.21513e-18
4.02115e-18
1.59316e-17
2.46997e-05
1.631e-18
1.8856e-17
8.4787e-08
4.02083e-18
5.21131e-18
5.17505e-18
4.93334e-19
1.20803e-05
5.69162e-17
6.43474e-19
5.32132e-13
1.47882e-17
3.14262e-18
3.83121e-17
8.65738e-19
3.33513e-09
1.88455e-06
2.02878e-18
4.78296e-06
7.69659e-09
3.40234e-10
7.18628e-08
4.82555e-06
2.87133e-18
1.12678e-08
1.18133e-05
4.79671e-07
1.07544e-17
4.27886e-12
1.02067e-06
2.15217e-17
1.16967e-05
2.16445e-07
1.94565e-09
2.79813e-05
1.12064e-05
2.6967e-06
5.92379e-06
2.40216e-06
1.49873e-17
8.29232e-18
3.9559e-05
3.14698e-05
8.9201e-18
1.00049e-05
6.42404e-05
3.40218e-05
5.24203e-17
1.50749e-06
2.21985e-18
1.23558e-05
1.66232e-05
8.10371e-19
1.89199e-06
5.50995e-07
1.41503e-09
5.9173e-06
2.12571e-18
5.8471e-05
1.76395e-08
1.76311e-06
3.75897e-08
1.38327e-08
1.33721e-18
4.16079e-18
8.2874e-06
6.94106e-18
1.43384e-07
2.9677e-07
3.36483e-07
6.61833e-11
8.39102e-11
3.03392e-10
8.29267e-19
6.57033e-18
2.77473e-05
4.67094e-17
1.33097e-07
2.41592e-06
9.50706e-18
4.63105e-18
7.74165e-10
1.05406e-12
1.88839e-18
6.04342e-09
5.92493e-18
1.74915e-18
9.12714e-18
4.14842e-18
9.2818e-17
9.80328e-18
3.25971e-07
2.14817e-17
6.06029e-19
1.35883e-18
7.72148e-09
6.21494e-08
2.1437e-06
1.12322e-05
1.50978e-18
2.56594e-18
1.99724e-07
2.78805e-18
4.61189e-18
7.50459e-17
2.20888e-05
5.05588e-05
6.45344e-18
3.02134e-18
2.13061e-17
2.14524e-17
3.19966e-18
6.37817e-18
8.25902e-06
2.61579e-18
6.4102e-11
3.19633e-05
5.32886e-18
7.25154e-18
4.13747e-18
3.36249e-08
1.35653e-17
2.81528e-18
8.16665e-18
1.12585e-08
8.33478e-18
5.16405e-06
1.09937e-09
6.97677e-12
2.69226e-18
9.04186e-08
2.32821e-06
5.26113e-05
9.25357e-18
1.03435e-08
6.68312e-06
2.53667e-18
5.56591e-18
1.57346e-16
1.71206e-18
1.00877e-05
1.94465e-06
3.87205e-06
2.11338e-10
1.41551e-19
2.602e-05
6.20346e-18
1.91618e-17
1.08684e-16
1.59227e-18
3.16681e-05
3.47562e-18
3.4774e-17
2.01955e-09
6.15192e-05
4.08179e-17
2.83852e-06
5.55522e-18
9.73497e-07
2.0142e-17
1.63847e-18
1.2494e-17
1.08326e-18
2.90261e-06
7.08219e-07
0.000359429
7.41793e-19
1.40863e-17
2.35746e-06
1.28531e-18
7.02915e-17
6.80709e-18
4.35817e-05
1.15013e-08
3.87512e-05
1.28585e-17
1.27236e-08
5.95438e-08
1.35642e-17
1.51897e-07
8.88959e-18
1.41652e-06
3.01166e-05
2.44798e-05
1.42842e-06
2.8024e-07
1.19746e-17
1.1586e-18
1.07104e-17
2.64466e-08
9.23308e-19
9.00433e-06
5.7838e-17
0.00021013
6.23249e-19
4.90219e-05
3.71022e-06
1.57193e-17
9.29216e-19
1.31806e-18
3.25462e-18
4.9705e-05
4.0756e-17
2.19028e-17
1.40994e-05
8.23878e-06
2.90698e-17
1.64078e-16
7.62539e-17
5.398e-17
1.21841e-17
5.95682e-19
3.105e-05
4.94207e-07
3.19581e-18
5.08498e-18
6.38367e-10
2.48929e-18
1.90726e-06
1.27113e-07
3.9816e-18
4.22049e-06
2.24792e-18
4.56248e-07
6.62363e-19
1.33079e-06
4.6132e-18
8.58666e-11
2.55613e-09
7.43366e-07
2.17455e-05
4.08451e-05
1.40079e-09
3.42776e-18
6.14521e-07
2.25541e-19
5.5101e-06
2.32116e-18
2.29882e-17
1.32243e-17
1.99023e-18
2.282e-18
2.75976e-18
8.64001e-06
9.78041e-06
3.85974e-18
1.25633e-17
3.10351e-17
9.18128e-07
1.57156e-08
3.97341e-18
2.16663e-05
2.12724e-07
3.54128e-17
2.79638e-05
9.8291e-06
4.32409e-06
1.3594e-05
1.20981e-18
2.30835e-18
7.02981e-18
1.05538e-17
4.41542e-05
1.77586e-17
0.000136934
9.7347e-19
3.8493e-07
8.69808e-07
5.86365e-18
1.15486e-06
9.45401e-19
2.68782e-18
3.70022e-06
2.60582e-11
1.15083e-05
3.1061e-18
1.00667e-17
8.35261e-18
1.00308e-06
4.04961e-18
3.67273e-18
6.51988e-18
3.2912e-10
1.27239e-17
7.86281e-09
9.89908e-17
1.52319e-17
9.7121e-18
2.16939e-05
1.18879e-05
2.19111e-05
4.32285e-05
8.26322e-18
1.98395e-08
1.19044e-17
1.36477e-17
1.17065e-05
4.17601e-19
2.57531e-09
4.35599e-07
7.9302e-06
4.34009e-07
1.33472e-12
2.24448e-06
2.47557e-18
1.48543e-12
4.57645e-13
1.50851e-07
9.26792e-07
1.77543e-05
7.63905e-11
1.39116e-17
3.62499e-05
4.5669e-18
6.81016e-19
1.62113e-08
8.98531e-05
6.50034e-11
3.74119e-18
5.77187e-18
3.5716e-10
1.96535e-18
1.349e-17
2.18137e-08
1.04433e-16
2.07868e-17
4.84742e-05
2.72246e-07
2.15984e-07
2.71077e-05
8.68997e-06
6.11079e-18
2.90748e-19
2.27514e-08
4.81312e-06
1.47709e-18
6.27852e-17
1.14593e-05
3.69778e-18
1.27089e-17
1.48497e-17
2.81235e-17
1.92309e-16
0.00308428
5.72766e-18
2.60643e-07
4.13054e-19
2.54921e-05
4.51643e-20
9.53237e-16
1.42169e-17
4.46427e-18
6.43488e-18
8.89583e-18
3.32375e-06
9.05352e-19
2.3887e-17
4.83116e-17
4.38478e-18
1.26755e-17
2.34387e-17
1.16882e-05
2.4509e-18
1.32889e-05
3.71172e-06
2.62335e-18
1.94162e-06
7.13677e-18
5.95693e-07
2.40203e-09
4.55248e-06
1.55833e-05
1.71416e-18
1.09046e-07
9.23476e-06
1.13836e-08
8.27734e-18
3.1827e-09
2.23032e-05
5.63822e-06
4.29189e-18
3.09944e-05
4.67782e-19
1.0923e-17
2.06998e-17
5.75443e-19
9.73349e-06
6.19443e-18
3.57121e-18
9.84518e-06
4.00579e-10
3.2187e-06
4.4189e-19
1.35087e-16
8.04184e-07
2.22597e-18
7.98393e-08
1.39889e-17
2.79052e-05
4.83641e-18
9.00519e-19
6.7139e-08
2.74513e-18
1.65643e-07
1.05688e-17
3.88597e-18
5.62892e-06
5.09193e-07
5.65389e-06
1.84146e-05
0.000263788
2.43602e-05
1.68137e-18
4.09283e-18
3.58467e-06
8.00879e-06
4.3618e-05
1.27263e-05
1.13572e-17
1.45213e-05
1.16199e-18
2.78404e-18
1.09331e-05
1.31301e-05
8.77567e-18
1.57288e-05
3.47839e-18
3.25318e-06
1.04182e-05
2.98051e-17
1.92757e-18
1.70972e-18
3.36691e-06
3.5666e-18
4.18574e-18
5.01255e-06
2.53604e-05
4.22228e-09
8.84375e-06
7.40219e-18
1.55534e-17
1.00001e-07
9.094e-07
5.40618e-19
1.24394e-05
1.59364e-17
3.16835e-06
1.36297e-18
5.80453e-19
1.47611e-05
2.85759e-17
4.53311e-08
4.35599e-06
2.50988e-18
2.99475e-18
5.30699e-06
6.56915e-14
6.21237e-05
3.83673e-18
0.000305958
3.0346e-18
8.68964e-17
3.99314e-17
8.99003e-06
3.48126e-17
1.01942e-17
6.66242e-06
2.3136e-17
2.92731e-07
6.17593e-17
1.46997e-17
7.56943e-18
1.25762e-10
9.16217e-07
5.74744e-19
2.40065e-18
4.1588e-05
1.11078e-06
9.42805e-18
5.15184e-07
1.35107e-17
1.00182e-17
1.98502e-09
3.08768e-06
1.57368e-06
1.12864e-17
8.48939e-18
6.79605e-19
9.16118e-19
4.94614e-17
1.26768e-17
2.05048e-18
1.70634e-18
7.26912e-19
1.35308e-17
4.78392e-18
1.09268e-18
5.38645e-18
6.88016e-18
3.95326e-19
2.42156e-17
2.42105e-18
2.36661e-18
1.95056e-18
4.56935e-19
3.21882e-17
2.06416e-05
9.30639e-18
5.82422e-18
1.97499e-18
7.90405e-06
9.79255e-18
5.34617e-18
0.000347816
5.22536e-18
1.00954e-17
2.75313e-05
6.14244e-15
9.84758e-18
9.23289e-06
2.92001e-05
2.79363e-19
3.32743e-06
4.95892e-06
4.44382e-18
1.58777e-05
4.68977e-05
2.12811e-05
4.03387e-06
1.27619e-05
2.61783e-17
1.64905e-18
3.49279e-06
1.22122e-05
3.83863e-06
5.89997e-18
7.84674e-06
2.10946e-06
2.55031e-05
1.20519e-05
8.28277e-07
1.86443e-05
1.25207e-06
1.21443e-05
6.83949e-17
2.91957e-05
1.00371e-05
1.94044e-06
1.63487e-06
2.32718e-18
3.66177e-18
8.82979e-18
3.53993e-18
9.11159e-18
1.06305e-05
1.61565e-05
4.72103e-19
8.50534e-19
6.98131e-17
7.22289e-18
7.90705e-19
1.27852e-18
3.55552e-18
1.11108e-17
5.41202e-06
2.23233e-07
2.58541e-05
8.04398e-08
1.90542e-18
3.58711e-17
3.62618e-05
8.44745e-09
4.61967e-18
3.5102e-18
8.62414e-06
4.58207e-17
1.82807e-18
3.85818e-09
9.32467e-06
1.60033e-05
4.00816e-05
4.07629e-05
2.32745e-17
1.65913e-05
3.97639e-07
4.24984e-17
3.09108e-18
1.40828e-05
1.34627e-18
4.35171e-18
1.92978e-05
0.0012439
2.08007e-07
2.8468e-17
3.36155e-17
2.10097e-05
2.36577e-05
2.07677e-05
6.82664e-06
5.05308e-06
1.24542e-17
1.28078e-09
3.19824e-12
7.13826e-17
1.49669e-17
2.04453e-05
7.30663e-18
2.35505e-06
2.95532e-05
2.07976e-05
1.36137e-05
9.30694e-18
7.19514e-06
1.20588e-17
7.47197e-18
1.05765e-17
2.93278e-18
2.87809e-06
0.00104377
5.39617e-18
4.99179e-18
3.82598e-09
2.70839e-05
1.37966e-06
8.14975e-06
3.8529e-05
5.64836e-06
2.44311e-05
8.04213e-18
1.12966e-17
2.58125e-17
3.50957e-05
6.68089e-06
3.25809e-11
5.30068e-18
9.15331e-19
1.2856e-16
2.61961e-05
3.2975e-06
3.29433e-18
5.77143e-06
6.86703e-05
7.79982e-06
7.22683e-06
1.21407e-17
1.98192e-16
8.13608e-06
2.63442e-05
2.77969e-20
4.00106e-07
1.72935e-05
1.18148e-06
1.06472e-05
5.46725e-06
9.43346e-06
4.26705e-18
3.85773e-06
2.42172e-05
4.23602e-05
5.21106e-13
2.65446e-05
2.44868e-16
1.90517e-05
1.86688e-07
1.61815e-18
2.999e-06
8.86907e-06
4.48922e-07
1.33822e-05
1.50076e-10
1.49411e-07
1.66994e-08
4.86923e-05
4.2778e-06
2.05142e-17
4.46164e-05
1.52501e-06
5.23172e-18
3.97696e-19
4.8479e-11
1.29577e-08
1.20937e-06
0.00128058
4.06577e-05
1.4166e-05
2.36513e-10
5.22628e-05
1.55261e-17
2.43066e-17
4.51121e-06
1.99327e-17
2.46502e-06
4.81165e-06
2.54105e-06
5.33142e-06
5.85993e-18
2.36038e-07
0.000125001
2.33662e-18
2.09265e-05
8.71056e-06
1.63153e-18
4.67997e-06
1.50758e-07
7.40322e-18
7.49239e-12
1.05539e-07
2.18064e-18
6.13625e-18
2.76891e-18
5.05708e-06
5.66398e-06
1.63558e-05
1.50075e-17
5.7112e-06
3.82249e-05
1.4366e-17
9.28063e-06
1.43253e-05
2.7797e-05
1.77501e-06
2.54857e-18
6.72468e-07
1.08493e-05
1.20547e-05
1.04541e-05
4.27513e-05
0.000189332
3.89063e-06
9.70313e-18
8.7619e-09
5.74924e-05
1.19116e-18
4.90934e-07
4.62301e-19
5.92275e-19
1.18927e-18
9.88275e-18
1.38262e-18
3.70671e-06
1.88518e-18
8.29517e-06
1.30411e-06
2.26315e-17
4.30134e-06
2.06749e-17
1.60324e-05
6.93883e-18
2.65652e-08
6.96137e-18
2.51738e-05
1.83269e-07
2.95492e-09
4.86355e-06
3.27053e-05
1.91198e-05
4.42212e-06
3.11057e-05
7.35147e-15
2.60521e-05
6.17255e-05
1.08645e-05
3.6763e-17
1.25594e-06
2.94006e-07
6.43848e-06
1.1623e-05
6.8775e-07
2.50295e-17
1.58752e-17
5.1768e-19
4.06541e-06
5.15115e-18
3.57017e-07
2.48074e-07
1.84626e-06
3.23785e-07
4.00519e-18
1.37126e-18
3.15586e-18
1.00189e-05
2.4676e-05
1.36835e-06
1.11198e-08
2.13765e-06
7.85903e-06
2.23958e-06
8.96517e-07
7.53689e-06
6.89186e-06
3.02751e-06
9.26798e-18
2.3505e-18
2.54966e-17
1.48765e-05
1.21953e-05
1.46805e-17
5.32157e-18
1.65357e-16
9.54273e-06
2.11233e-05
1.58669e-18
2.49172e-06
1.86218e-17
7.03313e-10
5.28899e-06
0.000101723
2.16809e-18
1.49462e-18
4.08015e-06
2.36681e-17
6.63276e-08
1.33735e-05
4.86236e-18
1.22621e-05
3.70506e-05
2.10843e-05
2.19664e-18
1.56761e-06
1.10731e-18
9.78751e-08
5.54627e-05
2.28903e-18
5.06228e-19
1.22136e-05
5.83427e-16
7.02039e-18
5.1007e-08
1.0837e-06
1.23028e-18
1.26321e-18
3.15061e-17
7.05529e-08
1.40171e-06
3.48841e-06
2.93919e-05
1.04173e-05
4.26901e-18
8.11961e-10
7.57426e-07
2.41631e-18
1.9196e-18
1.51912e-18
1.19479e-17
4.54301e-18
2.44386e-17
1.06875e-17
7.83699e-19
4.17609e-17
7.83735e-19
2.74724e-12
7.86781e-17
3.81158e-07
4.06783e-17
2.74656e-07
8.48196e-17
6.94036e-08
3.09778e-16
1.32557e-18
3.24e-05
1.01663e-05
1.01684e-16
0.000100296
1.24331e-11
4.16643e-13
1.52804e-17
1.50369e-06
1.01426e-14
3.10369e-06
7.51301e-09
9.48487e-07
1.29621e-17
3.06545e-18
1.04093e-06
2.63148e-11
1.66445e-18
4.35724e-17
4.3787e-05
2.26712e-17
4.15538e-05
1.95168e-17
2.89225e-18
2.00909e-09
3.17155e-05
8.9561e-06
8.35454e-19
3.58888e-07
3.76778e-18
3.76617e-06
2.08562e-08
2.01767e-06
1.08413e-06
5.89873e-18
2.29416e-05
1.35459e-06
5.8514e-06
2.8781e-19
1.02397e-18
9.70554e-19
2.22211e-05
4.41417e-06
5.87002e-05
1.50895e-17
5.32761e-10
2.72249e-18
1.18188e-17
2.03643e-17
4.76139e-18
3.72229e-06
2.5349e-06
3.39034e-06
0.00035885
3.56328e-17
3.05704e-05
4.02035e-05
1.94494e-05
1.98567e-06
7.42476e-18
5.86041e-06
5.17426e-06
6.89829e-06
3.60562e-10
1.1363e-05
2.77312e-18
1.69232e-06
1.43998e-06
3.67592e-05
1.32785e-09
3.80771e-06
7.52842e-18
2.12494e-05
2.05333e-18
1.8904e-18
1.8556e-06
2.26814e-17
6.83786e-06
3.37528e-18
1.8759e-17
5.33826e-18
8.55449e-18
3.48508e-18
9.177e-07
2.62076e-18
6.06587e-07
2.51622e-18
1.40322e-18
1.99831e-05
6.07426e-06
8.95382e-06
8.2974e-06
6.50575e-18
0.000661955
3.0056e-18
7.83002e-05
2.83083e-17
1.98624e-05
2.70534e-05
2.69795e-06
6.37548e-05
7.63608e-17
2.37475e-16
5.8822e-18
2.42635e-06
9.08314e-18
4.1474e-18
1.98309e-05
4.85726e-18
5.93767e-19
6.11897e-06
3.48236e-17
1.4276e-05
7.93334e-11
3.271e-17
4.56387e-18
2.14995e-17
1.82168e-06
7.66298e-06
2.66073e-18
2.56146e-05
3.90649e-07
7.04634e-18
0.000116905
6.93923e-18
1.76218e-05
2.02488e-05
4.04482e-06
5.57507e-19
2.01064e-05
1.10255e-05
9.77813e-07
6.09724e-06
1.43192e-05
1.92753e-18
4.07508e-18
2.05259e-09
5.84622e-18
6.4758e-19
6.24171e-18
2.20477e-05
5.12697e-05
5.02078e-06
2.48582e-06
3.95165e-17
5.69704e-05
5.18151e-05
4.78457e-06
2.71904e-06
1.06195e-05
2.36813e-05
3.08026e-06
7.57525e-18
9.91509e-18
7.37908e-19
7.96818e-06
1.306e-17
2.78739e-05
4.12014e-17
8.4701e-07
6.55499e-10
2.92655e-06
2.51239e-05
1.40655e-18
8.63855e-18
2.83964e-06
4.1792e-07
1.64908e-18
7.82345e-18
2.48222e-17
3.83346e-08
3.67425e-07
1.6897e-07
9.48135e-07
1.15051e-05
9.79106e-05
1.49733e-17
5.52118e-18
5.53419e-18
4.22017e-06
2.00146e-05
2.26597e-05
3.99846e-05
1.97708e-06
3.39674e-06
7.00713e-18
7.52202e-18
8.15954e-17
1.19681e-17
1.06852e-05
2.56445e-05
7.90274e-18
1.13643e-17
6.28209e-18
8.13791e-18
6.75002e-17
3.34089e-17
1.5802e-05
4.12365e-17
1.08324e-06
0.000469293
6.16442e-18
1.56949e-08
2.60973e-05
8.70881e-07
7.65064e-18
3.64554e-17
5.66648e-06
1.09037e-17
1.63449e-05
1.13009e-09
2.78376e-05
4.51243e-17
3.67364e-15
1.01973e-18
2.03473e-18
1.19711e-18
1.01641e-16
0.000224988
2.73172e-18
6.85015e-06
1.38024e-06
6.37851e-19
1.4218e-17
2.22964e-06
3.04279e-18
2.75884e-18
1.28972e-05
1.53735e-07
1.25256e-18
1.49774e-18
1.35825e-17
1.92398e-05
1.98818e-18
2.51273e-17
4.84331e-07
3.03425e-06
3.55433e-06
1.18398e-17
1.29404e-18
4.17429e-17
4.41533e-06
2.14344e-06
1.5048e-05
4.3084e-06
6.75908e-18
9.22996e-07
1.34985e-05
7.42236e-06
3.13856e-19
2.15016e-17
5.61922e-19
3.44796e-17
4.88264e-18
3.5788e-05
6.00596e-06
6.40802e-06
7.8484e-17
1.34772e-17
5.9222e-18
1.9741e-18
3.57098e-18
1.14031e-09
2.78246e-07
2.56197e-06
9.09264e-18
1.24125e-18
7.62745e-17
2.62418e-12
4.00821e-05
0.000131607
1.07683e-18
8.39622e-13
2.63926e-14
1.44439e-18
2.4953e-18
4.39545e-06
7.52453e-06
4.04269e-18
2.27348e-17
3.34698e-06
9.96197e-18
8.11619e-07
1.25228e-06
0.00240739
9.90279e-19
3.5781e-18
1.39806e-05
6.17628e-07
3.67004e-18
0.000764399
6.91829e-07
7.23126e-06
1.59934e-17
5.54115e-18
7.28622e-18
7.0449e-18
9.33746e-06
1.04641e-07
2.25805e-18
2.9399e-05
2.2122e-05
0.000992916
1.14194e-17
4.00515e-19
1.4149e-18
2.9227e-18
7.61248e-06
7.94675e-11
7.42367e-18
2.00468e-17
2.16256e-05
1.07467e-06
5.53906e-06
1.47313e-18
4.25614e-17
3.31659e-05
5.89029e-17
8.64577e-19
1.46604e-18
1.96247e-18
2.48027e-05
9.67367e-18
4.64785e-18
9.48738e-18
2.89208e-05
1.38229e-05
7.98259e-18
8.09155e-18
6.38086e-18
1.75321e-05
2.16397e-10
1.8816e-17
1.96704e-18
3.36039e-18
6.94969e-18
2.76704e-06
1.27075e-05
1.17058e-18
2.32078e-06
1.29035e-06
5.54375e-06
2.05838e-17
4.00441e-17
1.36549e-18
1.11927e-17
4.69807e-19
2.23439e-05
1.93994e-17
1.65443e-05
6.14887e-18
1.77291e-06
3.74754e-16
2.7649e-06
1.86739e-17
5.27739e-18
1.24214e-05
0.000187929
9.41328e-17
4.15156e-06
2.61077e-18
4.50711e-07
6.1102e-18
2.44763e-18
3.04125e-17
1.39172e-10
7.13222e-18
3.48522e-07
4.84205e-18
4.02426e-05
1.34689e-18
7.78571e-18
3.59948e-18
5.60749e-18
8.94918e-09
1.54084e-07
9.15504e-18
6.51612e-06
5.15543e-18
3.14217e-06
2.11877e-05
1.4585e-06
1.47415e-19
5.39672e-09
5.05531e-07
2.50102e-09
4.7712e-06
3.58499e-10
1.92814e-06
6.9767e-17
3.32041e-19
4.95396e-10
6.56809e-06
2.72871e-07
3.16614e-17
1.0226e-17
8.55359e-18
0.000663313
1.16168e-17
1.28979e-17
4.11191e-18
9.9041e-18
8.41319e-17
3.35541e-08
2.0435e-07
1.17757e-06
7.9016e-08
1.11378e-15
1.7049e-06
7.9938e-18
6.29854e-06
8.62398e-18
5.92986e-18
1.34774e-18
1.07653e-16
2.10246e-08
2.14853e-17
1.07526e-18
1.31071e-18
1.64082e-05
6.10837e-19
1.22871e-17
1.25718e-05
1.17642e-17
8.51062e-05
0.000143676
0.00064781
2.80711e-17
0.000229866
0.00131207
0.00131538
0.000736943
8.38791e-18
1.17941e-18
5.45642e-06
5.21488e-06
1.88327e-18
1.11032e-05
6.66371e-19
3.60979e-05
1.40234e-17
3.67423e-18
8.08151e-07
4.19537e-18
1.83116e-18
1.17219e-08
4.5854e-08
2.23157e-17
7.81634e-19
3.26541e-09
6.46141e-17
1.75469e-18
2.21453e-08
9.39456e-06
1.71839e-06
7.87445e-17
8.84235e-06
1.35478e-17
3.97223e-06
4.66165e-10
8.27567e-06
1.12435e-18
1.80229e-11
6.39299e-06
4.2064e-17
1.8303e-12
4.0198e-18
3.59495e-05
8.85999e-18
1.08078e-05
4.06258e-18
2.75962e-10
1.61529e-18
2.15855e-17
1.01071e-17
9.49883e-13
5.7959e-13
1.11466e-17
1.35903e-05
1.03435e-05
5.60857e-17
3.5099e-17
3.65569e-05
1.92243e-05
0.000205857
1.92433e-17
7.65735e-08
2.77853e-05
5.11252e-05
6.89495e-11
1.95182e-17
6.38935e-05
5.2948e-18
0.00025384
1.49736e-18
4.32982e-11
4.04817e-11
9.99737e-18
5.79925e-08
1.46062e-17
2.41302e-05
3.84343e-18
4.05439e-18
2.50466e-18
1.81947e-18
2.67155e-18
1.75958e-17
3.41168e-07
2.14576e-06
0.000149983
1.84878e-17
5.11892e-17
4.55564e-05
3.7243e-18
4.9278e-19
1.42723e-17
1.13967e-16
6.16573e-18
6.55826e-06
6.85971e-18
1.9971e-17
1.63135e-19
3.66795e-06
7.03584e-18
9.12315e-18
3.071e-17
3.59857e-06
1.62768e-18
6.83288e-06
0.000258334
5.83444e-06
5.97967e-06
2.96302e-05
5.80694e-18
3.93907e-17
2.97991e-18
3.3938e-06
1.92994e-06
1.72789e-18
2.09408e-17
6.58792e-07
2.26492e-17
3.7965e-17
0.000371109
1.28976e-17
2.42761e-05
4.23952e-18
2.60176e-06
3.64689e-06
1.53104e-17
5.20305e-18
2.11529e-17
3.41558e-17
2.65329e-18
2.05168e-05
5.08361e-17
5.16108e-06
4.96193e-18
1.98653e-18
7.53118e-06
1.54686e-17
1.40436e-05
8.34609e-17
1.65174e-17
2.6819e-06
8.58562e-08
0.000155236
1.80313e-17
1.66764e-17
1.38718e-18
4.06224e-06
0.000198171
1.14605e-17
8.73572e-19
4.65576e-17
1.69291e-06
2.0306e-18
2.16361e-05
3.42464e-05
1.2462e-17
1.95895e-18
8.00822e-06
8.88703e-18
1.61893e-16
8.40673e-19
7.94993e-17
3.97832e-18
7.56076e-05
6.13633e-17
5.19795e-18
1.26503e-17
8.34148e-17
8.22852e-18
3.92502e-18
6.01009e-18
2.37969e-18
5.86559e-17
8.59724e-06
7.21135e-18
9.26036e-06
2.52675e-16
9.7803e-19
0.000635674
2.96185e-06
1.71311e-17
3.99186e-17
2.16143e-18
2.64192e-06
1.37888e-17
1.39505e-18
7.867e-18
7.3609e-18
7.90952e-06
9.80864e-19
5.25218e-06
2.24244e-17
1.04944e-05
1.00016e-17
6.2358e-05
2.91505e-17
7.88057e-18
2.34213e-05
1.70843e-18
1.9997e-18
2.93029e-05
2.95389e-07
1.54457e-17
2.73396e-18
4.00125e-05
1.09649e-05
7.02652e-06
9.26196e-07
1.98774e-06
1.87951e-05
1.07362e-06
5.30557e-06
4.62404e-18
3.15729e-05
1.36489e-17
6.72648e-18
2.79369e-19
1.04085e-17
6.74166e-19
1.1345e-05
4.17824e-17
2.26709e-17
1.88441e-18
3.38395e-09
9.8469e-09
8.34391e-17
2.49132e-06
5.83629e-18
4.72918e-06
1.76335e-18
1.37721e-09
3.97025e-06
2.91168e-16
4.9926e-05
5.11229e-18
7.93217e-18
9.85183e-18
3.23861e-06
1.42135e-06
2.63459e-18
1.0383e-18
2.74872e-06
2.73439e-17
0.000724981
1.71169e-18
0.000113369
1.29076e-18
6.7083e-18
1.23942e-17
8.52491e-18
1.08997e-05
9.86185e-19
4.2625e-08
1.18098e-17
1.0672e-05
2.57436e-18
1.24766e-18
5.77753e-15
1.23711e-16
3.85924e-18
1.14375e-17
2.5963e-18
4.42888e-18
4.68322e-06
0.000208447
8.04004e-17
1.18785e-17
3.93161e-07
6.92986e-18
6.95793e-18
1.22453e-09
1.88598e-05
1.6061e-07
4.01673e-17
7.62094e-07
3.59509e-06
5.72197e-06
9.15859e-06
3.21987e-17
8.86864e-17
2.9296e-17
1.32733e-18
8.13719e-19
4.39763e-18
3.15619e-17
2.01192e-17
1.70312e-17
1.1988e-17
1.01506e-17
2.81598e-19
8.24926e-05
1.40914e-18
8.1415e-19
3.4862e-14
3.38878e-17
5.96898e-19
0.00121284
3.9856e-20
2.41766e-18
2.18034e-06
2.11635e-12
8.51482e-18
6.17763e-17
1.13923e-18
2.49231e-05
5.84271e-18
7.64282e-18
5.66381e-11
2.57062e-19
3.80146e-18
3.71275e-18
3.67776e-18
0.000126877
2.08404e-18
1.85976e-07
2.19389e-18
1.69972e-17
1.70009e-18
4.55668e-18
1.7388e-18
1.97304e-11
4.12283e-11
1.23247e-07
1.10864e-17
3.28335e-18
1.83623e-17
1.11783e-10
1.0976e-18
3.38811e-10
1.10589e-11
8.60213e-18
1.30311e-17
1.06708e-16
5.41483e-12
7.12154e-18
1.1248e-17
2.60389e-12
3.00061e-17
3.48344e-05
1.00264e-17
7.84174e-06
1.77083e-17
2.54195e-09
2.98734e-18
1.623e-06
1.70151e-18
4.67771e-06
2.87633e-05
9.3955e-18
2.85636e-06
1.61735e-08
1.87132e-17
1.20546e-05
1.31992e-18
4.2488e-18
3.48049e-18
5.85966e-19
9.93123e-17
1.48723e-18
6.4225e-19
4.63092e-18
0.000321121
9.59082e-18
4.10823e-18
5.13367e-19
6.26177e-19
8.38204e-18
3.55739e-05
0.000919401
3.52001e-09
1.25136e-08
7.10856e-18
2.34014e-06
1.60533e-06
2.55914e-19
2.51384e-19
2.12764e-17
1.91791e-18
1.74688e-17
1.61527e-17
6.55036e-18
9.76072e-18
4.52844e-07
5.44613e-18
3.04701e-17
2.56903e-07
4.16856e-09
3.33553e-17
2.92992e-05
1.64259e-17
1.05682e-17
4.36288e-18
0.000198478
1.47515e-17
4.43645e-19
2.93411e-05
1.96659e-18
1.35814e-17
4.86293e-18
5.90817e-17
6.29179e-05
7.26769e-18
1.3621e-18
6.14923e-18