/*--------------------------------*- C++ -*----------------------------------*\
  =========                 |
  \\      /  F ield         | OpenFOAM: The Open Source CFD Toolbox
   \\    /   O peration     | Website:  https://openfoam.org
    \\  /    A nd           | Version:  10
     \\/     M anipulation  |
\*---------------------------------------------------------------------------*/
FoamFile
{
    format      ascii;
    class       volScalarField;
    location    "9.9";
    object      T;
}
// * * * * * * * * * * * * * * * * * * * * * * * * * * * * * * * * * * * * * //

dimensions      [0 0 0 1 0 0 0];

internalField   nonuniform List<scalar> 
111485
(
303.15
285.1
300.959
303.15
298.386
283.15
298.897
293.366
296.293
286.239
300.496
296.172
300.19
284.566
299.954
286.751
299.288
297.711
294.009
303.15
303.15
283.15
297.211
288.683
301.536
303.15
293.166
300.602
288.839
303.15
300.722
294.29
303.15
283.15
283.446
283.15
302.277
297.562
283.149
296.574
283.15
289.578
296.993
302.878
303.192
303.15
287.353
288.542
289.619
303.15
303.15
283.15
303.15
298.89
303.15
293.464
287.883
283.15
283.32
295.415
295.815
303.15
302.042
300.244
283.15
284.542
300.208
291.503
302.096
302.521
303.162
301.884
303.15
302.093
303.15
295.338
283.15
293.425
283.15
283.15
283.237
293.352
283.15
303.15
300.288
284.201
283.15
301.531
303.115
299.055
283.33
289.549
300.84
300.36
289.744
303.15
303.15
301.531
303.149
283.413
303.15
286.64
283.15
285.156
285.739
283.15
283.15
293.038
301.438
283.146
298.877
288.052
301.275
301.686
303.15
301.964
303.15
283.15
300.104
303.15
303.15
283.15
283.15
283.15
283.398
303.151
283.15
301.795
303.15
283.176
303.086
301.922
303.15
283.15
283.15
292.467
283.15
294.178
298.755
301.069
303.137
296.78
298.937
284.76
302.27
297.757
283.15
303.15
283.15
297.097
284.915
303.15
303.144
287.293
283.156
293.678
295.591
302.517
283.154
303.15
303.15
292.136
286.229
283.153
283.157
301.158
283.682
283.15
283.152
283.152
283.15
303.15
283.205
283.15
291.506
287.147
283.15
303.15
303.15
283.15
303.15
303.15
297.606
293.452
295.742
289.734
301.36
300.392
283.189
303.15
301.424
303.15
303.15
300.126
286.266
301.385
301.313
295.704
303.15
300.862
284.586
283.16
300.753
297.03
303.15
300.385
288.167
303.15
283.224
300.155
284.793
300.658
303.15
303.15
300.673
283.15
292.724
283.15
300.577
298.672
290.334
303.15
301.736
300.512
283.15
283.15
283.15
289.473
283.157
283.15
303.15
298.607
291.327
289.899
283.15
303.15
303.106
303.15
284.323
300.047
299.22
299.47
299.339
283.15
283.144
298.816
283.15
283.15
288.737
288.337
283.15
301.16
298.834
303.15
283.15
301.006
303.15
303.15
303.121
303.15
288.242
285.85
290.75
303.15
298.295
303.15
303.15
303.15
283.148
298.052
300.949
299.383
291.173
299.44
296.197
283.21
290.291
291.537
283.15
303.15
283.149
292.412
298.712
286.437
303.15
297.953
297.219
298.847
302.958
283.166
297.055
299.321
301.991
283.15
283.603
283.15
283.149
303.15
283.877
290.236
286.299
303.15
283.15
297.546
285.227
303.15
303.15
303.15
284.576
290.201
301.036
284.391
292.986
283.15
283.15
303.15
298.309
303.15
283.816
289.44
283.153
283.15
303.15
303.15
283.15
294.312
289.937
283.15
295.66
283.15
303.15
301.041
297.25
293.941
295.769
283.15
283.15
283.15
296.56
290.971
302.356
283.15
283.15
283.15
290.056
296.899
283.212
290.447
283.15
292.756
299.517
284.196
298.639
285.248
283.15
303.15
283.15
303.15
290.643
296.617
287.912
291.902
283.15
286.341
283.15
303.15
293.772
303.15
301.738
303.15
283.15
291.905
283.15
288.749
284.612
283.15
283.977
297.98
283.15
300.114
284.655
298.8
303.021
291.022
285.982
283.15
303.15
303.143
283.15
300.961
300.822
283.15
283.15
294.671
284.358
298.147
296.798
283.15
295.067
296.07
283.15
302.038
283.892
303.15
303.15
288.223
298.548
283.15
303.15
303.15
303.15
300.713
283.15
303.15
293.909
283.171
286.955
299.932
283.15
283.15
302.601
283.15
302.449
301.418
297.806
288.68
283.15
293.874
303.38
303.15
298.596
292.267
303.15
283.15
283.304
283.15
289.997
286.085
291.613
283.15
292.833
296.542
293.026
303.147
283.15
303.15
303.15
283.169
292.692
283.15
284.309
303.132
283.15
303.15
303.15
303.15
301.812
290.489
285.977
284.181
284.308
283.15
285.682
303.15
300.707
283.15
303.15
303.15
300.647
303.15
303.15
283.151
303.15
283.15
300.646
283.15
283.15
283.15
303.15
283.15
303.15
283.15
283.66
283.15
303.125
301.836
283.743
283.15
303.083
283.15
303.15
284.702
284.663
286.1
297.467
283.15
297.439
297.552
292.255
286.792
285.259
303.15
291.726
283.15
299.825
283.15
296.74
283.15
292.042
298.541
303.151
283.15
286.773
303.15
295.453
299.045
283.15
283.15
283.15
283.15
303.15
293.635
283.15
283.15
283.236
283.15
299.778
283.15
284.784
303.15
283.432
303.12
284.623
291.865
283.15
301.431
283.15
283.15
285.676
283.15
283.253
283.15
299.63
303.15
290.616
303.15
283.15
302.37
284.461
300.049
285.644
300.047
289.443
283.15
300.596
284.54
283.15
283.14
300.302
301.568
283.15
282.458
301.037
303.062
283.119
303.15
287.552
302.155
284.398
285.375
288.177
282.568
283.15
303.15
300.557
303.15
283.544
283.15
283.15
291.72
282.681
303.149
303.116
283.15
286.257
299.549
283.15
283.15
299.564
303.15
283.15
283.15
283.15
286.14
283.15
303.15
284.812
284.212
303.15
299.659
283.15
289.224
303.15
283.15
286.134
283.15
283.15
283.15
285.353
283.15
285.429
291.916
303.15
300.321
283.446
298.666
300.917
283.307
283.455
283.15
288.924
298.399
303.15
302.251
296
296.833
284.703
297.398
297.153
303.15
300.216
303.135
283.15
297.099
284.813
283.15
292.324
295.672
284.835
298.725
300.598
292.284
283.15
298.867
283.467
303.15
300.557
301.95
294.035
283.15
286.471
303.15
283.15
283.15
283.15
283.299
283.15
303.15
303.15
283.15
300.382
299.205
303.15
285.604
303.15
303.15
303.15
289.996
283.416
283.15
303.15
283.15
283.15
286.783
292.331
283.15
295.085
283.137
283.15
295.26
302.208
287.755
283.15
283.15
300.215
292.042
283.15
283.15
283.15
293.94
303.15
303.15
283.15
296.191
302.368
283.15
282.38
301.708
286.513
283.15
283.15
287.436
302.962
283.15
283.159
287.197
283.748
288.744
283.15
285.671
300.272
283.15
303.15
283.15
283.15
283.15
283.15
295.618
303.15
283.15
283.15
295.232
291.766
303.15
303.15
289.81
298.377
298.275
303.15
283.15
297.95
303.15
283.822
298.783
298.303
303.15
303.15
303.15
283.15
286.041
283.15
283.15
302.697
303.15
297.769
302.265
283.15
294.002
283.259
296.385
291.934
283.415
289.735
283.15
283.15
296.833
288.01
290.8
283.15
283.15
297.714
294.923
283.15
283.899
284.575
283.473
303.15
303.15
303.15
290.706
283.15
300.017
283.15
284.365
297.551
298.466
292.214
283.15
283.15
303.15
295.321
283.15
283.15
303.096
283.15
283.15
303.15
283.15
299.283
283.15
283.15
283.15
283.15
283.15
303.15
283.15
283.171
298.738
303.15
302.524
283.131
283.398
283.096
285.495
283.15
284.444
290.49
283.398
303.15
283.149
299.699
283.15
300.216
283.143
283.144
286.181
297.445
283.203
291.847
297.959
283.15
283.15
299.02
299.765
283.15
297.307
291.237
297.523
283.15
283.243
283.15
297.835
296.956
283.15
300.028
297.605
283.149
299.733
283.15
295.605
283.145
303.126
283.162
283.16
283.15
283.15
284.411
283.15
302.968
283.584
283.064
303.147
303.149
303.147
283.15
283.15
293.747
303.15
303.188
283.867
283.15
283.15
303.154
303.149
283.15
303.165
283.15
283.15
303.15
303.15
303.15
303.15
283.361
283.15
283.15
283.15
303.157
283.304
283.883
293.399
283.15
283.15
283.334
283.15
283.15
283.15
287.221
293.547
283.15
283.15
283.15
283.15
283.15
283.15
284.004
283.15
303.15
291.531
283.15
303.15
303.15
303.153
303.15
303.15
283.15
303.171
283.15
283.691
283.144
303.152
283.15
303.062
284.381
292.04
303.15
303.128
284.437
303.15
283.15
303.15
283.15
293.99
293.432
284.625
303.148
283.15
293.205
283.15
283.15
303.15
283.15
294.803
283.15
303.15
283.163
298.122
303.15
284.366
283.15
283.572
283.15
283.15
283.15
303.15
285.833
283.466
284.208
283.15
283.15
285.62
283.15
283.15
303.15
284.316
303.164
298.514
303.15
303.127
303.128
283.15
303.13
283.15
283.438
289.108
300.998
283.795
283.167
283.15
283.15
283.15
303.184
283.15
302.898
303.15
292.643
303.15
288.707
283.819
303.15
283.15
303.15
283.15
301.774
303.15
303.15
286.39
300.53
283.15
283.15
283.15
283.15
283.15
283.15
300.784
283.576
303.15
303.15
303.157
303.15
300.161
284.407
283.15
302.101
303.15
301.611
283.15
302.562
283.15
283.148
303.152
283.31
302.098
300.202
283.147
283.15
289.328
303.15
293.334
303.15
283.15
303.15
283.15
283.15
283.15
300.785
302.041
303.15
303.15
303.15
302.896
283.15
303.15
292.844
283.085
303.15
297.484
298.281
296.45
283.372
283.15
283.15
283.15
283.15
294.595
283.15
294.824
283.15
303.056
289.819
283.15
302.853
283.15
283.15
302.732
283.148
302.916
283.15
303.15
283.15
302.381
283.15
303.15
283.15
283.148
283.15
283.17
283.15
283.15
303.15
292.96
301.074
296.083
296.981
303.15
303.115
283.15
283.15
285.678
283.15
283.158
302.838
298.754
302.94
303.15
283.357
283.15
303.15
283.15
302.992
283.314
298.273
283.15
303.15
288.071
303.15
283.15
283.126
295.057
283.147
283.15
283.15
283.149
303.15
283.15
303.142
303.15
303.15
289.926
302.985
302.992
288.994
293.213
283.15
283.15
303.087
289.063
283.15
303.15
284.718
283.15
303.15
283.15
283.15
283.15
297.39
283.15
302.938
283.15
300.478
283.15
283.15
283.15
283.15
283.15
283.15
284.999
283.15
283.15
283.15
283.15
283.15
283.15
291.967
283.15
298.34
302.931
283.15
302.318
283.15
302.509
303.145
292.275
288.769
303.15
292.14
284.771
303.108
303.15
303.14
295.029
288.648
283.15
287.869
283.15
283.15
283.15
283.15
287.493
283.15
283.15
291.625
303.135
285.301
283.15
283.15
302.514
283.15
283.183
303.15
299.87
283.15
283.15
302.818
283.15
303.178
303.15
283.15
289.037
297.94
292.685
285.646
292.5
294.09
283.15
283.15
302.28
290.571
292.741
284.396
283.15
294.349
283.15
303.15
300.719
298.699
283.15
297.387
283.15
292.738
297.179
303.15
283.15
283.15
301.764
283.15
283.15
300.484
296.107
283.195
291.201
283.15
283.15
302.794
300.503
283.15
300.622
283.15
300.477
283.15
283.15
300.783
283.15
283.227
301.581
283.15
283.15
302.422
283.15
287.897
303.15
290.368
303.15
303.15
303.15
300.931
283.15
283.15
299.511
283.15
302.989
283.15
283.15
303.15
283.151
288.186
283.15
283.15
288.049
288.228
283.15
283.672
283.15
303.15
302.408
283.721
301.55
283.15
283.15
283.15
283.15
283.15
283.15
283.15
283.15
283.15
283.15
283.15
303.15
283.15
283.15
283.15
283.15
283.15
283.15
283.15
283.15
303.15
286.941
283.15
283.15
283.15
294.664
283.15
303.15
302.881
283.15
283.15
294.668
283.15
283.15
301.793
295.146
283.15
303.665
303.599
283.15
301.488
293.917
297.511
301.455
298.1
303.15
283.15
296.35
291.746
301.397
283.15
302.133
302.407
300.848
288.022
287.304
301.036
301.764
301.766
303.15
285.845
297.504
285.518
297.208
283.15
283.15
283.15
303.15
283.15
291.957
297.879
283.15
283.15
283.15
283.15
283.15
303.15
283.15
303.15
292.105
303.112
298.986
302.837
283.15
283.15
285.402
283.167
283.15
283.15
301.69
303.15
283.15
298.117
299.478
297.486
298.614
300.778
303.15
291.02
302.579
303.15
303.15
300.299
303.15
283.15
282.99
295.517
302.946
283.15
303.15
289.565
286.136
297.114
292.155
302.375
303.15
303.136
303.15
303.15
283.15
298.924
283.15
291.777
290.423
299.662
284.758
303.15
301.91
303.15
283.15
303.15
303.15
291.466
299.494
283.15
303.15
303.133
291.756
303.028
299.315
292.766
288.305
292.877
283.15
303.15
283.15
291.201
298.264
303.151
303.15
303.15
303.15
297.447
302.552
283.15
299.935
301.112
284.851
299.48
303.15
303.15
298.647
292.928
283.15
302.901
299.713
302.602
291.949
297.269
298.213
303.15
286.969
298.147
291.3
283.15
289.025
303.15
288.378
301.038
303.15
288.688
301.262
300.107
293.138
283.149
283.159
283.237
301.608
300.899
303.15
288.803
301.465
303.15
283.15
303.15
303.209
298.724
290.72
296.741
303.255
283.149
297.483
303.15
303.15
292.75
303.15
300.286
283.303
301.3
291.509
303.15
283.659
293.171
303.15
283.057
298.64
303.15
300.667
286.237
303.15
303.15
283.99
303.15
283.15
283.15
285.903
299.201
291.137
303.15
285.212
297.444
283.15
298.809
298.844
288.952
303.095
283.15
301.493
299.606
298.809
300.052
288.645
290.747
302.475
303.15
301.536
288.698
303.15
298.82
283.15
283.15
303.15
283.15
303.15
297.418
283.15
300.497
283.628
303.15
283.785
283.15
289.819
303.15
303.144
303.15
294.126
302.992
303.117
299.845
290.392
289.424
290.569
298.393
303.15
299.369
292.14
298.906
303.15
283.867
283.449
299.226
287.15
283.508
303.15
283.15
303.15
285.317
303.15
303.333
284.676
303.361
302.953
303.15
303.15
283.15
300.529
300.62
285.483
303.085
286.988
295.636
301.866
292.471
288.13
302.071
296.065
283.15
283.15
303.15
285.799
289.682
283.15
283.15
303.15
301.978
288.648
303.15
296.361
303.15
283.155
285.177
301.081
303.15
303.15
292.248
303.15
283.3
290.598
283.15
297.118
294.609
296.065
303.15
302.704
283.15
302.658
293.377
303.15
303.15
288.775
283.15
303.15
301.787
284.428
303.15
303.15
283.15
302.339
303.47
289.479
299.671
298.017
303.15
303.159
302.599
303.15
283.15
303.15
303.15
303.15
303.15
303.15
303.15
303.15
283.15
303.15
303.15
283.339
303.15
303.342
303.15
303.16
303.15
303.15
300.921
303.675
303.15
291.98
303.15
303.15
283.15
302.55
303.15
302.12
303.114
283.288
283.15
303.15
302.921
283.149
303.15
303.15
291.346
283.15
292.566
283.15
283.15
283.153
291.191
284.833
303.15
296.627
283.15
303.758
303.133
284.307
302.586
283.15
292.143
303.084
301.667
283.15
303.15
283.15
304.118
284.81
296.858
303.15
303.15
303.15
303.15
303.15
303.15
302.335
302.802
297.594
291.969
303.15
287.112
292.617
284.965
303.206
283.15
286.899
302.746
284.754
283.148
287.467
303.15
283.379
302.914
292.506
302.84
301.891
303.15
302.22
303.15
303.15
297.907
303.15
284.462
303.15
303.15
283.15
303.15
303.15
302.839
303.15
283.296
283.15
283.15
285.792
284.908
300.889
286.073
303.15
294.649
303.15
290.431
303.15
287.122
300.663
301.468
293.324
303.15
303.15
303.15
289.79
283.15
303.15
289.544
283.15
283.15
301.81
303.15
286.182
283.148
283.15
303.15
303.15
300.641
298.16
303.15
293.393
303.037
283.15
298.549
303.15
286.406
288.218
302.135
303.15
296.266
296.721
302.95
301.869
301.648
303.15
303.15
303.147
303.15
283.15
303.15
289.547
300.06
294.307
302.122
283.15
300.342
291.373
298.197
283.6
298.295
289.568
302.154
283.15
283.15
283.15
302.2
283.15
290.457
283.15
301.249
303.162
289.701
298.028
283.15
303.15
301.237
301.215
303.15
283.15
303.15
286.421
301.426
302.975
302.328
297.987
288.426
303.15
303.15
303.15
294.209
285.946
289.762
295.844
283.951
302.953
303.15
303.15
283.15
283.15
285.411
299.561
303.15
303.15
283.15
303.15
303.15
303.15
300.236
303.15
285.344
292.376
283.15
283.247
293.328
285.687
303.15
303.15
301.875
303.15
299.208
283.147
297.545
303.15
303.15
283.15
303.15
303.15
303.15
305.18
303.15
301.827
301.104
303.15
303.15
301.605
303.15
283.15
287.227
303.102
303.15
303.15
303.15
297.899
303.15
303.15
302.453
302.481
301.765
303.15
283.15
303.15
302.034
302.502
301.512
302.525
283.15
300.629
287.471
297.426
283.15
303.15
303.15
303.15
303.15
294.336
287.556
299.64
303.15
303.15
303.15
303.15
283.15
303.148
284.759
285.135
283.15
303.15
303.15
283.148
299.569
294.894
283.15
303.15
303.15
303.15
303.15
289.593
289.642
303.15
303.15
302.391
303.15
301.435
283.946
291.866
303.15
283.15
301.153
303.123
303.15
303.038
301.304
286.799
303.15
303.15
303.15
303.15
293.262
284.14
303.15
302.689
298.03
289.332
303.15
303.15
303.15
303.15
299.518
303.151
303.15
303.15
298.23
302.582
288.322
303.15
303.15
297.713
303.15
303.15
303.15
303.15
288.792
303.15
283.15
283.15
295.907
291.064
303.15
303.15
303.15
296.977
303.146
303.15
303.15
303.15
303.15
303.402
300.862
303.15
287.319
302.638
299.363
303.15
303.15
303.15
303.15
283.15
285.643
303.15
302.845
283.15
302.169
303.15
303.133
303.15
283.15
301.915
285.637
283.15
302.822
303.15
302.412
283.15
303.15
303.15
303.151
303.15
283.269
303.15
290.832
283.15
283.15
303.15
303.15
298.804
302.374
283.15
302.402
283.15
284.087
287.967
302.701
283.15
303.155
302.986
303.134
284.384
283.156
302.981
283.15
283.15
283.156
302.066
302.284
303.15
283.15
283.15
295.265
303.15
283.15
303.15
303.15
303.15
303.108
303.044
302.928
302.442
303.15
302.899
303.15
284.813
303.15
303.15
283.15
303.15
303.11
303.15
283.15
303.15
288.306
303.15
303.15
303.164
283.15
302.816
302.025
296.642
303.15
289.222
294.372
283.775
289.886
283.15
283.15
287.204
284.313
283.15
303.829
283.15
286.408
303.15
283.15
303.156
303.15
303.15
303.011
303.155
303.15
283.15
303.138
303.15
283.15
283.106
298.716
302.698
303.15
301.837
303.15
285.702
303.152
301.17
303.15
303.15
301.033
303.15
303.15
303.15
287.682
303.15
285.139
303.15
303.147
303.15
283.15
283.15
303.15
303.15
303.15
288.695
302.544
303.15
303.15
288.559
286.488
291.182
303.15
302.697
287.663
287.523
303.15
303.15
287.637
283.15
291.873
303.15
303.152
303.149
303.15
300.504
283.15
302.297
283.15
303.15
303.15
303.15
303.15
303.15
284.325
302.241
291.008
303.15
303.15
290.54
303.15
303.15
303.15
303.15
303.15
300.128
303.15
303.15
283.15
299.43
303.15
283.15
303.15
301.356
283.15
299.936
290.785
302.681
299.999
299.413
303.15
303.15
303.15
300.809
288.455
283.15
303.15
300.296
303.15
303.15
291.933
303.15
287.466
303.15
297.797
284.305
303.15
283.15
303.15
303.15
303.15
285.229
303.15
300.47
303.15
303.15
299.676
283.15
284.744
303.15
303.15
288.079
301.526
296.386
303.15
303.15
303.15
301.544
292.244
303.15
283.15
303.15
300.648
303.15
284.766
296.265
303.15
303.15
301.12
303.15
303.15
283.15
303.15
283.15
294.519
303.15
283.15
303.15
303.15
303.15
303.15
303.15
303.15
283.15
301.493
283.15
302.069
303.15
303.15
296.05
300.456
303.15
283.15
303.15
300.863
283.15
303.15
303.15
303.15
300.715
303.15
297.638
303.15
285.815
283.15
286.722
303.15
303.15
298.475
283.15
303.15
287.833
283.244
303.15
303.15
285.063
283.841
300.833
301.719
301.169
293.124
301.725
283.841
303.15
297.67
283.15
283.15
303.15
303.15
303.15
301.19
303.15
303.15
303.15
303.129
283.169
283.15
283.553
303.15
302.005
283.15
303.142
296.065
283.15
294.545
303.15
303.15
283.15
299.862
283.922
303.15
283.15
299.888
303.15
297.619
303.15
295.268
303.15
283.15
303.15
283.15
299.398
283.15
283.225
283.15
286.188
303.15
303.15
283.15
283.15
303.15
303.15
303.15
303.15
284.871
284.722
283.15
303.15
283.232
283.15
283.15
303.154
289.836
283.533
283.15
301.483
284.858
300.447
288.146
303.15
303.15
303.15
303.15
283.15
283.15
283.15
303.15
283.15
283.15
303.15
283.15
297.251
283.15
303.15
283.15
303.15
303.15
283.299
283.15
303.15
301.934
303.149
303.15
303.15
303.15
288.706
283.15
303.15
303.149
283.15
303.15
303.15
303.15
295.217
283.15
283.18
303.15
303.15
303.15
303.15
303.15
303.149
303.147
284.093
303.15
283.15
303.15
303.149
303.15
303.148
303.149
283.15
283.15
283.15
303.15
303.15
283.15
303.149
283.15
287.69
283.15
301.798
283.15
303.154
303.15
284.601
283.15
284.444
297.344
303.15
284.685
303.173
303.15
297.352
283.15
303.15
303.15
303.15
303.15
283.15
303.15
303.15
299.124
283.15
303.15
303.15
303.15
303.15
292.298
290.268
303.17
283.165
303.15
301.798
302.305
303.15
283.15
283.15
303.15
303.15
303.15
283.15
283.15
283.819
303.15
303.15
303.198
303.151
283.15
288.822
303.15
283.15
303.15
288.049
303.15
283.15
302.106
283.15
283.15
283.15
303.15
299.652
303.15
303.15
303.15
283.15
284.497
293.569
295.176
289.51
303.12
303.016
283.15
283.15
301.001
283.691
283.15
303.149
303.15
303.15
283.15
294.514
303.15
283.15
302.976
303.15
303.15
283.791
303.15
303.15
288.377
289.514
303.15
283.15
303.15
283.15
303.15
303.15
303.15
303.15
283.944
303.15
303.15
303.15
302.925
303.15
303.15
283.15
283.15
283.15
283.15
302.938
283.15
283.15
300.946
303.15
284.762
284.922
303.15
301.105
303.15
283.15
303.15
283.15
283.15
303.15
303.15
303.15
302.655
303.15
303.15
303.15
283.15
303.15
283.15
286.357
303.15
303.15
291.582
303.15
283.15
283.15
302.409
303.15
303.147
283.15
303.189
286.634
283.15
283.15
299.175
283.15
283.15
303.045
303.161
293.299
303.167
303.151
303.152
283.15
283.15
302.638
283.45
285.805
300.823
283.157
283.15
291.019
301.55
301.447
283.15
300.192
290.675
300.123
302.193
302.735
284.673
295.445
299.18
286.241
293.264
300.079
303.15
297.939
297.532
302.784
283.654
292.321
301.124
287.315
303.15
301.028
303.15
300.701
301.477
283.629
284.961
303.15
283.15
302.271
301.672
283.146
303.173
288.531
302.67
301.809
300.802
303.15
303.233
301.101
295.023
300.408
288.899
302.905
301.62
302.18
302.261
284.203
302.494
301.573
283.177
303.15
302.891
303.15
303.15
302.084
301.99
294.229
303.15
284.653
292.268
292.309
300.864
303.15
283.999
285.174
284.382
303.15
298.744
303.15
296.351
295.341
300.727
303.142
303.15
303.15
301.928
301.242
302.779
303.15
292.588
302.738
289.919
283.15
298.327
293.962
303.15
300.49
283.15
283.203
283.15
302.564
303.095
303.15
302.978
298.354
283.148
300.48
302.21
295.302
283.533
295.815
297.029
283.457
303.133
284.721
296.299
283.317
296.81
300.481
300.222
300.329
301.99
289.75
301.556
303.15
302.711
302.641
302.644
296.482
302.879
283.15
302
293.41
303.15
283.431
286.824
301.176
302.592
290.499
284.809
287.681
302.616
296.347
303.15
303.15
294.978
283.15
292.648
283.429
303.15
290.542
290.297
283.906
303.15
297.26
298.473
284.215
301.216
294.149
290.156
300.517
303.106
303.15
303.15
283.522
302.603
283.347
285.772
303.15
303.016
303.035
303.15
285.404
300.784
297.814
283.245
299.539
302.363
300.488
286.873
283.15
303.105
301.805
283.731
283.136
303.15
303.071
303.15
303.15
284.168
302.521
296.353
283.034
283.153
303.15
283.15
302.946
303.042
302.493
301.39
303.15
283.15
283.15
301.803
301.86
283.213
295.855
303.15
303.15
301.599
285.472
283.257
301.662
301.764
301.712
284.401
303.15
283.15
298.441
297.729
303.15
302.697
302.07
284.674
284.955
302.101
303.052
303.15
298.109
284.424
283.15
303.15
300.564
301.193
302.003
289.584
302.062
285.637
300.115
300.259
290.321
297.5
303.15
303.15
300.913
284.449
302.081
283.151
300.48
301.694
283.618
288.285
302.413
283.15
283.15
283.028
303.15
303.15
299.913
298.918
302.278
283.147
283.15
283.925
283.151
283.15
283.151
303.073
300.911
299.146
295.847
283.366
303.096
300.111
303.15
283.15
302.549
289.209
300.763
292.68
283.5
303.059
283.148
283.15
302.833
301.187
302.608
283.155
291.25
284.859
303.15
284.252
301.022
283.15
283.308
284.924
284.129
283.15
283.15
301.619
283.15
289.344
302.521
302.699
301.767
283.479
298.228
289.967
283.15
303.348
292.062
283.15
283.15
283.15
303.15
301.19
302.406
299.148
301.452
299.902
288.832
283.155
290.969
290.142
303.058
291.052
299.963
292.045
283.15
286.282
301.066
301.53
283.15
283.969
299.616
283.15
303.15
283.187
301.264
303.15
284.014
302.251
303.018
303.15
283.15
292.771
303.153
301.678
283.15
283.15
283.15
302.187
297.538
303.143
302.185
303.167
303.15
288.356
303.167
290.423
300.205
300.165
296.566
283.156
301.686
283.15
290.57
301.394
289.428
290.469
298.953
300.671
301.581
287.16
291.125
285.005
283.172
302.208
286.121
283.149
283.144
300.19
283.08
300.279
286.976
296.037
299.406
289.173
299.248
283.121
299.123
283.15
289.984
288.973
298.64
283.328
283.15
300.553
283.15
302.795
283.15
303.15
286.476
286.477
283.15
298.961
298.543
287.026
303.15
303.15
301.718
289.773
302.992
283.721
301.561
287.065
303.147
284.186
288.178
303.15
301.41
283.15
283.15
287.549
287.01
283.145
285.234
301.48
286.225
301.169
303.15
285.092
301.732
291.174
303.15
303.15
301.603
302.035
303.15
293.01
294.261
283.676
296.369
286.775
289.992
303.15
302.767
296.984
285.001
283.15
287.71
291.903
299.627
283.163
283.743
282.948
301.938
303.115
283.151
303.133
303.15
300.552
293.039
298.787
293.804
283.15
291.922
295.95
285.583
283.21
291.474
283.15
300.254
303.164
292.513
284.092
303.144
291.837
298.587
288.214
300.338
291.313
287.302
283.15
303.142
285.339
289.863
293.452
283.15
283.15
283.15
303.141
283.15
283.137
286.417
303.15
283.15
303.167
283.172
291.094
288.898
303.542
302.909
289.836
303.15
296.95
303.177
301.991
287.243
283.15
292.896
303.145
303.093
286.176
283.15
283.15
283.473
286
303.053
303.143
287.504
289.463
283.479
283.162
289.833
293.193
303.15
283.15
303.095
303.15
302.322
285.004
302.33
303.092
284.05
283.766
284.028
302.849
302.172
297.373
293.967
303.069
291.251
291.012
303.15
303.097
302.576
285.422
283.376
303.15
285.929
283.383
302.928
301.66
302.165
283.15
300.311
301.836
303.15
302.144
285.4
303.15
297.867
303.15
283.15
300.661
302.678
286.319
302.481
283.15
285.152
303.008
283.15
302.299
285.367
294.851
284.333
303.15
303.015
302.87
286.495
283.15
287.108
284.242
289.761
285.716
302.24
303.15
283.15
283.15
293.109
283.15
301.033
302.15
290.343
283.15
294
283.15
303.15
283.15
300.043
298.528
283.151
285.262
301.712
303.07
303.156
291.805
294.155
301.183
283.207
301.787
283.145
303.15
303.142
298.981
283.15
300.764
294.729
303.15
300.93
287.296
301.94
284.886
288.182
283.15
302.21
287.714
298.385
303.073
283.15
303.15
291.621
302.149
283.077
283.147
286.719
298.3
303.149
284.471
301.007
300.979
301.234
303.153
299.859
287.627
284.912
301.564
299.863
283.722
283.104
303.16
303.149
303.15
297.307
283.163
283.15
303.15
303.149
289.879
298.886
300.257
287.762
302.796
303.15
286.412
301.538
303.15
300.937
283.792
301.437
303.15
284.527
301.366
295.483
302.76
303.15
303.15
285.159
295.012
296.323
287.353
303.15
303.15
283.15
287.19
302.392
296.111
303.15
285.53
303.15
303.15
300.433
288.687
283.15
295.495
295.822
299.045
283.15
303.15
292.636
287.202
303.15
297.903
300.467
300.373
303.15
303.15
303.15
300.179
298.277
302.794
299.846
283.15
292.848
287.642
290.548
300.539
303.15
303.15
300.72
303.095
286.529
296.049
303.15
303.147
283.15
286.413
298.871
285.561
303.15
303.15
283.338
303.121
303.15
303.15
283.15
290.486
303.15
303.15
284.561
299.252
283.15
303.15
284.608
301.297
300.129
286.96
294.902
303.15
283.49
303.15
303.15
283.311
300.498
290.362
300.361
303.15
303.129
302.165
292.578
299.758
301.332
284.439
283.45
300.818
298.338
303.15
302.742
284.119
299.684
301.349
287.649
303.15
297.377
301.378
301.466
301.506
292.85
303.15
283.15
299.15
283.15
283.15
287.721
283.15
283.996
283.15
283.15
283.15
283.15
302.747
288.115
302.694
283.15
295.636
290.898
284.716
283.15
303.15
302.669
301.719
303.16
302.627
283.15
294.743
300.224
290.128
283.15
283.15
299.779
285.915
283.15
283.15
303.149
290.524
283.15
287.11
303.149
303.152
284.302
283.15
288.152
292.304
300.768
294.555
302.953
285.593
302.488
295.196
286.241
283.15
283.531
291.57
303.07
289.07
302.647
283.15
292.326
287.719
300.998
301.238
284.867
303.104
284.881
297.006
302.98
303.146
285.112
303.145
303.002
293.25
302.667
283.15
303.15
303.15
294.705
290.985
283.155
301.068
284.669
284.14
284.598
303.145
288.315
300.419
283.15
283.15
302.494
303.15
294.504
302.895
303.182
299.77
303.223
302.877
283.15
301.255
302.873
283.15
303.15
301.285
303.15
284.29
298.71
283.163
291.493
283.15
287.547
303.009
299.702
283.15
303.021
290.862
301.166
303.125
303.077
283.15
283.15
301.917
301.978
283.79
302.803
302.403
302.356
303.141
283.15
293.653
283.15
302.779
287.827
302.984
303.15
283.15
302.813
285.088
291.434
302.023
283.15
302.572
301.97
301.536
302.472
303.043
303.211
303.007
303.15
283.15
301.49
297.766
303.086
303.15
289.878
284.847
303.15
283.15
285.278
303.184
303.165
302.914
301.104
284.247
303.096
290.622
294.168
303.148
288.988
303.164
283.15
289.788
283.15
299.915
298.065
284.752
288.126
299.568
296.611
295.231
299.119
293.702
303.154
293.773
296.316
283.161
299.331
293.799
303.15
298.849
299.085
303.15
291.116
303.172
301.65
303.15
286.89
285.998
302.793
289.621
283.15
283.15
300.315
301.11
283.709
283.15
303.15
300.183
302.303
300.574
299.816
302.778
292.52
289.59
286.596
292.434
284.294
290.351
283.302
295.645
290.378
293.87
287.038
284.264
303.163
283.27
303.148
285.574
300.68
283.151
300.359
298.343
288.696
302.08
285.369
299.02
283.15
302.948
283.154
283.117
287.601
299.609
303.15
300.313
303.016
299.88
302.753
303.15
301.224
284.938
294.854
302.026
303.149
283.702
283.15
290.237
285.217
285.73
303.127
303.148
283.15
283.15
283.176
303.15
293.402
303.15
303.148
294.138
303.43
303.15
300.386
303.15
303.15
293.606
290.551
303.15
289.782
302.035
289.508
303.15
303.15
285.898
283.33
290.268
303.226
303.15
303.145
285.449
283.242
283.15
288.927
287.548
303.15
284.29
303.15
303.15
303.132
287.299
303.15
303.147
283.275
303.152
302.652
287.875
283.152
283.592
297.273
290.681
303.15
285.906
284.409
301.293
287.067
302.19
290.532
293.79
303.15
303.15
283.999
303.147
302.941
295.816
302.937
302.732
287.13
283.15
285.286
283.217
297.063
302.574
285.35
303.15
283.782
286.683
303.124
283.175
303.15
286.346
283.15
300.085
303.15
299.676
299.833
283.251
283.356
302.309
290.771
301.307
303.15
301.365
301.718
303.15
303.15
298.274
293.343
283.15
288.717
303.15
295.163
283.353
303.15
296.829
298.653
288.94
303.15
302.749
294.134
295.3
284.451
303.161
298.615
296.042
283.967
303.122
302.794
287.327
298.363
289.765
290.739
289.689
283.15
302.937
303.152
303.15
303.176
293.002
296.229
302.972
301.258
303.15
284.434
303.15
303.039
302.851
303.15
293.475
296.171
303.15
285.353
303.094
303.15
303.088
303.158
286.036
293.26
291.05
288.358
293.344
303.15
301.17
291.34
295.285
293.387
303.141
303.15
300.516
303.189
284.228
303.19
303.15
303.15
303.143
303.15
284.917
303.15
284.206
303.146
303.15
290.158
303.144
292.409
295.447
303.133
295.25
285.962
283.442
303.124
302.93
284.656
283.15
297.043
303.15
285.478
302.907
302.015
303.015
298.366
287.014
303.15
298.634
289.85
299.292
283.15
283.606
303.15
303.145
303.19
294.003
303.15
292.367
289.285
303.195
303.15
284.765
298.69
293.151
299.524
302.46
301.564
300.332
303.15
284.699
296.893
302.351
285.553
298.293
292.216
284.448
291.57
303.15
286.596
291.76
290.08
299.379
303.15
286.422
284.074
303.15
302.41
288.099
302.083
283.15
303.15
299.775
301.665
288.94
301.959
301.891
301.782
303.15
289.256
285.109
301.937
302.216
297.072
303.15
283.2
303.15
301.959
303.15
302.789
303.15
291.61
303.15
296.428
283.15
289.376
303.15
283.15
292.138
301.406
300.361
289.15
300.441
303.15
302.48
303.15
302.354
285.182
303.15
300.348
290.335
303.15
300.756
303.15
303.15
293.125
283.15
285.524
293.154
300.875
303.15
291.104
293.777
288.133
289.608
288.069
299.168
300.223
300.746
287.328
287.065
301.215
283.15
303.15