/*--------------------------------*- C++ -*----------------------------------*\
  =========                 |
  \\      /  F ield         | OpenFOAM: The Open Source CFD Toolbox
   \\    /   O peration     | Website:  https://openfoam.org
    \\  /    A nd           | Version:  10
     \\/     M anipulation  |
\*---------------------------------------------------------------------------*/
FoamFile
{
    format      ascii;
    class       volScalarField;
    location    "116";
    object      T;
}
// * * * * * * * * * * * * * * * * * * * * * * * * * * * * * * * * * * * * * //

dimensions      [0 0 0 1 0 0 0];

internalField   nonuniform List<scalar> 
59698
(
286.612
292.868
293.307
293.544
299.959
283.15
292.533
293.496
303.15
303.15
303.15
293.179
283.15
293.767
300.139
303.15
294.066
293.449
293.175
293.813
303.281
302.131
303.149
303.15
295.689
293.448
293.103
298.352
295.708
295.338
300.29
303.15
303.15
298.818
302.372
293.266
283.379
283.462
293.444
297.535
296.217
283.15
296.561
293.849
283.15
296.584
293.304
295.261
294.645
293.577
293.06
293.341
292.349
294.539
294.394
293.196
294.279
302.177
294.242
282.977
291.241
294.297
299.615
293.203
286.796
294.463
303.15
293.177
293.175
303.15
283.15
293.776
283.135
298.518
283.15
297.772
294.539
287.694
291.646
294.154
299.955
292.578
303.15
293.442
303.698
294.507
294.184
293.556
298.875
293.882
303.15
294.738
298.977
293.542
293.771
293.514
299.055
293.521
298.902
283.15
299.108
283.128
285.915
284.496
293.369
283.15
293.47
293.132
303.15
283.15
293.401
293.655
298.861
283.15
293.421
293.236
293.409
293.421
293.441
303.15
293.253
292.837
293.439
293.294
293.376
293.246
295.48
303.15
293.382
292.889
287.509
292.984
303.15
292.771
290.229
291.659
292.896
303.15
293.124
293.465
293.464
293.767
290.851
292.121
292.907
293.581
293.38
293.386
293.451
301.184
283.138
303.15
288.086
293.27
294.056
293.37
293.309
293.475
296.965
283.15
289.68
293.438
290.76
299.554
297.817
296.699
292.906
280.912
299.359
292.196
300.37
283.151
300.938
301.004
285.544
292.809
303.15
283.237
303.15
298.936
302.767
300.417
298.649
293.24
298.706
300.857
300.767
293.859
292.994
294.72
294.357
293.667
296.589
297.45
299.393
293.591
293.915
296.607
303.155
299.386
283.15
284.149
292.454
292.8
299.302
290.946
297.344
295.414
293.593
298.046
293.134
293.708
299.128
303.15
294.872
293.456
293.28
294.063
297.846
296.015
282.059
296.323
292.639
299.286
295.27
299.339
295.828
291.352
295.659
284.991
283.15
296.159
295.171
295.832
293.429
294.818
295.99
293.739
293.566
295.003
293.237
293.987
289.931
303.15
294.637
293.582
282.93
285.583
293.628
293.302
293.828
294.945
295.147
303.15
293.592
294.753
294.119
295.307
292.852
293.302
303.12
283.15
294.455
294.341
294.822
295.329
292.667
303.15
293.473
293.291
293.326
286.637
303.101
293.308
287.32
293.709
292.905
293.633
293.974
303.15
303.15
292.904
293.336
289.073
295.116
290.709
292.95
303.15
286.009
294.609
301.402
291.293
293.397
293.415
294.887
293.605
292.716
293.622
295.101
292.673
291.441
283.15
283.15
292.612
293.236
293.201
287.833
293.657
294.631
293.058
293.118
293.316
293.372
283.15
293.713
292.678
283.15
293.725
283.15
293.589
293.874
293.357
294
303.15
298.295
286.255
294.106
293.714
292.435
283.15
300.174
290.667
298.874
281.573
303.15
293.807
293.695
292.557
298.463
293.838
295.133
295.545
292.634
294.983
298.95
293.306
295.605
301.426
293.729
289.168
292.824
293.043
301.354
303.15
284.19
300.756
302.094
293.327
293.637
303.15
293.302
293.849
303.15
295.008
283.15
283.15
293.553
290.469
293.544
282.756
292.664
283.15
292.738
283.15
296.425
303.15
293.541
292.914
283.15
303.15
283.15
292.713
293.305
293.512
293.507
283.148
293.504
283.15
283.15
293.41
293.818
303.15
294.602
290.724
303.134
301.992
301.767
293.519
292.671
292.793
288.502
295.723
292.732
293.361
293.549
293.483
295.97
293.291
295.674
302.254
297.909
303.15
295.278
303.15
293.441
289.801
292.982
283.574
302.296
302.83
294.383
293.421
290.793
281.983
293.368
293.327
303.15
294.393
293.273
283.15
295.498
302.786
285.304
291.841
287.579
303.15
303.15
298.648
292.865
291.937
283.15
292.191
303.15
293.651
293.149
302.913
294.869
283.15
293.464
299.203
292.736
293.296
294.105
286.32
294.009
293.625
290.673
303.15
284.313
293.325
290.084
293.389
283.967
293.913
303.15
293.569
293.407
291.893
294.114
294.988
295.102
283.15
283.15
283.15
294.051
293.141
302.759
292.148
293.701
294.017
293.381
293.599
293.38
283.15
300.93
293.368
293.505
293.384
291.957
292.875
299.066
290.531
291.388
293.475
292.082
293.488
293.436
293.507
289.594
283.15
283.15
295.183
299.054
294.676
283.15
303.15
293.342
303.15
293.359
290.285
294.702
290.699
283.15
283.15
291.627
293.353
283.15
293.389
283.15
283.15
289.562
293.958
293.396
283.15
283.15
302.995
294.935
292.608
289.851
288.756
293.263
301.451
303.15
293.427
293.559
283.15
283.15
286.367
293.392
303.15
290.013
292.983
293.116
281.279
289.378
291.842
282.239
283.132
290.838
283.147
293.352
303.15
293.475
303.15
292.888
293.311
283.15
295.584
291.514
291.831
283.15
303.15
293.499
283.123
293.321
303.15
286.379
293.342
291.208
303.15
292.071
293.455
283.15
291.904
290.959
293.527
293.093
292.278
295.523
303.15
283.15
293.565
285.267
293.207
292.365
283.15
292.431
293.185
289.712
291.651
291.958
296.413
293.079
293.123
283.15
293.37
303.15
282.783
283.15
283.15
290.926
290.974
283.15
293.46
291.042
291.617
292.896
283.15
291.078
293.319
293.297
292.536
293.302
292.112
291.113
291.144
293.267
297.848
285.613
293.263
283.15
291.152
291.925
302.956
295.264
293.733
290.918
292.232
292.022
292.081
295.601
283.15
293.223
291.364
293.063
292.146
292.078
293.252
293.201
286.949
293.495
292.773
283.15
303.15
292.038
294.045
292.802
293.72
293.659
283.15
283.15
293.17
288.572
291.779
291.999
293.252
293.018
303.147
293.596
292.388
293.668
293.391
290.996
283.791
301.834
291.642
293.689
293.773
291.802
288.922
283.15
293.522
292.812
293.534
292.862
291.679
283.15
295.321
293.207
292.881
292.428
293.516
283.15
283.15
291.897
293.01
291.9
292.954
291.992
295.758
290.797
297.18
293.964
291.728
290.813
293.619
293.625
292.589
283.15
292.869
283.15
283.15
292.548
291.772
293.24
303.15
296.515
293.124
292.091
283.15
293.672
283.15
293.753
283.15
293.441
297.639
289.34
293.163
303.15
283.15
297.868
297.945
293.192
292.061
295.607
297.207
295.548
283.15
296.211
293.304
282.865
283.15
290.527
300.327
283.15
291.11
292.815
303.15
297.635
287.921
293.092
293.822
283.269
297.043
294.591
294.53
283.596
283.447
292.466
286.01
293.061
296.885
293.736
298.121
283.15
292.92
290.281
295.026
303.15
293.418
296.886
283.15
298.22
295.934
292.317
293.858
296.739
293.147
283.15
294.926
294.555
283.15
283.15
292.343
283.15
289.441
293.559
292.409
294.527
294.545
297.398
283.15
293.676
290.456
294.871
295.289
295.318
283.15
284.363
298.845
293.573
288.639
297.667
301.045
293.496
302.765
283.15
283.15
283.15
292.667
292.765
283.15
292.553
293.575
298.052
283.163
292.522
291.711
283.15
282.354
283.15
283.15
292.575
283.15
303.102
298.49
303.15
292.55
284.566
288.639
292.545
282.184
293.472
283.227
283.15
283.15
291.272
294.728
296.692
283.15
295.802
292.657
292.67
283.15
292.655
292.684
283.161
283.15
283.132
283.173
303.15
283.15
283.15
283.15
283.15
291.187
292.952
291.047
283.15
294.64
293.275
283.15
285.381
283.15
292.753
283.15
299.438
295.182
291.976
292.587
292.759
295.88
303.15
295.877
292.893
283.15
292.598
283.149
293.312
283.15
292.047
283.15
284.104
283.15
290.384
283.15
293.503
291.774
294.915
292.688
291.904
292.716
292.102
283.15
283.15
292.71
293.546
293.046
293.215
283.15
294.325
296.328
296.015
283.15
294.118
295.069
293.419
296.749
303.15
283.15
295.895
292.368
283.15
292.945
293.416
283.15
295.89
292.792
293.137
293.58
283.15
293.26
293.338
283.15
303.15
293.039
292.954
292.888
295.892
297.651
294.002
296.67
290.214
294.987
295.62
293.564
291.43
290.736
286.59
292.12
283.15
289.766
283.15
296.565
295.751
291.92
290.299
283.15
283.15
297.546
291.278
290.051
296.122
296.761
293.397
295.393
285.341
294.023
293.187
293.361
283.15
293.38
292.939
293.24
293.064
293.292
293.395
303.15
293.341
293.498
294.491
303.15
293.562
296.664
294.178
293.517
293.858
294.464
295.681
292.888
303.15
303.15
283.15
295.552
283.15
293.573
291.472
302.707
298.553
293.047
295.018
302.163
297.861
294.927
295.848
293.715
293.132
295.688
293.881
290.661
287.771
294.115
283.15
293.135
303.15
283.169
294.721
300.404
294.704
303.15
303.15
292.73
293.395
294.906
292.727
293.006
292.634
283.15
293.741
293.22
298.369
283.15
294.558
295.252
302.801
293.052
293.697
302.798
293.208
293.537
302.806
292.738
294.566
295.186
296.45
295.372
296.002
295.203
293.479
292.909
303.15
295.49
296.54
293.255
283.15
293.21
297.708
293.096
293.631
293.126
295.359
292.794
287.743
294.507
290.905
292.828
303.15
293.573
288.108
283.15
303.15
294.047
294.204
295.988
294.326
289.345
303.15
303.15
293.106
283.15
295.024
294.444
294.315
294.431
293.951
303.15
303.15
284.109
294.32
295.143
303.15
294.082
296.141
303.15
282.45
292.916
283.565
291.986
294.359
292.923
293.209
294.108
303.15
293.779
291.73
293.102
292.933
293.001
293.566
294.391
301.061
303.15
297.209
302.912
293.024
301.669
287.119
291.093
295.274
297.73
297.069
289.465
289.158
293.328
283.15
288.131
292.877
303.15
293.337
300.986
293.128
294.509
294.324
294.939
283.15
302.395
289.605
294.814
294.647
292.519
283.15
303.15
293.514
286.77
283.15
292.943
292.983
294.665
293.475
304.912
293.336
295.045
292.736
295.299
293.402
287.086
294.944
303.15
292.728
292.91
292.917
290.192
293.282
300.806
301.126
293.371
295.894
299.129
302.603
293.684
293.372
293.055
302.577
287.714
300.26
291.915
292.138
295.94
295.794
295.391
293.306
295.259
303.15
286.063
298.848
295.794
293.753
292.991
297.237
293.72
298.99
293.77
293.132
293.661
293.573
303.15
293.358
303.15
292.583
292.864
294.043
292.086
293.175
285.414
292.806
303.15
294.481
291.966
288.946
292.439
293.375
303.15
303.15
293.554
293.425
283.15
303.15
293.132
293.509
294.144
283.15
303.15
292.817
293.318
293.284
292.955
285.244
292.619
283.15
284.97
303.15
293.431
283.15
303.143
303.15
297.274
290.533
293.221
297.351
296.7
292.325
303.15
293.341
293.347
296.906
282.33
296.66
293.036
303.15
293.388
303.15
296.784
284.585
283.15
291.182
297.606
293.496
302.764
297.495
295.761
297.461
291.408
297.627
283.15
283.15
297.493
297.425
294.317
303.15
292.809
291.914
293.735
293.667
294.08
294.362
294.16
293.333
291.255
293.251
300.613
285.611
297.021
303.023
293.204
303.15
294.742
283.15
299.952
303.15
303.15
293.501
283.15
300.655
293.197
283.15
303.15
292.054
292.899
303.15
293.493
291.79
293.095
293.673
302.96
303.15
297.432
293.755
283.15
289.036
292.017
293.171
283.097
303.15
293.122
303.15
293.205
303.15
293.152
297.881
297.779
296.958
297.554
294.286
293.144
286.81
293.749
283.15
292.02
298.046
294.839
296.66
283.15
301.158
293.203
303.15
293.317
297.004
296.292
303.15
303.15
293.283
288.942
287.335
294.319
289.221
289.617
303.15
303.15
283.15
292.114
287.797
303.15
299.763
303.15
287.571
303.15
303.15
303.15
291.7
290.741
299.279
303.15
292.595
292.928
303.15
291.919
287.299
282.682
293.722
283.734
295.843
291.703
292.133
283.313
293.657
292.229
303.15
303.15
285.185
288.656
292.712
283.576
283.285
292.915
289.887
293.126
283.15
295.284
291.706
294.636
287.698
285.217
293.951
303.15
292.199
284.063
290.957
294.016
300.927
291.98
292.388
292.555
293.508
298.085
292.206
292.922
293.495
283.9
286.79
283.773
292.978
284.864
292.867
284.222
303.15
293.997
290.562
288.454
292.598
303.112
303.15
293.394
284.409
294.786
300.627
284.978
285.126
298.417
294.55
284.945
282.312
294.006
303.15
287.371
283.15
283.131
285.153
303.15
297.625
283.151
292.996
303.15
284.927
300.028
303.15
283.15
289.251
295.107
296.522
297.859
283.514
303.15
285.248
291.854
293.362
283.15
293.938
283.15
303.125
293.454
303.15
294.342
293.464
292.613
293.425
293.425
293.574
300.132
298.995
285.915
283.138
299.322
293.601
299.416
303.15
283.15
293.377
296.299
285.769
292.942
292.788
288.099
293.752
293.562
293.153
293.548
293.54
296.754
303.15
293.692
293.547
303.15
288.565
293.574
283.15
288.195
303.15
296.128
293.573
303.15
296.851
302.679
290.228
292.505
286.897
288.131
303.15
283.15
303.15
283.15
283.15
294.163
293.577
283.14
291.911
283.207
303.15
288.31
288.774
287.968
294.282
288.267
294.901
289.064
286.218
303.15
287.42
291.758
292.992
303.15
300.564
292.907
289.593
303.228
303.15
299.146
293.499
290.462
303.15
293.431
290.514
293.502
297.733
297.153
290.17
295.036
303.15
303.15
290.274
290.297
283.922
295.155
283.154
283.568
303.15
283.788
290.228
303.15
283.15
283.002
283.15
290.353
299.831
303.15
290.328
303.15
303.15
283.664
293.804
283.15
283.149
303.15
293.272
292.423
303.15
303.15
291.363
283.127
290.959
303.15
283.14
293.464
290.993
290.993
300.725
283.15
290.996
303.15
294.719
294.223
303.15
303.15
303.15
292.523
283.15
291.128
291.89
303.15
283.14
291.298
303.15
303.15
303.15
292.416
283.15
293.58
283.15
293.788
291.63
283.15
296.143
303.15
283.15
291.549
291.431
291.413
294.07
283.15
293.468
291.776
291.822
293.856
283.14
283.15
303.15
283.15
283.15
283.15
292.968
303.15
293.617
294.237
303.15
285.302
293.662
293.205
293.484
292.945
293.56
297.215
292.993
296.724
295.911
292.533
293.473
292.956
292.19
292.28
293.479
292.184
298.95
293.639
287.282
293.244
304.962
284.016
292.368
300.342
283.134
293.554
291.741
303.15
294.365
296.492
295.232
292.63
301.435
296.214
292.199
298.953
293.108
302.824
297.659
300.388
292.318
285.248
294.209
289.312
294.344
295.91
297.453
292.778
296.65
283.15
293.223
294.764
292.783
283.143
299.569
293.017
288.106
293.087
283.15
297.892
293.731
283.15
293.604
292.501
292.975
295.067
283.15
293.103
298.406
293.736
300.334
292.877
294.443
292.871
293.606
298.448
291.702
292.485
284.617
293.488
292.677
293.364
283.15
303.15
292.503
297.136
298.068
301.563
283.458
292.502
292.852
293.564
292.407
292.4
303.151
291.674
293.653
292.541
283.139
292.59
292.568
292.803
301.994
293.901
292.684
303.187
293.705
293.171
283.15
299.007
292.839
302.108
302.827
294.676
292.769
293.238
292.055
293.427
292.682
293.535
283.15
293.224
292.676
295.151
302.943
293.044
288.185
293
298.911
293.007
283.158
293.132
292.341
293.464
292.697
295.255
293.325
302.927
293.272
292.682
291.267
298.241
302.944
293.281
292.72
292.741
298.515
294.069
294.316
288.189
289.743
293.351
294.462
289.07
294.119
292.919
289.329
302.815
292.836
293.355
289.431
293.385
293.299
294.025
299.712
292.777
294.614
292.217
293.467
292.812
293.137
292.792
295.051
287.183
298.574
299.532
289.326
293.072
293.176
294.783
295.98
293.357
292.772
293.335
298.681
285.525
293.077
292.927
292.821
292.811
292.82
296.222
287.99
296.572
293.337
292.863
293.167
299.578
303.15
293.413
292.859
292.991
296.964
293.404
299.695
292.872
293.41
292.856
292.86
299.655
293.624
292.894
301.301
292.077
283.15
293.153
294.341
292.002
289.33
293.417
303.15
294.296
301.436
293.456
293.19
292.889
283.15
293.295
301.37
287.26
290.353
292.986
283.15
283.229
295.965
293.133
283.15
298.923
291.964
290.402
290.569
283.15
303.15
298.522
293.431
294.397
295.702
295.013
301.376
293.369
301.187
295.293
293.004
292.094
303.15
293.612
300.041
295.445
295.688
291.922
302.833
286.646
295.64
293.878
292.393
296.215
295.419
283.15
291.14
292.608
295.754
294.105
293.069
293.356
292.659
296.433
296.075
295.212
296.197
294.294
295.786
294.787
292.939
291.977
295.613
295.814
296.776
300.26
297.341
297.454
297.949
301.25
293.07
303.146
283.149
290.49
283.15
292.64
301.778
303.552
295.263
303.01
303.129
291.143
283.15
292.09
292.666
290.85
293.137
300.6
283.15
291.1
303.15
293.067
293.473
293.615
301.068
295.237
293.166
302.013
294.057
289.22
302.269
286.672
295.407
291.732
292.615
294.647
300.563
302.96
293.23
289.818
289.043
294.069
295.289
294.649
295.879
292.848
293.226
292.548
294.207
294.247
295.783
291.135
292.941
292.972
293.775
292.975
293.432
290.954
294.092
292.895
292.177
293.345
293.393
294.7
293.338
293.348
293.552
286.565
302.171
291.966
299.93
296.663
294.71
292.824
295.978
303.15
293.175
293.139
292.953
295.298
296.777
295.482
294.331
298.702
288.437
293.319
283.142
292.923
291.344
291.61
293.349
293.349
292.66
293.354
296.164
297.88
300.886
295.599
294.842
293.511
292.831
293.845
295.389
293.748
295.506
294.703
289.675
293.416
295.693
300.952
296.726
293.434
303.15
292.592
295.698
293.367
294.711
283.15
293.638
292.378
293.478
290.619
292.993
293.64
293.602
292.918
293.277
295.199
293.161
295.385
290.852
292.434
293.616
283.15
293.637
292.242
293.74
293.569
295.1
295.181
293.165
293.158
295.479
293.015
292.991
296.657
296.187
293.434
297.94
292.878
293.912
293.364
293.695
293.668
292.315
296.018
293.075
296.424
295.428
294.965
299.987
292.903
296.153
295.11
296.781
295.665
293.66
292.867
293.028
292.971
292.816
293.411
303.15
294.007
289.374
283.15
283.15
292.524
292.941
293.223
299.292
292.977
292.9
293.549
293.788
292.916
292.617
292.832
300.856
286.359
287.364
293.276
293.892
293.73
292.939
294.223
292.822
283.15
292.97
291.719
295.915
293.281
293.196
292.711
284.191
288.496
292.318
294.621
293.443
293.311
303.15
293.169
293.607
293.774
293.252
292.014
292.972
293.163
293.493
303.15
287.15
291.365
293.441
293.291
293.653
292.018
293.512
291.374
290.509
283.15
283.15
294.589
293.427
291.661
294.157
293.507
291.585
293.115
293.613
293.097
303.15
283.41
292.813
293.59
290.627
292.721
295.837
293.207
292.074
285.214
292.974
289.291
295.573
291.023
293.908
302.029
294.375
293.606
283.15
294.265
293.209
296.891
293.817
300.505
291.97
301.265
292.648
297.615
292.808
294.611
293.398
293.75
293.437
293.917
295.036
292.926
293.411
293.356
292.99
293.457
292.175
292.986
293.457
293.455
293.459
292.771
292.069
299.356
293.972
293.88
283.15
283.15
291.123
292.776
294.357
294.573
294.047
291.641
292.199
293.622
292.327
294.097
289.771
292.798
292.178
292.133
292.796
292.992
293.604
290.942
293.092
302.662
290.511
292.685
296.798
293.348
285.564
293.405
298.652
303.388
296.196
293.646
293.176
293.119
298.422
293.782
290.069
292.881
293.941
286.383
285.95
292.732
292.756
293.284
292.941
294.029
293.386
292.774
293.742
293.556
293.062
294.73
294.951
293.373
292.26
292.253
293.063
293.692
293.71
293.382
292.728
292.942
293.271
293.265
293.393
292.94
303.15
303.15
292.776
292.004
295.682
293.267
292.88
293.104
296.996
293.32
291.967
293.539
293.509
291.253
290.81
292.8
290.874
292.733
293.68
292.616
295.393
295.465
293.31
294.525
294.509
293.761
292.728
303.243
293.155
303.15
292.834
291.766
292.738
296.088
292.965
293.376
293.151
292.605
291.146
294.38
294.512
283.15
303.15
282.891
292.773
301.982
284.046
303.15
293.365
300.868
294.264
283.15
291.751
293.054
292.88
293.046
303.15
303.15
293.355
283.15
296.673
293.319
295.553
294.344
294.942
293.889
292.697
296.774
293.281
283.15
300.787
303.15
303.15
297.79
293.857
294.85
294.737
293.014
283.15
300.976
292.102
293.208
291.233
291.805
303.15
293.165
292.95
293.21
291.014
292.793
300.84
292.804
292.666
292.655
294.445
292.201
292.682
283.15
292.167
293.717
292.685
296.684
301.95
302.709
293.568
295.793
293.65
293.213
291.447
292.105
300.575
293.041
283.15
291.818
290.469
290.344
290.516
291.8
290.476
283.15
303.15
297.11
293.293
292.501
295.104
291.545
297.956
283.146
293.498
283.668
293.457
293.466
292.986
293.294
293.357
293.349
292.174
294.954
303.15
295.678
284.938
292.88
297.801
298.036
293.774
292.081
293.352
298.076
293.374
296.176
293.418
292.438
298.682
292.774
294.56
298.112
294.132
296.557
293.858
293.349
293.352
297.006
293.302
293.053
291.94
292.562
293.076
293.299
292.748
291.937
291.514
291.253
293.716
295.877
292.07
283.15
292.534
293.419
291.863
299.663
291.872
294.105
286.319
291.134
290.749
292.06
293.868
292.801
293.494
292.376
293.395
292.749
293.201
283.15
290.85
293.397
296.829
292.616
296.33
294.095
295.974
297.512
295.569
287.43
297.25
294.026
295.387
293.2
294.177
297.509
292.758
292.61
293.417
292.772
290.558
294.817
293.356
293.842
293.57
283.15
290.101
292.473
293.605
293.402
293.171
293.274
292.312
293.098
293.71
293.275
295.598
298.737
292.843
302.766
301.077
303.15
293.802
294.235
293.401
295.413
293.445
295.137
293.734
293.673
292.107
302.51
283.15
298.123
290.027
294.383
292.77
300.298
292.96
288.336
300.868
287.188
290.685
290.299
292.992
283.117
291.995
289.932
282.405
293.562
293.485
293.611
296.771
292.316
284.911
291.409
302.411
292.656
292.301
297.406
303.181
293.035
291.647
294.854
290.936
292.731
293.496
293.226
284.321
293.241
294.576
293.105
293.173
291.427
293.446
293.84
293.038
292.965
293.587
300.294
293.149
293.539
293.596
294.646
300.454
290.23
293.589
292.965
298.924
293.377
292.401
293.478
283.222
283.15
297.204
293.224
285.069
297.044
283.144
291.984
292.091
298.597
293.577
292.453
290.663
293.317
283.15
283.149
292.388
293.209
282.638
291.894
292.099
292.442
303.151
293.612
293.217
293.632
286.011
293.095
292.387
292.097
297.334
285.992
283.744
293.362
284.421
283.289
293.773
293.674
293.794
292.314
284.345
293.855
293.376
289.458
297.399
287.165
291.3
291.969
293.57
295.707
292.823
296.337
293.14
293.34
293.353
296.749
292.712
303.15
287.447
294.98
285.602
293.846
285.809
292.045
296.63
287.975
293.044
303.15
286.262
292.077
288.237
285.272
285.173
290.776
285.47
288.56
291.918
294.506
295.585
292.599
289.254
294.611
294.002
293.048
294.639
293.008
293.071
293.932
288.525
299.551
288.967
288.38
287.414
292.959
286.464
302.404
291.906
295.182
292.974
293.451
294.82
291.005
291.245
293.359
293.455
295.854
283.15
292.505
291.785
293.251
283.15
283.15
302.589
296.43
286.914
293.383
293.621
294.453
293.924
303.104
283.15
292.357
293.455
294.41
292.484
292.749
293.442
292.133
284.083
299.07
291.817
293.564
291.557
293.921
290.921
293.934
300.069
292.615
299.603
291.844
299.155
299.19
302.347
302.085
299.489
299.694
299.539
289.056
293.378
292.463
291.828
292.882
288.847
293.558
294.173
290.626
292.546
285.599
292.292
292.827
291.58
289.988
293.517
291.23
301.035
293.61
299.971
301.475
289.118
293.457
293.754
291.98
290.274
299.041
290.779
292.413
293.637
292.125
283.15
292.029
292.098
293.181
293.887
292.967
292.121
290.844
292.78
290.854
292.179
293.901
293.115
292.828
292.125
297.391
293.441
291.748
293.321
292.636
292.187
295.912
283.15
292.868
293.087
292.132
293.625
290.964
293.085
292.852
293.01
301.896
302.257
294.635
293.485
301.132
304.618
292.446
302.217
302.16
293.47
292.458
292.988
293.157
302.352
294.173
292.907
293.122
302.35
293.524
293.691
292.607
292.479
292.781
294.118
293.206
303.081
293.485
296.171
292.789
292.506
292.552
292.545
293.109
292.498
290.508
292.512
293.144
293.048
293.035
294.124
293.049
299.255
292.821
292.671
293.219
287.048
301.439
293.436
301.094
291.192
300.511
293.207
301.534
283.15
298.683
293.282
290.917
290.434
296.682
298.682
297.846
294.205
292.806
293.563
300.216
292.813
291.799
298.93
292.835
283.151
292.944
284.221
299.025
287.905
299.041
291.659
293.107
293.783
295.772
293.197
293.252
292.674
296.741
289.166
295.185
292.977
297.321
292.859
292.881
298.132
297.056
291.265
291.817
297.13
290.306
287.447
297.545
298.822
303.15
292.207
285.565
293.553
304.275
291.265
287.611
296.075
283.15
296.478
283.15
291.651
294.756
297.507
293.028
292.298
293.741
292.174
292.241
293.893
294.097
301.823
283.15
296.487
286.152
297.298
292.654
294.45
292.661
301.926
294.083
295.024
294.91
288.688
295.603
300.128
292.676
292.648
293.462
293.612
299.36
296.607
292.564
292.555
290.752
292.793
294.54
294.234
303.144
295.582
295.689
290.65
299.163
290.29
293.487
303.15
293.36
283.15
293.308
293.316
286.952
294.904
292.375
293.18
292.326
291.095
283.15
293.514
287.958
292.8
294.357
291.289
292.798
289.751
293.407
298.282
295.801
300.58
291.772
293.401
293.024
294.064
284.604
296.423
297.128
292.195
296.643
293.735
296.626
297.12
300.246
295.154
294.376
290.564
292.72
292.736
303.108
303.15
292.878
295.388
290.323
293.448
292.979
303.15
303.15
293.952
294.789
293.441
295.1
295.228
287.263
295.086
294.703
295.174
295.23
295.84
289.752
291.714
292.532
298.639
293.486
293.981
293.039
292.967
302.502
290.591
293.624
292.56
294.041
292.964
283.15
292.828
292.348
292.964
293.997
291.647
293.244
302.71
293.252
293.246
298.269
295.645
303.15
288.104
297.619
300.9
293.643
292.391
295.841
295.998
293.491
294.073
293.256
294.748
292.659
292.947
291.695
296.363
292.355
293.722
297.254
293.4
297.037
293.492
292.414
293.087
293.107
293.451
294.053
295.574
295.031
293.488
300.809
295.227
292.183
292.246
293.245
293.372
293.267
293.101
292.347
289.492
293.282
291.995
303.15
293.492
293.55
294.256
294.707
292.805
293.259
302.43
295.149
297.405
289.867
289.765
293.275
293.465
293.789
293.7
294.15
290.414
293.45
293.286
293.336
292.912
293.002
293.459
293.349
292.959
294.284
295.599
285.179
291.729
291.993
294.499
294.385
293.147
295.973
295.661
295.902
295.666
295.002
295.661
293.427
295.386
295.332
290.231
292.113
291.503
295.211
293.123
294.78
293.028
302.968
294.653
295.681
296.854
285.482
295.171
290.262
285.429
293.312
290.287
293.756
292.035
282.85
293.296
294.996
292.765
292.898
300.07
297.296
283.146
297.865
292.75
300.965
290.296
293.525
293.244
293.567
301.325
296.122
293.603
291.784
295.245
293.154
283.15
294.645
292.585
293.59
293.072
295.587
292.571
293.195
292.312
293.255
293.665
291.944
294.986
292.783
290.912
293.239
293.395
291.117
293.483
290.435
289.496
292.983
296.964
293.22
297.622
286.673
293.321
299.375
290.229
293.371
303.198
293.393
292.772
293.292
294.592
293.04
283.15
289.775
293.35
293.144
294.367
292.619
290.821
291.371
287.294
290.077
297.476
295.797
293.539
297.282
283.6
292.694
288.683
303.15
297.598
293.005
292.285
292.771
294.25
293.116
294.305
292.826
298.146
290.165
303.15
290.136
289.597
287.532
289.975
289.547
291.991
286.327
303.15
292.124
289.7
286.597
292.771
292.838
292.436
293.041
289.994
296.717
293.365
293.245
292.801
293.841
293.766
301.587
292.632
288.683
292.759
293.499
296.617
292.579
294.979
293.393
300.899
292.989
292.824
294.086
293.362
293.878
286.248
295.421
293.769
295.893
293.475
293.823
293.606
302.452
293.041
293.369
295.439
303.113
293.146
294.443
283.15
293.833
296.743
289.413
293.299
291.565
293.659
295.7
293.554
293.881
295.703
294.579
296.591
293.323
293.734
292.998
293.656
303.15
293.606
293.346
293.566
292.847
293.724
293.284
292.98
292.642
287.477
283.187
292.539
293.898
293.072
293.662
290.31
294.443
293.667
293.453
292.829
293.313
293.211
293.271
292.976
292.975
292.977
294.286
293.332
293.403
293.121
294.407
292.379
298.825
290.611
293.751
296.533
293.659
293.78
296.888
297.075
296.906
293.345
292.749
291.794
292.278
293.661
292.911
297.209
287.571
301.622
293.573
292.28
293.763
293.104
292.926
291.728
291.547
293.335
291.696
292.809
293.604
287.047
294.357
288.502
295.192
292.987
291.977
293.544
293.204
293.023
283.15
283.15
292.893
290.044
296.74
293.079
293.183
293.037
293.007
293.207
290.996
296.136
293.566
291.727
283.15
293.707
293.593
291.634
290.991
286.746
287.806
288.536
291.266
291.326
297.692
294.162
294.195
294.442
300.989
285.008
295.937
294.454
285.036
284.918
293.025
293.195
290.695
291.433
296.452
293.16
283.15
291.203
293.43
297.485
285.004
293.647
291.135
295.807
296.954
289.2
292.231
293.924
300.246
293.381
301.701
294.025
292.718
292.559
293.834
293.448
294.117
291.095
293.666
284.102
291.123
293.631
292.664
294.005
293.471
293.004
293.335
293.483
293.716
292.342
293.037
283.723
292.129
293.16
293.939
293.629
284.772
292.069
293.449
283.15
293.385
294.18
294.103
293.483
293.377
293.735
293.201
293.671
301.232
283.568
292.911
288.405
283.15
293.534
288.447
293.534
293.433
293.864
283.15
293.07
293.245
293.302
283.15
293.907
293.234
293.438
292.895
293.819
286.956
293.969
293.468
293.377
293.32
292.785
293.962
292.786
294.1
283.15
293.356
292.961
293.418
293.239
294.246
293.171
293.875
293.722
286.994
293.673
293.443
294.579
294.163
294.015
294.105
294.469
293.46
290.614
294.083
293.622
292.17
294.138
293.774
294.2
293.398
302.492
294.505
295.195
297.195
293.363
295.383
293.391
292.842
283.15
293.666
293.344
295.687
293.321
291.754
296.679
293.529
290.915
298.884
292.075
291.786
290.551
290.805
294.233
292.68
292.627
293.45
283.15
293.318
292.677
292.59
292.606
292.606
292.52
293.395
293.64
293.766
293.341
293.659
293.748
293.476
293.34
293.161
292.221
292.815
293.473
292.425
292.486
293.466
293.088
293.383
295.012
292.967
292.639
294.619
294.113
293.609
294.375
292.639
293.647
293.577
293.721
293.449
284.894
293.722
292.788
292.966
292.902
283.729
293.206
293.32
283.215
284.927
283.15
293.406
293.449
283.749
293.164
293.12
283.15
284.993
290.098
293.366
293.456
292.743
293.801
294.094
294.198
294.094
294.112
294.163
293.27
293.417
293.349
285.296
293.468
289.575
285.499
285.341
290.976
293.994
293.649
293.29
294.118
294.045
294.463
292.974
290.262
293.522
293.586
293.666
291.616
294.136
293.398
293.611
294.3
293.888
293.503
293.627
294.031
293.478
291.421
293.594
293.365
293.834
294.352
293.05
293.595
283.15
292.663
293.151
293.342
293.491
290.619
293.966
292.307
289.995
293.416
293.608
293.166
292.67
288.735
291.638
289.236
301.693
295.53
289.025
293.263
292.796
296.053
293.459
292.965
290.267
293.127
289.02
293.441
291.687
293.28
296.325
288.938
303.15
293.523
293.385
294.053
288.74
295.6
291.084
293.787
290.809
290.98
300.434
283.209
290.838
295.203
293.574
293.784
293.526
290.592
294.372
293.776
293.099
293.619
291.43
293.564
289.674
291.999
293.977
283.15
284.924
289.14
291.542
293.795
291.372
292.736
292.617
292.635
293.569
285.767
287.997
292.51
293.679
293.702
294.262
303.15
292.611
293.656
296.859
303.15
288.244
293.287
294.028
293.275
290.43
291.748
292.654
288.964
294.029
292.688
285.25
295.332
283.15
293.666
293.241
293.585
293.444
293.562
294.196
293.547
293.764
293.141
293.87
299.046
292.574
292.028
292.148
294.898
292.314
292.775
286.516
293.018
294.086
292.392
303.15
293.622
293.611
283.195
292.351
293.228
293.518
291.236
293.422
293.102
293.055
293.84
293.44
294.736
293.441
292.665
291.901
293.308
291.784
293.436
293.562
293.59
293.422
294.362
293.426
293.968
293.314
294.051
293.952
294.06
293.124
293.079
293.214