/*--------------------------------*- C++ -*----------------------------------*\
  =========                 |
  \\      /  F ield         | OpenFOAM: The Open Source CFD Toolbox
   \\    /   O peration     | Website:  https://openfoam.org
    \\  /    A nd           | Version:  10
     \\/     M anipulation  |
\*---------------------------------------------------------------------------*/
FoamFile
{
    format      ascii;
    class       volScalarField;
    location    "71";
    object      SgRate;
}
// * * * * * * * * * * * * * * * * * * * * * * * * * * * * * * * * * * * * * //

dimensions      [1 -1 -3 -1 0 0 0];

internalField   nonuniform List<scalar> 
59698
(
0.0162456
0.00198818
0.00252291
0.00271598
0.0305876
0.00145199
0.00463415
3.05044e-05
1.98735e-09
3.91462e-09
0.000586477
0.000299239
1.57639e-09
0.00229234
0.000358271
4.28503e-07
6.94553e-06
0.000146041
4.52029e-05
0.000260161
0.00174842
0.0142457
0.000500045
8.81909e-08
0.0422689
6.79255e-05
0.000342981
0.0101046
0.00917139
0.00749074
0.00481462
0.000600673
6.67278e-08
0.0164241
0.00250102
0.000163151
0.0194514
0.0205822
3.09326e-05
0.025017
0.00862565
2.30469e-07
0.00368167
0.000641044
0.000402109
0.0322157
7.3418e-05
0.000731783
0.0031568
0.000173706
0.00151751
0.000119241
0.00206481
0.00273439
0.0113967
7.6774e-05
0.00132302
0.000213173
0.000805861
0.00288399
0.00524699
0.000499433
0.122597
7.03722e-05
0.0124854
0.0016105
1.75221e-09
0.000399378
5.56844e-05
6.77326e-09
6.11854e-07
0.000250854
0.000363509
0.0419319
0.00041195
0.0392529
0.000119521
0.00922535
0.000359429
0.00616135
0.00879456
0.000480038
4.01419e-09
1.62324e-05
0.00853563
0.000552649
3.75911e-06
4.22482e-05
0.0630333
0.000129347
4.50136e-09
0.00206469
0.0146514
9.76026e-06
7.33186e-05
0.00375149
0.0052615
6.12386e-05
0.000263918
8.58851e-10
0.0764522
0.00181917
0.0162027
0.0154052
0.000121609
0.00056478
4.43275e-05
3.67806e-05
2.69389e-09
4.40846e-10
0.000250504
7.33513e-06
0.0378812
1.56282e-07
2.62525e-05
4.48841e-05
4.01014e-05
0.00353827
2.36252e-05
1.14083e-08
3.62951e-05
0.000708554
1.15787e-06
6.16242e-06
2.12153e-05
3.34053e-05
0.0108178
7.20511e-09
2.79519e-05
2.96445e-05
0.0453135
3.71523e-05
1.10186e-09
0.100089
0.00433831
0.00438957
2.13269e-06
2.27856e-10
0.000255381
0.000131307
0.000109273
0.00231877
0.00269805
0.00267702
9.97354e-06
0.000692397
6.36079e-06
2.21173e-05
0.00448984
0.0292687
0.000299197
0.000434378
0.00145562
7.60133e-06
0.000161093
0.000343145
4.73165e-05
0.00162924
0.0124351
5.57568e-10
0.000861943
5.10354e-05
0.0163666
0.00162412
0.0034239
0.0345863
0.000238353
0.0720463
0.00200701
0.000411451
0.0119327
1.4961e-06
0.0108314
0.0147456
0.078995
0.00194674
4.41052e-09
0.00144606
0.000326009
0.009297
0.00946636
0.0183978
0.0148536
1.97995e-05
0.0456173
0.000234857
0.0114801
0.00248005
6.514e-06
0.00118155
0.000404257
6.74213e-05
0.00266679
0.0385954
0.00411487
0.00417143
0.00983463
0.058875
2.68235e-05
0.00774006
0.000227089
0.00616807
0.0211312
6.62385e-05
0.0105229
0.00277348
0.00613944
0.00285637
0.00781917
0.0115348
0.0025609
2.36475e-05
0.00278968
1.56702e-08
0.00407827
0.00336759
3.72082e-05
3.61259e-05
0.0128227
0.00665432
0.00564169
0.00268306
2.98473e-05
0.0664859
0.000827506
0.0264225
0.00731525
0.00323854
0.00694948
0.159498
7.61531e-09
0.00468394
0.00294098
0.00319907
1.38819e-05
0.00960887
0.0832409
1.9119e-05
8.9242e-07
0.000447457
0.00262476
0.00147778
0.0134763
0.000664542
0.00608926
0.000121101
0.00380737
0.230777
0.00122156
0.000426716
0.00070556
0.00165091
0.000629099
0.000233554
0.000618641
0.0023939
0.00601239
0.00128876
0.00364406
4.08258e-05
1.40226e-05
1.81863e-09
0.000389499
0.00591916
0.00471581
0.0479941
2.32618e-05
1.07283e-07
0.000165133
1.62994e-05
0.000141388
0.0442357
0.000221462
1.84152e-05
0.0179887
0.000206009
0.00146596
0.00051133
0.00210722
1.22317e-09
0.000574137
0.000193195
0.000212607
0.105318
0.0494076
0.020203
0.000134899
0.000647213
0.0733457
0.000445572
0.0908694
0.00234053
0.000188007
0.000164811
0.000321092
0.00273561
0.000356696
0.000805029
0.00421013
1.18114e-05
0.00272254
2.31642e-09
6.86687e-08
0.000825023
6.47655e-05
5.26811e-05
0.0520258
0.00101198
2.02238e-06
0.00026755
0.00197965
7.08323e-05
3.84525e-05
2.38004e-08
0.00193949
0.00513214
0.00040339
0.000392785
0.000829308
0.000804871
0.000340436
0.323743
0.000320489
2.98583e-09
0.0476896
0.0104137
0.00032812
0.000353003
0.000438982
0.000361924
0.00936021
0.00416506
0.0203275
0.206593
0.000430953
1.87941e-05
9.89566e-06
0.000663038
0.00911424
0.00450327
0.0102606
0.00206617
0.0025347
0.00147646
9.69131e-05
6.73373e-06
0.000100906
0.0393561
4.78481e-05
0.00204845
0.00800121
9.16488e-05
0.0402185
7.94286e-10
0.244941
0.00216902
0.0141535
0.000126011
3.81147e-05
1.8258e-09
2.75719e-05
8.87724e-06
1.10717e-07
0.000886883
1.11273e-10
1.04127e-07
0.00281307
0.00203035
0.000156053
0.00166681
0.00188835
0.000533992
0.00367386
0.00065114
0.00619641
2.98292e-09
0.000153442
2.4496e-05
0.000460521
2.49349e-09
0.000347123
0.000103172
5.65731e-05
0.000523554
0.00014
1.96803e-05
0.00021156
0.000544826
8.11225e-10
0.000143452
8.7579e-05
0.000457506
0.00456852
0.00257354
0.00133732
0.00227078
0.0483554
0.00184034
0.00272084
0.0001456
0.00284732
0.00238737
0.00258645
3.99649e-05
0.00148701
0.00420659
0.085967
0.0280403
2.23033e-05
0.00542698
0.0317396
0.0004043
0.00178462
0.000434528
4.76879e-08
0.0590816
2.72937e-06
0.0104313
0.00240103
0.00183866
0.00303783
0.00218729
0.00252776
0.310011
3.75705e-05
1.30404e-05
7.83494e-09
0.00022023
0.00143136
5.37302e-10
0.000258486
0.00214986
0.0163457
0.00303087
0.00212946
1.44883e-08
1.38974e-08
0.213402
0.000123448
0.003178
1.92327e-07
0.00325746
4.99908e-09
2.17403e-05
4.04443e-05
0.00240148
0.070032
4.52294e-10
6.47596e-05
0.00906542
0.00256159
0.00012533
5.90074e-05
0.0328364
0.00028373
9.70246e-05
0.108418
1.39318e-09
0.00959361
2.88654e-05
0.0543043
8.64753e-06
0.0156724
0.0133283
2.196e-09
0.000975063
0.000446938
0.00846372
3.33686e-05
0.0080379
0.00292178
4.35219e-09
2.0695e-10
6.93544e-09
0.000385487
0.000817282
0.0011255
0.0690681
0.00621656
0.00220219
3.49847e-05
0.000498154
3.92504e-05
1.93457e-08
0.00536606
4.56115e-05
5.57746e-05
9.3916e-05
0.0658791
0.00179027
0.0231897
0.0662284
0.00109456
0.000163598
0.0584663
6.16906e-05
5.60008e-07
0.00237023
0.00942718
0.000365619
9.72502e-10
0.0643936
0.00713345
0.00459753
1.7113e-08
1.11836e-09
3.84176e-05
2.15076e-09
1.24623e-05
0.00314716
0.000585994
0.0748163
0.00731369
5.41927e-08
0.00909523
5.5895e-05
6.86983e-09
3.85291e-05
7.04612e-08
2.48404e-08
0.0054315
0.00378241
1.16778e-05
3.86357e-09
2.18762e-09
0.00127016
0.00952646
1.03712e-05
0.0106565
0.00390012
3.87966e-05
0.0427129
1.82774e-08
2.22569e-05
0.001452
3.56449e-10
1.35533e-08
0.00185625
0.000138741
0.000384878
0.00969357
0.000357403
0.000148182
0.0679629
0.00819585
0.0135473
0.0101014
0.000173421
0.0117267
7.80191e-06
4.19933e-05
2.28704e-09
3.92826e-05
1.92072e-09
0.000283182
3.02734e-06
1.92665e-08
0.00114871
0.00688601
0.00044842
0.000768502
1.73654e-09
3.30378e-05
9.21443e-05
5.57145e-05
1.81272e-09
0.07456
5.27831e-05
0.00552405
0.000539254
0.00288644
6.44066e-05
1.92577e-07
0.00260064
0.00287171
0.00338469
6.77684e-05
0.00402816
0.0021189
2.31612e-09
0.000732637
7.60549e-05
0.00520486
5.44372e-05
0.00405851
0.000313357
0.00242771
1.77176e-05
0.00419995
0.00268285
0.00216457
0.00332378
0.000371658
0.000167854
8.51447e-10
1.90602e-05
9.26929e-07
0.00434306
0.000349776
7.36865e-09
0.00517787
3.36762e-05
2.84064e-09
0.00340506
0.00148058
0.00216141
0.000165227
0.00108753
0.00393011
6.46421e-07
8.08563e-06
0.000547694
1.01515e-05
0.00433919
0.00140925
0.00279211
2.20992e-05
0.225442
1.87961
2.06551e-05
5.04947e-09
0.000596612
0.00213682
0.000910783
0.00248077
4.88532e-05
0.00711183
0.00245892
0.00319134
0.00156159
0.00276846
0.000211228
9.21694e-05
0.00114252
0.000107775
0.00133151
0.000238358
2.4245e-05
0.00156769
0.109392
0.000238871
5.10502e-06
0.000607893
1.45047e-09
0.00242914
0.0038152
4.14835e-05
0.0024444
0.000120803
1.76018e-09
0.000439477
0.000176148
0.00827516
0.000804056
0.000585632
0.000114334
4.05544e-05
7.90929e-06
0.000326412
0.0020296
0.000309104
0.000814859
0.000883867
0.0199013
0.0903828
0.00137063
3.35037e-05
0.00233349
0.00319769
0.0414796
3.86695e-09
2.15081e-05
0.000460631
0.00354651
0.000144077
0.0016893
0.000428464
0.0108082
0.0473088
0.000145217
0.000422232
8.04261e-05
3.5343e-07
0.000378101
0.00140707
1.56137e-05
0.00215083
0.000194959
0.000191545
0.0114027
0.00440779
0.0393214
0.000807232
0.00138485
0.00211649
0.00244222
0.000242359
0.00117912
0.000650606
0.000159441
2.31238e-10
9.53568e-10
0.00660815
0.000819802
4.50979e-05
1.48655e-09
0.00634302
2.87452e-05
4.40752e-06
2.72283e-09
0.00343201
4.18002e-08
0.000504993
0.000362149
2.8101e-05
0.00196354
0.00924572
3.42913e-05
1.3632e-09
0.000646927
0.0622285
0.00322381
3.83744e-05
0.000952849
0.00146522
0.0256644
0.008907
1.33845e-09
0.0557827
5.17376e-05
0.00259579
0.000344566
0.00939788
7.25215e-05
1.48126e-07
0.0112081
0.0044948
0.000532168
0.00308324
0.0601904
0.000585585
6.92513e-05
0.244833
0.00232612
0.000739016
0.00240312
0.00190121
0.00176629
5.27696e-06
0.0151323
1.89075e-05
0.0599693
0.00317282
0.024688
7.14224e-10
0.000212367
0.104909
0.236888
0.000599772
6.87095e-05
0.0501181
0.000383644
0.00225874
0.00517073
0.00194303
0.00829651
0.00406702
5.94654e-05
0.000401562
0.00196753
0.0142398
0.000373922
3.51164e-10
0.00269233
2.56621e-09
0.00437443
3.86813e-05
0.000223683
0.00608373
0.00521196
1.23321
3.75459e-09
0.0247374
0.00975165
0.0210529
0.00104395
0.00474052
0.000326092
0.000985427
0.00158733
0.0014019
0.00659765
0.0111164
0.103389
0.00219142
0.00543519
0.000541594
6.97212e-09
0.000383181
0.000366275
0.000232926
1.58107e-09
0.0032034
2.13874e-06
0.00952157
0.000215194
0.000730834
0.00158244
1.65933e-07
0.00691516
3.4934e-09
0.0010044
6.11122e-05
0.00130476
0.000116257
0.0137098
0.000651795
0.0017957
0.0200541
0.209719
8.10759e-05
0.00879599
0.000129149
0.000718783
0.000444804
0.000428773
0.00379294
0.000846908
0.00752062
0.000561237
0.00627885
0.00227909
2.02661e-06
0.00040115
7.31684e-05
8.30307e-05
3.3446e-05
0.000503651
0.000274243
0.000321267
7.69324e-09
5.04624e-09
1.88572e-09
0.000487205
2.15793e-09
0.00555577
0.00492848
0.00153152
0.000499718
0.00405969
1.65132e-05
2.92076e-09
0.0160177
0.000469635
0.000153182
1.32227e-09
0.0356587
0.00489489
0.00087677
8.94061e-06
2.48827e-05
0.0105784
2.63824e-07
0.00981672
0.000131936
0.000532568
0.000487127
0.00012846
3.31334e-05
2.50537e-09
0.00134165
1.52757e-09
0.00888807
8.98237e-08
0.00205941
0.000108823
7.046e-05
0.00163655
0.00164748
0.000598004
0.00192305
6.07375e-06
0.00202295
0.000307131
1.24343e-09
0.00206033
6.28634e-05
3.3163e-05
0.00423803
3.05961e-09
0.000267658
0.00372881
0.0182888
0.000319936
0.00105878
0.00296713
9.17607e-05
0.00461913
0.000633466
0.000584046
0.00449111
0.000148948
0.000379941
0.00255494
0.00162068
8.57716e-09
0.00263121
0.000106285
1.22197e-05
0.0654772
0.000412232
0.00145647
0.00262431
1.4919e-07
2.03812e-09
0.00272526
0.00403387
0.00521599
0.020211
0.00399443
6.51061e-07
0.0407796
9.27856e-05
0.00133057
0.115457
0.000230052
0.0045787
0.00453376
0.0325516
0.0585386
7.3435e-09
0.00254329
1.68634e-09
0.0247216
0.000271256
0.000345576
0.00141928
3.92508e-10
0.000761136
0.00243635
0.000575467
0.00195204
0.00678069
0.0027973
0.00316835
8.25248e-05
0.0251165
0.000739402
0.000141664
4.70597e-05
0.000825727
5.68824e-05
0.00238129
0.00107189
2.05613e-05
4.84844e-05
0.00533128
0.000295029
0.000163708
0.00010712
0.00544435
1.45305e-09
0.000141864
0.00962619
0.00358303
0.000295223
0.000415264
0.000265427
0.000130349
0.000425229
2.38931e-08
7.52084e-09
0.000429221
0.00234419
0.000466221
0.000396157
0.0140835
0.0186652
0.0177888
7.53023e-06
0.00184146
0.00296271
0.00271047
0.00481444
0.00594054
0.00040449
4.62258e-05
0.00255844
4.40531e-05
0.0110494
0.0565074
0.0019848
0.000443779
6.89876e-07
0.00053842
0.000104717
0.00115008
0.00228203
0.0023377
0.000608735
6.88311e-09
0.000122991
0.0023679
0.00235814
0.00232032
0.00365568
0.0472554
0.000395621
0.00190293
0.00135654
0.0230567
5.6729e-10
0.000396763
1.42115e-05
0.00461946
0.000453951
0.00160218
0.00470593
3.42664e-05
0.00347778
0.00356757
0.00366876
0.0054683
0.00950805
0.0100932
0.00816609
0.00528298
0.00583611
1.51814e-07
0.000149841
0.000475224
0.00592634
0.00475091
0.00223002
5.60668e-10
0.00174197
0.00393949
0.000245569
0.00161071
6.33958e-05
0.0149393
0.000126867
0.0407158
0.00314937
0.736259
7.53215e-06
1.5612e-08
0.00211447
0.00317317
1.7806e-07
0.000760451
0.00399247
0.00699591
0.0043365
0.000638191
0.006771
0.000542245
1.04807e-09
0.0197152
0.000765797
0.000934856
0.00116024
0.00267944
0.000324271
0.00112574
3.11734e-09
0.000534601
0.00816426
0.00271469
0.0921662
9.37037e-09
0.00240947
0.0819379
2.54123e-10
0.00880237
0.00277262
0.0252438
0.00130935
0.00362276
3.49735e-05
6.74673e-06
0.0013217
1.54763e-08
0.00123909
4.23062e-05
0.000118171
0.000125944
9.11937e-06
0.00171754
0.00324176
0.00975647
2.9447e-08
0.00222597
0.000516563
0.000161521
0.0364278
0.0542179
0.00500184
0.000370663
0.00427275
0.459426
0.023942
0.0262468
0.000459457
0.00044909
0.102562
0.000136579
2.28876e-07
1.50352e-06
0.0166991
0.000214481
0.0017057
0.000328426
0.0017481
2.99254e-08
0.004613
0.00903857
0.0028815
0.000646724
0.000740663
0.000477736
2.27172e-09
0.000130985
0.0036339
2.37926e-10
0.00114608
0.000584558
0.00778036
0.000354598
0.120771
4.51717e-05
0.00118734
3.40888e-07
0.00565189
9.29768e-05
0.00110477
0.00257773
0.000380628
0.00242474
1.23416e-05
0.00013769
0.00285798
3.8193e-05
0.0185942
0.012228
1.0457e-05
0.00150516
0.0840952
0.00295795
0.00399701
0.000114655
1.8251e-05
0.0037434
0.036413
0.00891157
0.00265143
0.000183497
0.00191232
0.0033648
0.00297977
0.00372803
0.00537043
7.55866e-09
0.116104
0.0513616
0.000486146
1.03585e-06
3.05111e-05
0.00312617
0.00244978
0.0260137
0.00113392
7.59072e-07
0.00229817
0.000371953
2.89554e-09
0.00356299
4.21991e-09
0.00269382
2.68014e-05
0.00148615
0.00377626
9.23914e-05
0.0193426
0.00015079
0.00043443
0.00363377
0.00413092
0.00205397
0.00211528
0.0118805
0.0005797
0.000345169
0.000374048
0.000265322
9.37452e-06
2.2942e-09
0.000190236
7.30628e-05
9.69069e-05
0.000781454
0.000646981
0.000854877
5.18969e-06
1.8361e-05
1.86143e-05
0.000321211
0.00267075
0.000496407
4.46432e-05
0.000238787
2.92771e-05
0.0003154
0.000232016
0.000223582
0.00388332
0.103288
5.30992e-05
0.00479038
0.00169081
0.00413878
4.89465e-09
3.52824e-06
4.40596e-05
0.0083174
0.0200724
0.00482018
0.0023281
2.23443e-08
8.5121e-05
0.00037762
0.00477345
0.00943033
1.04197e-08
0.00514986
0.00285371
0.00107654
0.00359007
0.00264076
0.0145326
0.00191903
0.00384842
9.72894e-05
4.67185e-10
1.39236e-09
5.25904e-05
0.00563327
8.21926e-06
6.1502e-10
3.49212e-05
0.00502583
0.000211709
0.00100915
0.00101896
6.05238e-05
0.0019119
4.84798e-05
0.00389254
9.71856e-05
0.00208983
0.0283654
0.00207541
0.00122533
6.13448e-05
2.25159e-07
0.00101906
0.000983776
0.0146367
3.2134e-10
1.22153e-07
0.00120891
1.22678e-07
0.000881995
0.000216943
1.51708e-07
6.8838e-09
0.000215807
0.000283736
0.000584264
0.00219975
0.002081
0.000277624
0.00057415
2.63375e-05
1.0744e-08
0.00532678
0.000202554
6.60058e-10
0.047666
6.50587e-05
3.27083e-05
0.000284859
6.10897e-08
1.63158e-05
0.000547253
8.77619e-05
0.000563699
9.56686e-06
0.000952403
0.000347612
0.00272788
0.00429295
0.00128789
1.56068e-05
0.0625414
0.0023829
2.10844e-07
0.00607965
0.00289736
0.00672541
1.07611e-05
2.17178e-07
0.352409
1.63401e-06
2.50533e-08
3.47238e-05
0.0253696
0.00303554
0.000635587
0.000492192
2.06095e-05
0.00321377
0.0365045
0.00481663
0.0086919
0.0142584
5.59352e-08
0.000340343
1.6506e-09
3.6579e-05
0.00829475
0.000746745
0.0748969
4.16332e-10
0.000478617
6.35358e-10
0.000532962
0.000313605
0.000377676
0.0105187
0.0180525
0.000544628
0.00185671
0.00451531
6.03249e-09
0.000243658
0.000989435
0.00201997
0.000394157
0.00079781
0.00749158
0.0106673
0.000590534
0.0017182
0.00265881
3.69462e-05
6.45291e-09
0.000432449
0.0137535
0.0115837
0.00501979
0.0473309
0.00263619
0.000171932
0.00523671
0.000185334
0.000681603
0.00106454
0.0223495
0.000285407
0.0205961
0.0116069
0.0342393
1.82128e-09
0.101604
0.00883144
0.0017425
0.00464932
0.0644297
0.000403676
0.00282536
0.00239126
0.00228839
0.0079972
0.0011275
3.13314e-05
1.86035e-06
0.00203485
0.024887
0.29504
0.000157044
0.00896912
0.000290762
0.00126171
0.000444876
0.189781
0.000616483
0.286778
0.777933
0.000103938
2.23159e-09
7.60001e-06
0.0013677
0.0106886
0.00561049
0.0101577
0.0626442
0.034203
0.00184293
0.00163661
0.0103225
0.0113515
1.21394e-08
0.00052726
0.000427672
0.000358338
0.000426202
0.000637651
0.138436
0.000273877
0.0028962
0.000398953
0.00308096
0.00201853
0.00221777
4.07911e-10
0.478593
0.0313699
0.184452
0.148078
0.00218165
2.0208e-09
0.00662619
0.00125125
2.83911e-05
0.000761567
0.0852414
9.14068e-10
0.00178814
6.99379e-05
0.000207825
0.0165121
4.7799e-05
0.00854727
5.33989e-05
6.50506e-05
0.00164994
0.000609411
0.00112348
0.0130161
2.92698e-05
0.00245481
0.00138454
0.0177959
4.85699e-09
0.000502803
0.00149891
0.0151916
0.00164597
0.000166162
0.00226595
0.0314719
0.000504139
0.000196815
3.05438e-05
0.00148125
0.00177416
0.00308029
1.45143e-08
3.06113e-05
2.46509e-05
0.000298093
0.00380656
0.00135496
8.20024e-08
0.00268791
8.35971e-10
0.0107452
0.00108923
0.000804568
0.00190167
0.00170742
0.00952276
0.00057811
0.0137889
0.000301433
0.00042333
1.17847e-09
0.000378709
0.000405408
0.000581335
0.00196221
4.89245e-07
0.00163276
0.00947454
0.0017553
0.000460522
0.0187509
0.00225136
0.00130085
0.0145511
0.00744899
0.0123356
0.0131273
0.00626968
1.64013e-07
0.322689
0.0622773
0.000813092
0.000573393
0.0148359
0.000913626
0.0242455
0.00010329
0.000403292
0.0141773
5.65985e-06
0.00677436
0.000614678
0.000132026
0.00756074
1.65547e-05
0.0312853
0.357782
0.00113468
0.0572701
8.44106e-10
0.000256108
0.00435151
1.68195e-06
0.102892
0.00244199
0.00169503
0.000478337
2.4691e-09
0.0034457
0.00279667
5.07411e-10
0.00048912
0.0269248
0.000618779
5.73471e-05
0.0618284
5.11943e-07
0.00269822
7.70563e-11
0.000345771
0.00241085
0.000153492
1.20152e-09
0.00218473
1.11155e-08
0.00249908
0.000524322
1.87675e-09
7.87509e-08
0.00439793
0.00209946
0.00279326
5.45817e-10
0.00221538
0.000628025
0.00279461
5.10795e-05
0.0321015
4.58043e-08
5.52908e-05
2.75033e-09
0.00168659
0.0371038
5.02566e-09
2.80152e-07
0.000274718
0.0025459
0.000453104
0.00195187
0.296985
2.56792e-09
0.00023218
0.00232178
8.89441e-10
3.74324e-09
3.97738e-08
0.000176122
0.00050253
0.000846985
0.000529727
0.000105751
0.000200396
5.86818e-11
0.0115175
0.000221126
0.000394063
0.00147902
0.00394934
0.00385339
0.0444785
3.21614e-10
0.000173087
0.00012361
8.53798e-05
0.000106788
0.00278001
0.000620041
0.000514078
0.00012021
0.000348231
0.000381682
1.12363e-05
4.27157e-08
8.52203e-05
0.0226541
1.89487e-08
0.0085633
0.000123664
0.0155944
0.00113902
0.000119002
4.6464e-05
0.00439403
2.7935e-05
0.00411067
0.0192633
0.00222088
6.19067e-05
2.53824e-05
0.000149789
0.000856192
0.000348311
0.00386281
0.0162828
7.18026e-05
0.0104272
4.62584e-06
0.876375
0.441511
0.000109945
0.0410832
9.42259e-05
0.000391479
0.00938417
1.03145e-05
0.604156
0.0438792
0.00757357
0.000620585
0.0283187
0.392793
0.00291659
0.0250353
0.00439807
0.00221467
0.122601
0.0440063
0.000576372
0.000957223
0.0259299
0.0487315
0.00411657
0.000310819
0.0339208
0.000205546
0.0139643
1.09917e-08
1.11191e-05
0.00661058
0.000214677
0.00421512
0.00391476
0.000125544
0.000127002
0.000294838
1.08126e-09
0.00785896
0.00602843
2.80261e-09
0.000445112
0.00170297
0.00222381
0.00408513
0.000384366
0.0115448
0.0637233
4.38069e-07
0.0332488
0.000141016
0.00431223
0.00014383
0.00223234
0.030299
0.00414501
0.00022244
0.0273027
0.000303626
7.63845e-05
0.000365534
0.000259079
0.000626646
0.00754607
0.0259258
0.0146645
0.00736271
0.00547203
0.00104676
0.00013286
8.12935e-05
0.000136404
0.0041362
2.82127e-06
0.00483522
3.55026e-07
3.61575e-06
0.00159269
0.00144797
0.00175691
5.66753e-05
0.0102644
0.00187376
2.20515e-06
0.00343107
0.00027543
0.00180009
0.000459312
0.00681294
0.00231245
0.00512288
0.000441749
0.00633322
0.00228937
4.33378e-05
0.00238878
0.00312675
0.00180932
0.00153203
4.36871e-09
4.71599e-05
8.93902e-05
0.0346854
0.00179726
0.00702318
0.00184228
0.000176843
0.00334343
0.00842274
0.00228106
0.00250692
0.00362453
1.22864e-06
0.00165491
0.0019051
0.000365742
4.17019e-05
0.00299596
0.00262051
0.00798309
0.0290172
0.00167313
8.11057e-05
0.00298248
0.000328155
0.00426419
7.62906e-05
0.00615568
0.00035891
0.00279742
2.84241e-05
0.000731953
0.000920444
0.00721578
6.14801e-05
0.020002
0.00614457
0.000237893
0.00138653
0.00159488
0.000251847
2.91818e-05
0.00247487
0.0219119
3.41806e-06
0.0376753
0.00208332
7.10631e-08
0.000109542
0.0018853
9.96119e-06
0.000883265
0.0138274
0.0231767
0.00207066
0.0117696
0.00155157
7.624e-05
0.00437125
0.014383
0.000448168
0.00157783
2.48131e-05
0.0822942
0.041925
0.000104185
0.00240754
0.00149691
7.80335e-06
0.000113769
0.0337971
0.00868225
0.0158503
3.87656e-05
0.00100453
2.8502e-05
0.0194443
2.49148e-09
0.0033752
2.53015e-05
0.00104298
0.0202506
7.46986e-05
0.000394873
0.00433176
0.00147501
0.0025761
0.00155541
0.0236736
0.00022715
0.00201342
0.0199769
2.04589e-05
0.00041006
0.000429672
0.000362928
0.00236898
0.013396
0.000466754
2.30309e-08
5.27444e-05
0.00141197
1.46801e-06
5.63908e-06
2.0836e-05
2.64889e-09
2.63845e-05
3.80232e-05
0.0116035
0.00500054
0.000369913
0.000460579
0.000294225
0.0623677
3.78144e-05
4.99963e-09
0.0180643
0.00281671
0.00186117
0.00332311
0.000518105
1.49301e-07
0.0181886
0.00216985
0.0228707
0.000776821
0.050057
0.014241
0.000125455
0.025672
0.00326287
0.0894357
0.00746843
5.62988e-09
3.5326e-05
0.255945
0.00666012
0.00100915
0.00309407
0.000160661
0.00336254
0.0308464
0.0108643
0.00286732
0.144184
0.00637407
1.35849e-09
0.0177421
0.0641663
0.0347724
0.0013269
0.00256391
0.000210581
0.00282826
0.000672121
0.0189583
0.0197489
0.000894209
0.0523847
0.0230335
0.000624569
0.00253884
0.0136911
0.00324317
0.000710774
0.050367
0.00260879
0.000113746
0.0107027
0.0108715
0.0218785
0.00258685
0.000270503
0.00277393
0.0162907
0.000357989
9.43277e-05
0.17296
0.00336981
0.0012342
0.00160687
4.68469e-05
0.00436007
2.64183e-09
0.0186631
0.00253519
0.0141059
3.29474e-05
0.00567017
1.12345e-08
0.0164929
0.00030137
0.000118431
0.00874172
0.00244269
0.00660521
0.0077097
0.00207136
0.0158905
0.000134177
0.0157034
0.0066172
0.0093058
0.0562545
0.00559026
0.0293932
0.0346528
0.0170404
0.00114253
0.00453332
0.00265625
0.000965373
0.000916011
0.00398284
0.00221926
0.000635799
8.91854e-06
3.30563e-05
0.00237292
0.00133747
0.00127778
0.0537843
0.00324029
0.0026989
0.000110743
2.36773e-05
0.000452481
8.83151e-06
0.0025849
0.0299788
0.00253739
0.00192907
5.23044e-05
0.0170023
0.00255101
3.27445e-05
1.8823e-06
0.000217325
0.0346055
0.0067849
0.000518486
0.00229346
0.00447901
0.000221154
8.80843e-05
0.00494376
0.000429645
1.56156e-05
8.47082e-05
2.55305e-05
0.0018714
0.00221786
0.00104571
0.00864688
0.103127
0.000243173
1.81396e-05
0.00356764
0.000327416
0.0110973
0.00239983
5.34334e-05
5.17323e-05
0.00319149
4.86204e-05
0.0101109
0.0738223
0.044724
0.000175494
0.000526439
8.91872e-06
0.000115299
0.00263398
0.00391688
0.000451147
0.00272595
0.0141797
0.00194427
0.000279683
0.00230993
0.000419351
0.0298579
9.60538e-07
3.70023e-08
0.0110627
0.0023438
0.000562015
0.00464079
0.000613524
0.000105984
0.000511927
0.00247708
0.0227081
3.99448e-05
0.000114442
0.000300475
0.00699953
7.85278e-05
0.000699002
0.000108435
0.00128556
0.00954025
3.57037e-05
0.0286024
1.02967e-09
5.11313e-05
0.00239906
7.4072e-05
0.00033869
0.00347675
0.00120115
0.00237173
9.29975e-06
0.00180605
3.64915e-05
7.58219e-05
0.00226707
0.00335467
0.00329094
0.30143
0.00173072
0.000953993
0.00223761
0.00295759
0.000283303
0.000244957
0.00369853
0.00215432
0.00309031
7.46302e-05
0.000906409
0.0140288
0.00278754
0.111861
0.000861709
0.0100949
0.0104143
0.0123565
0.00126156
3.17894e-05
7.99939e-05
9.46576e-05
0.000101561
5.06706e-09
0.000258127
0.0115046
2.79954e-11
3.36613e-09
0.00377145
2.29434e-05
3.19001e-05
0.0150229
0.00192445
0.0029093
0.0019104
0.00227797
5.09783e-05
0.00158872
4.27557e-05
0.0243573
0.0131928
0.0102868
0.00190618
0.000139437
0.00158918
0.000292419
5.92691e-06
4.16838e-05
1.41406e-07
0.00168985
0.0109951
0.00689363
0.00145641
0.00179168
0.00219806
0.00232133
0.00176653
0.000341713
0.00411496
8.37802e-06
4.07873e-05
7.61012e-09
5.02403e-05
0.00276349
6.67153e-05
0.000335186
0.00227738
5.32485e-05
9.98707e-05
7.08639e-06
3.15507e-06
0.0537669
0.000481383
0.000671132
3.63511e-05
0.00284226
0.00221464
0.00185482
0.00343722
3.91981e-05
7.52607e-07
0.00105424
2.85315e-05
0.0194718
0.003215
0.0241513
0.00159503
0.05121
0.000104276
0.00110641
0.000236747
4.18222e-08
0.0037295
7.52391e-05
0.00133685
0.00010266
0.00221681
0.019211
0.0016608
0.00232345
0.00861278
0.00239324
0.0108702
0.00362176
0.00163482
0.000934503
0.005072
0.0297265
0.000302229
5.05216e-10
0.0635505
0.00887051
0.00644197
4.22312e-05
0.0655517
0.0019307
0.0152499
3.23447e-05
0.0172823
0.00325423
0.00136153
0.0023718
0.00235318
5.50928e-06
0.0402315
0.0146118
0.0145445
0.00303734
0.00231744
0.00159495
0.00321599
0.000961968
0.000103975
0.00160695
0.00303403
3.86594e-07
0.000130568
0.00169066
0.0361805
0.00308288
0.000346266
9.75497e-08
0.000406687
0.00168874
0.000455768
0.00151792
0.000734271
1.51447e-06
0.0140812
0.000252231
0.000666173
0.00205025
0.00125956
0.000131354
7.54387e-05
0.000176604
0.00205106
0.00284487
1.34765e-05
0.000108524
0.000666968
0.00010298
1.37323e-06
0.0167988
0.00021607
0.00328393
0.00152998
0.00150358
0.00211408
0.00695543
0.00428574
0.000588194
0.00398138
7.12403e-05
0.00228178
0.00437584
9.27593e-06
0.00753877
0.000392534
0.00296596
0.00188115
0.10027
5.46487e-05
0.000193761
0.000518568
3.75747e-05
0.00137858
0.00287014
0.000199714
1.61279e-05
0.00138084
0.00539383
0.000584144
0.00287073
1.10244e-06
0.000462726
0.00947925
0.0024157
0.000141337
0.00214481
2.46182e-05
0.00420001
0.00338229
2.15912e-05
0.00029309
0.00352902
0.00010101
8.52403e-07
0.000344637
0.000198405
0.120045
8.3791e-06
0.000566222
0.00323666
0.000105377
0.0116968
8.37175e-06
0.00275313
0.000121983
7.94301e-05
0.000515164
1.91829e-05
0.000205625
0.00295163
3.94008e-06
0.000108729
0.000122801
0.018579
0.000603141
0.000357091
0.000356974
0.00217768
4.4499e-05
0.00311644
0.00452514
3.04782e-05
0.000360672
2.98378e-06
0.00116549
1.48918e-05
0.0122758
0.000292748
0.00152613
0.00218843
0.000127285
0.0844022
0.000382668
0.00306148
0.0011099
4.82334e-08
0.00237423
0.00498861
0.0264367
0.0111821
0.000410463
3.0595e-05
0.0375117
0.0399625
0.000563894
0.0179409
0.00844733
0.000396774
0.000129667
0.000636437
0.000341715
0.00031686
0.000460455
0.00435126
1.51174e-05
0.000162373
2.60171e-05
5.68482e-05
0.00600322
7.74562e-05
0.00247019
3.90174e-05
1.38862e-08
0.000200544
1.22003e-07
1.66186e-09
1.00069
0.000185746
0.0194035
0.00306745
1.10487e-05
0.000297092
0.0179462
0.00188646
1.98343e-05
0.00238257
0.00562191
3.70012e-08
5.39903e-06
0.000397562
1.69109e-05
0.00222326
0.00055684
0.00247474
0.00486795
5.67216e-06
6.94223e-05
0.019725
0.00282888
0.00306199
0.000394487
0.0035503
9.60654e-05
9.36241e-05
0.00236244
0.00927373
0.0125579
0.00607786
0.000755748
0.000178895
0.00253233
0.001906
0.00204694
0.00266743
0.000229094
0.000310623
0.00366741
0.00169155
0.00333169
0.00271059
0.000751625
0.00465696
1.08203e-09
1.47433e-09
0.0225766
1.10715e-05
0.000905321
0.00208932
0.0033117
0.00991177
0.00385137
8.86894e-05
0.00706093
0.00316061
0.000125347
0.00326565
4.35307e-06
1.27405e-05
1.75244e-05
0.00361896
0.0129279
4.63678e-08
0.00606449
0.00160956
0.152222
0.000167008
0.00370323
3.06749e-05
0.0120661
1.14278e-05
8.62009e-05
2.58437e-05
0.0221829
1.20392e-05
0.00275121
0.00261711
0.00311661
0.00679856
0.00215944
0.00220372
0.0168487
0.00697099
5.47281e-05
3.79022e-05
0.0122157
0.000135837
4.44867e-05
0.00189978
0.0035945
0.00188751
2.11112e-05
0.000111428
0.00463988
0.00326263
0.00206777
2.7983e-05
0.00319989
0.00191584
0.000624969
7.63315e-05
2.51803e-06
0.0026919
0.0184052
0.00284698
0.00155629
0.00712153
0.000488733
0.0314003
0.00132551
0.00739615
0.000252415
1.04123e-05
0.00023662
2.75259e-05
0.000449141
5.92074e-06
2.70054e-08
0.0036599
0.000153416
0.0373759
0.000765007
0.00785121
0.0021425
0.00745626
0.00332509
0.0148096
0.0174455
0.00139669
0.00975564
1.09038e-05
0.00037363
0.00130014
0.0018134
0.000218898
0.00404033
6.19796e-05
0.00307647
9.78282e-05
0.00265645
2.10228e-05
0.00265491
0.00133721
0.000427417
0.0265332
0.000162006
0.00130582
3.38354e-05
3.11767e-05
0.000138339
0.00540749
0.00245759
0.00202128
3.43563e-05
0.00159434
0.00312265
0.000253155
0.0156901
0.0132645
6.18116e-09
0.000207465
0.00174145
9.97626e-05
0.000293445
0.000472678
0.00045012
2.37124e-05
0.00319958
0.000450035
0.00531325
0.000526664
0.00117604
0.000534981
0.00835942
0.00527119
0.008668
2.06443e-05
0.0537028
0.0219559
0.0973448
0.00186393
0.000145532
3.69775e-05
0.000282207
0.0067643
0.0101358
0.0302064
0.0247203
9.26939e-06
1.58338e-05
0.00776521
0.000404194
0.0173798
0.301375
0.017453
0.000342461
0.000448663
0.0161523
0.00160757
0.000242697
0.000728559
0.162005
1.37453
6.94946e-05
1.07403e-06
6.36355e-05
0.0048521
0.0010524
0.0018576
0.00270218
0.00196373
0.00437656
0.000882785
0.00222071
3.10298e-05
0.00255963
0.00263983
0.00255804
0.000444983
2.80791e-05
9.17235e-07
0.00466977
0.0147914
0.00402445
0.00249345
1.07784e-05
0.00160051
0.0013227
6.56816e-05
3.00521e-05
0.00884931
5.23194e-09
0.031186
0.000107903
0.0484291
0.0150284
0.000250117
0.00496712
1.00895e-05
0.00236547
0.000136935
0.00087294
0.0837927
1.12346e-05
3.11038e-08
8.25555e-06
0.0038806
0.00347207
0.00152328
0.00100303
0.000982665
0.00124868
0.00104032
0.0018275
6.4065e-05
0.0682303
0.0265091
0.0028627
0.00150232
0.00287657
0.0668561
0.011995
0.00408453
0.000289264
0.00722592
0.00267825
8.25789e-05
5.18061e-05
0.00480007
0.0068151
0.0172892
0.00528233
5.86359e-05
0.00450515
0.0371791
0.0241723
0.00323981
7.66588e-05
2.88653e-05
0.0397326