/*--------------------------------*- C++ -*----------------------------------*\
  =========                 |
  \\      /  F ield         | OpenFOAM: The Open Source CFD Toolbox
   \\    /   O peration     | Website:  https://openfoam.org
    \\  /    A nd           | Version:  10
     \\/     M anipulation  |
\*---------------------------------------------------------------------------*/
FoamFile
{
    format      ascii;
    class       volScalarField;
    location    "71";
    object      T;
}
// * * * * * * * * * * * * * * * * * * * * * * * * * * * * * * * * * * * * * //

dimensions      [0 0 0 1 0 0 0];

internalField   nonuniform List<scalar> 
59698
(
286.624
292.869
293.307
293.544
299.926
283.15
292.524
293.495
303.15
303.15
303.15
293.18
283.15
293.769
300.108
303.15
294.067
293.45
293.177
293.803
303.282
302.121
303.148
303.15
295.679
293.449
293.105
298.342
295.696
295.347
300.292
303.15
303.15
298.832
302.361
293.267
283.382
283.469
293.444
297.581
296.234
283.15
296.574
293.849
283.15
296.602
293.305
295.262
294.645
293.579
293.058
293.342
292.348
294.536
294.381
293.197
294.284
302.177
294.246
282.976
291.249
294.302
299.616
293.204
286.784
294.464
303.15
293.179
293.177
303.15
283.15
293.782
283.135
298.56
283.15
297.758
294.536
287.693
291.644
294.143
299.956
292.582
303.15
293.443
303.702
294.504
294.181
293.555
298.893
293.881
303.15
294.736
298.995
293.539
293.769
293.512
299.071
293.519
298.92
283.15
299.122
283.129
285.892
284.493
293.369
283.15
293.471
293.133
303.15
283.15
293.401
293.654
298.876
283.15
293.419
293.236
293.407
293.419
293.439
303.15
293.253
292.837
293.438
293.292
293.375
293.245
295.474
303.15
293.38
292.89
287.533
292.985
303.15
292.779
290.247
291.653
292.898
303.15
293.125
293.463
293.466
293.765
290.851
292.129
292.908
293.581
293.381
293.387
293.451
301.181
283.138
303.15
288.078
293.27
294.056
293.368
293.31
293.476
296.946
283.15
289.666
293.438
290.779
299.548
297.792
296.669
292.907
280.918
299.359
292.198
300.375
283.151
300.941
301.003
285.538
292.809
303.15
283.238
303.15
298.913
302.762
300.403
298.619
293.241
298.733
300.854
300.76
293.86
292.994
294.717
294.358
293.67
296.606
297.473
299.381
293.59
293.953
296.563
303.155
299.377
283.15
284.148
292.416
292.8
299.286
290.95
297.316
295.415
293.575
298.017
293.137
293.709
299.138
303.15
294.871
293.456
293.279
294.062
297.837
296.007
282.052
296.314
292.638
299.273
295.291
299.326
295.841
291.35
295.612
285.004
283.15
296.171
295.179
295.843
293.43
294.821
295.971
293.737
293.565
295
293.236
293.99
289.928
303.15
294.644
293.581
282.928
285.63
293.632
293.303
293.828
294.936
295.142
303.15
293.593
294.743
294.12
295.302
292.851
293.302
303.12
283.15
294.462
294.342
294.821
295.31
292.666
303.15
293.475
293.291
293.327
286.652
303.101
293.309
287.34
293.709
292.906
293.633
293.997
303.15
303.15
292.904
293.338
289.111
295.107
290.688
292.95
303.15
286.054
294.611
301.433
291.281
293.398
293.417
294.889
293.606
292.714
293.624
295.097
292.673
291.44
283.15
283.15
292.612
293.238
293.202
287.815
293.657
294.629
293.06
293.119
293.315
293.373
283.15
293.716
292.67
283.15
293.728
283.15
293.589
293.874
293.393
294.002
303.15
298.344
286.252
294.108
293.715
292.428
283.15
300.178
290.666
298.879
281.566
303.15
293.8
293.698
292.553
298.462
293.833
295.123
295.54
292.633
294.98
298.952
293.306
295.601
301.435
293.731
289.167
292.834
293.043
301.346
303.15
284.236
300.748
302.075
293.328
293.638
303.15
293.3
293.85
303.15
295.003
283.15
283.15
293.553
290.472
293.543
282.757
292.684
283.15
292.738
283.15
296.43
303.15
293.54
292.914
283.15
303.15
283.15
292.712
293.305
293.517
293.506
283.148
293.503
283.15
283.15
293.409
293.818
303.15
294.605
290.766
303.133
301.992
301.764
293.517
292.671
292.793
288.51
295.722
292.731
293.36
293.548
293.482
295.918
293.242
295.684
302.249
297.865
303.15
295.28
303.15
293.442
289.832
292.98
283.576
302.294
302.828
294.385
293.421
290.793
281.985
293.369
293.326
303.15
294.395
293.274
283.15
295.497
302.787
285.304
291.843
287.583
303.15
303.15
298.65
292.864
291.944
283.15
292.189
303.15
293.653
293.149
302.913
294.868
283.15
293.465
299.212
292.736
293.297
294.105
286.32
294.008
293.626
290.632
303.15
284.302
293.325
290.053
293.389
283.961
293.923
303.15
293.569
293.407
291.885
294.113
294.988
295.111
283.15
283.15
283.15
294.051
293.141
302.757
292.113
293.713
294.018
293.381
293.599
293.379
283.15
300.933
293.367
293.504
293.383
291.946
292.87
299.037
290.487
291.372
293.474
292.114
293.487
293.437
293.506
289.573
283.15
283.15
295.186
299.057
294.682
283.15
303.15
293.341
303.15
293.358
290.268
294.709
290.686
283.153
283.15
291.626
293.352
283.15
293.389
283.15
283.15
289.543
293.963
293.396
283.15
283.15
302.995
294.939
292.608
289.84
288.75
293.264
301.504
303.15
293.427
293.56
283.15
283.15
286.367
293.393
303.15
290.006
292.983
293.115
281.266
289.381
291.837
282.228
283.132
290.846
283.147
293.353
303.15
293.476
303.15
292.886
293.313
283.15
295.583
291.515
291.828
283.15
303.15
293.5
283.123
293.32
303.15
286.386
293.343
291.206
303.15
292.07
293.457
283.15
291.899
290.956
293.523
293.093
292.285
295.529
303.15
283.15
293.566
285.28
293.207
292.361
283.15
292.429
293.185
289.745
291.642
291.953
296.415
293.079
293.124
283.15
293.371
303.15
282.782
283.15
283.15
290.926
290.972
283.15
293.461
291.044
291.622
292.896
283.15
291.076
293.319
293.297
292.536
293.303
292.111
291.111
291.144
293.268
297.842
285.648
293.263
283.15
291.152
291.923
302.962
295.263
293.735
290.908
292.23
292.023
292.082
295.6
283.15
293.224
291.364
293.065
292.144
292.078
293.252
293.2
286.925
293.495
292.773
283.15
303.15
292.041
294.047
292.802
293.72
293.66
283.15
283.15
293.172
288.556
291.778
292
293.252
293.017
303.147
293.591
292.388
293.668
293.392
291.001
283.796
301.851
291.631
293.689
293.773
291.802
288.931
283.15
293.523
292.813
293.535
292.863
291.682
283.15
295.311
293.234
292.882
292.429
293.517
283.15
283.15
291.897
293.009
291.901
292.955
291.992
295.746
290.798
297.174
293.963
291.73
290.813
293.62
293.625
292.588
283.15
292.871
283.15
283.15
292.549
291.772
293.242
303.15
296.535
293.124
292.09
283.15
293.663
283.15
293.754
283.15
293.44
297.641
289.345
293.162
303.15
283.15
297.853
297.947
293.191
292.061
295.612
297.229
295.531
283.15
296.226
293.303
282.86
283.15
290.547
300.335
283.15
291.078
292.812
303.15
297.637
287.947
293.09
293.823
283.268
297.043
294.59
294.53
283.597
283.45
292.465
286.01
293.061
296.887
293.735
298.106
283.15
292.918
290.234
295.055
303.15
293.417
296.907
283.15
298.217
295.937
292.318
293.836
296.739
293.149
283.15
294.931
294.572
283.15
283.15
292.344
283.15
289.446
293.558
292.41
294.534
294.55
297.413
283.15
293.699
290.472
294.878
295.291
295.32
283.15
284.364
298.819
293.572
288.636
297.674
301.105
293.491
302.771
283.15
283.15
283.15
292.665
292.762
283.15
292.555
293.574
298.045
283.164
292.523
291.713
283.15
282.346
283.15
283.15
292.577
283.15
303.102
298.502
303.15
292.552
284.565
288.598
292.546
282.175
293.471
283.228
283.15
283.15
291.276
294.719
296.698
283.15
295.799
292.656
292.669
283.15
292.654
292.683
283.162
283.15
283.132
283.174
303.15
283.15
283.15
283.15
283.15
291.183
292.952
291.044
283.15
294.638
293.277
283.15
285.403
283.15
292.755
283.15
299.441
295.183
291.975
292.588
292.758
295.909
303.15
295.895
292.891
283.15
292.599
283.149
293.313
283.15
292.046
283.15
284.11
283.15
290.382
283.15
293.505
291.774
294.915
292.689
291.903
292.715
292.102
283.15
283.15
292.709
293.548
293.045
293.215
283.15
294.319
296.328
296.012
283.15
294.113
295.076
293.418
296.744
303.15
283.15
295.888
292.364
283.15
292.946
293.415
283.15
295.884
292.793
293.136
293.587
283.15
293.26
293.338
283.15
303.15
293.038
292.953
292.887
295.913
297.653
293.999
296.721
290.216
294.983
295.62
293.566
291.431
290.744
286.593
292.08
283.15
289.765
283.15
296.548
295.76
291.92
290.3
283.15
283.15
297.548
291.279
290.058
296.151
296.764
293.398
295.389
285.341
293.99
293.187
293.361
283.15
293.379
292.938
293.241
293.065
293.293
293.396
303.15
293.341
293.497
294.477
303.15
293.563
296.669
294.177
293.516
293.858
294.465
295.69
292.888
303.15
303.15
283.15
295.559
283.15
293.569
291.45
302.71
298.559
293.044
295.02
302.153
297.86
294.945
295.859
293.729
293.131
295.697
293.881
290.658
287.744
294.115
283.15
293.135
303.15
283.168
294.723
300.385
294.707
303.15
303.15
292.729
293.39
294.907
292.727
293.007
292.594
283.15
293.741
293.22
298.349
283.15
294.561
295.255
302.799
293.052
293.698
302.794
293.209
293.538
302.804
292.738
294.546
295.194
296.444
295.365
295.982
295.219
293.48
292.911
303.15
295.485
296.533
293.257
283.15
293.21
297.703
293.096
293.627
293.127
295.323
292.795
287.746
294.508
290.878
292.828
303.15
293.569
288.101
283.15
303.15
294.035
294.208
295.977
294.321
289.321
303.15
303.15
293.099
283.15
295.016
294.439
294.31
294.422
293.949
303.15
303.15
284.1
294.309
295.123
303.15
294.082
296.128
303.15
282.446
292.912
283.572
291.987
294.354
292.924
293.208
294.105
303.15
293.781
291.73
293.101
292.934
293.001
293.565
294.389
301.056
303.15
297.299
302.916
293.024
301.667
287.089
291.084
295.273
297.731
297.196
289.455
289.165
293.33
283.15
288.095
292.878
303.15
293.339
300.971
293.13
294.507
294.323
294.939
283.15
302.393
289.608
294.813
294.647
292.521
283.15
303.15
293.516
286.772
283.15
292.945
292.986
294.665
293.477
304.967
293.338
295.045
292.737
295.302
293.404
287.084
294.943
303.15
292.729
292.911
292.918
290.196
293.279
300.818
301.114
293.369
295.896
299.12
302.607
293.686
293.372
293.056
302.577
287.728
300.255
291.914
292.138
295.942
295.797
295.403
293.308
295.26
303.15
286.061
298.852
295.797
293.752
292.99
297.244
293.719
299.01
293.77
293.132
293.664
293.569
303.15
293.364
303.15
292.584
292.865
294.035
292.086
293.175
285.387
292.806
303.15
294.483
291.949
288.95
292.442
293.374
303.15
303.15
293.553
293.425
283.15
303.15
293.133
293.51
294.142
283.15
303.15
292.82
293.318
293.283
292.956
285.259
292.618
283.15
284.97
303.15
293.43
283.15
303.143
303.15
297.274
290.57
293.223
297.375
296.692
292.337
303.15
293.34
293.346
296.918
282.321
296.645
293.037
303.15
293.388
303.15
296.769
284.582
283.15
291.177
297.596
293.491
302.758
297.487
295.752
297.451
291.405
297.62
283.15
283.15
297.486
297.42
294.32
303.15
292.809
291.918
293.736
293.664
294.083
294.364
294.16
293.334
291.255
293.252
300.61
285.588
297.029
303.022
293.205
303.15
294.743
283.15
299.953
303.15
303.15
293.478
283.15
300.652
293.199
283.15
303.15
292.053
292.9
303.15
293.493
291.788
293.097
293.673
302.959
303.15
297.486
293.755
283.15
289.056
292.016
293.171
283.096
303.15
293.121
303.15
293.204
303.15
293.152
297.886
297.78
296.977
297.557
294.286
293.143
286.797
293.748
283.15
292.034
298.052
294.82
296.655
283.15
301.145
293.202
303.15
293.316
297.024
296.295
303.15
303.15
293.282
288.937
287.365
294.296
289.219
289.62
303.15
303.15
283.15
292.113
287.79
303.15
299.758
303.15
287.572
303.15
303.15
303.15
291.702
290.772
299.277
303.15
292.591
292.933
303.15
291.926
287.302
282.68
293.723
283.731
295.848
291.688
292.133
283.311
293.659
292.228
303.15
303.15
285.182
288.645
292.718
283.573
283.276
292.916
289.879
293.123
283.15
295.28
291.708
294.637
287.712
285.222
293.947
303.15
292.218
284.066
290.957
293.989
300.934
291.983
292.386
292.557
293.509
298.11
292.206
292.921
293.496
283.903
286.788
283.761
292.98
284.853
292.867
284.218
303.15
294.051
290.561
288.492
292.616
303.112
303.15
293.393
284.405
294.764
300.636
284.976
285.113
298.435
294.55
284.948
282.312
294.006
303.15
287.37
283.15
283.129
285.157
303.15
297.63
283.151
292.994
303.15
284.93
300.027
303.15
283.15
289.233
295.147
296.496
297.83
283.516
303.15
285.254
291.854
293.361
283.15
293.939
283.15
303.125
293.453
303.15
294.351
293.463
292.604
293.424
293.424
293.573
300.142
298.993
285.918
283.138
299.312
293.6
299.45
303.15
283.15
293.376
296.275
285.773
292.942
292.789
288.104
293.756
293.565
293.152
293.547
293.54
296.747
303.15
293.674
293.546
303.15
288.562
293.574
283.15
288.2
303.15
296.12
293.572
303.15
296.848
302.678
290.213
292.503
286.921
288.123
303.15
283.15
303.15
283.15
283.15
294.163
293.576
283.14
291.898
283.209
303.15
288.297
288.775
287.963
294.288
288.256
294.899
289.063
286.224
303.15
287.431
291.781
292.992
303.15
300.569
292.905
289.595
303.228
303.15
299.159
293.498
290.46
303.15
293.43
290.51
293.501
297.732
297.17
290.165
295.069
303.15
303.15
290.267
290.293
283.935
295.159
283.153
283.578
303.15
283.803
290.223
303.15
283.15
283.002
283.15
290.349
299.833
303.15
290.321
303.15
303.15
283.679
293.806
283.15
283.149
303.15
293.251
292.423
303.15
303.15
291.366
283.127
290.959
303.15
283.139
293.464
290.99
290.991
300.697
283.15
290.994
303.15
294.747
294.254
303.15
303.15
303.15
292.523
283.15
291.124
291.865
303.15
283.14
291.299
303.15
303.15
303.15
292.416
283.15
293.58
283.15
293.787
291.628
283.15
296.133
303.15
283.15
291.548
291.429
291.41
294.1
283.15
293.469
291.776
291.822
293.857
283.14
283.15
303.15
283.15
283.15
283.15
292.967
303.15
293.618
294.23
303.15
285.311
293.663
293.199
293.483
292.945
293.563
297.185
292.992
296.722
295.933
292.533
293.474
292.955
292.189
292.277
293.48
292.184
298.966
293.639
287.269
293.245
304.957
284.03
292.368
300.343
283.134
293.554
291.721
303.15
294.366
296.512
295.245
292.627
301.438
296.238
292.197
298.93
293.1
302.822
297.643
300.375
292.316
285.251
294.224
289.334
294.341
295.909
297.432
292.777
296.664
283.15
293.222
294.749
292.785
283.143
299.543
293.015
288.099
293.089
283.15
297.872
293.712
283.15
293.605
292.489
292.976
295.052
283.15
293.105
298.431
293.737
300.328
292.886
294.443
292.871
293.624
298.441
291.679
292.484
284.621
293.492
292.674
293.362
283.15
303.15
292.487
297.132
298.055
301.574
283.456
292.502
292.851
293.564
292.405
292.398
303.151
291.676
293.652
292.542
283.139
292.591
292.57
292.802
301.984
293.903
292.683
303.187
293.706
293.172
283.15
299.004
292.838
302.099
302.825
294.637
292.768
293.239
292.054
293.427
292.683
293.537
283.15
293.224
292.677
295.159
302.942
293.045
288.177
293.001
298.904
293.009
283.158
293.132
292.335
293.464
292.698
295.254
293.324
302.926
293.266
292.683
291.265
298.237
302.943
293.279
292.705
292.741
298.512
294.065
294.317
288.182
289.741
293.349
294.455
289.078
294.122
292.919
289.328
302.813
292.835
293.351
289.443
293.384
293.3
294.013
299.702
292.778
294.599
292.218
293.466
292.811
293.135
292.791
295.054
287.19
298.576
299.515
289.319
293.072
293.174
294.789
295.981
293.359
292.771
293.336
298.708
285.527
293.078
292.927
292.821
292.812
292.82
296.204
288.001
296.571
293.335
292.864
293.168
299.566
303.15
293.418
292.858
292.994
296.961
293.403
299.685
292.872
293.412
292.855
292.86
299.646
293.627
292.894
301.301
292.078
283.15
293.162
294.343
292.004
289.346
293.416
303.15
294.297
301.44
293.457
293.191
292.89
283.15
293.296
301.371
287.256
290.35
292.986
283.15
283.229
295.983
293.134
283.15
298.922
291.969
290.405
290.571
283.15
303.15
298.54
293.429
294.38
295.704
295.027
301.377
293.37
301.183
295.294
293.011
292.085
303.15
293.613
300.079
295.462
295.698
291.92
302.833
286.648
295.64
293.877
292.4
296.227
295.417
283.15
291.137
292.627
295.76
294.103
293.07
293.358
292.658
296.435
296.082
295.2
296.198
294.305
295.762
294.786
292.94
291.996
295.617
295.821
296.785
300.259
297.333
297.454
297.953
301.219
293.071
303.146
283.145
290.48
283.15
292.64
301.793
303.554
295.263
303.01
303.129
291.144
283.15
292.112
292.665
290.843
293.135
300.593
283.15
291.103
303.15
293.065
293.49
293.616
301.075
295.243
293.164
302.012
294.058
289.241
302.279
286.675
295.425
291.738
292.614
294.609
300.549
302.96
293.23
289.823
289.037
294.073
295.288
294.65
295.881
292.847
293.226
292.55
294.211
294.251
295.794
291.132
292.942
292.972
293.77
292.976
293.431
290.95
294.071
292.898
292.179
293.345
293.404
294.701
293.337
293.347
293.55
286.56
302.174
291.948
299.931
296.657
294.7
292.823
295.965
303.15
293.176
293.139
292.954
295.295
296.77
295.478
294.332
298.697
288.437
293.319
283.143
292.921
291.361
291.603
293.348
293.348
292.674
293.355
296.161
297.902
300.893
295.606
294.84
293.512
292.831
293.846
295.386
293.746
295.513
294.699
289.673
293.414
295.689
300.951
296.705
293.435
303.15
292.575
295.694
293.366
294.704
283.15
293.638
292.378
293.479
290.622
292.994
293.64
293.602
292.928
293.276
295.197
293.159
295.384
290.858
292.433
293.621
283.15
293.637
292.271
293.736
293.57
295.104
295.187
293.166
293.157
295.48
293.016
292.992
296.648
296.175
293.433
297.938
292.879
293.912
293.365
293.693
293.67
292.315
296.018
293.076
296.425
295.431
294.96
299.987
292.903
296.166
295.106
296.788
295.655
293.66
292.866
293.027
292.97
292.815
293.413
303.15
294.007
289.354
283.15
283.15
292.504
292.94
293.224
299.282
292.978
292.901
293.549
293.786
292.917
292.615
292.832
300.844
286.341
287.375
293.278
293.894
293.731
292.938
294.222
292.822
283.15
292.969
291.736
295.923
293.281
293.196
292.71
284.191
288.499
292.318
294.62
293.442
293.312
303.15
293.168
293.614
293.773
293.252
292.015
292.973
293.164
293.495
303.15
287.17
291.353
293.437
293.292
293.652
292.018
293.513
291.374
290.497
283.15
283.15
294.587
293.41
291.668
294.163
293.513
291.613
293.117
293.615
293.099
303.15
283.411
292.812
293.591
290.628
292.72
295.858
293.203
292.065
285.192
292.972
289.284
295.582
291.022
293.908
302.019
294.391
293.607
283.15
294.269
293.178
296.895
293.816
300.484
291.953
301.237
292.646
297.606
292.808
294.612
293.399
293.751
293.438
293.935
295.035
292.917
293.411
293.367
292.992
293.458
292.188
292.987
293.458
293.455
293.46
292.77
292.068
299.345
293.967
293.884
283.15
283.15
291.124
292.774
294.358
294.574
294.047
291.623
292.199
293.623
292.323
294.092
289.771
292.799
292.178
292.133
292.797
292.993
293.604
290.945
293.093
302.665
290.511
292.682
296.798
293.349
285.562
293.404
298.651
303.388
296.196
293.645
293.175
293.117
298.423
293.783
290.084
292.881
293.94
286.385
285.994
292.732
292.756
293.283
292.94
294.03
293.386
292.771
293.741
293.553
293.043
294.725
294.949
293.374
292.259
292.248
293.064
293.691
293.712
293.383
292.732
292.941
293.271
293.265
293.394
292.939
303.15
303.15
292.774
292.007
295.688
293.268
292.882
293.103
297.014
293.317
291.969
293.538
293.509
291.248
290.807
292.799
290.87
292.733
293.68
292.616
295.407
295.467
293.308
294.526
294.51
293.761
292.727
303.243
293.155
303.15
292.834
291.764
292.737
296.102
292.963
293.376
293.149
292.605
291.129
294.382
294.513
283.15
303.15
282.892
292.773
301.987
284.043
303.15
293.363
300.878
294.278
283.15
291.752
293.047
292.883
293.045
303.15
303.15
293.355
283.15
296.674
293.32
295.56
294.344
294.944
293.905
292.698
296.77
293.282
283.15
300.78
303.15
303.15
297.755
293.862
294.849
294.729
293.015
283.15
300.95
292.101
293.209
291.236
291.783
303.15
293.165
292.949
293.211
291.013
292.794
300.841
292.806
292.667
292.655
294.434
292.199
292.682
283.15
292.165
293.717
292.686
296.7
301.948
302.713
293.573
295.797
293.647
293.209
291.447
292.104
300.58
293.039
283.15
291.818
290.467
290.342
290.515
291.801
290.476
283.15
303.15
297.135
293.292
292.499
295.1
291.548
297.932
283.146
293.496
283.665
293.457
293.465
292.988
293.294
293.357
293.349
292.179
294.937
303.15
295.68
284.942
292.883
297.803
298.036
293.77
292.093
293.352
298.077
293.374
296.17
293.419
292.441
298.676
292.778
294.564
298.118
294.136
296.549
293.858
293.349
293.352
296.994
293.301
293.054
291.939
292.562
293.079
293.302
292.75
291.934
291.52
291.253
293.718
295.863
292.069
283.15
292.532
293.42
291.861
299.682
291.872
294.094
286.319
291.134
290.75
292.064
293.859
292.801
293.495
292.374
293.396
292.743
293.201
283.15
290.826
293.397
296.843
292.612
296.331
294.099
295.958
297.502
295.576
287.433
297.248
293.996
295.382
293.199
294.174
297.504
292.76
292.608
293.416
292.773
290.56
294.811
293.355
293.841
293.571
283.15
290.091
292.47
293.606
293.401
293.17
293.277
292.305
293.099
293.712
293.275
295.596
298.739
292.845
302.763
301.085
303.15
293.804
294.233
293.402
295.417
293.445
295.139
293.735
293.677
292.105
302.515
283.15
298.128
290.009
294.439
292.76
300.338
292.961
288.348
300.868
287.186
290.682
290.295
292.99
283.118
291.997
289.974
282.397
293.564
293.486
293.61
296.773
292.321
284.913
291.387
302.411
292.654
292.301
297.371
303.182
293.036
291.65
294.851
290.943
292.733
293.497
293.225
284.313
293.245
294.577
293.099
293.177
291.424
293.448
293.84
293.039
292.965
293.588
300.292
293.151
293.539
293.597
294.659
300.416
290.234
293.59
292.965
298.932
293.376
292.402
293.477
283.222
283.15
297.237
293.225
285.054
297.046
283.144
291.989
292.085
298.614
293.577
292.452
290.667
293.317
283.15
283.149
292.381
293.23
282.637
291.915
292.099
292.432
303.151
293.612
293.217
293.679
285.986
293.089
292.385
292.095
297.347
286.007
283.74
293.364
284.417
283.285
293.775
293.675
293.81
292.322
284.35
293.842
293.375
289.463
297.403
287.138
291.302
291.97
293.572
295.7
292.823
296.351
293.145
293.339
293.345
296.782
292.735
303.15
287.469
295
285.606
293.843
285.806
292.045
296.629
287.996
293.068
303.15
286.251
292.077
288.23
285.275
285.176
290.772
285.462
288.549
291.904
294.531
295.593
292.601
289.251
294.608
294
293.044
294.637
293.006
293.063
293.931
288.535
299.565
288.965
288.39
287.417
292.954
286.461
302.412
291.907
295.18
292.964
293.449
294.845
291.019
291.257
293.362
293.455
295.856
283.15
292.506
291.779
293.251
283.15
283.15
302.581
296.429
286.876
293.379
293.616
294.452
293.925
303.105
283.15
292.347
293.455
294.412
292.454
292.757
293.443
292.133
284.083
299.055
291.815
293.568
291.557
293.929
290.924
293.923
300.085
292.614
299.593
291.836
299.152
299.222
302.342
302.08
299.499
299.684
299.541
289.064
293.378
292.459
291.828
292.881
288.853
293.554
294.176
290.624
292.554
285.592
292.304
292.824
291.586
290.019
293.517
291.232
301.035
293.606
299.969
301.463
289.118
293.458
293.755
291.982
290.324
299.056
290.776
292.415
293.639
292.126
283.15
292.03
292.1
293.184
293.889
292.968
292.122
290.844
292.779
290.851
292.178
293.903
293.116
292.829
292.121
297.39
293.437
291.735
293.319
292.636
292.185
295.944
283.15
292.866
293.088
292.13
293.626
290.96
293.085
292.853
293.007
301.891
302.257
294.632
293.48
301.087
304.627
292.447
302.207
302.152
293.469
292.457
292.987
293.157
302.345
294.184
292.907
293.12
302.343
293.525
293.69
292.607
292.479
292.781
294.119
293.207
303.081
293.484
296.165
292.787
292.505
292.551
292.544
293.104
292.496
290.52
292.51
293.152
293.049
293.035
294.124
293.049
299.276
292.821
292.67
293.22
287.065
301.446
293.436
301.1
291.149
300.531
293.207
301.544
283.15
298.683
293.283
290.92
290.42
296.686
298.662
297.844
294.225
292.807
293.574
300.209
292.813
291.797
298.938
292.834
283.151
292.944
284.223
299.032
287.928
299.049
291.656
293.101
293.784
295.783
293.198
293.253
292.674
296.74
289.173
295.226
292.976
297.347
292.86
292.882
298.137
297.085
291.277
291.781
297.145
290.279
287.466
297.55
298.817
303.15
292.208
285.567
293.557
304.302
291.276
287.627
296.083
283.15
296.476
283.15
291.653
294.774
297.5
293.028
292.29
293.739
292.175
292.225
293.893
294.096
301.825
283.15
296.492
286.162
297.305
292.653
294.452
292.659
301.913
294.085
295.006
294.911
288.694
295.609
300.136
292.674
292.647
293.461
293.612
299.379
296.648
292.566
292.557
290.75
292.794
294.537
294.229
303.144
295.587
295.697
290.639
299.186
290.291
293.489
303.15
293.349
283.15
293.307
293.316
286.953
294.934
292.376
293.182
292.325
291.1
283.15
293.514
287.949
292.805
294.371
291.284
292.812
289.711
293.408
298.273
295.802
300.583
291.786
293.4
293.019
294.067
284.594
296.426
297.115
292.21
296.634
293.731
296.617
297.107
300.251
295.158
294.382
290.558
292.72
292.736
303.106
303.15
292.878
295.387
290.319
293.446
292.979
303.15
303.15
293.942
294.789
293.442
295.1
295.233
287.268
295.089
294.703
295.179
295.235
295.841
289.764
291.714
292.533
298.63
293.481
293.971
293.042
292.967
302.516
290.591
293.619
292.562
294.03
292.964
283.15
292.827
292.348
292.963
293.986
291.639
293.242
302.711
293.252
293.245
298.258
295.644
303.15
288.092
297.62
300.902
293.645
292.391
295.837
295.993
293.486
294.073
293.255
294.738
292.652
292.947
291.693
296.368
292.358
293.711
297.258
293.394
297.04
293.499
292.401
293.087
293.106
293.45
294.056
295.569
295.034
293.495
300.814
295.225
292.184
292.245
293.243
293.376
293.272
293.1
292.348
289.485
293.28
291.997
303.15
293.493
293.549
294.244
294.709
292.805
293.259
302.449
295.143
297.432
289.864
289.798
293.275
293.464
293.789
293.697
294.151
290.412
293.449
293.293
293.343
292.916
293.006
293.459
293.354
292.958
294.259
295.602
285.174
291.732
291.993
294.498
294.384
293.147
295.974
295.666
295.903
295.667
295.001
295.664
293.42
295.394
295.332
290.223
292.139
291.501
295.211
293.123
294.781
293.028
302.966
294.684
295.688
296.878
285.489
295.171
290.263
285.423
293.311
290.269
293.732
292.034
282.85
293.295
295.034
292.764
292.888
300.069
297.318
283.146
297.866
292.748
300.963
290.299
293.522
293.243
293.577
301.328
296.124
293.604
291.778
295.25
293.153
283.15
294.646
292.584
293.591
293.08
295.622
292.577
293.196
292.313
293.255
293.671
291.951
295.035
292.805
290.914
293.239
293.396
291.121
293.483
290.418
289.474
292.984
296.968
293.222
297.63
286.655
293.321
299.373
290.195
293.372
303.202
293.392
292.771
293.292
294.596
293.039
283.15
289.773
293.35
293.144
294.368
292.631
290.821
291.367
287.302
290.106
297.476
295.796
293.541
297.286
283.597
292.694
288.657
303.15
297.601
293.006
292.286
292.77
294.26
293.111
294.306
292.828
298.15
290.126
303.15
290.129
289.598
287.552
289.975
289.549
291.987
286.347
303.15
292.122
289.723
286.577
292.771
292.837
292.436
293.041
289.995
296.715
293.363
293.244
292.818
293.843
293.767
301.588
292.632
288.656
292.76
293.504
296.617
292.534
294.979
293.392
300.9
292.987
292.829
294.082
293.364
293.877
286.226
295.417
293.769
295.902
293.477
293.826
293.605
302.445
293.041
293.372
295.442
303.115
293.147
294.445
283.15
293.813
296.742
289.412
293.299
291.567
293.657
295.696
293.554
293.878
295.699
294.576
296.633
293.323
293.732
292.996
293.654
303.15
293.604
293.344
293.567
292.848
293.725
293.283
292.981
292.644
287.504
283.185
292.539
293.898
293.071
293.68
290.309
294.443
293.666
293.455
292.83
293.314
293.212
293.271
292.976
292.975
292.975
294.287
293.333
293.402
293.125
294.408
292.377
298.844
290.598
293.749
296.544
293.658
293.778
296.895
297.081
296.912
293.345
292.751
291.795
292.288
293.659
292.909
297.215
287.572
301.634
293.571
292.285
293.775
293.103
292.925
291.73
291.549
293.334
291.699
292.808
293.579
287.024
294.358
288.456
295.19
292.988
292.004
293.542
293.205
293.024
283.15
283.15
292.893
290.048
296.738
293.08
293.184
293.038
292.991
293.206
290.951
296.125
293.561
291.741
283.15
293.704
293.592
291.631
291.003
286.696
287.821
288.538
291.265
291.32
297.693
294.159
294.193
294.444
300.989
285.036
295.932
294.457
285.065
284.945
293.019
293.201
290.684
291.433
296.452
293.161
283.15
291.205
293.438
297.509
285.032
293.645
291.136
295.809
296.928
289.216
292.231
293.932
300.241
293.378
301.679
294.03
292.719
292.56
293.825
293.449
294.117
291.094
293.667
284.087
291.122
293.646
292.663
294.003
293.472
293.004
293.337
293.484
293.718
292.341
293.037
283.709
292.133
293.159
293.942
293.63
284.784
292.071
293.449
283.15
293.384
294.179
294.108
293.485
293.375
293.756
293.201
293.669
301.231
283.576
292.911
288.408
283.15
293.535
288.454
293.535
293.434
293.874
283.15
293.071
293.246
293.302
283.15
293.906
293.236
293.439
292.896
293.818
286.961
293.967
293.467
293.376
293.319
292.784
293.968
292.789
294.097
283.15
293.355
292.961
293.417
293.225
294.244
293.189
293.873
293.721
287.007
293.672
293.443
294.578
294.164
294.021
294.108
294.466
293.462
290.614
294.086
293.624
292.171
294.145
293.776
294.205
293.399
302.494
294.507
295.233
297.194
293.364
295.384
293.392
292.839
283.15
293.666
293.341
295.685
293.322
291.749
296.672
293.529
290.916
298.88
292.078
291.804
290.552
290.809
294.234
292.68
292.627
293.451
283.15
293.318
292.678
292.591
292.607
292.606
292.519
293.395
293.638
293.764
293.342
293.661
293.749
293.477
293.341
293.155
292.22
292.815
293.474
292.425
292.488
293.467
293.088
293.384
295.007
292.967
292.64
294.629
294.112
293.608
294.377
292.64
293.645
293.575
293.72
293.45
284.884
293.72
292.79
292.966
292.901
283.724
293.207
293.321
283.216
284.917
283.15
293.4
293.45
283.745
293.165
293.121
283.15
284.997
290.099
293.367
293.457
292.738
293.801
294.096
294.194
294.096
294.114
294.163
293.272
293.418
293.35
285.3
293.47
289.569
285.504
285.344
290.979
293.996
293.65
293.291
294.118
294.045
294.463
292.975
290.281
293.521
293.587
293.664
291.618
294.141
293.394
293.609
294.29
293.889
293.501
293.625
294.037
293.478
291.418
293.592
293.367
293.836
294.353
293.048
293.592
283.15
292.661
293.152
293.341
293.491
290.627
293.972
292.308
289.989
293.414
293.606
293.165
292.669
288.736
291.641
289.233
301.694
295.523
289.026
293.263
292.797
296.053
293.459
292.965
290.26
293.126
289.024
293.44
291.68
293.279
296.345
288.943
303.15
293.521
293.384
294.049
288.741
295.6
291.086
293.787
290.807
290.979
300.439
283.21
290.837
295.201
293.574
293.784
293.524
290.607
294.363
293.773
293.093
293.62
291.43
293.564
289.676
291.998
293.975
283.15
284.9
289.16
291.542
293.797
291.372
292.735
292.616
292.634
293.569
285.765
287.986
292.509
293.69
293.702
294.261
303.15
292.61
293.654
296.835
303.15
288.267
293.288
294.028
293.275
290.409
291.728
292.652
288.985
294.027
292.687
285.253
295.333
283.15
293.666
293.24
293.585
293.444
293.541
294.197
293.55
293.763
293.143
293.87
299.041
292.601
292.029
292.15
294.899
292.313
292.775
286.517
293.017
294.089
292.391
303.15
293.625
293.611
283.196
292.35
293.228
293.522
291.237
293.421
293.102
293.055
293.843
293.44
294.737
293.441
292.664
291.901
293.304
291.785
293.436
293.56
293.59
293.422
294.368
293.427
293.968
293.315
294.054
293.954
294.062
293.122
293.08
293.21
292.327
293.728
293.46