/*--------------------------------*- C++ -*----------------------------------*\
  =========                 |
  \\      /  F ield         | OpenFOAM: The Open Source CFD Toolbox
   \\    /   O peration     | Website:  https://openfoam.org
    \\  /    A nd           | Version:  10
     \\/     M anipulation  |
\*---------------------------------------------------------------------------*/
FoamFile
{
    format      ascii;
    class       surfaceScalarField;
    location    "15";
    object      phi;
}
// * * * * * * * * * * * * * * * * * * * * * * * * * * * * * * * * * * * * * //

dimensions      [0 3 -1 0 0 0 0];

internalField   nonuniform List<scalar> 
109758
(
-3.32197e-06
0.00121994
-0.00121662
-0.00125144
0.00128762
-3.61811e-05
0.000104221
-0.0011485
0.00104428
-0.00144016
8.76261e-05
0.00135253
0.00146237
-0.000168193
-0.00125762
-3.65581e-05
-0.000405291
0.000396322
8.96823e-06
-0.00110453
-6.74666e-06
0.00111127
0.00202414
-0.00025621
-0.000384903
-0.00138303
-2.37236e-05
0.000849383
1.44495e-05
-0.000840109
0.000466422
-7.22157e-05
0.000596562
-0.000990769
-3.94947e-06
0.000586485
-0.000582535
0.00187364
-0.00152641
-0.00143817
0.00109094
0.000320904
0.00125913
-0.0014378
-0.000142232
0.00118868
-0.00121959
3.09132e-05
-0.00097387
0.00110832
0.00132793
0.000691332
-0.000946113
-0.000684554
0.000939335
0.00082001
-0.00157396
0.00140365
-0.000649697
0.00148426
0.000242258
-0.00110146
-0.000625056
0.00149892
0.000227885
-0.00121064
-0.000516164
-0.00143336
0.000170282
-0.00010819
0.00137127
0.000215597
-0.000290359
7.47618e-05
-2.66285e-05
-0.00119636
0.000285906
0.000937086
-0.000275597
0.000846988
-0.000571391
0.000251248
-0.000301533
0.00102946
0.00116215
0.000420188
-0.000405386
-0.00117695
1.76793e-05
0.000563387
0.000903195
0.00124104
0.00151588
-0.0019413
-0.000815623
-0.00109087
0.00108149
9.3804e-06
3.44404e-05
0.00112771
0.00149188
-0.00102638
0.000795248
-0.00126075
-0.00146055
0.00152928
-8.42868e-05
1.55492e-05
-4.98746e-05
0.000604439
-0.000554564
-1.44974e-05
0.000898692
-3.4795e-05
-0.0008494
-0.000827074
0.000823841
3.23341e-06
-0.000123627
-0.00131776
0.0011051
0.000336286
-0.00115966
0.00212065
-0.000718731
0.000577862
0.000170692
-0.000748554
0.000198017
0.00103916
-0.00147366
0.000236476
-0.000252541
-0.00111751
7.93079e-06
0.00136212
0.0011407
5.33545e-06
-0.00114603
0.00167615
-0.00110626
0.00073509
-0.00130499
-0.000392233
-0.000504917
0.000676485
0.000220665
-3.4383e-05
3.32651e-05
0.00167727
-0.00144824
0.00142549
1.3126e-05
9.61808e-06
0.000796994
-0.000798019
1.02484e-06
0.000330774
-0.00215013
-0.000329394
0.00214875
0.000997294
-0.000282399
-0.000251135
-0.000463761
-0.00111406
0.00138986
-0.000195509
-8.02899e-05
1.67808e-05
0.00102378
-0.00104056
-0.00224767
0.000142398
0.000187904
0.00191737
0.00107898
-0.000522027
0.000519571
-0.00107652
0.00039865
0.000616323
1.42707e-05
0.00139911
-0.00141338
-0.00105865
0.0010623
-3.64601e-06
-0.00121986
0.00125431
-0.000329402
-0.00175318
-0.000430489
0.00251307
-0.00228304
0.00318336
-0.000667149
-0.000233174
-0.00111472
0.000983561
0.00117125
-0.0010401
-0.0018037
0.000708628
-5.92337e-05
0.00115431
-0.00071868
0.000264254
0.000646202
-0.000191776
-0.00149348
0.00142197
7.15159e-05
-0.00323397
0.000189594
0.00163142
0.00141295
-0.000314018
0.00130134
-0.00124953
0.000262207
0.00156817
0.00151316
-0.00189056
-0.00113758
0.00151499
-0.00190175
0.000922404
0.000514607
0.000464738
0.00139259
-0.00153983
-0.000857901
0.00100514
-0.0014758
9.86245e-05
0.000348834
0.00102834
-0.00112234
-0.000798571
0.000445106
0.00107494
-7.64821e-05
-9.37047e-05
-0.000904755
0.00100615
-0.000590998
0.000373688
-0.000788836
0.00141781
5.19484e-05
0.000602069
-0.00207183
-0.000520688
0.000192556
0.000328131
-0.00211766
0.00134746
0.00158097
-0.000810767
0.000803014
-0.000759571
-4.34436e-05
-0.000626792
0.00019902
-0.00168989
0.000106471
-0.000881505
-0.000283618
-0.000269935
5.64246e-05
-0.000862428
0.00107594
0.00174155
-0.00158205
-0.00033319
0.000173689
-0.00170469
0.00153673
-0.0010519
0.00119868
-0.000811445
-0.00100365
0.000616411
-0.000650377
0.00269757
-0.00134903
-0.00069817
-0.000152296
8.22718e-05
0.00152944
-0.00145941
3.64526e-05
0.00216834
0.000227511
-0.00243231
0.000866504
-0.00157304
-0.000132484
0.000839022
0.00123882
-0.000233149
-0.000899199
0.000128772
0.000991342
-0.00135853
0.000238419
0.000543956
0.00204854
0.000129718
-0.00272221
0.000962315
-0.0011348
0.000180465
-7.97802e-06
0.000654985
0.000736182
-0.00276444
0.00137327
0.00093328
-0.000103596
6.15146e-05
-0.000891199
0.00199531
-0.00149656
-0.00297409
0.00247533
0.00169207
-0.0019047
0.000844465
-0.000631833
2.06375e-05
-0.00159245
0.0014638
0.000108015
0.00164713
-0.0011532
-0.000363381
-0.000130555
0.000889337
2.074e-05
-0.000910077
-0.00170131
0.000294337
0.0011875
0.000219473
0.00111396
0.000743722
0.000571049
-0.00242873
0.000919569
-0.00165856
0.00114788
0.00249095
-0.00144435
-0.00219448
0.000917731
1.83866e-06
-0.00036778
0.00119408
0.0011988
-0.0020251
0.00105184
0.000300425
-0.000148946
-0.00120332
8.12686e-05
0.000922201
-0.00100347
0.00141359
-0.000116695
5.53649e-05
-0.00135226
-0.000577879
-1.8954e-06
0.000579774
-0.00132422
0.00102167
-0.000798916
-0.000237581
0.00179584
-0.00188869
0.000330433
0.000431853
-0.000362715
-0.00145282
0.00138368
0.000287594
-0.000293291
-0.000681619
0.000687317
-0.000368769
-0.000988972
0.00123651
0.000121228
0.000448361
-0.00121999
0.00126929
-0.000497666
0.000928136
0.000283932
-9.27639e-06
-0.000549471
-9.87658e-05
0.000657513
0.000179682
0.000353316
-0.00203754
0.00150455
-0.00131196
0.000166943
0.001348
-0.000202975
0.000973382
0.000158438
9.87674e-05
-0.00123059
0.000205121
0.000768261
0.00143152
0.000288307
-0.00156139
-0.000766625
-0.000873107
0.00130306
0.000336671
0.00135751
0.000183922
0.000199232
-0.00174067
-0.00146959
0.00125649
-0.000412291
0.000625392
0.00134608
0.000290563
-0.00104591
0.00117773
-0.00108712
0.000955308
0.00146421
-0.000211314
-0.000286704
-0.000966195
4.03429e-05
-0.0016061
0.00174124
-0.000175486
-0.00152915
-3.69693e-05
-0.000422078
0.0019882
0.00093875
0.000505945
-0.00148563
4.09348e-05
-0.00101865
9.48594e-05
0.000894659
2.91347e-05
0.000184088
5.72735e-05
-0.00188124
0.00163988
-0.00093086
-6.22084e-06
0.000937081
0.000193277
0.00133102
-0.00134021
-0.00106144
0.00142137
-0.000773905
0.000413975
-0.00121276
-0.00077794
0.00157834
0.000412356
0.0012743
0.000244388
-0.000722801
-0.000795882
-0.00200612
-2.80066e-05
-0.000284074
0.0023182
-0.00129336
-0.000777655
0.000566066
0.00150495
0.00177652
-0.0017408
-0.000112061
7.63381e-05
-0.00026371
-0.000788721
-0.000700753
0.00146049
0.00108179
0.000271288
-0.00281357
0.00211411
0.000267348
-0.002345
0.000214616
0.00110559
-0.00132021
3.51464e-05
-0.00108734
0.00105219
-0.00103161
-0.000214596
0.000197291
0.00104891
9.21184e-05
0.0013461
-0.00128352
-0.000154698
-0.00221988
-0.000254824
0.000576745
0.00189795
0.0012262
-0.00129735
0.00110908
-0.00103793
0.000159863
0.0001433
0.000923042
-0.000874764
0.000848375
2.63883e-05
-0.00092045
3.03536e-05
0.00133357
-0.000443472
0.000264269
-0.000672321
-0.000492629
0.000900682
0.000674473
-0.000702095
2.76221e-05
-0.000962551
0.000910883
-0.000218267
-5.07214e-05
-0.00101227
-1.04695e-05
0.00107346
0.00171266
-0.000192137
-0.00108699
-0.000433532
-0.000409063
-0.00186941
0.00250994
-0.000231475
-0.00162337
0.000562336
-0.00135704
0.00151532
-0.000158272
-0.000731806
0.000659259
-0.00102734
0.00109989
0.000547792
-0.000670696
-0.000497651
0.000620555
-0.000920509
-0.00126275
0.0010016
0.00118166
5.03441e-05
0.00141168
-0.000140231
-0.0013218
-0.000358524
0.00170976
-0.000286433
-0.0010648
-0.00159303
0.00134712
-9.6566e-05
0.000342483
-0.00117036
0.000933482
-0.00100789
0.00124477
0.00121608
6.3536e-06
-0.00122243
-0.00180152
0.000389294
0.00176106
-0.000346068
0.00142246
-0.00107639
8.80528e-05
0.00143498
-0.00152303
0.000197542
0.00123511
-0.00189281
0.000460162
-0.000951464
-0.000989068
0.00106159
0.000878938
0.000695039
-0.000200228
0.000511335
-0.00142022
0.00148315
-3.78373e-05
-2.50869e-05
-0.00141775
1.39226e-05
-1.63929e-05
0.000752124
-0.000450858
0.00184939
-0.00215066
-6.85792e-05
0.001806
-0.00173742
-0.00118323
0.000849688
-6.61716e-06
0.000340162
-0.00090239
-0.00109829
0.00200068
-0.00067468
-0.000253294
0.000927974
0.00100447
1.24995e-05
-0.00101697
-0.00159622
-2.5735e-05
0.00131302
0.000308929
-0.000461578
0.000638521
0.000839042
-0.00101598
-0.0017675
0.000484135
0.000821786
0.00172096
-0.00271222
0.00057575
0.000415502
-0.00145002
0.00146343
-3.99954e-05
2.65759e-05
0.00193051
-0.00192975
-1.60144e-05
1.52515e-05
-0.00109047
1.54014e-05
0.000268914
0.00080615
7.66131e-05
-0.00113745
0.00106084
-0.0012331
-0.00175078
0.00118758
0.0017963
0.000149167
0.00161301
-0.000747115
-0.00101506
2.0483e-05
-0.00155876
-2.3469e-05
0.00156174
0.000255842
0.00139856
0.00032979
-0.00198419
0.000203701
0.0013979
-0.00147263
-0.000128966
-7.50496e-05
-0.00109298
0.00137173
-0.00089496
-0.000757966
0.000385092
0.00126783
0.000842219
4.82484e-05
-0.000890467
0.00135842
0.00130376
-0.00157398
-0.0010882
1.6992e-05
-0.00108206
0.00106507
0.000302643
0.00013231
5.91843e-05
-0.000494138
-0.00142094
-2.28326e-05
0.00047002
0.000973748
-0.00104628
-0.000536661
0.00158294
0.000845239
-0.00110981
0.00039334
-0.000128773
-0.0014687
0.000185103
0.00133989
-5.62948e-05
-0.00147951
0.00179818
-0.00141271
0.00109404
-5.87551e-06
-0.000889085
-0.0011406
0.00110858
3.20136e-05
-0.0014791
-0.000770863
0.000146053
0.00210391
-0.000136938
0.00130389
-0.00116695
0.00103704
-0.000814661
-0.000222379
0.000925152
-0.000931028
-0.00111097
-1.09098e-07
0.00111108
0.000508718
0.00138644
-1.32555e-05
-0.0018819
-0.00113537
0.000172914
0.000962455
-0.0012633
-0.00044459
0.0013158
0.000392084
-0.00191134
0.000263175
0.00186525
-0.000217082
0.000944974
-0.00091763
-2.73442e-05
-0.000726506
-0.00101894
0.00390973
-0.00216428
-0.00148294
0.00054312
-0.000373451
0.00131328
-0.000751046
-0.000179521
-0.00117543
0.002106
-4.10404e-06
2.61249e-06
0.00130674
-0.00130524
0.000707565
-0.00209626
0.00285925
-0.00147056
-0.00121709
0.00121299
0.00155648
0.00040099
-0.00190693
-5.05377e-05
0.0010854
0.000148263
-0.00136272
0.000129056
0.000948004
0.000444548
-0.00159068
0.000198128
0.000903817
0.000181583
-0.000542162
0.00169185
-8.95964e-05
-0.0010601
0.000326154
-0.001486
0.00190049
-0.000740643
-0.00167288
0.000122231
-3.29769e-07
0.00155098
0.000973445
0.00374455
-0.000594079
-0.00412392
0.000450117
0.000343073
-0.000596678
-0.000196512
0.000310202
0.00112442
-0.000508478
-0.000926143
-0.000905637
0.000884624
-0.000521148
-5.3422e-06
0.00169217
5.02637e-06
0.00133552
-0.00135065
0.000214373
-0.000199246
0.00031583
-0.000105208
0.000805326
-0.00101595
-0.00130083
0.00126681
0.000182284
0.000392397
-0.000768532
-0.000880147
0.00125628
0.000542688
0.00150874
-0.00150747
0.00113047
-0.00148089
0.000200281
0.000150143
0.00111221
4.19668e-08
-0.00111225
0.00242768
-0.00249763
0.00202024
-0.00195029
0.000370494
-0.000955011
-0.000476665
0.00106118
0.000384902
0.000204412
-0.00163482
0.00097406
-0.00058138
0.00124214
-0.00200295
0.000451503
0.00168613
-0.000134685
-0.0015618
-0.000862527
0.00313189
-0.000160525
0.00191842
-0.000634311
-0.00112359
0.000924856
-0.000466791
0.00171218
-0.00217024
0.000184344
-0.000869548
0.000740366
-5.51624e-05
-0.000383368
-0.00125731
0.00144462
0.000196064
0.00108159
-0.000611689
-0.00044009
-2.98079e-05
0.000548579
0.00022972
0.000291137
-0.00106944
-0.0007762
0.000995592
-0.000219391
0.000888884
-0.000827903
0.000123364
3.09075e-05
-0.00135781
0.0013269
0.00104495
-0.00121762
-0.000210692
0.000264939
0.00118309
-0.000265529
-0.0011825
-3.77125e-06
-0.000962453
0.000966224
0.000525121
0.00161289
-0.000883514
-0.0012545
-8.56407e-05
-0.000628648
-0.00042359
0.00113788
-0.000294767
-0.00162189
1.0818e-05
0.00190584
-0.00102899
0.000416749
0.00125812
-0.000645883
7.64129e-05
0.000968534
-0.000859179
0.000935591
0.000926081
0.000247553
9.9862e-05
-0.0012735
-0.000488975
0.00218825
-0.000142796
-8.91525e-05
-0.000621677
0.000566715
0.000144115
-0.000206201
0.00243571
-0.000115408
0.00197639
-0.00102637
-0.000424899
0.00225355
-0.000275422
-0.00120938
0.0018073
-0.00032249
-0.0022804
0.00191534
0.000937005
-0.000571945
5.7562e-05
0.00104842
0.000870416
-0.00100445
-0.0013195
0.00139309
-0.000717027
-0.000989241
0.00191143
-0.00020516
0.000740257
0.000842143
-0.0015824
2.62958e-05
0.000168943
0.00222561
-0.00242085
-0.00117369
0.000991745
0.0014415
-0.00125956
0.00135769
-0.00214584
0.00172485
-0.000936699
0.000449863
-2.28572e-05
-0.000427005
-0.000923732
-0.000516899
0.000172066
0.00126856
-0.000473346
-0.000678601
8.95025e-05
0.00117062
-0.000968707
-0.000291413
0.000984248
-0.00102507
4.08268e-05
0.000109499
-0.00130617
0.00137834
-0.000181673
0.00114618
-0.002829
0.00139831
0.000284517
0.00065518
-0.000873947
0.000218768
0.000867424
-0.000111105
-0.000859782
0.000103463
-0.000174191
-0.00287328
0.00259373
0.000453739
-0.00113396
0.000195306
0.00132095
-0.000382302
-0.00118314
3.77341e-05
0.0011454
0.00118337
0.000199874
0.000785097
-0.000589837
-4.8965e-05
0.00152769
0.00010305
-0.00168371
0.00140647
-6.42179e-05
0.00116722
-0.00110301
-0.000816389
0.000505477
0.00135408
-0.00104317
-0.00018548
0.00155143
-4.41581e-05
-0.00132179
-0.00018771
0.0014444
-0.000976477
-0.000280217
-0.00100239
-2.24608e-05
0.00118126
-0.000156415
0.000832599
-0.00174011
0.000949718
-4.22041e-05
-0.000891557
0.000696977
-0.000716482
0.000911062
0.000863737
3.41372e-05
-0.00010088
0.000131958
-0.00125807
-0.00030306
0.00142918
-0.000258031
-0.0013824
0.000617765
0.00102266
0.000493273
-2.0922e-05
0.00113395
0.000274832
-0.00138786
0.000582776
-0.00041098
0.00117339
-0.00134519
-0.000751647
0.000931524
0.00124355
-0.00142343
0.00203364
0.000510414
-0.00205078
5.35339e-07
-0.00120906
0.00120852
7.51466e-06
-0.00122599
0.00127466
-5.61899e-05
2.39309e-05
0.00131018
-0.00117811
-0.000156007
0.000394341
-0.00198937
-6.49563e-05
0.00165999
-0.00110073
0.00132092
-0.000220188
0.000201846
-9.21725e-05
0.00132369
-0.00143337
-0.00102586
0.000227837
-0.000708901
0.0010735
-0.00143053
0.00106594
-0.000327222
-8.10769e-05
0.000408299
0.00323989
-0.00158084
-0.000703581
-0.000955468
0.00130459
0.00334286
-0.00140756
0.00216038
-0.00199867
0.000188835
0.00110093
-0.000852259
0.00121911
-0.000386498
1.96455e-05
-0.000257037
4.8058e-05
0.00178995
-0.00125075
0.000470978
0.000960417
-0.000180647
-0.0010523
0.00174151
0.000130797
0.00122116
-0.00139798
0.000708538
-0.000531721
0.000181332
0.00245277
-0.00243225
0.000735099
6.34414e-07
-0.000735734
-1.823e-07
-0.000956478
0.00095666
0.00170519
0.000137869
-0.000381354
-0.0014617
0.00220993
-0.000712136
-0.000935011
-0.000562787
-0.000139496
-0.00280384
0.000847082
-8.602e-06
-0.000679343
0.000687945
0.00146606
-0.00134486
-0.00132984
0.00120864
0.00106463
0.00044372
-0.00125251
0.000862725
-0.000531783
-0.00131577
0.000984823
-0.00104253
-1.07216e-05
-0.000802127
0.00185538
-0.00158493
-7.02778e-06
0.00159196
0.000992841
9.37897e-05
-0.00105617
-3.04573e-05
-0.00127455
-2.06216e-05
0.00129517
6.4173e-05
0.00107079
-0.00113496
-0.000783493
0.00173647
-0.00012588
-0.000827093
-0.00187951
0.0022632
0.00142718
-0.00181087
0.000901402
0.000769049
-0.000209109
0.00134109
-0.000866603
-0.000265383
-0.000229971
-7.80291e-05
-0.00115596
0.00146396
0.00130478
-0.00114759
0.000912382
-0.00106957
-0.00123924
0.0012898
-5.05624e-05
-0.00150655
0.000252656
0.00129301
-3.91198e-05
-0.00264432
0.000528984
0.00201191
0.000103424
0.000260816
-0.000334692
-0.00130879
0.00138267
0.00190151
0.000181185
-0.00109221
-0.000990491
0.00103489
-0.00078669
-0.00104204
0.00079384
0.00119169
1.22361e-05
-0.00120392
0.000109559
-0.0020257
0.00148246
0.000433684
0.000753165
0.000448692
-0.000300455
0.000273627
-0.000881375
0.00128508
-0.000677329
-0.000545366
0.000529504
-0.000121947
0.000137809
-0.00362669
0.00437355
0.00141049
-0.00215735
0.00182007
-1.16695e-05
-0.00181939
1.09883e-05
9.09802e-06
0.00146345
-0.00157279
0.00010024
-0.00219562
0.00192368
-0.000511559
0.000974379
0.00121972
-0.0011039
-0.0010902
-0.000967719
-6.9497e-05
-0.000105247
0.00114246
0.00100936
5.28922e-05
-0.00106225
0.00128777
-7.08632e-05
-0.0012169
-0.00227602
0.0021446
8.44898e-05
4.69326e-05
7.02384e-05
0.00146845
-7.16765e-05
-0.00146701
0.000909332
0.000458548
-0.00297777
0.00160989
-0.00063065
0.000630643
6.0683e-09
0.000923727
2.27343e-06
-0.000926
-4.62274e-07
-0.00055687
0.000557332
-0.000532846
0.00108282
0.000728355
-0.00127833
3.54091e-06
-0.00114344
0.000897091
0.000242812
-0.00128216
-0.000525812
-0.00046805
2.21622e-06
-0.000887749
-0.000131218
0.00101675
-0.00068738
1.2858e-05
0.000674522
0.000235013
0.000729249
-0.000237594
-0.000726668
0.000502841
-0.000895075
0.000392234
-0.000243249
-0.000833428
-0.000310295
0.00138697
0.000708868
0.000939144
0.000138378
-0.00178639
0.0018587
-0.000675929
-0.000602521
-0.000580252
-6.79079e-05
-0.00153243
0.00178597
-0.00018563
0.000736345
0.000387799
0.000211814
-0.00133596
0.00232134
0.00103414
-0.00217729
-0.00117819
-2.83969e-06
0.000587575
-0.000584736
-0.00137318
4.09027e-05
0.000317679
0.0010146
-0.00134429
-0.000149001
0.00152916
-3.58609e-05
0.000374231
-0.00046808
0.00191392
-0.000476425
0.000629252
-0.000152827
0.000936899
2.68616e-05
-0.00096376
0.000194502
0.000122472
-0.00123702
0.000920044
0.00131821
-0.000129712
-0.00122647
3.7966e-05
-0.00111405
-6.70018e-07
0.000237765
0.000321664
-0.00146031
0.000900878
-0.00135625
9.78294e-05
0.00125842
-5.34142e-05
-0.000948973
-0.000123637
0.00209003
0.000147085
-0.00211348
0.00111689
-0.00118378
6.68925e-05
-0.0011961
0.00118333
1.27692e-05
0.000959737
-0.00108337
0.000262196
0.000876632
0.00108894
-0.00222777
-0.00117332
-0.000640058
0.00181338
-9.35923e-06
0.000835974
-0.000826615
-1.97969e-05
-0.000909488
0.000929285
0.00111439
-0.00110782
-6.5686e-06
-0.00123696
4.76813e-05
0.00124356
-5.42822e-05
0.00030219
-0.00139094
0.00106212
0.000693867
0.000583537
-0.00233847
0.00106106
0.000721241
4.94273e-06
-0.000726183
4.75448e-05
0.00136721
-0.00141475
0.000672057
2.41528e-06
-0.00154114
0.0013718
0.00130036
-0.00113102
-0.000969516
0.000122768
0.00124348
-0.000396735
0.00169552
-0.00244298
0.000590789
0.000156677
-0.00218986
0.00048857
-0.00104594
0.00115629
-0.000110351
2.55938e-05
-0.00115971
0.00113412
-0.00100429
-1.97713e-05
0.00102406
-0.00117461
6.12781e-06
0.00116848
0.00112385
-0.00123219
0.000108342
1.67273e-05
0.00173221
-0.00174894
-0.000256919
-0.000234236
0.00124432
0.00123813
-0.00129365
-0.000884443
0.000939963
-0.000698571
0.000127293
0.00135646
-0.000785181
0.000667802
-0.00157017
-0.000101929
-7.2732e-05
0.00153498
-0.00146225
0.000454907
0.000424169
-0.000580049
-0.000299028
-0.000707863
0.00116058
-0.00139468
0.000941973
-0.00112376
-0.000427429
0.00155119
0.00227589
-0.00140373
-0.00087216
-0.000432122
0.00163541
0.00107104
-0.00227433
-0.00118633
0.00143887
-0.00143569
0.00118314
0.000508856
-0.000382322
-0.000584552
0.000458018
2.12491e-05
-1.35523e-05
-0.00127968
0.00127199
-0.000118448
-0.00180273
0.00192118
0.000404842
5.31149e-05
-0.00152589
0.00106793
-0.00150264
0.0011654
0.000337243
-0.000702812
-0.000351914
0.00101383
4.0896e-05
-0.000989966
0.000985192
4.77425e-06
0.000963618
-0.000814845
0.00120892
-1.0448e-05
-0.00157709
0.00158001
7.5276e-06
0.0030489
-0.000788439
-0.00152981
-0.000730653
-0.000471251
0.00166284
8.03934e-06
-0.00119963
-0.000550112
0.000819142
0.000457343
-0.000726374
-0.00132476
0.000778041
0.00137623
-0.000829506
0.000727484
-0.000868326
-0.000341188
0.0015092
3.98031e-05
-0.00120782
0.000906322
-0.000999504
0.000103617
-0.00213955
2.40808e-05
-2.11323e-05
0.0021366
-0.000297126
-8.38421e-05
-0.000799664
0.00118063
-0.0010856
0.00139634
-0.00110972
0.000798975
-0.00247989
-0.000334579
0.00260827
-0.00160743
2.28417e-05
0.00160918
-2.45898e-05
0.00100649
0.000162803
-0.000678802
-0.000490489
-0.000317232
-0.00123313
0.000655192
0.000895171
0.00106858
-0.000419484
-0.00140835
0.000759259
-0.00138736
-0.000357545
-3.09713e-05
0.00177588
0.00111015
-0.000136276
-0.00101863
4.47635e-05
0.000939821
-0.000943876
4.05497e-06
-0.000745691
0.002427
-0.00201612
0.000334819
0.00015633
0.00143142
-0.00230351
0.000715767
-0.00094619
-0.000308093
0.000994565
0.000259717
0.000330457
-0.000316949
-0.000959698
0.000818495
3.30045e-05
0.000160749
-0.00101225
-8.81885e-05
0.000616326
-0.00266769
-0.0013895
2.89836e-05
0.00178211
-0.000421594
-0.000995097
0.00116081
-0.000165709
0.000489792
-0.000459335
-0.000649099
0.000618642
-0.000700623
-0.00128675
0.00080893
0.00117845
-0.000577165
0.00179591
-0.000661466
-0.000557279
-0.00148188
1.02615e-05
-0.00129723
0.00161742
-3.91913e-05
3.45507e-05
-0.00128139
0.00128603
0.00123752
0.00132702
-0.00141033
-0.00115421
0.000979623
-0.00101031
3.06834e-05
0.00125327
-8.08602e-06
-0.00124518
0.00106985
-0.00124194
0.00035147
-0.000179382
-0.00031242
-0.00091621
0.0022232
-0.00164612
0.00141295
-0.000212969
0.000446148
0.000547124
-0.000744489
0.00176755
-0.00157018
-0.00157573
-0.00114985
0.00187364
0.000851945
-8.45024e-05
-0.00173815
0.000176529
0.000275047
-0.00145049
-1.18052e-05
0.00118725
0.00133599
0.000352008
0.00180856
-0.00158376
-0.00059453
0.00036972
-0.00133466
0.00132481
0.00108041
-0.00107056
0.00101489
0.000503622
-0.00115239
-0.000366126
0.000508493
-0.00111711
0.00092779
-0.000319176
0.0013916
-0.00114083
-0.00181262
0.00156185
0.00146107
-0.00162613
8.05557e-05
-0.000900715
0.000905116
-4.40048e-06
0.000112918
-0.000102333
0.00151224
-0.00180651
0.00170395
-0.00140969
0.00112107
-0.00100816
0.00113775
-0.00122987
-3.76189e-05
0.000129736
-2.44467e-05
-0.000519486
0.000543933
-0.000123568
-0.00103694
0.00124386
-8.33614e-05
0.00191029
-0.00171921
0.00013579
-0.000326866
0.000203989
-0.00226703
0.000183522
0.00169601
-0.00173569
-0.000188009
0.000227692
0.000371549
0.000279056
0.000461246
-0.00111185
-0.000101003
0.00094868
0.000923881
-0.00177156
-8.0406e-05
-0.00117212
-0.000325424
0.00157795
-0.000570259
0.00170886
-0.000464679
-0.000673923
-0.00106851
0.000453181
0.00168519
0.00104553
-0.00211883
0.000232464
0.000840832
-0.000305343
7.15384e-05
0.00192981
0.000313019
0.00142671
-0.000488435
-0.0012513
-5.16283e-05
5.39326e-05
-0.00123855
0.00123624
0.00185861
0.000104449
-1.30836e-05
-0.00194998
0.00103277
0.000452544
-0.000410713
-0.00107461
-0.00112274
-0.000479928
0.000534154
9.19235e-05
0.000648198
-0.000657843
-8.2279e-05
0.000189381
1.64416e-05
-0.00144776
0.00100858
-0.000527315
-0.000136939
-0.000344327
0.000148169
0.000701589
-9.81254e-05
-0.000751633
-0.00112218
0.000962915
0.0012048
0.000744054
-0.00323129
0.000629014
0.00185823
0.000176786
-2.97801e-05
3.30016e-05
0.00127206
-0.00127528
0.00220461
-0.000708038
-0.000732166
-0.000764407
-0.00107597
1.36277e-05
0.0014779
-0.000415566
-0.000135765
-0.00103618
0.00124977
-7.78243e-05
0.00104159
-0.00141996
-0.000694738
0.00107311
-0.000984023
0.00095677
2.7253e-05
-2.89922e-05
0.000952873
-0.000923881
-0.000466428
-0.00109047
-0.00040197
0.00195887
-0.000810609
0.000904349
-9.37405e-05
-0.000152962
-0.00132768
-0.000334602
0.00181524
-0.00234435
0.000864192
-0.00127907
0.00275923
-0.00160491
3.67941e-05
0.00156812
0.000757875
0.000839144
-0.000810991
-0.000786028
0.000976152
-0.000559231
-0.000184668
-0.000232253
0.00130353
2.84397e-05
-0.00133197
0.00124686
-0.00372731
0.000136105
0.000845568
-3.13727e-05
-0.000814195
-0.00144236
-0.000571662
0.00193679
7.72332e-05
-0.000876764
0.00453036
-0.0027741
-0.000879502
-0.00263837
0.00317694
-0.000465445
-7.31195e-05
0.00157682
-0.000909087
0.00219152
-0.000772401
-0.0016825
0.002485
-3.01002e-05
-5.30665e-06
-0.000121181
-0.000678867
0.000805355
0.00148814
0.00190714
-0.00216871
-0.00122658
-0.00152941
0.00180812
0.000496269
-0.000774983
0.0016932
-0.00031088
-0.000662188
-0.000720128
0.000144936
-0.00108525
-0.000188456
0.00112878
-0.00322361
9.95213e-05
0.00164986
0.00147423
-0.000591302
0.00225052
-0.000872505
-0.000786709
0.000382547
-0.000938189
0.00178754
-0.0012319
-0.000193151
-0.000553019
0.00104585
-0.000299676
-0.000917775
0.000976587
-6.26981e-05
3.88546e-06
0.00160117
-0.00180744
-8.67565e-05
0.000293027
-4.87423e-05
-0.00159581
0.00160844
3.6108e-05
0.000130893
-0.000116746
-0.00153122
0.00151707
0.00220687
-0.000362627
9.40594e-05
-0.0019383
-0.00145053
-0.000304961
0.000372502
0.00138299
0.000491613
-0.000491629
1.59059e-08
0.00108928
-0.000741143
0.000726801
0.000226122
0.00208703
-0.000124948
-0.0021882
-0.000332911
0.000223696
0.00027773
-0.000168514
-0.00162869
-0.00202569
0.00292787
-0.00115806
0.00132611
0.00126298
-0.00143103
-6.49866e-05
0.00129234
-0.00163022
0.000402865
-0.0012399
-0.00129667
-8.20022e-05
-0.00033418
0.00171286
-7.03633e-06
-0.000660531
0.000667567
-7.79685e-06
-0.000950349
0.00221599
-0.00125785
0.000650927
0.000916461
0.00163425
-0.000818758
7.64375e-05
-0.00089193
0.000716808
-0.000199379
-0.00119653
0.000679101
0.000900739
4.28026e-05
-0.00137274
0.000429198
-0.000648863
0.000537281
0.00203363
-0.00192205
0.00174173
0.00124548
0.000163242
-0.00315045
-0.00155527
-9.81227e-05
0.000314803
0.00133859
-0.00131043
0.00139558
-8.51487e-05
-9.11257e-05
0.000865387
-0.000129782
-0.000644479
-0.000267959
0.00055118
-0.000283221
0.00109051
0.00155064
-0.000695664
-0.00194549
0.000932971
-0.000933699
7.28555e-07
-0.00264502
0.00061721
0.00147805
0.000549756
0.000107003
-4.74631e-05
0.00128233
-0.00134187
0.00082227
3.38727e-06
-0.000825658
0.00168887
-0.00187511
-0.00120419
0.00139044
-0.00148787
-0.0028734
0.00171626
-0.000290453
0.000187596
0.00119591
-0.00109305
-0.000511296
0.00155527
-0.000163934
-0.000880038
0.000319709
-0.000845467
0.00124257
0.000977451
4.69988e-05
-0.00102445
0.00289449
-0.000699796
0.000172101
-0.00236679
0.00109357
0.000313045
0.000699759
-0.00167179
0.000803468
0.000168562
-0.00176133
4.97806e-05
0.00132086
0.000390687
-0.000328041
-0.000724084
0.000767019
0.000285106
0.00103129
-0.00132771
0.000296413
-0.00036514
-0.000709916
0.00107506
0.000910533
-0.000589636
-0.00103364
0.000712746
-0.000388941
-0.000216772
0.00155649
-0.000950777
-0.000765687
-0.00122388
0.000946786
0.00104278
-0.00150511
0.00137433
-2.52965e-05
0.00015607
-8.66131e-06
-0.000929528
-0.000224839
-0.00081982
0.00103424
1.0418e-05
0.00156691
-0.00147372
0.000428024
-0.000521213
0.00238357
-0.00237149
0.00108148
-0.000415416
0.000456027
-4.06107e-05
-0.000869926
0.000858726
1.12006e-05
-7.87815e-05
0.00109203
0.000373
-0.00138624
-0.000692073
-0.00109072
-0.00042998
0.00221277
-0.000645069
-0.000495918
0.00224031
-0.00109932
0.00111095
0.000297833
-0.00148756
-0.000214187
0.00165264
-0.000751425
-0.000687025
0.000234763
-0.00109125
-0.000478212
0.0013347
-0.000304017
0.000187068
-0.00152201
0.00163896
0.00151883
-0.00109996
-0.000840282
-0.000626435
-0.000186949
0.00165367
0.000452822
-0.000229582
-0.000226825
3.58569e-06
-0.00178125
0.00207802
-0.000211542
-8.52253e-05
0.000581159
0.000641807
-0.000610878
-0.000612087
-0.00024456
0.00126781
2.669e-05
-0.00104994
0.00141604
6.05857e-05
-0.00126539
-0.000211238
-0.000175429
-0.00174091
-0.0004309
0.00234724
-0.000150323
0.00126242
-0.0011121
0.00152472
0.00129493
-0.00173569
-0.00108395
0.00101108
7.62607e-07
-0.00101184
0.000110948
-0.0013306
-0.000332501
0.00155215
0.00238047
-0.000339327
-0.0011188
-0.000922336
3.37562e-05
0.00239317
-4.64608e-05
0.00117484
-0.00112277
-5.20687e-05
-0.000421867
-0.000821486
0.00124335
0.00217502
-0.000580268
-0.00136686
-0.00101734
-0.000994944
0.00167295
9.4502e-05
0.000402615
-0.00157069
0.00107357
5.64351e-05
-0.00135526
0.000847941
0.000450879
-6.80971e-06
0.00118119
6.79861e-06
-0.00118118
-0.000230555
-3.18673e-05
-0.00111855
-0.000294661
0.00141321
-1.92573e-05
-0.000970265
0.000989522
0.00207735
0.000157907
-0.000133373
-0.00210189
0.000869859
-0.00161129
0.000388311
0.000353115
0.000548521
1.3433e-06
-0.000549864
-0.00158309
0.000258336
-6.3952e-05
0.00138871
0.000566595
4.17557e-05
0.00123658
-0.00184493
-0.000580988
0.000627719
-0.001744
0.00169727
0.000174658
-0.00022928
-0.00163534
0.00168996
0.00116339
-0.00108678
-0.00249713
0.000284591
0.000736532
-0.000751322
-0.000762007
0.000776797
-0.000672313
0.000675193
-2.88069e-06
-0.0015982
-0.000565047
0.00239517
-0.000341409
-0.00148871
-0.000930894
-0.000282974
0.00126303
-4.91623e-05
0.000268233
0.00151754
-0.000581074
-0.0012047
-0.00301086
-0.00252628
0.000196502
0.00242149
-9.17115e-05
0.000180051
0.00012966
-0.00104284
0.000733133
0.0016588
-0.00153165
-0.00171208
0.00121646
0.000348011
-0.00156447
0.00173284
-0.000320511
-0.00123948
-0.000172849
-0.00103672
-5.73663e-05
-0.000699524
0.00179361
0.00169823
-0.00143674
-0.000505144
0.000243657
7.43604e-05
0.000527327
-0.00162485
0.00102316
5.26163e-06
0.000884708
0.000135488
-0.00102546
-0.000822766
0.00104773
0.000296149
-0.00052111
1.26176e-05
0.00145348
-1.16189e-05
-0.00145447
-0.00109794
0.00111056
-0.0010232
-1.97794e-06
0.00102518
-0.00166973
-0.000154303
0.0004179
0.00140613
0.00117465
-0.00114862
0.000687402
-0.000713439
0.000289917
0.0010214
-0.00110266
-0.000208665
-0.00141304
0.00206837
-0.000238298
-0.000417038
0.000824206
-0.000787363
-3.68425e-05
1.63546e-05
0.000652505
0.00171471
-0.00138029
0.00117658
0.000506851
-0.00030314
-0.000340574
0.00075888
-0.000418306
-3.47973e-05
0.00118659
-0.00115179
-0.0018597
0.000705324
0.000361837
0.000792539
-0.00333889
0.00243373
0.000921512
0.00248084
-0.000296364
-0.000424171
-0.00176031
0.000992608
0.000121515
0.000634622
-2.94361e-05
-0.000665033
5.98477e-05
0.000686742
-0.000538572
2.68115e-05
-0.00159506
0.00156825
-0.0027531
0.00196855
-0.000874778
0.00211016
-0.00142808
0.000192704
0.00144028
-0.00194799
0.000602209
0.00110776
-0.00202354
0.000390188
0.000525597
-0.00102895
0.0012359
-0.000206958
0.00214755
0.00044965
-5.35433e-06
-0.00259184
-0.0010321
0.00104078
-8.67895e-06
0.00280754
-0.00251665
0.000325434
0.00166231
-5.39759e-05
-0.00160833
0.00119337
-0.00121669
2.33219e-05
-0.00119447
0.000134469
0.00106
-0.000460062
-0.00113028
0.000395868
-0.00244128
0.00160108