/*--------------------------------*- C++ -*----------------------------------*\
  =========                 |
  \\      /  F ield         | OpenFOAM: The Open Source CFD Toolbox
   \\    /   O peration     | Website:  https://openfoam.org
    \\  /    A nd           | Version:  10
     \\/     M anipulation  |
\*---------------------------------------------------------------------------*/
FoamFile
{
    format      ascii;
    class       surfaceScalarField;
    location    "42";
    object      phi;
}
// * * * * * * * * * * * * * * * * * * * * * * * * * * * * * * * * * * * * * //

dimensions      [0 3 -1 0 0 0 0];

internalField   nonuniform List<scalar> 
109758
(
-3.40762e-06
0.00121994
-0.00121653
-0.00125243
0.00128825
-3.58225e-05
0.00010411
-0.00114972
0.00104561
-0.00144001
8.78646e-05
0.00135215
0.00146217
-0.000168288
-0.00125759
-3.62891e-05
-0.000405292
0.000396324
8.96761e-06
-0.00110845
-6.46837e-06
0.00111492
0.00202372
-0.000255888
-0.00038487
-0.00138296
-2.37271e-05
0.000849317
1.44633e-05
-0.000840053
0.000466437
-7.21999e-05
0.00059654
-0.000990777
-3.94184e-06
0.000586479
-0.000582537
0.00187435
-0.00152687
-0.00143882
0.00109134
0.000320907
0.00125913
-0.0014378
-0.000142235
0.00118866
-0.00121942
3.07595e-05
-0.000973853
0.00110807
0.00132796
0.00069139
-0.000946057
-0.000684549
0.000939216
0.000819584
-0.00157364
0.00140328
-0.000649222
0.00148439
0.000242344
-0.00110144
-0.000625299
0.00149994
0.000227967
-0.00121136
-0.000516545
-0.00144002
0.000171262
-0.000108843
0.0013776
0.000215306
-0.000290246
7.49392e-05
-2.64464e-05
-0.00119628
0.000285676
0.000937051
-0.000275601
0.000846475
-0.000570875
0.000251248
-0.000301532
0.00102946
0.00116211
0.000419948
-0.000405292
-0.00117677
1.76927e-05
0.000563472
0.000903227
0.00124142
0.00151636
-0.00194185
-0.000815932
-0.00109121
0.00108142
9.79141e-06
3.44936e-05
0.00112762
0.00149201
-0.00102646
0.000795172
-0.00126072
-0.00146103
0.00152963
-8.42826e-05
1.56863e-05
-4.9931e-05
0.00060447
-0.000554539
-1.46233e-05
0.000898712
-3.4682e-05
-0.000849407
-0.000827321
0.000824288
3.03257e-06
-0.00012361
-0.00131752
0.00110489
0.000336249
-0.00115986
0.00212107
-0.000718869
0.000577888
0.000170971
-0.000748859
0.000198029
0.00103948
-0.00147395
0.000236438
-0.000252293
-0.00111678
8.20383e-06
0.00136087
0.00114058
5.16908e-06
-0.00114574
0.00167385
-0.00110248
0.000734913
-0.00130628
-0.000392233
-0.000504918
0.000676484
0.000220667
-3.41697e-05
3.3327e-05
0.0016747
-0.00144722
0.00142463
1.32343e-05
9.35189e-06
0.000796995
-0.00079802
1.02528e-06
0.000330568
-0.00214993
-0.000329067
0.00214843
0.000997915
-0.000282618
-0.000251233
-0.000464064
-0.00111256
0.00138817
-0.000195416
-8.01952e-05
1.65479e-05
0.00102434
-0.00104089
-0.00224774
0.000142363
0.000187792
0.00191759
0.00107968
-0.000522347
0.000519998
-0.00107733
0.000398924
0.000616684
1.4367e-05
0.00140043
-0.0014148
-0.00105839
0.00106192
-3.52878e-06
-0.00121973
0.00125423
-0.000329702
-0.00175402
-0.000430719
0.00251444
-0.00228279
0.00318364
-0.000667436
-0.000233412
-0.00111405
0.000982945
0.00117057
-0.00103947
-0.00180371
0.000708464
-5.92476e-05
0.0011545
-0.000718606
0.000263624
0.000646165
-0.000191183
-0.00149366
0.00142215
7.15045e-05
-0.0032342
0.000189522
0.00163168
0.00141299
-0.000313853
0.00130122
-0.00124941
0.000262042
0.00156916
0.00151363
-0.0018911
-0.00113799
0.00151546
-0.00190107
0.00092171
0.000514721
0.000464638
0.00139261
-0.00153986
-0.000857909
0.00100516
-0.00147634
9.86018e-05
0.00034907
0.00102867
-0.00112274
-0.000798868
0.000445267
0.00107496
-7.64983e-05
-9.37183e-05
-0.000904747
0.00100594
-0.000590235
0.000373476
-0.000789181
0.00141975
5.1856e-05
0.000602396
-0.002074
-0.000520378
0.000192413
0.000327965
-0.00211822
0.0013476
0.00158095
-0.000810331
0.000803012
-0.000759564
-4.34474e-05
-0.000627634
0.000200114
-0.0016907
0.000106502
-0.000881237
-0.000283657
-0.000270563
5.60099e-05
-0.000860639
0.00107519
0.00174249
-0.0015831
-0.000333483
0.0001741
-0.00170456
0.00153666
-0.00105184
0.00119812
-0.000810966
-0.00100323
0.000616069
-0.000650726
0.00269958
-0.00135003
-0.000698828
-0.000152313
8.22929e-05
0.00152945
-0.00145943
3.64823e-05
0.00216838
0.000227591
-0.00243245
0.000866415
-0.00157235
-0.000132929
0.000838866
0.00123809
-0.00023316
-0.00089843
0.000128794
0.000991284
-0.00135854
0.000238466
0.000543395
0.00204841
0.000129449
-0.00272125
0.000961717
-0.00113393
0.000180335
-8.12096e-06
0.000655166
0.000735484
-0.00276357
0.00137292
0.000933335
-0.00010368
6.16121e-05
-0.000891267
0.00199179
-0.00149349
-0.00296907
0.00247077
0.0016911
-0.00190434
0.000844776
-0.000631545
2.06144e-05
-0.00159272
0.00146396
0.000108137
0.00164645
-0.00115282
-0.000363148
-0.000130489
0.00088953
2.08382e-05
-0.000910369
-0.00170021
0.00029402
0.00118693
0.000219256
0.00111477
0.000743623
0.000571229
-0.00242962
0.000918777
-0.00165727
0.00114789
0.00249095
-0.00144436
-0.00219448
0.000917222
1.55481e-06
-0.000367803
0.00119416
0.00119884
-0.00202519
0.00105175
0.000300507
-0.000148972
-0.00120328
8.11861e-05
0.000922227
-0.00100341
0.0014139
-0.000116765
5.53056e-05
-0.00135244
-0.000577878
-1.89611e-06
0.000579774
-0.00132416
0.00102156
-0.000798835
-0.00023769
0.0017963
-0.00188899
0.000330379
0.000431866
-0.000362756
-0.00145275
0.00138364
0.000287593
-0.000293291
-0.000681616
0.000687315
-0.000368667
-0.000989302
0.00123677
0.000121202
0.000447895
-0.00121946
0.00126888
-0.000497318
0.000927645
0.000283597
-9.27719e-06
-0.00054947
-9.87647e-05
0.000657512
0.000179654
0.000352813
-0.00203714
0.00150467
-0.0013118
0.000166424
0.00134809
-0.00020271
0.000973436
0.000158272
9.90234e-05
-0.00123073
0.000204919
0.000768517
0.00143138
0.000288302
-0.00156141
-0.00076659
-0.000873126
0.00130306
0.000336657
0.00135792
0.000183615
0.000199538
-0.00174107
-0.00146798
0.00125521
-0.000411794
0.000624568
0.00134601
0.000290292
-0.00104593
0.0011783
-0.00108757
0.000955195
0.00146314
-0.000211189
-0.000286419
-0.000965534
4.01719e-05
-0.00160647
0.00174188
-0.000175576
-0.00152862
-3.73066e-05
-0.000421892
0.00198782
0.000938757
0.000505934
-0.00148562
4.09331e-05
-0.00101884
9.44997e-05
0.000894752
2.95854e-05
0.00018419
5.68931e-05
-0.00188289
0.0016418
-0.000930472
-6.11304e-06
0.000936585
0.000193141
0.001332
-0.00134095
-0.00106141
0.00142124
-0.000773872
0.000414048
-0.00121279
-0.000777887
0.00157847
0.000412206
0.00127433
0.000244346
-0.000722688
-0.00079599
-0.00201022
-2.81237e-05
-0.00028297
0.00232131
-0.00129452
-0.000777539
0.000565824
0.00150624
0.00177656
-0.00174075
-0.000112071
7.62663e-05
-0.000263781
-0.000789067
-0.000701172
0.00146079
0.00108168
0.00027113
-0.0028136
0.00211375
0.000267209
-0.00234448
0.000214676
0.00110504
-0.00131971
3.51816e-05
-0.00108864
0.00105346
-0.00103479
-0.000214734
0.000197568
0.00105196
9.21744e-05
0.00134672
-0.0012848
-0.000154091
-0.00221981
-0.000254856
0.00057658
0.00189809
0.00122517
-0.00129632
0.00110858
-0.00103742
0.000159147
0.000143141
0.000922879
-0.000874135
0.000847548
2.65879e-05
-0.000919649
3.01915e-05
0.0013333
-0.000443847
0.00026417
-0.000672346
-0.000492545
0.000900721
0.000674459
-0.000702072
2.76135e-05
-0.00096184
0.000910034
-0.000218758
-5.08553e-05
-0.00101133
-1.05927e-05
0.00107278
0.00171112
-0.000192172
-0.00108598
-0.000432971
-0.00040817
-0.00186736
0.00250692
-0.000231391
-0.00162348
0.000562221
-0.00135685
0.00151492
-0.000158076
-0.000731672
0.000659129
-0.00102716
0.00109971
0.000547792
-0.000670678
-0.000497615
0.000620501
-0.000920566
-0.00126235
0.00100165
0.00118126
5.03289e-05
0.00141125
-0.000139916
-0.00132166
-0.000358644
0.00170977
-0.000286504
-0.00106463
-0.0015925
0.00134662
-9.65349e-05
0.000342413
-0.00117
0.000933189
-0.00100751
0.00124433
0.00121547
6.61224e-06
-0.00122209
-0.00180184
0.000389425
0.00176149
-0.000346298
0.00142256
-0.00107626
8.78693e-05
0.00143504
-0.00152291
0.000197941
0.00123674
-0.00189562
0.000460948
-0.000951419
-0.000989295
0.00106184
0.000878873
0.000694754
-0.000199837
0.000511023
-0.00142027
0.00148348
-3.80936e-05
-2.51207e-05
-0.00141784
1.42698e-05
-1.66955e-05
0.000752004
-0.000450723
0.00184955
-0.00215083
-6.85886e-05
0.0018046
-0.00173601
-0.00118324
0.000849675
-6.5881e-06
0.000340158
-0.000902507
-0.00109827
0.00200078
-0.000674701
-0.000253293
0.000927995
0.00100456
1.25832e-05
-0.00101715
-0.00159606
-2.57501e-05
0.0013128
0.000309012
-0.000461591
0.00063852
0.00083902
-0.00101595
-0.00176741
0.000484042
0.000821775
0.00172085
-0.00271145
0.000575333
0.000415273
-0.00144943
0.00146286
-3.98141e-05
2.6381e-05
0.00193033
-0.00192959
-1.54807e-05
1.47468e-05
-0.00109042
1.53837e-05
0.000269077
0.000805962
7.65201e-05
-0.00113688
0.00106036
-0.00123413
-0.00175213
0.00118831
0.00179795
0.00014898
0.00161164
-0.000746218
-0.0010144
2.03087e-05
-0.0015571
-2.32986e-05
0.00156009
0.000256054
0.00139853
0.000329893
-0.00198448
0.000203758
0.00139805
-0.00147307
-0.000128741
-7.46076e-05
-0.0010938
0.00137217
-0.000894639
-0.000757647
0.000384954
0.00126733
0.000841767
4.83197e-05
-0.000890087
0.00135956
0.00130342
-0.00157461
-0.00108837
1.70002e-05
-0.00108189
0.00106489
0.000302738
0.000132146
5.92876e-05
-0.000494172
-0.00142036
-2.28213e-05
0.000469865
0.000973318
-0.00104628
-0.000536698
0.00158298
0.000845654
-0.00111033
0.000393885
-0.000129214
-0.00146892
0.000185115
0.00134022
-5.64238e-05
-0.00147997
0.00179845
-0.00141286
0.00109437
-5.8708e-06
-0.000888768
-0.00114273
0.00111069
3.20368e-05
-0.00147858
-0.000770735
0.000146017
0.0021033
-0.000136581
0.0013004
-0.00116382
0.00103752
-0.000815771
-0.000221744
0.000924974
-0.000930845
-0.00111201
-1.47716e-07
0.00111216
0.000508606
0.00138601
-1.3399e-05
-0.00188122
-0.0011355
0.000173028
0.000962473
-0.0012633
-0.000444587
0.00131581
0.00039208
-0.00190955
0.000262469
0.00186418
-0.000217102
0.000944245
-0.000916825
-2.742e-05
-0.000726206
-0.00101924
0.00390928
-0.00216383
-0.00148232
0.000543024
-0.000373411
0.0013127
-0.000750798
-0.000179452
-0.00117523
0.00210548
-4.23117e-06
2.66688e-06
0.00130693
-0.00130537
0.000707423
-0.00209596
0.0028591
-0.00147057
-0.00121625
0.00121202
0.001557
0.000401067
-0.00190723
-5.08376e-05
0.00108535
0.000148532
-0.00136328
0.000129389
0.000950355
0.000445371
-0.00159418
0.000198453
0.000903629
0.000181725
-0.000541817
0.00169141
-8.92291e-05
-0.00106036
0.000326677
-0.00148647
0.00190081
-0.000741023
-0.0016724
0.000121809
-4.75401e-07
0.00155107
0.00097313
0.00374471
-0.000594051
-0.00412379
0.000450126
0.000343069
-0.000596687
-0.000196508
0.000310159
0.0011236
-0.000508276
-0.00092548
-0.000905609
0.000884283
-0.000520491
-5.05403e-06
0.0016915
4.95665e-06
0.00133527
-0.00135016
0.000213957
-0.000199066
0.000316147
-0.000105554
0.000806835
-0.00101743
-0.00130092
0.00126671
0.00018274
0.000392563
-0.000768662
-0.000879968
0.00125607
0.000542021
0.00150842
-0.00150705
0.00112913
-0.00147854
0.000199696
0.000149714
0.00111279
2.20081e-07
-0.00111301
0.00242809
-0.00249725
0.00202061
-0.00195144
0.0003703
-0.000955411
-0.000476602
0.00106171
0.000384902
0.000204412
-0.00163409
0.000973959
-0.000580714
0.00124084
-0.00200281
0.000451986
0.00168571
-0.000134883
-0.00156182
-0.000862492
0.00313174
-0.000160399
0.00191833
-0.00063387
-0.00112406
0.000924591
-0.000466556
0.00171247
-0.0021705
0.000184424
-0.000870214
0.000740969
-5.51791e-05
-0.000382719
-0.00125564
0.0014425
0.000195859
0.00108112
-0.000611887
-0.000439643
-2.95887e-05
0.000548046
0.000229707
0.000290572
-0.00106832
-0.000776211
0.000995616
-0.000219405
0.000889402
-0.000828518
0.000123541
3.05458e-05
-0.00135782
0.00132727
0.00104324
-0.00121554
-0.000210417
0.000264655
0.00118143
-0.000265055
-0.00118103
-4.00791e-06
-0.000963636
0.000967644
0.000524857
0.00161277
-0.000883426
-0.0012542
-8.47594e-05
-0.000632014
-0.000423002
0.00113977
-0.00029472
-0.00162193
1.08279e-05
0.00190582
-0.00102994
0.000416975
0.00125933
-0.000646358
7.621e-05
0.000967031
-0.000857696
0.000933906
0.00092609
0.000247601
9.98707e-05
-0.00127356
-0.000489222
0.00218861
-0.000142389
-8.91151e-05
-0.00062171
0.000566731
0.000144094
-0.000206148
0.00243537
-0.000115468
0.00197587
-0.0010262
-0.000424816
0.00225383
-0.000275436
-0.00120939
0.00180737
-0.000322539
-0.00228045
0.00191503
0.000937733
-0.000572311
5.76992e-05
0.00104786
0.000870313
-0.00100392
-0.00131881
0.00139226
-0.000716504
-0.000988302
0.00190982
-0.000205011
0.000740318
0.000843239
-0.00158356
2.62051e-05
0.000168856
0.0022243
-0.00241936
-0.00117467
0.000993018
0.00144021
-0.00125856
0.00135765
-0.00214586
0.00172482
-0.000936605
0.000449865
-2.28615e-05
-0.000427003
-0.000923821
-0.000517086
0.000171914
0.00126899
-0.000473715
-0.000679117
8.94448e-05
0.00117075
-0.000969085
-0.000291108
0.000984278
-0.00102509
4.0815e-05
0.000109668
-0.00130645
0.00137845
-0.00018167
0.00114613
-0.0028283
0.00139764
0.00028453
0.000655211
-0.000873989
0.000218778
0.000867551
-0.000111014
-0.000859822
0.000103284
-0.00017411
-0.00286965
0.00259053
0.000453232
-0.00113344
0.000194909
0.00132087
-0.00038234
-0.00118631
3.82029e-05
0.00114811
0.00118309
0.00020001
0.000785274
-0.000590147
-4.90169e-05
0.00152857
0.000102735
-0.00168153
0.00140469
-6.39734e-05
0.00116677
-0.00110279
-0.00081697
0.000505919
0.00135507
-0.00104402
-0.000185984
0.00155264
-4.38222e-05
-0.00132283
-0.000187221
0.00144227
-0.000975343
-0.000279704
-0.00100243
-2.22305e-05
0.00118138
-0.000156719
0.000832432
-0.00174011
0.000949969
-4.22952e-05
-0.000891554
0.000696968
-0.000716479
0.000911065
0.000863738
3.41364e-05
-0.000100879
0.000132349
-0.00125897
-0.000303375
0.00143
-0.000258113
-0.00138325
0.000618276
0.00102309
0.000493491
-2.09924e-05
0.00113429
0.000275015
-0.00138831
0.000581744
-0.000410101
0.00117228
-0.00134392
-0.000751416
0.000930929
0.00124243
-0.00142194
0.00203431
0.000510646
-0.00205146
1.4911e-07
-0.00121025
0.00121011
7.52155e-06
-0.0012262
0.0012752
-5.65126e-05
2.40604e-05
0.00131051
-0.0011786
-0.000155977
0.000394341
-0.00198937
-6.49562e-05
0.00165999
-0.00110097
0.00132107
-0.000220103
0.000202258
-9.24287e-05
0.0013259
-0.00143573
-0.00102586
0.000227836
-0.000709012
0.00107356
-0.00143078
0.00106624
-0.000327224
-8.10734e-05
0.000408297
0.00324055
-0.00158164
-0.000703459
-0.000955451
0.00130479
0.00334328
-0.00140753
0.00216034
-0.00199886
0.000188998
0.00110085
-0.000852256
0.00121912
-0.00038654
1.96736e-05
-0.000257904
4.86933e-05
0.00179016
-0.00125115
0.000471056
0.000960795
-0.000180696
-0.00105228
0.00174108
0.000130786
0.00122124
-0.00139807
0.000708617
-0.000531786
0.000181404
0.00245661
-0.00243576
0.000735105
6.38808e-07
-0.000735743
-4.2527e-07
-0.000956737
0.000957163
0.00170507
0.000137875
-0.000381596
-0.00146135
0.00221045
-0.000712137
-0.000935529
-0.000562781
-0.000139594
-0.00280371
0.000847352
-8.61488e-06
-0.000679286
0.000687901
0.00147046
-0.00134926
-0.00133355
0.00121235
0.00106482
0.000443987
-0.00125276
0.000864076
-0.000532503
-0.00131811
0.000986539
-0.00104286
-9.50701e-06
-0.000803429
0.0018558
-0.00159308
-6.77194e-06
0.00159985
0.000993006
9.37609e-05
-0.00105662
-3.01503e-05
-0.00127232
-2.08218e-05
0.00129314
6.43316e-05
0.00107027
-0.0011346
-0.000782609
0.00173421
-0.000125975
-0.000825624
-0.00187861
0.00226252
0.00142711
-0.00181102
0.000901164
0.000769304
-0.000208425
0.00133807
-0.000865007
-0.000264634
-0.000229945
-7.79624e-05
-0.00115533
0.00146323
0.00130454
-0.00114735
0.000912633
-0.00106982
-0.00123775
0.00128823
-5.04822e-05
-0.00151433
0.00025332
0.00130057
-3.95624e-05
-0.00264316
0.000528683
0.00201078
0.000103699
0.000260895
-0.000334682
-0.00130875
0.00138254
0.00190152
0.000181185
-0.00109222
-0.000990485
0.00103445
-0.000786369
-0.00104178
0.000793707
0.00119102
1.18084e-05
-0.00120282
0.000110231
-0.00202592
0.00148215
0.000433543
0.000752732
0.000448883
-0.000300451
0.000273741
-0.00088188
0.00128583
-0.000677694
-0.000545331
0.00052951
-0.000121954
0.000137775
-0.00362647
0.00437312
0.00141049
-0.00215714
0.0018197
-1.18865e-05
-0.00181894
1.11193e-05
9.14648e-06
0.00146344
-0.00157283
0.000100244
-0.0021928
0.00192112
-0.000510929
0.000974521
0.00121969
-0.00110398
-0.00109023
-0.000967718
-6.94972e-05
-0.000105247
0.00114246
0.00101047
5.27257e-05
-0.0010632
0.00128827
-7.10684e-05
-0.0012172
-0.00227756
0.00214622
8.45339e-05
4.68107e-05
7.03663e-05
0.00146807
-7.18083e-05
-0.00146663
0.000909463
0.000458551
-0.0029775
0.00160948
-0.000630629
0.00063064
-1.1025e-08
0.000924007
2.10012e-06
-0.000926107
-4.6641e-07
-0.000556871
0.000557337
-0.000530761
0.00108029
0.00072591
-0.00127544
3.53637e-06
-0.00114345
0.00089711
0.000242806
-0.00128317
-0.00052608
-0.00046831
3.2772e-06
-0.000888439
-0.000132236
0.0010174
-0.00068738
1.28533e-05
0.000674527
0.000235013
0.000729257
-0.000237597
-0.000726673
0.000502841
-0.000895075
0.000392234
-0.000243022
-0.000833119
-0.000310457
0.0013866
0.0007094
0.000940464
0.000138578
-0.00178844
0.00185642
-0.000675177
-0.000601582
-0.00057966
-6.80344e-05
-0.00153314
0.00178685
-0.000185676
0.00073598
0.000387895
0.000212149
-0.00133602
0.00232032
0.00103344
-0.00217626
-0.00117751
-2.84149e-06
0.000587578
-0.000584737
-0.00137319
4.09345e-05
0.000317708
0.00101454
-0.00134564
-0.000149382
0.00153089
-3.58703e-05
0.000374596
-0.000468955
0.00191406
-0.000476421
0.000629233
-0.000152812
0.000937425
2.69498e-05
-0.000964375
0.000194414
0.000122382
-0.00123668
0.000919888
0.00131842
-0.0001299
-0.0012264
3.78795e-05
-0.00111344
-6.09789e-07
0.000237618
0.000322049
-0.00146077
0.000901104
-0.0013565
9.75522e-05
0.00125895
-5.32374e-05
-0.000949196
-0.000123784
0.00208966
0.000147265
-0.00211314
0.00111651
-0.0011825
6.59889e-05
-0.00119417
0.00118139
1.27785e-05
0.000959606
-0.00108339
0.000262452
0.0008764
0.00108906
-0.00222791
-0.00117273
-0.000640397
0.00181313
-9.12174e-06
0.000836168
-0.000827046
-1.95656e-05
-0.000909553
0.000929118
0.00111454
-0.00110761
-6.92768e-06
-0.00123529
4.73924e-05
0.00124195
-5.40607e-05
0.000302104
-0.0013907
0.00106215
0.000693651
0.000583344
-0.00233807
0.00106107
0.000721231
4.94396e-06
-0.000726175
4.73558e-05
0.0013652
-0.00141255
0.000672029
2.42979e-06
-0.00153967
0.00137059
0.00129897
-0.00112988
-0.000969568
0.000122858
0.00124342
-0.000396707
0.0016963
-0.00244411
0.000590867
0.000156939
-0.00218983
0.000488413
-0.00104603
0.00115621
-0.000110182
2.5601e-05
-0.00115981
0.00113421
-0.0010032
-1.98556e-05
0.00102306
-0.00117454
6.35115e-06
0.00116819
0.00112365
-0.00123203
0.000108383
1.63011e-05
0.00173223
-0.00174853
-0.000256857
-0.000234251
0.00124384
0.00123786
-0.0012929
-0.000884049
0.000939082
-0.00069871
0.000127366
0.00135654
-0.000785192
0.000666995
-0.00156868
-0.000101522
-7.29726e-05
0.00153378
-0.0014608
0.000454907
0.000424167
-0.000580046
-0.000299029
-0.000706412
0.00115819
-0.00139177
0.000939987
-0.00112397
-0.000427081
0.00155106
0.00227591
-0.00140333
-0.000872578
-0.000432104
0.00163508
0.00107133
-0.0022743
-0.0011865
0.00143901
-0.00143585
0.00118334
0.000508898
-0.000382413
-0.000584526
0.000458041
2.1247e-05
-1.36371e-05
-0.00127992
0.00127231
-0.00012026
-0.00180241
0.00192267
0.000404918
5.33208e-05
-0.00152648
0.00106824
-0.00150306
0.00116641
0.000336649
-0.000702811
-0.000351915
0.00101383
4.08969e-05
-0.000990995
0.000985968
5.02672e-06
0.000963449
-0.000814843
0.00120904
-1.03658e-05
-0.00157781
0.00158072
7.45555e-06
0.00304763
-0.00078806
-0.00152969
-0.000729886
-0.000471262
0.00166294
8.01146e-06
-0.00119969
-0.000550319
0.000819082
0.000457483
-0.000726246
-0.00132476
0.000778042
0.00137623
-0.000829506
0.000727365
-0.000868434
-0.000339453
0.00150751
3.97795e-05
-0.00120784
0.000906369
-0.000999711
0.000103598
-0.00213754
2.4183e-05
-2.1135e-05
0.00213449
-0.000297102
-8.38444e-05
-0.000799666
0.00118061
-0.00108444
0.0013949
-0.00110863
0.000798173
-0.00247935
-0.000334673
0.00260788
-0.00160751
2.28609e-05
0.0016092
-2.45501e-05
0.00100648
0.00016281
-0.000678795
-0.000490495
-0.000317606
-0.00123377
0.000655674
0.000895706
0.0010678
-0.000418661
-0.00140742
0.000758281
-0.00138754
-0.00035755
-3.1059e-05
0.00177615
0.00111013
-0.000136211
-0.00101856
4.46432e-05
0.000940163
-0.000944207
4.04382e-06
-0.000745366
0.00242683
-0.00201621
0.000334746
0.000156312
0.00143144
-0.00230349
0.000715738
-0.000945288
-0.000307813
0.000993435
0.000259665
0.00033013
-0.000316904
-0.000958514
0.00082238
3.31696e-05
0.000161046
-0.0010166
-8.80607e-05
0.000615749
-0.00266523
-0.00138854
2.84869e-05
0.00178199
-0.000421937
-0.000995182
0.00116129
-0.000166104
0.000489786
-0.000459338
-0.000649092
0.000618644
-0.000700632
-0.00128681
0.000808967
0.00117847
-0.000577186
0.00179593
-0.00066147
-0.000557273
-0.00148032
1.02631e-05
-0.00129568
0.00161555
-3.91188e-05
3.44761e-05
-0.0012813
0.00128594
0.00123743
0.00132696
-0.00141024
-0.00115415
0.000982113
-0.00101301
3.08955e-05
0.00125369
-7.84754e-06
-0.00124584
0.00106978
-0.00124169
0.000351323
-0.000179412
-0.000312083
-0.000915244
0.00222076
-0.00164475
0.00141192
-0.000212894
0.000445725
0.000547103
-0.000744547
0.00176772
-0.00157027
-0.00157591
-0.00114977
0.00187365
0.00085203
-8.45172e-05
-0.00173666
0.000176435
0.000274814
-0.00144892
-1.18614e-05
0.00118597
0.00133508
0.000351654
0.0018088
-0.00158402
-0.000594337
0.000369556
-0.00133912
0.00132916
0.00108382
-0.00107387
0.0010145
0.000503097
-0.00115166
-0.000365935
0.000508483
-0.00111703
0.00092778
-0.000319228
0.00139174
-0.00114096
-0.00181299
0.00156221
0.00145945
-0.0016245
8.05383e-05
-0.000901034
0.000905045
-4.01102e-06
0.000112655
-0.000102131
0.00151102
-0.00180523
0.001703
-0.00140879
0.00111982
-0.00100717
0.00113742
-0.00122996
-3.75954e-05
0.000130139
-2.4446e-05
-0.000519487
0.000543933
-0.000123564
-0.00103695
0.00124388
-8.3372e-05
0.00191013
-0.00171911
0.000135794
-0.000326809
0.000204293
-0.00226694
0.00018404
0.00169608
-0.001736
-0.000187508
0.000227435
0.000371552
0.000279053
0.000461246
-0.00111185
-0.000100998
0.000948677
0.000923882
-0.00177156
-8.04706e-05
-0.00117152
-0.000325292
0.00157729
-0.000570289
0.00170888
-0.00046465
-0.000673941
-0.00106837
0.000453111
0.00168504
0.00104577
-0.00211863
0.000232262
0.000840598
-0.000305325
7.1393e-05
0.00193001
0.000313067
0.00142706
-0.000488628
-0.0012515
-5.18254e-05
5.40306e-05
-0.00123859
0.00123638
0.00185861
0.000104449
-1.30836e-05
-0.00194998
0.00103637
0.000454104
-0.000412056
-0.00107842
-0.00112279
-0.000479873
0.0005343
9.19171e-05
0.000648198
-0.000657842
-8.2273e-05
0.0001895
1.63961e-05
-0.00144759
0.00100858
-0.000527311
-0.000136939
-0.000344333
0.000148167
0.000701588
-9.81247e-05
-0.000751631
-0.00112208
0.000962901
0.00120495
0.0007433
-0.00323126
0.00062997
0.00185799
0.000176838
-2.97904e-05
3.30012e-05
0.00127207
-0.00127528
0.00220461
-0.000708034
-0.000732169
-0.000764408
-0.00107579
1.36128e-05
0.00147794
-0.000415758
-0.000136317
-0.00103833
0.00125232
-7.76718e-05
0.00104288
-0.00142184
-0.000694568
0.00107352
-0.000986768
0.000958626
2.81414e-05
-2.94663e-05
0.000952375
-0.000922909
-0.000466093
-0.0010904
-0.000402413
0.00195891
-0.000809073
0.000906121
-9.70482e-05
-0.000152964
-0.00132768
-0.0003346
0.00181524
-0.00234321
0.000863999
-0.00127911
0.00275832
-0.00160416
3.7144e-05
0.00156702
0.000757879
0.000839144
-0.000810991
-0.000786032
0.000976152
-0.00055923
-0.000184669
-0.000232253
0.00130381
2.84882e-05
-0.0013323
0.00124596
-0.00372546
0.000136289
0.00084556
-3.13713e-05
-0.000814189
-0.00144444
-0.000572997
0.00194082
7.66119e-05
-0.000876423
0.00452838
-0.00277277
-0.000879191
-0.00263812
0.00317675
-0.000465281
-7.33482e-05
0.00157647
-0.000909136
0.00219177
-0.000771841
-0.00168096
0.0024829
-3.00967e-05
-4.83814e-06
-0.000121807
-0.000680346
0.000806991
0.00148777
0.00190725
-0.00216868
-0.00122634
-0.00152936
0.00180813
0.00049626
-0.000775029
0.00169575
-0.000310937
-0.000663192
-0.000721621
0.000144818
-0.00108548
-0.000188295
0.00112895
-0.00322262
9.97446e-05
0.00164941
0.00147347
-0.000591311
0.00225045
-0.000872468
-0.000786675
0.000382102
-0.000937658
0.00178688
-0.00123133
-0.000193152
-0.000553033
0.00104584
-0.00029966
-0.000918523
0.000977368
-6.23921e-05
3.54708e-06
0.00160075
-0.00180689
-8.6665e-05
0.000292808
-4.87389e-05
-0.00159583
0.00160843
3.61385e-05
0.000130402
-0.000116274
-0.00152643
0.0015123
0.00220871
-0.000362552
9.40435e-05
-0.0019402
-0.00145324
-0.000305386
0.000372918
0.00138571
0.000491612
-0.000491627
1.44198e-08
0.00108931
-0.00074114
0.000726795
0.000226303
0.00208709
-0.000124738
-0.00218865
-0.000332987
0.000223957
0.000277718
-0.000168688
-0.00162886
-0.00202546
0.00292811
-0.00115807
0.00132611
0.00126298
-0.00143103
-6.48582e-05
0.00129204
-0.00162995
0.000402768
-0.00123977
-0.00129808
-8.23623e-05
-0.000334368
0.00171481
-7.02305e-06
-0.000660541
0.000667564
-7.59286e-06
-0.000952227
0.00221978
-0.00125996
0.000650669
0.000916266
0.00163414
-0.000818832
7.6437e-05
-0.000891742
0.000717865
-0.000199443
-0.00119857
0.000680145
0.000901562
4.28868e-05
-0.00137383
0.000429377
-0.00064899
0.000537514
0.00203442
-0.00192294
0.00174314
0.00124574
0.000163141
-0.00315202
-0.00155845
-9.83711e-05
0.000315744
0.00134108
-0.00130657
0.00139169
-8.51248e-05
-9.11261e-05
0.000865386
-0.000129783
-0.000644477
-0.000267959
0.00055118
-0.00028322
0.00109039
0.00154957
-0.000695757
-0.0019442
0.000933108
-0.000934131
1.02253e-06
-0.00264366
0.000617043
0.0014772
0.000549421
0.000107168
-4.72284e-05
0.00128425
-0.00134419
0.000822266
3.40418e-06
-0.00082567
0.0016888
-0.00187529
-0.00120429
0.00139078
-0.00148675
-0.00287198
0.00171507
-0.000290457
0.000187617
0.00119565
-0.00109281
-0.000512314
0.00155843
-0.000164332
-0.000881788
0.000320289
-0.000846604
0.00124418
0.000973913
4.67366e-05
-0.00102065
0.00289248
-0.000699419
0.000171916
-0.00236498
0.0010929
0.000312826
0.000699757
-0.00167179
0.00080347
0.000168562
-0.00176029
4.98432e-05
0.00131986
0.000390578
-0.000328124
-0.000724013
0.000766976
0.000285161
0.00103114
-0.00132781
0.000296665
-0.000365139
-0.000709917
0.00107506
0.000910565
-0.000589646
-0.00103368
0.000712763
-0.000390022
-0.000216992
0.00156007
-0.000953058
-0.000766337
-0.00122496
0.000947759
0.00104354
-0.00150512
0.00137443
-2.51686e-05
0.000155862
-8.75019e-06
-0.000928908
-0.000225011
-0.000820708
0.00103525
1.04668e-05
0.00157
-0.00147643
0.000428706
-0.000522274
0.00238286
-0.00237104
0.00108109
-0.00041544
0.000456047
-4.06069e-05
-0.000871002
0.000859698
1.13041e-05
-7.87153e-05
0.00109068
0.000372598
-0.00138456
-0.000691346
-0.00108941
-0.000429793
0.00221055
-0.000645517
-0.000496046
0.00224165
-0.00110009
0.00110998
0.00029765
-0.00148634
-0.000214395
0.00165446
-0.000752222
-0.000687842
0.00023518
-0.00109262
-0.000478888
0.00133633
-0.000304489
0.000187172
-0.00152328
0.0016406
0.00151765
-0.00109902
-0.000839833
-0.000626633
-0.000186884
0.00165335
0.000452651
-0.000229565
-0.000226591
3.50535e-06
-0.00177956
0.00207605
-0.000211483
-8.50019e-05
0.00058118
0.000641815
-0.000610881
-0.000612114
-0.00024457
0.00126859
2.66631e-05
-0.00105069
0.00141762
6.04604e-05
-0.00126685
-0.000211233
-0.00017535
-0.00174105
-0.000430959
0.00234736
-0.000150278
0.00125956
-0.00110929
0.00152473
0.00129505
-0.0017359
-0.00108388
0.00101104
8.02612e-07
-0.00101184
0.000111313
-0.00133188
-0.00033324
0.0015538
0.00238336
-0.000340058
-0.00112023
-0.000923067
3.39331e-05
0.00239626
-4.6831e-05
0.00117146
-0.00111949
-5.19724e-05
-0.000421881
-0.000821538
0.00124342
0.00217739
-0.000581082
-0.00136834
-0.00101851
-0.000995937
0.00167439
9.47815e-05
0.000402973
-0.00157194
0.00107419
5.64956e-05
-0.00135666
0.000848693
0.000451471
-6.63773e-06
0.00118248
6.86722e-06
-0.00118271
-0.000230296
-3.16149e-05
-0.00111799
-0.000294203
0.00141219
-1.88695e-05
-0.000970271
0.00098914
0.00207613
0.000157782
-0.000133188
-0.00210073
0.000869626
-0.00161066
0.00038814
0.000352894
0.000548515
1.33566e-06
-0.000549851
-0.00158318
0.000258327
-6.39409e-05
0.00138879
0.000566981
4.18768e-05
0.00123646
-0.00184532
-0.00058283
0.000629048
-0.00174774
0.00170152
0.000174464
-0.000229338
-0.00163492
0.0016898
0.00116269
-0.00108617
-0.00249692
0.000284781
0.000736541
-0.000751339
-0.00076202
0.000776818
-0.000672315
0.000675193
-2.87829e-06
-0.00159857
-0.000564554
0.00239543
-0.000343275
-0.0014876
-0.000931555
-0.000283273
0.00126388
-4.90552e-05
0.00026847
0.00151827
-0.000581415
-0.00120533
-0.00300918
-0.0025283
0.000197057
0.00242328
-9.20316e-05
0.000179951
0.000129696
-0.0010427
0.000733057
0.00166674
-0.0015399
-0.00171993
0.0012151
0.00034806
-0.00156316
0.0017316
-0.000320169
-0.001239
-0.000172433
-0.00103542
-5.73696e-05
-0.000699107
0.0017919
0.00170077
-0.00143863
-0.000506292
0.000244158
7.44908e-05
0.00052741
-0.00162489
0.00102299
5.19013e-06
0.000885222
0.000135941
-0.00102635
-0.000824979
0.00105043
0.000296724
-0.00052217
1.24009e-05
0.0014534
-1.14983e-05
-0.00145431
-0.00109794
0.00111034
-0.00102335
-2.28683e-06
0.00102563
-0.00167018
-0.000154183
0.000417864
0.0014065
0.00117466
-0.00114862
0.000687407
-0.000713443
0.00028985
0.00102041
-0.00110174
-0.000208517
-0.00141367
0.00206908
-0.000238173
-0.000417241
0.00082347
-0.000786843
-3.66278e-05
1.6094e-05
0.000652558
0.00171421
-0.0013814
0.0011776
0.000507056
-0.000303265
-0.000340574
0.00075888
-0.000418306
-3.54521e-05
0.00118655
-0.0011511
-0.00185958
0.00070534
0.00036175
0.000792493
-0.0033398
0.00243405
0.000921843
0.00247912
-0.000296432
-0.000424098
-0.00175859
0.000991713
0.000121607
0.000634621
-2.94361e-05
-0.000665033
5.98476e-05
0.000686739
-0.000538571
2.68058e-05
-0.00159541
0.0015686
-0.00275502
0.00196986
-0.000875164
0.00211113
-0.00142878
0.000192813
0.00144109
-0.00194914
0.000602835
0.00110789
-0.00202362
0.00039012
0.000525613
-0.00102908
0.00123598
-0.000206901
0.00214741
0.000449582
-5.29272e-06
-0.00259169
-0.00103154
0.00104046
-8.92344e-06
0.00280672
-0.00251566
0.000324681
0.00166332
-5.42851e-05
-0.00160903
0.00119367
-0.00121682
2.31541e-05
-0.00119339
0.00013411
0.00105928
-0.000459936
-0.00112923
0.000395775
-0.00244194