/*--------------------------------*- C++ -*----------------------------------*\
  =========                 |
  \\      /  F ield         | OpenFOAM: The Open Source CFD Toolbox
   \\    /   O peration     | Website:  https://openfoam.org
    \\  /    A nd           | Version:  10
     \\/     M anipulation  |
\*---------------------------------------------------------------------------*/
FoamFile
{
    format      ascii;
    class       surfaceScalarField;
    location    "61";
    object      phi;
}
// * * * * * * * * * * * * * * * * * * * * * * * * * * * * * * * * * * * * * //

dimensions      [0 3 -1 0 0 0 0];

internalField   nonuniform List<scalar> 
109758
(
-3.37667e-06
0.00121993
-0.00121655
-0.00125268
0.00128852
-3.58419e-05
0.000104121
-0.00114988
0.00104576
-0.00144
8.78737e-05
0.00135213
0.00146219
-0.000168305
-0.00125762
-3.62675e-05
-0.000405293
0.000396325
8.96736e-06
-0.00110845
-6.46829e-06
0.00111492
0.00202383
-0.000255906
-0.000384884
-0.00138304
-2.37288e-05
0.000849315
1.4464e-05
-0.000840051
0.000466416
-7.22013e-05
0.000596553
-0.000990767
-3.94454e-06
0.00058648
-0.000582535
0.00187436
-0.00152688
-0.00143888
0.00109139
0.000320903
0.00125913
-0.0014378
-0.000142232
0.00118864
-0.00121938
3.07378e-05
-0.000973878
0.00110807
0.001328
0.000691371
-0.000946068
-0.000684566
0.000939263
0.000819591
-0.00157362
0.00140326
-0.000649234
0.0014843
0.000242361
-0.00110138
-0.000625276
0.00150007
0.000227954
-0.00121147
-0.000516553
-0.00144003
0.000171263
-0.000108839
0.0013776
0.000215068
-0.000290111
7.50425e-05
-2.64326e-05
-0.00119632
0.000285667
0.000937083
-0.000275674
0.000846901
-0.000571226
0.000251248
-0.000301533
0.00102946
0.00116205
0.000419952
-0.000405145
-0.00117685
1.77006e-05
0.000563463
0.000903134
0.0012414
0.00151639
-0.00194186
-0.000815929
-0.00109121
0.00108143
9.78221e-06
3.43527e-05
0.0011277
0.00149203
-0.00102648
0.00079518
-0.00126073
-0.00146105
0.00152964
-8.42767e-05
1.56842e-05
-4.99239e-05
0.000604459
-0.000554535
-1.4641e-05
0.000898719
-3.46659e-05
-0.000849412
-0.000827341
0.000824317
3.02394e-06
-0.000123593
-0.00131757
0.00110498
0.000336185
-0.00115982
0.00212098
-0.000718802
0.000577831
0.000170764
-0.000748595
0.000198041
0.00103951
-0.00147394
0.000236388
-0.000252274
-0.00111668
8.16618e-06
0.00136079
0.00114056
5.13552e-06
-0.00114569
0.00167389
-0.00110249
0.000734933
-0.00130633
-0.000392233
-0.000504918
0.000676484
0.000220667
-3.41683e-05
3.33502e-05
0.00167471
-0.00144721
0.00142462
1.32343e-05
9.35258e-06
0.000796995
-0.000798021
1.02572e-06
0.000330567
-0.00214992
-0.000329066
0.00214842
0.00099794
-0.000282628
-0.000251217
-0.000464095
-0.00111256
0.00138817
-0.000195414
-8.01956e-05
1.65514e-05
0.00102435
-0.0010409
-0.00224761
0.000142303
0.000187787
0.00191752
0.00107968
-0.000522352
0.000520001
-0.00107733
0.000398923
0.000616718
1.43423e-05
0.00140048
-0.00141482
-0.00105835
0.00106189
-3.54596e-06
-0.00121984
0.0012542
-0.000329719
-0.00175407
-0.000430751
0.00251454
-0.00228282
0.00318366
-0.000667434
-0.000233408
-0.00111403
0.000982932
0.00117057
-0.00103947
-0.00180371
0.000708471
-5.9237e-05
0.00115447
-0.000718604
0.000263631
0.000646226
-0.000191253
-0.00149366
0.00142215
7.15098e-05
-0.00323424
0.000189515
0.00163172
0.00141301
-0.00031396
0.00130133
-0.00124946
0.000262091
0.00156927
0.00151357
-0.00189105
-0.00113795
0.00151542
-0.00190107
0.000921688
0.000514723
0.000464662
0.0013926
-0.00153986
-0.000857904
0.00100516
-0.00147634
9.85613e-05
0.000349149
0.00102863
-0.00112267
-0.000798881
0.000445215
0.00107496
-7.6498e-05
-9.37165e-05
-0.000904747
0.0010059
-0.000590279
0.0003733
-0.000788919
0.00141975
5.18472e-05
0.000602389
-0.00207398
-0.000520293
0.000192262
0.000328031
-0.00211864
0.00134678
0.00158316
-0.000811301
0.000803011
-0.00075956
-4.34508e-05
-0.000627627
0.0002009
-0.00169191
0.000106485
-0.0008812
-0.000283633
-0.000270553
5.60189e-05
-0.000860658
0.00107519
0.00174249
-0.00158311
-0.00033348
0.000174099
-0.00170461
0.00153666
-0.0010519
0.00119812
-0.000810945
-0.00100324
0.000616071
-0.000650737
0.00269958
-0.00135002
-0.00069882
-0.000152332
8.23511e-05
0.00152943
-0.00145945
3.63922e-05
0.00216825
0.000227607
-0.00243225
0.000866766
-0.00157217
-0.00013327
0.000838678
0.00123806
-0.000233151
-0.00089842
0.000128778
0.000991276
-0.00135853
0.00023848
0.00054339
0.00204821
0.000129552
-0.00272115
0.000961752
-0.0011339
0.000180306
-8.16113e-06
0.000655179
0.000735446
-0.00276358
0.00137295
0.000933336
-0.000103681
6.16175e-05
-0.000891272
0.00199178
-0.00149349
-0.00296906
0.00247077
0.00169104
-0.00190406
0.000844575
-0.000631548
2.06025e-05
-0.00159273
0.00146395
0.000108176
0.0016464
-0.0011528
-0.000363106
-0.00013049
0.000889512
2.08719e-05
-0.000910384
-0.00170025
0.000293933
0.00118707
0.000219245
0.00111501
0.000743628
0.000571252
-0.00242989
0.000918736
-0.00165723
0.00114788
0.00249095
-0.00144436
-0.00219448
0.000917243
1.49307e-06
-0.000367707
0.00119419
0.00119889
-0.00202538
0.00105174
0.000300509
-0.00014899
-0.00120326
8.12921e-05
0.000922359
-0.00100365
0.00141387
-0.000116721
5.53267e-05
-0.00135248
-0.000577877
-1.89726e-06
0.000579774
-0.00132412
0.0010215
-0.000798765
-0.000237696
0.0017964
-0.00188908
0.000330385
0.000431874
-0.000362742
-0.00145273
0.0013836
0.000287592
-0.000293293
-0.000681616
0.000687317
-0.000368708
-0.000989321
0.00123681
0.000121221
0.000447843
-0.00121933
0.00126878
-0.000497292
0.000927634
0.000283543
-9.27763e-06
-0.00054947
-9.87641e-05
0.000657512
0.000179567
0.000352966
-0.00203726
0.00150473
-0.00131195
0.000166439
0.00134823
-0.000202719
0.000973624
0.000158178
9.90376e-05
-0.00123084
0.000205015
0.000768608
0.00143166
0.000288444
-0.00156193
-0.000766623
-0.000873118
0.00130308
0.000336659
0.00135803
0.000183633
0.000199574
-0.00174123
-0.00146801
0.00125526
-0.000411803
0.000624558
0.00134628
0.000290398
-0.00104608
0.00117847
-0.0010877
0.000955318
0.00146318
-0.000211186
-0.000286438
-0.000965553
4.01818e-05
-0.00160662
0.00174203
-0.000175594
-0.00152929
-3.75568e-05
-0.000422847
0.0019897
0.000938754
0.000505939
-0.00148562
4.09283e-05
-0.00101895
9.45209e-05
0.000894853
2.95783e-05
0.000184212
5.68999e-05
-0.00188305
0.00164194
-0.000930473
-6.13019e-06
0.000936603
0.000193161
0.0013321
-0.00134105
-0.00106142
0.00142123
-0.000773863
0.000414051
-0.00121263
-0.000777869
0.00157852
0.000411975
0.00127432
0.000244368
-0.000722708
-0.000795982
-0.00201022
-2.81295e-05
-0.000282957
0.0023213
-0.00129462
-0.000777598
0.000565874
0.00150635
0.00177655
-0.00174073
-0.000112061
7.62408e-05
-0.000263762
-0.0007891
-0.000701207
0.0014608
0.00108166
0.00027117
-0.00281363
0.00211354
0.000267143
-0.00234429
0.000214727
0.00110499
-0.00131971
3.51864e-05
-0.00108864
0.00105345
-0.00103479
-0.000214735
0.00019757
0.00105196
9.21859e-05
0.00134678
-0.00128485
-0.000154113
-0.00221981
-0.000254854
0.000576582
0.00189808
0.00122521
-0.00129639
0.00110861
-0.00103743
0.00015916
0.000143143
0.000922908
-0.000874115
0.000847538
2.65778e-05
-0.000919472
3.01571e-05
0.00133323
-0.000443919
0.000264187
-0.000672308
-0.000492517
0.000900637
0.000674455
-0.000702072
2.76172e-05
-0.000961842
0.000910037
-0.000218749
-5.08473e-05
-0.00101117
-1.05845e-05
0.00107261
0.00171129
-0.000192435
-0.00108587
-0.000432985
-0.000408177
-0.00186735
0.00250691
-0.000231382
-0.00162342
0.000562165
-0.00135661
0.00151467
-0.000158061
-0.000731679
0.000659145
-0.00102716
0.0010997
0.00054779
-0.000670686
-0.000497646
0.000620541
-0.000920552
-0.00126234
0.00100164
0.00118125
5.03289e-05
0.00141135
-0.000139987
-0.00132169
-0.000358637
0.00170978
-0.000286498
-0.00106465
-0.0015925
0.00134662
-9.65333e-05
0.000342407
-0.00117003
0.000933215
-0.00100753
0.00124434
0.00121551
6.59097e-06
-0.0012221
-0.0018019
0.000389473
0.00176157
-0.0003465
0.00142244
-0.00107594
8.78498e-05
0.00143505
-0.0015229
0.000197938
0.00123675
-0.00189564
0.000460949
-0.000951424
-0.000989311
0.00106185
0.000878882
0.000694765
-0.000199766
0.000510899
-0.00142029
0.00148351
-3.81103e-05
-2.51122e-05
-0.00141784
1.42938e-05
-1.67362e-05
0.000751889
-0.00045081
0.00184976
-0.00215084
-6.86079e-05
0.00180462
-0.00173601
-0.00118324
0.000849686
-6.61074e-06
0.000340162
-0.000902513
-0.00109838
0.00200089
-0.000674702
-0.000253302
0.000928005
0.0010046
1.25921e-05
-0.00101719
-0.00159611
-2.57312e-05
0.00131288
0.000308961
-0.000461634
0.000638574
0.000839027
-0.00101597
-0.00176749
0.000484066
0.000821789
0.00172074
-0.00271129
0.000575315
0.000415233
-0.00144938
0.00146281
-3.97844e-05
2.63612e-05
0.00193033
-0.00192971
-1.53043e-05
1.46837e-05
-0.00109042
1.5371e-05
0.000269038
0.000806008
7.65272e-05
-0.00113691
0.00106038
-0.00123426
-0.00175227
0.00118841
0.00179812
0.000148932
0.00161165
-0.000746202
-0.00101438
2.03225e-05
-0.00155705
-2.33123e-05
0.00156004
0.000256091
0.00139847
0.000329883
-0.00198444
0.000203751
0.00139804
-0.00147305
-0.000128739
-7.46167e-05
-0.00109376
0.00137213
-0.000894656
-0.000757651
0.000384949
0.00126736
0.000841604
4.83147e-05
-0.000889919
0.00135878
0.00130392
-0.00157455
-0.00108816
1.70101e-05
-0.00108189
0.00106488
0.000302707
0.000132237
5.95268e-05
-0.000494471
-0.00142038
-2.28228e-05
0.000469893
0.000973314
-0.00104625
-0.000536732
0.00158299
0.000845676
-0.00111036
0.00039392
-0.000129236
-0.00146888
0.000185098
0.00134022
-5.64369e-05
-0.00147999
0.00179846
-0.00141291
0.00109444
-5.88113e-06
-0.000888775
-0.00114273
0.00111069
3.20386e-05
-0.00147862
-0.000770742
0.000146033
0.00210333
-0.000136582
0.0013004
-0.00116382
0.00103752
-0.000815779
-0.000221741
0.000924987
-0.000930868
-0.00111197
-1.89199e-07
0.00111216
0.000508604
0.00138601
-1.33918e-05
-0.00188123
-0.00113549
0.000173012
0.000962474
-0.0012633
-0.000444588
0.0013158
0.000392081
-0.00190958
0.000262482
0.0018642
-0.000217105
0.000944202
-0.000916802
-2.73995e-05
-0.000726223
-0.0010191
0.00390906
-0.00216374
-0.00148232
0.000543008
-0.000373398
0.00131271
-0.000750818
-0.000179454
-0.00117523
0.0021055
-4.2441e-06
2.67416e-06
0.00130694
-0.00130537
0.000708087
-0.0020964
0.00285908
-0.00147076
-0.00121627
0.00121203
0.0015571
0.000401072
-0.00190737
-5.07949e-05
0.00108536
0.00014852
-0.00136329
0.000129404
0.000950345
0.000445368
-0.00159417
0.00019846
0.000903645
0.000181716
-0.000541822
0.00169141
-8.92341e-05
-0.00106036
0.000326679
-0.00148648
0.00190082
-0.000741019
-0.00167239
0.000121769
-4.97246e-07
0.00155112
0.000972999
0.00374449
-0.000594456
-0.00412303
0.000450125
0.000343068
-0.000596685
-0.000196508
0.000310167
0.00112359
-0.000508284
-0.000925476
-0.000905606
0.000884289
-0.000520505
-5.0607e-06
0.00169151
4.9658e-06
0.0013353
-0.00135024
0.000213995
-0.000199054
0.000316189
-0.000105659
0.000806873
-0.0010174
-0.00130095
0.00126671
0.000182752
0.000392559
-0.000768643
-0.000879935
0.00125602
0.000542007
0.00150816
-0.00150678
0.00112912
-0.00147853
0.000199698
0.000149713
0.00111297
2.06454e-07
-0.00111318
0.00242809
-0.00249727
0.0020206
-0.00195142
0.000370305
-0.000955397
-0.000476606
0.0010617
0.000384902
0.000204412
-0.00163411
0.000974018
-0.000580725
0.00124082
-0.00200267
0.000452152
0.00168512
-0.000134599
-0.00156173
-0.000862446
0.00313227
-0.000158767
0.00191845
-0.000633859
-0.00112582
0.00092459
-0.000466556
0.00171247
-0.0021705
0.000184427
-0.000870267
0.000741014
-5.51732e-05
-0.000382604
-0.0012557
0.00144249
0.000195813
0.00108113
-0.000611895
-0.000439646
-2.95913e-05
0.000548065
0.00022971
0.000290565
-0.00106834
-0.000776214
0.000995615
-0.000219402
0.000889422
-0.000828533
0.000123537
3.05413e-05
-0.00135782
0.00132727
0.00104323
-0.00121552
-0.000210314
0.000264637
0.00118144
-0.00026508
-0.001181
-4.00463e-06
-0.000963838
0.000967843
0.000524877
0.00161287
-0.0008835
-0.00125424
-8.81756e-05
-0.000630849
-0.000428224
0.00114725
-0.000294669
-0.00162192
1.07603e-05
0.00190583
-0.00102995
0.00041698
0.00125933
-0.000646365
7.62739e-05
0.00096696
-0.000857623
0.000933897
0.000926088
0.000247588
9.98982e-05
-0.00127357
-0.00048927
0.00218877
-0.000142403
-8.92156e-05
-0.000621669
0.000566719
0.000144165
-0.000206151
0.00243521
-0.000115515
0.00197588
-0.0010262
-0.000424803
0.0022537
-0.000275411
-0.00120931
0.0018073
-0.000322574
-0.00228002
0.00191488
0.000937801
-0.000572661
5.77191e-05
0.00104784
0.000870329
-0.00100394
-0.00131881
0.00139228
-0.000716483
-0.0009883
0.00190979
-0.000205009
0.000740358
0.000843266
-0.00158362
2.6202e-05
0.000168855
0.00222427
-0.00241933
-0.00117466
0.00099302
0.0014402
-0.00125856
0.00135765
-0.00214586
0.00172481
-0.000936596
0.000449864
-2.2861e-05
-0.000427003
-0.000923929
-0.000517187
0.000171926
0.00126919
-0.000473733
-0.000679162
8.9447e-05
0.00117076
-0.000969106
-0.000291099
0.000984276
-0.00102508
4.08038e-05
0.00010968
-0.00130645
0.00137845
-0.000181679
0.00114613
-0.00282831
0.00139764
0.000284542
0.000655195
-0.000874114
0.000218919
0.0008675
-0.000110862
-0.000859818
0.00010318
-0.000174059
-0.00286959
0.00259046
0.000453184
-0.00113306
0.000195197
0.00132084
-0.000382973
-0.00118631
3.82033e-05
0.00114811
0.00118296
0.00020006
0.000785237
-0.000590196
-4.90251e-05
0.00152864
0.000102773
-0.00168147
0.00140463
-6.39932e-05
0.00116671
-0.00110271
-0.000816941
0.000505915
0.00135505
-0.00104402
-0.000185996
0.00155266
-4.38309e-05
-0.00132283
-0.000187241
0.00144232
-0.000975401
-0.000279674
-0.00100247
-2.22421e-05
0.00118139
-0.000156677
0.000832434
-0.00174011
0.000949966
-4.22947e-05
-0.000891561
0.000696972
-0.000716465
0.000911054
0.000863738
3.41367e-05
-0.00010088
0.000132407
-0.00125903
-0.000303376
0.00143
-0.000258141
-0.00138333
0.00061835
0.00102312
0.000493546
-2.10232e-05
0.00113426
0.000275041
-0.00138828
0.000581738
-0.000410089
0.00117228
-0.00134393
-0.000751421
0.000930937
0.00124243
-0.00142195
0.0020344
0.00051069
-0.00205155
1.4515e-07
-0.00121047
0.00121033
7.4917e-06
-0.00122642
0.00127537
-5.64337e-05
2.39606e-05
0.00131076
-0.00117888
-0.000155844
0.000394341
-0.00198937
-6.49569e-05
0.00165999
-0.00110095
0.00132101
-0.000220062
0.00020226
-9.24255e-05
0.0013259
-0.00143573
-0.00102586
0.000227835
-0.000709005
0.00107355
-0.00143077
0.00106622
-0.000327224
-8.10715e-05
0.000408296
0.00324053
-0.00158162
-0.000703462
-0.000955451
0.00130479
0.00334327
-0.00140753
0.00216101
-0.00199883
0.000188984
0.00110084
-0.000852255
0.00121911
-0.000386515
1.96632e-05
-0.000256261
4.97672e-05
0.00178965
-0.00125116
0.000471062
0.000960801
-0.000180703
-0.00105226
0.00174107
0.000130786
0.00122124
-0.00139806
0.000708612
-0.000531783
0.000181401
0.0024566
-0.00243574
0.000735103
6.39105e-07
-0.000735742
-4.52021e-07
-0.000956755
0.000957207
0.00170507
0.000137874
-0.000381595
-0.00146135
0.00221049
-0.00071215
-0.000935577
-0.000562768
-0.000139665
-0.00280377
0.000847038
-8.60783e-06
-0.000679292
0.000687899
0.00147046
-0.00134926
-0.00133355
0.00121235
0.00106481
0.000444019
-0.00125274
0.000864082
-0.000532511
-0.00131813
0.000986554
-0.00104287
-9.50428e-06
-0.000803431
0.00185581
-0.00159307
-6.78177e-06
0.00159985
0.000993006
9.37625e-05
-0.00105662
-3.01514e-05
-0.00127232
-2.08229e-05
0.00129314
6.42912e-05
0.00107033
-0.00113462
-0.000782607
0.00173421
-0.000125975
-0.000825624
-0.00187862
0.00226251
0.00142712
-0.00181102
0.000901207
0.000769378
-0.00020843
0.00133806
-0.000864996
-0.000264638
-0.000229908
-7.79496e-05
-0.00115531
0.00146317
0.00130449
-0.00114735
0.000912636
-0.00106978
-0.00123774
0.00128823
-5.04808e-05
-0.00151433
0.000253325
0.00130057
-3.9557e-05
-0.00264297
0.000528626
0.00201066
0.000103679
0.000260873
-0.000334819
-0.00130862
0.00138257
0.00190151
0.000181185
-0.00109221
-0.00099049
0.00103405
-0.000786316
-0.0010417
0.000793963
0.00119101
1.18188e-05
-0.00120283
0.000109718
-0.00202585
0.00148271
0.000433416
0.000752767
0.000448905
-0.000300465
0.000273699
-0.000881878
0.00128583
-0.000677656
-0.000545332
0.000529512
-0.000121952
0.000137772
-0.00362618
0.00437319
0.00141029
-0.00215729
0.00181974
-1.19144e-05
-0.00181897
1.11358e-05
9.1872e-06
0.00146347
-0.00157288
0.000100222
-0.00219279
0.00192112
-0.000510933
0.000974443
0.00121974
-0.00110396
-0.00109022
-0.000967718
-6.94975e-05
-0.000105247
0.00114246
0.00101052
5.27193e-05
-0.00106324
0.00128826
-7.10669e-05
-0.0012172
-0.00227759
0.00214629
8.44911e-05
4.68099e-05
7.03466e-05
0.00146771
-7.1787e-05
-0.00146627
0.000909456
0.000458551
-0.0029775
0.00160949
-0.000630633
0.00063064
-6.46574e-09
0.000924176
2.11685e-06
-0.000926293
-4.71632e-07
-0.000556876
0.000557348
-0.000530773
0.00108032
0.000725913
-0.00127546
3.53647e-06
-0.00114345
0.000897103
0.000242809
-0.0012832
-0.000526047
-0.000468348
3.25567e-06
-0.000888552
-0.000132238
0.00101753
-0.000687382
1.28552e-05
0.000674527
0.000235012
0.000729252
-0.000237594
-0.00072667
0.00050284
-0.000895074
0.000392234
-0.000243041
-0.000833083
-0.000310435
0.00138656
0.00070948
0.00094064
0.000138601
-0.00178872
0.00185642
-0.000675175
-0.000601582
-0.000579662
-6.80718e-05
-0.00153316
0.0017869
-0.000185674
0.000736234
0.000387894
0.000212165
-0.00133629
0.00232031
0.00103342
-0.00217624
-0.00117749
-2.84252e-06
0.000587576
-0.000584734
-0.00137315
4.08959e-05
0.000317729
0.00101452
-0.00134583
-0.000149405
0.0015311
-3.58639e-05
0.000374642
-0.000468979
0.00191408
-0.000476424
0.000629246
-0.000152822
0.000937432
2.6949e-05
-0.000964381
0.000194429
0.000122386
-0.00123669
0.000919878
0.00131901
-0.000130215
-0.00122696
3.81648e-05
-0.00111343
-6.00356e-07
0.000237711
0.000321726
-0.00146025
0.000900809
-0.00135678
9.78289e-05
0.00125895
-5.32526e-05
-0.000949213
-0.000123769
0.00208953
0.000147246
-0.002113
0.00111653
-0.00118252
6.59866e-05
-0.00119416
0.00118138
1.27762e-05
0.000959589
-0.00108336
0.000262538
0.000876306
0.0010891
-0.00222794
-0.00117263
-0.00064014
0.00181277
-9.07661e-06
0.00083622
-0.000827143
-1.95429e-05
-0.000909576
0.000929119
0.00111457
-0.00110761
-6.96059e-06
-0.00123531
4.73928e-05
0.00124199
-5.40721e-05
0.000302112
-0.00139074
0.00106219
0.000693637
0.000583334
-0.00233807
0.0010611
0.000721227
4.94441e-06
-0.000726171
4.73539e-05
0.00136519
-0.00141255
0.000672029
2.42542e-06
-0.00153957
0.00137049
0.00129891
-0.00112983
-0.000969557
0.000122869
0.00124342
-0.000396727
0.00169647
-0.00244431
0.00059092
0.000156924
-0.00218915
0.000487755
-0.00104605
0.00115616
-0.000110114
2.56991e-05
-0.00116002
0.00113432
-0.0010032
-1.9831e-05
0.00102303
-0.00117456
6.30883e-06
0.00116825
0.00112362
-0.00123201
0.000108392
1.43595e-05
0.00173463
-0.00174899
-0.000256878
-0.000234225
0.00124387
0.00123784
-0.0012928
-0.000883986
0.000938943
-0.000698678
0.000127292
0.00135656
-0.000785171
0.000667029
-0.00156852
-0.000101705
-7.29237e-05
0.00153347
-0.00146055
0.000454899
0.000424168
-0.000580047
-0.00029902
-0.000706411
0.00115819
-0.00139177
0.000939988
-0.00112385
-0.000426961
0.00155081
0.00227613
-0.00140354
-0.00087259
-0.000432104
0.00163508
0.00107133
-0.0022743
-0.0011865
0.001439
-0.00143582
0.00118332
0.000508904
-0.000382347
-0.00058456
0.000458004
2.12454e-05
-1.36437e-05
-0.00127991
0.00127231
-0.000119223
-0.00180144
0.00192066
0.000404993
5.33162e-05
-0.00152678
0.00106847
-0.00150306
0.00116639
0.000336662
-0.000702811
-0.000351915
0.00101383
4.08974e-05
-0.000991034
0.000985988
5.04574e-06
0.000963447
-0.000814836
0.00120904
-1.03721e-05
-0.00157776
0.00158068
7.45658e-06
0.00304721
-0.000787982
-0.00152944
-0.000729787
-0.000471286
0.001663
8.08188e-06
-0.0011998
-0.000550302
0.000819081
0.000457481
-0.00072626
-0.00132476
0.000778042
0.00137622
-0.000829506
0.000727332
-0.000868492
-0.000339444
0.00150749
3.97862e-05
-0.00120784
0.000906336
-0.000999647
0.000103554
-0.00213751
2.4127e-05
-2.11635e-05
0.00213455
-0.000297061
-8.387e-05
-0.000799653
0.00118058
-0.00108433
0.0013948
-0.00110857
0.000798101
-0.00247904
-0.000334655
0.00260754
-0.00160751
2.28788e-05
0.00160918
-2.45554e-05
0.00100648
0.00016281
-0.0006788
-0.000490489
-0.000317616
-0.00123376
0.000655684
0.000895687
0.00106765
-0.00041862
-0.00140721
0.000758186
-0.00138755
-0.000357546
-3.10675e-05
0.00177616
0.00111012
-0.000136198
-0.00101856
4.46351e-05
0.000940186
-0.00094423
4.04402e-06
-0.000745357
0.00242686
-0.00201622
0.000334714
0.000156323
0.00143144
-0.0023035
0.000715739
-0.000945324
-0.000307825
0.000993393
0.000259756
0.000330106
-0.000316875
-0.000958554
0.000822377
3.31694e-05
0.000161046
-0.00101659
-8.82741e-05
0.000615852
-0.00266509
-0.00138856
2.84925e-05
0.001782
-0.000421935
-0.000995178
0.00116128
-0.000166105
0.000489778
-0.000459335
-0.000649085
0.000618642
-0.000700634
-0.00128679
0.000808953
0.00117847
-0.000577177
0.00179591
-0.000661463
-0.000557272
-0.00148043
1.02536e-05
-0.00129568
0.00161554
-3.90692e-05
3.44226e-05
-0.00128126
0.00128591
0.00123743
0.00132698
-0.00141026
-0.00115416
0.00098211
-0.001013
3.08939e-05
0.00125368
-7.8641e-06
-0.00124581
0.00106973
-0.00124165
0.0003513
-0.000179382
-0.000312077
-0.000915234
0.0022207
-0.00164465
0.00141174
-0.000212797
0.000445705
0.000547023
-0.000744513
0.00176777
-0.00157028
-0.00157585
-0.00114978
0.00187365
0.000851989
-8.45236e-05
-0.00173662
0.000176487
0.000274841
-0.00144883
-1.18769e-05
0.00118586
0.001335
0.000351584
0.00180881
-0.00158402
-0.000594346
0.000369554
-0.00133912
0.00132916
0.00108383
-0.00107387
0.00101469
0.000502959
-0.00115178
-0.000365871
0.000508493
-0.00111699
0.000927741
-0.000319246
0.00139174
-0.00114096
-0.00181298
0.0015622
0.00145935
-0.00162443
8.05587e-05
-0.000901037
0.000905041
-4.00325e-06
0.000112618
-0.000102094
0.0015107
-0.00180486
0.00170266
-0.0014085
0.00111973
-0.00100712
0.00113741
-0.00122994
-3.75947e-05
0.000130126
-2.44463e-05
-0.000519487
0.000543933
-0.000123571
-0.00103692
0.00124386
-8.33668e-05
0.00191014
-0.00171913
0.000135798
-0.000326812
0.000204305
-0.00226695
0.00018403
0.00169607
-0.001736
-0.000187507
0.000227438
0.000371552
0.000279053
0.000461246
-0.00111185
-0.000100995
0.000948677
0.000923878
-0.00177156
-8.04587e-05
-0.00117136
-0.000325271
0.00157709
-0.000570265
0.00170886
-0.000464639
-0.000673956
-0.00106834
0.000453081
0.00168499
0.00104575
-0.00211861
0.000232257
0.000840597
-0.000305326
7.13923e-05
0.00193001
0.000313062
0.00142706
-0.000488618
-0.0012515
-5.18563e-05
5.41103e-05
-0.00123857
0.00123632
0.00185861
0.00010445
-1.30836e-05
-0.00194998
0.00103637
0.000454104
-0.000412056
-0.00107842
-0.00112278
-0.000479898
0.000534341
9.19262e-05
0.000648198
-0.000657837
-8.2287e-05
0.0001895
1.63499e-05
-0.0014475
0.00100858
-0.000527316
-0.000136939
-0.000344329
0.000148166
0.000701588
-9.81242e-05
-0.00075163
-0.00112207
0.000962878
0.00120494
0.000743303
-0.00323128
0.00062997
0.001858
0.000176842
-2.97718e-05
3.30011e-05
0.00127205
-0.00127528
0.00220461
-0.00070803
-0.000732176
-0.000764406
-0.00107582
1.36716e-05
0.00147786
-0.000415712
-0.000136316
-0.00103833
0.00125232
-7.76741e-05
0.00104301
-0.00142212
-0.0006947
0.00107381
-0.000986767
0.000958624
2.81431e-05
-2.94642e-05
0.000952372
-0.000922908
-0.000466132
-0.00109054
-0.000402457
0.00195913
-0.000810397
0.000907821
-9.74244e-05
-0.000152963
-0.00132768
-0.000334601
0.00181525
-0.0023432
0.000863883
-0.0012788
0.00275812
-0.00160392
3.71558e-05
0.00156676
0.000757879
0.000839145
-0.000810993
-0.000786031
0.000976152
-0.00055923
-0.000184669
-0.000232254
0.00130382
2.8492e-05
-0.00133231
0.00124572
-0.00372526
0.000136343
0.000845563
-3.13723e-05
-0.00081419
-0.00144444
-0.000572994
0.00194082
7.6613e-05
-0.000876881
0.00452867
-0.00277263
-0.000879165
-0.00263805
0.00317648
-0.000465196
-7.32349e-05
0.0015766
-0.000909419
0.0021919
-0.000771845
-0.00168096
0.0024829
-3.00976e-05
-4.83474e-06
-0.000121813
-0.000680346
0.000806993
0.00148792
0.00190736
-0.0021684
-0.00122688
-0.0015293
0.00180806
0.000496377
-0.00077514
0.00169575
-0.000310938
-0.000663191
-0.000721625
0.000144919
-0.00108537
-0.000188368
0.00112882
-0.00322224
9.97364e-05
0.0016492
0.0014733
-0.000591303
0.00225044
-0.000872471
-0.000786671
0.000382049
-0.000937492
0.00178657
-0.00123113
-0.000193151
-0.000553027
0.00104585
-0.000299669
-0.000918775
0.000977615
-6.24427e-05
3.60282e-06
0.00160059
-0.00180672
-8.66907e-05
0.000292821
-4.87348e-05
-0.00159583
0.00160845
3.61098e-05
0.000130399
-0.000116271
-0.00152642
0.00151229
0.00220871
-0.000362549
9.4047e-05
-0.0019402
-0.00145324
-0.000305386
0.000372917
0.00138571
0.000491609
-0.000491626
1.67728e-08
0.0010893
-0.00074114
0.000726798
0.000226325
0.0020868
-0.000124771
-0.00218835
-0.000332946
0.000224032
0.000277699
-0.000168786
-0.00162885
-0.00202538
0.00292801
-0.00115806
0.00132611
0.00126298
-0.00143103
-6.4875e-05
0.00129233
-0.00162991
0.00040245
-0.00123959
-0.00129808
-8.23625e-05
-0.000334368
0.00171481
-7.02382e-06
-0.000660541
0.000667565
-7.59253e-06
-0.000952227
0.00221977
-0.00125996
0.000650562
0.000916153
0.00163403
-0.00081876
7.64367e-05
-0.000891706
0.000717868
-0.000199444
-0.00119857
0.000680146
0.000901564
4.28979e-05
-0.00137384
0.000429373
-0.000648991
0.000537512
0.00203442
-0.00192295
0.00174325
0.00124582
0.000163172
-0.00315224
-0.00155845
-9.83747e-05
0.000315742
0.00134109
-0.00130656
0.00139169
-8.51228e-05
-9.11267e-05
0.000865386
-0.000129782
-0.000644477
-0.00026796
0.00055118
-0.00028322
0.00109025
0.00154932
-0.00069566
-0.00194392
0.000933115
-0.00093415
1.0356e-06
-0.00264369
0.000617083
0.00147719
0.000549416
0.00010717
-4.72335e-05
0.00128426
-0.0013442
0.000822242
3.42268e-06
-0.000825665
0.00168882
-0.00187531
-0.00120431
0.0013908
-0.00148674
-0.00287191
0.00171496
-0.000290444
0.000187601
0.00119566
-0.00109281
-0.000512315
0.00155844
-0.000164334
-0.000881787
0.000320286
-0.000846602
0.00124418
0.000973885
4.67379e-05
-0.00102062
0.00289244
-0.000699374
0.000171896
-0.00236497
0.00109291
0.0003128
0.000699757
-0.00167179
0.00080347
0.000168562
-0.00175992
4.97817e-05
0.00131958
0.000390565
-0.00032816
-0.000724001
0.000767034
0.000285127
0.00103106
-0.00132783
0.000296767
-0.000365139
-0.000709917
0.00107506
0.000910579
-0.000589654
-0.00103368
0.000712752
-0.000390022
-0.000216992
0.00156007
-0.000953056
-0.000766354
-0.00122498
0.000947777
0.00104356
-0.00150511
0.00137447
-2.54838e-05
0.000156123
-8.75537e-06
-0.000928737
-0.000225008
-0.000820706
0.00103525
1.04643e-05
0.00157
-0.00147643
0.000428706
-0.000522272
0.00238292
-0.00237115
0.00108114
-0.000415456
0.00045606
-4.0604e-05
-0.000871015
0.000859706
1.13084e-05
-7.8745e-05
0.00109041
0.000372516
-0.00138418
-0.000691277
-0.00108915
-0.000429694
0.00221012
-0.000645524
-0.000496041
0.00224165
-0.00110009
0.00110985
0.000297602
-0.0014862
-0.000214395
0.00165446
-0.00075223
-0.000687839
0.000235186
-0.00109263
-0.000478895
0.00133634
-0.000304489
0.000187173
-0.00152328
0.0016406
0.00151747
-0.0010989
-0.000839842
-0.000626597
-0.000186892
0.00165333
0.000452816
-0.000229726
-0.000226747
3.65749e-06
-0.00177938
0.00207583
-0.000211449
-8.50064e-05
0.000581174
0.000641817
-0.000610886
-0.000612106
-0.000244575
0.00126859
2.66683e-05
-0.00105069
0.00141764
6.04641e-05
-0.00126686
-0.000211236
-0.000175046
-0.00174082
-0.000431311
0.00234717
-0.000150275
0.00125956
-0.00110929
0.00152478
0.00129504
-0.0017359
-0.00108393
0.00101103
8.06621e-07
-0.00101184
0.000111314
-0.00133188
-0.000333243
0.00155381
0.00238338
-0.000340058
-0.00112025
-0.000923073
3.39284e-05
0.00239627
-4.68248e-05
0.00117146
-0.00111948
-5.19758e-05
-0.000421842
-0.00082151
0.00124335
0.00217765
-0.000581125
-0.00136858
-0.00101852
-0.000995943
0.0016744
9.48255e-05
0.000403003
-0.00157214
0.00107431
5.64992e-05
-0.00135669
0.00084871
0.000451476
-6.6337e-06
0.0011825
6.86033e-06
-0.00118273
-0.000230248
-3.16561e-05
-0.00111782
-0.000294171
0.00141199
-1.88408e-05
-0.000970255
0.000989096
0.00207625
0.0001577
-0.00013319
-0.00210076
0.000869583
-0.00161068
0.000388203
0.000352896
0.000548513
1.34324e-06
-0.000549856
-0.00158317
0.000258332
-6.39468e-05
0.00138878
0.000566968
4.18762e-05
0.00123645
-0.00184529
-0.000582831
0.000629051
-0.00174775
0.00170153
0.000174475
-0.000229337
-0.00163484
0.0016897
0.00116273
-0.0010862
-0.00249664
0.000284744
0.00073654
-0.000751324
-0.000762015
0.000776798
-0.000672316
0.000675192
-2.8761e-06
-0.00159847
-0.000564552
0.00239543
-0.000343277
-0.0014876
-0.000931591
-0.000283281
0.00126393
-4.90552e-05
0.000268454
0.00151826
-0.000581398
-0.00120532
-0.00300912
-0.00252846
0.000197112
0.00242342
-9.20728e-05
0.000179649
0.000129782
-0.00104281
0.000733377
0.00166675
-0.0015399
-0.00171992
0.00121511
0.00034806
-0.00156317
0.00173164
-0.000320178
-0.00123908
-0.000172377
-0.00103543
-5.73685e-05
-0.0006991
0.00179189
0.00170077
-0.00143864
-0.000506294
0.00024416
7.42267e-05
0.000527734
-0.00162478
0.00102282
5.69665e-06
0.000884493
0.000135981
-0.00102617
-0.000824978
0.00105042
0.000296725
-0.000522171
1.23305e-05
0.00145331
-1.14884e-05
-0.00145416
-0.00109797
0.0011103
-0.00102338
-2.28461e-06
0.00102567
-0.00167021
-0.000154165
0.000417863
0.00140651
0.00117465
-0.00114862
0.000687403
-0.000713438
0.000289875
0.00102038
-0.00110176
-0.000208503
-0.00141381
0.00206931
-0.000238201
-0.000417304
0.000823454
-0.00078686
-3.65945e-05
1.60459e-05
0.000652582
0.00171429
-0.00138146
0.00117765
0.00050708
-0.000303271
-0.000340574
0.00075888
-0.000418306
-3.54524e-05
0.00118655
-0.0011511
-0.00185958
0.000705329
0.000361758
0.000792497
-0.00334
0.00243423
0.00092182
0.00247913
-0.000296433
-0.000424101
-0.00175859
0.00099169
0.000121639
0.000634621
-2.94361e-05
-0.000665033
5.98476e-05
0.000686737
-0.000538571
2.68072e-05
-0.00159544
0.00156863
-0.00275521
0.00197001
-0.000875209
0.00211123
-0.00142883
0.00019281
0.00144123
-0.00194934
0.000602942
0.00110791
-0.00202365
0.000390125
0.000525623
-0.00102912
0.00123599
-0.000206863
0.0021474
0.000449576
-5.29544e-06
-0.00259168
-0.00103151
0.00104044
-8.93034e-06
0.00280675
-0.00251556
0.000324666
0.00166338
-5.42714e-05
-0.00160911
0.00119367
-0.00121682
2.31546e-05
-0.00119338
0.000134071
0.0010593
-0.000459971
-0.00112921
0.00039581
-0.00244196
0.00160148