/*--------------------------------*- C++ -*----------------------------------*\
  =========                 |
  \\      /  F ield         | OpenFOAM: The Open Source CFD Toolbox
   \\    /   O peration     | Website:  https://openfoam.org
    \\  /    A nd           | Version:  10
     \\/     M anipulation  |
\*---------------------------------------------------------------------------*/
FoamFile
{
    format      ascii;
    class       volScalarField;
    location    "61";
    object      SgRate;
}
// * * * * * * * * * * * * * * * * * * * * * * * * * * * * * * * * * * * * * //

dimensions      [1 -1 -3 -1 0 0 0];

internalField   nonuniform List<scalar> 
59698
(
0.016246
0.0019852
0.00252385
0.00271594
0.0302728
0.00145199
0.00462997
3.09804e-05
1.98745e-09
3.91187e-09
0.000586478
0.000298944
1.58186e-09
0.00229239
0.000357383
4.26699e-07
7.03245e-06
0.000145802
4.50779e-05
0.000253008
0.00175387
0.0140609
0.000498689
8.8191e-08
0.0422704
6.75427e-05
0.000342353
0.0100706
0.00918343
0.00744489
0.00478111
0.000600643
6.68688e-08
0.0165704
0.00242232
0.000163931
0.0193786
0.0203979
0.000163732
0.0251556
0.00866271
2.30466e-07
0.00374562
0.000643094
0.000402109
0.0322383
7.44124e-05
0.000729172
0.00315682
0.000173022
0.00151949
0.000119418
0.0020661
0.0027345
0.0114163
7.68499e-05
0.00132622
0.000211781
0.000805609
0.00280967
0.00522405
0.000502136
0.122557
7.03948e-05
0.0126006
0.0016056
1.74991e-09
0.000399384
5.58762e-05
6.76685e-09
6.45673e-07
0.00025283
0.000363271
0.0422763
0.000411952
0.0394232
0.000117528
0.00924614
0.000355213
0.0061512
0.00888591
0.0004771
3.97437e-09
1.59792e-05
0.00852386
0.00055098
3.64327e-06
4.20652e-05
0.0636211
0.000128906
4.51536e-09
0.00206331
0.0147937
9.87856e-06
7.34228e-05
0.00375146
0.00534493
6.23915e-05
0.000274028
8.59246e-10
0.07687
0.00180291
0.0162206
0.0153967
0.00012023
0.000564773
4.36734e-05
3.38127e-05
2.6651e-09
4.40898e-10
0.000244947
7.31613e-06
0.0380554
1.56283e-07
7.83223e-06
8.01874e-06
2.5306e-05
0.00358821
3.51299e-05
1.15149e-08
0.000533789
0.000708029
1.51927e-05
0.000285097
0.000171372
0.000205444
0.010802
7.20556e-09
0.00029564
4.31552e-06
0.0446383
5.05435e-06
1.10226e-09
0.100201
0.0042759
0.00439302
1.14267e-05
2.21299e-10
0.000255226
0.000131247
0.000109188
0.00231877
0.0026997
0.00265646
4.20847e-06
0.000693664
1.04487e-05
1.01238e-05
0.00491187
0.0293112
0.000299704
0.000434376
0.00152158
3.71511e-06
0.000163284
0.000342196
4.78934e-05
0.00162933
0.0123817
5.99236e-10
0.000855433
0.000180184
0.0164741
0.00165104
0.00340756
0.034537
0.000237584
0.0715476
0.00201357
0.000412492
0.0120417
1.53761e-06
0.0108011
0.0148177
0.079746
0.0019471
4.38597e-09
0.00144719
0.000326021
0.00924359
0.00941656
0.018133
0.0147204
1.64391e-05
0.0458338
0.000237687
0.0114318
0.00247907
0.00115802
0.00118273
0.00040299
6.6905e-05
0.00269045
0.0388192
0.00403209
0.00417148
0.00984215
0.057921
2.69446e-05
0.00768624
0.000227094
0.00629041
0.0210823
6.60554e-05
0.010391
0.00277024
0.0061398
0.00286432
0.00783207
0.0113997
0.00256105
2.36699e-05
0.00278971
1.56812e-08
0.00407111
0.00375835
3.77901e-05
3.65053e-05
0.0127465
0.00661164
0.00560133
0.00268973
2.95621e-05
0.0662492
0.000812819
0.0264223
0.00734211
0.00323713
0.00683203
0.157728
7.5424e-09
0.00473565
0.00292093
0.00321327
0.000126789
0.00966516
0.0828688
1.91134e-05
8.57709e-07
0.000448576
0.00307646
0.00146723
0.0135426
0.000664542
0.00611716
0.000119825
0.00378153
0.227299
0.00122304
0.000427283
0.000701571
0.00163057
0.000628235
0.000233554
0.000618469
0.00238876
0.00601433
0.00128597
0.00364355
0.000111181
1.47666e-05
1.83646e-09
0.000392188
0.00592581
0.00472633
0.0474166
2.30593e-05
1.06794e-07
0.000164626
9.77001e-05
0.000141684
0.0437291
0.000223363
0.000170282
0.0180281
0.00020598
0.00152047
0.00051121
0.00206049
1.22578e-09
0.000574131
0.000194534
0.000211939
0.104421
0.0488489
0.0202846
0.000135344
0.000647185
0.0726705
0.000444554
0.0908204
0.00234101
0.000188086
0.000164775
0.0003208
0.00273546
0.000356949
0.000803609
0.00423167
1.19041e-05
0.002722
2.34931e-09
6.8669e-08
0.000822849
6.45127e-05
5.27291e-05
0.0521475
0.00101579
2.03082e-06
0.000267228
0.00216703
1.99772e-05
4.02057e-05
2.38008e-08
0.00193971
0.00514487
0.000403389
0.000393208
0.000829308
0.000806182
0.000341347
0.323793
0.000321517
2.97642e-09
0.0484379
0.0105985
0.000328281
0.000353625
0.000443555
0.000361921
0.00951888
0.00415615
0.0203499
0.205292
0.000430955
1.90464e-05
9.89589e-06
0.000663904
0.00908011
0.00447999
0.0102241
0.00206587
0.00253478
0.00148192
9.6882e-05
0.000237276
0.000102262
0.0397064
4.75512e-05
0.00204855
0.00797675
9.11836e-05
0.0400554
7.9544e-10
0.244632
0.00217179
0.014042
0.000175762
3.76494e-05
1.82199e-09
2.73916e-05
8.80743e-06
1.10371e-07
0.000895191
1.37711e-10
1.04127e-07
0.00281304
0.00203112
0.00015617
0.00164775
0.00190367
0.000533995
0.00367337
0.000651144
0.00618841
2.98714e-09
0.000153272
9.67836e-05
0.000460538
2.49021e-09
0.000347123
0.000102623
5.63284e-05
0.000529391
0.000140042
1.96931e-05
0.000211874
0.000544818
8.42937e-10
0.000143742
8.76024e-05
0.000457508
0.00457126
0.00266036
0.00134544
0.00228261
0.0478845
0.00183942
0.00272073
0.000145616
0.00284981
0.00238644
0.00258644
3.88548e-05
0.00148703
0.00420757
0.0851328
0.0283039
2.3218e-05
0.00539219
0.0313944
0.000404298
0.00178295
0.000434524
0.000463757
0.0592714
1.46252e-05
0.0103013
0.00240505
0.00184214
0.00303681
0.00226602
0.00252702
0.310984
0.000185624
0.000338817
7.87614e-09
0.000218077
0.00142986
5.50153e-10
0.00026483
0.00214529
0.0163915
0.00302944
0.0021077
1.43521e-08
1.39963e-08
0.213173
0.000123129
0.00317653
1.92328e-07
0.00325727
5.01622e-09
2.18172e-05
4.02976e-05
0.00238725
0.0700779
4.52035e-10
6.43484e-05
0.00908878
0.00256156
0.000124605
5.93933e-05
0.0328713
0.000285102
9.71925e-05
0.108593
1.42511e-09
0.00980535
7.39699e-06
0.0543013
6.05557e-06
0.0159703
0.0133301
2.19676e-09
0.000976778
0.000447175
0.00848674
3.3354e-05
0.00807091
0.00292736
4.44774e-09
2.05208e-10
6.85061e-09
0.000386725
0.00081804
0.00111401
0.0688911
0.00622826
0.00220396
3.04515e-05
0.00049918
3.95937e-05
1.90085e-08
0.00538496
4.5644e-05
5.54821e-05
9.3582e-05
0.0656946
0.00179498
0.0229306
0.0660595
0.00111812
0.000163176
0.0588846
6.16819e-05
5.63192e-07
0.00237022
0.0094957
0.000365619
9.71914e-10
0.0638941
0.00718367
0.0046019
1.71074e-08
1.12085e-09
3.1245e-05
2.17279e-09
1.0804e-05
0.0031498
0.000583011
0.0747948
0.0072929
5.41927e-08
0.00911658
5.52777e-05
6.87139e-09
3.99947e-05
7.04249e-08
2.48478e-08
0.00543788
0.00378324
1.12182e-05
3.83238e-09
2.19099e-09
0.00127025
0.00952635
1.03514e-05
0.0107376
0.0039071
1.13925e-05
0.0432741
1.82781e-08
2.22718e-05
0.00145198
3.54377e-10
1.35532e-08
0.00185473
0.000138468
0.00038488
0.00976041
0.000356667
0.000146925
0.0674901
0.0081833
0.0135238
0.00999871
0.000173345
0.0116987
7.88052e-06
4.16634e-05
2.28376e-09
3.92583e-05
1.91345e-09
0.00027974
3.34836e-06
1.92074e-08
0.00117248
0.00689399
0.000448454
0.000768491
1.74744e-09
3.3422e-05
9.42421e-05
5.47872e-05
1.81318e-09
0.0745717
5.24435e-05
0.00551763
0.000539255
0.00287633
6.40041e-05
1.9352e-07
0.00259553
0.0028707
0.00337894
0.00065062
0.00400767
0.00211648
2.30833e-09
0.000732637
7.53949e-05
0.00517376
5.43032e-05
0.00406069
0.00031335
0.00242737
1.78002e-05
0.00412127
0.00268769
0.00216065
0.00332711
0.000371638
0.000167494
8.51513e-10
1.88073e-05
9.28436e-07
0.00431107
0.000349776
7.24156e-09
0.00515199
3.36613e-05
2.73517e-09
0.00340498
0.00148238
0.00216465
0.000164542
0.00108756
0.00393234
0.000306257
0.000306955
0.000547906
0.000390797
0.0043398
0.00141667
0.00278971
0.000372991
0.225708
1.87831
0.000277702
5.01779e-09
0.00059798
0.00214167
0.00096409
0.00247947
4.8648e-05
0.00712547
0.00246911
0.00318358
0.00156404
0.00276883
0.000211216
9.20223e-05
0.00114392
0.000107853
0.00133342
0.000235724
0.000449768
0.00153921
0.109818
0.000238507
5.04727e-06
0.000607879
1.44953e-09
0.00243057
0.00381111
4.11096e-05
0.00244313
0.000120758
1.7473e-09
0.000439479
0.000176784
0.00830269
0.000805063
0.000587643
0.000114022
0.000250759
7.95015e-06
0.000325337
0.0020292
0.000307911
0.00081497
0.000884791
0.0195753
0.0906738
0.00136531
3.34577e-05
0.0023332
0.00319727
0.0415785
3.86531e-09
2.14468e-05
0.000460138
0.00354649
0.000143812
0.00167518
0.000428464
0.0107858
0.0473474
0.00014519
0.000422867
8.02395e-05
3.53431e-07
0.000378101
0.00140718
0.000718168
0.00215098
0.000194866
0.00019123
0.0113751
0.00441165
0.0392211
0.000808949
0.00138517
0.00211551
0.00244231
0.000242347
0.0011814
0.000650596
0.000158782
2.30172e-10
1.11078e-09
0.00660928
0.00082195
4.46816e-05
1.49124e-09
0.00640219
2.823e-05
4.43312e-06
2.72398e-09
0.00342857
4.17964e-08
0.000503166
0.000362139
8.33731e-05
0.00195811
0.00914781
3.44161e-05
1.36447e-09
0.000646946
0.0621499
0.00322538
3.85565e-05
0.000955263
0.00144852
0.0258043
0.00878713
1.35581e-09
0.0556539
5.18906e-05
0.00256078
0.000344566
0.00940327
6.3666e-05
1.48116e-07
0.0111828
0.00449358
0.000532171
0.00308401
0.0602644
0.000584133
6.94579e-05
0.245712
0.00232563
0.000743288
0.00239885
0.0019195
0.00171252
5.21326e-06
0.0153303
0.000250204
0.0600624
0.00317451
0.0245716
7.12546e-10
0.000212013
0.105207
0.237723
0.00059977
6.82901e-05
0.0498299
0.000383644
0.00224936
0.00518364
0.00194317
0.00828168
0.00407535
1.30993e-05
0.000401556
0.00198901
0.0142098
0.00037392
3.49905e-10
0.0026926
2.5188e-09
0.00432406
3.84313e-05
0.000223999
0.00608074
0.00524323
1.23193
3.75437e-09
0.0244678
0.00970902
0.0210455
0.00107195
0.00479309
0.000326093
0.000949831
0.00161882
0.0014019
0.00660328
0.0111428
0.104698
0.00218962
0.00544029
0.000541623
7.02164e-09
0.000383049
0.000367103
0.000233004
1.64617e-09
0.00320294
2.1145e-06
0.0094503
0.000214848
0.000722494
0.0015825
1.67191e-07
0.00681976
3.61931e-09
0.00100439
6.1214e-05
0.00130392
0.000117812
0.0137274
0.000651794
0.00179575
0.0199596
0.211213
8.08367e-05
0.00866709
0.000127749
0.000680336
0.000444769
0.000428774
0.00378236
0.000843968
0.00743025
0.000561237
0.00627043
0.00227907
2.13826e-06
0.000401156
7.26188e-05
8.37219e-05
3.329e-05
0.000503637
0.000274747
0.000314675
7.69538e-09
5.12474e-09
2.17348e-09
0.000487283
2.17706e-09
0.00555399
0.00493158
0.00153718
0.000499724
0.00406416
1.58077e-05
2.92784e-09
0.0155656
0.000469624
0.000155092
1.32232e-09
0.0356613
0.00488306
0.000882612
9.01636e-06
2.44675e-05
0.0106352
2.63807e-07
0.0098414
0.000130067
0.000532565
0.000483557
0.00012835
3.31989e-05
2.51313e-09
0.00134137
1.50012e-09
0.00878421
8.98244e-08
0.00206702
0.000108822
6.99825e-05
0.00163704
0.00165146
0.000598744
0.00192454
5.87575e-06
0.00202402
0.000307134
1.24696e-09
0.00206033
6.32003e-05
3.35138e-05
0.00423791
3.0596e-09
0.000267019
0.00372272
0.0182872
0.000319934
0.00105728
0.00299705
9.12626e-05
0.00461959
0.000633467
0.000584061
0.0044892
0.000148649
0.000379941
0.0031583
0.00162716
8.57849e-09
0.00262222
0.000267494
0.000429016
0.0652968
0.000412261
0.00156593
0.00280732
1.49188e-07
2.03991e-09
0.0031507
0.00438898
0.005547
0.0202897
0.00399277
7.06122e-07
0.0410886
9.4682e-05
0.00132667
0.115396
0.000230647
0.00458192
0.00451131
0.0323683
0.058756
7.39226e-09
0.00254322
1.64403e-09
0.0246766
0.000269083
0.000347841
0.00141871
3.84007e-10
0.000761134
0.0024383
0.000578762
0.00195304
0.00683531
0.00280951
0.0032941
8.44774e-05
0.0250454
0.0007491
0.00014179
1.47657e-05
0.000825994
5.69975e-05
0.00238101
0.00107045
8.59895e-06
4.80428e-05
0.00553493
0.00029501
0.000163766
0.000106621
0.00540877
1.44308e-09
0.000142339
0.00960256
0.00357892
0.000294591
0.000414967
0.000264649
0.000126474
0.00042502
2.3678e-08
7.51507e-09
0.000429219
0.00234178
0.000466222
0.000396984
0.0141229
0.0189929
0.0178306
7.63106e-06
0.00184148
0.00293489
0.00272241
0.00485005
0.00599448
0.000396613
4.65491e-05
0.00255733
4.37644e-05
0.0111031
0.0566182
0.00198102
0.000443765
0.000310696
0.00053842
0.000105419
0.00114775
0.00225977
0.00235211
0.000608725
6.88676e-09
0.000122715
0.00237112
0.00236326
0.00232056
0.00386679
0.0471472
0.000395618
0.00190295
0.00135656
0.0228792
5.6812e-10
0.000398189
1.46255e-05
0.00463116
0.000453763
0.00160471
0.00470339
8.09188e-05
0.00347861
0.00356705
0.00366879
0.00551106
0.00952286
0.0100816
0.00817548
0.00520978
0.00588245
1.31462e-07
0.000147219
0.00047523
0.00600029
0.00474484
0.00222688
5.31242e-10
0.00174198
0.0038883
0.000245337
0.00161016
4.43487e-05
0.014621
0.000126885
0.0406118
0.00314909
0.738081
7.65609e-06
1.56456e-08
0.0021145
0.00317124
1.78683e-07
0.000760376
0.00399879
0.00702092
0.0043198
0.000634193
0.00681188
0.000542245
1.04721e-09
0.019792
0.000765792
0.000925519
0.00116062
0.0026782
0.000323019
0.00112654
3.11794e-09
0.000534606
0.0082269
0.00271179
0.0923757
9.37282e-09
0.00241129
0.0818812
2.5515e-10
0.00878348
0.00276432
0.0250722
0.00130946
0.00363177
3.47613e-05
6.68216e-06
0.0013263
1.54792e-08
0.00123494
4.22264e-05
0.000118053
0.000125928
1.44448e-06
0.00171753
0.00322996
0.00964299
2.94745e-08
0.00225649
0.000526702
0.00016101
0.0360413
0.0546009
0.00503451
0.000373187
0.0042586
0.457591
0.0240891
0.026282
0.000460111
0.00044909
0.102348
0.000136554
2.28631e-07
1.50569e-06
0.0165293
0.000213417
0.00170653
0.000330327
0.00174657
2.99237e-08
0.0045834
0.00902735
0.00287941
0.000649052
0.000736786
0.000477736
2.24787e-09
0.000130819
0.00364799
2.30304e-10
0.00114337
0.000583664
0.00778518
0.000354228
0.110315
4.47946e-05
0.00118644
3.19785e-07
0.00566354
9.27936e-05
0.00110675
0.00256763
0.000380629
0.00242483
1.04436e-05
0.000136489
0.00285892
3.71569e-05
0.0187428
0.0121559
1.01592e-05
0.00150325
0.0839336
0.00295351
0.00400183
0.000114027
8.66301e-06
0.00371532
0.0361927
0.0089759
0.00264495
0.00018258
0.00192599
0.00336637
0.00298625
0.00373774
0.00537095
7.53716e-09
0.116391
0.0515649
0.000489817
1.06254e-06
3.03957e-05
0.00313211
0.00244975
0.0262318
0.0011305
6.80921e-07
0.00230736
0.00037149
2.894e-09
0.00355358
4.22315e-09
0.00268643
2.66071e-05
0.00147847
0.00375439
9.23841e-05
0.0197962
0.000151147
0.00043443
0.00364687
0.00413412
0.00204748
0.00209677
0.0118538
0.000579702
0.00034517
0.000376516
0.000264485
9.23038e-06
2.27452e-09
0.000190361
7.2962e-05
9.7176e-05
0.000781454
0.000646974
0.000852177
0.000115089
4.04012e-05
9.62971e-06
0.000311612
0.00267074
0.000496417
4.44145e-05
0.000238786
6.19014e-05
0.000315435
0.000232164
0.000223583
0.00391831
0.103453
5.27884e-05
0.00478609
0.00166578
0.00412227
4.88626e-09
4.46877e-05
8.61488e-05
0.00837067
0.019659
0.00477315
0.0025791
2.20984e-08
8.46935e-05
0.00037761
0.00474353
0.00943909
1.04426e-08
0.00514796
0.00280497
0.00107435
0.00351737
0.00264046
0.0145894
0.00187253
0.0038561
9.11014e-05
4.62657e-10
1.39729e-09
5.30303e-05
0.00562846
8.39471e-06
6.12998e-10
3.5187e-05
0.00502815
0.000210385
0.0010094
0.00101781
6.03839e-05
0.00191181
4.8202e-05
0.00389261
9.74652e-05
0.00208997
0.0285573
0.00213281
0.00122191
6.09665e-05
2.25156e-07
0.00101852
0.000983776
0.014685
3.22099e-10
1.21847e-07
0.00124693
1.22675e-07
0.000882544
0.000216782
1.58198e-07
6.88445e-09
0.000215036
0.000283798
0.000584267
0.00219978
0.00208091
0.000277096
0.000575256
2.52082e-05
1.07161e-08
0.00565407
0.000204181
6.75979e-10
0.0470188
6.58289e-05
3.28599e-05
0.000282906
6.10936e-08
1.62177e-05
0.000547247
8.74239e-05
0.000563699
9.68553e-06
0.000945098
0.000334948
0.00275398
0.00427753
0.0012906
1.538e-05
0.0629685
0.00238297
2.12346e-07
0.0060764
0.00288624
0.00667968
1.19463e-05
2.27151e-07
0.352066
1.65348e-06
2.48678e-08
3.45045e-05
0.0254839
0.00307909
0.000635585
0.00049221
2.09378e-05
0.00322222
0.0359891
0.00481795
0.00868429
0.0143521
5.58872e-08
0.000340185
1.60215e-09
3.64459e-05
0.00833125
0.000746713
0.0750085
4.16861e-10
0.000493714
6.35134e-10
0.000532963
0.000313626
0.000377745
0.01054
0.0181397
0.000544668
0.00184138
0.0045063
6.4287e-09
0.000235355
0.000995785
0.00202131
0.000395058
0.000809627
0.00749688
0.0106706
0.000591038
0.0016996
0.00266261
3.70989e-05
6.39865e-09
0.000432449
0.0137395
0.0116789
0.00503005
0.0474609
0.00271595
0.000175912
0.00525267
0.000185021
0.000681908
0.0010699
0.022259
0.000284864
0.0205242
0.0116442
0.0341187
1.82178e-09
0.101569
0.00885159
0.00171442
0.00458294
0.0650207
0.000402026
0.00280236
0.00239127
0.00228835
0.00814255
0.00112493
3.84123e-05
3.41699e-06
0.002033
0.0249194
0.294476
0.000156969
0.00905856
0.000290991
0.00126287
0.000444877
0.189719
0.000623405
0.286299
0.779579
0.000103939
2.22881e-09
0.000171644
0.00136924
0.0106314
0.00565523
0.0101709
0.0637792
0.0344203
0.00184443
0.00163687
0.0104649
0.0113428
1.21246e-08
0.000512337
0.000427671
0.000354341
0.000427361
0.000637651
0.138077
0.000274252
0.00288468
0.000398952
0.00308193
0.00201839
0.00221777
4.54829e-10
0.478325
0.0314664
0.185181
0.147807
0.00219002
2.0186e-09
0.00665152
0.00125002
2.80386e-05
0.000761567
0.0853939
8.98393e-10
0.00178715
6.93639e-05
0.000207826
0.0165911
4.758e-05
0.00854572
5.32376e-05
6.48847e-05
0.00164954
0.000639942
0.00113702
0.0129966
2.93114e-05
0.00242929
0.0013845
0.0180441
4.89607e-09
0.000502801
0.00185807
0.0152715
0.00164732
0.000166115
0.00226544
0.0314606
0.000500074
0.000197033
3.42151e-05
0.0014812
0.00177419
0.00303448
1.46612e-08
3.0757e-05
2.41153e-05
0.0002981
0.00381085
0.00135493
8.1922e-08
0.00269394
8.11994e-10
0.0106984
0.00108925
0.000804525
0.00191366
0.00168695
0.00954218
0.000578431
0.0138375
0.000306777
0.000423287
1.17523e-09
0.000378708
0.000405401
0.000581333
0.00196207
4.95809e-07
0.00163183
0.00947922
0.00172149
0.000460533
0.018944
0.00225126
0.00130971
0.0145071
0.00754212
0.0122667
0.0130683
0.00627252
1.64016e-07
0.321172
0.0620552
0.000812901
0.000573414
0.0146906
0.000911949
0.0242152
0.000104229
0.000403281
0.0143512
5.64198e-06
0.00678815
0.000614671
0.000130444
0.00757626
1.66215e-05
0.0312232
0.357266
0.00115101
0.0575292
8.41895e-10
0.000256108
0.00435211
1.63027e-06
0.102318
0.00244202
0.00162409
0.000444868
2.47627e-09
0.00338718
0.00279611
5.11258e-10
0.000489097
0.0259868
0.000618779
5.80209e-05
0.0621713
5.12618e-07
0.00273264
7.58993e-11
0.000345786
0.00237535
0.000153055
1.1836e-09
0.00218519
1.11161e-08
0.00249476
0.000523354
1.87675e-09
7.87773e-08
0.00439506
0.00209896
0.00279732
5.46546e-10
0.00221542
0.000628362
0.00279745
5.04517e-05
0.0316235
4.57435e-08
5.71868e-05
2.75326e-09
0.00161948
0.0371399
5.04786e-09
2.79434e-07
0.000274722
0.00254536
0.000453089
0.00197847
0.296296
2.56786e-09
0.000231783
0.00232256
8.55589e-10
3.75129e-09
3.97964e-08
0.000175733
0.000502523
0.000849556
0.000529729
0.00010633
0.000197887
5.86698e-11
0.0114482
0.000221037
0.000394063
0.00148063
0.00394848
0.00385284
0.0443935
3.15491e-10
0.000172854
0.00012378
8.54686e-05
0.000106956
0.00277769
0.000620123
0.00051408
0.00012011
0.000348252
0.000381682
1.08868e-05
4.26989e-08
8.41816e-05
0.0226786
1.89291e-08
0.0084696
0.000123495
0.0155597
0.00113896
0.00011899
4.6974e-05
0.00434624
0.000113687
0.00408461
0.0193035
0.00222065
6.14855e-05
0.000111576
0.000149842
0.000859176
0.000348843
0.00386212
0.0164501
7.17923e-05
0.010482
4.52137e-05
0.878049
0.440799
0.000109259
0.0411198
9.72198e-05
0.000390757
0.00940887
1.04069e-05
0.603187
0.0443506
0.0075913
0.00062101
0.0283303
0.393294
0.00291628
0.0248717
0.00438905
0.00219787
0.126224
0.0441172
0.000576576
0.000958927
0.0260348
0.0486319
0.00413776
0.000311418
0.0323785
0.000205715
0.0140072
1.10654e-08
0.000955174
0.00658189
0.000213971
0.004216
0.00392552
0.000125397
0.000129424
0.000295403
1.08613e-09
0.00782681
0.00604357
2.84022e-09
0.00044264
0.00172551
0.00245223
0.00401916
0.000384353
0.0115385
0.0634059
4.55041e-07
0.0329478
0.000139623
0.00431082
0.000143816
0.00224496
0.0300532
0.00415546
0.000221901
0.027267
0.000305025
7.61387e-05
0.000365776
0.00025916
0.000626652
0.0075062
0.0259164
0.0147232
0.00744435
0.00554182
0.00104511
0.000134432
8.09887e-05
0.000135994
0.00413605
2.78786e-06
0.00482873
3.61636e-07
3.52828e-06
0.00159429
0.00144804
0.00175694
3.5769e-05
0.0102448
0.00187364
2.33131e-06
0.00339214
0.000276087
0.00187009
0.000459281
0.0068345
0.00231249
0.00506819
0.000450217
0.00637127
0.00228917
4.22221e-05
0.00238869
0.00312804
0.00180927
0.00153511
4.34366e-09
0.000104991
9.06928e-05
0.0345634
0.00179537
0.00702615
0.00183894
0.000173191
0.00334767
0.00835033
0.00228169
0.00250698
0.00361678
1.2496e-06
0.00165493
0.0018949
0.000363265
4.06363e-05
0.00299928
0.00262064
0.0079954
0.029055
0.00167433
8.24096e-05
0.00298497
0.00033093
0.00426771
7.50847e-05
0.00616936
0.000347278
0.00279189
8.75711e-06
0.000731499
0.0009271
0.00721232
6.10882e-05
0.020131
0.00611917
0.00024102
0.00138705
0.00158512
0.000252416
3.00336e-05
0.00248933
0.0218715
0.000106328
0.0376981
0.00208439
1.19154e-06
7.22059e-05
0.001886
0.000239058
0.00087047
0.0137181
0.0232488
0.00208101
0.0118427
0.00155317
0.000215767
0.0044074
0.014404
0.000447563
0.00160852
7.82685e-05
0.0824994
0.0418136
0.000104214
0.00242851
0.00194799
0.000492096
0.000447125
0.0337762
0.00863027
0.0158707
0.000471202
0.00100763
2.95604e-05
0.0193121
2.49366e-09
0.00337673
0.000228697
0.00105029
0.0203169
7.26612e-05
0.00040129
0.00450174
0.00147667
0.00276182
0.00172777
0.0235366
0.0002288
0.00214699
0.0199983
2.04241e-05
0.00041006
0.000439503
0.000365788
0.00236946
0.0134312
0.000466468
2.30284e-08
5.25868e-05
0.0014109
0.00023064
1.76072e-05
1.96717e-05
2.68383e-09
1.35207e-05
3.65239e-05
0.0116427
0.00499856
0.000370827
0.000460621
0.000291191
0.062299
3.44786e-05
5.0328e-09
0.0181365
0.00280201
0.00186055
0.00331908
0.000518276
1.49301e-07
0.0183561
0.00216656
0.0229766
0.000779753
0.049905
0.0142258
0.000125642
0.0258383
0.00326319
0.0891928
0.00748328
5.64123e-09
3.54289e-05
0.257157
0.00672982
0.000993303
0.00310715
0.000161258
0.00331022
0.0308492
0.0109086
0.00292281
0.144472
0.00635498
1.35821e-09
0.017889
0.0638442
0.0349076
0.00132635
0.00267192
0.000211338
0.00282749
0.000679523
0.0190996
0.0196907
0.000894218
0.0523582
0.0230733
0.00061753
0.00269736
0.0136961
0.00325498
0.000723477
0.0506527
0.00260903
0.000110738
0.0108192
0.0108168
0.0217236
0.00264365
0.000270448
0.00278484
0.0163283
0.000358084
9.43481e-05
0.173114
0.00336551
0.00123527
0.00160248
4.67584e-05
0.00433939
2.65664e-09
0.0185419
0.0025352
0.0140665
0.000162176
0.00563465
1.12203e-08
0.0164876
0.000301488
0.000422392
0.00872562
0.00244238
0.00662797
0.0077305
0.00253152
0.0158052
0.000134397
0.0156327
0.00664891
0.00930006
0.0564225
0.00557792
0.0290626
0.0345137
0.0168864
0.00114032
0.00453817
0.00265443
0.000976337
0.000917616
0.00398359
0.00222087
0.000646871
0.000297425
4.65922e-06
0.00237299
0.00134005
0.00127867
0.0539501
0.00324667
0.00276023
0.00023709
2.36681e-05
0.000451158
0.000153063
0.00259049
0.0298532
0.00253527
0.00192639
4.32512e-05
0.017026
0.00255106
2.18298e-05
1.21395e-06
0.000215792
0.0347369
0.00680894
0.00051972
0.0022949
0.00447689
0.000219476
8.4194e-05
0.0048929
0.000429641
4.2678e-06
0.000619292
9.01087e-05
0.00187295
0.00221656
0.00104465
0.00866303
0.103283
0.00025122
0.000100839
0.00356696
0.000327341
0.0111213
0.00240851
4.95803e-05
5.54766e-05
0.00319191
8.39129e-05
0.0100991
0.0752898
0.0451822
0.000171999
0.000525
8.71014e-06
0.000146998
0.00263414
0.00392704
0.000450902
0.00273619
0.0142784
0.00192495
0.00027729
0.00230898
0.000414011
0.0297772
0.000225655
3.69995e-08
0.01101
0.00234371
0.000563979
0.00469936
0.000616878
0.00010587
0.000514104
0.00247707
0.0226614
0.000145158
0.000114283
0.000299833
0.00700139
7.83205e-05
0.000696026
3.55871e-05
0.00127879
0.00956457
3.61908e-05
0.0285883
1.02676e-09
5.09822e-05
0.00240049
7.50342e-05
0.000338216
0.00347069
0.00119077
0.00246515
9.37172e-06
0.00181666
0.000159123
0.000121819
0.00226748
0.0032927
0.00329092
0.300138
0.00191072
0.000952994
0.00255634
0.00295713
0.000284332
0.000248057
0.00373195
0.00215503
0.00308818
7.22126e-05
0.000905295
0.014029
0.00278709
0.112054
0.000867194
0.0100848
0.0103294
0.0123994
0.00126218
3.18773e-05
6.0516e-05
0.000104466
0.000101365
5.08024e-09
0.000257656
0.0116722
3.38924e-11
3.36917e-09
0.00374377
2.94613e-05
3.38179e-05
0.0149572
0.00222845
0.002907
0.00190903
0.00227824
4.88633e-05
0.00159062
4.23744e-05
0.0242024
0.0134975
0.010179
0.00190832
0.000139837
0.0015846
0.000285765
5.86106e-06
3.77304e-05
1.41389e-07
0.00169093
0.0110387
0.00698223
0.0014562
0.00184986
0.00219805
0.0023258
0.00176677
0.000341843
0.00412503
0.000562571
4.2599e-05
7.59556e-09
0.000433358
0.00277325
6.72921e-05
0.00033443
0.0022762
0.000264552
9.26332e-05
6.93815e-06
3.15508e-06
0.0533946
0.000482242
0.000675319
3.29754e-05
0.00284236
0.0022147
0.0018551
0.00343582
3.98944e-05
7.52556e-07
0.00105424
2.7844e-05
0.0194773
0.00321257
0.024222
0.00160541
0.0512391
0.000112697
0.00110635
0.000237885
4.18271e-08
0.00373608
7.57961e-05
0.00133679
0.000104291
0.00221741
0.0193197
0.00166056
0.0023284
0.00880259
0.00239385
0.0107854
0.00359063
0.00163468
0.000932921
0.00503142
0.0296347
0.000302011
5.08934e-10
0.0632396
0.00891715
0.00642293
4.20841e-05
0.0649932
0.00193773
0.0150675
3.23391e-05
0.0172772
0.00325398
0.00136154
0.00257644
0.00235325
0.000775255
0.0402764
0.0144668
0.0145817
0.0032801
0.00232149
0.00159447
0.00338938
0.000933208
0.000488088
0.00182822
0.00331773
0.000150624
0.000129945
0.00169065
0.0360932
0.0030883
0.000347569
9.82119e-08
0.000406384
0.00168976
0.000456643
0.00151608
0.000733261
1.5092e-06
0.0141095
0.000252013
0.000666091
0.00205403
0.00125048
0.000125625
7.51365e-05
0.0001767
0.00205095
0.00314323
4.18518e-05
0.000108509
0.000669099
0.000103582
1.11777e-06
0.016778
0.00021694
0.00329741
0.00152992
0.00150543
0.00211217
0.00694563
0.00427028
0.000584968
0.00398139
7.13366e-05
0.00228172
0.00438675
9.38176e-06
0.00747094
0.000391648
0.00296587
0.00188044
0.0994995
5.47906e-05
0.000193168
0.000518588
0.000771465
0.00137864
0.00297646
0.000198899
1.62316e-05
0.00138327
0.00542042
0.000584498
0.00287305
6.499e-06
0.000465665
0.00955021
0.00241586
0.000141491
0.00214477
0.000254316
0.00419841
0.00338244
2.06468e-06
0.00029226
0.00366315
6.96856e-05
8.50388e-07
0.000344637
0.000199174
0.120475
7.32103e-06
0.00056624
0.00323615
0.00010571
0.0117939
8.35314e-06
0.00274606
0.000121867
7.94454e-05
0.0005188
1.89127e-05
0.000206226
0.00295155
3.89764e-06
0.000108681
0.000122387
0.018536
0.000602954
0.000357375
0.000358263
0.00217763
4.49781e-05
0.0031171
0.00456237
1.18817e-05
0.000360668
0.000553052
0.0011667
1.48189e-05
0.0123933
0.000291767
0.00158547
0.00218861
0.000126971
0.0842608
0.000377919
0.00306147
0.00110988
4.82254e-08
0.00236975
0.00498791
0.0266643
0.0113105
0.000410464
3.0566e-05
0.0379669
0.0399807
0.000563895
0.01793
0.00842026
0.000394599
0.00012326
0.000636546
0.000341711
0.000316947
0.000460441
0.00440732
1.061e-05
0.000163272
2.67179e-05
5.7963e-05
0.00604752
7.71725e-05
0.00247062
1.94864e-05
1.38925e-08
0.000192187
1.21995e-07
1.65826e-09
1.00154
0.000184756
0.0193738
0.0030514
1.63511e-05
0.000297092
0.017758
0.00188699
4.10637e-06
0.00238248
0.00566521
3.70315e-08
4.19494e-06
0.0003968
5.45976e-06
0.00222998
0.000554797
0.00249212
0.00486806
6.09244e-06
7.07707e-05
0.0199062
0.00283648
0.00306162
0.000394485
0.00355645
9.62278e-05
9.47556e-05
0.00236808
0.00925607
0.0126435
0.00604497
0.000755449
0.000178193
0.00252016
0.00190933
0.00202734
0.00267614
0.000228867
0.000310615
0.00367319
0.0016892
0.00333153
0.00271027
0.000751622
0.00464962
1.08374e-09
1.47179e-09
0.0227401
0.000181438
0.000904279
0.00209358
0.00330156
0.00978224
0.00385138
9.03757e-05
0.00704594
0.00316336
0.000125098
0.00326002
0.000100433
0.000231165
6.95882e-05
0.00362325
0.0128712
4.63636e-08
0.00605797
0.00160955
0.151173
0.000167651
0.00371997
3.07026e-05
0.0121062
0.000166277
8.49895e-05
0.000108119
0.0221857
6.65714e-05
0.00275137
0.00261645
0.00311645
0.00676037
0.00215697
0.00219239
0.0168359
0.00690999
0.000287349
0.000174466
0.0122511
0.00013566
2.98037e-06
0.00189879
0.00359467
0.00188878
2.11448e-05
0.000113629
0.00466344
0.0032602
0.00206749
2.76612e-05
0.00320066
0.00190962
0.000624962
7.55922e-05
2.59685e-06
0.00269393
0.018544
0.00284535
0.00155105
0.00712873
0.000487629
0.0313598
0.00131602
0.00744595
0.000251176
1.05552e-05
0.000237082
2.73092e-05
0.000446687
5.97813e-06
2.70052e-08
0.00365874
0.000153331
0.0371766
0.000766599
0.00789163
0.00214134
0.00737424
0.00331274
0.0148516
0.017484
0.00141523
0.00978128
1.05358e-05
0.000372531
0.00130017
0.00182251
0.00021837
0.00404122
6.13138e-05
0.00307613
0.000100194
0.0026388
2.10585e-05
0.00265506
0.00133701
0.000427452
0.0265729
0.000161841
0.00130568
3.38405e-05
3.10618e-05
0.000138794
0.00541028
0.00284762
0.0020213
0.000611702
0.00159281
0.00312354
0.00025256
0.0157395
0.0133806
6.2302e-09
0.000208347
0.00174027
0.000100132
0.000288343
0.000470899
0.000447443
2.38203e-05
0.00320192
0.000450728
0.0053714
0.000526624
0.0011697
0.000536876
0.00837791
0.00525684
0.00878332
4.97292e-06
0.0538838
0.021865
0.0974054
0.00186397
0.000145536
3.3037e-05
0.000293483
0.0067522
0.010263
0.0297063
0.0246779
9.21868e-06
1.54999e-05
0.00781506
0.00040471
0.0173465
0.301691
0.0170778
0.000345866
0.000448342
0.0160649
0.00159148
0.00024219
0.000725763
0.162168
1.3776
6.93751e-05
1.61676e-06
6.37841e-05
0.00486619
0.00104756
0.00185777
0.00269347
0.00197194
0.00438779
0.000879806
0.00222077
1.00928e-05
0.00255933
0.00263982
0.00256365
0.000442005
2.91501e-05
9.34278e-07
0.00469926
0.0145083
0.00403974
0.0024935
0.000400169
0.00159822
0.00160177
6.58786e-05
7.81829e-05
0.00870118
5.41732e-09
0.0314852
0.000106994
0.0488623
0.0149787
0.000242759
0.004949
9.99142e-06
0.00234505
0.000136816
0.000871756
0.0839302
1.12328e-05
3.11052e-08
8.29526e-06
0.00388133
0.00342725
0.00151288
0.000989541
0.00097815
0.00125794
0.00104045
0.00182878
6.28112e-05
0.0680459
0.026562
0.00285136
0.0015044
0.00287454
0.0669133
0.0119644
0.0040951
0.000287409
0.00721338
0.0026806
8.20359e-05
5.18884e-05
0.00480651
0.00681733
0.0172441
0.00521039
8.46114e-05
0.00453557
0.0372377
0.0245522
0.00323989
7.65659e-05
2.90556e-05
0.0398369
0.00179491
0.0102503
0.00042066