/*--------------------------------*- C++ -*----------------------------------*\
  =========                 |
  \\      /  F ield         | OpenFOAM: The Open Source CFD Toolbox
   \\    /   O peration     | Website:  https://openfoam.org
    \\  /    A nd           | Version:  10
     \\/     M anipulation  |
\*---------------------------------------------------------------------------*/
FoamFile
{
    format      ascii;
    class       volScalarField;
    location    "18.5";
    object      SgRate;
}
// * * * * * * * * * * * * * * * * * * * * * * * * * * * * * * * * * * * * * //

dimensions      [1 -1 -3 -1 0 0 0];

internalField   nonuniform List<scalar> 
111485
(
1.36222e-09
0.00791747
0.0242263
5.71222e-11
0.0490318
3.17686e-08
0.0463777
0.00616409
0.0190538
0.00123734
0.0467703
0.00941918
0.00481034
0.29571
0.00652212
0.0303943
0.210117
2.6219
0.0103604
4.7972e-08
0.0372243
3.18518e-09
0.0267737
0.0346396
0.00870958
3.49424e-08
0.039525
0.00178356
0.0153989
0.0481594
0.0445714
0.0195045
2.17877e-07
1.4729e-06
0.00720129
9.14539e-05
0.147029
0.209642
0.00244997
0.0241354
0.0434043
0.0708168
0.0158818
0.00165185
8.16313e-05
1.58623e-06
0.0296365
0.000712261
0.0474568
4.28284e-07
1.09393e-06
1.72726e-05
4.61959e-07
0.0513642
1.50449e-06
0.043718
0.00307331
4.39889e-08
7.05769e-05
0.00480314
0.0160913
2.65318e-07
0.00487871
0.0977149
6.4643e-06
0.00315372
0.316043
0.0943946
0.00118316
0.00624962
6.7569e-05
0.00669778
1.12451e-05
0.00299682
4.64491e-08
0.000714325
1.51508e-08
0.0412055
2.78297e-08
3.12559e-05
0.280486
0.559401
4.66097e-08
5.22335e-09
0.00934536
0.00388057
0.143368
0.0253768
0.000307263
0.00743462
0.000268063
0.0404105
0.0119464
5.81666e-05
0.0521853
6.66152e-09
0.0270717
0.00182818
0.00153462
0.00170884
1.46085e-09
0.0178614
1.95901e-06
0.0180758
0.00460459
1.64421e-05
5.96548e-09
0.00758059
0.00416325
0.000724937
0.00549528
0.00473698
0.0037955
0.00330442
1.03899e-07
3.40466e-05
3.04284e-08
6.531e-06
0.0128768
4.63144e-09
9.18513e-08
0.000189644
0.0750474
2.26049e-06
0.0015867
0.0279239
0.00010677
0.00172065
2.8325e-10
0.000343241
0.00162943
0.0328153
0.0472172
0.000175183
7.83964e-05
0.0483478
9.16701e-10
0.0425459
0.0254345
0.00274202
0.00032058
0.00200303
0.202588
0.00274809
0.00406684
0.0130627
1.07769e-09
8.83127e-10
4.75118e-08
0.0281094
0.00157863
0.0285561
0.115363
0.00473803
3.56617e-05
0.0108636
0.0162171
0.0108968
0.000822839
5.43927e-06
9.53193e-10
0.0522996
0.022718
7.54956e-05
6.35522e-05
0.00588032
0.00342065
0.0269951
0.00156714
0.000171161
1.56318e-09
1.52098e-08
0.19799
1.06174e-10
0.00550468
0.00207603
5.28036e-07
9.53776e-06
3.61697e-08
5.80147e-06
9.88948e-06
3.71323e-08
0.00151423
0.00678485
0.0298421
0.0041449
0.00765725
0.00408163
0.000464066
1.78798e-07
0.00489942
5.7749e-06
7.13556e-06
0.00657287
0.0104077
0.0285664
0.0113805
0.00504228
8.46713e-07
0.00675431
0.00050974
0.00167162
0.0143913
0.002331
1.82894e-06
0.00382092
0.0252066
1.18262e-05
0.000179385
0.0078607
0.00201676
0.000377513
8.63477e-06
7.81508e-09
0.00838675
0.000311928
0.119564
7.06587e-09
0.00668796
0.0205622
0.119285
8.32599e-08
0.00329127
0.0137595
0.000277524
6.88382e-09
4.18102e-10
0.1509
0.00416307
2.35352e-05
9.35048e-05
0.00947436
0.00779754
0.160752
3.87041e-05
2.0645e-05
0.160679
4.65638e-08
0.00245715
0.0095603
0.0166613
0.0116905
0.00965769
3.88693e-06
0.00193939
0.000631953
7.81767e-06
1.14919e-08
0.0309237
0.156892
1.83701e-05
0.00652749
0.0107773
7.9259e-10
0.000192945
0.000115014
2.79579e-07
6.65857e-05
0.0996736
1.85511e-08
0.0148272
0.0107429
0.00367732
3.37355e-09
0.0118726
6.65357e-11
6.10467e-08
5.09934e-07
0.164932
0.0229407
0.00620683
0.00546611
0.213474
0.0123636
0.0015751
0.000820403
0.0323796
0.00877371
4.51501e-07
5.36045e-09
0.111644
0.0226913
0.0246079
0.0118623
1.84136e-09
0.224384
0.267548
0.00302408
0.000321501
3.62085e-05
0.0138068
0.00219446
0.00197133
2.04194e-08
0.000655988
2.58148e-09
0.000358492
0.000276577
0.236111
0.0679456
0.358013
1.77594e-08
0.0857343
0.00899349
0.00172071
3.10106e-09
1.1529e-07
0.0246315
0.000299295
0.0570147
0.00399944
0.0135972
0.0192366
3.03752e-05
3.04875e-08
3.53107e-08
0.00379173
0.00441657
0.250623
0.184691
0.000788692
1.73249e-09
8.67543e-09
1.38324e-08
8.43368e-05
0.0600213
0.0118734
2.16568e-06
0.00526297
7.12966e-05
0.0608248
0.0670809
0.00594918
0.0114421
0.00930492
0.0481444
4.98742e-05
7.35087e-07
0.00946433
0.0187556
0.00484947
7.07376e-08
0.150946
0.000330611
0.00224576
0.00805703
0.000333907
0.0284503
0.0389829
0.0375146
0.00357394
0.00776696
0.0255369
0.0132666
9.07794e-06
1.96514e-07
5.45551e-07
7.1313e-07
0.0312529
0.371366
0.032855
0.0672845
0.0528072
0.0184426
1.74231e-08
4.08283e-07
0.0166359
0.046945
0.0803351
0.0459133
0.0494904
0.0228722
2.47224e-08
0.0135552
0.000289474
4.30348e-10
0.000992733
0.0165881
1.57653e-05
0.00894823
0.00924297
0.00817346
0.00140111
0.00269253
0.00550617
4.31201e-05
1.16425e-06
0.0026647
3.88587e-07
0.00630596
0.117524
0.0302598
1.16887e-07
0.0275976
0.154619
0.00829245
0.326479
6.55147e-08
0.0472967
0.0188238
7.48426e-09
0.000845238
0.00243552
3.76586e-09
0.0320511
0.0109397
0.00520504
4.53423e-07
2.58114e-08
0.000756536
3.78409e-09
0.012387
3.60888e-06
4.4204e-10
0.016798
4.01741e-05
0.258698
0.030018
1.93978e-09
7.94759e-05
0.00162543
9.71681e-05
0.000202291
0.0151071
0.12184
0.836046
5.1223e-05
0.207249
0.000738048
4.58991e-08
0.0389481
0.0311014
2.03444e-07
0.0014163
0.000308263
8.3439e-05
0.0238435
0.0240354
0.0139055
3.69627e-08
0.351588
0.0169031
0.0229019
0.00438517
9.14523e-05
0.00126972
3.56917e-08
0.253166
0.363064
2.57051e-08
0.00829991
0.000362976
0.000103379
4.05603e-09
3.00882e-05
3.55768e-09
0.288237
0.00965199
0.00637158
0.00217185
0.00263704
1.85334e-07
0.00196752
4.99546e-07
0.0410986
1.54636e-07
5.97832e-07
0.0524183
0.0372497
4.02841e-08
1.3683e-09
0.000384174
8.48661e-08
1.59637e-06
0.00107011
2.73098e-08
6.12849e-05
6.71066e-08
0.0741777
6.95754e-08
1.65919e-06
3.69724e-08
0.007133
4.28055e-07
0.224299
0.00197371
0.23731
8.21734e-09
0.000963419
2.57896e-06
2.72686e-09
0.371844
0.144721
0.0269719
0.0250132
3.06367e-05
0.00203414
0.0821531
0.00849374
0.00105852
0.292532
2.55529e-08
0.0233104
0.000108329
0.00504106
0.0588744
0.0761584
0.000114943
0.0210726
0.00024625
0.000782775
0.0817071
0.00202381
2.17923e-08
0.080131
0.0488013
3.54296e-06
1.14019e-06
1.96262e-05
1.75751e-09
0.00169683
0.0547519
3.54255e-07
1.78846e-07
0.00253614
4.63507e-09
0.0339014
2.9429e-08
0.000325816
1.03159e-09
0.116566
0.114502
0.00101336
0.0126707
0.0650488
0.0816546
4.77148e-08
2.55169e-07
0.0148524
4.56526e-08
0.000202186
1.78184e-05
0.001649
0.042664
0.0643772
2.45169e-09
4.68804e-05
0.0175345
0.00329206
0.00174028
0.00388717
0.0068786
0.0207162
9.75183e-07
0.0253287
0.00604717
2.5132e-09
0.126416
0.0409502
0.0154254
1.34361e-06
0.00493716
0.00688606
0.00224901
0.00400572
0.000385344
0.0137214
0.00131171
0.000134908
0.0231827
0.128567
0.000798103
7.42539e-05
0.00358775
0.72636
3.16983e-08
0.000415738
4.57717e-06
4.06875e-05
0.0073181
0.00321149
0.00274739
0.000449523
0.00016703
0.0161099
0.0110507
5.45219e-08
0.000198436
0.00133471
2.8715e-08
5.75376e-10
5.41406e-08
3.23108e-08
0.0128293
1.84218e-09
0.0347628
0.00857622
0.00193193
0.0988661
0.329436
6.03151e-05
0.0085015
0.0371624
5.49699e-08
0.0521936
1.81856e-07
1.95388e-08
4.77032e-05
0.00422864
0.121167
0.0283968
0.00624459
2.69441e-06
0.089401
0.145941
0.0286257
0.0281243
0.000499627
0.19683
0.0414319
0.0538842
0.0465734
5.96099e-06
0.000319696
0.0406124
0.00796994
0.00142975
0.0276554
0.0261128
1.14037e-06
0.0108591
0.000666682
3.21005e-05
0.034796
0.000256471
0.000659413
0.0109164
0.0405491
0.00133832
0.02153
0.0196515
0.00720486
3.27336e-06
0.0104322
0.00033717
0.000197322
0.0171108
0.017922
0.0357557
4.62672e-07
0.00188472
4.45547e-06
3.92983e-09
0.0775476
1.62974e-08
0.136681
5.8863e-05
0.0117412
8.04169e-08
0.0294108
8.20626e-05
0.0427862
1.34227e-09
0.0308648
3.01099e-07
1.64877e-08
8.16344e-07
0.320988
0.000527977
2.94549e-05
0.041198
1.03884e-07
2.8226e-09
0.206682
0.0695796
8.35723e-05
0.00198872
0.00013023
6.45496e-08
0.0372946
0.00865004
0.179499
6.84922e-10
4.74557e-09
0.000416222
0.0010674
0.000132521
4.09945e-07
0.0629393
0.00723122
2.58943e-08
1.22951e-07
0.0454667
0.0420101
0.00224373
6.05693e-10
3.85462
0.361078
0.191672
1.61354e-08
1.8993e-08
0.055204
0.000449597
3.95978e-05
0.000593114
0.111447
0.00266367
0.011251
0.0633959
0.0523569
0.00190182
6.84723e-08
1.20072e-06
1.35478e-08
9.38534e-09
7.67435e-08
8.99641e-10
0.0223071
7.12766e-08
1.93698e-08
3.23285e-07
0.0113526
0.0236411
1.07701e-07
5.80282e-07
0.105603
0.0143218
0.00989784
2.69323e-08
7.31372e-09
0.037109
8.04852e-10
0.00178537
0.00264389
0.00396214
1.29705e-07
1.38199e-10
9.40093e-10
1.58144e-09
0.014717
1.82365e-08
6.57997e-08
0.00106566
4.80508e-09
0.0231883
0.00199068
2.36444e-06
0.0368773
0.347922
0.00253292
0.280945
0.000252996
0.0436464
0.209643
8.23415e-05
0.0236298
0.0679692
0.00599812
2.04995e-05
0.088995
0.773013
0.00998298
3.8148e-08
0.00246078
0.00252753
0.00124493
9.25487e-05
1.84349e-09
1.58112e-10
0.0134613
3.86167e-05
0.00270535
3.91547e-06
0.00140667
0.00142527
0.0366495
0.000573331
1.53515e-08
0.0334668
8.10626e-06
0.0205006
2.77353e-08
4.97934e-05
0.000204553
1.77865e-06
3.45793e-07
0.0407206
1.57735e-09
0.0101402
0.0637933
9.96402e-09
0.0726243
4.30192e-05
0.0370905
0.000609102
1.00016e-07
2.7634e-05
0.0016292
0.0458847
0.00406586
0.0013213
0.161582
0.000203134
0.00399753
9.95735e-07
1.07021e-05
0.496353
0.162328
4.3016e-08
0.241651
0.000867319
0.000162492
0.00991543
0.000210464
0.0012102
0.0231442
0.0094205
0.00225079
0.00486778
0.00197526
0.0456617
8.1461e-08
0.0329888
0.0264106
9.7419e-08
0.00843549
0.271342
0.0283446
2.94315e-07
0.00190241
1.5444e-08
0.0101698
0.22619
2.27881e-08
0.17942
0.342755
0.00134872
0.0049659
1.09486e-06
0.0485222
7.77402e-05
0.00164275
0.00122697
0.00032877
4.28149e-06
0.0453808
0.00700548
8.99935e-10
0.000426546
0.000543139
0.000910676
0.000466949
0.000863132
0.000171518
1.0822e-09
6.87732e-05
0.0226359
4.1256e-07
0.00183756
0.351371
1.74396e-07
3.2682e-08
0.00324224
0.00330308
2.73399e-09
0.000611176
8.68178e-08
1.57727e-08
1.25428e-08
4.49915e-07
5.05634e-06
1.65503e-07
0.000351514
0.0518879
1.48869e-09
5.21186e-07
0.00451386
0.116028
0.00177968
0.00916861
0.0326004
9.97271e-09
0.000291587
4.1334e-09
2.26862e-09
0.000576461
0.148382
0.0421245
5.70962e-09
6.73989e-08
0.0357374
1.81042e-08
0.0231606
4.72919e-08
0.00681158
7.06874e-09
0.00196202
0.0263816
2.73079e-09
7.56815e-07
5.59532e-07
0.00143629
6.27744e-07
2.36329e-08
2.08362e-06
0.00445438
0.0541526
0.00426806
0.000612547
0.00107024
4.31391e-08
0.00140489
0.00192763
0.0440477
3.47257e-06
0.000225189
0.00540625
1.1731e-07
9.5401e-06
0.000150566
1.00411e-07
0.00815972
0.00161675
0.00320199
0.0732789
1.25274e-09
0.0230857
0.0609441
0.000121738
7.73655e-05
5.49365e-09
0.026352
1.7516e-08
1.13458e-06
2.89649e-05
0.0518305
5.52607e-07
0.00235258
2.76117e-05
0.000867804
1.69371e-05
7.25519e-09
3.82033e-06
1.66342e-09
0.00247273
0.000653902
0.30418
3.09586e-08
5.07168e-07
0.00211035
1.87954e-10
4.79166e-05
4.47628e-07
0.0360912
0.000850846
0.0319746
1.46066e-08
0.00140791
0.000170059
6.32859e-05
0.000290572
4.71027e-08
0.00135826
0.0246814
0.137412
0.00118461
0.00032169
6.34248e-08
6.72416e-10
2.2968e-08
0.186624
0.0748665
0.00761773
6.80535e-10
0.174219
2.95746e-08
0.214508
0.00313108
7.63451e-07
9.15602e-08
3.41144e-06
6.16246e-07
0.0417122
2.12454e-06
0.000123141
0.324527
0.00682213
7.23842e-05
3.36847e-05
7.07807e-05
5.12828e-05
3.22442e-08
3.71089e-10
0.0258115
0.000433618
8.23173e-09
2.01926e-07
0.000611997
4.60146e-07
0.00153405
0.423374
1.77075e-06
0.00359693
3.91039e-10
0.000388375
2.64307e-07
0.332546
2.73621e-09
0.119294
0.0055423
0.000750976
0.0183541
0.0344095
0.000947645
2.57558e-06
0.000558242
2.31434e-06
0.00462501
6.17733e-08
1.86487e-06
8.57754e-05
2.38971e-06
0.0707526
2.75424e-07
0.0072756
0.00850555
2.05325e-09
0.000384505
8.53148e-08
0.000838655
0.000840251
6.8637e-08
0.0180238
0.000240858
5.50492e-07
0.0234008
0.190403
0.0036896
0.0111402
1.73711e-10
0.0466743
8.98852e-06
1.91389e-07
0.0369223
4.9397e-06
0.11424
9.45356e-09
0.152535
0.000729315
2.0487e-09
0.00110692
4.0558e-07
2.67113e-09
0.00313548
0.00101758
0.0104335
7.96224e-09
1.12041e-06
4.63205e-08
0.000888588
5.06725e-05
0.0343584
6.28414e-06
0.000931508
6.77615e-05
0.00117866
3.09688e-05
3.528e-06
1.08771e-06
0.0183187
0.00977471
0.0182161
0.0358894
0.0440894
0.000267964
0.0480346
1.2387e-09
0.00956857
1.17205e-07
6.27141e-05
0.000461951
0.00671308
0.000425371
0.000541312
0.00201495
9.16145e-10
0.00721295
0.00839387
0.000216112
0.000814348
0.0151949
0.000877841
1.68762e-06
0.0301767
1.38124e-07
5.96986e-09
0.000265661
0.074669
0.00099423
6.62111e-07
0.0475319
0.000670359
7.19314e-07
1.37626e-07
0.000599942
2.91387e-06
0.0557702
0.321294
0.000366936
0.000422733
0.0223445
0.00721131
2.22433e-08
1.35501e-08
8.70639e-05
0.00405719
0.0349942
0.0551914
0.00965201
3.18409e-08
0.000323189
0.0417833
2.76546e-05
0.00115788
2.57153
0.0442002
0.122349
0.0514154
0.0216612
1.17806e-09
0.00203919
6.61328e-07
1.62399e-07
1.94096e-07
7.54673e-09
0.00284361
4.01546e-09
2.10334e-09
9.20338e-05
4.93296e-08
6.67881e-09
9.54362e-07
0.00969701
0.0600731
0.0108983
0.00317236
0.0775566
0.264621
5.74289e-09
0.188952
0.000164097
0.395488
0.0129758
1.10605e-07
9.29742e-05
0.00760222
0.262927
1.73459e-09
0.00118654
0.0191475
0.00467951
1.63689e-05
0.0258082
1.09726e-06
2.40877e-07
0.0789483
1.01269e-08
0.00809695
1.21163e-07
9.14849e-07
0.00830165
0.00046093
0.00277123
1.1618e-06
0.000391033
0.000665017
4.23349e-07
0.000204681
7.49369e-07
0.023361
1.43541e-07
1.27759e-07
0.25532
0.044577
0.000540403
3.32864e-07
6.27531e-09
0.00471034
0.195537
0.00468318
0.0151392
0.217902
0.0202467
2.43226e-09
0.0363892
0.00312283
0.00672279
0.0368389
0.0104339
7.81901e-09
0.193256
1.1284e-09
0.0406046
0.00929321
0.0111081
1.51636e-08
0.0132624
1.32909e-06
0.00273118
0.00901133
5.17288e-06
2.91758e-10
4.66308e-09
0.00294685
0.0818791
2.41366e-09
0.00425118
0.0215222
0.00010143
0.00735774
0.0491651
2.33462e-06
0.000140669
0.00083908
6.11735e-08
0.0103116
1.97986e-06
0.00258364
2.90685e-08
2.69404e-08
0.0122589
6.14251e-09
0.000220158
0.00370039
3.10481e-08
8.11596e-08
0.00457228
0.00054977
0.35852
1.18401e-07
0.250797
1.84871e-06
0.000370729
0.000171091
0.00754089
8.29924e-05
0.0805134
0.00557662
5.53897e-05
0.00108705
0.0680021
7.12554e-07
5.01606e-08
0.000425493
0.000784658
0.0423248
1.91142e-07
0.0348498
0.000946479
1.61551e-08
0.23217
9.66991e-09
1.7048e-07
2.35845e-06
0.00290489
0.311666
0.0584365
4.90535e-07
2.47023e-08
1.81784e-09
1.11246e-07
1.09391e-07
6.58708e-07
1.20753e-07
6.58054e-09
6.40148e-08
1.17002e-08
1.84064e-07
0.0640859
0.038004
2.90449e-09
1.38286e-05
8.05793e-09
7.79057e-08
1.28998e-08
0.0372517
0.0824604
0.0171114
4.51093e-08
1.20033e-08
8.34783e-07
0.00659983
4.07722e-06
1.35985e-07
0.294327
2.70708e-07
3.12937e-06
0.0228992
0.000189501
5.34654e-06
0.00866974
0.0243493
3.14754e-08
0.00335949
0.00472078
1.78896e-08
0.0133822
0.0391145
0.0177132
0.00340815
0.010642
3.66327e-06
1.12587e-07
0.334965
0.0105431
0.00325164
0.0641153
0.00687506
0.00179143
0.021364
0.0100055
0.000698256
0.0155691
0.00106357
0.0102826
3.37496e-06
0.0242831
0.0084137
0.0016338
0.00141328
5.55468e-09
6.27774e-08
4.68826e-08
7.00975e-10
1.78141e-07
0.00918058
0.0134825
1.94059e-08
3.15038e-09
1.83426e-07
1.73846e-05
4.41062e-09
9.88135e-09
8.2287e-07
1.11859e-06
0.00464599
0.000289932
0.0216385
0.247743
1.20761e-07
1.15971e-05
0.0300485
1.1487e-05
4.07102e-09
1.80404e-08
0.231992
5.62319e-07
5.49995e-09
4.83434e-06
0.233777
0.0134983
0.0333484
0.0343206
1.09979e-06
0.0139235
0.000350925
0.000387293
1.94294e-08
0.0118628
4.98678e-06
1.90427e-07
0.0160608
1.04169
0.197122
6.77351e-06
1.37709e-06
0.0168024
0.0197508
0.0177679
0.00552898
0.00690262
1.20203e-08
0.000641796
0.000415903
0.0611216
1.00416e-05
0.275732
3.09363e-08
0.00197449
0.0247003
0.0174499
0.0111305
3.26704e-06
0.00605163
3.60458e-08
9.80051e-06
1.11513e-09
2.00877e-08
0.00245562
0.878535
1.00429e-07
5.47367e-09
0.00042714
0.0229625
0.00174162
0.00681442
0.0322176
0.00468371
0.0201377
2.01442e-05
4.54582e-06
0.000205638
0.0291049
0.00554727
0.00331504
1.21616e-06
7.22961e-09
0.000157602
0.0217546
0.00263597
4.87479e-09
0.149018
0.0572443
0.00629286
0.00607577
7.33914e-09
0.000196559
0.00675725
0.0223168
8.45463e-10
0.000411279
0.0146726
0.00103568
0.205477
0.00460788
0.00775581
0.000246814
0.00322411
0.0204404
0.0351083
8.49996e-05
0.0219861
0.000120208
0.199808
0.000165853
4.48556e-10
0.002479
0.00745067
0.000420236
0.0112686
0.000463261
0.000993021
0.000497946
0.0418008
0.00360424
5.27822e-05
0.0371504
0.00128093
1.19828e-07
1.06928e-08
0.102166
0.000523011
0.00102861
1.06232
0.0343403
0.0118513
0.000431591
0.0439643
2.27738e-06
3.23112e-06
0.00381456
4.21402e-05
0.00198671
0.00399447
0.00215788
0.00450915
6.39913e-09
0.000215355
0.104285
1.97069e-08
0.014797
0.00733269
8.0454e-06
0.00390656
0.00013702
4.06357e-08
0.000598084
0.138915
4.78557e-08
5.50704e-09
2.10763e-08
0.148857
0.251695
0.013587
0.0533542
0.00458236
0.0317121
7.99958e-06
0.00775985
0.0120044
0.0230557
0.00149506
0.117898
0.340731
0.401236
0.0100853
0.00878023
0.035582
0.15719
0.364299
1.38878e-08
0.175225
0.0478585
1.09373e-08
0.000405066
5.93464e-07
2.84993e-08
3.75452e-08
2.29005e-07
1.75248e-08
0.140225
4.48253e-08
0.00691591
0.00129122
2.28869e-08
0.00365694
7.3371e-06
0.013341
6.51143e-08
0.000612043
6.43935e-06
0.0207316
0.00021999
6.58245e-06
0.00410928
0.0272215
0.0158639
0.0037537
0.0260415
0.00341458
0.0222156
0.0519795
0.0093759
8.35221e-07
0.00106399
0.00033282
0.00539869
0.0097935
0.00059033
1.15515e-06
5.78336e-05
1.36994e-07
0.00335996
0.0412306
0.000748422
0.329023
0.00245022
0.000360322
1.7048e-08
0.0615708
1.18202e-09
0.00839001
0.0202308
0.0011372
9.65705e-05
0.00177712
0.00658717
0.0017751
0.000798101
0.00634927
0.00592534
0.00256712
2.25068e-05
0.0787279
3.55648e-07
0.0123686
0.0103656
8.00546e-07
6.72891e-10
0.000261052
0.00815214
0.0174134
1.39819e-08
0.00213045
0.0444087
0.000211893
0.00441316
0.0855528
1.70364e-09
8.18066e-11
0.00348342
4.11908e-09
0.000105143
0.0114543
2.17516e-05
0.0103255
0.0310386
0.0181038
3.06933e-08
0.00148766
9.04553e-05
0.000132072
0.0460643
2.89384e-08
9.82321e-07
0.0101583
0.000536187
1.00031e-06
0.161882
0.000924758
2.8882e-08
4.14717e-08
0.000230881
8.31299e-05
0.00231857
0.00298521
0.0244398
0.242227
3.76362e-10
0.000334078
0.000704825
0.0425443
1.75558e-06
0.0475137
0.0831038
0.000119616
7.6212e-06
2.01292e-05
1.1287e-08
1.56458e-05
2.7063e-05
0.000375739
1.92171e-05
0.000320207
2.60431e-05
0.000671558
0.000345083
0.000593067
0.000130393
1.67532e-08
0.0271646
0.00945443
6.25443e-06
0.0819229
0.000249002
0.000214583
1.38197e-05
0.00116126
0.000265058
0.0026297
0.000386334
0.00105052
1.9376e-05
2.44534e-08
0.00118138
0.000417619
0.0668973
2.13395e-06
0.0365751
4.9124e-05
0.0350739
8.52578e-05
8.37105e-07
0.000398243
0.0263503
0.00747748
2.52278e-08
0.000298791
1.1036e-05
0.00432755
0.00122285
0.340378
4.61683e-05
2.04255e-06
0.0191668
0.00155027
0.00492532
0.0337155
0.0704427
5.27272e-10
0.0199338
0.00367897
0.0496195
5.71227e-09
0.00114742
5.6908e-07
0.0427613
4.96937e-08
4.85708e-09
0.00320223
0.00209671
0.00289768
0.298062
0.039561
0.0252215
0.0338375
0.0160849
0.220542
0.0430799
0.00490272
0.00466099
0.0046533
0.000578384
0.00950631
0.0374191
0.00144775
0.00141026
0.0307449
1.91886e-06
0.00326013
5.2107e-07
0.0173349
2.3684e-06
7.70597e-07
0.00156943
4.15206e-06
0.00574847
2.47869e-08
3.63232e-07
0.0803096
9.77566e-09
7.70582e-08
0.000833431
6.31182e-08
0.000690553
3.55766e-05
0.0656432
0.0165608
0.265835
0.00748087
0.00692582
0.0399306
0.54967
2.1796e-10
0.0644386
0.0279921
0.0163681
0.0228744
0.00226453
0.0526807
7.04535e-06
7.46983e-06
8.56003e-07
0.129364
1.09261e-06
1.02718e-07
0.0166423
6.68124e-07
1.49516e-08
0.00526414
2.47082e-06
0.285482
8.12722e-05
3.55437e-05
4.62058e-05
5.85125e-05
0.00144231
0.00636763
1.21514e-10
0.0217755
0.000408342
2.14638e-05
0.0950267
6.93342e-08
0.0146451
0.0169611
0.00356646
3.22292e-08
0.0169687
0.00954505
0.000873291
0.00513668
0.0116096
2.91785e-08
2.26255e-08
0.00165507
2.22175e-08
1.34587e-09
2.74309e-09
0.0185571
0.354666
0.00427188
0.00219456
6.92457e-05
0.0474458
0.0431927
0.00398919
0.00238307
0.00884333
0.0195858
0.0026444
3.90844e-09
2.67434e-09
4.08642e-09
0.00692815
1.10363e-07
0.351834
0.000526522
0.000760668
0.00184042
0.00248976
0.0206906
2.49004e-09
0.0592944
0.0024325
0.000369958
1.55223e-06
4.11319e-07
1.61868e-07
0.480527
0.000310391
0.00058046
0.000865325
0.00966411
0.20421
3.169e-07
3.20396e-07
4.99858e-07
0.00363831
0.0166375
0.018994
0.033132
0.00167753
0.0033986
3.60733e-06
5.18489e-10
0.000189682
3.83066e-07
0.165379
0.0211886
2.40577e-07
1.25074e-06
1.89816e-05
0.0606583
0.0297578
1.83746e-05
0.0132443
0.0905775
0.000912719
0.400722
0.047169
2.57078e-05
0.0216815
0.173636
0.0186476
1.03835e-05
0.0048927
1.53682e-08
0.0138354
0.00171802
0.0233444
1.13574e-05
0.00037923
1.24306e-09
0.0231294
1.03372e-08
2.87285e-05
0.381618
1.20765e-07
0.00583214
0.00119435
3.75059e-07
4.06903e-08
0.00200098
4.17985e-07
1.15066e-07
0.0121503
0.000145673
1.37727e-08
0.0232842
0.0440589
0.0162281
2.86396e-10
1.92109e-09
0.000584583
0.00260607
0.00306411
3.34472e-09
9.48746e-08
0.000132534
0.00379387
0.00187895
0.0126037
0.366486
1.28983e-09
0.141353
0.0111365
0.00622166
0.0560168
1.08557e-06
2.11867e-08
0.0228118
7.62381e-10
0.0296437
0.00493491
0.00567795
1.10208e-06
9.25422e-09
3.99932e-09
1.62967e-08
2.03911e-05
0.133679
0.212098
0.00214003
2.5395e-06
1.73264e-10
0.0557579
0.22505
0.033916
0.11112
1.36377e-07
0.00096694
0.00024658
2.40848e-07
1.31691e-08
0.00365852
0.00621075
3.6871e-08
1.10669e-05
0.0028237
0.0599624
0.204687
0.00106794
2.00483
9.82643e-09
3.73495e-07
0.0113661
0.000705688
3.36194e-05
0.637033
0.000587773
0.00603879
7.27772e-09
8.84058e-08
1.26549e-05
0.058257
0.00815521
0.177522
2.00572e-08
0.0242823
0.0184226
0.826961
1.12651e-08
1.27348e-09
1.10406e-07
3.50171e-08
0.00652168
0.000326339
1.02343e-08
0.0373148
0.0179652
0.159759
0.00461014
3.01031e-06
1.65164e-06
0.0276483
1.32979e-05
3.03222e-08
2.37666e-08
1.34935e-08
0.0205223
9.57074e-06
0.0580111
0.0561554
0.0247724
0.0115153
5.97704e-09
2.38776e-09
2.505e-08
0.0147051
0.000249779
2.02036e-07
3.6132e-08
3.57057e-09
0.0219371
0.00234076
0.0108162
0.0403747
0.0019228
0.311383
0.00470891
4.39461e-07
4.2833e-10
2.59264e-07
0.0534579
9.41117e-10
0.0183565
2.24489e-08
0.01446
4.49721e-05
0.00158801
0.000145565
0.00239928
3.95052e-09
1.56588e-08
0.368332
0.154763
3.512e-05
0.00376004
4.22322e-07
0.000460977
9.61809e-05
3.00647e-06
3.3001e-06
0.000301847
7.83293e-08
0.00100923
0.0391532
0.0337933
2.06149e-07
8.32362e-05
9.06362e-07
0.0340766
0.181797
0.000152225
9.34771e-10
0.00956845
3.41511e-07
0.00266267
0.017453
0.00138599
1.11785e-08
0.000883672
0.000526614
0.000134627
0.00410816
0.000123006
0.00167809
5.4497e-06
8.21864e-10
0.000155529
0.00554192
0.000296082
6.63964e-07
9.65097e-06
0.00012163
0.558042
9.43626e-09
1.92015e-08
3.48977e-08
3.5329e-10
1.27309e-07
0.0216409
0.00058452
0.00111724
0.000106836
0.000205755
0.00147027
2.82057e-10
0.00523087
6.9299e-09
5.3864e-07
7.4094e-09
2.63678e-05
0.0020532
1.54118e-05
1.1135e-07
1.33004e-08
0.0137444
1.22594e-07
6.95875e-09
0.156186
9.23055e-06
0.0739776
0.121003
0.542705
8.95155e-09
0.193782
1.0858
1.07381
0.610996
2.47489e-09
3.41415e-10
0.00458408
0.00431382
6.82271e-05
0.0102197
0.0423152
0.0301672
3.2918e-05
4.47039e-06
0.00125008
3.41333e-08
1.25195e-09
0.000124527
0.000410652
0.0260952
7.34449e-09
0.11767
0.000126756
3.36658e-07
0.000111592
0.00778583
0.00154747
2.2769e-06
0.00757209
6.70581e-09
0.00326851
0.00216799
0.00702297
5.79124e-08
0.00175557
0.00545114
1.06574e-05
0.00322426
8.70925e-08
0.0300273
5.70366e-05
0.00900842
8.62058e-07
0.192736
5.64726e-08
8.67572e-07
2.71789e-08
0.117827
0.120777
2.06797e-06
0.0112064
0.00879507
0.0550706
3.33182e-08
0.030218
0.0159535
0.172867
1.2798e-06
0.195063
0.0232903
0.0427564
0.0036357
1.60442e-07
0.0532949
1.72252e-06
0.211987
1.78142e-09
0.0024064
0.00398053
1.12756e-07
5.54559e-05
1.27029e-06
0.0193106
7.6351e-09
0.0398056
2.8961e-07
1.00016e-05
1.09999e-06
5.30465e-07
0.000255865
0.00187463
0.124963
4.94958e-06
0.00024637
0.0380702
1.33672e-06
0.0430058
7.61187e-07
3.38073e-06
2.47968e-06
0.00549353
1.89329e-10
5.0101e-09
7.87479e-10
0.00304413
5.59592e-08
0.0674258
2.22268e-05
0.00305149
3.87345e-09
0.00567222
0.334438
0.00511838
0.00519759
0.0246916
1.24931e-05
2.00714e-07
7.88488e-08
0.00295684
0.00161133
2.71749e-06
0.000545765
0.000569522
4.65845e-08
2.96454e-08
0.309711
7.01365e-08
0.0200039
4.11675e-08
0.00218663
0.00299177
1.99262e-07
8.49146e-10
0.0457087
7.3518e-09
2.57257e-09
0.0166818
0.056461
0.00434738
2.24032e-06
1.41269e-08
0.00639883
5.33978e-06
0.0115903
5.98437e-06
7.43094e-09
0.0021558
6.74423e-05
0.129405
4.04337e-09
5.04313e-09
4.39669e-09
0.00311811
0.164306
9.62901e-07
1.68753e-08
7.5689e-06
0.00143378
1.94127e-08
0.0177686
0.0285079
5.25083e-08
4.42301e-09
0.00667643
2.40135e-07
2.0869e-05
1.66065e-09
2.55592e-05
1.01767e-08
0.0629394
0.000350113
1.35291e-07
5.53113e-09
0.0687793
2.98979e-08
0.0565601
2.49385e-07
5.10794e-08
9.56154e-06
0.00691031
0.0468186
0.00795377
0.0499375
0.0606671
0.532876
0.00252558
0.040378
1.08513e-05
1.66074e-08
0.00226715
0.140661
0.0370172
0.0422138
1.18477e-08
0.00680537
1.5052e-08
0.00437538
9.89366e-07
0.00875991
0.000169758
0.0520122
5.27378e-07
1.64488e-08
0.019871
0.000294427
2.43343e-08
0.0244483
0.000289696
1.97732e-06
8.7048e-10
0.032897
0.00911387
0.00596072
0.000788333
0.00168378
0.0159482
0.000946735
0.00450222
8.70378e-06
0.0264228
0.000125836
0.000457452
3.99052e-09
6.33495e-07
2.79981e-08
0.00958918
9.05094e-08
2.31339e-06
1.00088e-10
0.000400708
0.391022
0.0887541
0.00224222
5.00902e-09
0.00392974
0.0550937
0.10268
0.00288613
0.000271266
0.0413514
5.57371e-07
1.22635e-07
2.84652e-09
0.0027226
0.00119367
3.9242e-08
4.32063e-09
0.002292
1.65532e-07
0.785094
0.0539273
0.0936138
5.28549e-09
1.1338e-08
0.0420881
4.88682e-09
0.00913891
9.58975e-09
0.000647375
2.1566e-08
0.0089448
5.15465e-08
6.08294e-09
0.0010806
0.154513
0.0646518
1.44451e-08
0.0690005
4.25121e-08
0.00385155
0.171052
0.11769
2.39628e-07
0.000491904
3.83502e-09
1.95718e-06
0.000279007
0.0156389
0.000301489
9.9032e-09
0.000634419
0.00303182
0.00489446
0.00756251
3.66991e-07
3.32263e-07
3.38424e-06
6.10253e-07
9.89521e-09
3.47261e-09
0.0750678
0.0371743
1.41481e-08
0.0841664
3.14587e-10
2.1107e-08
0.0688004
4.81992e-09
4.78919e-09
0.0400234
1.83678e-08
7.5935e-10
1.01146
2.01423e-09
1.30055e-09
0.00191999
0.0925995
1.41478e-07
0.0371424
8.55541e-09
0.0209789
0.0501738
6.28048e-06
0.000871187
5.9158e-10
7.26895e-08
1.04541e-06
1.78309e-07
0.318869
0.0454615
0.000259287
3.33796e-08
0.0463035
1.03304e-09
2.03286e-08
1.83042e-09
0.1027
0.00175381
0.000111213
1.32115e-09
1.30644e-06
0.0481594
0.000908874
3.6493e-07
0.000259344
0.108668
0.0859102
3.55546e-05
0.0850773
0.000924651
0.0426926
4.20339e-05
0.0656151
0.00034477
0.0289525
1.47424e-06
0.00664881
0.000457855
0.000931083
6.93533e-10
0.00132044
7.20411e-08
0.00381929
0.0242324
1.00086e-06
0.0023521
0.00031153
1.74622e-07
0.0101715
9.06933e-08
2.65386e-08
2.74676e-08
4.49526e-08
5.06121e-06
4.45542e-08
4.79462e-08
7.45239e-08
0.266709
4.32298e-05
2.23671e-10
1.69738e-09
5.53248e-08
9.91762e-08
0.0299573
0.768894
0.00209967
0.000140431
9.24516e-09
0.0020119
0.00138319
0.0463709
3.20185e-05
1.29345e-05
5.66431e-07
1.09027e-06
2.4576e-06
0.000222782
0.00011698
0.179498
0.0672022
8.23647e-08
0.00105298
0.000299623
1.39968e-08
0.0243357
4.60508e-06
3.85678e-08
1.73031e-06
0.161735
0.0621806
1.41234e-09
0.0248635
1.39907e-08
0.0486068
5.12449e-05
0.0355185
0.0528149
4.68761e-09
6.66219e-09
2.32961e-08
2.50566e-05
0.00567141
0.225308
0.0277713
0.0418538
0.00444784
0.000537555
7.729e-10
0.000116948
0.137604
0.00129279
9.52555e-05
0.00295876
4.05188e-06
0.0989788
4.96252e-08
0.205762
0.038374
1.29728e-08
0.000486999
0.00716879
4.05374e-08
0.00975536
1.35983e-08
1.85777e-07
0.198025
0.0296452
5.33819e-08
8.48129e-09
6.89273e-07
2.565e-09
6.05186e-09
0.000126564
2.45013e-08
5.81781e-10
0.00310617
7.70893e-09
9.82263e-08
2.70098e-07
0.000228365
2.20733e-07
0.000168965
1.06455e-07
4.68491e-08
2.25893e-05
6.6003e-05
0.00355318
0.0430556
8.06765e-05
0.00500928
2.29982e-06
0.31968
0.315001
1.25308e-07
0.00342001
1.77307e-08
0.0457146
0.0380418
0.000404922
0.0900926
0.0685232
7.15745e-06
1.18951e-09
0.00244482
1.12841e-08
1.24911e-09
3.97499e-07
1.58849e-05
7.03987e-09
1.73842e-05
0.0355741
5.15604e-09
2.41862e-08
0.33784
1.54295e-09
0.0172162
8.26143e-06
0.00131802
9.75523e-09
0.000441807
0.000145616
0.239301
0.0079609
0.0238913
0.000182629
0.0402873
0.000270868
0.0751451
0.000151807
0.000227221
0.00982838
0.057932
0.00032463
0.00127716
4.30203e-06
1.77483e-07
0.0011018
0.000228808
0.016006
0.012091
0.000148692
1.89819e-06
0.00549199
0.00520056
0.0184986
2.16932e-09
0.0122905
0.0166523
0.00273445
0.00148739
0.00128226
0.00325898
0.0189957
0.0406747
0.00716484
0.0110336
0.00799993
9.05067e-05
0.00289395
0.00363263
0.00107133
0.0026398
0.0142028
0.013761
0.0194667
0.000121768
0.0112783
0.000421873
0.00505854
0.00283894
0.000361
0.00235758
0.000203658
0.075529
0.00398009
0.00122284
0.000142753
0.000728297
0.0159373
0.00244267
0.212944
0.00352149
6.81113e-10
0.23139
0.0454952
0.021934
0.00709978
0.0202157
0.000404697
0.00867061
0.462599
0.00212555
0.00138725
0.00249307
0.174793
0.00118999
0.0743568
7.51228e-05
7.7429e-08
1.31307e-08
0.00221633
0.00614486
0.0118365
0.070965
0.00685929
0.0611228
0.0550066
0.0697018
2.89139e-08
0.00716745
0.00265744
0.0254708
1.05846e-06
0.00633578
9.21117e-08
0.225068
0.0115677
0.00747627
0.221027
5.05059e-09
8.9869e-08
0.00220155
0.000110195
0.000761277
1.55926e-07
0.00656244
0.000965902
0.0785475
9.03855e-07
0.0222062
0.00308988
0.000351402
0.000126863
0.00238077
0.00133151
2.39475e-07
0.00185388
5.34831e-05
9.7881e-09