/*--------------------------------*- C++ -*----------------------------------*\
  =========                 |
  \\      /  F ield         | OpenFOAM: The Open Source CFD Toolbox
   \\    /   O peration     | Website:  https://openfoam.org
    \\  /    A nd           | Version:  10
     \\/     M anipulation  |
\*---------------------------------------------------------------------------*/
FoamFile
{
    format      ascii;
    class       volScalarField;
    location    "18.5";
    object      SgT;
}
// * * * * * * * * * * * * * * * * * * * * * * * * * * * * * * * * * * * * * //

dimensions      [1 -1 -3 -1 0 0 0];

internalField   nonuniform List<scalar> 
111485
(
1.87039e-15
0.00779727
0.0241983
2.07384e-16
0.0490233
5.2764e-16
0.0463626
0.00616385
0.0190432
0.00123444
0.0467447
0.00941827
0.00480347
0.000792425
0.0065154
0.0303783
0.00142777
2.62085
0.0103595
1.67986e-14
5.03389e-15
4.43781e-15
0.0267705
0.0346283
0.00866928
4.07584e-15
0.0395245
0.00176899
0.0153978
1.02393e-14
0.0445673
0.019504
2.69229e-15
1.66954e-15
0.00645255
2.08679e-14
0.0106235
0.00421963
3.87201e-08
0.0241346
3.93242e-15
0.0708155
0.0158788
0.00154388
6.28214e-05
2.2717e-14
0.02963
0.000711822
0.0474506
1.64883e-15
3.38506e-16
4.33859e-15
4.37519e-15
0.0513543
1.49151e-15
0.0437179
0.00307053
5.29809e-15
2.03533e-05
0.00480276
0.0160907
7.36373e-15
0.0047928
0.097708
9.60711e-16
0.00313225
0.315619
0.0943923
0.00111128
0.00610788
1.82102e-05
0.00661063
2.93966e-15
0.00290457
9.45482e-15
0.000712538
3.69187e-16
0.0412048
2.35425e-15
2.8164e-14
1.2797e-06
0.0339059
4.26045e-15
8.64397e-15
0.00932955
0.00384253
3.4966e-10
0.0253678
5.99213e-05
0.00743021
0.000266706
0.0404039
0.0119001
5.76877e-05
0.0521831
2.94822e-15
2.21783e-15
0.00181629
2.97318e-08
0.00113371
2.51489e-15
0.0178589
4.96963e-16
0.0180614
0.00459849
3.84345e-15
7.86462e-16
0.00758031
0.0041481
5.64979e-08
0.00545328
0.00473561
0.00378222
0.00323024
4.83176e-15
3.3864e-05
1.78048e-15
3.04924e-14
0.0128538
4.99689e-15
1.97018e-15
1.11939e-14
3.57271e-15
7.62974e-15
0.00152831
2.96344e-06
2.82474e-15
0.00170722
5.41074e-16
2.42794e-05
0.00149213
0.0327979
3.45742e-15
8.35887e-15
5.21853e-15
0.048347
4.39443e-15
0.0425456
0.0254246
0.00271751
0.000249313
0.00200265
0.0225384
0.00264953
0.00402521
0.0130603
2.71817e-15
7.55079e-16
2.75868e-15
0.0281088
0.00154532
1.12507e-14
2.34001e-07
0.00472396
4.36526e-07
0.010863
0.0162114
0.010743
6.08539e-08
1.7472e-15
3.97993e-15
0.0522988
0.022678
1.69526e-06
3.17459e-07
0.00584188
0.0034134
5.93678e-15
4.11971e-06
4.38444e-05
3.66456e-15
2.19696e-16
0.000125406
1.66039e-16
0.00550442
0.00207322
2.43782e-15
1.8907e-15
8.65229e-16
5.01138e-15
7.34722e-15
2.24714e-15
0.00151156
0.00678434
0.0298398
0.00412434
0.0076474
0.00402599
7.82825e-05
7.65686e-15
0.00484502
2.48537e-15
8.04099e-16
0.00653525
0.0104027
0.0285544
0.0113784
0.00504088
7.94987e-16
0.00674541
0.000506778
4.15429e-05
0.0143108
0.00233007
1.70401e-14
0.00381682
0.0251942
2.30464e-14
0.000161105
0.00785768
0.00201113
0.000367638
4.08721e-15
2.24978e-14
0.00831646
1.06634e-11
0.119564
4.16977e-15
0.00667597
0.0205445
0.119284
6.01098e-15
0.00327504
0.0137429
2.29582e-13
1.15894e-15
9.86974e-16
0.150868
2.45255e-07
5.61981e-16
7.5406e-15
0.00946039
0.00779518
0.0148796
3.78067e-15
6.05914e-15
1.30081e-05
2.57029e-14
0.00239547
0.00953827
0.0166343
0.0116576
0.00965286
1.4186e-15
2.46577e-07
0.000630746
3.60474e-14
6.84234e-15
0.0309186
0.0205586
1.97536e-15
0.00651661
0.0107558
7.09131e-16
2.14003e-14
0.00011455
2.40596e-15
3.22325e-15
4.50956e-05
6.69979e-15
0.0148225
0.0106885
0.00367481
4.48808e-15
0.0118612
3.41483e-17
5.16935e-16
4.75531e-14
1.80304e-08
0.0229364
0.00617463
0.00546472
0.0363531
0.0123438
0.00157369
0.000566866
0.0323749
0.00877252
2.48289e-15
3.26965e-15
2.38392e-07
0.0226909
0.0245678
0.0118415
5.29693e-16
0.00700618
0.00203553
0.00302251
1.93742e-06
3.59482e-06
0.0138036
0.00218556
0.00195935
2.85324e-14
0.00064866
6.01165e-16
2.00183e-07
3.38255e-13
0.236097
0.0679439
0.011812
1.01467e-14
1.9747e-16
0.00899248
0.00171299
3.9526e-15
5.66788e-16
8.76069e-15
0.000294488
0.0570132
0.0039935
0.0134262
0.0192359
1.8242e-14
1.02458e-15
2.92404e-15
0.00378631
1.32681e-12
0.000846254
0.184688
2.94601e-07
1.32598e-15
5.73565e-15
1.51727e-15
2.9858e-15
0.0600208
0.0118728
6.58679e-15
0.00526207
2.17479e-15
1.41887e-14
0.0670754
0.00594906
0.0114402
0.00930264
1.58803e-15
2.96678e-15
2.20689e-14
0.00946359
0.0187548
0.00483599
2.28535e-15
3.27645e-10
0.00015776
0.00224492
0.00805388
3.32007e-05
0.0284498
5.93782e-15
0.0375141
0.0035632
0.00776066
0.0255365
0.0132464
1.31925e-15
1.34612e-14
5.67448e-16
1.30215e-16
0.0312511
0.00976767
0.0328254
0.0672843
8.29379e-15
0.0184261
1.70789e-15
2.04755e-14
0.0166355
6.01903e-16
0.0797133
3.32158e-15
6.83004e-16
0.0228719
2.6921e-15
0.0135524
0.000285445
2.93244e-16
0.000984958
0.0165851
1.4014e-15
0.00892185
0.00910191
0.00816793
0.000694724
0.00269206
0.00549803
2.91597e-14
7.66298e-15
0.00199321
9.08763e-16
0.00629123
0.117521
1.73649e-15
4.61915e-15
0.0275973
0.000109756
0.0082877
0.0205162
4.23231e-16
0.0472921
0.0188203
4.48051e-15
0.000840079
0.00238968
3.51677e-15
6.63407e-16
0.0109365
0.00520219
2.42893e-14
1.08103e-15
3.79617e-08
1.12678e-15
0.0123766
1.5242e-15
3.93785e-15
0.0167968
1.58132e-06
0.0123287
0.029883
1.82598e-15
1.31492e-14
0.00152304
4.4664e-15
0.000163286
0.014477
0.121838
0.834921
7.26059e-15
0.00275818
0.000539166
1.62633e-14
0.0389407
0.0311004
5.12885e-15
7.12994e-09
8.79725e-05
6.26914e-15
0.023842
0.024034
0.0138959
1.8542e-15
0.000662501
0.0169023
0.0228683
8.20596e-07
2.32503e-14
6.59625e-10
2.09417e-15
1.1662e-05
0.031258
4.84058e-15
0.00826477
0.000101045
1.38781e-14
6.47939e-16
1.90841e-15
7.32386e-15
0.00370823
0.00957973
0.00635046
0.00206447
0.00261595
8.58839e-15
0.00196574
1.60548e-14
0.0410293
5.97315e-16
3.24814e-15
8.0721e-15
0.0371536
4.40387e-15
1.33133e-15
1.50752e-07
1.74699e-15
3.38035e-16
0.00106649
1.6277e-14
3.77124e-15
2.86843e-15
3.40296e-15
4.42847e-15
1.76535e-14
4.21296e-15
0.00689468
1.81941e-15
0.000535863
0.00195414
0.000843598
6.72219e-15
0.00089687
1.98116e-15
1.58506e-15
0.00274205
0.00176985
0.0269458
0.0250101
2.30315e-15
0.00203345
0.0821407
0.00849296
0.00101266
0.00321187
3.20262e-15
0.023308
1.01722e-14
0.00502345
4.61202e-15
0.0761528
1.83456e-14
0.0210702
0.000244865
4.92194e-07
1.06821e-14
0.00200607
3.30212e-15
0.0801296
0.0487978
1.07682e-14
8.56815e-15
7.67488e-15
1.03674e-15
1.34947e-09
0.0547517
2.29657e-15
2.09303e-15
0.00244152
2.98767e-15
0.0338915
5.83759e-15
0.000316624
2.29388e-15
0.000473505
1.16778e-06
0.000993522
0.0126695
2.4988e-14
0.000416655
4.72216e-15
6.21299e-16
0.0148374
3.55807e-16
2.91612e-05
6.19314e-15
0.00163806
4.63816e-15
0.0643755
1.13786e-14
3.50537e-14
0.0174936
0.00322925
0.00173863
0.00387121
0.00686814
0.020715
1.21083e-14
0.0253076
0.00601311
3.76985e-16
7.53644e-08
0.040883
0.0153821
2.52982e-14
0.00373803
0.00685423
0.00178549
0.000986523
2.17274e-10
0.0137171
0.00122561
0.000123176
0.0231623
0.0137228
0.000585922
3.63897e-15
3.10534e-09
0.649435
2.79334e-15
0.000349817
2.80919e-15
5.95569e-14
0.00731773
0.00268963
2.30073e-07
1.7367e-05
1.21094e-14
0.0160833
0.0110483
2.39303e-15
2.04906e-10
0.00133125
1.30977e-14
8.07045e-16
6.76512e-16
1.20536e-15
0.0128193
2.07485e-15
3.04064e-15
0.00856351
0.00190654
2.43076e-14
0.0105471
3.49425e-15
0.00849848
1.46676e-15
2.89719e-14
0.0521749
4.93254e-16
3.12704e-15
5.11856e-15
0.004205
1.33055e-14
0.0283704
0.00624443
1.25266e-15
0.0893729
0.00234765
0.0286186
0.0280968
0.000428923
7.47023e-05
1.81746e-15
0.0538813
0.0465558
4.06613e-15
0.000317294
0.0406064
0.00796886
0.00139799
0.0276512
0.0261106
1.36595e-14
0.0108547
6.60794e-06
1.154e-15
0.0347917
0.000251441
9.36078e-14
0.0109161
0.0405486
0.00132034
0.0215269
0.019635
0.00720185
2.39328e-14
0.0104288
0.000304611
3.88698e-12
0.0170982
0.0179036
0.0357526
3.62913e-16
0.00184012
1.48063e-14
4.13225e-15
1.95309e-15
5.81911e-15
1.34983e-05
1.05158e-14
3.24551e-10
2.14974e-14
2.2795e-15
8.06263e-05
0.0427748
3.81022e-15
0.0308576
4.6677e-16
3.37875e-14
6.18597e-15
0.0386031
0.000397683
1.83529e-14
8.54612e-15
2.66877e-15
5.95008e-15
0.206678
0.0695777
1.72566e-14
0.00198819
1.87252e-06
5.71494e-15
0.0372873
0.008525
0.0114937
2.71861e-15
1.49848e-14
0.000412871
0.00106655
2.58908e-14
1.07716e-14
9.18947e-15
0.00723003
2.16914e-14
3.41186e-15
2.31181e-14
0.0420036
0.00210437
7.68758e-16
3.84958
0.360032
0.00969902
2.13337e-15
8.89071e-15
0.0552004
0.000426593
7.77952e-15
4.89783e-06
0.111114
0.00240471
0.0112461
6.19028e-16
0.0523302
0.00190101
8.64079e-15
1.44675e-15
4.73239e-15
6.6978e-16
7.06773e-15
1.00612e-15
0.0223038
6.03358e-15
8.05349e-15
8.51312e-15
0.0113524
0.0236394
1.31535e-16
7.43473e-16
0.105602
0.0143068
0.00988126
1.05741e-14
4.24415e-15
0.037087
4.46785e-16
0.00169423
0.00264174
0.00395698
1.36364e-15
1.4407e-15
1.01778e-15
3.50369e-15
0.0147014
1.93978e-15
2.17989e-15
0.00104462
6.79585e-15
0.0231743
0.00190857
1.16196e-14
0.0368756
0.347394
0.00252832
0.0290571
0.000141543
0.0436381
7.89875e-11
9.19745e-15
0.0236237
0.0679406
0.00599715
4.80776e-15
4.67827e-10
0.772308
0.00998236
3.75858e-16
0.00244803
0.00244773
0.00114554
8.39533e-15
5.17546e-15
4.41275e-15
0.01346
1.81421e-14
0.00269599
1.33094e-15
0.0012021
0.00142186
0.0366196
0.000573193
8.4577e-16
3.17385e-15
2.33266e-15
0.0205003
4.52577e-16
5.70453e-15
7.33471e-05
4.11281e-15
2.30567e-15
2.38746e-15
7.84214e-16
0.0101129
6.29009e-15
5.0971e-16
4.46397e-10
5.78902e-15
3.12106e-16
2.26622e-14
1.45276e-15
2.95783e-06
0.00160714
2.5833e-15
0.00400882
6.3206e-06
2.9462e-07
5.85751e-05
0.00398609
2.97762e-15
9.32503e-06
0.010095
0.00039437
3.82467e-15
5.40223e-09
0.000853418
8.343e-16
0.00989024
0.000188418
1.62183e-06
0.0231047
0.00940653
0.00224401
0.00486765
0.00197347
6.00518e-16
3.10683e-15
0.0329333
0.0263825
3.24181e-14
0.00843153
0.0540913
0.0283402
4.24388e-14
0.00125926
1.20641e-15
0.0101657
0.0139196
1.51805e-14
0.00158716
0.000446819
1.18775e-06
0.00494817
1.70011e-15
0.0485184
1.48194e-05
0.00141786
2.98616e-05
1.218e-05
1.30804e-14
4.84107e-15
0.00689382
4.75996e-16
0.000122123
0.000245277
0.000299315
5.84735e-08
7.02516e-08
1.98842e-07
1.28479e-15
4.45664e-14
0.0226349
7.00551e-15
0.00013881
0.00197804
1.15107e-14
6.52025e-15
6.6318e-07
9.12963e-10
1.3789e-15
5.14056e-06
6.4132e-15
3.31846e-15
8.01118e-15
3.13466e-15
1.57889e-14
5.78824e-15
0.000273321
1.27167e-14
1.38571e-14
5.56947e-14
6.54434e-06
4.88983e-05
0.00170503
0.00916782
6.25641e-16
2.24463e-15
0.00015813
1.04037e-14
5.96923e-15
5.48276e-14
0.0184624
0.042122
1.02685e-15
3.14443e-15
6.63228e-15
1.27527e-14
8.02394e-17
7.50621e-15
0.00670794
3.16227e-15
5.36642e-08
0.0263785
8.8407e-16
4.35926e-15
1.07127e-15
2.87315e-05
1.38527e-15
4.46646e-15
3.65401e-15
9.62399e-06
8.43144e-16
0.00419587
9.02232e-07
6.08386e-09
2.63796e-15
7.69778e-05
0.00191733
0.0440473
2.2497e-15
8.49387e-06
0.00538357
1.8251e-15
1.86151e-15
2.2194e-14
2.24985e-15
0.00815837
0.00161599
0.00318538
1.80403e-07
1.29505e-16
0.0230848
3.38689e-15
1.72041e-14
2.05374e-14
7.04308e-15
0.0263511
5.91359e-15
1.72197e-14
1.58251e-06
0.0517772
3.40423e-15
0.00232231
2.49146e-14
0.000785114
1.36773e-14
5.26778e-16
6.21379e-16
2.90393e-15
0.00247223
0.000587203
0.303995
9.08482e-16
1.01407e-14
0.00210588
1.65592e-15
9.97306e-15
6.81747e-15
0.0360183
9.80172e-06
0.0318993
6.69334e-15
1.1091e-05
5.07333e-05
1.8869e-14
0.00013127
2.65768e-15
0.00119441
0.0246789
0.0201707
0.00114979
0.000224274
2.82061e-14
1.29468e-15
1.01477e-15
2.25406e-05
5.70879e-15
0.00757303
9.14438e-15
0.174074
1.45573e-15
0.0411323
0.00297104
1.52723e-15
2.34382e-15
3.46614e-15
8.09574e-15
0.0416222
4.50787e-15
4.63183e-14
0.0116628
0.00681796
5.01657e-14
5.87072e-14
9.92637e-15
7.35592e-15
1.40315e-14
2.35138e-15
0.0258087
0.000397083
7.42826e-15
2.57232e-16
5.46833e-07
2.30365e-14
0.00153263
0.000104482
3.49308e-15
0.00352858
7.83777e-15
0.000385043
2.38031e-15
0.00110535
1.72858e-14
6.83589e-08
2.15461e-06
0.000613582
0.0183369
0.0343937
1.16379e-06
1.31871e-15
0.000554886
1.44893e-16
0.00462399
6.23857e-15
1.36936e-15
1.10386e-14
3.567e-15
7.77221e-16
3.10168e-14
0.00727124
0.00819744
3.19686e-15
8.16794e-14
2.12901e-14
0.000798927
1.25059e-05
3.12114e-16
0.0180217
0.00017063
1.76172e-15
0.0233914
0.00809065
0.00368881
0.0111303
1.10586e-15
1.16792e-14
5.74876e-16
6.78795e-16
0.0369221
1.06446e-15
0.114233
1.48879e-15
0.000321292
0.000727784
1.08983e-15
0.000981665
2.4979e-15
1.09306e-15
0.00308964
2.2349e-08
0.00954575
5.08955e-15
2.00971e-15
3.6293e-15
0.000839453
1.77557e-15
3.83517e-16
1.00036e-14
2.74647e-07
4.29725e-16
6.47306e-06
6.04738e-14
9.35843e-15
3.53694e-15
0.0183182
0.00972275
0.018214
0.035882
6.10541e-14
1.61283e-05
6.11261e-16
9.00146e-16
0.0095606
7.75022e-16
2.13375e-06
0.000359718
0.00670117
0.000376239
1.08801e-09
0.00186351
4.50124e-15
1.31505e-09
3.23499e-10
0.000128897
0.000766814
0.0151941
6.30245e-08
1.00725e-15
0.0301738
1.04436e-14
9.80215e-16
1.2464e-05
0.0746592
5.25047e-08
3.80076e-15
9.1197e-16
3.12709e-07
1.29804e-15
1.49533e-14
1.83814e-05
1.11114e-14
3.02032e-15
0.0397325
0.000235556
0.000185485
0.0223428
0.00721079
8.34358e-15
7.69071e-15
2.41759e-05
0.00405217
1.29009e-15
8.03984e-15
0.00962041
3.03187e-16
3.46811e-14
1.55049e-14
1.01992e-14
3.15366e-13
2.56892
4.70735e-16
0.000215661
2.95304e-15
0.0215381
1.29824e-15
7.43116e-13
2.07676e-14
5.13472e-15
7.2096e-15
8.56524e-15
0.00281486
4.07689e-15
5.81293e-15
4.76984e-14
9.88737e-15
5.1625e-15
8.01315e-15
0.00969645
2.74926e-15
0.0108919
0.00314152
2.41928e-15
0.00151121
2.64933e-15
0.000513112
2.06364e-06
0.0038379
0.0129754
3.58984e-15
9.29055e-05
0.00755729
1.00127e-05
3.93805e-15
3.08546e-06
0.0191475
0.00467556
9.94252e-15
0.0258005
7.49209e-15
8.22034e-15
1.02655e-14
1.43633e-14
0.00808983
6.77422e-15
5.53149e-16
0.00829991
3.87632e-07
0.00265013
1.27331e-15
1.20115e-13
0.00064327
4.87848e-15
6.23297e-05
2.94111e-15
0.0233358
2.56458e-15
3.87926e-16
5.27974e-05
3.66297e-15
0.00013898
1.05954e-14
2.46824e-15
0.00470589
0.000443329
0.00468292
0.0151275
0.217902
0.0202437
1.70374e-15
2.14171e-14
0.00301155
0.00672204
0.0368384
0.0104161
9.34764e-16
0.012469
1.73364e-15
1.28685e-15
0.00921354
0.0111031
6.09341e-15
0.013259
9.53361e-15
0.00273015
0.00900766
2.74335e-15
1.46572e-15
8.05545e-16
0.00285023
2.05207e-15
6.72235e-15
0.0042168
0.0215171
3.62406e-06
0.00735735
9.56466e-15
1.65537e-15
8.84729e-05
0.000783419
2.35976e-14
0.0102528
3.40645e-14
0.00256635
5.26234e-16
1.34117e-15
0.0122482
4.98206e-15
3.64158e-05
0.0036601
1.80845e-15
4.51047e-15
0.00443606
5.45746e-11
0.0520949
5.73089e-15
0.250792
1.8597e-15
3.65891e-14
4.23754e-14
0.00751358
2.03318e-14
2.43146e-15
0.00557311
9.25303e-15
0.000252683
1.55269e-14
6.26743e-15
1.35254e-15
9.73052e-08
0.000781732
2.45468e-15
3.49197e-15
0.0348428
0.000942965
3.12941e-15
0.00040287
4.06139e-15
5.77007e-15
1.73477e-06
0.00287747
0.00130673
9.45098e-15
2.18358e-14
4.6303e-15
1.06376e-15
6.9325e-15
1.14522e-14
6.11095e-15
3.12788e-15
7.93211e-16
6.67188e-16
3.59288e-16
4.41966e-15
1.0309e-14
9.52479e-15
2.25672e-16
5.0464e-15
1.24542e-15
1.63881e-14
2.47185e-15
9.84034e-15
3.5051e-14
0.0171058
1.40132e-14
1.21367e-15
2.20017e-15
0.00659854
1.01243e-14
3.98839e-15
0.293993
1.11189e-15
1.97458e-15
0.0228957
3.19072e-12
6.17365e-15
0.00786378
0.0243475
4.51165e-17
0.00286544
0.00427127
2.01287e-14
0.0133591
0.0391105
0.0176995
0.00336432
0.0106316
1.57498e-14
7.17644e-15
0.00299437
0.0105426
0.00321161
5.37656e-15
0.00675498
0.0017792
0.0213491
0.0100038
0.000695906
0.0155464
0.000996521
0.0102253
4.9001e-15
0.0242375
0.00840608
0.00162986
0.00141108
9.92923e-16
7.20433e-15
4.13667e-15
7.95594e-15
1.65704e-15
0.00918054
0.0134751
1.04166e-15
1.54629e-15
8.22052e-14
2.43744e-15
3.06872e-15
2.57223e-15
2.08629e-15
1.31159e-14
0.00464504
0.000202708
0.021632
7.18979e-05
2.07525e-15
3.31471e-14
0.0300329
7.26164e-06
2.76496e-15
1.91335e-15
0.00707133
1.15571e-14
3.81822e-15
2.46874e-06
0.00771579
0.0134966
0.0332894
0.0342618
1.97481e-15
0.0139159
0.000341694
1.37069e-14
9.71297e-16
0.011819
5.01284e-15
3.19558e-15
0.0157314
1.04129
0.000169732
7.45768e-15
1.70292e-15
0.0167949
0.0197125
0.0177518
0.00552878
0.00428683
4.94528e-17
1.02833e-06
2.63917e-09
1.32249e-14
2.84198e-14
0.0167489
1.44126e-15
0.00197435
0.0246952
0.0174247
0.0110567
7.82337e-15
0.00593426
1.19894e-15
2.15093e-15
9.33953e-15
1.50064e-15
0.00245401
0.878045
4.73061e-15
1.36327e-15
4.03273e-06
0.0229623
0.00119262
0.00681095
0.0322156
0.00468223
0.0201372
4.47734e-15
7.0561e-15
1.68563e-14
0.0291042
0.00553902
2.96799e-08
9.32439e-17
1.97444e-15
1.37573e-14
0.0217522
0.00259547
1.79547e-15
0.00480163
0.0571272
0.00622026
0.00607399
3.28642e-15
4.43481e-14
0.00675256
0.0223165
1.4151e-15
0.000345164
0.0146
0.000954813
0.0090545
0.00460497
0.00774976
3.7293e-14
0.00321406
0.0204332
0.0351056
4.09507e-10
0.0219824
2.04386e-13
0.0159543
0.000150746
1.05917e-15
0.00247731
0.00739767
0.000405188
0.0112683
1.35779e-07
0.000123876
1.39688e-05
0.0409218
0.00358689
5.37557e-15
0.0371433
0.00126051
1.20371e-15
1.53186e-15
4.21703e-08
1.31568e-05
0.00102574
1.06066
0.0343351
0.0118267
1.91007e-07
0.04396
1.16184e-15
5.30863e-15
0.00381416
1.38209e-15
0.00195654
0.00384267
0.00212937
0.00450859
5.11628e-15
0.000187384
0.104284
1.29123e-15
0.0144838
0.00732969
4.21181e-15
0.00386851
0.000129539
1.30572e-15
5.69041e-09
8.3129e-05
9.15232e-15
1.33416e-14
7.32732e-16
0.00414753
0.00474348
0.0135865
3.85636e-15
0.00457695
0.0316918
1.71492e-15
0.00775152
0.0119926
0.0230419
0.00146434
6.26247e-15
0.000500628
0.00881864
0.0100734
0.00874831
0.0355754
0.157183
0.00312761
2.38779e-15
7.35516e-06
0.0478544
7.34268e-16
0.000404334
6.12743e-16
3.89736e-15
1.45299e-15
2.47084e-15
1.41556e-15
0.00312976
1.15648e-15
0.00688696
0.00109356
6.07943e-15
0.00365233
9.20156e-15
0.0133347
1.01746e-15
2.51236e-05
2.42088e-15
0.0207307
0.000151248
2.34104e-06
0.00407845
0.0272169
0.0158627
0.00375318
0.0260214
6.16438e-12
0.0221682
0.0519787
0.00936235
9.60322e-15
0.00103869
0.000236254
0.00538684
0.00979127
0.000584903
2.27563e-14
5.37401e-15
1.5476e-15
0.00335178
1.25831e-14
0.000323351
0.000205669
0.00167253
0.000245279
7.26137e-16
5.36214e-15
5.11119e-15
0.00834031
0.0202147
0.00113637
8.9908e-06
0.00177547
0.00658615
0.00173024
0.000797314
0.00634907
0.00590567
0.00256646
1.34734e-14
1.74701e-15
7.03711e-15
0.012331
0.0103642
2.16816e-14
1.99963e-15
2.06049e-14
0.00806057
0.0174097
2.40279e-14
0.00212973
8.87076e-15
5.97425e-07
0.00440328
0.0855378
6.15902e-16
3.63376e-17
0.00348249
7.07205e-15
5.60305e-05
0.011454
3.51504e-15
0.0103238
0.0310384
0.0181032
8.96704e-16
0.00143955
8.17274e-16
8.78595e-05
0.0460638
1.26196e-14
5.35482e-15
0.0101561
4.20341e-13
1.04609e-15
4.16684e-05
0.000903019
5.24856e-15
2.16587e-15
4.85356e-14
7.03181e-05
0.00117609
0.00298468
0.0243411
0.00816041
4.41317e-15
6.80069e-07
0.000677729
1.59019e-15
6.53022e-16
6.82659e-16
3.24617e-15
9.02891e-15
3.03021e-15
2.48026e-15
1.7848e-15
1.30066e-14
1.2063e-14
2.63572e-09
9.08976e-16
0.000313471
1.17965e-14
0.000242152
6.72631e-14
8.20242e-05
1.36932e-13
1.06049e-16
0.027075
0.00856459
6.78065e-15
0.081919
9.49121e-09
5.43604e-10
1.41761e-15
0.00114256
1.23962e-11
0.00261402
5.91025e-06
0.000801069
3.68519e-15
5.70203e-15
0.00114655
2.11648e-08
1.86106e-15
8.94839e-15
0.0365745
9.29443e-15
0.0350737
1.75537e-14
8.95002e-16
1.71638e-06
0.0263496
0.00740774
2.59259e-16
0.000298694
9.79359e-15
0.00340943
1.82322e-05
0.00166277
4.65068e-06
4.54717e-15
0.0191666
0.00114327
0.00490167
9.4642e-15
5.94353e-16
4.23664e-15
0.0191487
0.00361478
0.0496126
3.39475e-16
4.55463e-07
9.65003e-16
4.03617e-15
1.38813e-14
1.67472e-14
0.00317215
0.00209556
0.00289637
0.298025
1.08459e-14
0.0252012
0.0338373
0.0160015
0.00163963
1.42558e-15
0.004896
0.00437689
0.0046233
2.87441e-07
0.00950331
7.76836e-16
0.00140923
0.00122392
0.0307446
1.0421e-06
0.0032554
1.58725e-15
0.0173107
9.34308e-16
2.41256e-15
0.00156689
7.60653e-15
0.00564761
3.94652e-15
1.38536e-16
2.86098e-14
2.44153e-15
2.39263e-14
0.000790161
1.82267e-15
0.000509106
4.68251e-15
1.07917e-14
0.0165372
0.00500259
0.00746805
0.00690426
2.9692e-15
0.54951
4.80241e-16
0.0644364
2.08561e-15
0.0163522
0.0227957
0.00224763
0.0526805
1.243e-14
3.64383e-14
7.82375e-16
0.00203508
6.76857e-15
2.50484e-15
0.0166405
1.21812e-15
3.87039e-15
0.00517721
2.66111e-15
0.011654
6.47806e-08
2.83915e-15
1.09635e-14
1.75297e-14
0.00142552
0.00636467
4.46823e-15
0.0217746
0.000334255
7.66239e-16
0.0950201
6.8554e-16
0.0146339
0.0169598
0.00352618
4.37188e-15
0.0169686
0.00954382
0.000844686
0.00511476
0.0115765
6.97878e-15
6.21057e-15
1.74332e-06
2.97591e-16
3.57208e-15
3.83227e-16
0.0185557
0.046319
0.00427097
0.0020787
3.67376e-15
0.0474249
0.0431925
0.00398795
0.0021565
0.00883597
0.0195855
0.0026069
4.39337e-16
6.93928e-16
1.45197e-15
0.00682936
1.09368e-15
0.02345
6.02425e-14
0.000725162
5.5272e-07
0.00248908
0.0206735
5.09556e-15
1.61348e-14
0.00242428
0.000363703
1.1112e-15
3.71681e-14
2.75941e-15
3.63285e-05
0.000293574
0.000142868
0.000799367
0.00966273
0.0819787
1.14024e-14
5.43286e-15
4.74759e-16
0.00363759
0.0166015
0.0189935
0.0331075
0.00165962
0.00289579
2.2557e-15
8.2048e-15
1.49626e-13
7.97057e-15
0.00878941
0.0211852
4.49829e-15
3.1171e-15
2.07046e-16
1.81941e-14
8.84374e-15
2.01e-15
0.0131958
2.52468e-14
0.000909181
0.400697
4.16535e-15
1.30472e-05
0.0216756
0.000714002
3.50339e-16
6.26685e-15
0.00485947
8.46389e-15
0.0137969
9.11065e-07
0.023334
5.93772e-15
2.21608e-12
3.42289e-15
3.93623e-15
8.20836e-16
6.36664e-15
0.187744
2.07777e-15
0.00581987
0.00118987
6.80944e-15
1.14422e-14
0.00195268
8.81757e-15
2.51335e-15
0.012119
0.000135962
3.90534e-15
8.55765e-15
2.02814e-15
0.0162232
1.56591e-15
3.0268e-15
0.000440903
0.00259196
0.00305873
8.34188e-15
2.31584e-15
2.97305e-15
0.00372428
0.00183141
0.0125203
0.00361297
9.18459e-17
0.000755097
0.0111189
0.00621482
4.26593e-15
1.42209e-15
2.53272e-15
8.02221e-14
5.13476e-15
0.0296368
0.00492853
0.00567064
1.55047e-15
4.96494e-16
7.09617e-15
1.42895e-15
9.83095e-16
1.01508e-06
0.000209042
0.00210864
8.88006e-16
8.68061e-15
4.45066e-15
2.13807e-09
0.0336365
0.111119
4.44235e-15
8.59021e-10
2.53572e-11
1.23421e-15
2.48217e-15
0.00365635
0.00620276
4.1215e-15
3.33601e-15
0.00275382
4.64439e-15
0.000667999
0.001012
2.00399
2.35048e-15
1.19112e-15
0.0113333
0.000526046
1.2529e-15
0.636581
0.000579563
0.00602389
5.44519e-15
2.47175e-14
1.58063e-14
1.11595e-15
0.00815407
8.84062e-05
2.20952e-14
0.0242701
0.0184202
0.826944
9.21837e-15
3.42764e-15
1.17135e-15
6.53947e-16
0.00652046
7.72501e-08
5.79687e-15
7.14265e-15
0.0179474
0.000787495
0.00460821
2.41782e-15
1.51021e-14
0.0276464
1.55292e-14
3.27884e-15
7.9839e-15
2.02523e-14
0.020519
3.72652e-15
4.39822e-15
1.75311e-14
0.0247672
0.0115143
5.41246e-16
1.67113e-16
6.40717e-15
0.0147034
1.93233e-07
4.05965e-15
4.22134e-15
7.91025e-15
4.14409e-15
0.00231393
0.0107718
1.00667e-15
0.00192195
0.00107136
0.00469897
5.84256e-14
5.21573e-15
3.62681e-16
1.64162e-14
9.10069e-17
0.0183338
3.6264e-14
0.0137569
4.67111e-15
0.00150357
7.96095e-14
0.00237012
1.79881e-15
4.78123e-16
0.00982454
0.15473
3.92781e-14
0.00352591
3.64731e-15
0.000375044
4.71169e-14
2.335e-15
1.14154e-15
5.26943e-08
4.4945e-15
0.000293378
6.79149e-16
0.0337919
6.16028e-15
2.99717e-15
1.05431e-15
3.84976e-15
7.48594e-06
0.000130494
8.92212e-16
0.00546097
6.88182e-15
0.00264035
0.0174515
0.00126056
4.05799e-15
4.68825e-06
0.000439111
2.16287e-06
0.00408684
3.02016e-07
0.00164757
1.47242e-14
4.79525e-15
4.18732e-07
0.00549451
0.000237798
1.27661e-14
2.63458e-15
6.79341e-15
0.557589
1.74611e-15
1.27398e-14
5.31398e-15
1.4551e-15
6.97482e-15
2.71991e-05
0.000179065
0.000973347
6.61624e-05
1.54619e-12
0.00138724
1.60784e-15
0.00521924
7.47752e-16
3.52516e-15
1.34638e-14
8.97905e-15
1.4191e-05
6.45901e-15
2.05998e-14
8.17132e-15
0.0137429
9.89279e-15
2.24642e-15
0.00997468
5.86269e-15
0.0733057
0.119978
0.541978
6.04023e-15
0.193106
1.08504
1.07246
0.610271
1.37867e-14
2.02755e-16
0.00458068
0.00430515
5.2412e-15
0.00990071
1.84731e-15
0.0301589
7.86602e-15
7.27607e-16
0.00069252
4.79405e-15
3.88199e-15
1.02118e-05
3.84888e-05
3.16628e-15
5.04928e-16
2.70095e-06
1.16328e-15
5.33184e-15
1.78624e-05
0.00778087
0.00145766
4.32929e-15
0.00747366
1.14801e-14
0.00325902
4.18174e-07
0.00698634
1.95332e-15
1.44505e-08
0.0054064
2.21787e-15
1.52145e-09
1.35496e-15
0.0300196
3.55726e-15
0.00890654
2.65562e-15
2.175e-07
1.77545e-16
1.71068e-14
8.88081e-16
8.03314e-10
5.04812e-10
1.65475e-14
0.0112046
0.00863952
8.05599e-15
1.59752e-14
0.030207
0.0159321
0.172853
4.8601e-15
6.62337e-05
0.0232831
0.0427397
5.64555e-08
3.54895e-15
0.0532877
1.25161e-14
0.211985
3.57384e-15
4.06889e-08
3.6509e-08
4.38316e-15
5.46803e-05
2.05018e-14
0.0192086
3.11367e-15
5.78174e-16
7.47454e-15
3.11489e-15
4.42139e-15
1.13727e-15
0.000250906
0.00184121
0.124962
9.44257e-15
5.57978e-15
0.0380686
1.68003e-14
1.35543e-16
1.47667e-15
5.73395e-14
3.62769e-15
0.0054737
2.69233e-15
2.81966e-15
8.41891e-16
0.00303819
3.85379e-15
1.65501e-15
1.9674e-15
0.00303941
5.99188e-15
0.00563942
0.217157
0.00503887
0.00518369
0.0246298
3.24017e-16
1.2636e-14
1.97533e-15
0.00293241
0.00160696
5.44996e-16
2.7595e-14
0.000559817
2.13313e-15
9.60932e-16
0.309708
1.35157e-15
0.0199969
8.63465e-15
0.00217457
0.00297544
6.09307e-15
1.58974e-15
9.66922e-15
2.69973e-15
6.35958e-15
0.0166567
1.37935e-14
0.00432679
1.4445e-15
1.03052e-15
0.00638879
4.90682e-15
0.011568
1.83649e-14
8.01081e-15
0.00215402
6.58671e-05
0.129399
1.66482e-14
4.34301e-16
1.44514e-15
0.00311276
0.164289
3.44341e-15
1.11507e-14
8.52313e-15
0.00138164
1.21366e-14
0.0177437
0.0285074
3.1525e-14
7.62054e-17
0.00663709
8.2575e-15
6.99087e-15
1.33147e-16
2.31359e-15
1.07074e-16
0.0629378
3.97289e-14
6.85774e-15
9.72724e-16
4.44635e-14
3.31794e-16
1.86364e-14
3.44884e-15
5.86647e-15
3.10583e-14
0.00688457
4.2442e-15
0.00789466
1.53631e-14
1.60627e-15
0.532785
0.00251413
4.72772e-15
5.7499e-15
1.37483e-15
0.00222382
3.92281e-15
1.22228e-14
6.51548e-15
1.44152e-15
0.00679523
2.81595e-15
0.00436981
8.951e-16
0.00875202
6.42667e-15
0.0520051
1.06624e-14
5.46261e-15
0.0198673
5.15069e-15
1.20422e-15
0.0244362
0.000251316
4.136e-14
1.82275e-15
0.0328338
0.00908762
0.00593469
0.000770387
0.00166717
0.015946
0.000939157
0.00434905
2.59887e-14
0.0264161
1.02605e-16
1.47615e-14
6.87348e-15
2.02615e-15
4.50191e-15
0.00956912
2.04764e-14
4.01287e-15
1.40898e-15
4.04639e-06
7.57383e-06
1.00408e-14
0.00209283
5.51157e-15
0.00391841
8.03849e-15
1.20151e-06
0.00288365
1.41096e-13
0.0413492
5.67127e-16
1.21173e-14
8.95375e-16
0.00271324
0.00114963
1.91729e-15
5.14288e-15
0.00227422
8.22336e-15
0.609105
4.8257e-16
0.0936021
6.73732e-15
1.54717e-15
1.7727e-14
2.52498e-15
0.00911336
7.7864e-15
3.41728e-05
8.37254e-16
0.00893971
3.98995e-15
3.15417e-16
5.10922e-12
1.60106e-13
4.62631e-15
1.1684e-14
2.23836e-14
2.81244e-14
0.00383793
0.171051
9.38718e-16
6.91241e-15
0.000330146
2.37499e-15
6.52987e-15
1.02034e-06
0.0156372
0.000137023
9.77664e-15
0.000622735
0.00299916
0.00487366
0.00755706
7.52268e-15
1.10717e-14
1.92601e-14
2.96911e-15
5.25484e-15
4.29826e-15
5.81408e-15
4.94547e-15
6.29287e-15
8.45219e-15
5.39448e-15
7.40529e-15
0.0687478
5.56947e-16
4.89018e-16
2.21576e-10
6.43251e-15
7.12183e-15
1.01081
3.05022e-15
2.64574e-15
0.00186942
2.25696e-09
1.60135e-15
1.29816e-15
8.06642e-16
0.0209742
2.90662e-15
9.86707e-15
4.83875e-08
1.44247e-15
7.06167e-15
3.36527e-15
3.82431e-15
0.109493
2.79639e-15
0.00015021
1.24748e-16
2.72991e-15
1.13516e-15
1.65754e-14
2.32756e-15
1.56562e-08
2.98554e-08
0.000102214
4.28285e-15
1.71687e-15
1.11133e-14
8.60211e-08
3.82127e-16
2.77222e-07
8.63327e-09
2.43131e-15
1.85647e-15
2.47575e-15
4.91299e-09
4.45412e-16
6.95589e-15
2.12741e-09
4.34417e-14
0.0289478
9.85398e-15
0.00664648
7.62294e-14
2.13433e-06
5.73542e-16
0.00131657
2.47415e-15
0.00377343
0.024225
3.89341e-15
0.00234405
1.35316e-05
1.343e-15
0.0101635
2.16297e-15
3.48911e-15
9.30892e-15
2.14673e-15
9.29473e-15
1.63011e-15
1.20697e-15
5.3487e-15
0.266699
1.5767e-15
1.29477e-14
4.03159e-15
3.79305e-16
1.27873e-15
0.0299562
0.767604
2.98932e-06
9.95139e-06
1.01009e-15
0.00197965
0.00137745
1.67032e-15
7.3925e-15
1.00046e-14
8.55065e-16
2.88627e-15
3.71467e-15
1.2929e-14
4.70863e-15
0.000366291
2.54634e-14
4.07115e-15
0.000224373
3.62674e-06
1.96449e-14
0.024333
1.23033e-15
6.30485e-15
8.07696e-16
0.161731
2.13995e-14
6.98303e-16
0.0247799
5.26136e-16
3.8107e-14
4.17675e-16
1.75916e-14
0.0527816
2.44972e-15
1.55237e-15
5.86423e-15
5.82125e-16
0.0056471
0.225304
0.0277641
0.0418528
0.0036842
0.000248367
1.19535e-15
1.29455e-15
0.137556
0.00124013
7.67346e-15
8.7992e-08
7.68205e-15
7.39334e-11
1.76304e-14
0.205756
3.33258e-15
4.32721e-15
0.000225094
2.21721e-10
1.81497e-17
0.00965279
1.27562e-15
1.76853e-14
0.198022
0.0296412
1.93494e-15
1.54146e-15
6.08601e-16
1.73278e-15
2.30822e-15
9.29151e-15
1.41572e-15
1.06717e-15
0.00307694
5.20135e-15
2.53905e-15
1.23888e-14
1.37515e-05
2.84802e-15
7.23334e-15
1.52336e-14
2.04647e-15
2.20527e-15
3.46802e-15
0.00332204
8.62193e-16
1.31591e-15
0.00496638
1.12851e-14
0.000361131
0.0044973
1.21698e-14
0.0033909
1.59493e-15
1.67887e-15
4.02553e-15
5.87336e-15
5.19103e-15
1.1142e-14
2.20656e-14
4.25894e-15
0.00232923
3.55537e-16
1.23818e-14
2.75708e-15
5.33609e-15
5.86666e-15
7.51371e-15
0.0355408
4.4199e-16
4.31413e-16
0.337831
5.89258e-16
4.5698e-15
1.5589e-14
0.00124285
1.54018e-15
5.8803e-06
2.26921e-15
4.95134e-05
0.00795005
5.48939e-16
2.44096e-14
0.0402667
4.88309e-14
6.99914e-16
0.000125236
7.02055e-07
0.00982694
2.26079e-06
8.84003e-07
1.31695e-07
8.26609e-15
1.54821e-15
0.00100574
0.000122465
0.0159989
0.0120776
2.90686e-05
2.11971e-14
0.00549057
0.0051826
0.0184985
4.7248e-14
0.0122778
0.0166502
0.00272447
0.00138208
0.00122106
0.00322379
0.0189919
0.0406591
0.00710872
0.0110315
0.00798871
7.85885e-15
0.00288672
0.00362772
0.000842392
0.00258772
0.0142011
0.0137573
0.0194619
1.61768e-14