/*--------------------------------*- C++ -*----------------------------------*\
  =========                 |
  \\      /  F ield         | OpenFOAM: The Open Source CFD Toolbox
   \\    /   O peration     | Website:  https://openfoam.org
    \\  /    A nd           | Version:  10
     \\/     M anipulation  |
\*---------------------------------------------------------------------------*/
FoamFile
{
    format      ascii;
    class       volScalarField;
    location    "18.5";
    object      T;
}
// * * * * * * * * * * * * * * * * * * * * * * * * * * * * * * * * * * * * * //

dimensions      [0 0 0 1 0 0 0];

internalField   nonuniform List<scalar> 
111485
(
303.15
285.081
300.949
303.15
298.382
283.15
298.889
293.365
296.265
286.213
300.487
296.163
300.173
284.55
299.947
286.717
299.319
297.258
293.99
303.15
303.15
283.15
297.202
288.657
301.578
303.15
293.138
300.615
288.806
303.15
300.774
294.305
303.15
283.15
283.443
283.15
302.307
297.551
283.149
296.568
283.15
289.541
296.992
302.871
303.193
303.15
287.319
288.517
289.575
303.15
303.15
283.15
303.15
298.877
303.15
293.447
287.855
283.15
283.318
295.401
295.802
303.15
302.038
300.202
283.15
284.543
300.103
291.478
302.09
302.512
303.158
301.869
303.15
302.089
303.15
295.35
283.15
293.384
283.15
283.15
283.235
293.307
283.15
303.15
300.274
284.206
283.15
301.529
303.114
299.055
283.328
289.535
300.827
300.376
289.747
303.15
303.15
301.528
303.149
283.415
303.15
286.602
283.15
285.147
285.708
283.15
283.15
293.04
301.413
283.147
298.856
287.999
301.256
301.661
303.15
301.952
303.15
283.15
300.103
303.15
303.15
283.15
283.15
283.15
283.39
303.151
283.15
301.784
303.15
283.175
303.099
301.915
303.15
283.15
283.15
292.455
283.15
294.143
298.766
301.079
303.135
296.782
298.947
284.755
302.269
297.743
283.15
303.15
283.15
297.095
284.915
303.15
303.144
287.264
283.156
293.664
295.587
302.515
283.154
303.15
303.15
292.124
286.208
283.153
283.157
301.153
283.682
283.15
283.152
283.152
283.15
303.15
283.207
283.15
291.496
287.134
283.15
303.15
303.15
283.15
303.15
303.15
297.608
293.436
295.728
289.692
301.34
300.383
283.19
303.15
301.417
303.15
303.15
300.118
286.24
301.373
301.319
295.676
303.15
300.845
284.578
283.159
300.724
297.038
303.15
300.376
288.16
303.15
283.224
300.143
284.792
300.654
303.15
303.15
300.669
283.15
292.72
283.15
300.574
298.626
290.297
303.15
301.72
300.527
283.15
283.15
283.15
289.468
283.157
283.15
303.15
298.579
291.304
289.842
283.15
303.15
303.108
303.15
284.317
300.046
299.202
299.46
299.33
283.15
283.144
298.818
283.15
283.15
288.721
288.305
283.15
301.141
298.833
303.15
283.15
301.058
303.15
303.15
303.121
303.15
288.223
285.835
290.708
303.15
298.286
303.15
303.15
303.15
283.148
298.013
300.945
299.379
291.166
299.432
296.192
283.211
290.262
291.503
283.15
303.15
283.149
292.402
298.719
286.427
303.15
297.96
297.23
298.839
302.955
283.167
297.045
299.314
302.018
283.15
283.605
283.15
283.149
303.15
283.856
290.232
286.249
303.15
283.15
297.548
285.225
303.15
303.15
303.15
284.557
290.179
301.025
284.394
292.954
283.15
283.15
303.15
298.313
303.15
283.805
289.413
283.153
283.15
303.15
303.15
283.15
294.287
289.916
283.15
295.645
283.15
303.15
300.998
297.242
293.951
295.753
283.15
283.15
283.15
296.549
290.936
302.377
283.15
283.15
283.15
290.029
296.897
283.211
290.409
283.15
292.724
299.51
284.183
298.587
285.223
283.15
303.15
283.15
303.15
290.625
296.666
287.907
291.884
283.15
286.31
283.15
303.15
293.75
303.15
301.714
303.15
283.15
291.883
283.15
288.71
284.609
283.15
283.972
297.968
283.15
300.115
284.663
298.796
303.018
290.981
285.972
283.15
303.15
303.144
283.15
300.956
300.788
283.15
283.15
294.695
284.341
298.136
296.876
283.15
295.015
296.032
283.15
302.045
283.881
303.15
303.15
288.183
298.54
283.15
303.15
303.15
303.15
300.72
283.15
303.15
293.926
283.17
286.87
299.911
283.15
283.15
302.609
283.15
302.446
301.397
297.785
288.488
283.15
293.831
303.378
303.15
298.585
292.238
303.15
283.15
283.303
283.15
289.966
286.054
291.57
283.15
292.794
296.539
292.987
303.147
283.15
303.15
303.15
283.168
292.653
283.15
284.307
303.131
283.15
303.15
303.15
303.15
301.851
290.445
285.958
284.181
284.29
283.15
285.667
303.15
300.681
283.15
303.15
303.15
300.624
303.15
303.15
283.151
303.15
283.15
300.623
283.15
283.15
283.15
303.15
283.15
303.15
283.15
283.662
283.15
303.128
301.863
283.741
283.15
303.084
283.15
303.15
284.682
284.652
286.078
297.461
283.15
297.426
297.538
292.211
286.759
285.234
303.15
291.681
283.15
299.814
283.15
296.732
283.15
292
298.494
303.151
283.15
286.74
303.15
295.452
299.034
283.15
283.15
283.15
283.15
303.15
293.617
283.15
283.15
283.237
283.15
299.765
283.15
284.764
303.15
283.427
303.119
284.625
291.828
283.15
301.418
283.15
283.15
285.655
283.15
283.255
283.15
299.626
303.15
290.604
303.15
283.15
302.384
284.443
300.037
285.616
300.036
289.428
283.15
300.583
284.517
283.15
283.141
300.269
301.56
283.15
282.476
301.02
303.059
283.123
303.15
287.534
302.156
284.38
285.348
288.125
282.589
283.15
303.15
300.567
303.15
283.548
283.15
283.15
291.708
282.69
303.149
303.114
283.15
286.224
299.558
283.15
283.15
299.578
303.15
283.15
283.15
283.15
286.109
283.15
303.15
284.791
284.211
303.15
299.682
283.15
289.205
303.15
283.15
286.103
283.15
283.15
283.15
285.336
283.15
285.408
291.903
303.15
300.324
283.44
298.646
300.933
283.3
283.453
283.15
288.903
298.398
303.15
302.252
295.974
296.827
284.697
297.392
297.152
303.15
300.194
303.134
283.15
297.086
284.811
283.15
292.313
295.656
284.828
298.719
300.595
292.273
283.15
298.866
283.46
303.15
300.561
301.956
294.033
283.15
286.435
303.15
283.15
283.15
283.15
283.301
283.15
303.15
303.15
283.15
300.401
299.198
303.15
285.575
303.15
303.15
303.15
289.981
283.418
283.15
303.15
283.15
283.15
286.777
292.321
283.15
295.075
283.137
283.15
295.244
302.199
287.71
283.15
283.15
300.217
292.026
283.15
283.15
283.15
293.924
303.15
303.15
283.15
296.183
302.353
283.15
282.367
301.659
286.49
283.15
283.15
287.431
302.959
283.15
283.159
287.154
283.752
288.737
283.15
285.669
300.229
283.15
303.15
283.15
283.15
283.15
283.15
295.606
303.15
283.15
283.15
295.218
291.746
303.15
303.15
289.761
298.348
298.248
303.15
283.15
297.916
303.15
283.821
298.783
298.292
303.15
303.15
303.15
283.15
286.015
283.15
283.15
302.703
303.15
297.751
302.248
283.15
293.991
283.271
296.372
291.928
283.417
289.703
283.15
283.15
296.816
288.006
290.788
283.15
283.15
297.578
294.889
283.15
283.892
284.564
283.466
303.15
303.15
303.15
290.689
283.15
300.004
283.15
284.349
297.539
298.443
292.203
283.15
283.15
303.15
295.313
283.15
283.15
303.098
283.15
283.15
303.15
283.15
299.26
283.15
283.15
283.15
283.15
283.15
303.15
283.15
283.172
298.727
303.15
302.526
283.131
283.391
283.096
285.489
283.15
284.425
290.479
283.391
303.15
283.149
299.682
283.15
300.202
283.142
283.144
286.168
297.426
283.207
291.847
297.999
283.15
283.15
299.003
299.746
283.15
297.279
291.216
297.566
283.15
283.243
283.15
297.87
296.997
283.15
300.026
297.646
283.149
299.726
283.15
295.577
283.145
303.128
283.162
283.16
283.15
283.15
284.415
283.15
302.964
283.577
283.062
303.147
303.149
303.148
283.15
283.15
293.75
303.15
303.205
283.852
283.15
283.15
303.154
303.149
283.15
303.165
283.15
283.15
303.15
303.15
303.15
303.15
283.362
283.15
283.15
283.15
303.157
283.301
283.875
293.404
283.15
283.15
283.329
283.15
283.15
283.15
287.198
293.528
283.15
283.15
283.15
283.15
283.15
283.15
283.99
283.15
303.15
291.506
283.15
303.15
303.15
303.154
303.15
303.15
283.15
303.171
283.15
283.682
283.145
303.152
283.15
303.061
284.369
292.02
303.15
303.128
284.425
303.15
283.15
303.15
283.15
293.977
293.404
284.604
303.148
283.15
293.168
283.15
283.15
303.15
283.15
294.787
283.15
303.15
283.163
298.103
303.15
284.36
283.15
283.565
283.15
283.15
283.15
303.15
285.798
283.467
284.115
283.15
283.15
285.595
283.15
283.15
303.15
284.32
303.165
298.498
303.15
303.127
303.127
283.15
303.129
283.15
283.441
289.071
301.039
283.783
283.166
283.15
283.15
283.15
303.184
283.15
302.895
303.15
292.599
303.15
288.684
283.816
303.15
283.15
303.15
283.15
301.764
303.15
303.15
286.363
300.52
283.15
283.15
283.15
283.15
283.15
283.15
300.771
283.57
303.15
303.15
303.157
303.15
300.155
284.403
283.15
302.093
303.15
301.597
283.15
302.561
283.15
283.148
303.152
283.31
302.094
300.184
283.147
283.15
289.314
303.15
293.318
303.15
283.15
303.15
283.15
283.15
283.15
300.766
302.035
303.15
303.15
303.15
302.9
283.15
303.15
292.824
283.087
303.15
297.486
298.323
296.443
283.372
283.15
283.15
283.15
283.15
294.571
283.15
294.75
283.15
303.056
289.8
283.15
302.854
283.15
283.15
302.727
283.148
302.911
283.15
303.15
283.15
302.376
283.15
303.15
283.15
283.148
283.15
283.17
283.15
283.15
303.15
292.966
301.077
296.046
296.961
303.15
303.115
283.15
283.15
285.643
283.15
283.158
302.838
298.772
302.935
303.15
283.358
283.15
303.15
283.15
302.988
283.314
298.314
283.15
303.15
288.035
303.15
283.15
283.127
295.011
283.147
283.15
283.15
283.149
303.15
283.15
303.141
303.15
303.15
289.873
302.982
302.989
288.947
293.19
283.15
283.15
303.082
289.017
283.15
303.15
284.717
283.15
303.15
283.15
283.15
283.15
297.315
283.15
302.934
283.15
300.437
283.15
283.15
283.15
283.15
283.15
283.15
284.993
283.15
283.15
283.15
283.15
283.15
283.15
291.937
283.15
298.385
302.927
283.15
302.338
283.15
302.506
303.145
292.278
288.756
303.15
292.142
284.753
303.108
303.15
303.14
295.055
288.633
283.15
287.854
283.15
283.15
283.15
283.15
287.481
283.15
283.15
291.623
303.135
285.293
283.15
283.15
302.526
283.15
283.182
303.15
299.881
283.15
283.15
302.821
283.15
303.178
303.15
283.15
289.018
298.003
292.683
285.622
292.489
294.064
283.15
283.15
302.269
290.556
292.717
284.39
283.15
294.38
283.15
303.15
300.696
298.743
283.15
297.408
283.15
292.732
297.16
303.15
283.15
283.15
301.751
283.15
283.15
300.464
296.114
283.197
291.191
283.15
283.15
302.787
300.483
283.15
300.611
283.15
300.465
283.15
283.15
300.769
283.15
283.226
301.577
283.15
283.15
302.421
283.15
287.869
303.15
290.303
303.15
303.15
303.15
300.913
283.15
283.15
299.497
283.15
302.983
283.15
283.15
303.15
283.151
288.161
283.15
283.15
288.024
288.204
283.15
283.668
283.15
303.15
302.411
283.705
301.539
283.15
283.15
283.15
283.15
283.15
283.15
283.15
283.15
283.15
283.15
283.15
303.15
283.15
283.15
283.15
283.15
283.15
283.15
283.15
283.15
303.15
286.908
283.15
283.15
283.15
294.648
283.15
303.15
302.891
283.15
283.15
294.652
283.15
283.15
301.778
295.129
283.15
303.675
303.602
283.15
301.453
293.901
297.492
301.448
298.105
303.15
283.15
296.403
291.699
301.391
283.15
302.124
302.409
300.84
288.007
287.287
301.029
301.762
301.761
303.15
285.843
297.501
285.488
297.203
283.15
283.15
283.15
303.15
283.15
291.921
297.885
283.15
283.15
283.15
283.15
283.15
303.15
283.15
303.15
292.103
303.108
298.983
302.839
283.15
283.15
285.373
283.167
283.15
283.15
301.73
303.15
283.15
298.123
299.482
297.489
298.598
300.77
303.15
291.011
302.571
303.15
303.15
300.28
303.15
283.15
282.992
295.506
302.943
283.15
303.15
289.528
286.133
297.154
292.12
302.369
303.15
303.136
303.15
303.15
283.15
298.983
283.15
291.729
290.412
299.651
284.741
303.15
301.903
303.15
283.15
303.15
303.15
291.454
299.466
283.15
303.15
303.132
291.708
303.026
299.317
292.751
288.29
292.855
283.15
303.15
283.15
291.187
298.259
303.151
303.15
303.15
303.15
297.446
302.565
283.15
299.94
301.108
284.837
299.481
303.15
303.15
298.644
292.905
283.15
302.896
299.675
302.607
291.905
297.268
298.199
303.15
286.954
298.182
291.281
283.15
289.009
303.15
288.353
301.027
303.15
288.671
301.248
300.079
293.119
283.149
283.16
283.238
301.596
300.885
303.15
288.788
301.45
303.15
283.15
303.15
303.209
298.709
290.577
296.74
303.259
283.149
297.399
303.15
303.15
292.732
303.15
300.289
283.299
301.289
291.506
303.15
283.65
293.156
303.15
283.066
298.639
303.15
300.663
286.225
303.15
303.15
283.982
303.15
283.15
283.15
285.892
299.22
291.124
303.15
285.18
297.418
283.15
298.807
298.842
288.934
303.103
283.15
301.516
299.648
298.807
300.044
288.63
290.718
302.486
303.15
301.524
288.684
303.15
298.818
283.15
283.15
303.15
283.15
303.15
297.406
283.15
300.492
283.633
303.15
283.789
283.15
289.805
303.15
303.144
303.15
294.089
302.998
303.117
299.82
290.377
289.401
290.555
298.356
303.15
299.343
292.113
298.896
303.15
283.864
283.442
299.204
287.132
283.505
303.15
283.15
303.15
285.287
303.15
303.339
284.671
303.383
302.955
303.15
303.15
283.15
300.513
300.663
285.451
303.084
286.972
295.622
301.87
292.452
288.096
302.073
296.056
283.15
283.15
303.15
285.787
289.658
283.15
283.15
303.15
301.976
288.642
303.15
296.355
303.15
283.155
285.15
301.159
303.15
303.15
292.223
303.15
283.297
290.578
283.15
297.116
294.597
296.107
303.15
302.701
283.15
302.661
293.363
303.15
303.15
288.76
283.15
303.15
301.778
284.424
303.15
303.15
283.15
302.33
303.477
289.431
299.653
298.099
303.15
303.159
302.585
303.15
283.15
303.15
303.15
303.15
303.15
303.15
303.15
303.15
283.15
303.15
303.15
283.337
303.15
303.349
303.15
303.162
303.15
303.15
300.889
303.679
303.15
291.925
303.15
303.15
283.15
302.547
303.15
302.13
303.114
283.289
283.15
303.15
302.563
283.149
303.15
303.15
291.312
283.15
292.536
283.15
283.15
283.153
291.161
284.816
303.15
296.617
283.15
303.781
303.133
284.302
302.583
283.15
292.111
303.083
301.646
283.15
303.15
283.15
304.135
284.803
296.87
303.15
303.15
303.15
303.15
303.15
303.15
302.34
302.806
297.572
291.975
303.15
287.11
292.591
284.959
303.209
283.15
286.88
302.749
284.751
283.148
287.441
303.15
283.381
302.918
292.477
302.843
301.859
303.15
302.244
303.15
303.15
297.912
303.15
284.461
303.15
303.15
283.15
303.15
303.15
302.842
303.15
283.296
283.15
283.15
285.793
284.849
300.917
286.078
303.15
294.582
303.15
290.397
303.15
287.114
300.648
301.456
293.276
303.15
303.15
303.15
289.776
283.15
303.15
289.529
283.15
283.15
301.797
303.15
286.15
283.148
283.15
303.15
303.15
300.636
298.151
303.15
293.367
303.033
283.15
298.582
303.15
286.383
288.193
302.129
303.15
296.267
296.749
302.949
301.865
301.636
303.15
303.15
303.147
303.15
283.15
303.15
289.53
300.186
294.287
302.11
283.15
300.34
291.342
298.205
283.591
298.274
289.557
302.146
283.15
283.15
283.15
302.194
283.15
290.41
283.15
301.23
303.162
289.685
298.038
283.15
303.15
301.218
301.195
303.15
283.15
303.15
286.397
301.418
302.974
302.327
297.98
288.403
303.15
303.15
303.15
294.184
285.944
289.745
295.827
283.948
302.954
303.15
303.15
283.15
283.15
285.404
299.578
303.15
303.15
283.15
303.15
303.15
303.15
300.221
303.15
285.322
292.208
283.15
283.248
293.319
285.667
303.15
303.15
301.869
303.15
299.184
283.147
297.522
303.15
303.15
283.15
303.15
303.15
303.15
305.146
303.15
301.82
301.118
303.15
303.15
301.593
303.15
283.15
287.211
303.099
303.15
303.15
303.15
297.89
303.15
303.15
302.404
302.478
301.757
303.15
283.15
303.15
302.028
302.503
301.503
302.524
283.15
300.63
287.441
297.412
283.15
303.15
303.15
303.15
303.15
294.307
287.532
299.669
303.15
303.15
303.15
303.15
283.15
303.148
284.752
285.128
283.15
303.15
303.15
283.148
299.532
294.809
283.15
303.15
303.15
303.15
303.15
289.574
289.624
303.15
303.15
302.402
303.15
301.458
283.941
291.816
303.15
283.15
301.178
303.121
303.15
302.999
301.291
286.802
303.15
303.15
303.15
303.15
293.252
284.134
303.15
302.679
298.018
289.252
303.15
303.15
303.15
303.15
299.532
303.151
303.15
303.15
298.223
302.598
288.301
303.15
303.15
297.708
303.15
303.15
303.15
303.15
288.769
303.15
283.15
283.15
295.886
291.04
303.15
303.15
303.15
296.979
303.146
303.15
303.15
303.15
303.15
303.39
300.839
303.15
287.301
302.638
299.354
303.15
303.15
303.15
303.15
283.15
285.641
303.15
302.845
283.15
302.164
303.15
303.134
303.15
283.15
301.949
285.571
283.15
302.827
303.15
302.406
283.15
303.15
303.15
303.151
303.15
283.271
303.15
290.799
283.15
283.15
303.15
303.15
298.804
302.359
283.15
302.397
283.15
284.092
287.924
302.691
283.15
303.155
302.981
303.133
284.383
283.156
302.981
283.15
283.15
283.156
302.058
302.278
303.15
283.15
283.15
295.194
303.15
283.15
303.15
303.15
303.15
303.108
303.044
302.922
302.431
303.15
302.9
303.15
284.78
303.15
303.15
283.15
303.15
303.11
303.15
283.15
303.15
288.279
303.15
303.15
303.17
283.15
302.793
301.961
296.654
303.15
289.181
294.252
283.777
289.865
283.15
283.15
287.174
284.3
283.15
303.85
283.15
286.376
303.15
283.15
303.155
303.15
303.15
303.012
303.155
303.15
283.15
303.138
303.15
283.15
283.106
298.682
302.691
303.15
301.817
303.15
285.676
303.152
301.146
303.15
303.15
301.008
303.15
303.15
303.15
287.656
303.15
285.119
303.15
303.147
303.15
283.15
283.15
303.15
303.15
303.15
288.661
302.534
303.15
303.15
288.548
286.476
291.137
303.15
302.689
287.635
287.5
303.15
303.15
287.598
283.15
291.851
303.15
303.153
303.149
303.15
300.494
283.15
302.316
283.15
303.15
303.15
303.15
303.15
303.15
284.306
302.231
290.993
303.15
303.15
290.522
303.15
303.15
303.15
303.15
303.15
300.114
303.15
303.15
283.15
299.418
303.15
283.15
303.15
301.34
283.15
299.919
290.705
302.676
299.983
299.401
303.15
303.15
303.15
300.811
288.429
283.15
303.15
300.279
303.15
303.15
291.928
303.15
287.439
303.15
297.785
284.297
303.15
283.15
303.15
303.15
303.15
285.22
303.15
300.453
303.15
303.15
299.661
283.15
284.711
303.15
303.15
288.056
301.548
296.372
303.15
303.15
303.15
301.564
292.197
303.15
283.15
303.15
300.638
303.15
284.734
296.252
303.15
303.15
301.108
303.15
303.15
283.15
303.15
283.15
294.498
303.15
283.15
303.15
303.15
303.15
303.15
303.15
303.15
283.15
301.515
283.15
302.056
303.15
303.15
296.064
300.438
303.15
283.15
303.15
300.847
283.15
303.15
303.15
303.15
300.701
303.15
297.618
303.15
285.812
283.15
286.693
303.15
303.15
298.477
283.15
303.15
287.801
283.245
303.15
303.15
285.062
283.829
300.812
301.706
301.154
293.129
301.713
283.831
303.15
297.651
283.15
283.15
303.15
303.15
303.15
301.183
303.15
303.15
303.15
303.13
283.168
283.15
283.557
303.15
301.988
283.15
303.142
296.037
283.15
294.494
303.15
303.15
283.15
299.844
283.912
303.15
283.15
299.873
303.15
297.664
303.15
295.225
303.15
283.15
303.15
283.15
299.385
283.15
283.223
283.15
286.16
303.15
303.15
283.15
283.15
303.15
303.15
303.15
303.15
284.847
284.703
283.15
303.15
283.232
283.15
283.15
303.154
289.825
283.537
283.15
301.47
284.859
300.448
288.134
303.15
303.15
303.15
303.15
283.15
283.15
283.15
303.15
283.15
283.15
303.15
283.15
297.215
283.15
303.15
283.15
303.15
303.15
283.295
283.15
303.15
301.921
303.149
303.15
303.15
303.15
288.681
283.15
303.15
303.149
283.15
303.15
303.15
303.15
295.285
283.15
283.178
303.15
303.15
303.15
303.15
303.15
303.149
303.147
284.092
303.15
283.15
303.15
303.149
303.15
303.148
303.149
283.15
283.15
283.15
303.15
303.15
283.15
303.149
283.15
287.673
283.15
301.771
283.15
303.154
303.15
284.582
283.15
284.427
297.338
303.15
284.664
303.174
303.15
297.344
283.15
303.15
303.15
303.15
303.15
283.15
303.15
303.15
299.102
283.15
303.15
303.15
303.15
303.15
292.295
290.175
303.171
283.164
303.15
301.794
302.307
303.15
283.15
283.15
303.15
303.15
303.15
283.15
283.15
283.807
303.15
303.15
303.199
303.151
283.15
288.817
303.15
283.15
303.15
287.992
303.15
283.15
302.088
283.15
283.15
283.15
303.15
299.608
303.15
303.15
303.15
283.15
284.477
293.517
295.154
289.504
303.117
303.013
283.15
283.15
301.03
283.681
283.15
303.149
303.15
303.15
283.15
294.481
303.15
283.15
302.972
303.15
303.15
283.779
303.15
303.15
288.347
289.488
303.15
283.15
303.15
283.15
303.15
303.15
303.15
303.15
283.933
303.15
303.15
303.15
302.92
303.15
303.15
283.15
283.15
283.15
283.15
302.933
283.15
283.15
300.923
303.15
284.739
284.896
303.15
301.087
303.15
283.15
303.15
283.15
283.15
303.15
303.15
303.15
302.654
303.15
303.15
303.15
283.15
303.15
283.15
286.339
303.15
303.15
291.54
303.15
283.15
283.15
302.403
303.15
303.147
283.15
303.185
286.618
283.15
283.15
299.151
283.15
283.15
303.049
303.162
293.295
303.167
303.151
303.153
283.15
283.15
302.631
283.442
285.773
300.834
283.157
283.15
291.005
301.548
301.448
283.15
300.197
290.663
300.125
302.193
302.719
284.65
295.422
299.177
286.228
293.271
300.086
303.15
297.986
297.518
302.776
283.659
292.281
301.132
287.298
303.15
300.981
303.15
300.691
301.465
283.632
284.965
303.15
283.15
302.286
301.655
283.145
303.173
288.514
302.67
301.802
300.785
303.15
303.234
301.09
294.946
300.423
288.842
302.902
301.649
302.195
302.257
284.203
302.488
301.562
283.177
303.15
302.888
303.15
303.15
302.068
301.976
294.235
303.15
284.655
292.222
292.296
300.79
303.15
283.986
285.167
284.383
303.15
298.742
303.15
296.398
295.3
300.69
303.142
303.15
303.15
301.912
301.223
302.773
303.15
292.57
302.738
289.912
283.15
298.357
293.95
303.15
300.51
283.15
283.203
283.15
302.551
303.094
303.15
302.981
298.33
283.148
300.491
302.208
295.308
283.525
295.771
297
283.451
303.132
284.724
296.339
283.317
296.778
300.455
300.204
300.32
301.965
289.637
301.543
303.15
302.715
302.645
302.657
296.541
302.89
283.15
301.994
293.418
303.15
283.425
286.815
301.18
302.58
290.482
284.803
287.648
302.606
296.331
303.15
303.15
294.952
283.15
292.61
283.421
303.15
290.528
290.226
283.901
303.15
297.241
298.521
284.219
301.205
294.161
290.137
300.506
303.112
303.15
303.15
283.521
302.599
283.341
285.771
303.15
303.019
303.034
303.15
285.386
300.846
297.802
283.243
299.496
302.347
300.466
286.872
283.15
303.104
301.784
283.727
283.135
303.15
303.071
303.15
303.15
284.17
302.522
296.407
283.035
283.153
303.15
283.15
302.949
303.041
302.489
301.384
303.15
283.15
283.15
301.8
301.856
283.211
295.91
303.15
303.15
301.591
285.476
283.257
301.655
301.76
301.698
284.379
303.15
283.15
298.486
297.718
303.15
302.688
302.056
284.637
284.956
302.089
303.057
303.15
298.117
284.405
283.15
303.15
300.573
301.185
301.991
289.575
302.05
285.639
300.117
300.303
290.305
297.493
303.15
303.15
300.904
284.445
302.067
283.151
300.449
301.677
283.622
288.261
302.403
283.15
283.15
283.029
303.15
303.15
299.917
298.906
302.262
283.147
283.15
283.921
283.151
283.15
283.151
303.076
300.888
299.112
295.824
283.362
303.091
300.092
303.15
283.15
302.541
289.205
300.771
292.68
283.503
303.057
283.148
283.15
302.826
301.178
302.597
283.155
291.18
284.866
303.15
284.236
301.009
283.15
283.305
284.926
284.095
283.15
283.15
301.614
283.15
289.333
302.514
302.69
301.772
283.47
298.14
289.966
283.15
303.352
292.032
283.15
283.15
283.15
303.15
301.204
302.398
299.134
301.437
299.911
288.811
283.154
290.954
290.129
303.058
291.01
299.969
292.039
283.15
286.279
301.048
301.544
283.15
283.977
299.632
283.15
303.15
283.186
301.247
303.15
283.999
302.258
303.016
303.15
283.15
292.756
303.153
301.669
283.15
283.15
283.15
302.17
297.516
303.143
302.176
303.167
303.15
288.33
303.167
290.408
300.187
300.145
296.532
283.156
301.671
283.15
290.548
301.384
289.403
290.454
298.927
300.669
301.568
287.145
291.117
284.983
283.171
302.195
286.096
283.15
283.144
300.164
283.081
300.259
286.959
296.061
299.392
289.152
299.236
283.121
299.168
283.15
289.929
288.888
298.614
283.325
283.15
300.519
283.15
302.787
283.15
303.15
286.442
286.445
283.15
298.947
298.578
286.993
303.15
303.15
301.688
289.758
302.985
283.722
301.548
287.057
303.147
284.172
288.14
303.15
301.393
283.15
283.15
287.525
286.978
283.145
285.234
301.469
286.201
301.228
303.15
285.096
301.721
291.163
303.15
303.15
301.586
302.023
303.15
292.96
294.266
283.655
296.343
286.74
289.972
303.15
302.754
296.983
284.975
283.15
287.685
291.836
299.588
283.162
283.744
282.955
301.927
303.114
283.151
303.133
303.15
300.558
292.99
298.783
293.789
283.15
291.918
295.897
285.552
283.211
291.347
283.15
300.298
303.164
292.482
284.092
303.143
291.821
298.563
288.209
300.353
291.31
287.288
283.15
303.141
285.312
289.848
293.41
283.15
283.15
283.15
303.141
283.15
283.137
286.386
303.15
283.15
303.168
283.172
291.095
288.745
303.555
302.906
289.819
303.15
296.928
303.177
301.99
287.238
283.15
292.856
303.144
303.092
286.146
283.15
283.15
283.465
285.981
303.05
303.143
287.48
289.439
283.474
283.162
289.815
293.188
303.15
283.15
303.094
303.15
302.318
284.992
302.331
303.091
284.049
283.766
284.035
302.857
302.154
297.389
294.002
303.066
291.217
291
303.15
303.095
302.572
285.408
283.375
303.15
285.917
283.383
302.927
301.693
302.155
283.15
300.305
301.833
303.15
302.131
285.374
303.15
297.848
303.15
283.15
300.67
302.669
286.286
302.478
283.15
285.149
303.002
283.15
302.286
285.336
294.829
284.316
303.15
303.017
302.88
286.468
283.15
287.09
284.24
289.736
285.697
302.233
303.15
283.15
283.15
293.112
283.15
301.037
302.141
290.326
283.15
294.018
283.15
303.15
283.15
300.087
298.518
283.151
285.249
301.731
303.064
303.155
291.801
294.147
301.168
283.199
301.804
283.145
303.15
303.143
298.911
283.15
300.681
294.718
303.15
300.928
287.264
301.958
284.88
288.141
283.15
302.201
287.68
298.383
303.079
283.15
303.15
291.619
302.141
283.079
283.147
286.722
298.281
303.149
284.436
300.991
300.963
301.218
303.153
299.85
287.592
284.891
301.555
299.844
283.709
283.106
303.16
303.149
303.15
297.299
283.163
283.15
303.15
303.149
289.863
298.896
300.264
287.73
302.789
303.15
286.399
301.573
303.15
300.937
283.789
301.426
303.15
284.529
301.377
295.516
302.761
303.15
303.15
285.145
295.019
296.315
287.333
303.15
303.15
283.15
287.162
302.379
296.103
303.15
285.532
303.15
303.15
300.453
288.673
283.15
295.481
295.811
299.07
283.15
303.15
292.627
287.17
303.15
297.89
300.468
300.371
303.15
303.15
303.15
300.177
298.272
302.782
299.841
283.15
292.85
287.616
290.541
300.521
303.15
303.15
300.718
303.092
286.505
296.027
303.15
303.147
283.15
286.401
298.861
285.542
303.15
303.15
283.336
303.122
303.15
303.15
283.15
290.471
303.15
303.15
284.556
299.269
283.15
303.15
284.589
301.286
300.112
286.945
294.937
303.15
283.493
303.15
303.15
283.309
300.49
290.353
300.344
303.15
303.129
302.147
292.552
299.719
301.301
284.423
283.448
300.855
298.325
303.15
302.742
284.118
299.679
301.343
287.628
303.15
297.371
301.372
301.459
301.5
292.852
303.15
283.15
299.117
283.15
283.15
287.695
283.15
283.992
283.15
283.15
283.15
283.15
302.739
288.097
302.687
283.15
295.601
290.886
284.712
283.15
303.15
302.661
301.705
303.163
302.618
283.15
294.743
300.208
290.113
283.15
283.15
299.745
285.893
283.15
283.15
303.149
290.513
283.15
287.081
303.149
303.152
284.288
283.15
288.145
292.076
300.776
294.581
302.947
285.579
302.485
295.172
286.218
283.15
283.534
291.53
303.068
289.015
302.637
283.15
292.324
287.693
300.996
301.281
284.872
303.1
284.874
296.973
302.984
303.146
285.097
303.145
303
293.212
302.681
283.15
303.15
303.15
294.669
290.949
283.155
301.03
284.645
284.127
284.591
303.145
288.284
300.406
283.15
283.15
302.478
303.15
294.459
302.886
303.183
299.727
303.224
302.872
283.15
301.25
302.868
283.15
303.15
301.286
303.15
284.292
298.665
283.163
291.411
283.15
287.52
303.007
299.695
283.15
303.019
290.847
301.179
303.124
303.077
283.15
283.15
301.933
301.97
283.788
302.804
302.392
302.358
303.141
283.15
293.617
283.15
302.78
287.811
302.98
303.15
283.15
302.807
285.097
291.424
302.02
283.15
302.562
301.962
301.524
302.461
303.042
303.212
303.004
303.15
283.15
301.483
297.768
303.086
303.15
289.831
284.833
303.15
283.15
285.274
303.184
303.166
302.908
301.081
284.238
303.095
290.662
294.175
303.148
288.973
303.164
283.15
289.773
283.15
299.895
298.047
284.756
288.107
299.531
296.651
295.212
299.091
293.663
303.154
293.819
296.283
283.162
299.298
293.803
303.15
298.848
299.055
303.15
291.094
303.171
301.625
303.15
286.861
285.947
302.784
289.603
283.15
283.15
300.277
301.154
283.707
283.15
303.15
300.165
302.291
300.571
299.806
302.771
292.505
289.576
286.584
292.429
284.271
290.291
283.303
295.676
290.361
293.822
287.037
284.264
303.163
283.271
303.148
285.526
300.648
283.151
300.404
298.379
288.667
302.087
285.367
298.986
283.15
302.944
283.154
283.118
287.533
299.565
303.15
300.321
303.015
299.865
302.745
303.15
301.205
284.915
294.824
302.011
303.149
283.69
283.15
290.223
285.21
285.7
303.124
303.148
283.15
283.15
283.175
303.15
293.348
303.15
303.146
293.91
303.437
303.15
300.401
303.15
303.15
293.549
290.521
303.15
289.762
302.025
289.491
303.15
303.15
285.853
283.331
290.244
303.227
303.15
303.145
285.419
283.241
283.15
288.902
287.507
303.15
284.282
303.15
303.15
303.131
287.272
303.15
303.147
283.27
303.152
302.639
287.856
283.153
283.578
297.343
290.627
303.15
285.87
284.401
301.28
287.055
302.164
290.513
293.764
303.15
303.15
283.986
303.147
302.938
295.865
302.938
302.724
287.116
283.15
285.279
283.216
297.036
302.579
285.32
303.15
283.774
286.659
303.124
283.175
303.15
286.341
283.15
300.115
303.15
299.641
299.77
283.296
283.353
302.304
290.741
301.353
303.15
301.344
301.703
303.15
303.15
298.253
293.326
283.15
288.71
303.15
295.207
283.349
303.15
296.812
298.656
288.925
303.15
302.738
294.124
295.287
284.431
303.16
298.604
296.024
283.965
303.122
302.788
287.303
298.349
289.752
290.726
289.669
283.15
302.937
303.152
303.15
303.176
292.995
296.213
302.972
301.235
303.15
284.421
303.15
303.036
302.844
303.15
293.449
296.178
303.15
285.329
303.093
303.15
303.086
303.158
285.995
293.239
291.025
288.335
293.352
303.15
301.162
291.345
295.246
293.334
303.14
303.15
300.492
303.19
284.211
303.191
303.15
303.15
303.143
303.15
284.893
303.15
284.188
303.146
303.15
290.12
303.144
292.375
295.423
303.133
295.236
285.941
283.435
303.123
302.934
284.656
283.15
297.032
303.15
285.459
302.897
302.008
303.018
298.425
286.98
303.15
298.629
289.829
299.24
283.15
283.609
303.15
303.145
303.191
294.012
303.15
292.339
289.254
303.196
303.15
284.742
298.679
293.131
299.511
302.449
301.586
300.32
303.15
284.684
296.957
302.352
285.559
298.337
292.188
284.431
291.551
303.15
286.551
291.716
290.057
299.358
303.15
286.389
284.07
303.15
302.406
288.072
302.086
283.15
303.15
299.76
301.651
288.906
301.948
301.92
301.773
303.15
289.241
285.082
301.924
302.206
297.048
303.15
283.199
303.15
301.948
303.15
302.787
303.15
291.573
303.15
296.437
283.15
289.407
303.15
283.15
292.141
301.402
300.354
289.122
300.436
303.15
302.469
303.15
302.354
285.168
303.15
300.34
290.314
303.15
300.748
303.15
303.15
293.128
283.15
285.475
293.143
300.865
303.15
291.064
293.748
288.105
289.587
288.044