/*--------------------------------*- C++ -*----------------------------------*\
  =========                 |
  \\      /  F ield         | OpenFOAM: The Open Source CFD Toolbox
   \\    /   O peration     | Website:  https://openfoam.org
    \\  /    A nd           | Version:  10
     \\/     M anipulation  |
\*---------------------------------------------------------------------------*/
FoamFile
{
    format      ascii;
    class       volScalarField;
    location    "7.9";
    object      T;
}
// * * * * * * * * * * * * * * * * * * * * * * * * * * * * * * * * * * * * * //

dimensions      [0 0 0 1 0 0 0];

internalField   nonuniform List<scalar> 
111485
(
303.15
285.113
300.976
303.15
298.414
283.15
298.922
293.393
296.328
286.253
300.515
296.201
300.211
284.576
299.974
286.767
299.303
297.955
294.044
303.15
303.15
283.15
297.24
288.705
301.542
303.15
293.197
300.617
288.865
303.15
300.73
294.314
303.15
283.15
283.45
283.15
302.282
297.593
283.149
296.594
283.15
289.6
297.011
302.883
303.191
303.15
287.383
288.564
289.64
303.15
303.15
283.15
303.15
298.921
303.15
293.498
287.905
283.15
283.322
295.439
295.84
303.15
302.051
300.27
283.15
284.555
300.293
291.533
302.106
302.528
303.162
301.896
303.15
302.102
303.15
295.364
283.15
293.464
283.15
283.15
283.238
293.384
283.15
303.15
300.31
284.212
283.15
301.546
303.118
299.08
283.34
289.584
300.86
300.374
289.776
303.15
303.15
301.546
303.149
283.415
303.15
286.664
283.15
285.171
285.753
283.15
283.15
293.063
301.452
283.146
298.902
288.069
301.29
301.699
303.15
301.976
303.15
283.15
300.122
303.15
303.15
283.15
283.15
283.15
283.399
303.151
283.15
301.809
303.15
283.177
303.085
301.938
303.15
283.15
283.15
292.496
283.15
294.209
298.778
301.083
303.137
296.805
298.958
284.773
302.277
297.788
283.15
303.15
283.15
297.124
284.93
303.15
303.144
287.32
283.156
293.708
295.619
302.523
283.154
303.15
303.15
292.17
286.249
283.153
283.157
301.175
283.686
283.15
283.152
283.152
283.15
303.15
283.206
283.15
291.533
287.173
283.15
303.15
303.15
283.15
303.15
303.15
297.631
293.489
295.776
289.762
301.374
300.413
283.19
303.15
301.439
303.15
303.15
300.147
286.281
301.401
301.325
295.741
303.15
300.878
284.598
283.16
300.773
297.054
303.15
300.405
288.203
303.15
283.225
300.174
284.808
300.677
303.15
303.15
300.691
283.15
292.766
283.15
300.595
298.701
290.367
303.15
301.749
300.528
283.15
283.15
283.15
289.495
283.157
283.15
303.15
298.636
291.366
289.917
283.15
303.15
303.107
303.15
284.332
300.071
299.248
299.496
299.365
283.15
283.144
298.841
283.15
283.15
288.752
288.361
283.15
301.177
298.86
303.15
283.15
301.012
303.15
303.15
303.121
303.15
288.267
285.865
290.781
303.15
298.32
303.15
303.15
303.15
283.148
298.084
300.965
299.406
291.196
299.464
296.219
283.211
290.328
291.574
283.15
303.15
283.149
292.441
298.725
286.46
303.15
297.975
297.24
298.873
302.96
283.166
297.082
299.344
301.996
283.15
283.607
283.15
283.149
303.15
283.89
290.258
286.311
303.15
283.15
297.572
285.244
303.15
303.15
303.15
284.586
290.234
301.053
284.402
293.009
283.15
283.15
303.15
298.333
303.15
283.821
289.487
283.152
283.15
303.15
303.15
283.15
294.338
289.962
283.15
295.694
283.15
303.15
301.064
297.279
293.965
295.802
283.15
283.15
283.15
296.591
291.003
302.361
283.15
283.15
283.15
290.083
296.925
283.213
290.471
283.15
292.779
299.542
284.199
298.674
285.261
283.15
303.15
283.15
303.15
290.668
296.636
287.94
291.934
283.15
286.358
283.15
303.15
293.798
303.15
301.767
303.15
283.15
291.943
283.15
288.777
284.624
283.15
283.984
298.01
283.15
300.133
284.669
298.825
303.023
291.05
286.002
283.15
303.15
303.144
283.15
300.976
300.845
283.15
283.15
294.694
284.367
298.175
296.81
283.15
295.112
296.103
283.15
302.047
283.897
303.15
303.15
288.249
298.576
283.15
303.15
303.15
303.15
300.728
283.15
303.15
293.934
283.171
286.966
299.956
283.15
283.15
302.609
283.15
302.457
301.434
297.843
288.83
283.15
293.904
303.38
303.15
298.627
292.298
303.15
283.15
283.306
283.15
290.032
286.1
291.643
283.15
292.863
296.568
293.056
303.147
283.15
303.15
303.15
283.169
292.722
283.15
284.319
303.133
283.15
303.15
303.15
303.15
301.817
290.516
285.997
284.191
284.315
283.15
285.7
303.15
300.727
283.15
303.15
303.15
300.667
303.15
303.15
283.151
303.15
283.15
300.666
283.15
283.15
283.15
303.15
283.15
303.15
283.15
283.665
283.15
303.126
301.843
283.744
283.15
303.084
283.15
303.15
284.71
284.672
286.119
297.509
283.15
297.47
297.583
292.287
286.812
285.268
303.15
291.754
283.15
299.849
283.15
296.771
283.15
292.075
298.572
303.151
283.15
286.792
303.15
295.487
299.071
283.15
283.15
283.15
283.15
303.15
293.665
283.15
283.15
283.238
283.15
299.802
283.15
284.797
303.15
283.434
303.121
284.637
291.897
283.15
301.449
283.15
283.15
285.693
283.15
283.255
283.15
299.655
303.15
290.656
303.15
283.15
302.378
284.469
300.072
285.657
300.07
289.464
283.15
300.616
284.549
283.15
283.14
300.329
301.582
283.15
282.45
301.055
303.063
283.118
303.15
287.569
302.165
284.405
285.391
288.199
282.552
283.15
303.15
300.601
303.15
283.548
283.15
283.15
291.756
282.676
303.149
303.117
283.15
286.277
299.571
283.15
283.15
299.584
303.15
283.15
283.15
283.15
286.158
283.15
303.15
284.824
284.222
303.15
299.678
283.15
289.248
303.15
283.15
286.155
283.15
283.15
283.15
285.371
283.15
285.446
291.952
303.15
300.346
283.448
298.695
300.935
283.317
283.458
283.15
288.961
298.424
303.15
302.258
296.032
296.858
284.716
297.422
297.173
303.15
300.237
303.136
283.15
297.126
284.829
283.15
292.361
295.704
284.85
298.75
300.616
292.321
283.15
298.889
283.469
303.15
300.575
301.96
294.072
283.15
286.491
303.15
283.15
283.15
283.15
283.301
283.15
303.15
303.15
283.15
300.398
299.231
303.15
285.622
303.15
303.15
303.15
290.016
283.419
283.15
303.15
283.15
283.15
286.807
292.367
283.15
295.121
283.136
283.15
295.296
302.217
287.775
283.15
283.15
300.234
292.075
283.15
283.15
283.15
293.978
303.15
303.15
283.15
296.223
302.376
283.15
282.397
301.773
286.53
283.15
283.15
287.451
302.965
283.15
283.159
287.266
283.755
288.777
283.15
285.691
300.297
283.15
303.15
283.15
283.15
283.15
283.15
295.653
303.15
283.15
283.15
295.268
291.799
303.15
303.15
289.848
298.408
298.306
303.15
283.15
297.981
303.15
283.828
298.808
298.33
303.15
303.15
303.15
283.15
286.059
283.15
283.15
302.701
303.15
297.801
302.274
283.15
294.037
283.256
296.419
291.959
283.418
289.776
283.15
283.15
296.867
288.045
290.828
283.15
283.15
297.828
294.962
283.15
283.907
284.59
283.476
303.15
303.15
303.15
290.734
283.15
300.041
283.15
284.375
297.58
298.496
292.248
283.15
283.15
303.15
295.355
283.15
283.15
303.097
283.15
283.15
303.15
283.15
299.31
283.15
283.15
283.15
283.15
283.15
303.15
283.15
283.172
298.757
303.15
302.53
283.131
283.4
283.095
285.515
283.15
284.452
290.515
283.4
303.15
283.149
299.725
283.15
300.24
283.146
283.144
286.201
297.477
283.206
291.869
297.976
283.15
283.15
299.048
299.79
283.15
297.341
291.263
297.54
283.15
283.244
283.15
297.853
296.974
283.15
300.053
297.622
283.149
299.758
283.15
295.637
283.144
303.124
283.162
283.16
283.15
283.15
284.423
283.15
302.97
283.588
283.064
303.148
303.149
303.147
283.15
283.15
293.78
303.15
303.18
283.871
283.15
283.15
303.154
303.15
283.15
303.165
283.15
283.15
303.15
303.15
303.15
303.15
283.363
283.15
283.15
283.15
303.157
283.305
283.889
293.432
283.15
283.15
283.336
283.15
283.15
283.15
287.235
293.583
283.15
283.15
283.15
283.15
283.15
283.15
284.009
283.15
303.15
291.566
283.15
303.15
303.15
303.153
303.15
303.15
283.15
303.171
283.15
283.697
283.144
303.152
283.15
303.063
284.396
292.071
303.15
303.128
284.447
303.15
283.15
303.15
283.15
294.023
293.468
284.64
303.148
283.15
293.234
283.15
283.15
303.15
283.15
294.831
283.15
303.15
283.163
298.149
303.15
284.377
283.15
283.577
283.15
283.15
283.15
303.15
285.849
283.47
284.253
283.15
283.15
285.636
283.15
283.15
303.15
284.327
303.164
298.543
303.15
303.127
303.128
283.15
303.131
283.15
283.442
289.146
301.006
283.802
283.167
283.15
283.15
283.15
303.183
283.15
302.903
303.15
292.729
303.15
288.727
283.825
303.15
283.15
303.15
283.15
301.79
303.15
303.15
286.409
300.555
283.15
283.15
283.15
283.15
283.15
283.15
300.809
283.58
303.15
303.15
303.157
303.15
300.188
284.419
283.15
302.112
303.15
301.626
283.15
302.568
283.15
283.148
303.152
283.312
302.111
300.227
283.147
283.15
289.347
303.15
293.369
303.15
283.15
303.15
283.15
283.15
283.15
300.807
302.052
303.15
303.15
303.15
302.9
283.15
303.15
292.88
283.084
303.15
297.508
298.297
296.476
283.375
283.15
283.15
283.15
283.15
294.62
283.15
294.873
283.15
303.058
289.844
283.15
302.858
283.15
283.15
302.739
283.148
302.919
283.15
303.15
283.15
302.389
283.15
303.15
283.15
283.148
283.15
283.171
283.15
283.15
303.15
292.985
301.088
296.12
297.012
303.15
303.116
283.15
283.15
285.693
283.15
283.158
302.843
298.773
302.943
303.15
283.359
283.15
303.15
283.15
302.994
283.318
298.291
283.15
303.15
288.097
303.15
283.15
283.125
295.095
283.147
283.15
283.15
283.149
303.15
283.15
303.142
303.15
303.15
289.943
302.988
302.995
289.013
293.247
283.15
283.15
303.09
289.083
283.15
303.15
284.728
283.15
303.15
283.15
283.15
283.15
297.472
283.15
302.941
283.15
300.503
283.15
283.15
283.15
283.15
283.15
283.15
285.014
283.15
283.15
283.15
283.15
283.15
283.15
291.996
283.15
298.358
302.935
283.15
302.323
283.15
302.516
303.145
292.298
288.792
303.15
292.164
284.783
303.109
303.15
303.139
295.052
288.675
283.15
287.894
283.15
283.15
283.15
283.15
287.519
283.15
283.15
291.648
303.136
285.318
283.15
283.15
302.518
283.15
283.184
303.15
299.887
283.15
283.15
302.822
283.15
303.178
303.15
283.15
289.057
297.955
292.71
285.663
292.543
294.125
283.15
283.15
302.288
290.597
292.77
284.409
283.15
294.37
283.15
303.15
300.737
298.718
283.15
297.409
283.15
292.766
297.206
303.15
283.15
283.15
301.777
283.15
283.15
300.504
296.131
283.196
291.227
283.15
283.15
302.798
300.522
283.15
300.641
283.15
300.496
283.15
283.15
300.801
283.15
283.227
301.594
283.15
283.15
302.429
283.15
287.92
303.15
290.414
303.15
303.15
303.15
300.948
283.15
283.15
299.534
283.15
302.992
283.15
283.15
303.15
283.151
288.209
283.15
283.15
288.071
288.251
283.15
283.677
283.15
303.15
302.416
283.726
301.567
283.15
283.15
283.15
283.15
283.15
283.15
283.15
283.15
283.15
283.15
283.15
303.15
283.15
283.15
283.15
283.15
283.15
283.15
283.15
283.15
303.15
286.961
283.15
283.15
283.15
294.697
283.15
303.15
302.902
283.15
283.15
294.703
283.15
283.15
301.825
295.18
283.15
303.653
303.594
283.15
301.507
293.951
297.54
301.469
298.123
303.15
283.15
296.369
291.771
301.412
283.15
302.143
302.413
300.865
288.045
287.322
301.052
301.776
301.779
303.15
285.865
297.53
285.533
297.234
283.15
283.15
283.15
303.15
283.15
291.984
297.901
283.15
283.15
283.15
283.15
283.15
303.15
283.15
303.15
292.132
303.116
299.009
302.84
283.15
283.15
285.412
283.167
283.15
283.15
301.696
303.15
283.15
298.139
299.498
297.509
298.642
300.798
303.15
291.044
302.585
303.15
303.15
300.321
303.15
283.15
282.982
295.554
302.949
283.15
303.15
289.599
286.157
297.131
292.183
302.397
303.15
303.137
303.15
303.15
283.15
298.936
283.15
291.801
290.457
299.683
284.77
303.15
301.922
303.15
283.15
303.15
303.15
291.497
299.567
283.15
303.15
303.133
291.78
303.031
299.337
292.804
288.328
292.908
283.15
303.15
283.15
291.24
298.291
303.151
303.15
303.15
303.15
297.474
302.556
283.15
299.955
301.13
284.863
299.503
303.15
303.15
298.673
292.96
283.15
302.904
299.738
302.606
291.972
297.295
298.241
303.15
286.989
298.165
291.338
283.15
289.057
303.15
288.4
301.057
303.15
288.714
301.279
300.128
293.168
283.149
283.159
283.238
301.647
300.919
303.15
288.824
301.481
303.15
283.15
303.15
303.21
298.751
290.807
296.772
303.253
283.149
297.537
303.15
303.15
292.785
303.15
300.304
283.305
301.318
291.532
303.15
283.663
293.207
303.15
283.051
298.668
303.15
300.686
286.257
303.15
303.15
283.997
303.15
283.15
283.15
285.918
299.247
291.176
303.15
285.225
297.478
283.15
298.834
298.869
288.977
303.098
283.15
301.503
299.618
298.834
300.076
288.665
290.782
302.481
303.15
301.553
288.722
303.15
298.845
283.15
283.15
303.15
283.15
303.15
297.435
283.15
300.518
283.633
303.15
283.792
283.15
289.846
303.15
303.144
303.15
294.161
302.994
303.118
299.87
290.417
289.449
290.593
298.426
303.15
299.397
292.166
298.934
303.15
283.874
283.452
299.254
287.174
283.512
303.15
283.15
303.15
285.331
303.15
303.324
284.69
303.353
302.955
303.15
303.15
283.15
300.549
300.629
285.496
303.086
287.006
295.666
301.876
292.498
288.157
302.08
296.094
283.15
283.15
303.15
285.817
289.707
283.15
283.15
303.15
301.988
288.677
303.15
296.386
303.15
283.155
285.191
301.087
303.15
303.15
292.277
303.15
283.301
290.623
283.15
297.141
294.639
296.083
303.15
302.711
283.15
302.663
293.415
303.15
303.15
288.798
283.15
303.15
301.801
284.441
303.15
303.15
283.15
302.348
303.467
289.502
299.698
298.031
303.15
303.159
302.606
303.15
283.15
303.15
303.15
303.15
303.15
303.15
303.15
303.15
283.15
303.15
303.15
283.341
303.15
303.337
303.15
303.16
303.15
303.15
300.941
303.679
303.15
292.025
303.15
303.15
283.15
302.557
303.15
302.129
303.114
283.289
283.15
303.15
302.924
283.149
303.15
303.15
291.373
283.15
292.594
283.15
283.15
283.153
291.219
284.845
303.15
296.657
283.15
303.74
303.134
284.318
302.593
283.15
292.171
303.084
301.681
283.15
303.15
283.15
304.096
284.824
296.882
303.15
303.15
303.15
303.15
303.15
303.15
302.345
302.807
297.623
292.02
303.15
287.138
292.644
284.98
303.206
283.15
286.92
302.751
284.777
283.148
287.487
303.15
283.382
302.917
292.534
302.844
301.906
303.15
302.226
303.15
303.15
297.929
303.15
284.472
303.15
303.15
283.15
303.15
303.15
302.843
303.15
283.297
283.15
283.15
285.812
284.911
300.902
286.098
303.15
294.727
303.15
290.462
303.15
287.147
300.683
301.483
293.36
303.15
303.15
303.15
289.814
283.15
303.15
289.567
283.15
283.15
301.823
303.15
286.198
283.148
283.15
303.15
303.15
300.657
298.186
303.15
293.429
303.038
283.15
298.566
303.15
286.421
288.241
302.145
303.15
296.289
296.743
302.953
301.881
301.659
303.15
303.15
303.147
303.15
283.15
303.15
289.571
300.065
294.339
302.131
283.15
300.362
291.401
298.219
283.603
298.325
289.603
302.163
283.15
283.15
283.15
302.209
283.15
290.483
283.15
301.265
303.161
289.725
298.049
283.15
303.15
301.253
301.232
303.15
283.15
303.15
286.437
301.442
302.977
302.337
298.013
288.448
303.15
303.15
303.15
294.243
285.967
289.8
295.877
283.959
302.955
303.15
303.15
283.15
283.15
285.426
299.582
303.15
303.15
283.15
303.15
303.15
303.15
300.257
303.15
285.363
292.499
283.15
283.248
293.367
285.702
303.15
303.15
301.886
303.15
299.234
283.146
297.575
303.15
303.15
283.15
303.15
303.15
303.15
305.224
303.15
301.839
301.117
303.15
303.15
301.619
303.15
283.15
287.253
303.105
303.15
303.15
303.15
297.926
303.15
303.15
302.477
302.488
301.778
303.15
283.15
303.15
302.044
302.509
301.526
302.531
283.15
300.65
287.5
297.453
283.15
303.15
303.15
303.15
303.15
294.373
287.573
299.656
303.15
303.15
303.15
303.15
283.15
303.148
284.774
285.151
283.15
303.15
303.15
283.148
299.595
294.954
283.15
303.15
303.15
303.15
303.15
289.618
289.676
303.15
303.15
302.397
303.15
301.446
283.952
291.899
303.15
283.15
301.165
303.124
303.15
303.087
301.322
286.829
303.15
303.15
303.15
303.15
293.293
284.149
303.15
302.695
298.064
289.461
303.15
303.15
303.15
303.15
299.538
303.151
303.15
303.15
298.258
302.585
288.351
303.15
303.15
297.747
303.15
303.15
303.15
303.15
288.818
303.15
283.15
283.15
295.938
291.101
303.15
303.15
303.15
296.995
303.146
303.15
303.15
303.15
303.15
303.41
300.881
303.15
287.344
302.643
299.386
303.15
303.15
303.15
303.15
283.15
285.661
303.15
302.844
283.15
302.179
303.15
303.134
303.15
283.15
301.921
285.727
283.15
302.826
303.15
302.419
283.15
303.15
303.15
303.151
303.15
283.27
303.15
290.859
283.15
283.15
303.15
303.15
298.83
302.382
283.15
302.417
283.15
284.096
288
302.705
283.15
303.155
302.988
303.134
284.396
283.156
302.983
283.15
283.15
283.156
302.076
302.292
303.15
283.15
283.15
295.381
303.15
283.15
303.15
303.15
303.15
303.108
303.046
302.931
302.45
303.15
302.905
303.15
284.823
303.15
303.15
283.15
303.15
303.11
303.15
283.15
303.15
288.327
303.15
303.15
303.167
283.15
302.861
302.098
296.702
303.15
289.352
294.556
283.812
289.992
283.15
283.15
287.222
284.322
283.15
303.812
283.15
286.423
303.15
283.15
303.156
303.15
303.15
303.013
303.155
303.15
283.15
303.138
303.15
283.15
283.105
298.745
302.703
303.15
301.849
303.15
285.714
303.152
301.186
303.15
303.15
301.05
303.15
303.15
303.15
287.703
303.15
285.152
303.15
303.147
303.15
283.15
283.15
303.15
303.15
303.15
288.722
302.551
303.15
303.15
288.592
286.511
291.233
303.15
302.702
287.684
287.537
303.15
303.15
287.697
283.15
291.909
303.15
303.152
303.149
303.15
300.525
283.15
302.303
283.15
303.15
303.15
303.15
303.15
303.15
284.333
302.25
291.047
303.15
303.15
290.579
303.15
303.15
303.15
303.15
303.15
300.153
303.15
303.15
283.15
299.458
303.15
283.15
303.15
301.372
283.15
299.961
290.723
302.686
300.023
299.439
303.15
303.15
303.15
300.829
288.484
283.15
303.15
300.319
303.15
303.15
291.974
303.15
287.491
303.15
297.828
284.319
303.15
283.15
303.15
303.15
303.15
285.252
303.15
300.491
303.15
303.15
299.701
283.15
284.754
303.15
303.15
288.116
301.536
296.42
303.15
303.15
303.15
301.554
292.272
303.15
283.15
303.15
300.668
303.15
284.776
296.3
303.15
303.15
301.137
303.15
303.15
283.15
303.15
283.15
294.564
303.15
283.15
303.15
303.15
303.15
303.15
303.15
303.15
283.15
301.502
283.15
302.079
303.15
303.15
296.075
300.477
303.15
283.15
303.15
300.882
283.15
303.15
303.15
303.15
300.732
303.15
297.67
303.15
285.834
283.15
286.736
303.15
303.15
298.496
283.15
303.15
287.857
283.245
303.15
303.15
285.081
283.848
300.852
301.732
301.186
293.149
301.738
283.848
303.15
297.709
283.15
283.15
303.15
303.15
303.15
301.207
303.15
303.15
303.15
303.13
283.169
283.15
283.558
303.15
302.017
283.15
303.142
296.102
283.15
294.584
303.15
303.15
283.15
299.887
283.928
303.15
283.15
299.913
303.15
297.649
303.15
295.301
303.15
283.15
303.15
283.15
299.421
283.15
283.226
283.15
286.203
303.15
303.15
283.15
283.15
303.15
303.15
303.15
303.15
284.88
284.743
283.15
303.15
283.233
283.15
283.15
303.154
289.866
283.537
283.15
301.499
284.874
300.463
288.175
303.15
303.15
303.15
303.15
283.15
283.15
283.15
303.15
283.15
283.15
303.15
283.15
297.271
283.15
303.15
283.15
303.15
303.15
283.323
283.15
303.15
301.945
303.149
303.15
303.15
303.15
288.728
283.15
303.15
303.149
283.15
303.15
303.15
303.15
295.233
283.15
283.181
303.15
303.15
303.15
303.15
303.15
303.149
303.147
284.102
303.15
283.15
303.15
303.149
303.15
303.148
303.149
283.15
283.15
283.15
303.15
303.15
283.15
303.149
283.15
287.706
283.15
301.813
283.15
303.154
303.15
284.609
283.15
284.452
297.38
303.15
284.693
303.173
303.15
297.388
283.15
303.15
303.15
303.15
303.15
283.15
303.15
303.15
299.154
283.15
303.15
303.15
303.15
303.15
292.323
290.39
303.17
283.165
303.15
301.811
302.313
303.15
283.15
283.15
303.15
303.15
303.15
283.15
283.15
283.822
303.15
303.15
303.196
303.151
283.15
288.855
303.15
283.15
303.15
288.075
303.15
283.15
302.118
283.15
283.15
283.15
303.15
299.678
303.15
303.15
303.15
283.15
284.504
293.591
295.217
289.544
303.12
303.018
283.15
283.15
301.02
283.693
283.15
303.149
303.15
303.15
283.15
294.545
303.15
283.15
302.979
303.15
303.15
283.795
303.15
303.15
288.407
289.552
303.15
283.15
303.15
283.15
303.15
303.15
303.15
303.15
283.947
303.15
303.15
303.15
302.928
303.15
303.15
283.15
283.15
283.15
283.15
302.941
283.15
283.15
300.963
303.15
284.77
284.93
303.15
301.121
303.15
283.15
303.15
283.15
283.15
303.15
303.15
303.15
302.661
303.15
303.15
303.15
283.15
303.15
283.15
286.369
303.15
303.15
291.623
303.15
283.15
283.15
302.416
303.15
303.147
283.15
303.193
286.659
283.15
283.15
299.2
283.15
283.15
303.047
303.161
293.329
303.167
303.151
303.152
283.15
283.15
302.644
283.453
285.831
300.84
283.157
283.15
291.047
301.563
301.46
283.15
300.21
290.699
300.14
302.202
302.746
284.684
295.477
299.205
286.259
293.299
300.098
303.15
297.953
297.564
302.788
283.66
292.354
301.139
287.335
303.15
301.051
303.15
300.717
301.492
283.633
284.976
303.15
283.15
302.277
301.685
283.146
303.173
288.554
302.675
301.837
300.822
303.15
303.231
301.123
295.072
300.422
288.957
302.91
301.628
302.187
302.269
284.213
302.501
301.59
283.179
303.15
302.894
303.15
303.15
302.095
302.001
294.268
303.15
284.667
292.31
292.336
300.924
303.15
284.012
285.191
284.39
303.15
298.77
303.15
296.368
295.378
300.75
303.142
303.15
303.15
301.941
301.258
302.783
303.15
292.617
302.743
289.955
283.15
298.345
293.995
303.15
300.505
283.15
283.203
283.15
302.573
303.098
303.15
302.98
298.384
283.148
300.495
302.219
295.328
283.536
295.853
297.065
283.461
303.133
284.735
296.318
283.319
296.855
300.5
300.245
300.35
302.001
289.83
301.572
303.15
302.717
302.647
302.649
296.497
302.882
283.15
302.012
293.433
303.15
283.434
286.842
301.191
302.597
290.527
284.823
287.706
302.622
296.383
303.15
303.15
295.017
283.15
292.689
283.431
303.15
290.567
290.315
283.913
303.15
297.288
298.489
284.225
301.235
294.175
290.18
300.534
303.107
303.15
303.15
283.531
302.61
283.349
285.792
303.15
303.017
303.036
303.15
285.418
300.791
297.843
283.246
299.566
302.371
300.508
286.899
283.15
303.106
301.817
283.737
283.138
303.15
303.072
303.15
303.15
284.178
302.527
296.369
283.035
283.153
303.15
283.15
302.949
303.043
302.5
301.405
303.15
283.15
283.15
301.815
301.871
283.214
295.874
303.15
303.15
301.612
285.491
283.259
301.675
301.776
301.725
284.407
303.15
283.15
298.456
297.758
303.15
302.702
302.081
284.715
284.972
302.111
303.053
303.15
298.132
284.434
283.15
303.15
300.578
301.213
302.014
289.617
302.072
285.656
300.138
300.271
290.345
297.53
303.15
303.15
300.933
284.462
302.091
283.151
300.503
301.707
283.623
288.306
302.42
283.15
283.15
283.029
303.15
303.15
299.935
298.941
302.286
283.147
283.15
283.936
283.151
283.15
283.152
303.075
300.929
299.174
295.883
283.368
303.097
300.135
303.15
283.15
302.557
289.235
300.778
292.705
283.504
303.06
283.148
283.15
302.836
301.204
302.614
283.156
291.296
284.872
303.15
284.26
301.038
283.15
283.31
284.939
284.178
283.15
283.15
301.632
283.15
289.38
302.527
302.704
301.778
283.481
298.336
290.05
283.15
303.344
292.101
283.15
283.15
283.15
303.15
301.202
302.413
299.172
301.467
299.918
288.858
283.155
290.996
290.165
303.059
291.094
299.984
292.071
283.15
286.292
301.083
301.539
283.15
283.978
299.637
283.15
303.15
283.188
301.279
303.15
284.02
302.258
303.02
303.15
283.15
292.803
303.153
301.692
283.15
283.15
283.15
302.196
297.577
303.143
302.194
303.166
303.15
288.384
303.166
290.447
300.227
300.187
296.591
283.157
301.7
283.15
290.6
301.411
289.463
290.495
298.981
300.692
301.597
287.181
291.148
285.024
283.172
302.217
286.131
283.149
283.144
300.21
283.079
300.301
287.004
296.061
299.433
289.212
299.275
283.121
299.137
283.15
290.008
289.101
298.666
283.33
283.15
300.573
283.15
302.8
283.15
303.15
286.494
286.491
283.15
298.99
298.559
287.053
303.15
303.15
301.732
289.797
303
283.727
301.577
287.098
303.147
284.194
288.211
303.15
301.426
283.15
283.15
287.568
287.032
283.145
285.253
301.496
286.249
301.174
303.15
285.118
301.746
291.198
303.15
303.15
301.618
302.046
303.15
293.034
294.287
283.681
296.398
286.796
290.027
303.15
302.786
297.014
285.023
283.15
287.729
291.918
299.653
283.163
283.75
282.943
301.949
303.117
283.151
303.134
303.15
300.569
293.078
298.813
293.847
283.15
291.947
295.995
285.601
283.211
291.638
283.15
300.265
303.164
292.557
284.1
303.144
291.862
298.616
288.245
300.352
291.335
287.332
283.15
303.142
285.35
289.901
293.489
283.15
283.15
283.15
303.141
283.15
283.137
286.437
303.15
283.15
303.167
283.172
291.116
289.002
303.522
302.912
289.872
303.15
296.98
303.176
302.001
287.271
283.15
292.925
303.145
303.094
286.194
283.15
283.15
283.475
286.029
303.054
303.144
287.515
289.482
283.482
283.162
289.862
293.221
303.15
283.15
303.096
303.15
302.331
285.02
302.337
303.093
284.059
283.772
284.038
302.851
302.181
297.396
293.986
303.07
291.288
291.038
303.15
303.098
302.584
285.441
283.378
303.15
285.947
283.385
302.931
301.665
302.174
283.15
300.33
301.847
303.15
302.154
285.412
303.15
297.896
303.15
283.15
300.677
302.684
286.341
302.488
283.15
285.17
303.011
283.15
302.307
285.379
294.883
284.341
303.15
303.017
302.872
286.51
283.15
287.128
284.253
289.792
285.733
302.25
303.15
283.15
283.15
293.133
283.15
301.046
302.161
290.367
283.15
294.027
283.15
303.15
283.15
300.054
298.558
283.151
285.278
301.721
303.075
303.156
291.849
294.197
301.2
283.209
301.796
283.145
303.15
303.141
299.082
283.15
300.899
294.766
303.15
300.944
287.315
301.947
284.9
288.204
283.15
302.22
287.738
298.41
303.075
283.15
303.15
291.642
302.16
283.077
283.147
286.749
298.336
303.149
284.493
301.025
300.997
301.251
303.153
299.884
287.652
284.926
301.579
299.888
283.727
283.103
303.16
303.149
303.15
297.336
283.163
283.15
303.15
303.149
289.91
298.904
300.271
287.786
302.8
303.15
286.43
301.55
303.15
300.952
283.798
301.451
303.15
284.54
301.378
295.503
302.764
303.15
303.15
285.175
295.048
296.356
287.382
303.15
303.15
283.15
287.214
302.4
296.146
303.15
285.552
303.15
303.15
300.446
288.715
283.15
295.532
295.857
299.06
283.15
303.15
292.666
287.221
303.15
297.934
300.488
300.395
303.15
303.15
303.15
300.202
298.305
302.798
299.871
283.15
292.873
287.67
290.587
300.56
303.15
303.15
300.74
303.097
286.557
296.083
303.15
303.147
283.15
286.434
298.906
285.578
303.15
303.15
283.341
303.122
303.15
303.15
283.15
290.512
303.15
303.15
284.573
299.27
283.15
303.15
284.619
301.315
300.153
286.984
294.924
303.15
283.494
303.15
303.15
283.311
300.517
290.381
300.383
303.15
303.129
302.174
292.637
299.783
301.349
284.448
283.453
300.828
298.367
303.15
302.747
284.128
299.709
301.364
287.683
303.15
297.402
301.393
301.48
301.519
292.875
303.15
283.15
299.172
283.15
283.15
287.743
283.15
284.004
283.15
283.15
283.15
283.15
302.752
288.134
302.699
283.15
295.665
290.923
284.729
283.15
303.15
302.674
301.731
303.163
302.632
283.15
294.783
300.247
290.155
283.15
283.15
299.802
285.929
283.15
283.15
303.149
290.558
283.15
287.132
303.149
303.152
284.311
283.15
288.183
292.453
300.781
294.575
302.956
285.618
302.496
295.228
286.262
283.15
283.535
291.607
303.074
289.111
302.652
283.15
292.352
287.739
301.011
301.245
284.882
303.105
284.896
297.044
302.982
303.147
285.126
303.145
303.003
293.285
302.671
283.15
303.15
303.15
294.742
291.026
283.155
301.088
284.677
284.148
284.61
303.145
288.338
300.441
283.15
283.15
302.501
303.15
294.542
302.899
303.182
299.798
303.222
302.881
283.15
301.273
302.877
283.15
303.15
301.299
303.15
284.301
298.744
283.163
291.508
283.15
287.569
303.012
299.727
283.15
303.023
290.888
301.181
303.126
303.078
283.15
283.15
301.924
301.989
283.796
302.807
302.41
302.365
303.141
283.15
293.686
283.15
302.784
287.852
302.986
303.15
283.15
302.818
285.107
291.458
302.034
283.15
302.578
301.982
301.553
302.479
303.045
303.21
303.009
303.15
283.15
301.502
297.794
303.087
303.15
289.901
284.891
303.15
283.15
285.296
303.184
303.165
302.916
301.121
284.256
303.097
290.639
294.193
303.148
289.022
303.164
283.15
289.811
283.15
299.938
298.1
284.766
288.157
299.594
296.629
295.26
299.145
293.738
303.153
293.796
296.357
283.159
299.357
293.826
303.15
298.874
299.112
303.15
291.15
303.171
301.664
303.15
286.908
285.979
302.797
289.645
283.15
283.15
300.336
301.116
283.715
283.15
303.15
300.205
302.312
300.592
299.84
302.782
292.548
289.611
286.619
292.46
284.3
290.371
283.304
295.665
290.403
293.887
287.064
284.278
303.163
283.271
303.147
285.586
300.7
283.151
300.37
298.358
288.719
302.088
285.389
299.048
283.15
302.95
283.154
283.116
287.659
299.636
303.15
300.328
303.017
299.9
302.757
303.15
301.241
284.946
294.886
302.037
303.149
283.705
283.15
290.268
285.232
285.741
303.13
303.148
283.15
283.15
283.176
303.15
293.417
303.15
303.149
294.289
303.434
303.15
300.399
303.15
303.15
293.621
290.58
303.15
289.807
302.046
289.532
303.15
303.15
285.934
283.333
290.29
303.225
303.15
303.145
285.46
283.245
283.15
288.957
287.577
303.15
284.299
303.15
303.15
303.132
287.311
303.15
303.147
283.276
303.152
302.658
287.892
283.152
283.596
297.292
290.7
303.15
285.9
284.42
301.31
287.092
302.203
290.558
293.825
303.15
303.15
284.005
303.148
302.944
295.835
302.94
302.737
287.154
283.15
285.304
283.218
297.091
302.581
285.362
303.15
283.791
286.697
303.125
283.175
303.15
286.369
283.15
300.097
303.15
299.7
299.871
283.295
283.358
302.318
290.806
301.312
303.15
301.38
301.731
303.15
303.15
298.304
293.382
283.15
288.75
303.15
295.183
283.356
303.15
296.863
298.674
288.96
303.15
302.754
294.169
295.33
284.458
303.161
298.642
296.078
283.976
303.123
302.798
287.351
298.395
289.79
290.77
289.713
283.15
302.941
303.152
303.15
303.174
293.043
296.265
302.974
301.274
303.15
284.443
303.15
303.04
302.855
303.15
293.512
296.196
303.15
285.367
303.095
303.15
303.089
303.158
286.051
293.287
291.083
288.38
293.367
303.15
301.188
291.385
295.323
293.41
303.141
303.15
300.535
303.189
284.236
303.19
303.15
303.15
303.143
303.15
284.932
303.15
284.218
303.146
303.15
290.197
303.144
292.43
295.481
303.133
295.279
285.977
283.444
303.125
302.933
284.669
283.15
297.073
303.15
285.494
302.911
302.026
303.017
298.38
287.041
303.15
298.657
289.876
299.321
283.15
283.612
303.15
303.145
303.19
294.028
303.15
292.398
289.314
303.195
303.15
284.784
298.721
293.178
299.551
302.467
301.574
300.356
303.15
284.71
296.907
302.358
285.575
298.31
292.252
284.461
291.604
303.15
286.635
291.784
290.103
299.406
303.15
286.437
284.083
303.15
302.418
288.118
302.092
283.15
303.15
299.799
301.68
288.967
301.971
301.897
301.796
303.15
289.289
285.121
301.949
302.226
297.107
303.15
283.201
303.15
301.972
303.15
302.796
303.15
291.636
303.15
296.47
283.15
289.421
303.15
283.15
292.158
301.421
300.382
289.173
300.462
303.15
302.486
303.15
302.361
285.195
303.15
300.369
290.37
303.15
300.775
303.15
303.15
293.152
283.15
285.533
293.191
300.894
303.15
291.132
293.818
288.156
289.632
288.09
299.19
300.234
300.766
287.354
287.082