/*--------------------------------*- C++ -*----------------------------------*\
  =========                 |
  \\      /  F ield         | OpenFOAM: The Open Source CFD Toolbox
   \\    /   O peration     | Website:  https://openfoam.org
    \\  /    A nd           | Version:  10
     \\/     M anipulation  |
\*---------------------------------------------------------------------------*/
FoamFile
{
    format      ascii;
    class       volVectorField;
    location    "7.9";
    object      U;
}
// * * * * * * * * * * * * * * * * * * * * * * * * * * * * * * * * * * * * * //

dimensions      [0 1 -1 0 0 0 0];

internalField   nonuniform List<vector> 
111485
(
(2.9048 -2.90533 0.00320684)
(8.48559 -0.0224155 -0.0492909)
(8.36153 0.0200706 0.0260362)
(2.90554 -2.90628 0.000250831)
(8.68701 0.0382558 -0.00324786)
(3.04467 3.043 0.000230016)
(8.53839 0.0252014 0.00199141)
(8.77018 -0.0247611 0.0121564)
(8.54212 -0.00494655 0.00618752)
(8.74237 -0.0947576 -0.0407692)
(8.41151 0.0206371 0.025084)
(8.8002 -0.0216977 0.0408828)
(8.289 0.00706092 0.018691)
(8.37192 -0.0175479 -0.0607579)
(8.48651 0.0335795 0.0178306)
(8.66557 -0.0581615 -0.0469253)
(8.53032 -0.00926667 0.0126706)
(2.99604 -0.223151 0.446369)
(8.70979 0.0250719 -0.019251)
(2.88478 -2.88089 -0.00148626)
(2.88996 -2.88953 -0.00336344)
(3.05225 3.05128 -0.000240996)
(8.61452 0.0298219 -0.00915947)
(8.74931 -0.0586557 -0.017363)
(8.57143 0.0333329 -0.0101505)
(2.92839 -2.91515 -0.00281954)
(8.84073 -0.0428834 0.0458442)
(8.36688 -0.0128042 0.00321936)
(8.73559 0.0151772 -0.019825)
(2.89516 -2.89634 0.000128288)
(8.80451 0.144177 -0.0376925)
(8.69714 -0.0192182 0.0025162)
(2.88286 -2.8891 0.00426917)
(3.04863 3.05487 -0.00748598)
(3.05746 1.27739 0.490353)
(3.06765 3.08815 -0.0448531)
(8.76206 0.144207 -0.0579872)
(8.47616 0.0310553 0.0742495)
(8.73047 2.64007 0.146999)
(8.7004 0.0423848 0.00344527)
(3.0112 3.03855 -0.0212532)
(8.79633 0.0102673 -0.0506853)
(8.69121 0.0441431 0.0151814)
(8.38429 -0.0508792 0.00143339)
(8.76769 -0.154006 -0.0791603)
(2.91305 -2.89152 0.0152244)
(8.7957 -0.0407251 0.0416809)
(8.73691 -0.0543579 -0.0166243)
(8.7969 0.00413613 -0.0381996)
(2.8887 -2.85426 0.0162222)
(2.87403 -2.84609 0.0186222)
(3.46605 2.91629 0.0505516)
(2.8641 -2.85307 0.00938572)
(8.78214 0.0397274 -0.0737588)
(2.85699 -2.84512 0.0010097)
(8.68159 0.0231208 -0.00785475)
(8.68498 -0.0370209 -0.0178459)
(3.05219 3.04631 0.00174382)
(7.92049 -0.01784 -0.139398)
(8.72464 0.0356739 -0.00512841)
(8.72315 0.0396344 -0.0036414)
(2.89596 -2.90164 0.00370993)
(8.08833 0.00862788 0.0535893)
(8.82546 -0.0227495 0.0690698)
(3.14716 2.85267 0.00465962)
(7.95973 0.0181878 -0.0153589)
(6.11991 -0.486715 0.216891)
(8.7521 -0.0321298 0.0123305)
(7.89376 0.00359011 0.0233369)
(7.4665 -0.0149201 0.00386376)
(8.44283 0.05177 -0.0431466)
(7.83177 -0.00849261 0.0267631)
(3.13606 -2.82365 -0.0652613)
(8.00096 0.0149551 0.0626834)
(2.90214 -2.90114 -5.99513e-05)
(8.70937 -0.020281 0.00959863)
(3.0514 3.05142 -0.000575491)
(8.78648 -0.0190367 0.0464922)
(3.05048 3.04866 -0.000417355)
(2.74726 2.68049 -0.0911313)
(8.4681 -0.130373 0.0883316)
(8.74514 0.0346355 0.00702697)
(3.04012 3.03288 -0.000202505)
(2.90259 -2.90272 0.00163141)
(8.23604 -0.00190718 0.0158373)
(7.89444 0.021728 -0.0324814)
(6.78096 4.40263 -1.18189)
(8.66548 0.102491 0.00945995)
(8.34867 0.215156 0.184182)
(8.45358 0.0108229 0.0254699)
(8.9409 0.178508 -0.113938)
(8.69571 -0.0150231 0.014225)
(8.13383 -0.013327 0.0320683)
(8.26962 -0.00975435 0.00836103)
(8.80678 0.0267657 -0.055206)
(2.9025 -2.90211 -0.000685827)
(2.89746 -2.8966 0.00161012)
(8.66217 0.09568 0.029902)
(8.92216 -1.76763 0.125138)
(8.11459 0.0299352 0.0531025)
(2.9025 -2.90302 0.00136698)
(8.711 -0.0472652 0.00479472)
(3.06453 3.06965 0.0168076)
(8.63956 0.000561431 -0.00479228)
(8.56316 -0.0443433 -0.0550161)
(2.9937 2.67786 -0.0630412)
(3.0512 3.05014 -0.00055717)
(8.70434 -0.023552 -0.00228168)
(8.0428 -0.0443015 0.0101353)
(7.70858 -0.2292 -0.244267)
(8.23261 -0.00684544 0.0169939)
(8.64788 0.0123442 -0.00476478)
(8.06623 -0.00488715 0.032636)
(7.94071 -0.0416379 0.0177147)
(2.93043 -2.91458 0.00235499)
(7.63737 -0.00702055 0.0231414)
(2.91386 -2.90469 -0.00341711)
(3.06492 3.0519 0.0126669)
(8.50096 0.0324364 0.0250611)
(2.90473 -2.9027 0.00104363)
(2.92962 -2.91392 -0.00142207)
(4.01223 3.15739 0.187429)
(3.01935 3.03205 -0.00571488)
(3.05771 3.05041 -0.00725046)
(8.30774 -0.0207171 0.0403509)
(2.31875 -1.62918 -0.433692)
(3.82531 3.29058 0.11593)
(7.71325 -0.00210607 0.0376081)
(2.90217 -2.90099 -0.0010209)
(8.74869 0.655639 -0.23689)
(8.73376 0.169421 -0.0874194)
(8.64634 0.0982046 0.0293534)
(2.88938 -2.8821 -0.0142365)
(3.92935 3.41737 0.35245)
(3.66701 3.27194 0.154504)
(8.73238 0.0262434 -0.0160948)
(3.05351 3.05325 -0.000907136)
(8.66714 0.0205933 0.00113142)
(8.61102 0.0399856 0.0236522)
(8.46528 0.0384616 0.0364176)
(6.63467 0.000703418 0.0277162)
(8.67996 0.0449419 0.0105408)
(8.60646 0.044454 0.0281146)
(8.20386 0.0086317 -0.0341222)
(8.57574 -0.0164406 0.00836096)
(8.48031 -0.00444289 0.0212611)
(3.05417 3.05445 -0.00062933)
(2.90245 -2.90374 0.000281817)
(3.0457 3.04738 0.00635317)
(8.68418 0.0384663 0.00683193)
(8.20795 0.0144407 -0.0309198)
(2.89195 -2.89049 0.00178033)
(5.66909 -0.0332514 0.0572247)
(8.46709 0.040957 0.0194799)
(9.27488 0.373625 0.163024)
(8.73116 0.0258931 -0.0169015)
(8.69159 0.0268374 -0.00662623)
(8.05501 0.00273702 -0.0158796)
(9.361 0.457433 0.112494)
(2.88636 -2.91358 0.0112444)
(2.90047 -2.90313 0.00280905)
(8.71631 0.024946 -0.0166731)
(8.53918 -0.0303914 -0.031519)
(9.42267 0.515493 0.122523)
(9.29382 0.451164 0.168644)
(8.08252 0.0119542 0.041405)
(8.69706 0.108429 -0.0393519)
(3.01329 3.03849 0.0005087)
(9.53339 0.637935 0.151687)
(9.0945 0.458299 0.140237)
(3.04916 3.05103 0.000899064)
(2.89711 -2.89648 0.000249113)
(6.93785 0.00817006 -0.0551788)
(3.05242 3.05379 0.000377187)
(8.65168 -0.0187359 -0.00355523)
(8.32568 0.00445542 -0.0191539)
(3.05167 2.97854 -0.0167669)
(3.13896 -2.88106 0.0313755)
(2.89619 -2.88168 -0.00467679)
(3.00767 2.84058 -0.0294401)
(3.1552 -2.90475 0.0510505)
(2.9001 -2.90194 0.00264528)
(8.66297 0.0335826 0.00900607)
(8.67813 0.0204897 -0.0162781)
(8.64707 0.026612 -0.00899003)
(8.5369 -0.0254432 0.0306635)
(8.22797 -0.02046 0.00674602)
(8.25698 0.0145826 0.0261813)
(7.32462 0.0951248 0.0100538)
(2.89714 -2.88716 -0.000249526)
(7.99622 0.00122509 0.0102163)
(3.13132 -2.90428 0.0317608)
(2.92361 -2.92868 -0.00146633)
(8.32504 0.016524 0.0297133)
(8.74639 -0.105612 -0.0386587)
(8.66297 0.0163887 -0.040038)
(8.31762 -0.00963691 0.0107824)
(8.46946 -0.00607089 0.00974093)
(2.89699 -2.89232 0.0072093)
(8.30706 -0.0373543 0.00664788)
(8.28353 -0.00865618 -0.0520794)
(5.80401 1.85709 0.240815)
(8.49102 -0.068503 0.00554285)
(8.61178 -0.0142382 0.00804969)
(2.91091 -2.89457 -0.00469376)
(8.29011 0.0214402 0.0299259)
(8.70247 0.0205023 -0.00714741)
(3.18516 -2.87104 0.0145501)
(8.35109 0.0211726 0.0317832)
(8.7657 -0.00698715 0.044906)
(8.2036 0.00924625 -0.0354811)
(8.26586 0.0232071 0.0393501)
(3.15222 -2.91417 0.0411993)
(2.89545 -2.89568 -0.000813588)
(8.26356 0.0248155 0.0420596)
(5.423 3.40565 -0.335667)
(8.86617 0.0388548 -0.0866735)
(3.05093 3.05192 -0.00182437)
(8.31539 0.0172696 0.0334133)
(8.32108 0.00564193 0.00455758)
(8.81694 -0.0280806 0.0551229)
(2.90456 -2.90324 0.00114665)
(7.76388 -0.0026842 0.020956)
(8.71149 0.125452 0.0654899)
(4.79349 3.22192 -0.351168)
(3.05251 3.05302 -0.00223679)
(3.04926 3.0509 0.000852418)
(8.90749 -0.0572337 0.0849426)
(8.31771 0.197145 -0.0238982)
(3.20643 2.70894 -0.0623692)
(3.60143 -2.78925 0.113585)
(8.34686 0.00825427 0.0147815)
(8.61873 0.0149625 -0.00103007)
(8.70375 0.0192452 0.00813119)
(3.16015 2.75251 -0.081105)
(3.06374 -2.81872 -0.0101488)
(8.38133 0.100269 -0.11936)
(2.90179 -2.90163 0.00173822)
(7.94781 0.0104067 -0.0506059)
(8.25426 0.0053923 0.0346279)
(8.34393 0.00403517 0.0186547)
(8.35448 0.0172083 0.0215121)
(8.38821 0.00932136 0.0283301)
(3.04092 3.04155 0.00944327)
(6.31606 -0.0192236 -0.244192)
(8.48766 0.0194295 0.0331501)
(3.03622 3.04145 -0.00372306)
(3.05119 3.05302 0.000382735)
(8.84586 -0.107302 -0.0104758)
(8.64405 0.0390982 -0.0129788)
(3.12371 2.6628 -0.0830584)
(7.87135 -0.00368178 0.0235538)
(8.47065 0.0242017 0.0223303)
(2.9041 -2.9027 -0.000895599)
(3.83717 3.64956 -0.0181389)
(8.70425 0.0803021 -0.0353548)
(2.91533 -2.87732 0.00157876)
(3.22654 -2.28755 -0.0544677)
(4.43703 -1.54839 -0.156637)
(2.9072 -2.899 -0.00148013)
(8.52061 -0.0153091 -0.0164972)
(8.28372 -0.0133767 -0.0162862)
(8.62662 0.013637 -0.0209926)
(2.90049 -2.90094 -0.000223761)
(8.53879 0.0241687 0.0201716)
(2.90551 -2.90624 0.000189724)
(2.90475 -2.90574 0.000689831)
(2.89689 -2.8856 0.00478064)
(5.82869 0.0223962 -0.0903333)
(8.76984 -0.0423215 0.0490906)
(8.3474 0.0311331 0.0433924)
(8.50619 0.0285185 0.0136939)
(8.80125 -0.0507737 -0.00198951)
(8.46633 0.0128417 0.0144656)
(8.67823 0.0316627 0.0110517)
(8.74156 0.148845 -0.0144218)
(8.55479 0.0101938 -0.00418958)
(8.62843 0.0150991 -0.00440404)
(3.10389 3.05442 -0.00172517)
(2.89313 -2.89329 -0.003772)
(5.32706 0.0330003 -0.129158)
(8.67702 -0.019537 0.00235873)
(8.74729 0.0666555 0.0712189)
(8.25879 -0.0108553 -0.0135407)
(2.90515 -2.90345 0.000786175)
(8.63236 0.0275559 0.0160918)
(8.66808 0.04431 0.0213247)
(8.49303 0.0194655 0.0107978)
(7.46777 -0.00774819 -0.0403627)
(7.82939 -0.091558 -0.196011)
(8.6184 0.0268918 0.0100298)
(8.48218 0.0240308 0.0151351)
(8.63748 0.0669735 -0.0424763)
(3.05153 3.05182 0.000446357)
(7.9245 0.0442896 -0.00269252)
(3.05046 3.05081 -0.000950322)
(2.47713 1.88561 -0.395105)
(3.27246 -2.0929 -0.212969)
(8.97727 -0.0836641 0.114481)
(8.8038 -0.0508421 -0.0016608)
(8.59499 -0.0033857 0.00169981)
(2.90711 -2.89958 -0.000906475)
(3.03827 3.05606 0.0251435)
(8.62183 0.0296877 0.0145432)
(8.25401 0.0182098 -0.0115876)
(2.89369 -2.8929 0.000807262)
(2.90523 -2.90308 0.00239626)
(2.8384 -2.8548 0.0184189)
(8.18932 0.0112943 -0.00455008)
(8.58959 0.00938413 -0.00903903)
(8.19766 0.00175979 0.0302219)
(7.93158 0.0137466 -0.0424683)
(8.75668 0.0200742 -0.0206854)
(3.49467 2.99987 0.0832685)
(3.045 3.05232 0.00553326)
(2.9019 -2.89829 -0.0013412)
(8.58787 0.0320653 0.0224408)
(5.56872 -4.71667 -0.339349)
(8.18036 -0.00979986 0.0116607)
(8.91318 -0.062258 0.196365)
(7.17793 0.00540807 -0.149046)
(3.05267 3.05217 -0.000273174)
(2.90017 -2.90341 0.00207702)
(2.90502 -2.90617 -0.00145396)
(3.84389 3.22558 0.197781)
(8.69709 0.0263525 -0.00330602)
(8.77201 -0.0508741 0.00742266)
(3.05678 3.06462 0.000990439)
(8.63957 0.0239512 -0.00168856)
(3.2223 2.61269 0.183594)
(2.90786 -2.87428 -0.00710104)
(8.85199 -0.0303974 0.0724692)
(8.61685 0.0320511 0.0159105)
(8.80572 -0.0117046 0.0211316)
(8.64307 0.0245803 0.000303579)
(2.93391 2.60208 0.158165)
(3.80517 3.27585 0.208786)
(3.04449 3.04834 -0.0043826)
(8.62941 0.0302781 0.01152)
(8.61734 0.0238468 -0.00201277)
(8.77663 0.156951 -0.0524567)
(3.01694 3.00999 0.00554639)
(6.02309 5.33312 -1.27619)
(8.22893 0.0818075 0.0747915)
(8.7781 -0.0416516 0.0209349)
(8.63891 0.0316865 0.0196768)
(8.2218 0.852558 -0.0680678)
(8.75603 0.0196758 -0.0248556)
(3.03957 3.03946 0.00135784)
(8.75774 0.0213984 -0.0135638)
(8.41381 0.0119093 0.0175218)
(8.85794 -0.209026 -0.00173216)
(8.87968 -0.0533921 0.108657)
(8.58121 -0.0693299 -0.0632445)
(3.03793 3.05133 -0.0113838)
(2.89866 -2.90189 -0.00543855)
(3.05699 3.03911 0.0116149)
(2.88029 -2.88859 -0.00056112)
(8.75917 -0.0412382 0.000289008)
(8.68031 -0.0126337 0.00325338)
(8.68377 0.0415922 -0.0329358)
(8.75023 0.024524 -0.0273347)
(3.02642 3.02956 -0.0130404)
(8.66196 -0.0638911 -0.0233884)
(3.04803 3.04891 0.0011382)
(2.89178 -2.90004 0.000116456)
(8.75146 0.0248778 -0.0179828)
(2.67046 -2.67346 0.0386139)
(4.80913 -0.855674 -0.0665196)
(2.86858 -2.85787 0.00239525)
(3.07696 3.03606 0.0243338)
(8.66832 0.0155753 -0.0119905)
(3.05046 3.04874 0.00112456)
(8.56094 0.0246429 -0.00501612)
(8.14412 0.00462456 -0.0376751)
(3.05583 3.056 -0.000806992)
(7.84214 -0.00355263 -0.0373705)
(8.52131 0.0151747 0.0121462)
(3.07378 2.69844 -0.0989776)
(8.48435 0.0382975 0.0426271)
(8.02346 0.0425596 -0.0037567)
(8.5387 0.0404919 0.0120996)
(7.95748 0.0303553 0.100861)
(8.6157 0.0249819 0.00436414)
(8.23043 0.00214303 -0.0158745)
(3.01735 2.58087 -0.0130626)
(2.8925 -2.88711 0.0173378)
(7.37468 0.0116284 0.173247)
(3.02976 3.04028 -0.0172618)
(8.52353 0.0467717 0.0412308)
(8.85852 -0.0450936 0.0885347)
(3.06462 2.93024 0.0245553)
(3.04389 3.05678 -0.000889174)
(8.7345 -0.0174941 0.00664991)
(8.41815 -0.0396482 -0.0865415)
(8.44064 0.0450688 0.00140407)
(8.74939 0.0209206 -0.00794424)
(3.0511 3.04676 -0.0014521)
(8.89585 -0.0248668 0.143661)
(8.76293 -0.0298813 0.0439681)
(3.06022 3.05503 -3.85082e-05)
(8.57702 0.13359 0.108972)
(8.18968 -0.0332547 -0.088459)
(2.89784 -2.8976 -0.000592003)
(2.89455 -2.89451 0.000879675)
(8.5511 0.0253343 -0.00909031)
(8.60347 0.00756678 -0.0128884)
(3.06333 3.06343 -0.00388952)
(2.90059 -2.89455 -0.00459771)
(5.12553 -2.75513 0.629526)
(2.90429 -2.90626 0.000606742)
(8.60151 -0.00315906 0.0161935)
(3.03067 3.04214 0.00697485)
(2.90524 -2.90613 0.000224866)
(8.80986 -0.0123328 0.0286786)
(7.98312 -0.0930231 -0.230499)
(8.71341 -0.0517589 0.0116756)
(8.41906 -0.00100458 0.016198)
(3.05792 3.05572 0.000207644)
(3.95524 3.05105 0.152714)
(8.41712 0.112744 0.16105)
(3.70757 3.26953 0.173415)
(8.39082 0.0358108 0.0660643)
(8.35605 -0.0715318 0.0070953)
(8.72414 -0.0257409 -0.0233398)
(6.07101 0.19501 0.226269)
(3.63962 3.1372 0.157408)
(8.7121 0.0140623 -0.0824927)
(8.82726 0.274357 -0.088315)
(2.90016 -2.9054 0.00537784)
(8.79936 0.0227829 -0.0870743)
(8.81051 -0.0392098 0.0326918)
(2.9056 -2.90498 0.00299176)
(8.48932 0.486855 -0.261)
(7.42399 4.35968e-05 -0.101875)
(3.84742 3.02905 0.127358)
(8.77565 -0.0219508 0.0360274)
(8.66902 0.0138735 -0.00976833)
(8.62058 0.0235404 -0.00622882)
(3.05052 3.04788 -0.00082869)
(8.58248 -0.0128366 0.0594916)
(8.80789 -0.00352958 0.0283788)
(8.5507 0.0838062 -0.00849302)
(5.392 -0.0735293 0.0908945)
(3.70496 3.49859 -0.0711725)
(5.08887 -0.130168 0.171424)
(2.89946 -2.90338 0.00213628)
(7.91266 -0.268156 -0.261408)
(8.58429 -0.0144467 -0.0565581)
(3.05195 3.04974 0.00481459)
(8.16784 0.0204717 -0.0624897)
(6.72899 -0.017662 0.123297)
(3.9527 3.4993 -0.037346)
(2.90234 -2.90039 0.00019043)
(3.40211 -2.88676 0.0938512)
(2.90459 -2.90346 -0.00032765)
(8.52283 0.0480165 -0.00643453)
(8.60837 0.0462083 -0.0149007)
(8.53254 -0.024427 -0.0246605)
(8.01542 0.0219402 -0.0446608)
(8.73621 -0.1779 -0.0367073)
(3.04932 3.03613 -0.00582208)
(8.47593 0.000206651 -0.0211142)
(2.91096 -2.88957 0.000373527)
(8.38896 0.0313865 0.0203349)
(3.0613 3.06162 -0.00132942)
(2.90244 -2.8998 2.18782e-05)
(2.87278 -2.88088 -0.00390147)
(8.24338 -0.0553111 0.011893)
(2.89182 -2.89301 -0.00245025)
(2.90393 -2.9042 0.00129216)
(3.00989 2.00862 -0.123607)
(2.90454 -2.90632 0.00101513)
(3.01869 3.06049 0.0287652)
(8.44887 -0.0311766 -0.0131904)
(3.05251 3.04827 0.00108856)
(3.61588 2.67142 0.00506275)
(3.05291 3.05471 0.00366624)
(2.89341 -2.8837 -0.00104305)
(3.05193 3.04091 -0.00425652)
(2.89237 -2.8777 -0.0147245)
(3.03392 3.03627 6.63826e-05)
(7.69001 0.00194266 -0.0656943)
(3.05657 3.0404 0.0121621)
(7.88633 0.117175 0.160017)
(8.63105 0.0116348 -0.00349421)
(8.8998 -0.361305 -0.0619234)
(3.05904 3.04376 -0.000547339)
(7.5127 0.0219441 0.125218)
(3.05662 3.04595 0.00294112)
(2.90511 -2.90629 -0.00131205)
(8.50458 -0.080766 -0.0871623)
(8.51689 -0.065622 -0.0788936)
(8.53654 -0.0186153 -0.0233134)
(8.91926 0.0227118 -0.151834)
(3.50525 2.95145 -0.0970635)
(8.73904 0.010324 -0.0462098)
(8.7347 0.0158491 -0.041052)
(8.63222 0.0156895 -0.000181841)
(8.49225 0.00962764 0.00284373)
(8.64607 -0.0880521 -0.0604874)
(2.89181 -2.89338 -0.000846303)
(8.64008 0.0119314 0.000144171)
(3.98892 3.475 -0.0265889)
(8.60956 0.0227375 -0.0115925)
(3.0477 3.0444 -0.00104301)
(8.76824 0.0283448 -0.0386228)
(3.9461 3.28049 0.0306191)
(8.64863 0.00765003 -0.0126145)
(8.67495 -0.0414465 0.0316134)
(3.35322 -1.68563 -0.0203103)
(3.05286 3.05505 0.0339691)
(8.50431 0.0152233 0.0150543)
(2.90164 -2.90045 0.000518402)
(8.80514 0.0365012 -0.0573002)
(8.74057 0.0346411 -0.0368908)
(3.04968 3.04062 -0.0243271)
(3.04309 3.04196 0.00748633)
(2.98536 2.67827 -0.0596188)
(3.04944 3.05174 0.00147352)
(6.10956 -0.32709 0.169064)
(8.81003 0.0305519 -0.0549335)
(3.09507 3.02237 -0.00231971)
(3.04567 3.04991 0.0029815)
(7.51577 0.00973866 -0.017589)
(3.05431 3.05401 0.000114478)
(8.67375 0.0247776 -0.0308905)
(3.05212 3.05141 0.000326644)
(8.58975 -0.0499224 -0.0377171)
(2.90548 -2.90552 0.000545438)
(8.05754 -0.0406979 -0.122272)
(6.6552 -0.0268153 0.00713587)
(8.07376 0.0253374 -0.0174179)
(8.65162 0.00982589 -0.0136194)
(3.06357 3.04099 -0.00998667)
(7.84485 0.00818322 -0.00139254)
(3.05742 3.04665 0.00278802)
(3.05279 3.05365 -0.0082751)
(8.55251 -0.0229109 -0.0134756)
(3.04893 3.0454 -0.00133314)
(7.27811 0.00132533 -0.0739943)
(2.94366 2.71001 -0.089832)
(8.68497 0.0229744 -0.0273697)
(2.89508 -2.89812 0.000260887)
(8.75852 0.0214525 -0.0192178)
(2.90664 -2.90397 0.000380727)
(3.62063 3.20516 0.0928997)
(8.85314 0.325264 -0.0195142)
(8.50843 -0.0728973 -0.0913606)
(8.63728 0.0365535 0.000284088)
(8.70867 -0.0985963 -0.0644848)
(8.59816 0.0172763 -0.00836598)
(8.79467 -0.0621716 -0.00605976)
(3.03029 3.05354 -0.0135926)
(8.63267 0.0491702 0.0263535)
(8.54341 -0.0857529 -0.0881211)
(3.05133 3.05314 -0.00173255)
(7.252 -0.106391 -0.280648)
(8.82804 -0.0636142 -0.0446087)
(8.47721 0.036465 0.0327915)
(3.01884 2.97762 -0.017095)
(3.75209 0.753759 -0.597816)
(8.29642 0.0210382 0.0273926)
(6.78711 -0.026817 0.0688882)
(7.03846 1.8156 -0.0141817)
(3.76495 -1.90898 -0.156538)
(8.77803 -0.100992 -0.0227693)
(8.23832 0.0316662 0.0612497)
(8.50256 -0.0801933 -0.0881312)
(8.66623 -0.0487135 -0.0184039)
(8.52372 0.0499842 0.0210743)
(7.57043 0.98271 -0.045086)
(3.77014 3.19996 0.0264741)
(7.69502 -0.293252 0.0695131)
(7.432 -0.647029 0.156386)
(2.89918 -2.90058 0.00154735)
(7.58364 0.053026 -0.0224571)
(3.0673 3.0097 -0.0157967)
(3.57817 3.25405 0.0306269)
(8.59651 0.0195408 -0.00433377)
(7.62046 1.29387 -0.0451015)
(9.16859 -0.783581 -0.144967)
(8.26773 -1.42539 0.029859)
(3.56863 3.39167 -0.249868)
(8.74127 -0.054127 -0.017172)
(8.62608 0.0504796 0.0391616)
(3.04481 3.03634 -0.00149211)
(3.92531 2.18603 -0.0901249)
(8.62584 0.0649694 0.040566)
(2.90274 -2.89179 0.00307593)
(3.05117 3.04986 -0.000630759)
(3.04176 3.04064 -0.000238232)
(3.055 3.03908 0.00355829)
(8.73851 -0.0899917 -0.0413112)
(3.05207 3.05127 0.00189502)
(2.91254 -2.91237 0.0153789)
(8.58254 -0.0529337 -0.0429561)
(7.89604 -0.00275147 -0.0242184)
(4.27206 -3.73965 -0.197919)
(8.62635 0.0634746 0.0391305)
(3.55029 2.87111 0.0645033)
(8.6716 -0.035411 -0.0193959)
(2.84608 -2.84386 -0.0133656)
(3.04456 3.05061 -0.00226463)
(8.71668 -0.0554842 -0.0159808)
(3.05101 3.03364 -0.0117384)
(3.0526 3.04551 0.00171957)
(3.495 3.3449 0.0964599)
(8.19743 -0.00648999 -0.00558674)
(5.01939 4.2037 -0.557418)
(8.59013 -0.0361908 -0.017278)
(8.59289 0.0188189 -0.00637198)
(2.87701 -2.85828 -0.0229615)
(8.91647 -0.0222886 0.282905)
(8.16624 -0.0500171 -0.122367)
(8.5584 0.00134931 -0.00423273)
(8.66335 0.156706 0.0156504)
(8.70883 0.0856463 -0.187221)
(7.48798 0.00367681 -0.0703871)
(3.04633 3.04333 0.00175906)
(8.72805 0.00927218 0.0240742)
(8.66187 0.0372821 -0.00761012)
(2.8744 -2.91242 0.0057258)
(8.05772 -0.00574315 -0.00242612)
(8.74321 0.0485805 -0.0172963)
(8.74132 0.0402526 -0.0144883)
(7.9401 -0.0345241 -0.0787697)
(8.7384 0.0384432 -0.015897)
(8.74295 0.0459366 -0.00517678)
(2.90803 -2.86948 0.017698)
(8.74172 -0.0181153 0.0444236)
(7.23082 -0.0453588 -0.0136742)
(3.67367 3.19252 0.201273)
(8.7373 0.0331015 -0.0213539)
(8.3383 0.00951755 -0.0196509)
(4.88561 3.97918 -0.600299)
(8.59382 0.0165079 -0.00250969)
(8.74127 0.0273321 -0.0266527)
(8.3415 0.00266726 -0.0346301)
(8.67035 0.0398081 0.00210915)
(8.57022 0.0848594 0.0372408)
(8.6129 0.00785914 0.00717472)
(2.98515 2.9176 0.00443869)
(8.6685 0.0462267 0.00671433)
(8.13699 -0.0536409 -0.110383)
(3.25131 -1.9505 0.076139)
(8.62827 0.0744804 0.0459728)
(8.51723 0.0709658 0.0696459)
(8.64485 0.0254579 0.00122124)
(3.04667 3.03949 0.00267383)
(8.3796 0.0485506 -0.0797603)
(2.9022 -2.8896 0.00723595)
(3.05208 3.05226 -0.00212381)
(3.03568 3.01496 -0.00132539)
(3.05682 3.03914 0.000707151)
(7.25809 0.00416895 -0.0324524)
(3.63329 3.12965 0.126317)
(6.54466 -0.460225 0.540198)
(2.8875 -2.88867 -0.000252281)
(3.04509 3.08594 -0.00461623)
(8.63707 0.08666 0.0446482)
(8.69014 0.0223968 -0.0400404)
(2.90437 -2.90459 5.83999e-05)
(8.69917 -0.0538837 -0.00618798)
(2.90248 -2.90051 0.0084546)
(2.90446 -2.90245 -0.00111534)
(2.85527 -2.8562 0.00842035)
(8.82819 -0.0712686 -0.00946925)
(7.35286 0.04208 -0.0200848)
(3.59648 3.24083 0.0402337)
(2.93161 -2.89909 0.00780075)
(3.04743 3.05741 -0.00394602)
(3.04907 3.05094 -0.000736229)
(8.8844 0.0178625 -0.0978531)
(8.6241 0.0181836 -0.00124687)
(3.62366 3.4076 0.156726)
(8.78668 0.0277025 -0.0480013)
(8.17324 -0.114275 -0.339747)
(3.04554 3.04699 -0.00148858)
(8.76377 0.0239683 -0.0417462)
(8.0345 0.00640988 0.043014)
(8.52849 0.0452141 -0.0514627)
(3.05649 3.05491 -0.000156965)
(3.04751 3.04495 0.000319959)
(8.46881 0.0504351 0.0515656)
(8.65489 0.0205035 -0.00339559)
(3.60418 3.27906 0.0511974)
(3.03763 3.03868 0.000256874)
(3.08821 2.99639 -0.00918462)
(8.60124 -0.0164278 0.00763521)
(2.89998 -2.89992 -0.00321921)
(2.89569 -2.88463 0.00222535)
(3.03378 3.03428 0.000102911)
(8.76104 0.0268603 -0.0366958)
(7.65868 -0.0382556 0.0136539)
(3.05491 3.05515 4.40365e-05)
(3.39123 0.687093 0.595832)
(3.68162 -0.388865 -0.144418)
(8.47247 0.0457796 -0.0026)
(3.04588 3.05093 -0.00137186)
(3.05189 3.04639 -0.00235039)
(8.78871 -0.110472 -0.0170385)
(8.42002 0.143259 0.135475)
(3.65497 3.26678 0.154645)
(5.31558 1.73236 0.125553)
(8.30586 0.184871 0.240143)
(7.94335 0.0244457 -0.0553902)
(8.44676 0.00524153 -0.00680732)
(3.15357 2.96157 -0.00750579)
(8.39744 0.0249742 -0.00363493)
(8.70353 -0.0587479 0.0624412)
(3.05688 3.04937 -0.00328458)
(2.88146 -2.83105 0.00507854)
(3.03557 3.03727 0.000460915)
(3.04592 3.04562 -0.000610991)
(3.05157 3.05646 -0.00360913)
(3.0557 3.05673 -0.000689561)
(8.7785 0.0256259 -0.0388688)
(2.90227 -2.90159 0.0018914)
(3.04384 3.04445 0.000447558)
(3.03418 2.99438 -0.00402005)
(8.78641 0.0276296 -0.0491698)
(8.64926 0.0200027 -0.000291404)
(2.91499 -2.87426 -0.000664825)
(2.86702 -2.83811 0.00373585)
(8.85553 -0.0427688 0.0766478)
(8.41385 0.00245061 0.00866521)
(8.40148 0.00645374 0.0127151)
(2.90338 -2.89566 -0.00159156)
(3.04186 3.04213 0.00206879)
(8.40803 0.00447763 0.0119699)
(2.90428 -2.90188 0.000420062)
(8.30652 0.0231329 0.00233651)
(8.49693 0.013833 0.0299051)
(8.51886 0.0297082 0.00992474)
(2.9117 -2.89008 0.00815066)
(2.90364 -2.90515 0.000586198)
(2.90314 -2.9051 0.000184887)
(3.05211 3.05255 0.000898025)
(8.61283 -0.0413086 -0.0238499)
(3.04859 3.05182 0.00138039)
(3.043 3.04036 -0.000101525)
(8.57281 0.0233604 -0.0343277)
(2.90385 -2.90483 0.00123019)
(8.4459 0.00125599 0.00968597)
(7.70538 -0.06663 0.02639)
(3.06965 2.96611 0.0159685)
(8.64008 0.0224847 -0.00381615)
(4.07293 0.62234 -0.107419)
(8.52748 0.00914683 0.00451627)
(8.81574 -0.0306644 0.0212026)
(7.77795 0.0318554 0.0108364)
(8.8167 -0.0016959 0.0576632)
(6.36602 0.138455 -0.241875)
(3.63002 2.90542 0.0587821)
(8.50823 0.00523073 0.00311084)
(8.85117 0.0698399 0.0110296)
(8.64133 -0.0207119 -0.00877057)
(3.12471 2.71946 -0.091193)
(3.87076 0.382907 -0.197027)
(4.60822 -0.318348 0.155581)
(8.51796 0.0120982 0.00642514)
(3.04325 3.04774 0.00404503)
(8.35286 -0.0194396 -0.0612859)
(8.53368 -0.00860718 -0.018379)
(8.282 -0.0733212 -0.133336)
(3.17252 -2.24104 -0.169915)
(2.90437 -2.90555 0.00141456)
(2.90133 -2.90136 -6.01656e-05)
(8.68182 -0.0281583 -0.00316936)
(3.55646 2.94888 -0.0382047)
(8.24174 0.0286319 0.0132039)
(3.30944 3.0145 0.042173)
(8.1982 -0.0176372 -0.059342)
(8.4305 -0.0174274 0.00832304)
(8.34237 -0.0101041 0.029505)
(8.65168 0.0214957 -0.00505923)
(3.04297 3.04293 -0.00100469)
(3.02979 3.02036 -0.0056459)
(3.10184 -2.82521 0.0138191)
(8.63724 0.0265074 0.00385537)
(3.0556 3.0469 -0.000630526)
(3.52115 3.02967 -0.133848)
(8.82727 0.165852 -0.139297)
(3.06103 3.05727 -0.00182129)
(3.03708 3.05206 0.00921782)
(2.88738 -2.87842 -0.00477099)
(3.05356 3.05445 0.000926512)
(8.252 -0.00319469 0.0280132)
(3.11363 2.95748 0.00597028)
(3.05241 3.0493 0.0010339)
(7.00996 0.992367 -0.726726)
(3.56927 2.88977 -0.0395921)
(3.03765 3.03923 -0.0252638)
(4.18408 -2.46258 0.153764)
(3.04998 3.04639 -0.00330248)
(6.73651 0.0268002 -0.0594646)
(8.41384 -0.0144988 0.0229052)
(2.8927 -2.89307 -0.000201779)
(8.26964 0.00853473 -0.0219337)
(8.35519 1.35855 -0.18798)
(8.22173 -0.079878 -0.132315)
(9.04474 0.33926 0.00828781)
(8.13215 0.0070143 -0.013154)
(3.04904 3.02813 0.0096144)
(8.53372 -0.0824097 -0.0919299)
(8.83857 -0.0316484 0.0193687)
(8.21935 -0.0804119 -0.132669)
(2.90163 -2.90246 -0.000298807)
(8.96166 2.35421 0.628156)
(8.23235 0.0118781 0.0126378)
(4.05909 3.2422 -0.191879)
(8.17584 0.00386312 0.0091772)
(8.92397 0.112586 -0.084722)
(8.51667 0.17269 0.00936172)
(8.44843 -0.0252123 -0.0330952)
(8.45215 0.0282647 0.00122732)
(8.99455 0.132317 -0.0498688)
(8.6727 -0.0150027 -0.0139477)
(8.58793 -0.0121337 0.00892666)
(3.02567 3.03724 0.0114269)
(3.0367 3.02176 0.00935565)
(8.29101 0.0223882 0.0117527)
(8.15163 0.00969887 0.0105992)
(3.0447 3.05195 -0.00129202)
(8.40737 0.00801283 0.000563283)
(8.80647 -0.0413492 0.0055541)
(8.61013 -0.0209343 0.00754779)
(3.05009 3.01877 -0.00110801)
(8.48717 0.172519 0.0383721)
(3.0425 3.04001 0.000189961)
(8.59228 -0.0118378 0.00761765)
(8.62011 -0.0133764 0.00574409)
(3.04995 3.04862 -0.000303079)
(8.23817 0.0446825 -0.0212797)
(8.59717 -0.00960723 0.00133507)
(8.45277 0.161118 0.0140873)
(8.31711 0.00199942 0.0339821)
(3.11209 3.0534 -0.00481442)
(8.69086 -0.0233666 0.0256737)
(8.47864 0.196612 0.00240801)
(8.93855 -0.206556 0.0576138)
(7.52471 0.0985205 0.0261987)
(6.71702 0.0211749 -0.0949868)
(3.05186 3.0205 -0.00545157)
(3.0418 3.03901 0.00224374)
(8.3391 0.114892 0.0150142)
(3.05382 3.05404 -0.000965807)
(7.2783 -0.0207457 -0.0185609)
(8.37708 -0.0448353 -0.0654713)
(5.1125 0.720299 -0.18614)
(9.27764 -0.593574 0.224914)
(8.1872 -0.366085 0.109045)
(9.11305 -0.324347 0.0903719)
(3.05316 3.0534 -0.000889295)
(4.1388 3.51512 0.0284362)
(8.67173 0.0213987 -0.00668099)
(2.88964 -2.90126 -0.00985975)
(1.59388 -1.11353 0.474222)
(8.58009 -0.164407 -0.128125)
(3.03978 3.03233 -0.00601982)
(3.05529 3.05169 0.000313692)
(7.66083 -0.148358 -0.0032479)
(6.26531 -0.405353 0.0869834)
(3.05427 3.05454 -0.000418033)
(7.7552 -0.144486 0.0254864)
(3.04116 3.03858 0.00133678)
(3.04991 3.05476 -0.00501387)
(2.90097 -2.90125 -0.000542666)
(2.90469 -2.89824 0.00591449)
(2.84673 -2.82236 0.0095834)
(2.89875 -2.89304 -0.000343628)
(7.74188 0.06429 -0.0292911)
(3.02866 3.00834 -0.00362981)
(3.04891 3.05028 0.00105918)
(3.03269 3.0487 0.00540098)
(7.21061 -1.58975 -0.413881)
(8.1665 -0.0677672 -0.149464)
(7.90665 0.000124559 -0.0824821)
(8.67242 0.0201119 -0.00750562)
(3.03451 3.01492 -1.6106e-05)
(3.06252 3.05134 0.000162856)
(8.30739 -0.14257 -0.173692)
(3.05221 3.05315 -0.00356812)
(3.04961 3.04652 0.000848565)
(4.85149 2.79394 0.102762)
(8.84324 -0.119685 -0.00593344)
(8.65523 0.0206556 -0.00693375)
(3.04827 3.04746 -0.000309024)
(3.04622 3.04092 0.0045163)
(3.03468 3.02632 -0.00378566)
(3.03949 3.03312 -0.000397234)
(3.05294 3.05168 -0.00331328)
(3.05991 3.05117 0.00184367)
(8.6605 -0.202391 -0.127658)
(3.05668 3.04789 -0.000105974)
(6.011 0.0870164 0.203025)
(8.73502 -0.0201752 0.0229687)
(3.04966 3.05405 -0.000844381)
(2.88135 -2.893 -0.00788003)
(2.8617 -2.83217 0.0033878)
(7.32393 0.0869141 0.397229)
(2.84136 -2.83797 -0.0117901)
(2.89975 -2.90205 0.00305543)
(3.03258 3.03768 -0.019083)
(7.8457 -0.122671 0.0073781)
(3.04007 3.03905 0.000234313)
(8.60884 -0.112961 -0.0710471)
(6.85916 0.112457 -0.0351374)
(5.65618 0.00706731 0.227198)
(3.04125 3.04353 0.000932974)
(5.89218 -1.50644 0.119864)
(8.67637 -0.0161439 0.00285881)
(8.74035 0.0221506 -0.0224937)
(3.11847 -2.97487 -0.0336174)
(8.40155 -0.135932 -0.0224662)
(8.57717 -0.0162562 -0.00924002)
(2.90494 -2.88453 0.00286694)
(3.15175 2.99054 0.0146116)
(4.10266 -3.15884 -0.265442)
(3.03363 3.0327 0.00101575)
(8.6761 0.0169995 -0.00227478)
(8.66849 -0.0111563 0.0103125)
(8.81583 -0.106666 0.04403)
(5.80025 -0.00649833 0.318966)
(3.05546 3.05374 -0.00033896)
(8.67901 0.0171466 -0.00381571)
(3.13094 2.98016 -0.00748579)
(3.81141 3.22532 -0.0133187)
(3.90567 -3.03743 -0.126089)
(3.04957 3.05001 0.00121883)
(8.69914 0.0253836 -0.0056136)
(3.0402 3.03325 0.00196784)
(2.87103 -2.81908 0.00148721)
(7.93085 -0.10902 -0.198794)
(8.51446 -0.0188026 0.0102033)
(2.87287 -2.82525 -0.00786584)
(8.55333 0.0152798 -0.00384974)
(3.2486 3.17692 -0.0188575)
(8.68705 -0.0743112 -0.0384448)
(2.86902 2.74496 0.0273252)
(3.05283 3.05466 -0.00132746)
(3.06546 3.05512 0.0100014)
(2.90519 -2.90578 0.000798966)
(8.40836 0.0133286 -0.0134634)
(7.52573 0.0161434 -0.0345458)
(8.71292 -0.0227683 0.187417)
(3.03701 3.03982 0.00197161)
(3.03239 2.97784 0.0205665)
(8.36119 0.0162089 -0.014721)
(3.05328 3.05341 -0.00112903)
(3.54365 3.20819 0.0442969)
(2.90222 -2.9003 0.000225187)
(8.31965 0.0534272 -0.00541836)
(8.85686 -0.218472 -0.0650133)
(8.67639 0.0216855 -0.00913153)
(2.89804 -2.89219 0.00676468)
(6.87097 -0.0103596 0.192081)
(7.17276 0.00707658 0.184558)
(2.74283 2.42315 0.0168917)
(7.75505 0.0996212 0.156285)
(3.05415 3.03827 0.0030213)
(8.19026 0.0768107 -0.00798528)
(8.79658 -0.0150997 0.0511065)
(8.52056 0.00587228 -0.0148569)
(8.80735 -0.111406 0.0137523)
(8.09048 -0.178123 -0.251007)
(3.05259 3.04933 0.000726411)
(3.05304 3.05283 -0.000194723)
(3.04574 3.04995 -0.000104176)
(7.09465 0.0701738 0.255995)
(3.02368 2.99677 0.00332919)
(8.60797 0.0362333 -0.0157337)
(2.90096 -2.90065 -0.000223912)
(8.52618 -0.261936 0.183671)