/*--------------------------------*- C++ -*----------------------------------*\
  =========                 |
  \\      /  F ield         | OpenFOAM: The Open Source CFD Toolbox
   \\    /   O peration     | Website:  https://openfoam.org
    \\  /    A nd           | Version:  10
     \\/     M anipulation  |
\*---------------------------------------------------------------------------*/
FoamFile
{
    format      ascii;
    class       volScalarField;
    location    "12.5";
    object      SgP;
}
// * * * * * * * * * * * * * * * * * * * * * * * * * * * * * * * * * * * * * //

dimensions      [1 -1 -3 -1 0 0 0];

internalField   nonuniform List<scalar> 
111485
(
5.30778e-10
0.000113496
2.68904e-05
7.60241e-11
8.12891e-06
3.00737e-08
1.46278e-05
2.31158e-07
1.03968e-05
2.77986e-06
2.45584e-05
8.75926e-07
6.60573e-06
0.288282
6.35971e-06
1.55639e-05
0.204252
0.00102658
8.72895e-07
4.76423e-08
0.0367075
2.24835e-09
3.09442e-06
1.07948e-05
3.93095e-05
3.35871e-08
5.36337e-07
1.37809e-05
1.04988e-06
0.0474962
3.95627e-06
4.88433e-07
2.17205e-07
1.40701e-06
0.000726814
8.88526e-05
0.133535
0.200867
0.00242767
8.36412e-07
0.0421675
1.18335e-06
2.81278e-06
0.000106011
2.12165e-05
1.56065e-06
6.36873e-06
4.2029e-07
6.07229e-06
4.19009e-07
1.09695e-06
1.69094e-05
4.62991e-07
9.02733e-06
1.4778e-06
1.92864e-07
2.64607e-06
4.08679e-08
4.76489e-05
3.87904e-07
5.49283e-07
2.60629e-07
8.20212e-05
6.76218e-06
6.36939e-06
2.06088e-05
0.000416871
2.26375e-06
6.92567e-05
0.000136677
4.91452e-05
8.34087e-05
1.09953e-05
8.87961e-05
4.12994e-08
1.90177e-06
1.57733e-08
6.88638e-07
2.6879e-08
3.07718e-05
0.274453
0.51401
4.36573e-08
5.09288e-09
1.56477e-05
3.64768e-05
0.139925
8.75534e-06
0.000240921
4.13935e-06
1.19543e-06
6.34609e-06
4.44788e-05
4.96452e-07
1.98616e-06
6.60992e-09
0.026697
1.11913e-05
0.00150577
0.000555346
1.36347e-09
2.57896e-06
1.90085e-06
1.4183e-05
5.90713e-06
1.61124e-05
6.3462e-09
2.81447e-07
1.42584e-05
0.000702882
3.97906e-05
1.32944e-06
1.29209e-05
7.22759e-05
1.0236e-07
1.5589e-07
3.00493e-08
6.3506e-06
2.20043e-05
3.39934e-09
9.00674e-08
0.00018695
0.0729146
2.18734e-06
5.63833e-05
0.0276404
0.000105151
1.26538e-05
2.61994e-10
0.000315989
0.000134591
1.663e-05
0.0465617
0.00017215
7.70456e-05
7.93902e-07
1.31887e-09
2.75e-07
9.37292e-06
2.37526e-05
6.90391e-05
3.97878e-07
0.176127
9.37434e-05
4.01267e-05
2.28873e-06
2.53853e-09
7.13843e-10
4.75846e-08
4.75201e-07
3.18557e-05
0.0281614
0.112689
1.29963e-05
3.59052e-05
5.44333e-07
5.51118e-06
0.000147258
0.000801176
5.36211e-06
8.41779e-10
7.29715e-07
3.83117e-05
7.27574e-05
6.34392e-05
3.68883e-05
6.778e-06
0.0262274
0.00151939
0.000127474
1.39228e-09
1.37992e-08
0.194511
1.76039e-10
2.57443e-07
2.63421e-06
5.31687e-07
9.37783e-06
3.44149e-08
5.69267e-06
9.62501e-06
3.73556e-08
2.61837e-06
4.94775e-07
2.21627e-06
2.00416e-05
9.63163e-06
5.33386e-05
0.000373428
1.64647e-07
5.18351e-05
5.61914e-06
7.03489e-06
3.61894e-05
4.90566e-06
1.17099e-05
2.14452e-06
1.27428e-06
8.39054e-07
8.28231e-06
2.75865e-06
0.001623
7.90005e-05
8.9332e-07
1.79639e-06
3.94595e-06
1.19275e-05
1.15017e-05
1.75129e-05
2.223e-06
5.29634e-06
9.57426e-06
8.4042e-06
7.49854e-09
6.73513e-05
0.000305141
4.03211e-07
7.81532e-09
1.14487e-05
1.68904e-05
8.61677e-07
8.25651e-08
1.54813e-05
1.6101e-05
0.000272834
7.54176e-09
7.44548e-10
3.0823e-05
0.00404367
2.31097e-05
9.12745e-05
1.33849e-05
2.305e-06
0.142591
3.80052e-05
2.03937e-05
0.157294
4.79326e-08
5.8424e-05
2.12405e-05
2.59396e-05
3.14956e-05
4.63338e-06
3.80879e-06
0.00187182
1.08675e-06
7.59317e-06
1.05429e-08
4.95866e-06
0.133262
1.79388e-05
1.05484e-05
2.07502e-05
7.29891e-10
0.00018867
4.39917e-07
2.72068e-07
6.53913e-05
0.097876
1.88022e-08
4.33212e-06
5.15395e-05
2.40767e-06
3.43944e-09
1.08794e-05
5.72204e-11
6.08829e-08
4.99283e-07
0.162499
4.29907e-06
3.11724e-05
1.35393e-06
0.173175
1.90772e-05
1.36171e-06
0.000242168
4.53334e-06
1.18127e-06
4.54925e-07
5.42524e-09
0.110312
4.23412e-07
3.93847e-05
1.95381e-05
1.56561e-09
0.212655
0.259702
1.50114e-06
0.000310716
3.37428e-05
3.12445e-06
8.69738e-06
1.18676e-05
2.39038e-08
6.8684e-06
2.81505e-09
0.000352509
0.00026928
1.44057e-05
1.59414e-06
0.338412
1.75228e-08
0.0832956
1.02019e-06
7.16687e-06
4.03934e-09
1.13212e-07
0.0242964
4.45843e-06
1.47376e-06
5.73075e-06
0.000164215
7.48367e-07
2.97631e-05
2.93179e-08
3.3402e-08
5.31742e-06
0.00428832
0.2444
3.27053e-06
0.000756387
1.07908e-09
8.86579e-09
1.33862e-08
8.3419e-05
5.28368e-07
5.49752e-07
2.10023e-06
8.95045e-07
7.01243e-05
0.0599821
5.34641e-06
1.14946e-07
1.88245e-06
2.18713e-06
0.0467212
4.90468e-05
7.20565e-07
7.08006e-07
8.00017e-07
1.32987e-05
6.4848e-08
0.147308
0.000164426
7.77979e-07
3.04031e-06
0.000296264
4.3816e-07
0.03788
5.27951e-07
1.03122e-05
5.99726e-06
3.91192e-07
1.96425e-05
8.87661e-06
1.86755e-07
5.36898e-07
7.00361e-07
1.72942e-06
0.353625
2.87822e-05
1.75344e-07
0.0512973
1.58877e-05
1.7878e-08
4.03487e-07
3.82603e-07
0.0463425
0.000608894
0.0452777
0.0480837
2.77545e-07
2.29183e-08
2.62996e-06
3.69304e-06
6.76214e-10
6.93205e-06
2.95486e-06
1.54807e-05
2.55049e-05
0.00013544
5.32557e-06
0.000685044
4.69923e-07
7.59404e-06
4.22175e-05
1.19652e-06
0.000653279
3.79669e-07
1.43117e-05
2.67256e-06
0.029397
1.13211e-07
1.70661e-07
0.151111
4.55333e-06
0.299327
6.72657e-08
4.78928e-06
3.4693e-06
6.38014e-09
5.00672e-06
4.38929e-05
3.88345e-09
0.0316086
3.06783e-06
2.77482e-06
4.45658e-07
2.54232e-08
0.000739608
4.0527e-09
9.97654e-06
3.48502e-06
3.18925e-10
1.16086e-06
3.75419e-05
0.240902
0.00013136
1.89623e-09
7.81746e-05
9.88871e-05
9.66372e-05
3.79664e-05
0.000614717
2.51838e-06
0.0010993
5.34277e-05
0.199859
0.000196094
4.43464e-08
6.94431e-06
1.00759e-06
1.98575e-07
0.00139255
0.000210721
8.19522e-05
1.44579e-06
1.45695e-06
9.34644e-06
3.40601e-08
0.342942
8.90236e-07
3.2859e-05
0.00431685
8.94525e-05
0.00124986
3.56318e-08
0.247858
0.324244
2.61213e-08
3.38503e-05
0.000257781
0.000101383
3.80902e-09
2.94035e-05
4.45506e-09
0.278564
7.05561e-05
2.00007e-05
0.000103181
2.07461e-05
1.68872e-07
1.61408e-06
4.93654e-07
6.70802e-05
1.5443e-07
5.91605e-07
0.0516941
9.35446e-05
3.88937e-08
9.99142e-10
0.000375677
8.36559e-08
1.53521e-06
3.5504e-06
2.58646e-08
6.02304e-05
6.50821e-08
0.0731544
6.8022e-08
1.63784e-06
1.52523e-08
0.000228216
4.09804e-07
0.219323
1.89545e-05
0.231239
8.57374e-09
6.33273e-05
2.498e-06
2.86868e-09
0.360987
0.139808
2.50717e-05
3.11066e-06
3.01706e-05
6.74249e-07
1.16057e-05
7.46541e-07
4.43045e-05
0.282809
2.20681e-08
2.28712e-06
0.000106427
1.73455e-05
0.0571994
5.43667e-06
0.000112968
2.36622e-06
1.33649e-06
0.000762706
0.07938
1.70218e-05
2.11453e-08
1.24518e-06
3.27043e-06
3.46715e-06
1.10908e-06
1.92617e-05
1.94089e-09
0.00168462
1.59312e-07
3.373e-07
1.81379e-07
8.92116e-05
2.35666e-09
9.35069e-06
2.76396e-08
8.81336e-06
7.28922e-10
0.113656
0.112168
1.86894e-05
1.11915e-06
0.0632012
0.0796387
4.81467e-08
2.53732e-07
1.48492e-05
4.40957e-08
0.000163088
1.74588e-05
1.07429e-05
0.0420742
1.5665e-06
2.91285e-09
4.59192e-05
4.44011e-05
6.21389e-05
1.62635e-06
1.52407e-05
1.04369e-05
1.01388e-06
9.43818e-07
2.05019e-05
3.30968e-05
1.9563e-09
0.123948
6.65778e-05
4.20941e-05
1.30411e-06
0.00117789
3.06763e-05
0.000451372
0.00295422
0.000376632
4.24929e-06
8.34952e-05
1.07341e-05
2.06492e-05
0.112248
0.000206064
7.28442e-05
0.00353295
0.0753299
3.19393e-08
6.33388e-05
4.44081e-06
3.99397e-05
3.4276e-07
0.000504659
0.00272154
0.000419703
0.000163453
2.55377e-05
2.26503e-06
5.67446e-08
0.000194677
3.36621e-06
2.94348e-08
9.27143e-10
5.00191e-08
3.54908e-08
9.73749e-06
2.96512e-09
0.0342822
1.2433e-05
2.39968e-05
0.0972202
0.31201
5.93405e-05
2.92159e-06
0.0366566
5.39582e-08
1.82858e-05
1.68921e-07
2.11116e-08
4.68891e-05
2.27615e-05
0.118105
2.542e-05
1.45692e-07
2.65857e-06
2.85605e-05
0.140463
6.83588e-06
2.67647e-05
6.79236e-05
0.193101
0.0402547
2.69096e-06
1.69132e-05
5.86506e-06
2.29281e-06
5.80926e-06
1.09625e-06
3.08083e-05
4.01096e-06
2.07098e-06
1.12261e-06
4.26956e-06
0.000648723
3.21766e-05
4.1407e-06
4.66958e-06
0.000646467
3.65955e-07
4.97944e-07
1.69173e-05
2.94199e-06
1.59744e-05
2.88207e-06
3.22413e-06
3.3693e-06
3.0382e-05
0.000191816
1.3316e-05
1.92327e-05
2.95352e-06
4.94713e-07
4.24172e-05
4.40249e-06
4.13154e-09
0.075345
1.53223e-08
0.134262
5.79007e-05
0.0115843
8.10657e-08
0.0285714
1.7356e-06
1.26399e-05
1.0154e-09
7.63906e-06
2.96201e-07
1.81271e-08
8.17437e-07
0.276125
0.000125029
2.90915e-05
0.0406283
9.87416e-08
2.2683e-09
3.86892e-06
1.79579e-06
8.20883e-05
5.59625e-07
0.000125475
6.12351e-08
7.19326e-06
0.000120698
0.164214
1.27734e-09
5.20891e-09
3.33024e-06
7.97748e-07
0.000130371
3.92764e-07
0.061152
1.12337e-06
2.68403e-08
1.21975e-07
0.0441736
6.24263e-06
0.000135084
5.45012e-10
0.00494192
0.00101615
0.177891
1.68832e-08
1.94451e-08
3.58027e-06
2.25274e-05
3.88171e-05
0.000573955
0.000325236
0.000247123
4.63859e-06
0.061595
2.55544e-05
8.04861e-07
6.39737e-08
1.18795e-06
1.18349e-08
9.02073e-09
7.38989e-08
7.64304e-10
3.19656e-06
6.66212e-08
1.72818e-08
3.3798e-07
2.04371e-07
1.57426e-06
1.05432e-07
5.71424e-07
2.45677e-07
1.43217e-05
1.60001e-05
2.57043e-08
6.7624e-09
2.11492e-05
6.83705e-10
8.64891e-05
2.0149e-06
4.86845e-06
1.09731e-07
3.6237e-10
9.2077e-10
1.60446e-09
1.49522e-05
1.99026e-08
6.47582e-08
2.04879e-05
5.44745e-09
1.3386e-05
8.06302e-05
2.32122e-06
1.64452e-06
0.000515786
4.39988e-06
0.246313
0.000106878
8.0866e-06
0.205277
8.08728e-05
5.73951e-06
2.74677e-05
9.30062e-07
1.99616e-05
0.0873476
0.000685962
5.81381e-07
3.85169e-08
1.23419e-05
7.61594e-05
9.57362e-05
9.05185e-05
1.69093e-09
1.69314e-10
1.2583e-06
3.7957e-05
9.11904e-06
3.83214e-06
0.000193001
2.19376e-06
2.83972e-05
1.4392e-07
1.7242e-08
0.0325166
7.98828e-06
3.42552e-07
2.61699e-08
4.88966e-05
0.000128838
1.72681e-06
3.31821e-07
0.0401584
1.1189e-09
2.61309e-05
0.0619853
1.1266e-08
0.0711472
4.22854e-05
0.0360357
0.000595958
1.00595e-07
2.35483e-05
2.13819e-05
0.0452518
5.53676e-05
0.00128835
0.158128
0.000138776
1.08114e-05
9.62219e-07
1.23804e-06
0.475529
0.158462
4.08481e-08
0.236022
1.32728e-05
0.0001595
2.39723e-05
2.14216e-05
0.00117265
3.74662e-05
1.33909e-05
6.77822e-06
1.68405e-07
1.67956e-06
0.0443625
8.34338e-08
5.29398e-05
2.67572e-05
9.46672e-08
3.74173e-06
0.212401
4.09451e-06
2.89469e-07
0.000619917
1.53413e-08
3.76597e-06
0.207579
2.09635e-08
0.174023
0.334793
0.00130492
1.7174e-05
1.0494e-06
3.52527e-06
5.99732e-05
0.000222495
0.00115917
0.000304146
4.16542e-06
0.0440939
0.00010726
6.57971e-10
0.000297767
0.000286624
0.000600204
0.000460036
0.000850815
0.000169624
1.27818e-09
6.73696e-05
1.03554e-06
4.01371e-07
0.00163353
0.341705
1.71436e-07
2.94709e-08
0.00318746
0.00324938
2.63567e-09
0.000595576
8.49067e-08
1.5415e-08
1.32574e-08
4.41189e-07
4.9012e-06
1.63972e-07
7.52657e-05
0.0504174
1.80523e-09
5.01433e-07
0.0044237
0.113519
7.10662e-05
7.59668e-07
0.0316717
4.05627e-09
0.000129658
4.31416e-09
2.34958e-09
0.000560764
0.12706
2.47076e-06
4.90615e-09
6.97788e-08
0.0347204
1.72011e-08
0.022502
4.6489e-08
0.000101103
5.67217e-09
0.0019354
3.04463e-06
2.64743e-09
7.45561e-07
5.56836e-07
0.00137818
6.15836e-07
2.41849e-08
2.02559e-06
0.00436135
0.0526155
7.04045e-05
0.000588778
0.00105593
4.37946e-08
0.00129985
9.95225e-06
3.51212e-07
3.42327e-06
0.000215674
2.1789e-05
1.24077e-07
9.19238e-06
0.000146674
9.65679e-08
1.32751e-06
6.71829e-07
1.59981e-05
0.0715875
1.0922e-09
8.53155e-07
0.0592094
0.000119648
7.54663e-05
6.53085e-09
7.94079e-07
1.78679e-08
1.10233e-06
2.60638e-05
5.11014e-05
5.40057e-07
2.94588e-05
2.70382e-05
8.05632e-05
1.63425e-05
9.26405e-09
3.72519e-06
1.64523e-09
4.8491e-07
6.37293e-05
0.000178949
2.92366e-08
4.93837e-07
4.03365e-06
3.50093e-10
4.70328e-05
4.41129e-07
7.01766e-05
0.000810948
7.29274e-05
1.2095e-08
0.00137668
0.000115826
6.19879e-05
0.000154815
4.60412e-08
0.000157746
2.68152e-06
0.114759
3.38085e-05
9.46384e-05
6.36344e-08
6.91044e-10
2.11411e-08
0.182779
0.072737
4.37003e-05
1.01114e-09
0.000140936
2.88809e-08
0.16947
0.000153887
7.37591e-07
8.6094e-08
3.30968e-06
6.05167e-07
8.69923e-05
2.08647e-06
0.000120202
0.30601
4.01708e-06
7.12739e-05
3.34218e-05
6.92891e-05
5.09492e-05
2.95985e-08
4.1338e-10
2.69755e-06
3.35242e-05
8.50073e-09
1.9523e-07
0.000609609
4.4595e-07
1.30107e-06
0.415347
1.78612e-06
6.61113e-05
4.43249e-10
3.1361e-06
2.61948e-07
0.324665
3.06743e-09
0.116912
0.00546024
0.000132765
1.69665e-05
1.50559e-05
0.000928686
2.53591e-06
3.31623e-06
2.2369e-06
9.25436e-07
5.93045e-08
1.82397e-06
8.36568e-05
2.32343e-06
0.0687391
2.70164e-07
4.34926e-06
0.000300219
2.21587e-09
0.000376
8.61396e-08
3.8581e-05
0.000802227
6.68958e-08
1.97744e-06
6.72895e-05
5.44709e-07
8.84012e-06
0.178372
8.1161e-07
9.59867e-06
3.32853e-10
0.0453494
8.74968e-06
1.88203e-07
1.87815e-07
4.82074e-06
7.07928e-06
8.39104e-09
0.149116
1.47025e-06
1.81515e-09
0.00012283
3.98131e-07
2.62058e-09
4.46119e-05
0.000980106
0.000875775
8.66649e-09
1.09377e-06
4.49523e-08
4.72151e-05
4.96852e-05
0.0338836
6.214e-06
0.000905759
6.66536e-05
0.00112411
3.03614e-05
3.42526e-06
1.05328e-06
4.76441e-07
4.78572e-05
2.0317e-06
7.1002e-06
0.0434792
0.000250028
0.0466705
5.84503e-10
7.51455e-06
1.19881e-07
6.20724e-05
9.91871e-05
1.12137e-05
4.79291e-05
0.000560958
0.000144577
1.89717e-09
0.00708127
0.00818614
8.55507e-05
4.56118e-05
7.32429e-07
0.000890221
1.67048e-06
2.81055e-06
1.33989e-07
5.97851e-09
0.000247089
9.63076e-06
0.000970123
6.28339e-07
0.0461696
0.000648499
7.10048e-07
1.2577e-07
0.000566449
2.83976e-06
0.0550091
0.275234
0.000128876
0.000230854
1.56836e-06
4.93987e-07
3.67801e-08
1.2469e-08
6.18794e-05
4.81281e-06
0.0339997
0.054446
3.03575e-05
2.63616e-08
0.000315497
0.040658
2.71568e-05
0.00113309
0.00253387
0.0429431
0.119722
0.0499541
0.000122293
1.58639e-09
0.00199698
6.52983e-07
1.43768e-07
1.85089e-07
8.36144e-09
2.76943e-05
3.24011e-09
2.45657e-09
8.9885e-05
4.9797e-08
5.92e-09
9.33925e-07
5.47728e-07
0.0583634
6.15688e-06
2.99618e-05
0.0753479
0.257655
4.5736e-09
0.184493
0.000159208
0.382708
3.62653e-07
1.09478e-07
7.65512e-08
4.33519e-05
0.257297
1.74902e-09
0.00114755
6.99741e-08
3.73858e-06
1.61057e-05
7.54388e-06
1.10147e-06
2.31363e-07
0.0767039
1.08587e-08
6.75712e-06
1.12828e-07
8.0185e-07
1.61983e-06
0.000451127
0.00011494
1.13112e-06
0.000383027
2.09055e-05
4.13797e-07
0.000137756
7.36524e-07
2.34714e-05
1.41228e-07
1.33097e-07
0.250095
0.0433126
0.000397023
3.23313e-07
5.39686e-09
4.0121e-06
0.190906
2.80247e-07
1.12542e-05
6.09302e-07
2.76588e-06
1.7955e-09
0.0352956
0.000106702
7.18787e-07
5.65198e-07
1.72829e-05
7.41103e-09
0.176788
1.52435e-09
0.0400441
7.69502e-05
5.0389e-06
1.63054e-08
3.19064e-06
1.28669e-06
1.03414e-06
3.55114e-06
5.03162e-06
3.43816e-10
4.42332e-09
9.4324e-05
0.0795561
2.21798e-09
3.32814e-05
4.95619e-06
9.2813e-05
3.74283e-07
0.0477628
2.26892e-06
5.181e-05
5.44046e-05
6.13527e-08
5.70401e-05
1.94111e-06
1.68063e-05
2.87901e-08
2.29335e-08
1.02799e-05
5.55961e-09
0.000174263
3.86231e-05
3.44571e-08
6.61844e-08
0.000130548
0.000539505
0.299523
1.14738e-07
4.9835e-06
1.82064e-06
0.000362351
0.000167058
2.62793e-05
8.26623e-05
0.078356
3.3715e-06
5.38263e-05
0.000818099
0.0662073
7.55806e-07
4.5219e-08
0.000412915
3.05519e-06
0.0411226
1.92751e-07
6.92511e-06
3.52406e-06
1.96913e-08
0.226816
9.99755e-09
1.65906e-07
7.08082e-07
2.64204e-05
0.304582
0.0567768
4.67014e-07
2.23828e-08
1.28428e-09
1.10076e-07
1.05067e-07
6.34086e-07
1.16368e-07
4.89266e-09
6.88616e-08
1.0454e-08
1.83281e-07
0.0622577
0.0369235
2.61945e-09
1.35749e-05
6.67833e-09
5.89098e-08
1.0711e-08
0.0361915
0.081321
5.62313e-06
3.5492e-08
1.21519e-08
8.07788e-07
1.25616e-06
3.96625e-06
1.33485e-07
0.000330364
2.69859e-07
3.09365e-06
3.23886e-06
0.000187223
5.21105e-06
0.000788525
1.71981e-06
3.1751e-08
0.000482714
0.000449274
1.65592e-08
2.30305e-05
3.86997e-06
1.32156e-05
4.23058e-05
1.00077e-05
3.70817e-06
1.12193e-07
0.324647
4.87807e-07
3.83281e-05
0.0622916
0.000115565
1.19432e-05
1.44403e-05
1.556e-06
2.16079e-06
2.25763e-05
6.50585e-05
5.45677e-05
3.34215e-06
4.3379e-05
7.41329e-06
3.75055e-06
2.03596e-06
5.50486e-09
5.9479e-08
4.33813e-08
5.94609e-10
1.74964e-07
3.20062e-08
7.12266e-06
1.908e-08
4.21573e-09
1.69689e-07
1.69897e-05
9.58795e-09
9.11936e-09
7.95416e-07
1.10421e-06
8.94776e-07
8.67496e-05
6.23343e-06
0.242691
1.24121e-07
1.14136e-05
1.52585e-05
3.84593e-06
3.88553e-09
1.71174e-08
0.22015
5.49466e-07
4.70414e-09
2.35467e-06
0.221208
1.60656e-06
5.705e-05
5.65222e-05
1.08544e-06
7.51734e-06
8.81807e-06
0.000377502
1.92809e-08
4.24773e-05
4.89886e-06
1.87284e-07
0.0003172
0.000387189
0.193055
6.69949e-06
1.36098e-06
7.22561e-06
3.6362e-05
1.53301e-05
1.99154e-07
0.0025598
1.2175e-08
0.000626276
0.000408052
0.0602784
9.79102e-06
0.253441
2.80144e-08
1.36199e-07
4.78568e-06
2.43466e-05
6.86224e-05
3.22189e-06
0.000112158
3.47016e-08
9.53302e-06
1.08221e-09
1.75218e-08
1.50398e-06
0.000474821
9.76277e-08
5.36668e-09
0.000416834
1.96115e-07
0.000533532
3.32234e-06
1.87613e-06
1.4546e-06
4.60024e-07
1.98219e-05
4.46173e-06
0.000201902
6.12068e-07
7.88764e-06
0.00326987
1.20413e-06
7.25039e-09
0.000154165
2.15718e-06
3.91774e-05
4.29318e-09
0.14108
0.000115217
6.9625e-05
1.72309e-06
7.34255e-09
0.00019219
4.51086e-06
2.30651e-07
8.87765e-10
6.35763e-05
7.04215e-05
7.8334e-05
0.191997
2.76297e-06
5.73991e-06
0.00024165
9.23987e-06
6.45486e-06
2.47309e-06
8.28589e-05
3.44102e-06
0.000117347
0.179723
1.43341e-05
4.36436e-10
1.58502e-06
5.04655e-05
1.49435e-05
2.46018e-07
0.000461885
0.000856113
0.000464412
0.000864581
1.66464e-05
5.15599e-05
6.85986e-06
1.95053e-05
1.02198e-07
1.14321e-08
0.100151
0.000501458
2.71933e-06
0.00164079
4.99352e-06
2.39441e-05
0.000422673
3.56742e-06
2.23529e-06
3.17791e-06
3.86852e-07
4.11326e-05
2.85551e-05
0.000147069
2.70515e-05
4.99131e-07
5.735e-09
2.74253e-05
8.75019e-07
1.90425e-08
0.000309055
2.83955e-06
7.94456e-06
3.65032e-05
6.7543e-06
4.07873e-08
0.000580192
0.135779
4.9051e-08
6.10052e-09
2.07225e-08
0.141597
0.24164
4.17294e-07
0.0526164
5.31126e-06
1.93476e-05
7.86347e-06
7.95903e-06
1.12628e-05
1.29874e-05
2.87526e-05
0.114542
0.333367
0.384235
1.14365e-05
3.05053e-05
6.40073e-06
7.16011e-06
0.353775
1.30208e-08
0.171848
4.02145e-06
1.06788e-08
7.24276e-07
5.67924e-07
3.07359e-08
3.52146e-08
2.24677e-07
2.02123e-08
0.13411
5.17419e-08
2.77495e-05
0.000189701
2.16768e-08
4.58586e-06
7.21097e-06
6.00638e-06
6.59058e-08
0.000576949
6.30298e-06
8.30895e-07
6.6667e-05
4.23015e-06
2.89734e-05
4.46437e-06
1.17875e-06
4.89237e-07
1.93311e-05
0.00333613
4.5409e-05
9.50855e-07
1.29135e-05
8.2487e-07
2.36846e-05
9.76208e-05
1.12744e-05
2.17173e-06
5.29035e-06
1.1385e-06
5.69032e-05
1.1264e-07
7.93443e-06
0.0406618
0.000414966
0.322466
0.000759289
0.000105905
1.68669e-08
0.0607183
8.56516e-10
4.7577e-05
1.57024e-05
7.90626e-07
8.5232e-05
1.51901e-06
9.22287e-07
4.28612e-05
7.8696e-07
1.64043e-07
1.85276e-05
6.45543e-07
2.19861e-05
0.076488
3.4991e-07
3.49029e-05
1.33792e-06
7.65295e-07
1.49794e-09
0.000255266
8.83384e-05
3.51346e-06
1.22096e-08
7.0901e-07
0.0437973
0.000205663
9.56422e-06
1.48818e-05
1.79128e-09
1.23185e-10
8.75096e-07
3.62945e-09
4.73267e-05
3.60258e-07
2.13936e-05
1.55448e-06
2.13195e-07
5.74489e-07
3.2749e-08
4.76353e-05
8.88527e-05
4.34474e-05
4.96549e-07
2.90902e-08
9.70656e-07
2.18941e-06
0.00052691
9.69275e-07
0.158676
2.07721e-05
2.78377e-08
4.05594e-08
0.0002266
1.24734e-05
0.00111964
4.93906e-07
9.61719e-05
0.229048
1.77319e-10
0.000325333
2.63316e-05
0.0419572
1.70405e-06
0.0468553
0.0819545
0.000116672
7.42297e-06
1.97151e-05
1.12736e-08
1.55773e-05
2.64945e-05
0.00036626
1.86311e-05
6.39666e-06
2.55144e-05
0.00041788
0.000337122
0.000490613
0.000127232
1.44903e-08
8.75909e-05
0.000868961
6.27755e-06
3.72871e-06
0.000240886
0.000208903
1.35271e-05
1.80917e-05
0.000257147
1.52198e-05
0.000371638
0.000238906
1.9046e-05
2.12056e-08
3.36259e-05
0.000407897
0.0659671
2.09594e-06
5.17722e-07
4.81677e-05
1.87974e-07
8.34981e-05
8.22396e-07
0.00038646
6.02918e-07
7.15198e-05
2.45667e-08
1.00254e-07
1.08652e-05
0.000901826
0.00118441
0.332069
3.98618e-05
1.96891e-06
1.86201e-07
0.000397434
2.2793e-05
0.0327556
0.0694706
8.36686e-10
0.000768469
6.03394e-05
6.50692e-06
5.67234e-09
0.00112269
5.62119e-07
0.042172
4.94182e-08
2.77516e-09
2.89195e-05
9.06929e-07
1.29191e-06
3.75144e-05
0.0390136
1.96564e-05
2.14351e-07
7.76824e-05
0.214337
0.0418546
6.10335e-06
0.000275237
2.83232e-05
0.000554726
2.80192e-06
0.0369061
3.7013e-05
0.000180753
2.25791e-07
8.53261e-07
4.53154e-06
5.12061e-07
2.36572e-05
2.31312e-06
7.62074e-07
2.43246e-06
4.09514e-06
9.61619e-05
2.46237e-08
3.57078e-07
0.0780489
9.71426e-09
7.45637e-08
4.18817e-05
5.97038e-08
0.000173988
3.49418e-05
0.06378
2.27072e-05
0.255066
1.22843e-05
2.04603e-05
0.039378
0.000152731
1.67507e-10
2.13391e-06
0.0276085
1.55253e-05
7.68596e-05
1.64234e-05
1.57594e-07
6.83324e-06
7.28688e-06
8.25817e-07
0.124429
1.06832e-06
9.92551e-08
1.66228e-06
6.76012e-07
1.55076e-08
8.51222e-05
2.40515e-06
0.267627
7.89622e-05
3.42901e-05
4.50394e-05
5.72768e-05
1.58561e-05
2.82772e-06
1.29889e-10
8.27897e-07
7.24325e-05
2.10986e-05
6.46667e-06
6.8597e-08
1.10182e-05
1.24102e-06
3.91474e-05
3.13237e-08
1.38942e-07
1.29861e-06
2.76299e-05
2.12894e-05
3.20277e-05
3.01138e-08
2.25297e-08
0.00163755
2.16012e-08
1.31678e-09
2.95138e-09
1.39826e-06
0.301767
7.55284e-07
0.000111691
6.78463e-05
1.99581e-05
1.67851e-07
1.18854e-06
0.000218257
7.1656e-06
3.28218e-07
3.6587e-05
3.9147e-09
2.2249e-09
3.88652e-09
9.5368e-05
1.0673e-07
0.321117
0.000517023
3.48678e-05
0.00180123
6.47268e-07
1.5872e-05
4.22431e-09
0.05847
7.78302e-06
6.17071e-06
1.5287e-06
3.89658e-07
1.57562e-07
0.469605
1.65061e-05
0.000426592
6.48944e-05
1.29887e-06
0.11947
3.13997e-07
3.16721e-07
5.01405e-07
6.91643e-07
3.4081e-05
4.67775e-07
2.38514e-05
1.71292e-05
0.000489781
3.512e-06
4.37383e-10
0.000187081
3.80363e-07
0.153258
3.28269e-06
2.32512e-07
1.23812e-06
1.87415e-05
0.0598183
0.0293456
1.79847e-05
4.68427e-05
0.0893147
3.38019e-06
2.45313e-05
0.045828
1.20582e-05
5.55033e-06
0.169103
0.0183892
1.02706e-05
3.23323e-05
1.42794e-08
3.77019e-05
0.0016697
9.93399e-06
1.10537e-05
0.000370639
1.22826e-09
0.0228101
8.85718e-09
2.79574e-05
0.190179
1.19963e-07
1.17164e-05
4.60075e-06
3.72958e-07
4.31802e-08
4.74141e-05
4.15076e-07
1.07972e-07
2.97808e-05
9.68139e-06
1.31897e-08
0.0229627
0.0434276
4.62368e-06
3.1527e-10
2.08057e-09
0.000141755
1.36579e-05
5.24471e-06
4.22133e-09
9.37925e-08
0.000129576
6.7843e-05
4.62933e-05
8.13961e-05
0.355426
6.69042e-10
0.13762
1.63394e-05
5.14208e-06
0.0544253
1.06682e-06
2.10319e-08
0.0224969
8.98107e-10
6.59484e-06
5.95992e-06
7.33382e-06
1.08507e-06
9.27619e-09
4.21424e-09
1.59588e-08
2.01212e-05
0.130693
0.20767
3.00125e-05
2.466e-06
1.78536e-10
0.0549847
0.220172
0.000274967
9.35059e-07
1.29454e-07
0.000951123
0.000239662
2.44782e-07
1.2679e-08
2.0553e-06
7.72247e-06
3.4407e-08
1.09079e-05
6.72599e-05
0.0591339
0.199872
5.28147e-05
0.000829371
9.63674e-09
3.60054e-07
3.13252e-05
0.000172585
3.28762e-05
0.00042131
7.42357e-06
1.39923e-05
5.85225e-09
8.5803e-08
1.24904e-05
0.0574494
1.04447e-06
0.173963
1.97454e-08
1.18895e-05
2.28293e-06
1.65895e-05
1.18646e-08
1.50672e-09
1.07764e-07
3.51438e-08
1.20112e-06
0.000316433
9.28627e-09
0.0367892
1.70255e-05
0.15569
1.8068e-06
2.91692e-06
1.62356e-06
1.95202e-06
1.30434e-05
3.18019e-08
2.19344e-08
1.38747e-08
3.07945e-06
9.24897e-06
0.0563572
0.0545573
4.8545e-06
9.19176e-07
6.38939e-09
2.08722e-09
2.49665e-08
1.66862e-06
0.000244047
1.97644e-07
3.60359e-08
3.34866e-09
0.0216334
2.66082e-05
4.27402e-05
0.0398161
8.30975e-07
0.304002
9.68856e-06
4.30813e-07
4.81816e-10
2.56891e-07
0.0527186
6.82883e-10
2.18893e-05
1.17406e-08
0.00068436
4.41319e-05
8.13713e-05
0.000142234
2.77369e-05
4.786e-09
1.40516e-08
0.350928
3.29518e-05
3.43386e-05
0.000226869
4.19325e-07
8.35707e-05
9.43742e-05
2.96206e-06
3.25232e-06
0.000291552
8.15957e-08
0.000689612
0.0386122
1.35379e-06
2.003e-07
8.1808e-05
8.94846e-07
0.0336081
0.177807
2.12008e-05
9.58332e-10
0.00402793
3.33245e-07
2.17438e-05
1.50999e-06
0.000119406
1.11334e-08
0.00086786
8.52129e-05
0.000130633
2.03422e-05
0.000119303
2.82103e-05
5.33978e-06
1.44853e-09
0.000154488
4.52712e-05
5.68831e-05
6.48828e-07
9.46042e-06
0.000120265
0.000441697
9.01697e-09
3.30081e-08
3.53487e-08
4.95856e-10
1.26115e-07
0.0212897
0.000404952
0.000139439
3.94435e-05
0.00020094
8.14046e-05
2.96993e-10
1.12346e-05
5.98306e-09
5.30011e-07
7.27447e-09
2.54463e-05
0.0019934
1.5074e-05
1.11065e-07
1.2928e-08
1.44273e-06
1.23394e-07
7.66146e-09
0.143001
9.08351e-06
0.000656748
0.000994754
0.000713432
8.14486e-09
0.000658922
0.000733786
0.00131189
0.000711488
1.88983e-09
5.24126e-10
3.15677e-06
8.72088e-06
6.68962e-05
0.00031295
0.0411155
7.76542e-06
3.20053e-05
4.37872e-06
0.000545718
3.25547e-08
1.43409e-09
0.000109787
0.000365788
0.0257344
1.0296e-08
0.115164
0.000123721
3.29852e-07
9.03064e-05
4.83091e-06
8.66289e-05
2.21948e-06
9.48507e-05
5.32191e-09
8.90327e-06
0.00213841
3.56128e-05
5.62816e-08
0.00173251
4.33115e-05
1.03512e-05
0.00318212
8.19946e-08
7.61155e-06
5.56403e-05
9.069e-05
8.7387e-07
0.188787
5.56142e-08
8.36838e-07
2.63087e-08
0.115509
0.118462
2.04595e-06
1.76202e-06
0.000153851
0.0543077
2.99378e-08
1.04192e-05
1.95239e-05
1.29064e-05
1.25992e-06
0.191137
7.02766e-06
1.60927e-05
0.00349378
1.5758e-07
6.94484e-06
1.65408e-06
2.43784e-06
1.65782e-09
0.0023935
0.00393186
1.1143e-07
7.31143e-07
1.24619e-06
0.00010021
7.64509e-09
0.0392488
2.81692e-07
9.87861e-06
1.08576e-06
5.22952e-07
4.79607e-06
3.32488e-05
1.26303e-06
5.03362e-06
0.00024081
1.49677e-06
1.32851e-06
0.0424116
7.58412e-07
3.35408e-06
2.47779e-06
1.95293e-05
1.7316e-10
4.12616e-09
1.33254e-09
5.33006e-06
5.51594e-08
0.0655096
2.17478e-05
1.16117e-05
3.44406e-09
3.11385e-05
0.11476
7.85534e-05
1.33994e-05
5.91452e-05
1.21685e-05
1.98925e-07
7.88706e-08
2.38384e-05
4.08245e-06
2.66155e-06
0.000533469
9.36452e-06
4.74378e-08
2.48768e-08
2.07864e-06
7.35296e-08
6.66458e-06
3.98798e-08
1.15246e-05
1.58998e-05
1.898e-07
1.40889e-09
0.0450788
7.07024e-09
2.14412e-09
2.41956e-05
0.0556796
1.93009e-05
2.20123e-06
1.98322e-08
9.61918e-06
5.20226e-06
2.16532e-05
5.90178e-06
8.12816e-09
1.70209e-06
1.513e-06
5.48171e-06
4.13995e-09
5.44413e-09
4.99081e-09
5.24724e-06
1.67324e-05
9.46271e-07
1.43394e-08
7.38252e-06
4.9933e-05
2.0445e-08
2.41932e-05
4.42487e-07
4.10911e-08
6.94259e-09
3.7604e-05
2.36664e-07
2.0339e-05
1.62595e-09
2.49677e-05
7.99425e-09
1.5148e-06
0.000341933
1.32493e-07
5.70712e-09
0.0676635
3.18693e-08
0.055664
2.44654e-07
4.49768e-08
9.30945e-06
2.44693e-05
0.0454714
5.60319e-05
0.0492387
0.0598304
8.74694e-05
1.10517e-05
0.0398186
1.06463e-05
1.65858e-08
4.15577e-05
0.136873
0.0365084
0.0416183
1.08153e-08
1.02047e-05
1.56768e-08
5.62353e-06
9.74498e-07
7.79462e-06
0.000168374
6.94252e-06
5.14582e-07
1.48896e-08
3.71317e-06
0.000288468
2.35962e-08
1.149e-05
3.6677e-05
1.95238e-06
7.36449e-10
6.07666e-05
2.53834e-05
2.50099e-05
1.70458e-05
1.56815e-05
2.25276e-06
7.19543e-06
0.000148401
8.5564e-06
6.70641e-06
0.000123328
0.000449254
3.58657e-09
6.34338e-07
2.79684e-08
1.92169e-05
8.87516e-08
2.2873e-06
1.03615e-10
0.000388505
0.382684
0.0864384
0.000143716
4.04313e-09
1.22913e-05
0.0535333
0.100534
2.43767e-06
0.000265981
2.17515e-06
5.43884e-07
1.20742e-07
2.47595e-09
8.87382e-06
4.18096e-05
3.85554e-08
4.75816e-09
1.71605e-05
1.63217e-07
0.172215
0.0531832
1.14695e-05
5.76194e-09
1.14034e-08
0.0415047
4.61937e-09
2.44487e-05
1.12299e-08
0.000598244
1.89464e-08
5.04312e-06
5.03191e-08
6.22945e-09
0.00105882
0.150711
0.0637563
1.45673e-08
0.0680535
4.28409e-08
1.31435e-05
1.59122e-06
0.114681
2.38559e-07
0.000155439
4.06593e-09
1.91308e-06
0.000270533
1.65019e-06
0.000158785
9.38127e-09
1.0931e-05
3.10913e-05
2.02724e-05
5.11947e-06
3.61529e-07
3.25941e-07
3.32045e-06
5.98348e-07
9.33063e-09
3.28145e-09
0.0729266
0.0366541
1.46499e-08
0.0817697
5.20557e-10
1.96169e-08
5.16825e-05
5.40763e-09
4.92736e-09
0.038752
2.09429e-08
7.87563e-10
0.000624201
2.01163e-09
9.41741e-10
4.90537e-05
0.0903876
1.21014e-07
0.0366273
9.13604e-09
4.41952e-06
0.0487453
6.1812e-06
0.000841739
5.0208e-10
7.11464e-08
1.03109e-06
1.71163e-07
0.204807
0.0441681
0.000106427
3.07884e-08
0.0456578
7.70663e-10
1.77268e-08
3.19472e-09
0.100048
0.00175356
8.45332e-06
1.32958e-09
1.27984e-06
0.047494
0.0008862
3.72787e-07
0.000248801
0.105922
0.0834782
3.49579e-05
0.0828482
0.000913335
0.0421025
4.12315e-05
0.0639942
0.000337291
4.51488e-06
1.43529e-06
2.2539e-06
0.00044952
0.000907108
7.41024e-10
3.64676e-06
7.33414e-08
4.41295e-05
7.28521e-06
9.92886e-07
7.7739e-06
0.000288498
1.72392e-07
7.89684e-06
8.31444e-08
2.56751e-08
2.94001e-08
4.45834e-08
4.93898e-06
4.36683e-08
4.91037e-08
7.08424e-08
1.07555e-05
4.23683e-05
1.48755e-10
1.6293e-09
5.83707e-08
1.02616e-07
1.09048e-06
0.00125274
0.00204241
0.000127251
8.77392e-09
3.12607e-05
5.51457e-06
0.0457317
3.14551e-05
1.27354e-05
5.51791e-07
1.06952e-06
2.41744e-06
0.000218606
0.000115033
0.175231
0.0662731
8.09883e-08
0.000811263
0.000290038
1.16328e-08
2.61232e-06
4.51658e-06
3.85068e-08
1.69319e-06
3.78809e-06
0.061324
2.56566e-10
8.2022e-05
1.46343e-08
0.0472228
5.03311e-05
0.0350271
3.26806e-05
4.99971e-09
9.26706e-09
2.56138e-08
2.46083e-05
2.30773e-05
4.03768e-06
7.11883e-06
9.86665e-07
0.000748568
0.000280112
8.41682e-10
0.000114342
4.64289e-05
5.04496e-05
9.34363e-05
0.00290716
4.01456e-06
0.0969056
5.19205e-08
5.71623e-06
0.0378372
1.06241e-08
0.000258759
0.00707087
3.96851e-08
9.96012e-05
1.46106e-08
1.82599e-07
2.46583e-06
3.76142e-06
5.32943e-08
6.98799e-09
6.63944e-07
2.61231e-09
4.97763e-09
0.000123536
2.38316e-08
5.78921e-10
2.8335e-05
7.61501e-09
9.68255e-08
2.63306e-07
0.000210549
2.15278e-07
0.000165041
1.06575e-07
4.73175e-08
2.21322e-05
6.47115e-05
0.000225398
0.0418261
7.90814e-05
4.15211e-05
2.26559e-06
0.312248
0.30361
1.22063e-07
2.82379e-05
1.58823e-08
0.0444341
0.0375159
0.000395706
0.0875287
0.0675745
7.04499e-06
1.34237e-09
0.000111454
1.59677e-08
1.53507e-09
4.02658e-07
1.56828e-05
6.63452e-09
1.70121e-05
3.36294e-05
5.0984e-09