/*--------------------------------*- C++ -*----------------------------------*\
  =========                 |
  \\      /  F ield         | OpenFOAM: The Open Source CFD Toolbox
   \\    /   O peration     | Website:  https://openfoam.org
    \\  /    A nd           | Version:  10
     \\/     M anipulation  |
\*---------------------------------------------------------------------------*/
FoamFile
{
    format      ascii;
    class       volScalarField;
    location    "12.5";
    object      SgT;
}
// * * * * * * * * * * * * * * * * * * * * * * * * * * * * * * * * * * * * * //

dimensions      [1 -1 -3 -1 0 0 0];

internalField   nonuniform List<scalar> 
111485
(
3.9797e-15
0.0080656
0.0237075
8.25952e-16
0.0488801
2.1098e-15
0.0457836
0.00614815
0.0188302
0.00118876
0.0461271
0.00937199
0.00470536
0.000771876
0.00646159
0.0308064
0.00139696
2.5964
0.0103221
1.12768e-14
1.21597e-14
1.98713e-16
0.0262876
0.0349166
0.00849145
1.70406e-15
0.0399214
0.00175057
0.01579
2.75253e-16
0.0441694
0.0192786
1.26728e-15
6.16488e-15
0.00699553
1.76525e-14
0.0105133
0.00417671
4.1366e-08
0.02377
1.42632e-15
0.0710365
0.0158186
0.00147089
5.8819e-05
2.54035e-14
0.0302567
0.000714918
0.0476243
8.30527e-15
5.25775e-15
4.75334e-14
2.55027e-14
0.0503737
2.84164e-14
0.0434164
0.00318346
8.94397e-16
2.14459e-05
0.00478967
0.0160719
1.28291e-15
0.00464677
0.0954369
2.54267e-14
0.0032516
0.313783
0.0945904
0.00107567
0.00590851
1.43696e-05
0.0064072
1.15201e-14
0.00281868
2.68149e-15
0.00069926
1.0283e-14
0.0413066
6.81129e-15
4.09327e-15
2.2009e-06
0.0337796
6.12714e-15
2.61075e-14
0.00911521
0.00396815
3.87743e-10
0.0249963
5.74407e-05
0.00733666
0.000304653
0.0405896
0.0116262
5.76957e-05
0.0526703
4.43063e-15
6.05377e-15
0.00177112
2.58108e-08
0.00118167
8.3267e-15
0.0183461
4.94049e-15
0.0184157
0.00465219
7.46897e-16
3.78264e-15
0.00757809
0.00398994
6.50988e-08
0.00545854
0.0047322
0.00367614
0.00312007
8.14604e-15
3.31421e-05
3.04761e-15
2.32362e-14
0.0126138
1.49887e-15
8.51058e-15
2.19813e-14
1.54722e-15
3.66045e-15
0.0015563
2.79276e-06
1.07984e-15
0.00166503
4.05569e-16
3.4987e-05
0.00138676
0.0322593
1.1021e-14
8.52643e-14
3.40299e-16
0.0485272
1.98423e-15
0.0424852
0.025073
0.00267322
0.000238439
0.00199838
0.0224057
0.00275974
0.00388789
0.0129684
1.92069e-15
1.1794e-14
1.42781e-14
0.0278885
0.00161481
1.07508e-15
2.18256e-07
0.00484233
4.69513e-07
0.0106578
0.0163542
0.0104453
6.81867e-08
2.98383e-15
1.6345e-15
0.0522554
0.0232255
1.86718e-06
3.51126e-07
0.00570924
0.00350119
1.74783e-15
4.58868e-06
4.72233e-05
4.53001e-16
1.06199e-15
0.000131305
4.00496e-16
0.00559838
0.00211264
3.861e-16
1.69381e-14
3.33763e-15
1.97493e-14
6.50402e-15
1.8413e-15
0.0014809
0.00679036
0.0295043
0.00415863
0.0074558
0.00393197
8.18586e-05
2.89631e-15
0.00470659
5.19882e-15
4.73484e-15
0.00640725
0.0105236
0.0277164
0.0110817
0.00497276
4.04859e-15
0.00659011
0.000536375
4.32633e-05
0.0137765
0.00231019
4.23298e-17
0.0037048
0.0257408
5.14139e-14
0.000172198
0.00767845
0.00208384
0.000357362
1.94524e-14
2.16126e-15
0.00810525
9.64767e-12
0.119909
1.17697e-14
0.00655578
0.0202434
0.119723
5.25734e-15
0.00316707
0.0135679
2.02947e-13
3.24634e-15
9.28866e-16
0.153926
2.84882e-07
1.36178e-14
7.3201e-15
0.0093587
0.00782812
0.0148046
1.112e-14
6.14125e-15
1.21792e-05
1.14912e-14
0.00245735
0.00935213
0.0163973
0.0115088
0.00953808
3.96678e-15
2.61471e-07
0.000621879
5.05723e-15
4.01641e-15
0.0308702
0.0206757
2.02903e-15
0.00633493
0.010606
9.65756e-16
1.09149e-13
0.000118434
3.86154e-15
1.11583e-14
4.33971e-05
2.94491e-15
0.014985
0.0109251
0.00368424
2.10439e-14
0.0118239
3.67454e-16
1.16112e-16
1.33193e-14
1.96527e-08
0.0226776
0.00607112
0.00533484
0.0367807
0.0121146
0.00159659
0.00057789
0.0328498
0.00892654
5.4401e-16
7.00398e-16
2.55826e-07
0.0225944
0.0243604
0.0120497
2.57574e-16
0.00696589
0.00205459
0.00297401
1.81151e-06
3.71863e-06
0.0135858
0.00216659
0.00189373
9.06662e-15
0.000675742
6.06977e-15
1.5296e-07
2.6261e-13
0.243815
0.0684456
0.0120413
2.09766e-15
2.40225e-15
0.00893612
0.001741
6.43837e-15
4.39056e-15
3.41055e-15
0.000299427
0.0576684
0.00389306
0.0139332
0.0192483
3.37404e-15
4.13956e-15
6.30257e-15
0.00377892
1.51086e-12
0.000814522
0.186062
3.30332e-07
1.59805e-15
3.35474e-16
8.90029e-16
4.79002e-14
0.059627
0.0120173
1.30212e-15
0.00518677
4.04459e-14
3.73602e-14
0.0667967
0.00584532
0.0113903
0.00918827
6.05376e-14
3.5163e-14
2.28306e-15
0.00933719
0.018854
0.0046988
1.40289e-15
3.02159e-10
0.000166932
0.00212043
0.00799008
3.61246e-05
0.0285129
2.63668e-15
0.0376043
0.00349743
0.00774617
0.0248303
0.0135142
3.45096e-15
1.78865e-14
2.49134e-14
2.81399e-15
0.0316322
0.00970456
0.0335889
0.0673634
4.48727e-16
0.0188421
2.05942e-16
4.26149e-15
0.0164278
1.40468e-15
0.0737369
8.17494e-15
1.16712e-15
0.0229983
1.40291e-15
0.0137019
0.000299301
3.60975e-15
0.00101919
0.0163594
8.28218e-15
0.00874564
0.0094704
0.00805129
0.000655687
0.00275674
0.00565624
3.20906e-14
9.09464e-15
0.00190108
7.20367e-15
0.00612193
0.115744
1.29719e-14
3.72179e-15
0.0273467
0.000110901
0.00817786
0.0206673
1.0062e-15
0.0456739
0.0187706
7.26696e-16
0.000816645
0.0024859
2.15003e-15
5.39151e-16
0.0110772
0.00520407
5.99495e-15
9.53451e-18
3.20203e-08
1.43178e-15
0.012052
9.35028e-15
1.05533e-15
0.0169407
1.70611e-06
0.0125445
0.0293647
1.10607e-15
3.52505e-14
0.0014462
3.42243e-15
0.000156679
0.0139591
0.12186
0.850843
1.09697e-14
0.00274567
0.000481729
1.90934e-15
0.0384285
0.0315669
1.87544e-14
7.52142e-09
9.33497e-05
1.35357e-14
0.0240776
0.0244975
0.0140187
4.60046e-15
0.000662313
0.0173428
0.0229369
8.13794e-07
2.66437e-14
6.20989e-10
8.26854e-16
1.2379e-05
0.0314901
1.09511e-14
0.00855285
9.6733e-05
1.61333e-13
5.56788e-16
6.06339e-16
8.47243e-15
0.00366849
0.00963515
0.00647274
0.00216066
0.00278292
4.4464e-15
0.00204513
2.51627e-15
0.0401375
1.66129e-15
3.31527e-16
4.65579e-15
0.0362019
1.19556e-14
5.30158e-15
1.77444e-07
1.91251e-16
2.7268e-14
0.00104821
9.6985e-15
1.46573e-14
8.17866e-16
1.82961e-15
6.76812e-15
7.76052e-15
3.98492e-16
0.00716762
9.42871e-15
0.000507765
0.00188904
0.000955104
5.08274e-15
0.000856925
4.43112e-15
2.23411e-16
0.00277457
0.00181203
0.0274798
0.0244816
1.41926e-14
0.00201867
0.0808428
0.00846758
0.0010312
0.00325364
7.08437e-16
0.0234276
5.64259e-14
0.00493342
3.22816e-15
0.07511
3.72475e-15
0.0209886
0.000239417
5.06006e-07
4.78612e-15
0.00199955
1.08377e-15
0.0801077
0.0482049
5.59844e-15
1.51826e-14
2.76765e-14
3.35804e-15
1.39052e-09
0.0549972
9.50827e-15
4.98909e-15
0.00255443
3.98961e-16
0.0333914
3.15912e-16
0.000332955
1.29006e-15
0.000492523
1.1044e-06
0.00103348
0.0125532
1.1018e-14
0.000403226
7.00295e-15
2.52205e-15
0.0151374
1.84059e-15
3.09064e-05
1.43588e-14
0.00161585
4.86996e-16
0.0642359
9.77382e-16
1.5252e-14
0.0167164
0.00331213
0.00170988
0.00392863
0.00675739
0.0208732
6.36359e-15
0.0247082
0.00620825
1.98949e-15
7.6424e-08
0.0395651
0.0149938
2.91157e-14
0.00404766
0.00663284
0.00171257
0.0010532
1.77395e-10
0.0137509
0.00118383
0.000136067
0.0239623
0.0138275
0.00064748
2.17776e-14
3.15919e-09
0.644757
2.37524e-15
0.000367829
6.79834e-16
7.39509e-14
0.00732623
0.00286136
2.13187e-07
1.50462e-05
1.8093e-14
0.0165195
0.0109853
2.8425e-15
1.63342e-10
0.00158647
1.72739e-14
1.99931e-15
9.13836e-16
4.78678e-15
0.0134186
6.2294e-15
2.35039e-15
0.00884698
0.00196075
7.57609e-14
0.0104323
1.594e-14
0.00853963
3.56706e-15
1.15416e-14
0.0533602
1.30427e-15
5.47566e-16
2.87352e-14
0.00430135
8.77627e-15
0.0293559
0.00625752
5.07479e-16
0.0862079
0.0024261
0.0282426
0.0275803
0.000488627
7.83488e-05
2.42326e-14
0.0540623
0.0457961
1.34307e-14
0.000310552
0.0404886
0.00776143
0.00143851
0.0275249
0.0259777
4.20369e-15
0.0106369
6.08741e-06
1.47099e-14
0.0344835
0.000257541
6.57326e-14
0.0110001
0.0402147
0.00135624
0.0212047
0.0192883
0.00722794
2.82847e-14
0.01027
0.000317537
4.0419e-12
0.0167739
0.017488
0.0356857
1.82657e-15
0.00187365
4.38465e-16
1.91493e-15
1.99331e-14
1.21022e-14
1.42555e-05
1.95608e-14
2.80821e-10
3.95674e-15
4.44298e-15
7.71276e-05
0.0427791
1.42541e-14
0.0322674
9.01464e-15
5.82277e-15
2.68005e-14
0.0388334
0.000418853
4.88457e-14
3.07357e-14
4.7045e-15
9.1128e-16
0.211143
0.0693478
1.45733e-14
0.00194628
2.18792e-06
8.43474e-15
0.0368964
0.0082407
0.0117145
3.76578e-16
4.61479e-15
0.00040537
0.00105926
5.03395e-14
3.65871e-15
8.67213e-15
0.00720612
6.55976e-15
2.64858e-15
5.43491e-15
0.0414604
0.002015
6.25443e-16
3.90947
0.323555
0.00986604
2.20595e-16
1.37426e-14
0.055741
0.000411625
6.78024e-16
5.78665e-06
0.119954
0.00251355
0.0114331
3.60189e-14
0.0533988
0.00184597
2.60802e-15
2.1958e-14
2.89189e-15
7.65546e-15
6.91565e-16
1.77573e-15
0.0218283
5.19857e-15
9.11748e-16
1.4584e-14
0.0114886
0.0238461
8.16787e-16
6.46157e-16
0.105573
0.0141329
0.00975267
1.15225e-14
9.74738e-16
0.0366411
6.28911e-16
0.00173054
0.00262382
0.00390879
3.17677e-15
6.46933e-16
1.08257e-15
2.42621e-15
0.0149815
1.47779e-15
7.89207e-15
0.000991781
1.05913e-15
0.0228209
0.00183845
2.04258e-14
0.0368195
0.377102
0.00249318
0.0293246
0.000150265
0.0442821
1.02579e-10
1.06914e-13
0.0233272
0.0692005
0.00604601
1.49595e-14
6.0634e-10
0.733991
0.0099224
2.53475e-15
0.00258291
0.00258748
0.00121424
8.48459e-15
3.57872e-15
1.38583e-14
0.0133625
6.11932e-15
0.00264007
4.76544e-15
0.00123185
0.00139158
0.0361478
0.000582996
2.77559e-15
1.09277e-14
2.43996e-16
0.0204381
1.40118e-15
2.01145e-15
6.59404e-05
5.25205e-16
2.00129e-16
2.86733e-15
1.11711e-15
0.00988848
2.73253e-14
3.74648e-15
4.69198e-10
2.14973e-14
2.32985e-15
2.33983e-14
1.74698e-15
3.10664e-06
0.00159003
1.61008e-15
0.00387943
6.88199e-06
3.22262e-07
6.17491e-05
0.00408233
4.41919e-15
9.12083e-06
0.00999698
0.000383832
2.36978e-15
3.38005e-09
0.000833312
1.95026e-14
0.00969366
0.00019542
1.67739e-06
0.0235733
0.00926171
0.00224383
0.00494756
0.00196399
4.55768e-15
4.75893e-15
0.0323931
0.0259805
2.00236e-14
0.00834758
0.0544637
0.0281701
6.99973e-14
0.00131339
2.29609e-15
0.0101201
0.0138323
5.01116e-16
0.0015625
0.000446163
1.22847e-06
0.00486073
3.21227e-15
0.0481634
1.51276e-05
0.00149489
3.17224e-05
1.28265e-05
5.12391e-15
7.07997e-15
0.0071292
3.7811e-16
0.000115207
0.000258747
0.000293293
5.24331e-08
6.9521e-08
3.43098e-07
9.44355e-16
1.24052e-14
0.0224847
1.89676e-15
0.000114144
0.00203657
1.93426e-16
3.1926e-15
6.08267e-07
8.66689e-10
5.47332e-16
4.84682e-06
1.96954e-14
5.54114e-15
1.76997e-15
1.44655e-15
8.15077e-14
8.70144e-16
0.000287394
1.32891e-14
2.04659e-15
5.53441e-15
6.28504e-06
5.11336e-05
0.00174242
0.00908878
2.56428e-15
4.58556e-15
0.000168103
2.85157e-15
4.14964e-15
1.80257e-13
0.0186631
0.0420772
9.63689e-15
5.77925e-16
2.13074e-14
2.08076e-14
3.19581e-16
2.02557e-15
0.00698105
4.33729e-15
5.04125e-08
0.0264788
8.1284e-16
1.14741e-15
1.61635e-15
2.65705e-05
5.93619e-15
5.89117e-16
4.11585e-15
8.97315e-06
1.58111e-14
0.00438402
9.60967e-07
7.05496e-09
3.52946e-15
7.15184e-05
0.00207843
0.0442497
1.63908e-14
8.09617e-06
0.00548768
3.13638e-15
1.33142e-15
5.48797e-14
2.94933e-15
0.00804804
0.00163254
0.00333286
1.70437e-07
6.45537e-16
0.0235207
1.86856e-14
5.15643e-15
1.9106e-14
1.89578e-15
0.0261079
1.16207e-14
4.05026e-14
1.72271e-06
0.0509367
1.94812e-14
0.00237836
1.04774e-14
0.000854273
4.44638e-14
3.70011e-15
6.1477e-15
3.4645e-15
0.0025198
0.000611104
0.313885
6.34421e-16
8.89488e-15
0.00218044
4.92858e-15
6.74218e-14
1.51566e-14
0.0366934
9.09008e-06
0.0314579
2.37168e-15
1.03506e-05
4.71176e-05
2.67441e-14
0.000120597
5.30218e-15
0.0012608
0.0252498
0.0199142
0.00122053
0.000236051
3.60009e-15
4.2617e-15
8.39722e-15
2.1056e-05
1.32043e-15
0.00729695
1.3698e-15
0.174792
1.26181e-15
0.0415992
0.00306206
4.12777e-15
1.5067e-15
1.38319e-15
1.39239e-15
0.0403049
6.11407e-14
1.75126e-14
0.0118494
0.00662207
2.58531e-14
1.00562e-13
6.90033e-14
4.47049e-14
1.62492e-14
2.86408e-16
0.0250729
0.000413802
1.87905e-15
5.53633e-16
4.98018e-07
8.64908e-16
0.00149942
0.00010841
8.4176e-15
0.00340236
1.08012e-15
0.000372331
1.13647e-15
0.00106893
1.17069e-15
7.68108e-08
2.09527e-06
0.000646008
0.0178011
0.0334522
1.16755e-06
5.46505e-16
0.000509442
2.9547e-15
0.00456097
1.34256e-15
6.04149e-16
3.15572e-14
4.52451e-15
1.77408e-15
5.77102e-15
0.00705447
0.00789416
5.32418e-16
2.72791e-14
8.99763e-15
0.000765024
1.32665e-05
5.31853e-15
0.0181233
0.000179657
1.87971e-14
0.0231555
0.00803003
0.0036118
0.0116419
4.09933e-15
4.94067e-15
8.82257e-15
2.33478e-15
0.0368556
1.77733e-15
0.112093
1.33689e-15
0.000300078
0.000728732
6.90427e-15
0.000931726
1.33607e-15
3.20005e-15
0.00297156
2.35473e-08
0.00874655
5.71029e-15
1.19099e-14
1.41183e-15
0.000811569
1.42791e-14
9.84278e-16
4.44595e-15
2.99276e-07
2.54521e-14
7.25335e-06
2.82107e-14
1.2776e-14
4.63829e-16
0.0182638
0.00961471
0.0180804
0.0356701
3.98967e-15
1.46756e-05
1.03411e-15
6.40988e-15
0.0097251
1.30293e-15
2.30495e-06
0.000339069
0.00661082
0.000358233
1.089e-09
0.00193194
2.82802e-15
1.14681e-09
4.27785e-10
0.000123503
0.0008026
0.0149458
5.87733e-08
1.66179e-14
0.0305654
3.66662e-15
5.51122e-16
1.44675e-05
0.0738615
5.69672e-08
1.24336e-14
7.21412e-15
3.50068e-07
5.14062e-15
2.90803e-15
1.6985e-05
6.79618e-14
1.58785e-14
0.0395955
0.000219579
0.000170944
0.0223607
0.00720874
9.59384e-15
3.99355e-15
1.83042e-05
0.0041032
9.4192e-17
3.64007e-14
0.00985169
1.90907e-15
1.28076e-14
1.20009e-14
3.49334e-14
2.35766e-13
2.57018
4.97361e-15
0.000205775
1.1004e-15
0.020635
7.77839e-16
1.37916e-12
3.46023e-14
2.34837e-14
4.12205e-16
8.08047e-16
0.00292089
1.76727e-15
1.04322e-15
2.76082e-14
7.6833e-16
1.40032e-15
9.35196e-15
0.00970808
3.8016e-16
0.0107772
0.00302616
5.238e-15
0.00148146
7.29784e-15
0.000494136
1.97514e-06
0.00387624
0.0132521
1.62915e-15
9.25726e-05
0.0077302
8.37377e-06
7.2238e-16
2.67511e-06
0.0189622
0.00470442
8.23619e-15
0.0259891
3.25935e-15
3.40678e-15
1.17403e-14
6.38017e-16
0.008131
2.5618e-14
3.3306e-15
0.00829028
3.01487e-07
0.00266697
2.21131e-15
8.31113e-14
0.000626655
7.56402e-16
7.17954e-05
1.89303e-14
0.0229895
2.00794e-15
1.83398e-16
5.15071e-05
4.03248e-15
0.000134177
2.85969e-15
9.40771e-16
0.00479632
0.000433748
0.00472864
0.0154111
0.217979
0.0201028
2.44004e-15
4.38357e-14
0.00290336
0.0067468
0.0367034
0.0109513
4.17832e-15
0.0123235
2.25913e-15
1.49025e-15
0.0089542
0.0108392
1.61014e-14
0.0131062
1.85388e-15
0.00274535
0.00897496
1.29687e-14
1.9613e-16
2.88353e-15
0.00276554
4.06747e-15
1.87673e-14
0.00411052
0.0212537
3.76622e-06
0.00742359
5.26076e-15
4.48331e-15
8.4529e-05
0.000763519
1.17517e-15
0.0101032
4.09958e-14
0.0025452
1.85095e-15
2.33627e-15
0.0120804
2.67795e-16
3.85317e-05
0.00354796
3.55391e-15
3.43516e-15
0.0043065
5.36886e-11
0.0528252
1.00942e-14
0.256565
4.14948e-15
1.66734e-14
9.05127e-15
0.00733484
6.60403e-15
5.57694e-15
0.00548268
2.04407e-14
0.000240831
9.05627e-14
1.74298e-14
1.60955e-14
1.024e-07
0.000772501
1.15565e-15
4.06258e-16
0.0353226
0.000934811
7.83016e-15
0.000407717
9.47701e-15
1.4744e-14
1.65133e-06
0.0029441
0.00127013
4.40405e-15
7.55614e-16
1.54734e-15
2.17984e-16
1.19894e-14
1.70048e-14
1.4313e-15
1.12181e-15
2.562e-15
2.60246e-14
1.09215e-15
1.25679e-15
3.49021e-14
3.08047e-15
7.23595e-16
2.67606e-15
4.71151e-15
5.88386e-15
2.07166e-15
7.74112e-16
3.99625e-15
0.0175347
3.72962e-15
6.35149e-15
3.07967e-15
0.0064962
7.64988e-15
3.10885e-15
0.276096
2.00878e-15
2.59863e-15
0.0228041
7.55337e-13
4.60411e-15
0.00719477
0.0241246
7.0082e-16
0.00259716
0.00392739
5.09714e-15
0.0129413
0.038902
0.0174762
0.00327727
0.0105512
5.5576e-15
1.69805e-15
0.00297889
0.0107108
0.0031177
5.60633e-15
0.00655609
0.00171486
0.0209399
0.0101771
0.000685454
0.0152405
0.00100061
0.00991251
3.85178e-15
0.0248958
0.00831406
0.0016681
0.00136124
6.59975e-15
6.69238e-15
6.06525e-15
1.64224e-16
9.43048e-15
0.00933425
0.013358
8.71068e-16
8.5074e-16
7.32245e-14
2.91398e-15
2.0451e-15
1.07443e-15
1.03934e-14
6.68627e-15
0.00458999
0.000176446
0.0213555
6.868e-05
2.23415e-16
3.16849e-14
0.0307291
6.16233e-06
3.63425e-15
7.77958e-15
0.00697011
1.06985e-15
1.39028e-15
2.64204e-06
0.00763918
0.0134209
0.0326593
0.0332821
8.94619e-15
0.0139663
0.000328161
1.06624e-14
1.30495e-15
0.0115193
2.96167e-15
3.55988e-15
0.0170619
1.02953
0.000162051
1.0401e-13
7.29963e-17
0.0163357
0.0202157
0.0175481
0.00546363
0.00377923
3.88205e-15
9.30425e-07
2.53723e-09
1.35602e-15
1.66345e-14
0.0165597
4.93914e-16
0.00197442
0.0249633
0.0171341
0.0111767
4.14589e-15
0.00579232
5.02873e-16
3.18357e-15
2.40841e-15
8.57944e-16
0.0024786
0.853053
1.59098e-15
1.68474e-16
2.96361e-06
0.023109
0.00107706
0.00673229
0.0321925
0.00466915
0.0196862
1.82461e-14
1.45191e-14
2.0658e-14
0.0295415
0.00549709
2.60491e-08
1.09652e-14
4.31291e-15
6.14192e-14
0.0214917
0.00253422
2.59889e-16
0.00472154
0.0552645
0.00632088
0.00596846
1.55483e-15
8.23109e-14
0.00667652
0.0224246
2.1623e-15
0.000330456
0.014195
0.000924116
0.00913878
0.00452198
0.00770189
4.36315e-14
0.00327632
0.0201583
0.0353715
4.43711e-10
0.022022
2.12392e-13
0.0160291
0.000147232
4.11435e-15
0.00247646
0.00719842
0.000386943
0.0111536
2.2574e-07
0.000130887
1.54022e-05
0.0373868
0.00349541
4.01091e-15
0.0374518
0.00122023
1.17324e-14
1.99711e-16
4.03341e-08
1.03665e-05
0.000998859
1.06129
0.0338278
0.0108986
2.03412e-07
0.0424443
1.01128e-14
1.55396e-15
0.00387866
4.11632e-15
0.00195014
0.00414897
0.00206298
0.0045152
1.12402e-16
0.000193568
0.104159
1.69826e-15
0.0189073
0.00718706
2.10287e-15
0.00377144
0.000143487
8.62823e-15
6.37427e-09
8.763e-05
6.74693e-15
2.41957e-15
4.74382e-15
0.00416506
0.00441372
0.0136124
1.76284e-15
0.00463274
0.0313055
2.51846e-16
0.00762714
0.0118165
0.0232936
0.00142268
2.76022e-15
0.000501793
0.00877763
0.00993683
0.00855956
0.0359683
0.156466
0.00307915
2.21752e-15
6.94905e-06
0.0485843
2.17525e-15
0.00039886
1.44617e-14
9.83897e-16
5.86963e-16
5.39622e-15
5.28329e-16
0.0031042
4.74676e-15
0.00671772
0.00114193
8.30849e-16
0.00379114
9.58383e-15
0.0134709
9.16737e-15
2.08131e-05
4.2019e-15
0.0206909
0.000142241
1.98289e-06
0.00397335
0.027436
0.0160738
0.00374788
0.0256475
5.82247e-12
0.0217109
0.0520647
0.00915045
1.14373e-15
0.00107403
0.000252783
0.00528329
0.0101953
0.000596769
2.5124e-15
2.32304e-14
1.62439e-15
0.00342782
1.1935e-15
0.000241014
0.000209701
0.00148431
0.000240472
4.11242e-16
2.6627e-14
3.46329e-15
0.00815889
0.0199575
0.00118128
8.34119e-06
0.0017934
0.00649284
0.00172187
0.000820693
0.00656595
0.00572962
0.00250544
1.27226e-14
5.56303e-16
1.35352e-14
0.0126797
0.0104026
2.0065e-14
7.1614e-15
1.58868e-14
0.00785527
0.0177156
6.9426e-15
0.00207928
2.99126e-15
6.15629e-07
0.00452061
0.0838202
2.41021e-16
1.10745e-15
0.00356333
4.89538e-15
5.94624e-05
0.0114478
5.87105e-15
0.0102375
0.0311173
0.0178263
3.4114e-16
0.00132344
7.07257e-15
8.47488e-05
0.0460211
1.07655e-15
5.22083e-15
0.0102892
3.16698e-13
5.87466e-15
4.00382e-05
0.000928938
3.55057e-16
1.01383e-16
1.1674e-14
6.56891e-05
0.00114049
0.00306104
0.0236971
0.0082322
2.8952e-15
6.52204e-07
0.000644088
1.03457e-14
7.49621e-16
2.28889e-16
2.53484e-15
8.33112e-16
8.21904e-15
2.53635e-15
1.69972e-16
1.11359e-14
1.37992e-15
3.07645e-09
1.94621e-14
0.000320733
4.90433e-14
0.000214089
2.31765e-14
5.71881e-05
3.43272e-14
7.97714e-15
0.0263676
0.00869042
5.95713e-14
0.0831016
1.00324e-08
3.43695e-10
1.41776e-15
0.00111
8.26736e-12
0.0025517
5.39124e-06
0.000844376
4.9799e-15
6.20908e-15
0.00109864
2.48828e-08
2.88823e-15
6.31959e-16
0.036736
4.32366e-14
0.0351796
8.47893e-15
3.53105e-15
1.6692e-06
0.0263596
0.00762136
4.01668e-15
0.0002926
2.63622e-14
0.00292107
1.72371e-05
0.00170437
4.1485e-06
3.52865e-15
0.0191845
0.00110234
0.0047899
2.42841e-16
1.43807e-15
1.08807e-15
0.0167657
0.00369553
0.0488385
1.25483e-14
4.17365e-07
1.7926e-15
5.83093e-16
9.95302e-15
6.59405e-15
0.00306179
0.00199101
0.00282295
0.295412
2.59464e-14
0.0255948
0.0338096
0.016317
0.00155688
1.16093e-15
0.00503161
0.00421643
0.00462137
3.48046e-07
0.00960727
5.56366e-15
0.00146608
0.0011717
0.0307898
1.00335e-06
0.00311081
8.57984e-15
0.0169036
6.92013e-15
1.0462e-14
0.00156488
7.10649e-16
0.00583397
2.4144e-15
9.40951e-15
8.61165e-15
3.24209e-15
1.43153e-14
0.000758172
4.05156e-15
0.000537031
6.25277e-15
7.85035e-15
0.0168848
0.00504822
0.00733454
0.00714013
1.95251e-15
0.545478
5.16629e-16
0.0650762
1.93819e-14
0.0166521
0.0221037
0.00219754
0.0528701
6.38449e-14
2.83751e-13
6.52763e-16
0.00204638
1.36213e-15
7.12723e-15
0.0167274
6.41386e-15
2.79381e-16
0.00500814
2.61209e-14
0.0118164
6.5666e-08
2.03117e-14
1.5045e-15
2.214e-14
0.00142112
0.0062998
1.56686e-15
0.0218132
0.000321196
1.62122e-15
0.0945352
9.73089e-16
0.0148457
0.0170204
0.00339646
1.31196e-15
0.0169304
0.00936479
0.000799139
0.00495611
0.0113101
4.92773e-15
4.64443e-15
1.69041e-06
2.28405e-15
7.0967e-16
1.41212e-15
0.0186212
0.0461906
0.00421032
0.00201243
2.35646e-14
0.0466523
0.0431392
0.0039862
0.00219121
0.0086816
0.0194838
0.00252238
1.13042e-15
5.15092e-15
1.80905e-15
0.00657571
8.78321e-15
0.0238309
2.39917e-14
0.000710285
5.0693e-07
0.00249364
0.0205624
9.49211e-16
1.91737e-15
0.00235515
0.000351257
6.27101e-16
1.98323e-15
3.01267e-15
3.55881e-05
0.000284957
0.000136184
0.00076716
0.00949116
0.0828667
2.57964e-14
1.13849e-15
9.95365e-15
0.00367471
0.0170957
0.019055
0.0328284
0.00172075
0.00277841
2.10709e-15
1.59371e-15
1.06441e-13
3.81122e-15
0.00890308
0.0208166
1.79757e-15
1.4771e-14
7.45539e-15
5.69105e-16
8.13579e-15
3.92574e-14
0.0128712
3.93881e-14
0.000971442
0.383848
6.00294e-15
1.37785e-05
0.0214857
0.00068113
6.01373e-17
6.83909e-15
0.00470363
3.74852e-15
0.0134362
9.67826e-07
0.0230198
1.0854e-14
2.47573e-12
1.71435e-15
2.03227e-15
6.14387e-16
6.61849e-14
0.185503
3.87004e-15
0.00562645
0.00116592
9.52864e-16
2.41809e-16
0.00189189
2.09554e-15
3.74793e-15
0.0125542
0.000118702
3.92607e-16
3.92583e-15
1.18249e-14
0.0160234
1.56611e-15
1.79634e-15
0.000401189
0.00250666
0.00295448
1.34121e-15
2.90436e-15
4.77733e-15
0.00360656
0.00177081
0.0122245
0.00351003
6.11095e-15
0.000736993
0.011376
0.00611906
2.49142e-16
1.07715e-15
1.57385e-15
1.46668e-15
8.43859e-16
0.0293443
0.00508582
0.00542662
3.38328e-16
2.3048e-16
2.05506e-16
3.42755e-16
8.65226e-15
9.54131e-07
0.000209898
0.00215105
2.36808e-15
1.51533e-15
6.27157e-15
2.30506e-09
0.0327243
0.1086
1.58954e-15
6.96598e-10
2.3982e-11
1.95253e-15
7.74822e-16
0.00363446
0.00631921
7.27637e-15
2.08112e-15
0.00268081
2.18759e-15
0.000660153
0.00104526
2.01379
2.53417e-15
8.54334e-15
0.0112436
0.000504228
7.03185e-15
0.637538
0.000561275
0.00619696
3.47237e-15
2.94472e-15
8.68616e-15
7.38983e-15
0.00785673
9.20821e-05
8.36197e-15
0.0236063
0.0181117
0.833666
8.23257e-16
7.27653e-16
2.9369e-15
1.38719e-15
0.00637528
6.41993e-08
2.03689e-15
4.1688e-14
0.0177418
0.000782447
0.00472331
1.99118e-15
1.45938e-14
0.0274404
1.93585e-14
2.17289e-16
7.0017e-17
5.15887e-15
0.0209402
1.84776e-14
2.18518e-15
8.55616e-15
0.0247372
0.0117236
4.96352e-16
8.95857e-17
5.04375e-15
0.0146619
1.75505e-07
3.15898e-14
2.78887e-15
4.52668e-15
1.10768e-15
0.00226559
0.0104367
2.95733e-15
0.00195542
0.00103629
0.00454859
5.79539e-14
3.44485e-16
1.11604e-15
4.07816e-16
1.18779e-16
0.0187915
3.51716e-14
0.0141181
8.17079e-15
0.00145167
1.26888e-13
0.00227247
3.07508e-15
2.1588e-15
0.00977025
0.162376
7.41437e-14
0.00339393
8.21112e-16
0.000360162
1.78926e-14
6.91344e-15
7.41717e-15
1.34386e-07
9.33399e-15
0.00031111
8.30577e-16
0.0338509
3.63545e-15
2.40763e-14
1.83014e-15
4.77934e-15
7.44581e-06
0.000126866
1.95561e-15
0.00511306
1.36053e-15
0.00274366
0.0178363
0.00120839
4.41519e-15
4.40625e-06
0.000420393
2.03764e-06
0.00422756
3.32392e-07
0.00157971
1.31507e-13
3.39267e-16
4.2669e-07
0.00533615
0.000230612
4.63609e-14
3.54819e-15
2.11693e-14
0.536949
9.86162e-16
1.27194e-14
4.58917e-15
1.72281e-15
1.76657e-16
3.23151e-05
0.000171178
0.000949295
6.31703e-05
7.66299e-13
0.00130208
2.1527e-16
0.00535787
1.2312e-14
4.45288e-16
3.13675e-15
5.771e-14
1.54336e-05
6.14199e-15
2.26617e-14
8.0487e-16
0.0139896
2.74331e-14
1.51577e-16
0.0098064
2.16152e-14
0.0665821
0.115452
0.522151
2.72737e-16
0.190603
1.10632
1.1538
0.62168
9.77523e-15
9.66152e-16
0.00463967
0.00439174
3.08101e-15
0.00853426
8.58579e-16
0.0304998
3.53388e-15
3.09007e-15
0.000661673
3.13018e-15
1.08124e-16
9.76946e-06
3.69965e-05
1.7407e-16
5.33349e-16
2.27188e-06
1.66529e-14
1.35125e-15
1.90181e-05
0.00769844
0.00140302
2.44095e-14
0.00722777
1.64901e-15
0.00327792
3.84856e-07
0.00678351
4.80539e-16
1.36845e-08
0.00524958
7.33873e-15
1.43427e-09
1.67042e-15
0.0305786
4.78789e-15
0.00917483
1.83824e-15
1.40318e-07
8.47428e-15
7.48612e-15
3.11438e-15
7.1332e-10
4.57661e-10
4.08283e-15
0.0114085
0.00837173
5.95568e-15
1.47398e-14
0.030545
0.0163596
0.173904
1.41375e-15
6.37763e-05
0.0235613
0.0434591
5.68528e-08
8.17175e-15
0.0540775
2.45518e-15
0.21249
5.51304e-15
3.37357e-08
3.32448e-08
3.09638e-15
5.2436e-05
2.18923e-14
0.0188385
4.30933e-15
3.21424e-15
3.90504e-15
6.37869e-15
3.24679e-15
1.14722e-14
0.000246744
0.001777
0.126463
2.28006e-14
5.01455e-15
0.038368
2.87091e-15
2.93718e-16
5.63493e-15
5.01773e-16
1.03855e-14
0.00537096
1.74207e-15
7.62999e-15
7.99231e-17
0.00298553
4.83912e-16
4.97133e-15
9.19976e-16
0.0029619
3.7197e-15
0.0055275
0.214975
0.00484807
0.00506274
0.0242792
2.19316e-15
1.98693e-14
1.64864e-15
0.0028652
0.00164357
1.71917e-16
5.43491e-14
0.000539535
2.13157e-15
7.01097e-15
0.309729
6.73618e-15
0.0203683
9.25315e-15
0.00216028
0.00311355
5.84734e-15
4.29534e-15
2.84414e-14
5.44421e-16
2.89613e-15
0.0173703
3.74356e-14
0.00422308
1.28564e-15
4.05315e-15
0.00627203
2.23679e-14
0.0118215
2.0516e-14
4.61352e-16
0.0021624
6.58029e-05
0.129457
2.67709e-14
7.68658e-15
1.10516e-15
0.00309034
0.165159
6.39954e-15
6.34945e-16
1.25411e-14
0.00135242
1.57627e-15
0.0181071
0.0284551
1.55005e-14
3.98867e-15
0.00646052
1.5223e-14
1.87516e-14
2.86158e-15
2.54304e-14
1.1091e-14
0.0624533
8.68019e-14
2.42808e-14
9.4773e-16
3.65378e-14
6.59193e-15
2.09905e-14
2.74914e-16
3.41345e-15
5.78584e-14
0.00683505
1.95702e-14
0.00764438
1.87623e-13
5.85119e-15
0.537398
0.0024512
3.02945e-14
1.49633e-14
3.71844e-15
0.00216202
2.74898e-14
6.93239e-16
1.36698e-14
2.21604e-15
0.00662273
1.2506e-16
0.0044476
4.51921e-15
0.00895466
2.03957e-15
0.0527736
4.46022e-14
6.61824e-15
0.0194597
3.50543e-15
6.16496e-17
0.0248814
0.000266802
6.34259e-15
3.58232e-15
0.0339079
0.00934031
0.00579568
0.000742537
0.00161958
0.0160173
0.000906896
0.00458606
2.49402e-15
0.0257763
5.77051e-15
7.14754e-15
1.49571e-15
3.74963e-14
1.18582e-14
0.00930306
2.35427e-15
7.32604e-16
8.97581e-17
3.26516e-06
8.14776e-06
5.21652e-14
0.00218016
1.96432e-14
0.0038054
7.36645e-15
1.12804e-06
0.0028488
2.21744e-13
0.0409014
8.76161e-16
1.37301e-14
1.10842e-14
0.00264881
0.0011957
8.07238e-16
8.7324e-16
0.0022233
1.46738e-15
0.610708
2.21243e-15
0.0927778
2.79606e-15
3.92341e-16
1.10773e-15
6.57705e-16
0.00895336
2.58373e-15
3.61864e-05
5.56888e-15
0.0089778
5.98739e-15
4.01605e-16
4.96371e-12
8.72306e-14
1.068e-14
4.53113e-15
3.46413e-15
1.66825e-14
0.00392858
0.176514
4.28645e-14
1.09384e-15
0.000348471
1.22056e-15
2.54403e-15
1.05033e-06
0.0157171
0.000141255
1.60098e-14
0.000600943
0.00312218
0.00475721
0.00762611
3.98619e-15
3.1618e-15
4.39143e-14
4.29826e-15
1.12e-15
3.55133e-15
3.07274e-15
1.51235e-14
2.70841e-15
1.00594e-15
4.86361e-15
1.62144e-15
0.0691766
2.31633e-15
1.71667e-16
1.29575e-10
1.1173e-14
5.35279e-15
1.01907
4.2665e-16
2.66413e-16
0.00180036
1.40441e-09
6.61221e-15
5.65446e-15
3.09536e-16
0.0210238
1.82006e-14
1.07039e-14
4.68384e-08
5.06718e-16
1.11668e-14
4.8186e-15
1.31786e-15
0.10878
2.36518e-15
0.000161317
1.14986e-15
2.28126e-15
1.23703e-16
9.66745e-16
1.30662e-15
1.83461e-08
3.41305e-08
0.000105824
4.18659e-15
6.62383e-15
3.95561e-15
8.15617e-08
2.86019e-15
2.74449e-07
1.05475e-08
1.95312e-14
7.65896e-15
3.82028e-14
5.07847e-09
1.33347e-14
1.40389e-14
2.06498e-09
2.1894e-14
0.0292997
1.24747e-14
0.0064171
6.89937e-15
2.15883e-06
3.69038e-16
0.00136421
4.77785e-15
0.00387262
0.0236388
2.79284e-15
0.00238021
1.28495e-05
2.95193e-15
0.00988602
4.43131e-15
4.16686e-15
7.0938e-15
3.83201e-16
1.69084e-14
9.53246e-16
4.21313e-16
6.18232e-17
0.26131
6.26609e-15
3.31517e-15
2.26325e-15
7.75411e-16
5.88041e-15
0.0300129
0.773494
2.84534e-06
1.08788e-05
3.23146e-16
0.00191992
0.0013338
1.06829e-15
7.90885e-15
2.19088e-14
1.44723e-15
2.04862e-15
4.11451e-15
7.52998e-15
4.17448e-15
0.000368177
2.43685e-15
4.75338e-16
0.000197853
3.19246e-06
9.34003e-15
0.0247089
3.57864e-15
1.41315e-14
1.29462e-15
0.161998
7.60189e-15
1.17587e-16
0.0240173
4.61956e-15
2.02028e-14
6.23672e-15
2.09057e-14
0.051604
2.12994e-15
3.92445e-15
1.7464e-15
2.8936e-15
0.00570613
0.226495
0.0278644
0.0423791
0.00353783
0.000234348
5.87183e-15
1.50855e-14
0.132606
0.00128029
3.14829e-14
8.04132e-08
3.09136e-15
8.01685e-11
2.8847e-14
0.206925
1.67601e-15
2.50975e-15
0.000217193
1.67661e-10
3.20857e-15
0.0100365
1.69246e-15
1.02334e-14
0.19872
0.0289927
8.44334e-16
1.53634e-15
4.23222e-15
3.17184e-15
4.92938e-15
2.06492e-14
7.58179e-16
1.7981e-15
0.00312004
3.18918e-15
6.65887e-16
1.09354e-15
1.31281e-05
2.68741e-15
2.1275e-14
3.21159e-15
3.44284e-16
1.92745e-14
1.52759e-14
0.00319116
3.16416e-15
6.15342e-15
0.00484057
5.57436e-15
0.000368133
0.00459297
7.17086e-15
0.00328733
8.05922e-16
1.73419e-14
1.61943e-15
6.19924e-14
2.16243e-15
8.99212e-15
6.12039e-14
4.50721e-15
0.00224788
1.16628e-14
5.26235e-16
6.02599e-15
4.96389e-15
7.45071e-16
1.10247e-14
0.036468
1.27962e-15
1.16949e-15
0.338139
8.76141e-16
4.37811e-16
1.43816e-14
0.00119436
1.05194e-15
5.52295e-06
1.7189e-15
5.41983e-05
0.00811811
3.8871e-16
4.63869e-14
0.0398108
3.02422e-14
3.37645e-15
0.000117377
6.42734e-07
0.00979453
2.12241e-06
7.95684e-07
1.15389e-07
1.96354e-15
1.09294e-14
0.000964538
0.000129642
0.0168466
0.0119063
3.08039e-05
6.08157e-15
0.00548064
0.00501461
0.0181465
5.60245e-14
0.0121395
0.0165848
0.00264272
0.00133615
0.00111926
0.00325229
0.0189792
0.0398761
0.00716204
0.0109912
0.00791155
3.01074e-14
0.0028376
0.00359593
0.000804739
0.00270225
0.0143124
0.0135283
0.0196798
6.19282e-15
0.0105936
7.32134e-15
0.00489972
0.00274102