/*--------------------------------*- C++ -*----------------------------------*\
  =========                 |
  \\      /  F ield         | OpenFOAM: The Open Source CFD Toolbox
   \\    /   O peration     | Website:  https://openfoam.org
    \\  /    A nd           | Version:  10
     \\/     M anipulation  |
\*---------------------------------------------------------------------------*/
FoamFile
{
    format      ascii;
    class       volScalarField;
    location    "12.5";
    object      T;
}
// * * * * * * * * * * * * * * * * * * * * * * * * * * * * * * * * * * * * * //

dimensions      [0 0 0 1 0 0 0];

internalField   nonuniform List<scalar> 
111485
(
303.15
285.115
300.986
303.15
298.435
283.15
298.942
293.428
296.347
286.249
300.53
296.235
300.221
284.577
299.992
286.757
299.351
297.858
294.067
303.15
303.15
283.15
297.263
288.709
301.597
303.15
293.217
300.647
288.858
303.15
300.798
294.356
303.15
283.15
283.453
283.15
302.322
297.626
283.149
296.616
283.15
289.588
297.038
302.879
303.19
303.15
287.394
288.568
289.622
303.15
303.15
283.15
303.15
298.94
303.15
293.524
287.91
283.15
283.323
295.457
295.859
303.15
302.062
300.27
283.15
284.573
300.299
291.559
302.113
302.528
303.16
301.898
303.15
302.112
303.15
295.403
283.15
293.481
283.15
283.15
283.238
293.351
283.15
303.15
300.323
284.232
283.15
301.561
303.119
299.117
283.351
289.621
300.871
300.405
289.809
303.15
303.15
301.561
303.149
283.421
303.15
286.665
283.15
285.175
285.741
283.15
283.15
293.094
301.448
283.146
298.916
288.039
301.291
301.691
303.15
301.98
303.15
283.15
300.148
303.15
303.15
283.15
283.15
283.15
283.394
303.151
283.15
301.816
303.15
283.177
303.101
301.95
303.15
283.15
283.15
292.519
283.15
294.214
298.816
301.113
303.136
296.835
298.995
284.79
302.288
297.819
283.15
303.15
283.15
297.153
284.955
303.15
303.144
287.327
283.156
293.73
295.649
302.53
283.154
303.15
303.15
292.199
286.259
283.153
283.157
301.194
283.692
283.15
283.152
283.152
283.15
303.15
283.209
283.15
291.556
287.192
283.15
303.15
303.15
283.15
303.15
303.15
297.662
293.515
295.801
289.761
301.375
300.431
283.191
303.15
301.454
303.15
303.15
300.169
286.277
301.409
301.345
295.761
303.15
300.884
284.609
283.16
300.769
297.089
303.15
300.424
288.246
303.15
283.227
300.194
284.829
300.699
303.15
303.15
300.713
283.15
292.803
283.15
300.619
298.693
290.383
303.15
301.749
300.56
283.15
283.15
283.15
289.532
283.157
283.15
303.15
298.645
291.394
289.886
283.15
303.15
303.111
303.15
284.342
300.102
299.265
299.521
299.392
283.15
283.144
298.878
283.15
283.15
288.766
288.356
283.15
301.182
298.896
303.15
283.15
301.08
303.15
303.15
303.122
303.15
288.281
285.874
290.786
303.15
298.35
303.15
303.15
303.15
283.148
298.09
300.983
299.431
291.223
299.485
296.247
283.213
290.346
291.59
283.15
303.15
283.149
292.466
298.76
286.477
303.15
298.012
297.278
298.897
302.961
283.166
297.108
299.367
302.035
283.15
283.615
283.15
283.149
303.15
283.891
290.283
286.274
303.15
283.15
297.603
285.263
303.15
303.15
303.15
284.582
290.258
301.064
284.419
293.009
283.15
283.15
303.15
298.367
303.15
283.814
289.532
283.153
283.15
303.15
303.15
283.15
294.346
289.974
283.15
295.72
283.15
303.15
301.061
297.306
294.016
295.827
283.15
283.15
283.15
296.617
291.016
302.392
283.15
283.15
283.15
290.092
296.954
283.214
290.463
283.15
292.78
299.566
284.199
298.678
285.255
283.15
303.15
283.15
303.15
290.687
296.706
287.965
291.953
283.15
286.353
283.15
303.15
293.809
303.15
301.775
303.15
283.15
291.971
283.15
288.781
284.641
283.15
283.992
298.036
283.15
300.16
284.698
298.853
303.023
291.055
286.015
283.15
303.15
303.145
283.15
300.991
300.847
283.15
283.15
294.745
284.365
298.206
296.913
283.15
295.135
296.116
283.15
302.068
283.897
303.15
303.15
288.246
298.598
283.15
303.15
303.15
303.15
300.757
283.15
303.15
293.989
283.171
286.897
299.963
283.15
283.15
302.625
283.15
302.464
301.431
297.865
288.852
283.15
293.907
303.38
303.15
298.65
292.314
303.15
283.15
283.308
283.15
290.059
286.087
291.649
283.15
292.872
296.607
293.064
303.147
283.15
303.15
303.15
283.169
292.732
283.15
284.333
303.132
283.15
303.15
303.15
303.15
301.866
290.515
286.011
284.205
284.311
283.15
285.716
303.15
300.729
283.15
303.15
303.15
300.666
303.15
303.15
283.151
303.15
283.15
300.668
283.15
283.15
283.15
303.15
283.15
303.15
283.15
283.675
283.15
303.13
301.883
283.754
283.15
303.086
283.15
303.15
284.706
284.679
286.13
297.543
283.15
297.493
297.604
292.291
286.808
285.261
303.15
291.755
283.15
299.863
283.15
296.802
283.15
292.078
298.567
303.151
283.15
286.789
303.15
295.525
299.088
283.15
283.15
283.15
283.15
303.15
293.684
283.15
283.15
283.24
283.15
299.815
283.15
284.803
303.15
283.434
303.12
284.657
291.907
283.15
301.458
283.15
283.15
285.703
283.15
283.259
283.15
299.677
303.15
290.699
303.15
283.15
302.407
284.466
300.084
285.65
300.084
289.48
283.15
300.625
284.543
283.15
283.14
300.334
301.59
283.15
282.443
301.059
303.061
283.118
303.15
287.576
302.176
284.4
285.389
288.181
282.552
283.15
303.15
300.683
303.15
283.558
283.15
283.15
291.794
282.674
303.15
303.117
283.15
286.276
299.601
283.15
283.15
299.618
303.15
283.15
283.15
283.15
286.155
283.15
303.15
284.824
284.235
303.15
299.72
283.15
289.258
303.15
283.15
286.157
283.15
283.15
283.15
285.378
283.15
285.453
291.99
303.15
300.385
283.447
298.708
300.963
283.316
283.461
283.15
288.992
298.453
303.15
302.269
296.02
296.881
284.727
297.446
297.198
303.15
300.248
303.135
283.15
297.146
284.851
283.15
292.401
295.723
284.867
298.775
300.636
292.36
283.15
298.917
283.467
303.15
300.598
301.978
294.117
283.15
286.485
303.15
283.15
283.15
283.15
283.305
283.15
303.15
303.15
283.15
300.433
299.253
303.15
285.626
303.15
303.15
303.15
290.034
283.426
283.15
303.15
283.15
283.15
286.833
292.407
283.15
295.148
283.136
283.15
295.321
302.218
287.763
283.15
283.15
300.261
292.106
283.15
283.15
283.15
294.008
303.15
303.15
283.15
296.251
302.372
283.15
282.409
301.747
286.532
283.15
283.15
287.47
302.968
283.15
283.16
287.328
283.768
288.813
283.15
285.72
300.29
283.15
303.15
283.15
283.15
283.15
283.15
295.677
303.15
283.15
283.15
295.292
291.826
303.15
303.15
289.861
298.419
298.318
303.15
283.15
297.988
303.15
283.835
298.845
298.358
303.15
303.15
303.15
283.15
286.059
283.15
283.15
302.715
303.15
297.822
302.268
283.15
294.072
283.263
296.448
291.992
283.425
289.802
283.15
283.15
296.892
288.086
290.85
283.15
283.15
297.832
294.977
283.15
283.914
284.603
283.476
303.15
303.15
303.15
290.752
283.15
300.061
283.15
284.373
297.6
298.515
292.284
283.15
283.15
303.15
295.394
283.15
283.15
303.102
283.15
283.15
303.15
283.15
299.325
283.15
283.15
283.15
283.15
283.15
303.15
283.15
283.172
298.777
303.15
302.541
283.131
283.397
283.094
285.535
283.15
284.447
290.547
283.397
303.15
283.149
299.743
283.15
300.257
283.149
283.143
286.221
297.503
283.215
291.898
298.034
283.15
283.15
299.069
299.804
283.15
297.359
291.283
297.602
283.15
283.245
283.15
297.907
297.035
283.15
300.085
297.682
283.149
299.786
283.15
295.657
283.144
303.124
283.162
283.16
283.15
283.15
284.444
283.15
302.97
283.59
283.06
303.148
303.149
303.147
283.15
283.15
293.828
303.15
303.182
283.865
283.15
283.15
303.154
303.149
283.15
303.165
283.15
283.15
303.15
303.15
303.15
303.15
283.368
283.15
283.15
283.15
303.157
283.305
283.891
293.483
283.15
283.15
283.334
283.15
283.15
283.15
287.242
293.607
283.15
283.15
283.15
283.15
283.15
283.15
284.004
283.15
303.15
291.596
283.15
303.15
303.15
303.153
303.15
303.15
283.15
303.171
283.15
283.697
283.144
303.152
283.15
303.062
284.408
292.089
303.15
303.128
284.444
303.15
283.15
303.15
283.15
294.055
293.495
284.645
303.148
283.15
293.238
283.15
283.15
303.15
283.15
294.853
283.15
303.15
283.163
298.164
303.15
284.38
283.15
283.58
283.15
283.15
283.15
303.15
285.836
283.476
284.248
283.15
283.15
285.633
283.15
283.15
303.15
284.344
303.164
298.562
303.15
303.127
303.128
283.15
303.13
283.15
283.449
289.168
301.06
283.804
283.166
283.15
283.15
283.15
303.183
283.15
302.905
303.15
292.827
303.15
288.727
283.833
303.15
283.15
303.15
283.15
301.795
303.15
303.15
286.408
300.567
283.15
283.15
283.15
283.15
283.15
283.15
300.817
283.58
303.15
303.15
303.157
303.15
300.206
284.43
283.15
302.115
303.15
301.633
283.15
302.575
283.15
283.148
303.152
283.316
302.12
300.237
283.147
283.15
289.366
303.15
293.395
303.15
283.15
303.15
283.15
283.15
283.15
300.812
302.057
303.15
303.15
303.15
302.909
283.15
303.15
292.902
283.085
303.15
297.536
298.356
296.505
283.379
283.15
283.15
283.15
283.15
294.632
283.15
294.869
283.15
303.06
289.854
283.15
302.865
283.15
283.15
302.741
283.148
302.919
283.15
303.15
283.15
302.395
283.15
303.15
283.15
283.148
283.15
283.171
283.15
283.15
303.15
293.019
301.106
296.135
297.032
303.15
303.117
283.15
283.15
285.681
283.15
283.158
302.849
298.81
302.943
303.15
283.363
283.15
303.15
283.15
302.992
283.322
298.354
283.15
303.15
288.102
303.15
283.15
283.125
295.103
283.147
283.15
283.15
283.149
303.15
283.15
303.142
303.15
303.15
289.918
302.987
302.996
288.993
293.269
283.15
283.15
303.088
289.065
283.15
303.15
284.739
283.15
303.15
283.15
283.15
283.15
297.527
283.15
302.94
283.15
300.499
283.15
283.15
283.15
283.15
283.15
283.15
285.021
283.15
283.15
283.15
283.15
283.15
283.15
292.004
283.15
298.423
302.937
283.15
302.351
283.15
302.522
303.145
292.33
288.807
303.15
292.194
284.773
303.111
303.15
303.14
295.103
288.691
283.15
287.91
283.15
283.15
283.15
283.15
287.541
283.15
283.15
291.676
303.136
285.328
283.15
283.15
302.538
283.15
283.184
303.15
299.914
283.15
283.15
302.83
283.15
303.178
303.15
283.15
289.086
298.042
292.739
285.657
292.603
294.146
283.15
283.15
302.289
290.615
292.782
284.424
283.15
294.426
283.15
303.15
300.739
298.791
283.15
297.452
283.15
292.793
297.223
303.15
283.15
283.15
301.779
283.15
283.15
300.509
296.166
283.198
291.249
283.15
283.15
302.796
300.528
283.15
300.651
283.15
300.508
283.15
283.15
300.81
283.15
283.228
301.606
283.15
283.15
302.438
283.15
287.923
303.15
290.421
303.15
303.15
303.15
300.953
283.15
283.15
299.55
283.15
302.989
283.15
283.15
303.15
283.151
288.213
283.15
283.15
288.075
288.256
283.15
283.678
283.15
303.15
302.426
283.716
301.577
283.15
283.15
283.15
283.15
283.15
283.15
283.15
283.15
283.15
283.15
283.15
303.15
283.15
283.15
283.15
283.15
283.15
283.15
283.15
283.15
303.15
286.956
283.15
283.15
283.15
294.72
283.15
303.15
302.95
283.15
283.15
294.727
283.15
283.15
301.86
295.204
283.15
303.648
303.594
283.15
301.496
293.976
297.559
301.481
298.161
303.15
283.15
296.444
291.755
301.425
283.15
302.147
302.426
300.88
288.057
287.33
301.067
301.786
301.789
303.15
285.893
297.56
285.514
297.264
283.15
283.15
283.15
303.15
283.15
291.983
297.937
283.15
283.15
283.15
283.15
283.15
303.15
283.15
303.15
292.162
303.117
299.035
302.847
283.15
283.15
285.401
283.168
283.15
283.15
301.747
303.15
283.15
298.176
299.529
297.543
298.661
300.813
303.15
291.065
302.585
303.15
303.15
300.33
303.15
283.15
282.969
295.57
302.948
283.15
303.15
289.599
286.188
297.191
292.183
302.427
303.15
303.137
303.15
303.15
283.15
299.018
283.15
291.784
290.487
299.702
284.772
303.15
301.931
303.15
283.15
303.15
303.15
291.523
299.656
283.15
303.15
303.133
291.764
303.032
299.367
292.832
288.342
292.926
283.15
303.15
283.15
291.268
298.324
303.151
303.15
303.15
303.15
297.504
302.576
283.15
299.989
301.161
284.862
299.535
303.15
303.15
298.705
292.973
283.15
302.902
299.734
302.619
291.959
297.33
298.266
303.15
286.999
298.22
291.367
283.15
289.079
303.15
288.403
301.068
303.15
288.729
301.287
300.128
293.186
283.149
283.16
283.241
301.694
300.928
303.15
288.836
301.486
303.15
283.15
303.15
303.21
298.772
290.815
296.803
303.255
283.149
297.533
303.15
303.15
292.809
303.15
300.327
283.305
301.326
291.558
303.15
283.661
293.234
303.15
283.052
298.705
303.15
300.709
286.274
303.15
303.15
284.002
303.15
283.15
283.15
285.926
299.331
291.204
303.15
285.202
297.496
283.15
298.872
298.906
288.989
303.111
283.15
301.537
299.674
298.872
300.101
288.677
290.8
302.499
303.15
301.562
288.737
303.15
298.883
283.15
283.15
303.15
283.15
303.15
297.452
283.15
300.544
283.647
303.15
283.803
283.15
289.866
303.15
303.145
303.15
294.177
303.002
303.119
299.878
290.432
289.458
290.609
298.431
303.15
299.408
292.174
298.962
303.15
283.882
283.453
299.269
287.196
283.515
303.15
283.15
303.15
285.311
303.15
303.323
284.702
303.354
302.961
303.15
303.15
283.15
300.558
300.689
285.484
303.088
287.014
295.69
301.891
292.516
288.162
302.092
296.12
283.15
283.15
303.15
285.834
289.722
283.15
283.15
303.15
301.998
288.715
303.15
296.411
303.15
283.156
285.173
301.172
303.15
303.15
292.29
303.15
283.301
290.634
283.15
297.171
294.671
296.145
303.15
302.718
283.15
302.673
293.445
303.15
303.15
288.812
283.15
303.15
301.809
284.453
303.15
303.15
283.15
302.35
303.467
289.476
299.709
298.13
303.15
303.159
302.602
303.15
283.15
303.15
303.15
303.15
303.15
303.15
303.15
303.15
283.15
303.15
303.15
283.342
303.15
303.336
303.15
303.16
303.15
303.15
300.932
303.686
303.15
292.045
303.15
303.15
283.15
302.562
303.15
302.151
303.116
283.293
283.15
303.15
302.578
283.149
303.15
303.15
291.37
283.15
292.596
283.15
283.15
283.153
291.222
284.848
303.15
296.688
283.15
303.741
303.133
284.326
302.597
283.15
292.171
303.084
301.68
283.15
303.15
283.15
304.088
284.834
296.922
303.15
303.15
303.15
303.15
303.15
303.15
302.361
302.815
297.639
292.099
303.15
287.167
292.648
284.994
303.208
283.15
286.931
302.76
284.782
283.148
287.487
303.15
283.387
302.924
292.537
302.852
301.894
303.15
302.257
303.15
303.15
297.965
303.15
284.484
303.15
303.15
283.15
303.15
303.15
302.851
303.15
283.3
283.15
283.15
285.833
284.863
300.942
286.14
303.15
294.797
303.15
290.475
303.15
287.165
300.692
301.488
293.369
303.15
303.15
303.15
289.828
283.15
303.15
289.581
283.15
283.15
301.825
303.15
286.189
283.148
283.15
303.15
303.15
300.673
298.208
303.15
293.453
303.037
283.15
298.628
303.15
286.421
288.246
302.15
303.15
296.311
296.798
302.956
301.89
301.668
303.15
303.15
303.147
303.15
283.15
303.15
289.583
300.223
294.361
302.133
283.15
300.38
291.401
298.253
283.597
298.338
289.628
302.168
283.15
283.15
283.15
302.214
283.15
290.453
283.15
301.266
303.161
289.738
298.082
283.15
303.15
301.254
301.232
303.15
283.15
303.15
286.433
301.45
302.979
302.346
298.036
288.45
303.15
303.15
303.15
294.265
285.992
289.831
295.902
283.968
302.96
303.15
303.15
283.15
283.15
285.437
299.617
303.15
303.15
283.15
303.15
303.15
303.15
300.269
303.15
285.374
292.488
283.15
283.25
293.407
285.701
303.15
303.15
301.895
303.15
299.243
283.147
297.589
303.15
303.15
283.15
303.15
303.15
303.15
305.242
303.15
301.847
301.145
303.15
303.15
301.624
303.15
283.15
287.268
303.105
303.15
303.15
303.15
297.959
303.15
303.15
302.468
302.494
301.785
303.15
283.15
303.15
302.051
302.518
301.533
302.539
283.15
300.681
287.509
297.472
283.15
303.15
303.15
303.15
303.15
294.395
287.585
299.702
303.15
303.15
303.15
303.15
283.15
303.148
284.785
285.163
283.15
303.15
303.15
283.148
299.592
294.954
283.15
303.15
303.15
303.15
303.15
289.63
289.711
303.15
303.15
302.416
303.15
301.479
283.96
291.919
303.15
283.15
301.2
303.123
303.15
303.114
301.332
286.87
303.15
303.15
303.15
303.15
293.32
284.156
303.15
302.7
298.087
289.494
303.15
303.15
303.15
303.15
299.571
303.151
303.15
303.15
298.293
302.608
288.369
303.15
303.15
297.779
303.15
303.15
303.15
303.15
288.839
303.15
283.15
283.15
295.96
291.134
303.15
303.15
303.15
297.025
303.146
303.15
303.15
303.15
303.15
303.409
300.881
303.15
287.367
302.649
299.408
303.15
303.15
303.15
303.15
283.15
285.68
303.15
302.841
283.15
302.185
303.15
303.135
303.15
283.15
301.968
285.74
283.15
302.836
303.15
302.422
283.15
303.15
303.15
303.151
303.15
283.275
303.15
290.871
283.15
283.15
303.15
303.15
298.866
302.376
283.15
302.435
283.15
284.112
288.007
302.702
283.15
303.155
302.986
303.134
284.404
283.156
302.985
283.15
283.15
283.156
302.085
302.297
303.15
283.15
283.15
295.482
303.15
283.15
303.15
303.15
303.15
303.107
303.047
302.928
302.45
303.15
302.913
303.15
284.797
303.15
303.15
283.15
303.15
303.111
303.15
283.15
303.15
288.33
303.15
303.15
303.177
283.15
302.891
302.119
296.778
303.15
289.459
294.661
283.856
290.085
283.15
283.15
287.218
284.317
283.15
303.81
283.15
286.414
303.15
283.15
303.156
303.15
303.15
303.017
303.155
303.15
283.15
303.139
303.15
283.15
283.104
298.751
302.703
303.15
301.847
303.15
285.709
303.152
301.185
303.15
303.15
301.049
303.15
303.15
303.15
287.708
303.15
285.154
303.15
303.147
303.15
283.15
283.15
303.15
303.15
303.15
288.733
302.549
303.15
303.15
288.622
286.529
291.301
303.15
302.701
287.683
287.547
303.15
303.15
287.738
283.15
291.935
303.15
303.152
303.149
303.15
300.54
283.15
302.332
283.15
303.15
303.15
303.15
303.15
303.15
284.321
302.252
291.082
303.15
303.15
290.611
303.15
303.15
303.15
303.15
303.15
300.173
303.15
303.15
283.15
299.483
303.15
283.15
303.15
301.38
283.15
299.978
290.75
302.689
300.041
299.464
303.15
303.15
303.15
300.86
288.497
283.15
303.15
300.333
303.15
303.15
292.018
303.15
287.504
303.15
297.858
284.334
303.15
283.15
303.15
303.15
303.15
285.276
303.15
300.501
303.15
303.15
299.719
283.15
284.726
303.15
303.15
288.149
301.569
296.456
303.15
303.15
303.15
301.585
292.274
303.15
283.15
303.15
300.686
303.15
284.75
296.338
303.15
303.15
301.148
303.15
303.15
283.15
303.15
283.15
294.604
303.15
283.15
303.15
303.15
303.15
303.15
303.15
303.15
283.15
301.536
283.15
302.082
303.15
303.15
296.148
300.488
303.15
283.15
303.15
300.891
283.15
303.15
303.15
303.15
300.741
303.15
297.71
303.15
285.845
283.15
286.733
303.15
303.15
298.525
283.15
303.15
287.859
283.248
303.15
303.15
285.107
283.842
300.858
301.738
301.194
293.193
301.744
283.85
303.15
297.744
283.15
283.15
303.15
303.15
303.15
301.223
303.15
303.15
303.15
303.131
283.169
283.15
283.568
303.15
302.017
283.15
303.142
296.12
283.15
294.597
303.15
303.15
283.15
299.9
283.93
303.15
283.15
299.929
303.15
297.743
303.15
295.312
303.15
283.15
303.15
283.15
299.436
283.15
283.227
283.15
286.2
303.15
303.15
283.15
283.15
303.15
303.15
303.15
303.15
284.874
284.758
283.15
303.15
283.235
283.15
283.15
303.154
289.896
283.546
283.15
301.508
284.899
300.484
288.196
303.15
303.15
303.15
303.15
283.15
283.15
283.15
303.15
283.15
283.15
303.15
283.15
297.283
283.15
303.15
283.15
303.15
303.15
283.367
283.15
303.15
301.946
303.149
303.15
303.15
303.15
288.738
283.15
303.15
303.149
283.15
303.15
303.15
303.15
295.337
283.15
283.182
303.15
303.15
303.15
303.15
303.15
303.149
303.147
284.114
303.15
283.15
303.15
303.149
303.15
303.148
303.149
283.15
283.15
283.15
303.15
303.15
283.15
303.149
283.15
287.716
283.15
301.813
283.15
303.154
303.15
284.606
283.15
284.45
297.407
303.15
284.688
303.173
303.15
297.415
283.15
303.15
303.15
303.15
303.15
283.15
303.15
303.15
299.179
283.15
303.15
303.15
303.15
303.15
292.355
290.491
303.17
283.165
303.15
301.819
302.325
303.15
283.15
283.15
303.15
303.15
303.15
283.15
283.15
283.816
303.15
303.15
303.196
303.151
283.15
288.885
303.15
283.15
303.15
288.053
303.15
283.15
302.115
283.15
283.15
283.15
303.15
299.672
303.15
303.15
303.15
283.15
284.499
293.593
295.237
289.568
303.119
303.017
283.15
283.15
301.082
283.689
283.15
303.149
303.15
303.15
283.15
294.56
303.15
283.15
302.978
303.15
303.15
283.79
303.15
303.15
288.407
289.561
303.15
283.15
303.15
283.15
303.15
303.15
303.15
303.15
283.945
303.15
303.15
303.15
302.927
303.15
303.15
283.15
283.15
283.15
283.15
302.939
283.15
283.15
300.965
303.15
284.762
284.922
303.15
301.126
303.15
283.15
303.15
283.15
283.15
303.15
303.15
303.15
302.666
303.15
303.15
303.15
283.15
303.15
283.15
286.382
303.15
303.15
291.595
303.15
283.15
283.15
302.42
303.15
303.147
283.15
303.193
286.675
283.15
283.15
299.21
283.15
283.15
303.055
303.161
293.358
303.167
303.151
303.152
283.15
283.15
302.643
283.453
285.844
300.868
283.157
283.15
291.066
301.575
301.479
283.15
300.234
290.716
300.163
302.212
302.744
284.671
295.5
299.227
286.267
293.351
300.124
303.15
298.017
297.595
302.785
283.673
292.364
301.163
287.343
303.15
301.036
303.15
300.728
301.496
283.644
285.003
303.15
283.15
302.301
301.686
283.145
303.173
288.566
302.681
301.863
300.827
303.15
303.23
301.152
295.08
300.456
288.979
302.913
301.671
302.211
302.277
284.226
302.502
301.599
283.179
303.15
302.895
303.15
303.15
302.091
302.001
294.326
303.15
284.69
292.273
292.362
300.919
303.15
284.017
285.205
284.403
303.15
298.806
303.15
296.444
295.393
300.747
303.142
303.15
303.15
301.942
301.259
302.782
303.15
292.642
302.748
289.989
283.15
298.403
294.022
303.15
300.54
283.15
283.204
283.15
302.573
303.099
303.15
302.986
298.401
283.148
300.526
302.228
295.363
283.532
295.861
297.079
283.462
303.133
284.75
296.378
283.321
296.893
300.502
300.255
300.369
301.992
289.826
301.579
303.15
302.727
302.657
302.672
296.576
302.897
283.15
302.019
293.471
303.15
283.431
286.855
301.212
302.593
290.544
284.833
287.716
302.618
296.389
303.15
303.15
295.003
283.15
292.658
283.428
303.15
290.583
290.27
283.919
303.15
297.307
298.559
284.243
301.245
294.22
290.192
300.546
303.113
303.15
303.15
283.536
302.615
283.346
285.819
303.15
303.023
303.037
303.15
285.423
300.869
297.873
283.248
299.566
302.365
300.514
286.933
283.15
303.105
301.813
283.738
283.139
303.15
303.075
303.15
303.15
284.193
302.538
296.449
283.039
283.153
303.15
283.15
302.955
303.044
302.505
301.417
303.15
283.15
283.15
301.826
301.882
283.216
295.95
303.15
303.15
301.622
285.516
283.261
301.685
301.787
301.727
284.399
303.15
283.15
298.526
297.777
303.15
302.7
302.08
284.738
285
302.111
303.061
303.15
298.167
284.431
283.15
303.15
300.603
301.23
302.018
289.652
302.073
285.682
300.173
300.329
290.362
297.567
303.15
303.15
300.949
284.474
302.09
283.151
300.502
301.707
283.635
288.309
302.42
283.15
283.15
283.029
303.15
303.15
299.959
298.959
302.282
283.147
283.15
283.949
283.151
283.15
283.151
303.081
300.93
299.177
295.91
283.366
303.095
300.149
303.15
283.15
302.563
289.264
300.807
292.734
283.512
303.06
283.148
283.15
302.835
301.221
302.612
283.156
291.297
284.895
303.15
284.25
301.046
283.15
283.309
284.955
284.203
283.15
283.15
301.644
283.15
289.414
302.53
302.703
301.798
283.478
298.373
290.172
283.15
303.34
292.085
283.15
283.15
283.15
303.15
301.23
302.416
299.194
301.471
299.948
288.867
283.155
291.014
290.183
303.062
291.116
300.015
292.101
283.15
286.307
301.088
301.57
283.15
283.999
299.671
283.15
303.15
283.187
301.284
303.15
284.017
302.276
303.019
303.15
283.15
292.828
303.153
301.697
283.15
283.15
283.15
302.191
297.619
303.142
302.198
303.166
303.15
288.393
303.166
290.465
300.239
300.199
296.593
283.157
301.706
283.15
290.617
301.424
289.484
290.514
298.993
300.719
301.605
287.194
291.171
285.036
283.172
302.216
286.129
283.15
283.144
300.216
283.078
300.312
287.021
296.112
299.453
289.247
299.298
283.121
299.198
283.15
289.974
289.17
298.676
283.329
283.15
300.568
283.15
302.798
283.15
303.15
286.483
286.483
283.15
299.013
298.62
287.063
303.15
303.15
301.724
289.811
303.001
283.736
301.584
287.139
303.147
284.187
288.221
303.15
301.428
283.15
283.15
287.583
287.027
283.145
285.274
301.505
286.265
301.246
303.15
285.139
301.753
291.228
303.15
303.15
301.619
302.047
303.15
293.033
294.321
283.661
296.417
286.79
290.058
303.15
302.81
297.048
285.03
283.15
287.743
291.899
299.65
283.163
283.759
282.941
301.952
303.12
283.151
303.133
303.15
300.601
293.09
298.848
293.885
283.15
291.973
296.015
285.599
283.213
291.688
283.15
300.324
303.164
292.584
284.113
303.144
291.89
298.63
288.284
300.382
291.362
287.363
283.15
303.142
285.341
289.934
293.508
283.15
283.15
283.15
303.141
283.15
283.137
286.441
303.15
283.15
303.167
283.173
291.143
289.005
303.512
302.912
289.906
303.15
297.001
303.176
302.013
287.301
283.15
292.93
303.145
303.094
286.188
283.15
283.15
283.472
286.052
303.053
303.143
287.518
289.495
283.486
283.163
289.877
293.249
303.15
283.15
303.096
303.15
302.337
285.023
302.347
303.093
284.07
283.781
284.059
302.864
302.175
297.436
294.057
303.069
291.312
291.059
303.15
303.097
302.589
285.458
283.38
303.15
285.965
283.39
302.933
301.711
302.177
283.15
300.347
301.858
303.15
302.154
285.403
303.15
297.913
303.15
283.15
300.707
302.682
286.341
302.493
283.15
285.188
303.007
283.15
302.307
285.367
294.91
284.339
303.15
303.022
302.886
286.509
283.15
287.149
284.265
289.813
285.735
302.255
303.15
283.15
283.15
293.165
283.15
301.067
302.166
290.381
283.15
294.065
283.15
303.15
283.15
300.114
298.588
283.151
285.292
301.75
303.075
303.156
291.891
294.235
301.207
283.206
301.823
283.145
303.15
303.142
299.114
283.15
300.97
294.806
303.15
300.961
287.316
301.974
284.911
288.185
283.15
302.224
287.743
298.435
303.082
283.15
303.15
291.681
302.165
283.077
283.147
286.78
298.368
303.149
284.5
301.033
301.006
301.257
303.153
299.907
287.658
284.926
301.592
299.9
283.725
283.103
303.159
303.149
303.15
297.371
283.163
283.15
303.15
303.149
289.932
298.935
300.297
287.793
302.799
303.15
286.438
301.605
303.15
300.969
283.805
301.458
303.15
284.559
301.401
295.558
302.771
303.15
303.15
285.186
295.107
296.396
287.399
303.15
303.15
283.15
287.224
302.396
296.185
303.15
285.577
303.15
303.15
300.478
288.735
283.15
295.567
295.895
299.103
283.15
303.15
292.694
287.223
303.15
297.964
300.521
300.424
303.15
303.15
303.15
300.232
298.342
302.794
299.9
283.15
292.904
287.687
290.62
300.567
303.15
303.15
300.768
303.095
286.577
296.105
303.15
303.147
283.15
286.449
298.933
285.586
303.15
303.15
283.344
303.124
303.15
303.15
283.15
290.532
303.15
303.15
284.578
299.319
283.15
303.15
284.617
301.328
300.167
287.006
294.985
303.15
283.503
303.15
303.15
283.306
300.534
290.405
300.396
303.15
303.13
302.171
292.682
299.78
301.343
284.447
283.454
300.883
298.395
303.15
302.752
284.137
299.74
301.377
287.714
303.15
297.435
301.406
301.492
301.532
292.907
303.15
283.15
299.176
283.15
283.15
287.745
283.15
284.012
283.15
283.15
283.15
283.15
302.751
288.14
302.699
283.15
295.669
290.945
284.746
283.15
303.15
302.674
301.734
303.171
302.631
283.15
294.834
300.263
290.172
283.15
283.15
299.798
285.929
283.15
283.15
303.149
290.588
283.15
287.145
303.149
303.152
284.311
283.15
288.208
292.443
300.805
294.625
302.954
285.642
302.501
295.248
286.271
283.15
283.545
291.624
303.076
289.118
302.649
283.15
292.385
287.742
301.028
301.301
284.901
303.104
284.909
297.086
302.989
303.146
285.13
303.145
303.003
293.299
302.689
283.15
303.15
303.15
294.759
291.052
283.155
301.079
284.668
284.148
284.623
303.145
288.344
300.458
283.15
283.15
302.496
303.15
294.553
302.895
303.182
299.793
303.221
302.881
283.15
301.292
302.877
283.15
303.15
301.315
303.15
284.315
298.741
283.163
291.456
283.15
287.57
303.012
299.755
283.15
303.023
290.904
301.209
303.126
303.078
283.15
283.15
301.952
301.994
283.804
302.813
302.409
302.375
303.141
283.15
293.698
283.15
302.79
287.868
302.984
303.15
283.15
302.819
285.142
291.483
302.043
283.15
302.575
301.987
301.562
302.476
303.048
303.209
303.008
303.15
283.15
301.512
297.848
303.087
303.15
289.882
284.949
303.15
283.15
285.315
303.184
303.165
302.914
301.119
284.253
303.096
290.716
294.229
303.148
289.053
303.164
283.15
289.827
283.15
299.947
298.124
284.792
288.188
299.589
296.689
295.289
299.15
293.756
303.153
293.873
296.391
283.161
299.358
293.861
303.15
298.911
299.117
303.15
291.173
303.17
301.657
303.15
286.909
285.993
302.794
289.657
283.15
283.15
300.327
301.175
283.72
283.15
303.15
300.214
302.311
300.612
299.861
302.781
292.575
289.628
286.636
292.488
284.291
290.338
283.308
295.728
290.421
293.874
287.091
284.289
303.163
283.275
303.148
285.55
300.695
283.151
300.429
298.412
288.726
302.107
285.408
299.052
283.15
302.949
283.154
283.115
287.674
299.631
303.15
300.356
303.019
299.913
302.754
303.15
301.242
284.939
294.902
302.033
303.149
283.7
283.15
290.289
285.242
285.734
303.13
303.148
283.15
283.15
283.176
303.15
293.396
303.15
303.149
294.274
303.441
303.15
300.429
303.15
303.15
293.597
290.595
303.15
289.818
302.05
289.544
303.15
303.15
285.943
283.337
290.31
303.224
303.15
303.145
285.452
283.248
283.15
288.981
287.585
303.15
284.306
303.15
303.15
303.132
287.309
303.15
303.147
283.275
303.152
302.653
287.898
283.153
283.588
297.382
290.674
303.15
285.918
284.428
301.318
287.111
302.191
290.569
293.85
303.15
303.15
284.004
303.148
302.945
295.908
302.945
302.736
287.171
283.15
285.321
283.218
297.108
302.593
285.348
303.15
283.797
286.695
303.126
283.175
303.15
286.395
283.15
300.141
303.15
299.697
299.862
283.299
283.357
302.324
290.824
301.376
303.15
301.377
301.731
303.15
303.15
298.317
293.41
283.15
288.785
303.15
295.249
283.358
303.15
296.885
298.702
288.975
303.15
302.749
294.207
295.347
284.453
303.16
298.67
296.102
283.986
303.124
302.796
287.374
298.417
289.808
290.795
289.723
283.15
302.946
303.152
303.15
303.174
293.077
296.288
302.978
301.273
303.15
284.446
303.15
303.04
302.852
303.15
293.536
296.24
303.15
285.37
303.095
303.15
303.089
303.158
286.024
293.298
291.107
288.386
293.403
303.15
301.205
291.431
295.34
293.379
303.141
303.15
300.537
303.189
284.226
303.19
303.15
303.15
303.143
303.15
284.935
303.15
284.22
303.146
303.15
290.222
303.144
292.424
295.506
303.133
295.304
285.978
283.444
303.125
302.94
284.692
283.15
297.098
303.15
285.505
302.906
302.032
303.022
298.462
287.048
303.15
298.678
289.887
299.312
283.15
283.622
303.15
303.145
303.19
294.066
303.15
292.418
289.33
303.195
303.15
284.79
298.75
293.191
299.574
302.466
301.606
300.373
303.15
284.713
296.996
302.37
285.61
298.372
292.267
284.465
291.627
303.15
286.647
291.771
290.11
299.42
303.15
286.426
284.092
303.15
302.424
288.121
302.105
283.15
303.15
299.814
301.684
288.972
301.976
301.939
301.804
303.15
289.313
285.117
301.952
302.229
297.124
303.15
283.201
303.15
301.976
303.15
302.799
303.15
291.63
303.15
296.543
283.15
289.49
303.15
283.15
292.19
301.436
300.401
289.182
300.483
303.15
302.485
303.15
302.37
285.199
303.15
300.387
290.389
303.15
300.792
303.15
303.15
293.185
283.15
285.495
293.227
300.907
303.15
291.136
293.84
288.176
289.643
288.093
299.226