/*--------------------------------*- C++ -*----------------------------------*\
  =========                 |
  \\      /  F ield         | OpenFOAM: The Open Source CFD Toolbox
   \\    /   O peration     | Website:  https://openfoam.org
    \\  /    A nd           | Version:  10
     \\/     M anipulation  |
\*---------------------------------------------------------------------------*/
FoamFile
{
    format      ascii;
    class       volVectorField;
    location    "12.5";
    object      U;
}
// * * * * * * * * * * * * * * * * * * * * * * * * * * * * * * * * * * * * * //

dimensions      [0 1 -1 0 0 0 0];

internalField   nonuniform List<vector> 
111485
(
(1.44899 -1.44873 0.000525237)
(4.23513 -0.0107767 -0.0255237)
(4.16884 0.0110414 0.0127277)
(1.44842 -1.44868 0.000126512)
(4.32975 0.0205953 0.000534612)
(1.51827 1.51698 -0.000173589)
(4.25322 0.0128173 0.00128273)
(4.38094 -0.0125718 0.00552008)
(4.2498 -0.00236649 0.00335766)
(4.36272 -0.0471031 -0.0191306)
(4.19209 0.0098318 0.0126992)
(4.38498 -0.011732 0.0200534)
(4.12938 0.00372733 0.00946345)
(4.1865 -0.00959659 -0.0309457)
(4.23057 0.0171591 0.00927076)
(4.33048 -0.0292663 -0.022478)
(4.27088 -0.00460876 0.00676611)
(1.50078 -0.108953 0.220349)
(4.33536 0.0132455 -0.00930592)
(1.44527 -1.44366 0.000165643)
(1.44688 -1.44654 -0.00143914)
(1.51956 1.51939 -0.000155626)
(4.29004 0.0163569 -0.00362571)
(4.36953 -0.0282264 -0.00959048)
(4.29061 0.014136 -0.0030907)
(1.4587 -1.45337 -0.00208126)
(4.40246 -0.0207823 0.0213881)
(4.176 -0.00771323 0.00123544)
(4.351 0.00661818 -0.0111605)
(1.44684 -1.44673 -0.000121242)
(4.39758 0.0690419 -0.0176679)
(4.34483 -0.00943193 0.00131482)
(1.4419 -1.44451 0.00203401)
(1.51903 1.52234 -0.00345328)
(1.52496 0.637419 0.241542)
(1.5286 1.53908 -0.0223031)
(4.37517 0.0687386 -0.0273644)
(4.23787 0.00976151 0.0389101)
(4.34408 1.32131 0.0736911)
(4.34354 0.0210799 0.00144237)
(1.50178 1.51557 -0.0107369)
(4.38207 0.00745394 -0.0268608)
(4.34339 0.0217725 0.00748652)
(4.17543 -0.0251523 0.00153846)
(4.37155 -0.0755428 -0.0400937)
(1.44956 -1.43778 0.00524252)
(4.37872 -0.0188667 0.0178561)
(4.3629 -0.0268981 -0.00868531)
(4.38429 0.00104914 -0.0221515)
(1.4387 -1.42005 0.00786993)
(1.43573 -1.42232 0.0083467)
(1.72631 1.45211 0.0262368)
(1.43063 -1.42582 0.00479925)
(4.3754 0.0198586 -0.0351828)
(1.42739 -1.42215 0.000844319)
(4.32359 0.0112411 -0.00504473)
(4.3298 -0.0187454 -0.0099814)
(1.52081 1.51792 0.000960446)
(3.95488 -0.00835017 -0.0692489)
(4.34905 0.0183112 -0.00246262)
(4.34733 0.0201715 -0.000663436)
(1.4441 -1.44717 0.00211849)
(4.05274 0.00410233 0.0264034)
(4.39898 -0.0119189 0.0337938)
(1.57272 1.42584 0.00368019)
(3.97195 0.00897414 -0.00849367)
(3.0548 -0.242886 0.105814)
(4.35986 -0.0153255 0.00602965)
(3.94258 0.00181753 0.0152637)
(3.73284 -0.00581032 0.00285287)
(4.20345 0.0359662 -0.0135483)
(3.90157 -0.010735 0.0213231)
(1.56734 -1.41319 -0.0312893)
(4.00739 0.00651399 0.0309279)
(1.44832 -1.44758 -0.000168541)
(4.34409 -0.0101056 0.00877066)
(1.51949 1.51973 -0.000153841)
(4.37444 -0.00942826 0.0226018)
(1.51906 1.51812 8.78861e-05)
(1.37616 1.3449 -0.0445668)
(4.22618 -0.0628765 0.0421482)
(4.37356 0.0158251 0.00170512)
(1.51689 1.51447 -0.000188921)
(1.44832 -1.44806 0.000825941)
(4.10451 -0.000640441 0.0091258)
(3.93933 0.0107898 -0.0174974)
(3.38052 2.19524 -0.588652)
(4.32172 0.0521858 0.00523009)
(4.16529 0.105946 0.0903186)
(4.22556 0.00619738 0.0142614)
(4.4565 0.0878333 -0.0557076)
(4.32702 -0.00765493 0.00688155)
(4.05534 -0.00686798 0.0139714)
(4.1386 -0.00426344 0.00528909)
(4.3849 0.0137471 -0.024012)
(1.44847 -1.44799 -0.000238064)
(1.44793 -1.44778 0.000626097)
(4.31913 0.0485285 0.0157218)
(4.44938 -0.876398 0.0615266)
(4.0453 0.0140826 0.0259487)
(1.44863 -1.4483 0.000482952)
(4.33824 -0.0228597 0.00202758)
(1.52728 1.53003 0.00843277)
(4.3053 0.00100473 -0.00249078)
(4.28037 -0.0231055 -0.0279104)
(1.49073 1.33479 -0.0309947)
(1.51959 1.51931 -0.000206232)
(4.35169 -0.0128349 -0.00123206)
(4.0097 -0.0222006 0.00480496)
(3.84558 -0.113557 -0.119129)
(4.10113 -0.00358688 0.00891619)
(4.31712 0.00645738 -0.0027382)
(4.02365 -0.00229962 0.0155648)
(3.95872 -0.0195304 0.0090006)
(1.4617 -1.4543 0.000525087)
(3.82456 -0.00501745 0.011639)
(1.45373 -1.44889 -0.00216646)
(1.5275 1.52115 0.00618936)
(4.24718 0.0165366 0.0136031)
(1.44817 -1.44723 0.000553527)
(1.4597 -1.45373 -0.0015184)
(1.99927 1.57389 0.0949665)
(1.50978 1.51612 -0.00218438)
(1.52403 1.5203 -0.00350921)
(4.14912 -0.00918127 0.0185263)
(1.16052 -0.815704 -0.219288)
(1.90701 1.64122 0.0575104)
(3.86201 -0.00119704 0.0181708)
(1.44818 -1.44749 -0.000466615)
(4.35892 0.327069 -0.11864)
(4.35817 0.0803233 -0.042735)
(4.31128 0.0495037 0.0162748)
(1.44441 -1.44082 -0.00688879)
(1.95808 1.70528 0.171939)
(1.82951 1.63307 0.076831)
(4.3506 0.0138537 -0.00711706)
(1.52016 1.52034 -0.000411852)
(4.32599 0.0106781 0.00085103)
(4.29611 0.0154315 0.00701258)
(4.23194 0.0183182 0.0155287)
(3.32355 0.000379985 0.014438)
(4.33916 0.0227835 0.00455373)
(4.30233 0.0279779 0.0163657)
(4.09038 0.00328151 -0.0173161)
(4.273 -0.00861306 0.00381909)
(4.22733 -0.000665049 0.0081185)
(1.52029 1.52066 -0.000401258)
(1.44814 -1.44826 0.000131308)
(1.51722 1.51799 0.00282452)
(4.32718 0.0173189 0.00232019)
(4.09241 0.00628502 -0.016002)
(1.44688 -1.44593 0.0005431)
(2.83799 -0.0163462 0.0280018)
(4.22159 0.0199753 0.00943656)
(4.62584 0.182697 0.0824669)
(4.34979 0.0125014 -0.00862459)
(4.32718 0.0134706 -0.00312451)
(4.02177 0.000618475 -0.0057227)
(4.66585 0.225636 0.0566466)
(1.44073 -1.45418 0.005784)
(1.44638 -1.44776 0.00120442)
(4.33894 0.0122625 -0.00934446)
(4.25399 -0.014695 -0.0150214)
(4.6959 0.254766 0.0612841)
(4.63026 0.223165 0.0842003)
(4.04871 0.00746326 0.021202)
(4.33311 0.0524813 -0.0195085)
(1.50202 1.51451 0.000350395)
(4.75297 0.315667 0.0757343)
(4.52953 0.22445 0.0684285)
(1.51905 1.51991 0.000459776)
(1.44669 -1.4464 -0.000182112)
(3.48817 0.00420137 -0.0262148)
(1.51986 1.52066 6.78241e-05)
(4.30761 -0.00900353 -0.00205867)
(4.14413 0.00266878 -0.0097093)
(1.52009 1.48486 -0.00713763)
(1.56319 -1.43481 0.0131505)
(1.45164 -1.44407 -0.00235438)
(1.49652 1.41355 -0.0140435)
(1.57366 -1.44916 0.0245809)
(1.44645 -1.44747 0.000958166)
(4.32059 0.017066 0.00466103)
(4.31757 0.0109558 -0.00806053)
(4.30264 0.0143086 -0.00358259)
(4.26739 -0.0104402 0.0154453)
(4.10153 -0.00939518 0.00323675)
(4.11919 0.00863862 0.0137345)
(3.65587 0.0460746 0.00458436)
(1.44758 -1.44221 -7.22089e-05)
(4.0025 0.00080051 0.00414221)
(1.55971 -1.44853 0.0142954)
(1.46026 -1.4627 -0.000828101)
(4.15827 0.00951028 0.0143205)
(4.3645 -0.0528244 -0.0189834)
(4.3171 0.00911174 -0.0196069)
(4.15019 -0.00385223 0.00658149)
(4.21251 -0.00161208 0.00523773)
(1.44564 -1.44299 0.00320815)
(4.13833 -0.0189661 0.00518469)
(4.13352 -0.0054135 -0.0253368)
(2.88917 0.919014 0.120348)
(4.2322 -0.0330261 0.00281499)
(4.29205 -0.00711084 0.00387389)
(1.45341 -1.44546 -0.00218766)
(4.14128 0.0119391 0.0146542)
(4.33293 0.00902619 -0.00379979)
(1.5857 -1.4329 0.00562173)
(4.16303 0.0102599 0.014791)
(4.36743 -0.00518717 0.0228391)
(4.09046 0.00346483 -0.0187475)
(4.13089 0.0105416 0.0187111)
(1.57121 -1.45343 0.0194719)
(1.44717 -1.44759 -0.000261291)
(4.13175 0.0104673 0.0186341)
(2.70295 1.69636 -0.167512)
(4.41606 0.0192405 -0.0418526)
(1.51939 1.52021 -0.000870448)
(4.15567 0.00776022 0.0158565)
(4.14663 0.0063864 0.00457136)
(4.39079 -0.0144517 0.0268271)
(1.44972 -1.44898 0.000626616)
(3.87863 -0.000228146 0.0106279)
(4.34853 0.0613921 0.030335)
(2.38892 1.60541 -0.17504)
(1.52012 1.5201 -0.00114413)
(1.51915 1.51988 0.000440425)
(4.44515 -0.0268585 0.0409689)
(4.14874 0.0972438 -0.01085)
(1.59977 1.35153 -0.0305175)
(1.79816 -1.39314 0.0548003)
(4.16133 0.00305064 0.00551853)
(4.28617 0.00882419 0.00018927)
(4.35406 0.0111289 0.00233944)
(1.57815 1.37573 -0.039821)
(1.53055 -1.41553 -0.00544761)
(4.18481 0.0482333 -0.0559348)
(1.44819 -1.44777 0.000836249)
(3.96463 0.00517714 -0.0246199)
(4.11248 0.00442541 0.0133369)
(4.15865 0.00160203 0.00708841)
(4.16644 0.0104725 0.00874955)
(4.18194 0.00848268 0.0118295)
(1.51549 1.51556 0.00485595)
(3.16072 -0.00994231 -0.121492)
(4.24353 0.0104084 0.015655)
(1.51265 1.51571 -0.00209527)
(1.51902 1.51983 -0.000223833)
(4.41522 -0.0523733 -0.00428185)
(4.31627 0.0184265 -0.00722235)
(1.55759 1.32971 -0.0409459)
(3.93157 -0.00243369 0.0114668)
(4.22604 0.0118188 0.0122775)
(1.44869 -1.4479 -0.000470404)
(1.92355 1.81206 -0.011979)
(4.34885 0.03823 -0.0169342)
(1.45204 -1.43366 0.000650858)
(1.60584 -1.13875 -0.0271557)
(2.21836 -0.777453 -0.0784112)
(1.44913 -1.44525 -0.000230417)
(4.2445 -0.007237 -0.00759318)
(4.13041 -0.00797828 -0.00949745)
(4.30494 0.00691389 -0.0123907)
(1.44761 -1.4478 -0.000108628)
(4.26524 0.0129298 0.0105298)
(1.44851 -1.44877 7.92209e-05)
(1.44843 -1.44912 0.000271288)
(1.44603 -1.44061 0.00248945)
(2.92343 0.0105613 -0.0451757)
(4.36878 -0.0202603 0.0241874)
(4.17468 0.0150585 0.0196968)
(4.24121 0.0138914 0.0107304)
(4.40126 -0.02631 -0.00129364)
(4.2177 0.00968158 0.00964029)
(4.33339 0.0160199 0.00563948)
(4.35689 0.0713046 -0.00723053)
(4.25487 0.00860948 -0.00053095)
(4.29681 0.00970955 0.000265894)
(1.5443 1.51905 -0.00098698)
(1.4464 -1.44628 -0.00161576)
(2.67115 0.0165789 -0.0649132)
(4.32004 -0.00977781 0.00158032)
(4.37167 0.0336129 0.037275)
(4.11398 -0.005372 -0.00729968)
(1.44819 -1.44737 0.000480453)
(4.31384 0.0135514 0.00834804)
(4.33643 0.0215388 0.0104264)
(4.23049 0.00822898 0.00710961)
(3.73119 -0.00386754 -0.0183961)
(3.907 -0.0434478 -0.0968604)
(4.29504 0.0148587 0.00247619)
(4.22203 0.0110353 0.00969201)
(4.31148 0.0320265 -0.0197519)
(1.52056 1.52071 0.000311815)
(3.95103 0.0203126 -0.00062769)
(1.51905 1.51963 -0.000568856)
(1.23967 0.948216 -0.19506)
(1.63163 -1.04454 -0.10462)
(4.47395 -0.0401962 0.0559834)
(4.40222 -0.026088 -0.00108948)
(4.29806 -0.00165484 7.0429e-05)
(1.45049 -1.4469 -0.000596212)
(1.51482 1.52338 0.0122769)
(4.30544 0.0144031 0.00813304)
(4.12241 0.00737534 -0.00664598)
(1.44759 -1.44665 9.61587e-05)
(1.44886 -1.44806 0.00133763)
(1.41832 -1.42575 0.0109443)
(4.09779 0.00585667 -0.00330866)
(4.27856 0.00536394 -0.00522543)
(4.08751 0.000679049 0.0146801)
(3.95182 0.00746107 -0.0218872)
(4.3632 0.0103528 -0.0100706)
(1.74086 1.49741 0.0396257)
(1.51675 1.52033 0.00297454)
(1.44846 -1.44627 -0.00081125)
(4.29058 0.0148254 0.0120671)
(2.77927 -2.35781 -0.170474)
(4.08986 -0.00452029 0.00382058)
(4.44372 -0.0310121 0.0945976)
(3.58284 0.00210513 -0.0731591)
(1.51967 1.51977 -0.000111851)
(1.44689 -1.44822 0.0007685)
(1.44841 -1.44923 -0.000803224)
(1.91564 1.6084 0.0977328)
(4.33855 0.0142355 -0.000367976)
(4.37947 -0.024761 0.00149973)
(1.52348 1.52724 0.000546353)
(4.30171 0.0115078 -0.00111064)
(1.60584 1.30243 0.0913407)
(1.45571 -1.43917 -0.00222102)
(4.41127 -0.0153783 0.0356872)
(4.29553 0.0152495 0.00690272)
(4.39759 -0.00635904 0.0109616)
(4.30491 0.0118721 -0.00101526)
(1.46594 1.30256 0.0785597)
(1.89668 1.63253 0.104075)
(1.51705 1.51905 -0.00235919)
(4.29859 0.0148617 0.00598595)
(4.29393 0.012736 -0.000205237)
(4.38107 0.0748357 -0.0246016)
(1.50687 1.50378 0.00342501)
(3.00267 2.66129 -0.634749)
(4.10324 0.0399283 0.0356876)
(4.37656 -0.0205807 0.010473)
(4.31632 0.0162615 0.010312)
(4.09589 0.421194 -0.0350218)
(4.36099 0.0105403 -0.00992293)
(1.51697 1.51668 0.000242922)
(4.36469 0.0122118 -0.00835977)
(4.18982 0.00544179 0.00839601)
(4.41845 -0.102497 0.00011163)
(4.42384 -0.0263701 0.0524846)
(4.28736 -0.0327266 -0.0291161)
(1.51501 1.52145 -0.00592781)
(1.44679 -1.44854 -0.00270832)
(1.52307 1.51482 0.00559829)
(1.43914 -1.44322 -0.00053602)
(4.37296 -0.0209387 7.42082e-05)
(4.34792 -0.00769853 0.00275055)
(4.32316 0.0199566 -0.0142342)
(4.35771 0.0122601 -0.0128654)
(1.51049 1.51211 -0.00625347)
(4.32002 -0.0283914 -0.00897508)
(1.5182 1.51891 0.000685847)
(1.44207 -1.44638 0.00022703)
(4.35971 0.0124464 -0.00938796)
(1.33672 -1.33846 0.0195003)
(2.39962 -0.424739 -0.0327325)
(1.43243 -1.42705 0.00124193)
(1.53358 1.51321 0.01209)
(4.31205 0.00786696 -0.00582246)
(1.52 1.51909 0.000630246)
(4.27018 0.0106716 -0.00306802)
(4.06042 0.00232868 -0.0186634)
(1.52097 1.52089 -0.000376461)
(3.92261 -0.00180733 -0.0186634)
(4.24218 0.00675768 0.00768531)
(1.53005 1.3433 -0.0498571)
(4.23763 0.0187336 0.0192968)
(3.9999 0.0198651 -0.00297301)
(4.26005 0.0237167 0.00655235)
(3.96625 0.0147464 0.0490475)
(4.30071 0.0125859 0.00219734)
(4.10319 0.000448962 -0.00879518)
(1.49922 1.28361 -0.00581824)
(1.44759 -1.44196 0.00539115)
(3.68623 0.00830023 0.0875749)
(1.51009 1.51522 -0.0087351)
(4.25257 0.0224647 0.0200418)
(4.4135 -0.0225353 0.0427959)
(1.53124 1.46437 0.0122936)
(1.51681 1.52311 -0.000386446)
(4.36287 -0.00877065 0.00332896)
(4.19952 -0.0190843 -0.0383167)
(4.21712 0.0220201 0.00235217)
(4.37888 0.00937877 -0.00219467)
(1.51969 1.51799 -0.000363218)
(4.43313 -0.0130737 0.0692816)
(4.36084 -0.0147834 0.0215074)
(1.52286 1.52 4.03887e-05)
(4.28598 0.0654234 0.0532898)
(4.08559 -0.0167695 -0.0418698)
(1.44742 -1.44631 -0.00030934)
(1.44736 -1.44711 7.62032e-05)
(4.2663 0.0136737 -0.00392969)
(4.28474 0.00412025 -0.00584913)
(1.52675 1.52704 -0.00195815)
(1.45042 -1.4462 -0.00157611)
(2.55851 -1.37849 0.312637)
(1.44808 -1.44899 0.000526138)
(4.2864 -0.00265644 0.00896803)
(1.5121 1.51694 0.00355693)
(1.44846 -1.44887 4.59153e-05)
(4.39924 -0.00450332 0.0142361)
(3.98213 -0.0469422 -0.113191)
(4.35175 -0.0236252 0.00608685)
(4.19358 8.17479e-05 0.00798738)
(1.52147 1.52036 0.000108019)
(1.97154 1.52138 0.0739145)
(4.19985 0.0534593 0.0795432)
(1.84812 1.63225 0.0862751)
(4.18351 0.0183412 0.0329311)
(4.16523 -0.0340129 0.00358853)
(4.34353 -0.0129592 -0.0102356)
(3.02998 0.0966168 0.106777)
(1.81555 1.56501 0.0771209)
(4.35552 0.00753037 -0.0410199)
(4.40274 0.13337 -0.0437544)
(1.4465 -1.44918 0.00248033)
(4.38419 0.0112157 -0.0423186)
(4.39201 -0.0208073 0.0155986)
(1.45024 -1.44988 0.00154458)
(4.23477 0.237039 -0.131862)
(3.7114 -0.00071987 -0.0512624)
(1.91779 1.50857 0.0620236)
(4.36729 -0.00885617 0.018219)
(4.31681 0.00630534 -0.00600209)
(4.30419 0.0117781 -0.00214996)
(1.51929 1.51805 -0.00045983)
(4.29304 -0.00695591 0.0295039)
(4.39063 -0.0036046 0.0140316)
(4.27653 0.0412092 -0.0044742)
(2.69603 -0.0371164 0.0447527)
(1.84801 1.74493 -0.0367006)
(2.54145 -0.064845 0.0855678)
(1.44678 -1.44856 0.0010337)
(3.95589 -0.128618 -0.127069)
(4.29403 -0.00755738 -0.0282223)
(1.52052 1.51953 0.00206711)
(4.07355 0.00946546 -0.0303053)
(3.36668 -0.00849645 0.0607455)
(1.96989 1.74245 -0.018245)
(1.44848 -1.4475 0.000167469)
(1.69653 -1.4391 0.0453287)
(1.44807 -1.44748 0.000158357)
(4.27356 0.0237381 -0.000485723)
(4.30251 0.0223033 -0.00753448)
(4.24929 -0.0132344 -0.0118655)
(3.99916 0.00980627 -0.0219495)
(4.35604 -0.0884216 -0.0176531)
(1.51922 1.51318 -0.00300758)
(4.22562 7.83891e-05 -0.00918584)
(1.45186 -1.44114 0.000512777)
(4.18107 0.016069 0.00972011)
(1.52451 1.5241 -0.000856172)
(1.44744 -1.44634 1.73094e-05)
(1.43657 -1.44058 -0.00204761)
(4.10841 -0.0277536 0.00574029)
(1.445 -1.44555 -0.000937944)
(1.44879 -1.44852 0.000463531)
(1.49745 0.997503 -0.0636939)
(1.44832 -1.44945 0.00047979)
(1.50502 1.52584 0.0141628)
(4.21105 -0.0146342 -0.00624663)
(1.52102 1.51883 0.000556966)
(1.80017 1.33017 0.00197833)
(1.52126 1.52123 0.00165351)
(1.44619 -1.4421 -0.00097967)
(1.52079 1.51695 -0.00102044)
(1.4442 -1.43682 -0.00755143)
(1.51515 1.51604 9.94527e-05)
(3.84195 -0.000119736 -0.0320922)
(1.52322 1.51498 0.00625281)
(3.94389 0.0556906 0.0784142)
(4.30415 0.00474679 0.000208915)
(4.44579 -0.169609 -0.02525)
(1.52134 1.51482 -0.000158182)
(3.75372 0.0119325 0.0609711)
(1.52306 1.51756 0.00177217)
(1.44849 -1.44929 -0.000729193)
(4.25775 -0.0408659 -0.0449943)
(4.25562 -0.0340887 -0.0350763)
(4.25274 -0.00943105 -0.0119822)
(4.44666 0.0117047 -0.0743588)
(1.74561 1.46877 -0.0475831)
(4.35089 0.00372058 -0.0229866)
(4.34943 0.00166157 -0.0209676)
(4.30786 0.00934854 0.000101313)
(4.24188 0.00496749 0.000737935)
(4.32468 -0.0435293 -0.0284997)
(1.4453 -1.44559 -0.000528783)
(4.3139 0.00764485 -0.00129641)
(1.98667 1.7298 -0.0117948)
(4.2907 0.00769181 -0.00849668)
(1.52006 1.51889 0.000190619)
(4.37314 0.0155709 -0.0233862)
(1.96524 1.63174 0.0152989)
(4.31167 0.0041955 -0.00589267)
(4.3187 -0.0199393 0.0155327)
(1.67193 -0.840077 -0.0088696)
(1.52239 1.52413 0.0166863)
(4.24855 0.00765738 0.0067658)
(1.44822 -1.44715 0.000145898)
(4.38662 0.0185692 -0.0253946)
(4.35241 0.0220885 -0.0175567)
(1.51965 1.51557 -0.0124219)
(1.51772 1.51706 0.00362552)
(1.48819 1.33291 -0.0381669)
(1.51904 1.52019 0.000879051)
(3.04801 -0.162032 0.0838722)
(4.38896 0.0160603 -0.025129)
(1.53925 1.50318 -0.001066)
(1.51736 1.52001 0.00172112)
(3.76121 0.00225416 -0.0110846)
(1.51985 1.52019 -0.000375203)
(4.32201 0.0147851 -0.0171327)
(1.51985 1.51924 0.000205361)
(4.28182 -0.0272216 -0.0174446)
(1.4489 -1.44879 0.000507027)
(4.02557 -0.0208192 -0.0595985)
(3.33257 -0.0125655 0.00445566)
(4.02645 0.0115991 -0.00955689)
(4.31386 0.00567855 -0.00723518)
(1.52925 1.51765 -0.00455093)
(3.92968 0.00309987 -0.000422005)
(1.5228 1.51747 0.00132596)
(1.51997 1.52114 -0.00358289)
(4.2573 -0.0170688 -0.00942233)
(1.5203 1.51889 -0.00018675)
(3.64128 -0.000642356 -0.0372171)
(1.4708 1.35327 -0.0430498)
(4.33324 0.0240518 -0.0141059)
(1.44731 -1.44781 -0.000284141)
(4.35938 0.00974047 -0.00923763)
(1.44869 -1.44735 7.71322e-05)
(1.80188 1.59597 0.0454334)
(4.41935 0.156554 -0.0099133)
(4.2524 -0.0351338 -0.0461354)
(4.30074 0.0164525 0.000933262)
(4.34959 -0.0518602 -0.0322111)
(4.28092 0.00896985 -0.00456419)
(4.3948 -0.0288983 -0.00465389)
(1.51031 1.52205 -0.00675458)
(4.29826 0.0221472 0.014626)
(4.26544 -0.0389086 -0.0437179)
(1.51935 1.52015 -0.000770936)
(3.61542 -0.0459358 -0.155116)
(4.39882 -0.0310278 -0.0216914)
(4.22589 0.0189915 0.0159278)
(1.50663 1.48546 -0.00877202)
(1.87523 0.376043 -0.293609)
(4.13581 0.0111414 0.0127379)
(3.39588 -0.0137153 0.0340448)
(3.50864 0.903531 -0.00641668)
(1.87785 -0.954201 -0.0784418)
(4.38163 -0.0470887 -0.00689482)
(4.11604 0.0163696 0.0295533)
(4.24904 -0.0408092 -0.043765)
(4.31799 -0.024324 -0.00966836)
(4.2619 0.0254971 0.0103244)
(3.77199 0.488033 -0.0248295)
(1.87767 1.59396 0.0129244)
(3.83707 -0.144235 0.0330486)
(3.71078 -0.326955 0.0755027)
(1.44651 -1.44714 0.000791082)
(3.78613 0.0251334 -0.0112955)
(1.52859 1.50029 -0.00771944)
(1.78438 1.62196 0.0149455)
(4.27435 0.0050899 -0.00226332)
(3.79903 0.640434 -0.0223236)
(4.57342 -0.388335 -0.0731771)
(4.12325 -0.710258 0.0142892)
(1.7794 1.69148 -0.122862)
(4.35529 -0.025557 -0.00761055)
(4.31026 0.0249428 0.0188638)
(1.51644 1.51225 -0.000440874)
(1.95401 1.08553 -0.0442573)
(4.31246 0.0316189 0.0187477)
(1.44695 -1.44185 0.00096575)
(1.51966 1.51947 -9.51502e-05)
(1.51811 1.5177 0.000217834)
(1.52118 1.51301 0.00138641)
(4.35874 -0.0444581 -0.020261)
(1.52016 1.51984 0.00084428)
(1.45422 -1.45414 0.00777968)
(4.27827 -0.026619 -0.0217556)
(3.94934 -0.000263594 -0.012625)
(2.13402 -1.86819 -0.0978843)
(4.31325 0.0309296 0.0181937)
(1.76545 1.42713 0.0319453)
(4.33213 -0.0166894 -0.00861224)
(1.4242 -1.42325 -0.00636242)
(1.51689 1.51991 -0.000695755)
(4.34228 -0.0268132 -0.00794114)
(1.52003 1.51155 -0.00608223)
(1.51953 1.51625 0.00082376)
(1.74201 1.6688 0.0489549)
(4.09652 -0.00285997 -0.00275002)
(2.50306 2.09736 -0.276575)
(4.28019 -0.0184113 -0.00884849)
(4.27126 0.00463322 -0.00287558)
(1.43771 -1.4284 -0.0116562)
(4.44612 -0.0132666 0.138593)
(4.07836 -0.0245303 -0.0597325)
(4.26081 0.00117289 -0.00215702)
(4.32952 0.0772496 0.0100693)
(4.34124 0.0420666 -0.0919906)
(3.75214 0.00158577 -0.0354589)
(1.51827 1.51754 0.000579088)
(4.34566 0.00390678 0.0111323)
(4.31551 0.0175963 0.000346953)
(1.43516 -1.454 0.00291987)
(4.03332 -0.00255139 4.80502e-05)
(4.36468 0.0261105 -0.00809838)
(4.35491 0.0202793 -0.00671789)
(3.97795 -0.0172989 -0.0400662)
(4.35197 0.0214019 -0.00535293)
(4.3569 0.0219064 -0.00397443)
(1.45258 -1.43342 0.00861474)
(4.35303 -0.00934946 0.0213729)
(3.61312 -0.0218888 -0.0056885)
(1.83333 1.59275 0.0992206)
(4.34997 0.017674 -0.00918645)
(4.15593 0.00420535 -0.00945681)
(2.43503 1.98447 -0.297853)
(4.27476 0.00591611 -0.00134512)
(4.35241 0.0151295 -0.0130926)
(4.15781 0.000721912 -0.0167824)
(4.32181 0.0216571 0.000340891)
(4.2733 0.0467618 0.0181978)
(4.28081 0.00564605 0.000606023)
(1.48678 1.45408 0.00179513)
(4.32136 0.0222438 -0.000909123)
(4.06133 -0.026747 -0.0539998)
(1.61982 -0.970556 0.0382557)
(4.30123 0.0366291 0.0242094)
(4.25451 0.0376526 0.0365549)
(4.30558 0.0136672 -0.00223811)
(1.51894 1.51587 0.0015974)
(4.19024 0.0249798 -0.0400335)
(1.44847 -1.44212 0.00379969)
(1.5199 1.52028 -0.000788038)
(1.51531 1.50344 -6.48226e-05)
(1.52182 1.51361 0.000857958)
(3.63749 0.00203844 -0.0176214)
(1.80818 1.55929 0.062319)
(3.28152 -0.228337 0.269954)
(1.44463 -1.44454 0.000230723)
(1.51907 1.53767 1.84352e-05)
(4.31749 0.0409808 0.0230531)
(4.32504 0.0116522 -0.0185204)
(1.44904 -1.44889 6.69542e-06)
(4.33445 -0.0274326 -0.00339423)
(1.44815 -1.44682 0.00480352)
(1.44931 -1.44825 -0.000759695)
(1.42665 -1.42709 0.00441817)
(4.40613 -0.0362226 -0.00751061)
(3.67261 0.0190924 -0.0105027)
(1.7902 1.61377 0.0199172)
(1.46345 -1.44719 0.00385027)
(1.51788 1.52252 -0.00200004)
(1.51893 1.52008 -0.000255708)
(4.42572 0.00889085 -0.0481154)
(4.29074 0.00733364 -0.00296411)
(1.80826 1.70072 0.0786007)
(4.37515 0.0141438 -0.0233823)
(4.07713 -0.0571855 -0.165707)
(1.51747 1.51802 -0.000797245)
(4.36292 0.0122977 -0.0199646)
(4.00487 0.00362716 0.0215959)
(4.26587 0.0235823 -0.0281951)
(1.52093 1.52002 -0.000293033)
(1.5186 1.51793 -4.86098e-05)
(4.23075 0.0188958 0.0224993)
(4.31088 0.00834947 -0.00120284)
(1.79579 1.63375 0.0255351)
(1.51455 1.51485 0.000212229)
(1.54241 1.4973 -0.00308767)
(4.27427 -0.00872573 0.00471088)
(1.4467 -1.44684 -0.00198429)
(1.44864 -1.44395 0.00124297)
(1.51539 1.51606 0.000778974)
(4.3614 0.0136218 -0.0168989)
(3.82451 -0.0183946 0.00642851)
(1.52043 1.52056 0.000121808)
(1.69001 0.340283 0.294199)
(1.84245 -0.194023 -0.069192)
(4.24113 0.022507 -0.00216204)
(1.51758 1.52026 -0.000720365)
(1.51978 1.51705 -0.000789842)
(4.39118 -0.0438631 -0.00991927)
(4.19989 0.0716969 0.0644194)
(1.82198 1.62883 0.0761166)
(2.65101 0.864337 0.0631802)
(4.13801 0.0939502 0.117625)
(3.96268 0.0110813 -0.0280476)
(4.20031 0.00337544 -0.00323188)
(1.57671 1.4797 -0.00246771)
(4.18363 0.0106298 -0.000133604)
(4.33509 -0.0290688 0.029845)
(1.52356 1.51958 -0.00179692)
(1.43877 -1.41577 0.00187879)
(1.51558 1.51641 -0.000164586)
(1.51825 1.51855 -0.000520238)
(1.52023 1.52244 -0.00166036)
(1.52091 1.52109 -0.000133747)
(4.3711 0.0144621 -0.0184747)
(1.44719 -1.44716 0.00112)
(1.5184 1.51867 -5.32518e-05)
(1.5111 1.49118 -0.000118914)
(4.37435 0.0146351 -0.0240805)
(4.30653 0.0093978 -0.00299342)
(1.45433 -1.43539 -0.000474392)
(1.43169 -1.4171 0.00218578)
(4.40955 -0.0209635 0.0374493)
(4.19251 0.00339029 0.0053457)
(4.18567 0.00490176 0.00672001)
(1.44908 -1.44515 -0.000762371)
(1.51756 1.51823 0.000752286)
(4.1893 0.00280629 0.0062643)
(1.44869 -1.44763 5.80036e-05)
(4.13884 0.0111586 0.000665267)
(4.24793 0.00743539 0.0148085)
(4.25535 0.0148577 0.00735096)
(1.45801 -1.44745 0.00447199)
(1.44798 -1.4486 0.000510747)
(1.44782 -1.44868 0.00043015)
(1.51997 1.52034 0.000401543)
(4.29619 -0.0185868 -0.0117412)
(1.51834 1.51947 0.000256612)
(1.51736 1.51774 0.000337265)
(4.27522 0.0116989 -0.0158084)
(1.44784 -1.44852 0.000659757)
(4.20534 -0.00168761 0.00509718)
(3.84668 -0.0321493 0.0133537)
(1.53274 1.48317 0.00730543)
(4.30525 0.0138581 -0.00254332)
(2.03348 0.305396 -0.0528492)
(4.24304 0.00311673 0.00397296)
(4.40365 -0.0155927 0.00953735)
(3.88083 0.0153578 0.0039572)
(4.39015 -0.00121562 0.0281611)
(3.17826 0.0683369 -0.119572)
(1.80823 1.44844 0.0296148)
(4.23386 0.000274981 0.00243347)
(4.40646 0.0335379 0.00580117)
(4.30332 -0.0121481 -0.00484533)
(1.55649 1.355 -0.0462691)
(1.93494 0.189903 -0.09939)
(2.30227 -0.158277 0.0767578)
(4.23392 0.00646316 0.00336168)
(1.51761 1.51984 0.00193612)
(4.16431 -0.00996384 -0.0306302)
(4.25218 -0.00407061 -0.0101242)
(4.13098 -0.0371002 -0.0659296)
(1.583 -1.11986 -0.0837768)
(1.44841 -1.44864 0.000779458)
(1.44793 -1.44796 -4.56725e-05)
(4.32919 -0.0138271 -0.00243075)
(1.7697 1.46766 -0.0183527)
(4.10739 0.013812 0.00645224)
(1.64778 1.50157 0.0203344)
(4.09143 -0.00813383 -0.0274897)
(4.19443 -0.00719758 0.00483624)
(4.15561 -0.00335398 0.0151314)
(4.30756 0.0106752 -0.00393291)
(1.51884 1.51778 -0.000493487)
(1.51057 1.50655 -0.00218141)
(1.54811 -1.41149 0.0066446)
(4.30278 0.0157156 0.000850315)
(1.52054 1.51655 -0.00018282)
(1.75152 1.50883 -0.0657195)
(4.40415 0.0782323 -0.067523)
(1.52582 1.52402 -0.000817472)
(1.51367 1.52089 0.00449221)
(1.44516 -1.4395 -0.00365342)
(1.51999 1.52065 0.000521681)
(4.11122 -0.00250252 0.0146275)
(1.55719 1.47619 0.00493185)
(1.52013 1.51839 0.000225684)
(3.50071 0.49743 -0.357817)
(1.77547 1.43657 -0.0196221)
(1.51424 1.51507 -0.0126091)
(2.08634 -1.23662 0.0751776)
(1.51983 1.51754 -0.00135403)
(3.37437 0.012788 -0.0301812)
(4.19297 -0.00517941 0.0114515)
(1.44732 -1.44702 -0.000375372)
(4.12327 0.00493541 -0.00994001)
(4.16412 0.672494 -0.09279)
(4.10349 -0.0400805 -0.0645297)
(4.50485 0.164268 0.00191609)
(4.05216 0.00453296 -0.00720949)
(1.52001 1.50945 0.00472428)
(4.26233 -0.0407056 -0.0450361)
(4.41688 -0.0149021 0.00942038)
(4.1027 -0.0402568 -0.0650063)
(1.44775 -1.44812 -0.000132201)
(4.4711 1.17972 0.311717)
(4.102 0.00554404 0.00762084)
(2.02221 1.61616 -0.0949093)
(4.07567 0.00178953 0.00582951)
(4.44624 0.0548323 -0.0419805)
(4.24694 0.0835014 0.00429563)
(4.21068 -0.0142197 -0.0176475)
(4.21047 0.0134158 0.00105685)
(4.48138 0.063206 -0.0237613)
(4.32745 -0.00674581 -0.00680404)
(4.29355 -0.00720708 0.0047406)
(1.5099 1.51481 0.00599836)
(1.51568 1.50845 0.00484911)
(4.12997 0.0107301 0.0053819)
(4.06312 0.00413801 0.00571261)
(1.51693 1.52063 -0.000352424)
(4.18489 0.00549809 0.000428166)
(4.39902 -0.017929 0.00531383)
(4.31634 -0.0114558 0.00439846)
(1.52425 1.50912 8.65053e-05)
(4.23164 0.0837129 0.0187528)
(1.51781 1.51637 0.000344987)
(4.2971 -0.00629665 0.00337616)
(4.32098 -0.00781532 0.00319457)
(1.51869 1.51794 -0.000200763)
(4.11759 0.018545 -0.0146953)
(4.31136 -0.00558186 0.00133381)
(4.21522 0.0780451 0.00610305)
(4.15871 0.00138261 0.0136386)
(1.54815 1.51887 -0.00226375)
(4.32555 -0.0130188 0.014325)
(4.22827 0.0950255 0.000721556)
(4.45954 -0.105382 0.0262271)
(3.75918 0.0475141 0.0145603)
(3.35887 0.00987735 -0.0473008)
(1.52169 1.50605 -0.00273215)
(1.51651 1.51527 0.00152373)
(4.15871 0.0552378 0.0070506)
(1.51996 1.52043 -0.000396297)
(3.64145 -0.0103132 -0.0102558)
(4.17547 -0.0216549 -0.0315781)
(2.5469 0.355736 -0.0920072)
(4.62774 -0.294648 0.109637)
(4.08451 -0.183154 0.0509787)
(4.54773 -0.16342 0.0428659)
(1.51999 1.52035 -0.0003322)
(2.062 1.75041 0.0146562)
(4.31915 0.0123126 -0.00369566)
(1.44232 -1.44749 -0.00441616)
(0.79876 -0.558041 0.237059)
(4.28773 -0.0799413 -0.0642646)
(1.51998 1.51601 -0.00287153)
(1.52049 1.51869 -9.66241e-05)
(3.82237 -0.076217 -0.00493131)
(3.12563 -0.201318 0.0431271)
(1.52044 1.52041 -0.000270487)
(3.86992 -0.0708165 0.0121567)
(1.51881 1.5173 0.000310017)
(1.51906 1.52119 -0.00247735)
(1.44753 -1.44776 -0.000203794)
(1.4494 -1.44583 0.00348958)
(1.42121 -1.41049 0.00506373)
(1.44748 -1.44485 2.06409e-06)
(3.86427 0.0300519 -0.0145872)
(1.51772 1.50898 -0.00127376)
(1.51898 1.51951 0.000458309)
(1.51129 1.51994 0.00268556)
(3.59667 -0.796597 -0.209628)
(4.07811 -0.0343936 -0.0749276)
(3.95265 -0.000996084 -0.0392194)
(4.31928 0.0124669 -0.00389935)
(1.5144 1.50458 0.000268012)
(1.52335 1.51792 -8.26555e-06)
(4.14292 -0.0702115 -0.0848646)
(1.51971 1.52063 -0.0013621)
(1.5192 1.5179 0.000591721)
(2.41658 1.38822 0.0503392)
(4.41305 -0.0591142 -0.00511522)
(4.30573 0.0103188 -0.00316035)
(1.51809 1.51801 -6.08238e-05)
(1.51997 1.5169 0.0017924)
(1.51596 1.51179 -0.00203598)
(1.51808 1.51548 -0.000337071)
(1.522 1.52173 -0.00162546)
(1.52255 1.51855 0.000174075)
(4.32398 -0.0991281 -0.0620946)
(1.52066 1.5164 -0.000161976)
(2.9992 0.0433241 0.0996122)
(4.34506 -0.00994753 0.0112706)
(1.51878 1.52089 -0.00028977)
(1.43896 -1.44491 -0.00391643)
(1.42918 -1.41577 0.00155579)
(3.65337 0.0427747 0.196133)
(1.42191 -1.42026 -0.00566112)
(1.44633 -1.44732 0.00138205)
(1.51221 1.51441 -0.00953888)
(3.91452 -0.0598289 0.00288703)
(1.5169 1.5168 -0.000263568)
(4.28917 -0.0554746 -0.0349396)
(3.42805 0.0538843 -0.0179057)
(2.82546 0.00391712 0.112502)
(1.51711 1.51751 0.000483611)
(2.9379 -0.752673 0.0601491)
(4.32289 -0.00892621 0.000827026)
(4.35158 0.0100347 -0.0117082)
(1.55323 -1.47994 -0.0180411)
(4.19059 -0.0666202 -0.0118175)
(4.27596 -0.00809085 -0.00684423)
(1.44834 -1.43839 0.00141287)
(1.56788 1.48701 0.00721004)
(2.04623 -1.57594 -0.128881)
(1.51519 1.51432 8.23606e-05)
(4.33025 0.00977865 -0.00176182)
(4.31285 -0.0058524 0.00640861)
(4.39344 -0.0523691 0.0218842)
(2.89614 -0.00303536 0.157464)
(1.52026 1.51963 -0.00018986)
(4.33239 0.0100112 -0.00276802)
(1.56481 1.48866 -0.00231003)
(1.89776 1.60599 -0.00771192)
(1.94645 -1.51406 -0.0611379)
(1.51924 1.51958 0.00055003)
(4.33369 0.0124935 -0.00329095)
(1.51669 1.51345 0.00131171)
(1.43335 -1.40947 0.000372064)
(3.95638 -0.0544038 -0.0974266)
(4.23663 -0.00983587 0.00622665)
(1.43342 -1.41035 -0.00435327)
(4.26141 0.00770116 -0.00303922)
(1.6206 1.58378 -0.0101841)
(4.32829 -0.036962 -0.0187273)
(1.4324 1.37066 0.0156305)
(1.52044 1.52109 -0.000649146)
(1.52833 1.52317 0.00515747)
(1.44854 -1.44882 0.000482168)
(4.20861 0.00871845 -0.00741835)
(3.77267 0.00630118 -0.016463)
(4.36105 -0.00552055 0.0799245)
(1.51524 1.51562 0.000916657)
(1.51572 1.48722 0.00973787)
(4.18991 0.00919306 -0.00688272)
(1.52022 1.52053 -0.000512166)
(1.76046 1.59684 0.0218046)
(1.44772 -1.44661 0.000679454)
(4.14424 0.0257622 -0.00281491)
(4.4167 -0.107681 -0.0337987)
(4.31995 0.0113782 -0.00418322)