/*--------------------------------*- C++ -*----------------------------------*\
  =========                 |
  \\      /  F ield         | OpenFOAM: The Open Source CFD Toolbox
   \\    /   O peration     | Website:  https://openfoam.org
    \\  /    A nd           | Version:  10
     \\/     M anipulation  |
\*---------------------------------------------------------------------------*/
FoamFile
{
    format      ascii;
    class       surfaceScalarField;
    location    "1.8";
    object      phi;
}
// * * * * * * * * * * * * * * * * * * * * * * * * * * * * * * * * * * * * * //

dimensions      [0 3 -1 0 0 0 0];

internalField   nonuniform List<scalar> 
214403
(
-0.00368161
0.00281996
0.000157536
0.000704107
-0.00172507
-0.00589758
0.000444249
0.0071784
-0.00547256
1.29928e-05
-6.44479e-05
0.00552402
0.0048415
-0.00324107
-0.00812055
0.00652013
0.00638213
-0.00804966
0.00187771
-0.000210181
-0.00280921
0.0029274
-3.38349e-05
-8.43546e-05
-0.000445771
-0.000874102
-0.00482901
0.00614888
-0.00868717
0.00495333
-0.00129748
0.00503132
-0.0123151
0.00865263
0.00881077
-0.0051483
0.00722577
0.000869316
-0.00816194
6.68563e-05
0.00269961
-0.00531798
0.00111237
0.00150601
-0.00526742
0.00162995
0.0027355
0.000901966
0.000250606
-0.00617209
0.00746927
-0.00154779
-0.00533171
0.00531572
1.59884e-05
0.00103545
0.00629228
-0.00809345
0.000765719
-0.00619936
0.00515738
0.00154392
-0.000501945
-0.00634227
0.00617235
0.000169925
0.00209394
-2.44769e-05
-0.000513417
-0.00155605
0.00807166
-0.0048198
-0.0107708
0.00751893
-4.13807e-05
-0.00169392
4.93673e-05
0.00168593
0.00347889
-0.00338358
-9.53021e-05
-0.00644044
-0.00222614
0.00221355
0.00645303
-0.00120492
0.00710912
-0.00571261
-0.000191579
0.00346494
0.000336084
0.00118596
-0.00498699
-0.0053429
-0.0025375
0.00690244
0.00097796
0.00502332
-0.00635605
4.26326e-05
0.0012901
0.00164072
-0.00139685
0.00535441
-0.00559827
0.00410751
0.00535352
-0.00645992
-0.0030011
0.0057543
-0.00359711
-0.000173726
-0.00198346
-0.0031974
0.00326086
-6.34532e-05
0.00126864
-0.00265453
0.00712608
-0.00574018
0.00727418
0.000350335
-0.00125812
-0.00636639
-0.00306543
-0.00314398
0.00322264
0.00298677
-0.000624115
-0.0035318
0.00312019
0.00103572
0.00231037
-0.00151695
-0.00502244
0.00422902
-0.000890808
0.00445289
-0.00161105
-0.00195103
0.00842492
-0.000220529
-0.00820439
-0.00360808
0.00709318
-0.00348511
0.000652515
-0.0078315
0.00456208
0.0026169
0.00124517
-0.000505235
0.00310795
-0.00384788
0.00297881
-2.70612e-05
-0.00295175
0.0052162
-0.000129098
0.000962396
-0.0060495
-0.00668297
0.000808471
0.00711967
0.00051392
0.000471274
0.004544
-0.00552919
-0.0021476
-0.0142867
0.0138669
0.00256741
0.00312329
0.000573138
0.000698459
-0.00439488
0.00217449
0.00168136
-0.00535664
0.00150079
0.00686151
0.00408772
-0.0074843
0.000602942
0.00580406
-0.0011908
0.000993974
-0.00371736
-0.00219035
0.00491374
0.00170401
0.00259995
0.000769603
-0.00507356
0.000977098
-0.000738735
-0.00223822
0.00199986
0.00376022
-0.00680184
0.00474564
0.00620007
-0.00586652
-0.00198094
0.00164739
0.00581872
-0.00106453
-0.00445108
0.00602981
-0.000241289
-0.00133744
0.00455696
-0.00585818
8.39419e-05
0.00121727
-0.00433415
0.000294404
0.00692042
-0.00288068
-0.00826478
-0.00810895
0.00663595
0.00973778
-0.00423164
0.00424469
0.000830482
-0.000843536
0.000647697
-0.00538457
-0.00468385
-9.61711e-05
0.00243299
0.00234703
-0.00744034
0.00318694
0.00477028
-0.000516878
0.00826132
-0.00664543
0.000378625
-0.00199452
0.000379217
0.000148325
-0.00541718
0.00488964
0.000316782
-0.00162193
0.00795584
-0.0066507
-0.01896
0.00222279
0.0020742
0.014663
-0.00162366
0.00487156
-0.00154864
-0.00169925
0.00265103
-0.00137356
-0.00565182
0.00437435
0.000646127
0.00417977
-0.0052842
0.000458306
-6.71621e-05
0.00456057
0.0015443
-0.00603771
-0.000945597
-0.000155438
-0.00202513
0.00312616
-0.00490272
0.00536174
-0.00020224
-0.000256783
0.000208635
-0.00499795
-0.00346786
0.00307751
0.000932497
-0.000542154
-0.00873188
-0.000555173
0.00424692
0.00504013
-0.00267627
-0.0011363
0.0022676
0.00154497
0.00384973
-0.0129237
0.0017279
0.00734604
-0.00205965
0.0041354
-0.00226182
0.000186079
0.00291924
-0.00227888
0.000291643
-0.000932011
9.74256e-05
-0.0056364
0.00553898
1.96064e-05
0.00445307
-0.00447267
0.00396933
-0.000778844
0.000514726
-0.00370521
-0.00248088
0.0035415
0.00117365
-0.00223426
-0.00172329
0.00743536
-0.00180076
-0.00391131
0.00362179
-0.00624927
-0.000200044
0.00282752
0.00393265
0.00411413
-0.00804677
0.00569319
-0.0064138
0.00166509
-0.000944482
0.000539854
-0.00102651
0.00754243
-0.00705577
0.000240116
-0.00121316
0.00541193
-0.00443888
0.00137067
0.0113322
0.00322862
-0.0159315
-0.00968979
0.00851373
0.00552454
-0.00434847
0.000467173
0.00366052
-0.00489202
0.000764328
0.00469323
0.00524076
-0.00168503
-0.00824896
0.00831675
-0.0051042
-0.000116895
-0.00309566
0.000383795
-0.00113087
-0.0035569
0.00430398
-0.00359124
1.66122e-05
0.00357463
0.00518161
0.000168021
0.000343561
0.00656014
0.000558999
-0.0100157
0.00289659
-0.00536388
0.00111799
0.000938031
0.00330786
-0.00339938
0.000844778
0.000417122
0.00213748
0.000751746
0.000587508
-0.00669778
0.00535852
-0.00139364
-0.00809568
0.00516338
0.00432594
0.00322165
-0.00381079
-0.00250026
0.0030894
0.00525445
-1.71311e-05
-0.00525567
1.8346e-05
0.00401429
-0.00566405
-0.0019323
0.00358206
0.0103909
-0.00315493
-0.00161877
-0.0056172
0.00580462
-1.046e-05
-0.0053235
-0.000470659
-0.00320633
0.00376151
0.00777418
-0.00832936
0.0065299
-0.00222437
-0.00630022
0.00199469
0.00123519
-0.00180852
0.00783122
-0.00725789
-0.00833108
0.00757756
0.00720565
-0.00645213
0.000417545
-0.00698128
0.00268466
0.00387907
0.00885397
-0.00043978
-0.000223671
-0.00819052
0.00603191
-0.00117395
0.00116982
-0.00602778
-0.00748417
-0.00684268
0.00808821
0.00623864
-0.00132563
0.00380555
0.00103614
-0.00351605
-0.00286034
0.000155478
0.00554482
-0.00283996
-0.000622879
0.00727951
-0.00673512
7.84915e-05
-0.00649347
0.00602741
0.00117743
-0.000711376
-0.000213278
-0.00377409
0.00901069
0.00115271
-0.00381776
-0.00281866
0.00548371
-0.00302719
3.83789e-05
0.00298881
0.000930456
0.00422919
-0.00391035
-0.0012493
0.00689058
-0.00399089
-0.00107486
-0.00182483
8.53607e-05
-0.00212588
0.00204052
-0.00382264
-0.00104024
0.00144951
0.00341338
0.000434822
0.00241163
-0.00537312
0.00252667
0.00863419
-0.000781142
0.00336401
-0.0112171
0.000599588
-0.000818107
-0.0101236
0.0103421
0.000615416
-0.00290169
-0.00376559
0.00605187
0.00022591
0.00521621
-0.000260515
2.27026e-05
-0.00318346
0.00316075
0.00638498
-0.00238469
-0.00284758
-0.00385471
0.00321651
-0.00318445
0.00687713
-0.00573915
-0.00070565
-0.000432321
0.000704369
-0.00331583
0.00145315
0.00115831
-0.00564316
-0.00172428
0.00115953
0.0062079
0.00474641
-0.00763309
0.00508349
-0.00219681
-0.000160638
0.00711313
-0.00711337
0.000160876
2.66401e-05
0.00790441
-0.00789214
-3.89175e-05
-0.00872566
0.0070043
-0.00563033
0.00735168
0.00733838
-0.00715248
-0.000185905
-0.00714015
0.00952555
-0.00169004
-0.000695359
-0.00611164
0.00150792
-0.000478405
0.00508213
-0.0101016
0.000756485
0.00650884
0.00283626
0.00177415
-0.00242401
0.00135423
-0.0025593
0.00290199
0.00467791
-0.0050206
-0.00265086
-0.00119336
0.0015166
0.00232762
-0.00359593
0.00235091
-0.00448983
0.00573485
0.00109329
0.000101673
-0.00833511
-0.00369735
0.00368875
8.59879e-06
0.00454355
-0.00438521
-0.000158337
-0.00595011
-0.000389976
-0.00157417
0.00142125
-0.0077969
0.00907224
-0.0026966
0.00344423
0.00587
-0.00748923
-0.001825
0.00655326
-0.00714064
0.000215092
0.000372286
0.00374873
0.000970709
-0.00388492
-0.000834513
-0.00568192
-0.000305844
0.00740902
0.00335663
-0.000240868
-0.00409123
0.000975462
0.00378214
-0.00322506
0.0037157
-0.00427278
-0.00620801
0.00117809
0.00847415
-0.00221944
-0.00294624
0.0099338
-0.00476812
-0.00305338
-0.0034094
0.00078086
0.000871184
0.00247932
-0.00640388
-0.00455851
-0.000365225
0.00731249
-0.00238876
0.000669683
0.0011857
0.00382846
-0.00568385
-0.0020525
0.00501383
-0.00296133
0.00156991
-0.00785381
0.0028745
0.00466834
0.00328216
-0.00707932
-0.00657256
8.64604e-05
0.00817825
-0.00169215
0.00114925
0.000995569
0.00310529
-0.00525011
0.0053358
-0.00533643
6.29515e-07
0.00166459
-0.00063146
0.00557624
-0.00660937
0.00581196
-0.00183084
0.00278617
-0.00676729
0.0111623
-0.00360248
0.00831645
-0.0158763
0.00176081
0.00326872
-0.00135653
-0.003673
-0.00505689
0.00207786
0.00265221
0.000326823
0.0036265
-0.00272983
-8.22643e-05
-0.000814405
-0.00226438
-0.00284742
0.00831741
-0.00320562
-0.0040643
0.00527969
0.00210106
-0.00331645
0.00613237
-0.00033226
-0.00201797
-0.00905764
0.00597549
-0.000513783
-0.00861806
0.00798734
0.00369482
-0.0030641
0.00552079
-0.00622564
-0.00088171
0.00158656
0.00311246
-0.00565891
-0.00293676
-0.00337495
-0.00311525
0.00174676
0.00474344
-0.00476372
0.00149937
0.00473152
-0.00146717
0.00579346
-0.00550429
-0.0038262
0.00353703
3.58691e-05
-4.69324e-05
-0.00522314
0.00523421
0.000147886
-0.00475458
-0.000163133
0.00476983
-0.00131039
-0.0078108
0.00123135
-0.00452836
0.0040718
-0.000774786
-0.00303447
-0.00127525
-0.000453998
-1.83667e-05
0.00722269
2.14458e-05
-0.0177733
0.012487
0.00908024
-0.00379385
-0.00538836
0.000364585
0.000187391
0.00483638
-0.00106944
0.0168251
-0.0198232
0.00406756
0.000857485
0.00133473
-0.00298617
0.000793955
-0.0115582
0.00622151
0.00083414
0.00450256
-0.000127224
-0.00770119
-0.00113675
0.00896517
-0.00303297
0.0113829
-0.00791762
-0.000432335
0.00516284
0.00747585
-0.00691946
-0.00571922
-0.00599536
0.00571604
0.00708016
-0.00680084
0.00242867
0.00338545
-0.00422297
-0.00159116
0.00239975
-0.00159654
-0.00383768
-0.0117804
-0.000449266
0.00959203
0.00263768
0.00362519
0.000573146
-0.00212048
0.00365201
0.00494213
-0.00454251
-0.00405163
-0.00594495
0.00133102
0.00575863
-0.0011447
0.000703851
0.00200674
0.00681495
-0.00716043
0.0070333
0.000678745
-0.000551607
0.00443784
0.00349405
-0.00314133
-0.000120182
-0.000890929
0.00415244
-0.00468521
-0.000975857
0.00262001
-0.00886514
0.00373662
0.0025085
0.000230293
0.00473462
-0.00522814
0.000263228
-0.00183088
0.000357002
-0.00169952
0.00317339
0.00755298
-0.00540298
0.000249749
-0.00428374
-0.00337055
0.00453341
0.00312088
0.015331
-0.0165443
0.00549605
-0.00428273
-0.00315435
0.00391957
0.00157504
-0.00234026
-0.00765087
0.00329638
0.00664683
-0.00229235
-0.00301792
0.00438216
0.0055966
-0.00696085
0.00846044
-0.00320997
-0.00563212
0.000381643
0.000148681
-0.00204991
0.00496211
-0.00306088
-0.000859177
0.000833222
-0.00654661
0.00609733
0.00194835
-0.0065268
-0.00151888
0.00772296
-0.00634015
-0.00168866
0.00158188
0.00234064
-0.005551
0.00162849
-0.00327596
-0.00592531
0.00532385
0.00387743
-0.000978387
-0.00255191
-0.000753444
0.00311133
-0.00330174
0.00711335
-0.00692293
0.000753108
-0.0084969
0.00774379
0.00292826
-0.00384438
0.002498
0.0016595
0.000975647
0.00135598
-0.00399113
-0.000167219
-0.00729474
0.00746196
-0.00409026
0.00054501
-0.00133102
0.00487627
-0.00053737
0.00589376
-0.00534004
-1.63414e-05
-0.00382227
-0.00206127
0.00223273
0.00365081
-0.00139923
-0.00340142
-0.00311454
-0.00458171
0.00382391
0.00387235
0.000179629
-0.00469341
0.00787626
-0.00323422
-0.000422496
-0.00421955
0.00460199
-0.000514219
-0.0033384
-0.000749365
-0.000644308
0.00591046
-0.00740446
0.00213832
0.00379762
0.000147646
0.00184352
-0.00578878
-0.000145255
-0.00312838
0.00151451
0.00175912
-0.00218642
0.0028356
0.00537274
-0.00602193
-0.00757797
-0.00199449
-0.0021377
0.00706045
-0.00712184
0.000186055
0.00221841
0.00471738
0.00065553
-0.00239639
-0.00417065
0.00591151
-0.00314014
-0.00613709
0.00154868
0.00772854
-0.00276276
-0.00305648
0.00317372
0.00264552
-0.00704417
0.00677865
0.00713804
-0.00687251
-0.000997362
-0.00174509
-0.0052927
0.00803515
-0.00720901
0.000705901
0.00735578
-0.000852676
-0.00127118
0.0033357
-0.00206452
-0.00293324
0.00542859
-0.00408677
0.00159142
-0.000107287
0.00938917
-0.00352316
-0.00575872
-0.00344168
-0.0017031
0.00689594
-0.00175116
0.00106819
-0.00281907
0.00637123
-0.00462035
0.000307164
0.00433594
-0.000759305
1.04262e-05
-0.00684447
0.00683772
-3.67369e-06
0.00812309
-0.00144807
-0.0118781
0.00520303
-0.00750607
-0.000731421
0.00936965
-0.00113216
-0.00406162
0.00613871
0.000500032
-0.00257712
0.00404006
-0.00404166
1.5962e-06
-0.00410014
0.000447968
-0.00347868
0.00713085
-0.00610404
0.00841638
-0.00169045
-0.000621886
0.00377002
-0.00156107
-0.00456349
0.00235454
-0.00702324
0.00706044
-3.7195e-05
0.00604503
-0.00875619
0.000680505
0.00203066
-0.00662151
-0.00183029
0.0113781
-0.00292632
0.00506855
-0.000249869
-0.00104528
-0.0037734
-0.00285033
-0.00482938
0.010791
-0.000499174
-0.0070772
0.00427463
0.0111434
-0.0124306
-0.00118029
0.0024675
0.00310825
0.00148526
-0.00344426
-0.00377726
0.00388219
-0.000104923
-0.0012598
0.00706892
-0.000462681
-0.00534643
-0.00148333
0.00176966
0.00607003
-0.00635636
0.0041872
0.009891
-0.00571954
-0.00835867
0.0072633
-0.0087004
0.00276863
-0.00133152
0.00626529
5.0074e-05
-0.00631537
8.38936e-05
0.00606714
-0.00615103
0.00700215
-0.00845387
0.00749676
0.000112583
-6.7131e-05
0.00614511
-0.00619056
7.69683e-05
0.0100868
-0.0100626
-0.000101094
-0.000817346
-0.00245306
-0.00504495
0.00831535
-0.00314755
-0.00183862
0.000611993
0.00582261
-0.0101213
0.00368668
-0.00490008
-0.00128368
0.00525085
0.000932913
-0.00628834
0.00691411
-0.00185362
0.00122785
0.000915149
0.0047511
-0.00161639
-0.00404986
-0.00221688
0.000510455
0.00385594
-0.00214952
-1.10655e-07
0.00180227
-0.00231522
0.000513067
-0.00249679
0.00609959
-0.00353636
-6.64407e-05
0.00173831
-0.00555138
-0.00321018
3.47029e-05
-0.00527023
0.00523553
-0.00206072
-0.00197179
0.000912209
0.0031203
0.00296716
-0.00171153
-0.00125564
0.00736394
-0.00734969
-0.00146732
0.00145307
-0.000700835
-0.00455648
0.00421544
0.00104187
-2.12551e-05
2.61342e-05
0.00414811
-0.00415299
0.00206592
-0.00170882
-0.00658316
0.00622606
0.00479993
-0.000135745
-0.00466419
-0.00698224
-0.00453659
0.00673609
0.00478273
0.00394447
0.00614152
-0.0105852
0.00390277
-0.0013857
0.00219387
-0.00471095
-0.0016098
0.00159408
-0.00892779
0.00894352
0.00226134
-0.0044893
-0.00435602
0.00658398
-0.000478504
-0.00106868
0.0049747
-0.00342752
0.00345664
-0.00424462
0.00154098
-0.000753001
0.00197314
-0.00327779
-0.00316433
0.00446898
-0.0061177
0.00687785
-0.00179949
0.00103933
0.00716445
0.00920565
-0.0101455
-0.00622463
-0.00562414
0.00559225
3.18883e-05
-0.000669319
0.00640963
-0.00799401
0.0022537
0.000206337
-0.000324828
-0.00651484
0.00663333
0.00599762
0.000250692
-0.00689875
0.00065043
-0.00268114
-0.00452077
0.00568729
0.00151463
-0.00645288
0.00913862
-0.00323902
0.000553274
-0.00254917
-0.00314861
0.00188002
-0.000359627
-7.77425e-05
-0.00433698
0.00477435
-0.0140144
8.88101e-05
0.00119825
0.0127273
0.000570058
-0.00364802
-0.00189008
0.00496804
0.0089206
-0.000744502
-0.00289811
-0.00527799
-0.00157057
-0.00345673
0.000645127
0.00438218
0.00262892
-3.40683e-06
-0.00262551
0.00424702
0.00219312
-0.00143128
-0.00500885
0.00327568
-0.00258912
0.00640425
-0.00709082
0.000192553
0.00650427
-0.00213306
-0.00456376
0.00160262
0.00232454
0.00499345
-0.00321035
0.000241795
0.00296856
-0.00420334
0.000613922
0.00110793
0.000697248
-0.00575813
0.00395295
-0.00540831
0.00793949
0.00240289
0.00822119
-0.00172816
-0.00889592
-0.00527739
0.00514006
-0.00818133
0.00831866
-0.00077847
-0.00393105
0.00137177
0.00333775
-0.00439575
0.0083284
0.00253911
-0.00293838
0.000671608
-0.000272336
-0.00264522
-0.00838874
0.00259583
0.00843812
0.00558213
-0.00555185
-8.84096e-05
5.813e-05
0.00460238
-0.00541943
0.00114562
-0.000328563
0.00112524
0.00447574
-0.00798945
0.00238847
2.59074e-05
0.00392618
-0.00395209
0.00251084
-0.00641556
0.00502996
-0.00251434
0.0067472
0.00571051
-0.00994336
0.00181781
-0.0019381
-0.00890959
0.00902989
-0.00261132
0.00436418
-0.0088921
0.00713924
-0.00645134
0.00508876
0.00664261
-0.00528003
-0.0040051
0.00547886
-0.0035374
0.00206364
-0.000876091
0.00383344
0.000621939
-0.00357929
0.00185998
-0.00271829
0.00280047
-0.00194216
0.00366903
0.00137107
0.00121125
-0.00625135
0.00981291
-0.00664501
-0.000428916
-0.00273898
-3.07553e-07
-0.00477325
0.00477356
0.00298369
-0.00442297
-0.0134681
0.0149074
-0.000639774
-0.00649184
-0.00195271
0.00908433
-0.000402715
-0.00303631
0.00343902
0.000921161
0.00435262
-0.000741888
-0.0045319
-0.00122359
-0.00442787
0.00356676
0.00208471
0.00357379
-0.00299684
-0.0052608
0.00855997
-0.0066889
0.00200933
0.00213537
-0.0041447
0.00675423
5.99427e-05
-0.000780754
-0.00603342
-0.00131923
-0.00224851
0.00356774
0.00235263
0.00156891
0.0131218
-0.0157647
-0.00554267
0.00818559
0.00201331
0.00431901
-0.00329655
-0.00303577
-0.00461518
0.00889038
0.00584496
-0.0101202
0.00549195
0.00190082
-0.00071781
-0.00667496
0.00861924
-0.00576031
0.00370364
-0.00656257
-0.00516997
0.00236723
-0.00662842
0.00943115
-0.00797851
0.014192
-0.00553589
-0.000677581
-0.000240689
-0.00333734
-0.00459205
0.00817008
0.00646329
0.00267814
-0.00752827
-0.00161316
0.00364631
-0.00965554
0.00602815
-1.89154e-05
-0.00808405
-0.00031521
0.00527338
0.00312588
-0.00169133
0.00435391
0.00187589
-0.00453847
-0.00101592
0.00407023
0.00329308
-0.0063474
-0.00875938
0.00448609
-0.00038729
0.00466059
0.000745316
-0.00226939
0.00452329
-0.00299921
0.00370351
-0.00185691
0.0013215
-0.0031681
0.00366915
0.000739753
0.000358099
-0.004767
-0.00506877
0.00544806
0.00201602
-0.00239531
-0.00124487
0.00648742
0.000116208
-0.00535876
0.00519043
-0.00303808
-0.00197222
-0.000180139
0.00449675
3.44099e-05
-0.00453116
0.00328053
0.00253927
-0.000577752
-0.00524205
0.00152674
0.00397833
0.00338166
-0.00888673
9.07458e-05
-0.00747459
0.00738385
-0.00390144
0.0149378
-0.00219538
-0.00884096
-8.26212e-05
0.00535479
-0.00527217
-0.000363904
-0.00395162
0.000709892
0.00360563
-0.00720921
0.00370034
0.00281878
0.00069009
0.00148677
0.00114461
-0.00825288
0.0056215
0.00427598
0.00674331
-0.0025143
-0.00850499
0.00640389
-0.00215308
-0.00613399
0.00188318
-0.00816084
0.00475199
0.0128425
-0.00943367
-1.83284e-05
0.00321484
-0.00321797
2.14615e-05
-0.00331306
0.00328311
2.99492e-05
-0.00820172
0.000115598
0.00347094
0.000932256
0.00195695
0.00541
-0.00829921
0.00424529
-0.00507
0.00328303
-0.00245832
-0.00425816
0.00371706
-0.000131744
0.00067284
-0.000849255
-0.00697372
0.00887235
-0.00104937
-0.00314319
0.00150658
0.00497517
-0.00333856
0.00523038
-0.00201933
0.000759573
-0.00397062
-0.0034649
-0.000598554
0.00404873
1.47262e-05
-0.000620978
-2.80967e-05
0.00590259
-0.00525351
0.000683649
-0.000567892
0.00549119
-0.00560695
-0.00514451
0.00723428
-0.00765762
0.00556786
-2.76869e-06
-0.006329
0.00633177
-0.0023063
0.000204129
0.00590507
-0.0038029
-0.00438627
0.00513256
-0.00700503
0.00625873
-0.00450577
0.000341019
0.00134608
-0.00205402
0.00570225
0.000311293
-0.00395952
-0.0015099
0.000212547
-0.00255735
-0.00221588
-0.00734198
0.00734923
0.00220862
-0.00333633
-0.000373236
-0.000879021
0.00458858
-0.0108737
0.0036548
0.00104871
0.00617022
-0.00353766
0.00819075
-0.00408625
-0.000566842
0.00241985
0.000983957
-0.00491371
0.00478026
0.00482498
-0.00960525
0.000706674
0.0106317
-0.00245738
-0.00888101
-0.000136606
-0.000198355
-0.00484958
0.00518454
-0.00506572
0.00828594
-0.003365
0.000144773
0.00470131
-0.00293169
-0.00424533
0.00247571
0.00124919
-0.000166896
0.00152898
0.00753891
0.0020873
-0.0108511
0.00122487
-0.00584498
-0.000638442
0.00184189
0.00464153
0.00190505
-0.00215303
-0.00290064
0.00866336
-0.00585709
0.00463401
-0.00744028
-0.000979729
0.0056749
-0.00983194
0.00513677
0.00341048
-0.00433285
-0.000434357
0.00135672
-0.00381201
-0.00133153
-0.000127073
0.00527062
-0.00283523
-0.00265411
0.00548934
0.000663171
-0.00743704
0.00659992
0.000173957
0.002892
-0.00281698
-0.00291025
-0.00526279
0.00663091
-0.00123955
-0.000128566
0.00688755
0.0018843
-0.00738736
-0.00138449
-0.00276405
-0.00413191
-0.000501542
0.0073975
0.00452643
-0.00138176
0.00525281
-0.00839748
-0.00492843
-0.000216084
-0.00573055
0.00307644
0.000745226
-0.00647131
0.00206839
0.0036577
0.00196047
-0.00709662
0.00386362
0.00127252
0.00119991
0.000244183
-0.00593637
0.00449227
0.000790471
0.00333432
-0.00023062
0.00592792
-0.00117214
-0.00452515
-0.00231949
-0.000246627
-0.00216513
0.00473125
-0.00137794
-0.00185504
0.00354624
-0.000313252
-0.00524869
-9.42049e-05
-0.00888127
0.00319955
0.0046658
0.0127849
-0.000149882
0.00177917
-0.0144141
-0.00611449
0.00926874
0.00195522
-0.00510946
-0.00165198
0.000862301
0.00545546
-0.00466578
0.0006634
0.00187715
-0.00145332
-0.00108722
-0.0096845
-0.00200431
0.00834781
0.00334099
0.00021618
0.00420355
-0.000845945
0.000154761
0.00207091
-0.00652052
0.00429484
-0.00394123
-1.29545e-05
0.00145535
0.00249884
-0.00562941
0.00695734
-0.00111175
0.00317174
-0.00285256
-0.000319186
-0.00471624
0.000583996
-0.00361502
0.00774726
-0.00211393
0.0031846
-0.00245868
0.00138802
-0.00456606
0.00514382
-0.00212441
0.00154664
0.00199776
-0.000339739
-0.0046152
0.00295718
-0.00204163
0.0128034
-0.0172146
-0.00177695
-0.00124032
0.00121413
0.00180314
0.00598989
-0.00930485
-0.000422688
0.00373764
-0.00245527
0.00183116
0.00316164
-0.00253753
-0.000753037
0.00390079
-0.00107096
-0.0020768
-0.00437104
0.000967552
0.0010266
0.00237689
-0.00253798
0.000215648
0.00232233
0.00562935
-0.00267675
-0.00286041
-9.21851e-05
0.000436424
0.00292477
-0.00444574
0.00108455
-0.0030109
-0.00363824
0.00371376
0.00293538
-0.00178236
0.00450278
-0.00380228
0.00108186
0.00145632
-0.00275303
0.00189555
-0.000598839
0.00549823
8.3645e-05
-0.00558188
0.00451718
-0.00556891
0.00276
-0.00170827
-0.00723114
-0.000162236
0.00739338
0.002925
-0.00243168
0.00057286
-0.00106617
-0.000179193
0.00541215
-0.00596196
0.000729008
-0.0025376
0.00317766
0.000816256
-0.00293977
0.00627122
0.00580717
-0.00483988
0.00473516
0.000104715
-2.6129e-06
-0.00756916
0.00757177
0.0102874
0.00121645
-0.00213744
-0.00936643
0.00218288
-0.00842961
-0.0010369
0.00728363
0.00160338
0.00190893
0.00111785
-0.00463017
-0.00283291
-0.00282232
9.09558e-06
0.00564614
-0.00137436
0.00187394
-0.00333249
-0.0062783
0.00114515
0.00823648
-0.00310332
-0.0124956
0.0091481
0.00403138
-0.000683932
0.00544057
-4.30184e-05
-0.00539755
-0.00324011
-0.00437245
0.00282327
0.0047893
-0.00311922
-0.00449949
0.00134041
-0.00452362
0.00246478
0.00284931
0.00181698
-0.00240371
-0.00433783
0.00492456
-0.00307155
-2.12729e-06
0.00307368
-0.00709345
0.00291657
0.00290882
0.00126806
0.00182043
-0.00485221
-0.00149185
0.00613086
-0.00195259
-0.000142213
-0.00403605
-0.00412149
0.006874
0.00397448
-0.006727
-0.00128071
-0.00267768
0.00104907
0.00290932
-0.00174352
-0.00140291
0.00314643
-0.00306431
-0.00646805
-0.00296319
0.00149363
2.11382e-05
0.00300331
-0.00451808
0.00577952
-0.00416678
-0.00608058
0.00446784
-0.00217149
0.000783352
0.00433872
-0.00295058
0.00412171
-0.00290481
-0.000403254
-0.00081364
-0.00472115
0.000777701
0.0036865
0.000256947
-0.00291982
0.00669342
-0.00729995
0.00285253
0.00020696
0.00424045
0.0070901
-0.00562262
-0.00445927
0.0029918
-0.00534974
0.0011741
0.00995516
-0.00527176
-0.0034929
0.00568112
0.00308353
-0.000615071
0.0055062
-0.00209443
-0.00279671
0.000340876
-0.00370411
-0.00241639
0.00577962
0.0062763
-0.00414206
-0.000253841
-0.0018804
0.00191621
0.00144214
-0.00473271
-0.00132387
0.00149863
0.00367924
-0.003854
-0.00110841
0.00569162
-0.00702965
0.00244645
-0.00357383
0.000864914
0.00086295
0.00184597
-0.00798581
0.00800651
-2.07054e-05
0.00652027
-0.00644777
-7.25003e-05
0.00225448
-0.00860235
-0.00332007
0.00966794
0.00183002
0.00347219
0.000828649
-8.16525e-05
0.00306052
-0.00297887
0.00539358
0.00477923
-0.0101728
-0.00546646
0.00333668
0.0023591
-0.00022932
-0.00306933
0.00101041
0.00249466
-0.000435743
-0.00917852
0.00429611
0.00503673
-0.000154321
-0.00296065
-0.00330785
0.00319695
0.00548602
-0.000939489
-0.00342162
-0.00112491
-0.00503092
0.00544421
-0.00333311
0.00086287
-0.00564335
-0.000265489
0.00504597
-1.25412e-05
-0.0028976
0.00291014
0.0134066
0.000102381
0.00146269
-0.0149717
-0.00052819
-0.00106799
-0.00775468
0.00935085
0.00239461
-0.00324279
-0.00150227
0.00235045
0.000948503
0.00718723
-0.00291879
-0.00521695
0.00776023
-0.00771567
7.55855e-05
-0.000120141
-0.00433126
-0.00390223
0.00610703
0.00212646
0.00252228
0.00184301
-0.00494782
0.000582535
2.86893e-05
0.00470557
-0.00480926
7.50019e-05
-0.00631203
0.00204749
0.00511204
-0.000847498
0.00495466
0.00299233
-0.00500949
-0.0029375
0.000104637
-0.0044072
0.00213335
-0.00111491
0.00674179
-0.00358045
-0.000465922
-0.000557351
0.00460372
-0.00613818
0.000234015
0.00590416
0.00877201
0.00384104
-0.00284428
-0.00976877
-0.00577423
0.000110296
0.00576857
-0.000522164
-0.00135434
-0.00345102
0.00532752
-0.000652829
-0.000717532
-0.00187148
0.00324184
0.00148801
-0.00755701
0.00571386
0.000355138
0.00549103
-0.0007759
-0.00537703
0.000661901
-0.00567642
0.00116997
0.000441473
0.00406498
-0.00214914
0.00143521
-0.00302551
0.00373944
0.00119113
0.000854251
-0.00710989
0.00506451
0.000209206
-0.00508081
-0.000283112
0.00515471
0.0048322
0.000711219
-0.000168727
-0.00537469
-0.00575209
0.0013161
0.00518773
-0.00413498
-0.00551561
0.00965059
0.0081626
-0.00413571
0.00177265
-0.00579954
0.000647693
0.00451735
-0.00277044
-0.00663896
0.00125495
0.00232097
0.00306303
0.00819684
-0.00843383
0.000236989
-0.00505414
-0.00171609
0.00354097
0.00322926
-0.00716797
-0.0055259
0.00373785
0.00895602
0.0065556
-0.00684629
-0.000841478
0.00113217
-0.000970052
0.00319833
-0.00252529
0.000297009
-0.00822232
0.00269473
0.00188396
0.00364363
-0.0123044
0.0151534
0.00261323
-0.00546229
0.00551786
-0.0119443
-0.000589023
0.00701542
-0.004941
0.00628275
-0.0115651
0.0102233
-0.00508812
0.0111635
0.00110752
-0.00718287
0.000438784
0.00520571
-0.00127403
-0.00437047
0.00791878
-0.00597419
-0.000153088
-0.00179151
-0.00140231
-0.00134642
0.00206115
0.000687579
-0.00378258
-0.007871
0.00678178
0.0048718
-0.00534715
0.00710942
0.00615651
0.00456194
-0.00335088
-0.00418139
0.00297033
0.001611
-0.00208873
-0.000919301
0.00139703
0.00356168
-0.00353096
-0.00468384
0.00465312
-0.00144919
0.00414854
-0.000299941
-0.00239941
-0.00556875
-0.000996297
0.00700383
-0.00433614
-0.0010708
0.00536177
4.51791e-05
0.0018522
-0.00413279
0.00228059
0.00144398
-0.00187338
0.00698328
-0.00655388
0.00593282
-0.00836336
0.00123901
0.00119153
0.00360674
-0.00390366
0.000296921
-0.00543758
9.04311e-05
0.00493114
-0.00190216
-0.00476267
0.0017337
0.0015578
0.0012381
0.00541626
-0.00821216
0.00353909
-0.00384898
0.000309886
-3.96904e-05
0.00428463
-0.004846
0.000601056
-0.00596978
-0.000529564
0.00794333
-0.00261298
-0.000440918
0.000602417
0.00245148
0.000361583
-0.00297355
0.00220091
0.000411053
0.00490988
-0.00469801
-0.00118193
0.000589311
0.00839205
-0.0053003
-0.00368106
-0.00283532
0.00595244
-0.00311711
-0.00757739
0.0028808
-0.00171931
0.00641589
0.00593313
-0.00536561
-0.00878985
-0.00301832
-0.00360104
0.0123825
-0.00576314
-0.0086476
0.00546657
0.00787431
-0.00469328
-6.72765e-05
-0.00750982
0.0075771
0.0115079
8.28218e-06
-0.00664796
-0.00486822
0.00668427
-0.0043052
-0.000627395
-0.00175167
-0.00491413
0.00351127
-0.000872578
0.00227544
2.3766e-05
-0.00564802
0.00562425
-0.00364213
0.00375121
-0.000109084
-0.00266628
-0.00274605
-0.00702882
0.0124412
-0.00670103
0.0014361
-0.000724578
0.00598951
0.00162855
0.00265233
0.00734218
-0.00663719
-0.00546127
0.00475628
-0.00187889
-0.00393812
0.00433831
0.00147869
-0.0039473
-0.00198438
0.0059301
1.5809e-06
0.00142182
-0.0008071
-0.00396734
0.00335262
0.00433348
0.000226748
-0.00554081
0.000980582
0.00131131
-0.000925123
0.00152185
-0.00183486
0.00182163
-0.00150862
0.00360939
0.00345641
-0.00357407
-0.00349172
0.0018987
0.00465905
-0.00478665
-0.00177109
0.00376925
0.00163975
-0.00298914
0.00460533
-0.00554541
0.00116682
-0.00637902
0.00445141
0.00243986
-0.000512256
0.00742798
-0.00246428
-0.00779902
-0.00197864
0.00526196
0.00264982
0.00506027
-0.00243931
-0.00442352
-0.00125839
-0.000697105
-0.00682413
0.00636055
0.00057259
-0.000109011
-0.000359079
0.00859646
-0.000870712
-0.00736667
-0.00563287
0.00114951
0.00250471
-0.000905245
-0.00568638
0.00160386
0.00498776
0.00511453
0.000691397
-2.85365e-05
-0.00577739
-0.00805926
4.79271e-05
-4.07751e-05
0.00805211
-0.00204213
0.00221835
-0.0036833
0.00350708
-0.00533781
0.00664109
-0.000602445
-0.000700834
0.00696308
-0.00645698
-0.00584391
-0.00512296
0.00460564
-0.00145145
0.00196877
0.00414829
-0.000184604
-0.00130406
-0.00265962
-0.00791892
0.00762011
0.0037558
-0.00345699
0.00385496
0.00146566
-0.000489888
-0.00483074
0.00131719
0.00336783
-0.00421296
-0.000472063
-0.00248923
0.00250866
-1.94305e-05
-0.00146234
-0.0037351
0.00374825
0.00660166
-0.00657241
-2.92424e-05
-0.00318786
-0.00255901
0.00250408
-0.000310473
-0.00393438
-0.000467218
0.00471207
-0.000447189
-0.00345227
0.00306622
0.000833245
0.00522137
-0.0059306
0.000709238
-0.00665816
0.00674796
0.00624851
-0.00633831
-0.00446635
0.00343979
-0.00232426
0.00335082
-0.00187499
0.000802079
0.00169523
-0.000622322
-0.000157046
0.00805857
-0.000108804
-0.00779272
-0.00428221
0.00207516
0.00211088
0.00245058
0.00311615
-0.00543251
-0.000134212
0.000235461
-0.00676972
-0.000267587
-0.00571806
0.00575696
-3.89046e-05
-0.00451948
0.00232507
-0.00497356
0.00133573
-0.00297412
0.000136123
0.00268346
0.00116702
0.00388201
7.50511e-05
-0.00331871
-0.000638348
0.0032574
-0.00811502
0.00650417
-0.00164655
0.00133963
-0.00185569
0.00683526
-0.0063192
0.00835898
0.00244616
-0.00128613
-0.00951901
-0.00213932
-0.00350182
-0.00113541
0.00677655
0.0025016
0.0103209
-0.00927457
-0.00354791
0.00122383
0.00778367
-0.00752821
-0.00147929
-0.00262529
0.000345286
0.00538681
-0.0031068
-0.000931282
0.00738266
-0.00394977
0.00575133
-0.00454051
-0.00176074
0.000549927
0.00178319
0.00463636
-0.00641956
0.00434246
0.000958825
-0.000573747
-0.00472753
-0.00398694
0.00319037
0.000317114
0.000479458
-0.000352679
-0.00574718
0.000340665
0.0057592
-0.00414215
-0.000523326
-0.000159258
0.00482473
0.00239474
-0.00530813
5.76101e-05
0.00208387
0.00316665
4.6209e-05
0.00343934