/*--------------------------------*- C++ -*----------------------------------*\
  =========                 |
  \\      /  F ield         | OpenFOAM: The Open Source CFD Toolbox
   \\    /   O peration     | Website:  https://openfoam.org
    \\  /    A nd           | Version:  10
     \\/     M anipulation  |
\*---------------------------------------------------------------------------*/
FoamFile
{
    format      ascii;
    class       volScalarField;
    location    "2.5";
    object      p;
}
// * * * * * * * * * * * * * * * * * * * * * * * * * * * * * * * * * * * * * //

dimensions      [0 2 -2 0 0 0 0];

internalField   nonuniform List<scalar> 
111485
(
9.17273
2.89858
3.36564
9.06247
3.48289
8.91476
2.95199
2.56644
2.95977
4.36524
2.92364
3.76338
2.97743
2.8993
2.99168
3.03972
0.96051
8.81558
2.95218
9.02036
8.99155
9.00622
2.99107
3.00735
3.4715
8.80975
4.18712
1.64451
3.35755
9.24262
5.78694
0.670442
9.08637
9.27444
8.77361
9.45676
5.73071
0.165642
6.70178
3.08135
9.393
4.36599
3.07794
5.06949
6.41134
9.48542
4.7886
2.99803
4.35495
8.79649
8.79988
8.57274
8.79793
5.16841
8.79652
1.85713
2.99137
9.47437
4.7936
3.0758
3.08429
9.16976
2.37606
5.65644
8.66797
2.09793
7.89027
2.73354
2.41001
2.58142
6.17149
2.16525
8.64147
2.39895
9.37221
1.24273
9.06803
4.19214
9.00485
8.75414
5.88914
4.92705
9.14131
9.32996
2.37097
3.17297
7.16991
5.19092
5.99864
0.885136
6.41336
3.17947
2.38335
0.349268
4.37166
9.32278
9.17933
5.18162
6.48285
5.40551
9.13394
4.21346
9.39079
4.13117
2.80751
8.7224
9.31819
0.781458
3.24864
6.36792
0.53283
2.14977
3.17288
3.91899
8.80753
1.16873
8.84884
9.47811
2.42707
9.02487
8.80608
8.3714
9.14009
9.47792
4.5569
8.86489
8.37198
0.902612
9.40323
6.71871
5.75019
5.17301
9.35895
8.3311
8.41678
2.8814
9.0893
1.23931
2.64479
2.67086
4.42405
2.67406
2.66979
3.32698
4.65082
0.118404
9.08531
9.30441
9.38583
2.8169
3.33669
8.9973
5.78987
0.0108378
6.41353
2.79603
2.76592
2.96368
6.44456
9.45779
9.06324
2.78791
3.34611
6.46461
6.44703
1.08488
5.54561
9.46768
6.48053
6.47866
9.38694
9.28768
3.62789
9.22193
0.202451
0.0377205
8.75146
8.64522
8.82525
8.72724
8.6425
9.05498
2.82109
2.82839
2.7976
0.0254347
4.19629
1.49125
5.70348
9.12211
1.30672
8.65033
9.19206
1.50292
4.3532
5.51793
1.98689
0.164106
9.37061
2.83443
3.29369
7.97929
4.91052
0.853939
9.42112
1.51279
4.00392
8.64032
5.48908
4.76962
3.30956
1.47726
8.63157
9.20581
1.49113
7.93076
5.17969
9.2078
1.51094
1.28633
4.437
9.48623
1.67763
5.40676
8.19034
9.21797
9.39434
6.14418
6.43375
8.6799
8.47454
1.29772
0.335627
2.13577
8.67497
8.6777
5.65009
9.39257
2.80991
1.29107
1.3005
1.29192
1.30077
9.40614
5.93711
1.025
9.43336
9.12679
5.1924
2.16076
8.68411
0.644596
0.962332
9.29644
8.30202
4.85468
8.79553
8.66458
8.39394
8.9109
1.12889
1.2786
0.10186
9.49363
0.983017
9.0775
9.16232
9.40828
5.68784
4.20862
2.26857
2.29872
3.92459
2.27286
2.31925
5.93384
0.330378
0.344691
8.74759
9.28707
5.97305
0.784719
4.42283
0.410723
9.0402
2.30754
2.8321
2.26059
3.99423
5.9683
2.24976
2.28833
4.90181
9.48187
4.17816
9.22328
8.85163
8.66456
6.1369
3.93994
3.04888
8.87229
9.47594
1.78131
0.561743
8.98367
9.2182
8.80716
1.2744
0.349902
2.75777
2.88776
3.13483
8.53941
9.33251
9.34814
1.78569
7.47334
3.06917
6.02408
5.62667
9.13041
9.16203
9.17614
8.41104
1.92203
3.4475
9.47557
1.89626
8.66614
8.80045
5.29136
1.90955
3.88053
1.88208
8.71745
8.40755
9.41349
1.90291
0.0989269
5.84152
8.78934
6.86423
5.84858
3.4981
1.6916
6.97412
3.15515
9.05537
3.15854
1.94188
5.97175
5.2744
3.5334
9.30107
9.35051
9.35644
9.06734
2.72589
1.64537
3.90591
3.15677
9.26695
3.68918
9.33667
9.17791
3.15603
8.75143
8.34497
9.47694
9.47746
2.80134
9.48018
0.0767702
3.64303
9.00819
2.53148
2.00271
8.7047
1.96481
3.71806
1.97333
5.50607
0.162674
0.364476
8.72959
9.30039
5.04707
9.44546
3.84128
5.36087
8.71852
9.43285
1.86937
3.80249
0.32375
3.65433
9.07463
5.77798
3.76056
8.88156
5.07036
3.81968
9.20886
9.04232
0.078111
3.47976
9.44355
8.85469
8.07693
9.13059
3.55573
9.21046
9.11062
3.77987
5.77869
4.65514
3.4738
8.92623
8.41115
5.06786
8.4504
5.06787
5.08871
4.31474
7.9356
8.47274
0.522551
6.42188
9.23723
5.28592
3.66277
9.49122
6.55598
4.41864
8.45633
3.88193
3.76481
0.181256
8.95703
0.201618
3.97667
0.1732
6.25247
8.37423
6.36007
9.36788
5.78058
0.136584
9.37603
3.88267
4.82804
8.31786
9.48592
8.54317
8.99
3.49271
0.175603
3.83605
3.86043
5.47452
9.22239
3.94222
9.17691
3.48115
8.84966
9.17678
9.28197
3.87018
9.3151
9.20439
8.75835
9.18124
9.41158
4.85204
9.4823
8.56147
9.34359
9.21553
8.90675
9.35645
9.02993
3.89907
9.35036
4.90007
4.00479
6.46765
8.84667
4.89156
9.34863
9.16634
3.86489
3.83961
3.89328
6.03139
8.56721
4.46746
4.47606
0.241702
0.435161
3.9901
9.27709
0.250828
8.31716
4.51839
9.24626
4.51741
8.38101
0.49556
3.82375
8.69033
9.35892
0.443985
8.96155
4.46586
4.50359
9.4236
9.34273
8.71965
9.36464
6.32559
4.45424
8.76118
9.46023
3.49573
9.00804
4.48163
9.05354
4.71203
9.17446
4.37377
4.46471
1.93643
0.477006
8.80033
0.0931021
8.82958
9.25225
4.10868
9.25215
4.398
8.72486
4.52738
9.25511
4.10816
8.98224
8.46775
6.46923
4.14554
4.46548
4.13058
4.48424
3.80651
9.38031
4.48035
4.13438
9.1872
6.09085
5.62924
4.47651
8.75161
8.62927
3.45091
4.59631
7.57046
8.55261
4.13163
3.45882
4.19568
4.20976
0.479828
7.27936
8.43925
6.35514
7.43093
9.0801
4.44057
9.44886
8.4838
0.877766
7.26758
6.39438
6.98747
8.44408
4.23693
3.46833
8.83165
8.53372
3.45466
8.87777
8.99674
9.03042
8.82387
4.23936
9.33481
9.41488
4.27059
1.3266
8.15388
3.45612
8.55042
1.30637
8.79458
9.3946
4.26469
9.24259
8.85859
8.47573
0.116334
7.85885
4.38079
0.888602
8.85797
6.44556
4.39981
3.59297
5.51673
6.64657
3.51703
9.26127
4.36439
3.58079
9.42092
2.03666
4.91891
3.67221
0.11884
3.69032
3.67732
9.36069
4.47009
5.49122
8.45774
3.6866
4.48919
7.90626
0.883217
3.67727
4.50538
3.88521
3.90873
0.889224
8.74249
3.91366
4.41444
8.69536
4.17684
4.18649
0.948156
9.25879
0.102243
9.44224
9.10386
9.29727
8.82497
3.57631
8.49243
6.32265
9.19413
8.90609
4.18485
4.20448
8.95751
4.49238
9.16926
9.40839
8.80549
4.5951
4.45408
8.47929
9.48063
9.23863
9.27448
5.64314
0.951867
8.42904
4.09706
6.40651
9.42397
4.09545
4.77115
0.488227
8.97015
9.21054
2.11701
0.93291
8.46139
9.37582
8.72971
1.56243
9.29336
8.86002
9.19429
4.05773
3.20545
9.01402
8.72636
8.66526
0.496802
9.45451
8.88876
4.62528
5.66147
8.45086
8.12544
6.89948
4.71404
0.0247557
8.67683
3.44008
4.84423
9.48418
8.78852
9.09954
9.22293
9.34757
9.03571
4.06563
9.16551
9.09473
8.76789
4.077
0.926416
8.79595
8.79005
4.73124
0.935629
0.960584
8.89075
9.10732
0.94456
9.31232
4.11015
0.934047
0.972196
8.80272
9.12911
9.12841
9.29238
3.48142
9.12867
9.05565
5.16438
9.11841
1.64441
4.81832
8.71837
0.899764
8.59271
1.64253
4.26717
4.4212
4.68197
6.34341
8.52842
1.63059
4.74245
0.022073
8.68933
6.18888
8.39712
0.272627
9.30684
4.88205
4.77475
4.87681
8.67885
9.14438
9.49175
0.936946
8.56189
0.635
8.63081
3.12874
0.254359
0.667681
0.942726
9.03909
8.80873
8.63942
0.957271
8.8577
8.54083
6.33401
9.45563
9.4512
9.12294
9.10497
0.683885
8.68883
9.20627
6.25335
8.54898
9.46671
8.40298
9.18175
4.87612
0.659173
9.0024
3.51093
6.93758
4.89045
6.47387
0.824048
9.36214
4.30569
5.57156
4.90177
9.34171
6.15487
0.685714
8.3251
0.639675
6.03949
6.24591
2.55402
0.453304
6.12714
0.122088
0.592483
9.29562
8.80776
0.448586
0.446564
9.41419
0.454858
3.83669
0.583413
8.77044
6.19648
9.30844
0.618461
0.591668
8.94654
0.298732
0.57729
6.21336
0.170187
8.74518
2.75289
6.22627
6.58849
6.17718
5.29711
9.26908
9.30898
5.17322
9.09597
3.93768
5.35472
8.31068
6.49305
6.40673
6.52068
9.10464
8.30644
1.40796
9.40135
8.98366
5.27508
8.83511
8.91395
6.42659
6.33781
9.1004
6.24948
9.21902
9.23895
9.41672
9.17847
8.7793
9.30465
5.33066
8.80281
9.38671
9.42343
6.33173
5.26371
3.2585
1.39485
8.96915
8.86087
5.51238
9.17059
8.91233
8.13793
5.3961
1.82447
8.98065
8.9002
8.83693
8.88914
9.35985
8.86704
5.4832
8.8581
6.23597
3.14183
9.27153
9.14941
8.78485
6.23844
8.78844
9.06658
9.28332
6.29286
9.32501
5.4684
5.70769
6.17593
9.02114
7.93634
5.48974
3.02687
8.65413
6.26154
4.54527
8.86746
8.70155
8.36594
8.89747
1.40547
2.72759
5.62073
6.33424
8.95543
1.39798
8.68176
8.43249
8.36033
9.39488
2.46949
9.19246
8.77961
5.81842
1.82426
8.78097
4.42625
8.61004
5.62651
8.74434
9.24685
9.34756
9.10638
0.647233
2.69845
6.67565
8.97242
8.75192
0.660283
9.10119
8.50714
9.18405
4.05262
6.3764
3.4794
8.86554
5.88444
5.84905
8.77517
5.86318
8.82517
5.09882
4.57544
2.647
5.85326
5.84602
9.13671
9.22608
9.22944
5.86062
9.49719
5.93584
9.44214
6.78258
8.8456
3.04782
3.14217
8.78571
9.06681
8.77694
9.4468
5.93922
8.77417
8.36774
0.656236
5.93904
8.7078
8.49763
8.61081
8.50487
8.82853
9.14784
5.96212
4.58771
9.05842
8.79523
6.402
9.18374
5.95737
0.66288
8.73533
5.18094
9.11841
0.398198
8.78965
3.37532
8.93673
6.40732
6.29636
6.10737
5.20277
5.19937
7.83511
8.69745
5.23744
8.79452
2.46331
8.92061
9.34137
8.55969
9.33735
9.3734
9.40783
5.2063
5.20578
9.1214
8.29842
8.86822
5.28473
6.21637
9.21476
2.47625
6.1887
8.78886
0.863056
0.603664
2.35876
6.13442
9.09691
9.18527
9.28181
9.0435
2.48568
9.33806
5.30486
9.15228
5.33436
3.38884
9.32208
5.31479
9.40982
9.08421
5.36346
5.66098
7.18936
9.15366
8.76957
8.88388
2.5664
8.61984
9.44538
8.70255
6.91504
8.39968
6.4096
8.49951
8.68895
8.69912
0.739566
0.652589
3.80669
2.8292
9.43679
5.35568
9.25113
9.41643
0.636073
8.79689
6.42841
5.33461
0.455764
5.4064
6.33983
3.77064
9.37545
6.25358
6.05085
4.60095
5.48953
1.89108
8.04278
9.16576
3.63731
8.88451
8.90382
6.48063
4.35755
6.38641
9.24993
9.22138
5.80858
8.78694
8.80609
5.43928
8.77841
8.78683
2.21933
5.45578
5.58703
2.2083
1.12155
8.85026
9.12804
6.46889
2.18856
9.02974
8.782
3.87942
8.82398
8.28963
8.41818
8.43323
7.78872
8.25789
9.02898
3.68904
8.88095
5.55877
8.93614
7.56591
8.77027
8.78431
9.38348
9.09224
3.41806
9.10069
9.09286
8.46681
8.90684
9.36967
9.24145
2.07904
9.11039
1.88604
5.59585
8.78233
3.73521
8.992
4.71271
6.23573
0.489847
0.503188
8.80555
0.546351
3.42873
6.09394
9.40411
5.71262
1.64131
0.246852
8.60795
0.313813
8.75577
9.37187
8.91421
9.01774
0.314443
9.21892
8.92286
0.247336
5.70997
0.23964
9.42063
8.05223
3.7386
9.30624
6.48965
8.78602
0.531783
8.78197
8.81754
3.71482
8.93448
5.69859
9.18701
8.93554
1.62379
4.82206
1.18986
2.64907
6.29726
2.10267
8.94341
8.74435
3.18204
1.23656
2.05706
5.69554
9.0987
1.9043
9.07143
8.88245
3.23914
5.73981
8.83269
1.2635
9.37514
1.20167
1.10401
8.65419
9.0241
9.29185
3.17467
9.21225
9.21299
3.20319
1.19659
5.48759
0.292692
8.94577
9.34941
3.96538
3.21611
8.95058
3.19932
8.75531
3.18416
8.99469
8.96527
3.18246
9.10872
4.5807
2.92295
8.84517
9.02758
2.92898
8.28444
3.54286
9.16442
5.54118
9.18323
8.30429
8.25852
2.94854
8.47369
8.43202
2.7215
8.44034
7.68618
8.29808
8.75206
8.87906
6.10807
3.54547
9.21183
9.25461
3.51207
3.52844
8.84095
3.21229
9.04258
8.87415
4.09282
3.90058
0.0502561
8.98841
9.25683
9.22038
9.09515
8.83285
8.83848
9.26614
8.86773
8.88468
9.02821
9.22876
8.88248
9.14684
8.97039
8.88967
8.70537
8.96726
9.02522
9.12085
9.1852
9.38596
3.59567
9.18557
8.97346
9.41077
2.44673
9.48723
8.87111
7.3651
8.73675
8.69959
2.46355
8.74511
8.67574
7.49953
2.47841
9.1491
8.29583
8.41978
8.90924
5.06137
2.49293
2.50435
2.4089
1.4721
8.86164
8.92368
1.84067
1.93515
2.40194
9.06881
2.18917
4.88484
2.37273
0.381795
0.432908
2.42393
0.755253
2.37068
9.41316
2.69464
2.18471
3.37381
2.19598
9.30012
9.2409
9.36214
9.12193
9.29258
1.91864
2.22256
9.28696
8.89062
8.86062
8.70175
8.92679
8.91885
8.76141
8.88388
2.19161
6.23338
2.21403
3.6936
8.79106
8.65264
4.99709
6.37092
9.01703
9.09543
3.54201
9.44588
9.19564
2.16586
2.20472
2.20179
3.49533
4.96113
8.89171
0.0242888
2.63383
8.37138
8.88863
2.60647
8.8696
8.80123
7.23276
6.93193
3.73232
8.70351
9.43546
5.6568
2.67593
0.0345031
1.92974
7.48491
9.13131
5.26938
8.70126
9.44271
8.67429
3.49745
8.91995
1.91511
0.0828164
2.57071
2.66042
9.28036
1.68379
9.337
8.65493
9.29752
8.84194
0.615791
7.73842
9.1036
9.04584
8.70472
1.92492
8.32183
1.72448
1.92211
0.597414
1.92529
8.69912
8.72476
8.37946
3.46061
1.44399
6.37677
8.79104
9.16767
8.35254
5.04123
3.7205
9.10013
1.43261
7.25606
2.67625
1.43606
9.08832
8.30055
1.44609
1.91587
9.24563
4.34982
4.22443
3.73036
1.70839
1.51013
1.55498
8.36233
0.561383
1.55871
1.31796
8.66164
2.56437
8.38716
3.39352
1.63103
9.49099
0.395959
1.55887
1.70022
2.02615
8.84055
7.16886
5.57601
7.69046
1.56849
8.57599
0.477382
1.55146
8.81249
9.12652
6.56518
6.1239
2.24338
8.80534
3.79857
6.31161
6.34619
5.77434
8.76919
9.44031
1.90761
8.76956
1.71872
6.20883
1.55448
0.462254
9.01041
4.63029
1.89422
8.87497
8.35869
1.19733
9.28523
1.20382
1.12667
9.17957
8.82783
2.68724
8.9402
8.97658
9.49082
0.455869
6.55655
3.4787
9.44133
3.38206
0.824781
8.69641
0.818794
0.860847
0.514739
6.1661
9.04137
1.7027
0.326369
0.841557
0.851789
0.536552
6.05145
3.0936
9.16213
0.0804331
0.585763
9.08988
0.850514
9.41875
9.19962
9.36302
9.46357
9.03517
5.02389
9.35166
0.821447
4.08462
9.42469
3.91649
8.7267
0.581401
8.86774
6.0134
8.63927
3.26321
5.22269
6.30232
0.887742
0.582479
3.37322
0.517021
0.90336
7.36072
0.887951
2.15786
0.910063
9.42618
1.91474
6.14732
0.921803
3.01634
6.20322
9.40199
8.40558
8.81877
3.41698
9.02671
8.15259
0.578072
8.70543
4.19389
8.87181
9.3911
9.09936
2.11912
3.56716
0.992159
5.35136
0.476354
1.8154
1.7125
2.17348
0.680324
1.70842
1.78327
8.72027
9.33305
9.49045
2.69229
1.87484
8.74804
9.09754
8.20802
1.71925
0.697559
8.9885
1.78298
9.21126
6.43424
3.42869
5.55506
9.0825
9.17704
2.13405
9.118
4.56549
0.91079
8.60557
2.39733
3.02061
0.371405
8.83169
5.7485
8.45504
4.37177
3.47642
9.09626
9.38242
0.877407
8.07729
9.31324
1.13781
0.427628
9.15598
8.83588
8.42621
1.73304
8.173
2.7175
5.05249
4.29007
9.17207
8.37751
4.9456
9.1821
9.23218
9.2663
9.02296
8.44338
8.64573
8.59531
8.86834
8.69014
8.60076
8.72518
8.61777
4.56506
8.61308
8.29904
8.23575
8.849
8.36315
9.17679
5.04058
8.45839
8.63179
5.16648
8.67643
8.77598
8.69804
5.0576
8.73353
5.03472
5.56794
4.29181
8.53681
8.98486
5.02187
6.43356
8.75652
9.42639
2.68653
8.50317
2.67148
8.47872
9.26034
8.58801
2.66759
2.64589
9.23703
3.89037
8.7262
8.45436
6.00937
1.37679
5.02734
9.43627
2.67648
8.41392
4.2034
9.03617
8.84318
8.97009
8.35152
1.37364
1.67475
9.32329
6.3747
8.86217
8.86629
8.85866
9.03466
4.7296
4.74099
1.70985
6.51255
9.48294
3.4437
2.73021
1.25806
4.73364
9.43381
1.34821
4.70868
2.42556
6.44396
2.53444
8.80715
3.24558
4.80372
2.7042
4.82601
5.06593
8.81207
5.11294
8.72268
9.18766
2.21872
9.32541
3.41672
9.26075
8.7877
8.65953
8.836
9.37523
4.81525
8.81561
3.99202
8.53365
9.28478
3.33315
4.6125
1.79628
3.86073
9.35956
6.75912
9.32874
4.22062
8.7859
3.33217
4.71513
4.78643
4.25628
8.77099
8.77276
8.74543
1.45169
9.28846
8.87907
1.45233
8.77241
8.92661
4.77125
8.76941
2.60383
6.41521
8.53193
8.54986
8.52594
1.71079
2.87653
9.02507
0.0554288
4.1304
8.49207
4.86272
9.28381
1.4881
3.38115
1.27853
8.99307
3.56687
1.86054
5.03688
4.66967
3.95188
9.09999
9.14316
6.13275
8.90807
9.03847
9.22339
1.50282
4.88814
1.9551
3.09889
8.43434
3.55771
2.71297
2.91149
3.50565
3.55929
4.47368
3.91414
9.09496
9.08378
9.08684
3.9266
9.29166
4.14987
8.01142
3.92843
6.42484
1.50772
0.735029
8.93533
9.23689
3.9394
3.91359
9.18817
9.13592
9.46046
1.62504
3.91229
4.04879
4.0867
0.393269
2.70811
8.9067
9.34773
9.16309
0.319158
2.60836
0.0428558
2.9557
1.68914
4.10029
8.69543
9.16146
8.27326
8.7739
0.41294
3.49226
9.1303
8.80958
8.71628
9.42216
9.46485
8.62925
4.25175
8.9717
5.20706
6.49206
8.87697
4.16795
0.123508
1.58604
9.29068
8.66371
4.23158
9.11183
4.24821
6.37497
1.72238
8.61143
8.12189
9.0534
8.96819
8.91615
8.59981
7.16139
8.81952
4.26331
1.95089
9.16585
9.15234
4.34633
8.89823
9.2064
2.36662
6.32558
8.8637
8.85782
8.6643
0.882592
9.12269
9.13512
6.90635
4.36371
4.34982
9.00589
8.87064
8.4638
4.36354
4.3202
4.35267
3.07725
8.99416
0.73236
0.149604
0.183242
9.41193
9.37405
9.16702
9.40475
9.1236
2.36277
2.42313
1.94636
9.43505
9.27358
9.11452
9.23686
8.67414
5.31218
0.290979
0.0705569
8.82394
9.09228
9.44174
6.36334
4.95949
5.7066
9.23375
6.18022
8.70356
8.79757
9.13802
2.35587
2.61715
8.8794
8.76977
3.21619
9.14086
1.72971
2.14898
7.30143
8.87074
8.78
1.73654
5.34739
8.67266
7.26301
0.24615
3.46082
8.97675
8.89454
9.41898
9.16061
0.469994
1.19734
8.89683
5.35469
4.59411
6.60769
9.02758
8.9085
8.8857
8.89741
3.55492
8.71891
9.03646
8.72289
0.790663
4.02706
0.978763
8.72081
9.38427
4.59955
8.61426
9.1472
8.91703
8.97438
2.51351
8.65333
8.92819
8.93444
0.974375
2.6202
8.9043
9.31084
8.82685
3.04547
8.66261
8.79524
8.83321
9.33265
9.28273
6.41787
3.52724
9.49647
2.7876
3.50744
2.44376
9.44698
9.40431
9.08662
9.41289
8.91912
3.32752
9.02597
8.44458
8.56531
4.60938
8.55972
4.58373
9.12783
9.28566
5.51962
6.63982
8.50587
4.62641
9.01813
4.60562
8.74057
8.82472
8.8982
8.90774
8.86415
5.26162
8.87464
2.94229
9.32739
8.45186
9.28589
8.90732
0.920588
4.22629
9.0769
7.30697
9.47439
4.72081
5.26122
4.21934
9.48852
6.36147
4.21299
5.30875
3.57374
6.41093
4.26789
8.65435
8.95594
6.43112
1.47239
4.23124
8.79425
8.61793
8.30597
7.4361
9.45642
8.83895
9.31955
9.41552
9.48152
8.68675
4.17575
5.59242
1.95839
8.37392
5.90785
9.31992
3.37588
9.1696
9.46856
9.17881
8.62675
5.59736
8.66598
9.47992
9.019
2.89006
9.04689
9.23562
5.49089
8.70845
8.04874
7.84883
7.77144
9.42113
7.82392
7.77218
7.81259
7.97974
8.97456
8.9743
2.86729
4.4056
8.46322
8.39018
9.01711
2.91102
8.73993
8.71657
5.54623
8.92542
9.10617
4.70182
5.59281
9.46533
8.87823
5.9491
8.42126
8.77687
6.43813
3.1326
3.04561
8.70032
3.08941
9.36984
1.91391
6.36521
3.07287
9.0444
6.3743
3.08581
8.69109
6.32159
8.81701
2.8984
8.56167
2.86691
8.72607
5.25596
8.83985
8.72119
9.32407
6.24531
6.2595
9.37572
3.15413
5.2597
9.49754
9.03585
2.37987
0.118892
6.37085
9.43557
3.24471
3.19667
5.52148
6.35265
9.47761
6.3732
8.94003
6.15416
9.1699
6.22041
6.15639
8.82038
1.99475
8.75486
5.46018
9.08154
8.82193
8.87187
9.17772
8.89911
9.15662
4.39418
2.40109
6.12066
8.85351
8.21866
6.10203
8.88032
9.48097
8.78905
9.43873
8.83336
0.0986938
9.04343
9.35289
8.94997
0.0880538
8.84545
9.11661
8.58769
0.457753
9.17661
0.463085
6.32713
4.29763
0.45885
0.484677
8.75227
8.87907
9.06728
0.469381
0.997496
8.70711
8.22948
0.497065
9.2238
9.37292
6.09219
8.81637
3.19252
8.86336
0.496019
5.45432
8.87343
8.96646
8.86782
9.32452
9.21913
5.46918
8.87791
0.509979
8.78197
8.9893
1.13199
9.33719
3.3886
8.67418
9.23338
4.44343
1.99667
6.15618
9.32169
9.33397
9.07898
1.98829
5.92917
8.76721
9.11552
8.63181
1.23838
8.87005
3.41635
6.13907
8.97998
8.91655
1.2586
9.16012
8.60553
9.17628
8.69554
9.2515
6.13889
8.1887
8.78631
9.28611
8.23719
8.92394
8.29279
8.78646
8.84609
8.69569
2.00377
8.70462
1.22429
8.65059
8.8957
6.48653
1.23836
8.86999
8.70569
8.90288
1.2005
8.41385
9.03155
8.69449
8.89528
1.35301
8.86758
6.22452
9.46265
4.13143
8.45632
4.9762
8.78553
9.20989
3.9249
8.35256
8.86296
0.991459
4.04522
9.41355
9.31992
4.42824
5.08049
1.21796
1.22546
1.24023
4.43793
1.20958
5.1663
8.75212
6.23515
8.2564
8.23223
9.00772
8.74519
9.19631
1.19749
9.43254
9.47814
9.41002
5.83696
5.14724
8.17268
4.67167
9.35325
4.77455
8.75176
5.57311
1.30946
8.27062
4.04959
8.76909
8.8017
9.0829
1.34334
4.15719
9.07378
9.2182
1.35758
9.31947
6.31226
9.17845
5.96447
9.14349
9.08058
9.39314
9.07297
1.07554
9.07085
6.6528
9.32673
4.26584
9.00878
8.92982
7.7744
7.69935
8.90827
8.94736
9.16552
9.36391
4.04203
6.28622
7.99479
9.29765
4.14696
9.00909
9.28888
6.4407
3.12336
5.7979
9.09119
0.742375
4.41359
2.12645
3.3218
9.17999
9.4804
9.48119
9.33899
9.10419
9.07453
9.07335
8.7809
9.09155
9.07428
9.1213
9.05942
5.96395
9.0831
8.90081
8.83861
9.33977
9.01479
7.33017
8.99524
8.9496
3.32934
6.1653
8.79454
9.46121
9.10987
2.89967
9.4541
9.15863
6.13497
9.19982
8.87572
9.2191
9.28649
5.56304
9.15754
6.36933
9.29054
9.22179
8.96078
9.02018
8.92405
6.15044
6.18188
1.60157
9.34973
8.71398
9.38214
6.1882
8.86877
6.17452
6.19249
9.18614
8.67998
8.1763
6.35476
8.81005
8.47705
6.34686
8.21338
4.54389
9.30939
5.25446
8.20004
8.02274
9.12591
3.99221
9.21343
4.02652
5.55571
8.82616
4.0415
6.25917
9.1495
5.59651
8.918
8.83833
8.8901
8.8234
8.70201
9.04575
8.86636
9.42764
6.18855
8.50321
9.04928
9.21346
8.83778
8.79934
2.92866
7.62894
6.25881
6.51891
8.87872
3.79858
3.8125
9.08168
8.4843
8.70257
8.75833
8.77073
8.75874
8.31187
8.4916
4.78211
8.98065
9.43975
8.13329
8.27173
9.11646
3.98154
8.71251
8.83386
9.32808
5.87353
9.41383
9.00219
4.49032
9.16646
9.45643
8.67779
9.47956
4.52363
8.99929
8.97067
8.93237
8.69536
4.81628
5.8725
5.86357
3.98997
5.08273
5.10341
9.22003
8.35351
6.40071
4.96103
8.35254
6.40564
9.29546
6.34507
8.8147
5.88714
9.05345
8.86189
5.10719
6.25392
8.82765
4.94985
9.03772
9.18098
5.88956
5.58834
9.34698
9.04299
8.78693
9.09639
8.91845
8.36705
9.35437
9.17605
4.93025
9.36187
9.13488
9.01885
5.11601
8.87866
8.37801
9.14099
9.0629
8.58067
8.42677
5.11475
8.83331
8.44696
2.98373
9.32835
4.95474
4.89352
8.91599
3.08593
9.14925
8.64639
9.26208
8.43821
9.33888
9.44832
9.49213
9.45741
3.04035
9.38064
9.24259
9.38045
8.69007
9.03886
8.6913
5.97087
9.12853
9.30455
5.58323
9.07749
9.11452
9.48361
3.00404
8.97691
5.85381
8.38898
6.45272
0.357282
9.09253
8.35762
2.94639
8.28131
9.08344
6.28729
6.34721
0.0222157
5.3705
6.51399
6.34141
9.3821
8.80104
3.70805
6.01659
5.83074
3.60217
6.45424
9.3113
0.662636
3.71122
3.70024
9.48908
3.69126
0.560037
2.11378
3.5062
6.00296
3.84565
0.788022
3.43958
0.125977
1.56588
3.52134
8.37929
0.106247
0.0273071
4.00415
4.66796
0.19085
3.509
0.132973
8.41176
6.10891
8.39536
1.87725
3.72269
4.75201
2.78895
8.40087
9.10529
3.43863
2.81347
6.04088
5.85691
0.956216
3.72858
7.824
3.73949
9.12793
6.59153
6.06137
5.35205
2.13405
6.09394
6.21016
4.29614
2.64416
2.66783
1.92164
3.75526
0.120731
8.16676
7.99342
3.76643
8.90308
9.12058
3.56124
3.59946
0.293193
8.94051
5.43235
5.59781
2.56925
8.00924
9.12655
6.09947
0.0801102
6.06879
9.48145
0.930391
9.21797
2.76958
4.24698
5.19634
5.24092
8.92734
9.14712
5.66694
3.61552
3.60546
9.15325
2.90843
3.62985
4.68397
9.19402
2.61471
0.213637
8.37585
2.13134
6.32802
5.7895
8.7794
5.52386
6.48015
9.14447
4.49029
0.400549
7.03194
4.57029
4.56654
0.819759
3.97335
4.63404
0.289014
6.09487
5.86277
4.34267
0.731967
3.86229
6.23968
2.795
4.59378
1.57473
3.52144
6.24627
0.836183
9.17975
4.5693
4.55776
5.93793
1.11934
5.32259
8.7948
4.55134
2.12138
9.19557
5.42856
0.0919063
4.58129
4.41388
0.536109
0.097216
3.92517
4.41923
5.47555
9.19123
9.11324
5.50348
9.40916
5.51574
5.35041
8.66341
0.547367
4.69091
2.91925
9.38029
2.12174
2.42243
5.42033
6.07059
2.3844
1.02859
2.95115
4.9549
9.12223
8.83407
5.93815
4.94518
5.40879
3.08729
8.83375
4.98621
4.24798
8.65454
2.92619
3.75829
0.261398
6.4158
5.11802
4.28204
0.876927
3.26605
9.40739
4.57826
2.33898
4.35449
6.38267
8.83834
5.16157
8.75238
9.06662
2.45819
4.24528
2.66929
6.58572
5.61926
7.05448
9.13054
4.24614
4.26121
2.72459
2.71924
8.87022
9.48964
9.47491
2.73849
2.72873
6.37957
2.09577
8.62613
8.85241
2.72908
3.03609
5.27136
2.71697
2.71256
3.26294
5.09429
7.73326
8.97419
4.17374
0.298897
8.84763
3.93272
3.2417
6.49105
4.14988
3.25078
5.47378
8.84955
2.80237
3.37019
9.39069
8.63807
0.181931
0.299829
1.14352
0.472306
3.25703
3.28402
0.799154
2.09682
3.00537
0.466231
8.82962
8.81109
0.0184092
0.525684
3.24747
6.27603
3.15139
3.1053
4.31952
2.64611
3.13371
9.03567
9.38895
6.24343
8.81703
8.37984
3.40499
2.15672
3.33671
6.11256
8.49564
5.17285
6.29406
8.55234
6.31202
6.32437
3.12831
3.15242
0.210089
3.64348
6.03774
0.530961
9.08936
8.53954
5.76113
1.01925
2.72903
1.05286
5.4248
4.90829
5.95235
8.55193
3.32708
0.711567
2.89288
6.30292
5.15964
5.82379
6.33108
3.34624
0.761047
8.51443
4.74245
3.20924
7.325
8.4054
8.25673
2.89131
8.36203
0.162109
2.87964
2.69931
3.64305
5.65645
7.87641
7.37997
8.70637
8.28845
5.48759
9.08224
9.08315
6.33831
9.10318
2.10633
2.80662
2.58367
1.97253
2.09023
3.73418
8.21227
1.00786
0.442027
4.86129
3.53289
1.9668
3.32135
9.11513
6.33317
1.92721
4.38998
9.08671
4.46433
3.47263
9.07902
8.88483
5.39419
1.90231
9.25311
3.92247
3.53226
5.40654
9.29434
9.07148
0.309459
6.27132
3.68774
9.09681
9.3522
9.07886
4.24626
7.26308
7.23137
1.32702
6.33076
9.45362
1.32309
6.32226
2.9876
0.342378
0.326366
1.43335
6.49282
0.370122
9.49377
1.50904
0.777589
0.117614
2.39986
0.55962
0.544507
0.575834
0.612634
0.141584
5.59373
6.47479
3.28366
5.47916
6.06543
6.41988
0.598385
6.46026
0.601567
0.141056
1.74155
1.06069
5.39831
1.05146
6.50364
1.23647
8.59504
3.35903
7.57397
2.48428
3.73833
9.39195
4.59157
8.60172
3.90903
8.61492
8.70347
2.57973
4.71075
8.39917
1.02089
2.72016
4.69509
8.85517
9.32863
5.46923
1.49416
6.24466
2.46422
0.821844
4.58787
5.87839
4.36244
4.61875
8.2529
3.32889
9.13124
8.74098
1.85702
1.33936
6.16042
1.78011
1.18249
4.60617
4.77902
8.71683
5.94105
1.15705
4.55044
8.70478
9.4041
3.34142
3.91528
8.17344
5.35192
0.104352
4.02987
0.290393
0.960782
2.48961
8.88738
7.76431
1.98159
5.77137
9.49847
1.86229
5.36086
4.22741
6.56641
1.97921
6.54761
3.34169
5.5582
7.88869
5.68463
8.99497
3.86605
4.67208
0.91576
0.0497689
8.34468
0.0709811
5.79561
4.42474
5.6336
8.47981
9.0746
2.08444
5.71743
4.43572
3.82585
5.3106
1.50661
0.287245
2.87815
0.323424
0.222667
5.37851
8.45736
6.20201
4.37356
0.0218624
5.24324
8.50017
8.94578
5.93927
6.11754
8.74695
6.13513
4.86621
8.52247
7.93096
7.97844
4.77029
1.94092
6.5968
8.06677
5.33191
2.2072
8.58384
0.506696
8.32997
4.22278
1.51362
9.28762
0.4336
5.266
5.26412
1.34387
9.01186
6.3303
5.04594
5.62735
5.255
5.47322
5.60337
4.79303
6.38478
4.94276
0.782679
1.97094
8.83413
8.3079
8.24828
8.64493
4.52392
2.28974
2.00697
5.27975
1.15418
2.02409
4.0204
4.70345
4.50058
1.46315
4.83779
5.28805
4.24484
1.07731
9.02782
5.23652
5.23348
4.5939
4.87296
8.59875
2.70801
2.77098
3.78971
3.79996
3.04333
8.78727
3.00902
3.02794
8.36577
3.06241
4.34095
8.65008
3.06144
8.62873
9.48668
2.70777
4.72121
4.35999
3.02904
8.92424
0.474624
4.87882
9.48098
2.45323
3.12837
2.56587
4.45979
8.63535
4.73372
4.71528
4.11916
8.6829
2.1497
0.81645
4.20641
1.84679
2.32739
9.3636
8.66663
8.4847
0.155088
8.53679
2.09593
1.74264
0.569961
8.73421
0.640182
8.64818
9.02863
8.68538
2.57648
0.0640112
6.31617
4.2022
2.25273
8.48621
8.33302
5.32733
5.24427
1.72137
6.04024
2.26752
6.34067
9.01329
8.04878
8.07739
9.02721
8.09245
0.0931562
9.11291
2.09502
3.98765
2.26434
0.438347
2.70122
8.28671
1.77878
3.99111
4.66397
5.52654
8.3044
8.97979
4.83002
1.77172
6.46873
6.41844
5.98104
6.2025
6.37648
6.34342
1.33238
0.300131
1.33928
6.35936
1.31189
4.01128
4.32021
0.885909
1.31311
5.96713
6.44073
6.40589
6.33229
6.2745
0.916951
5.57509
9.46061
6.31775
6.15167
0.495187
0.296487
0.108878
4.01659
3.0149
6.11296
0.320933
6.13065
8.86706
2.10782
2.88411
3.27695
8.86573
2.44192
1.35294
0.341987
2.9543
9.4417
8.80963
4.38166
0.838577
0.798981
0.163327
8.66375
9.19524
9.23345
3.26567
3.91176
0.751154
9.1817
2.1611
8.79874
8.78016
0.327327
0.231401
8.85274
0.759141
0.780439
0.152277
9.4736
9.31006
1.39498
4.01842
8.79727
0.687311
0.622048
0.614798
8.77642
8.77222
8.7802
0.618477
0.688582
5.30489
0.61863
9.43596
0.574264
3.7823
5.35254
4.88887
8.62839
8.97092
0.557073
5.65661
5.50819
2.76067
8.64566
6.31719
9.12156
0.9325
6.01868
3.82348
8.66517
8.43537
5.72626
5.91354
8.38998
8.41033
9.14473
2.48244
8.56096
8.32577
3.96333
3.87722
9.13869
8.35007
3.3687
0.596323
0.606054
2.57759
2.16441
8.38133
4.01183
8.22956
8.19262
8.60516
2.72348
4.46178
0.615853
8.21857
8.72809
3.86823
5.97468
4.10121
4.50613
3.54642
3.07953
3.50795
0.607438
8.18851
3.80076
2.81235
0.610909
2.53382
4.47937
7.74792
2.50936
2.51209
2.50259
2.5061
0.85468
8.13577
8.533
2.91722
8.53379
8.56565
3.51684
8.55007
2.08996
8.50257
8.52961
8.68176
8.40515
2.78473
0.909988
2.80113
8.46272
1.3327
2.65614
3.77284
8.50834
9.17895
2.78815
2.96688
6.1869
2.79271
8.44048
0.0298149
0.60043
0.477263
8.93411
8.68028
1.64925
1.39355
8.69683
8.53449
5.19524
0.0420237
8.47459
5.71988
5.18547
5.19378
3.08519
8.51479
3.51219
6.85389
0.308128
0.0812527
5.20442
5.14658
4.7566
1.96072
3.58304
8.42263
4.01809
3.58561
6.16258
5.60571
5.19162
8.48056
2.45773
3.66114
2.05472
3.12073
3.61671
6.02053
0.265756
5.49501
4.81792
5.20471
1.45884
5.23187
5.49257
3.56625
4.38269
8.69365
6.36208
9.48052
3.53618
3.68846
5.24025
5.50271
5.03444
3.59141
3.59553
5.81619
2.78316
0.927288
8.88064
8.14164
5.50136
5.5028
4.26643
5.49591
6.12821
5.72619
6.12162
6.11278
8.20853
0.903326
6.13102
6.33038
8.22703
0.0932043
8.11606
2.73417
3.59462
6.40077
2.43828
9.47122
3.47022
6.09085
0.364058
9.09697
6.10812
0.787869
4.71353
6.08373
6.09333
8.16947
9.06359
2.5248
3.78979
1.99751
3.78554
3.40683
3.8489
6.19192
8.34948
0.107334
8.29283
3.81831
0.904489
4.0752
9.27462
8.02392
5.71963
3.82892
2.75958
4.13066
9.08212
4.08625
4.13317
0.123453
4.12362
7.35037
6.99977
4.08651
9.00196
8.95489
2.44228
7.30823
5.6615
9.32445
1.8307
8.59249
6.30351
9.36405
1.13781
5.43125
6.34571
4.10293
4.32381
3.70597
5.2133
6.26218
0.333631
6.35917
2.27972
6.31393
8.64356
1.31357
8.90943
4.33024
4.38762
3.44257
3.04426
4.30021
0.114287
2.69467
4.28905
4.18293
6.50981
5.08873
5.71874
8.628
4.28218
0.954968
6.35461
0.889904
4.30768
6.35633
1.32667
6.04481
3.83365
6.38377
3.85818
2.32012
4.34775
3.49743
8.95478
8.93166
3.69218
3.76522
4.75639
9.15537
6.30758
0.271119
3.58322
2.70938
1.7046
2.85147
2.42731
3.75578
0.011757
2.13473
5.04694
1.79424
3.2582
2.91522
2.67225
5.04316
4.29722
1.77603
6.51927
4.02318
6.4793
1.56406
4.56628
6.42979
2.01286
0.0440363
2.86125
3.76033
1.60194
1.32439
8.81403
4.47966
6.46069
6.45201
7.27605
4.48691
8.25082
2.46382
4.48078
0.62575
4.81345
8.82506
4.36815
5.0833
0.0844536
4.5604
6.3966
5.03192
9.07785
2.94429
0.388526
4.84557
6.27633
6.52053
8.81203
9.10866
6.83003
8.46828
5.04513
8.91793
6.4129
6.75844
8.41814
8.45252
0.343212
8.48752
9.11478
5.03692
2.84004
9.3439
3.39858
2.57361
3.56269
6.23077
9.11673
5.78838
5.09509
4.82828
6.63148
9.12728
6.1296
4.92885
5.54114
9.06808
2.89632
4.89687
8.80796
2.54062
9.03797
8.68149
6.13094
4.84845
9.18324
6.1571
6.06495
6.15257
6.03515
4.16932
5.92771
5.88765
4.3863
5.0392
9.43145
2.31021
0.819105
1.75503
0.247962
6.01077
0.775682
2.50246
9.19606
8.90002
3.86449
6.0172
4.99178
2.35718
4.99939
2.67192
0.269614
9.13086