/*--------------------------------*- C++ -*----------------------------------*\
  =========                 |
  \\      /  F ield         | OpenFOAM: The Open Source CFD Toolbox
   \\    /   O peration     | Website:  https://openfoam.org
    \\  /    A nd           | Version:  10
     \\/     M anipulation  |
\*---------------------------------------------------------------------------*/
FoamFile
{
    format      ascii;
    class       volScalarField;
    location    "2.5";
    object      SgP;
}
// * * * * * * * * * * * * * * * * * * * * * * * * * * * * * * * * * * * * * //

dimensions      [1 -1 -3 -1 0 0 0];

internalField   nonuniform List<scalar> 
111485
(
6.80429e-08
8.19913e-08
2.40302e-07
1.24428e-07
3.57287e-07
4.29151e-08
1.52449e-07
5.72117e-08
1.48959e-07
1.43938e-07
2.65705e-07
1.50548e-07
2.0647e-07
0.0659822
3.72098e-08
3.19462e-07
0.0477759
0.000274604
4.30312e-08
9.85553e-08
0.00938102
5.58736e-08
6.12059e-08
1.67999e-07
1.04449e-06
8.11535e-08
1.45306e-07
2.99759e-07
1.15551e-07
0.0114416
5.43849e-07
2.10326e-07
7.70639e-08
2.02232e-07
0.000158478
2.05915e-05
0.0312746
0.0474044
0.000561867
1.84778e-07
0.00916808
5.2896e-07
6.78342e-08
8.83828e-07
5.57777e-06
6.55944e-07
6.43109e-08
1.38753e-07
2.81713e-07
1.73043e-07
3.90967e-07
2.69981e-06
2.42572e-07
5.06896e-07
4.12951e-07
1.87054e-07
2.10105e-07
3.64819e-07
8.91304e-08
3.02347e-08
5.24324e-08
1.75381e-07
1.14487e-06
5.72809e-07
1.97162e-06
3.30564e-08
9.89669e-05
3.99324e-08
6.94946e-07
1.28318e-07
6.5924e-06
1.35833e-07
3.31788e-06
4.04367e-06
2.68467e-07
1.41749e-07
8.21185e-08
7.64832e-08
1.09749e-07
4.25734e-06
0.0618089
0.112136
1.79193e-07
7.2836e-08
2.98803e-07
3.11024e-07
0.0318015
1.21635e-07
4.23799e-05
1.04444e-07
4.10083e-07
8.33833e-08
1.1454e-07
8.3494e-07
1.38592e-07
1.05319e-07
0.00633751
8.15458e-07
0.000371455
1.04829e-05
7.16477e-08
3.29074e-07
4.81271e-07
3.33544e-08
1.82961e-07
4.28378e-06
9.25638e-08
1.03864e-07
6.21857e-07
9.69197e-05
1.65464e-07
2.10019e-07
5.22148e-08
4.64313e-07
2.19659e-07
1.62448e-07
6.97659e-08
1.66627e-06
1.30037e-07
1.76553e-07
5.71108e-08
4.56813e-05
0.0159097
4.99569e-07
5.27555e-08
0.00746135
2.50787e-05
1.21504e-08
1.74561e-07
4.95701e-05
1.68626e-05
1.23568e-06
0.0110566
4.11403e-05
2.11801e-05
1.22693e-07
6.16311e-08
2.23085e-07
2.18522e-07
1.45065e-06
1.44274e-07
3.99569e-07
0.0403879
6.57336e-08
1.45126e-07
1.78267e-07
1.28201e-06
1.98077e-07
1.43885e-07
8.30512e-08
2.33459e-07
0.00717047
0.0398346
6.2121e-07
1.00449e-05
2.59715e-08
1.31912e-07
2.88693e-07
0.000151572
1.43623e-06
6.87273e-08
8.22094e-08
3.06679e-07
1.67817e-05
1.09426e-05
5.48352e-07
2.93147e-07
0.00573008
0.000276259
2.26438e-05
1.09068e-07
1.43467e-07
0.0618253
1.57398e-07
6.74242e-08
3.70838e-08
4.15917e-07
2.51977e-06
1.15406e-07
1.47626e-06
2.58869e-06
7.3016e-08
7.96431e-08
9.65e-08
1.73059e-07
4.74326e-06
1.23022e-07
5.22871e-08
1.81071e-05
4.2184e-08
5.41403e-07
8.82941e-07
2.65777e-06
1.2112e-07
7.70018e-08
1.50208e-06
1.90358e-07
4.50639e-07
4.45084e-07
8.25387e-08
1.21906e-07
0.000381681
5.08153e-08
2.67902e-08
3.75577e-07
9.96988e-08
9.11745e-08
2.2542e-06
6.91274e-07
7.60171e-08
1.30965e-07
5.05297e-07
1.93736e-06
2.14545e-07
1.32216e-07
6.82135e-05
8.41525e-08
2.39458e-07
1.32957e-07
1.40311e-07
6.39268e-08
2.48456e-07
1.19449e-07
2.54508e-06
6.71264e-05
1.74226e-07
8.27047e-08
6.20761e-06
0.000702328
6.66353e-06
2.13957e-05
1.28351e-07
6.84223e-08
0.0311285
7.78541e-06
4.61294e-06
0.0381405
1.18591e-07
1.22997e-07
6.88069e-08
1.9923e-07
3.76877e-08
1.42933e-07
1.77522e-06
0.000116678
6.75121e-08
1.60811e-06
2.07158e-06
3.13446e-07
0.0291954
3.09362e-06
1.13703e-07
8.25273e-08
2.97381e-08
4.7877e-05
5.93182e-08
2.37414e-07
1.97728e-05
0.0242272
1.61213e-07
9.67378e-08
3.20236e-07
2.24407e-07
1.15474e-07
7.18675e-07
3.83633e-08
2.10666e-08
1.92633e-07
0.0532635
2.41334e-07
1.08068e-07
1.52879e-07
0.0370342
4.40669e-08
7.16134e-08
2.16719e-05
1.37502e-07
6.54514e-08
1.27751e-07
1.13651e-07
0.0367429
1.06289e-07
1.15968e-05
8.29119e-08
1.47035e-07
0.048425
0.0580219
3.04489e-08
6.135e-07
3.32176e-06
1.54135e-08
9.39143e-08
3.2254e-08
6.74051e-07
8.66346e-08
2.12283e-07
8.34567e-05
7.78454e-05
2.65827e-06
1.71282e-07
0.0745651
1.38536e-07
0.0181721
3.31351e-08
2.42828e-07
1.50793e-07
1.67802e-07
0.00629279
4.65967e-08
2.25354e-07
6.15628e-08
2.39409e-07
7.95108e-08
9.4258e-06
1.75228e-08
1.91337e-08
1.74499e-07
0.00105056
0.0587575
4.99309e-07
3.47735e-05
2.41767e-07
5.94829e-08
4.29624e-07
1.94671e-05
5.4291e-07
1.30903e-07
4.93495e-07
1.35948e-07
2.14606e-05
0.0153489
1.60892e-07
1.22988e-07
1.14679e-07
2.61242e-07
0.0103087
1.02961e-05
4.56739e-07
2.68454e-07
2.5521e-07
2.33784e-07
1.8298e-07
0.0333945
3.00973e-05
2.16801e-07
3.51943e-07
6.06097e-05
7.18958e-08
0.008318
9.86254e-08
1.1051e-08
1.55584e-06
1.17507e-07
2.17006e-07
3.60449e-06
6.90609e-08
5.30504e-07
4.20107e-07
1.95091e-07
0.0787346
3.22941e-07
1.47099e-07
0.0112346
1.3754e-07
3.57838e-07
1.7715e-07
1.19199e-07
0.0121645
0.00011442
0.0108173
0.0105342
1.64748e-07
1.6668e-07
6.48012e-08
2.0182e-07
2.01903e-07
1.62996e-07
9.87437e-08
4.02942e-06
2.37533e-07
4.2444e-08
9.28124e-08
7.01656e-05
1.50346e-07
2.17775e-07
9.6263e-06
5.84585e-07
5.99206e-06
6.68328e-07
2.68865e-07
4.40015e-07
0.00646512
6.72166e-08
1.05296e-07
0.0344404
9.99779e-07
0.065884
8.70039e-08
7.95873e-07
2.08146e-07
8.8548e-08
1.42172e-06
8.84377e-08
1.90793e-07
0.00790117
3.48831e-07
9.54023e-08
2.95467e-07
5.2415e-07
0.000185501
1.07356e-07
1.63042e-07
4.75876e-07
1.38188e-07
3.96713e-07
9.5793e-06
0.0518542
5.77355e-07
5.92841e-08
2.24045e-05
2.10418e-06
2.22344e-05
9.33704e-08
1.6668e-06
2.85826e-07
0.000262945
1.13477e-05
0.0446944
4.14805e-05
8.74724e-08
3.69577e-07
8.8948e-08
1.68318e-07
0.00028798
1.22649e-07
1.86423e-05
2.63316e-08
6.67053e-08
2.34844e-06
1.35704e-07
0.0768639
1.28238e-07
6.83513e-06
0.000787272
2.47065e-05
0.00025605
1.39586e-07
0.0569449
0.0721606
1.3448e-07
1.31683e-07
2.70132e-07
2.38829e-05
1.02172e-07
5.87141e-06
2.39132e-08
0.0652468
1.55735e-05
3.78996e-08
2.49526e-07
6.47649e-06
1.24963e-07
4.15229e-08
2.63477e-07
5.52368e-08
2.89258e-07
2.24109e-07
0.0123562
3.39165e-07
6.23489e-08
3.27106e-08
7.66192e-05
7.2604e-08
5.49433e-07
9.64983e-08
1.23498e-07
1.32219e-05
3.58362e-07
0.0174833
3.06245e-07
3.7922e-07
6.09449e-08
2.41813e-07
2.12317e-07
0.0577665
7.89265e-08
0.0518972
3.78698e-07
9.82611e-07
4.00581e-07
1.83006e-07
0.0801839
0.0312702
5.21831e-08
6.6753e-07
8.04848e-06
3.29776e-08
6.21173e-08
1.81691e-07
1.0165e-05
0.0606925
2.09585e-07
1.85409e-07
2.15579e-05
9.51001e-08
0.0124736
8.32755e-08
2.81938e-05
3.5865e-07
1.82362e-07
0.000130623
0.0172431
3.9706e-06
4.30361e-08
2.91205e-08
5.93e-08
1.86372e-06
3.80331e-07
4.90385e-06
8.7917e-08
0.000358973
1.1413e-07
7.33936e-08
3.0498e-07
3.08941e-07
9.04128e-08
8.74439e-08
1.58115e-07
1.19259e-07
4.56993e-08
0.0280121
0.0438381
1.56412e-07
6.45181e-08
0.0138226
0.0220957
3.09178e-08
2.14524e-07
3.29404e-07
4.20882e-07
4.35171e-08
4.40881e-06
7.16967e-08
0.0100604
1.69604e-07
1.69452e-07
9.61619e-06
1.09236e-05
2.55524e-07
1.65377e-07
3.29077e-08
5.57114e-08
9.46072e-08
7.31108e-07
2.03618e-07
2.12309e-07
9.85903e-08
0.030566
2.66054e-06
1.70581e-07
3.21994e-07
0.000253523
2.27211e-07
5.12426e-07
0.000650287
7.83266e-05
1.18735e-07
3.95231e-07
4.884e-07
1.55263e-07
0.0247991
4.12124e-05
1.65806e-05
0.000765993
0.0183711
1.26002e-07
6.83997e-08
1.3047e-06
9.35035e-06
2.7096e-07
0.000119896
0.000588213
0.000105005
4.14854e-05
1.17313e-06
1.41982e-07
4.61503e-07
4.63728e-05
9.10036e-08
3.14517e-07
7.06074e-07
1.0659e-07
6.54627e-08
1.40759e-06
5.72837e-07
0.00823111
8.20913e-08
3.71379e-08
0.0245866
0.0712073
1.48978e-05
1.01617e-07
0.00943973
1.17104e-07
3.44666e-07
1.95026e-07
1.99861e-07
8.92199e-06
2.52884e-06
0.0266881
1.07023e-07
9.01514e-08
7.47868e-07
3.98653e-06
0.0330175
2.27369e-07
3.38499e-06
8.78693e-06
0.0551081
0.0088017
1.10935e-07
1.41803e-07
1.2201e-06
1.03934e-07
3.52016e-07
4.45711e-07
5.05396e-06
8.53234e-08
2.51093e-07
2.16295e-07
7.73249e-08
2.38353e-05
6.20786e-06
1.37751e-07
9.90895e-08
0.000150577
6.8475e-08
9.96056e-08
3.13961e-07
3.13966e-07
1.21055e-07
1.20568e-07
9.54992e-07
2.61325e-07
1.32513e-07
3.80261e-05
9.86279e-08
6.22569e-08
8.80632e-08
3.83057e-07
4.1878e-06
1.36376e-06
1.12429e-07
0.016493
1.42203e-07
0.0406599
1.24163e-05
0.00265781
2.02322e-07
0.00622714
7.44648e-08
1.30117e-07
1.09818e-07
7.03719e-08
1.75869e-07
9.02647e-08
1.74766e-06
0.0587629
6.73045e-08
6.27528e-06
0.00973771
1.13274e-07
4.69156e-08
5.11065e-07
8.36283e-08
2.13504e-05
8.53732e-08
2.20929e-05
1.32482e-07
2.20557e-08
2.7233e-08
0.0363798
3.51441e-07
1.616e-07
3.23456e-07
1.86695e-07
3.0353e-05
2.03163e-07
0.0133635
2.41884e-07
6.93072e-08
4.08738e-07
0.00963241
7.5658e-08
1.19764e-07
1.31762e-07
0.00117359
0.00021651
0.0398379
2.16218e-07
1.0588e-07
1.79733e-07
4.66369e-06
1.2205e-05
0.000134957
8.27708e-05
7.1943e-08
3.12783e-07
0.0135218
6.20952e-08
5.33821e-08
7.98388e-08
2.53196e-07
1.63307e-07
1.40341e-07
8.09226e-08
5.0099e-07
4.52608e-08
1.49427e-07
1.5596e-07
2.18491e-07
3.62981e-08
3.74002e-08
2.96569e-07
3.82841e-07
1.26422e-07
2.46975e-08
2.93921e-07
4.61116e-07
2.76098e-07
7.09486e-08
1.16541e-07
5.13279e-08
1.4563e-07
4.08398e-08
1.04857e-06
3.94266e-08
2.93941e-07
7.55726e-08
4.46453e-08
1.95649e-07
1.67445e-07
1.15881e-06
5.42244e-08
1.11067e-07
8.01256e-08
5.14173e-07
5.41809e-08
0.000134556
1.6583e-07
0.0526188
6.90933e-08
8.04118e-08
0.0497208
1.87092e-05
5.80238e-08
5.09418e-08
1.60315e-07
2.54918e-06
0.026552
0.00015444
6.89873e-08
2.74867e-07
1.19001e-07
1.96384e-07
2.49881e-07
1.56794e-05
1.29016e-07
1.27699e-07
8.79279e-08
8.64019e-06
6.51602e-07
8.89012e-07
1.8332e-07
1.78202e-07
5.72631e-08
6.86212e-07
8.70715e-08
0.00711951
3.51058e-06
4.56174e-08
6.5241e-08
1.68293e-05
2.21279e-05
3.86493e-07
4.49773e-07
0.00966052
2.33203e-07
1.4593e-07
0.0136235
7.25462e-08
0.0162348
1.10982e-05
0.00787189
0.000142409
8.42258e-08
1.98744e-07
2.74918e-07
0.0115176
1.02294e-07
0.000304348
0.037604
3.55717e-05
1.01964e-07
1.07039e-07
7.4646e-07
0.105853
0.0373674
1.66549e-07
0.0532495
1.74521e-07
3.79835e-05
3.97813e-07
1.95417e-06
0.000133991
1.38487e-07
1.82852e-07
4.44379e-07
3.68305e-07
3.83933e-07
0.0096392
1.10547e-07
4.1356e-07
2.06365e-07
2.44181e-07
6.45487e-08
0.0453804
6.38718e-07
2.95088e-07
6.06217e-05
2.55161e-08
4.87268e-07
0.0467155
1.63654e-07
0.0429636
0.0756116
0.00013335
2.53358e-06
5.97126e-07
3.56654e-07
5.49388e-06
6.74452e-05
0.000189976
8.78513e-06
1.0117e-06
0.00972462
1.12589e-06
4.45998e-08
1.67886e-07
6.09067e-06
0.000131972
0.000109056
0.00019338
3.98902e-05
6.52896e-08
1.64778e-05
7.43058e-07
1.19826e-07
0.000392012
0.073864
1.68588e-07
7.14638e-08
0.00075484
0.000664719
8.496e-08
9.86019e-05
2.05904e-07
1.80228e-08
2.89524e-07
1.32827e-07
2.73403e-07
2.72363e-07
1.83676e-06
0.0110571
1.58318e-07
6.94145e-07
0.00108836
0.0263503
1.3064e-07
3.96889e-07
0.00689912
1.6197e-07
1.07734e-05
2.03509e-08
1.67288e-07
0.000144898
0.0275894
1.97928e-07
7.20221e-08
3.85004e-07
0.00762429
6.31142e-08
0.00490873
2.09339e-07
1.57511e-05
3.80682e-08
0.000340095
2.04109e-07
1.22665e-07
5.37818e-07
9.22853e-08
0.000252062
8.50644e-07
6.86104e-08
6.24931e-07
0.000855422
0.0114753
8.59068e-06
5.89589e-05
0.000167204
3.73813e-07
0.00031414
1.15396e-06
1.98922e-07
3.96441e-07
3.14319e-05
1.61063e-07
8.20099e-07
1.69001e-06
3.86159e-05
1.18072e-07
4.46441e-07
3.99975e-07
1.4217e-06
0.0183981
4.26687e-08
3.39975e-07
0.013023
3.14226e-05
1.75215e-05
1.59926e-07
6.93035e-08
3.19897e-07
2.75455e-07
2.54246e-06
5.20035e-08
1.8129e-07
1.32626e-07
5.78097e-06
9.66134e-06
5.35275e-06
3.25301e-07
1.68304e-06
1.34038e-07
1.05125e-07
4.1528e-07
3.83211e-05
8.91872e-08
1.5092e-07
1.73367e-07
2.04843e-07
1.45185e-05
2.94361e-07
1.48882e-07
0.000183325
2.54045e-07
5.12909e-08
9.78194e-05
2.26986e-05
1.39655e-05
2.51955e-05
1.69538e-07
5.39584e-07
1.16695e-07
0.0268084
5.76713e-06
1.61473e-05
2.14082e-07
3.00986e-08
1.08802e-07
0.0481346
0.0158239
6.76582e-06
1.17127e-07
4.55562e-05
1.71327e-07
0.0361788
3.52919e-07
3.77964e-07
1.72156e-07
6.20266e-07
5.18256e-07
8.90474e-06
5.74123e-07
2.40802e-05
0.0699095
5.22537e-07
1.84935e-05
1.0974e-05
1.90285e-05
1.88285e-05
1.29468e-07
3.93475e-07
2.64053e-07
1.16728e-07
1.2089e-07
2.19679e-07
0.000125643
2.18672e-07
5.80424e-07
0.108455
5.64539e-07
6.88605e-07
1.06493e-07
1.6611e-07
3.2653e-07
0.0860924
7.43621e-08
0.0284148
0.0010294
7.58818e-06
1.14768e-06
8.93506e-07
0.000216195
6.97106e-07
2.8704e-07
3.1357e-07
1.45966e-07
1.02079e-07
1.42466e-06
2.02771e-05
5.347e-07
0.0149611
7.27476e-08
4.90369e-07
2.484e-06
1.50004e-07
9.97655e-05
3.38319e-07
3.28291e-06
0.000132027
2.00351e-07
6.04458e-08
9.31156e-06
4.72326e-07
2.64977e-08
0.0412014
1.01742e-07
2.30266e-06
6.46101e-07
0.00993678
2.16349e-06
5.90023e-07
7.27168e-08
1.70505e-06
5.44981e-07
8.60373e-08
0.0363979
2.728e-07
3.56458e-08
1.04434e-05
4.61884e-07
1.18336e-07
1.11038e-06
1.02272e-05
0.000185887
2.31891e-07
3.34421e-07
1.59879e-07
2.47447e-07
1.33347e-05
0.00812824
3.57203e-06
0.000201078
1.61278e-05
0.00024284
1.20013e-05
4.32453e-07
3.99149e-07
3.66951e-07
7.75356e-08
5.0777e-08
4.94855e-08
0.0104134
1.1111e-05
0.0102109
1.23312e-07
1.01084e-07
2.60447e-07
1.28688e-05
8.33576e-06
1.97664e-08
4.56287e-06
0.000111087
3.54425e-08
6.25471e-08
0.00165365
0.00139314
1.11817e-07
1.90161e-06
5.33447e-07
0.000209876
6.11866e-07
5.10473e-08
1.23812e-07
6.60968e-08
5.03164e-05
1.65205e-07
0.000220185
2.09328e-07
0.0100838
4.95728e-05
4.139e-07
1.10034e-07
1.79197e-05
4.26844e-07
0.0141034
0.060009
1.38132e-05
2.42331e-05
2.37208e-06
1.3859e-07
1.91262e-07
9.10399e-07
1.82214e-05
5.85494e-07
0.00748908
0.0140509
6.73207e-08
9.1116e-07
7.82618e-05
0.00906445
7.0731e-06
0.000275717
0.000587496
0.00932321
0.0366717
0.0109404
3.52302e-06
1.25879e-07
0.000474808
2.9135e-07
4.05885e-08
2.2938e-07
3.54284e-07
7.18727e-08
2.89776e-07
9.94661e-08
1.87741e-05
3.34634e-07
7.38655e-08
5.15175e-07
1.40044e-07
0.0126802
3.02489e-06
2.17255e-06
0.0164039
0.0623173
5.34163e-07
0.044723
2.76545e-05
0.0840013
9.43727e-08
8.69414e-08
1.09039e-07
9.53341e-08
0.0630527
2.85104e-07
0.000123717
1.7967e-07
1.52948e-07
4.36118e-06
2.09297e-07
2.72363e-07
1.06761e-07
0.016792
6.52863e-08
3.1336e-07
4.90797e-08
6.62131e-07
2.30412e-09
4.18643e-05
6.16042e-06
2.59234e-07
9.62779e-05
1.3646e-06
1.45219e-07
2.07081e-05
2.13878e-07
1.24296e-07
1.30278e-07
2.17708e-07
0.0653804
0.00951093
3.1829e-05
1.52836e-07
3.73008e-07
8.24161e-08
0.0420592
1.9072e-07
5.25529e-08
8.12545e-07
6.56771e-08
3.38678e-08
0.0076466
1.29669e-07
1.15696e-07
3.49868e-07
1.19592e-06
2.18506e-07
0.0387318
9.75123e-08
0.0102939
4.01272e-08
9.94661e-07
4.40011e-08
7.4922e-08
2.9323e-07
1.33221e-07
6.95374e-07
1.02361e-06
4.37624e-08
3.86574e-08
9.67757e-08
0.017483
9.13198e-08
3.56329e-08
1.0665e-07
3.29854e-06
2.16787e-07
0.0104179
7.37516e-07
1.24547e-07
2.34718e-07
3.68752e-07
1.35795e-07
4.16029e-07
1.57875e-07
1.25019e-07
2.24057e-07
2.27934e-07
2.8515e-07
9.80729e-08
3.44805e-07
6.67207e-08
1.03684e-07
2.6878e-08
0.000126829
0.0639956
6.94833e-08
8.53337e-07
3.79539e-07
9.34367e-05
3.27863e-05
1.90333e-07
2.14854e-05
0.0173748
7.76979e-08
1.19316e-05
0.000200728
0.0146652
4.30582e-07
2.96126e-07
4.26633e-05
3.93476e-07
0.00904059
2.32227e-07
2.39413e-07
2.68669e-07
2.47058e-07
0.0550405
2.91005e-08
7.62357e-08
7.46252e-08
1.52593e-07
0.0847678
0.0124096
6.39294e-07
1.25217e-07
6.86325e-08
5.13913e-08
1.62154e-07
2.3552e-07
8.16002e-08
1.03612e-07
7.04033e-08
4.91005e-08
1.1138e-07
0.0134776
0.00811178
1.58497e-07
3.07859e-06
1.12191e-07
3.87488e-08
3.85299e-07
0.00790383
0.019557
6.45447e-07
1.07276e-07
4.15933e-08
1.8043e-07
4.91653e-07
1.38795e-06
1.32739e-07
6.79827e-05
2.48861e-07
1.23154e-06
9.86328e-07
5.10456e-05
9.74894e-07
0.000185258
6.06701e-07
3.14623e-08
0.000115565
0.00010528
7.09194e-08
1.08271e-07
2.1459e-07
1.0027e-07
1.06802e-07
4.09706e-07
3.14836e-06
2.95119e-07
0.0718649
4.92787e-07
1.02558e-06
0.0135854
2.28448e-07
4.25732e-08
2.41347e-07
1.26546e-07
2.31881e-07
2.80863e-07
4.7405e-07
4.53139e-07
1.51604e-06
1.37644e-07
1.80791e-07
2.95281e-07
3.04845e-07
3.92398e-08
1.21921e-07
3.86509e-08
3.05717e-08
1.89402e-07
4.14637e-07
9.94404e-08
6.82683e-08
5.29852e-08
6.48531e-07
2.99034e-06
2.14624e-07
9.69324e-08
1.7284e-07
1.78664e-07
1.50768e-07
1.21304e-05
3.32882e-07
0.0656174
2.34029e-07
2.85363e-06
2.93491e-07
1.06436e-06
8.39535e-08
2.5681e-07
0.0509718
2.33109e-07
1.33232e-07
7.27485e-07
0.0517554
2.50175e-07
2.23631e-07
1.32413e-07
3.39534e-07
1.12736e-06
5.60957e-08
9.13285e-05
1.98324e-07
2.89541e-08
1.22263e-06
5.43472e-08
8.90005e-05
7.0034e-05
0.0595046
2.05472e-06
5.70006e-07
1.0213e-06
1.15689e-07
2.61483e-06
2.49561e-07
0.000643042
8.40791e-08
1.07898e-05
9.3976e-05
0.0144371
2.94158e-06
0.0565287
9.20203e-08
5.00281e-07
6.07985e-07
8.22173e-08
2.85623e-07
8.79228e-07
7.78013e-08
2.06176e-07
1.91867e-06
2.02184e-07
8.02415e-08
3.4617e-08
9.26929e-05
7.77046e-09
2.15439e-08
7.55634e-05
1.15528e-06
0.000120952
9.00802e-08
1.77643e-07
3.80738e-08
4.42319e-07
5.63556e-06
1.05658e-06
5.80131e-05
6.81059e-08
1.22289e-07
0.000767657
1.33152e-07
5.64497e-08
3.64958e-05
3.09003e-07
3.70919e-07
9.07166e-08
0.0334605
2.75201e-05
1.30659e-07
3.34038e-07
1.76687e-07
4.79576e-05
6.68803e-08
1.21192e-07
9.7112e-08
2.8852e-07
4.4039e-08
7.66011e-07
0.0421241
5.11962e-07
4.95803e-08
6.19533e-05
5.52011e-08
5.51065e-08
9.44072e-08
1.65792e-05
1.47872e-07
2.25619e-05
0.0384695
5.22131e-08
1.08402e-07
6.33295e-08
1.88313e-07
1.72131e-07
3.56071e-07
0.000103644
0.000164721
1.76522e-05
0.000213703
2.95007e-07
1.36338e-05
3.69453e-07
3.20406e-08
4.93414e-08
2.60875e-07
0.0245251
4.42699e-05
7.12073e-08
0.000382716
4.67039e-08
5.42693e-06
9.3983e-05
2.31243e-07
4.96741e-07
4.93815e-07
1.13603e-07
9.98585e-06
1.71654e-07
2.51587e-05
2.00991e-07
3.91368e-07
9.63594e-08
2.18268e-08
5.79207e-08
1.07338e-07
7.01763e-05
6.81499e-08
3.06181e-06
5.9138e-07
8.7767e-08
5.7201e-08
0.000149367
0.0347278
1.27593e-07
9.44945e-08
8.41852e-08
0.0337361
0.057819
1.47706e-07
0.0126173
2.14819e-07
7.05021e-08
1.52615e-06
9.75539e-08
8.24722e-08
1.37407e-07
5.28422e-06
0.0250724
0.0828159
0.0910826
4.48091e-07
3.11649e-07
3.62943e-07
2.44258e-06
0.0873711
5.75848e-08
0.0477349
4.69102e-07
2.12742e-07
4.49017e-07
2.30094e-07
6.12199e-07
1.11042e-07
1.70462e-07
1.97057e-07
0.0298378
3.04633e-07
1.70757e-07
1.49948e-07
3.47315e-07
1.5323e-07
2.14933e-06
9.2455e-08
6.89606e-07
8.0501e-05
1.93169e-06
6.25679e-08
1.83476e-06
2.2088e-06
2.17332e-07
1.76849e-07
2.59162e-07
2.32909e-08
7.30633e-08
0.000825135
3.47382e-07
5.46836e-07
6.42857e-08
2.53326e-07
5.87011e-08
1.41415e-05
3.89945e-08
5.41998e-08
9.60376e-07
1.28841e-06
1.30894e-05
1.60707e-07
7.9446e-08
0.0102808
9.32111e-05
0.0827182
0.000190201
2.77728e-07
3.97155e-07
0.0145056
1.1129e-07
7.49773e-09
1.95644e-07
1.05608e-07
4.92548e-06
2.97713e-07
1.31228e-07
4.19004e-07
3.1982e-07
1.86429e-07
1.85835e-07
1.63255e-07
4.23757e-06
0.0166697
1.16986e-07
9.25802e-08
6.65513e-08
2.67603e-07
9.49874e-07
5.89842e-05
1.21483e-07
4.30427e-08
3.12209e-07
1.64071e-07
0.010558
3.18259e-05
4.04127e-08
1.21513e-06
1.1164e-07
1.31772e-07
4.29333e-07
1.16568e-07
1.6279e-07
2.48112e-07
5.09522e-06
9.62224e-08
5.7464e-07
5.2861e-07
1.00253e-07
1.25756e-05
2.06989e-05
9.5066e-08
1.56249e-07
1.96794e-07
3.75391e-07
9.24304e-08
0.000133436
2.10068e-07
0.045526
3.44309e-06
8.70011e-08
2.53334e-07
4.70401e-05
2.14625e-07
0.00025017
1.36314e-07
4.2399e-07
0.0505366
7.28685e-08
7.29704e-05
3.86186e-07
0.0100625
3.55313e-07
0.0111829
0.0208371
3.15875e-05
2.27462e-06
8.57141e-06
2.87413e-08
3.88994e-06
6.5465e-06
7.79786e-05
3.4657e-06
8.86062e-08
4.54471e-06
0.000102807
8.09114e-05
0.000119361
2.93749e-05
3.57249e-07
2.3473e-07
0.000202489
3.14392e-06
3.9751e-07
5.86557e-05
4.26342e-05
2.54485e-06
1.2725e-06
5.97901e-05
1.04966e-06
2.11871e-05
2.42455e-08
5.74201e-06
6.21876e-08
1.34102e-06
9.71511e-05
0.0169625
3.10033e-07
3.9925e-07
1.34804e-05
2.29195e-07
2.06939e-05
2.14662e-07
7.72071e-05
4.40537e-08
5.90005e-08
1.8483e-07
8.69088e-08
3.53971e-06
0.000248497
0.0001604
0.0850994
1.70074e-06
5.84612e-07
5.87687e-07
8.57651e-05
3.00228e-07
0.00707793
0.0178166
4.39711e-07
0.000181059
6.25468e-07
2.52196e-07
2.50279e-07
0.000269408
1.32847e-07
0.0108051
1.11335e-06
9.39861e-08
2.61219e-07
6.31484e-08
1.48124e-07
6.87295e-06
0.00934247
4.19112e-07
6.24901e-08
5.28009e-07
0.0539805
0.0091329
6.11877e-08
1.99238e-07
8.26913e-08
0.000102426
4.805e-08
0.00944245
6.00192e-07
2.67521e-07
2.50244e-07
1.83054e-07
2.62249e-07
4.17605e-07
9.56487e-07
1.18122e-06
4.65337e-07
3.92488e-07
1.08287e-06
4.45553e-07
5.7543e-08
3.36145e-07
0.0171492
2.50598e-07
5.82772e-07
2.33489e-07
1.32573e-07
1.35695e-07
8.78163e-06
0.0140534
1.57984e-07
0.0555664
3.70339e-07
6.72296e-08
0.0094338
3.4976e-05
3.63392e-08
1.21025e-07
0.00708068
1.35721e-07
2.20263e-07
1.18168e-07
1.583e-07
6.43419e-07
9.3313e-07
3.71878e-07
0.027191
1.29206e-07
7.17011e-08
4.1181e-07
2.81902e-07
3.2345e-07
2.70377e-07
7.42477e-07
0.0594117
1.56999e-05
9.51789e-06
1.26912e-05
1.41994e-05
1.81459e-07
4.79921e-08
1.01056e-07
2.17394e-07
1.63464e-07
4.20658e-06
2.47e-07
1.13469e-07
8.86559e-07
1.43411e-07
1.16096e-07
7.40455e-08
1.70742e-07
1.52537e-07
1.03152e-06
9.83298e-08
7.91275e-08
2.64261e-07
5.86229e-08
0.000273749
1.76093e-07
1.42078e-07
2.25141e-08
6.63933e-08
0.0667305
1.02733e-07
2.27343e-07
1.75958e-05
1.23918e-07
6.36824e-07
6.86893e-08
7.91083e-07
4.49934e-08
2.83515e-07
1.96088e-07
1.2799e-07
6.6597e-08
1.06406e-08
1.28715e-07
1.7121e-07
0.0691284
0.000124323
3.04962e-07
0.000423788
7.75863e-08
3.60524e-08
2.01747e-07
0.0138192
4.91418e-08
3.66689e-08
4.56593e-07
5.53322e-08
1.06217e-07
0.104764
1.02568e-07
2.34974e-07
1.82126e-07
6.20004e-08
0.0256625
9.49736e-08
1.44645e-07
8.88462e-07
3.37537e-07
1.40111e-07
4.78475e-07
1.82427e-08
4.49456e-08
6.89059e-08
6.21524e-07
4.59627e-08
4.5207e-05
2.13959e-07
0.0366257
5.42675e-07
7.25088e-08
5.31226e-07
4.3809e-06
0.0142803
0.00699192
4.61682e-06
8.7298e-08
0.0229525
1.1008e-07
7.76709e-06
0.0100645
2.6651e-07
1.23492e-07
0.0388166
0.0043913
5.67e-06
9.10698e-08
1.22504e-07
1.27881e-07
0.000332277
1.45345e-07
2.75128e-06
8.17995e-05
4.51843e-08
0.00587144
8.20955e-08
1.06752e-05
0.0468785
4.66488e-08
7.62691e-08
1.00819e-07
4.66786e-07
3.84658e-07
4.56131e-08
1.91019e-07
1.3392e-07
9.12741e-08
2.03757e-06
8.99717e-08
0.00591024
0.0111064
1.29206e-07
1.56525e-07
5.35561e-08
3.58933e-05
5.72462e-08
5.74281e-08
2.27607e-07
3.91243e-07
3.78435e-05
1.07175e-07
2.56357e-07
4.803e-08
0.0938181
1.35136e-07
0.0348732
1.71176e-07
6.94922e-08
0.0118916
1.53619e-07
7.4203e-08
0.00539689
8.33497e-08
1.1284e-07
4.57596e-08
3.26175e-07
3.19471e-07
1.14855e-07
1.36189e-07
6.62128e-08
5.35828e-06
0.0490412
0.0508977
3.05908e-06
8.16975e-07
1.03525e-07
0.0130748
0.0501136
4.20336e-07
1.82145e-07
2.14092e-07
0.000227029
5.17553e-05
5.26497e-07
4.79514e-08
2.43708e-07
2.50879e-07
1.60335e-07
3.49071e-06
4.78656e-07
0.0141885
0.0491358
1.13177e-07
0.000187626
1.64491e-07
5.78507e-08
7.61852e-07
2.07355e-05
8.38561e-06
0.000106104
5.40907e-06
5.01643e-07
7.17706e-08
1.53196e-08
4.55224e-06
0.0137059
9.68975e-08
0.0439138
4.98076e-07
1.44276e-06
1.05849e-07
3.59753e-06
1.51337e-07
1.52544e-07
4.97281e-08
1.55498e-07
8.53827e-08
8.14314e-05
1.67293e-07
0.00939973
1.16817e-07
0.0374184
7.22928e-08
3.26674e-07
4.75666e-07
6.05094e-08
4.18913e-06
2.24747e-07
8.25707e-08
5.22271e-07
2.2129e-07
1.55805e-06
0.0123143
0.0119071
6.63804e-07
2.9379e-07
1.19526e-07
1.32123e-07
6.53913e-08
2.42218e-07
4.86451e-05
2.27976e-07
2.01263e-08
5.75929e-08
0.00518621
8.04867e-06
2.16767e-07
0.00952505
2.35962e-08
0.0816383
3.881e-07
9.61016e-08
9.84458e-08
7.35355e-08
0.0126129
6.43848e-08
1.72929e-07
1.40317e-07
0.000186157
7.49413e-06
7.30667e-09
3.41319e-05
1.27325e-06
2.31156e-07
3.26286e-07
0.0812522
8.11911e-06
7.8864e-06
9.46365e-08
7.57901e-07
8.55503e-08
2.14479e-05
1.02305e-06
8.30388e-07
8.13453e-05
1.30178e-07
5.56378e-06
0.00987416
4.14616e-08
1.48032e-07
2.05748e-05
3.16681e-07
0.0086269
0.0417097
7.18769e-08
9.97299e-08
0.000975962
3.65947e-07
5.01574e-08
1.41453e-07
1.05263e-06
1.06262e-07
0.000182708
9.86376e-08
2.48809e-06
4.45344e-08
1.69684e-05
3.00873e-07
1.518e-06
8.3527e-08
3.41687e-05
1.02247e-07
1.40103e-07
3.82222e-07
2.13029e-06
2.8552e-05
9.36729e-05
1.4267e-07
2.01012e-07
3.18644e-07
1.3088e-07
1.90201e-07
0.00540454
1.14071e-07
1.27356e-05
2.16106e-07
4.57676e-05
1.4817e-05
1.37041e-07
3.18355e-07
2.29911e-07
8.46283e-08
1.84207e-07
1.98817e-06
0.00010427
9.17868e-06
2.69765e-07
1.24331e-07
5.74013e-08
4.13415e-07
9.98109e-08
0.0333032
2.32794e-06
0.000174248
0.000231252
0.000166987
7.45669e-08
0.000142435
0.000169162
0.00031783
0.000168089
7.24752e-08
2.43769e-07
2.00688e-07
1.06351e-07
1.64289e-05
8.59064e-05
0.00898431
9.93787e-08
6.35963e-06
1.50275e-06
3.08731e-05
1.60716e-07
1.33594e-07
3.32032e-07
3.19193e-05
0.00617219
1.0331e-07
0.0296354
3.15436e-05
1.63565e-07
2.01381e-05
4.54561e-08
2.19885e-07
6.14289e-07
2.88318e-07
7.82134e-08
1.42824e-07
0.000450583
8.68682e-08
4.19724e-08
0.000379661
1.02357e-07
2.24833e-06
0.000700888
1.32318e-08
2.11275e-07
1.41937e-05
1.57094e-07
5.57273e-07
0.0598383
4.08477e-08
3.34254e-07
1.53194e-07
0.0289317
0.0286109
3.39554e-07
5.72559e-08
1.46031e-06
0.0129568
5.87526e-08
5.85238e-08
5.59582e-08
3.17272e-06
3.83058e-07
0.062051
2.21307e-07
1.05368e-06
0.000919982
1.28075e-07
1.3603e-06
4.22034e-07
5.40501e-07
2.64362e-07
0.000581015
0.000945482
1.59162e-07
2.06318e-07
1.95077e-07
5.57148e-06
2.60969e-07
0.0100615
2.30823e-07
2.80872e-06
3.78802e-07
2.57981e-07
7.17823e-08
8.7459e-08
1.13897e-07
3.95456e-06
5.1324e-05
4.86022e-08
5.54639e-07
0.0101837
3.34533e-07
1.29627e-06
1.62526e-06
6.47371e-07
6.69837e-08
2.44213e-07
2.62335e-07
3.88056e-07
1.26272e-07
0.0142598
6.32511e-06
3.03423e-07
6.62354e-08
3.87879e-07
0.0265656
6.24777e-08
1.28478e-06
1.14294e-06
3.01283e-06
9.86512e-08
3.88418e-07
3.85777e-06
2.01887e-08
1.57778e-06
0.00013063
4.15003e-07
5.21941e-08
9.24054e-08
5.41491e-07
6.05889e-08
7.98009e-08
7.06449e-08
9.16959e-07
2.18865e-06
4.9913e-07
1.78497e-07
0.0115646
1.26557e-07
6.80614e-08
3.70703e-07
0.0142541
6.6128e-07
3.86233e-07
6.62135e-08
1.54793e-07
1.45526e-06
5.03017e-07
1.65726e-06
4.46841e-08
1.09205e-07
1.15439e-07
4.24266e-07
2.18492e-07
1.37059e-07
3.13413e-07
2.47081e-07
2.20913e-06
2.54773e-07
1.0377e-07
3.17427e-06
3.83989e-07
2.03215e-07
6.93254e-08
3.11193e-07
9.68195e-08
5.0648e-07
1.4953e-07
2.72131e-07
3.95357e-06
4.45351e-08
5.10906e-06
3.85912e-08
5.53104e-07
8.03633e-05
4.94108e-08
1.45278e-07
0.0169766
5.76746e-08
0.0139713
1.52124e-07
3.60256e-08
3.09136e-06
1.99482e-07
0.00989878
2.34862e-07
0.0126519
0.0154729
1.24521e-05
7.99236e-08
0.0101593
3.12295e-06
1.5461e-07
2.81779e-07
0.0301654
0.00926518
0.0106958
2.86758e-08
2.07672e-07
1.4066e-07
1.00136e-06
5.37927e-07
1.06243e-07
3.73668e-05
2.53478e-07
1.19798e-07
1.04457e-07
4.487e-07
7.13804e-05
2.55583e-08
9.67946e-08
2.35963e-07
5.76346e-07
7.56001e-08
9.85602e-07
1.39151e-06
8.60143e-08
2.38802e-07
1.60782e-07
1.7738e-07
2.37692e-07
4.89394e-06
2.59609e-06
1.45289e-06
2.43831e-05
0.000107735
1.22084e-07
1.83036e-07
7.14879e-08
7.90504e-08
5.23748e-08
1.15006e-06
4.70916e-08
4.30481e-05
0.0936418
0.01924
7.69472e-08
1.1644e-07
1.3525e-07
0.0117404
0.0312622
4.29739e-07
5.80636e-05
2.00553e-07
1.24558e-07
7.00548e-07
1.67537e-07
5.06872e-08
1.29286e-07
2.32128e-07
2.61566e-07
4.6563e-08
1.12146e-07
0.0408022
0.0128584
2.11428e-06
2.36036e-07
7.73435e-08
0.00984679
1.49213e-07
4.36338e-08
5.0346e-07
0.000130827
3.87768e-07
4.85297e-07
2.00914e-07
3.4002e-07
0.000241755
0.034296
0.0162828
1.07179e-07
0.0163128
3.91918e-07
3.2995e-07
1.14871e-06
0.0258529
2.60588e-07
3.78882e-07
2.61893e-07
4.6206e-07
6.18149e-05
1.91215e-07
7.6852e-06
3.66032e-07
5.18163e-08
3.0517e-07
1.65179e-07
1.76458e-07
1.81252e-07
2.24861e-07
4.29571e-07
2.31741e-07
8.43714e-08
4.4821e-08
0.0158894
0.00939943
3.05362e-07
0.0177956
8.33345e-08
1.28809e-07
4.78774e-06
6.13939e-08
8.87281e-08
0.00821548
7.0301e-08
1.6664e-07
0.000142359
2.59252e-08
1.40881e-07
1.28783e-07
0.0290792
2.50196e-07
0.00870808
2.19625e-07
6.75916e-08
0.01061
8.1941e-07
0.000156431
5.01333e-08
1.6695e-07
1.56831e-07
2.76026e-07
0.0465134
0.00962077
2.38571e-05
3.1892e-07
0.010926
6.26913e-08
1.22096e-07
2.27097e-07
0.0321067
0.000311485
1.15362e-07
5.16367e-08
1.47767e-07
0.0113849
0.000202027
5.62949e-07
4.15455e-05
0.0322422
0.0182202
8.64469e-06
0.0182943
0.000176467
0.0108202
9.53388e-06
0.0164691
8.10227e-05
2.70912e-07
5.78056e-07
9.9204e-08
0.000108362
0.000210712
5.55287e-08
2.83092e-07
2.12974e-07
1.23013e-07
1.19956e-06
2.05263e-06
6.85613e-07
5.46978e-05
1.85679e-07
2.33694e-06
1.23776e-06
2.37716e-08
3.59199e-07
4.59116e-08
1.54602e-06
3.98045e-08
2.80003e-07
6.85879e-08
1.9965e-06
1.09616e-05
7.52513e-08
3.08609e-07
2.57498e-07
3.87533e-07
1.85843e-07
0.000296686
0.000442316
2.34315e-05
4.4403e-07
6.07843e-08
3.32987e-07
0.0111459
7.51572e-06
2.12124e-06
8.89715e-08
3.22156e-07
1.10061e-06
5.72612e-05
2.5914e-05
0.0400746
0.0169598
7.72108e-08
0.000193886
7.53772e-05
2.71693e-07
1.58083e-07
3.01247e-06
9.03835e-08
2.75147e-07
8.21723e-07
0.0146906
6.27809e-08
2.29396e-07
1.40191e-07
0.0102733
1.07888e-05
0.00839068
5.7338e-08
2.3588e-07
3.83231e-08
1.05366e-07
6.28132e-06
6.09224e-07
4.45576e-07
9.10054e-07
3.26542e-07
2.43e-06
1.33811e-05
1.01228e-07
2.91883e-05
7.19524e-06
9.49636e-07
2.02994e-05
0.000551045
1.55375e-06
0.0236095
1.52716e-07
5.6162e-07
0.00939453
9.01506e-08
1.92579e-06
0.00157388
1.10648e-07
9.13062e-07
2.62099e-07
2.94621e-07
4.11646e-07
1.00244e-06
2.47136e-08
4.64866e-08
2.69488e-07
1.16209e-07
4.55929e-08
3.38502e-05
4.04029e-08
9.7952e-08
7.30738e-07
1.52452e-07
9.6549e-08
7.26414e-07
1.53319e-06
1.29515e-07
4.0934e-05
5.09932e-07
1.17204e-07
5.29633e-06
1.62247e-05
6.9174e-07
0.0090855
1.63756e-05