/*--------------------------------*- C++ -*----------------------------------*\
  =========                 |
  \\      /  F ield         | OpenFOAM: The Open Source CFD Toolbox
   \\    /   O peration     | Website:  https://openfoam.org
    \\  /    A nd           | Version:  10
     \\/     M anipulation  |
\*---------------------------------------------------------------------------*/
FoamFile
{
    format      ascii;
    class       volScalarField;
    location    "2.5";
    object      SgRate;
}
// * * * * * * * * * * * * * * * * * * * * * * * * * * * * * * * * * * * * * //

dimensions      [1 -1 -3 -1 0 0 0];

internalField   nonuniform List<scalar> 
111485
(
2.29656e-06
8.19978e-08
2.40305e-07
0.0680211
3.57287e-07
4.2919e-08
1.52451e-07
5.72129e-08
1.48959e-07
1.43939e-07
2.65708e-07
1.50549e-07
2.0647e-07
0.0659822
3.72108e-08
3.19465e-07
0.0477759
0.000274604
4.30315e-08
0.0198999
0.0103871
5.58911e-08
6.12084e-08
1.68005e-07
1.04449e-06
8.1156e-08
1.45306e-07
2.9976e-07
1.15551e-07
0.0114416
5.4385e-07
2.10329e-07
0.0790848
2.02232e-07
0.000158478
2.05915e-05
0.0312746
0.0474044
0.000561867
1.84782e-07
0.00916808
5.28961e-07
6.78348e-08
8.83832e-07
5.57778e-06
6.55947e-07
6.43169e-08
1.38753e-07
2.81714e-07
1.73049e-07
3.90969e-07
2.69981e-06
2.42573e-07
5.06909e-07
4.12954e-07
1.87058e-07
2.10106e-07
3.6482e-07
8.91307e-08
3.02358e-08
5.24341e-08
4.74547e-05
1.14487e-06
5.72809e-07
1.97162e-06
3.30596e-08
9.89669e-05
3.99337e-08
6.94948e-07
1.28318e-07
6.59241e-06
1.35833e-07
3.31788e-06
4.04368e-06
2.68467e-07
1.41749e-07
8.22833e-08
7.64854e-08
1.09771e-07
4.25736e-06
0.0618089
0.112136
1.792e-07
7.28361e-08
2.98804e-07
3.11026e-07
0.0318015
1.21642e-07
4.23799e-05
1.04445e-07
4.10096e-07
8.33847e-08
1.14541e-07
8.3494e-07
1.38593e-07
1.05319e-07
0.00633822
8.15462e-07
0.000371455
1.0483e-05
0.000839824
3.29075e-07
4.81271e-07
3.33576e-08
1.82961e-07
4.28378e-06
9.25639e-08
1.03864e-07
6.21858e-07
9.69197e-05
1.65465e-07
2.10019e-07
5.22152e-08
4.64314e-07
2.19663e-07
1.62449e-07
6.97794e-08
1.66627e-06
1.30041e-07
0.0662305
5.71126e-08
4.56813e-05
0.0159097
4.99571e-07
5.2758e-08
0.00746135
2.50787e-05
1.21518e-08
1.74561e-07
4.95701e-05
1.68626e-05
1.23568e-06
0.0110566
4.11403e-05
2.11801e-05
1.22695e-07
6.16825e-08
2.23085e-07
2.18528e-07
1.45065e-06
1.44274e-07
3.9957e-07
0.0403879
6.5737e-08
1.45134e-07
1.78267e-07
1.28204e-06
1.98078e-07
1.43885e-07
8.30521e-08
2.3346e-07
0.0101682
0.0398346
6.21211e-07
1.0045e-05
2.59725e-08
1.31915e-07
2.88694e-07
0.000151572
1.43623e-06
0.0595423
8.22095e-08
3.06679e-07
1.67817e-05
1.09426e-05
5.48354e-07
2.93164e-07
0.00573008
0.000276259
2.26438e-05
1.09068e-07
1.43469e-07
0.0618253
1.57398e-07
6.74243e-08
3.70856e-08
4.15918e-07
2.51977e-06
1.1541e-07
1.47627e-06
2.58869e-06
0.0189206
7.96442e-08
9.65e-08
1.73062e-07
4.74326e-06
1.23023e-07
5.22874e-08
1.81071e-05
0.000640154
5.41404e-07
8.82942e-07
2.70305e-06
1.2112e-07
7.70018e-08
1.50208e-06
1.90362e-07
4.50639e-07
4.45084e-07
8.25403e-08
1.21907e-07
0.000381681
5.08239e-08
2.67904e-08
3.75578e-07
9.9699e-08
9.11747e-08
2.2542e-06
6.91285e-07
7.60258e-08
1.30966e-07
5.05297e-07
1.93736e-06
2.26115e-07
1.32218e-07
6.82135e-05
8.41699e-08
2.39459e-07
1.32957e-07
1.40313e-07
6.39308e-08
2.48458e-07
1.19451e-07
2.54508e-06
6.71264e-05
1.74226e-07
8.27048e-08
6.20762e-06
0.000702328
6.66353e-06
2.13957e-05
1.28354e-07
6.84231e-08
0.0311285
7.78541e-06
4.61295e-06
0.0381405
1.18592e-07
1.22998e-07
6.88095e-08
1.99232e-07
3.76892e-08
1.42933e-07
1.77522e-06
0.000116678
6.75122e-08
1.60812e-06
2.07165e-06
3.13459e-07
0.0291954
3.09363e-06
1.13704e-07
8.25315e-08
2.97381e-08
4.7877e-05
5.93201e-08
2.37414e-07
1.97728e-05
0.0242272
3.30261e-07
9.67391e-08
3.20238e-07
2.24407e-07
1.15475e-07
7.18676e-07
0.0591156
6.95057e-06
1.92633e-07
0.0532635
2.41337e-07
1.08069e-07
1.52884e-07
0.0370342
4.4068e-08
7.16154e-08
2.16719e-05
1.37503e-07
6.54516e-08
1.27752e-07
1.1366e-07
0.0367429
1.06289e-07
1.15969e-05
8.2912e-08
0.0465625
0.048425
0.0580219
3.04489e-08
6.13501e-07
3.32178e-06
1.54136e-08
9.39146e-08
3.22582e-08
6.74054e-07
8.6635e-08
2.12283e-07
8.34567e-05
7.78454e-05
2.65831e-06
1.71283e-07
0.0745651
1.38725e-07
0.0181721
3.31355e-08
2.42835e-07
0.00158753
2.11562e-07
0.00629279
4.65989e-08
2.25354e-07
6.15632e-08
2.3941e-07
7.95121e-08
9.4258e-06
1.75229e-08
1.91339e-08
1.74499e-07
0.00105056
0.0587575
4.99312e-07
3.47735e-05
2.41774e-07
1.17617e-05
1.73877e-05
1.94671e-05
5.42912e-07
1.30903e-07
4.93496e-07
1.3595e-07
2.14606e-05
0.0153489
1.6091e-07
1.22989e-07
1.1468e-07
2.61244e-07
0.0103087
1.02961e-05
4.5674e-07
2.68455e-07
2.5521e-07
2.33785e-07
1.82987e-07
0.0333945
3.00973e-05
2.16801e-07
3.51944e-07
6.06097e-05
7.18958e-08
0.008318
9.8626e-08
1.10514e-08
1.55584e-06
1.17523e-07
2.17011e-07
3.60449e-06
6.90611e-08
5.30505e-07
0.0590357
1.95091e-07
0.0787346
3.22944e-07
1.471e-07
0.0112346
1.37543e-07
3.57838e-07
9.50385e-06
1.19202e-07
0.0121645
0.00011442
0.0108173
0.0105342
1.64749e-07
1.66681e-07
6.48012e-08
2.0182e-07
2.01954e-07
1.62996e-07
9.8744e-08
4.02942e-06
2.3754e-07
4.24456e-08
9.28136e-08
7.01657e-05
1.50346e-07
2.17775e-07
9.62632e-06
5.84585e-07
5.99208e-06
6.68328e-07
2.68866e-07
4.40016e-07
0.00646512
6.7217e-08
1.05296e-07
0.0344404
9.99781e-07
0.065884
8.70562e-08
7.95873e-07
2.08146e-07
8.85538e-08
1.42172e-06
8.84386e-08
2.14482e-07
0.0744288
3.48831e-07
9.54025e-08
2.95472e-07
5.24152e-07
0.000185501
0.00219548
1.63043e-07
4.75876e-07
0.0117172
3.96713e-07
9.57932e-06
0.0518542
5.77355e-07
5.9291e-08
2.24045e-05
2.10421e-06
2.22345e-05
9.33801e-08
1.66682e-06
2.85827e-07
0.000262945
1.13477e-05
0.0446944
4.14805e-05
8.74785e-08
3.69588e-07
8.89481e-08
1.68319e-07
0.00028798
1.22651e-07
1.86424e-05
2.63321e-08
6.67054e-08
2.34844e-06
1.35714e-07
0.0768639
1.28238e-07
6.83513e-06
0.000787272
2.47065e-05
0.00025605
1.39586e-07
0.0569449
0.0721606
1.3448e-07
1.31683e-07
2.70137e-07
2.38829e-05
1.02172e-07
5.87142e-06
0.00146586
0.0652468
1.55735e-05
3.78999e-08
2.49526e-07
6.47649e-06
1.24964e-07
4.15229e-08
1.19835e-06
5.52387e-08
2.8926e-07
3.56647e-06
0.0123562
3.39167e-07
6.23493e-08
9.47917e-08
7.66192e-05
1.00695e-05
5.49433e-07
9.6499e-08
1.23501e-07
1.32219e-05
3.58362e-07
0.0174833
3.06251e-07
3.79221e-07
6.1041e-08
2.41815e-07
2.12317e-07
0.0577665
7.89293e-08
0.0518972
3.78698e-07
9.82613e-07
4.00581e-07
2.47266e-05
0.0801839
0.0312702
5.21832e-08
6.6753e-07
8.04849e-06
3.29789e-08
6.21306e-08
1.81692e-07
1.0165e-05
0.0606925
2.09606e-07
1.85409e-07
2.15579e-05
9.51008e-08
0.0124736
8.32835e-08
2.81938e-05
3.58652e-07
1.82362e-07
0.000130623
0.0172431
3.97061e-06
4.63275e-05
2.91213e-08
5.93002e-08
1.86372e-06
3.80331e-07
4.90385e-06
8.7917e-08
0.000358973
1.1413e-07
7.33943e-08
3.04981e-07
3.08943e-07
9.04209e-08
8.74501e-08
1.58203e-07
1.1926e-07
7.31955e-06
0.0280121
0.0438381
1.56414e-07
6.45195e-08
0.0138226
0.0220957
3.0923e-08
2.14524e-07
3.29404e-07
4.20883e-07
4.35185e-08
4.40881e-06
7.16977e-08
0.0100604
1.69605e-07
0.000868025
9.61619e-06
1.09236e-05
2.55524e-07
1.65377e-07
3.29095e-08
5.57124e-08
9.46073e-08
7.31108e-07
2.0362e-07
2.1231e-07
9.85907e-08
0.030566
2.66054e-06
1.70585e-07
3.22e-07
0.000253523
2.27214e-07
5.12435e-07
0.000650287
7.83266e-05
1.18735e-07
3.95231e-07
4.88401e-07
1.55265e-07
0.0247991
4.12124e-05
1.65806e-05
0.000765993
0.0183711
0.0336967
6.84029e-08
1.3047e-06
9.35036e-06
2.7096e-07
0.000119896
0.000588213
0.000105005
4.14855e-05
1.17313e-06
1.41982e-07
4.61503e-07
4.63728e-05
9.10038e-08
3.15653e-07
7.06151e-07
1.06634e-07
6.54884e-08
1.40759e-06
5.72837e-07
0.00823111
8.20916e-08
3.7141e-08
0.0245866
0.0712073
1.48978e-05
1.01618e-07
0.00943973
1.17106e-07
3.44666e-07
1.95026e-07
1.99863e-07
8.92202e-06
2.52884e-06
0.0266881
1.07024e-07
9.01515e-08
7.47877e-07
3.98655e-06
0.0330175
2.27371e-07
3.38499e-06
8.78694e-06
0.0551081
0.0088017
1.1094e-07
1.41803e-07
1.2201e-06
1.03935e-07
3.52021e-07
4.45711e-07
5.05396e-06
8.53238e-08
2.51094e-07
2.16295e-07
7.73374e-08
2.38353e-05
6.20787e-06
1.37751e-07
9.90926e-08
0.000150577
6.84753e-08
9.96058e-08
3.13967e-07
3.13966e-07
1.21061e-07
1.2057e-07
9.55009e-07
2.61325e-07
1.32515e-07
3.80261e-05
9.86352e-08
6.22585e-08
8.807e-08
3.83058e-07
4.1878e-06
1.36376e-06
1.12438e-07
0.016493
1.42208e-07
0.0406599
1.24164e-05
0.00265781
2.3807e-07
0.00622714
7.44649e-08
1.30119e-07
9.28943e-05
7.0376e-08
1.70921e-06
9.02649e-08
1.74768e-06
0.0587629
6.73084e-08
6.27528e-06
0.00973771
1.13274e-07
4.69156e-08
5.11072e-07
8.36317e-08
2.13504e-05
8.53736e-08
2.20929e-05
1.32482e-07
2.20581e-08
2.72485e-08
0.0363798
3.51448e-07
1.61601e-07
3.23457e-07
1.86696e-07
3.0353e-05
2.03163e-07
0.0133635
2.41885e-07
6.93081e-08
4.08741e-07
0.00963241
7.566e-08
1.19764e-07
1.31776e-07
0.00117359
0.00021651
0.0398379
2.16218e-07
1.05884e-07
1.79733e-07
4.66369e-06
1.2205e-05
0.000134957
8.27708e-05
7.1943e-08
3.12783e-07
0.0135218
6.20961e-08
5.33827e-08
7.98397e-08
2.53199e-07
1.6334e-07
1.40341e-07
8.09227e-08
5.01022e-07
4.52612e-08
5.42359e-05
1.56029e-07
2.18504e-07
3.62985e-08
3.74014e-08
2.96571e-07
3.82844e-07
1.26429e-07
2.46988e-08
2.93924e-07
4.62454e-07
2.76162e-07
7.09492e-08
1.16541e-07
5.1329e-08
1.45631e-07
4.08402e-08
1.04857e-06
0.00134989
0.00248928
7.55727e-08
4.46468e-08
1.95658e-07
1.67825e-07
1.15882e-06
0.0208398
1.11069e-07
8.01363e-08
5.14174e-07
5.41846e-08
0.000134556
1.65836e-07
0.0526188
6.90937e-08
8.04327e-08
0.0497208
1.87092e-05
5.80255e-08
5.09512e-08
1.60316e-07
2.54918e-06
0.026552
0.00015444
6.89873e-08
2.74867e-07
1.19002e-07
1.96391e-07
2.49892e-07
1.56794e-05
6.17623e-05
1.27699e-07
8.7928e-08
8.6402e-06
6.51605e-07
8.89016e-07
1.83337e-07
1.78203e-07
5.72631e-08
6.86212e-07
8.71205e-08
0.00711951
3.51058e-06
4.56224e-08
6.52453e-08
1.68293e-05
2.21279e-05
3.86494e-07
4.49773e-07
0.00988989
2.33205e-07
1.4593e-07
0.0136235
7.25464e-08
0.0162348
1.10982e-05
0.00787189
0.000142409
8.42267e-08
1.98767e-07
2.74918e-07
0.0147774
1.02295e-07
0.000304348
0.037604
3.55717e-05
1.01965e-07
1.07039e-07
7.4646e-07
0.105853
0.0373674
1.6655e-07
0.0532495
1.74521e-07
3.79835e-05
3.97814e-07
1.95418e-06
0.000133991
1.38488e-07
1.82853e-07
4.44381e-07
3.68305e-07
3.83933e-07
0.0096392
1.10557e-07
4.13562e-07
2.06366e-07
2.44184e-07
6.45493e-08
0.0453804
6.38718e-07
2.95092e-07
6.06217e-05
2.55163e-08
4.87268e-07
0.0467155
1.63688e-07
0.0429636
0.0756116
0.00013335
2.53358e-06
5.9713e-07
3.56655e-07
5.49389e-06
6.74452e-05
0.000189976
8.78516e-06
1.0117e-06
0.00972462
1.12592e-06
4.46122e-08
1.67888e-07
6.09068e-06
0.000131972
0.000109056
0.00019338
3.98902e-05
6.52924e-08
1.64778e-05
7.43059e-07
1.19828e-07
0.000392012
0.073864
1.68598e-07
7.14741e-08
0.00075484
0.000664719
8.49653e-08
9.86019e-05
2.05905e-07
1.8023e-08
2.89524e-07
8.10957e-06
2.73406e-07
2.72364e-07
1.83676e-06
0.0110571
1.58318e-07
6.94148e-07
0.00108836
0.0263503
1.30642e-07
3.9689e-07
0.00689912
1.61975e-07
1.07734e-05
2.03513e-08
1.67289e-07
0.000144898
0.0275894
1.97928e-07
7.20387e-08
3.85009e-07
0.00762429
6.31187e-08
0.00490873
2.09339e-07
1.57511e-05
3.80749e-08
0.000340095
2.0411e-07
1.22665e-07
0.000222877
9.22896e-08
0.000252062
8.50652e-07
0.0605223
6.24931e-07
0.000855422
0.0114753
8.59068e-06
5.89589e-05
0.000167204
3.73913e-07
0.00031414
1.15396e-06
1.98923e-07
3.9645e-07
3.14319e-05
1.61067e-07
8.20225e-07
1.69001e-06
3.86159e-05
1.18074e-07
4.46442e-07
3.99977e-07
1.4217e-06
0.0183981
4.26714e-08
3.39976e-07
0.013023
3.14226e-05
1.75215e-05
1.59927e-07
6.93036e-08
3.19898e-07
2.75458e-07
2.54251e-06
5.20041e-08
1.81292e-07
1.32627e-07
5.78099e-06
9.66135e-06
5.35276e-06
3.25301e-07
1.68304e-06
0.00578073
1.05127e-07
4.15281e-07
3.83212e-05
8.92024e-08
1.50929e-07
1.73373e-07
2.04857e-07
1.45186e-05
6.38073e-06
1.48883e-07
0.000183325
2.54046e-07
5.13651e-08
9.78194e-05
2.26986e-05
1.39655e-05
2.51955e-05
1.69547e-07
5.39652e-07
1.16697e-07
0.0268084
5.76713e-06
1.61473e-05
2.14099e-07
3.00986e-08
1.08802e-07
0.0481346
0.0158239
6.76582e-06
1.17129e-07
4.55562e-05
1.71411e-07
0.0361788
3.5292e-07
3.77985e-07
1.7223e-07
6.20277e-07
5.18256e-07
8.90474e-06
5.74128e-07
2.40802e-05
0.0699095
5.22537e-07
1.84935e-05
1.0974e-05
1.90285e-05
1.88285e-05
1.29474e-07
3.9349e-07
2.64053e-07
1.16729e-07
0.0555743
2.19681e-07
0.000125643
1.75436e-06
5.80425e-07
0.108455
5.64539e-07
6.88611e-07
0.00261988
1.66114e-07
3.26531e-07
0.0860924
7.43678e-08
0.0284148
0.0010294
7.58818e-06
1.14768e-06
8.93508e-07
0.000216195
6.97107e-07
2.87069e-07
3.13572e-07
1.45966e-07
2.40756e-07
1.42466e-06
2.02771e-05
5.347e-07
0.0149611
7.27496e-08
4.90372e-07
2.484e-06
0.00615737
9.97655e-05
3.38402e-07
3.28291e-06
0.000132027
2.06158e-07
6.04461e-08
9.31157e-06
4.72326e-07
2.64983e-08
0.0412014
1.01744e-07
2.30266e-06
6.46119e-07
0.00993678
2.16349e-06
5.90123e-07
7.27182e-08
1.70505e-06
5.44984e-07
8.60458e-08
0.0363979
2.72801e-07
3.56459e-08
1.04434e-05
4.61885e-07
1.18349e-07
1.11038e-06
1.02272e-05
0.000185887
2.31904e-07
3.34422e-07
1.5988e-07
2.47447e-07
1.33347e-05
0.00812824
3.57204e-06
0.000201078
1.61278e-05
0.00024284
1.20013e-05
4.32457e-07
3.99149e-07
3.66951e-07
7.75361e-08
5.07771e-08
4.94862e-08
0.0104134
1.1111e-05
0.0102109
1.23313e-07
1.01099e-07
2.60449e-07
1.28688e-05
8.33577e-06
1.97668e-08
4.56292e-06
0.000111087
3.5443e-08
6.25472e-08
0.00165365
0.00139314
1.11821e-07
1.90163e-06
5.33447e-07
0.000209876
7.10144e-06
5.10475e-08
1.25016e-07
6.6098e-08
5.03164e-05
1.65211e-07
0.000220185
2.09328e-07
0.0100838
4.95728e-05
4.13901e-07
1.10038e-07
1.79197e-05
4.26845e-07
0.0141034
0.060009
1.38132e-05
2.42331e-05
2.37208e-06
1.38592e-07
1.91263e-07
9.10476e-07
1.82214e-05
5.85496e-07
0.00748908
0.0140509
6.7322e-08
9.11192e-07
7.82618e-05
0.00906445
7.07312e-06
0.000275717
0.000587496
0.00932321
0.0366717
0.0109404
3.52302e-06
1.25887e-07
0.000474808
2.91367e-07
4.05935e-08
2.2938e-07
3.54309e-07
7.18731e-08
2.89784e-07
9.94776e-08
1.87741e-05
3.3464e-07
7.38658e-08
5.15176e-07
1.40045e-07
0.0126802
3.02489e-06
2.17255e-06
0.0164039
0.0623173
5.34245e-07
0.044723
2.76545e-05
0.0840013
9.43747e-08
8.69426e-08
1.09039e-07
9.53343e-08
0.0630527
2.85105e-07
0.000123717
1.7967e-07
1.52949e-07
4.3612e-06
2.09297e-07
2.72372e-07
1.06761e-07
0.016792
6.53238e-08
3.1336e-07
4.90799e-08
6.62132e-07
2.30446e-09
4.18643e-05
6.16042e-06
2.59234e-07
9.62779e-05
1.3646e-06
1.45219e-07
2.07081e-05
2.13879e-07
1.24296e-07
1.30286e-07
2.17711e-07
0.0653804
0.00951093
3.1829e-05
5.02376e-06
3.7301e-07
8.24182e-08
0.0420592
1.90721e-07
5.25534e-08
8.12549e-07
6.56807e-08
3.38694e-08
0.0076466
1.2967e-07
1.15697e-07
3.49868e-07
1.19592e-06
2.18514e-07
0.0387318
9.75183e-08
0.0102939
4.01295e-08
9.94662e-07
4.40066e-08
7.49225e-08
2.9323e-07
1.33221e-07
6.95377e-07
1.02361e-06
4.37996e-08
3.86575e-08
9.67764e-08
0.017483
9.13207e-08
3.5634e-08
1.06651e-07
3.29855e-06
2.16787e-07
0.0104179
7.37516e-07
1.24552e-07
2.34719e-07
3.68787e-07
1.35796e-07
4.16058e-07
1.57876e-07
1.25181e-07
2.24096e-07
2.27934e-07
2.8516e-07
9.80736e-08
3.44806e-07
6.67231e-08
1.03777e-07
2.68803e-08
0.000126829
0.0639956
9.482e-06
8.53338e-07
4.72374e-06
9.34367e-05
3.27863e-05
1.90333e-07
2.14854e-05
0.0173748
7.7698e-08
1.19316e-05
0.000200728
0.0146652
4.30584e-07
2.98614e-07
4.26633e-05
3.93476e-07
0.00904059
2.32227e-07
2.39414e-07
2.68669e-07
2.47059e-07
0.0550405
2.91155e-08
7.63765e-08
7.46254e-08
1.52593e-07
0.0847678
0.0124096
6.39295e-07
1.25218e-07
6.8676e-08
5.13956e-08
1.62155e-07
2.35521e-07
8.16009e-08
1.03621e-07
7.04418e-08
4.91005e-08
1.12105e-07
0.0134776
0.00811178
1.58503e-07
3.07859e-06
1.12225e-07
3.87861e-08
3.85334e-07
0.00790383
0.019557
6.45449e-07
1.07277e-07
4.16197e-08
1.8043e-07
4.91653e-07
1.38796e-06
1.33183e-07
6.79828e-05
2.48875e-07
1.23154e-06
9.86328e-07
5.10456e-05
9.74894e-07
0.000185258
6.06701e-07
3.14806e-08
0.000115565
0.00010528
7.09238e-08
1.08277e-07
2.14591e-07
1.0027e-07
1.06803e-07
4.09707e-07
3.14845e-06
2.95124e-07
0.0718649
4.92788e-07
1.02558e-06
0.0135854
2.2845e-07
4.25745e-08
2.41352e-07
1.26547e-07
2.31882e-07
2.80866e-07
4.74051e-07
4.5314e-07
1.51604e-06
1.37644e-07
1.80791e-07
2.95281e-07
3.04845e-07
3.92399e-08
1.21921e-07
3.86512e-08
0.000452742
1.89402e-07
4.14637e-07
9.94412e-08
6.82684e-08
5.29883e-08
6.48531e-07
2.99034e-06
2.14638e-07
3.70324e-07
1.72842e-07
1.79725e-07
1.50771e-07
1.21304e-05
3.32884e-07
0.0656174
2.34031e-07
2.85364e-06
2.93491e-07
1.06436e-06
8.39639e-08
2.56891e-07
0.0509718
2.3311e-07
1.33232e-07
7.27485e-07
0.0517554
2.50175e-07
2.23632e-07
1.3242e-07
3.41482e-07
1.12737e-06
5.60968e-08
9.13285e-05
2.01951e-07
2.89552e-08
1.22268e-06
5.4349e-08
8.90005e-05
7.0034e-05
0.0595046
2.05472e-06
5.70006e-07
1.02131e-06
1.15689e-07
2.61483e-06
2.49561e-07
0.000643042
0.000407325
1.07898e-05
9.3976e-05
0.0144371
2.94159e-06
0.0565287
9.20291e-08
5.00282e-07
6.07986e-07
8.22212e-08
2.85624e-07
8.79234e-07
7.7802e-08
2.06176e-07
1.91867e-06
2.02184e-07
8.02557e-08
3.46171e-08
9.2693e-05
7.80837e-09
0.0148481
7.55634e-05
1.15528e-06
0.000120952
9.00814e-08
1.77645e-07
3.80742e-08
4.42322e-07
5.63556e-06
1.05658e-06
5.80131e-05
6.81065e-08
1.22289e-07
0.000767657
1.33152e-07
1.10227e-07
3.64958e-05
3.09017e-07
3.7092e-07
9.07373e-08
0.0334605
2.75202e-05
1.30665e-07
3.34038e-07
0.0226186
4.79576e-05
6.68803e-08
1.21193e-07
9.71121e-08
2.8852e-07
4.4041e-08
7.66012e-07
0.0421241
5.11962e-07
4.95812e-08
6.19533e-05
5.52016e-08
5.51084e-08
9.44084e-08
1.65792e-05
1.47872e-07
2.25619e-05
0.0384695
5.22147e-08
1.08402e-07
6.33297e-08
1.88313e-07
1.72132e-07
3.56071e-07
0.000103644
0.000164721
1.76522e-05
0.000213703
2.95007e-07
1.36338e-05
3.69455e-07
3.20407e-08
4.93441e-08
2.60892e-07
0.0245251
4.42699e-05
7.12073e-08
0.000382716
4.6706e-08
5.42694e-06
9.3983e-05
2.31253e-07
4.96745e-07
4.93816e-07
1.13603e-07
9.98585e-06
1.71657e-07
2.51587e-05
2.00992e-07
3.91368e-07
0.0144388
2.18284e-08
5.79255e-08
1.09178e-07
7.01763e-05
6.81515e-08
3.06181e-06
5.91384e-07
8.77672e-08
3.75959e-06
0.000149367
0.0347278
7.87913e-06
9.45156e-08
8.41853e-08
0.0337361
0.057819
1.47707e-07
0.0126173
2.1482e-07
7.05041e-08
1.52616e-06
9.7556e-08
8.24757e-08
1.37407e-07
5.28422e-06
0.0250724
0.0828159
0.0910826
4.48095e-07
3.11653e-07
3.62946e-07
2.44258e-06
0.0873711
4.2815e-05
0.0477349
4.6911e-07
0.0501462
4.49018e-07
2.30094e-07
6.122e-07
1.11042e-07
1.70463e-07
0.0382755
0.0298378
3.04633e-07
1.70761e-07
1.49948e-07
3.47316e-07
1.5323e-07
2.14934e-06
9.24553e-08
6.89957e-07
8.0501e-05
1.9317e-06
6.25687e-08
1.83476e-06
2.20881e-06
2.17332e-07
1.7685e-07
2.59162e-07
2.32909e-08
7.30644e-08
0.000825135
3.47383e-07
5.46836e-07
6.42869e-08
2.53326e-07
5.87058e-08
1.41415e-05
3.89953e-08
5.42014e-08
9.60385e-07
1.28841e-06
1.30894e-05
1.6071e-07
7.94462e-08
0.0423963
9.32112e-05
0.0827182
0.000190201
2.77728e-07
4.00112e-07
0.0145056
1.11301e-07
7.49811e-09
1.95644e-07
1.0561e-07
4.92548e-06
2.97713e-07
1.31229e-07
4.19004e-07
3.19821e-07
1.86429e-07
1.85836e-07
1.63255e-07
4.23758e-06
0.0166697
1.16987e-07
9.25808e-08
6.65541e-08
2.67613e-07
9.49895e-07
5.89842e-05
1.21483e-07
4.30471e-08
0.00116279
1.64071e-07
0.0105582
3.18259e-05
4.04134e-08
1.21513e-06
0.0136158
1.99789e-05
4.29334e-07
0.00172901
1.62794e-07
2.48112e-07
5.09522e-06
9.6223e-08
5.74645e-07
5.2861e-07
1.00256e-07
1.25756e-05
2.06989e-05
9.50667e-08
1.5625e-07
0.0246342
3.75391e-07
9.24307e-08
0.000133436
2.10077e-07
0.045526
3.44309e-06
2.96718e-06
2.53336e-07
4.70401e-05
2.14626e-07
0.00025017
1.36316e-07
4.24001e-07
0.0505366
2.60852e-05
7.29704e-05
3.86189e-07
0.0100626
3.55314e-07
0.0111829
0.0371933
3.15875e-05
2.27462e-06
8.57141e-06
2.87692e-08
3.88994e-06
6.54652e-06
7.79786e-05
3.4657e-06
8.86152e-08
4.54471e-06
0.000102807
8.09114e-05
0.000119361
2.93749e-05
5.4684e-06
2.34734e-07
0.000202489
3.14392e-06
3.97513e-07
5.86557e-05
4.26342e-05
2.54485e-06
1.27252e-06
5.97901e-05
1.04968e-06
2.11871e-05
2.42526e-08
5.74201e-06
0.00120649
1.34105e-06
9.71511e-05
0.0169625
3.10033e-07
3.99251e-07
1.34804e-05
2.29196e-07
2.06939e-05
2.14662e-07
7.72071e-05
4.40543e-08
5.90006e-08
1.8486e-07
8.69091e-08
3.53971e-06
0.000248497
0.0001604
0.0850994
1.70076e-06
5.84613e-07
5.87687e-07
8.57651e-05
3.00234e-07
0.00707793
0.0178166
4.39722e-07
0.000181059
6.25473e-07
2.52196e-07
2.50279e-07
0.000269408
1.3292e-07
0.0108051
1.11342e-06
0.0632956
2.61221e-07
6.31507e-08
1.48125e-07
6.87299e-06
0.00934247
4.19112e-07
6.2491e-08
5.28012e-07
0.0539805
0.0091329
6.11902e-08
1.99247e-07
8.26938e-08
0.000102426
4.80507e-08
0.00944245
6.00194e-07
2.67538e-07
2.50244e-07
1.83063e-07
2.62263e-07
4.17611e-07
9.56557e-07
1.18122e-06
1.98206e-06
3.92489e-07
1.08287e-06
4.45553e-07
5.76766e-08
3.36151e-07
0.0171492
2.50603e-07
5.82772e-07
2.33491e-07
1.32573e-07
1.35695e-07
8.78163e-06
0.0140534
1.57985e-07
0.0555664
3.70343e-07
6.72305e-08
0.0094338
3.4976e-05
3.6364e-08
1.21025e-07
0.00708068
1.35722e-07
2.20273e-07
1.18168e-07
1.58303e-07
6.43423e-07
9.33133e-07
3.71878e-07
0.027191
1.29207e-07
7.19452e-08
4.11817e-07
2.81903e-07
3.23466e-07
2.70379e-07
7.42479e-07
0.0594117
1.56999e-05
9.5179e-06
1.26912e-05
1.41994e-05
1.81461e-07
4.79928e-08
0.0134201
2.17394e-07
1.63464e-07
4.20659e-06
2.47007e-07
1.13469e-07
8.8656e-07
1.43411e-07
1.16097e-07
0.00140828
1.70743e-07
1.52538e-07
1.03152e-06
9.83348e-08
7.91289e-08
0.0127234
0.000294308
0.000273749
2.4721e-07
1.42171e-07
2.38042e-08
6.63991e-08
0.0667305
1.02734e-07
2.27343e-07
1.75958e-05
1.23919e-07
6.36824e-07
6.86913e-08
7.91084e-07
4.4994e-08
2.8352e-07
1.96089e-07
1.27996e-07
6.66004e-08
1.06472e-08
1.28722e-07
1.7121e-07
0.0691284
0.000124323
3.04963e-07
0.000423788
7.75888e-08
3.60525e-08
2.01752e-07
0.0138192
4.91446e-08
3.66691e-08
6.20468e-06
5.53404e-08
1.06219e-07
0.104764
1.02568e-07
2.34979e-07
1.82127e-07
6.20006e-08
0.0256625
1.03629e-07
1.44645e-07
9.71198e-06
3.37539e-07
1.40112e-07
4.78475e-07
1.82432e-08
4.49534e-08
6.89092e-08
6.21524e-07
4.15118e-05
4.5207e-05
2.1396e-07
0.0366257
5.42675e-07
8.33422e-05
5.31229e-07
4.3809e-06
0.0142803
0.00699192
4.61683e-06
8.7301e-08
0.0230833
1.10087e-07
7.76709e-06
0.0100645
2.6651e-07
1.23494e-07
0.0388166
0.0043913
5.67e-06
9.10739e-08
0.00513831
1.27886e-07
0.000332277
1.45345e-07
2.75128e-06
8.17995e-05
4.51916e-08
0.00598327
7.41726e-07
1.06752e-05
0.0468785
4.66489e-08
7.62696e-08
1.0082e-07
7.89762e-06
7.0324e-05
4.56145e-08
2.03925e-07
1.3392e-07
9.1275e-08
2.03758e-06
9.03661e-08
0.00591024
0.0111064
1.29207e-07
0.0103388
0.000116608
3.58933e-05
5.72468e-08
5.74294e-08
0.00369123
3.91247e-07
3.78435e-05
1.07177e-07
2.5636e-07
4.80337e-08
0.0938181
1.35142e-07
0.0348732
1.71179e-07
6.94931e-08
0.0118916
1.53619e-07
2.21454e-05
0.00539689
0.00047494
1.12841e-07
4.57606e-08
3.26176e-07
3.19472e-07
1.14865e-07
0.00903488
6.63332e-08
5.35828e-06
0.0490412
0.0508977
3.05909e-06
8.16977e-07
0.0226862
0.0130748
0.0501136
4.20354e-07
1.82146e-07
2.14092e-07
0.000227029
5.17553e-05
5.26499e-07
0.000276096
2.43709e-07
2.50879e-07
1.60529e-07
3.49072e-06
4.78657e-07
0.014218
0.0491358
1.13178e-07
0.000187626
1.64841e-07
5.78598e-08
7.61852e-07
2.07356e-05
8.38561e-06
0.000106104
5.40907e-06
5.01643e-07
0.000258254
2.03102e-08
4.55224e-06
0.0137074
9.68977e-08
0.0439138
5.09522e-07
1.44276e-06
1.05853e-07
3.59753e-06
0.0384257
1.40415e-06
5.07498e-08
1.75972e-07
8.53828e-08
8.14315e-05
0.0557835
0.00939973
1.16823e-07
0.0374184
7.22947e-08
3.26675e-07
4.75666e-07
6.05108e-08
4.18913e-06
2.37656e-05
9.48035e-07
0.00104413
2.2129e-07
1.55805e-06
0.0123143
0.0119071
6.63812e-07
2.9379e-07
1.66206e-07
1.32126e-07
6.53918e-08
2.42218e-07
4.86451e-05
2.27977e-07
2.01287e-08
5.75929e-08
0.00518621
8.04867e-06
2.16769e-07
0.00952505
2.35963e-08
0.0816383
3.88105e-07
9.61037e-08
9.84459e-08
0.0261797
0.0126129
6.43908e-08
1.7293e-07
0.0228082
0.000186157
7.49413e-06
7.31055e-09
3.41319e-05
1.27325e-06
0.00138323
3.26286e-07
0.0812522
8.11915e-06
7.8864e-06
9.46404e-08
0.0111189
8.55577e-08
2.14479e-05
1.02306e-06
8.31572e-07
8.13453e-05
1.30208e-07
5.56381e-06
0.00987416
4.14619e-08
1.48032e-07
2.05748e-05
3.16683e-07
0.00862694
0.0417097
7.18772e-08
9.97365e-08
0.000975962
3.65948e-07
5.01588e-08
1.41465e-07
1.05263e-06
1.06263e-07
0.000182708
9.864e-08
2.48811e-06
4.45346e-08
1.69684e-05
3.00875e-07
1.51801e-06
8.35576e-08
3.41687e-05
1.02249e-07
1.40103e-07
3.82226e-07
2.13029e-06
2.8552e-05
9.36729e-05
1.42671e-07
2.01013e-07
3.18644e-07
1.3088e-07
1.90204e-07
0.00540454
1.14075e-07
1.27356e-05
2.16106e-07
4.57676e-05
1.4817e-05
1.37045e-07
3.18355e-07
1.54028e-05
8.46284e-08
1.84209e-07
1.98817e-06
0.00010427
9.17868e-06
2.6977e-07
0.0135016
5.74017e-08
0.0494487
1.01019e-07
0.0333032
2.32795e-06
0.000174248
0.000231252
0.000166987
7.45676e-08
0.000142435
0.000169162
0.000317831
0.000168089
7.24856e-08
2.43802e-07
2.00688e-07
1.06353e-07
1.64289e-05
8.59064e-05
0.00898431
9.93802e-08
6.35964e-06
1.50276e-06
3.08731e-05
4.43671e-07
0.013091
3.32033e-07
3.19193e-05
0.00617219
1.03311e-07
0.0296354
3.15437e-05
1.63567e-07
2.01381e-05
4.54566e-08
2.19885e-07
6.14292e-07
2.88319e-07
7.82143e-08
1.42824e-07
0.000450583
8.68691e-08
0.0484364
0.000379661
1.02357e-07
2.24833e-06
0.000700888
1.32322e-08
2.11276e-07
1.41937e-05
1.57097e-07
5.57275e-07
0.0598383
4.08486e-08
3.34256e-07
1.53194e-07
0.0289317
0.0286109
3.39554e-07
5.72562e-08
1.46032e-06
0.0129568
0.0408911
5.85252e-08
5.59597e-08
3.17272e-06
3.83059e-07
0.062051
2.21307e-07
1.05369e-06
0.000919982
1.28076e-07
1.36031e-06
4.22045e-07
5.40505e-07
1.0104e-05
0.000581015
0.000945482
1.59164e-07
2.06318e-07
1.95079e-07
5.57148e-06
2.60976e-07
0.0100615
2.30895e-07
1.37149e-05
4.04395e-07
4.60471e-06
7.17831e-08
8.74593e-08
1.13903e-07
3.95462e-06
5.1324e-05
4.86042e-08
5.5484e-07
0.0101837
3.34533e-07
1.29628e-06
1.62528e-06
6.47371e-07
0.0482312
2.44214e-07
2.62341e-07
3.88057e-07
1.26284e-07
0.0142598
6.32511e-06
3.03426e-07
6.62364e-08
3.8788e-07
0.0265656
6.24784e-08
1.28478e-06
1.14294e-06
3.01283e-06
9.89831e-08
0.0519138
3.85777e-06
2.01907e-08
1.57778e-06
0.00013063
4.15003e-07
6.20174e-08
9.24056e-08
5.41499e-07
6.05913e-08
7.98009e-08
7.06619e-08
9.1696e-07
2.18865e-06
4.99243e-07
1.78502e-07
0.0115646
1.26557e-07
7.05661e-08
3.70704e-07
0.0142541
6.61281e-07
3.86234e-07
0.0010811
1.54797e-07
1.45526e-06
5.03018e-07
1.65726e-06
4.67859e-08
1.09209e-07
1.15439e-07
4.24268e-07
2.18492e-07
1.37059e-07
0.0830858
2.47082e-07
2.20913e-06
2.54775e-07
1.03883e-07
3.17428e-06
3.83997e-07
2.03243e-07
6.93264e-08
3.11193e-07
0.000449372
6.86047e-07
1.49531e-07
5.44807e-05
3.95358e-06
4.4538e-08
5.10907e-06
3.85916e-08
5.53108e-07
8.03633e-05
4.94151e-08
1.45285e-07
0.0169766
8.42802e-07
0.0139713
1.52126e-07
3.60257e-08
3.09136e-06
1.99482e-07
0.00989878
2.34862e-07
0.0126519
0.0154729
1.24521e-05
7.99258e-08
0.0101593
3.12295e-06
3.81643e-07
2.81784e-07
0.0301654
0.0350015
0.0106958
3.24814e-08
2.07674e-07
1.41047e-07
1.00136e-06
5.37928e-07
1.06245e-07
3.73668e-05
2.53478e-07
1.198e-07
1.08788e-07
4.487e-07
7.13804e-05
2.56171e-08
9.68001e-08
2.35963e-07
5.76347e-07
7.56022e-08
9.85604e-07
1.39155e-06
8.60147e-08
2.38803e-07
1.60783e-07
1.77381e-07
2.37692e-07
4.89394e-06
2.59609e-06
1.45289e-06
2.43831e-05
0.000107735
0.0143749
1.8304e-07
1.04685e-07
7.90554e-08
5.23748e-08
1.15006e-06
4.70917e-08
4.30481e-05
0.0936418
0.01924
7.69509e-08
1.1644e-07
1.35267e-07
0.0117404
0.0312622
4.29744e-07
5.80636e-05
2.00555e-07
1.2456e-07
7.0055e-07
1.67539e-07
5.06893e-08
1.29287e-07
0.0869063
2.61568e-07
4.65653e-08
1.12147e-07
0.0408022
0.0128624
2.11428e-06
0.000531406
7.74521e-08
0.00984679
1.49219e-07
4.36338e-08
5.03461e-07
0.000130827
3.87768e-07
4.85298e-07
0.00444103
4.36577e-06
0.000241755
0.034296
0.0162829
2.6254e-05
0.0163142
3.91918e-07
3.29951e-07
1.14876e-06
0.0258529
2.60588e-07
3.78884e-07
2.61947e-07
4.6206e-07
6.18149e-05
1.91215e-07
7.6852e-06
3.6617e-07
5.18163e-08
3.05174e-07
1.6518e-07
1.76459e-07
1.82856e-07
2.24864e-07
4.29575e-07
2.31742e-07
8.44009e-08
4.48415e-08
0.0158894
0.00939943
3.05437e-07
0.0177956
0.00187308
1.28883e-07
4.78775e-06
6.14009e-08
1.68006e-07
0.00821548
7.03015e-08
0.0162203
0.000142359
2.59403e-08
0.000229102
1.28785e-07
0.0290792
2.50197e-07
0.00870808
0.0123403
6.75924e-08
0.01061
8.5736e-07
0.000156431
5.01334e-08
1.6708e-07
1.71211e-07
2.76027e-07
0.0465134
0.00962077
2.38571e-05
3.18923e-07
0.010926
0.000153414
0.0205229
1.86532e-06
0.0321067
0.000311485
1.15369e-07
5.16368e-08
1.47769e-07
0.0113849
0.000202027
5.63004e-07
4.15455e-05
0.0322422
0.0182202
8.64469e-06
0.0182943
0.000176467
0.0108202
9.53388e-06
0.0164691
8.10227e-05
2.70913e-07
5.78057e-07
9.9213e-08
0.000108362
0.000210712
0.00182475
2.83094e-07
2.12974e-07
1.23014e-07
1.19956e-06
2.05265e-06
6.85614e-07
5.46978e-05
8.25886e-05
2.33694e-06
1.23778e-06
2.37752e-08
3.63989e-07
4.59154e-08
1.54602e-06
3.98486e-08
2.8001e-07
6.8588e-08
1.99651e-06
1.09616e-05
0.0515894
3.84015e-07
2.57522e-07
3.87535e-07
1.8585e-07
0.000296686
0.000442316
2.34315e-05
4.6634e-07
6.07861e-08
3.32989e-07
0.0275565
7.51573e-06
2.12125e-06
8.89739e-08
3.22156e-07
1.10062e-06
5.72612e-05
2.5914e-05
0.0400746
0.0174129
7.72111e-08
0.000193886
7.53772e-05
2.71706e-07
1.58083e-07
3.01247e-06
9.03917e-08
2.75148e-07
8.21731e-07
0.0146906
6.27954e-08
2.29399e-07
1.40194e-07
0.0102733
1.07888e-05
0.00839068
5.73396e-08
0.00111691
0.000218724
1.77186e-06
6.28132e-06
6.09227e-07
4.45581e-07
9.10055e-07
3.26543e-07
2.43005e-06
1.33812e-05
1.01229e-07
2.91883e-05
7.19524e-06
9.49644e-07
2.02994e-05
0.000551045
1.55375e-06
0.0236095
1.52745e-07
5.61626e-07
0.0605554
9.01557e-08
1.9258e-06
0.00157388
1.10648e-07
9.13066e-07
0.0531901
2.42523e-06
4.11653e-07
1.00245e-06
2.47137e-08
4.65408e-08
2.69489e-07
1.16228e-07
2.25997e-07
3.38502e-05
4.04042e-08
6.24797e-06
7.3074e-07
1.52453e-07
0.000234867
0.0303071
1.53327e-06
1.29803e-07
4.0934e-05
5.09948e-07
1.17228e-07
5.29634e-06
1.62247e-05
6.91756e-07
0.0090855
1.63756e-05
8.87286e-08
5.89256e-07
0.066795
0.0652365
3.66106e-07
9.87585e-08
9.26779e-05
0.00973233