/*--------------------------------*- C++ -*----------------------------------*\
  =========                 |
  \\      /  F ield         | OpenFOAM: The Open Source CFD Toolbox
   \\    /   O peration     | Website:  https://openfoam.org
    \\  /    A nd           | Version:  10
     \\/     M anipulation  |
\*---------------------------------------------------------------------------*/
FoamFile
{
    format      ascii;
    class       volScalarField;
    location    "2.5";
    object      SgT;
}
// * * * * * * * * * * * * * * * * * * * * * * * * * * * * * * * * * * * * * //

dimensions      [1 -1 -3 -1 0 0 0];

internalField   nonuniform List<scalar> 
111485
(
2.22851e-06
6.53878e-12
2.79217e-12
0.0680209
1.01854e-13
3.85811e-12
1.59373e-12
1.19989e-12
2.17476e-13
1.08729e-12
2.38403e-12
1.13172e-12
3.35558e-14
1.16018e-13
1.0319e-12
3.15269e-12
4.58461e-13
1.18696e-10
3.2779e-13
0.0198998
0.00100603
1.7503e-11
2.56252e-12
6.10563e-12
8.87991e-14
2.51048e-12
2.65207e-13
1.68171e-12
2.54254e-14
1.22891e-10
1.2117e-12
3.10913e-12
0.0790847
1.35066e-13
3.5383e-12
2.75384e-12
2.80617e-13
6.12639e-14
7.01214e-12
3.63564e-12
7.35358e-14
7.40514e-13
6.66341e-13
4.07138e-12
1.43121e-11
2.97844e-12
5.92047e-12
4.89291e-13
1.71004e-12
5.18019e-12
1.48623e-12
1.22264e-12
8.80227e-13
1.2861e-11
3.42063e-12
4.60761e-12
5.62482e-13
7.55099e-13
3.14394e-13
1.08113e-12
1.74155e-12
4.72794e-05
4.95421e-13
1.56657e-13
1.25683e-12
3.27263e-12
6.3917e-13
1.28242e-12
1.73089e-12
6.36431e-13
4.36333e-12
9.21528e-13
1.12128e-12
2.08674e-12
3.53459e-13
8.39301e-14
1.64778e-10
2.23214e-12
2.19265e-11
2.10304e-11
6.66113e-12
1.41194e-12
6.55276e-12
1.73834e-13
7.70371e-13
2.19683e-12
1.45194e-11
6.44759e-12
2.58556e-11
5.34126e-13
1.24958e-11
1.42161e-12
4.60863e-13
1.35779e-13
1.95748e-12
4.90163e-14
7.08814e-07
4.76075e-12
7.0297e-12
1.09701e-10
0.000839752
1.93657e-12
6.08954e-14
3.16734e-12
3.15684e-13
7.86908e-13
8.09529e-14
1.24312e-13
1.12087e-12
1.2409e-11
1.00759e-12
6.08871e-14
4.06234e-13
1.15957e-12
3.71346e-12
5.38502e-13
1.3518e-11
4.53265e-12
3.5879e-12
0.0662303
1.84443e-12
5.07648e-12
3.87043e-11
1.72317e-12
2.44711e-12
4.30274e-13
1.72868e-13
1.37419e-12
1.02467e-13
2.54268e-12
1.38443e-11
2.7099e-12
1.68237e-13
8.50734e-12
3.38986e-12
1.25959e-12
5.14288e-11
4.60949e-13
5.10332e-12
2.50797e-13
2.18734e-13
1.67027e-13
2.66436e-12
3.39161e-12
8.33758e-12
1.89233e-14
3.50706e-11
6.12177e-13
1.90969e-13
9.35636e-13
1.18533e-12
0.00299769
3.88557e-13
6.11539e-13
5.04743e-11
1.08056e-12
2.47439e-12
1.42552e-12
7.47988e-12
1.06647e-12
0.0595422
1.24871e-13
2.26566e-14
1.03702e-12
3.06282e-12
2.11014e-12
1.68934e-11
1.01534e-12
2.43905e-12
4.57692e-12
1.66471e-14
2.88051e-12
1.72737e-12
5.9006e-14
5.7344e-14
1.77973e-12
1.66835e-12
9.64103e-13
3.86939e-12
6.05545e-12
6.33039e-14
0.0189205
1.06672e-12
2.6901e-14
2.52195e-12
1.24367e-12
1.49113e-12
2.89298e-13
1.95344e-12
0.000640112
8.53971e-13
4.16987e-13
4.52787e-08
1.62209e-14
3.73288e-14
1.11156e-12
3.77867e-12
1.15623e-13
2.53095e-13
1.53192e-12
7.92834e-13
7.1149e-13
8.61238e-12
1.44556e-13
1.26754e-12
1.48864e-13
1.2531e-13
1.13799e-12
1.12267e-11
8.65157e-12
8.80638e-13
2.5768e-13
2.37858e-13
1.15695e-08
1.39352e-12
2.49008e-12
1.7314e-11
6.90332e-13
7.68438e-14
1.60451e-12
3.98575e-12
1.31317e-12
1.80859e-12
3.01233e-12
3.4562e-12
8.29558e-14
6.10305e-14
1.26225e-11
4.37827e-12
6.38713e-13
4.61697e-12
3.34205e-12
7.45798e-13
1.06667e-13
8.10908e-14
6.88065e-12
9.82823e-13
1.23952e-13
7.38496e-13
2.52915e-12
2.04182e-12
1.47267e-12
5.72918e-13
9.68706e-14
9.61238e-12
1.53312e-13
2.70278e-12
7.54827e-11
1.24591e-11
6.68785e-14
1.97246e-12
1.08251e-12
4.14481e-12
6.03245e-14
5.55981e-12
1.95445e-12
5.08952e-13
4.21928e-12
1.04065e-12
1.69048e-07
1.33858e-12
2.24969e-12
1.10219e-13
2.46787e-13
5.77829e-13
0.0591155
6.9295e-06
1.64513e-13
7.13122e-13
3.24822e-12
1.38839e-12
4.25964e-12
5.16542e-14
1.01534e-12
1.99822e-12
1.11751e-11
1.26052e-12
1.56006e-13
1.00471e-12
8.33614e-12
3.8071e-12
9.71026e-14
7.63983e-13
7.98878e-14
0.0465623
1.73644e-13
1.20532e-12
2.25194e-14
1.31171e-12
1.69356e-11
1.00359e-13
2.42016e-13
4.17071e-12
2.92845e-12
4.15483e-13
7.18759e-14
1.43212e-11
1.48901e-12
3.8741e-11
9.36176e-13
1.01983e-12
1.88962e-10
8.08588e-14
3.73845e-13
7.57249e-12
0.00158738
4.37601e-08
8.17422e-12
2.16845e-12
1.5161e-14
3.7246e-13
1.04352e-12
1.36931e-12
2.75176e-13
1.10677e-13
2.33096e-13
5.24137e-13
5.60327e-13
4.47428e-13
3.10525e-12
3.21638e-12
7.57531e-12
1.17022e-05
1.69581e-05
1.75955e-11
1.97954e-12
1.11733e-13
1.11063e-12
1.92776e-12
2.44573e-12
5.16456e-13
1.79166e-11
6.4451e-13
1.39639e-12
1.86621e-12
1.85829e-12
4.59698e-12
6.07265e-13
7.25424e-13
8.40613e-15
8.72051e-13
7.50453e-12
3.07984e-11
3.70172e-12
3.50939e-13
9.44113e-13
5.17052e-13
8.3965e-14
9.03613e-12
5.8411e-13
4.05006e-13
3.6132e-12
1.62226e-11
4.86693e-12
2.1265e-14
2.5099e-13
1.37319e-12
0.0590353
5.52485e-13
1.73692e-12
3.03274e-12
1.26735e-12
5.16988e-13
3.58357e-12
9.57581e-14
9.3267e-06
2.13442e-12
6.93669e-13
7.43993e-12
5.45693e-13
1.40907e-13
2.16887e-13
4.56932e-13
1.83845e-14
1.72715e-14
5.12788e-11
1.23854e-13
3.10443e-13
7.28534e-13
6.81625e-12
1.69484e-12
1.26579e-12
3.35995e-11
7.55388e-14
1.96768e-13
1.88414e-11
3.0227e-13
2.19444e-11
5.69247e-14
1.87406e-12
8.1635e-13
2.17529e-12
3.62836e-13
1.50095e-13
2.60039e-13
1.52808e-12
1.26996e-14
5.23038e-11
4.54253e-13
4.29766e-13
5.79123e-12
4.11581e-12
8.98611e-13
2.36894e-08
0.0665276
2.60442e-14
2.04061e-13
5.05057e-12
1.58416e-12
1.10432e-12
0.00219537
6.54043e-13
4.05145e-13
0.011717
1.64721e-13
1.9976e-11
1.87166e-12
1.16355e-13
6.84416e-12
5.38376e-12
2.82984e-11
7.46382e-12
9.7533e-12
2.11359e-11
7.11206e-13
7.54987e-12
3.01931e-13
1.97363e-12
4.53017e-13
6.13664e-12
1.1752e-11
1.62948e-13
5.54781e-13
9.37521e-12
2.23673e-12
9.45959e-12
5.44595e-13
6.58541e-14
1.46121e-14
1.05261e-11
2.67993e-13
4.16866e-13
1.27162e-13
3.64802e-12
9.00094e-12
3.77971e-12
2.02158e-14
4.59955e-11
5.52474e-14
7.70314e-15
9.83548e-14
4.11031e-12
1.44391e-11
2.87767e-13
3.84748e-12
0.00146583
1.51605e-13
3.48675e-13
3.56586e-13
6.11333e-13
1.67141e-12
4.43276e-13
2.04907e-14
9.34875e-07
1.89213e-12
1.75444e-12
3.34236e-06
3.39251e-13
2.09174e-12
3.36364e-13
6.20811e-08
4.61712e-12
9.9969e-06
3.8472e-13
7.09334e-13
2.82654e-12
2.43577e-12
4.39404e-14
6.88252e-10
6.09341e-12
3.93751e-13
9.6113e-11
1.85359e-12
3.02446e-13
4.70989e-11
2.74598e-12
1.09269e-11
4.1017e-13
2.06243e-12
1.35734e-13
2.45436e-05
1.29937e-12
9.17718e-13
1.01819e-13
3.29227e-14
4.24362e-12
1.37419e-12
1.32783e-11
1.07079e-13
8.21252e-13
1.9433e-12
2.04904e-11
2.60385e-13
2.8233e-11
6.47191e-13
2.2944e-12
7.99556e-12
1.24072e-11
2.33845e-12
1.2784e-13
2.13098e-12
2.45334e-13
4.09521e-12
4.62845e-05
8.28807e-13
2.38299e-13
8.94063e-13
8.6157e-14
2.37457e-12
6.81273e-14
1.65872e-12
1.11722e-13
6.71655e-13
1.04068e-12
1.90476e-12
8.11107e-12
6.24994e-12
8.85131e-11
9.79892e-13
7.27385e-06
2.04882e-12
9.80972e-14
2.18589e-12
1.34473e-12
3.22128e-12
2.22363e-12
5.24938e-12
8.88154e-15
2.33978e-13
5.40303e-13
1.42601e-12
8.90407e-13
9.59738e-13
3.00878e-10
6.3508e-13
0.000867855
3.20837e-12
1.4015e-11
1.60262e-13
7.1421e-13
1.75821e-12
1.08557e-12
1.32959e-14
2.92028e-13
2.15552e-12
1.62483e-12
4.85323e-13
3.33928e-11
5.54246e-14
4.12324e-12
6.08179e-12
3.13116e-13
3.1493e-12
9.15824e-12
2.59968e-11
1.69022e-13
1.34429e-14
2.35578e-13
1.97579e-13
1.21531e-12
1.01292e-12
1.90689e-12
6.32201e-13
5.87237e-13
2.22047e-12
0.0336966
3.10895e-12
4.56208e-13
1.10578e-11
1.48709e-13
3.50651e-13
3.18788e-12
1.87135e-13
3.24705e-11
1.03701e-12
3.56694e-13
5.53493e-13
5.51742e-13
2.12218e-13
1.1356e-09
7.64345e-11
4.40907e-11
2.56336e-11
1.12284e-12
7.83168e-14
2.7573e-13
3.10213e-13
3.15757e-12
1.3516e-12
3.15366e-13
2.59461e-12
1.09182e-12
4.25881e-13
1.30335e-12
3.7051e-13
1.41814e-13
2.33526e-12
2.89117e-11
1.20237e-12
2.08025e-11
8.80804e-13
2.95861e-14
8.64585e-12
2.20338e-11
2.59081e-13
1.55848e-12
3.05809e-12
7.13045e-12
1.50979e-13
6.87273e-13
4.69973e-12
1.16873e-13
1.7651e-12
5.69673e-13
4.36483e-12
3.08763e-13
5.35194e-13
4.38495e-13
2.5508e-13
2.2698e-13
1.24971e-11
3.03521e-11
1.65469e-12
8.12333e-14
3.0843e-12
1.02773e-11
2.92973e-13
1.25705e-13
5.26846e-12
2.3187e-13
5.96563e-12
1.58428e-12
1.76197e-11
7.07717e-13
1.68173e-12
1.8867e-13
7.29147e-12
1.66689e-12
6.74121e-12
4.27919e-13
2.95122e-12
1.02419e-12
9.74732e-12
5.74575e-14
4.76555e-12
6.92389e-14
8.13788e-12
1.40672e-11
3.57481e-08
1.47145e-11
1.02155e-13
1.73109e-12
9.27845e-05
4.17461e-12
1.53334e-06
2.28641e-13
1.32309e-11
1.2844e-12
3.90211e-12
6.79668e-13
1.77816e-12
3.70521e-13
4.60843e-14
7.30535e-12
3.40179e-12
2.46138e-12
3.65852e-13
5.58923e-12
3.23025e-13
2.35858e-12
1.55927e-11
1.21629e-12
7.01701e-12
1.07501e-12
1.00298e-12
6.39349e-13
2.25493e-12
2.34387e-13
7.11181e-13
6.685e-13
8.93279e-13
3.25792e-12
2.15437e-13
1.98227e-12
2.54597e-13
1.44825e-11
2.86494e-11
3.43744e-12
2.51383e-12
3.97027e-14
3.54815e-12
6.54322e-13
3.91642e-12
3.56772e-12
3.42168e-12
7.42645e-11
3.49062e-14
2.35673e-13
7.0173e-13
8.81622e-13
6.12688e-13
9.85433e-13
3.18992e-12
3.29545e-11
2.43416e-13
8.67726e-14
3.266e-11
3.77749e-13
5.40864e-05
6.8267e-11
1.23555e-11
4.2398e-13
1.14404e-12
2.0607e-12
3.8708e-12
7.45982e-12
1.25168e-12
3.39077e-12
1.33724e-09
6.47711e-11
6.0604e-13
3.97761e-13
1.13929e-12
9.09904e-14
3.86991e-13
4.44966e-12
0.00134985
0.00248899
9.28302e-14
1.58739e-12
8.98939e-12
3.79918e-10
4.58973e-12
0.0208398
2.35908e-12
1.06504e-11
1.16422e-12
3.71878e-12
5.64084e-11
6.07595e-12
4.6361e-13
3.36943e-13
2.09561e-11
5.63763e-12
2.67536e-12
1.73288e-12
9.35547e-12
1.07491e-12
2.53363e-14
7.45842e-12
7.2727e-13
5.67133e-14
1.70331e-13
9.70192e-13
6.34519e-12
1.0856e-11
4.25835e-12
6.16333e-05
2.27889e-13
1.40054e-13
1.04679e-11
3.20276e-12
4.25968e-12
1.61798e-11
5.96646e-13
3.58077e-14
9.50859e-14
4.90217e-11
1.00007e-12
9.10526e-13
5.02981e-12
4.30452e-12
8.37552e-13
7.17197e-12
3.62684e-13
6.18637e-13
0.000229366
2.65376e-12
8.26246e-14
1.65259e-12
1.46569e-13
4.67229e-12
4.12043e-12
7.44334e-14
1.34462e-11
8.33838e-13
2.37489e-11
7.09782e-14
0.0032598
1.89496e-13
2.01729e-11
7.08419e-13
1.97841e-12
1.04241e-13
5.61061e-14
1.86571e-13
5.6533e-12
9.76594e-13
3.33979e-13
5.02618e-13
1.44374e-13
4.98132e-12
2.81045e-13
2.58385e-12
2.73451e-11
1.14114e-12
1.14782e-12
2.06655e-12
2.56655e-13
3.0827e-13
1.14855e-13
1.00209e-11
2.16388e-12
3.35483e-13
2.7384e-12
6.04616e-13
2.63362e-13
8.82187e-13
4.18282e-12
3.47699e-11
1.85623e-13
2.37307e-13
6.10455e-13
3.35985e-11
1.55849e-12
5.22655e-15
4.18365e-11
1.53853e-12
3.21018e-12
7.35467e-13
8.7542e-12
1.36649e-12
1.64973e-11
2.52808e-11
1.37486e-13
5.28403e-14
2.41452e-11
1.2359e-11
2.33889e-12
6.85046e-12
1.79173e-12
2.07296e-11
1.47989e-11
2.39751e-12
2.86551e-12
3.21336e-11
1.30209e-12
1.9747e-12
3.42268e-12
3.5315e-11
1.0249e-11
1.0305e-11
1.27817e-11
1.1002e-12
5.25265e-12
3.60944e-12
1.51898e-12
1.828e-13
6.3661e-13
7.97674e-06
3.71113e-12
8.01163e-13
3.96818e-12
5.58071e-13
5.0087e-14
2.81133e-12
7.57207e-13
2.23929e-12
1.57958e-12
3.39099e-13
3.09248e-11
5.23427e-12
3.98745e-13
3.25393e-13
1.5336e-12
1.37738e-12
4.92147e-13
6.89424e-13
1.66027e-11
4.10342e-12
1.42769e-12
4.43034e-12
1.01383e-13
3.59099e-13
6.4602e-12
6.64241e-12
1.20203e-11
5.92313e-13
1.75997e-13
0.000222339
4.22665e-12
1.66723e-11
8.68322e-12
0.0605222
1.62854e-13
9.31162e-13
6.27503e-13
8.89741e-13
6.08698e-12
2.86772e-14
9.99882e-11
2.38734e-12
2.87279e-13
1.88268e-13
8.70569e-12
1.3064e-12
4.19781e-12
1.25784e-10
3.09676e-13
2.04814e-12
1.49526e-12
8.8364e-13
1.64162e-12
1.03699e-12
1.41851e-12
2.6715e-12
4.76889e-13
3.89576e-13
1.816e-12
1.96986e-12
2.23191e-13
7.58893e-14
6.1307e-13
2.92572e-12
4.82368e-11
6.04573e-13
1.60975e-12
3.96895e-13
1.87409e-11
7.26052e-12
1.25788e-11
1.03365e-13
3.98388e-13
0.00578059
1.8498e-12
1.41597e-12
8.0001e-11
1.52488e-11
8.36962e-12
5.97078e-12
1.43641e-11
2.34055e-12
6.08637e-06
1.11153e-12
5.46372e-12
9.32008e-13
7.41918e-11
1.77189e-12
4.49218e-12
1.44114e-11
6.51068e-12
9.65279e-12
6.83255e-11
2.1651e-12
6.77879e-14
9.868e-13
7.6894e-12
1.6431e-11
2.05249e-14
6.60959e-13
9.58647e-12
6.85607e-13
1.18306e-12
1.58393e-12
6.16804e-12
8.40521e-11
1.29706e-12
1.05992e-12
2.13166e-11
7.41646e-11
1.11701e-11
2.89273e-13
9.18056e-13
4.82447e-12
1.86143e-12
1.62723e-11
1.38758e-13
2.17312e-12
3.17464e-13
1.70738e-12
7.46584e-13
6.6726e-12
1.53552e-11
3.92641e-13
3.7948e-13
0.0555741
1.23007e-12
8.08523e-13
1.53569e-06
6.61586e-13
1.21398e-13
3.96472e-13
6.2629e-12
0.00261977
3.65893e-12
7.90255e-13
7.7232e-14
5.70554e-12
3.53728e-11
3.29984e-12
3.38562e-12
1.40876e-12
2.04351e-12
2.55838e-11
1.50604e-12
2.90098e-11
1.98788e-12
1.66589e-13
1.38676e-07
9.27191e-13
1.76512e-13
2.71557e-14
5.43782e-14
2.06177e-12
2.66522e-12
1.71212e-12
0.00615722
1.13967e-13
8.31496e-11
2.11203e-12
1.81487e-11
5.80691e-09
2.99202e-13
6.0214e-12
6.44201e-13
5.88086e-13
5.82874e-14
1.65688e-12
4.03228e-12
1.75678e-11
3.37451e-12
1.32316e-14
9.95657e-11
1.37203e-12
2.50358e-13
3.64798e-12
8.55596e-12
1.3602e-11
4.03808e-13
6.2921e-14
1.50089e-11
1.42604e-13
1.28939e-11
2.2284e-12
4.00759e-12
1.1471e-13
1.24336e-11
1.79333e-12
1.05938e-12
4.18691e-14
2.29063e-12
1.0611e-13
8.13499e-12
4.90831e-12
8.73226e-13
6.1861e-12
1.35322e-12
3.6795e-12
3.714e-13
8.68698e-14
5.23986e-13
1.28847e-13
6.9456e-13
2.55666e-13
5.01902e-12
3.97771e-13
4.05469e-13
1.48098e-11
2.77767e-12
8.39415e-12
7.18319e-12
4.8594e-13
4.91672e-11
1.97207e-13
5.09599e-13
3.96818e-14
1.20538e-12
1.54522e-11
4.07481e-12
1.48429e-11
4.69358e-13
3.31801e-13
6.48958e-06
1.42791e-13
1.20372e-09
1.26859e-12
2.08493e-13
6.08737e-12
6.25849e-12
8.33585e-15
2.6944e-14
8.42548e-12
9.22466e-13
4.54025e-12
1.3742e-11
1.17596e-12
1.31708e-11
2.59895e-13
2.43708e-11
2.79404e-11
3.2142e-13
1.6839e-12
1.20776e-12
7.75077e-11
6.76738e-12
1.80783e-12
7.76086e-11
9.75615e-13
1.24125e-12
3.25467e-11
7.02156e-13
3.60636e-11
2.66731e-11
2.01082e-12
9.98453e-12
2.12338e-10
2.40001e-15
3.4632e-12
1.86017e-13
8.5921e-12
2.48857e-11
1.76503e-11
4.98802e-12
1.92889e-13
2.47954e-11
4.51519e-13
8.55414e-12
1.14789e-11
7.90013e-12
5.95663e-12
3.76277e-13
9.98351e-13
4.86896e-13
6.06808e-13
2.12044e-13
5.67734e-13
1.15116e-12
3.03649e-13
8.23006e-11
3.16031e-13
3.00761e-12
1.00994e-13
1.99918e-12
1.1992e-12
1.31081e-13
2.25784e-13
2.45386e-12
5.77804e-13
4.80785e-12
1.22477e-13
5.48101e-13
1.33805e-11
4.33757e-13
8.83662e-12
5.88559e-14
1.06847e-12
3.74804e-11
3.61068e-13
1.94317e-13
1.31526e-12
3.43839e-13
3.93452e-12
1.08818e-12
3.07844e-13
8.13188e-13
4.43151e-13
4.06713e-14
1.10829e-12
1.16088e-12
7.71525e-14
8.06402e-12
3.06582e-12
4.25769e-13
3.47403e-12
3.7802e-12
4.87093e-06
2.25997e-12
2.12208e-12
6.44845e-13
6.12909e-13
5.05097e-13
3.85477e-12
3.65119e-12
1.60067e-12
3.92863e-11
1.40474e-12
1.17081e-12
1.72064e-13
2.11053e-12
8.41462e-12
1.07193e-13
6.02327e-12
1.57137e-08
2.25151e-12
1.52492e-12
5.44563e-12
4.41937e-13
3.2207e-13
3.7041e-13
2.68509e-12
1.20917e-12
3.71292e-11
1.45088e-13
6.70438e-13
7.42067e-13
8.79838e-13
1.05495e-12
1.3727e-13
4.38474e-12
4.44907e-14
5.48655e-13
1.21692e-13
4.99417e-12
1.25425e-12
3.4522e-11
1.10719e-12
2.88789e-11
6.12757e-13
1.62793e-10
3.96009e-11
1.98046e-13
1.03795e-11
6.95325e-13
1.41514e-12
2.38597e-12
9.31483e-11
2.25805e-12
2.43749e-12
7.46495e-13
9.41251e-06
5.26021e-13
4.3442e-06
2.45662e-12
8.41782e-13
6.90613e-14
5.78513e-13
2.19476e-12
7.60409e-14
1.87445e-12
8.78639e-13
1.05064e-11
2.52213e-12
2.48812e-09
4.19648e-12
3.50694e-14
1.09902e-13
2.11887e-13
5.02763e-13
1.55023e-14
9.568e-13
5.69606e-13
1.49158e-11
1.40738e-10
2.35751e-13
8.32576e-13
3.45231e-13
8.70458e-11
9.88674e-14
5.05761e-13
4.34983e-11
4.33229e-12
1.38367e-12
9.69899e-13
7.74627e-13
9.35937e-12
3.8441e-11
2.75574e-14
7.24729e-10
1.62891e-11
2.85167e-12
5.18063e-12
1.03616e-12
3.42402e-11
3.73744e-11
3.45895e-11
6.66309e-13
1.27095e-13
2.71019e-12
3.15979e-13
2.63766e-11
4.89516e-13
4.14596e-13
1.31032e-12
4.43774e-10
1.27065e-11
1.38117e-11
1.16671e-13
3.01308e-13
1.67018e-12
5.93339e-13
9.55384e-12
3.79952e-13
1.82936e-11
9.5857e-12
3.39594e-12
4.39357e-12
6.0768e-12
1.09343e-12
5.92109e-13
8.25938e-13
5.19619e-14
8.51676e-11
5.28058e-12
2.0637e-13
9.38589e-13
2.70544e-12
3.34894e-11
2.18915e-12
1.28539e-12
4.86176e-12
2.52704e-13
6.49353e-13
3.20173e-12
8.73892e-13
1.82627e-12
4.54217e-13
1.00043e-13
3.36321e-13
2.29135e-13
1.18185e-13
2.94516e-14
7.1269e-14
3.32184e-13
0.000452711
2.06197e-13
1.81168e-13
8.11154e-13
1.47493e-13
3.10899e-12
8.35228e-13
1.68842e-13
1.36146e-11
2.73392e-07
1.52648e-12
1.06128e-09
3.03332e-12
2.05037e-12
2.14674e-12
1.46015e-13
1.75758e-12
2.17138e-12
2.23775e-13
7.52773e-13
1.03957e-11
8.06598e-11
7.39972e-14
8.06878e-13
2.59209e-13
1.69659e-13
9.32481e-13
6.84914e-13
1.11005e-12
6.93044e-12
1.94866e-09
3.58075e-12
1.08009e-12
3.46458e-12
3.62769e-09
1.07123e-12
4.52756e-11
1.82535e-12
8.12664e-12
5.69309e-12
3.21588e-14
7.40502e-12
3.64301e-13
3.0025e-12
2.15577e-14
9.13529e-13
2.44444e-13
1.33526e-11
0.000407241
4.02012e-12
2.13154e-12
6.47917e-13
6.1667e-13
9.23327e-14
8.85591e-12
4.20282e-13
7.10409e-13
3.93556e-12
6.72215e-13
6.49331e-12
6.83955e-13
2.7402e-13
2.81086e-12
5.26221e-13
1.42017e-11
1.01845e-13
8.73831e-12
3.79112e-11
0.0148481
1.1841e-12
6.24662e-13
1.3231e-11
1.16409e-12
1.72009e-12
3.90925e-13
2.30479e-12
5.70519e-13
5.83093e-13
1.54196e-12
5.83241e-13
7.3098e-14
3.35802e-11
2.70888e-13
5.3777e-08
1.11512e-12
1.41895e-11
3.25238e-13
2.07545e-11
3.38845e-14
6.94666e-12
6.12704e-12
1.10119e-13
0.0226184
1.66821e-12
1.36256e-14
1.71231e-12
8.95557e-14
1.62262e-13
1.91751e-12
1.29234e-12
1.14157e-13
2.44334e-15
9.00651e-13
7.15143e-13
5.04003e-13
1.91503e-12
1.28319e-12
1.43204e-12
3.54915e-13
1.41222e-12
6.60175e-14
1.57299e-12
1.22568e-13
2.10703e-13
1.29121e-13
1.49943e-12
2.09769e-13
3.55156e-11
5.96855e-12
9.34714e-14
8.34492e-12
7.89053e-14
5.38071e-13
1.59222e-12
8.94042e-14
2.76109e-12
1.68535e-11
1.19661e-12
9.27643e-12
7.16849e-14
3.56329e-11
2.11593e-12
1.24133e-12
7.78861e-12
1.04766e-11
4.53421e-12
1.0535e-12
3.3031e-13
2.59924e-12
3.59004e-12
8.54312e-12
3.74316e-14
1.08652e-13
0.0144387
1.54629e-12
4.72509e-12
1.84071e-09
5.75572e-12
1.6673e-12
7.43456e-13
3.61621e-12
2.24473e-13
3.70239e-06
8.74256e-12
1.60429e-13
7.75154e-06
2.11606e-11
1.13878e-13
1.07188e-12
7.48432e-12
4.34943e-13
6.30149e-14
1.02923e-12
1.94411e-12
8.0162e-12
2.13052e-12
3.53097e-12
2.2397e-13
1.05145e-12
5.10101e-11
1.24357e-13
3.9836e-14
3.14225e-12
4.38302e-12
2.82729e-12
1.08651e-12
6.86876e-13
4.27574e-05
7.93102e-13
8.60664e-12
0.050146
8.61386e-13
1.98406e-13
1.00506e-12
3.36949e-13
7.81422e-13
0.0382753
8.95804e-12
2.88295e-14
4.18788e-12
3.8243e-13
6.06856e-13
7.31174e-13
6.77591e-12
2.8142e-13
3.5038e-10
8.95611e-12
1.13825e-11
7.73308e-13
4.33428e-12
1.95097e-12
1.69504e-13
1.81326e-12
5.81314e-14
2.79093e-15
1.10733e-12
8.74343e-14
1.20074e-12
2.93683e-13
1.15974e-12
1.75395e-13
4.62714e-12
1.33433e-12
7.67308e-13
1.55143e-12
8.49677e-12
4.06525e-15
2.62787e-12
2.71059e-12
1.84179e-13
0.0321156
6.55908e-12
1.07682e-13
2.1082e-12
4.60294e-14
2.9579e-09
3.81489e-13
1.08777e-11
3.8117e-13
1.15711e-14
1.74557e-12
1.983e-12
1.62018e-13
1.10793e-12
2.51307e-14
2.74733e-13
3.79972e-14
4.36394e-13
4.01308e-13
7.0156e-12
6.98885e-13
1.01084e-12
5.53132e-13
2.79628e-12
1.03688e-11
2.05145e-11
3.05285e-13
2.09747e-13
4.43581e-12
0.00116248
7.67819e-14
1.41054e-07
6.8136e-12
6.87397e-13
7.75872e-12
0.0136156
1.98471e-05
5.30165e-13
0.0017289
3.97982e-12
4.28584e-14
3.07043e-12
6.37874e-13
4.88847e-12
4.37539e-14
3.1882e-12
1.18882e-11
1.58954e-12
7.52152e-13
1.24762e-12
0.024634
7.10464e-14
3.04278e-13
1.12399e-11
9.07255e-12
1.14028e-13
1.79445e-13
2.88018e-06
1.94884e-12
5.77315e-13
5.27697e-13
8.36653e-12
1.94306e-12
1.09598e-11
2.4233e-12
2.60124e-05
3.44653e-12
2.81992e-12
2.96753e-08
6.02445e-13
7.48533e-11
0.0163562
6.91484e-13
1.09737e-12
4.55422e-12
2.79297e-11
3.18034e-12
1.50875e-11
7.97497e-13
1.26382e-12
9.00474e-12
4.86628e-13
5.46309e-13
4.30054e-13
1.24753e-11
1.60638e-13
5.11115e-06
4.53229e-12
6.95358e-12
9.92273e-13
3.47596e-12
3.01108e-13
6.86384e-13
2.19187e-13
2.14065e-11
5.17946e-12
2.26675e-11
9.54121e-12
7.16261e-12
2.27424e-12
0.00120643
2.56281e-11
1.11957e-12
1.65741e-12
1.57163e-13
1.38255e-12
3.81783e-12
7.7055e-13
1.78283e-13
3.99163e-14
5.4424e-12
6.04539e-13
7.55996e-14
2.98782e-11
2.97876e-13
4.38371e-12
4.27035e-12
8.44388e-14
1.68761e-12
2.06834e-11
1.57982e-12
5.37283e-14
1.49983e-11
5.82507e-12
1.02626e-11
7.6663e-12
1.07732e-11
6.69851e-12
5.72905e-12
1.84283e-13
4.52119e-14
2.30683e-11
7.32081e-11
1.70605e-11
7.16358e-11
0.0632955
1.75455e-12
2.30833e-12
4.33446e-13
3.80316e-11
1.03325e-12
8.11961e-13
9.40734e-13
3.04485e-12
6.49911e-12
2.80841e-14
2.55017e-12
8.36921e-12
2.48634e-12
3.54027e-12
6.49657e-13
5.88498e-12
1.66231e-12
1.67079e-11
9.8032e-14
8.10984e-12
1.46417e-11
6.1493e-12
7.0324e-11
5.77603e-12
1.51672e-06
2.25297e-13
1.15905e-12
2.3661e-13
1.33525e-10
6.72845e-12
5.79633e-11
5.08758e-12
1.02767e-13
1.71913e-12
1.41607e-13
4.41013e-13
3.15842e-12
3.17972e-13
1.88925e-13
8.42238e-13
3.95768e-12
8.83846e-13
4.12736e-13
6.16696e-12
2.47842e-11
2.78817e-13
3.19184e-12
6.33476e-13
1.00379e-11
2.65859e-13
3.3397e-12
3.73301e-12
3.36223e-12
1.71973e-14
1.59521e-12
9.4423e-13
2.4406e-10
7.84769e-12
7.39675e-13
1.54023e-11
2.57905e-12
1.79225e-12
6.59788e-13
5.85173e-12
7.32348e-13
1.1223e-13
9.78878e-13
1.53107e-12
7.32728e-13
0.01342
1.40681e-13
1.48402e-13
7.79323e-12
7.49257e-12
1.16722e-13
1.10314e-12
1.97207e-13
7.86815e-13
0.0014082
3.02649e-13
3.81322e-13
4.29203e-12
4.99094e-12
1.36258e-12
0.0127231
0.00029425
3.48205e-12
7.11167e-08
9.35041e-11
1.29012e-09
5.7951e-12
1.15513e-11
2.02627e-13
5.10073e-13
1.71482e-12
2.18331e-13
4.1538e-13
2.04248e-12
4.27372e-13
5.83018e-13
5.47152e-12
9.742e-13
6.84769e-12
3.34362e-12
6.63793e-12
7.56001e-12
5.91825e-13
8.65106e-13
1.41676e-11
8.66705e-13
2.64286e-11
2.43806e-12
8.49065e-14
5.21773e-12
1.24482e-08
2.82005e-12
1.85801e-13
5.74809e-06
8.17651e-12
1.95481e-12
1.25666e-12
4.08493e-13
4.53349e-12
1.01648e-12
2.63219e-13
7.89786e-13
8.6554e-09
2.67693e-13
8.82352e-06
2.06873e-12
1.86572e-13
3.93052e-14
4.73307e-13
7.77728e-12
3.21559e-12
1.18699e-13
4.14659e-05
1.84343e-12
7.46499e-13
1.01373e-12
2.64608e-13
8.32697e-05
3.25011e-12
8.01961e-13
1.35803e-13
3.2892e-12
7.0648e-12
2.92268e-12
0.00013083
7.22771e-12
4.36581e-12
6.95374e-12
9.23585e-14
1.26244e-12
1.26666e-12
7.94643e-13
1.62194e-12
4.1038e-12
0.00513819
5.73488e-12
9.54967e-12
3.00485e-14
2.17867e-12
6.07664e-13
7.30643e-12
0.000111825
6.59631e-07
1.48602e-12
7.2505e-13
8.48204e-14
4.39638e-13
7.27045e-13
7.43084e-06
6.99394e-05
1.37814e-12
1.29059e-08
1.66125e-13
8.4287e-13
1.15056e-11
3.94437e-10
5.26055e-12
9.47538e-14
1.33597e-12
0.0103386
0.000116555
7.01444e-12
6.54318e-13
1.24811e-12
0.003691
4.56602e-12
5.66885e-12
2.34732e-12
3.54998e-12
3.72226e-12
4.61197e-14
6.45251e-12
4.6796e-12
2.61973e-12
8.72831e-13
2.21781e-13
4.05221e-13
2.20712e-05
5.48546e-14
0.000474857
9.88818e-13
9.36512e-13
9.61637e-13
9.14121e-13
1.00879e-11
0.00903475
1.20358e-10
1.76641e-12
3.93005e-12
3.08672e-13
1.69821e-12
1.09187e-12
0.0226861
1.53241e-12
2.38624e-12
1.83751e-11
9.06336e-13
2.87986e-13
7.74274e-12
1.59571e-12
2.10524e-12
0.000276048
1.34084e-12
9.36905e-14
1.937e-10
4.60998e-12
5.96791e-13
2.94946e-05
3.02776e-13
5.71058e-13
2.46737e-11
3.49442e-10
9.01925e-12
3.8136e-13
2.42646e-11
1.41158e-12
7.65346e-12
1.91926e-12
9.1587e-13
0.000258182
4.99064e-09
7.05645e-13
1.57139e-06
1.46298e-13
3.43601e-13
1.14468e-08
1.30778e-12
3.86141e-12
6.90796e-13
0.0384255
1.25161e-06
1.0217e-09
2.04741e-08
3.79e-14
1.025e-11
0.0557833
2.34357e-12
5.25686e-12
3.53043e-12
1.90216e-12
3.13965e-13
2.51239e-13
1.33238e-12
8.62016e-13
2.35408e-05
8.65465e-07
0.00104361
7.42589e-13
2.67956e-12
2.41145e-12
7.69192e-12
7.88121e-12
2.67744e-13
4.66804e-08
2.96254e-12
4.86903e-13
9.73854e-13
3.83612e-12
8.80795e-13
2.35253e-12
4.25084e-14
4.91485e-13
1.80458e-12
2.10036e-12
5.6434e-14
4.90783e-14
1.01359e-13
4.54232e-12
2.1602e-12
7.98185e-14
0.0261796
8.32201e-14
5.99e-12
9.27258e-13
0.0228081
7.59373e-12
1.85025e-13
3.87627e-12
2.18757e-12
4.82701e-13
0.001383
1.04377e-13
5.09428e-12
3.68346e-11
4.68725e-12
3.91442e-12
0.0111181
7.46159e-12
2.79844e-12
8.49049e-12
1.18453e-09
3.99964e-12
2.98911e-11
2.58886e-11
5.51653e-11
2.43917e-13
1.41413e-14
7.02312e-12
1.90944e-12
3.33796e-08
5.74203e-14
2.89589e-13
6.56097e-12
5.49506e-12
1.27926e-12
1.35684e-12
1.1399e-11
1.18115e-12
4.46343e-13
3.90772e-12
2.43712e-12
1.50165e-11
1.79197e-13
2.65646e-11
2.00445e-12
4.03252e-12
3.06417e-11
8.18921e-12
2.18187e-12
2.93788e-13
4.27701e-12
1.46618e-12
4.34259e-13
2.28702e-12
9.42554e-13
7.35549e-13
5.68215e-14
3.49534e-13
2.75891e-12
3.08121e-12
3.79445e-12
7.06673e-12
7.23968e-13
8.34839e-13
7.21208e-13
3.92449e-12
5.89682e-13
1.51728e-05
1.09856e-13
2.00554e-12
2.22811e-12
4.33417e-11
3.44554e-12
4.63324e-12
0.0135014
3.80045e-13
0.0494483
1.20804e-09
1.17212e-12
2.23267e-12
1.05483e-11
3.86024e-12
1.2731e-12
6.63757e-13
1.66102e-13
1.19002e-12
8.76307e-11
8.27728e-12
1.039e-11
3.30639e-11
2.97492e-13
1.96716e-12
1.86281e-12
1.1495e-12
1.42874e-11
1.49898e-12
3.58616e-12
6.98122e-12
1.87128e-11
2.82955e-07
0.0130909
1.61147e-12
8.274e-12
1.00506e-12
8.11449e-13
6.44152e-12
5.76224e-12
2.37027e-12
2.71432e-12
5.23119e-13
1.31687e-13
2.97917e-12
8.30257e-13
8.74692e-13
5.33319e-13
5.70537e-13
8.71627e-13
0.0484364
3.25997e-12
3.16191e-14
8.27351e-13
5.69741e-14
4.681e-13
1.43088e-12
1.38464e-13
3.42167e-12
1.27644e-12
3.09626e-12
8.35478e-13
2.8151e-12
4.14174e-13
4.644e-13
1.8896e-13
1.08272e-13
2.52284e-13
6.98121e-12
9.9918e-13
0.040891
1.44603e-12
1.49112e-12
2.08225e-12
6.84276e-13
5.86958e-13
5.60208e-13
1.34268e-11
3.24036e-12
1.43219e-12
9.9011e-12
1.15803e-11
3.95156e-12
9.83968e-06
1.79526e-11
3.51447e-12
1.48539e-12
8.70614e-14
1.85144e-12
5.6529e-13
6.58618e-12
9.50707e-12
7.25208e-11
1.09062e-05
2.55924e-08
4.34673e-06
7.68623e-13
2.47821e-13
5.94475e-12
5.61739e-11
6.37139e-13
2.02095e-12
2.00641e-10
1.62013e-14
3.74944e-13
4.68331e-12
2.20459e-11
1.91489e-13
0.0482311
6.28125e-13
5.2099e-12
2.41328e-13
1.20373e-11
1.15109e-10
1.61108e-12
3.04553e-12
1.03843e-12
4.98042e-13
7.9633e-12
7.33687e-13
8.42493e-13
2.25608e-12
1.75134e-12
3.31905e-10
0.0519134
5.05068e-13
1.9261e-12
5.99123e-13
3.52884e-11
2.9846e-13
9.82329e-09
1.70587e-13
8.33174e-12
2.41038e-12
9.28455e-14
1.70028e-11
9.04029e-13
6.43098e-14
1.13029e-10
5.03246e-12
3.98467e-11
1.30188e-13
2.50465e-09
1.44303e-12
1.52302e-10
9.5291e-13
2.36832e-13
0.00108103
3.52814e-12
4.09772e-13
1.20484e-12
8.82072e-13
2.10174e-09
3.17015e-12
4.12933e-13
1.34603e-12
3.28822e-14
5.13638e-13
0.0830855
8.52034e-13
4.68411e-12
2.01774e-12
1.12378e-10
1.03358e-11
8.0319e-12
2.75028e-11
9.47947e-13
1.12664e-13
0.000449275
1.79567e-07
9.15191e-13
5.42085e-05
6.61203e-12
2.94838e-12
8.95872e-13
4.28115e-13
3.95939e-12
7.29472e-13
4.33616e-12
6.98777e-12
1.69304e-12
7.85128e-07
5.95198e-13
2.46246e-12
7.09942e-14
3.91536e-12
2.35452e-13
1.95258e-12
4.48126e-13
1.87856e-12
2.95642e-09
2.22018e-12
2.17799e-12
1.8521e-11
2.40435e-12
2.27033e-07
4.3481e-12
9.6733e-13
0.0257363
1.05751e-11
3.80555e-09
2.39316e-12
3.87169e-10
2.58611e-13
1.37388e-12
2.14134e-12
3.6436e-12
1.60583e-13
1.80693e-12
4.33151e-09
1.07828e-13
1.9235e-13
5.87785e-11
5.46753e-12
5.20656e-14
2.22932e-13
2.06845e-12
1.66201e-12
3.97595e-11
3.18869e-13
9.71865e-13
5.27425e-13
1.33797e-12
1.73169e-13
2.91847e-12
2.94443e-12
3.5988e-12
1.80216e-12
1.71617e-12
0.0143748
3.76845e-12
3.31976e-08
4.91331e-12
7.01673e-14
5.13414e-13
1.66816e-13
1.80859e-12
1.49925e-10
1.65515e-12
3.74642e-12
3.49031e-13
1.66655e-11
1.5665e-12
1.78709e-12
4.77559e-12
5.71654e-12
2.61904e-12
2.15756e-12
1.95573e-12
2.51534e-12
2.10996e-12
8.42019e-13
0.0869061
1.72579e-12
2.2799e-12
6.48579e-13
9.47631e-12
3.97377e-06
6.51028e-13
0.00053117
1.08597e-10
4.09475e-14
5.4794e-12
5.3572e-14
1.30394e-12
1.10468e-11
3.85308e-13
6.31024e-13
0.00444083
4.02575e-06
2.94286e-12
5.35999e-11
2.34666e-08
2.61468e-05
1.45071e-06
2.95167e-13
1.47803e-12
5.18998e-11
1.26675e-12
6.93445e-13
2.17593e-12
5.41845e-11
1.48622e-13
1.0041e-11
1.04928e-13
5.18146e-13
1.3755e-10
6.66694e-14
4.24564e-12
9.66978e-13
9.24632e-13
1.60404e-09
3.32101e-12
3.55765e-12
1.55378e-13
2.94882e-11
2.0454e-11
1.73367e-10
9.40515e-13
7.51815e-11
1.49621e-10
0.001873
7.39893e-11
3.7689e-12
7.0663e-12
7.92778e-08
3.72502e-11
4.32973e-13
0.0162201
3.69224e-11
1.50444e-11
0.000228962
1.99715e-12
1.39833e-12
1.0884e-12
7.46683e-13
0.01234
8.59962e-13
1.60335e-12
3.79502e-08
1.28627e-11
6.30665e-14
1.29719e-10
1.43796e-08
1.14161e-12
4.1871e-12
2.09464e-11
3.22317e-12
3.09168e-12
1.90881e-10
0.000153352
0.0205228
1.63822e-06
9.70759e-12
7.4003e-12
6.85907e-12
9.21488e-14
1.64903e-12
1.2336e-13
1.35387e-11
5.51755e-11
1.23854e-13
5.50249e-12
9.90264e-14
1.64698e-13
9.36602e-14
3.30266e-12
2.97842e-12
3.84944e-13
1.30399e-12
4.34133e-11
1.26715e-12
4.0959e-13
8.97366e-12
1.66689e-11
6.51481e-12
0.0018247
1.16345e-12
1.09998e-13
7.8912e-13
8.80596e-13
1.60187e-11
1.106e-12
2.85206e-12
8.2403e-05
2.6197e-13
1.41379e-11
3.58651e-12
4.78925e-09
3.79947e-12
4.26984e-13
4.40863e-11
7.01165e-12
8.64908e-14
7.77073e-12
3.86636e-13
0.0515893
7.54061e-08
2.33952e-11
1.91112e-12
6.7681e-12
6.57988e-11
2.70321e-12
2.33499e-13
2.23101e-08
1.81891e-12
1.21573e-12
0.0164105
8.98375e-12
3.21253e-12
2.41788e-12
4.88086e-14
6.69906e-12
4.99544e-12
5.53201e-13
4.15402e-13
0.000453183
2.90922e-13
4.95706e-12
1.4327e-12
1.37907e-11
6.44114e-13
4.64095e-13
8.18965e-12
5.06609e-13
7.66043e-12
8.67118e-13
1.44982e-11
3.04219e-12
2.53684e-12
7.5369e-12
3.81143e-13
3.73253e-12
1.5683e-12
0.00111667
0.000218685
1.6665e-06
4.82389e-13
2.59071e-12
4.42767e-12
5.0526e-14
8.0807e-13
4.51787e-11
1.07522e-11
5.24209e-13
2.12182e-13
4.26584e-12