/*--------------------------------*- C++ -*----------------------------------*\
  =========                 |
  \\      /  F ield         | OpenFOAM: The Open Source CFD Toolbox
   \\    /   O peration     | Website:  https://openfoam.org
    \\  /    A nd           | Version:  10
     \\/     M anipulation  |
\*---------------------------------------------------------------------------*/
FoamFile
{
    format      ascii;
    class       volVectorField;
    location    "2.5";
    object      U;
}
// * * * * * * * * * * * * * * * * * * * * * * * * * * * * * * * * * * * * * //

dimensions      [0 1 -1 0 0 0 0];

internalField   nonuniform List<vector> 
111485
(
(0.710329 -0.708749 0.00154488)
(2.00035 8.25626e-05 -0.00235253)
(2.00212 0.00218559 0.00160647)
(0.707302 -0.710077 -0.000412621)
(2.00392 -0.00197922 0.000377147)
(0.711503 0.709261 0.000793986)
(2.00135 0.000417215 -0.00238089)
(2.00677 -0.000293976 0.000535156)
(2.0009 0.00106401 0.00116157)
(2.00252 0.00135927 0.00235036)
(2.00701 -0.00122801 0.00142486)
(2.00339 -0.000478436 0.00165768)
(2.00444 0.001754 0.00461663)
(1.99869 -0.00334451 -0.00290628)
(2.00414 -0.000795315 0.00136837)
(2.0011 0.00404176 -0.00494619)
(2.00211 0.00504368 0.00575309)
(0.716373 -0.056942 0.12063)
(2.00302 0.000909329 0.000587829)
(0.708309 -0.704464 -0.000159399)
(0.707794 -0.704416 0.00415415)
(0.707786 0.708934 0.00186107)
(2.00257 0.00046647 -0.000408557)
(2.00254 -0.0036681 -0.00060613)
(2.00088 -0.00104623 -0.00286161)
(0.710807 -0.711096 -0.0018668)
(2.00663 0.00107526 0.00113138)
(2.00471 -0.000867856 -0.00390338)
(2.00557 -0.00126963 0.00147627)
(0.70852 -0.710352 0.00417294)
(2.06066 0.0363328 -0.01259)
(2.00202 0.000312046 0.00194399)
(0.707453 -0.706487 0.00105229)
(0.713033 0.709774 0.000694376)
(0.731793 0.287613 0.118137)
(0.714115 0.720507 -0.0123544)
(2.04926 0.0303073 -0.0146232)
(2.00394 0.00107854 0.0121936)
(2.06619 0.621685 0.0429338)
(2.00258 -0.000560862 0.00203849)
(0.702739 0.709875 -0.0131922)
(2.00223 0.0018356 -0.00409861)
(2.00461 0.00105319 0.00073741)
(1.99532 0.0103135 -0.00566364)
(2.0828 -0.0328042 -0.0144033)
(0.713829 -0.710263 -0.00324338)
(2.00564 -0.00138125 0.00123262)
(2.00421 -0.00187246 -2.69144e-05)
(2.00151 -0.00318122 -0.00445539)
(0.70102 -0.693223 0.00065763)
(0.707265 -0.702059 0.00406159)
(0.814118 0.678987 0.0123244)
(0.70465 -0.7026 0.00467106)
(2.02352 0.00996819 -0.00174225)
(0.700715 -0.699398 0.00254426)
(2.00348 0.001136 -0.00244869)
(2.0031 -0.000804216 0.000952839)
(0.706303 0.713622 0.00282505)
(1.99992 -0.00361504 -0.000240719)
(2.00156 -0.000409514 -0.0010321)
(2.00234 -8.40788e-06 -0.00182663)
(0.707217 -0.708506 -0.000489441)
(2.01033 -0.0092006 -0.00536821)
(2.05466 0.00778989 0.0036584)
(0.742931 0.669313 0.00128436)
(2.00353 -0.000230985 0.000175475)
(1.47689 -0.151856 0.0344987)
(2.00173 0.00275693 0.000100348)
(2.0023 -0.00223574 -0.00177707)
(2.0054 -0.00161204 -0.000642307)
(2.00955 0.0259328 -0.0195794)
(2.0009 0.00018523 0.00264434)
(0.761036 -0.69369 -0.010626)
(2.00666 -0.0112267 -0.00171056)
(0.705475 -0.709431 -0.00187102)
(2.00666 0.000522455 0.00237045)
(0.708465 0.707039 -0.0032911)
(2.00352 -0.000407946 -0.00142144)
(0.708155 0.711899 0.00212119)
(0.64181 0.616598 -0.0252792)
(2.00397 -0.0217038 0.0145694)
(2.00572 0.00270326 0.00226662)
(0.709875 0.711694 -0.00166332)
(0.709186 -0.70833 0.000231316)
(2.00536 -0.000466365 -0.000331287)
(2.00695 0.00222729 0.000117562)
(1.61434 1.03552 -0.276781)
(2.01143 0.0107888 0.00153166)
(1.97545 0.0489607 0.0354009)
(2.00195 -0.00432513 -0.000702829)
(2.10947 0.0237408 -0.0260736)
(2.00183 0.00130058 -0.000995896)
(2.0059 -0.00114996 -0.00392351)
(2.00336 0.00403766 0.000765717)
(2.00101 -0.00169611 0.00204771)
(0.707557 -0.70617 -0.000530101)
(0.703761 -0.704637 0.00248622)
(2.00957 0.0118595 0.00123025)
(2.13408 -0.425252 0.0255645)
(1.99301 -0.00476248 0.00532403)
(0.70755 -0.707375 0.00426361)
(2.00468 0.00325256 -0.00496539)
(0.713488 0.718912 0.00352705)
(2.00503 0.00090831 -0.000103613)
(2.00219 0.00334075 0.000501497)
(0.698908 0.615286 -0.0153389)
(0.710989 0.709821 -0.0012735)
(2.00136 -0.00181883 0.000123104)
(2.0084 -0.000450813 -0.00168315)
(1.84769 -0.0465993 -0.0441107)
(2.0047 0.00179839 0.00261074)
(2.00383 0.00084765 0.000642809)
(2.00418 -0.00241735 -6.31443e-05)
(2.00185 0.000505497 0.0024369)
(0.71546 -0.711476 0.000720661)
(2.00532 0.000416975 -0.000231312)
(0.709847 -0.708428 -0.00185427)
(0.713145 0.710777 0.00354883)
(2.00598 -0.00239261 -0.000925969)
(0.710035 -0.711217 -0.000759317)
(0.711049 -0.710129 -0.000604489)
(0.944372 0.737751 0.0511548)
(0.701529 0.706182 -0.000107195)
(0.713483 0.710127 -0.00135821)
(2.00197 0.0022235 0.00052878)
(0.57207 -0.421368 -0.101229)
(0.904828 0.771183 0.0267089)
(2.00354 -2.06068e-05 -0.000815801)
(0.710962 -0.708333 -0.00338336)
(2.07055 0.133715 -0.0619036)
(2.01871 0.0435637 -0.0343717)
(2.00699 0.00833823 0.00141601)
(0.70421 -0.699746 -0.000914562)
(0.920306 0.800954 0.0814999)
(0.860129 0.770007 0.0336853)
(2.00355 0.000916722 -0.00104437)
(0.71302 0.708672 -0.0013318)
(2.00233 0.000901822 -0.00253072)
(2.00548 0.000562801 -0.0011787)
(2.0049 -0.00195079 -0.00597539)
(2.0022 0.00171885 0.0024493)
(2.00567 -0.00216431 -0.00159581)
(2.00387 0.00166258 -0.00184576)
(2.00358 -0.00290902 0.00109637)
(2.00464 0.00338738 0.0017765)
(2.0007 -0.00414195 -0.0022125)
(0.710605 0.712372 -0.000607087)
(0.708824 -0.710312 0.00200133)
(0.707425 0.70783 0.00149612)
(2.00297 0.000237559 0.00122492)
(2.00339 -0.0033461 0.000661534)
(0.708197 -0.707225 -0.00220782)
(1.64789 0.00476217 0.00722362)
(2.00455 0.00300398 0.00585981)
(2.18662 0.0784479 0.0315276)
(2.00394 0.00123963 -0.00113926)
(2.00067 -0.00321043 0.0014175)
(2.00021 0.00116495 0.00316529)
(2.19757 0.0939594 0.01967)
(0.705836 -0.710705 0.0047469)
(0.704586 -0.706897 -0.00139093)
(2.00103 0.000934278 -0.00135963)
(1.99945 -0.00263756 -0.000662849)
(2.20857 0.0978633 0.0259098)
(2.17944 0.0836822 0.0425385)
(1.99979 -0.00620014 -0.00155219)
(2.04109 0.00281579 -0.00100936)
(0.700483 0.707584 0.000434097)
(2.24069 0.128542 0.028633)
(2.14415 0.0957227 0.0392873)
(0.710349 0.707069 0.00433084)
(0.706812 -0.706512 0.0014695)
(1.9996 0.00059146 0.00262024)
(0.710203 0.710504 0.00178297)
(2.00436 -0.00143245 -0.00209539)
(2.00872 1.0723e-05 -0.00125965)
(0.710282 0.693067 -0.00331069)
(0.759312 -0.702225 0.00812333)
(0.71133 -0.709341 -0.000844627)
(0.698988 0.654109 -0.00490916)
(0.764666 -0.707185 0.0161452)
(0.704905 -0.709227 0.000799097)
(2.0051 -0.00150824 -0.0006197)
(2.00042 0.00103868 -2.1344e-05)
(2.00034 0.00150173 0.000752862)
(1.99204 -0.00892898 0.00192711)
(2.00524 0.000102945 0.000687805)
(2.00166 0.000542321 -0.00143089)
(1.90359 0.00292661 0.00611416)
(0.708283 -0.707377 0.000116551)
(2.00179 -0.00343498 -0.00391631)
(0.760578 -0.704421 0.00871243)
(0.715084 -0.715641 0.000577466)
(2.00074 0.000336052 0.000332833)
(2.00212 0.00024023 0.00161772)
(2.03333 0.00493015 -0.0064089)
(2.00218 0.000956418 -0.000876584)
(2.00073 0.00348732 0.00292438)
(0.704993 -0.704265 0.00350189)
(2.00532 -0.000820707 0.00351462)
(2.00339 -0.000678563 0.00219812)
(1.37111 0.419121 0.0666093)
(2.00602 0.00608137 7.22767e-05)
(2.00491 0.000530448 0.00206698)
(0.710007 -0.710803 -0.00313886)
(2.00236 -0.00158673 -0.000971183)
(2.00299 0.0032057 -0.00230188)
(0.766868 -0.697795 0.00224731)
(1.99194 -0.0103388 0.010206)
(2.00741 0.00175501 -0.00244115)
(2.00353 -0.00268982 0.0015547)
(2.00183 0.00090943 -0.00326594)
(0.76684 -0.711412 0.0116873)
(0.706361 -0.707559 -0.00207036)
(2.00018 -0.00147961 -0.000595445)
(1.2808 0.791934 -0.0708987)
(2.02631 0.00469515 -0.00401572)
(0.709908 0.70925 -0.00219926)
(2.00181 -0.00114377 -0.00211535)
(1.99988 0.000142556 -0.0023126)
(2.00407 0.00341685 -0.0012224)
(0.709877 -0.706169 0.0038158)
(2.00409 -7.14868e-05 -0.0013519)
(2.02645 0.0155138 0.00979297)
(1.12568 0.744634 -0.077301)
(0.710068 0.709278 0.00136324)
(0.709748 0.709646 0.00374939)
(2.09707 0.00166376 0.0207051)
(1.97795 0.0330212 -0.00465728)
(0.740936 0.630514 -0.0153053)
(0.881715 -0.684609 0.0234559)
(1.99871 -0.00143461 -0.00220717)
(2.0046 -0.00160691 0.000590558)
(2.01102 0.00170231 0.00438397)
(0.73811 0.63738 -0.0148446)
(0.747105 -0.695662 -0.00474006)
(1.98871 0.0210505 -0.0216246)
(0.706738 -0.707638 0.00200955)
(2.00662 -1.72648e-05 0.000321793)
(2.00311 2.37257e-05 0.000711929)
(2.00219 -0.000105815 -0.00112198)
(2.00379 -8.03724e-05 -0.000392805)
(2.00342 -0.000783103 0.000665334)
(0.708253 0.709637 0.00555938)
(1.65588 0.00144772 -0.0373452)
(2.00465 0.00138532 -6.24154e-05)
(0.705098 0.709482 -0.00578294)
(0.708677 0.712963 -0.00184402)
(2.02963 -0.00652619 -0.0012123)
(1.99952 0.00646445 -5.34947e-05)
(0.726621 0.623669 -0.021428)
(2.00513 -0.00258662 0.00169607)
(2.00238 0.000418553 -0.000202243)
(0.708341 -0.70842 -0.001443)
(0.901456 0.854342 -0.00550696)
(2.00504 0.00478493 -0.00226958)
(0.708869 -0.700826 -0.00170151)
(0.776228 -0.560004 -0.0229192)
(1.06313 -0.38068 -0.0308736)
(0.710366 -0.708011 -0.00146248)
(2.00459 -0.0011722 8.86528e-05)
(1.99685 0.000306335 -0.00135217)
(2.00326 -0.000598505 -0.00467423)
(0.708425 -0.707478 -0.0018985)
(2.00687 -0.00313042 0.000710317)
(0.710878 -0.710201 -0.00376526)
(0.708179 -0.709472 0.00192382)
(0.70677 -0.704274 0.00197573)
(1.7095 0.00471006 -0.016793)
(2.00283 -0.000833435 -0.000560862)
(2.00221 0.0028461 -0.000258869)
(2.00451 0.000576935 -0.000769629)
(2.00588 -0.000141379 -0.00388969)
(2.00447 0.000881948 -0.00180612)
(2.00441 -0.000300973 -0.000486595)
(2.06412 0.0188493 0.00307437)
(2.00294 0.00150235 -0.00209896)
(2.0055 -0.00173773 0.000526277)
(0.723636 0.709669 0.000760894)
(0.704007 -0.708853 0.0011976)
(1.54107 0.00554883 -0.0140307)
(2.00548 -0.000576392 0.00176256)
(2.01526 -0.00123058 0.0109585)
(2.00478 -0.00125468 -0.00072148)
(0.706611 -0.708116 0.00500422)
(2.0001 0.0011953 -0.000993414)
(2.00042 0.00117099 -0.00126776)
(2.00517 7.22692e-05 -0.000228502)
(1.99918 0.00222159 -0.00105026)
(1.88924 -0.0185158 -0.0315306)
(2.0036 0.000106196 -8.58304e-05)
(2.00462 0.000858215 -0.000320193)
(2.0049 0.00478404 -0.00196787)
(0.708481 0.712233 0.00729088)
(2.00505 -0.000350607 0.00102696)
(0.709449 0.710004 0.00178632)
(0.576171 0.425118 -0.0965382)
(0.789876 -0.526666 -0.0418465)
(2.1099 -0.0082139 0.0305157)
(2.00604 -0.00168275 -0.00271716)
(2.00205 -0.000414111 -0.00269883)
(0.707266 -0.708997 -0.00187952)
(0.708246 0.71097 0.00291341)
(2.00259 -0.00150202 -0.00217405)
(1.9995 -0.0016526 -0.00198606)
(0.710006 -0.708626 -0.00309645)
(0.708171 -0.709088 0.00463504)
(0.697962 -0.699 0.00146598)
(2.00541 -0.000448224 0.000772027)
(2.00513 -0.000480238 -0.00129911)
(2.00507 0.000505808 -0.000462359)
(2.00661 0.00164566 0.000213281)
(2.00382 0.00228136 -0.0013471)
(0.8231 0.701712 0.0117055)
(0.709002 0.70955 0.00105229)
(0.708861 -0.707378 7.1588e-05)
(2.00649 -0.00126207 0.00127233)
(1.34513 -1.14039 -0.0838393)
(2.00237 -8.22358e-06 0.00179834)
(2.08796 -0.00101775 0.0333777)
(1.83421 -0.00647245 -0.0126852)
(0.707072 0.714535 0.00117081)
(0.709057 -0.708013 -0.000292582)
(0.704948 -0.704358 -0.000878216)
(0.901708 0.750982 0.0526852)
(2.00025 -0.00356567 0.000344469)
(2.00649 -0.00172544 0.000131028)
(0.71163 0.714246 0.000256241)
(2.00445 0.0001566 -0.00545776)
(0.749639 0.596155 0.0433408)
(0.71228 -0.701313 0.0049631)
(2.03433 0.00646321 0.00172582)
(2.00399 -0.000584914 -0.000848965)
(2.00402 -0.00337162 0.00298221)
(2.0038 0.001504 -0.00612194)
(0.692265 0.60341 0.0341454)
(0.896891 0.763261 0.0552204)
(0.712866 0.709579 -0.00206623)
(2.0023 -0.00108622 0.000886269)
(2.00628 0.00352697 0.00237349)
(2.05651 0.0373975 -0.0161271)
(0.708515 0.698996 0.00160996)
(1.42618 1.2644 -0.307866)
(1.96898 -0.00364832 0.0233133)
(2.00331 -4.7266e-05 -0.00211349)
(2.00269 0.00329583 0.00116152)
(1.94668 0.179983 -0.0137698)
(2.00227 0.00140817 -7.77242e-05)
(0.711565 0.709569 0.00270438)
(2.00389 -0.000985422 0.00230364)
(2.00488 0.00210391 -0.00100711)
(2.07048 -0.0278082 0.00198)
(2.03985 0.00197712 0.00847503)
(2.00281 -0.000477966 -0.00019237)
(0.706667 0.71462 0.000706983)
(0.706454 -0.707929 -0.000145945)
(0.712884 0.704129 0.00504015)
(0.707594 -0.705653 -0.00257222)
(2.00489 -0.00217077 0.000981696)
(2.0028 -0.000991295 0.000826305)
(2.00391 -0.00232653 -0.00171454)
(2.00357 -0.00246981 -9.53456e-05)
(0.70471 0.707505 0.000475126)
(2.00168 -0.00146586 -9.59397e-05)
(0.707804 0.709304 0.00457471)
(0.70683 -0.708833 -0.00115964)
(2.00373 -0.00122138 -0.00139578)
(0.661431 -0.657364 0.00799397)
(1.1589 -0.242612 -0.0158187)
(0.700431 -0.697341 -0.00269333)
(0.714455 0.708473 0.00626151)
(2.00512 0.00154898 -0.000605208)
(0.708829 0.706176 -0.000285924)
(2.00439 0.00178416 -0.000353335)
(2.00517 0.00153535 -0.000404596)
(0.712022 0.712248 0.0010455)
(2.00473 -0.000183017 -0.000201413)
(2.00184 0.00143868 -0.00281077)
(0.716468 0.622033 -0.0208393)
(2.00492 0.00187581 0.0023727)
(2.00394 -0.00195293 -0.00165254)
(2.00348 -0.00213532 0.00156347)
(1.93152 0.00646208 0.0191219)
(2.00056 0.0014432 0.00334301)
(2.00196 0.000484131 0.0038455)
(0.70077 0.591152 0.000793629)
(0.709752 -0.701635 -8.10865e-05)
(1.95127 0.007154 0.00927547)
(0.705421 0.702106 -0.00224014)
(2.00165 0.0034908 0.000625571)
(2.04467 0.00424324 0.00740304)
(0.71718 0.685957 0.00828102)
(0.707392 0.711483 -0.00288807)
(2.00047 0.000372503 0.00105018)
(2.00103 -0.00262098 0.00384999)
(2.00186 0.00520616 -0.0032852)
(2.0024 0.0028334 -0.00132985)
(0.710209 0.71001 0.00235832)
(2.07465 0.00665261 0.0158283)
(2.00453 0.0022777 -0.00101799)
(0.711698 0.709853 -0.000747926)
(2.00002 0.0185481 0.0169367)
(2.00553 -0.000197313 -0.000288366)
(0.710707 -0.706099 -0.000946036)
(0.709663 -0.703398 -0.00523823)
(2.00117 0.00253853 -0.00106405)
(2.00354 -0.00028213 -0.00212198)
(0.7145 0.713242 -0.00176982)
(0.706668 -0.710857 -0.00310159)
(1.22782 -0.676537 0.151286)
(0.708509 -0.708252 0.000163489)
(2.00469 0.00140995 -0.000615355)
(0.708344 0.707539 -0.00236199)
(0.705001 -0.708408 0.000345312)
(2.00456 -0.00165155 -0.000188817)
(1.91218 -0.016479 -0.0277927)
(2.00246 -0.00177132 -0.00226255)
(2.00278 -0.0042416 -0.000629994)
(0.711186 0.708968 0.00190602)
(0.918302 0.710176 0.0391506)
(1.98328 0.0105074 0.0157603)
(0.870242 0.762297 0.0432989)
(1.99576 0.00665133 0.00506317)
(1.99489 0.013981 0.000804057)
(2.00313 -0.00371803 -0.00185384)
(1.44977 0.0455855 0.0571412)
(0.846623 0.737464 0.0435873)
(2.02152 -0.00267837 -0.0220306)
(2.09254 0.0646351 -0.00739025)
(0.70914 -0.70808 0.00144211)
(2.02724 0.00763199 -0.00664713)
(2.00271 -0.000208078 0.000591894)
(0.710364 -0.708019 0.00192615)
(2.0243 0.115561 -0.0587216)
(2.00581 0.000856964 -0.000189622)
(0.893857 0.701555 0.0372074)
(2.00357 -0.000982604 -0.00141221)
(2.00711 0.000722599 0.000876631)
(1.99821 0.00098969 -0.00146878)
(0.712662 0.705549 0.000577517)
(1.9969 -0.00624618 0.0148867)
(2.003 0.00091159 -0.0013489)
(1.9886 0.0117454 -0.00312829)
(1.43527 -0.0201291 0.0126474)
(0.872984 0.818556 -0.0179928)
(1.2782 -0.0298369 0.0402991)
(0.709654 -0.711325 0.00331218)
(1.88057 -0.0492264 -0.0417993)
(1.99264 -0.00636343 -0.0193788)
(0.71135 0.709396 0.000689441)
(2.00404 0.00218181 -0.00327697)
(1.99113 -0.00214475 0.000678273)
(0.935904 0.821558 -0.00690782)
(0.707294 -0.707621 -0.00172991)
(0.826239 -0.702922 0.0222127)
(0.707701 -0.70743 0.00109595)
(1.9941 0.0075681 -0.00393841)
(2.00244 0.00409811 -0.00327885)
(2.00475 0.000337679 0.000981071)
(2.00638 -0.00235666 0.00114344)
(2.02349 -0.0149426 -0.00325227)
(0.710133 0.705448 -0.000708336)
(2.00404 0.000592277 0.00203716)
(0.710248 -0.702563 0.00111701)
(2.00102 -0.00209951 0.0010701)
(0.711133 0.711716 0.00212481)
(0.705726 -0.70768 0.00100458)
(0.701816 -0.700679 -0.0029531)
(2.0023 0.00206689 -3.13373e-05)
(0.705194 -0.710338 0.0012944)
(0.709429 -0.710026 0.00186356)
(0.701926 0.445174 -0.0332916)
(0.710257 -0.708344 0.00138389)
(0.699686 0.709648 0.00490525)
(2.00696 0.00204927 -0.00184782)
(0.707794 0.70731 -0.00203457)
(0.844918 0.618179 -0.0055506)
(0.711436 0.707895 0.000873864)
(0.707131 -0.704072 -0.000764687)
(0.713883 0.70703 -0.00510767)
(0.707239 -0.70115 -0.00252071)
(0.708428 0.709201 -0.00146363)
(2.00596 0.00067096 0.00148743)
(0.713529 0.709493 0.00345999)
(1.98417 0.00371126 0.00411602)
(2.00677 0.000951342 0.000362675)
(2.09876 -0.0605813 -0.0126538)
(0.704553 0.706766 -0.000167358)
(1.98577 0.0050721 0.00104003)
(0.712484 0.710335 0.000580674)
(0.709293 -0.704906 -0.0011454)
(2.00251 -0.00247996 -0.00212675)
(2.00196 -0.00081669 -0.000433099)
(2.00192 -0.000403418 -0.000256664)
(2.09072 -0.00451415 -0.0199598)
(0.816747 0.680014 -0.0173392)
(2.00247 1.62287e-05 -8.3763e-05)
(2.00286 -0.000726323 -0.000911518)
(2.00428 -0.00159132 0.000223077)
(2.00538 0.000987112 -0.00387071)
(1.99592 -0.00275915 0.003734)
(0.708379 -0.708813 -0.000322002)
(2.00275 -0.000438638 0.00119597)
(0.944874 0.821434 -0.00314266)
(2.00621 0.000807632 -0.00125506)
(0.708492 0.706489 -0.0024887)
(2.002 0.000447468 0.00247893)
(0.916133 0.763282 0.00463868)
(2.00481 -0.00127382 0.000231108)
(2.00273 0.000625275 -9.90187e-05)
(0.813498 -0.423714 -0.00588589)
(0.709314 0.711152 0.00563531)
(2.00663 0.00134579 0.00494016)
(0.70666 -0.707344 -0.00134421)
(2.0043 -0.00086865 -0.00111913)
(2.00393 0.000487302 7.24082e-05)
(0.707556 0.70774 -0.00758523)
(0.705698 0.710179 -0.0010646)
(0.697879 0.614368 -0.0171792)
(0.70844 0.711409 -0.00161733)
(1.49004 -0.074547 0.0450463)
(2.00383 -0.000805946 0.00347721)
(0.715375 0.699673 9.57547e-05)
(0.707813 0.707667 0.000245769)
(2.00324 0.000191878 -0.000679913)
(0.707803 0.711518 -0.00359913)
(2.00341 0.00146137 -0.000171748)
(0.708652 0.711553 0.00428341)
(2.00503 0.000538139 -0.00165505)
(0.708215 -0.70805 0.00068056)
(2.00416 -0.00549689 0.00360873)
(2.00562 0.00212762 -0.000403903)
(2.00353 -0.00327584 0.00036061)
(2.00381 0.000585096 -0.00158581)
(0.714993 0.707809 0.000770417)
(2.00682 0.00382577 -0.00574343)
(0.71356 0.711494 6.86168e-05)
(0.711693 0.707985 -0.00176403)
(2.00445 0.00152894 0.00285427)
(0.711 0.709459 -0.000502714)
(2.00231 -0.000292278 0.000531524)
(0.689339 0.634502 -0.0179818)
(2.00462 -0.000222474 -0.000283279)
(0.708606 -0.704539 0.000937134)
(2.00025 0.00829634 0.00461337)
(0.708768 -0.705599 -0.00396645)
(0.850739 0.750456 0.0190413)
(2.09751 0.0743563 -0.00660966)
(2.00143 -2.50851e-06 0.000674116)
(2.00605 -0.00130863 -0.00275612)
(2.00196 7.65229e-05 -0.0019551)
(2.00531 -0.000173639 -0.000403145)
(2.00612 0.000590107 -0.000688973)
(0.705966 0.715089 -0.00530651)
(2.00378 0.000703519 0.00154531)
(2.00108 0.000844799 0.000642433)
(0.710756 0.711954 -0.00102764)
(1.78888 -0.0270287 -0.0451737)
(2.06064 -0.00842211 -0.00449338)
(2.00294 -0.00142613 0.000524607)
(0.702749 0.692834 -0.00372886)
(0.884062 0.177191 -0.144824)
(2.00386 0.0019171 -0.000425352)
(2.0029 -0.00390271 0.000838326)
(1.66761 0.422568 -0.000971487)
(0.907617 -0.48177 -0.035338)
(2.00312 -0.00230441 -0.00245884)
(2.00477 -0.00516385 -0.000835519)
(1.99748 -0.000923527 -0.00120644)
(2.00424 0.0019335 -0.00666647)
(1.98496 0.0118694 0.00458147)
(1.79348 0.226426 -0.00905255)
(0.885053 0.743087 0.00670385)
(1.84404 -0.0562481 0.012796)
(1.77961 -0.160847 0.025402)
(0.706839 -0.708531 -0.00135111)
(2.00658 -0.00174277 -0.00111239)
(0.713528 0.706169 -0.0072888)
(0.832039 0.764694 0.00978638)
(2.00288 0.00329545 0.000834633)
(1.81091 0.276303 0.00361553)
(2.18454 -0.172025 -0.0360917)
(1.9736 -0.340448 0.00121654)
(0.839252 0.799329 -0.0670294)
(1.99886 -0.000612456 -0.00891712)
(2.00397 0.000818695 0.00136115)
(0.707374 0.704876 -0.00156397)
(0.920037 0.493002 -0.0253343)
(2.00482 0.000476991 0.00220041)
(0.710151 -0.708708 -0.000627135)
(0.707162 0.704707 -0.00117037)
(0.708495 0.710138 0.00113812)
(0.710089 0.706331 0.000718042)
(1.99897 -0.00503641 0.00247147)
(0.70734 0.707624 -0.000881365)
(0.711514 -0.711074 0.00178084)
(2.00439 0.00330045 -0.00130657)
(2.00354 0.00120411 0.00100859)
(1.0333 -0.91244 -0.0560548)
(2.00164 0.000115028 0.00205734)
(0.834732 0.660047 0.0169975)
(2.00298 -0.00202829 -0.00186055)
(0.694056 -0.698447 -0.00445632)
(0.70799 0.709139 -0.0025445)
(2.00206 0.00100476 -0.00430025)
(0.708033 0.70637 0.00173973)
(0.706372 0.705097 0.00054384)
(0.814786 0.783293 0.0210827)
(1.99803 -0.00316282 0.00258343)
(1.18954 0.990982 -0.132196)
(2.00405 0.0023698 -0.00163337)
(2.00525 0.000595263 -0.000816632)
(0.704172 -0.700375 -0.00291608)
(2.11516 0.00665933 0.0565502)
(2.0036 0.00380639 -0.00355386)
(2.00144 -0.000865332 -0.0029534)
(2.02144 0.0192344 0.00148207)
(2.05813 0.0172117 -0.0474878)
(2.00126 -0.00268422 0.00343557)
(0.712515 0.712119 0.00346242)
(2.00051 -0.000472529 -0.000223125)
(2.00448 0.00031544 0.00217118)
(0.70272 -0.711513 -0.000936964)
(2.00339 0.00110931 -0.000273923)
(2.00412 0.0014873 0.00211622)
(2.00386 -0.00234219 -0.00273361)
(1.99855 -0.00898769 -0.0134357)
(2.00483 0.00123094 -0.00042368)
(2.00234 0.0010819 -0.00152832)
(0.707647 -0.700391 0.00525948)
(2.00469 0.000991381 0.00029343)
(1.91661 -0.00155592 -0.00746439)
(0.858669 0.74815 0.0457543)
(2.00536 -0.00230187 -0.00167298)
(2.00489 -0.00308819 -0.00328181)
(1.16351 0.938598 -0.14303)
(2.00387 0.000335136 0.000412157)
(2.00671 -0.00208757 -0.000930155)
(2.00309 -0.00115838 -0.00382031)
(2.00597 0.00172138 -0.0031522)
(2.00251 -0.000550527 -0.000745767)
(2.00288 0.000750513 -0.00288209)
(0.695212 0.678352 -0.00129453)
(2.00461 0.00157361 0.00220857)
(2.00411 -0.00306105 0.00214703)
(0.796124 -0.484487 0.0088757)
(2.00105 0.000528228 -0.00117043)
(2.00412 -0.000996444 -0.00109517)
(2.00186 -0.000125964 0.000936892)
(0.709031 0.70759 0.000930136)
(1.99506 0.00897287 -0.0164982)
(0.711044 -0.705662 0.00525182)
(0.711077 0.706254 -0.00191265)
(0.706207 0.706252 3.83503e-06)
(0.71219 0.709003 0.00226603)
(2.00548 -0.000371678 0.00142401)
(0.854401 0.73128 0.0361713)
(1.63571 -0.0967812 0.113479)
(0.704146 -0.709355 -0.00123686)
(0.708527 0.720815 -0.00226244)
(2.00684 -0.00176982 0.00251453)
(2.00457 -0.000207406 -0.000568953)
(0.707122 -0.708022 0.00073277)
(2.00356 0.000268813 9.1919e-05)
(0.709632 -0.707331 0.00412772)
(0.708962 -0.708864 -2.28139e-06)
(0.698167 -0.702304 0.00252297)
(2.0049 -0.000719646 -0.00260042)
(2.00376 0.00131152 -0.00013047)
(0.845366 0.753007 0.00112204)
(0.715058 -0.707748 0.000216138)
(0.707816 0.711652 -0.0019137)
(0.711805 0.711445 -0.000735642)
(2.05925 0.00274173 -0.0144571)
(2.00176 0.00208419 0.000268917)
(0.847135 0.798234 0.0360202)
(2.00416 -0.00163052 -0.000122043)
(1.94264 -0.0237858 -0.0712804)
(0.707855 0.708226 0.00422255)
(2.00379 -0.000284532 -0.00214749)
(1.99967 0.00129524 0.000808851)
(1.99404 0.00844823 -0.00500199)
(0.704911 0.707934 0.00246381)
(0.708015 0.707039 0.00171994)
(2.00577 -0.000649954 0.00078036)
(2.00431 -0.000543247 -0.00158495)
(0.844041 0.76466 0.00929366)
(0.710363 0.710612 0.00161401)
(0.719981 0.69889 -0.00288278)
(2.00056 -0.00435586 -0.00165657)
(0.709899 -0.709629 -0.00120396)
(0.70693 -0.709512 -0.00143465)
(0.706602 0.710132 0.00207553)
(2.00479 0.000434705 -0.000961739)
(2.00321 -0.00161159 -0.00178264)
(0.707412 0.70898 0.000383765)
(0.803599 0.159824 0.14676)
(0.881088 -0.109003 -0.0149768)
(1.99654 0.0119402 0.00202239)
(0.711392 0.713973 0.000251426)
(0.711345 0.709006 0.000539941)
(2.00295 -0.000648086 -0.00107644)
(1.98667 0.0237785 0.0216557)
(0.860257 0.763453 0.0406408)
(1.25682 0.408998 0.0159225)
(1.97147 0.0507868 0.0614344)
(2.003 0.000319349 0.00112572)
(2.00745 -0.000426066 0.00109892)
(0.740958 0.689494 0.00528022)
(2.00375 0.00136754 -0.000717899)
(2.00923 0.00166331 0.00109606)
(0.709614 0.707265 -0.00267575)
(0.699717 -0.696363 0.000661008)
(0.709313 0.707501 -0.00140932)
(0.708979 0.709071 0.00168482)
(0.708172 0.71098 0.000651175)
(0.711421 0.707578 -0.00220512)
(2.00542 -0.00100335 0.00248475)
(0.704933 -0.706993 0.00445031)
(0.706976 0.707542 0.00152017)
(0.702247 0.697393 0.00412411)
(2.00554 -0.00151076 0.00150607)
(2.00426 -0.00063678 0.000479992)
(0.711172 -0.702534 0.00340381)
(0.701193 -0.692658 0.000897309)
(2.00162 0.00326987 0.00264393)
(2.00012 0.000250068 -0.00104991)
(2.00061 0.00111125 3.29379e-05)
(0.706616 -0.705335 0.00351273)
(0.705439 0.712987 -0.000756128)
(2.00168 0.000840523 -0.00117753)
(0.709296 -0.707169 0.00123751)
(2.00207 0.00141162 0.00134872)
(2.00314 0.00115476 0.00241327)
(2.0019 0.00145129 -1.89052e-05)
(0.712211 -0.706835 0.00037256)
(0.706647 -0.71088 0.00396175)
(0.709373 -0.708562 0.0001966)
(0.710131 0.716099 0.00146563)
(2.0051 0.000346677 -0.000788658)
(0.710933 0.712065 0.00378109)
(0.707794 0.707057 -0.0002096)
(2.00586 0.0090413 -0.0059618)
(0.707597 -0.706464 0.00173438)
(2.00329 0.00237256 -0.000658098)
(2.00225 0.00301361 -0.000245734)
(0.720517 0.693837 0.00313682)
(2.00393 -0.00123779 0.00063594)
(0.952124 0.100739 -0.0139155)
(2.00307 0.00231185 -0.00268194)
(2.00329 -0.000877881 -0.0015016)
(2.00414 0.000754005 -0.00167111)
(2.00328 -0.00236944 -0.00173537)
(1.59073 0.0127522 -0.0410236)
(0.850929 0.67109 0.0137677)
(2.00299 0.00260154 -0.00249852)
(2.00298 -0.00112198 -0.00137128)
(2.00783 -0.000176525 -0.00161358)
(0.726195 0.630597 -0.0229667)
(1.11932 0.0653888 -0.029591)
(1.10482 -0.116101 0.0203932)
(2.00332 -0.000754741 -0.00353881)
(0.710408 0.709795 0.00128089)
(2.00061 -0.00500654 -0.00103506)
(2.00566 -0.00441549 0.00059899)
(1.99983 -0.00245687 -0.000825517)
(0.75755 -0.552808 -0.0388605)
(0.709457 -0.710719 0.000280252)
(0.706826 -0.708227 -0.00191112)
(2.00462 -0.000367476 0.000838484)
(0.817569 0.675942 -0.0105441)
(2.00996 0.00420124 -0.00534854)
(0.767588 0.70338 0.00390128)
(2.00296 -0.000102583 0.00481264)
(2.00451 0.00284376 0.00104539)
(2.004 0.00163286 0.000365673)
(2.00694 -0.000537787 -0.00425469)
(0.705127 0.707436 -0.00153024)
(0.703731 0.704574 0.000822528)
(0.771144 -0.694676 -0.00214758)
(2.00386 -0.0014961 0.000246202)
(0.712269 0.710064 -0.00138268)
(0.822065 0.706646 -0.03579)
(2.09042 0.0455732 -0.0309263)
(0.713541 0.71093 -0.0034182)
(0.705344 0.705471 0.00563031)
(0.708161 -0.705729 -0.00268954)
(0.709691 0.711138 0.0047747)
(2.00375 0.0015344 0.000938453)
(0.729808 0.691085 -0.00122305)
(0.711398 0.709215 -0.0019041)
(1.68455 0.243685 -0.153915)
(0.832004 0.668216 -0.00522337)
(0.706783 0.706876 -0.00232682)
(1.00308 -0.600118 0.0313543)
(0.712454 0.709257 0.000203613)
(1.99114 -0.00117079 0.00367132)
(2.00424 0.00294559 0.00169376)
(0.707503 -0.704145 -0.0023268)
(2.00466 -0.00131795 0.00036208)
(1.96725 0.298774 -0.0362474)
(1.996 -0.00277435 0.000371482)
(2.12772 0.0688712 0.00277185)
(2.00583 -0.000263339 -0.00052394)
(0.712498 0.706729 -0.000926196)
(2.00423 0.00266161 -0.00293889)
(2.05873 0.00179339 0.00239851)
(1.99306 -0.000441786 0.000348007)
(0.708755 -0.704289 -0.00312205)
(2.1253 0.557525 0.146249)
(2.00684 0.00093079 -0.00272436)
(0.958172 0.756296 -0.0456784)
(2.00558 -0.00486972 -0.00158128)
(2.08812 0.00669701 -0.0144639)
(2.06102 0.0197159 0.0058484)
(2.00351 0.00172521 -0.00251389)
(2.00656 0.00489693 -0.00108763)
(2.10605 0.00963437 -0.00920607)
(2.00509 -0.00093127 -0.00446709)
(2.00436 -0.00158422 0.00091155)
(0.704608 0.706344 0.00488923)
(0.709857 0.70216 0.00069216)
(2.00525 -0.000147539 -0.0048344)
(2.00468 -0.00229576 0.00195751)
(0.709522 0.709893 -0.00351034)
(2.00429 0.00145104 -0.00166501)
(2.00303 -0.00139408 0.00432405)
(2.00234 -0.00121048 0.000711892)
(0.715105 0.705712 -0.00131588)
(2.04524 0.0168558 0.00839385)
(0.710741 0.709476 -0.0010081)
(2.00277 -0.00299548 0.00672237)
(2.00346 0.000910114 0.00191759)
(0.710694 0.709797 -0.00182915)
(1.98802 0.00857709 -0.0179007)
(1.99778 0.00217502 0.0058523)
(2.03864 0.0161793 0.00731754)
(2.01226 -0.00679338 0.00572044)
(0.727377 0.711452 -0.000814099)
(2.00498 0.00268392 0.00139621)
(2.05765 0.0260963 0.00547878)
(2.12606 -0.0536153 0.0131421)
(1.8508 0.017771 0.0117202)
(1.89006 -0.002617 -0.00601939)
(0.712771 0.706773 -0.000688193)
(0.711291 0.710737 0.0052787)
(2.01494 -0.00486975 -0.0030506)
(0.707764 0.710433 0.000685362)
(2.00152 0.000560888 -0.00284296)
(1.99208 -0.00646069 -0.00723373)
(1.20832 0.140918 -0.0274219)
(2.20642 -0.139655 0.0513724)
(1.95288 -0.086151 0.026872)
(2.17167 -0.0810322 0.0188735)
(0.708021 0.711651 0.0010803)
(0.958045 0.816247 0.00530523)
(2.00526 -0.000438023 -0.00690047)
(0.705334 -0.706388 -0.00392031)
(0.400964 -0.279318 0.121409)
(1.99323 -0.00919285 -0.00636341)
(0.711011 0.70781 -0.00233869)
(0.711145 0.708085 -0.00141861)
(1.8293 -0.0354484 -0.00259203)
(1.52331 -0.0872003 0.0308104)
(0.706814 0.708012 0.00329262)
(1.886 -0.0266936 0.00121062)
(0.707889 0.707322 0.00453701)
(0.709066 0.711287 -0.00255405)
(0.707783 -0.713066 0.00136667)
(0.708536 -0.706431 0.00043519)
(0.698373 -0.693319 -0.00194083)
(0.710328 -0.70687 -0.000640168)
(1.97332 -0.00393109 -0.00538831)
(0.709719 0.707094 0.00136414)
(0.710812 0.709903 0.000857103)
(0.704222 0.70983 0.00187333)
(1.71954 -0.385027 -0.102883)
(1.95787 -0.0104581 -0.0196758)
(2.0034 0.00240111 -0.000459507)
(2.00501 -0.00458946 -0.00387791)
(0.707211 0.701649 -0.00260385)
(0.715873 0.705193 -0.00214734)
(1.95367 -0.0194752 -0.0205716)
(0.709135 0.70924 -0.0027042)
(0.711554 0.70536 -0.00325369)
(1.14633 0.641667 0.0266714)
(2.04174 -0.00786877 0.000450308)
(2.00117 0.00310473 5.82196e-05)
(0.709876 0.709033 -0.000123227)
(0.713653 0.708061 0.00366515)
(0.707226 0.705959 -0.000401229)
(0.713502 0.709764 0.000348141)
(0.713925 0.710045 0.00310206)
(0.7093 0.711329 -0.000600462)
(2.00268 -0.0211147 -0.0141384)
(0.710286 0.706456 -0.00135544)
(1.50186 0.0204942 0.0443521)
(2.00368 0.000617939 0.00156856)
(0.709745 0.712222 -0.000192875)
(0.706072 -0.708766 0.000517956)
(0.699899 -0.694048 -9.74809e-05)
(1.76546 0.0247232 0.0894211)
(0.695297 -0.695974 -0.00408534)
(0.705842 -0.707758 -0.00298733)
(0.707306 0.706204 -0.00664377)
(1.89752 -0.0213387 -0.00392776)
(0.707849 0.711304 -0.00178891)
(2.01109 -0.010785 -0.0069992)