/*--------------------------------*- C++ -*----------------------------------*\
  =========                 |
  \\      /  F ield         | OpenFOAM: The Open Source CFD Toolbox
   \\    /   O peration     | Website:  https://openfoam.org
    \\  /    A nd           | Version:  10
     \\/     M anipulation  |
\*---------------------------------------------------------------------------*/
FoamFile
{
    format      ascii;
    class       volScalarField;
    location    "7";
    object      SgT;
}
// * * * * * * * * * * * * * * * * * * * * * * * * * * * * * * * * * * * * * //

dimensions      [1 -1 -3 -1 0 0 0];

internalField   nonuniform List<scalar> 
111485
(
5.5253e-16
2.84615e-13
1.71581e-14
4.69773e-10
5.51794e-15
3.73214e-16
4.72214e-13
8.69162e-15
3.61059e-14
1.31656e-13
1.81331e-12
1.0188e-12
6.61997e-14
2.00598e-13
2.67901e-13
2.01782e-14
5.96474e-15
1.40198e-13
1.24672e-14
1.11278e-09
9.77256e-09
2.7568e-17
5.82802e-14
5.27604e-15
1.85078e-13
0.0349762
2.8271e-13
4.77076e-13
1.75929e-13
1.40256e-17
3.20461e-15
2.65446e-14
1.8093e-14
1.15048e-16
7.5154e-15
6.06685e-19
2.33736e-15
2.02955e-14
2.42598e-14
1.5411e-13
4.80888e-18
1.8098e-13
3.88755e-14
1.54537e-14
2.37637e-15
8.41214e-18
1.40966e-14
4.41184e-15
2.0175e-13
0.0102703
0.019898
9.49646e-15
0.0110157
3.69336e-14
0.00794054
1.90637e-12
1.09759e-14
9.87479e-19
6.05636e-13
7.34261e-14
6.06216e-14
6.57901e-15
6.44443e-13
9.29187e-15
1.29838e-14
6.78964e-14
5.5992e-14
6.49532e-13
1.76521e-13
8.05201e-14
1.54897e-13
1.28281e-13
6.16712e-08
1.15736e-13
2.06564e-16
1.5824e-13
1.7722e-17
9.86845e-15
7.19682e-16
1.77804e-14
7.32341e-14
1.17355e-14
1.11498e-15
1.3255e-16
1.029e-13
1.40745e-14
2.17102e-14
1.12548e-14
2.62526e-14
1.13857e-12
6.24235e-15
5.47843e-13
1.86776e-13
1.33998e-13
2.68402e-13
7.50115e-17
7.22004e-17
3.98182e-15
4.01224e-14
1.36744e-13
5.74538e-15
1.06829e-13
3.82614e-18
1.68176e-13
2.06016e-13
1.78658e-14
7.22062e-18
4.37082e-15
1.20586e-14
2.43437e-14
1.71447e-12
3.78152e-13
7.47027e-15
8.88563e-14
0.0305673
5.11739e-15
0.0353412
3.87077e-18
1.0971e-12
9.61984e-10
0.0242305
3.43615e-16
1.12257e-15
1.27342e-18
1.51693e-13
2.61772e-14
2.22908e-15
6.60583e-13
1.70185e-17
4.1988e-14
3.51208e-14
8.98041e-15
2.17087e-17
4.12093e-15
7.48535e-15
2.29799e-13
4.36674e-16
8.97206e-15
7.47784e-13
1.34005e-12
6.36468e-14
1.43562e-13
7.59702e-14
1.68704e-13
3.92985e-15
1.5863e-13
5.20578e-16
4.38071e-17
2.66974e-17
2.94948e-15
6.00099e-14
1.42186e-08
1.8235e-15
4.74813e-14
1.21762e-14
1.13039e-13
1.70755e-13
2.74388e-13
2.34211e-14
1.67528e-18
1.20059e-12
4.90058e-14
4.32706e-14
1.96851e-14
1.89893e-14
1.82712e-13
1.18945e-14
1.4587e-18
8.6502e-15
2.75347e-14
4.28249e-18
7.13862e-18
6.3849e-14
9.82778e-17
2.73208e-13
9.76256e-14
1.48041e-14
4.92094e-07
0.0714861
1.86475e-14
4.8659e-07
3.941e-13
9.14341e-14
3.63833e-14
3.64314e-14
1.7272e-13
3.33649e-14
2.09421e-13
3.2262e-15
4.06806e-16
4.74322e-14
2.03522e-06
1.44044e-16
1.13627e-13
2.51248e-14
1.09535e-14
1.31946e-13
1.6415e-13
9.59554e-17
7.51437e-14
2.65414e-13
7.27951e-14
8.03178e-14
1.44924e-14
9.91745e-17
4.55692e-14
1.3606e-13
4.58936e-07
6.62812e-15
1.2063e-14
1.41667e-13
2.39215e-14
2.80629e-07
9.25238e-17
3.71144e-14
1.33026e-14
1.03376e-15
1.83162e-16
4.02239e-14
1.09521e-13
2.85211e-14
2.55626e-18
1.12305e-12
8.85783e-15
4.63647e-14
2.54929e-17
5.66549e-18
2.07878e-13
3.68919e-14
1.33417e-14
5.36733e-12
1.14301e-13
1.29985e-12
1.18428e-12
2.05108e-14
2.47555e-06
1.70781e-14
3.4816e-17
3.41585e-14
5.24832e-14
1.73933e-13
6.05446e-14
4.54608e-14
2.90683e-18
5.05003e-14
6.94558e-13
1.19251e-18
5.19774e-16
1.17179e-13
1.39079e-12
1.51234e-14
1.1013e-12
7.94486e-13
8.18839e-18
5.40682e-15
4.35912e-15
0.0170271
1.36191e-10
3.95488e-14
1.53236e-05
5.61072e-14
1.44208e-12
1.57562e-13
8.0693e-18
1.56356e-13
1.23619e-10
5.29598e-15
7.30591e-18
1.24264e-13
4.85826e-14
3.5646e-13
1.47733e-13
4.05723e-14
1.97986e-13
2.12424e-13
4.99672e-15
1.82068e-12
3.82613e-13
1.58289e-14
1.55471e-17
3.44007e-14
6.08158e-14
5.25244e-14
8.15809e-13
2.49841e-11
1.21063e-13
3.1848e-14
1.44799e-14
2.45727e-13
3.17857e-14
5.21618e-14
9.74783e-14
6.72204e-15
1.56832e-18
6.35217e-13
2.73864e-17
1.05554e-14
2.33823e-12
1.09922e-13
1.74397e-13
3.17474e-15
0.00921016
1.95868e-18
1.42058e-12
4.15607e-14
1.78061e-08
2.97199e-17
0.0160998
6.37744e-14
3.92732e-13
4.93737e-13
2.10832e-14
2.17214e-14
5.34284e-15
5.00234e-17
7.39348e-17
2.40438e-13
3.52597e-13
1.56131e-13
3.0098e-14
1.6972e-13
3.47155e-17
1.1916e-16
3.43239e-14
4.80253e-15
2.68491e-13
1.0525e-13
5.30581e-19
9.24012e-14
6.58029e-15
0.0338848
1.98971e-13
1.78546e-14
1.26803e-13
3.9998e-13
3.23797e-14
4.23999e-15
9.13554e-18
1.657e-13
1.18053e-13
2.34229e-15
1.0354e-14
6.65363e-14
3.44408e-14
8.94761e-15
1.07316e-12
6.68297e-14
1.09722e-13
2.11148e-16
1.24682e-14
1.14013e-13
5.72955e-14
3.06373e-14
1.65341e-13
2.69893e-16
3.58659e-16
6.89038e-17
7.30546e-11
3.66134e-13
4.04541e-13
1.09589e-14
2.13191e-15
2.66084e-17
7.21558e-14
3.83929e-18
1.23881e-15
1.46341e-14
2.17143e-07
4.53668e-14
5.01917e-18
5.65026e-19
1.4506e-14
6.15429e-20
1.38353e-13
1.2889e-13
2.81493e-17
2.25901e-14
7.80529e-14
3.95659e-14
2.9913e-13
4.56177e-14
5.76163e-14
1.26378e-14
1.05935e-12
1.6074e-12
5.38513e-14
2.25122e-16
5.04164e-14
1.3792e-17
2.26632e-13
7.09725e-14
1.74682e-14
2.32429e-17
1.64698e-12
2.85496e-14
1.5875e-13
2.03389e-13
1.09499e-15
1.34959e-14
3.22271e-13
1.66342e-15
1.61208e-14
2.81383e-13
1.84101e-16
1.88894e-10
4.62644e-14
2.29008e-15
6.61564e-18
0.0265653
1.12292e-13
6.4858e-14
4.40655e-13
3.5854e-16
7.44351e-12
1.64191e-14
2.17546e-14
4.34277e-15
5.27104e-14
3.81126e-16
4.70172e-15
9.35352e-14
7.7486e-15
1.80968e-13
2.28962e-13
2.03759e-14
8.67431e-14
9.34046e-15
5.65102e-14
1.59267e-13
6.44776e-17
5.67477e-15
1.27428e-13
6.4853e-18
1.99303e-14
3.99612e-14
3.23964e-16
2.94409e-14
1.28042e-14
4.31584e-13
7.15131e-16
6.83718e-14
2.95544e-13
4.93775e-13
1.87119e-13
4.31858e-15
1.00739e-14
1.48313e-17
2.23961e-13
2.19481e-13
4.81284e-17
1.04436e-13
8.45618e-13
8.23177e-15
4.79799e-18
5.59675e-10
4.85698e-08
1.32373e-13
3.80058e-13
3.5585e-14
2.07883e-13
1.19881e-14
4.35137e-16
1.99135e-13
8.49431e-16
1.00415e-13
6.87894e-15
3.06127e-17
6.5794e-17
4.39942e-13
7.34769e-17
2.51294e-17
4.79787e-14
2.56574e-14
9.85808e-18
2.26789e-15
6.28296e-19
8.47673e-15
2.40931e-17
1.30881e-16
1.3434e-14
3.40442e-18
4.78679e-17
2.13971e-13
1.45658e-16
2.26215e-13
2.77353e-13
3.13461e-14
6.35125e-15
5.30199e-14
9.38088e-17
8.0263e-14
2.43685e-13
3.27285e-14
1.27131e-13
1.64337e-14
3.61709e-14
6.73847e-14
1.44251e-13
8.31699e-13
8.71871e-13
1.20296e-14
4.61206e-17
1.35398e-12
1.52451e-14
1.42406e-13
1.29712e-16
3.5383e-14
2.407e-14
2.73963e-13
1.23867e-13
2.16922e-13
2.03954e-16
1.61128e-12
2.76926e-06
5.50189e-14
7.0612e-15
5.59092e-18
6.70686e-17
3.91189e-14
4.17735e-18
4.79734e-14
3.44878e-14
5.59768e-15
2.88931e-18
2.34699e-12
7.88633e-17
1.08936e-13
7.50543e-16
1.92512e-14
1.41916e-16
4.63545e-15
2.02988e-14
1.07801e-12
5.42562e-13
1.6668e-14
4.67659e-13
2.8846e-14
6.02507e-17
1.71649e-13
2.97652e-16
1.39107e-13
4.18494e-15
4.8698e-14
8.29715e-17
8.14021e-14
2.38047e-06
2.93892e-15
3.80452e-13
2.83273e-13
3.54972e-14
4.04479e-13
1.09654e-13
1.90279e-13
6.69572e-18
1.93475e-13
3.86327e-13
1.29359e-16
4.43563e-14
9.93222e-15
3.35013e-13
1.04396e-14
1.29986e-14
6.02244e-14
1.24283e-12
2.78354e-14
2.12741e-13
3.46491e-13
1.97935e-13
9.34092e-14
1.1954e-13
2.79008e-13
3.55919e-14
8.76938e-15
4.12497e-14
1.5851e-13
2.65092e-14
3.57202e-13
4.39762e-18
2.18776e-14
6.52377e-14
1.7529e-14
2.39425e-14
6.1779e-14
4.53966e-15
1.48586e-13
1.68696e-14
3.01491e-14
2.54652e-14
6.21571e-15
0.0177338
8.76234e-16
1.98409e-17
2.06349e-14
4.41695e-13
6.70701e-18
3.78491e-17
1.02324e-14
5.16007e-13
5.29229e-13
6.24119e-14
5.69639e-15
8.97761e-13
0.00430981
8.08259e-17
3.75724e-14
2.25599e-17
3.15534e-15
5.1938e-15
1.21545e-13
3.51768e-15
6.07739e-14
4.68882e-14
0.0428447
4.51217e-14
4.35566e-15
2.55082e-14
1.24711e-14
1.06237e-14
4.88677e-14
1.1764e-16
1.02521e-13
9.74271e-14
2.78775e-17
5.43024e-14
2.6017e-15
1.45065e-13
4.73375e-13
1.56755e-13
6.60174e-14
1.67264e-16
2.15806e-13
1.25596e-15
1.48327e-15
1.76559e-13
1.04623e-13
1.16462e-15
4.52205e-14
6.55181e-14
2.52571e-14
3.21556e-13
1.15222e-12
3.64209e-14
3.67209e-14
8.83326e-14
1.15628e-14
1.43714e-11
1.78793e-13
1.26462e-13
2.41528e-13
3.58616e-16
1.03796e-14
2.16399e-17
5.31895e-16
6.33631e-17
2.92222e-14
1.08469e-13
4.58333e-15
4.34353e-13
2.53753e-16
1.69365e-16
3.2875e-14
1.01543e-13
9.58185e-06
3.63429e-14
4.45226e-16
4.91187e-17
0.0130483
2.57744e-14
4.77784e-14
2.70553e-14
1.18424e-17
3.0543e-16
5.39671e-17
1.07444e-13
3.03331e-13
2.11056e-14
2.22363e-13
3.0577e-14
1.47322e-17
1.41411e-13
2.40018e-13
2.73244e-13
1.66677e-16
9.95203e-16
1.19645e-13
5.20096e-14
2.51431e-14
4.28673e-17
1.22558e-14
4.40419e-15
1.27845e-16
0.0929735
5.75269e-16
2.31042e-13
2.21349e-14
5.6697e-16
1.13653e-12
2.30199e-12
5.23318e-13
1.23803e-18
5.84161e-15
4.14339e-14
1.95977e-14
1.02133e-15
1.4511e-14
9.39633e-15
5.38299e-13
2.40066e-13
3.5982e-15
2.89158e-13
2.09841e-15
8.75304e-19
0.00359049
6.07406e-16
1.32307e-16
1.54106e-17
5.40408e-16
4.32578e-13
1.5939e-14
2.13764e-16
3.28404e-14
3.28903e-13
3.67144e-13
0.0131116
0.00314452
1.64039e-14
1.99991e-13
7.93386e-13
0.00473956
7.54762e-17
3.32876e-13
4.96654e-18
1.82988e-12
1.86828e-13
1.57478e-13
0.025873
5.16388e-14
4.26215e-14
5.32841e-17
4.01546e-13
7.1319e-17
6.27135e-16
3.92314e-14
2.28892e-13
2.63817e-13
1.31285e-13
2.24184e-14
3.00343e-13
1.8291e-13
7.8067e-14
2.74e-14
1.30545e-13
7.62633e-15
3.11418e-14
6.69066e-15
4.07785e-13
7.98301e-14
5.35831e-14
2.93771e-14
1.17411e-14
1.83715e-13
2.72877e-13
2.02638e-17
2.92643e-13
3.75456e-13
1.8471e-13
1.90166e-11
9.91236e-16
7.11719e-18
1.42184e-14
3.51884e-14
6.29318e-13
1.63171e-14
4.9817e-14
1.9043e-13
6.67098e-14
8.42171e-15
9.19784e-16
1.96552e-14
6.57139e-08
7.29931e-14
1.40356e-14
2.89049e-15
4.08379e-14
3.5012e-18
6.69882e-19
1.4439e-16
5.72679e-17
3.47185e-13
1.04631e-14
8.03585e-18
5.15283e-14
2.95347e-14
2.44651e-18
2.24326e-13
4.97418e-16
9.01e-15
3.90121e-13
1.00924e-08
9.25303e-14
4.99725e-14
2.23026e-13
1.74543e-14
4.35287e-13
3.47808e-17
3.48573e-14
3.67299e-15
1.28953e-13
1.80826e-17
3.17513e-14
3.20435e-13
1.05747e-15
4.23642e-13
1.29693e-14
5.84581e-14
9.67108e-14
3.90195e-13
3.05644e-15
2.84524e-13
1.20009e-13
7.95051e-17
3.62933e-14
1.21444e-12
9.06655e-13
1.25073e-17
1.02653e-13
5.19901e-14
2.2796e-12
9.16308e-14
1.16964e-13
5.93425e-17
5.53508e-13
7.5533e-13
4.04627e-15
1.67584e-13
7.27587e-14
6.64686e-14
4.38593e-14
1.08876e-14
1.16453e-13
3.19031e-14
3.0951e-13
2.761e-14
1.59762e-14
6.20873e-17
2.75868e-17
2.78463e-13
1.76408e-16
6.81998e-14
1.74108e-14
5.00311e-15
5.02502e-14
1.41275e-13
9.57185e-14
7.22467e-17
2.19294e-14
5.12638e-13
3.40219e-17
4.34534e-14
3.0038e-14
3.87154e-14
1.2377e-15
1.84229e-13
7.16713e-14
1.36176e-16
5.88422e-14
1.06207e-16
5.54207e-17
1.20374e-17
4.31786e-16
0.00237165
6.06518e-18
5.19925e-14
2.22954e-14
1.19896e-17
3.24609e-17
2.39279e-13
7.51165e-14
7.05971e-14
4.46338e-13
1.30727e-16
2.95396e-15
2.28407e-14
3.88964e-16
1.09825e-15
1.62705e-15
1.65033e-14
4.49901e-13
1.67231e-15
1.99234e-15
1.47488e-14
3.85764e-15
5.15081e-18
1.48314e-15
8.89102e-15
1.37343e-14
1.18788e-13
8.88724e-14
2.13743e-16
1.66125e-15
0.0030022
1.20669e-13
0.00547107
2.95317e-13
4.65072e-17
6.67895e-14
3.15169e-17
6.63811e-15
9.85691e-14
4.56943e-14
2.0765e-16
3.64618e-14
2.08522e-14
2.14963e-14
9.92858e-06
2.86142e-14
2.04296e-13
0.0272174
3.79833e-15
8.35131e-14
5.67711e-16
8.4359e-13
9.77161e-14
1.83562e-14
1.07096e-14
9.38044e-17
2.96697e-13
9.11513e-15
3.76649e-15
1.96669e-12
9.96807e-18
3.35321e-13
1.82244e-16
0.00228394
1.73957e-13
1.23889e-13
0.00371442
5.29881e-13
1.179e-14
7.16693e-14
2.75007e-14
1.88621e-16
8.66567e-17
9.3222e-14
1.98844e-13
5.7758e-14
1.47585e-13
1.19099e-16
4.25798e-14
6.52859e-13
7.04687e-17
5.27501e-15
4.44574e-16
3.61561e-13
1.76818e-14
1.02267e-13
0.0136915
6.22248e-15
1.49941e-14
4.34624e-14
4.69786e-14
1.07012e-14
2.20279e-13
3.55576e-14
1.25745e-13
1.70254e-15
7.58037e-14
4.36581e-16
3.13747e-17
1.70019e-17
1.82703e-14
1.72645e-18
1.43568e-15
4.65633e-18
3.70528e-13
0.0278419
3.19028e-14
1.34755e-13
0.00396273
1.60177e-16
0.000492169
4.66253e-18
1.97035e-14
0.000839588
2.97809e-13
1.16342e-13
6.10474e-15
4.47828e-15
4.68526e-14
5.6512e-15
1.26358e-14
1.54592e-14
2.73206e-17
1.34317e-14
2.21806e-13
6.7157e-12
0.0113646
2.66561e-14
5.239e-16
1.41527e-14
1.38937e-13
1.31443e-15
3.41945e-14
2.44954e-13
5.28102e-14
2.52042e-14
6.74583e-14
3.20733e-15
4.20079e-14
6.29274e-14
2.64266e-14
2.49212e-14
8.89492e-14
4.1945e-15
1.41589e-14
3.88625e-15
0.0323706
7.17147e-13
0.000118052
3.24925e-17
2.3253e-11
1.218e-16
3.36634e-17
5.78536e-17
2.21111e-14
7.0039e-14
1.23535e-12
2.41811e-13
0.0441225
2.22676e-15
1.5883e-14
7.19496e-18
2.53814e-13
7.17966e-15
0.00598076
9.09295e-16
6.2845e-13
3.01928e-13
1.84573e-14
3.51742e-16
3.6422e-16
6.21574e-18
1.43597e-15
1.2928e-12
4.98207e-17
6.08355e-15
8.94191e-17
6.64132e-15
1.46205e-13
1.16758e-17
1.92472e-15
5.59936e-18
1.57485e-16
5.13462e-15
5.90677e-14
2.01844e-13
9.9999e-17
0.000625112
2.74569e-15
1.61684e-13
5.67389e-16
3.82777e-18
1.34181e-14
2.52706e-13
1.85894e-15
6.12243e-14
1.95102e-14
7.36033e-16
2.66119e-05
1.72043e-14
1.31936e-12
5.3702e-14
1.37907e-13
4.51046e-17
1.87133e-14
9.75638e-18
1.32954e-18
6.67769e-14
7.93002e-15
1.1583e-14
8.3938e-15
2.59771e-13
1.07609e-13
3.5036e-14
1.60871e-13
1.72522e-17
3.12963e-14
7.37089e-14
2.78621e-13
6.33016e-15
1.55726e-13
2.3751e-14
8.77398e-16
4.89783e-14
0.0033984
9.5582e-16
1.62042e-14
6.77467e-14
4.17452e-14
9.50139e-17
1.05848e-16
2.26207e-14
0.00206815
4.18564e-14
9.20089e-14
0.00107356
0.00176275
1.01581e-12
2.07403e-14
3.38416e-14
2.35096e-12
4.7333e-13
1.55564e-14
5.03278e-17
4.24492e-14
1.18133e-12
6.78648e-16
0.000556831
1.13096e-14
1.30111e-14
9.83343e-14
3.91078e-15
3.58e-15
3.21851e-14
7.61526e-14
2.04245e-16
2.09015e-13
9.63369e-16
6.35967e-15
4.21581e-16
4.4999e-15
9.61867e-14
2.26646e-14
5.13852e-18
6.92239e-16
1.52904e-13
1.28052e-16
1.3599e-15
1.56622e-14
1.98642e-16
2.25352e-18
2.5619e-16
4.19685e-13
3.08381e-17
3.3603e-13
1.58833e-14
2.41627e-14
1.25411e-13
1.55167e-15
5.94072e-14
1.12917e-13
2.32456e-14
1.48124e-13
0.0296234
6.81196e-15
1.09621e-13
5.20884e-15
8.69309e-18
5.06307e-14
4.52035e-13
2.22083e-13
5.06632e-15
5.35092e-13
4.81675e-15
9.92966e-18
2.18022e-15
8.50916e-16
1.2291e-13
2.7698e-16
1.17467e-15
7.81491e-13
7.86693e-14
5.96114e-14
7.49511e-18
1.06577e-15
2.00255e-13
7.81004e-18
3.38741e-14
0.00398418
1.80253e-12
2.45359e-14
6.53237e-15
8.90844e-14
2.37029e-15
5.33483e-14
6.8267e-16
7.37291e-16
1.14324e-13
2.8625e-15
6.73302e-14
2.32727e-13
5.93986e-14
2.28881e-13
8.72356e-16
6.17329e-14
6.60502e-14
8.4764e-13
3.2274e-13
3.08255e-14
4.2014e-16
5.97225e-13
2.25069e-16
0.00203398
2.39773e-14
2.59335e-15
1.16116e-14
6.92467e-13
2.09047e-17
3.63787e-13
3.15089e-13
3.79719e-06
4.0451e-16
1.32641e-17
9.72772e-14
9.37566e-17
1.56905e-16
5.30336e-14
9.76002e-13
1.50629e-13
7.69786e-13
6.44458e-16
3.18166e-17
3.0355e-13
1.36236e-13
1.58275e-15
1.29823e-13
8.60889e-14
1.00702e-13
4.56739e-16
4.00075e-16
8.53732e-15
2.38504e-17
5.7299e-14
1.62602e-12
6.29307e-15
7.59673e-17
1.5969e-12
1.98753e-15
5.9266e-13
4.5163e-16
4.61143e-14
2.44908e-16
1.41265e-13
4.19717e-13
3.33984e-13
8.37533e-15
5.57835e-16
5.32916e-14
5.41267e-15
1.60269e-14
1.16305e-14
2.20091e-14
0.00659262
1.22678e-14
4.35204e-14
1.30709e-16
8.24663e-17
6.66396e-13
3.82475e-14
1.51887e-14
5.10667e-14
1.26376e-15
0.0150194
2.70712e-13
2.48058e-13
1.35178e-13
3.07538e-15
4.02041e-17
1.72251e-16
3.48611e-17
7.21023e-14
1.96156e-14
6.43401e-18
3.62246e-15
1.05853e-15
1.57895e-15
1.29759e-16
0.0246731
8.13956e-16
1.48909e-15
3.21641e-16
2.05045e-14
1.37039e-16
6.86062e-16
1.13716e-16
1.67668e-16
9.89444e-19
2.03116e-13
4.54277e-16
9.63188e-16
4.92972e-18
2.4164e-13
2.81927e-19
0.0308804
1.7831e-14
3.98531e-14
1.79878e-15
1.64658e-13
4.27842e-14
4.25528e-15
1.05152e-13
9.98847e-14
1.60531e-16
3.21677e-13
3.85773e-13
9.54692e-15
3.58164e-16
2.80465e-13
1.89307e-13
2.93017e-13
3.32569e-13
0.0218582
1.67812e-15
2.20915e-14
1.63435e-12
6.89622e-13
1.11181e-16
5.26866e-13
2.96887e-15
3.56861e-13
4.47463e-13
5.71267e-13
6.40699e-13
7.66972e-13
4.24256e-13
1.73812e-17
8.05341e-14
1.406e-13
2.90789e-14
6.69513e-14
1.11455e-16
7.86917e-17
5.47256e-17
4.86763e-14
8.34548e-17
1.53587e-12
2.36354e-13
1.52678e-17
4.02745e-17
3.78932e-14
2.13103e-14
1.16455e-15
7.25043e-05
1.67178e-14
0.012347
6.57926e-13
3.61046e-13
1.19946e-13
5.33032e-13
4.28754e-15
1.25143e-14
1.04306e-13
2.39334e-14
8.30753e-16
6.81184e-16
2.32818e-13
3.0543e-17
1.76268e-16
7.61669e-14
5.19985e-14
2.52575e-13
1.22154e-13
7.06005e-14
0.00666682
3.00032e-13
6.16068e-14
5.67468e-13
0.00204638
6.6402e-14
0.0345103
6.54597e-15
2.26433e-14
4.44326e-13
7.94128e-14
2.38581e-13
5.50398e-18
1.57033e-15
1.93253e-13
2.10878e-13
1.10172e-12
5.19144e-14
3.15553e-15
6.18261e-14
3.36512e-13
3.80011e-18
4.86219e-15
3.22893e-14
1.09914e-15
1.34737e-12
1.08608e-13
3.42384e-13
1.08863e-12
4.96453e-17
2.05779e-13
8.17961e-18
5.45652e-15
2.63102e-17
0.0306831
1.61654e-14
9.19346e-14
7.20837e-17
1.5184e-11
4.70354e-13
5.18957e-13
2.01675e-13
2.79367e-13
1.14145e-12
1.17485e-13
2.82942e-12
3.59659e-14
4.69391e-05
1.44087e-14
1.24319e-14
8.05729e-14
6.12984e-14
0.0077068
7.63803e-16
1.7763e-12
1.18335e-16
4.31983e-13
1.28133e-16
2.27984e-14
6.28802e-14
6.03306e-13
5.7155e-14
1.00867e-12
4.49751e-13
1.32449e-13
2e-13
4.61085e-17
3.81744e-14
3.1163e-14
1.13868e-13
3.90647e-15
2.9061e-13
1.84377e-13
2.94085e-13
1.16201e-13
7.0156e-14
7.16109e-14
2.69188e-15
6.80267e-14
2.54306e-13
5.61598e-14
1.44317e-13
2.77109e-19
4.15841e-13
7.93173e-13
1.59978e-13
4.8183e-13
7.83145e-14
1.56741e-15
2.14161e-14
5.96675e-14
2.94326e-13
3.71344e-09
7.65364e-13
2.77062e-13
0.0497393
1.60673e-17
3.02271e-14
4.54605e-14
4.06902e-14
1.6449e-13
5.59313e-13
1.91979e-13
4.17336e-15
4.23035e-14
0.00397442
6.82792e-17
1.13515e-12
1.61554e-09
5.22596e-13
1.62312e-13
3.41064e-13
1.42541e-13
1.06854e-09
2.64953e-13
1.52173e-14
0.0359457
1.83173e-14
2.12878e-14
1.29967e-16
1.75264e-14
5.86701e-13
5.70077e-17
9.05795e-13
8.74314e-15
1.18937e-05
1.42512e-16
8.96844e-18
4.46386e-13
6.20924e-14
1.91269e-14
5.26507e-17
1.80752e-13
7.08669e-13
2.40353e-14
2.33494e-12
2.52209e-12
7.33319e-13
2.39105e-14
1.04644e-15
4.44603e-13
7.99553e-14
1.51665e-12
1.00669e-12
1.44687e-13
4.20462e-14
5.07421e-13
4.38424e-15
3.6314e-14
1.14365e-13
1.07334e-13
2.74297e-13
1.15354e-17
1.00684e-16
3.30793e-17
1.41214e-18
5.11155e-10
8.14699e-16
1.08846e-17
1.13479e-12
2.413e-13
4.09298e-18
1.73609e-14
3.27042e-15
1.04263e-13
0.0201508
3.86311e-14
1.54182e-06
1.57313e-13
5.06185e-15
2.32304e-13
4.593e-13
8.80861e-14
2.37456e-13
1.44324e-14
4.34939e-13
6.83679e-14
9.08008e-13
1.32721e-12
3.47694e-13
1.23979e-17
1.18439e-12
2.41484e-13
2.3267e-13
7.08276e-15
1.82336e-14
2.36373e-17
1.3039e-14
0.0509052
1.38899e-13
6.32756e-11
1.59022e-13
3.02969e-14
3.39589e-13
4.64111e-13
0.026749
5.47645e-17
7.3864e-16
1.76963e-13
3.57359e-13
5.73772e-15
8.0926e-15
1.11812e-13
8.18036e-13
6.99503e-13
1.49713e-13
3.17352e-13
3.91858e-13
1.05795e-12
1.4843e-14
1.18809e-17
7.55462e-19
1.15485e-13
1.04239e-13
4.44016e-14
4.9475e-16
5.67418e-15
8.2355e-13
6.17144e-14
1.21724e-08
2.13081e-13
9.54002e-17
8.1919e-15
2.56385e-13
3.74385e-16
6.39425e-13
2.10875e-13
4.1135e-13
4.89602e-15
1.40736e-13
7.58839e-14
3.82726e-14
4.42393e-13
6.42909e-14
1.11477e-13
0.0462275
2.45159e-14
2.17114e-14
4.0832e-14
1.88828e-14
1.40067e-14
7.64901e-17
9.17803e-14
1.90201e-15
4.87615e-17
1.0881e-14
3.8719e-14
8.88952e-16
0.0412981
6.38085e-15
2.15773e-13
1.11964e-13
1.39008e-13
1.92114e-13
2.85039e-13
9.30921e-16
8.11782e-14
3.91728e-15
1.589e-17
6.72116e-17
2.98208e-17
2.05763e-10
5.34044e-11
2.7548e-07
8.11368e-08
0.0117164
8.74618e-08
2.68335e-15
8.1809e-13
1.27413e-07
1.61743e-14
5.97783e-08
1.40549e-13
1.66664e-13
6.25656e-14
2.51143e-13
7.42008e-17
1.39559e-14
1.19334e-14
9.00931e-08
8.65315e-14
3.4614e-13
8.25013e-14
5.58273e-15
1.88713e-15
9.17812e-12
9.5325e-15
2.28663e-14
2.3488e-13
7.87621e-15
1.2302e-07
1.25624e-13
1.45657e-14
0.00247325
1.45802e-18
5.5635e-14
3.4967e-15
2.64525e-14
1.94266e-14
2.74813e-17
5.70196e-14
1.61704e-13
1.27721e-13
8.02311e-17
4.35491e-14
5.5943e-15
4.26708e-13
1.99593e-13
3.86453e-13
1.34521e-14
1.35749e-18
1.92235e-14
4.18321e-13
2.49381e-14
5.37369e-16
0.0833187
1.0411e-15
3.08397e-14
3.14327e-12
9.64015e-14
5.25242e-17
2.55528e-15
0.0181897
0.0387344
0.0303809
1.12271e-08
9.01082e-14
5.63238e-14
4.19284e-14
8.91509e-14
3.49916e-18
1.32059e-13
8.07088e-14
1.3524e-12
7.16009e-13
2.03786e-18
1.02415e-12
7.97879e-13
1.6046e-13
7.94626e-15
2.29191e-13
0.0121049
2.62189e-13
3.42127e-13
6.37993e-14
2.64015e-13
8.02315e-15
0.0381528
1.00137e-13
0.000272983
1.07144e-16
2.27323e-13
1.00594e-17
1.97554e-13
1.73361e-17
0.00381625
6.85598e-15
0.0324715
2.72585e-17
5.03611e-14
0.0386729
1.50132e-12
8.89619e-15
5.16902e-17
4.71006e-14
7.70148e-15
2.03136e-13
6.49844e-14
1.58101e-18
5.66522e-14
1.61269e-18
7.75941e-14
0.00221149
3.28697e-14
2.20298e-13
1.4861e-14
3.11756e-14
0.000978596
0.000355559
0.000673914
1.87771e-13
4.98057e-17
0.0144152
1.17498e-13
1.86253e-14
4.63628e-16
1.97434e-13
0.000487252
1.04289e-13
8.49956e-15
1.74818e-15
1.9325e-09
1.29295e-10
3.94603e-13
1.64141e-13
2.0431e-10
1.84831e-13
3.02883e-13
1.68677e-15
7.69989e-15
6.53721e-17
4.61124e-13
3.44302e-14
4.17179e-13
4.08772e-09
1.25984e-14
1.19682e-13
1.48511e-15
8.51903e-14
1.61494e-13
8.25536e-14
5.60306e-16
5.63496e-14
0.00122751
8.0249e-16
2.42399e-16
3.17851e-13
1.38439e-14
1.32132e-13
1.05073e-13
1.86425e-15
8.28657e-14
1.73654e-14
1.43719e-13
1.28667e-13
1.30253e-14
5.9795e-14
3.06914e-13
2.51372e-16
1.32823e-16
1.53965e-16
1.35339e-12
1.10023e-16
6.44719e-13
5.89123e-15
2.17084e-13
2.28369e-14
9.61952e-13
1.19421e-13
2.7856e-16
6.64758e-18
2.57946e-13
1.17197e-13
7.96129e-16
2.48817e-15
1.72088e-18
8.49034e-14
1.9555e-13
3.2399e-13
1.12042e-12
1.35617e-13
3.30871e-13
0.00320679
1.89338e-16
1.73652e-15
1.99625e-12
2.98211e-14
9.57298e-14
2.82203e-13
6.06895e-13
7.77421e-13
1.77515e-06
5.55082e-16
1.4542e-14
3.38347e-15
4.77002e-13
7.68056e-15
1.73777e-16
0.0306999
3.9687e-14
5.174e-17
5.96992e-19
2.81478e-08
1.73006e-14
7.38279e-07
3.4397e-14
5.07441e-14
1.42958e-14
9.18537e-14
1.11103e-13
3.26644e-14
2.9681e-17
5.24318e-07
1.48073e-13
3.13139e-14
3.80375e-13
4.58609e-14
1.51498e-13
1.40993e-08
4.25049e-13
3.48811e-16
2.5876e-09
0.00105896
3.83451e-08
7.75432e-13
0.0401254
4.71708e-15
1.00097e-13
1.01671e-15
6.87976e-16
5.27551e-14
0.00561234
2.35846e-16
6.24044e-14
5.19121e-15
0.025856
0.0249881
6.92591e-06
1.56855e-12
5.24517e-12
2.0384e-15
6.56543e-14
3.45711e-14
7.20828e-14
8.08708e-09
1.7786e-14
1.70325e-11
5.53537e-14
2.11909e-14
2.38226e-13
1.21954e-12
6.14343e-17
4.941e-13
9.37841e-14
2.79296e-13
1.16279e-18
2.5468e-17
4.69129e-16
4.82876e-18
5.4164e-14
2.28084e-13
7.02044e-14
2.30371e-12
5.91229e-18
2.1739e-17
6.04431e-13
3.00389e-17
2.90931e-16
2.31221e-14
9.36184e-14
8.21813e-13
1.9382e-14
1.68987e-12
2.09779e-17
6.05243e-14
1.58139e-13
4.98804e-14
2.86031e-16
6.17418e-14
1.35275e-10
0.0297264
2.44296e-15
1.32408e-13
2.05227e-14
0.0341583
0.00126109
1.00502e-13
2.19464e-15
2.93136e-15
9.3709e-14
7.01727e-13
0.0600244
1.9646e-14
2.12516e-14
1.43594e-14
4.4434e-07
6.43826e-13
1.19908e-12
3.30271e-13
2.41216e-08
0.00345936
2.96198e-17
2.04063e-16
2.3065e-14
2.33792e-14
0.00529736
7.03932e-14
1.58803e-14
8.34993e-13
4.20456e-10
0.000312333
0.00499388
0.00165533
9.47292e-15
3.74118e-14
1.34431e-11
0.000491004
1.2852e-12
1.86948e-13
2.14499e-13
0.000118289
9.72006e-18
1.11353e-14
8.00114e-08
2.46183e-16
0.000878297
1.35049e-06
2.19836e-14
4.89834e-06
1.21924e-15
2.69326e-15
8.08998e-14
3.75343e-13
0.0007544
1.1299e-16
0.0287952
9.95029e-14
5.93238e-14
0.0126215
0.0414057
1.00542e-17
2.71984e-17
1.68128e-13
1.46051e-13
1.02422e-18
1.17282e-13
1.17576e-13
1.06425e-12
3.52826e-17
6.63002e-17
1.1955e-14
3.19119e-18
2.0169e-16
2.91713e-14
1.09808e-10
6.67411e-14
1.88096e-14
5.45098e-13
7.91695e-13
6.626e-14
1.62089e-14
1.08729e-16
1.0065e-14
7.06422e-14
2.73146e-14
1.0564e-12
7.13492e-10
4.22568e-13
6.00671e-15
0.0568432
0.00561304
4.52742e-13
0.035135
9.75258e-14
0.0142819
4.97168e-14
2.01294e-16
2.564e-15
3.39104e-17
0.00124995
5.50237e-16
1.20146e-13
1.01351e-17
1.55192e-13
1.30317e-19
7.47506e-14
1.4091e-14
8.10417e-14
1.03081e-18
5.86097e-14
6.03208e-14
2.15047e-14
3.72095e-13
4.88476e-14
6.25977e-14
1.59307e-14
5.21965e-16
6.87939e-15
1.98859e-13
1.30459e-13
0.00960108
2.69949e-14
3.14357e-15
3.29626e-14
3.4441e-18
3.60619e-14
2.04834e-18
4.55234e-18
4.86355e-18
2.11577e-14
5.22105e-14
6.29274e-14
4.48755e-13
8.33511e-14
4.91944e-15
1.56328e-17
5.95329e-13
6.41202e-16
1.31384e-19
2.243e-16
3.59401e-08
7.82529e-14
4.84586e-06
4.00489e-18
8.51178e-10
3.35664e-14
1.30288e-12
5.31259e-17
1.04659e-14
1.00245e-13
1.53731e-14
1.87329e-15
1.06462e-13
4.1909e-17
1.12136e-13
3.75908e-13
2.79449e-13
1.17475e-13
1.85535e-15
3.73902e-16
7.5844e-14
1.93002e-13
3.12442e-15
1.35942e-13
1.1117e-16
2.18513e-14
1.70148e-08
1.24642e-14
1.63739e-14
6.18749e-05
2.84018e-13
2.75136e-15
3.71556e-14
2.42511e-18
2.38446e-15
1.33921e-14
3.80144e-11
1.08759e-14
2.55301e-14
4.24433e-14
1.10862e-13
1.22038e-05
6.75587e-14
1.85398e-17
2.29247e-12
6.99048e-14
1.95624e-13
3.0343e-12
6.39252e-14
4.84181e-14
1.764e-08
7.82621e-14
0.042829
6.53011e-14
5.16169e-09
1.25288e-13
0.000450381
1.031e-13
0.0363553
8.65554e-15
9.86627e-18
2.60251e-14
5.05868e-14
4.63894e-17
7.90023e-14
2.05663e-14
4.47508e-18
8.98521e-10
8.29366e-13
2.56447e-13
1.38585e-13
1.02248e-17
2.99421e-15
1.7783e-13
6.13482e-14
6.20522e-14
4.20522e-19
2.97906e-14
1.05482e-15
1.35351e-13
4.25327e-17
2.72032e-14
8.73698e-14
0.0459041
3.93706e-14
1.97645e-14
3.17482e-14
2.48906e-16
0.0524076
0.0223486
2.74302e-16
0.00455594
7.02008e-16
1.91882e-13
8.11029e-13
4.90612e-14
0.0578664
1.92257e-14
1.42022e-14
0.0282481
3.56407e-18
0.00405455
4.66184e-17
0.07905
2.75682e-13
2.57912e-10
1.31965e-17
9.6132e-17
1.81173e-13
0.0315788
4.35097e-16
2.45057e-07
3.03944e-13
2.45072e-16
4.58145e-13
2.26099e-13
5.09479e-14
1.22989e-13
6.60906e-13
1.06852e-08
0.00723446
1.57144e-13
8.25958e-14
1.62557e-13
3.21699e-15
2.30573e-12
1.43937e-13
2.1176e-16
4.46058e-18
1.75607e-13
0.0202902
1.14985e-13
0.0508955
3.48624e-14
1.11526e-15
0.0110546
1.36569e-16
0.0294466
7.771e-18
2.32513e-16
1.26454e-14
0.0127578
2.27905e-13
0.000979839
1.76552e-09
7.84683e-15
5.69462e-17
4.11995e-13
1.79837e-06
9.96015e-17
6.78513e-14
1.08183e-14
6.39781e-14
8.89948e-17
8.74213e-18
9.60976e-14
1.74084e-13
2.05849e-14
0.00106281
7.87963e-16
2.93635e-07
1.1886e-14
0.0105141
6.99451e-13
1.16068e-14
4.70686e-08
0.000341317
2.21558e-14
3.62555e-16
7.3773e-09
8.59274e-17
1.00609e-07
2.18858e-16
6.05846e-14
1.72504e-13
2.15298e-14
1.18578e-17
1.69474e-13
0.000139721
2.35287e-13
0.012102
0.0269913
6.07663e-14
7.40265e-13
5.77225e-14
2.41691e-13
1.44011e-09
0.00197706
8.45428e-14
4.387e-14
0.0123109
4.66169e-14
0.0036026
2.30013e-14
3.14752e-15
1.91857e-12
6.1477e-05
0.00998493
5.58458e-14
0.0184643
8.53929e-15
6.5821e-18
5.56133e-13
9.71602e-15
1.32981e-13
0.00503785
5.7582e-17
1.52839e-13
6.36601e-15
0.0260319
1.75191e-13
3.75405e-13
9.89684e-18
9.22754e-18
2.85017e-14
1.86842e-13
9.39337e-14
2.20518e-14
2.36803e-14
7.97888e-14
3.21619e-14
1.72489e-13
0.000296383
5.27037e-15
3.65431e-14
5.8102e-14
1.14508e-08
0.000379747
9.23484e-16
3.83368e-14
3.37791e-17
4.05907e-18
1.93312e-17
7.47143e-14
1.32473e-14
4.19065e-14
1.72188e-13
7.02757e-17
2.80948e-15
1.77767e-14
6.91366e-14
1.1175e-12
3.00063e-14
3.19791e-14
0.00358703
0.0513681
1.65504e-16
3.51265e-13
2.49798e-13
3.24862e-13
1.82268e-16
2.90283e-13
1.05764e-17
8.70191e-14
1.7219e-16
3.66944e-14
7.40265e-16
1.82721e-16
4.59085e-18
1.10805e-15
1.87475e-14
1.60915e-15
1.60577e-14
5.31237e-17
3.29157e-13
2.16385e-09
6.22484e-05
3.7579e-14
2.2183e-15
0.00110306
2.81567e-05
4.02567e-16
1.43861e-17
6.29869e-14
4.1216e-14
4.02213e-14
8.49944e-17
7.02146e-13
2.81505e-16
6.50155e-17
2.85338e-14
6.73303e-15
4.05449e-14
3.25214e-16
3.95349e-13
6.03921e-14
9.58635e-14
3.24185e-15
2.05902e-16
2.71586e-18
1.67731e-18
2.23235e-17
2.03494e-16
1.1783e-15
5.78271e-16
0.0163628
4.34169e-16
1.35093e-15
8.75003e-15
2.44982e-16
2.26531e-14
1.56957e-16
0.0148152
3.43008e-15
8.43161e-17
9.85419e-08
9.5825e-14
1.26501e-15
9.92723e-06
1.51484e-14
2.82279e-14
0.0245952
2.62525e-17
1.40087e-13
3.01166e-13
1.02117e-17
2.38021e-16
1.39719e-13
2.22844e-17
0.0338575
4.69482e-17
1.01019e-17
6.00896e-14
2.09488e-16
8.76115e-14
4.88506e-18
2.18735e-16
6.96873e-06
9.60419e-10
0.000222181
7.24237e-14
7.38824e-14
7.16866e-14
1.09566e-17
6.91077e-15
5.57792e-17
3.06159e-14
0.0245635
9.7695e-15
2.78944e-14
1.76624e-16
1.01565e-15
2.26619e-14
4.76371e-14
0.0281729
1.78084e-15
3.82288e-14
1.49527e-14
9.02839e-14
1.71938e-17
2.41448e-14
3.75913e-14
3.17057e-14
7.06001e-14
1.93162e-14
2.16889e-17
4.19048e-13
1.89997e-14
0.0988181
8.7653e-14
4.70043e-15
3.59743e-16
3.17301e-15
3.16735e-16
0.0634428
0.00448374
0.0393398
1.4597e-06
7.54727e-17
0.0276712
3.98059e-18
3.94592e-13
2.30738e-15
1.06725e-10
6.94289e-17
0.0569005
0.0166229
6.74562e-14
1.53644e-13
6.52202e-15
2.90545e-14
0.0208397
2.71588e-13
2.26221e-14
5.30047e-14
1.38777e-14
9.29556e-14
0.00293811
0.00261937
0.000108257
4.20639e-15
7.94793e-14
2.52592e-15
5.44328e-08
9.86197e-18
8.70491e-14
1.7979e-14
3.67646e-15
2.73183e-13
1.51005e-05
8.23849e-14
1.11842e-16
2.56261e-14
5.44121e-17
8.79432e-17
5.16329e-14
2.98756e-16
9.29323e-18
1.35459e-14
1.53949e-18
1.83566e-13
6.54606e-09
9.19202e-07
5.02526e-05
1.7788e-14
1.01691e-13
1.55093e-13
9.24632e-14
2.58577e-13
2.95329e-13
1.93256e-14
3.54175e-17
4.03447e-15
5.4659e-13
2.70401e-13
9.04984e-15
1.74476e-14
1.42202e-17
8.34034e-14
4.23411e-14
1.06425e-13
3.71229e-11
4.98555e-15
1.53399e-14
8.28225e-15