/*--------------------------------*- C++ -*----------------------------------*\
  =========                 |
  \\      /  F ield         | OpenFOAM: The Open Source CFD Toolbox
   \\    /   O peration     | Website:  https://openfoam.org
    \\  /    A nd           | Version:  10
     \\/     M anipulation  |
\*---------------------------------------------------------------------------*/
FoamFile
{
    format      ascii;
    class       volScalarField;
    location    "80";
    object      SgP;
}
// * * * * * * * * * * * * * * * * * * * * * * * * * * * * * * * * * * * * * //

dimensions      [1 -1 -3 -1 0 0 0];

internalField   nonuniform List<scalar> 
59698
(
0.00309506
0.00183544
0.00231274
0.00271394
1.1417e-06
0.00145199
0.002497
1.07214e-07
1.98056e-09
3.91757e-09
0.00058648
1.80294e-09
1.59057e-09
0.00228616
2.74184e-08
4.26844e-07
9.40936e-09
3.83587e-09
1.64277e-09
5.97464e-10
0.000365733
1.55934e-06
0.000499472
8.81894e-08
2.00445e-07
1.20983e-09
1.16877e-09
0.00248175
0.00239315
2.11417e-09
1.35123e-07
0.000600621
6.69521e-08
0.00403588
1.11914e-06
3.80907e-09
0.000465271
5.06522e-07
1.73373e-08
0.00245308
2.95936e-08
2.30472e-07
2.31243e-08
2.45687e-08
0.000402107
1.04826e-07
2.66352e-09
4.88887e-08
0.00290854
3.14275e-08
2.94605e-10
2.35704e-09
0.00172824
0.00272944
0.00216773
2.05942e-09
8.45223e-08
1.56288e-08
1.7692e-08
2.7242e-05
0.00178295
6.28056e-08
1.99244e-07
1.56124e-09
4.99752e-07
4.17076e-08
1.75323e-09
3.26362e-09
4.20749e-09
6.78041e-09
6.44073e-07
2.79546e-08
0.000359576
1.51311e-06
0.000411949
1.00061e-06
2.15959e-08
2.23351e-08
6.40089e-09
9.39526e-09
4.78914e-07
9.80558e-10
4.05276e-09
8.02338e-09
1.69422e-05
3.14754e-08
9.1471e-09
2.22984e-07
2.34888e-06
2.31175e-08
4.51275e-09
6.36003e-08
1.72755e-07
6.53854e-09
6.05956e-08
0.003591
1.35406e-07
6.19312e-08
4.9413e-08
8.60963e-10
0.00353691
2.07824e-05
2.95005e-07
0.00329285
5.36431e-08
0.000564779
2.3308e-09
2.31269e-09
2.72064e-09
4.39507e-10
3.65485e-08
2.6385e-06
1.35881e-06
1.56282e-07
9.76078e-08
3.45599e-08
3.49146e-07
0.00353377
2.92727e-07
1.14468e-08
2.26997e-09
2.98769e-07
2.25598e-07
3.44481e-09
1.63858e-09
7.753e-09
8.39129e-09
7.21015e-09
1.28636e-08
3.86437e-07
0.00335586
3.86293e-09
1.10541e-09
1.79799e-07
6.50025e-08
3.25349e-09
4.91701e-07
2.15447e-10
1.7205e-09
5.68789e-09
2.08616e-08
0.00231721
0.0025209
1.58661e-09
1.90676e-07
7.92941e-10
5.35074e-07
3.7887e-07
0.00448815
7.10617e-07
0.000257217
0.00043438
2.8423e-08
2.548e-07
9.58666e-09
1.04542e-07
7.43922e-09
0.00162892
6.72552e-08
6.00543e-10
3.06981e-09
7.74014e-09
2.21062e-08
9.7266e-08
1.85605e-08
0.00222883
1.06876e-09
0.000567981
0.00152523
6.91228e-09
2.55243e-07
1.51591e-06
2.17415e-07
9.23703e-07
5.74997e-07
0.00121904
4.41062e-09
0.00139569
0.000326019
0.00293292
2.25449e-06
7.41669e-07
4.00577e-07
1.12361e-08
2.51423e-07
6.8747e-08
3.72185e-07
0.00238054
1.36803e-10
1.81499e-08
6.44241e-09
7.06206e-09
2.30064e-08
6.06433e-07
1.22114e-07
0.00416743
1.81663e-06
0.00294349
1.26748e-05
9.08436e-08
0.000227077
6.7295e-07
1.4948e-09
2.54448e-09
0.00356744
0.00244689
3.57626e-08
0.00205809
0.00270783
0.00350293
0.00242675
6.10663e-09
0.00262722
1.56783e-08
2.34116e-09
0.00336707
9.87383e-09
4.54653e-08
1.55021e-07
4.65549e-09
1.37103e-05
0.00217453
1.72972e-09
5.0878e-07
8.90485e-09
0.00274721
2.11793e-08
5.50136e-09
4.85344e-08
6.8981e-07
7.5764e-09
1.8716e-08
7.43198e-09
1.13399e-08
9.53458e-09
9.00546e-09
3.05661e-07
1.9566e-08
1.76473e-07
8.18904e-09
0.00261368
1.18857e-07
3.45997e-08
0.000664542
8.70762e-09
2.14983e-07
2.29076e-05
3.46549e-06
5.28087e-09
4.96384e-09
6.12102e-08
6.41077e-09
3.08878e-08
0.000233554
1.91987e-08
0.00169895
1.09973e-07
5.39801e-08
0.0031472
2.88217e-09
7.39709e-06
1.84473e-09
7.83735e-09
0.00270854
0.00357789
8.51788e-07
1.08712e-09
1.06998e-07
1.98124e-08
6.04184e-10
3.12939e-09
1.53699e-06
6.89179e-05
6.61339e-10
1.24342e-07
5.01607e-08
0.00146581
3.9753e-08
2.9674e-09
1.22813e-09
0.000574131
1.7661e-09
1.66914e-09
4.68163e-07
0.00334997
1.02158e-07
5.26878e-09
0.00064736
3.8189e-07
1.00438e-07
2.65326e-06
0.00232502
9.27503e-09
1.3646e-09
7.04205e-07
0.00273228
4.63573e-10
1.52175e-07
1.45168e-08
6.43507e-07
3.07709e-09
2.3388e-09
6.86647e-08
5.72583e-10
1.10491e-09
1.15644e-09
3.62825e-07
2.19366e-08
5.37031e-09
5.32778e-10
0.00190121
4.20608e-08
3.7712e-09
2.37982e-08
0.001915
5.59834e-09
0.000403389
8.31779e-09
0.000829308
8.51908e-08
9.53197e-08
3.09886e-07
1.67522e-08
2.99196e-09
1.57172e-06
2.56376e-07
1.60869e-08
8.7097e-09
4.39994e-10
0.000361923
0.00290006
4.02191e-08
3.58204e-07
2.46187e-06
0.00043095
1.03217e-08
7.76113e-09
4.29409e-09
1.39838e-07
0.00122097
2.13496e-08
0.00206215
0.00250593
4.94619e-09
9.97862e-08
1.35704e-09
2.60821e-10
1.24944e-06
1.34564e-09
0.00203385
9.25887e-10
1.41973e-08
1.25633e-06
7.94314e-10
9.61167e-07
0.00191567
2.67365e-06
1.44217e-08
3.27266e-08
1.82549e-09
2.09971e-08
1.08393e-08
1.1039e-07
3.60126e-09
1.29407e-10
1.04124e-07
0.00279685
0.00201717
2.83535e-08
9.7758e-07
1.13239e-07
0.000533994
0.00366892
0.000651125
2.08216e-08
2.98865e-09
3.63561e-08
2.04718e-09
0.000460563
2.48762e-09
0.000347123
4.46473e-08
4.33954e-08
5.15462e-08
8.50803e-10
6.78102e-06
1.09377e-08
0.000544828
8.43943e-10
3.38689e-08
2.09015e-08
0.000457523
0.00330068
3.3094e-09
5.35848e-05
0.00179758
3.57748e-06
0.00182709
0.00269792
8.15049e-08
0.00243874
0.00236482
0.00257385
5.43418e-09
0.00148345
0.00417846
0.00383947
0.00276266
5.96234e-09
8.22295e-07
1.88066e-07
0.000404302
0.00163747
0.000434527
4.71133e-10
2.03955e-07
2.0181e-09
2.29144e-06
0.0018974
0.00175617
0.00292224
0.00218231
0.00249159
0.00166363
7.82607e-09
2.0289e-09
7.88328e-09
1.34509e-08
0.00138454
5.71402e-10
7.80251e-09
0.00196062
0.00116508
2.34746e-08
3.71549e-08
1.43833e-08
1.3903e-08
0.00126443
3.34141e-09
0.00211832
1.92326e-07
0.00321065
5.08062e-09
4.39951e-08
1.86309e-07
2.02316e-06
8.59836e-08
4.49114e-10
2.13068e-09
1.29064e-07
0.00254332
6.6453e-09
7.21723e-08
1.96904e-06
6.12592e-07
1.15114e-07
3.38717e-07
1.41904e-09
1.15184e-06
1.64956e-07
6.11302e-08
4.62089e-09
0.00320872
6.25828e-09
2.19159e-09
2.02521e-07
3.51168e-07
9.30591e-09
4.36536e-08
6.1851e-09
0.00247469
4.40244e-09
2.0361e-10
6.9454e-09
6.29298e-08
2.03833e-06
8.14153e-07
2.17925e-09
0.00300895
0.00194625
2.3441e-08
2.12391e-07
1.60171e-08
1.90159e-08
2.52112e-07
4.1236e-08
4.4507e-08
1.96993e-08
1.63651e-09
1.64741e-09
2.51076e-07
4.10067e-07
3.92077e-10
4.23855e-08
0.00402078
2.12922e-07
1.53384e-08
0.00236661
3.71903e-08
0.000365619
9.69439e-10
1.18072e-07
2.03649e-07
1.2116e-08
1.71085e-08
1.11973e-09
8.16765e-08
2.15722e-09
5.25499e-09
8.27024e-09
5.76213e-09
7.83829e-09
1.34734e-06
5.41923e-08
1.60573e-08
2.67678e-09
6.89198e-09
1.00331e-08
7.03435e-08
2.4837e-08
1.71753e-08
3.47294e-09
5.07483e-09
3.87501e-09
2.17946e-09
6.32573e-06
3.30077e-08
2.80989e-09
0.00339743
0.00370813
2.91256e-09
0.0038275
1.82786e-08
5.54444e-09
0.00145128
3.56192e-10
1.35536e-08
0.00178838
1.90725e-09
0.00038488
4.33238e-08
2.5764e-09
4.5033e-08
2.97929e-06
1.48227e-08
5.11144e-09
8.92482e-06
0.000167088
1.87207e-08
7.48776e-06
1.82566e-08
2.28831e-09
3.08087e-08
1.91895e-09
5.05451e-09
1.45805e-08
1.9176e-08
1.62088e-08
2.57768e-09
2.23606e-09
0.000768508
1.71909e-09
1.65412e-08
1.03929e-05
1.51317e-08
1.81526e-09
1.21877e-06
2.25674e-08
8.58818e-09
0.000539255
7.77487e-10
7.60717e-09
1.92798e-07
1.57878e-09
4.42195e-08
1.30247e-09
3.15521e-10
4.30551e-10
0.00200344
2.30811e-09
0.000732637
3.90768e-08
0.0032075
1.50208e-08
3.29023e-09
0.000313356
1.18174e-09
1.36852e-08
1.78178e-08
1.64053e-08
1.99256e-09
0.00316739
8.12168e-09
1.67293e-08
8.53306e-10
4.13327e-08
9.24623e-07
0.00264793
0.000349775
7.36724e-09
7.94653e-09
1.6516e-09
2.94137e-09
0.00337487
1.35483e-08
4.42877e-09
2.51875e-09
0.0010875
0.00385609
1.5347e-08
1.26246e-08
1.56824e-09
1.14242e-08
4.30445e-09
4.11975e-09
5.15549e-09
4.91563e-09
3.60038e-08
7.79557e-05
7.31823e-09
5.04143e-09
7.84933e-09
1.81961e-08
2.54311e-05
0.00241926
1.09248e-08
0.00266355
1.63174e-09
8.76267e-09
4.32559e-09
0.00269466
0.000211206
9.56277e-10
8.39381e-09
7.03298e-10
2.86374e-08
6.31312e-09
2.85297e-09
0.0015155
0.00323672
1.3037e-07
1.62731e-07
0.000607906
1.45298e-09
5.09106e-09
1.60246e-09
4.1248e-07
0.00210696
3.38202e-08
1.7648e-09
0.000439479
7.72471e-09
3.17827e-08
3.33676e-09
2.38047e-09
4.37104e-09
9.32023e-10
7.58382e-06
1.0163e-09
0.00182039
5.06909e-08
1.12029e-07
6.87258e-09
1.55602e-06
3.43456e-06
5.38818e-09
2.07765e-08
0.0023081
0.0031102
7.3103e-08
3.85273e-09
7.58689e-07
1.56667e-09
0.00343748
3.15197e-10
1.95724e-08
0.000428463
0.00255409
4.3399e-09
1.60508e-09
1.96421e-07
5.89338e-07
3.53427e-07
0.000378101
0.00139637
1.13257e-10
6.59079e-09
7.73628e-10
4.63795e-09
0.00277464
2.71774e-08
0.00302885
9.94903e-09
0.00131534
0.00209608
0.00236441
6.17473e-08
4.11391e-09
0.00065063
1.27558e-09
2.33256e-10
9.23881e-10
4.35492e-09
1.81552e-08
4.53819e-09
1.49356e-09
9.21853e-08
6.7319e-08
7.61734e-09
2.7286e-09
0.00186397
4.18048e-08
3.54104e-08
0.00036213
1.01966e-08
3.46749e-08
3.82361e-08
1.94203e-09
1.38179e-09
0.000646938
0.00196353
0.00241496
3.87607e-09
1.11384e-08
6.50807e-09
1.63402e-07
0.00194607
1.40322e-09
5.67155e-07
2.5877e-08
1.31915e-05
0.000344566
0.00169859
2.24788e-07
1.48135e-07
2.22292e-08
0.00430838
0.000532159
1.89605e-08
8.90195e-07
3.51455e-09
6.82155e-08
3.45072e-06
0.00231958
2.44968e-08
1.20671e-07
1.00716e-07
1.5887e-05
2.47539e-08
0.00185647
2.48183e-09
5.17151e-08
1.16163e-08
0.00212981
6.88788e-10
6.53453e-09
2.06723e-07
4.48012e-06
0.000599771
1.09253e-07
6.99637e-08
0.000383644
4.14532e-08
2.508e-09
0.00190611
0.0021967
5.49075e-09
7.55565e-09
0.000401558
1.013e-08
1.73744e-08
0.000373923
3.50415e-10
0.00265405
2.61455e-09
1.9344e-08
1.81642e-07
4.02659e-09
3.95939e-08
3.59466e-08
5.01267e-05
3.75121e-09
6.0969e-09
7.08953e-09
1.17671e-08
9.70616e-08
1.5325e-08
0.00032609
7.08981e-09
2.03639e-08
0.00140035
5.67138e-08
9.86248e-08
9.28838e-06
0.0018703
2.3847e-06
0.000541637
6.9529e-09
0.000382978
1.58913e-08
4.18786e-09
1.6228e-09
0.00314076
3.78712e-07
3.24922e-08
7.12136e-05
6.43818e-08
0.00157968
1.66545e-07
9.82866e-06
3.49937e-09
0.00100439
3.15958e-09
0.00130486
5.37203e-05
2.44842e-07
0.000651794
0.00179454
1.2236e-06
1.1088e-05
4.0969e-09
1.13255e-06
2.51914e-08
4.09398e-05
0.00044479
0.000428768
0.00211178
3.52681e-08
3.17954e-08
0.000561236
4.56893e-08
0.00227711
6.89513e-10
0.000401154
2.26801e-09
2.66671e-09
2.94154e-05
0.000503643
0.000206118
0.000108611
7.69277e-09
5.04865e-09
1.87363e-09
0.000487247
2.11007e-09
0.00350808
0.00473694
2.48346e-09
0.000499705
2.07868e-09
1.00466e-09
2.93395e-09
3.20715e-06
0.000469629
2.98097e-09
1.28468e-09
1.05209e-06
4.4239e-09
1.12202e-07
3.79415e-09
2.98419e-09
8.82228e-08
2.63823e-07
3.11466e-08
1.04088e-08
0.000532566
8.09547e-10
0.000127614
2.70814e-10
2.49649e-09
0.00124248
1.5069e-09
7.74633e-06
8.98232e-08
7.42592e-09
0.00010882
1.2459e-08
0.00157162
2.72536e-08
4.62001e-10
0.00174582
5.67479e-09
1.13411e-08
0.00030714
1.24378e-09
0.00205968
1.6803e-08
1.42175e-09
0.00422991
3.06133e-09
5.20606e-09
1.49345e-08
1.63706e-08
0.000319937
7.98352e-09
5.59203e-09
1.64926e-07
0.00180906
0.000633463
0.000584054
2.24297e-08
1.76936e-09
0.000379941
0.00237001
6.63191e-09
8.57823e-09
5.57084e-08
1.16541e-08
2.85747e-09
2.55226e-08
0.000412232
0.00144848
0.00262296
1.49178e-07
2.04084e-09
0.00267082
0.00400967
0.00520958
5.0573e-08
1.80982e-08
1.56293e-07
4.38243e-07
1.80762e-08
2.71438e-08
7.86244e-07
2.81854e-08
7.51106e-09
8.15009e-09
1.35415e-06
7.28093e-08
7.35226e-09
0.0025423
1.66296e-09
6.00559e-08
1.87727e-08
2.81904e-08
6.50072e-09
3.87291e-10
0.000761135
1.88511e-08
3.11413e-09
0.00193675
1.91307e-08
2.38999e-08
0.00316677
2.91641e-08
3.33668e-07
5.6954e-09
2.00331e-08
2.43596e-08
0.000825748
3.05785e-08
0.00220049
1.82773e-07
1.98616e-07
3.67027e-08
0.00533113
0.000295154
4.59173e-09
5.47252e-09
9.92249e-07
1.43828e-09
1.12626e-08
8.5435e-09
0.0016735
1.1713e-09
2.28439e-09
8.13994e-09
2.47638e-09
3.57587e-08
2.36572e-08
7.50747e-09
0.000429216
0.00219279
0.000466221
6.29672e-08
0.00314137
0.00256381
5.57686e-08
1.76898e-09
0.00183296
6.42801e-06
0.00154621
0.00208223
0.00203134
3.32985e-09
5.88748e-08
0.00237843
1.9474e-07
3.29231e-08
1.88155e-07
2.6471e-08
0.000443767
2.08903e-08
0.000538419
1.69655e-05
2.57382e-08
0.00196161
2.00182e-08
0.000608737
6.86705e-09
1.61442e-08
1.22793e-09
3.99749e-08
0.00153624
0.00364915
1.26764e-09
0.000395621
0.00188712
0.00135368
0.0027827
5.63883e-10
1.01085e-08
1.17524e-09
0.00355427
8.08404e-10
1.29684e-07
0.00355996
5.32927e-09
0.00346991
0.00351601
0.00366742
1.55806e-08
5.72173e-08
4.64168e-08
8.82717e-09
1.11248e-08
6.14017e-08
1.26725e-08
4.81933e-09
0.000475214
4.10964e-09
3.71332e-08
2.76024e-07
5.40992e-10
0.00162319
2.92525e-08
4.62579e-09
6.66391e-08
2.68205e-10
7.02135e-08
3.92448e-09
2.03421e-07
0.00306615
3.1129e-05
8.92131e-10
1.56527e-08
0.00210093
0.00314936
1.78361e-07
0.000760609
9.9907e-09
7.80841e-09
0.00257392
2.22385e-08
0.00322069
0.000542243
1.04731e-09
7.24579e-08
0.000765797
1.69023e-08
2.50438e-08
0.00250172
6.39018e-09
1.35645e-08
3.12298e-09
0.000534593
3.15717e-06
0.00193136
1.82929e-07
9.4037e-09
0.00175021
1.32368e-07
2.57754e-10
5.9733e-06
2.18368e-09
7.21405e-07
0.00129385
2.72424e-09
9.43044e-10
1.13449e-08
5.88997e-09
1.54789e-08
5.86573e-09
1.26036e-08
1.00027e-06
9.51541e-10
1.24804e-09
0.00169858
4.65603e-09
5.33559e-06
2.95112e-08
5.09335e-06
1.29373e-06
1.17226e-06
5.35597e-06
1.26389e-06
5.35872e-09
1.65743e-08
0.00100306
2.91979e-06
2.47459e-08
2.24267e-08
2.48348e-08
0.00044909
1.36856e-06
7.96287e-08
2.28894e-07
3.49163e-09
0.00226284
4.68497e-09
1.2264e-08
2.08668e-08
1.18601e-08
2.99178e-08
0.00212579
5.58381e-08
2.40633e-08
1.86795e-08
4.73159e-09
0.000477735
2.26162e-09
5.17404e-09
3.35182e-08
2.57403e-10
1.42371e-09
6.16018e-09
9.35715e-09
1.36434e-08
0.00033358
1.14388e-08
1.31708e-08
2.5074e-09
2.00864e-08
1.24569e-08
1.01846e-08
5.84779e-08
0.000380628
0.0024247
1.54449e-08
7.87578e-09
0.00284485
1.65196e-09
4.30915e-05
0.0020308
4.95895e-09
7.13205e-07
1.52765e-06
0.00186604
2.20203e-08
3.19397e-08
2.17497e-07
1.74002e-05
8.67064e-07
2.16929e-07
1.39999e-09
3.74057e-09
4.25557e-07
1.08958e-07
5.96855e-09
1.56386e-09
1.28496e-08
7.55283e-09
3.05517e-06
0.00129431
6.41875e-08
3.61909e-08
5.1036e-08
0.00264627
0.00244632
9.13735e-07
1.51399e-08
3.26996e-08
4.01541e-08
4.47205e-09
2.89422e-09
1.81479e-07
4.2209e-09
3.45747e-08
2.02339e-09
1.25754e-08
2.26738e-08
3.31351e-09
4.14496e-07
2.79953e-09
0.000434429
9.50611e-08
0.00394814
0.00165203
1.12422e-07
2.15484e-08
0.0005797
0.00034517
2.76912e-08
2.33878e-08
9.34602e-06
2.28218e-09
1.8777e-09
2.35093e-08
1.7376e-08
0.000781457
0.000646979
9.55559e-09
1.18345e-08
7.76464e-09
3.33327e-07
5.04176e-08
0.00267068
0.000496414
1.3632e-08
0.000238786
7.07144e-09
0.00031543
0.000227763
0.000223591
2.80987e-08
1.06295e-07
1.77287e-09
9.98916e-08
2.54291e-08
0.00240343
4.88987e-09
4.14154e-08
6.91695e-09
7.70025e-08
2.31191e-05
0.00194485
0.00227796
2.22622e-08
2.97465e-08
0.000377627
3.99414e-08
1.03991e-06
1.05079e-08
0.00304786
4.05957e-08
2.26885e-08
8.52741e-06
0.00262308
6.84691e-08
2.28293e-08
0.00131289
2.021e-08
4.65247e-10
1.39679e-09
4.46068e-09
3.15801e-08
1.32853e-08
6.40328e-10
2.2185e-08
3.69205e-08
1.16198e-08
6.06571e-08
1.66058e-08
5.51749e-07
0.00191158
2.83385e-09
1.58802e-08
5.62989e-08
0.00200082
8.71399e-07
2.01329e-08
0.000374608
2.89601e-09
2.25156e-07
1.46004e-07
0.000983776
3.5874e-07
3.19145e-10
1.21805e-07
1.40232e-08
1.2267e-07
5.1219e-08
2.8669e-09
1.61584e-07
6.88361e-09
8.69777e-08
7.96994e-10
0.000584266
4.85882e-08
0.002074
1.31496e-09
6.32426e-08
2.17111e-06
1.07267e-08
4.47519e-06
4.79734e-09
6.55135e-10
2.46212e-07
4.18459e-08
4.84764e-09
1.7387e-05
6.10941e-08
7.41911e-08
0.00054725
2.98136e-09
0.000563698
3.15937e-08
2.25896e-09
7.73764e-09
5.79791e-09
1.98233e-08
3.90187e-07
3.13454e-07
1.50097e-07
0.00237868
2.12657e-07
0.00393251
0.00209534
0.00329177
8.49842e-08
2.28318e-07
0.00143512
3.80944e-09
2.4931e-08
2.97622e-08
0.00236968
9.81509e-09
0.000635586
0.000492212
2.76663e-09
0.00262589
5.02768e-06
0.00263994
1.89073e-08
0.0024965
5.59144e-08
0.000340208
1.67017e-09
3.91128e-09
4.26349e-08
0.000746788
7.7399e-07
4.16047e-10
2.69871e-08
6.3445e-10
0.000532954
0.000313615
5.6983e-08
0.00190937
4.56023e-07
0.000544692
3.1976e-08
5.60119e-10
6.4368e-09
2.59019e-09
8.9504e-08
2.04549e-05
5.68821e-09
1.34214e-06
4.44789e-08
4.22768e-08
4.65179e-09
9.86876e-05
2.24197e-07
1.87276e-09
6.44297e-09
0.000432448
1.08243e-06
7.78637e-08
0.0015208
1.76807e-06
1.49325e-06
7.42008e-09
8.43065e-09
3.917e-09
0.000681831
2.66005e-08
5.45951e-09
1.49803e-08
3.63067e-07
9.94222e-07
2.05173e-07
1.82101e-09
3.20494e-06
6.73773e-07
7.42588e-09
5.97688e-09
5.53351e-06
2.51817e-09
5.23956e-09
0.00238711
0.00220923
6.17213e-08
4.50097e-09
1.14547e-09
3.33775e-08
0.00192963
2.60115e-07
1.36236e-06
5.46455e-10
5.51156e-07
3.25848e-08
0.00112003
0.000444875
7.16076e-07
2.47897e-08
3.49708e-06
5.2524e-07
0.000100678
2.24512e-09
1.83778e-08
0.00118811
2.54755e-08
7.83683e-07
5.89171e-07
2.02292e-06
1.22347e-06
1.16941e-08
0.00162293
1.31148e-05
2.47207e-09
1.21202e-08
4.73644e-09
0.000427674
0.000113374
1.91136e-08
0.000637651
1.22019e-07
7.26929e-05
0.00282738
0.000398956
0.00281982
0.00183707
0.00221777
4.47877e-10
2.79965e-06
8.42466e-08
3.50823e-06
1.48637e-05
2.21591e-06
2.01639e-09
3.98049e-07
1.47466e-08
3.20191e-07
0.000761567
2.87246e-07
8.87383e-10
0.00178415
1.39256e-07
0.000207827
1.8357e-07
4.1109e-07
4.7724e-09
3.87611e-07
2.12134e-07
0.00151228
2.09381e-07
3.56321e-08
1.49677e-07
2.60142e-05
0.00129738
0.0013139
0.00293969
4.9207e-09
0.000502807
0.00149672
0.00175312
0.00149464
2.32944e-07
0.00217389
2.68362e-07
4.69754e-09
5.41579e-09
6.35425e-09
0.00147152
0.00176859
5.61754e-09
1.46894e-08
8.41578e-09
4.08404e-07
0.000298098
0.00368276
0.00135431
8.21557e-08
0.00247907
8.77196e-10
3.62141e-08
0.00108919
0.000804588
5.34701e-09
2.72178e-06
1.2181e-08
6.37956e-09
0.00351979
6.38862e-09
0.000423298
1.16762e-09
0.000378709
0.00040541
0.000581334
0.00190923
3.24895e-07
0.00161657
1.26776e-08
1.17564e-05
0.000460544
0.00124702
0.00220782
0.00109666
7.51959e-09
0.00124442
8.99065e-09
1.5985e-08
0.00292774
1.64017e-07
6.60871e-06
5.68111e-08
5.21298e-08
0.000573393
1.43571e-06
3.30654e-09
1.49397e-07
4.38099e-07
0.000403276
0.00219843
2.72702e-07
7.60661e-09
0.000614693
1.86628e-08
1.56567e-08
5.11155e-08
6.04298e-07
0.00214057
3.74041e-09
0.00241648
8.37175e-10
0.000256107
0.004336
8.69353e-09
3.02453e-06
0.002429
4.97087e-05
5.18369e-06
2.47529e-09
0.00177805
0.0027788
5.1176e-10
0.000489119
8.3185e-07
0.000618779
1.49079e-08
8.49294e-07
5.12262e-07
3.5256e-08
7.55824e-11
0.000345763
0.00131477
6.57127e-09
1.22187e-09
0.00218172
1.11184e-08
2.20137e-09
3.73795e-08
1.87619e-09
7.87598e-08
0.00354113
0.00209337
2.65734e-08
5.46043e-10
0.00221196
1.98847e-07
0.00270365
2.78341e-09
1.90732e-06
4.58513e-08
7.4273e-09
2.74971e-09
1.07154e-08
0.00333569
5.035e-09
2.79138e-07
0.00027472
0.00237605
0.0004531
1.37812e-08
1.17623e-06
2.56623e-09
0.000229121
0.00228075
8.86528e-10
3.76785e-09
3.97979e-08
3.3108e-08
0.000502529
2.61986e-07
0.000529728
1.92204e-07
6.68689e-09
5.88822e-11
4.97742e-08
0.000221048
0.000394062
5.4265e-09
0.00384295
0.00245682
9.27184e-09
3.22453e-10
3.81532e-09
7.35317e-09
3.80651e-09
1.54399e-08
0.00275273
0.000619965
0.000514082
7.76638e-05
0.000348226
0.00038168
2.75184e-09
4.2692e-08
1.50916e-09
3.01136e-08
1.88766e-08
0.00234599
1.07816e-08
4.93464e-09
0.00111863
1.90294e-08
7.68609e-08
8.76562e-08
1.64444e-09
8.43909e-08
3.49767e-08
0.0021989
5.23663e-09
1.44436e-08
4.17213e-09
1.58404e-08
2.11073e-08
0.0037556
4.52829e-07
1.12226e-07
7.32925e-08
1.06053e-09
4.50869e-05
1.17301e-06
3.1749e-09
5.75502e-07
1.23761e-05
1.01609e-08
1.12701e-08
1.0346e-05
3.70444e-06
2.48984e-07
0.00304108
3.85816e-09
3.97814e-07
1.45772e-06
0.00282695
2.24724e-07
4.32774e-10
1.92863e-06
1.66233e-05
3.4589e-07
1.00541e-08
1.70988e-07
4.61379e-08
6.62592e-08
2.00085e-08
3.31359e-08
0.00184732
2.15161e-09
1.18127e-08
1.08245e-08
6.89477e-10
4.60881e-09
9.31975e-10
0.00421547
1.2421e-07
1.94082e-09
3.31725e-09
3.13719e-09
1.08558e-09
5.04443e-08
5.16361e-09
2.81005e-09
5.39645e-08
1.33634e-08
0.0022095
3.06362e-09
0.000384431
3.50214e-08
1.1704e-07
1.79684e-08
1.21114e-06
1.01705e-09
0.00315759
9.45822e-09
0.00178971
2.9665e-07
4.02722e-08
1.3549e-08
1.83746e-06
2.74949e-09
3.62104e-09
2.93578e-09
0.000259167
0.000626657
0.00213667
1.00226e-07
1.58678e-07
0.00227965
1.72827e-06
3.36156e-09
1.37589e-08
2.87404e-07
1.03351e-08
0.00411984
2.7722e-06
0.00307946
2.46474e-08
7.68759e-09
0.00158932
0.00144432
0.00174766
1.66095e-08
1.46622e-06
0.00186859
1.67318e-09
1.23211e-05
1.51494e-07
0.0017748
0.000459295
1.80812e-07
0.0023082
2.04337e-05
6.1871e-07
0.00205375
0.00216974
1.91581e-08
0.00237784
0.00300986
0.00180854
2.49342e-08
4.36195e-09
6.09817e-09
7.4611e-10
2.83317e-09
0.00162996
0.00275207
0.00182466
2.55423e-09
0.00303271
2.732e-09
0.0022817
0.00249149
5.76635e-09
3.68012e-08
0.0016539
2.45875e-08
1.30813e-08
3.22983e-07
4.17058e-10
0.00256037
0.00199028
8.29414e-07
0.00163477
3.9877e-09
3.04371e-09
7.10672e-09
3.30158e-08
6.72473e-08
3.13193e-07
1.2181e-09
5.54068e-09
1.41817e-08
8.11906e-09
6.2015e-09
1.04342e-07
3.70231e-10
2.30024e-08
2.1067e-06
1.15529e-08
3.43928e-08
2.76706e-09
1.2e-07
1.55724e-09
5.16866e-09
2.22869e-07
1.55956e-09
3.06574e-09
0.00188087
3.45944e-08
5.1822e-09
6.52816e-07
3.12824e-09
1.47314e-08
4.79104e-08
0.00185744
9.35953e-08
0.00220813
0.00148589
1.71599e-08
2.07028e-08
5.73704e-08
6.56072e-09
0.00157707
4.93548e-08
2.26174e-07
3.6752e-07
2.90618e-08
0.00235744
0.00149676
1.88382e-09
3.12447e-09
7.02826e-09
6.3912e-08
5.92379e-08
7.3888e-09
4.16206e-07
5.32332e-09
1.48535e-06
2.49029e-09
1.53085e-09
6.32105e-09
1.55549e-08
2.33077e-07
7.861e-09
1.90625e-08
0.00429575
0.00144843
0.00257014
0.00155372
1.48304e-06
1.20637e-08
0.00201319
6.95201e-07
6.75373e-09
0.000410058
1.31897e-09
1.44416e-07
0.00235103
4.40656e-08
1.26834e-07
2.30313e-08
4.26971e-08
0.00140004
8.20421e-09
9.36126e-10
2.03706e-07
2.66347e-09
4.68878e-07
5.97473e-06
6.71082e-08
0.00211106
4.18369e-08
0.000460594
2.62891e-07
0.00209884
3.87415e-10
5.03898e-09
2.6859e-07
3.90648e-09
0.00183882
3.83367e-07
0.000518288
1.49299e-07
1.84215e-07
1.33818e-07
2.6588e-08
8.52368e-09
5.00638e-08
3.01709e-06
4.00654e-08
2.59896e-06
0.00324761
5.31816e-08
0.0042155
5.64329e-09
2.48298e-09
4.54797e-06
0.00186427
1.4084e-08
1.35656e-09
8.99273e-07
5.65761e-08
3.38687e-08
0.00233945
1.34694e-08
6.13365e-07
0.00262092
1.35874e-09
8.05984e-09
4.18485e-07
9.88271e-10
8.19279e-09
0.00253087
5.29219e-09
0.00276768
2.31688e-08
2.15794e-07
3.95947e-08
0.000894217
6.05753e-08
2.77229e-08
1.48743e-07
0.00253483
1.58809e-06
1.2584e-08
9.29367e-09
1.24025e-07
0.00207314
3.478e-09
5.18587e-08
6.30736e-08
1.5967e-06
0.00252797
0.000269811
0.00119062
1.74247e-08
0.000358052
1.3199e-08
9.01434e-07
0.000789684
1.15548e-08
0.000881133
3.29442e-06
4.86566e-09
2.63949e-09
1.20341e-08
0.00253349
1.51082e-08
2.431e-09
2.60423e-07
1.12219e-08
5.51251e-09
0.000301458
2.74503e-09
4.45452e-08
0.00242959
1.26713e-06
4.51089e-09
0.00203791
3.25792e-06
6.48147e-09
1.37871e-08
1.20187e-05
4.30218e-08
2.22821e-07
1.67535e-08
4.14218e-08
6.08083e-08
4.74462e-06
0.00109765
4.84188e-08
0.00248242
1.50433e-08
3.78978e-08
0.00271651
3.01278e-08
7.83717e-08
9.55651e-09
1.29844e-07
0.00237013
2.99854e-08
2.12965e-08
0.00163528
5.79023e-09
0.00266887
1.40335e-09
8.21459e-09
1.03811e-09
9.94159e-09
0.00151678
5.37667e-08
1.4202e-09
2.57794e-09
1.43481e-08
5.28722e-08
0.00255056
4.7724e-09
4.62166e-09
1.88749e-09
1.54584e-07
5.289e-06
5.04982e-09
0.00156967
3.50927e-08
9.66576e-09
6.28047e-09
5.12449e-08
0.000429643
6.49654e-07
1.62114e-10
1.00453e-09
0.00182622
0.00217014
6.14761e-08
3.93826e-09
0.00183586
1.61947e-08
9.07483e-10
0.0035602
9.07082e-09
0.0027531
2.89859e-07
1.75084e-08
2.01399e-08
9.7676e-09
9.52258e-09
4.47251e-09
3.05412e-05
7.45118e-07
2.27322e-09
4.10254e-08
5.54734e-08
5.32466e-09
0.00257871
8.70743e-09
1.33146e-08
0.00197406
2.6189e-08
3.58906e-08
2.92404e-10
0.00228708
2.83103e-08
1.33397e-07
3.28504e-09
3.69986e-08
4.01345e-09
0.0023376
5.91945e-09
7.10418e-09
0.000616451
1.07427e-08
7.13535e-09
0.00233173
6.52933e-08
3.86082e-10
3.14791e-08
5.92452e-09
0.00188369
4.42198e-07
5.97734e-08
3.47043e-09
4.02737e-07
1.40915e-07
8.67984e-09
1.37226e-09
1.03228e-09
3.41284e-08
1.05431e-08
8.67552e-10
7.75945e-09
7.27566e-09
1.13797e-08
0.00231617
6.96397e-07
1.47865e-08
2.04817e-09
9.41325e-10
0.00219978
1.94741e-08
0.00327803
9.37359e-07
0.0015858
7.49734e-10
0.00215251
0.00292639
8.8785e-09
9.43077e-09
8.97116e-08
0.0021052
0.00251636
3.06877e-07
6.53453e-09
2.49656e-07
1.05027e-09
2.2036e-07
8.58188e-09
9.40803e-08
1.66561e-08
1.47047e-09
3.87022e-09
8.46188e-10
6.19572e-09
9.09999e-09
3.80827e-09
5.07671e-09
1.49887e-08
9.01249e-08
3.3536e-11
3.36745e-09
7.37005e-10
5.65415e-09
1.52151e-09
1.78072e-07
0.00189961
0.00279692
4.51625e-09
0.00222555
1.39887e-08
3.07139e-09
4.44419e-09
1.6406e-06
1.79595e-07
7.18003e-08
9.96524e-10
1.10274e-08
2.14373e-09
7.95556e-09
1.60104e-09
1.29517e-08
1.41421e-07
0.00158841
2.43533e-09
2.11784e-08
0.00140331
0.00178423
0.002198
0.00206339
0.00176513
4.65348e-08
3.77736e-08
2.89153e-09
7.83646e-09
7.59158e-09
1.34114e-06
3.93667e-09
2.93207e-08
3.41257e-08
7.17084e-09
2.25361e-09
2.63867e-09
7.43372e-07
3.1551e-06
3.9765e-07
6.02313e-09
1.68237e-09
3.24176e-09
0.00284241
2.52956e-09
0.00185271
1.08622e-07
8.78778e-09
7.52642e-07
0.00105424
6.75683e-08
4.02309e-10
3.76728e-09
3.20721e-08
1.50529e-09
2.37935e-08
8.18422e-10
0.0011041
3.35614e-10
4.182e-08
0.00284506
2.95416e-09
0.0013304
5.86665e-08
0.00216661
9.87283e-08
0.0012197
3.5397e-10
0.0028954
0.00232086
2.77777e-08
4.18009e-09
0.00158369
1.9911e-08
0.00186961
1.70205e-08
7.86954e-09
5.10344e-10
1.68704e-08
2.04595e-08
1.50676e-08
6.36815e-07
0.00292264
0.00166189
1.22461e-06
3.79186e-09
3.4577e-07
0.00305633
0.00136144
0.00236581
0.00234394
5.33334e-09
6.11581e-08
2.75075e-08
1.24649e-08
0.00303578
6.51874e-09
0.00148776
0.00321499
5.39864e-09
3.136e-09
0.00160518
0.00302783
2.82551e-08
9.27635e-10
0.00169035
9.12193e-08
2.56019e-09
4.67329e-07
9.85233e-08
0.000406286
7.13626e-08
5.63967e-08
2.47267e-07
2.69835e-07
9.07707e-08
3.83065e-09
4.87728e-09
1.06393e-08
2.02847e-09
2.05683e-08
8.67019e-09
1.87845e-10
2.28373e-09
0.00200649
0.00284308
3.43102e-10
2.54433e-08
6.62565e-09
2.78799e-09
4.81079e-07
1.94976e-08
2.36458e-09
0.00270667
0.00150583
0.00144863
0.00162332
4.87122e-08
0.00136189
2.55026e-07
0.00376687
7.34953e-10
0.00227613
2.70047e-08
3.63047e-08
1.55464e-07
6.14028e-10
0.00294103
1.85637e-07
0.00423615
5.90929e-09
9.34885e-10
9.03856e-09
8.96714e-09
0.00133976
0.00286833
1.38936e-10
3.30567e-09
2.43358e-08
0.00167435
3.74697e-09
0.00280335
3.40392e-07
1.91876e-09
5.69224e-09
0.00241523
3.51261e-08
0.00213602
8.19955e-08
0.00383051
0.00319959
7.76108e-08
3.64474e-09
0.00352898
8.62248e-09
8.50822e-07
0.000344637
1.56782e-08
1.40993e-07
2.29219e-08
8.84669e-09
0.00300982
3.91573e-09
7.38407e-08
3.89169e-10
7.032e-08
4.12118e-09
5.30555e-09
1.51961e-08
9.88498e-09
1.70871e-08
0.00294983
2.13565e-08
2.74925e-08
4.71174e-09
1.4313e-08
8.89642e-09
9.94595e-09
1.1604e-08
0.00217427
8.54733e-09
0.00293679
0.00189481
4.91194e-09
0.000360669
2.94642e-09
3.32505e-09
2.61834e-08
3.48479e-08
3.03165e-08
0.00152605
0.00202693
1.10325e-07
1.06215e-07
8.31077e-08
0.00305492
0.00110992
4.82985e-08
0.00216232
0.0043903
1.24674e-06
0.00259048
0.000410462
6.43752e-09
7.82423e-07
2.5206e-08
0.000563894
6.78039e-10
0.0025248
3.3091e-10
2.30212e-09
0.000636513
0.000341711
1.42909e-08
0.000460464
4.25721e-08
1.0449e-07
2.57984e-08
2.69945e-09
3.9367e-07
2.87661e-09
4.80481e-09
0.00243075
1.32359e-08
1.38837e-08
4.67459e-09
1.21993e-07
1.65338e-09
4.58215e-05
2.96085e-08
2.04082e-08
7.75783e-08
1.64136e-07
0.000297091
0.00227257
4.17941e-08
6.92326e-09
0.00236629
0.00234097
3.69948e-08
2.28659e-08
1.24203e-08
3.15385e-09
3.06028e-08
1.09551e-08
0.00200141
0.00433486
6.11469e-09
2.05129e-09
3.87837e-09
6.0603e-09
0.00246893
0.000394481
1.73387e-09
1.81058e-08
1.53286e-08
0.00211907
1.05111e-05
1.09061e-06
0.00194315
2.49379e-08
2.49563e-08
4.72998e-09
4.11664e-08
2.52568e-08
0.00220493
5.29246e-08
0.000310631
5.52027e-09
6.2677e-09
0.00320551
0.0026027
7.56023e-09
0.00306979
1.07469e-09
1.47178e-09
4.53226e-07
4.99968e-09
3.56858e-09
0.00179305
2.67007e-08
1.2398e-07
0.00385203
1.27398e-08
0.00155003
0.00300655
1.43899e-08
0.00319269
1.44065e-08
1.28067e-08
1.79082e-08
1.87111e-07
9.89595e-09
4.63685e-08
5.93192e-09
2.4466e-08
4.79251e-07
1.94775e-08
0.00232327
6.53036e-09
0.00301325
8.45665e-10
1.15051e-08
5.34791e-09
0.00230969
8.42783e-09
0.00223803
0.00192364
0.00309693
1.57171e-08
0.00209384
1.44351e-07
2.12487e-08
3.18633e-09
7.91937e-09
1.2728e-08
7.63764e-08
1.42164e-07
2.84736e-07
3.41934e-09
0.00282191
3.19534e-08
1.17278e-09
9.45048e-10
4.50163e-09
7.0557e-10
0.00200406
3.50401e-08
0.0029425
2.70223e-08
0.00062495
3.60005e-09
3.64666e-09
0.00176862
0.00346412
6.65749e-08
3.70623e-09
0.00375566
1.56725e-08
1.0277e-09
3.32697e-09
1.32577e-08
6.38428e-10
1.37638e-08
1.4677e-09
1.406e-08
2.85158e-09
5.91877e-08
2.70178e-08
0.0024621
5.49231e-07
1.0289e-07
1.12151e-08
4.64485e-09
0.00208841
1.39847e-08
0.00298226
4.1356e-08
2.80497e-08
6.66951e-09
6.20624e-09
7.94222e-08
7.42791e-07
0.00129731
0.00121778
7.98214e-09
0.0036909
2.41231e-08
0.00276897
9.0373e-09
2.25217e-08
2.95435e-09
0.0025994
0.00127753
0.000427409
4.48409e-08
2.03239e-09
0.00128969
5.29866e-09
3.32162e-09
8.96652e-09
5.33813e-09
0.00237147
0.00202096
1.78783e-08
3.15164e-08
5.15727e-08
3.89466e-09
3.23961e-06
1.81093e-06
6.21738e-09
2.44848e-08
0.00157764
8.81365e-09
3.11684e-08
1.08866e-09
3.00249e-08
4.48597e-09
0.00226815
4.55433e-09
1.69018e-06