/*--------------------------------*- C++ -*----------------------------------*\
  =========                 |
  \\      /  F ield         | OpenFOAM: The Open Source CFD Toolbox
   \\    /   O peration     | Website:  https://openfoam.org
    \\  /    A nd           | Version:  10
     \\/     M anipulation  |
\*---------------------------------------------------------------------------*/
FoamFile
{
    format      ascii;
    class       volScalarField;
    location    "80";
    object      SgT;
}
// * * * * * * * * * * * * * * * * * * * * * * * * * * * * * * * * * * * * * //

dimensions      [1 -1 -3 -1 0 0 0];

internalField   nonuniform List<scalar> 
59698
(
0.0131333
0.000152542
0.000211098
2.04504e-06
0.030347
1.415e-19
0.00213427
3.01981e-05
8.25154e-16
4.1348e-17
3.75238e-16
0.000299367
9.45299e-18
6.23957e-06
0.00035957
2.90899e-16
7.00633e-06
0.000146036
4.51525e-05
0.000251254
0.00137249
0.0141487
1.19904e-07
9.39971e-19
0.0423157
6.76949e-05
0.000342822
0.00760974
0.00680985
0.00745373
0.00478676
3.46507e-16
3.0544e-16
0.0125269
0.00243359
0.000163993
0.0188488
0.0204516
3.08901e-05
0.0227058
0.00865616
9.33266e-19
0.00373469
0.000641728
1.11921e-18
0.0322597
7.42805e-05
0.000729761
0.000248966
0.000173148
0.00151965
0.000119477
0.000337989
5.01106e-06
0.00927512
7.69202e-05
0.00132574
0.000211961
0.00080558
0.00284041
0.00344463
0.000502379
0.12234
7.04547e-05
0.0125999
0.00160565
6.43613e-18
0.000399807
5.59084e-05
9.87866e-16
7.86734e-10
0.000252139
3.4619e-06
0.0425996
6.76361e-18
0.0396486
0.000118184
0.00924002
0.000355356
0.00613999
0.00886741
0.00047814
1.11935e-16
1.60389e-05
0.00837981
0.000551403
3.66919e-06
4.19631e-05
0.0633933
0.000128809
1.77588e-16
0.00206537
0.0147274
9.85934e-06
7.34003e-05
0.000160612
0.00529356
6.1074e-05
0.000271386
2.2348e-20
0.0730722
0.0017722
0.0162044
0.011985
0.000121286
2.93846e-17
4.38449e-05
3.67392e-05
5.52049e-17
4.99936e-18
0.000250039
4.63836e-06
0.0379496
1.14727e-18
2.6092e-05
4.51058e-05
3.97121e-05
4.4671e-06
2.33815e-05
7.5194e-17
3.64141e-05
0.000707942
9.31646e-07
6.14187e-06
2.1288e-05
3.34927e-05
0.0108047
2.71484e-17
2.77312e-05
2.94263e-05
0.0414135
3.7376e-05
1.71988e-16
0.100097
0.00429139
0.00438578
1.64469e-06
7.23221e-17
0.000255588
0.000131348
0.000109254
1.55251e-06
0.000179429
0.00266126
9.8203e-06
0.000693214
5.87712e-06
2.1682e-05
1.73063e-06
0.0293267
4.24347e-05
2.26972e-15
0.00150641
7.32364e-06
0.000162786
0.000342152
4.77755e-05
3.25276e-07
0.0123864
2.31828e-17
0.000855688
5.11699e-05
0.0164632
0.00164811
0.00341592
0.032329
0.000238061
0.0711911
0.000484505
0.000412091
0.0120436
2.33148e-08
0.0108095
0.0148282
0.0795302
0.000727947
6.87644e-17
5.05602e-05
1.94654e-16
0.00633436
0.00946486
0.0182314
0.0147635
1.9816e-05
0.0457648
0.000236476
0.0114501
9.92398e-05
6.51617e-06
0.00118266
0.000402361
6.68937e-05
0.00269006
0.0388045
0.00404808
3.94747e-06
0.00983614
0.0550964
1.41893e-05
0.00768092
1.58762e-16
0.00629291
0.0210747
6.60699e-05
0.00684846
0.000325373
0.00613906
0.000803214
0.0051211
0.00792273
0.000134324
2.36756e-05
0.000161587
9.7628e-17
0.00406824
4.82509e-07
3.74599e-05
3.64887e-05
0.0127543
0.0066274
0.00557628
0.000514324
2.96805e-05
0.066347
0.000815774
0.0236912
0.0073336
0.00323424
0.00685745
0.157759
5.69706e-17
0.00472175
0.00292653
0.0032037
1.3853e-05
0.00964389
0.082937
1.90974e-05
7.11694e-07
0.000450587
1.11254e-05
0.0014682
0.0135315
6.90534e-19
0.00610342
0.000120426
0.00375462
0.227715
0.00122304
0.000427281
0.000702364
0.00163283
0.000628116
3.55827e-17
0.000618619
0.000690654
0.00600947
0.00128672
0.000496697
4.09951e-05
6.84549e-06
1.04493e-17
0.000390817
0.00321202
0.00114399
0.0473385
2.31927e-05
5.15712e-16
0.000164875
1.63037e-05
0.000141778
0.04378
0.000153628
1.84436e-05
0.0180351
0.000205767
1.56788e-07
0.000511557
0.00206453
9.82988e-17
1.46955e-16
0.000193491
0.000212252
0.104782
0.0455194
0.0202895
0.000135462
3.37661e-10
0.072844
0.000444513
0.0911601
1.61119e-05
0.00018827
0.000164773
0.000319585
3.22099e-06
0.000356857
0.000803812
0.00422385
1.11814e-05
0.00272158
4.88104e-18
2.59747e-18
0.000823349
6.46414e-05
5.27914e-05
0.0521858
0.00101555
2.02935e-06
0.000267642
7.84549e-05
7.06966e-05
3.82932e-05
9.79444e-19
2.47466e-05
0.00514357
1.54622e-18
0.000393426
1.59025e-18
0.00080592
0.000340604
0.323425
0.000321495
3.24741e-17
0.0481785
0.0105897
0.000328373
0.000353723
0.000443312
2.89581e-18
0.00660972
0.0041545
0.0203603
0.204085
4.66633e-16
1.89275e-05
9.89918e-06
0.000663365
0.00907976
0.00326088
0.010231
3.79092e-06
2.87297e-05
0.00148213
9.6813e-05
6.7733e-06
0.000102958
0.0396814
4.75907e-05
1.45565e-05
0.0079805
9.16157e-05
0.0401064
1.52749e-18
0.244683
0.000255078
0.0140735
0.000126018
3.80412e-05
1.11119e-16
2.7528e-05
8.84882e-06
2.42101e-15
0.000896258
6.95007e-19
1.62489e-19
1.62267e-05
1.3818e-05
0.000156122
0.00165725
0.00190045
1.10968e-16
4.96717e-06
2.53241e-18
0.00618986
1.89768e-18
0.000153324
2.44673e-05
7.47504e-18
3.86903e-15
8.76693e-19
0.000102701
5.63825e-05
0.000528625
0.000140118
1.29058e-05
0.000212012
2.70045e-18
1.65312e-17
0.000143773
8.75803e-05
7.41432e-18
0.00127118
0.00264818
0.00128552
0.00048218
0.0480466
1.3136e-05
2.28246e-05
0.000145618
0.000410827
2.16381e-05
1.26718e-05
3.98306e-05
3.58316e-06
2.79222e-05
0.0814659
0.0255211
2.31572e-05
0.00540532
0.0314382
9.361e-16
0.000145615
2.74234e-15
4.84408e-08
0.0591664
2.72792e-06
0.0102746
0.000505161
8.46026e-05
0.000114894
5.01253e-06
3.55626e-05
0.308413
3.75814e-05
1.30831e-05
1.90769e-16
0.000218093
4.68528e-05
2.49364e-17
0.000262595
0.000189143
0.0152175
0.00302958
0.00211231
5.76491e-17
1.06278e-15
0.211633
0.000123481
0.00105868
6.51099e-19
4.64556e-05
3.94169e-16
2.1926e-05
4.02563e-05
0.00239647
0.0700348
3.09377e-19
6.45132e-05
0.00908561
1.81927e-05
0.000124992
5.94331e-05
0.0326883
0.00028447
9.71e-05
0.108677
4.61094e-17
0.00979683
2.87092e-05
0.0543561
8.71101e-06
0.0127319
0.0133262
2.33722e-17
0.000976074
0.000446294
0.00847901
3.33833e-05
0.00806179
0.000451026
7.91567e-17
5.33624e-17
9.46849e-17
0.000386798
0.00081588
0.00111384
0.0688974
0.00322074
0.000258077
3.50424e-05
0.000499282
3.94678e-05
7.73216e-17
0.00536301
4.55757e-05
5.55827e-05
9.37589e-05
0.0656987
0.00179654
0.0229764
0.0661886
0.00111146
0.000163408
0.0548011
6.14934e-05
5.35548e-07
3.58527e-06
0.00947232
1.99957e-16
2.0523e-17
0.0640312
0.00718354
0.00460032
1.2395e-16
4.68038e-17
3.8378e-05
1.8307e-17
1.24702e-05
0.00314563
0.000584166
0.0747946
0.00731287
1.74293e-18
0.00910347
5.58131e-05
1.34591e-17
3.85523e-05
4.17562e-18
4.63106e-18
0.00542748
0.00378481
1.17049e-05
1.25686e-17
7.88372e-18
0.00126352
0.00954394
1.04007e-05
0.00732806
0.000197806
3.88449e-05
0.0391493
1.11666e-18
2.22984e-05
7.04426e-07
8.42673e-17
2.5091e-19
6.61605e-05
0.000138606
3.78883e-16
0.00975283
0.00035712
0.000147965
0.0670316
0.00818772
0.0135331
0.00990838
6.2115e-06
0.0117086
3.85e-07
4.19471e-05
1.5457e-16
3.91938e-05
1.1094e-16
0.000282489
3.00345e-06
3.18662e-16
0.00117141
0.00688986
0.00044989
4.50351e-17
3.0248e-16
3.30818e-05
8.26765e-05
5.56922e-05
6.86173e-18
0.074339
5.27006e-05
0.00551277
4.01916e-16
0.00287796
6.41647e-05
3.70563e-16
0.00259655
0.00286886
0.00337934
6.79464e-05
0.00401782
0.00011403
2.52673e-17
8.43999e-19
7.55772e-05
0.00198013
5.44454e-05
0.00405322
5.44599e-17
0.00242984
1.77912e-05
0.00413121
0.0026857
0.00216149
0.000159488
0.000371965
0.000167787
2.18944e-18
1.9011e-05
1.2595e-12
0.00167369
6.22332e-20
1.03262e-17
0.00514953
3.36692e-05
9.65826e-18
3.01424e-05
0.00148669
0.00216426
0.000164882
6.75131e-19
7.55893e-05
6.42554e-07
8.10331e-06
0.000548471
1.01585e-05
0.00434011
0.00141134
0.00278898
2.21395e-05
0.22591
1.87813
2.06909e-05
6.27064e-17
0.000598866
0.00214251
0.000943315
6.06928e-05
4.88056e-05
0.00445511
0.00246629
0.00318683
0.00156519
7.42283e-05
4.64335e-17
9.21804e-05
0.00114498
0.000108013
0.00132865
0.000235771
2.43983e-05
5.22477e-05
0.106532
0.000238881
4.91282e-06
7.64013e-16
2.17418e-16
0.00243008
0.00380626
4.10438e-05
0.000337471
0.000120806
9.06023e-18
6.842e-17
0.000176858
0.00829885
0.000806429
0.000588489
0.000114361
4.06435e-05
2.78845e-07
0.000324975
0.000208753
0.000308784
0.000814642
0.000882898
0.01971
0.0909212
0.00136718
3.34506e-05
2.51585e-05
8.70435e-05
0.0415657
5.09493e-18
2.06322e-05
0.000460597
0.000108993
0.000144054
0.00167858
2.18945e-18
0.00822988
0.0473495
0.000145426
0.000422478
7.96663e-05
6.05199e-19
6.98429e-18
1.08543e-05
1.5678e-05
0.00215152
0.000195062
0.00019124
0.00858676
0.00441331
0.0361925
0.000809082
6.96296e-05
1.96496e-05
7.77966e-05
0.000242086
0.00117989
6.37841e-18
0.000159171
3.66273e-17
7.93976e-17
0.00660996
0.000821855
4.48018e-05
5.26893e-16
0.00639254
2.87867e-05
4.42126e-06
1.36033e-17
0.00156456
7.74098e-19
0.000503195
6.22428e-17
2.82992e-05
0.00195297
0.00915978
3.44508e-05
1.13092e-15
5.09882e-19
0.060334
0.000807129
3.85233e-05
0.000957043
0.00145102
0.0257866
0.00685569
4.91099e-17
0.0557449
5.18942e-05
0.00253612
1.48385e-18
0.00769847
6.43656e-05
1.53813e-18
0.0111631
0.000185415
5.49501e-16
0.00308623
0.0600114
0.000584689
6.93118e-05
0.244266
6.12196e-06
0.000746692
0.00239866
0.0019108
0.00167426
5.20208e-06
0.0134646
1.89756e-05
0.0599688
0.00317504
0.0224315
9.19681e-17
0.000212235
0.105156
0.237576
1.26231e-15
6.85926e-05
0.0498881
5.58903e-17
0.00225343
0.00517301
3.70221e-05
0.00607851
0.00406135
5.95533e-05
3.86243e-17
0.00198854
0.0142231
2.20783e-17
1.74223e-18
3.85209e-05
7.66565e-17
0.00432703
3.84508e-05
0.000224115
0.00607798
0.00524158
1.23384
1.22809e-17
0.0244944
0.00972212
0.0210436
0.00106966
0.00479426
5.61274e-19
0.000955487
0.00160937
1.54667e-06
0.00658354
0.0111389
0.105089
0.000319446
0.00542308
1.02051e-15
3.82037e-17
9.9193e-17
0.000367069
0.000233063
3.66359e-16
6.24557e-05
1.79044e-06
0.00946087
0.000143726
0.000726933
2.82016e-06
1.21959e-17
0.00679772
7.6e-17
3.28928e-17
6.12711e-05
8.13468e-11
6.40362e-05
0.0137275
2.22587e-16
1.20784e-06
0.019873
0.210704
8.10614e-05
0.00861583
0.000129026
0.000634568
7.36491e-17
1.86561e-17
0.00166935
0.000843816
0.00744621
9.56322e-18
0.00627017
1.95569e-06
2.03889e-06
1.09827e-18
7.30809e-05
8.29339e-05
3.80848e-06
7.17788e-17
6.97771e-05
0.000203025
1.52794e-15
2.44535e-17
8.22776e-17
2.03383e-17
4.28132e-17
0.00203877
0.000191676
0.00153558
4.04976e-17
0.00406371
1.66195e-05
2.28123e-17
0.015533
9.03285e-18
0.000153108
1.78333e-16
0.0355884
0.00488324
0.000881886
9.00843e-06
2.46035e-05
0.0106332
3.06338e-19
0.0098446
0.000131626
1.17756e-17
0.000483202
8.04568e-07
3.32261e-05
1.50266e-16
9.87082e-05
1.47954e-17
0.0088631
1.27388e-18
0.00205712
7.85183e-20
6.99632e-05
6.53006e-05
0.00165185
0.000598839
0.000178356
5.97585e-06
0.00202259
3.91832e-18
2.50468e-18
6.44732e-07
6.29223e-05
3.31309e-05
8.00053e-06
5.04326e-16
0.000267328
0.00372398
0.0182876
2.4969e-17
0.00105759
0.00299206
9.1475e-05
0.00281221
1.05144e-17
2.82087e-18
0.0044885
0.000148554
8.48731e-19
0.000184643
0.00162433
3.18118e-19
0.00262499
0.000106321
1.22338e-05
0.0653544
1.88763e-17
8.00328e-06
1.33169e-06
2.64395e-17
4.64144e-17
5.4494e-05
2.4239e-05
6.4292e-06
0.0202871
0.00399402
5.50727e-07
0.0410724
9.38473e-05
0.00132581
0.115396
0.000230622
0.0045764
0.00451956
0.0324368
0.0587768
3.24671e-17
8.79808e-07
1.46476e-17
0.0246732
0.000269066
0.000347846
0.00142065
3.39312e-18
4.02518e-18
0.00243557
0.000578687
1.59896e-05
0.00683631
0.00280325
1.59886e-06
8.4481e-05
0.0250566
0.000752213
0.000141952
4.70526e-05
5.59895e-14
5.68969e-05
0.000180631
0.00107123
2.03165e-05
4.81936e-05
1.7396e-07
1.4421e-16
0.000164081
0.000106831
0.0054167
3.21089e-17
0.000142003
0.00960794
0.00190807
0.00029505
0.000415024
0.000264584
0.000127547
0.000425098
6.40566e-17
3.07375e-17
1.74377e-17
0.000150202
1.46795e-18
0.000396441
0.010965
0.0164046
0.0178353
7.62273e-06
8.57369e-06
0.00293642
0.00117498
0.00276296
0.00395322
0.000397787
4.64421e-05
0.000178412
4.35256e-05
0.0111053
0.0566479
0.00198368
1.54155e-17
6.76057e-07
1.57665e-17
8.93234e-05
0.00114954
0.000302771
0.00235059
2.2218e-16
2.08999e-15
0.000122781
0.00236945
0.00236419
0.000784293
6.4798e-06
0.0471383
1.38465e-16
1.58107e-05
2.87855e-06
0.0201879
1.36738e-18
0.000398139
1.46366e-05
0.00108396
0.000453877
0.00160521
0.00115704
3.41639e-05
7.98308e-06
5.15969e-05
1.33738e-06
0.00550419
0.00952576
0.0100833
0.0081734
0.00522229
0.00589085
1.38895e-07
0.000147409
2.24694e-17
0.00598477
0.00474861
0.00222806
4.96359e-17
0.000118827
0.00389607
0.000245685
0.00160746
6.3477e-05
0.0147153
0.000126967
0.0406359
8.2798e-05
0.736997
7.60544e-06
2.18581e-16
1.35862e-05
2.20176e-05
3.57979e-16
2.30223e-10
0.00399919
0.00702074
0.00175656
0.000635293
0.00357495
4.67972e-17
3.43284e-18
0.0197222
2.00639e-16
0.00092676
0.00116166
0.000176808
0.000323355
0.0011263
1.22326e-16
3.72579e-17
0.00815396
0.000780903
0.0924914
2.66573e-16
0.000661094
0.0817868
1.08197e-16
0.00872285
0.00276466
0.0251331
1.55126e-05
0.00363177
3.48199e-05
6.74345e-06
0.0013251
9.1785e-19
0.0012339
4.22242e-05
0.000117306
0.000126127
9.20273e-06
1.90695e-05
0.00323365
0.00966952
1.79796e-16
0.00216099
0.000535242
0.000160211
0.0364435
0.0544676
0.00501947
0.000373482
0.00325141
0.458626
0.0240532
0.0262756
0.000460323
6.94391e-19
0.102701
0.000136828
5.54137e-18
1.50263e-06
0.0143129
0.000213597
0.00170686
0.000330078
0.00174704
6.61134e-18
0.00246457
0.00903442
0.00287816
0.000649574
0.000737807
2.09096e-18
7.1174e-17
0.000130876
0.00364677
7.70671e-17
0.00114365
0.000583595
0.00778596
0.000354274
0.109052
4.49198e-05
0.0011871
3.37454e-07
0.00566744
9.29149e-05
0.00110799
0.00256734
4.38312e-18
1.51439e-07
1.23618e-05
0.000137526
1.35186e-05
3.82068e-05
0.0186262
0.0101531
1.04141e-05
0.00150293
0.0839447
0.00108779
0.00399761
0.000114342
1.80249e-05
0.00370798
0.0362512
0.0089906
0.00264659
0.000182721
0.00191901
0.00336662
0.00297721
0.00374291
0.00536907
2.27224e-18
0.11654
0.0502178
0.00048742
1.02782e-06
3.04358e-05
0.000484884
3.40783e-06
0.0261598
0.00113041
7.04892e-07
0.00230797
0.0003716
5.45827e-16
0.00355476
6.90995e-18
0.00268783
2.66931e-05
0.00148031
0.00375787
9.25135e-05
0.0197186
0.000151177
1.50374e-17
0.00364654
0.000185082
0.000397475
0.00209827
0.011838
7.19875e-18
5.57671e-19
0.000376046
0.000264475
3.38435e-10
6.71416e-17
0.000190526
7.30969e-05
9.70703e-05
1.2124e-18
1.28818e-17
0.000852327
5.18186e-06
1.83678e-05
1.83522e-05
0.000313403
5.67768e-08
6.25141e-19
4.46464e-05
3.69352e-16
2.92761e-05
4.37545e-16
4.37168e-06
1.17164e-15
0.00391227
0.103357
5.29062e-05
0.00478942
0.00167422
0.00172066
9.60583e-17
3.51033e-06
4.40182e-05
0.00834689
0.0198474
0.00283628
5.00256e-05
1.16291e-16
8.49624e-05
5.23657e-16
0.00475032
0.00938949
1.44325e-17
0.00209661
0.00281432
0.00107435
0.00353653
1.7669e-05
0.0145822
0.00188616
0.00254757
9.22357e-05
2.10232e-17
1.00248e-17
5.29571e-05
0.00563513
8.32495e-06
8.65458e-17
3.49558e-05
0.00502863
0.000210423
0.00100975
0.00101775
6.00393e-05
3.36345e-07
4.83322e-05
0.00389531
9.73602e-05
8.94699e-05
0.028566
0.00212811
0.00084148
6.11239e-05
3.23606e-18
0.00101702
1.80178e-17
0.0146872
8.96368e-16
6.66828e-16
0.00123635
4.399e-18
0.000885202
0.000217051
4.39636e-12
1.16387e-18
0.000215093
0.000284188
1.2322e-16
0.00220014
6.92815e-06
0.000277547
0.000575089
2.36954e-05
7.41744e-17
0.00527085
0.000203252
2.8493e-17
0.0471298
6.56885e-05
3.27507e-05
0.000263502
1.15684e-18
1.62231e-05
8.55775e-17
8.79845e-05
1.1311e-16
9.60623e-06
0.000945377
0.000335794
0.00274706
0.00427766
0.00128796
1.52531e-05
0.06277
4.16733e-06
3.06544e-14
0.00214681
0.000791762
0.00339879
1.14948e-05
5.70364e-15
0.351007
1.65282e-06
2.14461e-16
3.47797e-05
0.0230751
0.00307269
8.04075e-16
4.13448e-17
2.07944e-05
0.000594829
0.0361928
0.00217648
0.00867914
0.0118573
6.41562e-18
3.51358e-17
4.27478e-17
3.64628e-05
0.00832775
5.03599e-16
0.0751184
2.81706e-17
0.000492412
2.95145e-16
3.1687e-16
1.33726e-15
0.000377909
0.00866272
0.0181293
2.55436e-17
0.00184557
0.00451158
5.55695e-18
0.00023637
0.000995303
0.0019792
0.000393461
0.000804319
0.00749417
0.0106574
0.00059026
0.00158827
0.00265851
3.70391e-05
3.2415e-18
4.96661e-17
0.0137871
0.0116748
0.00350611
0.047657
0.00269714
0.000172129
0.00525368
0.000185381
5.81759e-15
0.0010697
0.0222802
0.000284668
0.0205578
0.0116506
0.0341284
1.1899e-19
0.101058
0.00884948
0.00171751
0.00458614
0.0653488
0.000403387
0.00280484
4.18693e-06
7.92261e-05
0.00812495
0.00112547
3.13319e-05
1.77147e-06
0.000104192
0.024915
0.292966
0.000157162
0.00903722
0.000290427
0.000144435
2.11533e-16
0.189515
0.000623209
0.286117
0.776648
3.29851e-06
1.02619e-16
7.59377e-06
0.0001829
0.0106477
0.00563847
0.0101742
0.0628497
0.0344793
0.00184614
1.39125e-05
0.0103182
0.011342
1.11048e-16
0.000511602
5.52394e-19
0.000240165
0.000427267
1.77269e-18
0.138449
0.000201735
6.89005e-05
1.16994e-15
0.000261944
0.000181168
1.14342e-19
7.77424e-17
0.476803
0.0314564
0.18556
0.148319
0.00218274
3.82518e-16
0.00665189
0.00124953
2.79696e-05
4.2077e-19
0.0854637
7.19194e-18
3.31059e-06
6.97643e-05
2.70909e-19
0.0165654
4.74198e-05
0.00854714
5.31427e-05
6.49455e-05
0.000137859
0.000638553
0.00113349
0.0130047
3.2823e-06
0.00113033
7.08087e-05
0.0150577
1.6508e-17
3.74439e-17
2.22946e-06
0.0135165
0.000152042
0.000165786
9.17221e-05
0.0314853
0.000500943
0.000197196
3.06029e-05
9.73043e-06
5.5779e-06
0.00303721
1.7826e-16
3.09791e-05
2.41427e-05
1.35741e-15
0.000127426
5.90799e-07
3.29108e-16
0.000213864
1.62641e-17
0.0106993
3.96124e-08
3.86266e-16
0.00191095
0.00168446
0.00953938
0.000577981
0.0103214
0.000306145
2.29727e-16
1.56114e-18
1.04962e-18
9.79885e-18
2.92471e-17
5.29954e-05
1.70667e-07
1.51449e-05
0.00947945
0.00171061
6.07686e-16
0.017666
4.35042e-05
0.000211235
0.0145057
0.0062882
0.0122847
0.0130718
0.00335088
5.26741e-18
0.319917
0.062043
0.00081319
4.66608e-17
0.0146743
0.000912591
0.0242213
0.000102726
4.93566e-16
0.0121366
5.40815e-06
0.00678698
7.87768e-17
0.000132144
0.00757561
1.64194e-05
0.0312257
0.355454
0.00114971
0.0550478
4.59577e-16
6.12848e-16
1.61406e-05
1.61058e-06
0.101719
1.29873e-05
0.00155584
0.000423069
2.39784e-16
0.00161424
1.73682e-05
7.66659e-17
1.38347e-16
0.026058
2.09374e-19
5.80427e-05
0.0621349
9.9946e-14
0.00272632
1.28659e-17
1.42887e-16
0.00106071
0.000153233
7.21667e-17
3.37269e-06
4.80129e-16
0.00249185
0.000523113
1.28213e-16
2.4659e-16
0.000857188
5.43927e-06
0.00279706
1.08808e-17
3.51063e-06
0.000629329
9.2588e-05
5.05503e-05
0.0316913
7.69478e-18
5.65571e-05
1.35211e-16
0.00163496
0.0338046
4.31163e-17
3.68381e-14
1.78289e-16
0.000169298
5.11422e-17
0.00197413
0.296124
4.29063e-16
2.60209e-06
4.17171e-05
4.90477e-17
3.19833e-16
2.26441e-16
0.000175565
1.01197e-16
0.000849279
1.49341e-18
0.000106227
0.000198898
5.23878e-18
0.0114726
1.37367e-17
9.63022e-18
0.00148022
0.000105836
0.00139404
0.0444114
9.99335e-16
0.000173236
0.000123996
8.55128e-05
0.000106909
2.6167e-05
1.45169e-17
2.12138e-17
4.24132e-05
2.02714e-17
5.45645e-17
1.11224e-05
3.90054e-16
8.46142e-05
0.0226775
3.53083e-16
0.00613708
0.000123604
0.015582
2.04056e-05
0.000119157
4.6453e-05
0.0043576
2.82814e-05
0.00408784
0.019302
2.18254e-05
6.1677e-05
2.54859e-05
0.000149726
0.00085778
0.000348843
0.000106737
0.0164409
7.18143e-05
0.0104865
4.62531e-06
0.877237
0.439757
0.000109276
0.041034
8.36065e-05
0.000391067
0.00940832
9.8266e-10
0.603415
0.0442368
0.00455623
0.000620957
0.0283303
0.392665
8.92277e-05
0.0248655
0.00439601
0.00218348
0.124784
0.0441666
0.00057643
0.00095837
0.0260296
0.0486403
0.00413388
0.000311904
0.0310712
0.000205675
0.0139779
1.25048e-16
1.11181e-05
0.00658205
0.000214612
9.30457e-07
0.00391922
0.000125551
0.00012876
0.000295261
4.3242e-17
0.00782614
0.00603769
1.40959e-18
0.00044369
0.00172328
1.44413e-05
0.00402416
1.01098e-15
0.011532
0.0635416
4.34633e-07
0.0329396
0.000139794
0.00115305
0.000143992
0.000454205
0.0300501
0.00415878
0.000221931
0.0273763
0.000304339
7.61457e-05
0.000365545
1.03123e-16
5.62515e-17
0.00536057
0.0259075
0.0147133
0.0051688
0.0055393
0.00104354
0.000133286
8.093e-05
0.000136036
1.61874e-05
1.31001e-08
0.00175271
3.33466e-07
3.53804e-06
4.72281e-06
3.69591e-06
9.2905e-06
5.66546e-05
0.0102179
5.03667e-06
2.20072e-06
0.00338649
0.000275834
2.53585e-05
8.86734e-17
0.00683933
4.27864e-06
0.00504354
0.00044845
0.00431498
0.000119858
4.33953e-05
1.08224e-05
0.000117067
7.58524e-07
0.00153419
2.43819e-16
4.71958e-05
8.89939e-05
0.0345662
0.000164879
0.00427333
1.45319e-05
0.000177079
0.000314734
0.00835964
1.94554e-07
1.54545e-05
0.00361731
1.20489e-06
1.02655e-06
0.00189719
0.000365475
4.04225e-05
0.00299682
6.0267e-05
0.00600446
0.0290349
3.92175e-05
8.11482e-05
0.00297829
0.000331076
0.00426121
7.50713e-05
0.00617012
0.000349124
0.00279488
2.83843e-05
0.000731115
0.000925436
0.00721213
6.15337e-05
0.0201483
0.00609137
0.000237526
0.00138604
0.0015861
0.000252202
2.92199e-05
0.00248812
0.021862
3.40606e-06
0.037653
0.000203033
3.58189e-08
0.000109052
0.00188525
1.00516e-05
0.000872383
0.0137136
0.0213754
0.00207321
0.00963423
6.57355e-05
7.64617e-05
0.00440417
0.0144226
0.00044821
7.64411e-07
2.48408e-05
0.0823863
0.041813
0.000104426
5.0099e-05
1.42226e-07
7.74386e-06
0.000114051
0.0337687
0.00864893
0.0158696
3.8809e-05
0.00100695
2.8519e-05
0.0193557
1.74785e-17
0.00337468
2.5347e-05
0.00104783
0.020302
7.43546e-05
0.000398488
3.59994e-05
2.65437e-05
5.97817e-06
1.67927e-06
0.0235993
0.000228599
2.2805e-07
0.0200071
2.03726e-05
2.12163e-16
0.000438995
0.000364787
1.82519e-05
0.0134272
0.000466627
7.11168e-19
5.26638e-05
1.09204e-05
1.46242e-06
5.63023e-06
2.07011e-05
2.08605e-17
2.58914e-05
3.08482e-05
0.0116197
0.0028878
0.000370706
1.02774e-09
0.000291524
0.0600727
3.78337e-05
9.58505e-16
0.0181332
0.0028072
2.19194e-05
0.00332015
2.24085e-15
9.32894e-19
0.0183321
0.00216655
0.0229673
0.000781787
0.049988
0.0142284
0.000125604
0.0258295
1.55636e-05
0.0891436
0.00326169
1.1384e-15
3.53719e-05
0.25705
0.00484817
0.000995431
0.00310723
0.000161523
0.00331456
0.0308488
0.00856825
0.0029118
0.144742
0.00374009
2.5751e-19
0.0178784
0.0640137
0.0348685
0.00132621
3.30121e-05
0.000211198
6.04547e-05
0.000680082
0.0190624
0.019692
5.1947e-09
0.0524009
0.0230824
0.000616793
4.02061e-06
0.0137011
0.00325542
0.000719794
0.0506469
0.000535053
0.000111322
0.0107865
0.0108266
0.0217183
5.8995e-05
5.26952e-07
0.00158741
0.0163268
8.02013e-17
9.45785e-05
0.172845
0.0025601
0.00123676
0.000717694
4.35084e-05
0.00433901
1.17494e-16
0.018545
1.69915e-06
0.0140667
3.29173e-05
0.0056617
6.69598e-18
0.0164962
2.02445e-11
0.000118706
0.00874015
1.28018e-05
0.00661403
0.007729
3.33772e-05
0.0158558
0.00013443
0.0156436
0.00665059
0.00931319
0.0563708
0.00558103
0.0290849
0.034539
0.0168864
4.35089e-05
0.00453893
0.000173183
0.000973479
0.000917497
0.00126867
0.00222016
0.000644337
8.94823e-06
3.3021e-05
2.87374e-06
0.00133997
0.00127857
0.0522566
0.00324291
2.99671e-05
0.000110385
2.3651e-05
0.000451679
8.93428e-06
0.00107352
0.0298653
0.00253485
0.00192694
5.23615e-05
0.017012
4.89054e-07
3.28424e-05
1.89185e-06
0.000215947
0.0347216
0.00680647
0.000520804
0.000723194
0.00447792
0.000219864
8.80189e-05
0.00491029
1.02836e-15
1.48371e-05
8.47994e-05
2.54658e-05
4.64567e-05
4.68559e-05
0.00104488
0.00866727
0.101413
0.000250113
1.81964e-05
6.59587e-06
0.000327572
0.00836756
0.00240595
5.3483e-05
5.16901e-05
0.00318968
4.85934e-05
0.0101014
0.0751135
0.0450629
0.000172834
0.000523166
8.81841e-06
0.000115445
5.53316e-05
0.00392455
0.000451018
0.000760541
0.0142653
0.00192428
0.000277955
2.18055e-05
0.000412825
0.0297656
9.49648e-07
9.46868e-19
0.011021
6.13201e-06
0.000562756
0.00470197
2.01299e-09
0.00010582
0.000514861
0.000145606
0.0226561
4.00204e-05
0.000114362
0.000299993
0.00511475
7.80645e-05
0.00069621
0.000108507
0.00127751
0.00954752
3.59736e-05
0.0285904
6.1524e-17
5.10248e-05
0.00240763
7.46411e-05
0.000338531
0.00347554
0.00119277
5.53887e-05
8.62144e-06
0.00181561
3.65549e-05
7.57543e-05
6.76281e-05
0.00330337
1.28718e-05
0.300923
0.000144672
0.00095312
8.51926e-05
3.08768e-05
0.000284083
0.000247792
0.00372615
4.97962e-05
0.000571256
7.29001e-05
0.000905609
0.0140389
0.00278541
0.111963
0.000866687
0.0100721
0.0103505
0.0123819
0.00126231
3.18006e-05
8.02361e-05
9.51385e-05
0.000101553
3.7755e-17
0.000257734
0.0116403
3.30792e-18
6.35391e-18
0.00374817
2.28932e-05
3.20772e-05
0.0150336
2.48791e-05
0.000112155
0.00190979
5.25777e-05
5.07993e-05
0.00158914
4.27511e-05
0.0242501
0.0134368
0.0101969
0.0019054
0.000139749
0.00158521
0.000293081
5.8825e-06
4.19819e-05
1.61914e-19
0.000101118
0.0110257
0.00697244
5.31211e-05
7.44162e-06
5.42895e-08
0.000261424
1.53781e-06
0.000341639
0.00412369
8.41135e-06
4.0863e-05
1.01145e-15
4.90154e-05
0.00277294
6.71292e-05
0.000334682
0.00227587
5.32591e-05
9.97612e-05
6.38515e-06
6.86325e-19
0.0534982
0.000479415
0.00067297
3.61833e-05
1.59815e-07
0.00221547
2.11777e-06
0.00343609
4.00563e-05
1.53145e-19
1.26154e-18
2.80819e-05
0.0194765
0.00321342
0.0242188
0.00160789
0.051246
0.000104701
2.29775e-06
0.000236359
8.87007e-19
0.000889034
7.58442e-05
6.39321e-06
0.000104086
5.07499e-05
0.019316
0.00044082
0.002327
0.00586978
7.27604e-05
0.0107957
0.00359792
5.09359e-05
0.000932827
0.00316851
0.029655
0.00030175
7.55779e-18
0.0633164
0.00890291
0.00641773
4.13005e-05
0.0621013
0.000274961
0.0150603
3.23654e-05
0.0172811
0.000197947
6.29764e-08
5.94789e-06
9.31277e-06
5.5051e-06
0.0402681
0.0145013
0.0145731
1.4945e-06
0.0023207
0.00010686
9.90345e-07
0.000939082
0.00010402
1.76361e-06
6.24991e-06
3.53879e-07
0.000130069
3.04261e-07
0.0359328
0.00308929
0.000346799
9.74816e-16
9.04466e-18
0.00168833
0.000456476
0.0015162
0.00073307
1.4609e-06
0.0141081
0.000252076
0.000665444
0.00205099
0.00125223
0.000125316
7.53086e-05
0.000176805
4.45442e-05
1.82169e-06
1.34678e-05
0.000108479
0.000667995
0.000103528
6.52697e-07
0.0167972
0.000216916
0.000589374
2.41292e-05
5.65469e-05
0.000489189
0.00694584
0.00288353
0.000582926
0.000214819
7.1311e-05
5.64816e-06
0.00439153
9.35534e-06
0.00748247
0.000392055
2.48921e-05
0.00188051
0.0952928
5.45134e-05
0.000193382
0.000518873
3.76913e-05
3.90124e-05
1.83999e-06
0.000199106
1.61953e-05
0.00138448
0.00374857
0.000585515
6.94908e-05
7.64212e-07
0.000465973
0.00954113
6.02914e-07
0.000141669
8.75925e-06
2.46692e-05
0.000368737
0.000183081
2.16141e-05
0.000293029
4.44778e-08
0.000101232
7.36123e-13
5.95198e-18
0.00019917
0.120457
7.61674e-06
0.000566528
0.00022686
0.000105673
0.0117737
8.33452e-06
0.00274806
0.000121867
7.94157e-05
0.000516741
1.90757e-05
0.000206241
1.78992e-06
3.89279e-06
0.000108758
0.000122487
0.0185556
0.00060349
0.000357285
0.000358595
3.39558e-06
4.47489e-05
0.000180382
0.00263946
3.07971e-05
6.37176e-17
2.98932e-06
0.00116605
1.48244e-05
0.0123461
0.000292234
7.93773e-08
0.000161637
0.000126964
0.0838909
0.000378537
6.52428e-06
4.07672e-18
1.823e-18
0.00020925
0.000597325
0.0265714
0.00872713
4.84999e-16
3.06165e-05
0.0377193
0.0400023
8.07414e-18
0.0179221
0.00589877
0.000395688
0.000129762
3.74359e-18
5.82712e-18
0.000316769
2.39953e-16
0.00441759
1.49406e-05
0.000163208
2.64295e-05
5.73467e-05
0.00604284
7.72035e-05
3.9919e-05
3.92388e-05
1.54143e-18
0.000194668
4.30962e-19
2.33343e-16
1.00094
0.000185124
0.0193741
0.00305434
1.0908e-05
4.00005e-18
0.0155584
0.00188692
1.99546e-05
1.62024e-05
0.00331423
4.30987e-16
5.40795e-06
0.000397247
1.69642e-05
0.00222942
0.000555262
0.000488688
0.000533252
6.03476e-06
7.0833e-05
0.0199142
0.00283571
0.000593316
1.78113e-17
0.00355461
9.61772e-05
9.49624e-05
0.000247424
0.00921032
0.0125658
0.00411041
0.000754813
0.000178158
0.0025204
0.00191409
0.00203599
0.000470812
0.000228824
1.19669e-17
0.0036738
0.00168892
0.000126527
0.000108079
0.000751539
0.00158269
7.14288e-18
1.74153e-16
0.0227308
1.10835e-05
0.00090401
0.000298912
0.00330396
0.00979393
3.44123e-07
8.86475e-05
0.00550473
0.000153548
0.000125114
7.26566e-05
4.36172e-06
1.27231e-05
1.75471e-05
0.00362434
0.0128676
3.10941e-18
0.00606391
0.00160983
0.15113
0.000167718
0.00139005
3.06529e-05
0.00908098
1.14517e-05
8.54357e-05
2.5831e-05
0.0199029
1.19789e-05
0.000513974
0.000695546
1.95268e-05
0.00677416
6.36601e-05
0.00219214
0.0168386
0.00693068
5.48528e-05
3.79182e-05
0.012237
0.000135732
4.42473e-05
0.00189817
0.000772697
0.00188874
2.11722e-05
0.000112061
0.00465683
0.00325706
6.33165e-05
2.80515e-05
0.000258202
0.00191742
5.99806e-18
7.57547e-05
2.5079e-06
0.000924005
0.0150259
0.00284585
0.00155013
0.00338391
0.000487061
0.0313657
0.0013167
0.00742913
0.000250792
1.04388e-05
0.000237285
2.758e-05
0.000447055
5.89444e-06
1.62939e-17
0.00119754
0.000153414
0.0371681
0.00076594
0.007894
5.33784e-05
0.00738464
0.000332709
0.0148344
0.0174865
0.00141153
0.00978659
1.05033e-05
0.000372757
2.84957e-06
0.0006024
0.000218849
0.000349816
6.18404e-05
0.000307629
9.93946e-05
0.00263963
2.10717e-05
5.58117e-05
5.9535e-05
9.59987e-18
0.0265531
0.000162049
1.59755e-05
3.39398e-05
3.10819e-05
0.000138981
0.00540524
8.59822e-05
3.32349e-07
3.43565e-05
0.00159152
0.00312192
0.000252954
0.0157756
0.0133946
9.00267e-18
0.000207621
0.000162578
0.000100026
0.000289613
0.000471282
0.000447164
2.37814e-05
0.000932816
0.000450563
0.00536125
9.84819e-18
0.00117192
0.000535543
0.00840066
0.00525722
0.00878134
2.0687e-05
0.0541874
0.0218634
0.0970642
2.05412e-05
0.000145317
3.69248e-05
0.000278675
0.00675848
0.0102718
0.0297212
0.0246821
9.2239e-06
1.5566e-05
0.00781874
0.000405505
0.0173753
0.301564
0.017172
0.000345028
0.00044833
0.0161185
0.00158659
0.000242894
0.000726694
0.161904
1.37981
6.93775e-05
9.95473e-07
6.38264e-05
0.00345556
0.00104856
0.00185714
0.00269704
0.0019706
0.00212353
0.00087993
2.83722e-06
3.10589e-05
0.000207642
1.00902e-07
6.09236e-05
0.000441756
2.80713e-05
9.21662e-07
0.00321963
0.0106832
0.00403791
2.51982e-07
1.07864e-05
3.12678e-05
1.94093e-07
6.58032e-05
3.0052e-05
0.00877273
1.01731e-16
0.0314564
0.000106876
0.0489233
0.0149899
0.000242059
0.00214569
9.97686e-06
0.00232567
0.000136764
0.00087233
0.0840969
1.10138e-05
8.4222e-19
5.73131e-10
4.37328e-05