/*--------------------------------*- C++ -*----------------------------------*\
  =========                 |
  \\      /  F ield         | OpenFOAM: The Open Source CFD Toolbox
   \\    /   O peration     | Website:  https://openfoam.org
    \\  /    A nd           | Version:  10
     \\/     M anipulation  |
\*---------------------------------------------------------------------------*/
FoamFile
{
    format      ascii;
    class       volScalarField;
    location    "23.5";
    object      p;
}
// * * * * * * * * * * * * * * * * * * * * * * * * * * * * * * * * * * * * * //

dimensions      [0 2 -2 0 0 0 0];

internalField   nonuniform List<scalar> 
111485
(
7.87183
0.0266819
0.0167968
7.87304
0.00990413
7.60853
0.0103451
0.0192666
0.0106765
-0.00250858
0.0098424
0.00685293
0.0139738
-0.00109012
0.0120536
0.0377459
0.0266835
8.79325
0.0154635
7.87376
7.874
7.61136
0.00822746
0.0266047
0.00446624
7.84777
0.0128371
0.0461521
0.0151511
7.87273
-0.0859279
0.0167618
7.87557
7.60671
8.57228
7.567
-0.0607978
0.0520022
-0.121515
0.0209911
7.65391
-0.00259991
0.0217065
-0.0330177
-0.261938
7.88584
-0.0166196
0.0222705
-0.00768236
7.91595
7.91408
7.36014
7.92255
-0.0479646
7.92752
0.0248037
0.0157248
7.61521
-0.0966332
0.0183652
0.0195494
7.87231
0.0188171
-0.0747884
7.65639
0.0246908
5.09946
0.0172871
0.00515132
0.0167808
-0.14339
0.0308843
7.72618
0.00548728
7.87778
0.0321545
7.61107
-0.00575812
7.60987
8.05498
-0.114817
-0.0351452
7.6106
7.87417
0.0236559
0.00882161
1.74158
-0.0539782
-0.106968
0.0382688
-0.215118
0.0106382
0.0226243
0.0461882
-0.00241384
7.87388
7.87233
-0.0375967
-0.746376
0.0662486
7.87223
0.00459642
7.59608
-0.00992771
0.0107786
7.91143
7.61385
0.0156344
0.00818688
-0.350812
0.021605
0.0331147
0.0162062
0.00542879
7.84434
0.0318442
7.86082
7.60744
0.0124269
7.87466
7.84676
6.6607
7.61147
7.6154
-0.00381004
8.95725
6.62312
0.0194088
7.8746
0.386656
-0.105424
-0.0389879
7.87829
6.50716
6.79657
0.0102351
7.6109
0.032604
0.00754344
0.0273705
-0.0395349
0.00882024
0.0169812
0.0166197
-0.0239149
0.0328781
7.61089
7.87338
7.62019
0.017003
0.0131095
7.87165
-0.073953
0.0092423
-0.668055
0.0189298
0.0145579
0.00908752
-0.525205
7.8792
7.87333
0.0162128
0.00700762
-0.485113
-0.605744
0.0258763
-0.066236
7.64244
-0.447232
-0.413637
7.61489
7.87291
0.00588676
7.61242
0.0293406
0.0171555
7.6663
7.70443
7.86365
7.81022
7.6754
7.87239
0.0237682
0.019106
0.0259675
0.0700876
0.000476507
0.0281628
-0.0515065
7.87299
0.0160381
7.69948
7.86059
0.0361554
-0.00966118
-0.0502719
0.0320361
0.0160948
7.87862
0.0224267
0.0173196
5.29725
-0.024015
0.0256245
7.86876
0.0320162
-0.0104853
7.69849
-0.0558856
-0.0102591
0.0145528
0.0146756
7.66822
7.8718
0.0284871
4.95407
-0.0387661
7.61213
0.0310615
0.034572
-0.00443618
7.87085
0.0202716
-0.0651397
5.98649
7.61218
7.61501
-0.118735
-0.593544
7.72426
7.29602
0.0327851
0.0234235
-0.082011
7.72234
7.80654
-0.0727999
7.87547
0.00754354
0.0301078
0.0303858
0.0178504
0.0292944
7.61621
-0.112824
0.0146786
7.61905
7.61076
-0.0528019
0.0321751
7.7822
0.0308999
0.0298085
7.87357
6.35127
-0.0292886
7.88804
8.02376
7.18578
7.87378
0.0258932
0.018898
-0.0106191
7.87516
0.0291688
7.87286
7.87103
7.87824
-0.0805141
-0.0123641
0.0256957
0.0164292
0.000140856
0.0194163
0.0167551
-0.0834235
0.0105767
0.0213469
7.57042
7.87329
-0.085082
0.0199482
-0.0948529
0.0258328
7.8742
0.0260095
0.0126743
0.0195576
0.0162645
-0.113098
0.0146853
0.0180891
-0.0261075
7.61174
-0.0141067
7.61247
8.73754
8.09044
-0.125974
-0.0118907
0.00924678
7.86703
7.67591
0.027399
0.0269865
7.87136
7.8696
7.93109
0.01859
0.0306237
0.0201379
0.0167248
0.011683
7.22389
7.61809
7.87466
0.0309913
3.26357
-0.00574794
-0.115596
-0.089886
7.61153
7.87152
7.87226
6.79043
0.0242868
0.0179599
7.60416
0.0272541
7.77853
7.86383
-0.0361837
0.024842
0.00177691
0.0273324
7.98421
6.75446
7.60731
0.0246713
0.0196958
-0.0864532
7.64911
0.44236
-0.153698
0.0176149
0.0291872
1.26607
0.0104673
7.60935
0.00532534
0.0305046
-0.105149
-0.0421768
0.0070988
7.60947
7.87611
7.61249
7.87628
0.0258455
0.0249015
-0.0161978
0.0151993
7.62763
0.0112903
7.61492
7.87937
0.0115839
8.13955
6.94931
7.91507
7.56232
0.017772
7.61384
0.0172238
0.0163281
7.60965
0.00533249
0.0263747
7.85254
0.0261616
0.0109077
0.0320517
-0.0514565
0.0407072
0.0299858
7.99212
7.87401
-0.0217691
7.63193
0.00400752
-0.048521
7.66494
7.61442
0.026871
0.00986063
-0.000496098
0.0232037
7.61075
-0.0828965
0.00251239
7.60657
-0.0357208
-0.0122579
7.87082
7.8726
0.0247086
0.00494834
7.59231
7.86474
5.85613
7.87158
0.0102994
7.61204
7.87251
-0.000811409
-0.0990737
-0.0101791
0.0180219
7.60966
6.80807
-0.00829726
6.90615
-0.0311595
-0.00432002
0.00362811
5.27319
6.98039
-0.489264
-0.31854
7.87024
-0.0522614
0.00979687
7.86893
-0.516034
-0.00320623
6.94493
0.00372835
0.00604976
0.0386261
7.61087
0.268562
0.00265601
0.0490124
-0.138434
6.5996
-0.6062
7.87128
-0.0452188
-0.169144
7.61551
-0.00735671
-0.0115669
6.41746
7.87412
7.47083
7.87297
0.0113725
0.0781958
0.00981003
0.00929199
-0.0585395
7.61273
-0.0465713
7.88416
0.0228152
7.59764
7.88152
7.8886
-1.49458e-05
7.87485
7.87175
8.34431
7.87072
7.62347
-0.0206073
7.61323
7.41523
7.60934
7.85929
7.60349
7.88091
7.61175
-0.00215923
7.60787
-0.0238521
0.000630266
-0.0867217
7.61802
-0.0211962
7.617
7.87155
-0.00684675
-0.00617678
0.0404789
-0.126964
7.32033
-0.0158258
-0.0264272
0.0229822
-0.0126681
-0.00359359
7.87403
-0.00427625
6.42874
0.00170235
7.61193
-0.0219019
6.65315
0.0232522
0.014183
8.29143
7.67652
-0.0311479
7.87171
-0.0143687
-0.0221167
7.62221
7.62942
7.92013
7.61432
-0.981331
-0.0148446
7.60679
7.61955
0.00763856
7.6113
-0.0184445
7.61032
-0.0203585
7.87185
0.00688391
0.00551362
0.0516866
0.0221747
7.58968
-0.128374
7.60487
7.61181
0.00254237
7.61303
-0.00301949
7.92633
-0.0359897
7.87329
0.02206
7.87403
6.95267
-0.10601
-0.048978
-0.0187045
0.00625231
-0.0312055
-0.00554677
7.61928
-0.0262887
-0.0291917
7.61157
-0.0543287
-0.0658105
-0.0111451
7.68026
8.03302
0.0307947
-0.04102
3.67247
7.71929
-0.00164383
0.019225
0.00283683
-0.000159505
0.157234
2.5206
6.85907
-0.703828
3.13549
7.87319
0.0077342
7.6312
6.98359
0.0307001
2.46504
-0.724434
1.41705
6.8573
-0.0145919
0.0144689
7.6261
7.44284
0.021544
7.87945
7.61139
7.61212
7.61627
-0.00227918
7.61347
7.82936
0.00421289
0.0264381
6.01712
-0.0308516
7.30711
0.0278354
7.92142
7.61715
-0.00748349
7.61096
7.61632
6.95038
0.0454902
4.63357
-0.0264464
0.0381262
7.88769
-0.228763
-0.0697832
0.00350894
-0.0166928
0.250845
-0.000757732
7.61438
-0.00895015
0.00636497
7.87634
0.0207538
-0.023492
0.0120731
0.0349982
0.0121437
0.0110878
7.88623
-0.00242744
-0.0573461
6.93035
0.0129837
0.012068
4.83334
0.039351
0.0134481
0.00296944
0.00606556
0.0145483
0.0337761
7.75605
0.00837301
-0.00262652
8.23044
-0.00635849
-0.0205906
0.0365787
7.61394
0.0492092
7.89086
7.61127
7.62398
7.61434
0.0158633
7.04339
-1.0482
7.86878
7.55203
0.00298086
-0.00246196
7.8706
-0.0115656
7.87007
7.87332
7.92376
-0.00898534
0.00547478
6.97969
7.82016
7.6135
7.61358
-0.0676872
0.0205685
6.79805
0.00104318
-0.416621
7.61779
0.00845147
-0.0183312
0.0841603
7.61063
7.61164
0.0222626
0.0314884
6.91403
7.61553
7.60249
0.0165759
7.87635
7.87037
7.61343
0.00475854
0.0195126
7.61074
8.47931
8.2123
0.15045
7.61695
7.6103
-0.0233461
-0.0758179
6.89855
5.94299
1.13425
-0.0134612
0.00213187
7.58928
-0.021123
-0.00624007
7.61021
7.92116
7.61041
7.61245
7.61595
7.61005
0.021815
7.87121
7.61112
7.67083
0.0133246
0.0161186
7.87808
7.93444
-0.0257294
0.0256333
0.0351853
7.86965
7.61173
0.0257574
7.87396
-0.00905244
0.0194973
0.0420073
7.85071
7.87232
7.87216
7.61268
0.0345895
7.61167
7.61094
-0.0344824
7.87228
0.0346444
0.00456924
7.6349
0.0353591
7.83978
0.0242104
-0.00876113
-0.0252908
-0.0183856
-1.28931
7.2273
0.0222896
-0.0201879
0.000842175
7.78523
-2.12221
7.14525
0.0238473
7.61537
-0.0297846
-0.0143451
-0.0331943
8.07965
7.87235
7.87427
0.0295048
7.30404
-0.0260215
7.4411
0.0252444
0.034127
0.0101155
0.0243786
7.60967
7.63739
7.74804
0.0270256
7.61357
7.22505
-0.160525
7.6142
7.62112
7.87383
7.61084
0.0106643
7.60048
7.61271
-1.58303
7.28646
7.63374
7.06536
7.61298
-0.0382763
0.0137656
7.87153
0.0158226
1.0017
-0.0382119
-0.390277
0.0244061
7.61759
-0.00976292
-0.0318659
-0.0372625
7.87355
-2.65653
0.0107995
6.46566
-0.00337795
-0.119153
-0.105345
0.0034893
0.0275377
-0.141849
0.0386962
0.0282087
7.5911
7.62746
0.0117041
4.7556e-05
7.61636
0.0142659
0.00479087
0.0224441
7.6092
-0.123119
7.61127
0.0201606
0.0140184
7.61076
-0.0660509
0.0277675
-0.161551
-0.02173
7.56772
0.0154126
-0.155855
-0.0777476
-0.159381
-0.0408622
7.60173
7.62183
-0.0239592
7.61084
0.0277525
-0.0794692
6.71813
-0.475551
-0.829531
-0.306386
7.61074
6.37778
0.0260271
7.87385
9.46301
-0.048773
7.60593
7.60973
-0.728654
-0.864349
7.61095
-0.124239
7.61245
7.6111
7.87558
7.87083
7.95543
7.87301
-0.0271315
7.61528
7.61527
7.62107
-1.44474
0.0128445
9.08455e-05
0.0270304
7.62506
7.6098
-0.0508136
7.61204
7.61357
5.81017
-0.0550464
0.0246685
7.61061
7.60572
7.62242
7.61
7.55744
7.609
-0.0741831
7.61532
-0.204646
0.0124247
7.61321
7.88271
7.93109
-0.126099
7.92326
7.87374
7.62887
-0.21356
7.61014
-0.0670779
-0.0716696
-0.182476
7.60831
5.28871
-0.0425017
0.00730403
7.66418
-0.201011
-0.015053
7.88194
7.58689
6.89957
7.6065
0.0245296
0.0138242
-0.0647731
-0.35028
7.61163
0.0273657
7.56537
6.82443
6.85655
7.61515
0.0200782
7.61197
7.94167
-0.067429
0.0300313
7.93878
-0.00118203
7.31068
-0.0857563
7.97628
7.61176
7.58337
7.8726
0.0260515
0.0222008
0.352783
7.61263
7.66188
0.0159476
7.61111
7.06888
7.87186
-0.00403718
-0.338563
0.0446557
7.86328
-0.0747317
-0.0625307
8.24033
-0.0623777
7.61921
-0.0418357
-0.026173
0.00757596
-0.0896448
-0.180571
7.61147
7.61248
7.61212
-0.0743682
7.68279
-0.111183
7.87572
0.729338
7.87243
0.0189754
0.0209599
7.94334
7.61055
7.96068
7.62156
-0.113013
7.96878
6.90751
0.00554908
-0.106111
7.90975
7.03472
7.70319
7.05527
7.61222
7.61128
-0.104748
0.0058271
7.87308
7.86634
-0.630333
7.87832
-0.104375
0.0239337
7.69557
-0.0354942
7.87253
0.0182648
7.62033
0.0152506
7.6106
-0.589033
-0.309665
-0.149027
-0.0409009
-0.0452995
4.68246
7.54109
-0.0345749
7.91775
0.0140766
7.87113
7.64131
7.62388
7.62264
7.64668
7.61636
-0.0556673
-0.0670521
7.87279
6.65372
7.87907
-0.0544541
-0.126556
7.86902
0.0257818
-0.152384
7.93152
0.0268642
0.0270421
0.0171121
-0.148716
7.61111
7.61057
7.64016
7.61141
0.0203541
7.5413
-0.0357295
7.61163
-0.0451852
0.0194323
7.61446
-0.0532806
7.60266
7.61082
-0.0463415
-0.0848022
2.13126
7.61231
7.95488
7.60396
0.0219601
7.50334
7.92293
7.52086
0.858052
6.72329
-0.533178
7.02587
7.48435
7.76904
0.0202793
0.00465855
0.0116805
0.0198177
7.85799
-0.0303413
7.61296
7.6147
0.0174492
7.58798
-0.649138
-0.0411838
0.0328882
-0.0474497
-0.963824
-0.00275903
7.61382
-1.42228
-2.98516
-0.00919101
-0.0369564
0.0234684
5.53182
7.86769
0.00122516
7.87671
7.60956
-0.247007
-0.00267966
-1.10423
7.59624
7.4399
-0.0762598
7.93115
7.61219
-0.0525772
7.95001
7.93894
0.112591
-0.0533115
-0.0941882
0.0480963
0.0272468
7.61511
7.61105
-0.275803
0.026372
7.61205
7.94422
0.0322752
7.62289
6.61097
6.75779
6.79441
4.35699
6.6253
7.61363
0.0205265
7.59857
-0.0794083
7.61205
3.42457
7.67046
7.6357
7.61419
7.61178
0.0287088
7.61153
7.61125
6.91454
7.60742
7.61484
7.60835
0.024987
7.6289
0.0219523
-0.084128
7.63802
0.0416696
7.61169
-0.027928
-0.205341
0.0181502
0.0267023
7.84654
0.0238572
0.0244263
-0.153041
7.87496
-0.109464
0.0260174
0.0264474
7.32651
0.0179018
7.68283
7.61253
7.61414
7.61072
0.0235421
7.61242
7.60133
0.0203641
-0.136688
0.00834288
7.62363
5.42556
0.0304428
7.61696
-0.373056
7.92834
0.0133392
7.60813
7.61063
-0.00501453
7.60815
-0.0218921
7.87547
7.61159
0.0284924
-0.0397676
0.0250602
0.0202177
-0.140874
0.0189442
7.61196
8.01746
0.0138869
0.0299777
0.0308167
-0.0959435
7.61103
0.0231366
7.61087
7.79926
0.0043904
-0.0694799
7.6236
0.0240252
7.6
0.0197169
0.0320626
7.71271
7.61057
7.6128
0.0130494
7.61391
7.61218
0.0163296
0.0201336
-0.0436584
0.0230189
7.63304
7.62353
0.0112
0.0288124
7.61673
0.0112115
7.69943
0.00729969
7.61174
7.61143
-0.00730975
7.61054
-0.0239421
0.0310021
7.61753
7.60998
0.00494657
6.47061
0.0317155
7.87193
-0.0615201
7.88238
6.67973
6.45691
0.0278945
6.96166
6.8872
0.0120336
6.84509
4.25322
6.33022
7.673
7.87776
-0.181122
0.0253908
7.65223
7.61034
0.00179763
0.0133344
7.62195
0.0133701
7.60965
7.88289
0.00400406
-0.00584989
0.12606
7.61061
7.61343
7.61217
7.61101
7.60561
7.6089
7.60529
7.60645
7.61016
7.60895
7.61116
7.87908
7.61449
7.60994
7.6125
7.78461
7.6104
7.6107
7.61111
7.63889
7.81758
0.0196492
7.6128
7.6107
7.62347
0.0277565
7.61559
7.88279
2.94475
7.60048
7.508
0.0190454
8.24236
7.56414
3.47898
0.0143413
7.6122
6.75896
7.259
7.60978
-0.0303034
0.0162534
0.0133748
0.00487788
0.0330162
7.90277
7.60474
0.0182712
0.0242276
0.003835
7.60859
0.0228872
-0.0164668
0.0275377
0.0219447
0.0231122
0.00549218
0.0266092
0.0167682
7.88621
0.0234655
0.0270418
0.0130139
0.0198602
7.61093
7.61052
7.61098
7.87262
7.60854
0.0261999
0.0253715
7.61413
7.6101
7.61071
7.81794
7.61234
7.87466
7.61723
7.8793
0.0305476
-0.227156
0.0261196
0.0314625
7.58676
7.62796
-0.0343995
-0.266571
7.61067
7.6116
0.0084879
7.88493
7.61124
0.0654743
-0.000987752
0.0162206
0.032311
-0.0302166
7.89911
0.0144434
0.0225713
6.90935
7.8765
0.011987
7.89592
7.624
2.37756
1.26859
-0.00915688
7.76494
7.84953
-0.0449264
0.023036
0.0328701
0.0253025
3.39009
7.87221
-0.0187618
8.23674
7.87374
7.55694
0.00810789
7.6119
0.0277865
0.0100467
0.0129103
0.0144351
7.87961
0.0370837
7.87548
7.45245
7.8736
7.86604
0.0225538
4.48658
7.61115
7.87313
8.35873
0.0271299
6.85602
0.0119617
0.0209334
0.0220967
0.0235606
7.82314
7.86867
6.62685
0.0132755
0.0274699
-0.925309
7.92062
7.87193
6.82495
-0.0238471
-0.0247433
7.60977
-0.0327568
2.4865
0.0160256
0.0208722
7.87251
6.64418
0.0130838
0.0259494
7.61256
0.00543786
0.00372834
-0.00268336
-0.00432362
0.0212105
0.0384641
6.91182
0.0319955
0.0260847
0.029762
7.96708
0.0183489
6.99826
0.0327132
0.0214697
7.87403
0.0214363
0.0170153
0.0124125
0.0257968
8.73814
2.06339
-0.0537711
4.27612
0.0188898
7.64778
0.0228215
0.0189373
7.88013
7.61129
-0.368076
-0.117833
0.0208995
8.73052
0.00679595
-0.20968
-1.17358
-0.0850415
7.88113
7.8922
0.0238825
8.34657
0.0255803
-0.220938
0.0184244
0.0334789
7.87263
-0.00180752
0.0253244
7.87183
6.92946
0.0367316
7.8871
0.0287962
0.0330803
7.87329
8.78916
0.0234094
7.87281
7.61032
7.61206
0.0298409
0.0209205
0.013144
7.92634
0.0099592
0.0292673
7.67204
0.0321929
0.020015
0.0251975
-0.130737
7.61132
0.0196669
0.054061
0.0318847
0.0205269
0.0273662
-0.160863
0.0295869
7.87169
-0.0494895
0.0229168
7.87217
0.0274803
7.61796
7.61244
7.87505
7.62219
7.87436
0.00137594
7.61281
0.0276139
-0.0179259
7.87569
0.0142557
7.80333
0.0179515
7.87935
-0.169111
7.65363
0.00760523
0.00224995
-0.189797
0.0442088
0.0243754
0.0179097
0.0293517
0.0405479
2.78912
0.0362565
0.00623465
0.0433993
7.87308
0.041722
-0.127976
0.0372594
0.0141415
-0.170169
7.87529
6.76761
7.87726
0.0134294
7.87195
6.16606
0.0255767
8.38919
0.00779337
7.86427
7.84039
7.61123
0.0188932
0.0446888
0.0237122
-0.0461546
0.0253166
0.0211179
0.0335269
0.0100377
0.0162698
0.0316357
0.0223246
7.87856
7.56559
7.86573
0.0186883
0.0297716
7.64805
7.61114
6.30596
0.0462109
0.0191237
7.87246
0.0240862
7.86986
-0.43821
0.017277
-0.0664737
7.8734
7.87152
0.0117322
7.87218
-0.00839725
0.030708
7.45319
0.0211735
0.0165228
0.0276389
7.87195
-0.112804
6.97979
-0.0266253
0.0101232
7.87494
7.88414
0.0281223
5.52375
7.90402
0.0357551
0.0322413
7.87245
7.85542
6.9359
0.014327
6.28342
0.0172231
-0.0355654
-0.00133909
7.87188
7.03359
-0.0369411
7.87062
7.61787
7.87398
7.87589
7.14595
7.72606
7.57226
7.8733
7.89061
7.2959
8.39837
7.64117
0.00113718
7.65072
6.7537
6.39258
8.90707
6.89701
7.872
-0.0349359
7.38879
7.7103
-0.0361946
8.2087
8.57373
7.77052
-0.0442307
8.36814
-0.0329897
-0.0870869
0.0114956
7.16385
7.87545
-0.024636
-0.461657
7.836
7.86532
0.0217603
7.08477
0.0215748
7.00924
7.59392
7.72821
0.0201078
0.0237396
7.87068
0.00477849
7.89648
7.38824
-0.189761
0.044218
-0.0326695
7.60868
0.0230236
7.22926
-0.0227159
7.61199
7.87241
7.61058
6.98663
0.0420503
0.0322966
7.87417
-0.771678
7.88192
7.89497
7.8816
7.87354
-0.0262676
-0.0406962
0.0339985
-0.0219621
7.83273
0.0112792
0.013549
0.0376364
-0.0323548
7.66155
0.0283594
-0.0011147
-0.00379033
-0.43487
0.0232011
7.92423
-0.0138142
-0.0252265
0.0235857
-0.0247659
-0.0486046
7.90302
-0.0414423
7.77915
7.8762
0.0213981
7.87948
0.0257451
7.86965
7.9393
7.55037
7.87989
7.87321
-0.0482464
7.87859
-0.0177082
7.19476
7.61578
0.0190216
-0.00366797
0.0308242
-0.0171009
7.89007
0.693405
7.87426
-0.0201468
7.94046
0.0133268
-0.0310827
-0.0175885
-0.00516302
7.971
7.97796
7.88033
0.0292999
7.62671
7.86604
0.0248957
7.60319
7.61015
0.000386887
7.9707
0.00940433
-0.441258
7.14495
7.49963
7.43789
0.0123617
0.0131733
7.87265
0.00742596
-0.0125164
6.98718
-0.0234277
7.87052
0.0213282
0.0226231
0.0399578
7.87484
0.011946
0.0210242
-0.0294237
-0.00411852
0.00738316
7.87407
7.87233
-0.106167
7.86828
7.609
7.87017
0.0148203
-0.0198454
0.0193782
-0.036187
6.86726
-0.00348811
0.0166775
0.0123791
-0.0607456
0.018775
-0.0197242
0.0127856
7.6109
7.61131
7.61106
0.0308075
7.61253
-0.0335088
5.24165
0.00276925
-0.560851
0.00861809
0.0140097
7.60977
7.87294
0.0037554
0.00286594
7.88704
7.60505
7.87364
0.0117553
0.00535498
0.00129148
0.00757394
0.0298529
0.0152013
7.87351
7.87324
7.8718
0.04027
0.00677809
0.00246351
0.0160157
0.033814
0.00323684
7.84945
7.87202
6.33864
7.65452
0.0247051
0.0272818
7.86763
7.90647
7.86613
7.87533
7.83628
7.71696
-0.00651021
7.87477
-0.0510366
-0.119699
7.61822
-0.00123777
0.0270841
0.0224544
7.91769
7.76347
-0.00582464
7.87276
-0.00753922
-1.2136
0.0198719
7.66699
5.95078
7.61072
7.87698
7.86866
7.60508
2.1083
7.88657
0.00829072
-0.00295036
7.87513
7.87261
-0.00974623
7.87904
7.6124
0.0131268
-0.204495
7.8621
7.86265
7.67569
0.0426064
7.8723
7.87203
1.16144
-0.0250193
-0.0107515
7.87238
7.61759
7.20845
-0.0153098
-0.0104366
-0.0127361
0.00597052
7.61121
0.0537157
0.0125065
-0.000416958
7.55607
7.8691
7.87185
7.82498
7.87248
0.0244139
0.0207369
0.0019333
7.88963
7.87244
7.87205
7.86953
7.68535
-0.0405879
0.107991
0.0188041
7.6148
7.87291
7.92658
-1.01084
-0.0427931
-0.0713975
7.61006
-1.95052
8.25716
7.8393
7.87135
0.0234122
0.0354019
7.87514
7.90755
0.0117014
7.87338
0.0144922
0.0296604
2.73067
7.87094
7.66097
0.0237474
-0.0615831
7.91138
2.53925
0.054737
0.0316908
7.87412
7.87698
7.88203
7.8811
0.0266314
0.0270727
7.87733
-0.0517389
-0.0145611
0.202032
7.87285
7.87219
7.87361
7.8776
0.00909131
8.38399
7.87408
7.7684
0.0249995
-0.00973426
0.0300647
7.84597
7.87186
-0.0205845
7.62517
7.87282
7.87518
7.87433
0.020766
7.69608
7.59619
7.61379
0.0205079
0.0272068
7.86956
7.87407
7.85585
0.0156117
8.15159
7.87862
7.8579
7.8741
7.87363
-0.202622
0.0230831
7.91432
0.0218125
0.015307
0.0209506
7.87826
7.8748
7.87414
7.83359
7.6111
0.0271075
7.87377
7.37914
7.33193
-0.0176991
7.65245
-0.0255363
7.87225
7.61402
-0.023521
0.28917
7.03168
-0.00644229
7.87512
-0.0105315
8.12307
7.89194
7.92289
9.10743
7.88045
-0.038364
7.87089
0.00967577
7.61368
6.93377
7.87937
7.86822
0.01556
0.0326223
7.61088
2.64297
7.60891
-0.07325
-0.0420558
0.0114979
7.61355
-0.352767
-0.0241064
-0.050674
0.0218446
-0.629223
-0.0300949
7.5921
7.61115
-0.754167
0.0224896
-0.00255069
7.91014
7.51396
6.36961
3.2521
7.87417
7.61629
7.87455
7.87487
7.87559
8.30288
0.0342694
-0.0749104
0.0307381
6.96856
-0.0952797
7.87414
0.00966819
7.87172
7.88036
7.61216
7.71278
-0.107085
7.69335
7.60554
7.87255
0.0166834
7.87107
7.87231
-0.056232
7.82696
5.75016
4.92576
4.58785
7.87641
4.80687
4.645
4.75602
5.45884
7.61076
7.61125
0.0108602
-0.0142059
6.95601
7.13867
7.60701
0.00583697
8.19147
7.71131
-0.103036
7.87524
7.87278
-0.0377401
-0.0904864
7.83793
7.61231
-0.0337568
7.03397
7.6042
-0.408572
0.00702395
0.0511959
7.81242
0.0218404
7.87452
0.0160759
-0.396782
0.016528
7.87306
-0.390779
0.0211221
7.9679
-1.03933
7.86499
0.0198603
7.53122
0.0271479
7.80484
-0.0496273
7.87421
7.57137
7.61287
-1.46945
-1.4771
7.88555
0.00977445
0.011191
7.91889
7.87268
-0.00467253
0.0184975
-0.124826
7.88003
0.0150841
0.00939285
-0.0524886
-0.848746
7.87574
-0.172697
7.62005
-0.152936
7.87177
-1.73451
-2.01096
7.85337
0.0227264
7.67387
-0.0458233
7.6101
7.85756
7.88599
7.89041
7.85141
7.859
-0.00271568
0.029171
-0.156868
7.88252
6.34587
-0.144659
7.88081
7.82896
7.90606
7.8664
7.9055
0.0229292
7.87314
7.87424
7.611
0.0159706
7.85853
7.61143
7.54174
0.0371849
7.6119
0.00917604
-0.785893
-0.0522944
0.0348632
-0.0146841
8.22158
7.87815
7.87148
0.0700974
0.0313897
7.54141
6.31191
0.0109702
7.87255
7.87537
-0.134626
7.86413
0.0159395
7.87532
-0.0116993
-0.0569289
7.88149
7.61051
7.87487
7.87483
7.87025
-0.0260314
7.87153
0.0122431
7.94401
7.8755
0.0250092
7.60529
0.00741273
7.77532
7.87223
-0.0127512
0.031896
-0.120095
7.87385
7.87422
7.87299
0.0304447
-0.0889998
7.95155
7.61025
7.643
0.0139395
7.86654
0.0140702
-0.136062
7.8722
7.86877
0.0226823
7.86645
7.6428
7.61202
7.95993
7.61218
-0.154151
6.21934
7.63633
7.8732
6.38258
7.86842
6.60382
7.84752
7.86746
7.72799
0.0187333
7.78775
0.0118519
7.86119
7.8677
-0.0596683
0.00642672
7.86304
7.82464
7.87487
0.0269113
6.6993
7.87435
7.7337
7.87104
0.0194887
7.86426
-0.181222
7.87402
-0.0100313
6.91511
-0.0273448
7.89
7.87029
0.00506384
6.54216
7.88041
0.0295659
-0.0072383
7.89235
7.87489
-0.0182926
-0.0566975
0.021157
0.0177481
0.00777254
-0.00802553
0.0229921
-0.039476
7.94913
-0.191223
6.25561
6.14109
7.87388
7.87199
7.87067
0.0359124
7.87457
7.86763
7.87479
-0.123304
-0.0431466
5.94695
-0.0391219
7.87561
-0.0157535
7.60955
-0.0608474
0.0238038
6.32936
0.00243604
7.86681
7.84647
7.61164
0.0429593
-0.0120037
7.87316
7.61178
0.0325937
7.87365
-0.133989
7.91458
-0.0836072
7.872
7.61215
7.85246
7.61099
0.0254369
7.61124
0.272071
7.61375
-0.00520055
7.87301
7.86944
4.30888
3.98345
7.89129
7.86985
7.8724
7.87288
-0.00716604
-0.143647
5.20939
7.87671
0.00030355
7.60954
7.6214
-0.431907
0.0125914
-0.068957
7.61225
0.0264655
-0.0213076
0.0267119
0.0141144
7.87259
7.87512
7.87934
7.87581
7.61202
7.61093
7.61169
7.84099
7.61258
7.61188
7.87229
7.61159
-0.109624
7.61087
7.87309
8.61474
7.8742
7.87334
2.70259
7.61099
7.87225
-0.00533203
-0.0923722
7.84924
7.85135
7.87293
0.018238
7.64629
7.86026
-0.109556
7.61262
7.87372
7.86857
7.87632
-0.0456409
7.61094
-0.175417
7.87648
7.85725
7.87184
7.87258
7.87044
-0.10341
-0.144856
0.0221102
7.87442
7.63522
7.9091
-0.124777
7.87276
-0.14319
-0.0792823
7.60947
7.84278
5.93713
-0.406122
7.85606
7.01428
-0.393238
6.01533
-0.0115167
7.64422
-0.0403562
5.98246
5.61241
7.87206
-0.000571898
7.61246
-0.0137656
-0.0552822
7.88199
-0.00152571
-0.284641
7.87022
-0.0693614
7.61372
7.85712
7.866
7.85301
7.86819
7.60949
7.87265
7.87176
-0.152669
7.10439
7.87285
7.86996
7.87163
7.87572
0.0190838
4.03769
-0.132884
-0.308717
7.87201
0.0142385
0.00340939
7.87278
6.99186
7.786
7.8629
7.90006
7.96248
6.42998
7.16345
-0.0349628
7.87459
7.87764
6.09715
6.6373
7.61078
-0.00623826
7.8811
7.6254
7.87422
-0.0806937
7.87619
7.61091
-0.0163058
7.61156
7.57226
7.76291
7.91991
-0.0161042
7.87389
7.87238
7.87231
7.84244
-0.0155223
-0.0670939
-0.0580491
-0.00274045
-0.0308623
-0.0394114
7.61225
6.54077
-0.165804
-0.0326779
6.53086
-0.151778
7.86826
-1.08788
7.63326
-0.0903138
7.87488
7.61588
-0.0317114
-1.38794
7.87757
-0.0329827
7.87612
7.87607
-0.0966401
-0.0568701
7.87231
7.61143
7.91792
7.61091
7.86982
6.86118
7.87359
7.87175
-0.0333301
7.87312
7.86842
7.87135
-0.0245728
7.88479
6.90308
7.61173
7.61104
7.29731
6.91942
-0.0261208
7.61536
6.92795
0.00531939
7.86612
-0.0426461
-0.0256213
7.87475
0.000259789
7.87125
7.45318
7.9347
6.78219
7.61412
7.85121
7.86513
7.87565
0.0200671
7.87466
7.8731
7.87132
7.73331
7.87218
7.78404
-0.118404
7.87222
7.87706
-0.0701374
7.87332
7.61195
7.61116
0.032033
7.87478
-0.163706
6.70097
-0.385318
0.0158409
7.60813
6.53558
0.00795813
6.26496
7.61223
-0.199116
-0.380148
-0.00268807
-0.0573993
-0.259397
-1.16979
7.63614
7.61664
0.00850608
-0.102474
-0.0849486
0.0173311
-0.40054
7.60986
0.0202774
-0.0013854
0.00502714
7.61452
0.00766353
0.022789
0.024106
0.00426473
-0.124219
0.0150343
0.0429163
-0.00451889
0.0120152
0.0270037
0.0109481
6.91673
0.0915688
0.00628771
-0.00209919
-0.0252564
0.0235231
0.0120498
0.0153925
7.07714
-0.115717
7.02596
0.0355465
0.0107672
-0.050565
0.00363122
7.01459
7.6094
0.0119767
0.0156027
-0.128434
-0.0647718
0.0248955
-0.00077961
4.82617
0.00896733
7.87221
-0.0015836
-0.113985
-0.0486182
0.031561
-0.142197
-0.177212
-0.00368503
0.00715438
-0.0035382
0.0322385
0.00140051
0.123668
6.13604
5.40283
0.0016062
7.87674
7.8729
0.00123835
0.0218378
0.023556
7.87399
-0.0735695
-0.0572394
0.018417
5.58254
7.8717
-0.217526
0.00759709
-0.120758
7.8753
0.0301513
7.87209
0.00817376
-0.00526158
-0.0470983
-0.0463997
7.87256
7.87418
-0.0387025
0.0123944
0.0274169
7.86563
0.00788252
0.027292
-0.0264882
7.61923
0.034307
0.0489334
7.00549
0.0234867
-1.50807
-0.106705
7.57927
-0.0634162
-0.104611
7.87212
0.00277131
0.0182744
1.38692
-0.0143474
0.00801597
0.0234093
0.0213031
-0.0345595
-0.0228002
-0.238204
-0.111299
0.0320155
0.0228768
-0.0146291
-0.174743
0.0211415
-0.0205521
0.0601507
0.014513
-0.16207
0.040794
7.87218
-0.00319185
-0.0132387
-0.106983
0.0386391
-0.041517
7.63847
-0.00561664
0.0249564
7.86757
-0.0754692
-0.0137359
-0.00546553
0.00195876
0.0231461
-0.0455042
0.0123439
-0.0173803
-0.0542147
7.87178
7.87244
-0.0501361
7.61581
-0.0467087
-0.00528291
7.70623
0.0229544
-0.0207853
0.0402662
7.87135
0.026722
0.0118932
-0.0637597
-0.145106
0.021315
0.0456919
0.00869891
-0.00993053
7.87239
7.85567
-0.0973676
-0.0327106
-0.0595643
0.0208275
7.85536
-0.0335019
0.015311
7.70678
0.000727197
0.010855
-0.0833116
-0.223784
-0.031208
-0.038619
0.0393432
-0.00621608
7.62078
0.00303533
0.00395812
-0.00036536
-0.204037
7.85656
-0.0224112
8.01364
7.8733
0.0128232
-0.0126541
0.00620867
0.122473
-0.119114
1.48085
7.61377
-0.03174
0.0254671
0.0666331
0.009553
7.8799
7.61337
7.60286
-0.00071292
0.00405782
-0.230892
0.0258663
7.62733
7.85989
-0.00885698
0.00641109
-0.0434968
0.0140197
0.00875578
0.0294537
-0.0505907
4.37555
7.61078
-0.00461851
0.0234246
7.85938
-0.00461614
0.0248629
-0.0756626
0.0107367
0.00966234
-0.0427499
7.85953
0.0263145
0.00615301
7.6142
7.64384
0.0288219
0.0798366
0.0157508
0.0215441
0.0182209
0.0134092
0.0341589
0.0307305
0.0243659
0.0146948
7.85531
7.84775
0.00999331
0.0318011
0.0171943
-0.101527
0.0210055
-0.00296351
-0.00158322
0.024677
0.0172571
7.61385
7.62145
-0.115254
7.85405
6.86342
0.0131246
0.0210721
0.000939315
-0.0969389
7.16118
-0.0352973
-0.0829476
7.29212
-0.104434
-0.211085
0.0205047
0.0226361
0.0202032
0.0281719
-0.146183
0.0214415
7.87277
7.23492
-0.0808914
0.0311324
0.00564964
0.027039
-0.109249
-0.033084
-0.110918
7.26102
0.0254019
0.0537078
0.0145394
-0.125129
-0.0373443
-0.0959257
-0.203912
0.00290942
0.0231438
7.1526
-0.00450764
0.0272434
2.78403
6.7882
6.2364
0.0381632
6.63278
0.0136288
0.0237926
0.00670998
0.023387
-0.108713
5.04228
3.04068
8.05854
6.72865
-0.0482209
7.61085
7.61056
-1.29207
7.87039
0.0291663
0.0124998
0.0286226
0.0233906
0.023997
0.00580369
6.26692
0.0237107
0.0259131
-0.0315376
0.014952
0.0357505
0.013412
7.61097
-0.207124
0.0306298
-0.0966488
7.61099
-0.00900937
-0.00533055
7.6109
7.86473
-0.0813526
0.0199962
7.90817
0.01257
0.0138241
-0.0841384
7.87336
7.6109
0.020749
-0.209743
0.0230906
7.61099
7.59618
7.61101
0.00170532
2.54695
2.31978
-0.000416993
-0.370961
7.88107
0.0273162
-0.348499
0.0187989
0.0240044
0.00747243
0.0189798
-0.50578
0.0287948
7.66122
0.0113903
0.0405737
0.0179123
0.0210352
0.0147273
0.0359052
0.0175731
0.0104847
0.0302417
-0.0631951
-0.389549
0.0120143
-0.0860323
-0.134073
-0.4609
0.0108581
-0.373784
0.0204238
0.0301904
0.0230166
0.0402677
-0.0546537
0.0353108
-0.38093
0.0232916
7.46871
0.0101722
3.81218
0.014771
-0.00616879
7.61489
-0.0164239
7.46815
-0.00429163
7.49617
7.9047
0.0440487
-0.0265881
6.84477
0.0235714
0.0207326
-0.0241169
7.86069
7.87392
0.0139755
0.00152172
-0.181306
0.0164702
0.0329512
-0.0246377
-0.065519
-0.00841418
-0.0173506
6.50895
0.00983056
7.61054
7.80524
0.0318701
0.0305822
-0.0981967
0.0312167
0.0325778
-0.00978099
-0.0220699
7.78185
-0.113016
0.0229319
-0.0131023
7.79363
7.87989
0.00971434
-0.00166654
6.1619
-0.0432766
0.0291507
0.000655967
-0.135062
0.0333812
0.0236016
7.86407
4.57179
0.0225808
-0.0755684
7.6788
0.0408969
-0.0495471
-0.0136837
-0.123318
0.0175819
-0.153102
0.00945428
-0.0393957
4.83083
-0.0498955
7.87393
-0.00020737
-0.0206998
0.0317231
0.00975323
6.571
0.0145833
-0.0810847
-0.0138647
-0.110653
7.4213
7.6111
0.0304018
-0.0747667
-0.00406786
0.00449816
-0.0431588
0.0220662
-0.00207084
0.00883984
0.0417576
0.0266243
-0.0512025
7.0306
-0.132241
-0.023371
-0.000833486
-0.0410451
7.22643
7.61064
-2.39345
-0.116746
8.1526
-0.143544
-0.0251069
7.37002
4.99681
5.45609
-0.0451995
0.0247437
0.172033
5.83953
-0.0774261
0.0319271
7.61721
0.22773
6.88553
-0.0135502
0.022598
7.64462
-0.027774
-0.0269049
-0.0306904
0.0277113
7.61046
-0.2711
-0.0410772
-0.0780127
-0.0211457
-0.0209843
-0.0430402
-0.010073
-0.1766
-0.0234091
0.0224336
0.0238026
7.87291
6.44387
6.55538
7.72733
-0.0317013
0.0261641
0.0320898
-0.0648509
0.0212671
0.0301737
-0.00623456
-0.0202763
-0.016441
0.0247001
-0.0153992
-0.0868831
0.00266923
0.025903
7.87309
-0.0432412
-0.0618671
-0.0173841
-0.0109623
7.61021
0.00226694
0.00479523
0.035445
0.00276394
0.0129075
7.63019
0.0238554
0.013017
6.87893
0.0240842
-0.011748
7.72131
-0.00104107
7.71273
7.60914
0.00344635
-0.0620376
-0.00718058
0.0142233
7.61372
0.035499
-0.0396574
7.61352
0.0339749
0.0125507
0.0191201
-0.012859
7.7524
-0.0327412
-0.0275419
0.00962641
7.69422
0.0467202
0.0211914
-0.00275448
0.0276109
0.0135139
7.9012
7.45173
7.05763
0.0268149
7.18619
0.0296914
0.0164814
0.025521
7.83334
0.0219737
7.65426
7.87367
7.80737
0.0103795
-0.0126525
-0.211389
0.00288794
0.0353439
7.51599
6.88307
-0.0420065
-0.0463106
0.0382026
-0.167731
0.0256657
-0.404209
7.87593
5.73527
5.84799
7.60972
5.9241