/*--------------------------------*- C++ -*----------------------------------*\
  =========                 |
  \\      /  F ield         | OpenFOAM: The Open Source CFD Toolbox
   \\    /   O peration     | Website:  https://openfoam.org
    \\  /    A nd           | Version:  10
     \\/     M anipulation  |
\*---------------------------------------------------------------------------*/
FoamFile
{
    format      ascii;
    class       surfaceScalarField;
    location    "23.5";
    object      phi;
}
// * * * * * * * * * * * * * * * * * * * * * * * * * * * * * * * * * * * * * //

dimensions      [0 3 -1 0 0 0 0];

internalField   nonuniform List<scalar> 
214403
(
-0.00340577
0.00261171
0.00014444
0.000649628
-0.00169413
-0.00570833
0.000484325
0.00691814
-0.0052031
3.49e-05
-7.20125e-05
0.00524022
0.00447972
-0.00301235
-0.00750896
0.00604159
0.00623933
-0.00788711
0.0018803
-0.000232519
-0.0027503
0.00286427
-2.72005e-05
-8.67771e-05
-0.00043212
-0.000822119
-0.0046825
0.00593674
-0.0086673
0.00492751
-0.00129626
0.00503606
-0.0118114
0.00833701
0.00841727
-0.00494287
0.00722567
0.000856945
-0.00807343
-9.18452e-06
0.00255857
-0.00506628
0.00104127
0.00146644
-0.00525299
0.0016534
0.00272065
0.00087894
0.000242619
-0.00580747
0.00699265
-0.0014278
-0.00507258
0.00510675
-3.41686e-05
0.000973874
0.00606332
-0.00776909
0.000731893
-0.00614953
0.0051429
0.00155776
-0.000551129
-0.00618373
0.00603565
0.000148084
0.00199789
5.32354e-06
-0.000539413
-0.00146381
0.00795969
-0.00476451
-0.0105834
0.00738822
-3.84506e-05
-0.00157683
4.56497e-05
0.00156963
0.00324997
-0.00317307
-7.68989e-05
-0.00630321
-0.00218079
0.00216852
0.00631548
-0.00115969
0.00692292
-0.00558086
-0.000182359
0.00342504
0.000361256
0.00119652
-0.00498282
-0.00523229
-0.00249903
0.0067661
0.000965232
0.00464865
-0.00588748
3.65924e-05
0.00120224
0.00164319
-0.001434
0.00537155
-0.00558074
0.00388134
0.00507572
-0.00611615
-0.00284091
0.00567521
-0.00356037
-0.000160941
-0.00195391
-0.00296947
0.0030266
-5.71323e-05
0.00124919
-0.00259058
0.00688684
-0.00554545
0.0072006
0.000340476
-0.00125707
-0.006284
-0.00285149
-0.00292733
0.00299816
0.00278066
-0.000613168
-0.00345691
0.00306177
0.00100831
0.00226868
-0.00159605
-0.00480973
0.00413711
-0.000874997
0.00436492
-0.00157696
-0.00191296
0.00815196
-0.000190282
-0.00796168
-0.00351512
0.00685645
-0.00334134
0.000633524
-0.00751481
0.00435012
0.00253117
0.00125133
-0.000502851
0.00305957
-0.00380805
0.00292021
-3.1e-05
-0.00288921
0.00520959
-0.00011037
0.000920804
-0.00602002
-0.00662193
0.00083021
0.00704305
0.000436962
0.000451244
0.00437975
-0.00526796
-0.00207711
-0.0136586
0.0132316
0.00250409
0.00287993
0.000523037
0.000649163
-0.00405213
0.00214983
0.00163564
-0.00526076
0.00147529
0.00680786
0.00408085
-0.00746366
0.000615337
0.00576172
-0.00116747
0.000919411
-0.00344052
-0.00202885
0.00454995
0.00157118
0.00241694
0.000718267
-0.0047064
0.000945043
-0.000709018
-0.00218975
0.00195372
0.00347939
-0.00629542
0.00438722
0.00604601
-0.00569222
-0.00195402
0.00160023
0.00538311
-0.000984307
-0.00436819
0.00592201
-0.000251314
-0.0013025
0.00450198
-0.0057564
6.44694e-05
0.00118995
-0.00423752
0.000280157
0.00677166
-0.0028143
-0.00780292
-0.00732741
0.00615533
0.008975
-0.00416803
0.00419305
0.000825224
-0.000850242
0.000655173
-0.00532606
-0.00433384
-8.95757e-05
0.00225232
0.0021711
-0.00684574
0.00293638
0.00443314
-0.000523786
0.00799886
-0.00644034
0.000409998
-0.00196852
0.000367508
0.000134346
-0.00530903
0.00480717
0.000263225
-0.00145104
0.00716519
-0.00597737
-0.017675
0.00182947
0.00194067
0.0139049
-0.00163117
0.00481031
-0.00152797
-0.00165117
0.00236875
-0.00124434
-0.0050589
0.0039345
0.000566041
0.00353062
-0.00448874
0.000392077
-9.10334e-05
0.0043227
0.00150026
-0.00573193
-0.000863523
-0.000138617
-0.00178149
0.00278363
-0.00456664
0.0049909
-0.000189489
-0.000234769
0.000160116
-0.00463711
-0.00321904
0.00285134
0.000865065
-0.000497367
-0.00861429
-0.00053864
0.00420168
0.00495125
-0.00261561
-0.00111441
0.00222571
0.00150431
0.00381994
-0.0128139
0.00177625
0.00721768
-0.002009
0.0040438
-0.00220846
0.000173671
0.00290527
-0.0022542
0.000289049
-0.000940118
6.83423e-05
-0.00540053
0.00533219
1.57044e-05
0.00439231
-0.00440802
0.00389035
-0.000760684
0.000515362
-0.00364502
-0.00229987
0.00328038
0.00108812
-0.00206863
-0.0016325
0.0069446
-0.00166897
-0.00364312
0.00327763
-0.0055864
-0.000214252
0.00252302
0.00375467
0.003986
-0.00774067
0.00553644
-0.00622297
0.00159485
-0.000908323
0.00053286
-0.000998355
0.0072322
-0.00676671
0.000209766
-0.00117407
0.00521744
-0.00425314
0.00123821
0.0108949
0.00313332
-0.0152664
-0.0095111
0.00836974
0.00542254
-0.00428118
0.000438038
0.00335522
-0.00451122
0.000717967
0.00445379
0.00495062
-0.00162361
-0.0077808
0.0082508
-0.00501336
-0.000164653
-0.00307279
0.000359178
-0.00105203
-0.0033028
0.00399566
-0.00334753
1.93526e-05
0.00332818
0.00501684
0.000173725
0.000345876
0.0062384
0.000528846
-0.00946668
0.00269944
-0.00499741
0.00110243
0.000888397
0.00300659
-0.003154
0.000781975
0.000387562
0.00198446
0.000776506
0.000557006
-0.00659054
0.00525703
-0.00136052
-0.0079158
0.00504644
0.00422988
0.00315492
-0.0037308
-0.00243278
0.00300866
0.00511485
-5.63909e-05
-0.00511454
5.60798e-05
0.00392984
-0.00554313
-0.00193753
0.00355081
0.0101558
-0.00307218
-0.00158243
-0.00550121
0.00574827
-6.94787e-06
-0.00529154
-0.000449784
-0.00288793
0.00340051
0.00708502
-0.0075976
0.00619293
-0.00216812
-0.0059581
0.00193329
0.00113916
-0.00166235
0.00723657
-0.00671339
-0.00820058
0.00747774
0.00708186
-0.00635902
0.000369645
-0.00637062
0.00245865
0.00354232
0.00797397
-0.000422471
-0.000162276
-0.00738922
0.00558817
-0.00109073
0.00108033
-0.00557777
-0.00653566
-0.00594059
0.00703264
0.00544361
-0.00122813
0.00352675
0.000955436
-0.00325405
-0.00280137
0.000152617
0.00543069
-0.00278194
-0.000621585
0.00701552
-0.00653113
0.000137201
-0.00599719
0.00556909
0.00108456
-0.000656463
-0.000199202
-0.0034992
0.00834705
0.00111893
-0.00373244
-0.00272146
0.00533498
-0.002972
3.9766e-05
0.00293223
0.000909001
0.00413466
-0.00382452
-0.00121913
0.00657233
-0.00378937
-0.00100795
-0.00177501
4.50625e-05
-0.00192588
0.00188082
-0.00371454
-0.000999094
0.00139157
0.00332206
0.000381031
0.00210206
-0.00471629
0.0022332
0.00798088
-0.000720531
0.00311972
-0.0103801
0.000578355
-0.000709804
-0.00973224
0.00986369
0.000632557
-0.00277574
-0.00369165
0.00583483
0.000233074
0.00506557
-0.000281808
2.05043e-05
-0.00296694
0.00294644
0.00619462
-0.00229234
-0.00278335
-0.00375822
0.00314242
-0.00309874
0.00680636
-0.00566554
-0.000685089
-0.000455725
0.000685027
-0.00323984
0.00141612
0.0011387
-0.00556734
-0.00168514
0.001131
0.00612148
0.00462618
-0.00752505
0.00499209
-0.00209322
-0.000203752
0.00680167
-0.00681186
0.000213939
-2.23044e-05
0.00620265
-0.00614835
-3.19893e-05
-0.00866638
0.00691296
-0.00554796
0.00730138
0.00722675
-0.00698856
-0.000238185
-0.00659722
0.00883548
-0.00161759
-0.000620672
-0.00589438
0.00141679
-0.000442891
0.00492047
-0.00973015
0.000744202
0.00626578
0.00272017
0.00173455
-0.00236899
0.00131947
-0.00236733
0.00269187
0.00433141
-0.00465595
-0.00259881
-0.00116611
0.0014866
0.00227833
-0.00350171
0.0022919
-0.00442768
0.00563748
0.00105236
8.61852e-05
-0.00773576
-0.00344135
0.00343392
7.43233e-06
0.00379584
-0.00364975
-0.000146085
-0.0057006
-0.000373268
-0.00151586
0.00140912
-0.00750562
0.00874005
-0.00264355
0.00337596
0.0058108
-0.007388
-0.00179876
0.00644715
-0.00700279
0.000187879
0.000367765
0.00344158
0.000896889
-0.00355898
-0.000779487
-0.00543652
-0.000299671
0.00714531
0.00311137
-0.000225442
-0.00379243
0.000906502
0.00350236
-0.00299857
0.00345399
-0.00395778
-0.00613801
0.00115347
0.0083605
-0.00207515
-0.00291141
0.00960796
-0.00462139
-0.00296649
-0.00326306
0.000793024
0.000884193
0.00234227
-0.00619295
-0.00421085
-0.00037074
0.00676375
-0.00218216
0.000652138
0.00103344
0.00374216
-0.00542774
-0.00200633
0.00491121
-0.00290488
0.00158437
-0.00759265
0.00274523
0.00451893
0.00315894
-0.00679367
-0.0064209
7.75395e-05
0.0080015
-0.00165814
0.00107628
0.000920425
0.00288059
-0.00487729
0.00431395
-0.00434513
3.11843e-05
0.00162491
-0.00061333
0.00545335
-0.00646493
0.00568875
-0.0018021
0.00273456
-0.0066212
0.0104358
-0.00335099
0.00778518
-0.01487
0.0017218
0.00319927
-0.00133254
-0.00358853
-0.00470082
0.00193157
0.00246787
0.000301382
0.00338705
-0.00255293
-6.95037e-05
-0.000764622
-0.00220614
-0.00280108
0.00815259
-0.00314538
-0.00377899
0.00490264
0.00195851
-0.00308217
0.00568542
-0.000310503
-0.00187256
-0.00889317
0.00588015
-0.000488687
-0.0084633
0.00780686
0.00362584
-0.00296941
0.00539798
-0.006085
-0.00087796
0.00156498
0.00306467
-0.00553041
-0.00290292
-0.00314425
-0.00288718
0.00163094
0.00440049
-0.0044954
0.00139646
0.00443433
-0.00133539
0.0051882
-0.00493793
-0.00339627
0.003146
3.13922e-05
-4.47967e-05
-0.00484757
0.00486097
0.000119398
-0.00429215
-0.00016237
0.00433512
-0.00122531
-0.00725449
0.0011408
-0.00420039
0.00377896
-0.000719367
-0.00287625
-0.00121318
-0.00040597
-9.8067e-05
0.00722027
0.00010347
-0.0172028
0.0120992
0.00874476
-0.00364121
-0.00508516
0.000346314
0.000186882
0.00455197
-0.00101065
0.0160835
-0.0189246
0.00385175
0.000799661
0.0012332
-0.00276834
0.000735481
-0.0108807
0.00585879
0.00075794
0.00426394
-0.000127274
-0.00723452
-0.00102854
0.00839033
-0.00301739
0.0108978
-0.00756243
-0.000317973
0.00489033
0.00710778
-0.00656848
-0.00542964
-0.00583241
0.00555942
0.00690036
-0.00662737
0.00225164
0.00314699
-0.0039195
-0.00147913
0.00225678
-0.00152299
-0.00361005
-0.0115785
-0.000455599
0.00946143
0.00257266
0.00338392
0.000517899
-0.00197025
0.00349784
0.00468204
-0.00432315
-0.00385673
-0.00579071
0.00129103
0.00564623
-0.00114655
0.000687559
0.00181522
0.0063327
-0.0067335
0.00665082
0.000642851
-0.000560168
0.00412885
0.00324167
-0.0029248
-0.000115565
-0.000822846
0.00386321
-0.00444984
-0.000887193
0.00247301
-0.00858577
0.003648
0.00246476
0.000259974
0.00461597
-0.00512273
0.000246788
-0.00178696
0.000345206
-0.00166123
0.00310299
0.00716318
-0.00512155
0.00021515
-0.00404707
-0.00316033
0.00425914
0.00294826
0.0152857
-0.016356
0.00534627
-0.00427596
-0.00292311
0.00363229
0.00146296
-0.00217214
-0.00671725
0.00291928
0.00585739
-0.00205943
-0.00291378
0.0042351
0.00543843
-0.00675975
0.00818045
-0.00316962
-0.00541816
0.000407324
0.000142405
-0.00199263
0.00484835
-0.00299813
-0.000843209
0.000836618
-0.00641431
0.00586731
0.0019075
-0.00628376
-0.00149105
0.00737012
-0.00604476
-0.00162503
0.00155751
0.00230343
-0.00544263
0.00158169
-0.00301497
-0.00553097
0.00491682
0.00362911
-0.000922844
-0.00239697
-0.000727256
0.00300231
-0.00321095
0.00690936
-0.00670071
0.000730479
-0.00842038
0.00768991
0.00287985
-0.00376135
0.002439
0.00154546
0.000897257
0.00126795
-0.00371066
-0.000147818
-0.00699727
0.00714509
-0.00379278
0.000503036
-0.00123085
0.00452059
-0.000456403
0.00528448
-0.0048169
-1.11862e-05
-0.00358998
-0.00190162
0.00207791
0.00341369
-0.00133763
-0.0031752
-0.00295485
-0.00433549
0.00361667
0.00367367
0.000155691
-0.00444817
0.00770888
-0.00316921
-0.000410173
-0.0041295
0.00406918
-0.000389657
-0.002969
-0.000710519
-0.000656518
0.00574526
-0.0071728
0.00208407
0.0037168
0.000142201
0.00180953
-0.00566853
-0.000135876
-0.00305278
0.00147272
0.00171594
-0.00210702
0.00274197
0.00530347
-0.00593841
-0.0074701
-0.00194343
-0.00209616
0.00691944
-0.00637161
0.000149235
0.00199841
0.00422396
0.000614235
-0.00226085
-0.00403169
0.0056783
-0.00290706
-0.00567563
0.00143156
0.00715113
-0.00267845
-0.00297092
0.0030926
0.00255677
-0.00691622
0.00665635
0.00701502
-0.00675516
-0.000928115
-0.00162057
-0.00489463
0.00744332
-0.00668254
0.000690547
0.00680024
-0.000808249
-0.00116896
0.00314091
-0.00197195
-0.00271164
0.00501058
-0.00377404
0.0014751
-0.000116742
0.00905129
-0.00336057
-0.00557397
-0.00323723
-0.00156489
0.00650265
-0.00170052
0.00104917
-0.00274689
0.00623053
-0.00453281
0.000283607
0.00402178
-0.000704571
-2.427e-05
-0.0066439
0.00664319
2.49791e-05
0.00751446
-0.00133061
-0.0109837
0.00479985
-0.00694236
-0.000679971
0.00866774
-0.00104541
-0.00377201
0.00569837
0.000468297
-0.00239466
0.00337602
-0.00333586
-4.01585e-05
-0.00403228
0.000389582
-0.00348049
0.00712319
-0.00584096
0.00804902
-0.00167822
-0.000529844
0.00363301
-0.00152322
-0.00437934
0.00226955
-0.00703728
0.00710243
-6.51496e-05
0.0057735
-0.00839837
0.000681772
0.00194309
-0.00656158
-0.00179526
0.0112217
-0.00286487
0.00483198
-0.000203508
-0.0010147
-0.00361378
-0.00273622
-0.00467628
0.0104148
-0.000496355
-0.00688195
0.00416735
0.0108813
-0.0121387
-0.00115343
0.00241087
0.00289612
0.00137922
-0.00319907
-0.00304003
0.00316792
-0.000127886
-0.00123945
0.00692358
-0.000438846
-0.00524528
-0.00151029
0.00179148
0.00603377
-0.00631496
0.00392519
0.00921701
-0.0053933
-0.0077489
0.00670819
-0.00804807
0.00255847
-0.00121859
0.00615043
8.48582e-05
-0.00623529
0.000112107
0.00599317
-0.00610528
0.00672669
-0.00814127
0.00718808
7.77885e-05
-6.30288e-05
0.00524142
-0.00525618
0.000134925
0.00954207
-0.00950971
-0.000167289
-0.000812638
-0.00241312
-0.00487601
0.00810177
-0.00298307
-0.00178228
0.000598484
0.00564903
-0.0098408
0.00359329
-0.00479228
-0.00125663
0.00513801
0.000910897
-0.00562385
0.00620903
-0.00165932
0.00107414
0.00089078
0.00464355
-0.00157946
-0.00395487
-0.0022822
0.000577886
0.00384858
-0.00214427
-4.9003e-06
0.0017128
-0.00214348
0.000435586
-0.00240132
0.00586814
-0.00338235
-8.44683e-05
0.00176252
-0.00555498
-0.00324482
3.91731e-05
-0.00518157
0.0051424
-0.00190785
-0.00183002
0.000849658
0.00288821
0.00290078
-0.00167378
-0.001227
0.00723609
-0.00718563
-0.00146637
0.00141591
-0.00065848
-0.0042746
0.00394048
0.000992601
-1.75566e-05
2.39555e-05
0.00385949
-0.00386589
0.00192147
-0.001578
-0.00610939
0.00576591
0.00444347
-0.000114214
-0.00432926
-0.00653907
-0.00423171
0.00630865
0.00446212
0.0038118
0.00598197
-0.0102901
0.00362473
-0.00130371
0.00204029
-0.00436131
-0.00145118
0.0014331
-0.00797479
0.00799288
0.00226328
-0.00445742
-0.00433616
0.00653029
-0.000456055
-0.00102855
0.00485264
-0.00336803
0.00338044
-0.00415561
0.00150609
-0.000730925
0.0018328
-0.00303851
-0.00293682
0.00414253
-0.00595132
0.0067073
-0.00179178
0.0010358
0.00674275
0.00868683
-0.00956036
-0.00586922
-0.00524719
0.00522259
2.46028e-05
-0.000581894
0.00617376
-0.00772116
0.0021293
0.000238293
-0.000389468
-0.00593679
0.00608797
0.0058636
0.000246881
-0.0067468
0.000636318
-0.00247912
-0.00419016
0.00526926
0.00140002
-0.00598704
0.0084834
-0.00300489
0.000508525
-0.0024954
-0.00304336
0.00180632
-0.000369276
-6.18094e-05
-0.00428059
0.00471167
-0.0139953
6.0276e-05
0.00125866
0.0126764
0.000555424
-0.00356955
-0.00184722
0.00486135
0.00871616
-0.000716697
-0.00282076
-0.0051787
-0.00156605
-0.00337149
0.000662528
0.00427501
0.00244661
-9.69467e-06
-0.00243692
0.00409423
0.0021818
-0.0013588
-0.00491723
0.00317362
-0.00251719
0.00626699
-0.00692342
0.000206838
0.00652629
-0.00215448
-0.00457865
0.00158128
0.00225474
0.00488014
-0.00314831
0.000218513
0.0029298
-0.00406823
0.000573738
0.0010812
0.00068283
-0.00563461
0.00387058
-0.00530289
0.00775981
0.00235067
0.00802137
-0.00170057
-0.00867147
-0.00509568
0.00500947
-0.00792416
0.00801038
-0.000771273
-0.00386412
0.00135179
0.0032836
-0.00424797
0.00800263
0.00237058
-0.00275988
0.000619071
-0.000229774
-0.00261182
-0.00834965
0.00261266
0.00834881
0.00549365
-0.00548309
-4.91465e-05
3.85926e-05
0.00443256
-0.00517553
0.00110256
-0.000359583
0.00113758
0.00444547
-0.00792463
0.00234158
1.96624e-05
0.00384632
-0.00386598
0.00247532
-0.0063521
0.00501436
-0.00239152
0.00642745
0.00541377
-0.0094497
0.00182843
-0.00186238
-0.00866519
0.00869914
-0.00260435
0.00431781
-0.00866627
0.00695281
-0.00623429
0.00496371
0.00650619
-0.00523561
-0.00391777
0.00536917
-0.00346897
0.00201757
-0.000817087
0.00355965
0.000578595
-0.00332116
0.00182306
-0.0026581
0.00274192
-0.00190688
0.00340474
0.00126777
0.00111956
-0.00579207
0.00975819
-0.00663018
-0.000397925
-0.00273009
-7.23174e-06
-0.00474544
0.00475267
0.00295047
-0.00432109
-0.0132467
0.0146173
-0.000594647
-0.00642359
-0.00194714
0.00896538
-0.00039379
-0.00297951
0.0033733
0.000903146
0.00427435
-0.000679418
-0.00449808
-0.00119942
-0.00433005
0.00349399
0.00203547
0.00331182
-0.00277315
-0.0048725
0.00849363
-0.00661295
0.00186533
0.0019758
-0.00384113
0.00640696
-0.000199466
-0.000779682
-0.00542781
-0.00122646
-0.00208583
0.00331228
0.00230624
0.00153256
0.0128056
-0.0153991
-0.00544213
0.00803558
0.00198053
0.00421935
-0.00322713
-0.00297275
-0.00449739
0.00859881
0.00572006
-0.00982148
0.00505665
0.00175464
-0.00067705
-0.00613424
0.00840726
-0.00560604
0.0036182
-0.00641942
-0.0047005
0.00214718
-0.00588965
0.00844297
-0.0076312
0.0136783
-0.005359
-0.000688132
-0.000200461
-0.0032883
-0.0045247
0.00801346
0.00621457
0.00256551
-0.00728938
-0.00149071
0.00331475
-0.00883533
0.00557471
-5.41282e-05
-0.00782787
-0.000296834
0.00512195
0.00300275
-0.00157053
0.00405825
0.00176394
-0.00425166
-0.000997122
0.00399833
0.0032151
-0.0062163
-0.00814352
0.00418776
-0.000398779
0.00435454
0.000754099
-0.0022337
0.00442799
-0.00294839
0.00344469
-0.00172864
0.0012291
-0.00294515
0.00335526
0.000645976
0.000325993
-0.00432723
-0.00497648
0.00534011
0.00197686
-0.00234049
-0.00117084
0.00627612
0.000127175
-0.00523246
0.00505412
-0.00296634
-0.00195959
-0.000128191
0.00441174
3.51972e-05
-0.00444694
0.00321589
0.00249014
-0.000564567
-0.00514147
0.0014966
0.00395347
0.00338411
-0.00883418
-8.02825e-06
-0.0071028
0.00711082
-0.00370258
0.0143412
-0.0020918
-0.00854686
-7.14734e-05
0.0053572
-0.00528573
-0.00035803
-0.00386408
0.000695023
0.00352709
-0.0069608
0.0035485
0.00269175
0.000720549
0.00141863
0.00118002
-0.00813677
0.00553811
0.00417332
0.00659233
-0.00246392
-0.00830172
0.0062736
-0.002145
-0.00600507
0.00187648
-0.007831
0.00446341
0.0119451
-0.00857747
-1.96437e-05
0.00298351
-0.00298329
1.94207e-05
-0.00308934
0.00305723
3.21146e-05
-0.00797377
0.000122887
0.00335349
0.000887937
0.00192093
0.00525908
-0.00806794
0.00417833
-0.00496943
0.00320475
-0.00241365
-0.00396171
0.00347015
-0.000130941
0.000622501
-0.000833621
-0.00653236
0.00836492
-0.000998939
-0.0029084
0.00140019
0.00460589
-0.00309768
0.00507045
-0.00195553
0.000750277
-0.0038652
-0.00339441
-0.000592698
0.0039753
1.18148e-05
-0.000575422
-3.08139e-05
0.0054654
-0.00485916
0.000704177
-0.000590532
0.00551967
-0.00563331
-0.00496248
0.00692975
-0.00725871
0.00529144
2.58042e-05
-0.00626022
0.00623442
-0.00222236
0.000196671
0.00560379
-0.0035781
-0.00428759
0.00501256
-0.006836
0.00611103
-0.00439781
0.000335012
0.00134133
-0.00202379
0.00549191
0.000306328
-0.00377444
-0.00146905
0.00020588
-0.00249504
-0.00215941
-0.0070204
0.00705177
0.00212804
-0.00312823
-0.00036542
-0.00078792
0.00428157
-0.0107041
0.0036145
0.00105351
0.00603606
-0.00341862
0.0077814
-0.00384804
-0.000514748
0.00238484
0.00093043
-0.00478433
0.00468528
0.00477849
-0.00946376
0.000631262
0.0102389
-0.0023774
-0.0084928
-0.000128713
-0.00018172
-0.00448951
0.00479994
-0.00491257
0.00809276
-0.00326319
8.29991e-05
0.00466698
-0.0029475
-0.00423018
0.0025107
0.00115817
-0.000155388
0.00141756
0.00717269
0.00200262
-0.0103889
0.00121355
-0.00497185
-0.000649098
0.00162958
0.00399137
0.00189321
-0.00209226
-0.00284432
0.00863018
-0.00580627
0.00451363
-0.00733753
-0.00095813
0.00557672
-0.00964443
0.00502584
0.00336036
-0.00424434
-0.000431103
0.00131508
-0.00372588
-0.00129799
-0.000125733
0.0051496
-0.00277654
-0.00262478
0.00540132
0.00069308
-0.00741678
0.00658143
0.000142266
0.00285543
-0.00275481
-0.00287717
-0.00466905
0.00592356
-0.00112507
-0.000129435
0.00666884
0.00183688
-0.00718878
-0.00131694
-0.00257396
-0.00377739
-0.000436039
0.0067874
0.00419034
-0.00127604
0.00485749
-0.00777179
-0.00470287
-0.000259616
-0.0056469
0.00302212
0.000727068
-0.00633214
0.0020263
0.00357878
0.00183052
-0.00655511
0.00360923
0.00111536
0.000984097
0.000255086
-0.00492852
0.00368934
0.000756061
0.00323433
-0.000216308
0.00549601
-0.00108588
-0.00419382
-0.00216024
-0.000217309
-0.00201374
0.00439129
-0.00127479
-0.00171663
0.00328245
-0.000291032
-0.00515624
-7.60526e-05
-0.00870972
0.00312764
0.00458496
0.0123258
-0.000101396
0.00167669
-0.0139011
-0.0053963
0.00838199
0.0017015
-0.00468719
-0.00154067
0.000844552
0.00531496
-0.00461885
0.000646773
0.00183798
-0.0014211
-0.00106366
-0.00927515
-0.00192001
0.00799984
0.00319532
0.000201156
0.00389133
-0.000780667
0.000118502
0.00197113
-0.00618767
0.00409804
-0.00384935
-1.3926e-05
0.00141896
0.00244432
-0.00521755
0.00644836
-0.00102965
0.00295124
-0.00266116
-0.000290079
-0.00437436
0.000628623
-0.00339324
0.00713897
-0.00196605
0.00296003
-0.00228136
0.00128738
-0.00422671
0.00475976
-0.00196657
0.00143352
0.00191442
-0.000316068
-0.00456412
0.00296576
-0.00188897
0.0118448
-0.0159429
-0.00174409
-0.00121695
0.00119127
0.00176978
0.00566726
-0.00884322
-0.000403074
0.00357903
-0.00240706
0.00179641
0.00309522
-0.00248457
-0.000710119
0.00379754
-0.00104917
-0.00203825
-0.00427779
0.000949445
0.000999129
0.00232922
-0.00236146
0.000203331
0.00215813
0.00551069
-0.00262329
-0.0027981
-8.93031e-05
0.000397936
0.00271599
-0.00412232
0.0010084
-0.00295183
-0.00358039
0.00365052
0.00288171
-0.00151547
0.00391226
-0.00335483
0.000958037
0.00142309
-0.00269445
0.00185688
-0.000585531
0.00513766
0.000135736
-0.0052734
0.00441693
-0.00543521
0.00268934
-0.00167106
-0.00694219
-0.000193286
0.00713547
0.00286824
-0.00237843
0.000555147
-0.00104496
-0.000221454
0.00492086
-0.00537329
0.000673875
-0.00247965
0.00310374
0.000799005
-0.00271652
0.00582166
0.00537826
-0.00468228
0.00464296
3.9321e-05
9.72885e-05
-0.00742854
0.00733125
0.00994921
0.00120074
-0.00211716
-0.00903278
0.00208143
-0.00811304
-0.00100729
0.0070389
0.00158458
0.00188116
0.00105317
-0.00451891
-0.00279066
-0.00278988
3.88116e-05
0.00554173
-0.00133234
0.0018262
-0.00328452
-0.00615108
0.00110877
0.00807424
-0.00303194
-0.0120842
0.00885258
0.00389197
-0.00066032
0.00535541
4.48006e-05
-0.00540021
-0.00301271
-0.00405466
0.00262284
0.00444453
-0.00304595
-0.00442733
0.0013222
-0.00439404
0.00238896
0.00276114
0.00177301
-0.00232527
-0.00421649
0.00476874
-0.00301719
2.97603e-06
0.00301421
-0.00701023
0.00283332
0.00288177
0.00129515
0.00177255
-0.00473896
-0.00142763
0.00600688
-0.00190362
-0.000151628
-0.00395163
-0.00402371
0.00666818
0.0039562
-0.00660068
-0.00117324
-0.00246692
0.000899139
0.00274103
-0.00171155
-0.00137759
0.00308914
-0.00297497
-0.00624699
-0.00286226
0.00138297
1.89027e-05
0.00279085
-0.00419273
0.00570342
-0.0041504
-0.00601096
0.00445793
-0.00211484
0.00075382
0.00427449
-0.00291347
0.00403952
-0.00284405
-0.000400663
-0.000794803
-0.00463537
0.000752041
0.00362131
0.000262023
-0.00288681
0.00661619
-0.00713952
0.00278314
0.000206775
0.0041496
0.0066775
-0.00532916
-0.00419788
0.00284954
-0.00529642
0.00110275
0.00989709
-0.00516807
-0.00340711
0.00556266
0.00301252
-0.000607064
0.00539438
-0.002045
-0.00274232
0.000303431
-0.00315802
-0.00208003
0.00493462
0.00613299
-0.00404614
-0.000248209
-0.00183864
0.00188404
0.00140752
-0.00462391
-0.00129016
0.00146149
0.00360126
-0.00377258
-0.00106355
0.00556108
-0.00685525
0.00235771
-0.00331287
0.000798481
0.000802591
0.0017118
-0.00732385
0.00744555
-0.000121697
0.00505084
-0.0049766
-7.4238e-05
0.00202447
-0.00781563
-0.00300133
0.00879249
0.00179633
0.00341579
0.000794764
-8.71128e-05
0.00300797
-0.00292086
0.00478948
0.00429433
-0.00908381
-0.00533875
0.00325966
0.00230323
-0.000224143
-0.002998
0.000987994
0.00243771
-0.0004277
-0.00890129
0.00415636
0.00487325
-0.000128313
-0.00291148
-0.00324269
0.00313698
0.0045827
-0.000721835
-0.00295366
-0.0009072
-0.00497616
0.00536984
-0.00328049
0.000859549
-0.00548228
-0.000280323
0.00490305
-6.22349e-06
-0.00269718
0.00270341
0.0133131
0.000108063
0.00141585
-0.014837
-0.000496972
-0.000972642
-0.0071707
0.00864031
0.00232047
-0.00314267
-0.00146679
0.00228899
0.000892445
0.00690373
-0.00278466
-0.00501151
0.00753496
-0.0075393
-1.75413e-05
2.18807e-05
-0.0042155
-0.00380162
0.0059425
0.00207462
0.00246782
0.00189468
-0.00492188
0.000559378
3.34397e-05
0.00456081
-0.00466118
6.69383e-05
-0.00630303
0.00201705
0.00510743
-0.000821447
0.0048575
0.00293805
-0.00491799
-0.00287756
0.000112102
-0.00429416
0.00217969
-0.00112742
0.00648268
-0.00349492
-0.000455112
-0.000545347
0.00449538
-0.00581281
0.000319113
0.0054937
0.00848835
0.00367361
-0.00275592
-0.00940604
-0.00554626
0.000116723
0.00554164
-0.000511525
-0.00133327
-0.00340019
0.00524499
-0.000694338
-0.000659822
-0.00178145
0.00313561
0.00139958
-0.00709167
0.00534696
0.000345136
0.00441751
-0.000688304
-0.0042979
0.000568695
-0.00547059
0.00115065
0.00045258
0.00386736
-0.00207322
0.0013535
-0.00278601
0.00350572
0.00119409
0.000769666
-0.00705812
0.00509436
0.000245394
-0.0047696
-0.000331568
0.00485578
0.00473988
0.000619297
-8.08273e-05
-0.00527835
-0.00563758
0.00131177
0.00510232
-0.0040627
-0.00539706
0.00945976
0.0078284
-0.00399213
0.00167691
-0.00551318
0.000613166
0.00440771
-0.00270041
-0.00631665
0.00117333
0.00222663
0.00291669
0.00779935
-0.00803203
0.000232687
-0.00468553
-0.00159311
0.00328075
0.00299789
-0.00611468
-0.00475108
0.00318552
0.00768025
0.00641615
-0.00670028
-0.000820018
0.00110414
-0.000934192
0.00311189
-0.00245118
0.000273483
-0.00796635
0.00260013
0.00182938
0.00353683
-0.0117559
0.0146454
0.00241798
-0.0053075
0.00524321
-0.0113746
-0.000569533
0.00670093
-0.00466975
0.0059189
-0.010968
0.00971889
-0.00491803
0.0108538
0.00107409
-0.00700982
0.000431512
0.00511925
-0.0011968
-0.00435396
0.00780294
-0.00585528
-0.000194984
-0.00175267
-0.00137446
-0.00132064
0.00201771
0.000677385
-0.00370448
-0.00769061
0.00655115
0.00484393
-0.00523617
0.00697966
0.00605944
0.00421395
-0.00309846
-0.00385929
0.0027438
0.00157846
-0.00204148
-0.000901926
0.00136495
0.00349968
-0.00346242
-0.00460705
0.00456979
-0.00141565
0.00406054
-0.000293616
-0.00235127
-0.00560155
-0.000893623
0.00692669
-0.00424448
-0.00104329
0.00524711
4.06619e-05
0.00171621
-0.00383417
0.00211797
0.00137619
-0.00182646
0.00681298
-0.00636272
0.00532812
-0.00748944
0.00108385
0.00107747
0.00338286
-0.00364936
0.000266501
-0.00537857
0.000142409
0.00481486
-0.00183272
-0.00464439
0.00166225
0.00151246
0.00122702
0.00537188
-0.00811136
0.00329737
-0.0035797
0.000282324
-4.04736e-05
0.00419577
-0.00474335
0.000588056
-0.00589262
-0.000566811
0.00783562
-0.00256012
-0.000437637
0.000592069
0.00240569
0.000353574
-0.00291928
0.00215241
0.000413294
0.00478443
-0.00458159
-0.00113704
0.00054595
0.00786937
-0.00495666
-0.00345866
-0.00270984
0.00574039
-0.00303054
-0.00731598
0.00280035
-0.00171783
0.00623347
0.00574936
-0.00520556
-0.00851015
-0.0027892
-0.00334111
0.0114761
-0.00534577
-0.00823382
0.00524572
0.00747817
-0.00449008
-0.000181011
-0.00704061
0.00722162
0.011138
2.19193e-05
-0.0064164
-0.00474348
0.00647907
-0.00417684
-0.00057816
-0.00172408
-0.00471683
0.00335115
-0.000851283
0.00221696
6.41845e-05
-0.00485138
0.00478719
-0.00356751
0.00367235
-0.000104839
-0.00257126
-0.00271413
-0.00695626
0.0122416
-0.00655918
0.00143189
-0.000729812
0.0058571
0.00151293
0.00245492
0.00674995
-0.00609378
-0.00503647
0.00438029
-0.00187192
-0.00386075
0.00425901
0.00147366
-0.0038834
-0.0019743
0.00586362
-5.91539e-06
0.00127222
-0.000732395
-0.00360393
0.0030641
0.00428447
0.000190636
-0.00547744
0.00100234
0.00132237
-0.000921308
0.00141143
-0.00170386
0.00169799
-0.00140556
0.0035003
0.00342915
-0.00350106
-0.0034284
0.00172814
0.00404061
-0.00417665
-0.0015921
0.00367807
0.00159396
-0.00288719
0.00452512
-0.00548777
0.00115329
-0.006014
0.00420429
0.00226342
-0.000453711
0.00718352
-0.00237433
-0.00751904
-0.00191473
0.00510094
0.00256315
0.0049748
-0.00242398
-0.0041916
-0.00114118
-0.000681224
-0.00669561
0.00626065
0.000591343
-0.000156379
-0.000415812
0.00837388
-0.000867466
-0.00709061
-0.00546781
0.00111546
0.00243761
-0.000877496
-0.00556678
0.00156358
0.0048807
0.00500057
0.000696329
-1.74287e-05
-0.00567947
-0.00747087
-6.00638e-05
5.06632e-05
0.00748027
-0.00190948
0.00209655
-0.0033906
0.00320354
-0.00515095
0.00651006
-0.000669087
-0.000690014
0.00677564
-0.0063227
-0.00560389
-0.0049955
0.00450887
-0.00142972
0.00191636
0.0040624
-0.000183489
-0.00127678
-0.00260213
-0.00758352
0.00731533
0.00358179
-0.0033136
0.0035648
0.00135789
-0.000453115
-0.00446957
0.00130131
0.00329799
-0.0041245
-0.000474788
-0.00244517
0.0024596
-1.44241e-05
-0.0014281
-0.0036454
0.00365785
0.00548473
-0.00543503
-4.96964e-05
-0.00310651
-0.00246409
0.00242792
-0.000319315
-0.00372784
-0.000403886
0.00445104
-0.00041889
-0.00322039
0.00288083
0.000758454
0.00511685
-0.00581923
0.000702388
-0.00650856
0.0066727
0.00611936
-0.00628349
-0.00437
0.00337451
-0.00229652
0.003292
-0.00173796
0.000742565
0.00157365
-0.000578257
-0.0001823
0.00789391
-6.91787e-05
-0.00764243
-0.00396707
0.00192329
0.0019542
0.00226955
0.00288891
-0.00504036
-0.000118093
0.000218894
-0.00626882
-0.000245501
-0.00572023
0.00571815
2.08785e-06
-0.00382587
0.00192678
-0.00421559
0.00130355
-0.00288458
0.000114238
0.00249049
0.00108123
0.00379635
7.38051e-05
-0.003247
-0.000623155
0.00317885
-0.00793289
0.00636026
-0.00160622
0.00130846
-0.00178338
0.00663008
-0.00615516
0.00810723
0.00239815
-0.00124657
-0.00925881
-0.00207749
-0.00341192
-0.00110698
0.00659639
0.00246047
0.010243
-0.00925021
-0.00345331
0.00117904
0.00742936
-0.00717348
-0.00143492
-0.00257054
0.000338998
0.00526929
-0.00303774
-0.000896138
0.00728664
-0.00393003
0.00527579
-0.00416436
-0.00162724
0.000515812
0.00173445
0.00454084
-0.00627529
0.00424744
0.000943109
-0.000566027
-0.00462452
-0.00391332
0.00312818
0.000314487
0.000470654
-0.000375084
-0.00551386
0.000322962
0.00556599
-0.00404114
-0.000513771
-0.000167226
0.00472213
0.00233794
-0.00518827
5.12253e-05
0.00203888
0.00309817
4.6334e-05
0.00337756
-0.00342389