/*--------------------------------*- C++ -*----------------------------------*\
  =========                 |
  \\      /  F ield         | OpenFOAM: The Open Source CFD Toolbox
   \\    /   O peration     | Website:  https://openfoam.org
    \\  /    A nd           | Version:  10
     \\/     M anipulation  |
\*---------------------------------------------------------------------------*/
FoamFile
{
    format      ascii;
    class       volScalarField;
    location    "23.5";
    object      SgP;
}
// * * * * * * * * * * * * * * * * * * * * * * * * * * * * * * * * * * * * * //

dimensions      [1 -1 -3 -1 0 0 0];

internalField   nonuniform List<scalar> 
111485
(
1.55624e-09
0.000121598
2.82004e-05
5.40962e-11
8.58327e-06
3.18994e-08
1.5202e-05
2.53429e-07
1.04898e-05
2.9664e-06
2.56657e-05
9.23137e-07
6.858e-06
0.295451
6.75742e-06
1.61295e-05
0.209083
0.00105462
8.87465e-07
4.80255e-08
0.03722
3.21021e-09
3.16174e-06
1.13824e-05
4.14862e-05
3.52982e-08
5.87422e-07
1.46426e-05
1.06626e-06
0.0481536
4.19693e-06
5.03425e-07
2.17963e-07
1.43862e-06
0.000738566
9.17932e-05
0.136638
0.205787
0.002452
9.01768e-07
0.0435642
1.20345e-06
3.0273e-06
0.000107894
1.87227e-05
1.58723e-06
6.57564e-06
4.3905e-07
6.26814e-06
4.29352e-07
1.09599e-06
1.73527e-05
4.63955e-07
9.9787e-06
1.51044e-06
1.63798e-07
2.80704e-06
4.43994e-08
5.07322e-05
3.87659e-07
5.83009e-07
2.64959e-07
8.65496e-05
7.16665e-06
6.4846e-06
2.13756e-05
0.000424997
2.41196e-06
7.20021e-05
0.000142515
4.85586e-05
8.74697e-05
1.12426e-05
9.24574e-05
4.65474e-08
1.77391e-06
1.50512e-08
7.19828e-07
2.83937e-08
3.12563e-05
0.281005
0.526428
4.66596e-08
5.22923e-09
1.6159e-05
3.8114e-05
0.143724
9.2314e-06
0.000247537
4.49166e-06
1.36315e-06
6.63596e-06
4.64274e-05
4.7868e-07
2.26868e-06
6.67025e-09
0.0270687
1.18672e-05
0.00153251
0.000578036
1.44328e-09
2.63879e-06
1.96689e-06
1.43926e-05
6.14941e-06
1.64525e-05
5.91497e-09
2.83694e-07
1.51861e-05
0.000730022
4.22644e-05
1.37884e-06
1.3266e-05
7.42259e-05
1.02738e-07
1.89594e-07
3.0961e-08
6.5569e-06
2.32382e-05
4.25249e-09
9.17241e-08
0.000189869
0.0753176
2.27022e-06
5.82158e-05
0.0279438
0.000107201
1.33568e-05
3.00336e-10
0.000320856
0.00013727
1.74885e-05
0.0472119
0.000175242
7.83329e-05
8.62543e-07
8.9172e-10
3.22766e-07
9.4237e-06
2.44664e-05
7.14679e-05
3.46937e-07
0.180355
9.94064e-05
4.17791e-05
2.41693e-06
9.80523e-10
8.99336e-10
4.76627e-08
5.12249e-07
3.36145e-05
0.0285528
0.115689
1.41586e-05
3.51575e-05
5.75653e-07
5.66344e-06
0.000154034
0.000824084
5.43744e-06
9.65601e-10
7.24984e-07
4.0397e-05
7.4002e-05
6.33619e-05
3.85465e-05
7.355e-06
0.0270937
0.00156541
0.000127806
1.58511e-09
1.52506e-08
0.197969
1.05334e-10
2.67718e-07
2.86363e-06
5.25607e-07
9.57911e-06
3.60448e-08
5.81367e-06
9.89402e-06
3.71332e-08
2.65405e-06
5.09256e-07
2.38849e-06
2.06066e-05
9.85238e-06
5.5436e-05
0.00038712
1.7882e-07
5.43732e-05
5.78873e-06
7.13735e-06
3.71975e-05
5.1208e-06
1.20391e-05
2.07916e-06
1.3923e-06
8.46338e-07
8.88925e-06
3.00164e-06
0.00163139
8.07042e-05
9.38576e-07
1.82937e-06
4.12481e-06
1.2559e-05
1.18677e-05
1.82311e-05
2.94525e-06
5.68604e-06
9.8821e-06
8.64598e-06
7.80568e-09
7.0514e-05
0.000312369
4.59607e-07
7.22158e-09
1.2079e-05
1.77784e-05
8.70507e-07
8.33213e-08
1.62719e-05
1.65732e-05
0.000277876
6.91843e-09
4.35452e-10
3.10721e-05
0.004183
2.36442e-05
9.372e-05
1.39927e-05
2.37426e-06
0.14616
3.86814e-05
2.01982e-05
0.160944
4.65962e-08
6.19337e-05
2.21638e-05
2.71003e-05
3.30641e-05
4.84501e-06
3.89888e-06
0.00195958
8.90011e-07
7.84527e-06
1.21058e-08
4.86328e-06
0.136606
1.83122e-05
1.09622e-05
2.23091e-05
7.91222e-10
0.000193187
4.75165e-07
2.78718e-07
6.59518e-05
0.0997219
1.85459e-08
4.65053e-06
5.50388e-05
2.51996e-06
3.36806e-09
1.22358e-05
6.56135e-11
6.08823e-08
5.10211e-07
0.165034
4.34013e-06
3.24314e-05
1.39573e-06
0.177464
1.99156e-05
1.41997e-06
0.000254629
4.74269e-06
1.18643e-06
4.5149e-07
5.36165e-09
0.111613
4.29172e-07
4.01899e-05
2.0994e-05
1.78498e-09
0.21775
0.265996
1.58422e-06
0.000319763
3.46891e-05
3.17541e-06
8.87963e-06
1.19298e-05
2.01429e-08
7.52751e-06
2.95066e-09
0.000359186
0.00027708
1.5556e-05
1.68611e-06
0.346818
1.7715e-08
0.0860478
1.1034e-06
7.77259e-06
3.08045e-09
1.15028e-07
0.0246319
4.89582e-06
1.51614e-06
5.94952e-06
0.00017169
7.7044e-07
3.05155e-05
3.05271e-08
3.54364e-08
5.70712e-06
0.0043507
0.250389
3.45922e-06
0.000792388
1.78389e-09
8.71288e-09
1.40395e-08
8.47982e-05
5.72754e-07
5.86091e-07
2.17436e-06
8.76958e-07
7.13752e-05
0.060817
5.53935e-06
1.24181e-07
1.90323e-06
2.29898e-06
0.0483575
4.99747e-05
7.37772e-07
7.24753e-07
7.84132e-07
1.34848e-05
7.08637e-08
0.151324
0.000173513
8.55472e-07
3.21815e-06
0.000301937
4.76285e-07
0.0391248
5.36346e-07
1.07724e-05
6.14034e-06
3.89196e-07
2.02184e-05
9.10827e-06
1.96378e-07
5.46541e-07
7.13546e-07
1.76776e-06
0.362299
2.98494e-05
1.71947e-07
0.0529957
1.65401e-05
1.75017e-08
4.08134e-07
3.75295e-07
0.0469259
0.000621675
0.045908
0.0496713
2.81938e-07
2.5001e-08
2.80082e-06
4.04058e-06
4.03003e-10
7.74951e-06
3.03644e-06
1.57745e-05
2.65572e-05
0.00014148
5.61872e-06
0.000706688
4.77412e-07
8.20681e-06
4.31488e-05
1.16247e-06
0.000673492
3.89599e-07
1.47401e-05
2.82425e-06
0.0303712
1.17471e-07
2.08703e-07
0.154803
4.77797e-06
0.306521
6.5729e-08
4.61856e-06
3.53028e-06
7.64187e-09
5.18305e-06
4.62246e-05
3.77857e-09
0.0320476
3.17134e-06
2.83895e-06
4.54994e-07
2.61263e-08
0.000758592
3.76225e-09
1.03534e-05
3.62968e-06
4.28929e-10
1.13521e-06
3.88098e-05
0.246871
0.000134977
1.98886e-09
7.95344e-05
0.00010289
9.93734e-05
3.91651e-05
0.000632197
2.39848e-06
0.00112725
5.58039e-05
0.204887
0.000201338
4.5875e-08
7.43787e-06
1.06558e-06
2.03842e-07
0.00142006
0.000222573
8.3171e-05
1.4878e-06
1.3506e-06
9.58033e-06
3.67326e-08
0.351619
8.28022e-07
3.36352e-05
0.00438676
9.16383e-05
0.00127312
3.56661e-08
0.253549
0.332468
2.57017e-08
3.56033e-05
0.000261963
0.000103544
4.05924e-09
3.01509e-05
3.49554e-09
0.285072
7.23951e-05
2.13282e-05
0.000108454
2.11543e-05
1.95444e-07
1.79744e-06
4.99912e-07
6.9576e-05
1.54474e-07
5.98429e-07
0.0524121
9.6131e-05
4.03672e-08
1.51774e-09
0.000384017
8.46366e-08
1.60452e-06
3.64375e-06
2.74887e-08
6.15637e-05
6.72622e-08
0.0741692
6.88837e-08
1.65987e-06
3.68013e-08
0.000238996
4.30701e-07
0.224093
1.96352e-05
0.236927
1.56084e-08
6.70785e-05
2.58828e-06
2.67199e-09
0.369816
0.143202
2.63136e-05
3.05126e-06
3.06339e-05
6.69299e-07
1.22325e-05
7.90635e-07
4.60168e-05
0.289899
2.6036e-08
2.4214e-06
0.000108462
1.76529e-05
0.0590896
5.63299e-06
0.000114975
2.45689e-06
1.3791e-06
0.000781645
0.0820067
1.77864e-05
2.14594e-08
1.32914e-06
3.513e-06
3.55434e-06
1.14458e-06
1.96057e-05
1.75806e-09
0.00169905
1.71733e-07
3.53303e-07
1.78734e-07
9.59321e-05
3.8531e-09
1.00652e-05
2.99764e-08
9.26979e-06
2.04609e-09
0.116279
0.114747
2.00431e-05
1.1631e-06
0.0652862
0.0813746
4.7713e-08
2.71166e-07
1.50766e-05
4.58673e-08
0.000173628
1.78246e-05
1.0958e-05
0.0426591
1.69235e-06
2.40799e-09
4.68537e-05
4.28794e-05
6.29797e-05
1.64529e-06
1.58388e-05
1.03974e-05
1.19499e-06
9.75604e-07
2.12335e-05
3.31912e-05
2.58912e-09
0.126574
6.70765e-05
4.3522e-05
1.3473e-06
0.00116775
3.20394e-05
0.000463911
0.00301886
0.000385664
4.17895e-06
8.64796e-05
1.15728e-05
2.11687e-05
0.11508
0.00021238
7.44346e-05
0.00358655
0.0770546
3.16771e-08
6.60831e-05
4.59378e-06
4.07106e-05
3.70925e-07
0.000523228
0.00274556
0.000429709
0.000167259
2.66766e-05
2.36944e-06
5.51926e-08
0.000197972
3.46164e-06
2.90956e-08
6.42575e-10
5.57493e-08
3.19416e-08
9.93033e-06
1.79617e-09
0.0347588
1.27967e-05
2.56398e-05
0.0989049
0.319442
6.03663e-05
3.03025e-06
0.0371559
5.53121e-08
1.87038e-05
1.57883e-07
1.92443e-08
4.7777e-05
2.37e-05
0.121508
2.64952e-05
1.58888e-07
2.69329e-06
2.89073e-05
0.14385
7.08501e-06
2.75868e-05
7.0876e-05
0.196906
0.041583
2.84529e-06
1.77736e-05
5.96252e-06
2.40261e-06
6.08804e-06
1.07703e-06
3.17766e-05
4.22839e-06
2.19084e-06
1.14079e-06
4.42052e-06
0.00065868
3.2593e-05
4.25437e-06
5.05347e-06
0.000660464
3.91178e-07
5.15091e-07
1.81629e-05
3.11459e-06
1.6631e-05
2.97668e-06
3.27434e-06
3.41354e-06
3.29175e-05
0.00019809
1.26751e-05
1.8494e-05
3.13997e-06
4.89371e-07
4.47865e-05
4.45453e-06
3.99419e-09
0.0778306
1.61281e-08
0.136801
5.88267e-05
0.0117555
8.04401e-08
0.0295187
1.44464e-06
1.13625e-05
1.3376e-09
7.19866e-06
3.00889e-07
1.65218e-08
8.16731e-07
0.282962
0.000130881
2.95987e-05
0.0411932
9.75979e-08
2.87659e-09
3.72873e-06
1.91215e-06
8.36324e-05
5.33335e-07
0.000128551
6.48254e-08
7.37926e-06
0.000125457
0.168354
6.30091e-10
4.59582e-09
3.30667e-06
8.45456e-07
0.000132733
4.0727e-07
0.0631697
1.20383e-06
2.65379e-08
1.23086e-07
0.0456331
6.52163e-06
0.00013958
6.17283e-10
0.00504204
0.00106643
0.182354
1.61032e-08
1.87568e-08
3.59656e-06
2.30082e-05
3.95357e-05
0.000587898
0.000334044
0.000260478
5.02997e-06
0.0636316
2.69534e-05
8.12421e-07
6.89834e-08
1.20327e-06
1.41635e-08
9.35888e-09
7.71827e-08
9.27479e-10
3.51607e-06
7.10088e-08
1.95464e-08
3.22117e-07
2.05033e-07
1.65904e-06
1.09019e-07
5.84365e-07
2.72857e-07
1.50699e-05
1.68204e-05
2.69696e-08
7.43503e-09
2.23595e-05
8.03838e-10
9.20122e-05
2.13817e-06
5.40151e-06
1.23496e-07
1.27858e-10
9.57509e-10
1.59778e-09
1.56775e-05
1.92352e-08
6.58786e-08
2.10454e-05
4.79506e-09
1.41296e-05
8.22143e-05
2.36383e-06
1.72251e-06
0.000529037
4.56476e-06
0.252385
0.00011121
8.28791e-06
0.209897
8.25457e-05
6.20905e-06
2.87682e-05
9.61905e-07
2.05147e-05
0.0890495
0.000707494
6.22981e-07
3.83108e-08
1.27627e-05
8.01793e-05
9.96903e-05
9.2094e-05
1.85144e-09
1.56227e-10
1.31162e-06
3.86449e-05
9.33887e-06
3.91879e-06
0.000210535
3.45111e-06
3.00139e-05
1.37116e-07
1.52955e-08
0.0335889
8.14151e-06
3.73573e-07
2.77159e-08
4.98336e-05
0.000131185
1.78666e-06
3.47536e-07
0.0407158
1.61773e-09
2.7534e-05
0.0640253
9.82991e-09
0.0726723
4.30313e-05
0.0372262
0.000610668
1.05451e-07
2.49248e-05
2.20458e-05
0.0458794
5.69562e-05
0.00131825
0.161872
0.000145146
1.15033e-05
1.00029e-06
1.49032e-06
0.48725
0.162227
4.31283e-08
0.242186
1.39268e-05
0.000162648
2.53439e-05
2.21308e-05
0.00121379
3.99049e-05
1.40045e-05
6.82766e-06
1.3391e-07
1.77178e-06
0.0458286
8.19201e-08
5.57511e-05
2.82883e-05
9.79215e-08
3.97036e-06
0.217677
4.4593e-06
2.95816e-07
0.00064622
1.55934e-08
4.05765e-06
0.212688
2.36336e-08
0.17812
0.342979
0.00135336
1.7813e-05
1.10123e-06
3.76457e-06
6.32318e-05
0.000225035
0.00120321
0.000318078
4.29922e-06
0.0455462
0.000112037
9.09457e-10
0.000304387
0.000299482
0.000611898
0.000467376
0.000863981
0.000171361
1.08368e-09
6.88471e-05
1.02677e-06
4.12562e-07
0.00171219
0.350091
1.74936e-07
3.30954e-08
0.00324358
0.00330039
3.25551e-09
0.000605938
8.69006e-08
1.5814e-08
1.25073e-08
4.4941e-07
5.06927e-06
1.65603e-07
7.84838e-05
0.0520778
1.45756e-09
5.23888e-07
0.00451223
0.11618
7.52645e-05
7.87423e-07
0.0327201
1.05563e-08
0.00013429
4.1038e-09
2.23542e-09
0.000577032
0.130185
2.57487e-06
6.9692e-09
6.71645e-08
0.0358677
1.84835e-08
0.0232454
4.73302e-08
0.000104319
7.28697e-09
0.00196118
3.1916e-06
2.8594e-09
7.57131e-07
5.59783e-07
0.00140847
6.26729e-07
2.36368e-08
2.09225e-06
0.00444512
0.0543515
7.25955e-05
0.000614481
0.00107039
4.31876e-08
0.00133067
1.03245e-05
3.412e-07
3.17046e-06
0.000216501
2.263e-05
1.17974e-07
9.55282e-06
0.000151073
1.00816e-07
1.37854e-06
7.48251e-07
1.67631e-05
0.0734444
1.39459e-09
8.99065e-07
0.0611732
0.000121901
7.75258e-05
5.45478e-09
8.83791e-07
1.83182e-08
1.13719e-06
2.7606e-05
5.33519e-05
5.53736e-07
3.02065e-05
2.76525e-05
8.3097e-05
1.69342e-05
7.08177e-09
3.83345e-06
1.68184e-09
5.04569e-07
6.72587e-05
0.000185623
3.10756e-08
5.07146e-07
4.55472e-06
1.54991e-10
4.79795e-05
4.46944e-07
7.31524e-05
0.000841988
7.54871e-05
1.50608e-08
0.00139559
0.000119465
6.32767e-05
0.000159438
4.70109e-08
0.000164301
2.57234e-06
0.117504
3.50242e-05
9.77038e-05
6.22126e-08
6.49582e-10
2.35016e-08
0.186967
0.0751402
4.48012e-05
6.75907e-10
0.000144933
2.99651e-08
0.173716
0.000159768
7.64585e-07
9.23844e-08
3.41715e-06
6.17945e-07
9.02559e-05
2.13286e-06
0.000123308
0.313541
4.20697e-06
7.23203e-05
3.37471e-05
7.08047e-05
5.21689e-05
3.25403e-08
3.39334e-10
2.86016e-06
3.68478e-05
8.16945e-09
2.02314e-07
0.000610281
4.59419e-07
1.44212e-06
0.423778
1.76966e-06
6.87978e-05
4.05561e-10
3.34136e-06
2.64677e-07
0.331935
2.91691e-09
0.119415
0.00554127
0.000138028
1.7248e-05
1.58147e-05
0.000948398
2.57554e-06
3.29553e-06
2.30549e-06
1.02081e-06
6.21214e-08
1.87089e-06
8.60114e-05
2.39695e-06
0.0710115
2.7668e-07
4.35468e-06
0.000309143
2.07875e-09
0.000385431
8.60366e-08
3.97769e-05
0.000832088
6.86375e-08
2.12729e-06
7.06211e-05
5.5326e-07
9.42462e-06
0.182661
8.01583e-07
9.92814e-06
1.76291e-10
0.0468451
8.99566e-06
1.9251e-07
1.90944e-07
4.95485e-06
7.29632e-06
9.60613e-09
0.152459
1.52052e-06
2.09538e-09
0.000125631
4.03574e-07
2.63143e-09
4.59059e-05
0.0010222
0.000885966
8.66286e-09
1.12081e-06
4.66015e-08
4.9014e-05
5.07223e-05
0.0343544
6.27591e-06
0.000931829
6.79078e-05
0.00117655
3.09375e-05
3.54051e-06
1.09393e-06
4.82154e-07
5.13781e-05
2.10281e-06
7.40109e-06
0.0440841
0.000252666
0.0482086
1.2706e-09
7.96082e-06
1.17617e-07
6.06348e-05
0.000102727
1.18355e-05
4.91161e-05
0.000540042
0.000151897
7.82076e-10
0.00720832
0.00842324
8.70281e-05
4.76516e-05
8.4773e-07
0.000882038
1.68733e-06
2.88583e-06
1.37812e-07
5.5331e-09
0.000253528
9.76317e-06
0.00100327
6.52154e-07
0.0476832
0.000672644
7.23314e-07
1.38634e-07
0.000583039
2.92091e-06
0.0557602
0.282117
0.000133006
0.000237446
1.64829e-06
5.29522e-07
2.15996e-08
1.32789e-08
6.27611e-05
5.039e-06
0.0351221
0.055181
3.19047e-05
3.19615e-08
0.000323872
0.0419188
2.76782e-05
0.0011602
0.00261418
0.0443622
0.122373
0.0516035
0.000122514
1.13284e-09
0.00204286
6.64299e-07
1.64537e-07
1.95056e-07
7.48175e-09
2.88165e-05
4.07249e-09
2.09005e-09
9.22017e-05
4.94719e-08
6.7007e-09
9.57358e-07
5.57632e-07
0.0602932
6.48015e-06
3.08824e-05
0.0778415
0.263542
5.88094e-09
0.188753
0.000166497
0.392438
3.80597e-07
1.10178e-07
6.87921e-08
4.49102e-05
0.263345
1.71935e-09
0.0011854
7.49787e-08
3.99791e-06
1.63752e-05
7.80268e-06
1.09208e-06
2.41993e-07
0.0792363
9.90565e-09
7.20226e-06
1.10109e-07
9.25494e-07
1.76334e-06
0.000460742
0.000121546
1.16578e-06
0.000391335
2.18092e-05
4.25071e-07
0.000143037
7.51989e-07
2.53083e-05
1.43177e-07
1.34296e-07
0.255717
0.044741
0.000400619
3.32998e-07
6.41511e-09
4.4954e-06
0.195452
2.54835e-07
1.16867e-05
5.60966e-07
2.95316e-06
2.31755e-09
0.0365287
0.000111786
7.6061e-07
6.18681e-07
1.77708e-05
7.8859e-09
0.181137
1.06938e-09
0.0405996
7.98293e-05
4.99169e-06
1.28516e-08
3.37442e-06
1.335e-06
1.02975e-06
3.70955e-06
5.17692e-06
2.91701e-10
4.72672e-09
9.63786e-05
0.0821781
2.34104e-09
3.44378e-05
5.21373e-06
9.86413e-05
3.92468e-07
0.0493453
2.34256e-06
5.17196e-05
5.55377e-05
6.1161e-08
5.89708e-05
1.98348e-06
1.72918e-05
2.91111e-08
2.71174e-08
1.07934e-05
6.2598e-09
0.000184984
4.02763e-05
3.03663e-08
8.05491e-08
0.000136114
0.000550263
0.307025
1.18092e-07
4.95567e-06
1.84676e-06
0.00037191
0.000171594
2.73431e-05
8.37261e-05
0.080768
3.52151e-06
5.51851e-05
0.000836048
0.0682126
7.1274e-07
5.02612e-08
0.000427511
2.93948e-06
0.0424795
1.91257e-07
6.99665e-06
3.52392e-06
1.53669e-08
0.232268
9.80218e-09
1.70174e-07
6.41316e-07
2.75242e-05
0.310864
0.0586506
4.85052e-07
2.5074e-08
1.80306e-09
1.10642e-07
1.08938e-07
6.61384e-07
1.21232e-07
6.5374e-09
6.41024e-08
1.17841e-08
1.85217e-07
0.064321
0.0381429
2.82001e-09
1.38433e-05
7.87602e-09
7.64246e-08
1.32355e-08
0.0373875
0.0824512
5.65936e-06
4.05108e-08
1.30225e-08
8.38287e-07
1.28979e-06
4.09089e-06
1.37157e-07
0.000333737
2.695e-07
3.12863e-06
3.56296e-06
0.000189104
5.35422e-06
0.000807068
1.81616e-06
3.04211e-08
0.000494795
0.000450819
1.84632e-08
2.31052e-05
4.06038e-06
1.37401e-05
4.37083e-05
1.05459e-05
3.74339e-06
1.12727e-07
0.332619
5.0368e-07
4.0424e-05
0.06435
0.000120369
1.22278e-05
1.51611e-05
1.67966e-06
2.38035e-06
2.31199e-05
6.74875e-05
5.77173e-05
3.37682e-06
4.5676e-05
7.56738e-06
3.9445e-06
2.17044e-06
5.5432e-09
6.35777e-08
4.71331e-08
6.71051e-10
1.78679e-07
3.41177e-08
7.43128e-06
1.9252e-08
3.08165e-09
1.85538e-07
1.73712e-05
4.39121e-09
9.79501e-09
8.22494e-07
1.12685e-06
1.01634e-06
8.78109e-05
6.59766e-06
0.248138
1.17906e-07
1.16079e-05
1.55894e-05
4.24866e-06
4.26226e-09
1.82346e-08
0.225341
5.62336e-07
6.10561e-09
2.35819e-06
0.226425
1.74771e-06
5.92846e-05
5.90625e-05
1.10049e-06
7.70989e-06
9.21588e-06
0.00038817
1.97077e-08
4.41478e-05
4.97134e-06
1.91192e-07
0.000330461
0.000398799
0.197332
6.78506e-06
1.37777e-06
7.64981e-06
3.86461e-05
1.62065e-05
1.96898e-07
0.00262035
1.19492e-08
0.000640515
0.000416434
0.0611145
1.00245e-05
0.259236
3.09923e-08
1.51528e-07
5.17709e-06
2.51875e-05
7.45205e-05
3.26795e-06
0.00011771
3.6074e-08
9.82665e-06
1.11353e-09
2.0313e-08
1.63183e-06
0.000493528
1.01165e-07
5.3185e-09
0.00042135
2.20166e-07
0.00055159
3.48919e-06
2.01687e-06
1.50811e-06
4.54468e-07
2.01147e-05
4.551e-06
0.000205794
6.43936e-07
8.30501e-06
0.00331535
1.2237e-06
7.22304e-09
0.000158087
2.36085e-06
4.10472e-05
5.03671e-09
0.144457
0.000117192
7.19011e-05
1.78922e-06
7.36979e-09
0.000196964
4.71591e-06
2.47341e-07
8.60431e-10
6.633e-05
7.20282e-05
8.05378e-05
0.196797
2.93331e-06
6.13248e-06
0.000247333
1.01206e-05
6.89851e-06
2.70313e-06
8.51066e-05
3.63121e-06
0.000120562
0.184219
1.5074e-05
5.45413e-10
1.70893e-06
5.31084e-05
1.50753e-05
2.69223e-07
0.000460838
0.000872764
0.000486734
0.000880045
1.74018e-05
5.29011e-05
7.1944e-06
2.04352e-05
1.16794e-07
1.08247e-08
0.102362
0.000508284
2.86921e-06
0.00166593
5.15791e-06
2.47278e-05
0.00043422
4.3579e-06
2.26172e-06
3.23203e-06
4.06258e-07
4.2304e-05
3.01564e-05
0.000153009
2.86434e-05
5.62468e-07
6.43821e-09
2.82675e-05
9.84402e-07
2.02396e-08
0.000312876
3.03546e-06
8.04968e-06
3.82401e-05
7.53286e-06
4.06089e-08
0.000601014
0.138992
4.79481e-08
5.49998e-09
2.11756e-08
0.144926
0.247401
4.29096e-07
0.053348
5.39688e-06
2.04694e-05
8.00874e-06
8.40674e-06
1.17977e-05
1.38971e-05
2.94876e-05
0.118334
0.340835
0.393163
1.20296e-05
3.19582e-05
6.6613e-06
7.42258e-06
0.36178
1.40892e-08
0.175516
4.06987e-06
1.09963e-08
7.31895e-07
5.96287e-07
2.83812e-08
3.74775e-08
2.29643e-07
1.75915e-08
0.13734
4.43721e-08
2.91882e-05
0.000197837
2.29806e-08
4.56161e-06
7.34314e-06
6.40185e-06
6.52841e-08
0.000588136
6.44225e-06
8.60059e-07
6.90246e-05
4.24949e-06
3.13109e-05
4.66867e-06
1.18477e-06
5.32484e-07
2.02307e-05
0.00336724
4.83146e-05
9.00379e-07
1.38198e-05
8.35299e-07
2.53439e-05
0.000100699
1.19315e-05
2.22588e-06
5.43157e-06
1.15402e-06
5.79188e-05
1.34943e-07
8.17326e-06
0.0412256
0.000426036
0.329205
0.000772414
0.000114857
1.64107e-08
0.0615637
1.17342e-09
4.96399e-05
1.54781e-05
8.25703e-07
8.7618e-05
1.66236e-06
9.20309e-07
4.47583e-05
7.99596e-07
2.07297e-07
1.97205e-05
6.55401e-07
2.25091e-05
0.0790158
3.56153e-07
3.79865e-05
1.39078e-06
8.04213e-07
6.08843e-10
0.000261437
9.15719e-05
3.70566e-06
1.40514e-08
7.0717e-07
0.0444035
0.000212425
9.86291e-06
1.51846e-05
1.69692e-09
8.14091e-11
9.37497e-07
4.18184e-09
4.90454e-05
3.59306e-07
2.17496e-05
1.68978e-06
1.98326e-07
6.00324e-07
3.05743e-08
4.80622e-05
9.06077e-05
4.41433e-05
5.14487e-07
2.92649e-08
9.82085e-07
2.32281e-06
0.000536757
9.91385e-07
0.162117
2.18689e-05
2.88976e-08
4.18006e-08
0.000231313
1.29069e-05
0.00114418
5.31304e-07
9.90705e-05
0.234488
4.08267e-10
0.000334098
2.70543e-05
0.0425394
1.76195e-06
0.0475082
0.0830939
0.000120093
7.65153e-06
2.01815e-05
1.12981e-08
1.59505e-05
2.71083e-05
0.00037886
1.92632e-05
6.86011e-06
2.61379e-05
0.000431705
0.000346558
0.000515703
0.000130768
1.67975e-08
8.99099e-05
0.000891467
6.28368e-06
3.99054e-06
0.000250197
0.000214556
1.38688e-05
1.87764e-05
0.000266399
1.57143e-05
0.000381178
0.000250421
1.94999e-05
2.49506e-08
3.49206e-05
0.000419425
0.0668898
2.13432e-06
5.19735e-07
4.93386e-05
1.92485e-07
8.53278e-05
8.38819e-07
0.000397644
5.8587e-07
7.042e-05
2.51633e-08
9.87445e-08
1.10671e-05
0.000920151
0.00120614
0.339112
4.17863e-05
2.04996e-06
1.90271e-07
0.000412022
2.32197e-05
0.0338383
0.0704344
3.71279e-10
0.000791067
6.46309e-05
6.7887e-06
5.67516e-09
0.00114786
5.70461e-07
0.0427575
4.9707e-08
4.87829e-09
3.01895e-05
1.14625e-06
1.32142e-06
3.7079e-05
0.0395564
2.03979e-05
2.33185e-07
8.40859e-05
0.219255
0.0432375
6.79166e-06
0.000284849
3.03768e-05
0.000579986
3.02909e-06
0.0374127
3.86121e-05
0.000186949
2.26358e-07
8.85644e-07
4.73266e-06
5.20645e-07
2.42442e-05
2.34511e-06
7.70033e-07
2.55323e-06
4.15326e-06
0.000101356
2.46213e-08
3.68394e-07
0.0805959
9.74876e-09
7.73912e-08
4.34135e-05
6.34327e-08
0.000186142
3.56074e-05
0.0658825
2.35741e-05
0.261362
1.28639e-05
2.16741e-05
0.0399259
0.000160027
2.47503e-10
2.0215e-06
0.0279874
1.57597e-05
7.91695e-05
1.69414e-05
1.65159e-07
7.0472e-06
7.47257e-06
8.52284e-07
0.127581
1.09587e-06
1.02859e-07
1.77539e-06
6.68276e-07
1.52361e-08
8.69692e-05
2.45874e-06
0.274348
8.1578e-05
3.52726e-05
4.63268e-05
5.8618e-05
1.67591e-05
2.96791e-06
1.30961e-10
8.99024e-07
7.40882e-05
2.15302e-05
6.55649e-06
6.92388e-08
1.13367e-05
1.25229e-06
4.06176e-05
3.21884e-08
1.37524e-07
1.2318e-06
2.8639e-05
2.19741e-05
3.31246e-05
2.90253e-08
2.25882e-08
0.00166301
2.22793e-08
1.49219e-09
2.77094e-09
1.46527e-06
0.308914
9.39487e-07
0.00011591
6.9091e-05
2.10634e-05
1.64125e-07
1.25324e-06
0.000226332
7.38068e-06
3.31032e-07
3.762e-05
3.99215e-09
2.86039e-09
4.09485e-09
9.94178e-05
1.12713e-07
0.329023
0.000527047
3.54312e-05
0.00184055
6.83167e-07
1.71416e-05
2.54249e-09
0.0592878
8.27661e-06
6.19821e-06
1.55219e-06
4.11734e-07
1.61754e-07
0.48138
1.68828e-05
0.000437627
6.59865e-05
1.3774e-06
0.122474
3.16862e-07
3.20391e-07
4.99573e-07
7.2491e-07
3.526e-05
5.01085e-07
2.44752e-05
1.81729e-05
0.000502871
3.61487e-06
4.97846e-10
0.000189991
3.76702e-07
0.156825
3.46066e-06
2.40858e-07
1.24999e-06
1.89805e-05
0.0606511
0.0297543
1.84271e-05
4.86192e-05
0.0905673
3.56316e-06
2.56228e-05
0.047342
1.25547e-05
5.93152e-06
0.173217
0.0186454
1.03986e-05
3.33469e-05
1.53714e-08
3.8612e-05
0.0017284
1.03536e-05
1.14138e-05
0.000380484
1.30918e-09
0.0231267
1.03794e-08
2.88133e-05
0.194428
1.2248e-07
1.22215e-05
4.57601e-06
3.74413e-07
4.07456e-08
4.81948e-05
4.1769e-07
1.16998e-07
3.16542e-05
9.73181e-06
1.38777e-08
0.0232812
0.0440761
5.09272e-06
2.98163e-10
1.91003e-09
0.0001438
1.41471e-05
5.40838e-06
3.36982e-09
9.792e-08
0.000132918
6.96618e-05
4.75925e-05
8.34752e-05
0.363432
1.48228e-09
0.140812
1.76419e-05
6.76578e-06
0.0562216
1.08587e-06
2.10816e-08
0.0228091
7.37248e-10
6.83043e-06
6.45302e-06
7.20289e-06
1.10192e-06
9.26898e-09
3.94813e-09
1.62762e-08
2.03926e-05
0.134018
0.212337
3.14763e-05
2.54933e-06
1.7272e-10
0.0557514
0.225505
0.000279803
1.03196e-06
1.52429e-07
0.000968188
0.000246994
2.36677e-07
1.32335e-08
2.19052e-06
8.0012e-06
3.70622e-08
1.10698e-05
6.97841e-05
0.0599559
0.20438
5.61729e-05
0.000844971
9.98509e-09
3.74712e-07
3.2873e-05
0.000180609
3.37445e-05
0.000425776
8.24722e-06
1.51245e-05
6.927e-09
8.6388e-08
1.26574e-05
0.0582499
1.14808e-06
0.177788
1.99092e-08
1.21338e-05
2.3687e-06
1.66221e-05
1.05644e-08
1.2814e-09
1.10408e-07
3.55533e-08
1.2202e-06
0.000327819
1.01916e-08
0.0373135
1.78715e-05
0.159244
1.9504e-06
3.01778e-06
1.65263e-06
1.97666e-06
1.33173e-05
3.0306e-08
2.37644e-08
1.33449e-08
3.34292e-06
9.58146e-06
0.0582234
0.0563608
5.23032e-06
1.01206e-06
5.98197e-09
2.41272e-09
2.51968e-08
1.7268e-06
0.000250152
2.01868e-07
3.67562e-08
3.57209e-09
0.0219345
2.67989e-05
4.46625e-05
0.04037
8.67057e-07
0.310786
9.88599e-06
4.39575e-07
4.26341e-10
2.5929e-07
0.0534516
9.38281e-10
2.34574e-05
2.24553e-08
0.000704328
4.50111e-05
8.47057e-05
0.000145748
2.93761e-05
3.85648e-09
1.57909e-08
0.359133
3.30623e-05
3.51176e-05
0.000234782
4.22108e-07
8.60887e-05
9.60831e-05
3.00225e-06
3.29901e-06
0.000305272
8.16457e-08
0.000718398
0.0391486
1.42619e-06
2.07051e-07
8.3271e-05
9.06449e-07
0.0340729
0.182087
2.17887e-05
8.99619e-10
0.00411038
3.43042e-07
2.21684e-05
1.55171e-06
0.000125206
1.12256e-08
0.000879053
8.75222e-05
0.000132123
2.15311e-05
0.00012343
3.06521e-05
5.46263e-06
8.13824e-10
0.00015533
4.75897e-05
5.82331e-05
6.64327e-07
9.65843e-06
0.0001217
0.000454218
9.44393e-09
1.85272e-08
3.48486e-08
3.50756e-10
1.27364e-07
0.021618
0.00040521
0.000144275
4.06228e-05
0.000206273
8.31357e-05
2.78747e-10
1.1634e-05
6.91831e-09
5.38987e-07
7.82967e-09
2.64052e-05
0.00204012
1.54711e-05
1.11534e-07
1.33339e-08
1.50325e-06
1.22401e-07
6.95124e-09
0.146455
9.23299e-06
0.000674352
0.00103097
0.000729283
9.00498e-09
0.000678474
0.000759751
0.00134898
0.000726075
3.56177e-09
4.0902e-10
3.45089e-06
8.68221e-06
6.82965e-05
0.000322971
0.0424697
8.3036e-06
3.29495e-05
4.47974e-06
0.000557904
3.40529e-08
1.23375e-09
0.000114726
0.000371792
0.0260921
6.25185e-09
0.117904
0.000126954
3.3858e-07
9.4283e-05
4.96474e-06
8.97719e-05
2.28633e-06
9.86065e-05
6.73834e-09
9.61025e-06
0.00216853
3.66711e-05
5.82731e-08
0.00175708
4.48584e-05
1.06637e-05
0.00322228
8.75337e-08
7.70614e-06
5.71421e-05
0.000103341
8.54327e-07
0.193181
5.66493e-08
8.78101e-07
2.71509e-08
0.11803
0.120978
2.06841e-06
1.82283e-06
0.000155302
0.0550643
3.33125e-08
1.1006e-05
2.15439e-05
1.34397e-05
1.2802e-06
0.195368
7.19433e-06
1.71975e-05
0.00364416
1.60644e-07
7.21619e-06
1.73164e-06
2.55843e-06
1.78318e-09
0.00240529
0.00397996
1.08046e-07
7.68087e-07
1.27296e-06
0.000102019
7.68546e-09
0.0398003
2.89938e-07
1.00027e-05
1.09935e-06
5.30643e-07
4.995e-06
3.38092e-05
1.30222e-06
5.05672e-06
0.00024755
1.59593e-06
1.34839e-06
0.0430007
7.73389e-07
3.38006e-06
2.47593e-06
1.99441e-05
1.90807e-10
5.06548e-09
7.8457e-10
6.01564e-06
5.64476e-08
0.0676707
2.22204e-05
1.2141e-05
3.88813e-09
3.27808e-05
0.117535
7.90416e-05
1.38654e-05
6.19398e-05
1.26078e-05
2.00337e-07
7.90147e-08
2.43719e-05
4.39757e-06
2.70775e-06
0.000545787
9.74058e-06
4.66957e-08
2.97086e-08
2.32742e-06
7.84419e-08
7.01811e-06
4.12593e-08
1.20823e-05
1.63021e-05
1.92283e-07
7.68473e-10
0.0457039
7.13669e-09
2.45708e-09
2.51853e-05
0.0564546
2.06933e-05
2.24745e-06
1.39085e-08
1.00783e-05
5.36111e-06
2.23206e-05
6.0221e-06
7.43061e-09
1.79763e-06
1.58374e-06
5.55636e-06
4.05458e-09
4.98085e-09
4.39363e-09
5.26872e-06
1.70719e-05
9.68236e-07
1.59164e-08
7.57772e-06
5.21891e-05
1.92313e-08
2.49259e-05
4.62688e-07
5.2472e-08
4.45022e-09
3.92853e-05
2.39967e-07
2.0938e-05
1.50755e-09
2.56119e-05
1.02908e-08
1.56809e-06
0.000350854
1.35425e-07
5.50794e-09
0.0688193
2.98101e-08
0.0565855
2.4682e-07
4.66094e-08
9.64021e-06
2.58388e-05
0.0469948
5.92782e-05
0.0499348
0.0606603
9.06735e-05
1.14216e-05
0.0403737
1.08597e-05
1.66791e-08
4.28414e-05
0.141123
0.0370128
0.0422125
1.19085e-08
1.03598e-05
1.49298e-08
5.53725e-06
9.90197e-07
7.92064e-06
0.000171637
7.07508e-06
5.30271e-07
1.64709e-08
3.76898e-06
0.000294941
2.40101e-08
1.21115e-05
3.83864e-05
1.97724e-06
9.91214e-10
6.37253e-05
2.63088e-05
2.6091e-05
1.79284e-05
1.66615e-05
2.33561e-06
7.64319e-06
0.000153846
8.67955e-06
6.7297e-06
0.000126038
0.000457956
4.11537e-09
6.34451e-07
2.78813e-08
1.98928e-05
9.06235e-08
2.31317e-06
1.03319e-10
0.000397259
0.391854
0.0890202
0.000149891
4.96916e-09
1.14344e-05
0.0552931
0.102923
2.45606e-06
0.000271625
2.09632e-06
5.57899e-07
1.21432e-07
2.94074e-09
9.49794e-06
4.48916e-05
3.85997e-08
4.36253e-09
1.78067e-05
1.65731e-07
0.176312
0.0539208
1.172e-05
5.25725e-09
1.15692e-08
0.0420834
5.03047e-09
2.57317e-05
9.67038e-09
0.000614459
2.19254e-08
4.91663e-06
5.14782e-08
6.09806e-09
0.00108253
0.154923
0.0646445
1.45223e-08
0.0689888
4.24644e-08
1.37008e-05
1.64487e-06
0.118026
2.39959e-07
0.000162742
3.88104e-09
1.96983e-06
0.000278377
1.71905e-06
0.000165058
9.89307e-09
1.16721e-05
3.29626e-05
2.0735e-05
5.42238e-06
3.66546e-07
3.32642e-07
3.38581e-06
6.10571e-07
1.00173e-08
3.52709e-09
0.0753421
0.0371705
1.41349e-08
0.0844741
3.28503e-10
2.12939e-08
5.27573e-05
4.66513e-09
4.84101e-09
0.040207
1.82408e-08
7.68804e-10
0.000649597
1.96512e-09
1.3096e-09
5.06838e-05
0.0929733
1.35707e-07
0.0371382
8.45728e-09
4.67253e-06
0.0503576
6.28045e-06
0.000863653
5.8066e-10
7.27999e-08
1.04565e-06
1.78434e-07
0.209754
0.0456282
0.00010943
3.26321e-08
0.0462982
1.04349e-09
2.06936e-08
1.79267e-09
0.102846
0.00176995
9.23998e-06
1.26286e-09
1.30828e-06
0.0481538
0.000912363
3.64624e-07
0.00025306
0.109033
0.0862338
3.56542e-05
0.0853356
0.000924771
0.0426845
4.20819e-05
0.0658111
0.000345211
4.8507e-06
1.478e-06
2.32539e-06
0.000458339
0.000931264
6.92449e-10
3.90728e-06
7.08725e-08
4.64745e-05
7.51884e-06
9.99404e-07
8.08095e-06
0.00029818
1.74598e-07
8.06567e-06
9.11288e-08
2.70022e-08
2.7384e-08
4.55483e-08
5.05765e-06
4.43877e-08
4.8675e-08
7.45357e-08
1.05991e-05
4.32826e-05
1.65771e-10
1.80952e-09
5.50721e-08
1.00289e-07
1.07789e-06
0.00129747
0.00209722
0.000130811
9.38843e-09
3.22786e-05
5.78436e-06
0.0463654
3.20384e-05
1.29337e-05
5.66874e-07
1.10723e-06
2.47609e-06
0.000222923
0.000117005
0.179466
0.0671938
8.23739e-08
0.000827994
0.000296425
1.44951e-08
2.68245e-06
4.61291e-06
3.75352e-08
1.73131e-06
3.94397e-06
0.0621733
9.14331e-10
8.35361e-05
1.31458e-08
0.0487848
5.12749e-05
0.0355144
3.33231e-05
4.94312e-09
6.68824e-09
2.31778e-08
2.50139e-05
2.44254e-05
4.20672e-06
7.26006e-06
9.66065e-07
0.000764257
0.000290254
7.86742e-10
0.000117074
4.84402e-05
5.29633e-05
9.53819e-05
0.00296316
4.05251e-06
0.0991508
4.69576e-08
5.88515e-06
0.0383693
1.38929e-08
0.000261178
0.0071292
4.01515e-08
0.000103
1.40464e-08
1.86022e-07
2.57858e-06
4.03546e-06
5.33072e-08
8.59855e-09
7.00086e-07
2.55792e-09
6.08888e-09
0.000126758
2.45447e-08
5.83942e-10
2.93857e-05
7.67475e-09
9.7523e-08
2.70149e-07
0.000215403
2.1962e-07
0.000169257
1.05456e-07
4.67967e-08
2.2624e-05
6.60313e-05
0.000231892
0.0432132
8.07688e-05
4.29492e-05
2.30049e-06
0.319959
0.311131
1.25395e-07
2.9111e-05
1.77924e-08
0.0458756
0.0380374
0.000405707
0.0904225
0.0685153
7.1648e-06
1.10258e-09
0.00011609
1.1298e-08
1.22009e-09
3.97688e-07
1.58311e-05
7.4037e-09
1.73666e-05
3.35478e-05