/*--------------------------------*- C++ -*----------------------------------*\
  =========                 |
  \\      /  F ield         | OpenFOAM: The Open Source CFD Toolbox
   \\    /   O peration     | Website:  https://openfoam.org
    \\  /    A nd           | Version:  10
     \\/     M anipulation  |
\*---------------------------------------------------------------------------*/
FoamFile
{
    format      ascii;
    class       volScalarField;
    location    "23.5";
    object      SgT;
}
// * * * * * * * * * * * * * * * * * * * * * * * * * * * * * * * * * * * * * //

dimensions      [1 -1 -3 -1 0 0 0];

internalField   nonuniform List<scalar> 
111485
(
6.75233e-15
0.00771455
0.0243073
4.80453e-16
0.0490128
1.08011e-15
0.0464599
0.00616691
0.019054
0.00124874
0.046833
0.00947637
0.00481987
0.000794416
0.00649898
0.0302202
0.00143611
2.62351
0.0103381
4.00138e-15
5.30938e-16
1.08145e-16
0.0269415
0.0345264
0.00873502
2.15229e-15
0.0393384
0.00178201
0.0152864
6.99671e-16
0.0446343
0.0196023
1.07823e-15
2.44203e-16
0.00632249
4.21891e-14
0.0106443
0.00421474
3.79736e-08
0.0242218
1.72252e-15
0.0708396
0.0158461
0.00156544
6.38639e-05
8.23275e-14
0.0294378
0.000711271
0.0474425
1.6165e-15
2.15941e-15
9.25462e-15
5.09682e-16
0.0514435
1.6017e-15
0.0437797
0.00303293
4.24378e-15
2.00532e-05
0.00479864
0.0160548
1.04631e-15
0.00480694
0.0982783
2.44245e-16
0.00310902
0.315758
0.0944
0.00111362
0.00617714
1.92683e-05
0.0066676
1.23826e-14
0.00291252
1.5448e-14
0.000718126
1.36281e-15
0.0411321
2.9328e-15
1.57661e-14
1.1057e-06
0.0338925
2.32095e-15
2.29637e-14
0.00938953
0.00380647
3.34354e-10
0.0254115
6.04247e-05
0.00744123
0.000257561
0.0402821
0.0119584
5.80025e-05
0.0521376
2.6707e-15
1.75279e-16
0.00182025
3.11706e-08
0.00112211
1.78441e-16
0.0176677
1.06686e-16
0.0179941
0.00457908
3.53405e-15
1.9976e-16
0.00759014
0.00419898
5.47305e-08
0.00555763
0.00475113
0.00380456
0.00327087
7.84923e-16
3.41562e-05
1.13793e-16
3.16074e-14
0.0128749
4.01796e-16
4.37537e-16
1.18687e-14
4.30173e-16
2.2515e-15
0.00152441
3.03328e-06
1.86047e-15
0.00172155
9.25998e-16
2.31865e-05
0.00152339
0.0328594
3.6239e-15
3.80067e-14
2.05479e-15
0.0482743
2.49894e-16
0.0425298
0.0254151
0.00271242
0.000252143
0.00200073
0.0225227
0.00261448
0.00406982
0.0130593
1.71236e-16
8.39962e-15
3.47434e-15
0.0281375
0.00152739
9.92393e-16
2.38158e-07
0.00468249
4.22945e-07
0.0109314
0.0161448
0.010851
5.92472e-08
3.25687e-15
1.07336e-15
0.0523354
0.0224885
1.65065e-06
3.03816e-07
0.00584845
0.00339144
8.49005e-15
3.99517e-06
4.27942e-05
3.41436e-15
3.13594e-15
0.000122247
2.80016e-17
0.00548591
0.0020644
1.05426e-15
2.35672e-15
1.64896e-14
1.38581e-14
1.51442e-15
9.3603e-16
0.00151672
0.00677691
0.0299218
0.00412616
0.00770255
0.00403426
7.73861e-05
1.03809e-15
0.0048559
1.59089e-15
2.9383e-15
0.00654903
0.0103653
0.0287541
0.0114864
0.00502403
2.00784e-14
0.00679597
0.00049818
4.10009e-05
0.014448
0.00233751
2.99393e-14
0.00385337
0.0249622
5.51259e-15
0.000158229
0.00792721
0.00199532
0.000370704
4.11884e-15
1.90498e-15
0.00833652
1.03653e-11
0.119449
6.86773e-16
0.00669205
0.0205993
0.11908
1.94887e-14
0.0032961
0.0137773
2.4029e-13
2.16377e-15
9.99043e-16
0.150187
2.34181e-07
1.24888e-15
2.24052e-15
0.00943707
0.00783468
0.0149469
3.09491e-16
4.78524e-14
1.32119e-05
2.24005e-14
0.00236429
0.00957465
0.0166572
0.0116245
0.00965613
5.32536e-16
2.42103e-07
0.00062842
8.94239e-15
1.83643e-15
0.030982
0.020574
6.31585e-16
0.00656511
0.01078
8.53048e-17
1.87011e-14
0.000112623
2.50936e-16
4.50371e-14
4.42608e-05
2.31288e-15
0.0147658
0.0106152
0.00368813
8.21485e-14
0.0117903
1.50437e-15
2.26027e-16
1.19431e-14
1.76125e-08
0.0230389
0.00616268
0.00551115
0.0362398
0.01238
0.001558
0.000564399
0.0322219
0.0087176
9.89388e-17
7.16587e-15
2.33885e-07
0.0226949
0.0245378
0.0117872
3.79097e-16
0.0069947
0.00202883
0.00303455
1.99988e-06
3.54833e-06
0.0138674
0.00218183
0.00197905
6.96336e-15
0.000644007
5.33423e-16
2.11748e-07
2.89206e-13
0.234225
0.0678607
0.0117946
3.7862e-15
1.1161e-15
0.00896909
0.00172119
1.84421e-15
6.94343e-15
8.74012e-15
0.000295965
0.0569359
0.0040186
0.0132627
0.0192331
3.4065e-15
1.43819e-15
6.82805e-15
0.00376974
2.04163e-12
0.000870406
0.184171
2.86181e-07
1.09456e-16
2.64079e-16
1.36869e-15
8.05262e-15
0.0601462
0.0118151
1.77289e-15
0.00529046
6.83465e-15
1.42822e-14
0.0670821
0.0059877
0.0114504
0.0093301
1.50432e-14
2.46259e-15
7.39155e-15
0.00950622
0.0187527
0.004878
1.01424e-15
3.20629e-10
0.00015501
0.00230359
0.00804696
3.24825e-05
0.0284784
4.92965e-16
0.0375089
0.00357807
0.0077306
0.0257645
0.0131532
1.40918e-16
4.21366e-15
5.9248e-16
4.27973e-16
0.0311142
0.00979384
0.0326067
0.0673436
9.20187e-16
0.0182874
2.27973e-15
2.971e-15
0.0167306
1.06259e-14
0.0811958
5.75747e-14
1.79327e-15
0.0228173
5.87475e-16
0.0135158
0.000284025
1.17312e-15
0.00097249
0.0166374
6.0332e-15
0.0089381
0.00898872
0.00818305
0.000704342
0.00266647
0.00546717
1.30799e-14
7.98783e-15
0.00200761
8.24927e-15
0.00631488
0.117932
1.39769e-15
3.17409e-15
0.0276832
0.000109565
0.00829267
0.0204497
4.90739e-17
0.0477902
0.0188798
3.24722e-16
0.000842406
0.00235781
2.52795e-15
2.28781e-16
0.0109287
0.00519058
1.85648e-14
1.72187e-15
4.01502e-08
5.99825e-16
0.0124962
5.04296e-16
4.48213e-16
0.0167097
1.55526e-06
0.0122706
0.0299301
4.15992e-17
2.01762e-14
0.00153494
8.30047e-16
0.000164822
0.0145748
0.121767
0.829751
5.21888e-15
0.00276191
0.000553035
1.9334e-15
0.0389685
0.0308736
8.5568e-14
6.99515e-09
8.63051e-05
1.13606e-14
0.0237195
0.0239473
0.0138756
2.02657e-16
0.000661449
0.0167105
0.0227888
8.23561e-07
5.64566e-15
6.82845e-10
7.0659e-15
1.13806e-05
0.0312063
2.02964e-15
0.00817038
0.000101965
5.63598e-14
5.17328e-15
4.29156e-15
1.06456e-15
0.00372033
0.00958063
0.0062986
0.00203286
0.00257512
6.28489e-15
0.00194453
8.19258e-16
0.0411786
1.69537e-16
6.46476e-16
6.55694e-16
0.0374836
5.89156e-15
2.5807e-15
1.43946e-07
4.19524e-17
6.80977e-15
0.00106829
3.78894e-15
1.21498e-14
3.74987e-15
1.19022e-15
1.89257e-15
8.33086e-15
1.35887e-15
0.00680064
1.6104e-14
0.000539577
0.00197978
0.000826796
2.38185e-16
0.000904158
3.11171e-15
5.56733e-17
0.00273133
0.00175609
0.0267546
0.0250865
5.96065e-15
0.00203802
0.0822531
0.00852076
0.00101044
0.00319635
7.54394e-15
0.0232387
9.18155e-15
0.0050289
3.5961e-15
0.0763274
3.41681e-15
0.0211958
0.000246472
5.0021e-07
1.62179e-15
0.00203026
3.21524e-15
0.0799782
0.0489035
1.83832e-14
6.18826e-15
1.20021e-14
1.46509e-15
1.33762e-09
0.054659
4.71804e-16
2.51673e-15
0.00241235
2.2155e-16
0.0339598
3.97255e-16
0.000311712
4.17073e-15
0.00046684
1.18582e-06
0.000980934
0.0127706
7.0974e-15
0.000417263
1.62246e-15
6.57655e-16
0.0147327
5.40013e-16
2.85451e-05
2.56956e-15
0.00163934
4.77278e-15
0.0644828
4.90726e-15
7.36602e-15
0.0176961
0.00320073
0.00173965
0.00384918
0.00687164
0.0206759
1.421e-15
0.0254198
0.00594365
1.0884e-16
7.47893e-08
0.04126
0.0154476
5.72957e-15
0.00361528
0.00691323
0.00180253
0.000975531
1.96001e-10
0.0136872
0.00123323
0.000119489
0.0228677
0.0137425
0.0005713
3.41292e-15
2.98454e-09
0.650018
1.1055e-15
0.000344607
2.46976e-15
2.13501e-14
0.00731043
0.00264018
2.34782e-07
1.78811e-05
6.93284e-15
0.0159297
0.0110466
2.10807e-15
2.02327e-10
0.00130116
3.60402e-15
9.39096e-16
2.87173e-16
5.071e-15
0.01264
6.49381e-16
4.38717e-14
0.00846381
0.00191261
1.76049e-14
0.0105454
3.1822e-15
0.00846225
7.32205e-15
8.92173e-15
0.0517205
1.73626e-15
7.95894e-17
5.75136e-15
0.00419878
3.85982e-15
0.0280495
0.00624933
2.07237e-16
0.0902235
0.00232484
0.0286995
0.0281779
0.000418844
7.33969e-05
7.51817e-16
0.0538582
0.0466605
3.19279e-15
0.000320219
0.0405069
0.00805933
0.0013844
0.0275368
0.0260551
6.23018e-14
0.0109421
6.78158e-06
8.186e-15
0.0348382
0.000248984
2.08936e-14
0.0108606
0.0407373
0.00130963
0.0215392
0.0196661
0.00720469
7.3955e-15
0.010437
0.000300705
4.03406e-12
0.0171501
0.0179757
0.0357388
2.16776e-15
0.0018427
8.44206e-15
5.45855e-16
5.41525e-15
1.14224e-14
1.31787e-05
2.58799e-15
3.29548e-10
1.74708e-15
1.39503e-15
8.18815e-05
0.0427453
4.69318e-15
0.0304333
3.71787e-15
2.06925e-14
1.93212e-15
0.038548
0.000391696
2.09792e-14
1.33272e-13
2.19102e-15
1.68614e-15
0.205679
0.0697653
2.83144e-15
0.00200337
1.80639e-06
6.39272e-16
0.0373893
0.00857912
0.0114718
9.46465e-17
2.57625e-15
0.000413372
0.00107192
1.33829e-14
4.15249e-15
9.18835e-15
0.00722493
7.01684e-16
8.29823e-16
2.6938e-15
0.0421324
0.00213611
1.46912e-16
3.8423
0.369442
0.00968593
5.83861e-15
3.29994e-15
0.0550733
0.000430098
5.60371e-15
4.79443e-06
0.109016
0.00237442
0.0112101
5.71093e-16
0.0520364
0.00191506
4.16517e-15
3.64597e-15
2.80626e-16
1.39091e-15
2.20288e-15
4.1718e-16
0.0223999
1.09e-15
1.24056e-15
8.61347e-16
0.0113159
0.0235608
1.13393e-15
4.00977e-15
0.105565
0.0143252
0.00987682
1.09025e-15
2.69568e-15
0.0371837
2.13278e-15
0.00169089
0.00263346
0.00396613
5.43915e-15
1.71771e-15
2.38635e-16
1.62005e-15
0.0145939
2.68933e-16
3.22835e-15
0.00106178
7.26865e-16
0.0232664
0.00192387
9.87258e-16
0.0368595
0.339778
0.00253406
0.0289776
0.000139384
0.0434436
8.03072e-11
2.58888e-14
0.0236762
0.067618
0.00599143
8.56877e-16
4.58755e-10
0.785433
0.0100319
1.11619e-15
0.00241115
0.00241
0.00112717
3.2302e-14
1.27422e-15
5.88639e-14
0.0134732
8.44399e-15
0.00272779
1.55828e-15
0.00119091
0.00142754
0.0367329
0.000567846
3.1234e-15
1.28254e-15
2.5803e-15
0.0204952
8.06153e-16
6.09871e-16
7.50894e-05
4.08813e-15
1.65409e-15
1.95501e-16
7.6812e-17
0.0101282
1.0076e-14
1.34886e-15
4.13879e-10
7.88869e-15
1.79786e-14
1.90045e-14
1.30828e-15
2.91453e-06
0.00161812
6.44901e-16
0.00405553
6.15336e-06
2.87508e-07
5.74935e-05
0.00395245
1.15035e-15
9.34624e-06
0.0100602
0.000397013
2.95358e-15
4.85802e-09
0.000854949
2.8445e-15
0.00994923
0.000186943
1.60238e-06
0.0229413
0.00945531
0.00224148
0.00484437
0.00197762
7.5219e-15
3.69018e-15
0.0329692
0.0265003
8.40978e-15
0.00840929
0.0540009
0.0284175
5.46706e-15
0.00124725
3.8295e-15
0.0101842
0.0139628
6.42448e-15
0.00158428
0.00044681
1.17816e-06
0.0049534
1.1707e-15
0.0486612
1.47282e-05
0.00140932
2.92418e-05
1.20191e-05
6.55195e-16
1.88556e-15
0.00683397
6.78912e-16
0.000124351
0.000242007
0.000301644
5.9617e-08
7.01144e-08
1.86288e-07
5.83128e-17
1.08733e-14
0.0226345
4.53998e-14
0.000189092
0.00196225
8.48227e-16
8.64361e-16
6.60614e-07
9.31135e-10
6.27551e-16
5.19962e-06
2.65923e-15
4.45712e-15
1.43774e-14
3.64039e-15
8.16719e-15
1.05965e-14
0.000269685
1.47409e-16
1.96284e-14
2.01653e-14
6.52106e-06
4.8216e-05
0.00168742
0.00919367
2.61002e-15
1.02733e-16
0.00015569
7.63471e-16
4.5487e-16
3.4547e-14
0.0184162
0.0420604
1.18684e-15
2.46255e-15
1.84829e-15
3.02611e-15
6.58773e-16
1.81336e-16
0.00663884
1.72873e-15
5.39804e-08
0.026326
2.09231e-15
7.14036e-16
5.74567e-15
2.92368e-05
8.94963e-15
9.23125e-16
4.14595e-15
9.75879e-06
2.10229e-15
0.00414337
8.85161e-07
6.25289e-09
7.11485e-16
7.70569e-05
0.00187241
0.0439601
5.78791e-16
8.48924e-06
0.0053494
1.99877e-15
3.58292e-16
8.3662e-15
3.47966e-16
0.00820223
0.00163295
0.00315465
1.81599e-07
3.31756e-16
0.022929
2.57684e-15
1.06029e-14
9.65703e-15
2.92756e-15
0.0264654
2.88617e-16
1.51924e-14
1.54281e-06
0.0520975
1.80288e-15
0.00231819
3.93851e-15
0.000766774
4.41867e-14
2.37185e-15
1.9669e-14
2.93259e-15
0.00246804
0.000580076
0.301784
6.76848e-16
5.75822e-16
0.00207292
1.05571e-15
3.53486e-15
7.63408e-15
0.0359207
9.92654e-06
0.0319152
1.28319e-14
1.12733e-05
5.15527e-05
4.40779e-15
0.000133887
4.65654e-15
0.0011813
0.0244981
0.0202613
0.00112972
0.000220925
1.04504e-15
2.25877e-16
1.54355e-16
2.28902e-05
2.22433e-15
0.00763054
1.59172e-14
0.173754
5.419e-16
0.0409729
0.00293495
1.31281e-14
1.86e-16
9.5608e-15
5.74755e-15
0.0419258
9.8715e-15
4.82436e-14
0.0116689
0.00686362
6.83891e-15
9.47936e-15
1.96858e-14
1.82661e-14
5.35827e-15
7.05752e-17
0.025975
0.000392319
1.55222e-15
8.86245e-16
5.61119e-07
4.03453e-15
0.0015412
0.000102121
1.03015e-16
0.00354958
4.55741e-16
0.000387532
1.36919e-16
0.00111215
1.19656e-15
6.61874e-08
2.16888e-06
0.000606336
0.0184316
0.0345573
1.15074e-06
6.54389e-16
0.000570807
1.17142e-15
0.00466215
7.15003e-16
4.22685e-15
9.70951e-15
1.96707e-15
5.84301e-16
6.78347e-15
0.0073091
0.00825211
3.97465e-16
2.09396e-14
5.39729e-16
0.000804739
1.2252e-05
7.84764e-15
0.0180005
0.000167636
1.02703e-15
0.023494
0.00811825
0.00372794
0.0109797
2.56999e-18
1.33024e-15
1.98275e-15
7.33369e-16
0.0369856
1.65418e-14
0.114832
6.55739e-17
0.000325283
0.000727331
5.64977e-16
0.000990931
1.80821e-15
4.82234e-16
0.00311033
2.2035e-08
0.00969881
1.64599e-15
6.13016e-15
2.57088e-15
0.000844543
5.09859e-15
2.27864e-14
1.03368e-15
2.68613e-07
2.25824e-15
6.26552e-06
1.8535e-14
6.72601e-15
6.57828e-15
0.0183386
0.00980743
0.0182631
0.0359088
3.22274e-14
1.63892e-05
2.17079e-15
1.74124e-15
0.00955558
4.83276e-16
2.08024e-06
0.00036332
0.00673943
0.000380774
1.06642e-09
0.00185311
3.35854e-15
1.38105e-09
3.0063e-10
0.000130098
0.00075736
0.0152916
6.67004e-08
8.45872e-15
0.029984
1.88881e-15
3.553e-16
1.19555e-05
0.0749345
5.10736e-08
1.12381e-15
1.43254e-15
3.00678e-07
9.63588e-15
1.81449e-14
1.87123e-05
1.85586e-15
2.05815e-14
0.0398759
0.000239513
0.000188817
0.0223968
0.00722258
7.89847e-16
6.68339e-17
2.62656e-05
0.00404043
1.22616e-15
3.45719e-15
0.00957603
2.64573e-15
1.28946e-14
2.88298e-15
5.18683e-15
1.24308e-13
2.5672
7.53015e-16
0.000219384
5.53173e-16
0.021783
6.92372e-16
7.25116e-13
3.55175e-15
6.14768e-15
1.57985e-14
9.70489e-16
0.00279155
2.35456e-16
7.91541e-17
6.80467e-15
2.97076e-15
8.41796e-15
7.50894e-16
0.00971351
5.42551e-16
0.0109201
0.00316792
5.70251e-16
0.00151964
2.21573e-16
0.000516314
2.08954e-06
0.00382318
0.0128766
9.66268e-16
9.28729e-05
0.00753254
1.04621e-05
1.20186e-15
3.22509e-06
0.0192281
0.00464699
4.57604e-15
0.0256976
1.23356e-15
3.49622e-15
2.46046e-15
4.65356e-17
0.0080538
6.85304e-15
1.99797e-16
0.00829269
4.10534e-07
0.00262742
2.65378e-15
9.28432e-14
0.000648741
5.66587e-16
5.98093e-05
1.12377e-15
0.0234849
1.35175e-15
2.24638e-16
5.32127e-05
3.09587e-16
0.000140108
8.11611e-16
1.71924e-15
0.00466424
0.000447812
0.00467738
0.0150994
0.217845
0.0202852
1.98432e-15
2.47746e-14
0.00303262
0.00670831
0.036895
0.0102492
6.29208e-16
0.0125225
2.20595e-16
4.63262e-17
0.00927707
0.0111816
1.53243e-16
0.0133198
1.16006e-14
0.00272652
0.0089705
2.11802e-16
2.16091e-17
1.00896e-15
0.00287102
3.22293e-15
3.89363e-15
0.00423853
0.0216184
3.58536e-06
0.00733435
2.06053e-15
5.90998e-16
8.95946e-05
0.000792698
4.9626e-16
0.0102454
4.23522e-15
0.00255037
7.89666e-16
9.00246e-16
0.0122757
5.85605e-17
3.57359e-05
0.00368081
4.14153e-15
1.29587e-15
0.00445875
5.4941e-11
0.0518218
1.21221e-15
0.24884
7.43041e-15
1.63328e-14
9.61566e-15
0.00754578
2.85255e-15
5.00899e-15
0.00559465
2.76591e-15
0.000256485
2.71175e-14
4.73276e-15
1.27246e-15
9.57422e-08
0.000785161
1.6801e-15
2.73234e-16
0.0346634
0.000945903
9.66374e-16
0.000405089
5.71534e-15
3.99785e-15
1.74343e-06
0.00287202
0.00131076
1.25994e-15
3.81579e-16
3.74793e-15
3.0408e-16
7.27449e-15
1.46541e-15
1.36181e-16
4.45472e-16
1.95907e-16
3.8787e-15
3.33201e-15
8.59163e-16
1.47471e-15
3.80471e-16
1.91226e-16
2.38363e-16
5.80387e-15
2.30884e-15
6.49444e-16
9.17159e-16
2.84019e-15
0.0169489
2.2031e-15
4.31487e-15
1.24767e-14
0.00664249
1.61568e-14
1.4704e-15
0.298693
2.12332e-16
6.22657e-16
0.0228685
5.99693e-12
1.69614e-15
0.00805059
0.0244351
7.81128e-16
0.00292501
0.00433312
2.0163e-15
0.0134969
0.0391605
0.0177543
0.00336997
0.0106265
1.88519e-15
7.10329e-17
0.00300642
0.0104808
0.00322173
1.82177e-15
0.00680247
0.001795
0.0214164
0.00994513
0.000697962
0.0155762
0.00100844
0.0103017
6.77043e-14
0.0240405
0.00841343
0.0016222
0.00143039
1.1456e-15
5.03397e-15
1.95663e-15
3.45843e-18
2.01728e-15
0.00910833
0.0134644
1.62395e-15
1.27984e-16
5.61799e-14
1.27128e-16
4.87833e-16
2.42824e-15
3.99519e-16
1.6917e-16
0.00467265
0.000210766
0.0216657
7.29187e-05
2.78008e-16
1.42578e-14
0.0298548
7.56102e-06
8.41311e-17
1.49654e-16
0.00710616
3.55148e-14
2.51587e-15
2.38925e-06
0.00770765
0.0135138
0.0333694
0.0344294
5.68819e-16
0.0138885
0.000345573
3.62336e-14
9.2956e-16
0.0118831
1.03483e-15
4.47242e-16
0.0154176
1.04193
0.000172583
7.51373e-15
4.89766e-14
0.0171951
0.019618
0.0178417
0.00556752
0.0044294
3.21801e-15
1.07057e-06
2.65185e-09
8.83102e-14
2.98011e-16
0.0168222
8.04122e-16
0.00197284
0.0246235
0.017467
0.0110102
5.39643e-15
0.00594121
4.29417e-15
5.73731e-15
7.21373e-15
3.88115e-16
0.00244777
0.884625
4.20131e-16
1.5334e-16
4.28228e-06
0.022916
0.00121736
0.00681366
0.03217
0.00467255
0.0203825
1.38512e-15
1.14948e-14
7.28845e-15
0.0289379
0.00552637
3.0245e-08
6.76518e-15
7.66716e-16
1.60545e-14
0.0217591
0.00261499
4.54018e-16
0.00481504
0.0574551
0.00623704
0.00610064
5.42447e-15
4.63385e-14
0.00675836
0.022255
3.10207e-16
0.000348727
0.01473
0.00096577
0.00903448
0.00462051
0.00774773
5.34431e-14
0.00319112
0.0205477
0.0350563
4.1537e-10
0.0220218
2.52186e-13
0.0159328
0.000149371
1.53255e-14
0.00246817
0.00743116
0.000407646
0.0113218
4.28477e-07
0.000122082
1.36575e-05
0.0418476
0.00360795
1.62671e-15
0.0370159
0.00126333
1.23364e-15
4.39249e-16
4.25162e-08
1.42669e-05
0.00104126
1.05747
0.0345253
0.0120762
1.87352e-07
0.0444378
3.41539e-15
8.13363e-15
0.00378308
2.04651e-14
0.00196594
0.00377245
0.00214181
0.00450128
5.0019e-16
0.000185768
0.104183
1.50499e-16
0.0133889
0.00737558
2.82674e-15
0.00386618
0.000128768
1.1734e-14
6.66258e-09
8.17717e-05
1.77732e-15
3.85356e-15
8.55375e-15
0.00413957
0.00482065
0.0135689
3.86801e-14
0.00457569
0.0317559
2.42912e-16
0.00776715
0.0120072
0.0229476
0.00147117
9.31839e-16
0.000503537
0.00886244
0.0100706
0.00877766
0.0354245
0.156787
0.00314548
3.56642e-16
7.31151e-06
0.0475714
1.66192e-15
0.000405446
8.18202e-15
1.5866e-15
1.52202e-15
6.64874e-15
1.21238e-16
0.00312742
2.93263e-15
0.00689536
0.00108539
1.04056e-14
0.0036081
2.15872e-14
0.0132837
1.50239e-15
2.63994e-05
4.43962e-15
0.0207164
0.00015405
2.43292e-06
0.00408909
0.0271268
0.0157971
0.00374959
0.0260732
6.74589e-12
0.0222531
0.0519397
0.00941848
4.83024e-14
0.00101785
0.000232338
0.00540942
0.0096825
0.000584589
7.78107e-15
3.32749e-15
1.23086e-15
0.00334105
1.19485e-15
0.000347946
0.000203075
0.00170225
0.000246748
3.32718e-16
1.42581e-14
2.17692e-15
0.00836612
0.0203067
0.00112566
9.19161e-06
0.00176623
0.00662131
0.0017434
0.000788019
0.00623627
0.00596625
0.0025938
5.8944e-15
6.8256e-16
7.14774e-14
0.0122136
0.0103116
9.34946e-16
1.62286e-15
3.75095e-14
0.00813566
0.0173246
1.20568e-15
0.00215126
5.15225e-15
5.86785e-07
0.00438292
0.0860217
1.63138e-15
3.94182e-16
0.00345092
5.96624e-15
5.53455e-05
0.0114281
1.46411e-14
0.0103398
0.0310314
0.0182176
2.3268e-16
0.00147646
5.3852e-15
8.89825e-05
0.0461121
1.58883e-15
1.79632e-15
0.0101076
2.95685e-13
1.6863e-14
4.15762e-05
0.000902671
5.83684e-16
2.30578e-15
5.27846e-14
7.20671e-05
0.00119766
0.00298233
0.0244449
0.00812303
3.58198e-15
6.88692e-07
0.000688259
1.08104e-15
4.70268e-16
1.20995e-16
1.21255e-15
5.50833e-15
8.3997e-16
1.89306e-15
3.88523e-15
5.99122e-15
3.39449e-15
2.4749e-09
2.51806e-15
0.000312206
1.09794e-14
0.000249548
1.59925e-14
9.93881e-05
7.38595e-14
6.36322e-15
0.0271778
0.00850441
9.50093e-15
0.0814444
9.6455e-09
6.33475e-10
9.6242e-18
0.00114323
1.48854e-11
0.0026151
6.05944e-06
0.000787821
7.50416e-16
8.50546e-16
0.00115416
2.03137e-08
1.22913e-15
7.2724e-14
0.0365624
2.36233e-14
0.035048
3.21081e-15
5.28671e-16
1.70333e-06
0.0263807
0.00733596
1.96772e-15
0.000301075
1.80124e-14
0.00344616
1.8544e-05
0.00164295
4.73891e-06
4.37682e-15
0.0191793
0.00115299
0.00495259
1.53476e-15
1.52459e-14
1.56517e-16
0.0197137
0.00357375
0.049816
2.44332e-15
4.66439e-07
5.97748e-16
2.11354e-16
1.66812e-16
2.98839e-16
0.00319358
0.00211564
0.00290533
0.298334
1.69146e-13
0.0251291
0.03386
0.0158938
0.00165504
2.33656e-14
0.00485825
0.00440854
0.00567521
2.73057e-07
0.00945912
6.86838e-16
0.00139546
0.00123309
0.0307927
1.04838e-06
0.0032973
6.44773e-16
0.0174116
1.77144e-15
1.08598e-14
0.00156367
3.51619e-15
0.0056063
4.20685e-15
2.03884e-15
1.09952e-14
5.58363e-17
1.45709e-14
0.000794798
2.42789e-15
0.000500081
6.20183e-15
2.31954e-17
0.0164617
0.00498513
0.0075183
0.00684384
1.36175e-15
0.549283
6.59267e-15
0.0641534
2.22096e-15
0.0162907
0.0229385
0.00224879
0.0526252
1.05442e-14
2.5874e-14
4.24607e-15
0.00203126
7.80224e-16
3.19952e-15
0.0165693
3.51512e-16
3.50652e-16
0.0052097
5.64057e-15
0.011596
6.20115e-08
2.16373e-15
1.04499e-14
3.41673e-14
0.00143308
0.00637067
6.34884e-16
0.021698
0.000337548
1.15746e-15
0.0949459
4.0026e-15
0.0145455
0.0169444
0.0035474
4.96761e-15
0.0169378
0.00962196
0.000859421
0.00514893
0.011681
2.39844e-15
7.44157e-15
1.76327e-06
3.22633e-15
4.82922e-16
5.16371e-15
0.018511
0.046328
0.00430248
0.00208645
3.31357e-15
0.0475059
0.0432305
0.00397932
0.00216319
0.00886378
0.0196867
0.00262423
1.46992e-15
3.41763e-16
1.21287e-15
0.00689327
7.1662e-17
0.0233716
3.22204e-14
0.00073271
5.64664e-07
0.00247486
0.020762
2.12964e-15
3.0555e-15
0.0024456
0.000368356
3.44775e-15
4.39535e-15
1.0457e-14
3.71947e-05
0.00029289
0.000144233
0.000803568
0.00969318
0.0816836
1.03064e-15
3.20185e-14
3.05028e-15
0.00359871
0.0164687
0.0189424
0.0330933
0.00163225
0.00292389
5.07225e-15
4.18235e-15
1.18158e-13
1.38213e-15
0.00875234
0.0211878
6.42786e-15
1.54939e-15
6.64678e-15
1.1e-13
1.91109e-14
1.33977e-14
0.0132657
9.58275e-16
0.000890144
0.406381
2.06599e-15
1.27819e-05
0.021702
0.000725951
3.92787e-16
2.4159e-16
0.00490701
1.88932e-15
0.0139278
8.94538e-07
0.0234269
1.15855e-14
1.68602e-12
3.00106e-15
8.29708e-16
8.91915e-16
2.91139e-14
0.187164
6.41462e-16
0.00586251
0.00120013
5.9891e-16
9.51564e-15
0.0019798
1.7227e-16
1.10156e-15
0.0106407
0.000141121
3.33043e-16
3.42335e-14
5.08083e-16
0.0162501
9.83069e-16
3.97479e-15
0.000453206
0.0026118
0.00308924
2.14127e-15
1.21216e-15
4.02458e-14
0.00374762
0.00184334
0.0125453
0.00362864
1.09458e-16
0.000753319
0.01108
0.00623532
1.00865e-15
3.00515e-15
2.22517e-16
3.9733e-14
1.16661e-15
0.0296568
0.00487702
0.00576
2.9162e-14
5.39686e-15
9.39343e-16
1.02569e-15
3.26627e-15
1.02896e-06
0.000214176
0.00208816
3.74442e-15
5.67348e-16
1.97989e-14
2.07578e-09
0.0338788
0.111996
1.06611e-15
9.42336e-10
2.70338e-11
2.3162e-15
3.69856e-16
0.00367445
0.00615741
7.651e-16
2.19626e-14
0.00278064
7.1403e-16
0.00067037
0.00099437
2.00517
6.24734e-17
3.3185e-15
0.0113726
0.000528629
9.53318e-16
0.636438
0.000581723
0.00597425
1.34185e-15
4.64429e-15
7.6132e-14
1.02368e-15
0.00819174
8.7473e-05
9.34531e-16
0.0244527
0.018464
0.826618
2.32753e-15
1.04097e-16
2.37488e-15
7.81314e-16
0.00655804
8.02408e-08
1.17919e-15
2.19571e-16
0.0179487
0.000785928
0.00457648
9.96437e-16
1.04202e-14
0.0276885
1.37237e-15
3.61539e-16
9.38265e-16
4.25538e-15
0.0203699
1.18266e-14
3.66086e-16
2.15091e-15
0.0246477
0.0114652
2.11588e-15
4.42999e-15
1.35287e-15
0.0146719
1.93895e-07
1.22171e-15
2.47073e-16
3.25593e-15
4.36645e-16
0.00231995
0.0108676
1.23577e-14
0.00190771
0.00107769
0.00475869
4.60767e-13
8.14015e-14
7.35421e-16
3.91705e-14
2.31123e-16
0.018226
7.36365e-16
0.0136797
2.0808e-15
0.0015164
3.54121e-14
0.00239348
1.01457e-16
1.02231e-15
0.00984176
0.153538
7.55073e-15
0.00355422
1.03015e-15
0.000378262
2.14081e-14
1.80225e-15
3.01602e-16
5.46366e-08
4.83298e-15
0.000288921
1.92523e-15
0.0337671
2.04219e-15
1.55101e-14
4.06919e-15
1.039e-15
7.4116e-06
0.000131607
2.15742e-16
0.00554131
1e-15
0.00262321
0.0173325
0.00127475
3.0504e-15
4.76563e-06
0.000444091
2.18472e-06
0.00405698
2.93132e-07
0.00166334
1.83307e-14
5.8284e-16
4.11965e-07
0.00552738
0.000239823
1.6508e-15
6.20172e-15
6.82402e-15
0.562705
3.32642e-14
2.69778e-15
9.01696e-15
2.39295e-15
3.38763e-15
3.04333e-05
0.000181208
0.000978874
6.66523e-05
1.34065e-12
0.00141895
1.8831e-15
0.00519666
7.67381e-15
1.48734e-14
1.42941e-15
1.19496e-14
1.37957e-05
4.91565e-16
1.22793e-14
3.4242e-15
0.0136541
5.41564e-16
4.73545e-15
0.0100146
7.79479e-15
0.0756928
0.121409
0.546126
2.50367e-14
0.193378
1.0785
1.05272
0.607431
7.6746e-15
1.50275e-16
0.00456111
0.00429682
2.11679e-15
0.0101461
5.23486e-17
0.0300155
2.55671e-14
7.94709e-16
0.000700225
2.10235e-15
1.86299e-15
1.03444e-05
3.88334e-05
2.03453e-14
5.04677e-16
2.83702e-06
2.37883e-14
5.86082e-16
1.74614e-05
0.0078036
0.00147102
3.90358e-15
0.00754589
9.21634e-15
0.00327314
4.1952e-07
0.00703316
2.56114e-15
1.55741e-08
0.00545741
2.05859e-14
1.57585e-09
4.23792e-16
0.0298218
1.03052e-15
0.00881409
1.37807e-15
2.41474e-07
2.35055e-17
2.04926e-15
1.06919e-15
8.26556e-10
4.84947e-10
2.01962e-15
0.0111182
0.00867844
5.60006e-14
1.31293e-15
0.0301496
0.0158513
0.171173
2.13457e-14
6.70107e-05
0.0231805
0.042545
5.57836e-08
1.83043e-14
0.0527274
2.85673e-17
0.211635
1.51156e-15
4.25198e-08
3.74321e-08
1.48627e-15
5.65926e-05
5.91227e-16
0.0192793
1.28373e-15
1.6638e-16
5.27218e-16
4.10906e-15
9.13811e-16
7.20888e-15
0.000254785
0.00185733
0.124665
8.23318e-16
3.83401e-15
0.0380178
5.72575e-16
1.17896e-15
1.63954e-15
9.69605e-15
6.67595e-15
0.0054909
1.91618e-15
2.00056e-15
1.26953e-17
0.00304195
2.15869e-14
2.31123e-15
4.15004e-14
0.00305592
1.2972e-16
0.00564129
0.218848
0.00510183
0.00525019
0.0246067
5.0781e-15
2.29377e-15
2.86673e-15
0.00296785
0.0015969
1.80824e-16
1.83561e-14
0.000566713
2.54452e-14
2.64144e-14
0.309859
8.77299e-16
0.0198505
1.82415e-15
0.00216935
0.00293435
1.14926e-15
1.23713e-15
2.8572e-16
5.63792e-15
3.50548e-15
0.0164067
4.06144e-15
0.00433976
1.49093e-14
1.30901e-16
0.00641548
6.00559e-16
0.0115256
2.22036e-15
2.89705e-15
0.00214393
6.5938e-05
0.129327
7.10507e-15
1.30791e-16
6.42329e-15
0.0031331
0.16341
1.82631e-15
2.70169e-15
1.33754e-15
0.00136983
1.04515e-15
0.017686
0.0284768
4.3103e-15
2.55453e-16
0.0066623
1.16032e-14
1.7302e-14
1.37467e-16
2.25847e-15
1.88455e-15
0.0630567
3.70024e-14
2.55368e-15
1.71381e-15
1.40424e-14
1.61756e-15
2.35315e-14
4.76788e-16
2.59922e-15
2.18644e-15
0.00690439
3.60366e-15
0.00795367
2.32614e-14
6.14305e-16
0.531383
0.00253638
2.04777e-16
1.11837e-15
1.06054e-16
0.00223598
1.66498e-15
1.03498e-15
9.6289e-15
1.70031e-16
0.00683338
6.08124e-16
0.00432572
1.19411e-15
0.00870318
4.97782e-15
0.05182
5.29423e-15
5.16821e-15
0.0199222
9.28174e-16
2.93836e-16
0.0243258
0.000244896
1.38125e-14
3.18156e-15
0.0325217
0.00906576
0.00597663
0.000772395
0.00167328
0.0158959
0.000948216
0.00428208
3.25191e-14
0.0266072
1.10502e-14
8.64318e-16
2.36727e-16
1.83587e-14
8.89152e-15
0.0096261
9.73041e-14
1.02489e-14
1.25305e-14
4.45692e-06
7.46933e-06
2.62724e-14
0.00207681
4.59599e-15
0.00395835
1.61528e-15
1.21778e-06
0.00294499
2.43922e-13
0.0414964
1.52478e-15
2.29123e-15
2.29892e-15
0.0027313
0.00113408
7.21222e-16
1.14926e-15
0.00228355
8.56929e-15
0.608906
3.63761e-16
0.0934468
3.25069e-16
1.79753e-16
4.95886e-15
4.80811e-16
0.00917043
3.48868e-16
3.35347e-05
1.67843e-15
0.00892006
6.22889e-16
3.35409e-16
4.4015e-12
6.2377e-14
2.50219e-15
4.47543e-15
6.22648e-16
2.65196e-15
0.00380684
0.170646
2.22595e-14
3.17296e-15
0.000324175
1.14655e-15
2.16793e-15
1.03315e-06
0.0156465
0.000136112
3.79611e-16
0.000621464
0.00296704
0.00491391
0.00755353
4.45723e-15
6.12283e-15
8.47985e-14
4.82028e-15
1.88774e-16
6.39231e-17
3.58622e-15
1.37791e-14
2.0441e-15
2.58382e-15
1.5639e-15
6.55852e-16
0.0685777
1.45676e-15
1.74913e-15
3.60741e-10
8.8706e-16
1.69276e-15
1.00962
1.33895e-16
1.13001e-15
0.00188757
2.41066e-09
9.60902e-15
1.90528e-14
7.37e-16
0.0209643
5.32887e-15
7.36946e-15
4.93223e-08
7.36121e-16
3.15638e-16
5.91618e-15
2.578e-15
0.109887
4.98263e-16
0.000147798
2.01245e-16
2.51194e-15
1.32832e-15
6.4124e-16
8.50214e-16
1.55037e-08
2.92169e-08
0.000101406
4.65042e-15
9.19176e-16
2.65838e-14
8.52574e-08
6.49596e-16
2.78071e-07
8.58748e-09
1.65717e-15
9.88561e-16
7.18779e-15
4.45804e-09
1.79498e-15
3.9094e-15
2.18729e-09
4.43843e-15
0.0288365
1.14419e-15
0.00672153
3.55901e-15
2.1536e-06
1.56773e-15
0.00129987
4.65163e-16
0.00373721
0.0243782
1.50613e-15
0.00233161
1.35978e-05
8.03783e-16
0.0102255
6.06829e-16
8.97029e-16
4.54235e-15
2.27753e-15
1.51256e-14
1.52802e-16
9.97693e-15
6.49498e-15
0.268008
6.42411e-16
4.48225e-16
7.59976e-16
7.55523e-17
4.94128e-16
0.0299634
0.766116
3.02601e-06
9.71211e-06
5.86499e-17
0.00198602
0.00138783
4.27437e-16
8.19394e-16
6.85081e-15
2.08692e-15
9.00785e-16
2.1897e-14
4.01185e-15
6.06924e-15
0.000364831
1.1724e-14
5.40578e-14
0.000235136
3.70995e-06
3.03932e-15
0.0242012
4.71324e-15
2.35207e-15
5.34751e-15
0.161156
9.4657e-14
8.40903e-17
0.025042
1.01049e-15
4.24826e-15
1.66921e-15
1.12533e-13
0.0531777
3.59851e-15
1.15045e-15
6.29352e-16
2.61163e-15
0.00561847
0.225045
0.0279194
0.0416876
0.00371478
0.000250589
7.51549e-16
5.12056e-15
0.138603
0.00122712
6.81963e-15
9.01925e-08
3.7897e-15
6.63048e-11
8.87883e-16
0.205435
4.87074e-16
3.18229e-16
0.000227129
2.33966e-10
9.00408e-16
0.00954819
9.75282e-16
1.10822e-14
0.197366
0.0300177
7.07877e-16
1.09533e-15
2.95271e-16
9.56145e-16
8.97691e-16
5.09886e-15
4.7418e-15
9.71573e-16
0.00306874
5.0994e-15
3.59497e-16
1.23196e-15
1.38713e-05
1.49294e-15
4.54428e-15
2.56586e-15
1.18349e-16
2.09117e-14
8.84747e-15
0.00334738
2.86982e-16
9.44622e-16
0.00498816
2.81355e-14
0.000358797
0.00447243
1.06252e-15
0.003414
1.63793e-16
2.51951e-15
1.81775e-15
9.64657e-15
2.20472e-15
4.60781e-14
3.43182e-13
6.34243e-15
0.00234429
8.67934e-15
2.42114e-14
5.48582e-15
1.16801e-15
1.43234e-15
3.81305e-15
0.0355149
1.06588e-15
1.95237e-15
0.337251
3.34735e-15
1.12422e-16
1.64606e-14
0.00125422
3.23338e-16
6.00045e-06
5.7466e-17
4.89902e-05
0.00793909
2.96463e-16
1.3577e-14
0.0403144
1.38844e-14
1.22016e-15
0.000126969
7.19171e-07
0.00983974
2.29021e-06
9.07332e-07
1.37414e-07
1.2565e-14
2.01698e-15
0.00101932
0.000119604
0.0157759
0.0120675
2.84892e-05
2.63861e-16
0.00548846
0.00519595
0.0185082
4.09837e-14
0.0122685
0.0166477
0.00276018
0.00139008
0.00125522
0.00324059
0.0189723
0.0408396
0.00709598
0.0110713
0.00797943
6.54222e-15
0.00290676
0.00363268
0.00085464
0.00255547
0.0141845
0.013759
0.0193518
1.89129e-14
0.011472
3.23903e-14
0.00507555
0.00284296
0.000270262
0.00232622
1.13286e-14