/*--------------------------------*- C++ -*----------------------------------*\
  =========                 |
  \\      /  F ield         | OpenFOAM: The Open Source CFD Toolbox
   \\    /   O peration     | Website:  https://openfoam.org
    \\  /    A nd           | Version:  10
     \\/     M anipulation  |
\*---------------------------------------------------------------------------*/
FoamFile
{
    format      ascii;
    class       volScalarField;
    location    "23.5";
    object      T;
}
// * * * * * * * * * * * * * * * * * * * * * * * * * * * * * * * * * * * * * //

dimensions      [0 0 0 1 0 0 0];

internalField   nonuniform List<scalar> 
111485
(
303.15
285.068
300.943
303.15
298.375
283.15
298.882
293.343
296.246
286.2
300.479
296.137
300.163
284.54
299.94
286.702
299.303
297.064
293.978
303.15
303.15
283.15
297.194
288.637
301.572
303.15
293.11
300.602
288.799
303.15
300.769
294.28
303.15
283.15
283.44
283.15
302.303
297.544
283.149
296.569
283.15
289.541
296.993
302.868
303.193
303.15
287.297
288.497
289.577
303.15
303.15
283.15
303.15
298.868
303.15
293.439
287.834
283.15
283.316
295.399
295.8
303.15
302.036
300.182
283.15
284.535
300.052
291.449
302.086
302.508
303.157
301.862
303.15
302.086
303.15
295.326
283.15
293.351
283.15
283.15
283.234
293.316
283.15
303.15
300.265
284.199
283.15
301.523
303.112
299.051
283.323
289.507
300.819
300.362
289.74
303.15
303.15
301.523
303.149
283.413
303.15
286.579
283.15
285.143
285.695
283.15
283.15
293.015
301.401
283.147
298.838
288
301.248
301.652
303.15
301.946
303.15
283.15
300.101
303.15
303.15
283.15
283.15
283.15
283.389
303.151
283.15
301.777
303.15
283.175
303.099
301.909
303.15
283.15
283.15
292.447
283.15
294.143
298.761
301.075
303.135
296.778
298.943
284.743
302.263
297.735
283.15
303.15
283.15
297.088
284.902
303.15
303.144
287.256
283.156
293.654
295.58
302.511
283.154
303.15
303.15
292.111
286.189
283.153
283.157
301.148
283.679
283.15
283.152
283.153
283.15
303.15
283.206
283.15
291.469
287.116
283.15
303.15
303.15
283.15
303.15
303.15
297.601
293.422
295.714
289.691
301.331
300.375
283.19
303.15
301.411
303.15
303.15
300.11
286.227
301.365
301.308
295.659
303.15
300.833
284.567
283.159
300.714
297.016
303.15
300.369
288.135
303.15
283.223
300.127
284.779
300.649
303.15
303.15
300.663
283.15
292.708
283.15
300.568
298.616
290.268
303.15
301.711
300.521
283.15
283.15
283.15
289.454
283.156
283.15
303.15
298.568
291.292
289.844
283.15
303.15
303.108
303.15
284.308
300.037
299.192
299.451
299.321
283.15
283.144
298.815
283.15
283.15
288.71
288.302
283.15
301.13
298.828
303.15
283.15
301.053
303.15
303.15
303.122
303.15
288.201
285.819
290.704
303.15
298.284
303.15
303.15
303.15
283.148
297.985
300.942
299.374
291.147
299.425
296.193
283.21
290.247
291.493
283.15
303.15
283.149
292.375
298.719
286.408
303.15
297.96
297.225
298.831
302.953
283.167
297.04
299.307
302.014
283.15
283.603
283.15
283.149
303.15
283.846
290.213
286.251
303.15
283.15
297.546
285.221
303.15
303.15
303.15
284.557
290.171
301.017
284.387
292.954
283.15
283.15
303.15
298.31
303.15
283.805
289.385
283.153
283.15
303.15
303.15
283.15
294.288
289.895
283.15
295.636
283.15
303.15
300.977
297.237
293.928
295.744
283.15
283.15
283.15
296.542
290.93
302.373
283.15
283.15
283.15
290.005
296.894
283.211
290.406
283.15
292.723
299.5
284.178
298.557
285.212
283.15
303.15
283.15
303.15
290.602
296.65
287.895
291.876
283.15
286.294
283.15
303.15
293.748
303.15
301.701
303.15
283.15
291.861
283.15
288.706
284.598
283.15
283.965
297.956
283.15
300.111
284.653
298.789
303.017
290.978
285.955
283.15
303.15
303.144
283.15
300.952
300.769
283.15
283.15
294.675
284.333
298.13
296.864
283.15
294.981
296.003
283.15
302.043
283.875
303.15
303.15
288.182
298.53
283.15
303.15
303.15
303.15
300.708
283.15
303.15
293.905
283.17
286.862
299.9
283.15
283.15
302.607
283.15
302.443
301.39
297.764
288.396
283.15
293.832
303.377
303.15
298.575
292.209
303.15
283.15
283.302
283.15
289.935
286.054
291.567
283.15
292.793
296.515
292.985
303.147
283.15
303.15
303.15
283.168
292.652
283.15
284.297
303.131
283.15
303.15
303.15
303.15
301.846
290.443
285.94
284.173
284.284
283.15
285.65
303.15
300.669
283.15
303.15
303.15
300.609
303.15
303.15
283.151
303.15
283.15
300.614
283.15
283.15
283.15
303.15
283.15
303.15
283.15
283.657
283.15
303.128
301.857
283.739
283.15
303.084
283.15
303.15
284.673
284.643
286.06
297.444
283.15
297.416
297.528
292.207
286.759
285.224
303.15
291.68
283.15
299.804
283.15
296.72
283.15
291.998
298.469
303.151
283.15
286.739
303.15
295.442
299.025
283.15
283.15
283.15
283.15
303.15
293.61
283.15
283.15
283.236
283.15
299.757
283.15
284.753
303.15
283.424
303.119
284.617
291.826
283.15
301.41
283.15
283.15
285.638
283.15
283.254
283.15
299.617
303.15
290.576
303.15
283.15
302.378
284.435
300.029
285.603
300.027
289.41
283.15
300.575
284.508
283.15
283.141
300.254
301.554
283.15
282.488
301.012
303.058
283.124
303.15
287.517
302.152
284.372
285.333
288.126
282.598
283.15
303.15
300.546
303.15
283.544
283.15
283.15
291.694
282.694
303.149
303.114
283.15
286.205
299.553
283.15
283.15
299.574
303.15
283.15
283.15
283.15
286.092
283.15
303.15
284.78
284.205
303.15
299.677
283.15
289.182
303.15
283.15
286.084
283.15
283.15
283.15
285.331
283.15
285.393
291.889
303.15
300.308
283.437
298.633
300.928
283.298
283.45
283.15
288.876
298.391
303.15
302.246
295.982
296.826
284.686
297.39
297.154
303.15
300.176
303.133
283.15
297.083
284.798
283.15
292.299
295.649
284.815
298.712
300.59
292.26
283.15
298.86
283.457
303.15
300.554
301.952
294.024
283.15
286.434
303.15
283.15
283.15
283.15
283.299
283.15
303.15
303.15
283.15
300.397
299.186
303.15
285.559
303.15
303.15
303.15
289.966
283.415
283.15
303.15
283.15
283.15
286.769
292.308
283.15
295.06
283.137
283.15
295.228
302.195
287.712
283.15
283.15
300.214
292.019
283.15
283.15
283.15
293.896
303.15
303.15
283.15
296.171
302.347
283.15
282.351
301.683
286.492
283.15
283.15
287.419
302.957
283.15
283.159
287.113
283.747
288.719
283.15
285.653
300.21
283.15
303.15
283.15
283.15
283.15
283.15
295.594
303.15
283.15
283.15
295.205
291.738
303.15
303.15
289.73
298.337
298.237
303.15
283.15
297.905
303.15
283.819
298.779
298.286
303.15
303.15
303.15
283.15
285.999
283.15
283.15
302.7
303.15
297.737
302.244
283.15
293.983
283.271
296.358
291.906
283.415
289.674
283.15
283.15
296.802
287.987
290.761
283.15
283.15
297.499
294.871
283.15
283.886
284.553
283.464
303.15
303.15
303.15
290.663
283.15
299.996
283.15
284.34
297.517
298.431
292.196
283.15
283.15
303.15
295.304
283.15
283.15
303.096
283.15
283.15
303.15
283.15
299.249
283.15
283.15
283.15
283.15
283.15
303.15
283.15
283.172
298.708
303.15
302.521
283.132
283.389
283.097
285.477
283.15
284.418
290.463
283.39
303.15
283.149
299.672
283.15
300.193
283.141
283.144
286.15
297.414
283.205
291.822
297.981
283.15
283.15
298.992
299.735
283.15
297.262
291.193
297.548
283.15
283.243
283.15
297.851
296.978
283.15
300.019
297.628
283.149
299.719
283.15
295.548
283.145
303.128
283.161
283.16
283.15
283.15
284.407
283.15
302.963
283.574
283.064
303.147
303.149
303.148
283.15
283.15
293.742
303.15
303.216
283.848
283.15
283.15
303.154
303.149
283.15
303.165
283.15
283.15
303.15
303.15
303.15
303.15
283.36
283.15
283.15
283.15
303.157
283.3
283.87
293.395
283.15
283.15
283.328
283.15
283.15
283.15
287.186
293.518
283.15
283.15
283.15
283.15
283.15
283.15
283.985
283.15
303.15
291.476
283.15
303.15
303.15
303.154
303.15
303.15
283.15
303.171
283.15
283.679
283.145
303.152
283.15
303.061
284.359
292.014
303.15
303.129
284.422
303.15
283.15
303.15
283.15
293.969
293.376
284.594
303.148
283.15
293.163
283.15
283.15
303.15
283.15
294.784
283.15
303.15
283.163
298.081
303.15
284.357
283.15
283.561
283.15
283.15
283.15
303.15
285.798
283.464
284.082
283.15
283.15
285.596
283.15
283.15
303.15
284.315
303.165
298.486
303.15
303.126
303.127
283.15
303.129
283.15
283.439
289.042
301.031
283.778
283.165
283.15
283.15
283.15
303.184
283.15
302.892
303.15
292.543
303.15
288.668
283.81
303.15
283.15
303.15
283.15
301.757
303.15
303.15
286.363
300.509
283.15
283.15
283.15
283.15
283.15
283.15
300.761
283.567
303.15
303.15
303.157
303.15
300.143
284.392
283.15
302.089
303.15
301.589
283.15
302.559
283.15
283.148
303.152
283.309
302.089
300.175
283.147
283.15
289.3
303.15
293.309
303.15
283.15
303.15
283.15
283.15
283.15
300.757
302.031
303.15
303.15
303.15
302.898
283.15
303.15
292.815
283.087
303.15
297.463
298.306
296.44
283.37
283.15
283.15
283.15
283.15
294.574
283.15
294.711
283.15
303.056
289.781
283.15
302.852
283.15
283.15
302.724
283.148
302.909
283.15
303.15
283.15
302.373
283.15
303.15
283.15
283.148
283.15
283.17
283.15
283.15
303.15
292.941
301.066
296.017
296.946
303.15
303.115
283.15
283.15
285.644
283.15
283.158
302.836
298.753
302.934
303.15
283.357
283.15
303.15
283.15
302.987
283.312
298.3
283.15
303.15
288.01
303.15
283.15
283.127
294.98
283.147
283.15
283.15
283.149
303.15
283.15
303.141
303.15
303.15
289.874
302.98
302.988
288.947
293.186
283.15
283.15
303.08
289.017
283.15
303.15
284.715
283.15
303.15
283.15
283.15
283.15
297.263
283.15
302.932
283.15
300.419
283.15
283.15
283.15
283.15
283.15
283.15
284.989
283.15
283.15
283.15
283.15
283.15
283.15
291.933
283.15
298.371
302.925
283.15
302.334
283.15
302.503
303.145
292.253
288.733
303.15
292.117
284.751
303.107
303.15
303.14
295.035
288.61
283.15
287.832
283.15
283.15
283.15
283.15
287.46
283.15
283.15
291.598
303.135
285.278
283.15
283.15
302.522
283.15
283.182
303.15
299.866
283.15
283.15
302.819
283.15
303.178
303.15
283.15
288.995
297.996
292.657
285.62
292.46
294.035
283.15
283.15
302.265
290.531
292.713
284.38
283.15
294.361
283.15
303.15
300.685
298.731
283.15
297.387
283.15
292.705
297.162
303.15
283.15
283.15
301.745
283.15
283.15
300.455
296.091
283.196
291.165
283.15
283.15
302.785
300.474
283.15
300.603
283.15
300.458
283.15
283.15
300.761
283.15
283.225
301.572
283.15
283.15
302.418
283.15
287.85
303.15
290.266
303.15
303.15
303.15
300.904
283.15
283.15
299.487
283.15
302.981
283.15
283.15
303.15
283.151
288.142
283.15
283.15
288.006
288.185
283.15
283.667
283.15
303.15
302.408
283.704
301.531
283.15
283.15
283.15
283.15
283.15
283.15
283.15
283.15
283.15
283.15
283.15
303.15
283.15
283.15
283.15
283.15
283.15
283.15
283.15
283.15
303.15
286.89
283.15
283.15
283.15
294.639
283.15
303.15
302.877
283.15
283.15
294.642
283.15
283.15
301.757
295.119
283.15
303.681
303.604
283.15
301.44
293.893
297.48
301.444
298.101
303.15
283.15
296.388
291.7
301.387
283.15
302.12
302.404
300.836
287.985
287.268
301.025
301.753
301.757
303.15
285.828
297.497
285.485
297.2
283.15
283.15
283.15
303.15
283.15
291.92
297.884
283.15
283.15
283.15
283.15
283.15
303.15
283.15
303.15
292.078
303.106
298.979
302.836
283.15
283.15
285.365
283.168
283.15
283.15
301.724
303.15
283.15
298.121
299.479
297.488
298.587
300.764
303.15
290.985
302.567
303.15
303.15
300.27
303.15
283.15
282.996
295.496
302.941
283.15
303.15
289.523
286.118
297.134
292.12
302.355
303.15
303.136
303.15
303.15
283.15
298.971
283.15
291.731
290.386
299.645
284.73
303.15
301.898
303.15
283.15
303.15
303.15
291.426
299.416
283.15
303.15
303.132
291.71
303.025
299.312
292.742
288.268
292.85
283.15
303.15
283.15
291.171
298.251
303.151
303.15
303.15
303.15
297.443
302.561
283.15
299.936
301.098
284.835
299.476
303.15
303.15
298.636
292.902
283.15
302.894
299.656
302.603
291.906
297.263
298.188
303.15
286.934
298.164
291.264
283.15
288.999
303.15
288.335
301.019
303.15
288.648
301.24
300.063
293.114
283.151
283.16
283.237
301.57
300.876
303.15
288.766
301.442
303.15
283.15
303.15
303.208
298.698
290.517
296.718
303.26
283.149
297.357
303.15
303.15
292.725
303.15
300.275
283.298
301.281
291.481
303.15
283.647
293.147
303.15
283.072
298.632
303.15
300.658
286.207
303.15
303.15
283.975
303.15
283.15
283.15
285.876
299.195
291.107
303.15
285.178
297.406
283.15
298.803
298.838
288.91
303.1
283.15
301.507
299.633
298.803
300.037
288.609
290.703
302.481
303.15
301.516
288.661
303.15
298.814
283.15
283.15
303.15
283.15
303.15
297.41
283.15
300.487
283.629
303.15
283.786
283.15
289.779
303.15
303.144
303.15
294.059
302.996
303.116
299.809
290.352
289.38
290.53
298.343
303.15
299.331
292.111
298.884
303.15
283.858
283.44
299.192
287.11
283.502
303.15
283.15
303.15
285.285
303.15
303.346
284.659
303.394
302.953
303.15
303.15
283.15
300.505
300.655
285.451
303.083
286.954
295.617
301.862
292.448
288.091
302.066
296.053
283.15
283.15
303.15
285.771
289.635
283.15
283.15
303.15
301.969
288.635
303.15
296.355
303.15
283.155
285.148
301.156
303.15
303.15
292.218
303.15
283.297
290.553
283.15
297.117
294.569
296.085
303.15
302.696
283.15
302.659
293.344
303.15
303.15
288.738
283.15
303.15
301.771
284.417
303.15
303.15
283.15
302.325
303.479
289.427
299.644
298.088
303.15
303.159
302.58
303.15
283.15
303.15
303.15
303.15
303.15
303.15
303.15
303.15
283.15
303.15
303.15
283.336
303.15
303.352
303.15
303.164
303.15
303.15
300.88
303.675
303.15
291.889
303.15
303.15
283.15
302.545
303.15
302.128
303.113
283.288
283.15
303.15
302.56
283.149
303.15
303.15
291.307
283.15
292.531
283.15
283.15
283.153
291.155
284.805
303.15
296.589
283.15
303.785
303.133
284.292
302.581
283.15
292.106
303.083
301.635
283.15
303.15
283.15
304.145
284.79
296.849
303.15
303.15
303.15
303.15
303.15
303.15
302.336
302.804
297.549
291.945
303.15
287.098
292.584
284.945
303.209
283.15
286.861
302.747
284.728
283.148
287.424
303.15
283.379
302.917
292.471
302.842
301.849
303.15
302.241
303.15
303.15
297.912
303.15
284.457
303.15
303.15
283.15
303.15
303.15
302.841
303.15
283.295
283.15
283.15
285.786
284.845
300.907
286.059
303.15
294.524
303.15
290.369
303.15
287.104
300.638
301.45
293.243
303.15
303.15
303.15
289.753
283.15
303.15
289.506
283.15
283.15
301.792
303.15
286.135
283.148
283.15
303.15
303.15
300.622
298.142
303.15
293.361
303.032
283.15
298.571
303.15
286.369
288.173
302.121
303.15
296.268
296.731
302.947
301.859
301.625
303.15
303.15
303.147
303.15
283.15
303.15
289.508
300.177
294.258
302.105
283.15
300.333
291.335
298.201
283.591
298.26
289.545
302.142
283.15
283.15
283.15
302.19
283.15
290.404
283.15
301.222
303.162
289.662
298.017
283.15
303.15
301.21
301.186
303.15
283.15
303.15
286.384
301.412
302.973
302.324
297.959
288.386
303.15
303.15
303.15
294.178
285.934
289.729
295.813
283.941
302.953
303.15
303.15
283.15
283.15
285.388
299.575
303.15
303.15
283.15
303.15
303.15
303.15
300.21
303.15
285.307
292.12
283.15
283.247
293.293
285.653
303.15
303.15
301.864
303.15
299.168
283.147
297.499
303.15
303.15
283.15
303.15
303.15
303.15
305.144
303.15
301.815
301.107
303.15
303.15
301.587
303.15
283.15
287.19
303.098
303.15
303.15
303.15
297.885
303.15
303.15
302.385
302.475
301.752
303.15
283.15
303.15
302.023
302.501
301.497
302.522
283.15
300.626
287.429
297.39
283.15
303.15
303.15
303.15
303.15
294.279
287.518
299.655
303.15
303.15
303.15
303.15
283.15
303.148
284.747
285.115
283.15
303.15
303.15
283.148
299.516
294.764
283.15
303.15
303.15
303.15
303.15
289.552
289.597
303.15
303.15
302.397
303.15
301.449
283.935
291.807
303.15
283.15
301.168
303.121
303.15
302.994
301.282
286.785
303.15
303.15
303.15
303.15
293.224
284.131
303.15
302.673
298.004
289.219
303.15
303.15
303.15
303.15
299.53
303.151
303.15
303.15
298.216
302.595
288.292
303.15
303.15
297.696
303.15
303.15
303.15
303.15
288.743
303.15
283.15
283.15
295.882
291.009
303.15
303.15
303.15
296.98
303.146
303.15
303.15
303.15
303.15
303.384
300.829
303.15
287.278
302.635
299.348
303.15
303.15
303.15
303.15
283.15
285.634
303.15
302.844
283.15
302.16
303.15
303.133
303.15
283.15
301.944
285.552
283.15
302.825
303.15
302.402
283.15
303.15
303.15
303.151
303.15
283.27
303.15
290.771
283.15
283.15
303.15
303.15
298.8
302.354
283.15
302.388
283.15
284.088
287.899
302.688
283.15
303.155
302.98
303.133
284.38
283.156
302.98
283.15
283.15
283.156
302.054
302.274
303.15
283.15
283.15
295.12
303.15
283.15
303.15
303.15
303.15
303.107
303.044
302.92
302.427
303.15
302.896
303.15
284.78
303.15
303.15
283.15
303.15
303.11
303.15
283.15
303.15
288.259
303.15
303.15
303.168
283.15
302.774
301.92
296.617
303.15
289.118
294.149
283.76
289.814
283.15
283.15
287.157
284.299
283.15
303.855
283.15
286.361
303.15
283.15
303.155
303.15
303.15
303.011
303.155
303.15
283.15
303.138
303.15
283.15
283.107
298.665
302.689
303.15
301.809
303.15
285.665
303.152
301.136
303.15
303.15
300.996
303.15
303.15
303.15
287.636
303.15
285.106
303.15
303.147
303.15
283.15
283.15
303.15
303.15
303.15
288.635
302.532
303.15
303.15
288.532
286.458
291.069
303.15
302.686
287.618
287.488
303.15
303.15
287.554
283.15
291.838
303.15
303.153
303.149
303.15
300.486
283.15
302.313
283.15
303.15
303.15
303.15
303.15
303.15
284.306
302.224
290.979
303.15
303.15
290.507
303.15
303.15
303.15
303.15
303.15
300.105
303.15
303.15
283.15
299.408
303.15
283.15
303.15
301.332
283.15
299.908
290.637
302.672
299.973
299.391
303.15
303.15
303.15
300.807
288.422
283.15
303.15
300.269
303.15
303.15
291.914
303.15
287.417
303.15
297.776
284.287
303.15
283.15
303.15
303.15
303.15
285.203
303.15
300.444
303.15
303.15
299.651
283.15
284.711
303.15
303.15
288.029
301.54
296.358
303.15
303.15
303.15
301.556
292.163
303.15
283.15
303.15
300.631
303.15
284.734
296.238
303.15
303.15
301.1
303.15
303.15
283.15
303.15
283.15
294.482
303.15
283.15
303.15
303.15
303.15
303.15
303.15
303.15
283.15
301.507
283.15
302.05
303.15
303.15
296.049
300.428
303.15
283.15
303.15
300.838
283.15
303.15
303.15
303.15
300.688
303.15
297.594
303.15
285.806
283.15
286.682
303.15
303.15
298.473
283.15
303.15
287.798
283.244
303.15
303.15
285.048
283.828
300.803
301.699
301.146
293.108
301.706
283.825
303.15
297.63
283.15
283.15
303.15
303.15
303.15
301.176
303.15
303.15
303.15
303.129
283.168
283.15
283.553
303.15
301.979
283.15
303.142
296.02
283.15
294.459
303.15
303.15
283.15
299.833
283.906
303.15
283.15
299.862
303.15
297.643
303.15
295.187
303.15
283.15
303.15
283.15
299.369
283.15
283.222
283.15
286.146
303.15
303.15
283.15
283.15
303.15
303.15
303.15
303.15
284.837
284.69
283.15
303.15
283.231
283.15
283.15
303.154
289.813
283.535
283.15
301.463
284.846
300.435
288.121
303.15
303.15
303.15
303.15
283.15
283.15
283.15
303.15
283.15
283.15
303.15
283.15
297.18
283.15
303.15
283.15
303.15
303.15
283.283
283.15
303.15
301.915
303.149
303.15
303.15
303.15
288.659
283.15
303.15
303.149
283.15
303.15
303.15
303.15
295.273
283.15
283.177
303.15
303.15
303.15
303.15
303.15
303.149
303.147
284.086
303.15
283.15
303.15
303.149
303.15
303.148
303.149
283.15
283.15
283.15
303.15
303.15
283.15
303.149
283.15
287.659
283.15
301.757
283.15
303.154
303.15
284.573
283.15
284.418
297.326
303.15
284.655
303.174
303.15
297.335
283.15
303.15
303.15
303.15
303.15
283.15
303.15
303.15
299.083
283.15
303.15
303.15
303.15
303.15
292.274
290.094
303.171
283.164
303.15
301.79
302.304
303.15
283.15
283.15
303.15
303.15
303.15
283.15
283.15
283.804
303.15
303.15
303.2
303.151
283.15
288.801
303.15
283.15
303.15
287.973
303.15
283.15
302.079
283.15
283.15
283.15
303.15
299.587
303.15
303.15
303.15
283.15
284.47
293.488
295.131
289.491
303.117
303.012
283.15
283.15
301.019
283.679
283.15
303.149
303.15
303.15
283.15
294.451
303.15
283.15
302.971
303.15
303.15
283.775
303.15
303.15
288.327
289.479
303.15
283.15
303.15
283.15
303.15
303.15
303.15
303.15
283.93
303.15
303.15
303.15
302.919
303.15
303.15
283.15
283.15
283.15
283.15
302.931
283.15
283.15
300.913
303.15
284.732
284.888
303.15
301.079
303.15
283.15
303.15
283.15
283.15
303.15
303.15
303.15
302.651
303.15
303.15
303.15
283.15
303.15
283.15
286.33
303.15
303.15
291.539
303.15
283.15
283.15
302.399
303.15
303.147
283.15
303.184
286.602
283.15
283.15
299.136
283.15
283.15
303.048
303.162
293.267
303.167
303.151
303.153
283.15
283.15
302.628
283.439
285.754
300.832
283.156
283.15
290.978
301.544
301.445
283.15
300.193
290.638
300.11
302.19
302.711
284.649
295.419
299.169
286.21
293.26
300.082
303.15
297.968
297.512
302.773
283.654
292.276
301.129
287.278
303.15
300.965
303.15
300.678
301.458
283.629
284.955
303.15
283.15
302.281
301.648
283.146
303.173
288.492
302.668
301.784
300.776
303.15
303.235
301.073
294.904
300.41
288.804
302.9
301.641
302.189
302.255
284.196
302.485
301.553
283.177
303.15
302.886
303.15
303.15
302.063
301.971
294.221
303.15
284.646
292.225
292.27
300.755
303.15
283.979
285.153
284.378
303.15
298.737
303.15
296.382
295.267
300.671
303.141
303.15
303.15
301.906
301.215
302.771
303.15
292.544
302.736
289.901
283.15
298.341
293.923
303.15
300.498
283.15
283.202
283.15
302.544
303.092
303.15
302.979
298.317
283.148
300.484
302.204
295.283
283.525
295.744
296.982
283.448
303.132
284.719
296.318
283.315
296.747
300.443
300.192
300.312
301.956
289.58
301.536
303.15
302.712
302.642
302.653
296.523
302.888
283.15
301.989
293.393
303.15
283.423
286.797
301.174
302.576
290.456
284.791
287.623
302.602
296.318
303.15
303.15
294.94
283.15
292.6
283.419
303.15
290.503
290.214
283.894
303.15
297.215
298.506
284.212
301.197
294.138
290.113
300.491
303.111
303.15
303.15
283.518
302.597
283.34
285.759
303.15
303.017
303.033
303.15
285.373
300.838
297.796
283.242
299.473
302.342
300.453
286.859
283.15
303.103
301.776
283.726
283.134
303.15
303.07
303.15
303.15
284.164
302.52
296.393
283.034
283.153
303.15
283.15
302.948
303.04
302.487
301.378
303.15
283.15
283.15
301.795
301.852
283.21
295.893
303.15
303.15
301.586
285.469
283.256
301.65
301.755
301.692
284.372
303.15
283.15
298.47
297.697
303.15
302.685
302.05
284.61
284.941
302.085
303.056
303.15
298.111
284.396
283.15
303.15
300.56
301.178
301.984
289.552
302.044
285.628
300.112
300.292
290.284
297.486
303.15
303.15
300.894
284.439
302.061
283.151
300.436
301.669
283.618
288.243
302.398
283.15
283.15
283.029
303.15
303.15
299.91
298.883
302.256
283.148
283.15
283.913
283.151
283.15
283.151
303.075
300.879
299.096
295.81
283.362
303.09
300.081
303.15
283.15
302.535
289.182
300.767
292.655
283.501
303.056
283.148
283.15
302.824
301.172
302.593
283.155
291.141
284.859
303.15
284.235
300.997
283.15
283.303
284.921
284.069
283.15
283.15
301.609
283.15
289.316
302.511
302.687
301.763
283.467
298.076
289.917
283.15
303.351
292.02
283.15
283.15
283.15
303.15
301.193
302.394
299.112
301.428
299.896
288.808
283.154
290.928
290.105
303.057
290.979
299.965
292.017
283.15
286.272
301.037
301.543
283.15
283.97
299.629
283.15
303.15
283.186
301.237
303.15
283.992
302.252
303.015
303.15
283.15
292.728
303.153
301.663
283.15
283.15
283.15
302.162
297.493
303.144
302.17
303.167
303.15
288.325
303.167
290.387
300.175
300.134
296.529
283.156
301.663
283.15
290.522
301.377
289.389
290.431
298.914
300.664
301.561
287.125
291.091
284.969
283.171
302.19
286.087
283.15
283.144
300.151
283.081
300.249
286.947
296.041
299.381
289.127
299.227
283.122
299.153
283.15
289.925
288.822
298.592
283.325
283.15
300.506
283.15
302.784
283.15
303.15
286.427
286.433
283.15
298.936
298.564
286.972
303.15
303.15
301.677
289.735
302.98
283.718
301.541
287.032
303.147
284.172
288.115
303.15
301.385
283.15
283.15
287.509
286.977
283.145
285.221
301.462
286.182
301.224
303.15
285.085
301.714
291.143
303.15
303.15
301.578
302.018
303.15
292.95
294.239
283.655
296.34
286.739
289.943
303.15
302.738
296.978
284.959
283.15
287.668
291.828
299.569
283.161
283.74
282.959
301.921
303.113
283.151
303.132
303.15
300.543
292.958
298.778
293.769
283.15
291.892
295.864
285.537
283.211
291.285
283.15
300.287
303.165
292.452
284.084
303.143
291.793
298.548
288.189
300.339
291.284
287.268
283.15
303.141
285.302
289.833
293.382
283.15
283.15
283.15
303.14
283.15
283.137
286.37
303.15
283.15
303.168
283.172
291.076
288.674
303.564
302.905
289.793
303.15
296.926
303.177
301.986
287.22
283.15
292.856
303.144
303.091
286.144
283.15
283.15
283.463
285.96
303.049
303.143
287.471
289.421
283.472
283.162
289.789
293.163
303.15
283.15
303.094
303.15
302.314
284.976
302.325
303.091
284.043
283.762
284.028
302.855
302.148
297.367
293.986
303.066
291.184
290.974
303.15
303.095
302.569
285.393
283.374
303.15
285.9
283.381
302.926
301.688
302.15
283.15
300.299
301.829
303.15
302.125
285.364
303.15
297.836
303.15
283.15
300.665
302.665
286.267
302.475
283.15
285.139
303.001
283.15
302.28
285.325
294.802
284.309
303.15
303.015
302.879
286.453
283.15
287.073
284.233
289.708
285.694
302.23
303.15
283.15
283.15
293.086
283.15
301.025
302.136
290.302
283.15
293.992
283.15
303.15
283.15
300.077
298.511
283.151
285.234
301.722
303.063
303.155
291.786
294.132
301.159
283.197
301.795
283.145
303.15
303.144
298.842
283.15
300.611
294.707
303.15
300.916
287.246
301.95
284.867
288.137
283.15
302.196
287.657
298.372
303.078
283.15
303.15
291.601
302.135
283.079
283.147
286.709
298.258
303.149
284.421
300.982
300.953
301.21
303.153
299.839
287.568
284.879
301.549
299.833
283.705
283.107
303.16
303.149
303.15
297.292
283.163
283.15
303.15
303.149
289.837
298.877
300.25
287.707
302.787
303.15
286.382
301.567
303.15
300.924
283.784
301.42
303.15
284.523
301.366
295.493
302.758
303.15
303.15
285.13
295.006
296.307
287.32
303.15
303.15
283.15
287.141
302.374
296.093
303.15
285.517
303.15
303.15
300.439
288.65
283.15
295.468
295.801
299.053
283.15
303.15
292.599
287.151
303.15
297.883
300.464
300.366
303.15
303.15
303.15
300.172
298.266
302.779
299.834
283.15
292.824
287.591
290.527
300.513
303.15
303.15
300.713
303.091
286.483
296.011
303.15
303.147
283.15
286.383
298.846
285.526
303.15
303.15
283.334
303.121
303.15
303.15
283.15
290.449
303.15
303.15
284.553
299.25
283.15
303.15
284.58
301.279
300.102
286.924
294.917
303.15
283.49
303.15
303.15
283.309
300.483
290.337
300.334
303.15
303.129
302.138
292.521
299.699
301.288
284.414
283.447
300.847
298.318
303.15
302.741
284.114
299.674
301.339
287.603
303.15
297.348
301.368
301.455
301.497
292.827
303.15
283.15
299.098
283.15
283.15
287.677
283.15
283.985
283.15
283.15
283.15
283.15
302.736
288.077
302.684
283.15
295.599
290.865
284.7
283.15
303.15
302.658
301.696
303.161
302.614
283.15
294.73
300.199
290.087
283.15
283.15
299.729
285.879
283.15
283.15
303.149
290.487
283.15
287.065
303.149
303.152
284.279
283.15
288.132
291.973
300.763
294.557
302.945
285.56
302.483
295.146
286.199
283.15
283.531
291.496
303.067
288.983
302.635
283.15
292.301
287.676
300.984
301.274
284.867
303.099
284.868
296.936
302.983
303.146
285.083
303.145
302.999
293.18
302.678
283.15
303.15
303.15
294.64
290.913
283.155
301.014
284.638
284.12
284.58
303.145
288.262
300.398
283.15
283.15
302.474
303.15
294.425
302.883
303.183
299.708
303.224
302.87
283.15
301.245
302.866
283.15
303.15
301.276
303.15
284.287
298.643
283.163
291.423
283.15
287.502
303.005
299.688
283.15
303.018
290.822
301.174
303.123
303.076
283.15
283.15
301.926
301.965
283.782
302.802
302.388
302.355
303.141
283.15
293.615
283.15
302.779
287.789
302.979
303.15
283.15
302.804
285.083
291.403
302.015
283.15
302.558
301.956
301.516
302.457
303.04
303.213
303.003
303.15
283.15
301.472
297.755
303.086
303.15
289.832
284.805
303.15
283.15
285.265
303.184
303.166
302.906
301.071
284.236
303.094
290.658
294.149
303.148
288.945
303.164
283.15
289.775
283.15
299.883
298.029
284.745
288.081
299.513
296.63
295.186
299.075
293.628
303.154
293.808
296.253
283.161
299.281
293.778
303.15
298.843
299.038
303.15
291.087
303.171
301.615
303.15
286.844
285.969
302.78
289.584
283.15
283.15
300.26
301.147
283.705
283.15
303.15
300.151
302.287
300.566
299.796
302.768
292.478
289.558
286.566
292.402
284.265
290.295
283.301
295.657
290.339
293.825
287.026
284.25
303.164
283.27
303.148
285.527
300.635
283.151
300.394
298.361
288.645
302.08
285.349
298.97
283.15
302.942
283.154
283.118
287.498
299.545
303.15
300.307
303.014
299.849
302.743
303.15
301.197
284.908
294.821
302.005
303.149
283.686
283.15
290.214
285.195
285.69
303.123
303.148
283.15
283.15
283.175
303.15
293.353
303.15
303.146
293.809
303.437
303.15
300.387
303.15
303.15
293.557
290.494
303.15
289.742
302.02
289.472
303.15
303.15
285.828
283.33
290.224
303.228
303.15
303.145
285.41
283.239
283.15
288.874
287.485
303.15
284.272
303.15
303.15
303.131
287.26
303.15
303.147
283.269
303.152
302.634
287.84
283.153
283.575
297.328
290.631
303.15
285.879
284.397
301.271
287.035
302.155
290.488
293.734
303.15
303.15
283.979
303.146
302.937
295.847
302.937
302.721
287.096
283.15
285.269
283.215
297.035
302.577
285.32
303.15
283.768
286.647
303.123
283.175
303.15
286.331
283.15
300.102
303.15
299.626
299.74
283.295
283.353
302.297
290.732
301.347
303.15
301.337
301.697
303.15
303.15
298.235
293.309
283.15
288.691
303.15
295.19
283.348
303.15
296.791
298.653
288.905
303.15
302.736
294.116
295.278
284.424
303.16
298.6
296.01
283.957
303.122
302.787
287.286
298.34
289.727
290.699
289.65
283.15
302.935
303.151
303.15
303.177
292.983
296.2
302.97
301.225
303.15
284.411
303.15
303.035
302.842
303.15
293.429
296.156
303.15
285.317
303.093
303.15
303.085
303.158
285.993
293.235
290.994
288.316
293.326
303.15
301.156
291.332
295.214
293.344
303.14
303.15
300.478
303.191
284.211
303.192
303.15
303.15
303.143
303.15
284.882
303.15
284.179
303.146
303.15
290.085
303.144
292.375
295.393
303.133
295.231
285.927
283.433
303.123
302.933
284.645
283.15
297.01
303.15
285.444
302.895
302.004
303.016
298.418
286.96
303.15
298.609
289.808
299.216
283.15
283.605
303.15
303.145
303.191
293.986
303.15
292.31
289.226
303.196
303.15
284.729
298.67
293.125
299.501
302.445
301.577
300.309
303.15
284.673
296.944
302.346
285.544
298.322
292.158
284.421
291.543
303.15
286.523
291.718
290.034
299.345
303.15
286.374
284.06
303.15
302.403
288.055
302.08
283.15
303.15
299.752
301.644
288.902
301.942
301.914
301.768
303.15
289.23
285.069
301.918
302.2
297.028
303.15
283.199
303.15
301.942
303.15
302.784
303.15
291.568
303.15
296.415
283.15
289.391
303.15
283.15
292.115
301.397
300.345
289.099
300.429
303.15
302.465
303.15
302.349
285.166
303.15
300.331
290.287
303.15
300.74
303.15
303.15
293.105
283.15
285.471
293.117
300.856
303.15
291.065
293.727
288.083
289.566
288.027
299.158
300.244
300.726
287.298