/*--------------------------------*- C++ -*----------------------------------*\
  =========                 |
  \\      /  F ield         | OpenFOAM: The Open Source CFD Toolbox
   \\    /   O peration     | Website:  https://openfoam.org
    \\  /    A nd           | Version:  10
     \\/     M anipulation  |
\*---------------------------------------------------------------------------*/
FoamFile
{
    format      ascii;
    class       volScalarField;
    location    "17";
    object      SgRate;
}
// * * * * * * * * * * * * * * * * * * * * * * * * * * * * * * * * * * * * * //

dimensions      [1 -1 -3 -1 0 0 0];

internalField   nonuniform List<scalar> 
111485
(
1.69992e-09
1.71555e-06
3.38603e-06
5.33007e-12
3.4884e-05
2.49008e-09
3.17402e-07
1.11324e-08
2.70207e-07
0.000434504
5.99536e-07
0.0010126
1.55701e-07
0.00517305
1.59174e-07
2.80442e-07
0.00390592
1.99683
2.10185e-08
2.51518e-08
0.000692799
2.32245e-10
5.73755e-08
1.93691e-07
1.43859e-05
2.17561e-09
0.024864
1.77134e-07
1.06632e-06
0.000902691
0.0434901
1.22173e-09
6.38095e-09
2.55519e-08
0.00968483
1.802e-06
0.0129383
0.00370606
4.2712e-05
7.40896e-08
0.000722328
0.0482242
6.30349e-08
0.000933883
3.71153e-05
3.90994e-08
0.032187
1.57096e-08
0.031144
1.45086e-08
2.96971e-08
3.58524e-07
1.06656e-08
0.0450852
3.48938e-08
3.48171e-09
3.0826e-08
4.18559e-10
2.62966e-05
9.48366e-09
2.21404e-08
5.81932e-09
2.05045e-06
0.0884925
1.49983e-07
4.468e-07
0.300978
2.55033e-08
1.47341e-06
3.24952e-06
7.57093e-06
1.97419e-06
2.1499e-07
1.88338e-06
5.78018e-09
1.49139e-09
1.12165e-09
0.0261391
1.98194e-09
5.11567e-07
0.00502006
0.0404725
9.29917e-10
2.18181e-09
3.82568e-07
6.8906e-07
0.00249495
0.0223497
5.09432e-05
8.67055e-08
0.000866428
1.52665e-07
9.2625e-07
4.02798e-09
0.037185
4.24518e-10
0.000505082
0.00144417
3.01524e-05
0.00147823
5.11046e-10
0.00579331
3.54577e-08
0.00279468
1.37457e-07
2.64856e-07
1.92494e-10
9.39255e-09
3.11931e-07
1.18904e-05
1.91519e-07
2.11307e-08
2.60033e-07
0.00746747
5.61041e-09
4.19014e-09
1.56824e-09
1.64877e-07
5.17453e-07
1.56158e-10
1.14405e-09
3.3606e-06
0.00124903
4.51687e-08
0.00122984
0.000533187
1.97749e-06
2.22962e-07
1.76099e-11
0.000178888
0.000993403
0.0280202
0.000884792
3.16972e-06
1.47283e-06
5.09212e-09
1.99555e-10
2.00238e-08
2.5744e-07
4.87326e-07
0.0153465
3.32348e-09
0.00333671
1.71514e-06
0.0047636
5.5245e-08
2.29815e-10
8.28356e-10
2.22209e-09
2.23539e-08
6.1081e-07
0.000530751
0.00197926
1.39201e-07
1.66917e-06
1.17976e-09
8.79667e-08
2.90011e-06
1.6346e-05
1.09077e-07
7.09633e-11
3.04517e-09
8.47639e-07
6.27866e-06
1.58204e-06
6.71312e-07
0.00367553
0.000451772
3.74537e-05
6.83174e-05
4.10235e-11
2.0897e-09
0.00349307
2.62122e-11
6.00525e-09
2.71322e-09
8.29464e-09
1.6111e-07
4.08812e-09
1.01896e-07
1.51401e-07
4.99593e-09
3.06746e-08
8.52065e-09
6.7086e-08
4.25799e-07
0.00758346
6.8474e-07
0.000100903
5.56932e-09
8.10862e-07
8.89452e-08
1.31589e-07
4.58065e-07
0.00476394
0.0228687
4.57386e-08
1.03106e-09
2.00856e-08
1.62237e-07
3.20985e-08
7.32549e-05
0.010623
3.6147e-09
3.05501e-08
9.41163e-08
0.00195339
1.98994e-07
0.000228478
0.00596083
9.07436e-08
1.31931e-07
1.42918e-07
1.10481e-10
1.52877e-06
5.06247e-06
0.120096
2.97462e-10
2.39149e-07
3.20214e-07
0.0895914
1.35316e-09
1.34994e-07
0.0130898
5.03503e-06
1.15644e-10
2.223e-11
0.166637
7.41945e-05
4.08705e-07
1.72872e-06
2.11864e-07
1.13904e-09
0.00261905
6.51904e-07
2.0785e-07
0.00285515
1.38724e-09
9.0415e-07
3.97541e-07
3.58878e-07
5.46729e-07
1.23524e-07
7.49329e-08
3.35087e-05
6.54694e-09
1.44422e-07
1.48673e-09
0.0310584
0.00244837
3.58008e-07
1.75282e-07
2.15608e-07
2.54446e-11
3.63815e-06
0.000148473
5.70798e-09
1.21183e-06
0.00184319
1.53073e-09
9.30549e-08
7.61228e-07
2.70864e-08
6.55709e-11
8.89834e-08
1.58344e-11
9.67606e-10
1.24521e-08
0.00296751
0.0232361
6.08534e-07
2.17331e-08
0.00542815
4.05677e-07
1.72792e-08
0.000593387
1.48922e-08
2.57399e-08
9.41717e-09
1.83667e-09
0.00202706
1.31921e-08
0.0289728
8.36531e-08
2.66089e-11
0.00401903
0.00489399
4.07211e-08
0.0580613
4.95697e-06
7.20547e-08
1.79273e-07
0.00187951
1.64546e-10
8.88876e-05
3.15909e-10
6.85262e-06
4.94055e-06
0.266573
0.00415114
0.00613924
6.05031e-09
0.00144089
1.99619e-08
4.35954e-08
2.32749e-10
2.20242e-09
0.000461983
5.14973e-08
3.92795e-08
1.51308e-07
2.61951e-06
9.1651e-09
4.57481e-07
7.73127e-10
3.91427e-09
9.28706e-08
7.58598e-05
0.00444781
0.187001
1.45251e-05
1.7297e-10
1.02486e-09
4.48799e-10
1.49466e-06
3.60131e-08
2.59906e-06
5.71652e-08
1.17015e-08
1.31993e-06
0.00112862
0.064945
1.06453e-08
0.00119892
3.8628e-08
0.000795752
9.28598e-07
1.07583e-08
2.51106e-08
3.92574e-09
0.00469124
2.6582e-09
0.00264777
0.000229538
2.74652e-06
8.24883e-08
6.82041e-05
1.7217e-08
0.000652042
9.28928e-09
2.22681e-07
0.00785896
0.0230876
1.73194e-06
1.7563e-07
6.85724e-09
9.12768e-09
2.13769e-08
6.76728e-08
0.00663917
0.00344323
1.09191e-08
0.000882313
3.21141e-05
4.19158e-10
8.77268e-09
7.75342e-09
0.000880206
0.0400861
0.000856222
0.000824261
4.77206e-09
2.16558e-10
5.82096e-08
1.67571e-06
3.65125e-11
1.66384e-07
5.44454e-08
2.83774e-07
5.68021e-07
7.20723e-05
9.43634e-08
0.000449854
4.05224e-08
1.04406e-07
8.97556e-07
1.22977e-08
0.00133681
5.51641e-09
0.00174355
0.110137
0.000503783
1.99466e-09
1.33012e-09
0.00273139
9.9464e-08
0.00572586
7.80718e-09
0.039037
0.000739189
1.32156e-10
0.000679219
1.25197e-05
1.83188e-09
0.000596811
6.73566e-08
1.02834e-05
1.66377e-08
3.23319e-10
1.31585e-05
3.57191e-10
5.44021e-05
6.68742e-08
1.33046e-12
0.000752634
3.38362e-06
0.0170595
5.84978e-05
3.90012e-11
1.44054e-06
0.00110951
1.78425e-06
0.00010672
0.0096995
0.107906
0.905685
9.83723e-07
0.00362136
0.000238663
3.80041e-09
0.0353728
0.00031056
1.94484e-09
2.43519e-05
2.79822e-05
1.3875e-06
0.00117847
0.000489832
2.9946e-07
3.65773e-09
0.00603425
0.0112208
6.36318e-07
8.50589e-05
1.68271e-06
2.48907e-05
1.23019e-09
0.00451432
0.00569483
4.11794e-10
0.00017011
0.00593622
2.00309e-06
6.19441e-11
4.75305e-07
4.25628e-10
0.00533778
1.26898e-06
0.000100279
2.82448e-05
0.00337096
4.64395e-09
0.000293264
1.35128e-08
7.72731e-05
2.93036e-09
1.79427e-08
0.000977557
0.000645661
1.78796e-09
2.07547e-09
7.61401e-06
1.54073e-09
3.14534e-08
0.00073512
6.74852e-11
1.06192e-06
1.66668e-09
0.00138474
8.48893e-09
4.47084e-08
3.12965e-09
0.000126681
8.87465e-09
0.00404322
0.00993693
0.00677631
5.37416e-10
0.000478404
4.68541e-08
6.08961e-11
0.00652191
0.00253358
0.00109667
0.0222561
5.65471e-07
0.00253848
0.0859446
1.25556e-08
6.14683e-07
0.00524578
1.05611e-09
1.85451e-08
1.93444e-06
0.0030953
0.000986913
0.0809852
2.00314e-06
2.10231e-08
0.00169201
1.32935e-05
0.00136538
1.31223e-07
9.68133e-09
0.0765841
0.0524194
6.03228e-08
2.30997e-08
4.00873e-07
2.10865e-11
3.02297e-05
0.0420952
6.52913e-09
4.78994e-09
1.95051e-06
4.9946e-10
0.0375334
4.12174e-09
0.00023328
1.27218e-09
0.00221734
0.0121956
4.89944e-07
1.51528e-09
0.00108549
0.00171207
5.65056e-09
4.18677e-09
0.00192419
3.85131e-09
1.07992e-05
2.9327e-07
0.00307801
0.000795452
0.0303782
9.22377e-11
8.18926e-07
0.0121902
0.000248011
0.00297855
0.000587485
0.0032844
0.000193583
1.8775e-08
0.0141103
0.000945157
1.42825e-10
0.00225947
0.031602
0.0161057
3.41904e-08
0.00552532
8.62322e-06
0.0573285
0.00143398
6.14591e-06
0.00170405
2.29052e-05
7.23396e-05
0.00644925
0.00199353
0.00109681
1.31321e-06
6.49999e-05
0.621592
5.93848e-09
0.000139287
8.13621e-08
6.14409e-07
9.21556e-09
0.00364887
4.96436e-05
1.80756e-05
3.0379e-06
0.0041651
1.05122e-05
6.29072e-09
3.4992e-06
9.77867e-06
1.44921e-09
5.22191e-11
9.02202e-09
8.02991e-10
0.00451458
3.0028e-11
0.000651099
0.00324304
4.94675e-07
0.00181202
0.00594773
1.01812e-06
5.75868e-08
0.000691455
6.91671e-10
0.0212609
3.29467e-09
9.91255e-09
8.02154e-07
2.81191e-07
0.00208423
0.0166712
3.5776e-10
6.43851e-08
0.072721
0.00370002
5.18901e-05
0.023565
0.000931525
0.0034657
0.000696075
0.0436993
0.000132702
1.31934e-07
4.71242e-08
0.037025
0.000249941
5.21488e-07
0.000412714
0.000586406
2.15245e-08
0.012984
1.61828e-05
5.46337e-07
0.000321714
8.70875e-05
1.23138e-05
9.17673e-10
0.00058722
0.00101094
0.00218524
0.00463135
1.08867e-08
6.91601e-08
0.00196854
0.000101541
3.14784e-06
0.0160752
0.0143015
3.02922e-08
9.50716e-09
3.81716e-07
9.93209e-08
2.15378e-09
0.00129589
6.06032e-10
0.00242548
1.01179e-06
0.000231325
1.32053e-08
0.000492522
0.00427744
0.0248792
2.99481e-10
0.023965
6.00034e-09
4.14094e-10
2.00885e-08
0.0400849
0.000175698
5.62388e-07
0.000762504
2.27061e-09
4.12944e-10
0.237981
3.67543e-08
1.49054e-06
0.000465257
7.07671e-06
6.48478e-10
0.0124005
0.00883059
0.00292288
9.25705e-12
3.67472e-09
2.90155e-08
1.60588e-09
2.2771e-06
9.09802e-09
0.00104535
1.43176e-08
1.12873e-09
4.47189e-09
0.00075927
0.0123663
3.20835e-06
1.8964e-11
4.12144
0.142995
0.00315567
2.53212e-10
2.56267e-09
0.0534832
0.000306942
7.51726e-07
1.71568e-05
0.170143
0.00236224
4.19658e-09
0.00105399
6.40342e-06
0.00158137
1.45574e-09
2.51253e-08
4.949e-09
3.7533e-09
1.14157e-09
2.54974e-11
0.00377314
1.36284e-09
8.46889e-09
1.94214e-08
0.0103452
7.213e-09
4.82561e-09
1.48715e-08
0.100722
1.9223e-07
2.12542e-07
8.74042e-09
7.27388e-10
3.40083e-07
2.1425e-11
0.000254287
3.47049e-08
7.06387e-08
2.91305e-09
8.48302e-11
2.13904e-10
4.2335e-11
1.57453e-06
2.08327e-09
1.18389e-08
0.000827887
2.17094e-10
3.17025e-07
0.000754088
6.89199e-08
1.29298e-08
0.599922
4.28446e-08
0.0199441
8.86776e-05
0.04715
0.00376534
1.47863e-06
2.18421e-07
0.0746247
4.50347e-09
3.4536e-07
0.00169258
0.51748
4.73112e-09
3.91472e-09
0.00258702
0.00268996
0.00127954
1.36493e-06
7.69968e-11
4.74073e-13
1.46762e-08
6.7344e-07
4.87919e-08
6.94529e-08
3.20826e-06
1.96407e-09
2.25074e-07
4.16731e-10
2.86463e-09
0.000558349
2.00064e-07
1.05981e-08
2.08268e-09
8.906e-07
4.51577e-05
3.38362e-08
8.19126e-09
0.000759989
3.56246e-11
1.73951e-07
0.00106067
6.44786e-10
0.00125279
7.64993e-07
0.000617688
8.8618e-06
5.54163e-09
3.51417e-06
1.19727e-07
0.000852497
1.77533e-05
3.49121e-05
0.002861
8.78411e-05
1.475e-07
2.11225e-08
3.73332e-05
0.01786
0.00337258
3.18704e-09
0.0041871
3.62517e-08
2.97948e-06
1.61155e-07
0.000300071
2.28166e-05
7.14804e-07
5.09121e-08
0.00216089
3.10706e-08
1.04321e-08
0.000765768
3.41592e-09
1.81062e-07
1.44505e-07
9.86678e-10
1.84174e-08
0.00567647
3.82545e-08
6.25531e-09
0.00167113
8.17003e-10
2.34575e-09
0.00382316
7.82281e-09
0.00332877
0.00617021
2.44403e-05
2.52838e-07
1.8806e-08
5.59276e-08
2.0355e-05
0.00186491
6.06815e-05
1.89644e-05
7.88519e-08
0.000762801
0.00822919
6.04915e-10
0.0104382
0.000332777
2.21336e-05
8.41902e-06
1.61967e-05
4.30489e-06
1.03773e-10
1.28441e-06
1.52643e-08
1.38044e-08
0.00118548
0.00849797
4.34567e-09
5.63308e-09
5.78878e-05
6.19344e-05
4.30537e-11
1.45598e-05
9.8605e-09
2.30192e-10
3.46035e-10
7.6983e-09
1.06102e-07
8.23865e-09
0.000327914
0.000856339
5.60527e-11
1.36614e-08
8.37833e-05
0.00212838
1.4012e-06
1.40876e-09
0.000544607
7.00339e-11
0.000236383
5.46755e-10
8.52855e-10
1.07701e-05
0.0219193
4.38931e-08
1.99307e-09
3.26758e-09
0.000593833
8.50494e-09
0.000388428
4.63938e-09
0.00845919
1.39759e-10
3.86621e-05
5.38521e-08
4.34001e-11
1.79234e-08
1.00474e-08
4.25292e-05
1.59652e-08
3.53884e-09
3.52937e-08
9.09761e-05
0.000907107
0.00530454
1.16044e-05
2.04065e-05
4.03183e-09
6.92761e-05
0.00256594
4.52733e-09
4.9498e-08
9.76685e-06
0.0049575
4.60525e-09
1.56529e-07
2.79112e-06
4.14093e-09
1.65185e-08
1.80052e-08
0.00395331
0.00125646
9.75969e-11
1.74544e-09
0.00101243
2.12504e-06
1.34774e-06
2.92023e-10
3.24093e-08
2.85059e-09
1.96653e-08
3.08131e-06
9.0476e-07
1.78025e-08
0.00146427
4.42191e-07
0.00112063
3.95094e-07
9.43179e-11
6.24086e-08
7.99812e-11
1.07029e-08
1.59224e-06
0.338987
3.64728e-09
8.62134e-09
4.10724e-08
8.29878e-11
7.84659e-07
9.30177e-09
0.00303407
2.08711e-05
7.13776e-05
4.80685e-09
3.33235e-05
3.21508e-05
1.30897e-06
7.24072e-05
8.49784e-10
0.00177092
0.023514
0.00220346
0.00164524
0.000328482
8.95068e-09
1.32625e-11
1.27883e-09
0.00329864
0.00125597
0.00545304
8.1717e-12
0.175969
6.44935e-10
0.00310073
3.33104e-06
1.50492e-08
2.53533e-09
4.86527e-08
1.55983e-08
0.0313599
4.40367e-08
2.10249e-06
0.00554462
0.00535193
1.29047e-06
5.23707e-07
1.33798e-06
9.23619e-07
7.91881e-09
1.20044e-11
0.0204006
0.000311684
4.7527e-09
3.73963e-09
1.11238e-05
6.8424e-09
0.00131878
0.00779891
2.71091e-08
0.00273287
1.30746e-11
2.05788e-08
3.74188e-09
0.00619015
3.89483e-10
0.00214956
0.000107378
0.000878238
0.0145982
0.0277144
1.88227e-05
4.59978e-08
0.000438144
4.8311e-08
8.01366e-09
1.29575e-08
3.8299e-08
1.52542e-06
5.64452e-08
0.00118882
4.63502e-09
0.00572141
0.00633488
9.25499e-11
7.27532e-06
4.57926e-09
0.000549879
3.17578e-05
2.3508e-09
2.63039e-09
0.000214586
9.74994e-09
5.93189e-08
0.003342
9.35028e-09
0.0134617
1.30994e-10
0.000778553
1.59075e-07
1.22181e-08
1.13483e-08
8.10084e-08
0.10437
1.41424e-09
0.00292209
3.22996e-07
5.04042e-11
0.000680041
8.18931e-09
1.35422e-10
0.00228469
1.60285e-05
0.00592085
4.47961e-10
3.42413e-08
8.4092e-10
1.01333e-06
8.68567e-07
0.000643251
1.06153e-07
1.49291e-05
1.25391e-06
3.25486e-05
5.22159e-07
5.38639e-08
2.20092e-08
2.38836e-08
3.01397e-07
0.000910696
1.64681e-07
0.000820171
1.44129e-05
0.000801462
4.27059e-11
6.62329e-08
1.80169e-09
4.53306e-06
0.00025755
1.87637e-08
0.000247388
8.91741e-06
1.02323e-05
1.5396e-11
0.000112696
0.000144166
0.0498529
0.00123993
1.57252e-08
1.57797e-05
3.69349e-08
5.64716e-05
7.13351e-09
1.18198e-09
3.40212e-05
0.0629402
1.65768e-05
1.51712e-08
0.000792904
1.19426e-05
1.60465e-08
1.97242e-08
2.08976e-05
5.8773e-08
0.0010403
0.00505916
0.000144121
0.000110578
1.21776e-07
1.5035e-09
4.71167e-10
2.87903e-09
4.99426e-06
8.4416e-08
0.000582784
0.00102666
0.000175922
4.6832e-09
5.65978e-06
0.000704187
4.61808e-07
2.11038e-05
2.5222
0.000739211
0.00285202
0.000859548
0.0153827
1.56925e-10
3.59167e-05
3.18724e-08
3.4737e-09
4.58657e-09
5.49892e-09
6.50213e-07
1.28762e-09
3.31206e-09
1.56177e-06
2.32965e-09
2.4721e-10
1.71502e-08
3.70048e-09
0.00100099
8.21475e-08
0.00234356
0.00129159
0.00532493
1.99584e-09
0.00372507
4.7348e-06
0.00683684
2.35041e-07
1.36961e-09
2.91621e-09
1.08056e-06
0.00465085
3.77032e-11
2.38751e-05
1.91055e-09
8.12071e-09
2.89575e-07
4.41906e-08
2.78808e-08
5.83663e-09
0.00131166
2.5965e-09
1.41975e-08
4.74505e-09
9.22896e-09
1.25453e-08
9.03078e-06
6.21992e-07
1.98461e-08
6.55559e-06
0.00157966
9.89608e-09
0.000149346
2.20705e-08
1.6177e-07
3.80203e-09
2.33079e-09
0.00497064
0.000743948
0.000109591
6.00973e-09
6.80636e-10
3.16952e-08
0.00385256
1.18657e-08
1.82824e-07
0.217482
3.9512e-08
5.23339e-10
0.000600233
2.94371e-06
5.79427e-09
2.10258e-08
0.0132819
3.16666e-09
0.00330176
3.68244e-10
0.000756225
1.77548e-06
0.00960018
3.06423e-10
2.24252e-08
2.49545e-08
3.82516e-09
4.19495e-08
7.56008e-08
2.29361e-11
1.22869e-10
1.76481e-06
0.00136757
2.57537e-10
7.43283e-07
4.58089e-08
5.79187e-06
5.19981e-09
0.000821962
3.21224e-08
0.00180733
1.0782e-06
7.6687e-09
1.31772e-06
4.84682e-08
3.13767e-07
3.45323e-09
6.44834e-09
2.81508e-07
1.38143e-09
2.23468e-05
1.1727e-06
1.26038e-09
5.76293e-09
2.9499e-06
9.51621e-06
0.00555986
2.49701e-09
0.284405
3.95365e-08
6.62707e-06
3.53336e-06
5.87559e-07
1.56269e-06
0.00135968
8.66476e-08
9.52877e-07
0.000175879
0.00115442
1.52412e-08
9.31529e-10
7.48535e-06
3.51594e-06
0.000707509
4.90746e-09
5.65145e-06
1.80032e-06
4.35014e-09
0.00412494
1.22505e-09
1.08764e-08
0.0081901
8.1861e-05
0.00662645
0.000971275
8.76816e-09
2.42768e-09
7.11401e-11
1.11011e-08
1.06721e-08
1.74667e-08
2.98562e-09
1.33591e-10
3.90594e-09
1.92355e-10
5.39313e-09
0.001066
0.000635177
2.07537e-10
2.61885e-07
4.08629e-09
8.39337e-09
2.10894e-09
0.00062297
0.0015455
1.09595e-05
4.38998e-09
1.38584e-09
1.65516e-08
3.78572e-08
8.8273e-08
5.81408e-09
0.195011
5.00271e-09
5.40619e-08
1.12514e-07
3.20778e-06
1.00045e-07
0.00439451
5.05432e-08
4.8798e-09
0.00128475
0.00217996
6.07913e-09
0.0112145
7.96384e-08
2.67715e-07
8.63555e-07
1.96682e-07
7.39057e-08
3.46089e-09
0.0060975
2.19332e-08
1.06954e-06
0.00106923
2.44531e-06
0.00153035
3.83286e-07
7.37369e-08
8.56437e-09
5.62462e-07
5.72342e-07
1.5181e-06
8.03858e-08
7.85765e-07
7.81913e-08
1.46513e-07
1.75439e-08
1.49851e-10
7.92037e-09
5.61388e-10
9.90613e-12
2.75798e-09
1.71931e-08
1.27957e-07
2.37664e-09
3.51506e-11
8.11336e-09
3.11446e-07
6.4636e-09
2.10703e-10
1.47168e-08
4.15432e-08
3.75212e-09
8.84217e-05
1.42398e-07
0.00545456
2.24392e-09
2.04872e-07
0.0331815
2.92051e-06
4.0213e-10
1.04965e-08
0.00424555
9.41109e-09
2.90526e-10
6.97772e-08
0.0042003
1.62106e-08
6.2564e-05
0.0281004
2.99155e-08
2.09903e-07
4.87573e-07
6.93322e-06
2.66981e-10
8.95865e-07
1.05578e-07
3.59594e-09
0.0276761
0.993742
0.00454633
1.3616e-07
3.0367e-08
0.0163245
8.12495e-07
1.62099e-07
1.37481e-08
0.00203736
3.87871e-09
1.31052e-05
6.88242e-06
0.00113131
1.42539e-07
0.00483411
4.86343e-09
1.86916e-08
1.05255e-08
4.54134e-07
1.06351e-06
7.15825e-08
2.68453e-06
9.61982e-10
1.66031e-07
4.16663e-10
2.19484e-10
1.21896e-08
0.710147
5.47545e-09
3.60769e-10
1.25905e-05
7.47003e-09
0.000475092
4.77226e-08
1.87687e-08
2.29054e-08
4.35649e-09
3.65561e-07
9.53762e-08
3.7434e-06
1.23497e-05
1.38556e-07
6.31847e-05
3.10613e-08
3.1974e-10
2.69209e-06
0.0190393
0.00113566
9.05876e-10
0.002661
0.0450733
8.64181e-07
4.50844e-08
6.33559e-09
3.79328e-06
1.13206e-07
3.5968e-09
8.19944e-11
0.0269197
0.00331595
0.00155588
0.00353204
9.5772e-08
1.84692e-07
4.72504e-06
5.79681e-08
6.05279e-08
2.31168e-08
1.23597e-06
4.01767e-08
2.27096e-06
0.00330807
1.96455e-07
3.16261e-13
6.73504e-09
7.18507e-07
3.56611e-07
5.297e-09
1.15179e-05
0.000206846
2.5667e-05
0.0246287
3.04592e-07
9.02225e-07
1.94603e-07
2.11692e-07
6.39807e-09
4.1937e-10
0.00187797
1.44448e-05
4.78934e-08
1.01324
0.00251265
0.00778598
9.18828e-06
0.0371318
4.96389e-08
5.96454e-08
8.97638e-10
7.82825e-07
4.63775e-07
0.00615842
3.88316e-07
1.40053e-08
8.49401e-09
0.000157829
3.7459e-08
5.50527e-10
0.0597046
8.86117e-08
1.82485e-07
6.62151e-07
1.63886e-08
2.81436e-09
9.77453e-06
0.00241337
1.34711e-08
4.25367e-10
1.02641e-10
0.00257287
0.00887015
2.39981e-06
0.00100116
2.38857e-07
2.36917e-07
1.45943e-07
1.16486e-07
1.96947e-07
1.09105e-07
0.00130276
0.00195952
0.00648294
0.00722358
1.54675e-07
2.84135e-07
2.66606e-07
0.146643
0.00679337
6.28171e-10
0.0037167
6.09092e-07
6.26673e-10
7.41015e-09
1.0167e-08
7.34467e-09
1.44768e-09
3.73067e-09
1.19437e-09
0.00522778
1.22924e-09
4.00646e-07
9.08979e-05
4.29689e-10
0.000150489
1.25799e-07
4.83202e-08
2.04579e-09
1.78615e-05
1.04135e-07
2.50665e-07
0.000109174
1.3694e-06
2.04717e-07
1.49739e-07
4.35132e-07
1.19136e-08
2.54213e-07
6.16022e-05
3.9567e-07
1.00814e-08
1.93419e-07
1.9655e-08
3.799e-07
0.000360431
1.44933e-07
1.10679e-07
0.000755672
2.22844e-08
1.06002e-06
8.80052e-09
3.6133e-07
0.000764442
5.514e-05
0.00607343
0.000546578
0.0101719
2.66987e-10
0.00114893
7.87275e-10
1.10686e-06
4.82061e-05
1.80949e-07
8.30811e-06
1.41657e-08
7.91498e-09
5.16149e-07
1.64116e-08
1.24871e-09
3.39203e-07
1.5232e-08
4.55626e-07
0.00131566
4.52964e-09
7.17652e-07
3.53616e-08
2.20052e-08
2.99466e-10
4.28453e-06
1.51662e-06
3.52023e-08
7.08852e-09
2.60954e-08
0.000831602
4.32061e-06
4.61689e-07
0.0737787
6.42798e-11
3.76304e-12
1.23804e-08
3.10966e-10
5.19184e-05
4.07273e-09
3.94391e-07
3.67891e-08
7.57851e-09
8.45795e-08
6.4412e-10
0.000665601
1.53448e-06
0.0194808
1.56085e-05
2.08918e-09
1.99054e-08
3.38888e-08
9.93937e-06
2.88953e-08
0.00313714
3.01277e-07
3.95436e-09
6.20894e-09
4.11166e-06
3.22165e-07
0.00126738
2.94671e-08
0.0210255
0.0162564
3.49989e-10
6.08291e-06
0.000424679
0.000796159
2.88444e-08
0.000886351
0.00154927
2.18476e-06
1.35786e-07
3.27918e-07
8.0355e-10
2.77006e-07
4.65939e-07
6.25139e-06
3.25397e-07
0.000223741
4.41344e-07
9.39463e-05
6.33375e-06
7.14804e-05
2.75826e-06
1.86896e-09
0.0228982
0.0080543
1.04448e-07
0.0860407
4.244e-06
3.57478e-06
2.84075e-07
0.0010618
4.52774e-06
0.00218835
1.16878e-05
0.000158034
3.83227e-07
6.54962e-10
0.000725287
8.1218e-06
0.00123992
4.74018e-08
2.16794e-08
8.10532e-07
2.6646e-08
1.41433e-06
1.51318e-08
7.92645e-06
8.12221e-09
1.78887e-06
4.52212e-09
0.00174292
2.36311e-07
0.00104765
3.53314e-05
0.00591866
0.000702872
2.95642e-08
1.56002e-09
0.000769602
0.00381551
0.000562511
0.00131327
1.83514e-11
0.00526708
8.7003e-07
5.71045e-08
1.04488e-08
2.2785e-05
2.02436e-08
0.000799703
4.05502e-09
2.74411e-10
0.00313098
6.77728e-05
3.33996e-08
0.279527
0.00073695
4.88375e-06
1.55893e-08
1.29587e-06
0.00395629
0.000719259
1.1707e-07
0.00384062
4.58872e-07
1.09167e-05
8.88327e-08
0.000698367
8.80619e-07
0.000983507
2.7037e-09
5.67684e-06
0.00250089
1.38413e-08
0.0165924
3.28032e-08
1.22133e-08
4.75308e-08
8.35985e-08
1.86509e-06
5.59166e-10
1.1958e-08
0.00134084
1.64287e-10
1.63487e-09
0.000926498
8.44885e-09
1.03046e-05
6.22931e-07
0.00110273
4.83766e-07
0.00907349
2.41619e-07
0.000408357
0.000745019
0.556086
9.33196e-12
0.0301796
0.000523447
5.32395e-07
0.0156815
0.0012175
0.0379333
1.32185e-07
1.4962e-07
1.97679e-08
0.00226419
3.55885e-08
2.29451e-08
8.0473e-08
1.22583e-08
1.08742e-09
0.00269489
5.92931e-08
0.00482626
1.74319e-06
6.3637e-07
7.87939e-07
1.00366e-06
2.71883e-07
6.9994e-08
1.12455e-10
4.36262e-08
0.011289
3.82584e-07
0.0916392
5.63353e-09
3.43049e-07
1.32006e-07
7.20973e-07
6.23085e-09
4.64235e-05
2.49419e-08
0.000606547
0.00423547
0.0010886
4.6477e-09
5.02027e-09
3.38258e-05
7.02784e-09
1.51269e-09
1.58688e-10
3.14637e-08
0.0405219
3.4738e-09
3.3859e-06
1.28695e-06
4.83673e-05
2.22601e-09
1.6962e-08
3.78898e-06
4.05688e-05
0.015095
0.00531851
2.19102e-09
1.68245e-09
5.81507e-10
0.013117
4.88318e-09
0.00816239
9.24845e-06
0.00481543
3.46321e-05
1.18516e-08
1.00941e-07
9.41739e-10
0.00110659
0.00258717
0.00291708
3.35444e-08
2.09811e-08
1.25708e-09
0.00834901
0.00333933
0.051125
0.0389478
6.92302e-09
0.00218447
1.5614e-08
6.42609e-09
1.05882e-08
4.64953e-08
3.63107e-07
5.43202e-10
4.97836e-07
7.59263e-07
0.105481
5.47719e-08
3.30004e-10
3.21275e-06
9.55098e-09
0.00280154
2.02539e-05
6.01334e-09
2.78208e-08
3.55834e-07
0.00114294
0.000558916
3.38403e-07
0.00306268
0.00167381
0.00105442
0.291379
0.000784289
8.56122e-07
2.16424e-09
0.00300158
0.000348768
1.70667e-07
0.00957329
1.74728e-09
0.00502342
3.16541e-05
1.40354e-07
1.80119e-07
6.49879e-06
3.39078e-10
0.000430888
2.57209e-09
4.96901e-07
0.177454
2.58931e-09
0.00519103
8.81571e-08
9.00928e-09
1.027e-08
0.00893518
1.22259e-08
2.79573e-09
6.30783e-07
5.1061e-05
8.88168e-10
0.000432111
0.00082054
1.62175e-07
6.95422e-12
1.35384e-10
0.000246412
0.00699359
0.00555612
5.19251e-09
1.0027e-08
2.49305e-06
0.00463662
0.0176181
0.0142323
0.00671478
1.2173e-10
0.00263173
2.69237e-08
3.58524e-09
0.000939761
2.85966e-08
9.87061e-10
0.000426421
7.38259e-11
1.26522e-07
1.14626e-07
4.95274e-08
1.72487e-08
6.52479e-09
1.79021e-10
6.34973e-10
3.68864e-07
0.0023217
0.00394583
3.64163e-07
6.75076e-08
4.56431e-12
0.00104275
0.00397865
0.0271379
0.0949201
6.38129e-09
2.16283e-05
4.02406e-06
3.63172e-09
5.8521e-10
1.95815e-08
1.20768e-07
2.38846e-09
1.75701e-07
1.4621e-06
0.00111283
0.00387912
8.20522e-07
2.00872
2.24793e-10
1.17312e-08
3.83843e-07
0.000373527
5.29218e-07
0.634489
3.43581e-07
2.28559e-06
2.05852e-09
9.66324e-09
2.76932e-07
0.00108574
2.00924e-09
0.00322684
7.8192e-10
0.0212896
0.0198259
0.838448
5.91638e-10
3.30563e-11
1.1015e-08
1.16803e-09
3.67022e-05
6.05517e-06
6.61038e-09
0.00069038
1.68128e-07
0.00651229
1.14149e-08
4.5675e-08
3.04548e-08
0.0296429
2.04582e-07
2.19355e-10
1.01474e-09
8.57461e-10
8.43219e-08
1.52477e-07
0.000963348
0.000937463
9.84392e-08
1.46795e-08
1.07265e-10
5.41409e-11
4.33856e-10
2.65623e-08
3.69206e-06
7.84912e-09
3.05433e-10
1.04344e-10
0.000407936
0.00217009
4.17814e-05
0.000756395
1.11139e-08
0.00584032
1.58201e-07
1.44542e-08
1.79497e-11
4.85091e-09
0.00100054
1.55158e-11
6.21204e-07
9.05085e-10
0.0155309
7.7299e-07
0.00130878
2.41849e-06
0.00199687
6.95261e-10
4.60293e-10
0.0164839
0.261234
6.08785e-07
0.00335066
1.62919e-08
0.000806423
1.58458e-06
5.14153e-08
9.24158e-08
5.9125e-06
6.27556e-09
0.000364982
0.000728439
4.15499e-08
6.96151e-09
1.45617e-06
1.46517e-08
0.000635775
0.00331994
0.0165168
7.62756e-10
0.00383438
5.82859e-09
0.00276077
0.0195479
0.0493095
4.85205e-11
2.04077e-05
0.0202538
6.28712e-06
2.31672e-06
2.62193e-06
0.00417803
1.1794e-07
2.66523e-11
3.53813e-06
9.01058e-07
0.0363615
2.07949e-08
1.71658e-07
2.1067e-06
0.431458
1.93285e-10
3.807e-10
1.61857e-09
1.91653e-11
2.18034e-09
0.000480741
0.140149
0.000757821
1.19444e-06
3.75139e-06
0.000910318
6.35081e-12
3.63134e-07
3.76846e-10
9.48068e-09
1.45717e-09
4.20645e-07
6.43836e-05
3.90528e-07
2.38975e-09
4.75416e-09
3.35601e-08
7.52179e-09
2.59254e-09
0.0133041
1.95826e-07
0.0363874
0.0654923
0.38474
1.30887e-09
0.204705
1.27483
1.80558
0.669056
6.43052e-10
4.31167e-11
3.36153e-08
0.00260838
1.19452e-06
0.00295193
0.000705786
4.46428e-07
5.63142e-07
7.19982e-08
0.000480614
3.9431e-09
9.41479e-11
6.03347e-05
3.50917e-05
0.000488565
2.14281e-10
0.00207859
2.09094e-06
1.44061e-08
2.17954e-05
1.14153e-07
2.11842e-06
5.12315e-08
1.93476e-06
5.51865e-09
1.66137e-07
4.0366e-05
8.48723e-07
1.47075e-08
3.23852e-05
9.88466e-07
1.81447e-07
6.06095e-05
1.3515e-09
2.17563e-07
9.41159e-07
1.72295e-06
1.25522e-08
0.00337631
2.68938e-09
2.88846e-08
4.13512e-09
0.00208881
0.00207401
4.50684e-08
5.5812e-08
0.00677871
0.00102865
1.07508e-08
1.4605e-07
7.59364e-08
0.173763
2.62811e-08
0.00360305
2.19599e-07
0.0455488
7.72896e-05
1.50094e-09
0.0646923
3.40932e-08
0.213602
5.04482e-10
4.53312e-05
6.59167e-05
1.66821e-09
1.82619e-08
3.17227e-08
0.0197103
3.51504e-10
0.000737198
1.08902e-08
2.26056e-07
1.46255e-08
1.37189e-08
0.000166204
9.10932e-07
0.137586
9.2838e-08
4.24878e-06
0.0407766
2.60745e-08
0.000800092
2.17595e-08
5.55336e-08
5.90132e-08
1.09483e-07
3.33393e-11
4.75626e-10
4.55254e-11
5.3438e-08
1.17894e-08
0.00112139
3.61035e-07
1.07189e-07
8.85862e-10
6.05319e-08
0.198114
0.0348116
1.95124e-07
2.16268e-07
2.05493e-07
6.26286e-09
6.94098e-09
4.37532e-07
2.11229e-08
4.7312e-08
8.83134e-06
4.43329e-08
2.08211e-09
5.68141e-09
0.311894
1.33424e-08
1.34339e-07
9.53231e-10
1.50688e-08
0.00364523
5.06287e-09
2.69867e-11
0.000852915
1.42899e-10
1.25236e-10
0.0197672
0.00105457
1.34981e-07
3.9647e-08
6.20921e-10
1.97789e-07
1.02611e-07
6.38392e-07
9.42688e-08
2.06699e-09
0.00135894
1.40316e-08
0.12369
1.10742e-09
6.67821e-10
8.18526e-09
5.8306e-08
0.17135
2.57045e-08
3.60643e-09
1.2949e-07
7.20141e-07
2.59308e-09
7.64787e-07
0.0233856
1.71327e-08
5.89166e-10
5.06269e-07
2.95027e-09
3.65091e-07
5.10859e-11
4.52155e-07
4.91786e-10
0.0602507
6.09026e-06
2.5577e-09
1.088e-09
0.0012633
9.8104e-10
0.00104118
9.92296e-09
1.1743e-08
2.01749e-07
3.56927e-07
0.000774529
8.73721e-07
0.000922647
0.001121
0.543112
1.36291e-07
0.00075215
1.93826e-07
5.08754e-10
2.22829e-07
0.00236728
0.000688221
0.000781335
5.67833e-10
1.58917e-07
1.4854e-10
0.00293085
1.79494e-08
0.00250951
3.15298e-06
0.0556316
1.96789e-08
3.92274e-09
0.00297909
5.39611e-06
1.18818e-09
1.20315e-07
2.25518e-06
3.95826e-08
1.26569e-11
0.0221454
0.0117629
4.10547e-07
1.43949e-07
2.58179e-07
0.0145006
1.75266e-07
0.00537572
1.57097e-07
0.0199512
2.23077e-06
8.30514e-06
1.3419e-10
1.79359e-08
3.86144e-09
1.05612e-06
1.864e-09
4.95833e-08
6.278e-12
7.92855e-06
0.0069386
0.00150835
0.00211475
3.87186e-10
0.0042254
0.000918469
0.00179336
2.19016e-08
4.88762e-06
0.0106612
1.06872e-08
7.60705e-09
2.39321e-09
2.39477e-07
0.000133893
8.72911e-09
8.71569e-10
2.14153e-07
1.05476e-08
0.625728
0.00100849
0.0801125
2.3098e-10
3.07191e-09
0.000786964
4.7742e-10
3.18063e-07
1.01154e-08
7.16311e-05
3.26337e-10
0.00279214
8.15427e-09
3.82718e-09
2.00134e-05
0.00268396
0.0012055
2.67026e-08
0.00127919
7.01437e-10
0.000242222
0.227572
0.00200939
7.81591e-09
1.99866e-05
4.27797e-10
5.40523e-08
6.80015e-06
2.51959e-08
0.000172531
4.83627e-09
3.05237e-08
0.00220262
2.85549e-07
4.45709e-07
1.08611e-08
7.12517e-09
6.05366e-08
2.41305e-08
4.18527e-09
2.4929e-09
0.0012514
0.000691142
2.80958e-09
0.00139193
2.41443e-10
5.59981e-09
0.0706603
1.19038e-08
1.0264e-10
0.000647899
2.37452e-09
6.82833e-11
1.05404
1.58556e-10
3.03497e-11
1.31901e-06
0.00156484
3.75143e-09
0.000694135
7.84777e-10
4.1671e-08
0.00083276
1.24149e-07
1.67253e-05
1.91979e-11
3.01853e-09
2.30371e-08
3.89267e-09
0.105007
0.000756747
0.000250341
8.64952e-10
0.000864179
1.55255e-10
6.52196e-09
8.5737e-10
0.00174396
3.44374e-05
3.53422e-07
2.49491e-11
1.71875e-08
0.000899341
1.8719e-05
7.58945e-09
4.7843e-06
0.00185211
0.00143098
6.49798e-07
0.00144928
1.82053e-05
0.000795303
7.28257e-07
0.0011423
6.00267e-06
0.0227368
3.51828e-08
0.00549895
7.83177e-06
1.81341e-05
8.83585e-11
6.20816e-05
1.85412e-09
9.53165e-05
0.019256
2.7842e-08
0.000140446
1.43736e-05
4.61364e-09
0.00818916
6.86583e-09
4.75525e-10
1.88552e-09
8.88393e-10
8.78679e-08
2.00519e-09
1.32903e-08
2.06074e-09
0.239101
7.63415e-07
7.28688e-11
4.78921e-11
1.0678e-09
2.17433e-09
2.30637e-08
0.779313
4.20131e-05
1.86004e-05
1.35756e-10
0.00169334
0.00128858
0.0008616
5.26665e-07
3.00443e-07
9.39981e-09
1.68192e-08
5.01482e-08
3.90196e-06
2.01133e-06
0.00362839
0.00124968
1.46565e-09
0.000109224
7.0655e-06
8.58854e-10
0.00408437
9.02613e-08
1.92821e-09
3.88432e-08
0.165738
0.00115007
2.66595e-11
0.0201567
3.06968e-09
0.000814037
9.72807e-07
0.000664158
0.044462
8.32671e-10
1.15621e-09
8.87124e-09
4.86284e-07
0.00678685
0.230944
0.0267594
0.00779858
0.00206169
0.000260133
2.65706e-10
2.01339e-06
0.106002
0.00158315
1.70439e-06
5.72695e-05
8.09547e-08
0.00170139
5.90863e-09
0.210967
0.000713299
6.99253e-10
0.000247575
0.000140343
2.12929e-09
0.0116599
5.43931e-10
4.40848e-09
0.202528
0.0282976
1.60492e-09
2.34988e-09
2.44747e-08
3.01627e-10
1.79107e-09
1.96169e-06
4.40828e-10
1.96186e-11
0.00378102
9.10798e-11
2.54993e-09
3.55177e-09
2.36594e-05
8.90648e-09
3.02444e-06
1.33326e-08
2.11919e-09
3.95864e-07
1.2298e-06
0.00210549
0.000714588
1.37449e-06
8.83873e-07
4.42589e-08
0.00604149
0.0107898
6.02864e-09
6.63326e-07
3.86113e-09
0.000768269
0.000710893
6.9177e-06
0.00150373
0.00127909
9.87353e-08
1.74596e-11
2.87759e-06
3.07777e-09
3.54639e-10
1.30685e-08
2.93997e-07
3.25816e-09