/*--------------------------------*- C++ -*----------------------------------*\
  =========                 |
  \\      /  F ield         | OpenFOAM: The Open Source CFD Toolbox
   \\    /   O peration     | Website:  https://openfoam.org
    \\  /    A nd           | Version:  10
     \\/     M anipulation  |
\*---------------------------------------------------------------------------*/
FoamFile
{
    format      ascii;
    class       volScalarField;
    location    "17";
    object      T;
}
// * * * * * * * * * * * * * * * * * * * * * * * * * * * * * * * * * * * * * //

dimensions      [0 0 0 1 0 0 0];

internalField   nonuniform List<scalar> 
111485
(
303.15
283.15
283.182
303.15
283.319
283.15
283.15
283.15
283.15
285.067
283.15
284.404
283.15
283.15
283.15
283.15
283.15
300.896
283.15
303.15
303.15
283.15
283.15
283.15
283.274
303.15
288.26
283.15
283.167
303.15
300.818
283.15
303.15
283.15
283.495
283.15
302.329
283.15
283.149
283.151
283.15
287.759
283.151
302.935
303.181
303.15
287.496
283.15
287.556
303.15
303.15
283.15
303.15
299.304
303.15
283.15
283.15
283.15
283.322
283.151
283.151
303.15
283.15
300.528
283.15
283.15
301.546
283.15
283.15
283.15
303.172
283.15
303.15
283.15
303.15
283.15
283.15
289.163
283.15
283.15
283.255
293.728
283.15
303.15
283.15
283.15
283.15
301.746
303.142
283.15
283.518
283.153
283.15
283.15
288.102
303.15
303.15
301.745
303.15
283.451
303.15
284.787
283.15
283.852
283.15
283.15
283.15
283.15
283.155
283.145
283.15
283.15
283.151
285.52
303.15
283.15
303.15
283.15
283.15
303.15
303.15
283.15
283.15
283.15
283.356
303.153
283.15
283.15
303.15
283.186
303.065
302.139
303.15
283.15
283.15
283.15
283.15
283.15
283.15
283.15
289.302
283.15
283.15
283.152
301.994
283.15
283.15
303.15
283.15
283.15
283.153
303.15
303.143
283.15
283.156
283.15
283.15
283.15
283.153
303.15
303.15
283.15
283.156
283.151
283.156
283.15
283.75
283.15
283.152
283.159
283.15
303.15
283.15
283.15
283.15
283.15
283.15
303.15
303.15
283.15
303.15
303.15
283.15
283.15
283.15
283.15
293.531
283.15
283.195
303.15
283.15
303.15
303.15
283.15
285.083
301.628
283.15
283.15
303.15
283.15
283.151
283.163
301.067
283.15
303.15
283.15
284.871
303.15
283.247
300.211
283.152
283.15
303.15
303.15
283.15
283.15
293.395
283.15
283.15
283.15
288.912
303.15
283.15
300.778
283.15
283.15
283.15
289.965
283.158
283.15
303.15
283.15
283.15
283.15
283.15
303.15
303.112
303.15
283.15
283.15
283.15
283.15
283.15
283.15
283.143
283.15
283.15
283.15
289.059
283.15
283.15
283.15
283.15
303.15
283.15
301.052
303.15
303.15
303.12
303.15
283.15
283.15
283.15
303.15
283.15
303.15
303.15
303.15
283.148
293.031
283.15
283.15
284.363
283.15
283.15
283.217
283.15
283.15
283.15
303.15
283.149
283.15
296.297
283.15
303.15
283.15
283.15
283.15
285.567
283.164
283.15
283.15
302.043
283.15
283.331
283.15
283.148
303.15
284.087
284.323
283.15
303.15
283.15
283.15
283.15
303.15
303.15
303.15
283.15
283.15
283.15
283.15
283.152
283.15
283.15
303.15
283.15
303.15
283.15
290.099
283.151
283.15
303.15
303.15
283.15
283.15
283.186
283.15
283.15
283.15
303.15
301.28
283.15
284.784
283.15
283.15
283.15
283.15
283.15
283.15
302.408
283.15
283.15
283.147
283.216
283.15
283.234
283.152
283.15
283.152
283.15
284.314
299.07
283.164
283.15
303.15
283.15
303.15
283.15
283.15
284.201
283.153
283.15
283.236
283.15
303.15
283.152
303.15
302.196
303.15
283.15
283.15
283.15
283.15
283.189
283.15
283.15
283.15
283.15
283.15
283.218
283.15
303.05
283.15
283.15
283.15
303.15
303.112
283.15
285.801
301.093
283.15
283.15
283.15
283.201
283.15
283.534
283.15
295.621
284.651
283.15
302.16
283.191
303.15
303.15
283.15
283.299
283.15
303.15
303.15
303.15
283.501
283.15
303.15
284.036
283.172
286.783
283.278
283.15
283.15
302.662
283.15
302.541
301.685
295.029
291.038
283.15
283.15
303.393
303.15
299.046
283.529
303.15
283.15
283.224
283.15
284.493
283.384
283.15
283.15
283.15
286.579
283.15
303.147
283.15
303.15
303.15
283.17
283.15
283.15
283.268
302.086
283.15
303.15
303.15
303.15
283.279
283.15
283.44
283.239
284.44
283.15
283.57
303.15
283.272
283.15
303.15
303.15
285.781
303.15
303.15
283.151
303.15
283.15
300.793
283.15
283.15
283.15
303.15
283.15
303.15
283.15
283.179
283.15
302.984
290.311
283.86
283.15
302.924
283.15
303.15
283.24
283.238
283.538
298.066
283.15
295.985
296.312
283.15
283.15
283.444
303.15
283.15
283.15
299.033
283.15
295.666
283.15
283.15
285.745
303.15
283.15
283.15
303.15
293.88
297.975
283.15
283.15
283.15
283.15
303.15
292.212
283.15
283.15
283.15
283.15
298.537
283.15
284.77
303.15
283.279
290.835
283.15
283.15
283.15
283.15
283.15
283.15
284.01
283.15
283.195
283.15
298.811
303.15
286.903
303.15
283.15
302.534
283.488
298.801
283.883
299.117
283.609
283.15
299.212
283.48
283.15
283.138
300.718
300.162
283.15
282.26
283.227
296.094
283.132
303.15
284.541
283.221
283.52
284.123
283.15
282.34
283.15
303.15
301.355
303.15
283.385
283.15
283.15
283.15
282.621
303.15
303.125
283.15
284.57
283.283
283.15
283.15
283.276
303.15
283.15
283.15
283.15
284.482
283.15
303.15
283.906
283.15
303.15
283.267
283.15
283.15
303.15
283.15
284.702
283.15
283.15
283.15
283.15
283.15
284.691
283.15
303.15
300.666
283.292
283.579
301.148
283.414
283.151
283.15
287.483
283.559
303.15
283.15
296.332
283.905
283.15
284.104
283.886
303.15
298.84
303.137
283.15
284.158
284.402
283.15
283.15
283.959
284.448
286.502
287.414
283.15
283.15
286.962
283.326
303.15
293.886
295.208
283.15
283.15
283.15
303.15
283.15
283.15
283.15
283.15
283.15
303.15
303.15
283.15
293.924
294.216
303.15
285.088
303.15
303.15
303.15
289.646
283.302
283.15
303.15
283.15
283.15
287.342
283.15
283.15
288.925
283.13
283.15
289.256
302.005
283.15
283.15
283.15
283.15
283.15
283.15
283.15
283.15
283.15
303.15
303.15
283.15
289.01
283.151
283.15
282.92
301.821
283.15
283.15
283.15
287.268
303.011
283.15
283.161
288.215
283.714
283.15
283.15
283.166
300.409
283.15
303.15
283.15
283.15
283.15
283.15
288.911
303.15
283.15
283.15
288.726
283.15
303.15
303.15
289.873
283.15
283.15
303.15
283.15
283.15
303.15
283.357
283.15
283.15
303.15
303.15
303.15
283.15
283.169
283.15
283.15
302.74
303.15
283.15
301.587
283.15
283.15
283.206
283.15
288.33
283.326
289.694
283.15
283.15
283.15
288.132
283.15
283.15
283.15
299.523
283.15
283.15
283.94
284.595
283.498
303.15
303.15
303.15
283.15
283.15
283.15
283.15
283.15
283.15
283.15
283.15
283.15
283.15
303.15
283.15
283.15
283.15
303.11
283.15
283.15
303.15
283.15
283.15
283.15
283.15
283.15
283.15
283.15
303.15
283.15
283.174
283.15
303.15
283.288
283.125
283.423
283.086
283.15
283.15
283.765
290.873
283.426
303.15
283.15
283.15
283.15
283.15
283.184
283.142
283.15
283.15
283.244
283.15
283.15
283.15
283.15
283.15
283.15
283.15
283.15
283.929
283.15
283.15
283.257
283.15
283.15
283.15
283.15
283.15
283.15
283.148
283.15
283.15
283.15
283.143
303.116
283.163
283.159
283.15
283.15
284.524
283.15
284.198
283.643
283.158
303.147
303.148
303.147
283.15
283.15
283.15
303.15
303.135
283.961
283.15
283.15
303.153
303.15
283.15
303.162
283.15
283.15
303.15
303.15
303.15
303.15
283.38
283.15
283.15
283.15
303.159
283.324
283.15
283.15
283.15
283.15
283.366
283.15
283.15
283.15
287.501
283.15
283.15
283.15
283.15
283.15
283.15
283.15
284.102
283.15
303.151
283.152
283.15
303.15
303.15
303.15
303.15
303.15
283.15
303.166
283.15
283.768
283.143
303.151
283.15
303.071
284.544
283.15
303.15
303.131
284.263
303.15
283.15
303.15
283.15
283.15
283.15
284.826
303.148
283.15
283.15
283.15
283.15
303.15
283.15
283.15
283.15
303.15
283.162
283.15
303.15
284.047
283.15
283.649
283.15
283.15
283.15
303.15
283.15
283.15
285.024
283.15
283.15
283.15
283.15
283.15
303.15
283.481
303.161
283.357
303.15
303.132
303.133
283.15
303.135
283.15
283.484
288.586
283.15
283.915
283.172
283.15
283.15
283.15
303.177
283.15
302.96
303.15
293.861
303.15
283.15
283.15
303.15
283.15
303.15
283.15
302.002
303.15
303.15
283.15
300.89
283.15
283.15
283.15
283.15
283.15
283.15
301.137
283.503
303.15
303.15
303.155
303.15
300.56
283.15
283.15
302.239
303.15
283.15
283.15
283.16
283.15
283.147
303.152
283.345
302.262
300.548
283.147
283.15
289.68
303.15
283.15
303.15
283.15
303.15
283.15
283.15
283.15
301.081
302.184
303.15
303.15
303.15
302.943
283.148
303.15
283.15
283.077
303.15
283.15
283.15
283.15
283.4
283.15
283.15
283.15
283.15
283.15
283.15
295.402
283.15
303.077
283.166
283.15
302.907
283.15
283.15
302.811
283.147
302.896
283.15
303.15
283.15
283.15
283.15
303.15
283.15
283.147
283.15
283.176
283.15
283.15
303.15
283.15
283.15
285.161
283.15
303.15
303.124
283.15
283.15
283.15
283.15
283.159
302.897
283.15
302.985
303.15
283.157
283.15
303.15
283.15
295.7
283.383
283.15
283.15
303.15
283.305
303.15
283.15
283.113
292.775
283.147
283.15
283.15
283.146
303.15
283.15
303.143
303.15
303.15
283.15
303.021
303.03
283.15
283.15
283.15
283.15
303.116
283.15
283.15
303.15
283.322
283.15
303.15
283.15
283.15
283.15
298.454
283.15
283.275
283.15
300.885
283.15
283.15
283.15
283.15
283.15
283.15
283.158
283.15
283.15
283.15
283.15
283.15
283.15
283.15
283.15
283.15
302.988
283.15
284.478
283.15
302.401
303.145
283.15
283.15
303.15
283.15
283.158
303.122
303.15
303.137
283.15
283.15
283.15
283.15
283.15
283.15
283.15
283.15
283.15
283.15
283.15
283.15
303.137
283.15
283.15
283.15
284.543
283.15
283.2
303.15
283.15
283.15
283.15
283.945
283.15
303.174
303.15
283.15
283.15
298.046
283.15
283.15
293.07
283.15
283.15
283.15
283.15
283.15
283.15
284.54
283.15
283.15
283.15
303.15
283.154
298.921
283.15
283.15
283.15
283.15
283.15
303.15
283.15
283.15
283.151
283.15
283.15
283.153
283.15
283.198
283.15
283.15
283.15
284.128
283.155
283.15
283.153
283.15
283.153
283.15
283.15
283.153
283.15
283.205
283.15
283.15
283.15
283.15
283.15
283.188
303.15
290.955
303.15
303.15
303.15
283.15
283.15
283.15
283.15
283.15
303.011
283.15
283.15
303.15
283.149
283.206
283.15
283.15
283.189
283.197
283.15
283.15
283.15
303.15
292.459
283.212
283.15
283.15
283.15
283.15
283.15
283.15
283.15
283.15
283.15
283.15
283.15
283.15
303.15
283.15
283.15
283.15
283.15
283.15
283.15
283.15
283.15
303.15
283.201
283.15
283.15
283.15
283.15
283.15
303.15
303.066
283.15
283.15
283.15
283.15
283.15
302.183
283.15
283.15
303.476
303.522
283.15
301.72
283.15
283.15
283.15
283.15
303.15
283.15
283.15
283.15
283.15
283.15
283.15
302.459
283.15
283.15
283.15
283.15
283.15
283.15
303.15
283.15
283.15
283.155
283.15
283.15
283.15
283.15
303.15
283.15
283.15
283.15
283.15
283.15
283.15
283.15
283.15
303.15
283.15
303.15
283.15
303.157
283.15
283.843
283.15
283.15
285.63
283.172
283.15
283.15
283.396
303.15
283.15
283.15
283.15
283.15
283.381
301.015
303.15
283.15
283.15
303.15
303.15
283.15
303.15
283.15
282.801
296.196
283.351
283.15
303.15
290.24
283.15
283.15
283.15
302.61
303.15
303.137
303.15
303.15
283.15
283.285
283.15
283.15
283.15
283.15
283.15
303.15
283.15
303.15
283.15
303.15
303.15
283.15
300.449
283.15
303.15
303.14
283.15
303.069
283.15
283.15
283.15
283.15
283.15
303.15
283.15
283.249
283.15
303.15
303.15
303.15
303.15
297.871
284.27
283.15
283.15
301.392
283.15
283.15
303.15
303.15
283.15
283.15
283.15
289.379
293.964
284.04
283.15
283.15
283.15
303.15
283.15
283.15
283.15
283.15
283.15
303.15
283.163
283.15
303.15
283.15
283.15
283.15
283.15
283.148
283.158
283.244
302.064
283.15
303.15
283.15
283.15
303.15
283.15
303.15
303.203
283.15
292.305
284.602
303.234
283.149
298.149
303.15
303.15
283.15
303.15
283.15
283.34
283.15
283.15
303.15
283.613
283.15
303.15
282.964
283.15
303.15
283.15
283.15
303.15
303.15
283.15
303.15
283.15
283.15
283.15
299.974
283.259
303.15
283.154
283.15
283.15
283.15
283.15
283.15
303.138
283.15
283.15
283.15
283.15
283.15
283.15
291.505
283.151
303.15
283.15
283.15
303.15
283.15
283.15
283.15
303.15
283.15
303.15
297.781
283.15
283.15
283.232
303.15
283.245
283.15
283.15
303.15
303.147
303.15
283.166
303.015
303.128
283.15
283.15
283.164
283.15
283.15
303.15
283.15
283.15
283.15
303.15
283.15
283.519
283.15
283.15
283.558
303.15
283.15
303.15
283.156
303.15
303.249
283.15
303.265
294.176
303.15
303.15
283.15
283.15
283.511
283.15
303.103
283.15
283.15
283.15
283.15
283.15
283.15
283.15
283.15
283.15
303.15
283.15
283.15
283.15
283.15
303.15
283.15
283.15
303.15
283.15
303.15
283.155
283.157
301.035
303.15
303.15
283.15
303.15
283.276
283.15
283.15
283.15
283.151
283.15
303.15
302.779
283.15
299.16
283.278
303.15
303.15
283.15
283.15
303.15
283.15
283.15
303.15
303.15
283.15
283.15
303.24
283.15
300.024
293.428
303.15
303.157
302.691
303.15
283.15
303.15
303.15
303.15
303.15
303.15
303.15
303.15
283.15
303.15
303.15
283.316
303.15
303.263
303.15
303.162
303.15
303.15
301.209
303.649
303.15
292.509
303.15
303.15
283.15
302.626
303.15
302.226
303.123
283.196
283.15
303.15
302.945
283.149
303.15
303.15
283.15
283.15
283.15
283.15
283.15
283.147
283.15
283.15
303.15
285.753
283.15
303.52
303.135
283.15
302.643
283.15
283.15
303.091
295.038
283.15
303.15
283.15
303.778
283.15
283.15
303.15
303.15
303.15
303.15
303.15
303.15
302.56
302.676
283.15
292.727
303.15
283.179
283.15
283.15
302.656
283.15
283.15
302.524
283.15
283.147
283.15
303.15
283.15
302.8
283.15
302.811
302.08
303.15
302.268
303.15
303.15
283.15
303.15
283.156
303.15
303.15
283.15
303.15
303.15
302.804
303.15
283.16
283.15
283.15
283.156
284.757
283.15
283.54
303.15
295.799
303.15
287.057
303.15
283.159
300.694
301.403
289.821
303.15
303.15
303.15
283.15
283.15
303.15
283.15
283.15
283.15
301.593
303.15
283.15
283.147
283.15
303.15
303.15
283.15
283.15
303.15
283.15
284.746
283.15
298.728
303.15
283.15
283.162
283.15
303.15
283.396
283.15
302.982
301.532
288.379
303.15
303.15
303.147
303.15
283.15
303.15
283.15
300.078
283.15
283.15
283.15
283.451
283.15
283.15
283.152
283.494
288.865
286.171
283.15
283.15
283.15
286.029
283.15
285.871
283.15
286.236
303.158
283.15
283.15
283.15
303.15
286.622
286.262
303.15
283.15
303.15
283.15
287.153
285.393
291.324
283.15
283.15
303.15
303.15
303.15
283.15
283.15
283.15
283.15
283.15
288.343
303.15
303.15
283.15
283.15
283.15
283.331
303.15
303.15
283.15
303.15
303.15
303.15
295.432
303.15
285.567
294.077
283.15
283.166
283.15
283.15
303.15
303.15
295.013
303.15
293.825
283.145
283.15
303.15
303.15
283.15
303.15
303.15
303.15
305.826
303.15
295.952
283.15
303.15
303.15
297.104
303.15
283.15
283.15
303.139
303.15
303.15
303.15
283.15
303.15
303.15
302.737
298.063
297.806
303.15
283.15
303.15
298.057
298.32
298.448
283.15
283.15
283.15
283.15
283.15
283.15
303.15
303.15
303.15
303.15
283.15
283.15
283.15
303.15
303.15
303.15
303.15
283.15
303.127
283.15
283.15
283.15
303.15
303.15
283.147
299.865
295.626
283.15
303.15
303.15
303.15
303.15
283.15
283.15
303.15
303.15
283.154
303.15
283.15
283.15
292.672
303.15
283.15
283.15
303.13
303.15
303.816
283.15
283.184
303.15
303.15
303.15
303.15
283.15
283.15
303.15
302.731
297.626
291.859
303.15
303.15
303.15
303.15
283.476
303.151
303.15
303.15
283.15
290.67
283.15
303.15
303.15
297.382
303.15
303.15
303.15
303.15
283.15
303.15
283.15
283.15
283.15
283.15
303.15
303.15
303.15
283.151
303.148
303.15
303.15
303.15
303.15
303.498
283.277
303.15
283.15
283.194
283.15
303.15
303.15
303.15
303.15
283.15
283.155
303.15
302.818
283.15
301.402
303.15
301.169
303.15
283.15
301.946
287.006
283.15
302.338
303.15
301.15
283.15
303.15
303.15
303.152
303.15
283.279
303.15
283.15
283.15
283.15
303.15
303.15
283.15
291.136
283.15
302.566
283.15
284.14
288.393
289.719
283.15
303.154
286.089
303.133
283.17
283.157
293.014
283.15
283.15
283.155
283.15
294.335
303.15
283.15
283.15
296.86
303.15
283.15
303.15
303.15
303.15
303.1
286.426
302.976
283.15
303.15
302.973
303.15
283.152
303.15
303.15
283.15
303.15
303.111
303.15
283.15
303.15
283.15
303.15
303.15
303.211
283.15
303.417
302.916
298.514
303.15
291.682
297.441
284.597
292.07
283.15
283.15
283.15
283.966
283.15
303.582
283.15
283.15
303.15
283.15
303.157
303.15
303.15
302.647
303.151
303.15
283.15
303.142
303.15
283.15
283.1
283.152
283.15
303.15
283.15
303.15
283.15
303.15
283.15
303.15
303.15
283.15
303.15
303.15
303.15
283.15
303.15
283.15
303.15
303.138
303.15
283.15
283.15
303.15
303.15
303.15
283.152
302.642
303.15
303.15
283.15
283.15
292.612
303.15
283.15
283.151
287.799
303.15
303.15
288.785
283.15
292.711
303.15
303.151
303.15
303.15
283.15
283.15
302.358
283.15
303.15
303.15
303.15
303.15
303.15
283.95
283.15
291.83
303.15
303.15
291.349
303.15
303.15
303.15
303.15
303.15
283.15
303.15
303.15
283.15
283.15
303.15
283.15
303.15
283.15
283.15
283.15
291.132
296.808
283.15
283.15
303.15
303.15
303.15
283.15
283.15
283.15
303.15
283.15
303.15
303.15
292.786
303.15
283.152
303.15
283.15
284.459
303.15
283.15
303.15
303.15
303.15
285.494
303.15
283.15
303.15
303.15
283.15
283.15
283.152
303.15
303.15
287.309
283.15
297.163
303.15
303.15
303.15
283.15
293.033
303.15
283.15
303.15
283.15
303.15
283.153
297.057
303.15
303.15
283.15
303.15
303.15
283.15
303.15
283.15
295.517
303.15
283.15
303.15
303.15
303.15
303.15
303.15
303.15
283.15
283.15
283.15
283.15
303.15
303.15
296.501
283.15
303.15
283.15
303.15
283.15
283.15
303.15
303.15
303.15
283.15
303.15
298.351
303.15
284.263
283.15
286.998
303.15
303.15
286.953
283.15
303.15
283.15
283.159
303.15
303.15
284.511
283.995
283.15
283.15
283.15
291.257
283.15
283.917
303.15
298.405
283.15
283.15
303.15
303.15
303.15
283.15
303.15
303.15
303.15
303.135
283.173
283.15
283.498
303.15
301.996
283.15
303.143
283.15
283.15
287.548
303.15
303.15
283.15
283.15
283.364
303.15
283.15
283.15
303.15
298.221
303.15
296.079
303.15
283.15
303.15
283.15
283.15
283.15
283.257
283.15
284.578
303.15
303.15
283.15
283.15
303.15
303.15
303.15
303.15
283.458
285.229
283.15
303.15
283.161
283.15
283.15
303.155
283.152
283.588
283.15
283.15
284.322
283.15
283.165
303.15
303.15
303.15
303.15
283.15
283.15
283.15
303.15
283.15
283.15
303.15
283.15
297.829
283.15
303.15
283.15
303.15
303.15
283.965
283.15
303.15
283.158
303.149
303.15
303.15
303.15
283.15
283.15
303.15
303.149
283.15
303.15
303.15
303.15
295.504
283.15
283.21
303.15
303.15
303.15
303.15
303.15
303.149
303.146
283.15
303.15
283.15
303.15
303.149
303.15
303.147
303.149
283.15
283.15
283.15
303.15
303.15
283.15
303.15
283.15
287.154
283.15
301.967
283.15
303.154
303.15
283.344
283.15
283.365
297.927
303.15
283.402
303.169
303.15
297.947
283.15
303.15
303.15
303.15
303.15
283.15
303.15
303.15
299.509
283.15
303.15
303.15
303.15
303.15
283.15
292.053
303.166
283.174
303.15
284.892
285.242
303.15
283.15
283.15
303.15
303.15
303.15
283.15
283.15
283.857
303.15
303.15
303.18
303.15
283.15
284.926
303.15
283.15
303.15
288.666
303.15
283.15
300.724
283.15
283.15
283.15
303.15
298.588
303.15
303.15
303.15
283.15
284.591
294.302
295.935
285.231
303.026
303.008
283.15
283.15
301.37
283.752
283.15
303.149
303.15
303.15
283.15
295.264
303.15
283.15
302.935
303.15
303.15
283.864
303.15
303.15
289.014
290.248
303.15
283.15
303.15
283.15
303.15
303.15
303.15
303.15
284.022
303.15
303.15
303.15
302.949
303.15
303.15
283.15
283.15
283.15
283.15
302.944
283.15
283.15
283.15
303.15
284.928
285.086
303.15
283.15
303.15
283.15
303.15
283.15
283.15
303.15
303.15
303.15
283.15
303.15
303.15
303.15
283.15
303.15
283.15
286.603
303.15
303.15
292.24
303.15
283.15
283.15
283.15
303.15
303.147
283.15
303.206
283.15
283.15
283.15
283.15
283.15
283.15
303.067
303.158
283.15
303.144
303.151
303.152
283.15
283.15
283.306
283.523
286.143
283.693
283.164
283.15
283.15
284.199
284.305
283.15
284.098
283.15
283.15
283.262
302.905
283.281
283.15
283.255
283.15
283.15
283.399
303.15
283.15
283.15
284.81
283.594
283.15
283.378
283.15
303.15
301.371
303.15
283.15
284.055
283.619
283.15
303.15
283.15
283.228
283.15
283.146
303.168
283.15
283.571
302.084
284.294
303.15
303.192
301.375
295.603
283.15
289.737
302.971
297.398
283.15
283.15
283.15
283.568
283.15
283.181
303.15
283.359
303.15
303.15
283.23
283.297
283.15
303.15
284.824
292.907
283.15
301.702
303.15
284.152
283.15
284.459
303.15
283.15
303.15
283.15
291.02
300.991
303.13
303.15
303.15
302.124
283.487
283.182
303.15
283.15
283.261
290.117
283.15
283.15
283.15
303.15
283.15
283.15
283.206
283.15
302.685
303.124
303.15
301.394
283.15
283.147
299.647
301.617
283.15
283.202
295.573
283.15
283.527
303.138
284.173
283.15
283.155
297.401
283.15
299.556
283.15
283.253
290.981
283.15
303.15
302.006
301.931
302.695
283.15
302.918
283.15
301.014
283.15
303.15
283.474
283.15
300.5
295.95
283.15
283.15
283.918
293.86
296.565
303.15
303.15
295.515
283.15
293.271
283.476
303.15
283.15
290.095
283.15
303.15
283.15
283.15
284.333
301.522
283.15
283.15
283.15
303.018
303.15
303.15
283.657
302.639
283.384
283.15
303.15
303.028
287.33
303.15
283.15
284.633
283.15
283.292
299.845
292.866
283.15
283.156
283.15
294.686
283.15
283.486
283.168
303.15
303.089
303.15
303.15
283.15
296.501
283.15
283.083
283.15
303.15
283.15
293.664
288.726
283.15
283.15
303.15
283.15
283.15
283.15
283.15
283.259
283.15
303.15
303.15
283.15
283.15
283.267
283.15
283.15
283.154
284.545
303.15
283.15
291.281
283.15
303.15
284.511
283.152
285.285
283.684
283.152
303.046
303.15
283.15
283.152
283.15
303.15
283.15
283.15
283.15
283.15
283.152
283.153
283.15
283.15
283.15
283.15
303.15
303.15
283.15
283.15
283.152
283.152
283.152
283.15
283.372
283.15
283.15
283.15
283.15
283.019
303.15
303.15
283.226
283.15
283.156
283.145
283.15
284.021
283.149
283.15
283.153
303.09
283.151
283.152
283.15
283.152
303.116
283.15
303.15
283.15
302.657
283.15
283.15
283.15
283.546
302.749
283.147
283.15
283.151
283.15
283.15
283.163
291.767
285.044
303.15
283.151
283.15
283.15
283.301
283.151
284.939
283.15
283.15
283.15
283.15
283.15
283.15
283.15
283.753
283.536
300.011
291.248
283.15
303.269
292.804
283.15
283.15
283.15
303.15
283.15
283.15
283.15
283.15
283.15
283.568
283.154
283.15
283.15
303.045
283.307
283.15
283.164
283.15
286.556
283.15
298.886
283.15
283.746
283.3
283.15
303.15
283.197
283.15
303.15
283.223
283.351
303.04
303.15
283.15
283.15
303.152
283.778
283.15
283.15
283.15
293.008
298.05
303.14
283.15
303.162
303.15
283.15
303.162
283.15
283.15
283.15
283.15
283.158
283.15
283.15
283.15
283.15
283.15
283.15
283.15
283.15
283.15
283.15
283.15
285.258
283.184
283.153
286.341
283.145
283.147
283.15
283.076
283.15
283.15
283.15
283.15
289.667
283.15
283.124
283.15
283.15
283.163
291.094
283.15
283.154
283.15
299.805
283.15
284.323
283.15
303.15
283.15
286.484
283.15
283.15
283.15
286.989
303.15
303.15
301.937
283.15
303.075
283.15
283.15
286.697
303.146
283.804
287.911
303.15
283.163
283.15
283.15
283.15
283.15
283.144
283.15
283.15
285.95
301.155
303.15
285.51
283.15
290.393
303.15
303.15
283.163
285.879
303.15
293.68
283.15
283.244
283.15
283.15
283.15
303.15
303.059
283.15
285.283
283.15
283.15
292.504
294.434
283.176
283.15
282.856
283.16
303.134
283.15
303.137
303.15
286.696
292.867
283.15
283.15
283.15
283.15
296.49
284.87
283.217
294.608
283.15
283.15
303.161
291.289
283.226
303.143
283.15
283.15
283.15
283.15
283.15
287.669
283.15
303.143
284.495
283.15
293.926
283.15
283.15
283.15
303.142
283.15
283.135
286.652
303.15
283.15
303.161
283.173
283.15
290.598
303.198
302.948
283.15
303.15
283.15
303.167
296.576
283.15
283.15
283.15
303.134
303.097
283.15
283.15
283.15
283.514
286.327
303.058
303.145
287.805
289.709
283.574
283.164
283.15
283.15
303.15
283.15
303.117
303.15
300.707
283.15
283.15
303.101
283.15
283.15
283.294
302.706
298.172
283.15
294.22
303.08
287.909
283.15
303.15
303.1
302.672
285.187
283.411
303.15
283.15
283.15
283.426
285.346
283.15
283.15
283.15
283.15
303.15
283.15
284.473
303.15
283.151
303.15
283.15
283.15
302.316
285.232
283.15
283.15
283.15
302.205
283.15
283.15
283.15
283.15
284.017
303.15
302.904
302.758
284.097
283.15
283.15
283.15
286.394
283.15
283.15
303.15
283.15
283.15
283.15
283.15
283.15
283.15
283.15
283.15
283.15
283.15
303.15
283.15
283.15
283.15
283.151
284.02
283.15
303.122
303.155
292.61
294.78
283.15
283.301
283.15
283.145
303.15
303.158
300.296
283.15
302.686
283.15
303.15
283.15
283.875
283.15
283.15
283.15
283.15
283.15
284.083
298.147
303.08
283.15
303.15
291.925
283.15
283.093
283.145
287.227
298.76
303.149
284.881
283.15
283.15
283.15
303.151
283.15
284.144
284.12
283.15
283.15
283.835
283.083
303.158
303.15
303.15
283.15
283.161
283.15
303.15
303.15
283.15
283.15
283.15
284.223
283.15
303.15
283.15
301.694
303.15
283.15
283.15
283.158
303.15
283.15
283.15
283.15
283.15
303.15
303.15
284.427
283.15
283.15
283.15
303.15
303.15
283.15
283.153
284.392
283.15
303.15
283.15
303.15
303.15
283.15
283.15
283.15
283.15
283.15
283.15
283.15
303.15
283.15
283.91
303.15
283.15
283.15
283.15
303.15
303.15
303.15
283.15
283.15
302.862
283.15
283.15
283.15
283.564
291.207
300.763
303.15
303.15
283.15
303.115
286.844
283.15
303.15
303.148
283.15
283.15
299.44
283.371
303.15
303.15
283.373
303.13
303.15
303.15
283.15
283.15
303.15
303.15
283.417
286.053
283.15
303.15
283.152
283.15
283.15
283.15
283.15
303.15
283.181
303.15
303.15
283.192
283.15
289.021
283.15
303.15
303.137
286.21
293.473
291.499
300.177
283.16
283.15
283.368
283.15
303.15
283.832
283.15
283.15
283.15
286.991
303.15
283.15
283.15
283.15
283.15
283.15
303.15
283.15
283.15
283.15
283.15
283.193
283.15
283.15
283.15
283.15
283.15
283.15
283.15
283.15
283.15
283.15
283.15
283.15
283.231
283.15
303.15
283.15
283.15
303.202
283.15
283.15
283.15
283.15
283.15
283.15
283.15
283.15
283.15
283.15
283.15
303.124
283.15
283.15
287.466
303.073
303.048
283.15
283.15
283.242
294.592
283.15
283.15
302.986
285.809
302.403
283.15
283.21
283.15
283.191
283.424
303.12
289.604
302.709
283.15
283.15
283.268
283.15
283.152
283.183
303.13
283.15
297.52
302.929
303.105
283.15
303.093
303.024
283.369
299.55
283.15
303.15
303.15
283.39
283.722
283.156
301.383
284.835
283.16
283.173
303.143
283.15
283.15
283.15
283.15
302.606
303.147
291.06
302.952
303.177
300.215
303.207
302.934
283.15
283.15
302.928
283.15
303.15
283.15
303.15
283.15
283.683
283.171
283.15
283.15
283.175
303.044
283.15
283.15
303.049
283.15
301.032
303.137
303.09
283.15
283.15
283.15
284.375
283.15
283.871
283.157
285.811
303.14
283.15
283.15
283.15
284.1
283.15
284.257
303.15
283.15
302.884
283.334
283.15
292.119
283.15
286.848
291.864
283.15
287.416
303.057
303.183
284.747
303.15
283.15
283.15
298.288
303.094
303.15
283.15
285.457
303.15
283.15
283.15
303.176
303.161
284.664
295.721
283.2
303.098
291.039
283.15
303.148
283.15
303.16
283.15
283.15
283.15
296.499
295.906
283.159
283.15
294.614
283.15
283.15
294.543
288.683
303.151
294.082
296.825
283.152
294.517
283.15
303.15
283.15
294.714
303.15
283.15
303.167
284.926
303.15
283.484
283.15
293.53
283.195
283.15
283.15
284.008
285.068
283.746
283.15
303.15
283.15
283.227
283.15
283.15
283.15
283.15
283.483
283.15
283.15
284.436
283.15
283.15
283.15
283.15
294.342
285.842
283.15
303.16
283.159
303.147
283.15
299.703
283.151
283.15
283.15
283.15
284.685
283.15
283.15
283.15
292.561
283.155
283.102
288.402
298.308
303.15
283.15
299.079
283.15
301.899
303.15
297.602
285.109
283.15
299.742
303.15
283.771
283.15
283.15
283.15
285.921
303.165
303.149
283.15
283.15
283.18
303.15
293.838
303.15
303.164
296.41
303.44
303.15
283.15
303.15
303.15
294.045
283.15
303.15
283.169
283.15
283.235
303.15
303.15
286.367
283.347
290.544
303.205
303.15
303.146
285.672
283.323
283.15
283.15
287.883
303.15
283.15
303.15
303.15
303.132
287.533
303.15
303.147
283.312
303.152
302.734
284.846
283.147
283.738
294.464
291.155
303.15
283.15
283.15
283.15
283.15
302.382
283.15
283.15
303.15
303.15
283.203
303.154
302.966
283.15
302.963
283.15
283.15
283.15
283.15
283.229
283.15
302.631
283.15
303.15
283.886
285.536
303.132
283.181
303.15
283.15
283.15
283.15
303.15
299.993
300.309
283.257
283.152
298.889
283.15
301.222
303.15
301.539
301.906
303.15
303.15
283.15
290.727
283.15
283.15
303.15
283.15
283.398
303.15
283.15
283.938
284.866
303.15
302.64
283.15
283.178
283.519
302.828
283.15
296.495
283.15
303.133
302.83
287.677
298.712
283.15
283.15
283.164
283.15
302.987
303.151
303.15
303.165
293.616
296.669
293.998
283.151
303.15
283.15
303.15
303.064
284.973
303.15
283.15
283.15
303.15
285.577
303.106
303.15
303.105
303.154
283.715
283.15
283.15
283.203
283.15
303.15
283.15
291.977
293.821
293.801
303.141
303.15
283.15
303.179
283.15
303.18
303.15
303.15
303.143
303.15
285.126
303.15
284.386
303.146
303.15
286.982
303.144
283.15
283.151
303.136
283.15
283.15
283.475
303.131
294.661
283.156
283.15
283.15
303.15
283.532
302.957
283.15
297.096
298.167
287.001
303.15
283.15
283.188
297.87
283.15
283.652
303.15
303.144
303.183
283.15
303.15
287.285
283.15
303.188
303.15
285.012
283.15
283.15
283.15
302.574
283.15
283.15
303.15
283.15
283.15
284.846
283.445
283.15
283.15
284.627
283.15
303.15
287.085
283.15
283.15
283.15
303.15
283.15
283.15
303.15
283.15
283.562
283.15
283.15
303.15
283.15
283.15
283.15
283.15
300.831
283.15
303.15
283.15
283.456
283.15
283.15
283.15
303.15
283.209
303.15
283.15
303.15
302.874
303.15
283.157
303.15
297
283.15
290.092
303.15
283.15
283.15
283.15
283.15
283.987
283.15
303.15
283.151
303.15
283.15
283.15
303.15
283.15
283.15
303.15
283.15
303.15
303.15
283.15
283.15
285.23
283.15
283.15
303.15
283.15
283.15
283.15
283.15
283.15
283.158
283.15
283.15
283.15
283.342
283.15
283.15
303.15
303.15
303.15
283.154
283.15
303.15
302.957
283.15
303.15
300.124
303.15
283.15
301.651
303.15
283.15
302.12
283.15
303.15
283.15
283.396
302.202
300.777
283.15
288.141
283.183
283.16
283.15
303.15
283.213
283.15
283.15
283.173
303.15
283.399
283.15
303.15
283.15
283.15
283.15
283.15
303.15
283.15
301.193
283.15
303.15
298.909
303.15
283.15
283.15
303.15
303.15
296.143
303.128
303.01
283.349
303.15
301.736
288.947
302.56
300.218
296.95
283.18
303.15
303.15
303.15
287.776
291.295
290.511
283.15
283.271
283.248
303.15
303.15
283.15
303.15
301.552
303.15
303.15
303.138
285.059
303.06
302.966
287.685
285.291
303.067
293.802
303.152
283.151
303.15
303.15
283.154
283.189
283.15
303.15
283.155
283.955
303.15
301.959
286.595
283.15
283.15
283.158
283.895
283.15
293.696
283.155
283.156
283.15
303.15
283.397
283.15
283.15
303.156
283.45