/*--------------------------------*- C++ -*----------------------------------*\
  =========                 |
  \\      /  F ield         | OpenFOAM: The Open Source CFD Toolbox
   \\    /   O peration     | Website:  https://openfoam.org
    \\  /    A nd           | Version:  10
     \\/     M anipulation  |
\*---------------------------------------------------------------------------*/
FoamFile
{
    format      ascii;
    class       volScalarField;
    location    "22.5";
    object      p;
}
// * * * * * * * * * * * * * * * * * * * * * * * * * * * * * * * * * * * * * //

dimensions      [0 2 -2 0 0 0 0];

internalField   nonuniform List<scalar> 
111485
(
7.87176
0.0259674
0.0164413
7.87296
0.00960088
7.60929
0.00973264
0.0187606
0.0100521
-0.00316348
0.00926267
0.00677798
0.0134538
-0.00174388
0.0115351
0.0371023
0.0260785
8.79315
0.0147672
7.87371
7.87395
7.61213
0.00762367
0.0260522
0.00392041
7.84779
0.0124452
0.0453866
0.014833
7.87259
-0.0850987
0.0162545
7.87549
7.60739
8.57414
7.56788
-0.0615448
0.0518609
-0.120235
0.0204288
7.65484
-0.00276535
0.0211493
-0.0331079
-0.263515
7.88565
-0.0167416
0.021722
-0.00781768
7.91593
7.91408
7.36129
7.92257
-0.0479919
7.92754
0.0244448
0.0152563
7.61607
-0.0966696
0.0177933
0.018986
7.87218
0.0185541
-0.0747341
7.65731
0.0239476
5.10103
0.0169393
0.00488487
0.016163
-0.143349
0.0303088
7.72576
0.00502262
7.87761
0.0302758
7.61182
-0.00587319
7.61057
8.05624
-0.11498
-0.0356385
7.61137
7.87402
0.0227747
0.00818559
1.74324
-0.054413
-0.107172
0.0379977
-0.215926
0.0100902
0.0219216
0.0459438
-0.00256307
7.87373
7.87219
-0.0377866
-0.744294
0.0661041
7.87212
0.00452553
7.59695
-0.0101381
0.0102703
7.91225
7.61468
0.0151151
0.00775345
-0.351679
0.0209697
0.032433
0.0156833
0.00504945
7.84432
0.0310304
7.86082
7.60831
0.0108805
7.87464
7.84678
6.66175
7.61225
7.61627
-0.00394034
8.95529
6.6245
0.0185675
7.87442
0.385944
-0.105701
-0.0392103
7.87813
6.50856
6.79787
0.00999245
7.61168
0.0321297
0.00833927
0.026592
-0.0396361
0.00964156
0.0160746
0.0174244
-0.0240927
0.0328119
7.61166
7.87324
7.62104
0.0164007
0.0131538
7.8716
-0.0742083
0.00920738
-0.668386
0.0183352
0.0139363
0.00874796
-0.52574
7.87901
7.87325
0.0156612
0.00651065
-0.485614
-0.605569
0.0252121
-0.0662896
7.6433
-0.448175
-0.413582
7.61575
7.87276
0.0052702
7.61319
0.0291872
0.0170788
7.66706
7.70437
7.86357
7.81113
7.67542
7.87231
0.0231427
0.0183909
0.0254543
0.0700659
0.000359278
0.0273009
-0.0513186
7.8729
0.0153615
7.69946
7.86046
0.0352855
-0.0100434
-0.0500228
0.031148
0.0160006
7.87845
0.0217921
0.0170748
5.28505
-0.0236465
0.0251077
7.86858
0.0311658
-0.0108339
7.69837
-0.055866
-0.0125626
0.0124075
0.0138471
7.66818
7.87169
0.0276014
4.95413
-0.038848
7.61291
0.0301917
0.033634
-0.00499271
7.87065
0.0195328
-0.0651363
5.98672
7.61293
7.61587
-0.118381
-0.594094
7.72471
7.2962
0.0317298
0.0228957
-0.0826331
7.72276
7.80573
-0.0727804
7.87531
0.00691453
0.0290008
0.0293469
0.0169471
0.0284592
7.61707
-0.111558
0.0178019
7.6199
7.6115
-0.0533275
0.0314738
7.78237
0.0303279
0.0293148
7.87342
6.3522
-0.0290774
7.88803
8.02399
7.18687
7.87376
0.0252666
0.0189127
-0.0106608
7.87497
0.0291127
7.87278
7.8709
7.87806
-0.0805249
-0.0124046
0.0250859
0.0161222
-0.000321681
0.0187759
0.0162193
-0.0834034
0.0101512
0.0206478
7.57127
7.87315
-0.0848886
0.0194503
-0.095473
0.0255639
7.87418
0.0257204
0.0117718
0.0189861
0.0159544
-0.115244
0.0140152
0.0175582
-0.0261583
7.61261
-0.0141376
7.61328
8.73848
8.09035
-0.125677
-0.0124902
0.0086755
7.86702
7.67676
0.0263703
0.0261539
7.87131
7.86947
7.93113
0.0177668
0.0297155
0.0193757
0.0153848
0.0115875
7.22505
7.61892
7.87449
0.0288821
3.24337
-0.00641082
-0.115895
-0.0898389
7.61228
7.87141
7.87214
6.79141
0.023599
0.0175702
7.60503
0.0265696
7.77954
7.86367
-0.036132
0.0241199
0.00136141
0.0266373
7.98497
6.75558
7.60818
0.0239708
0.019678
-0.0865778
7.65005
0.444409
-0.153865
0.0171121
0.0285708
1.26873
0.0101465
7.6101
0.00540642
0.0297822
-0.105454
-0.0422161
0.00652249
7.61031
7.87594
7.61332
7.87619
0.0254603
0.0240019
-0.0160236
0.014795
7.62854
0.0106341
7.61575
7.87923
0.0113265
8.1398
6.94954
7.91488
7.56321
0.0168837
7.61471
0.017168
0.0155585
7.61039
0.00553849
0.0256849
7.85311
0.0254256
0.0103584
0.0313246
-0.0509292
0.040662
0.0299331
7.99298
7.87386
-0.0218649
7.63279
0.00358554
-0.0488569
7.66571
7.61529
0.0258917
0.00894105
-0.000878644
0.0219904
7.61151
-0.0835259
0.00215742
7.60731
-0.035683
-0.0127955
7.87071
7.87253
0.0246758
0.00460898
7.59317
7.86479
5.85766
7.87148
0.00933202
7.61306
7.87243
-0.00121516
-0.0991909
-0.0105484
0.0176755
7.6104
6.80917
-0.00847655
6.90722
-0.0312844
-0.00434737
0.00339402
5.2743
6.98123
-0.489916
-0.311363
7.8701
-0.052513
0.00910996
7.86873
-0.514348
-0.00352787
6.94589
0.00339887
0.00533338
0.0385652
7.61162
0.268476
0.00222696
0.0489543
-0.139018
6.60052
-0.608384
7.8711
-0.0453272
-0.169144
7.6164
-0.00759953
-0.0118811
6.41838
7.87392
7.47101
7.87291
0.0113097
0.0781754
0.00929568
0.00893923
-0.0583346
7.6132
-0.0469464
7.88403
0.0224759
7.59843
7.88139
7.88845
-0.000391615
7.8747
7.87168
8.34489
7.8706
7.62433
-0.0209455
7.6141
7.41607
7.61022
7.8592
7.604
7.88074
7.61249
-0.00257952
7.60871
-0.0240785
0.000145525
-0.0995511
7.61867
-0.0216048
7.61783
7.87144
-0.00716141
-0.00745089
0.0401766
-0.127233
7.32099
-0.0145509
-0.0246409
0.0229129
-0.0145652
-0.00400763
7.87389
-0.0044005
6.42955
0.00147484
7.61271
-0.0221002
6.65394
0.0223903
0.0138496
8.29167
7.67739
-0.0327525
7.87166
-0.014218
-0.0224499
7.62307
7.63027
7.92091
7.61517
-0.985186
-0.014314
7.60767
7.62042
0.00731331
7.6121
-0.0178003
7.61104
-0.020297
7.8717
0.00649469
0.00536104
0.0508815
0.0212665
7.59074
-0.128639
7.60569
7.61265
0.00189025
7.61382
-0.00330871
7.9271
-0.0361257
7.87317
0.0218165
7.87399
6.95374
-0.113611
-0.0483877
-0.0185734
0.0058142
-0.0308371
-0.00608257
7.62009
-0.0261503
-0.0292265
7.61234
-0.0547849
-0.0658765
-0.0111506
7.68106
8.03674
0.030477
-0.0412073
3.67406
7.71953
-0.00182497
0.0189365
0.00300068
-0.00018185
0.155842
2.5221
6.86007
-0.706853
3.13652
7.87311
0.00747392
7.63206
6.98455
0.0297072
2.48118
-0.727728
1.41787
6.85799
-0.0147185
0.0141343
7.62684
7.4431
0.0212633
7.87945
7.61213
7.61285
7.61714
-0.00257381
7.61431
7.82917
0.00398342
0.025548
6.0149
-0.0310677
7.30787
0.0265289
7.92145
7.61801
-0.00766977
7.61186
7.61712
6.95133
0.0451419
4.63436
-0.0268699
0.0374307
7.88768
-0.230502
-0.0701484
0.00297951
-0.0168372
0.248107
-0.00129941
7.61515
-0.00947685
0.00591893
7.87615
0.0200206
-0.0244624
0.0114619
0.0361548
0.0116467
0.0105796
7.88607
-0.00176774
-0.0573436
6.93143
0.0124337
0.0117559
4.83389
0.0381337
0.0128272
0.00268425
0.00562962
0.0142546
0.031982
7.757
0.00799484
-0.00300321
8.23031
-0.00648972
-0.0206676
0.036281
7.61556
0.0490845
7.89067
7.61204
7.62477
7.61522
0.0153411
7.04432
-1.05037
7.86865
7.5527
0.00284354
-0.00275402
7.87056
-0.0119749
7.86994
7.87315
7.92377
-0.00831313
0.00521029
6.98085
7.81995
7.61415
7.61434
-0.0674322
0.0203899
6.79914
0.000651383
-0.417565
7.61865
0.00824715
-0.018493
0.0828057
7.61137
7.61245
0.0216155
0.031138
6.91507
7.61623
7.60283
0.0154417
7.8762
7.87036
7.6142
0.00454126
0.0189945
7.61144
8.47932
8.21271
0.148946
7.61782
7.61102
-0.0232632
-0.0771452
6.89961
5.94455
1.1342
-0.013495
0.00192365
7.59044
-0.0215557
-0.00619972
7.61108
7.92119
7.61114
7.61323
7.6168
7.61079
0.0211101
7.87111
7.61188
7.67177
0.0124489
0.0177563
7.87797
7.9345
-0.0255981
0.0250598
0.0348829
7.86963
7.61249
0.0255792
7.87381
-0.00928367
0.0191415
0.0411659
7.85073
7.87222
7.87207
7.61351
0.0340823
7.61242
7.61169
-0.0348766
7.87218
0.0337975
0.00453946
7.63565
0.0340062
7.84026
0.0233781
-0.00650329
-0.025508
-0.0184413
-1.27873
7.22829
0.0214504
-0.0202775
0.000825041
7.78558
-2.11599
7.14534
0.0236481
7.61615
-0.0299227
-0.0144828
-0.0333082
8.08039
7.87225
7.87407
0.0289307
7.30468
-0.026536
7.44193
0.0240459
0.0341246
0.00948575
0.0243826
7.61042
7.63821
7.7479
0.0267054
7.61437
7.22567
-0.16255
7.61507
7.62199
7.87373
7.61159
0.0100626
7.60111
7.61347
-1.58282
7.28707
7.63459
7.06581
7.61362
-0.0383147
0.0132406
7.87147
0.0150853
1.0013
-0.0383382
-0.390244
0.0237868
7.61845
-0.00948055
-0.0302478
-0.0374334
7.87339
-2.65044
0.0102057
6.4662
-0.00395552
-0.119554
-0.105884
0.00331493
0.0269553
-0.142306
0.0386445
0.0277241
7.59202
7.62834
0.0111629
-0.000459898
7.61722
0.0137084
0.00475334
0.0220284
7.61007
-0.123702
7.612
0.0196635
0.0135613
7.61152
-0.0664098
0.0273458
-0.162105
-0.021895
7.56851
0.0152014
-0.156394
-0.0785363
-0.159928
-0.0409951
7.60263
7.62264
-0.0241454
7.6116
0.0274034
-0.0795316
6.71836
-0.477014
-0.830963
-0.307972
7.6115
6.37855
0.0248127
7.87368
9.46303
-0.0490358
7.60691
7.61049
-0.729694
-0.866924
7.61172
-0.124909
7.61323
7.61187
7.8754
7.87071
7.95551
7.87286
-0.0270511
7.6161
7.61613
7.62123
-1.4433
0.0130555
-0.000302641
0.0256468
7.62576
7.61057
-0.0506488
7.61281
7.61432
5.80872
-0.0552273
0.0240124
7.61144
7.60648
7.62322
7.61077
7.55833
7.60975
-0.0739646
7.61619
-0.205364
0.0118486
7.61402
7.8826
7.93115
-0.126845
7.92331
7.87367
7.62968
-0.21471
7.61078
-0.0669611
-0.0716584
-0.183133
7.60904
5.28912
-0.0423645
0.00666243
7.66211
-0.201675
-0.0151825
7.88193
7.58767
6.89823
7.60724
0.0233217
0.0133388
-0.0654673
-0.351707
7.61237
0.0260398
7.56677
6.82545
6.85524
7.61595
0.019643
7.61274
7.94173
-0.0674825
0.0291735
7.93882
-0.00186721
7.31151
-0.0859183
7.97753
7.61258
7.58423
7.87252
0.0254586
0.0214896
0.352989
7.61327
7.66263
0.0152603
7.61186
7.06976
7.87173
-0.00434823
-0.340266
0.0442951
7.86328
-0.0748376
-0.0626807
8.24111
-0.062464
7.62009
-0.0419266
-0.0261975
0.00698557
-0.0896268
-0.180561
7.6123
7.61324
7.61289
-0.0744626
7.68364
-0.111297
7.87553
0.731407
7.87244
0.017923
0.0201533
7.94344
7.6113
7.96074
7.62242
-0.113105
7.96886
6.90619
0.00481541
-0.106227
7.91062
7.03569
7.7034
7.05614
7.61311
7.61204
-0.104901
0.00561718
7.87301
7.86632
-0.633334
7.87819
-0.104534
0.0233888
7.69641
-0.0354812
7.87244
0.0178578
7.62124
0.0148902
7.61138
-0.589791
-0.311012
-0.149512
-0.0409543
-0.0453257
4.6823
7.54192
-0.0325679
7.91771
0.01358
7.8711
7.64216
7.62342
7.62346
7.64753
7.61722
-0.0556119
-0.0669809
7.87271
6.6521
7.87908
-0.0546044
-0.127122
7.86889
0.0251374
-0.152924
7.93159
0.0263778
0.0264524
0.0164775
-0.149591
7.61186
7.61124
7.64136
7.61215
0.0197741
7.54218
-0.0358169
7.61237
-0.0454621
0.018992
7.6153
-0.0536044
7.60347
7.61159
-0.0465991
-0.0847772
2.13203
7.61304
7.95496
7.60458
0.0216621
7.50396
7.92275
7.52161
0.860634
6.72433
-0.533206
7.02681
7.48518
7.76891
0.0197126
0.00422165
0.0113754
0.0191501
7.8578
-0.0306715
7.61465
7.61556
0.0168769
7.5889
-0.649073
-0.0414826
0.0325123
-0.0477128
-0.96784
-0.00328333
7.61467
-1.42484
-2.97661
-0.00940957
-0.0370286
0.0228788
5.50038
7.86756
0.000814102
7.87675
7.61033
-0.248252
-0.0026576
-1.12261
7.59674
7.44213
-0.0764306
7.93119
7.6131
-0.0534751
7.95006
7.93902
0.111938
-0.0533672
-0.0940988
0.0474788
0.0267534
7.61593
7.61179
-0.278112
0.0257362
7.61281
7.94428
0.0320029
7.62376
6.60897
6.75881
6.79544
4.35753
6.62571
7.61433
0.0199489
7.59935
-0.0789422
7.61279
3.4256
7.67129
7.63658
7.61504
7.61254
0.0284818
7.6123
7.61201
6.91533
7.60817
7.6157
7.60909
0.0243354
7.62968
0.0212006
-0.0842405
7.63891
0.041199
7.61243
-0.0282442
-0.21009
0.0177161
0.0260903
7.84656
0.0234012
0.0241697
-0.15237
7.87478
-0.109587
0.024978
0.0264498
7.3273
0.0178613
7.6841
7.61339
7.6149
7.61146
0.0235531
7.61311
7.60201
0.0201627
-0.137087
0.00843478
7.62449
5.42585
0.0299097
7.61781
-0.373725
7.92837
0.0132729
7.60903
7.61151
-0.00583904
7.60879
-0.0218625
7.87534
7.61235
0.0275159
-0.0398326
0.024304
0.0195579
-0.142649
0.0182221
7.6127
8.01917
0.0133969
0.0288778
0.0301938
-0.0958162
7.61179
0.0220552
7.61164
7.79922
0.00387025
-0.0722908
7.62439
0.0235214
7.60087
0.0189488
0.031234
7.71265
7.61131
7.6136
0.0125298
7.61451
7.61296
0.0158523
0.0194627
-0.0436225
0.022993
7.63372
7.62435
0.0106517
0.0283308
7.61746
0.010755
7.7005
0.0067736
7.61249
7.61221
-0.00780545
7.6113
-0.0241779
0.0308781
7.61838
7.61071
0.00432449
6.47022
0.0311013
7.87181
-0.0612982
7.88226
6.67832
6.45466
0.0274191
6.96284
6.88856
0.0113247
6.84626
4.25598
6.33189
7.67384
7.87775
-0.181429
0.024776
7.65288
7.61112
0.00126181
0.0127332
7.6228
0.0125506
7.6104
7.88287
0.00383824
-0.00618914
0.126041
7.61134
7.61431
7.61295
7.61175
7.60663
7.60983
7.60614
7.60713
7.61093
7.6097
7.61189
7.87909
7.61526
7.61068
7.61329
7.78523
7.61116
7.61139
7.61187
7.64005
7.81739
0.0192758
7.61353
7.61144
7.62433
0.0271814
7.61646
7.88277
2.94576
7.60129
7.50885
0.0184094
8.2433
7.56487
3.47991
0.0134828
7.61294
6.75939
7.25885
7.61054
-0.0304408
0.0156034
0.0125161
0.00447211
0.0321468
7.90276
7.60547
0.0173898
0.0237988
0.00329348
7.60934
0.0224604
-0.0164868
0.0271675
0.0217573
0.0228197
0.00493803
0.0260547
0.0165607
7.88603
0.0227656
0.0263713
0.012847
0.0192621
7.61182
7.6113
7.61183
7.87254
7.60942
0.025381
0.0249015
7.61499
7.61087
7.61144
7.81845
7.61312
7.87462
7.61803
7.8793
0.0298396
-0.227409
0.0255504
0.0307342
7.58778
7.62851
-0.033764
-0.266706
7.61141
7.61235
0.00768826
7.88474
7.61209
0.064735
-0.00173871
0.0155737
0.0319228
-0.0304667
7.89909
0.0144632
0.0212116
6.90794
7.87648
0.0110199
7.89591
7.6249
2.38082
1.2706
-0.00967071
7.76557
7.84934
-0.0455941
0.0221929
0.0328784
0.0246409
3.39088
7.87211
-0.018654
8.23638
7.87355
7.55771
0.0036024
7.61264
0.0264426
0.00900393
0.011718
0.0137947
7.87947
0.0362293
7.87533
7.45321
7.87345
7.86606
0.022019
4.48739
7.61191
7.87302
8.35877
0.0270849
6.85649
0.0112026
0.0202569
0.02157
0.0228596
7.82379
7.86844
6.62798
0.0129488
0.0266031
-0.92713
7.92065
7.87181
6.82355
-0.0238882
-0.0255537
7.61054
-0.0335733
2.48719
0.015321
0.0200071
7.87242
6.64266
0.0121861
0.0252099
7.61334
0.00535263
0.0037063
-0.00333728
-0.00468363
0.0204967
0.0376712
6.91066
0.0314622
0.023913
0.0297609
7.96377
0.0176644
6.99736
0.0322371
0.0205575
7.87383
0.0211926
0.016414
0.0114542
0.0252448
8.73856
2.07641
-0.0537091
4.27696
0.0181764
7.6478
0.0224798
0.0179534
7.88031
7.61204
-0.364317
-0.119434
0.0203242
8.73054
0.0063456
-0.212031
-1.17134
-0.0851276
7.88107
7.89204
0.0232336
8.34658
0.0246681
-0.221324
0.0175515
0.0330806
7.87257
-0.00210961
0.024684
7.87181
6.92992
0.0360601
7.88696
0.0281002
0.0324886
7.87317
8.78904
0.0227111
7.87278
7.61106
7.61293
0.0294709
0.0345818
0.0128059
7.92616
0.00973889
0.0287358
7.67276
0.0316285
0.0197429
0.0250782
-0.129443
7.61211
0.0187593
0.0539536
0.0313321
0.0197797
0.0267174
-0.160955
0.0293941
7.87156
-0.0497377
0.0223191
7.87208
0.0267902
7.61898
7.6132
7.87489
7.62305
7.87428
0.00153817
7.61366
0.0270583
-0.0185711
7.87551
0.013926
7.80416
0.0174283
7.87935
-0.169047
7.65357
0.00714109
0.00161864
-0.191828
0.040914
0.023881
0.0174759
0.0287562
0.040782
2.7643
0.0330758
0.00563705
0.0431527
7.87289
0.0408009
-0.127916
0.0376624
0.0134519
-0.17063
7.87512
6.76859
7.87769
0.0132061
7.87189
6.16614
0.0249854
8.38953
0.00785171
7.8642
7.84022
7.612
0.0181844
0.0432505
0.0232538
-0.0464314
0.0249476
0.0203582
0.0326143
0.00941232
0.0156097
0.0307389
0.0218738
7.87967
7.56645
7.86553
0.0180307
0.0288579
7.64891
7.6119
6.30387
0.0453547
0.0185171
7.87241
0.0236221
7.86974
-0.438828
0.0170346
-0.0670779
7.87332
7.87139
0.0110513
7.87209
-0.00858618
0.0301538
7.4539
0.0208321
0.0159789
0.0273675
7.87193
-0.113131
6.98011
-0.0267323
0.00974408
7.87485
7.88397
0.0275077
5.52407
7.90393
0.0352509
0.0316376
7.87233
7.85545
6.93616
0.0134522
6.28309
0.0165121
-0.0356417
-0.00140935
7.87178
7.03403
-0.0371344
7.8705
7.61862
7.87385
7.87579
7.14634
7.7258
7.57225
7.87329
7.88957
7.29669
8.39818
7.64105
0.000942918
7.65059
6.75434
6.39089
8.90685
6.89608
7.87188
-0.0350364
7.38869
7.7102
-0.0356491
8.2088
8.57401
7.77112
-0.0444085
8.36792
-0.0333172
-0.0869393
0.0112747
7.16479
7.8754
-0.0251725
-0.461964
7.83589
7.86514
0.0210324
7.08569
0.0207321
7.01016
7.59498
7.72866
0.0193251
0.0229895
7.87052
0.00433519
7.89738
7.38794
-0.189738
0.0432568
-0.03299
7.60954
0.0222283
7.22942
-0.0230425
7.61269
7.87238
7.61133
6.98824
0.0410881
0.0313568
7.87401
-0.774669
7.8819
7.89495
7.8816
7.87348
-0.0263916
-0.0407732
0.0331133
-0.0220685
7.83253
0.010955
0.0128749
0.0365792
-0.0324119
7.66239
0.0274156
-0.00127961
-0.00421567
-0.435434
0.0227974
7.92425
-0.0143892
-0.0254038
0.0230372
-0.0249961
-0.0486765
7.90303
-0.0417945
7.77964
7.87607
0.0207813
7.87932
0.0253508
7.86951
7.93939
7.55105
7.87986
7.87305
-0.0484296
7.87849
-0.0170976
7.19547
7.61657
0.0205026
-0.00403807
0.0299694
-0.0174761
7.88991
0.694115
7.87411
-0.0198872
7.94069
0.0146801
-0.028633
-0.0178071
-0.00521541
7.97107
7.97801
7.88026
0.0284078
7.62758
7.86603
0.0240007
7.60409
7.61086
0.000127002
7.97091
0.00884324
-0.44178
7.14584
7.49972
7.43812
0.0114447
0.0125574
7.87259
0.00739898
-0.0126167
6.98816
-0.0229811
7.87037
0.0204195
0.0220703
0.0394891
7.87478
0.0113906
0.0201279
-0.029551
-0.00415215
0.00701842
7.87399
7.87222
-0.108429
7.86826
7.60974
7.87003
0.0139562
-0.0195287
0.0184289
-0.0366858
6.86853
-0.00397497
0.0162323
0.0118209
-0.0608002
0.0182994
-0.0191663
0.0121385
7.61166
7.61207
7.61183
0.0301716
7.6133
-0.0335736
5.24233
0.00232
-0.563824
0.00774152
0.0134213
7.61051
7.87281
0.00327617
0.00244403
7.88691
7.60586
7.87345
0.0107824
0.00480556
0.00168875
0.00754159
0.0295337
0.0147611
7.87349
7.87309
7.87167
0.0398661
0.00611684
0.00243003
0.0153992
0.0327025
0.00347826
7.84941
7.87189
6.33954
7.65551
0.0244594
0.0269803
7.86753
7.90648
7.8671
7.87515
7.83609
7.71692
-0.0067292
7.87473
-0.0511463
-0.12128
7.61897
-0.00113812
0.0267315
0.0214873
7.91755
7.76333
-0.00597782
7.87267
-0.00773001
-1.23541
0.0189438
7.66712
5.9527
7.61147
7.87693
7.86863
7.60496
2.10433
7.88659
0.00812838
-0.00366292
7.87499
7.87248
-0.00987658
7.87903
7.6132
0.0126417
-0.20584
7.86211
7.86264
7.67108
0.042089
7.87221
7.87193
1.16131
-0.0251403
-0.0108647
7.87232
7.61833
7.20707
-0.0154173
-0.0105598
-0.0128893
0.00569402
7.61196
0.052878
0.0125544
-0.000456074
7.55696
7.86893
7.87173
7.82479
7.87238
0.0239024
0.0202487
0.00175021
7.88944
7.8723
7.872
7.8694
7.68614
-0.0405672
0.109362
0.0198718
7.61564
7.87283
7.9264
-1.01441
-0.042914
-0.0719715
7.61077
-1.95013
8.25729
7.83926
7.87125
0.0229808
0.0347087
7.87513
7.90742
0.0112104
7.87326
0.0135921
0.0288621
2.7325
7.87091
7.66185
0.0228385
-0.0622816
7.91136
2.54105
0.0540863
0.0313306
7.87406
7.877
7.88184
7.88097
0.0261854
0.0265746
7.87731
-0.052103
-0.014778
0.2015
7.87278
7.87216
7.87359
7.87756
0.00860363
8.38375
7.87402
7.76838
0.0242915
-0.00960839
0.0296804
7.84595
7.87169
-0.020731
7.62516
7.87272
7.87514
7.87429
0.0204089
7.69604
7.59691
7.61454
0.0201424
0.0265815
7.86953
7.87392
7.85587
0.0150738
8.15139
7.87851
7.85792
7.87394
7.87349
-0.203552
0.0226332
7.91412
0.0213286
0.0149209
0.0202953
7.87807
7.87463
7.87406
7.8334
7.61185
0.0300627
7.87372
7.37877
7.33252
-0.0178985
7.65278
-0.0257217
7.87213
7.61482
-0.0229297
0.288936
7.03262
-0.00662519
7.87508
-0.0107181
8.12424
7.89193
7.92287
9.10732
7.88042
-0.0384046
7.87088
0.00917853
7.61447
6.93482
7.87922
7.8682
0.0154457
0.0325924
7.61166
2.64367
7.60978
-0.0724769
-0.0412404
0.0117859
7.61442
-0.354098
-0.0241837
-0.0507648
0.0222277
-0.629355
-0.0302158
7.59289
7.6119
-0.753478
0.0216833
-0.0026592
7.91016
7.51474
6.37101
3.2534
7.87398
7.61713
7.8744
7.87469
7.87539
8.30255
0.0341872
-0.0749143
0.0298635
6.96789
-0.0952634
7.87398
0.00945272
7.87161
7.88016
7.61293
7.71266
-0.106968
7.69332
7.60641
7.87249
0.0161665
7.871
7.87218
-0.0564714
7.82758
5.75023
4.92505
4.58534
7.87623
4.80589
4.6463
4.75546
5.45735
7.61158
7.61199
0.0103285
-0.0142922
6.95661
7.13901
7.60768
0.00527971
8.19159
7.71207
-0.103123
7.8752
7.87269
-0.0379311
-0.0899127
7.83773
7.61313
-0.0339207
7.03327
7.60516
-0.40882
0.00648894
0.0506784
7.81227
0.0213576
7.87436
0.0151784
-0.397973
0.0160384
7.87298
-0.392499
0.0206276
7.96746
-1.04512
7.86496
0.0193017
7.53117
0.026504
7.80474
-0.049564
7.87418
7.57221
7.61367
-1.47201
-1.47965
7.88538
0.00916855
0.0111321
7.91869
7.87262
-0.00526256
0.0203035
-0.12589
7.87985
0.0147014
0.00889572
-0.0484464
-0.854486
7.87554
-0.173603
7.62076
-0.153496
7.87166
-1.73596
-2.0127
7.85335
0.0220301
7.67488
-0.0460342
7.61083
7.85757
7.88598
7.89028
7.85138
7.85888
-0.00287234
0.028637
-0.157217
7.88251
6.34682
-0.145053
7.88081
7.82875
7.90609
7.86621
7.90458
0.0228811
7.87307
7.87408
7.61174
0.0159372
7.85851
7.61217
7.54132
0.0366881
7.61267
0.00867093
-0.788136
-0.052393
0.0343365
-0.0152705
8.22199
7.87815
7.87141
0.0695685
0.0309696
7.54216
6.31097
0.0104163
7.87243
7.87521
-0.134931
7.86412
0.0154039
7.87533
-0.0123706
-0.0568344
7.88151
7.61126
7.87489
7.87467
7.87015
-0.0258433
7.87154
0.0116691
7.94406
7.87545
0.024415
7.60618
0.00719467
7.77532
7.8721
-0.0131772
0.0311075
-0.120813
7.87369
7.87407
7.8729
0.0296218
-0.0890263
7.95181
7.61101
7.64296
0.0131201
7.86652
0.0138313
-0.136384
7.87215
7.86874
0.0216076
7.86634
7.64538
7.6128
7.95955
7.61294
-0.154557
6.21676
7.63717
7.87305
6.37982
7.86839
6.60166
7.84752
7.86741
7.72876
0.0179593
7.7883
0.011184
7.86138
7.86769
-0.0580745
0.00556812
7.86302
7.82521
7.87485
0.0262344
6.70042
7.87428
7.73341
7.87102
0.0187105
7.8644
-0.182105
7.87383
-0.0102364
6.91638
-0.0274197
7.88989
7.87017
0.00498826
6.54363
7.88039
0.0291214
-0.00781523
7.89217
7.87473
-0.0186491
-0.057376
0.0203405
0.0168552
0.00675866
-0.00835983
0.0220795
-0.0395249
7.94903
-0.192019
6.25591
6.14144
7.87382
7.8719
7.87055
0.035232
7.87438
7.86743
7.87461
-0.123339
-0.0432674
5.94716
-0.0393654
7.87545
-0.0170214
7.61042
-0.0610478
0.0227544
6.32955
0.00206198
7.86672
7.84654
7.61239
0.0414623
-0.0113509
7.87308
7.61253
0.0312894
7.8735
-0.136227
7.91447
-0.0835928
7.8719
7.61291
7.85227
7.61175
0.0249425
7.61198
0.27085
7.61458
-0.00529337
7.87296
7.86941
4.30937
3.98446
7.89127
7.86981
7.87217
7.87271
-0.00763283
-0.144826
5.20978
7.87656
0.000392389
7.61028
7.62209
-0.432346
0.0120549
-0.0691441
7.61302
0.0258358
-0.021581
0.0259697
0.0144584
7.87247
7.87492
7.87914
7.87565
7.61279
7.61169
7.61243
7.84108
7.61334
7.61263
7.87218
7.61234
-0.109536
7.61162
7.87307
8.6158
7.87404
7.87329
2.70371
7.61174
7.87222
-0.00571972
-0.0995645
7.84931
7.85111
7.87283
0.0177292
7.64714
7.86014
-0.111817
7.61338
7.87372
7.86844
7.87634
-0.0454611
7.6117
-0.177486
7.87633
7.85712
7.8718
7.87252
7.87042
-0.11132
-0.144374
0.0211369
7.87426
7.63601
7.90894
-0.126514
7.87277
-0.134679
-0.0862442
7.61024
7.84277
5.93745
-0.407562
7.85601
7.01486
-0.394614
6.01647
-0.0106118
7.64493
-0.0405017
5.98333
5.61186
7.87196
-0.00103978
7.61327
-0.0138852
-0.0566793
7.88189
-0.00190416
-0.285538
7.87008
-0.0698164
7.61447
7.85711
7.86596
7.85305
7.86815
7.61022
7.87263
7.87158
-0.152348
7.10501
7.87277
7.86983
7.87165
7.87568
0.0186052
4.03889
-0.133535
-0.308367
7.87194
0.0137712
0.00295474
7.87269
6.99271
7.78712
7.86289
7.90007
7.96299
6.43051
7.16363
-0.0350568
7.87454
7.87745
6.09796
6.63805
7.61152
-0.00673413
7.88111
7.62617
7.87406
-0.0803616
7.87601
7.6117
-0.0162837
7.61234
7.57314
7.76347
7.91972
-0.0161997
7.87385
7.87235
7.87229
7.84289
-0.0157341
-0.066672
-0.0576128
-0.00309199
-0.0309372
-0.0392995
7.61304
6.54206
-0.166557
-0.0329429
6.53193
-0.153685
7.8681
-1.09051
7.63413
-0.0900162
7.8748
7.61673
-0.0315582
-1.39193
7.87751
-0.0332078
7.87608
7.87595
-0.0964111
-0.0566773
7.87214
7.61218
7.91794
7.61167
7.8698
6.8599
7.87342
7.87164
-0.0335297
7.87296
7.86829
7.87133
-0.0244915
7.88477
6.90203
7.61246
7.61177
7.29801
6.91965
-0.0260348
7.61616
6.92842
0.00503637
7.86596
-0.0427735
-0.0257554
7.87471
-0.000259695
7.87114
7.45394
7.93456
6.78311
7.61475
7.85102
7.86492
7.87546
0.0196484
7.87449
7.87298
7.87115
7.73372
7.87212
7.78435
-0.12083
7.87212
7.8769
-0.0703639
7.87324
7.6127
7.61202
0.0316399
7.87473
-0.163986
6.70151
-0.385735
0.0156576
7.60891
6.53666
0.0073643
6.26605
7.61297
-0.203194
-0.381381
-0.00266815
-0.0578371
-0.262258
-1.17177
7.63698
7.61755
0.00800555
-0.102439
-0.0850649
0.0168992
-0.401227
7.61072
0.0197131
-0.00187816
0.0045728
7.61539
0.00720944
0.0223943
0.023419
0.00390053
-0.124189
0.0145481
0.0421755
-0.00482951
0.0130387
0.026109
0.0100193
6.91569
0.0917768
0.0062627
-0.0023819
-0.0254415
0.0234773
0.0116255
0.015269
7.07633
-0.116315
7.02493
0.034775
0.010263
-0.0504619
0.00271552
7.01376
7.61017
0.0121829
0.0147866
-0.128757
-0.0650311
0.0243928
-0.0012489
4.82656
0.00845103
7.87212
-0.00173209
-0.113973
-0.0488188
0.0308031
-0.142569
-0.177985
-0.00364738
0.0066684
-0.0037997
0.0315442
0.000899225
0.123504
6.13789
5.39725
0.00113549
7.87673
7.87281
0.000782309
0.0213447
0.023298
7.87396
-0.0733336
-0.0577346
0.0178241
5.58404
7.87161
-0.215118
0.00870584
-0.12122
7.8751
0.0289626
7.87184
0.00833324
-0.00525558
-0.0472861
-0.0462927
7.87253
7.87406
-0.0385502
0.0118906
0.0269575
7.8655
0.00740704
0.0268167
-0.0264854
7.61969
0.0336874
0.048784
7.0062
0.0227144
-1.50645
-0.106867
7.58014
-0.0634713
-0.104433
7.87201
0.00260272
0.0177969
1.38749
-0.0145923
0.00779065
0.0228767
0.0210132
-0.0347436
-0.0230758
-0.235013
-0.111479
0.0318271
0.022208
-0.0151753
-0.172024
0.0203244
-0.0207873
0.059787
0.0140047
-0.162162
0.0400476
7.87206
-0.00339976
-0.013453
-0.107016
0.0382233
-0.0420079
7.63934
-0.00592566
0.0242323
7.86744
-0.0754583
-0.00895161
-0.00573974
0.00182217
0.0226519
-0.043934
0.0119919
-0.0174819
-0.054766
7.87166
7.87236
-0.050418
7.61667
-0.0470861
-0.0053483
7.70629
0.0225674
-0.0211037
0.0395388
7.87118
0.0259064
0.0113932
-0.0636767
-0.145586
0.0206315
0.0450742
0.00797565
-0.0104854
7.8723
7.85569
-0.0975033
-0.0332313
-0.0595981
0.0200819
7.85536
-0.0336358
0.0151951
7.70675
7.51535e-05
0.0104773
-0.0836326
-0.227895
-0.0314092
-0.0387378
0.0383277
-0.00449193
7.62164
0.00283611
0.00327374
-0.000553592
-0.205598
7.85655
-0.0223664
8.01359
7.87322
0.0131463
-0.0127887
0.00574032
0.122315
-0.119082
1.48316
7.61452
-0.0318978
0.0253521
0.0658773
0.00882761
7.87989
7.61424
7.60373
-0.0015722
0.00318841
-0.232654
0.0250705
7.62722
7.85985
-0.00965011
0.00535823
-0.0433944
0.0131794
0.0080422
0.0290293
-0.0523749
4.37029
7.6115
-0.00475326
0.0231984
7.85934
-0.00513653
0.0244011
-0.0781284
0.0104103
0.00922728
-0.0427733
7.85952
0.0259462
0.00566692
7.61506
7.64378
0.0293723
0.0794864
0.0153682
0.0210705
0.0177972
0.0128582
0.0334646
0.0299755
0.0242523
0.0140401
7.85531
7.84777
0.00992516
0.0309738
0.0167261
-0.102326
0.0204784
-0.00346172
-0.00189692
0.0241351
0.0167693
7.61463
7.62284
-0.115867
7.85408
6.86204
0.0128027
0.0205547
0.000478901
-0.0973531
7.16142
-0.0353146
-0.0838438
7.29258
-0.105473
-0.213059
0.0199846
0.0221213
0.020033
0.027604
-0.146231
0.0208341
7.87268
7.23551
-0.08122
0.0302734
0.00487931
0.0264855
-0.109134
-0.033287
-0.111243
7.26165
0.0251255
0.0530975
0.0139001
-0.125985
-0.0375854
-0.0960581
-0.205272
0.00272336
0.0225613
7.15352
-0.00457903
0.026455
2.78626
6.78938
6.23802
0.037749
6.63392
0.0135534
0.0231044
0.0060632
0.0226858
-0.10882
5.04215
3.04211
8.06107
6.72867
-0.0486049
7.6116
7.61132
-1.28322
7.8703
0.0284929
0.0117309
0.0271357
0.0226158
0.0232317
0.00524331
6.26662
0.0231507
0.0255855
-0.0316594
0.0145714
0.0347793
0.0130199
7.61174
-0.208433
0.0298285
-0.0968142
7.61175
-0.00921785
-0.00559855
7.61167
7.86474
-0.0813882
0.0191027
7.90804
0.0121312
0.0161584
-0.0846882
7.87321
7.61164
0.0206572
-0.210623
0.0226056
7.61176
7.59705
7.61177
0.000905328
2.54796
2.32048
-0.00226687
-0.371793
7.88088
0.0267472
-0.34889
0.0182719
0.0236458
0.00720758
0.0199487
-0.506616
0.0283653
7.66207
0.0105362
0.0398823
0.017853
0.0204795
0.0141804
0.0352941
0.0171931
0.0099337
0.0301847
-0.0634572
-0.389995
0.0116772
-0.0857732
-0.134488
-0.461046
0.0102556
-0.374697
0.0197818
0.0301848
0.0220805
0.039424
-0.0545192
0.0349336
-0.380365
0.023156
7.46936
0.0100703
3.81139
0.014253
-0.00667012
7.61575
-0.0166011
7.46883
-0.00464404
7.49692
7.9046
0.0435485
-0.0258124
6.845
0.0243144
0.0200013
-0.024152
7.86069
7.87376
0.0139467
0.000649066
-0.181883
0.0179286
0.0322238
-0.0247755
-0.0658744
-0.00858672
-0.0173611
6.50744
0.0094441
7.61136
7.80651
0.0308706
0.029646
-0.0987337
0.029972
0.0318809
-0.00987747
-0.0223306
7.78186
-0.113093
0.0223027
-0.0126236
7.79383
7.87971
0.00932558
-0.00218541
6.15986
-0.0434816
0.029173
0.000414295
-0.135498
0.0329285
0.0231399
7.86407
4.57266
0.0218541
-0.0758146
7.67965
0.0399215
-0.0497875
-0.0136524
-0.122383
0.0169711
-0.152809
0.00905772
-0.0395455
4.83008
-0.0500179
7.87387
-0.000587708
-0.0207149
0.0314189
0.00969985
6.57149
0.014524
-0.0817617
-0.0143238
-0.110542
7.423
7.61186
0.0296602
-0.0743964
-0.00449563
0.00395121
-0.0433693
0.0212355
-0.00236457
0.00788227
0.0416154
0.0263738
-0.0513018
7.03093
-0.134141
-0.0235988
-0.000826159
-0.0411072
7.2261
7.61139
-2.38864
-0.116897
8.15352
-0.14416
-0.0252521
7.37015
4.99483
5.45722
-0.0452726
0.0239195
0.17247
5.83966
-0.0781052
0.0313183
7.61678
0.226985
6.88608
-0.013693
0.0216496
7.64556
-0.0286949
-0.0269003
-0.0307299
0.0268642
7.6112
-0.271424
-0.0417432
-0.0785745
-0.0210812
-0.0211003
-0.0424501
-0.0105122
-0.179701
-0.0235449
0.0218591
0.0229476
7.87251
6.44421
6.55601
7.72721
-0.0318221
0.0255928
0.0313089
-0.0649144
0.0207465
0.0292432
-0.00644606
-0.02043
-0.0166754
0.0232848
-0.0152731
-0.0870159
0.00272319
0.025354
7.87302
-0.0431831
-0.0619579
-0.0175027
-0.0108557
7.61021
0.00166966
0.0041385
0.0349937
0.00233587
0.0124213
7.63108
0.0231914
0.0117386
6.87811
0.0235749
-0.00936985
7.72131
-0.00157554
7.71284
7.61002
0.00263265
-0.0622193
-0.00720138
0.013788
7.61447
0.0347065
-0.0397576
7.61439
0.0299677
0.0118643
0.0185871
-0.0133252
7.7525
-0.0329161
-0.0276575
0.00929991
7.69463
0.0460183
0.0204786
-0.00292769
0.0270798
0.0131289
7.90104
7.45256
7.05858
0.0267489
7.18739
0.0289815
0.0155369
0.0250772
7.83432
0.0214674
7.65493
7.87361
7.80796
0.00993639
-0.0126817
-0.211821
0.00284679
0.0344345
7.51604
6.88332
-0.0421492
-0.0463151
0.0366134