/*--------------------------------*- C++ -*----------------------------------*\
  =========                 |
  \\      /  F ield         | OpenFOAM: The Open Source CFD Toolbox
   \\    /   O peration     | Website:  https://openfoam.org
    \\  /    A nd           | Version:  10
     \\/     M anipulation  |
\*---------------------------------------------------------------------------*/
FoamFile
{
    format      ascii;
    class       surfaceScalarField;
    location    "22.5";
    object      phi;
}
// * * * * * * * * * * * * * * * * * * * * * * * * * * * * * * * * * * * * * //

dimensions      [0 3 -1 0 0 0 0];

internalField   nonuniform List<scalar> 
214403
(
-0.00340589
0.00261175
0.00014443
0.000649717
-0.001694
-0.00570793
0.00048427
0.00691767
-0.00520261
3.48717e-05
-7.19794e-05
0.00523971
0.00447992
-0.00301248
-0.00750932
0.00604188
0.00623899
-0.00788662
0.00188016
-0.000232523
-0.00274979
0.00286375
-2.71988e-05
-8.67595e-05
-0.000432097
-0.000822049
-0.00468213
0.00593627
-0.0086667
0.00492717
-0.00129623
0.00503576
-0.0118103
0.00833637
0.00841644
-0.0049425
0.00722491
0.000856794
-0.00807284
-8.85647e-06
0.00255832
-0.00506585
0.00104117
0.00146636
-0.00525281
0.00165349
0.0027205
0.000878824
0.000242572
-0.00580692
0.00699196
-0.00142761
-0.00507222
0.00510637
-3.41524e-05
0.000973788
0.00606285
-0.00776846
0.000731816
-0.00614909
0.00514252
0.00155768
-0.000551107
-0.0061834
0.00603531
0.000148097
0.00199795
4.97285e-06
-0.000538823
-0.0014641
0.00795898
-0.00476404
-0.0105827
0.00738771
-3.84522e-05
-0.00157691
4.56519e-05
0.00156971
0.00325012
-0.00317322
-7.6903e-05
-0.00630202
-0.00218037
0.00216809
0.0063143
-0.00115961
0.00692237
-0.00558043
-0.00018233
0.0034248
0.000361226
0.00119641
-0.00498244
-0.00523186
-0.00249859
0.00676546
0.000964995
0.00464885
-0.00588772
3.65303e-05
0.00120234
0.00164295
-0.00143388
0.005371
-0.00558007
0.00388099
0.00507532
-0.00611564
-0.00284067
0.00567479
-0.00356008
-0.000160907
-0.0019538
-0.00296961
0.00302675
-5.71335e-05
0.00124839
-0.00259031
0.0068867
-0.00554478
0.00720009
0.000340447
-0.001257
-0.00628353
-0.00285163
-0.00292746
0.0029983
0.00278079
-0.000613166
-0.00345634
0.00306133
0.00100817
0.00226977
-0.00159774
-0.00480758
0.00413555
-0.000874838
0.00436413
-0.00157668
-0.00191261
0.00815116
-0.000189397
-0.00796176
-0.00351501
0.00685614
-0.00334113
0.000633446
-0.0075121
0.00434783
0.00253082
0.00125127
-0.000502815
0.00305935
-0.0038078
0.00291956
-3.09587e-05
-0.0028886
0.00520889
-0.000110495
0.000920703
-0.0060191
-0.00662153
0.000830181
0.00704261
0.000436893
0.000451265
0.00437957
-0.00526773
-0.00207688
-0.0136582
0.0132311
0.002504
0.00288007
0.000523062
0.000649194
-0.00405232
0.00214967
0.00163552
-0.00526037
0.00147518
0.00680736
0.00408053
-0.00746309
0.00061499
0.0057612
-0.0011673
0.000919502
-0.00344068
-0.00202907
0.00455025
0.00157129
0.00241705
0.000718301
-0.00470664
0.000944801
-0.000708977
-0.00218931
0.00195349
0.00347962
-0.00629576
0.00438743
0.00604573
-0.00569194
-0.00195384
0.00160005
0.00538334
-0.000984216
-0.00436784
0.00592166
-0.000251336
-0.00130248
0.00450166
-0.00575598
6.44708e-05
0.00118985
-0.00423675
0.000280107
0.00677042
-0.00281378
-0.00780235
-0.00732694
0.00615491
0.00897438
-0.00416771
0.00419277
0.000825153
-0.000850208
0.000655156
-0.00532568
-0.00433403
-8.95759e-05
0.00225241
0.0021712
-0.00684508
0.00293617
0.00443275
-0.000523839
0.00799795
-0.00643934
0.000409986
-0.0019686
0.000367429
0.000134403
-0.00530797
0.00480614
0.000263291
-0.001451
0.00716489
-0.00597718
-0.0176722
0.00182975
0.00193976
0.0139027
-0.00163108
0.00480997
-0.00152783
-0.00165106
0.00236833
-0.0012439
-0.00505862
0.0039342
0.000565842
0.00353036
-0.0044883
0.000392101
-9.11591e-05
0.00432274
0.00149988
-0.00573146
-0.000863413
-0.000138607
-0.00178129
0.00278331
-0.00456695
0.00499133
-0.00018961
-0.000234765
0.000160035
-0.00463679
-0.00321919
0.00285148
0.000865106
-0.00049739
-0.00861383
-0.000537802
0.00420131
0.00495032
-0.00261511
-0.00111421
0.00222529
0.00150403
0.00381964
-0.0128129
0.00177614
0.00721711
-0.00200866
0.00404304
-0.002208
0.000173617
0.0029046
-0.00225369
0.000289003
-0.000939918
6.7844e-05
-0.00540008
0.00533224
1.57506e-05
0.004392
-0.00440775
0.00388969
-0.000760579
0.000515261
-0.00364437
-0.00229998
0.00328053
0.00108817
-0.00206872
-0.00163212
0.00694397
-0.00166917
-0.00364268
0.00327752
-0.00558619
-0.000214258
0.00252293
0.00375437
0.00398515
-0.00773952
0.00553601
-0.00622259
0.00159491
-0.000908329
0.000532818
-0.000998272
0.00723195
-0.00676649
0.000209698
-0.0011739
0.00521733
-0.00425313
0.00123714
0.0108943
0.00313363
-0.0152651
-0.00951042
0.00836917
0.00542218
-0.00428093
0.000437839
0.00335526
-0.004511
0.000717903
0.00445315
0.00495003
-0.00162335
-0.00777983
0.00825013
-0.00501271
-0.000164892
-0.00307252
0.000359196
-0.00105208
-0.00330296
0.00399584
-0.00334772
1.93765e-05
0.00332834
0.00501654
0.000173732
0.000345745
0.0062346
0.000530944
-0.00946443
0.00269889
-0.00499705
0.00110232
0.000888172
0.00300656
-0.00315415
0.000782009
0.00038759
0.00198455
0.0007765
0.00055698
-0.00659002
0.00525654
-0.00136027
-0.00791434
0.00504551
0.0042291
0.00315464
-0.00373051
-0.00243254
0.00300841
0.00511448
-5.63539e-05
-0.00511418
5.60455e-05
0.00392875
-0.00554194
-0.00193689
0.00355008
0.0101541
-0.00307165
-0.00158224
-0.00550019
0.00574782
-6.9213e-06
-0.00529117
-0.000449732
-0.00288771
0.00340021
0.00708441
-0.00759692
0.00619244
-0.002168
-0.00595772
0.00193328
0.00113904
-0.00166222
0.00723602
-0.00671284
-0.00819999
0.00747722
0.00708132
-0.00635855
0.000369603
-0.0063699
0.00245835
0.00354194
0.00797337
-0.000422428
-0.000162363
-0.00738858
0.00558828
-0.00109073
0.00108045
-0.005578
-0.00653513
-0.00594004
0.00703209
0.00544307
-0.00122821
0.00352691
0.000955538
-0.00325424
-0.00280086
0.000152588
0.0054297
-0.00278143
-0.00062213
0.00701584
-0.00653102
0.000137307
-0.00599745
0.00556946
0.00108461
-0.000656619
-0.000199316
-0.00349934
0.00834751
0.00111886
-0.00373208
-0.00272114
0.00533436
-0.00297157
3.97635e-05
0.0029318
0.000908835
0.0041339
-0.00382383
-0.00121891
0.00657197
-0.00378921
-0.00100784
-0.00177492
4.15733e-05
-0.00192246
0.00188089
-0.00371402
-0.000999046
0.00139144
0.00332163
0.000380933
0.00210191
-0.0047159
0.00223305
0.00798125
-0.000720561
0.00311987
-0.0103806
0.000578308
-0.000708848
-0.00973209
0.00986263
0.000632496
-0.00277575
-0.00369124
0.0058345
0.000233134
0.0050651
-0.000281691
2.05057e-05
-0.00296708
0.00294658
0.00619386
-0.00229202
-0.00278298
-0.00375778
0.00314198
-0.00309821
0.00680563
-0.00566505
-0.000684962
-0.000455614
0.00068491
-0.00323925
0.00141585
0.00113849
-0.00556694
-0.00168499
0.00113086
0.00612107
0.00462692
-0.00752367
0.00498605
-0.0020893
-0.000203837
0.0068013
-0.00681139
0.00021393
-2.23784e-05
0.00620266
-0.00614838
-3.19081e-05
-0.008665
0.00691283
-0.00554724
0.00729942
0.00722507
-0.00698851
-0.000236557
-0.00659642
0.00883481
-0.0016176
-0.000620795
-0.00589373
0.00141684
-0.000443102
0.00491999
-0.00972969
0.000744222
0.0062655
0.00271996
0.00173421
-0.00236854
0.00131924
-0.00236744
0.00269199
0.00433161
-0.00465617
-0.00259834
-0.0011659
0.00148633
0.00227791
-0.00350149
0.00229177
-0.00442737
0.00563709
0.00105261
8.61019e-05
-0.00773513
-0.00344152
0.00343408
7.43746e-06
0.00379528
-0.00364915
-0.000146128
-0.00569993
-0.000373215
-0.00151577
0.00140915
-0.00750501
0.00873878
-0.00264292
0.00337574
0.0058104
-0.00738748
-0.00179866
0.00644669
-0.00700228
0.00018784
0.00036775
0.00344152
0.000896795
-0.00355887
-0.000779441
-0.00543566
-0.000299417
0.00714423
0.00311152
-0.000225454
-0.00379261
0.000906545
0.00350252
-0.00299871
0.00345416
-0.00395797
-0.00613762
0.00115326
0.00836009
-0.00207493
-0.00291123
0.00960731
-0.00462115
-0.00296655
-0.00326175
0.000792632
0.000883885
0.00234177
-0.0061922
-0.00421071
-0.000370766
0.00676346
-0.00218198
0.000652368
0.00103337
0.00374171
-0.00542744
-0.00200596
0.00491031
-0.00290435
0.00158449
-0.00759212
0.00274588
0.00451779
0.00315855
-0.00679245
-0.00641973
7.75307e-05
0.00800003
-0.00165784
0.00107632
0.000920468
0.00288073
-0.00487752
0.00431387
-0.00434507
3.12018e-05
0.00162465
-0.000613223
0.0054523
-0.00646373
0.00568835
-0.00180201
0.00273439
-0.00662073
0.0104353
-0.00335078
0.00778464
-0.0148691
0.00172143
0.00319873
-0.00133228
-0.00358788
-0.00470111
0.0019317
0.00246781
0.000301605
0.00338722
-0.002553
-6.93947e-05
-0.000764823
-0.0022058
-0.00280047
0.008151
-0.00314473
-0.00377938
0.00490281
0.00195872
-0.00308215
0.00568569
-0.000310519
-0.00187265
-0.00889257
0.0058797
-0.000488618
-0.00846269
0.00780637
0.00362558
-0.00296925
0.00539757
-0.00608457
-0.000877842
0.00156483
0.00306444
-0.00552989
-0.00290271
-0.0031441
-0.00288688
0.00163076
0.00440022
-0.00449537
0.00139644
0.00443424
-0.00133531
0.00518798
-0.00493777
-0.00339617
0.00314595
3.13976e-05
-4.48038e-05
-0.00484779
0.0048612
0.000119352
-0.00429237
-0.000162173
0.0043352
-0.00122546
-0.00725503
0.00114085
-0.00420059
0.00377914
-0.000719401
-0.00287625
-0.00121318
-0.000405943
-9.85553e-05
0.00722057
0.000102891
-0.0172022
0.0120979
0.00874359
-0.00363935
-0.00508481
0.000346325
0.00018684
0.00455164
-0.00101059
0.0160824
-0.0189233
0.00385148
0.000799699
0.00123325
-0.00276847
0.000735516
-0.0108798
0.0058584
0.000757869
0.00426358
-0.000127199
-0.00723405
-0.00102861
0.00838986
-0.00302679
0.0108953
-0.00753908
-0.000329441
0.00488918
0.00710785
-0.0065679
-0.00542913
-0.00583189
0.00555902
0.00689976
-0.00662688
0.00225175
0.00314714
-0.00391969
-0.0014792
0.00225676
-0.00152298
-0.00361004
-0.0115777
-0.000455532
0.00946061
0.00257259
0.00338402
0.000518083
-0.00197041
0.00349752
0.0046816
-0.00432276
-0.00385636
-0.00578755
0.00129054
0.00564471
-0.0011477
0.000687214
0.00181528
0.00633231
-0.00673336
0.00665072
0.000642822
-0.000560186
0.00412889
0.00324173
-0.00292493
-0.000115561
-0.000822892
0.00386339
-0.00444977
-0.000887146
0.0024726
-0.00858473
0.0036478
0.00246434
0.000259976
0.00461558
-0.0051223
0.000246742
-0.00178665
0.000345141
-0.00166093
0.00310243
0.00716308
-0.00512142
0.000215103
-0.00404689
-0.00316029
0.00425899
0.00294819
0.0152845
-0.0163548
0.00534589
-0.00427558
-0.00292325
0.00363246
0.00146303
-0.00217224
-0.00671653
0.00291893
0.00585671
-0.0020591
-0.00291356
0.00423493
0.0054383
-0.00675967
0.00817954
-0.0031693
-0.00541741
0.000407171
0.000142384
-0.00199226
0.00484746
-0.00299758
-0.000843053
0.000836468
-0.00641314
0.00586708
0.00190718
-0.00628288
-0.00149138
0.00736998
-0.00604452
-0.00162488
0.00155698
0.00230273
-0.00544153
0.00158183
-0.00301499
-0.00553125
0.00491698
0.00362926
-0.000922767
-0.00239696
-0.000727169
0.00300208
-0.0032107
0.00690881
-0.00670019
0.000730427
-0.0084198
0.00768937
0.00287906
-0.00376078
0.00243869
0.00154478
0.00089904
0.00126776
-0.00371159
-0.000147903
-0.00699669
0.00714459
-0.00379296
0.000503061
-0.0012309
0.0045208
-0.000456387
0.00528425
-0.00481668
-1.11867e-05
-0.00358984
-0.00190147
0.00207777
0.00341354
-0.00133749
-0.00317512
-0.00295483
-0.00433529
0.00361655
0.00367356
0.000155696
-0.00444801
0.00770747
-0.00316863
-0.000410099
-0.00412874
0.00406954
-0.000389956
-0.00296932
-0.000710266
-0.000657169
0.00574376
-0.00717128
0.0020847
0.00371614
0.000142169
0.00180919
-0.0056675
-0.000135901
-0.00305221
0.00147243
0.00171568
-0.00210636
0.00274334
0.00530293
-0.0059399
-0.00746956
-0.00194312
-0.00209584
0.00691802
-0.00637109
0.000149172
0.00199829
0.00422362
0.000613707
-0.00226035
-0.00403103
0.00567768
-0.00290719
-0.0056759
0.00143163
0.00715146
-0.00267803
-0.00297055
0.00309223
0.00255635
-0.00691554
0.00665573
0.00701445
-0.00675463
-0.000928187
-0.00162071
-0.00489481
0.00744371
-0.00668063
0.000690898
0.00679965
-0.000809911
-0.00116943
0.00314065
-0.00197122
-0.00271178
0.00501081
-0.00377419
0.00147516
-0.000116753
0.00905074
-0.00336035
-0.00557364
-0.00323693
-0.00156529
0.00650241
-0.00170018
0.00104908
-0.00274662
0.00623001
-0.00453247
0.00028362
0.00402196
-0.000704604
-2.40652e-05
-0.00664411
0.00664325
2.49218e-05
0.00751481
-0.00133069
-0.0109842
0.00480009
-0.00694269
-0.000680006
0.00866815
-0.00104546
-0.00377219
0.00569864
0.000468319
-0.00239477
0.00337601
-0.00333584
-4.01705e-05
-0.00403191
0.000389489
-0.00348027
0.00712269
-0.00584065
0.00804863
-0.0016783
-0.000529683
0.0036325
-0.00152324
-0.00437876
0.0022695
-0.00703677
0.00710189
-6.51125e-05
0.00577261
-0.00839749
0.000681689
0.00194319
-0.00656107
-0.00179496
0.0112209
-0.00286488
0.00483155
-0.000203427
-0.00101463
-0.00361349
-0.00273571
-0.00467606
0.0104138
-0.00049632
-0.00688139
0.00416701
0.0108793
-0.0121365
-0.00115325
0.00241046
0.00289626
0.00137928
-0.00319922
-0.00304006
0.00316794
-0.000127874
-0.00123937
0.00692305
-0.000438808
-0.00524487
-0.0015103
0.00179151
0.00603342
-0.00631463
0.00392496
0.00921649
-0.00539301
-0.00774844
0.00670855
-0.00804846
0.00255858
-0.00121868
0.00615098
8.44987e-05
-0.00623548
0.000112072
0.00599283
-0.00610491
0.00672573
-0.00814035
0.00718723
7.78333e-05
-6.29808e-05
0.00524161
-0.00525646
0.000135555
0.00954109
-0.00950919
-0.000167458
-0.000812702
-0.00241309
-0.00487512
0.00810091
-0.00298293
-0.00178206
0.00059849
0.00564873
-0.00984021
0.00359299
-0.0047914
-0.0012564
0.00513707
0.00091073
-0.00562334
0.00620865
-0.00165943
0.00107413
0.000890573
0.00464268
-0.0015791
-0.00395416
-0.00228217
0.000578614
0.00384723
-0.00214368
-3.7133e-06
0.00171351
-0.00214467
0.000434866
-0.00240096
0.00586874
-0.00338288
-8.49067e-05
0.00176233
-0.00555466
-0.00324444
3.90959e-05
-0.00518116
0.00514207
-0.00190794
-0.00183011
0.000849695
0.00288835
0.00290025
-0.00167348
-0.00122677
0.00723523
-0.00718458
-0.00146633
0.00141568
-0.000658445
-0.00427419
0.00394008
0.000992553
-1.75576e-05
2.39628e-05
0.00385967
-0.00386607
0.00192156
-0.00157807
-0.00610968
0.00576618
0.0044436
-0.000114103
-0.0043295
-0.00653843
-0.00423135
0.00630809
0.00446169
0.00381152
0.00598147
-0.0102893
0.00362438
-0.00130358
0.0020401
-0.0043609
-0.00145112
0.00143303
-0.00797452
0.00799261
0.00226317
-0.00445724
-0.00433572
0.00652979
-0.000455982
-0.00102852
0.00485213
-0.00336762
0.00337983
-0.00415485
0.00150581
-0.000730789
0.00183288
-0.00303865
-0.00293696
0.00414273
-0.00595252
0.00670655
-0.00178896
0.00103492
0.00675505
0.00868751
-0.00956481
-0.00587776
-0.00524686
0.00522225
2.46099e-05
-0.000581786
0.0061736
-0.00772088
0.00212907
0.000238342
-0.000389483
-0.00593652
0.00608766
0.00586255
0.00024683
-0.00674556
0.000636181
-0.00247924
-0.00419035
0.00526951
0.00140008
-0.00598732
0.0084838
-0.00300502
0.000508542
-0.00249503
-0.003043
0.00180596
-0.000369203
-6.18284e-05
-0.00428035
0.00471138
-0.0139943
6.02939e-05
0.0012586
0.0126754
0.000555323
-0.0035689
-0.00184689
0.00486046
0.00871542
-0.000716642
-0.00282045
-0.00517832
-0.00156521
-0.00337088
0.000661225
0.00427486
0.0024467
-9.54517e-06
-0.00243715
0.00409393
0.00218152
-0.00135867
-0.00491678
0.00317334
-0.00251693
0.00626642
-0.00692284
0.000206786
0.00652585
-0.00215433
-0.00457831
0.00158117
0.00225442
0.00487982
-0.00314715
0.000218006
0.00292914
-0.00406771
0.000573632
0.001081
0.000682706
-0.00563358
0.00386987
-0.00530247
0.00775917
0.00235054
0.00802072
-0.0017005
-0.00867076
-0.00509549
0.00500921
-0.00792372
0.00801
-0.000771092
-0.00386339
0.00135151
0.00328297
-0.0042473
0.00800167
0.00237051
-0.00275972
0.000618887
-0.000229683
-0.00261161
-0.00834901
0.00261246
0.00834816
0.00549316
-0.00548262
-4.90879e-05
3.85503e-05
0.00442956
-0.00517392
0.00110378
-0.000359425
0.00113744
0.00444512
-0.00792404
0.00234148
1.96505e-05
0.00384563
-0.00386528
0.00247527
-0.00635155
0.00501372
-0.00239137
0.00642696
0.0054133
-0.0094489
0.00182785
-0.00186246
-0.00866459
0.00869919
-0.00260409
0.00431738
-0.00866553
0.00695224
-0.0062338
0.00496332
0.00650564
-0.00523516
-0.00391705
0.00536818
-0.00346834
0.00201721
-0.000817127
0.00355983
0.000578633
-0.00332133
0.00182273
-0.00265762
0.00274142
-0.00190653
0.0034049
0.00126783
0.00111962
-0.00579235
0.00975751
-0.00662969
-0.000397924
-0.0027299
-7.19003e-06
-0.0047451
0.00475229
0.00295012
-0.00432089
-0.0132454
0.0146162
-0.000594651
-0.00642309
-0.00194703
0.00896477
-0.000393492
-0.00297876
0.00337225
0.000903121
0.00427392
-0.000679332
-0.00449771
-0.00119921
-0.00432926
0.00349333
0.00203514
0.00331197
-0.00277328
-0.00487272
0.00849302
-0.0066124
0.00186549
0.00197592
-0.00384141
0.00640739
-0.000199275
-0.00078031
-0.00542781
-0.00122651
-0.00208593
0.00331244
0.00230582
0.00153228
0.0128045
-0.0153981
-0.00544123
0.00803477
0.00198017
0.00421858
-0.00322654
-0.00297222
-0.00449704
0.008598
0.00571961
-0.00982057
0.00505637
0.00175459
-0.000677038
-0.00613392
0.00840572
-0.00560501
0.00361754
-0.00641824
-0.00470033
0.00214707
-0.00588934
0.0084426
-0.00763027
0.013677
-0.00535865
-0.000688055
-0.000200664
-0.00328755
-0.00452369
0.00801191
0.00621417
0.00256528
-0.00728895
-0.0014905
0.00331467
-0.00883491
0.00557431
-5.40723e-05
-0.00782715
-0.000296815
0.0051215
0.00300246
-0.00157019
0.00405807
0.00176386
-0.00425173
-0.000997064
0.00399804
0.00321481
-0.00621578
-0.00814305
0.00418749
-0.000398764
0.00435432
0.000753902
-0.00223312
0.00442707
-0.00294785
0.00344486
-0.00172873
0.00122916
-0.00294529
0.00335492
0.000645997
0.000325956
-0.00432687
-0.00497557
0.00533914
0.0019765
-0.00234007
-0.00117077
0.00627566
0.0001272
-0.00523208
0.00505384
-0.00296609
-0.00195947
-0.000128278
0.0044108
3.51439e-05
-0.00444594
0.0032153
0.00248969
-0.000564466
-0.00514052
0.00149655
0.00395321
0.00338386
-0.00883361
-8.22992e-06
-0.00710208
0.00711031
-0.00370235
0.0143406
-0.0020917
-0.00854654
-7.14836e-05
0.00535697
-0.00528549
-0.00035793
-0.00386338
0.000694964
0.00352635
-0.00696023
0.00354823
0.00269109
0.000720907
0.00141851
0.0011801
-0.00813622
0.00553761
0.00417257
0.0065911
-0.00246347
-0.0083002
0.0062731
-0.00214488
-0.00600455
0.00187633
-0.00783042
0.00446324
0.011944
-0.00857681
-1.96445e-05
0.00298365
-0.00298343
1.94186e-05
-0.00308948
0.00305737
3.21082e-05
-0.007973
0.000122901
0.00335306
0.000887935
0.00192074
0.00525869
-0.00806736
0.00417786
-0.00496857
0.00320406
-0.00241336
-0.00396189
0.00347027
-0.00013093
0.000622546
-0.000833066
-0.00653211
0.00836401
-0.000998836
-0.00290854
0.00140026
0.0046061
-0.00309782
0.00507015
-0.00195548
0.000750287
-0.00386495
-0.00339379
-0.000592652
0.00397459
1.18539e-05
-0.000575445
-3.0826e-05
0.00546566
-0.00485939
0.000704117
-0.000590454
0.0055193
-0.00563296
-0.00496213
0.00692921
-0.0072581
0.00529101
2.59777e-05
-0.00625984
0.00623386
-0.00222225
0.000196597
0.00560338
-0.00357773
-0.00428681
0.00501166
-0.00683476
0.00610991
-0.00439725
0.000335011
0.0013411
-0.00202357
0.00549143
0.000306301
-0.00377416
-0.00146901
0.000205808
-0.00249459
-0.00215913
-0.00701982
0.00705115
0.0021278
-0.0031279
-0.000365467
-0.000787801
0.00428116
-0.0107033
0.00361421
0.00105347
0.00603562
-0.00341738
0.00778083
-0.00384848
-0.000514965
0.00238424
0.000930271
-0.00478351
0.00468495
0.00477813
-0.00946308
0.00063528
0.0102293
-0.00237498
-0.0084896
-0.000128714
-0.000181728
-0.00448973
0.00480017
-0.00491224
0.0080921
-0.00326298
8.3118e-05
0.00466661
-0.00294735
-0.00422989
0.00251063
0.00115823
-0.000155395
0.00141763
0.00717184
0.00200144
-0.0103861
0.00121281
-0.00497155
-0.000649051
0.00162948
0.00399112
0.00189297
-0.00209209
-0.00284388
0.00862952
-0.00580586
0.00451327
-0.00733693
-0.000957927
0.00557631
-0.00964381
0.00502543
0.00336013
-0.00424398
-0.000431076
0.00131492
-0.00372521
-0.00129775
-0.00012571
0.00514866
-0.00277628
-0.0026246
0.00540089
0.000693052
-0.00741627
0.00658095
0.000142269
0.00285524
-0.00275456
-0.00287697
-0.00466676
0.00592154
-0.00112501
-0.000129758
0.00666789
0.00183667
-0.00718779
-0.00131678
-0.00257285
-0.0037752
-0.000435396
0.00678345
0.00419054
-0.0012761
0.00485772
-0.00777216
-0.00470246
-0.000259663
-0.00564644
0.00302183
0.000727007
-0.00633108
0.00202598
0.00357809
0.00183034
-0.00655471
0.00360904
0.00111532
0.000984023
0.00025494
-0.00492802
0.00368906
0.00075592
0.00323395
-0.000216318
0.00549627
-0.00108593
-0.00419402
-0.00216029
-0.000217224
-0.00201384
0.00439135
-0.00127485
-0.0017167
0.0032826
-0.000291043
-0.00515594
-7.59145e-05
-0.00870894
0.00312729
0.00458459
0.012325
-0.000101379
0.00167657
-0.0139002
-0.00539595
0.00838144
0.00170145
-0.00468694
-0.00154052
0.000844435
0.00531447
-0.00461839
0.00064672
0.00183745
-0.0014208
-0.00106337
-0.00927458
-0.00191989
0.00799941
0.00319506
0.000201167
0.0038915
-0.000780702
0.000118555
0.00197099
-0.00618718
0.00409764
-0.00384865
-1.39214e-05
0.00141869
0.00244388
-0.0052178
0.00644866
-0.0010297
0.00295138
-0.00266129
-0.000290093
-0.00437395
0.000628659
-0.00339313
0.00713842
-0.00196614
0.00296016
-0.00228146
0.00128744
-0.00422686
0.00475985
-0.00196665
0.00143366
0.00191274
-0.00031434
-0.00456123
0.00296283
-0.00188905
0.0118454
-0.0159436
-0.00174377
-0.00121673
0.00119106
0.00176945
0.00566663
-0.00884257
-0.000402725
0.00357867
-0.00240662
0.00179609
0.00309465
-0.00248411
-0.000710209
0.00379723
-0.00104914
-0.00203788
-0.00427701
0.000949272
0.000998949
0.00232879
-0.00236157
0.000203344
0.00215823
0.0055097
-0.0026228
-0.00279758
-8.93215e-05
0.000397955
0.00271611
-0.00412251
0.00100845
-0.0029513
-0.00357974
0.00364985
0.00288118
-0.00151542
0.00391204
-0.00335447
0.000957856
0.00142284
-0.00269396
0.00185654
-0.000585421
0.00513748
0.000135636
-0.00527311
0.00441666
-0.00543504
0.00268927
-0.00167089
-0.00694057
-0.00020004
0.00714061
0.00286774
-0.00237778
0.000555118
-0.00104508
-0.000221443
0.00492032
-0.00537284
0.000673967
-0.0024792
0.00310317
0.000798865
-0.00271666
0.00582193
0.00537852
-0.00468189
0.00464261
3.92835e-05
9.78413e-05
-0.00742751
0.00732967
0.00994843
0.00120072
-0.00211701
-0.00903214
0.00208133
-0.00811264
-0.00100719
0.0070385
0.00158433
0.00188068
0.0010532
-0.00451822
-0.00279011
-0.00278973
3.86988e-05
0.00554114
-0.00133238
0.00182625
-0.00328398
-0.00615059
0.00110863
0.0080736
-0.00303165
-0.0120832
0.0088519
0.00389157
-0.000660244
0.00535501
4.4766e-05
-0.00539977
-0.00301286
-0.00405486
0.00262297
0.00444474
-0.00304566
-0.00442701
0.00132209
-0.00439346
0.00238861
0.00276077
0.00177285
-0.00232508
-0.00421622
0.00476845
-0.00301661
2.97037e-06
0.00301364
-0.00700978
0.00283322
0.00288154
0.00129502
0.00177229
-0.00473826
-0.00142749
0.00600644
-0.00190342
-0.000151645
-0.00395138
-0.00402332
0.00666757
0.00395594
-0.00660019
-0.00117382
-0.00246687
0.000898949
0.00274174
-0.00171124
-0.00137733
0.00308857
-0.00297467
-0.00624651
-0.00286204
0.00138304
1.88942e-05
0.002791
-0.00419294
0.00570312
-0.00415
-0.00601064
0.00445752
-0.00211476
0.000753755
0.00427424
-0.00291323
0.00403878
-0.00284353
-0.000400589
-0.000794659
-0.00463452
0.000751902
0.00362065
0.000261976
-0.00288626
0.00661434
-0.00713821
0.00278262
0.000206739
0.00414885
0.00667499
-0.00532762
-0.0041967
0.00284933
-0.00529532
0.00110242
0.00989603
-0.00516699
-0.00340631
0.0055614
0.0030119
-0.000606953
0.0053934
-0.00204462
-0.00274182
0.000303407
-0.00315793
-0.00207988
0.0049344
0.0061318
-0.00404537
-0.000248138
-0.00183829
0.00188384
0.00140742
-0.00462364
-0.00128991
0.00146127
0.00360054
-0.00377189
-0.00106344
0.00556063
-0.00685473
0.00235754
-0.00331277
0.000798702
0.000802326
0.00171175
-0.00732326
0.00744496
-0.000121705
0.00505089
-0.00497662
-7.42722e-05
0.00202432
-0.0078153
-0.00300112
0.00879211
0.00179616
0.00341563
0.000794648
-8.71234e-05
0.00300741
-0.00292029
0.00478921
0.00429426
-0.00908347
-0.0053378
0.00325908
0.00230283
-0.000224103
-0.00299793
0.00098782
0.00243755
-0.000427442
-0.00890067
0.00415593
0.00487297
-0.00012824
-0.00291092
-0.00324208
0.00313639
0.00458242
-0.000721787
-0.00295349
-0.000907152
-0.00497527
0.00536877
-0.00327976
0.000859514
-0.00548183
-0.000280416
0.00490273
-6.21854e-06
-0.00269731
0.00270353
0.0133118
0.000108057
0.00141581
-0.0148357
-0.000496983
-0.000972705
-0.00717108
0.00864077
0.00232015
-0.00314232
-0.00146651
0.00228868
0.000891056
0.00690413
-0.00278336
-0.00501183
0.00753453
-0.00753874
-1.75068e-05
2.17095e-05
-0.00421515
-0.00380123
0.00594197
0.00207441
0.00246763
0.00189454
-0.00492143
0.000559263
3.34741e-05
0.00456042
-0.00466084
6.69506e-05
-0.0063023
0.00201664
0.00510689
-0.000821231
0.00485664
0.0029375
-0.00491711
-0.00287703
0.0001121
-0.00429377
0.00217892
-0.00112732
0.00648294
-0.00349429
-0.000455019
-0.000545251
0.00449456
-0.00581245
0.000319158
0.00549329
0.00848798
0.00367334
-0.00275598
-0.00940534
-0.0055458
0.000116726
0.00554117
-0.00051141
-0.00133301
-0.00339958
0.005244
-0.000689476
-0.000658165
-0.00178376
0.0031314
0.00139942
-0.00709106
0.00534647
0.000345167
0.00441736
-0.000688205
-0.00429784
0.000568677
-0.00546925
0.00114975
0.000451836
0.00386766
-0.00207365
0.00135295
-0.00278518
0.00350588
0.00119395
0.000769188
-0.00705741
0.00509427
0.000245354
-0.00476917
-0.000331553
0.00485537
0.00473939
0.000619207
-8.08258e-05
-0.00527777
-0.00563718
0.00131172
0.00510196
-0.00406233
-0.00539662
0.00945895
0.00782776
-0.00399202
0.00167694
-0.00551268
0.000613151
0.00440713
-0.00270013
-0.00631674
0.0011734
0.00222685
0.00291648
0.00779948
-0.00803148
0.000231994
-0.00468575
-0.00159318
0.00328091
0.00299802
-0.00611436
-0.0047508
0.00318537
0.0076798
0.00641499
-0.00669905
-0.000819878
0.00110394
-0.000934015
0.00311143
-0.00245081
0.000273391
-0.00796564
0.00259996
0.00182918
0.0035365
-0.0117598
0.0146367
0.00241798
-0.00529496
0.00524392
-0.0113747
-0.000570247
0.00670099
-0.00467079
0.00592334
-0.0109709
0.00971833
-0.00491746
0.0108522
0.00107404
-0.00700876
0.000431565
0.00511884
-0.00119666
-0.00435375
0.00780246
-0.00585494
-0.000194979
-0.00175254
-0.00137417
-0.00132044
0.0020174
0.000677218
-0.00370359
-0.00768872
0.00654998
0.00484232
-0.00523586
0.00697923
0.0060591
0.00421415
-0.0030986
-0.00385947
0.00274392
0.00157809
-0.00204113
-0.000901752
0.0013648
0.00349903
-0.00346174
-0.00460618
0.0045689
-0.00141541
0.00405978
-0.000293541
-0.00235083
-0.00560111
-0.00089359
0.00692627
-0.0042437
-0.00104309
0.00524615
4.06461e-05
0.00171629
-0.00383435
0.00211807
0.00137603
-0.00182626
0.00681235
-0.00636211
0.0053277
-0.00748882
0.00108373
0.0010774
0.0033831
-0.00364954
0.000266434
-0.00537826
0.000142398
0.00481405
-0.00183245
-0.00464371
0.00166211
0.00151234
0.00122692
0.00537157
-0.00811083
0.00329755
-0.00357988
0.00028233
-4.04651e-05
0.004195
-0.00474248
0.000587948
-0.00589216
-0.000566781
0.00783497
-0.00255895
-0.000437314
0.000591556
0.00240471
0.000353504
-0.00291875
0.00215203
0.000413216
0.00478374
-0.00458088
-0.00113687
0.000545891
0.00786861
-0.00495612
-0.00345838
-0.00270954
0.00573955
-0.00303001
-0.00731538
0.00280008
-0.00171766
0.00623295
0.00574886
-0.00520506
-0.00850943
-0.00278932
-0.00334127
0.0114766
-0.00534603
-0.0082334
0.0052453
0.00747776
-0.00448965
-0.000180969
-0.00704003
0.007221
0.0111371
2.19071e-05
-0.00641593
-0.00474303
0.00647863
-0.00417649
-0.000577757
-0.00172439
-0.00471638
0.00335035
-0.000850182
0.00221622
6.41543e-05
-0.00485121
0.00478706
-0.00356683
0.00367167
-0.000104834
-0.00257087
-0.00271396
-0.00695569
0.0122405
-0.00655877
0.00143181
-0.000729733
0.00585669
0.001513
0.00245504
0.00674959
-0.00609339
-0.00503618
0.00437998
-0.00187165
-0.00386071
0.00425885
0.00147351
-0.00388307
-0.00197414
0.00586314
-5.93292e-06
0.00127218
-0.0007324
-0.00360367
0.0030639
0.00428409
0.000190649
-0.00547701
0.00100227
0.00132233
-0.000921309
0.00141149
-0.00170394
0.00169807
-0.00140563
0.00349999
0.00342874
-0.00350078
-0.00342796
0.00172776
0.00403973
-0.00417592
-0.00159157
0.00367754
0.00159374
-0.00288704
0.00452478
-0.00548736
0.00115323
-0.00601362
0.00420402
0.00226329
-0.00045369
0.00718241
-0.00237405
-0.0075179
-0.00191469
0.0051006
0.00256294
0.00497444
-0.00242379
-0.00419132
-0.00114111
-0.000681183
-0.00669492
0.00626
0.000591214
-0.000156294
-0.000415663
0.00837317
-0.000867553
-0.00708995
-0.00546753
0.0011154
0.00243744
-0.000877286
-0.00556583
0.00156339
0.00487973
0.00500018
0.000696222
-1.74537e-05
-0.00567894
-0.00747031
-6.00449e-05
5.06481e-05
0.00747971
-0.00190964
0.00209675
-0.00339097
0.00320386
-0.00515064
0.00650962
-0.000669049
-0.000689931
0.00677516
-0.00632234
-0.00560346
-0.00499523
0.00450857
-0.00142964
0.00191629
0.00406077
-0.000183215
-0.00127683
-0.00260072
-0.00758272
0.00731456
0.00358138
-0.00331322
0.00356497
0.00135795
-0.000453136
-0.00446978
0.00130104
0.0032974
-0.00412375
-0.000474682
-0.00244473
0.00245914
-1.4408e-05
-0.00142785
-0.00364473
0.00365718
0.00548458
-0.0054349
-4.96761e-05
-0.00310602
-0.00246389
0.00242759
-0.000320098
-0.00372389
-0.000405153
0.00444914
-0.000418905
-0.00322054
0.00288097
0.00075848
0.00511592
-0.00581817
0.000702254
-0.00650814
0.00667233
0.00611894
-0.00628313
-0.00436967
0.00337428
-0.00229628
0.00329166
-0.00173804
0.000742599
0.00157373
-0.000578283
-0.000182234
0.00789334
-6.91957e-05
-0.00764191
-0.00396726
0.00192338
0.0019543
0.00226966
0.00288904
-0.0050406
-0.000118099
0.000218888
-0.00626918
-0.000245474
-0.00571973
0.00571758
2.15017e-06
-0.00382566
0.00192665
-0.00421536
0.00130336
-0.00288414
0.000114275
0.00249061
0.00108128
0.00379563
7.39258e-05
-0.00324634
-0.000623212
0.00317833
-0.00793148
0.00635904
-0.00160588
0.00130878
-0.00178306
0.00662946
-0.00615518
0.00810658
0.00239807
-0.00124648
-0.00925817
-0.00207724
-0.00341142
-0.0011068
0.00659546
0.00246028
0.0102423
-0.0092494
-0.0034532
0.00117896
0.00742892
-0.00717311
-0.00143477
-0.00257007
0.00033894
0.00526832
-0.00303719
-0.000896165
0.00728613
-0.00392968
0.00527535
-0.004164
-0.00162704
0.000515686
0.00173425
0.00454047
-0.00627472
0.00424665
0.00094295
-0.000565937
-0.00462366
-0.00391259
0.00312759
0.00031444
0.000470555
-0.000374974
-0.00551351
0.000322811
0.00556567
-0.00404086
-0.000513757
-0.000167164
0.00472178
0.00233755
-0.005188
5.11981e-05
0.00203901
0.00309779
4.62328e-05