/*--------------------------------*- C++ -*----------------------------------*\
  =========                 |
  \\      /  F ield         | OpenFOAM: The Open Source CFD Toolbox
   \\    /   O peration     | Website:  https://openfoam.org
    \\  /    A nd           | Version:  10
     \\/     M anipulation  |
\*---------------------------------------------------------------------------*/
FoamFile
{
    format      ascii;
    class       volScalarField;
    location    "22.5";
    object      SgRate;
}
// * * * * * * * * * * * * * * * * * * * * * * * * * * * * * * * * * * * * * //

dimensions      [1 -1 -3 -1 0 0 0];

internalField   nonuniform List<scalar> 
111485
(
9.91655e-10
0.00784672
0.0243221
5.52638e-11
0.0489902
3.19539e-08
0.0464774
0.0061671
0.0190668
0.00125243
0.0468503
0.0094741
0.00482382
0.296202
0.00651639
0.030252
0.210491
2.62415
0.0103581
4.79958e-08
0.0372235
3.3609e-09
0.0269097
0.0345517
0.00876397
3.51105e-08
0.0393575
0.00179601
0.0152539
0.0481583
0.0446289
0.0195899
2.18008e-07
1.42736e-06
0.00708345
9.17624e-05
0.147248
0.209984
0.00246472
0.0242444
0.0435469
0.0708135
0.015857
0.00167218
8.19722e-05
1.58735e-06
0.0294648
0.000711913
0.0474559
4.28126e-07
1.09481e-06
1.72378e-05
4.62171e-07
0.0514798
1.50421e-06
0.0437644
0.00303917
4.43723e-08
7.07871e-05
0.00479989
0.0160754
2.65391e-07
0.00489404
0.0983057
6.52602e-06
0.00313424
0.316549
0.0944163
0.00118574
0.00631088
6.8319e-05
0.00674408
1.12677e-05
0.00300547
4.65461e-08
0.000719413
1.49479e-08
0.0411386
2.71696e-08
3.12921e-05
0.280988
0.560444
4.71151e-08
5.22444e-09
0.00939818
0.00384802
0.143689
0.0253816
0.000308075
0.00744303
0.000260633
0.0403015
0.0119984
5.83823e-05
0.0520952
6.6757e-09
0.0270713
0.00183615
0.00153903
0.00170061
1.41805e-09
0.0176877
1.96582e-06
0.018033
0.00458726
1.64683e-05
5.73119e-09
0.00758948
0.00420858
0.000729047
0.00557186
0.00475704
0.00381457
0.00334204
1.0405e-07
3.4313e-05
3.03347e-08
6.55465e-06
0.0129068
4.8332e-09
9.21158e-08
0.000189861
0.0752967
2.26936e-06
0.0015933
0.0278751
0.000107165
0.0017337
2.96971e-10
0.000345369
0.00165767
0.032833
0.0472163
0.000175108
7.83082e-05
0.0483058
8.85833e-10
0.0425497
0.0253744
0.00272793
0.000323379
0.00199756
0.202811
0.00271753
0.00410556
0.0130641
9.72594e-10
9.00562e-10
4.76514e-08
0.0280967
0.00156313
0.0285555
0.115653
0.00470551
3.58474e-05
0.0109484
0.0161141
0.0109927
0.000823058
5.43807e-06
9.64032e-10
0.0523597
0.0225527
7.56167e-05
6.4215e-05
0.00589316
0.00340277
0.0270838
0.00156707
0.000170613
1.58753e-09
1.52397e-08
0.198086
1.07001e-10
0.00548519
0.00206819
5.25122e-07
9.63611e-06
3.60479e-08
5.81371e-06
9.88237e-06
3.71587e-08
0.00151819
0.00677844
0.0299123
0.00413866
0.00770647
0.00408673
0.000464404
1.78973e-07
0.00491082
5.72772e-06
7.13762e-06
0.0065778
0.0103756
0.0287253
0.0114782
0.00503096
8.4642e-07
0.00679801
0.000502335
0.00170236
0.0145259
0.0023376
1.82963e-06
0.00385216
0.0249924
1.18259e-05
0.000177014
0.00792017
0.00200288
0.000380175
8.6864e-06
7.79079e-09
0.0084014
0.000312045
0.119306
7.33226e-09
0.00670004
0.0206145
0.119107
8.33382e-08
0.00330951
0.0137307
0.000277957
6.9519e-09
4.31803e-10
0.150269
0.00418236
2.3551e-05
9.36524e-05
0.00946498
0.00782462
0.16108
3.8732e-05
2.08742e-05
0.160935
4.65747e-08
0.00242919
0.00959073
0.016684
0.0116676
0.00966376
3.89761e-06
0.00195735
0.000629067
7.84375e-06
1.20898e-08
0.0309521
0.157165
1.83682e-05
0.00656869
0.0108112
7.90027e-10
0.000193216
0.000113392
2.78071e-07
6.70092e-05
0.0997474
1.85337e-08
0.014778
0.0106839
0.00368823
3.36721e-09
0.0118298
6.6616e-11
6.08851e-08
5.10221e-07
0.165032
0.0230331
0.00620204
0.00550777
0.213671
0.0124051
0.00156087
0.000819224
0.0322393
0.00872284
4.50615e-07
5.36909e-09
0.111585
0.0226941
0.0245775
0.0118166
1.88606e-09
0.224783
0.267982
0.003038
0.000321503
3.69186e-05
0.0138531
0.0021973
0.00198819
2.01587e-08
0.000652563
2.99831e-09
0.000359427
0.000276574
0.234468
0.0678658
0.358553
1.77935e-08
0.0860163
0.00898182
0.00172607
3.09373e-09
1.15027e-07
0.0246311
0.000300444
0.0569172
0.00402159
0.0134519
0.0191859
3.04999e-05
3.0571e-08
3.54126e-08
0.00377954
0.00438257
0.251223
0.184309
0.000792454
1.74602e-09
8.72023e-09
1.41204e-08
8.47365e-05
0.060132
0.0118239
2.17356e-06
0.005287
7.16147e-05
0.0608228
0.0670925
0.00598167
0.0114469
0.00932376
0.0482854
4.99743e-05
7.37527e-07
0.00950744
0.0187468
0.00488629
7.06668e-08
0.151296
0.000328766
0.00229864
0.00805986
0.000336832
0.028475
0.0391104
0.0375183
0.00358497
0.00773896
0.0257305
0.0131875
9.10509e-06
1.96443e-07
5.46599e-07
7.13718e-07
0.0311352
0.372041
0.0326616
0.0673243
0.0529656
0.0183184
1.73544e-08
4.07699e-07
0.016719
0.0469347
0.0816464
0.0459123
0.0496532
0.0228223
2.49877e-08
0.0135171
0.000288759
4.04238e-10
0.00098172
0.0166347
1.58547e-05
0.00895093
0.00914242
0.008186
0.0014108
0.00266936
0.00547794
4.31684e-05
1.16189e-06
0.00267772
3.8945e-07
0.00632638
0.117872
0.0303571
1.17438e-07
0.0276713
0.154883
0.00829914
0.326936
6.58651e-08
0.0477639
0.0188764
7.70931e-09
0.000842184
0.00240632
3.74916e-09
0.0320505
0.0109308
0.00518793
4.58512e-07
2.57157e-08
0.0007579
3.76299e-09
0.0124886
3.6232e-06
4.32942e-10
0.0167186
4.0368e-05
0.259139
0.0300449
1.98932e-09
7.95766e-05
0.00163433
9.94464e-05
0.000203699
0.0151917
0.121779
0.831363
5.60613e-05
0.207623
0.000751334
4.57952e-08
0.038965
0.0309107
2.03826e-07
0.00141901
0.000308924
8.3166e-05
0.0237347
0.0239565
0.0138873
3.68433e-08
0.352227
0.0167417
0.0228321
0.00439742
9.16189e-05
0.00127205
3.56739e-08
0.253521
0.363612
2.61477e-08
0.00821426
0.000363858
0.000103518
4.05829e-09
3.01619e-05
3.51586e-09
0.288753
0.00965963
0.00632378
0.0021437
0.00260305
1.73561e-07
0.00194762
4.99856e-07
0.0412229
1.54511e-07
5.98558e-07
0.0524171
0.0375538
4.03826e-08
1.44988e-09
0.000385459
8.4668e-08
1.60397e-06
0.00107049
2.74807e-08
6.13612e-05
6.72553e-08
0.0741761
6.97994e-08
1.66001e-06
3.67916e-08
0.00704599
4.30429e-07
0.224611
0.00199773
0.237792
1.15795e-08
0.00096977
2.58663e-06
2.6653e-09
0.372478
0.144946
0.0267955
0.0251321
3.06288e-05
0.00203613
0.0823297
0.0085132
0.00105601
0.293052
2.59441e-08
0.0232468
0.000108426
0.00504261
0.0590671
0.07635
0.000114991
0.0211653
0.000248215
0.000785189
0.0819763
0.0020396
2.1436e-08
0.0799298
0.0489044
3.55317e-06
1.1442e-06
1.96126e-05
1.75397e-09
0.00169814
0.0546839
3.534e-07
1.78709e-07
0.00251136
3.96842e-09
0.0339981
2.85889e-08
0.000321425
1.02173e-09
0.116727
0.11475
0.00100229
0.0127545
0.0652622
0.0817868
4.74845e-08
2.60564e-07
0.0147581
4.69293e-08
0.000202079
1.78647e-05
0.00164973
0.0426631
0.0644892
2.42798e-09
4.68858e-05
0.0177077
0.00326618
0.00173978
0.00386711
0.00687643
0.0206886
9.76373e-07
0.0254423
0.00598382
2.65367e-09
0.126557
0.0413167
0.0154867
1.34765e-06
0.00482361
0.00693838
0.00226463
0.00399713
0.000386288
0.0136887
0.00131761
0.00013143
0.022918
0.128795
0.000785473
7.44391e-05
0.00359207
0.72753
3.16707e-08
0.000410936
4.59156e-06
4.07165e-05
0.00731424
0.00317127
0.00274779
0.000449444
0.000167268
0.0159773
0.0110383
5.4604e-08
0.000198637
0.00129849
2.90063e-08
5.65621e-10
5.45786e-08
3.20618e-08
0.0126718
1.83072e-09
0.034762
0.00848682
0.00193673
0.0989207
0.329956
6.03784e-05
0.00846978
0.0371598
5.52757e-08
0.0517896
1.6398e-07
2.0124e-08
4.78006e-05
0.00422202
0.121472
0.0280999
0.00624824
2.69359e-06
0.0901996
0.146154
0.0287012
0.0282884
0.000487618
0.196967
0.0415675
0.0538606
0.0466736
5.96306e-06
0.000322344
0.0406559
0.00801655
0.00141824
0.0276356
0.0261178
1.14077e-06
0.0109427
0.000666104
3.25798e-05
0.0348337
0.000254244
0.000660097
0.0108652
0.0406838
0.00132845
0.0215094
0.0196375
0.00720799
3.27901e-06
0.0104208
0.000333922
0.000197915
0.0171714
0.0179959
0.0357545
4.82316e-07
0.0018868
4.45507e-06
3.99457e-09
0.0778022
1.62049e-08
0.136807
5.8785e-05
0.0117742
8.03549e-08
0.0295079
8.26776e-05
0.0427713
1.33285e-09
0.0304689
3.01245e-07
1.65371e-08
8.16272e-07
0.321457
0.000522982
2.95874e-05
0.0411971
1.00407e-07
2.87531e-09
0.205807
0.0697274
8.36598e-05
0.00200686
0.000130372
6.48062e-08
0.0373944
0.00869093
0.179791
6.50595e-10
4.66662e-09
0.000414147
0.00107256
0.000132811
4.36425e-07
0.0631464
0.00722862
2.66075e-08
1.22966e-07
0.0456154
0.0421228
0.00227251
5.89703e-10
3.84773
0.366593
0.192003
1.61156e-08
1.9046e-08
0.0551072
0.000452419
3.95565e-05
0.000591912
0.109624
0.00263794
0.0112187
0.0636105
0.0521048
0.0019148
6.89505e-08
1.20428e-06
1.3909e-08
9.48952e-09
7.71308e-08
9.8262e-10
0.0223928
7.14304e-08
1.95354e-08
3.26935e-07
0.011314
0.0235635
1.08345e-07
5.77736e-07
0.105573
0.0143531
0.00990246
2.69861e-08
7.42068e-09
0.0372047
7.99419e-10
0.00178706
0.0026372
0.003971
1.24774e-07
1.27637e-10
9.54578e-10
1.61084e-09
0.0146258
1.86688e-08
6.58693e-08
0.00108182
4.80143e-09
0.0232695
0.00200355
2.35443e-06
0.0368588
0.341787
0.00253647
0.281311
0.000250861
0.0434832
0.209924
8.24972e-05
0.0236766
0.0677051
0.00599184
2.04833e-05
0.0890477
0.783956
0.0100211
3.67854e-08
0.00242825
0.0024943
0.00122868
9.27944e-05
1.85446e-09
1.56024e-10
0.013472
3.86606e-05
0.00273288
3.91033e-06
0.00139908
0.00143022
0.0367462
0.000566858
1.52075e-08
0.0335768
8.2566e-06
0.0204942
2.77459e-08
4.98334e-05
0.000205679
1.78597e-06
3.47389e-07
0.0407196
1.61409e-09
0.0101614
0.0639994
9.6795e-09
0.0726757
4.30404e-05
0.0372127
0.000609508
9.89832e-08
2.78328e-05
0.00163802
0.0458837
0.0041049
0.00132164
0.161846
0.000202919
0.00396824
9.9993e-07
1.08186e-05
0.497137
0.162598
4.31222e-08
0.242085
0.000869296
0.000162667
0.00996484
0.000209689
0.00121504
0.023
0.0094617
0.00225008
0.00484335
0.00197926
0.045812
8.18417e-08
0.0330368
0.0265115
9.78797e-08
0.00842354
0.271655
0.0284108
2.95757e-07
0.001895
1.56711e-08
0.0101852
0.226607
2.32173e-08
0.179703
0.343363
0.001354
0.00497126
1.07527e-06
0.0486516
7.78284e-05
0.00162437
0.00123202
0.000329938
4.29668e-06
0.0455297
0.00694947
9.35627e-10
0.000428834
0.000541841
0.000912264
0.000467299
0.000864334
0.000171939
1.11467e-09
6.88677e-05
0.0226481
4.12482e-07
0.00189595
0.352002
1.75548e-07
3.3225e-08
0.00324388
0.00330823
3.24122e-09
0.000610611
8.67388e-08
1.5828e-08
1.25044e-08
4.49455e-07
5.06997e-06
1.6564e-07
0.000348344
0.0520588
1.46046e-09
5.01466e-07
0.00451893
0.11621
0.00176426
0.00919908
0.032708
1.04763e-08
0.000290261
4.09152e-09
2.26956e-09
0.000575025
0.148561
0.0420751
6.32041e-09
6.71354e-08
0.0358548
1.8288e-08
0.0232369
4.72678e-08
0.00675277
6.49084e-09
0.00196322
0.0263355
2.85166e-09
7.57198e-07
5.6051e-07
0.00143767
6.27063e-07
2.36678e-08
2.09156e-06
0.00445933
0.0543277
0.00422375
0.000615048
0.00107268
4.30678e-08
0.00140724
0.00188571
0.0439845
2.91604e-06
0.000224503
0.00542423
1.1758e-07
9.55661e-06
0.000151104
1.00853e-07
0.00820511
0.00163325
0.00317523
0.0734234
1.26755e-09
0.022911
0.0611519
0.000121914
7.77763e-05
5.85683e-09
0.0264427
2.34522e-08
1.13958e-06
2.90845e-05
0.0521146
5.54017e-07
0.00234904
2.76496e-05
0.000852398
1.69444e-05
7.0596e-09
3.83264e-06
1.68135e-09
0.00246916
0.000648093
0.30266
3.18162e-08
5.09166e-07
0.00208413
1.65491e-10
4.80195e-05
4.46882e-07
0.0360389
0.000851546
0.0319785
1.51025e-08
0.0014066
0.000170983
6.31689e-05
0.000293048
4.74035e-08
0.00134699
0.0245182
0.137741
0.00116663
0.000318825
6.44144e-08
6.82468e-10
2.29819e-08
0.186956
0.0751128
0.00766318
6.77974e-10
0.174029
2.99537e-08
0.214666
0.00309951
7.63273e-07
9.23123e-08
3.41787e-06
6.17754e-07
0.0419755
2.12278e-06
0.000123572
0.325147
0.00686928
7.21961e-05
3.36603e-05
7.04956e-05
5.21307e-05
3.24247e-08
3.60325e-10
0.025969
0.000429599
8.16471e-09
2.01962e-07
0.000611826
4.59527e-07
0.00154791
0.423843
1.76602e-06
0.00361474
4.05544e-10
0.000390724
2.66269e-07
0.332963
2.76363e-09
0.119413
0.00555406
0.000744827
0.0184488
0.0345703
0.000948872
2.57619e-06
0.000571543
2.31749e-06
0.00465814
6.21081e-08
1.87026e-06
8.60663e-05
2.39914e-06
0.0709855
2.76596e-07
0.00731306
0.0085559
2.07401e-09
0.000385756
8.58675e-08
0.000844277
0.000843873
6.86381e-08
0.0179998
0.00023834
5.51214e-07
0.0234874
0.190742
0.00371712
0.0110054
1.77325e-10
0.0468293
9.00675e-06
1.95389e-07
0.0369895
4.9532e-06
0.114745
9.43913e-09
0.152764
0.000729043
2.08916e-09
0.00111584
4.06938e-07
2.77868e-09
0.00315704
0.00102155
0.0105741
7.89905e-09
1.12241e-06
4.6426e-08
0.000893231
5.06497e-05
0.0343576
6.27827e-06
0.000910358
6.78571e-05
0.00118312
3.09417e-05
3.5368e-06
1.08903e-06
0.0183361
0.00984364
0.0182635
0.0359036
0.0440883
0.00026879
0.0481911
1.26996e-09
0.0095627
1.20137e-07
6.26762e-05
0.000465953
0.00674426
0.000429226
0.000542023
0.00200596
7.83232e-10
0.00722228
0.00842027
0.000216927
0.000804977
0.0152815
0.00100856
1.68778e-06
0.0300209
1.38337e-07
5.54218e-09
0.000265462
0.0749362
0.00099798
6.43907e-07
0.0476815
0.000673191
7.22815e-07
1.37915e-07
0.000600608
2.92053e-06
0.055766
0.321939
0.000371074
0.000425521
0.0223723
0.00721907
2.13246e-08
1.35167e-08
8.86624e-05
0.00404534
0.0351091
0.0551866
0.0096108
3.19266e-08
0.00032412
0.0419074
2.76815e-05
0.00115959
2.56848
0.0443456
0.122582
0.0515847
0.0218603
1.17083e-09
0.00204258
6.66637e-07
1.637e-07
1.94985e-07
7.34867e-09
0.00282133
4.15437e-09
2.09314e-09
9.21824e-05
4.94483e-08
6.70311e-09
9.57376e-07
0.00971622
0.0602713
0.0109255
0.00319423
0.0778136
0.265036
5.94564e-09
0.189246
0.000163136
0.396198
0.0128863
1.09723e-07
9.29514e-05
0.00758795
0.263357
1.73079e-09
0.00118942
0.0192218
0.00465775
1.63807e-05
0.0257263
1.11506e-06
2.41975e-07
0.0792081
9.91401e-09
0.0080688
1.12749e-07
9.22221e-07
0.00829643
0.000461541
0.00275412
1.16564e-06
0.000391164
0.000669706
4.24203e-07
0.000203219
7.52253e-07
0.0234845
1.44026e-07
1.32087e-07
0.255756
0.0447246
0.00054078
3.33033e-07
6.48253e-09
0.00467126
0.19587
0.00467882
0.015143
0.217858
0.0202792
2.48365e-09
0.0365072
0.00314136
0.00671046
0.0369221
0.0102793
7.91097e-09
0.19363
1.12366e-09
0.0406035
0.009348
0.0111716
1.41496e-08
0.0133142
1.33453e-06
0.00272799
0.00898869
5.11209e-06
2.93073e-10
4.63411e-09
0.00296448
0.0821472
2.33138e-09
0.00426929
0.0216113
0.000102182
0.00733745
0.0493274
2.34125e-06
0.00014109
0.000848338
6.10991e-08
0.010291
1.98469e-06
0.00256449
2.86271e-08
2.66791e-08
0.012281
6.23974e-09
0.000220689
0.0037183
3.0961e-08
8.15976e-08
0.00459071
0.000549143
0.358842
1.18322e-07
0.249014
1.84686e-06
0.000371589
0.00017189
0.00756756
8.36406e-05
0.0807466
0.0055937
5.5177e-05
0.00109154
0.0681926
7.11392e-07
5.01569e-08
0.000427183
0.000787842
0.0424638
1.91003e-07
0.0347009
0.000949383
1.46306e-08
0.232642
9.74131e-09
1.70438e-07
2.36449e-06
0.00290186
0.312168
0.0586286
4.59679e-07
2.48228e-08
1.82554e-09
1.11724e-07
1.09551e-07
6.61287e-07
1.21089e-07
6.69735e-09
6.39488e-08
1.1821e-08
1.8467e-07
0.0642966
0.0381291
2.88684e-09
1.3843e-05
8.06346e-09
7.74608e-08
1.33041e-08
0.0373746
0.0824589
0.0169724
4.18182e-08
1.25514e-08
8.37968e-07
0.00663223
4.08942e-06
1.37109e-07
0.298538
2.68113e-07
3.13617e-06
0.0228701
0.000190116
5.36592e-06
0.008846
0.0244179
3.19674e-08
0.00341821
0.00478942
1.83793e-08
0.0135086
0.0391395
0.0177526
0.00341399
0.0106302
3.73958e-06
1.12588e-07
0.335579
0.0104867
0.00326229
0.0643266
0.0069125
0.00180668
0.0214266
0.00995377
0.000700862
0.0156028
0.00107359
0.0103496
3.37732e-06
0.0241076
0.00842779
0.00162758
0.00143421
5.55618e-09
6.57193e-08
4.72275e-08
6.75496e-10
1.78494e-07
0.00911491
0.0134917
1.91998e-08
3.21366e-09
1.83002e-07
1.74217e-05
4.37706e-09
9.87402e-09
8.23914e-07
1.12505e-06
0.00467177
0.000297088
0.0216812
0.24819
1.23902e-07
1.15873e-05
0.0298557
1.1905e-05
4.2119e-09
1.83111e-08
0.232408
5.6233e-07
5.63241e-09
4.62604e-06
0.23415
0.0134868
0.0334198
0.0344617
1.10071e-06
0.0138993
0.000354324
0.000388743
1.96065e-08
0.01192
4.97403e-06
1.91376e-07
0.0157364
1.04323
0.197493
6.78886e-06
1.37793e-06
0.0169951
0.0196715
0.0178515
0.00557251
0.00704128
1.19521e-08
0.000639151
0.000416522
0.0611203
1.00619e-05
0.276068
3.13428e-08
0.00198238
0.0246374
0.0174881
0.0110899
3.26829e-06
0.00605901
3.60766e-08
9.82671e-06
1.11728e-09
2.01006e-08
0.00244957
0.884438
1.01344e-07
5.23902e-09
0.000426842
0.0229367
0.00176674
0.00681965
0.0321579
0.00467808
0.0203693
2.01274e-05
4.6184e-06
0.000205849
0.0289449
0.00553133
0.00331386
1.22375e-06
7.20464e-09
0.000158004
0.021739
0.00265272
4.96757e-09
0.149247
0.057557
0.00632262
0.00609637
7.35505e-09
0.000196919
0.0067575
0.0222663
8.27893e-10
0.000414631
0.0147905
0.00104459
0.205812
0.00461972
0.00775212
0.000247364
0.00320436
0.0205412
0.0350647
8.30606e-05
0.0220362
0.000120561
0.200132
0.000164747
5.43057e-10
0.00247245
0.00747854
0.000422516
0.0113243
0.000460543
0.00100979
0.00050016
0.0426375
0.00362158
5.28844e-05
0.0370428
0.00128368
1.12423e-07
1.07282e-08
0.102362
0.000521426
0.00104188
1.05938
0.0345095
0.0120697
0.000435464
0.0444164
2.26102e-06
3.23301e-06
0.00378822
4.22511e-05
0.00199537
0.00393298
0.00216899
0.00450224
6.43505e-09
0.000214146
0.104157
2.03723e-08
0.0137916
0.00736998
8.05088e-06
0.00390901
0.000135747
4.06393e-08
0.000600698
0.13906
4.78885e-08
5.47729e-09
2.11757e-08
0.149055
0.252106
0.0135737
0.0533531
0.00459376
0.0317673
8.00967e-06
0.00777073
0.0120117
0.0229738
0.0015016
0.118288
0.341289
0.401935
0.0100764
0.00880603
0.0354477
0.157174
0.364919
1.40347e-08
0.17551
0.0476042
1.09764e-08
0.00040561
5.86958e-07
2.9181e-08
3.75273e-08
2.29575e-07
1.75365e-08
0.140403
5.12013e-08
0.0069208
0.00128487
2.2975e-08
0.00361467
7.35088e-06
0.013295
6.5388e-08
0.000614971
6.45792e-06
0.0207238
0.000222968
6.67367e-06
0.00411199
0.0271423
0.0158073
0.00375078
0.0260746
0.00343375
0.0222651
0.0519845
0.00940759
8.3534e-07
0.00104456
0.000333591
0.00542451
0.00969518
0.000592342
1.15408e-06
5.79755e-05
1.24573e-07
0.00335482
0.0412296
0.000769163
0.329381
0.00248432
0.000361442
1.68179e-08
0.0615695
1.18672e-09
0.00840942
0.0203026
0.00112804
9.6933e-05
0.0017692
0.00661463
0.00178669
0.000786573
0.0062513
0.00597763
0.00259008
2.24888e-05
0.078987
3.56164e-07
0.0122648
0.0103118
8.05145e-07
6.32875e-10
0.000261439
0.00821804
0.0173403
1.40396e-08
0.00215042
0.0444077
0.000212714
0.00439951
0.0859847
1.69762e-09
8.18894e-11
0.00345573
4.17541e-09
0.00010449
0.0114288
2.17557e-05
0.0103403
0.0310207
0.0181964
3.1467e-08
0.001521
9.0518e-05
0.000132937
0.0460946
2.91542e-08
9.8213e-07
0.0101143
0.000536603
1.00107e-06
0.16213
0.000924233
2.91444e-08
4.13508e-08
0.000230893
8.46287e-05
0.00233468
0.00297977
0.0245202
0.242594
3.61918e-10
0.00033467
0.000714429
0.0425434
1.76212e-06
0.0475127
0.0831016
0.000119959
7.66993e-06
2.01746e-05
1.12926e-08
1.57437e-05
2.71087e-05
0.00037709
1.92622e-05
0.000319804
2.61136e-05
0.000679577
0.000346424
0.000612423
0.000130865
1.66969e-08
0.0272424
0.00939634
6.31369e-06
0.0815153
0.000250151
0.00021524
1.38499e-05
0.00115843
0.000266061
0.00262625
0.000387268
0.00103958
1.953e-05
2.48944e-08
0.00118727
0.000421472
0.0668961
2.13443e-06
0.0365976
4.93882e-05
0.0350483
8.53616e-05
8.35661e-07
0.000398917
0.0264207
0.00741443
2.50921e-08
0.000301102
1.10467e-05
0.00442593
0.00122687
0.340733
4.63802e-05
2.04438e-06
0.0191963
0.0015589
0.00496992
0.0338258
0.0704434
3.7178e-10
0.0204495
0.00364435
0.0497986
5.7088e-09
0.00114835
5.706e-07
0.0427616
4.98378e-08
4.88312e-09
0.00321953
0.00211013
0.00290504
0.298365
0.0395601
0.0251727
0.0338819
0.0160001
0.220877
0.0432217
0.0048685
0.00468655
0.0057115
0.000580362
0.00946797
0.0374168
0.00143549
0.00141856
0.0308087
1.9302e-06
0.0032992
5.20624e-07
0.01743
2.29181e-06
7.70129e-07
0.00156856
4.15365e-06
0.0057155
2.46395e-08
3.59876e-07
0.0805678
9.78159e-09
7.73604e-08
0.000838443
6.33565e-08
0.000686465
3.562e-05
0.0658583
0.016508
0.266353
0.00752533
0.00687037
0.0399297
0.549048
2.50105e-10
0.0642096
0.0279904
0.0163324
0.0229961
0.00226746
0.0526382
7.06459e-06
7.48654e-06
8.50709e-07
0.129592
1.09573e-06
1.02792e-07
0.0165796
6.60449e-07
1.5157e-08
0.00529228
2.50427e-06
0.285911
8.23151e-05
3.53519e-05
4.63575e-05
5.86656e-05
0.00144932
0.00637128
1.25967e-10
0.0217125
0.000411195
2.15248e-05
0.0949383
6.92538e-08
0.0145695
0.0169501
0.00359457
3.21978e-08
0.0169812
0.00961359
0.000887007
0.00516496
0.0117024
2.91186e-08
2.25597e-08
0.00165756
2.22647e-08
1.45002e-09
2.82649e-09
0.018516
0.35507
0.00430135
0.00220159
6.90939e-05
0.0475415
0.0432502
0.00398463
0.00238957
0.00887066
0.0196958
0.00265947
3.97435e-09
2.60226e-09
4.13351e-09
0.00698599
1.11382e-07
0.352386
0.000526904
0.000768379
0.0018413
0.0024761
0.0207634
2.56938e-09
0.0592931
0.00245151
0.000374508
1.55224e-06
4.11412e-07
1.61732e-07
0.481348
0.000309381
0.000581045
0.000868832
0.00969621
0.204186
3.16932e-07
3.20445e-07
4.99881e-07
0.00360694
0.0165225
0.0189487
0.0331225
0.00165278
0.00342245
3.6183e-06
4.73035e-10
0.000190236
3.8325e-07
0.165569
0.0212006
2.40894e-07
1.25172e-06
1.89662e-05
0.0606568
0.0297571
1.83532e-05
0.0133086
0.0905759
0.000895078
0.405499
0.0473255
2.53558e-05
0.0217044
0.173921
0.0186472
1.05625e-05
0.0049356
1.53556e-08
0.0139543
0.00172517
0.023424
1.13635e-05
0.000380651
1.29894e-09
0.0231289
1.03919e-08
2.88751e-05
0.38291
1.22451e-07
0.00587325
0.00120356
3.751e-07
4.13115e-08
0.00202508
4.17367e-07
1.1312e-07
0.0106854
0.000150074
1.40759e-08
0.0232833
0.0441202
0.0162535
2.82768e-10
1.91194e-09
0.000596424
0.00262511
0.0030925
3.36248e-09
1.00256e-07
0.000133208
0.00381705
0.00189106
0.0126386
0.366981
1.48783e-09
0.141555
0.0111013
0.00623811
0.0562011
1.0859e-06
2.1111e-08
0.0228113
7.39008e-10
0.0296669
0.00488627
0.00575631
1.10205e-06
9.26056e-09
3.94195e-09
1.62061e-08
2.03873e-05
0.134022
0.212503
0.00212324
2.54823e-06
1.70162e-10
0.0557566
0.225486
0.0341405
0.111942
1.38338e-07
0.000967984
0.000247315
2.38175e-07
1.32336e-08
0.00367736
0.00617047
3.69545e-08
1.10764e-05
0.00284883
0.0599611
0.205023
0.00105208
2.00399
1.01029e-08
3.73575e-07
0.0114015
0.00071137
3.37471e-05
0.636874
0.000590074
0.00599492
7.37709e-09
8.68122e-08
1.26589e-05
0.0582554
0.00819441
0.177847
1.97234e-08
0.0244546
0.0184438
0.825366
1.06474e-08
1.26344e-09
1.10366e-07
3.53626e-08
0.00654113
0.000328147
1.01864e-08
0.0373175
0.017964
0.160012
0.00457978
3.01632e-06
1.65272e-06
0.027648
1.33533e-05
3.04208e-08
2.37128e-08
1.35522e-08
0.0203934
9.55129e-06
0.0582021
0.0563406
0.0246891
0.011473
5.95923e-09
2.41212e-09
2.4878e-08
0.0146912
0.000250287
2.0313e-07
3.64559e-08
3.57419e-09
0.0219366
0.00234492
0.0108979
0.0403738
0.00191063
0.311793
0.00475764
4.39626e-07
4.26213e-10
2.59334e-07
0.0534566
9.74316e-10
0.0182797
2.24724e-08
0.0144264
4.50337e-05
0.00159909
0.000145515
0.0024209
3.87039e-09
1.53722e-08
0.368925
0.153051
3.51252e-05
0.00378525
4.22308e-07
0.000463547
9.62017e-05
3.00897e-06
3.29981e-06
0.000304482
8.21811e-08
0.00100761
0.0391523
0.0337741
2.06898e-07
8.33231e-05
9.06562e-07
0.0340761
0.182076
0.000153341
9.37739e-10
0.00964846
3.42945e-07
0.00264824
0.0173579
0.00139807
1.12268e-08
0.000884774
0.000530963
0.000134256
0.00408359
0.000123427
0.00169284
5.37075e-06
7.77298e-10
0.000156469
0.00557137
0.00029803
6.64716e-07
9.66334e-06
0.000121716
0.562642
9.44305e-09
1.84254e-08
3.48884e-08
3.49367e-10
1.274e-07
0.0216488
0.000586205
0.00112196
0.000107357
0.000206288
0.00148528
2.78936e-10
0.00521974
6.68006e-09
5.38999e-07
7.79574e-09
2.61197e-05
0.00205461
1.54736e-05
1.11521e-07
1.33111e-08
0.0136663
1.22468e-07
6.92303e-09
0.15643
9.2622e-06
0.0757543
0.122183
0.546842
9.00744e-09
0.194117
1.08116
1.05525
0.608802
3.19035e-09
4.25564e-10
0.00456696
0.00429801
6.83113e-05
0.0105351
0.0424563
0.0300408
3.30359e-05
4.47348e-06
0.00125764
3.40573e-08
1.23728e-09
0.000124963
0.000410774
0.0260945
6.66686e-09
0.117874
0.000127277
3.38295e-07
0.000111216
0.00780741
0.00155832
2.29086e-06
0.007635
6.73852e-09
0.00328403
0.0021738
0.00706345
5.7876e-08
0.00175969
0.00549666
1.06631e-05
0.00324097
8.63531e-08
0.029853
5.71846e-05
0.00892828
8.66962e-07
0.193171
5.66028e-08
8.59562e-07
2.74283e-08
0.118045
0.120998
2.06857e-06
0.0111249
0.00883436
0.0550695
3.32953e-08
0.0301672
0.015883
0.171917
1.28037e-06
0.195372
0.023201
0.0425769
0.00363643
1.60664e-07
0.0531091
1.73022e-06
0.212586
1.80111e-09
0.00240443
0.00398028
1.08812e-07
5.71579e-05
1.27137e-06
0.019351
7.24652e-09
0.0398042
2.90107e-07
1.00035e-05
1.09945e-06
5.30612e-07
0.000258716
0.0018897
0.124794
5.05695e-06
0.000247602
0.0380471
1.34731e-06
0.0430047
7.7531e-07
3.38065e-06
2.52378e-06
0.00550979
1.92887e-10
5.05251e-09
7.67811e-10
0.00304916
5.64634e-08
0.0676488
2.23038e-05
0.00306656
3.87108e-09
0.00567816
0.334222
0.00517503
0.00525185
0.0246903
1.25225e-05
2.00817e-07
7.88422e-08
0.00298598
0.00160184
2.72596e-06
0.000546824
0.000575257
4.68108e-08
2.98083e-08
0.310321
7.64945e-08
0.0198674
4.12979e-08
0.0021827
0.00295465
1.92816e-07
7.88965e-10
0.0457081
7.12744e-09
2.66805e-09
0.0164593
0.0564598
0.00436186
2.24826e-06
1.43026e-08
0.00642269
5.35908e-06
0.0115739
6.05634e-06
7.42106e-09
0.00214658
6.75476e-05
0.129568
4.09807e-09
4.9645e-09
4.41175e-09
0.00313724
0.164538
9.60244e-07
1.66177e-08
7.5792e-06
0.00142689
1.9674e-08
0.0177468
0.0285427
5.24162e-08
4.4518e-09
0.00670384
2.39956e-07
2.05942e-05
1.55585e-09
2.55692e-05
9.99666e-09
0.0631957
0.000350846
1.34598e-07
5.51188e-09
0.0688144
2.98444e-08
0.0565864
2.51737e-07
4.65115e-08
9.58525e-06
0.0069303
0.0469759
0.00800503
0.0499328
0.060666
0.531102
0.00254431
0.0403773
1.08589e-05
1.67432e-08
0.00227805
0.141081
0.0370163
0.0422143
1.19106e-08
0.00684263
1.62017e-08
0.00431787
9.90183e-07
0.00872016
0.000171457
0.0518243
5.30122e-07
1.65908e-08
0.0199186
0.000294929
2.38925e-08
0.024341
0.000283842
1.97742e-06
9.7848e-10
0.0326076
0.00910549
0.00599584
0.000790175
0.0016903
0.0159126
0.000954288
0.00444191
8.73502e-06
0.0265516
0.000126018
0.000457877
3.84378e-09
6.30484e-07
2.79356e-08
0.00964182
9.05903e-08
2.31339e-06
1.03029e-10
0.00040211
0.391785
0.0889935
0.0022287
5.02723e-09
0.0039659
0.0552736
0.102915
0.00293359
0.000271587
0.0414839
5.59058e-07
1.19902e-07
2.85851e-09
0.00273864
0.00117999
3.89622e-08
4.23145e-09
0.00229967
1.65761e-07
0.785334
0.0539259
0.0936895
5.26032e-09
1.14372e-08
0.0420873
4.89829e-09
0.00918595
9.33287e-09
0.000647649
2.10906e-08
0.00892989
5.1592e-08
6.09816e-09
0.00108232
0.154881
0.0646503
1.45206e-08
0.0690003
4.24765e-08
0.00382405
0.170878
0.117992
2.40027e-07
0.000487399
3.87987e-09
1.96994e-06
0.000278352
0.0156546
0.000301344
1.0226e-08
0.000633931
0.00300232
0.00492996
0.00756492
3.66699e-07
3.32661e-07
3.38586e-06
6.10586e-07
1.01271e-08
3.63105e-09
0.0753165
0.0371694
1.43606e-08
0.0844453
3.07769e-10
2.14965e-08
0.0686536
4.8408e-09
4.79762e-09
0.0401997
1.83055e-08
7.55935e-10
1.00959
2.06835e-09
1.30499e-09
0.0019359
0.0928256
1.38381e-07
0.0371417
8.47364e-09
0.0209704
0.0503392
6.28101e-06
0.000878893
5.76779e-10
7.27342e-08
1.04582e-06
1.8042e-07
0.319599
0.0456115
0.000257862
3.26211e-08
0.0463055
1.05484e-09
2.07398e-08
1.80941e-09
0.103245
0.00177251
0.000110692
1.28046e-09
1.29195e-06
0.0481583
0.000912474
3.64593e-07
0.000265016
0.108978
0.0861906
3.54485e-05
0.0853111
0.000926988
0.042692
4.20963e-05
0.0657296
0.000345088
0.0288635
1.47486e-06
0.00671676
0.000458499
0.000932925
6.88083e-10
0.00130504
7.13405e-08
0.00378702
0.0242764
1.00022e-06
0.00234145
0.00031155
1.74579e-07
0.0102012
9.0874e-08
2.68132e-08
2.75234e-08
4.47706e-08
5.07368e-06
4.47352e-08
4.87928e-08
7.45474e-08
0.267857
4.32456e-05
1.5707e-10
1.8125e-09
5.5662e-08
1.00595e-07
0.0299584
0.767602
0.00210369
0.00014104
9.94526e-09
0.00201684
0.00139312
0.0463698
3.20511e-05
1.29455e-05
5.65483e-07
1.11463e-06
2.44446e-06
0.000222964
0.000117022
0.179807
0.0672002
8.23652e-08
0.00106097
0.000300178
1.4349e-08
0.0242039
4.6148e-06
3.86561e-08
1.73129e-06
0.162525
0.0621792
8.85987e-10
0.0251056
1.39999e-08
0.048767
5.12792e-05
0.0355177
0.0531795
4.65959e-09
6.70008e-09
2.31907e-08
2.50448e-05
0.005653
0.225233
0.0275125
0.0416956
0.00447504
0.000540408
9.84906e-10
0.000117073
0.138335
0.00128045
9.54116e-05
0.00296906
4.05301e-06
0.0991872
4.81201e-08
0.205562
0.0383729
1.28651e-08
0.000488151
0.00718248
4.05474e-08
0.00966268
1.39905e-08
1.86025e-07
0.198296
0.0295515
5.32886e-08
8.41576e-09
6.98738e-07
2.55631e-09
6.10216e-09
0.000126985
2.45588e-08
5.63857e-10
0.00309827
7.6919e-09
9.7577e-08
2.70276e-07
0.000229373
2.1949e-07
0.000169271
1.07831e-07
4.75379e-08
2.26142e-05
6.61199e-05
0.00357539
0.0431976
8.07515e-05
0.00502753
2.30076e-06
0.320275
0.315546
1.24529e-07
0.00343986
1.77736e-08
0.0458602
0.038041
0.000405679
0.0903947
0.0685217
7.16541e-06
1.10401e-09
0.00245805
1.12848e-08
1.22951e-09
3.97735e-07
1.5882e-05
7.14884e-09
1.73898e-05
0.0356202
5.17348e-09
2.40742e-08
0.337871
1.52002e-09
0.017273
8.29052e-06
0.0013277
9.79685e-09
0.000443364
0.000145775
0.239718
0.00794966
0.0239698
0.000182922
0.0403396
0.0002712
0.0753929
0.000153702
0.000227053
0.00983833
0.0581081
0.000324592
0.00127772
4.31945e-06
1.79442e-07
0.00111351
0.000225123
0.0158042
0.0121114
0.000147736
1.90631e-06
0.00549015
0.00521182
0.0185217
2.18685e-09
0.0122968
0.0166507
0.0027655
0.00149451
0.00131262
0.00327722
0.0189723
0.0408377
0.00715641
0.0110689
0.00801049
9.08691e-05
0.00291276
0.00363851
0.00108266
0.0026103
0.0141832
0.0137785
0.0193694
0.000122014
0.0114709
0.000423018
0.00509932
0.00285642
0.000356051
0.00235347
0.000204039
0.0757779
0.00399115
0.00123445
0.00014248
0.000729071
0.0158639
0.00246048
0.2163
0.00354342
6.84426e-10
0.231768
0.046017
0.0216887
0.00714854
0.0202862
0.000406392
0.00866585
0.463375
0.00213406
0.00137995
0.00250913
0.175076
0.00119703
0.0746214
7.59894e-05
7.74222e-08
1.31162e-08
0.00223418
0.00618799
0.0118366
0.0709635
0.00678882
0.0609101
0.0549921
0.0715268
2.90433e-08
0.00704087
0.00263845
0.0250212
1.0588e-06
0.00635185
9.19846e-08
0.225512
0.0116378
0.0075408
0.221376
5.20529e-09
8.98562e-08
0.00222424
0.000111333
0.000765828
1.55934e-07
0.00656993
0.000973623
0.0781558
9.19259e-07
0.0223249
0.00309403
0.000351819
0.000126807
0.00238545
0.00131249
2.41954e-07
0.00187956
5.31505e-05
9.76739e-09