/*--------------------------------*- C++ -*----------------------------------*\
  =========                 |
  \\      /  F ield         | OpenFOAM: The Open Source CFD Toolbox
   \\    /   O peration     | Website:  https://openfoam.org
    \\  /    A nd           | Version:  10
     \\/     M anipulation  |
\*---------------------------------------------------------------------------*/
FoamFile
{
    format      ascii;
    class       volScalarField;
    location    "22.5";
    object      SgT;
}
// * * * * * * * * * * * * * * * * * * * * * * * * * * * * * * * * * * * * * //

dimensions      [1 -1 -3 -1 0 0 0];

internalField   nonuniform List<scalar> 
111485
(
7.37384e-15
0.0077252
0.0242939
8.3451e-16
0.0489816
4.76054e-15
0.0464622
0.00616685
0.0190563
0.0012495
0.0468246
0.00947318
0.00481695
0.000794585
0.00650962
0.0302359
0.00143385
2.6231
0.0103572
2.21368e-14
2.95375e-16
6.96885e-16
0.0269066
0.0345404
0.00872306
1.85223e-15
0.0393569
0.00178134
0.0152528
9.98893e-17
0.0446247
0.0195894
1.61966e-15
9.42268e-15
0.00634022
3.13069e-14
0.0106254
0.0042145
3.89848e-08
0.0242435
5.77357e-15
0.0708123
0.0158539
0.00156443
6.32078e-05
1.43991e-14
0.0294583
0.000711472
0.0474498
2.5625e-15
9.21421e-16
6.13226e-14
1.20842e-14
0.0514698
3.58461e-15
0.0437642
0.00303636
3.35998e-15
2.00835e-05
0.0047995
0.0160748
3.52834e-15
0.00480755
0.0982987
5.15675e-15
0.00311287
0.316123
0.0944139
0.0011137
0.00616802
1.91684e-05
0.00665669
3.67202e-14
0.00291291
1.96277e-15
0.000717611
6.77608e-15
0.0411379
2.81402e-15
1.68077e-14
1.14498e-06
0.0340034
8.66654e-15
4.02981e-15
0.00938214
0.00380992
3.3339e-10
0.0253724
6.04869e-05
0.00743854
0.000259266
0.0402948
0.0119517
5.79039e-05
0.0520928
4.46063e-15
2.65796e-15
0.00182427
3.09759e-08
0.00112357
5.64067e-15
0.017685
4.17058e-15
0.0180186
0.00458111
5.23983e-15
1.51142e-15
0.0075892
0.00419344
5.52197e-08
0.00552963
0.00475567
0.0038013
0.00326783
1.86451e-14
3.41283e-05
2.80244e-15
3.57986e-14
0.0128837
1.11433e-14
8.9063e-15
5.81378e-15
1.72762e-15
7.44948e-15
0.00153508
2.98213e-06
3.00338e-15
0.00172027
1.56725e-15
2.29087e-05
0.00152028
0.0328154
3.10386e-15
2.16718e-14
3.18553e-14
0.048305
7.56091e-15
0.0425494
0.0253646
0.00270338
0.000251977
0.00199716
0.0224924
0.00261807
0.00406384
0.0130617
3.42195e-15
4.23684e-16
7.18744e-15
0.0280962
0.0015296
5.57878e-15
2.37251e-07
0.00469136
4.29378e-07
0.0109479
0.0161085
0.0108388
6.01643e-08
7.83238e-16
4.65056e-15
0.052359
0.0225123
1.65952e-06
3.06648e-07
0.00585449
0.00339541
5.51548e-15
4.03094e-06
4.32078e-05
2.98663e-15
7.76558e-15
0.000122557
5.56341e-16
0.00548492
0.00206535
2.10067e-15
2.13466e-15
1.58847e-15
1.0452e-15
2.18846e-15
4.68247e-15
0.00151553
0.00677793
0.0299099
0.00411805
0.00769662
0.00403112
7.74582e-05
3.95669e-15
0.00485656
1.18861e-14
2.94719e-15
0.00654032
0.0103705
0.0287133
0.0114761
0.00502957
1.99275e-15
0.00678912
0.000499272
4.09879e-05
0.0144452
0.00233666
4.73726e-16
0.00384805
0.0249799
3.94886e-14
0.000158758
0.00791737
0.00199721
0.000370309
1.24421e-14
8.52106e-15
0.00833086
1.10396e-11
0.119306
4.35132e-15
0.00668802
0.0205968
0.119107
2.6394e-15
0.00329328
0.0137143
2.00852e-13
2.82776e-15
1.0099e-15
0.150238
2.36976e-07
3.73537e-15
9.20666e-15
0.00945105
0.00782225
0.0149416
1.46462e-14
2.09592e-14
1.31944e-05
2.19716e-15
0.00236727
0.00956854
0.0166569
0.0116346
0.00965892
4.95198e-15
2.41572e-07
0.000627792
1.20323e-14
5.08359e-15
0.0309468
0.0205795
2.37993e-14
0.00655776
0.0107893
5.42944e-15
1.17212e-14
0.000112917
2.73377e-15
1.91218e-15
4.70087e-05
2.57785e-17
0.0147733
0.010629
0.00368571
3.44465e-16
0.0118183
5.43494e-16
1.18613e-15
8.07905e-16
1.76978e-08
0.0230287
0.00616957
0.00550639
0.0362397
0.0123853
0.00155945
0.000563913
0.0322346
0.00872165
1.56336e-15
3.17115e-15
2.34116e-07
0.0226937
0.0245373
0.0117956
1.31833e-15
0.00701102
0.00202922
0.00303642
2.00332e-06
3.55497e-06
0.0138498
0.00218846
0.00197626
2.40547e-14
0.000645039
3.67706e-15
2.14152e-07
2.74515e-13
0.234453
0.0678641
0.0117833
2.07328e-15
2.41259e-15
0.00898075
0.0017183
2.19891e-15
3.43139e-15
2.60677e-15
0.00029556
0.0569157
0.00401564
0.0132804
0.0191851
2.06427e-15
3.78752e-15
1.41007e-14
0.00377401
1.09193e-12
0.000863471
0.184306
2.87143e-07
1.53119e-15
3.45031e-16
3.92756e-16
1.36062e-14
0.0601314
0.0118233
4.77062e-15
0.00528613
6.42908e-16
1.22169e-15
0.067087
0.00598154
0.011445
0.00932146
9.10897e-15
2.87905e-14
7.90239e-15
0.00950671
0.0187461
0.00487281
6.91102e-15
3.19336e-10
0.000155341
0.00229778
0.00805664
3.24697e-05
0.0284746
1.07922e-15
0.0375178
0.00357419
0.00773248
0.0257301
0.0131673
1.29432e-14
2.24093e-14
8.79581e-15
1.12752e-14
0.0311334
0.00979265
0.0326318
0.0673241
2.81118e-15
0.0183019
6.07626e-16
5.74948e-15
0.0167186
4.51026e-15
0.0810226
4.37147e-16
1.80198e-15
0.022822
3.40078e-15
0.0135143
0.000284728
2.37324e-15
0.000973952
0.0166317
5.01521e-15
0.00892442
0.00900099
0.00818039
0.000702811
0.00266889
0.00546974
1.30326e-14
1.9727e-15
0.00200418
2.27405e-15
0.00631164
0.117869
4.41718e-16
7.92971e-15
0.0276711
0.000109466
0.00829437
0.0204468
4.46364e-15
0.0477593
0.0188729
8.48725e-16
0.000837008
0.00236009
4.63618e-15
1.65852e-15
0.0109276
0.00518508
3.56267e-14
4.27734e-16
3.95465e-08
3.00638e-15
0.0124782
4.3196e-15
1.75719e-15
0.0167175
1.55877e-06
0.0123157
0.0299099
5.41627e-16
6.29275e-14
0.00153153
2.49516e-15
0.000164555
0.0145595
0.121776
0.830238
1.59269e-14
0.00276446
0.000552026
5.30749e-15
0.0389576
0.0309096
6.53063e-16
7.0592e-09
8.64576e-05
3.07377e-15
0.0237332
0.0239552
0.0138777
1.7723e-15
0.000662207
0.0167409
0.0227984
8.25575e-07
1.45776e-14
6.73704e-10
2.55475e-15
1.141e-05
0.0311968
1.10397e-14
0.00817869
0.000101701
4.49003e-14
1.28635e-15
8.73481e-14
2.01821e-15
0.00371777
0.00958724
0.00630248
0.00203532
0.00258194
7.3029e-15
0.00194584
5.07266e-15
0.0411533
2.30346e-15
1.55316e-15
2.18331e-15
0.0374577
1.03895e-14
9.83701e-15
1.44033e-07
1.61431e-15
1.50144e-14
0.00106687
2.22432e-14
1.69978e-13
7.3183e-16
1.7492e-15
6.96826e-15
1.81927e-14
2.15343e-15
0.00680698
2.93268e-15
0.00053969
0.00197813
0.000844749
8.77854e-16
0.000903196
6.79166e-15
2.47931e-16
0.00273075
0.001756
0.0267692
0.0251291
1.62278e-14
0.00203546
0.0823173
0.00851241
0.00101002
0.00319895
1.24787e-14
0.0232443
2.49663e-14
0.00502497
1.04947e-14
0.0763444
1.73301e-15
0.0211628
0.000246834
5.10082e-07
5.12343e-15
0.0020218
4.91995e-15
0.0799285
0.0489009
1.90377e-14
1.16704e-14
8.63146e-15
2.02133e-15
1.37834e-09
0.0546837
2.84727e-15
1.00979e-14
0.00241549
9.61679e-16
0.0339881
8.76967e-15
0.000312123
3.19231e-15
0.000467367
1.18488e-06
0.000982252
0.0127534
2.12669e-15
0.000417839
1.78056e-15
9.48277e-15
0.014743
2.89994e-15
2.85892e-05
7.10775e-15
0.00163875
2.21851e-14
0.0644876
4.44388e-15
3.97207e-14
0.0176621
0.00320323
0.00173814
0.00385128
0.00686601
0.0206874
5.31379e-15
0.0254211
0.00594992
4.08098e-15
7.48783e-08
0.0412494
0.0154433
2.64045e-15
0.00362765
0.00690628
0.00180102
0.000975768
2.03707e-10
0.0136845
0.00123098
0.00011986
0.0228968
0.0137332
0.000573373
1.43996e-14
3.05441e-09
0.650476
1.35337e-14
0.000344879
2.96434e-15
3.9863e-14
0.00731388
0.00265143
2.33626e-07
1.7829e-05
2.12199e-15
0.0159505
0.0110359
1.67399e-15
2.0261e-10
0.00129503
4.06154e-15
1.35416e-14
1.70472e-15
3.8474e-15
0.0126618
4.12264e-15
7.27766e-16
0.00847403
0.00191114
1.15311e-13
0.0105544
8.34252e-15
0.00846674
1.39601e-14
1.21909e-14
0.0517708
1.01781e-15
1.9988e-15
7.35723e-16
0.00419833
2.47967e-14
0.0280734
0.00624808
2.35404e-15
0.0901706
0.00232621
0.0286941
0.0282609
0.000417048
7.35057e-05
8.47253e-15
0.0538577
0.0466558
6.21132e-15
0.000319939
0.0406499
0.00801548
0.00138637
0.0276314
0.0261156
2.89367e-14
0.0109384
6.75737e-06
1.30777e-14
0.0348294
0.000249196
4.43817e-14
0.0108648
0.0406833
0.00131031
0.0215063
0.0196209
0.00720494
3.0014e-15
0.0104174
0.000301031
4.45323e-12
0.0171587
0.0179774
0.0357514
1.50851e-14
0.00184203
3.20891e-17
1.5198e-15
1.33408e-14
6.9292e-15
1.32164e-05
9.44953e-15
2.99394e-10
1.17542e-14
3.31752e-15
8.1233e-05
0.04276
1.67565e-15
0.0304617
6.10989e-15
2.85893e-15
3.33289e-15
0.0385652
0.000392165
5.78788e-14
1.69623e-15
1.83277e-15
5.68408e-16
0.205803
0.0697255
1.04296e-14
0.00200633
1.81566e-06
1.34088e-14
0.037387
0.00856553
0.0114645
2.98102e-15
6.41747e-16
0.000410778
0.00107171
3.92784e-14
1.87795e-14
1.65886e-15
0.00722742
1.57383e-15
2.31846e-15
1.21178e-14
0.0421163
0.00213283
3.93349e-16
3.84268
0.365554
0.00968035
4.93655e-16
1.21532e-14
0.0551036
0.000429615
9.25513e-15
5.19256e-06
0.10929
0.00237763
0.0112137
1.28384e-14
0.0520778
0.00191399
6.84096e-15
2.22856e-14
4.34101e-15
1.21487e-15
1.0608e-15
2.76605e-15
0.0223894
6.3627e-15
1.32977e-15
7.61211e-16
0.0113139
0.0235619
3.47214e-15
1.19415e-14
0.105572
0.0143381
0.00988564
7.7819e-15
2.75088e-15
0.0371824
1.01884e-15
0.00169508
0.00263509
0.00396582
1.70825e-14
4.71321e-16
2.56131e-17
8.61045e-16
0.0146101
9.82622e-16
1.42389e-14
0.0010608
4.9784e-15
0.0232554
0.00192112
3.50811e-15
0.0368571
0.341257
0.0025319
0.0289684
0.000139641
0.0434749
7.21348e-11
7.2132e-14
0.0236704
0.0676764
0.00599087
2.08487e-15
4.80065e-10
0.783249
0.0100205
2.92231e-15
0.00241547
0.00241416
0.00112904
9.30275e-14
5.8159e-16
3.96676e-16
0.0134707
2.16786e-14
0.00272353
2.17849e-16
0.0011915
0.00142679
0.0367162
0.00056672
2.554e-15
2.3866e-15
2.00056e-14
0.0204938
1.20065e-16
6.92224e-15
7.4554e-05
8.45592e-15
1.79945e-15
9.45818e-16
1.25066e-15
0.0101339
6.20768e-15
2.46869e-15
4.22783e-10
1.20669e-14
2.33068e-16
6.72371e-14
3.83394e-15
2.92086e-06
0.00161599
1.78452e-14
0.00404785
6.18769e-06
2.88821e-07
5.80418e-05
0.00395674
1.67616e-15
9.40645e-06
0.0100675
0.000397615
6.85166e-15
6.1595e-09
0.000855382
1.43522e-14
0.00993954
0.000187546
1.59008e-06
0.0229601
0.0094477
0.00224323
0.00484322
0.00197748
4.96695e-15
3.28914e-15
0.0329811
0.0264833
4.30787e-14
0.00841957
0.0540156
0.0284063
4.52086e-15
0.00124914
1.04086e-15
0.0101812
0.0139558
1.60334e-14
0.0015856
0.000446893
1.18074e-06
0.00495347
5.30719e-15
0.0486479
1.47113e-05
0.00139925
2.93236e-05
1.20197e-05
3.35998e-15
1.24709e-14
0.00683748
1.16811e-15
0.000124252
0.000242361
0.000300649
5.94521e-08
7.02047e-08
1.79484e-07
1.36038e-15
7.16087e-15
0.022647
1.27964e-15
0.00018372
0.00196552
5.96601e-16
3.27054e-15
6.68505e-07
9.4725e-10
3.24864e-16
5.20038e-06
2.34153e-14
7.22914e-15
1.86041e-15
4.21275e-15
3.31104e-14
1.86215e-15
0.000269905
7.87564e-15
8.49966e-16
1.37395e-14
6.52716e-06
4.82998e-05
0.00168909
0.00919829
2.8728e-15
6.23957e-16
0.000156052
1.80643e-15
7.25424e-15
3.32157e-14
0.0184149
0.0420725
1.25472e-14
5.8339e-15
5.12651e-15
7.01624e-15
2.20531e-17
6.6689e-15
0.00664864
2.45165e-15
5.40678e-08
0.0263323
2.58812e-15
9.11487e-15
1.97737e-14
2.91709e-05
2.72907e-14
1.80212e-15
6.26149e-16
9.75955e-06
6.2427e-15
0.00415122
8.86973e-07
6.25216e-09
4.99588e-15
7.8155e-05
0.00187538
0.0439841
7.70875e-14
8.50107e-06
0.00540158
2.21636e-15
8.56809e-16
4.1056e-13
1.08191e-14
0.00820374
0.0016325
0.00315853
1.81668e-07
2.02709e-16
0.0229101
6.54723e-15
7.03685e-15
1.32615e-13
3.02386e-15
0.0264418
5.88886e-15
2.23602e-14
1.54674e-06
0.0520612
3.5272e-14
0.00231884
5.09658e-15
0.000769117
9.77747e-15
1.15708e-15
2.35003e-15
1.31507e-16
0.00246866
0.000580885
0.302474
3.2016e-15
1.644e-15
0.00207956
3.15813e-15
8.04857e-14
1.13464e-14
0.0359657
9.92711e-06
0.031903
9.9941e-15
1.12508e-05
5.14383e-05
9.19843e-15
0.000133534
8.09568e-15
0.00118272
0.0245156
0.0202486
0.00113171
0.000221126
2.27161e-15
5.24694e-15
1.29412e-15
2.28499e-05
4.3277e-15
0.00761846
1.33663e-15
0.173885
5.99181e-16
0.0409759
0.00293839
6.6242e-14
2.52568e-15
2.31265e-13
7.95183e-15
0.0418854
3.00323e-14
3.27107e-13
0.0116654
0.00686508
1.87152e-14
1.38458e-13
2.12539e-13
5.57209e-14
1.64389e-14
7.54765e-16
0.0259661
0.000392811
4.35163e-15
9.02067e-16
5.58408e-07
1.46956e-15
0.00154646
0.000102393
2.61181e-15
0.00354595
1.88322e-16
0.000387384
1.12641e-15
0.00110902
1.19945e-14
6.69862e-08
2.16987e-06
0.000606924
0.0184315
0.0345545
1.14954e-06
5.3687e-16
0.000568063
2.34949e-15
0.00465712
1.83657e-15
2.58872e-15
1.35689e-13
4.08271e-15
1.88465e-15
2.05794e-14
0.00730871
0.00824687
3.94107e-16
7.80571e-14
7.52071e-15
0.000804507
1.22875e-05
3.98621e-15
0.0179977
0.000167738
2.17533e-14
0.023478
0.00811514
0.00371629
0.0109954
3.25128e-15
1.33866e-15
1.56458e-15
1.59159e-15
0.0369893
6.05e-15
0.114738
2.45961e-15
0.000325278
0.000727526
3.08809e-15
0.0009901
4.6041e-15
9.07762e-15
0.0031112
2.20477e-08
0.00968868
2.91692e-15
5.30438e-15
1.61065e-15
0.000844203
3.3202e-15
2.03386e-17
2.85064e-15
2.68085e-07
1.42445e-14
6.25789e-06
3.0562e-14
8.02956e-15
1.86536e-15
0.0183356
0.00979204
0.0182614
0.0358961
1.05811e-15
1.64257e-05
8.68616e-16
4.05336e-15
0.00955474
2.76211e-15
2.11074e-06
0.000363191
0.00673236
0.000380128
1.05081e-09
0.00185414
3.86164e-15
1.37722e-09
3.19741e-10
0.00012994
0.000757492
0.0152806
6.70606e-08
1.03046e-14
0.030018
3.17938e-16
2.77176e-16
1.20098e-05
0.0749263
5.18686e-08
1.39539e-14
1.14597e-14
3.03822e-07
4.23962e-15
4.77216e-16
1.87304e-05
3.91554e-14
1.07347e-15
0.0398613
0.000238977
0.000188181
0.0223707
0.00721854
2.8656e-15
1.01816e-14
2.56217e-05
0.00404031
4.69416e-16
4.65202e-14
0.00957898
1.37219e-15
2.41661e-14
3.63412e-15
1.51516e-14
2.63709e-13
2.56586
3.42758e-15
0.000218753
2.4359e-15
0.0217381
4.46953e-15
8.31206e-13
4.06707e-16
1.48923e-15
3.87155e-15
1.0633e-15
0.00279252
1.04003e-15
1.57774e-15
4.85726e-15
5.31744e-15
6.36728e-15
1.57688e-14
0.00971566
2.65556e-16
0.010919
0.0031633
1.58955e-15
0.00151803
1.66068e-14
0.000515308
2.09274e-06
0.00382333
0.0128859
6.95353e-15
9.28826e-05
0.00754307
1.04204e-05
2.55659e-15
3.20664e-06
0.0192218
0.00465376
3.4548e-15
0.0257185
9.03914e-16
5.34903e-15
4.60748e-15
1.23135e-15
0.0080616
1.58319e-14
6.56087e-16
0.00829467
4.03875e-07
0.00263261
1.9394e-15
1.00066e-13
0.000647918
6.1198e-16
5.99205e-05
1.51506e-14
0.0234592
1.7139e-15
3.40202e-16
5.31449e-05
2.027e-15
0.000139976
4.99531e-15
5.62293e-17
0.00466676
0.000447213
0.00467856
0.0151313
0.217857
0.0202762
8.69626e-16
1.19883e-14
0.00302945
0.0067097
0.0369214
0.0102615
6.22637e-15
0.0125156
2.49141e-15
2.43286e-15
0.00926816
0.0111665
4.98778e-15
0.0133109
4.96648e-15
0.00272696
0.00898498
2.07363e-15
2.41702e-15
1.8313e-15
0.00286803
5.46616e-15
8.30268e-15
0.00423482
0.0216061
3.58504e-06
0.00733706
1.4757e-14
7.80596e-15
8.95023e-05
0.000792743
5.27464e-15
0.010232
1.2126e-14
0.00254718
4.48723e-15
8.29416e-15
0.0122702
1.78639e-15
3.57897e-05
0.00367785
1.02551e-14
4.51369e-15
0.0044543
5.36767e-11
0.0518656
7.52821e-15
0.249009
6.82769e-15
1.2013e-13
2.13071e-14
0.00754018
1.50936e-14
2.3464e-15
0.00559017
1.92897e-14
0.000255759
4.33912e-14
1.74768e-15
2.2255e-15
9.67677e-08
0.000784906
2.3684e-15
4.06669e-15
0.0346939
0.000945862
3.91299e-15
0.000405546
5.15008e-15
1.27694e-15
1.72886e-06
0.00287434
0.00131137
9.65299e-15
2.24319e-15
1.35176e-14
1.23729e-15
1.04063e-14
1.57514e-15
2.73792e-15
2.76304e-15
1.46539e-15
3.38722e-14
2.20576e-15
3.55828e-15
3.186e-14
9.10769e-16
5.11102e-16
2.74319e-15
6.49619e-16
1.55953e-14
1.43955e-15
6.43507e-16
5.01699e-16
0.0169667
1.11259e-14
3.23022e-15
2.48663e-15
0.00663094
1.0098e-14
1.42861e-15
0.298204
3.43205e-15
1.51266e-15
0.0228665
4.8091e-12
3.87265e-15
0.00803916
0.0244161
2.61163e-15
0.00292343
0.00434186
1.0215e-14
0.0134856
0.0391354
0.0177387
0.00337008
0.0106197
1.63196e-15
2.24676e-16
0.00300439
0.0104862
0.00322174
2.0009e-15
0.00679209
0.00179445
0.0214117
0.0099521
0.000698477
0.0155798
0.00100632
0.0102919
8.04007e-16
0.0240619
0.00842009
0.00162364
0.00143198
4.23605e-15
2.25514e-15
7.54914e-15
3.21522e-16
5.85468e-15
0.00911488
0.0134843
2.83852e-15
4.17669e-16
1.33847e-14
1.01974e-15
7.80446e-16
1.18465e-15
4.14122e-16
3.98313e-15
0.00467075
0.000209877
0.0216747
7.27246e-05
1.95855e-15
3.56114e-14
0.0298401
7.64624e-06
2.36867e-15
4.78899e-15
0.00710224
2.26851e-15
2.58559e-17
2.25658e-06
0.00771478
0.0134851
0.0333604
0.0344027
9.13587e-16
0.0138916
0.000345149
3.55705e-14
1.30184e-15
0.0118759
1.25942e-15
1.93777e-15
0.0154132
1.04283
0.000172158
1.89297e-14
4.2664e-16
0.0169876
0.0196329
0.0178353
0.00557231
0.00442169
5.13259e-16
1.06528e-06
2.64488e-09
2.40367e-15
8.32607e-15
0.0168091
3.86603e-15
0.00198225
0.0246322
0.0174629
0.0110154
5.17372e-17
0.00594125
5.0771e-15
3.45871e-15
4.11929e-15
1.78348e-16
0.00244793
0.883945
2.8374e-15
5.01498e-16
4.09707e-06
0.0229365
0.00121629
0.00681617
0.0321559
0.00467657
0.0203689
3.89396e-15
1.88311e-14
2.6031e-14
0.0289442
0.00552304
3.04626e-08
3.46809e-15
2.01057e-15
3.43602e-13
0.0217368
0.00261176
8.60399e-16
0.00481058
0.05744
0.00625071
0.00609458
4.70783e-15
6.66234e-14
0.00675279
0.0222661
1.80451e-15
0.000348456
0.0147185
0.000964094
0.00904007
0.0046168
0.00774601
4.89924e-14
0.00319424
0.0205343
0.035062
4.34371e-10
0.0220326
8.7156e-14
0.015938
0.000149657
1.86802e-16
0.00247075
0.0074254
0.000407416
0.011324
4.15538e-07
0.000121878
1.36984e-05
0.0417576
0.00360418
2.02141e-14
0.0370356
0.00126324
6.06069e-15
5.66569e-16
4.26096e-08
1.41785e-05
0.00103903
1.05772
0.0345043
0.012045
1.87305e-07
0.0444121
6.07347e-15
2.06847e-15
0.00378781
6.8185e-16
0.00196518
0.00378005
0.00214039
0.00450168
2.85745e-15
0.000185923
0.104156
4.26908e-16
0.0134784
0.00736696
1.25972e-15
0.00387074
0.000128216
2.09464e-15
6.58281e-09
8.18444e-05
2.94593e-15
1.91142e-15
2.24519e-15
0.00414537
0.00480171
0.0135733
1.51104e-16
0.00458837
0.0317469
2.3383e-15
0.00776232
0.0119999
0.0229598
0.00147132
7.70367e-16
0.000503204
0.00885636
0.0100644
0.00877399
0.035441
0.157167
0.00314591
1.54139e-16
7.34542e-06
0.0476001
4.87976e-15
0.000404871
6.10788e-15
1.40925e-15
6.6833e-15
9.73662e-15
2.21966e-16
0.00312584
3.07004e-15
0.00689168
0.00108742
4.50964e-15
0.00361011
9.76382e-15
0.0132886
2.2997e-15
2.62741e-05
6.28749e-15
0.0207229
0.000153954
2.41958e-06
0.00408133
0.0271376
0.0158061
0.00375025
0.0260544
6.93555e-12
0.0222173
0.0519836
0.00939411
3.05196e-16
0.0010192
0.000232827
0.00541258
0.00969296
0.00058688
1.53743e-15
1.67695e-14
9.00873e-16
0.00334665
1.20899e-15
0.000343922
0.000203466
0.00170277
0.000246704
7.71755e-16
4.3152e-15
2.15198e-15
0.00835977
0.0202866
0.00112721
9.15532e-06
0.00176754
0.00661369
0.00174189
0.000785776
0.0062511
0.0059579
0.00258943
4.03584e-15
2.88127e-15
2.24314e-15
0.0122268
0.0103104
8.91482e-15
1.06253e-14
1.78425e-13
0.00812637
0.0173366
6.21669e-15
0.00214972
3.51632e-15
5.89778e-07
0.00438965
0.0859697
1.46726e-15
2.61249e-16
0.00345479
9.56519e-15
5.54323e-05
0.0114285
5.17788e-15
0.0103387
0.0310205
0.0181958
1.37529e-15
0.0014729
2.22765e-15
8.88154e-05
0.0460941
3.79755e-15
1.02034e-15
0.010112
1.22269e-13
4.44471e-14
4.16117e-05
0.000902376
1.14699e-15
3.93696e-17
8.21723e-14
7.178e-05
0.00119192
0.00297924
0.0244212
0.00813505
4.12851e-15
6.88722e-07
0.000687385
4.65568e-15
2.66998e-16
2.53137e-15
6.03945e-16
2.14952e-14
2.91561e-14
9.58538e-15
8.14633e-16
3.92362e-14
2.22558e-15
2.56959e-09
3.21995e-14
0.000312927
6.0408e-14
0.000248986
3.39354e-13
9.75794e-05
3.40067e-13
5.96706e-15
0.0271525
0.00850511
7.81363e-15
0.0815113
9.90177e-09
6.39633e-10
4.36711e-16
0.00113967
1.61312e-11
0.00261051
6.04227e-06
0.000789291
3.09338e-15
2.02839e-16
0.00115233
2.03326e-08
2.94496e-14
1.20776e-15
0.0365971
1.28581e-14
0.0350481
3.001e-15
4.19779e-15
1.70619e-06
0.0264201
0.00734406
9.2041e-15
0.000301003
4.43962e-16
0.00350499
1.85223e-05
0.00164541
4.69974e-06
1.03489e-14
0.0191961
0.00115055
0.00494664
5.1678e-16
1.8808e-15
3.72458e-15
0.0196628
0.00357975
0.0497918
8.47086e-15
4.64416e-07
6.5106e-16
1.49782e-15
8.42159e-15
1.04181e-15
0.0031893
0.00210899
0.00290371
0.298328
2.41713e-15
0.0251524
0.0338817
0.015916
0.00165018
7.25857e-16
0.00486172
0.00440178
0.00568115
2.7745e-07
0.00946494
5.29486e-15
0.00139694
0.0012316
0.0308085
1.04518e-06
0.00329447
2.14881e-16
0.0174058
9.1379e-15
1.18511e-14
0.00156603
2.86433e-15
0.00561418
1.42986e-14
1.60062e-14
1.75187e-14
1.10227e-16
3.4306e-15
0.000795044
4.18369e-15
0.000501095
5.77738e-15
1.85697e-15
0.0164845
0.00503103
0.00751246
0.0068487
2.46762e-15
0.548888
1.70892e-15
0.0642077
1.45192e-14
0.0163167
0.0229172
0.00225054
0.052638
8.78507e-14
2.49824e-14
1.4689e-14
0.00203178
6.73697e-16
4.15213e-15
0.0165778
5.75755e-15
1.0234e-14
0.00520513
1.61399e-14
0.0116033
6.28277e-08
1.34302e-14
3.69429e-15
1.83603e-14
0.00143256
0.00636831
2.37619e-15
0.0217116
0.00033711
1.65186e-14
0.0949318
5.74267e-15
0.0145582
0.0169489
0.00355448
7.85646e-15
0.016981
0.00961236
0.000858397
0.00514299
0.0116693
2.64413e-15
1.44558e-15
1.75465e-06
1.00178e-15
3.34615e-15
2.51426e-15
0.0185145
0.0462161
0.00430042
0.00208561
1.75185e-14
0.0475204
0.04325
0.00398337
0.00216338
0.00886328
0.0196954
0.00262186
1.38407e-16
1.03761e-14
1.06165e-14
0.00688657
1.19651e-16
0.0234125
5.3799e-15
0.000732977
5.64515e-07
0.00247542
0.0207463
1.08324e-14
7.19148e-16
0.00244323
0.000368299
4.14945e-16
1.05234e-15
3.97018e-15
3.71018e-05
0.000292501
0.000143891
0.000802728
0.00969483
0.0817304
5.49728e-15
2.70017e-14
1.60252e-14
0.00360621
0.0164872
0.0189482
0.033098
0.00163463
0.00291939
4.70277e-15
1.35652e-15
1.65287e-13
6.10571e-15
0.00876285
0.0211971
1.09739e-15
1.02569e-15
1.61043e-15
5.09899e-16
6.45309e-15
4.88175e-14
0.0132601
1.16694e-14
0.000891471
0.405474
1.47732e-15
1.27997e-05
0.0216985
0.000726717
7.39576e-16
2.44058e-14
0.00490226
2.2739e-15
0.0139157
9.21714e-07
0.0234137
1.07464e-13
1.20803e-12
1.63291e-15
1.28298e-16
3.60668e-16
8.33665e-14
0.188577
6.56158e-15
0.00586102
0.001199
1.17203e-15
2.96228e-15
0.00197689
2.22858e-15
1.03453e-14
0.0106538
0.000140329
6.69494e-16
1.82214e-14
1.37058e-14
0.0162485
5.34863e-16
3.62998e-16
0.000452303
0.00261097
0.0030871
5.06862e-15
1.00703e-15
3.9561e-15
0.00374746
0.00184348
0.0125552
0.00362659
1.02801e-14
0.000752706
0.0110837
0.0062313
2.24009e-16
1.25142e-15
2.33095e-15
7.31915e-16
2.53186e-16
0.0296601
0.00487982
0.00574918
1.21896e-15
2.11182e-15
2.04761e-15
1.73809e-15
3.32706e-15
1.02603e-06
0.000213216
0.00209184
6.09831e-15
1.41938e-15
5.19193e-16
2.04522e-09
0.0338611
0.111941
2.89339e-16
9.34453e-10
2.35246e-11
5.71075e-15
1.30269e-15
0.00367518
0.00616247
1.73732e-15
5.86837e-15
0.00277912
1.5904e-15
0.000670477
0.000995974
2.00313
6.34645e-16
1.25025e-15
0.0113687
0.000530797
2.0697e-14
0.63642
0.000581839
0.0059798
1.63007e-15
2.22698e-15
1.50813e-15
4.33438e-15
0.00819326
8.76071e-05
5.74774e-16
0.0244425
0.0184414
0.825349
1.61684e-15
2.52375e-16
9.3911e-16
5.14151e-16
0.00653991
8.04828e-08
8.3077e-16
3.20952e-14
0.0179461
0.000786502
0.00457784
1.19439e-14
7.42451e-16
0.027646
3.38878e-14
1.80103e-15
1.57976e-15
4.54827e-16
0.0203901
5.7023e-15
1.61087e-15
1.43396e-14
0.0246838
0.011472
1.35678e-15
2.33453e-15
2.94918e-15
0.0146895
1.9377e-07
1.52298e-14
1.23459e-15
3.86607e-15
2.50634e-14
0.00231827
0.0108532
1.65974e-16
0.00190974
0.00107639
0.00474778
3.52226e-15
9.27799e-15
2.1677e-15
1.02568e-16
7.43937e-16
0.0182565
1.87771e-14
0.0137231
4.44047e-15
0.00151432
2.48675e-14
0.00239156
3.03055e-15
2.67345e-16
0.00984113
0.153018
4.71548e-14
0.00355059
1.39142e-15
0.000377518
8.02272e-14
5.21371e-15
3.93486e-15
5.46431e-08
4.72798e-15
0.00028929
4.70051e-15
0.0337727
2.68438e-15
1.56202e-14
2.54274e-16
7.34164e-16
7.39474e-06
0.000131535
3.39567e-15
0.00553802
6.08631e-15
0.00262594
0.0173564
0.00127315
5.46974e-15
4.74689e-06
0.000443532
2.18459e-06
0.00406217
3.01036e-07
0.00166217
1.99116e-14
3.66572e-15
4.16839e-07
0.00552384
0.0002398
5.30631e-15
1.41449e-14
1.80113e-15
0.562188
4.56388e-15
1.14293e-16
1.80689e-15
1.91479e-15
3.04088e-15
2.96873e-05
0.000181057
0.000977694
6.65486e-05
1.60666e-12
0.0014021
8.97773e-16
0.00520811
1.11446e-14
1.96266e-16
7.42731e-15
3.36667e-15
1.38933e-05
1.00913e-14
3.22467e-14
7.27505e-15
0.0136648
3.33091e-15
1.58906e-15
0.00999835
7.69231e-15
0.0750803
0.121155
0.546112
8.22365e-15
0.193442
1.08041
1.05389
0.60807
2.51542e-15
4.29685e-16
0.00456351
0.00428934
4.87291e-16
0.010215
1.75777e-15
0.0300325
4.8819e-15
1.37134e-15
0.00069847
1.29904e-15
2.9265e-16
1.03325e-05
3.87718e-05
1.6169e-15
4.71735e-16
2.81966e-06
2.35307e-14
5.32325e-15
1.76122e-05
0.00780244
0.00146855
3.63263e-14
0.00753649
1.92741e-15
0.00327443
4.19409e-07
0.00702674
8.78456e-16
1.55051e-08
0.00545179
1.26738e-14
1.56283e-09
1.82825e-15
0.0298453
3.62562e-15
0.008825
3.37244e-15
2.40123e-07
6.02521e-15
1.7475e-15
3.10478e-15
8.53202e-10
4.88375e-10
1.85009e-15
0.0111231
0.00867929
2.20193e-15
7.67154e-15
0.0301563
0.0158615
0.171904
1.36117e-15
6.69251e-05
0.0231938
0.0425598
5.64708e-08
4.69669e-15
0.0531019
4.33867e-15
0.212584
4.23983e-15
4.24819e-08
3.74092e-08
3.22143e-15
5.63927e-05
2.78614e-15
0.0192488
2.50128e-15
4.3025e-16
4.05603e-15
5.30661e-15
6.37544e-15
1.27493e-14
0.000253728
0.00185611
0.124793
3.62274e-15
8.96398e-14
0.0380455
1.55685e-15
9.09892e-17
8.46562e-15
2.59647e-15
2.32277e-14
0.00548988
2.84389e-15
2.34345e-15
4.67158e-16
0.00304317
6.54034e-15
7.41337e-15
1.37652e-14
0.00305444
2.46808e-15
0.00564533
0.216766
0.00509602
0.00523796
0.0246283
9.63588e-16
1.32712e-14
9.08315e-17
0.00296158
0.00159745
9.44723e-16
1.21214e-13
0.000565522
3.06235e-15
5.99868e-15
0.310319
3.98398e-15
0.0198604
2.53038e-15
0.00217062
0.00293833
8.88573e-15
8.34449e-16
6.5221e-15
6.3647e-15
5.12852e-15
0.0164341
1.40757e-14
0.00434117
1.70683e-15
4.0501e-16
0.00641258
1.66651e-14
0.0115516
6.27669e-15
1.05065e-15
0.00214479
6.59642e-05
0.129562
8.40637e-15
6.05246e-15
3.39792e-15
0.00313196
0.164521
2.69873e-15
1.50242e-15
1.62213e-14
0.0013746
1.59709e-15
0.0177219
0.0285422
1.97974e-14
1.56262e-15
0.00666444
1.89371e-14
1.38163e-14
2.50728e-15
1.23882e-13
1.52062e-14
0.0631941
1.13281e-13
3.43984e-15
1.07658e-15
4.24284e-14
9.98408e-16
2.74548e-14
8.95359e-16
1.5474e-15
5.55634e-15
0.00690447
6.76818e-16
0.007946
1.8975e-13
1.31699e-15
0.53101
0.00253288
7.57396e-15
1.24266e-14
8.5484e-16
0.00223511
1.49545e-14
2.26924e-15
1.37224e-14
1.78529e-15
0.00683234
2.69761e-16
0.00431228
2.96715e-15
0.00871225
2.73163e-14
0.0518173
3.6245e-14
3.25251e-15
0.0199148
1.69302e-14
8.32313e-16
0.0243289
0.000245415
1.10882e-15
1.83647e-15
0.0325439
0.00907924
0.00596972
0.000772344
0.00167361
0.0159104
0.000946681
0.00428813
3.96484e-14
0.0265449
1.73161e-14
1.25572e-14
3.70438e-15
9.95113e-15
1.08232e-14
0.00962185
4.55227e-15
1.96948e-15
2.30502e-16
4.38546e-06
7.46981e-06
1.27018e-14
0.00207889
3.06883e-14
0.00395417
2.14669e-16
1.21517e-06
0.00293111
1.80323e-13
0.0414818
1.62519e-14
4.68422e-14
1.76398e-14
0.00272923
0.00113537
5.02867e-15
8.88644e-15
0.00228181
9.44462e-16
0.609037
1.64438e-15
0.0936778
1.57741e-15
9.86709e-16
2.67774e-15
5.35278e-15
0.00916021
5.89406e-15
3.36544e-05
3.87722e-15
0.00892478
8.10729e-15
2.81389e-16
4.99184e-12
4.32943e-14
4.14123e-15
8.69269e-15
1.11052e-14
4.52845e-15
0.00381033
0.170876
7.66498e-15
6.87894e-16
0.000324588
1.55235e-15
1.06505e-15
1.01211e-06
0.0156529
0.000136351
1.31443e-14
0.000622253
0.00296937
0.00490918
0.00755952
5.22877e-15
8.66052e-15
6.13632e-15
2.88048e-15
1.14774e-15
1.22932e-14
6.84887e-16
1.61171e-14
2.02546e-15
1.20995e-15
3.13485e-15
3.72544e-15
0.0686007
4.68897e-16
2.28258e-16
3.58529e-10
9.77682e-15
3.4342e-15
1.00893
4.12741e-15
9.18184e-18
0.00188518
2.44491e-09
1.55597e-14
2.3887e-15
1.41874e-15
0.0209657
1.03989e-14
1.7751e-14
4.91994e-08
1.36102e-16
2.80312e-15
8.83444e-15
1.49002e-14
0.109867
2.72307e-15
0.000148368
4.9398e-15
1.00408e-15
3.62876e-15
2.82526e-15
5.04065e-16
1.533e-08
2.91976e-08
0.00010147
1.45182e-15
3.61899e-16
2.71595e-15
8.49328e-08
1.88883e-16
2.7812e-07
8.55073e-09
1.9183e-14
3.87714e-15
2.86725e-14
4.4771e-09
7.0767e-15
1.10927e-14
2.18464e-09
1.11925e-14
0.0288588
7.12964e-15
0.00671443
1.18188e-15
2.15129e-06
1.18143e-16
0.00130114
1.05172e-14
0.00374073
0.024269
8.57692e-16
0.00233332
1.36179e-05
5.12779e-16
0.0101932
3.20604e-16
2.41722e-15
4.73331e-15
1.93056e-16
1.7107e-14
9.99737e-16
1.28072e-15
3.82672e-16
0.267847
3.38453e-15
3.59015e-15
1.70047e-15
2.10283e-15
3.6279e-15
0.0299573
0.766305
3.02199e-06
9.82134e-06
5.16426e-16
0.00198456
0.00138734
3.12168e-15
1.05084e-15
4.7001e-14
3.01122e-15
3.54799e-15
1.46017e-14
5.65304e-15
6.47117e-15
0.000365334
4.47589e-15
2.72819e-15
0.000231969
3.7029e-06
9.95984e-15
0.0242013
2.33794e-14
6.34345e-15
1.12434e-15
0.162521
2.0284e-15
4.26996e-16
0.0250221
1.70998e-15
4.75504e-14
9.09026e-16
7.30262e-15
0.0531461
4.77911e-16
1.07906e-15
4.47588e-15
9.59677e-16
0.00562856
0.225229
0.0275052
0.0416946
0.00371085
0.000250176
1.28308e-14
6.75046e-15
0.138287
0.00122758
5.68381e-15
9.00214e-08
3.4248e-15
6.91951e-11
2.13403e-15
0.205556
1.80224e-15
1.04102e-14
0.000227068
2.1182e-10
5.77384e-15
0.00955967
1.21138e-15
1.8482e-14
0.198294
0.0295476
4.63365e-15
2.07857e-15
2.11005e-15
4.56041e-15
2.59067e-16
4.11905e-14
1.17908e-14
1.41184e-15
0.0030689
7.17114e-16
1.03567e-14
1.9246e-15
1.38519e-05
2.50093e-16
1.81954e-13
3.51393e-15
1.54392e-15
2.29153e-15
1.2194e-14
0.00334349
1.21056e-15
6.26221e-16
0.00498457
1.63164e-14
0.000359196
0.00447547
1.69747e-15
0.00341072
7.9716e-17
4.85411e-15
2.78035e-15
3.71102e-15
2.53761e-15
1.10635e-16
4.34521e-15
2.87653e-15
0.00234194
8.07525e-16
6.10683e-15
1.26706e-15
8.60243e-16
3.4943e-15
1.33603e-14
0.0355865
3.90667e-16
6.16051e-16
0.337862
4.63252e-15
4.77699e-16
2.742e-14
0.00125225
8.37198e-17
5.98796e-06
1.33598e-15
4.88725e-05
0.00793871
2.27652e-15
9.30164e-15
0.0403191
1.05836e-15
1.20643e-14
0.000127096
7.14576e-07
0.00983689
2.29752e-06
9.04326e-07
1.37651e-07
8.02245e-15
2.43022e-15
0.00101728
0.000119938
0.0157972
0.0120979
2.8801e-05
3.96613e-15
0.00548873
0.00519384
0.0185215
7.85267e-14
0.0122841
0.0166486
0.00275551
0.00138861
0.00125149
0.00324195
0.0189685
0.0408219
0.00709964
0.0110669
0.00799926
4.14296e-14
0.00290555
0.00363359
0.000853335
0.00255802
0.0141815
0.0137748
0.0193647
6.11087e-14
0.0114624
1.33705e-13