/*--------------------------------*- C++ -*----------------------------------*\
  =========                 |
  \\      /  F ield         | OpenFOAM: The Open Source CFD Toolbox
   \\    /   O peration     | Website:  https://openfoam.org
    \\  /    A nd           | Version:  10
     \\/     M anipulation  |
\*---------------------------------------------------------------------------*/
FoamFile
{
    format      ascii;
    class       volScalarField;
    location    "22.5";
    object      T;
}
// * * * * * * * * * * * * * * * * * * * * * * * * * * * * * * * * * * * * * //

dimensions      [0 0 0 1 0 0 0];

internalField   nonuniform List<scalar> 
111485
(
303.15
285.069
300.945
303.15
298.376
283.15
298.883
293.345
296.249
286.201
300.481
296.14
300.165
284.541
299.941
286.704
299.306
297.08
293.979
303.15
303.15
283.15
297.194
288.639
301.573
303.15
293.113
300.603
288.805
303.15
300.769
294.284
303.15
283.15
283.44
283.15
302.303
297.544
283.149
296.568
283.15
289.537
296.991
302.868
303.193
303.15
287.299
288.499
289.571
303.15
303.15
283.15
303.15
298.869
303.15
293.442
287.837
283.15
283.316
295.397
295.799
303.15
302.036
300.184
283.15
284.536
300.056
291.452
302.086
302.508
303.157
301.863
303.15
302.087
303.15
295.33
283.15
293.354
283.15
283.15
283.235
293.294
283.15
303.15
300.267
284.199
283.15
301.525
303.112
299.051
283.323
289.509
300.82
300.365
289.738
303.15
303.15
301.526
303.149
283.413
303.15
286.581
283.15
285.145
285.696
283.15
283.15
293.019
301.402
283.147
298.841
288.002
301.249
301.653
303.15
301.946
303.15
283.15
300.101
303.15
303.15
283.15
283.15
283.15
283.39
303.151
283.15
301.778
303.15
283.175
303.099
301.911
303.15
283.15
283.15
292.449
283.15
294.141
298.764
301.077
303.135
296.784
298.947
284.744
302.264
297.734
283.15
303.15
283.15
297.091
284.904
303.15
303.144
287.256
283.156
293.659
295.586
302.511
283.154
303.15
303.15
292.115
286.191
283.153
283.157
301.148
283.68
283.15
283.152
283.153
283.15
303.15
283.206
283.15
291.474
287.118
283.15
303.15
303.15
283.15
303.15
303.15
297.604
293.425
295.718
289.689
301.332
300.376
283.19
303.15
301.411
303.15
303.15
300.111
286.228
301.366
301.309
295.66
303.15
300.834
284.568
283.159
300.715
297.019
303.15
300.37
288.137
303.15
283.223
300.129
284.781
300.65
303.15
303.15
300.664
283.15
292.711
283.15
300.569
298.617
290.27
303.15
301.712
300.519
283.15
283.15
283.15
289.458
283.157
283.15
303.15
298.569
291.292
289.846
283.15
303.15
303.108
303.15
284.309
300.038
299.193
299.451
299.322
283.15
283.144
298.814
283.15
283.15
288.712
288.304
283.15
301.131
298.827
303.15
283.15
301.054
303.15
303.15
303.121
303.15
288.204
285.821
290.704
303.15
298.283
303.15
303.15
303.15
283.148
297.988
300.942
299.374
291.148
299.426
296.191
283.21
290.248
291.492
283.15
303.15
283.149
292.379
298.721
286.411
303.15
297.958
297.228
298.832
302.954
283.167
297.04
299.308
302.014
283.15
283.603
283.15
283.149
303.15
283.848
290.215
286.249
303.15
283.15
297.545
285.221
303.15
303.15
303.15
284.557
290.17
301.019
284.388
292.955
283.15
283.15
303.15
298.31
303.15
283.805
289.388
283.153
283.15
303.15
303.15
283.15
294.291
289.898
283.15
295.638
283.15
303.15
300.979
297.239
293.93
295.746
283.15
283.15
283.15
296.544
290.929
302.373
283.15
283.15
283.15
290.009
296.893
283.21
290.408
283.15
292.725
299.502
284.178
298.561
285.213
283.15
303.15
283.15
303.15
290.605
296.652
287.897
291.878
283.15
286.296
283.15
303.15
293.749
303.15
301.702
303.15
283.15
291.864
283.15
288.705
284.599
283.15
283.966
297.959
283.15
300.113
284.655
298.792
303.017
290.977
285.957
283.15
303.15
303.144
283.15
300.953
300.771
283.15
283.15
294.676
284.333
298.129
296.867
283.15
294.984
296.006
283.15
302.045
283.875
303.15
303.15
288.18
298.532
283.15
303.15
303.15
303.15
300.71
283.15
303.15
293.908
283.17
286.875
299.902
283.15
283.15
302.607
283.15
302.444
301.391
297.766
288.41
283.15
293.832
303.377
303.15
298.576
292.213
303.15
283.15
283.302
283.15
289.938
286.054
291.567
283.15
292.792
296.516
292.984
303.147
283.15
303.15
303.15
283.168
292.651
283.15
284.298
303.131
283.15
303.15
303.15
303.15
301.847
290.442
285.942
284.173
284.285
283.15
285.651
303.15
300.671
283.15
303.15
303.15
300.61
303.15
303.15
283.151
303.15
283.15
300.616
283.15
283.15
283.15
303.15
283.15
303.15
283.15
283.658
283.15
303.128
301.857
283.739
283.15
303.084
283.15
303.15
284.673
284.643
286.062
297.445
283.15
297.416
297.528
292.206
286.757
285.226
303.15
291.678
283.15
299.806
283.15
296.723
283.15
291.995
298.472
303.151
283.15
286.738
303.15
295.445
299.027
283.15
283.15
283.15
283.15
303.15
293.613
283.15
283.15
283.236
283.15
299.759
283.15
284.755
303.15
283.424
303.119
284.618
291.823
283.15
301.41
283.15
283.15
285.639
283.15
283.254
283.15
299.619
303.15
290.578
303.15
283.15
302.38
284.435
300.03
285.604
300.028
289.411
283.15
300.576
284.509
283.15
283.141
300.254
301.554
283.15
282.484
301.014
303.058
283.124
303.15
287.519
302.153
284.373
285.335
288.123
282.597
283.15
303.15
300.545
303.15
283.544
283.15
283.15
291.696
282.694
303.149
303.114
283.15
286.207
299.554
283.15
283.15
299.575
303.15
283.15
283.15
283.15
286.094
283.15
303.15
284.781
284.205
303.15
299.679
283.15
289.186
303.15
283.15
286.086
283.15
283.15
283.15
285.331
283.15
285.395
291.89
303.15
300.31
283.437
298.635
300.924
283.296
283.45
283.15
288.878
298.39
303.15
302.246
295.962
296.823
284.687
297.388
297.149
303.15
300.178
303.133
283.15
297.082
284.799
283.15
292.301
295.649
284.816
298.715
300.594
292.262
283.15
298.864
283.458
303.15
300.554
301.952
294.024
283.15
286.433
303.15
283.15
283.15
283.15
283.299
283.15
303.15
303.15
283.15
300.395
299.187
303.15
285.56
303.15
303.15
303.15
289.969
283.416
283.15
303.15
283.15
283.15
286.771
292.309
283.15
295.063
283.137
283.15
295.231
302.196
287.71
283.15
283.15
300.217
292.019
283.15
283.15
283.15
293.9
303.15
303.15
283.15
296.176
302.348
283.15
282.354
301.653
286.49
283.15
283.15
287.421
302.957
283.15
283.159
287.119
283.747
288.721
283.15
285.655
300.212
283.15
303.15
283.15
283.15
283.15
283.15
295.598
303.15
283.15
283.15
295.21
291.738
303.15
303.15
289.733
298.338
298.238
303.15
283.15
297.906
303.15
283.819
298.779
298.286
303.15
303.15
303.15
283.15
286.001
283.15
283.15
302.7
303.15
297.739
302.245
283.15
293.983
283.273
296.36
291.909
283.416
289.677
283.15
283.15
296.804
287.99
290.766
283.15
283.15
297.517
294.873
283.15
283.886
284.554
283.464
303.15
303.15
303.15
290.667
283.15
299.996
283.15
284.341
297.521
298.432
292.195
283.15
283.15
303.15
295.304
283.15
283.15
303.097
283.15
283.15
303.15
283.15
299.25
283.15
283.15
283.15
283.15
283.15
303.15
283.15
283.172
298.711
303.15
302.521
283.132
283.39
283.096
285.478
283.15
284.419
290.464
283.39
303.15
283.149
299.673
283.15
300.193
283.141
283.144
286.152
297.414
283.205
291.826
297.984
283.15
283.15
298.992
299.735
283.15
297.263
291.195
297.551
283.15
283.243
283.15
297.854
296.981
283.15
300.018
297.631
283.149
299.718
283.15
295.552
283.145
303.128
283.161
283.16
283.15
283.15
284.408
283.15
302.963
283.574
283.064
303.147
303.149
303.148
283.15
283.15
293.744
303.15
303.215
283.848
283.15
283.15
303.154
303.149
283.15
303.165
283.15
283.15
303.15
303.15
303.15
303.15
283.36
283.15
283.15
283.15
303.157
283.3
283.87
293.397
283.15
283.15
283.328
283.15
283.15
283.15
287.186
293.519
283.15
283.15
283.15
283.15
283.15
283.15
283.986
283.15
303.15
291.478
283.15
303.15
303.15
303.154
303.15
303.15
283.15
303.171
283.15
283.679
283.145
303.152
283.15
303.061
284.36
292.012
303.15
303.128
284.424
303.15
283.15
303.15
283.15
293.972
293.379
284.595
303.148
283.15
293.166
283.15
283.15
303.15
283.15
294.783
283.15
303.15
283.163
298.083
303.15
284.357
283.15
283.562
283.15
283.15
283.15
303.15
285.798
283.465
284.088
283.15
283.15
285.595
283.15
283.15
303.15
284.316
303.165
298.488
303.15
303.126
303.127
283.15
303.129
283.15
283.44
289.044
301.032
283.778
283.165
283.15
283.15
283.15
303.184
283.15
302.893
303.15
292.551
303.15
288.67
283.811
303.15
283.15
303.15
283.15
301.758
303.15
303.15
286.363
300.51
283.15
283.15
283.15
283.15
283.15
283.15
300.762
283.567
303.15
303.15
303.157
303.15
300.143
284.394
283.15
302.09
303.15
301.59
283.15
302.56
283.15
283.148
303.152
283.309
302.09
300.176
283.147
283.15
289.302
303.15
293.309
303.15
283.15
303.15
283.15
283.15
283.15
300.758
302.032
303.15
303.15
303.15
302.899
283.15
303.15
292.816
283.087
303.15
297.466
298.309
296.438
283.37
283.15
283.15
283.15
283.15
294.573
283.15
294.716
283.15
303.056
289.783
283.15
302.852
283.15
283.15
302.725
283.148
302.908
283.15
303.15
283.15
302.373
283.15
303.15
283.15
283.148
283.15
283.17
283.15
283.15
303.15
292.945
301.068
296.019
296.949
303.15
303.115
283.15
283.15
285.643
283.15
283.158
302.836
298.757
302.934
303.15
283.357
283.15
303.15
283.15
302.987
283.313
298.301
283.15
303.15
288.013
303.15
283.15
283.127
294.982
283.147
283.15
283.15
283.149
303.15
283.15
303.141
303.15
303.15
289.874
302.98
302.988
288.947
293.184
283.15
283.15
303.08
289.018
283.15
303.15
284.716
283.15
303.15
283.15
283.15
283.15
297.268
283.15
302.933
283.15
300.422
283.15
283.15
283.15
283.15
283.15
283.15
284.991
283.15
283.15
283.15
283.15
283.15
283.15
291.937
283.15
298.372
302.925
283.15
302.334
283.15
302.504
303.145
292.257
288.737
303.15
292.121
284.753
303.107
303.15
303.14
295.037
288.614
283.15
287.836
283.15
283.15
283.15
283.15
287.463
283.15
283.15
291.602
303.135
285.28
283.15
283.15
302.523
283.15
283.182
303.15
299.869
283.15
283.15
302.819
283.15
303.178
303.15
283.15
288.998
297.997
292.662
285.622
292.465
294.039
283.15
283.15
302.266
290.535
292.718
284.381
283.15
294.362
283.15
303.15
300.687
298.732
283.15
297.391
283.15
292.709
297.158
303.15
283.15
283.15
301.746
283.15
283.15
300.456
296.095
283.196
291.17
283.15
283.15
302.785
300.475
283.15
300.605
283.15
300.46
283.15
283.15
300.763
283.15
283.225
301.573
283.15
283.15
302.419
283.15
287.852
303.15
290.269
303.15
303.15
303.15
300.906
283.15
283.15
299.489
283.15
302.981
283.15
283.15
303.15
283.151
288.145
283.15
283.15
288.008
288.188
283.15
283.667
283.15
303.15
302.408
283.704
301.531
283.15
283.15
283.15
283.15
283.15
283.15
283.15
283.15
283.15
283.15
283.15
303.15
283.15
283.15
283.15
283.15
283.15
283.15
283.15
283.15
303.15
286.893
283.15
283.15
283.15
294.64
283.15
303.15
302.878
283.15
283.15
294.642
283.15
283.15
301.758
295.12
283.15
303.681
303.603
283.15
301.441
293.893
297.481
301.445
298.102
303.15
283.15
296.388
291.703
301.387
283.15
302.121
302.405
300.836
287.988
287.271
301.025
301.754
301.757
303.15
285.83
297.499
285.489
297.201
283.15
283.15
283.15
303.15
283.15
291.924
297.884
283.15
283.15
283.15
283.15
283.15
303.15
283.15
303.15
292.081
303.106
298.979
302.837
283.15
283.15
285.364
283.168
283.15
283.15
301.725
303.15
283.15
298.123
299.48
297.489
298.589
300.765
303.15
290.99
302.567
303.15
303.15
300.271
303.15
283.15
282.996
295.497
302.941
283.15
303.15
289.52
286.12
297.138
292.123
302.356
303.15
303.136
303.15
303.15
283.15
298.973
283.15
291.733
290.39
299.646
284.731
303.15
301.898
303.15
283.15
303.15
303.15
291.43
299.421
283.15
303.15
303.132
291.713
303.025
299.312
292.745
288.271
292.854
283.15
303.15
283.15
291.174
298.252
303.151
303.15
303.15
303.15
297.444
302.562
283.15
299.937
301.099
284.836
299.477
303.15
303.15
298.637
292.905
283.15
302.894
299.658
302.603
291.903
297.265
298.19
303.15
286.937
298.167
291.266
283.15
289.001
303.15
288.338
301.02
303.15
288.652
301.241
300.065
293.119
283.151
283.16
283.237
301.572
300.877
303.15
288.77
301.443
303.15
283.15
303.15
303.208
298.7
290.525
296.721
303.26
283.149
297.36
303.15
303.15
292.728
303.15
300.276
283.298
301.282
291.485
303.15
283.647
293.15
303.15
283.072
298.631
303.15
300.657
286.21
303.15
303.15
283.975
303.15
283.15
283.15
285.879
299.196
291.111
303.15
285.182
297.408
283.15
298.804
298.839
288.914
303.101
283.15
301.508
299.636
298.804
300.038
288.613
290.69
302.481
303.15
301.517
288.665
303.15
298.815
283.15
283.15
303.15
283.15
303.15
297.408
283.15
300.487
283.629
303.15
283.786
283.15
289.783
303.15
303.144
303.15
294.062
302.997
303.116
299.81
290.356
289.382
290.535
298.345
303.15
299.333
292.113
298.884
303.15
283.858
283.44
299.194
287.112
283.502
303.15
283.15
303.15
285.288
303.15
303.343
284.66
303.389
302.953
303.15
303.15
283.15
300.507
300.656
285.451
303.083
286.957
295.618
301.863
292.45
288.091
302.066
296.053
283.15
283.15
303.15
285.772
289.637
283.15
283.15
303.15
301.97
288.636
303.15
296.354
303.15
283.155
285.15
301.157
303.15
303.15
292.22
303.15
283.297
290.557
283.15
297.114
294.572
296.089
303.15
302.696
283.15
302.658
293.348
303.15
303.15
288.742
283.15
303.15
301.772
284.418
303.15
303.15
283.15
302.325
303.479
289.433
299.646
298.088
303.15
303.159
302.581
303.15
283.15
303.15
303.15
303.15
303.15
303.15
303.15
303.15
283.15
303.15
303.15
283.336
303.15
303.352
303.15
303.163
303.15
303.15
300.882
303.676
303.15
291.895
303.15
303.15
283.15
302.545
303.15
302.129
303.113
283.288
283.15
303.15
302.561
283.149
303.15
303.15
291.313
283.15
292.538
283.15
283.15
283.153
291.161
284.806
303.15
296.592
283.15
303.789
303.133
284.293
302.582
283.15
292.113
303.083
301.636
283.15
303.15
283.15
304.145
284.792
296.851
303.15
303.15
303.15
303.15
303.15
303.15
302.337
302.805
297.552
291.947
303.15
287.1
292.591
284.947
303.209
283.15
286.864
302.748
284.729
283.148
287.426
303.15
283.379
302.917
292.478
302.842
301.85
303.15
302.24
303.15
303.15
297.912
303.15
284.458
303.15
303.15
283.15
303.15
303.15
302.841
303.15
283.295
283.15
283.15
285.787
284.852
300.908
286.06
303.15
294.534
303.15
290.372
303.15
287.108
300.64
301.451
293.246
303.15
303.15
303.15
289.757
283.15
303.15
289.51
283.15
283.15
301.793
303.15
286.137
283.148
283.15
303.15
303.15
300.624
298.144
303.15
293.36
303.032
283.15
298.573
303.15
286.371
288.175
302.123
303.15
296.262
296.732
302.947
301.861
301.626
303.15
303.15
303.147
303.15
283.15
303.15
289.511
300.177
294.261
302.106
283.15
300.334
291.342
298.201
283.591
298.262
289.547
302.143
283.15
283.15
283.15
302.19
283.15
290.401
283.15
301.223
303.162
289.666
298.02
283.15
303.15
301.211
301.187
303.15
283.15
303.15
286.386
301.413
302.974
302.325
297.963
288.388
303.15
303.15
303.15
294.176
285.935
289.73
295.815
283.942
302.953
303.15
303.15
283.15
283.15
285.391
299.574
303.15
303.15
283.15
303.15
303.15
303.15
300.211
303.15
285.309
292.132
283.15
283.247
293.297
285.655
303.15
303.15
301.864
303.15
299.17
283.147
297.501
303.15
303.15
283.15
303.15
303.15
303.15
305.104
303.15
301.815
301.108
303.15
303.15
301.587
303.15
283.15
287.192
303.098
303.15
303.15
303.15
297.885
303.15
303.15
302.387
302.475
301.752
303.15
283.15
303.15
302.023
302.5
301.497
302.523
283.15
300.626
287.43
297.393
283.15
303.15
303.15
303.15
303.15
294.283
287.521
299.656
303.15
303.15
303.15
303.15
283.15
303.148
284.747
285.117
283.15
303.15
303.15
283.148
299.517
294.768
283.15
303.15
303.15
303.15
303.15
289.554
289.6
303.15
303.15
302.398
303.15
301.45
283.935
291.771
303.15
283.15
301.169
303.121
303.15
302.948
301.282
286.787
303.15
303.15
303.15
303.15
293.228
284.131
303.15
302.674
298.007
289.194
303.15
303.15
303.15
303.15
299.527
303.151
303.15
303.15
298.217
302.595
288.293
303.15
303.15
297.698
303.15
303.15
303.15
303.15
288.746
303.15
283.15
283.15
295.88
291.013
303.15
303.15
303.15
296.978
303.146
303.15
303.15
303.15
303.15
303.385
300.83
303.15
287.28
302.636
299.348
303.15
303.15
303.15
303.15
283.15
285.636
303.15
302.844
283.15
302.16
303.15
303.133
303.15
283.15
301.945
285.532
283.15
302.825
303.15
302.403
283.15
303.15
303.15
303.151
303.15
283.27
303.15
290.774
283.15
283.15
303.15
303.15
298.8
302.354
283.15
302.388
283.15
284.089
287.902
302.688
283.15
303.155
302.98
303.133
284.381
283.156
302.98
283.15
283.15
283.156
302.054
302.275
303.15
283.15
283.15
295.127
303.15
283.15
303.15
303.15
303.15
303.107
303.044
302.92
302.427
303.15
302.898
303.15
284.782
303.15
303.15
283.15
303.15
303.11
303.15
283.15
303.15
288.261
303.15
303.15
303.169
283.15
302.773
301.926
296.621
303.15
289.124
294.152
283.76
289.819
283.15
283.15
287.159
284.299
283.15
303.858
283.15
286.363
303.15
283.15
303.155
303.15
303.15
303.011
303.155
303.15
283.15
303.138
303.15
283.15
283.106
298.667
302.689
303.15
301.811
303.15
285.666
303.152
301.138
303.15
303.15
300.998
303.15
303.15
303.15
287.638
303.15
285.107
303.15
303.147
303.15
283.15
283.15
303.15
303.15
303.15
288.638
302.532
303.15
303.15
288.534
286.461
291.103
303.15
302.687
287.62
287.49
303.15
303.15
287.57
283.15
291.839
303.15
303.153
303.149
303.15
300.487
283.15
302.313
283.15
303.15
303.15
303.15
303.15
303.15
284.305
302.225
290.979
303.15
303.15
290.507
303.15
303.15
303.15
303.15
303.15
300.105
303.15
303.15
283.15
299.408
303.15
283.15
303.15
301.333
283.15
299.909
290.748
302.672
299.973
299.391
303.15
303.15
303.15
300.806
288.422
283.15
303.15
300.269
303.15
303.15
291.915
303.15
287.419
303.15
297.775
284.288
303.15
283.15
303.15
303.15
303.15
285.205
303.15
300.445
303.15
303.15
299.651
283.15
284.713
303.15
303.15
288.031
301.54
296.364
303.15
303.15
303.15
301.556
292.192
303.15
283.15
303.15
300.632
303.15
284.736
296.243
303.15
303.15
301.1
303.15
303.15
283.15
303.15
283.15
294.483
303.15
283.15
303.15
303.15
303.15
303.15
303.15
303.15
283.15
301.507
283.15
302.051
303.15
303.15
296.05
300.429
303.15
283.15
303.15
300.839
283.15
303.15
303.15
303.15
300.69
303.15
297.605
303.15
285.808
283.15
286.681
303.15
303.15
298.479
283.15
303.15
287.797
283.244
303.15
303.15
285.049
283.829
300.804
301.7
301.147
293.109
301.707
283.826
303.15
297.635
283.15
283.15
303.15
303.15
303.15
301.176
303.15
303.15
303.15
303.129
283.168
283.15
283.554
303.15
301.981
283.15
303.142
296.022
283.15
294.462
303.15
303.15
283.15
299.834
283.907
303.15
283.15
299.863
303.15
297.644
303.15
295.213
303.15
283.15
303.15
283.15
299.371
283.15
283.222
283.15
286.148
303.15
303.15
283.15
283.15
303.15
303.15
303.15
303.15
284.838
284.695
283.15
303.15
283.231
283.15
283.15
303.154
289.815
283.536
283.15
301.463
284.847
300.436
288.125
303.15
303.15
303.15
303.15
283.15
283.15
283.15
303.15
283.15
283.15
303.15
283.15
297.205
283.15
303.15
283.15
303.15
303.15
283.284
283.15
303.15
301.916
303.149
303.15
303.15
303.15
288.662
283.15
303.15
303.149
283.15
303.15
303.15
303.15
295.274
283.15
283.177
303.15
303.15
303.15
303.15
303.15
303.149
303.147
284.087
303.15
283.15
303.15
303.149
303.15
303.148
303.149
283.15
283.15
283.15
303.15
303.15
283.15
303.149
283.15
287.661
283.15
301.758
283.15
303.154
303.15
284.574
283.15
284.419
297.325
303.15
284.656
303.174
303.15
297.332
283.15
303.15
303.15
303.15
303.15
283.15
303.15
303.15
299.085
283.15
303.15
303.15
303.15
303.15
292.276
290.102
303.171
283.164
303.15
301.791
302.305
303.15
283.15
283.15
303.15
303.15
303.15
283.15
283.15
283.804
303.15
303.15
303.199
303.151
283.15
288.804
303.15
283.15
303.15
287.987
303.15
283.15
302.08
283.15
283.15
283.15
303.15
299.589
303.15
303.15
303.15
283.15
284.471
293.516
295.143
289.494
303.117
303.012
283.15
283.15
301.022
283.679
283.15
303.149
303.15
303.15
283.15
294.474
303.15
283.15
302.972
303.15
303.15
283.775
303.15
303.15
288.339
289.475
303.15
283.15
303.15
283.15
303.15
303.15
303.15
303.15
283.93
303.15
303.15
303.15
302.919
303.15
303.15
283.15
283.15
283.15
283.15
302.932
283.15
283.15
300.914
303.15
284.732
284.889
303.15
301.08
303.15
283.15
303.15
283.15
283.15
303.15
303.15
303.15
302.652
303.15
303.15
303.15
283.15
303.15
283.15
286.331
303.15
303.15
291.523
303.15
283.15
283.15
302.4
303.15
303.147
283.15
303.184
286.604
283.15
283.15
299.138
283.15
283.15
303.048
303.162
293.272
303.167
303.151
303.153
283.15
283.15
302.629
283.44
285.756
300.831
283.156
283.15
290.982
301.544
301.446
283.15
300.193
290.643
300.112
302.19
302.712
284.65
295.419
299.171
286.213
293.262
300.081
303.15
297.972
297.511
302.773
283.655
292.275
301.129
287.282
303.15
300.965
303.15
300.679
301.459
283.629
284.956
303.15
283.15
302.281
301.649
283.146
303.173
288.496
302.668
301.784
300.777
303.15
303.235
301.075
294.909
300.411
288.808
302.9
301.642
302.19
302.255
284.197
302.486
301.554
283.178
303.15
302.887
303.15
303.15
302.064
301.972
294.221
303.15
284.647
292.207
292.273
300.759
303.15
283.98
285.155
284.379
303.15
298.737
303.15
296.384
295.27
300.672
303.141
303.15
303.15
301.907
301.216
302.771
303.15
292.547
302.736
289.904
283.15
298.343
293.927
303.15
300.499
283.15
283.202
283.15
302.544
303.092
303.15
302.979
298.318
283.148
300.489
302.206
295.287
283.526
295.747
296.984
283.448
303.132
284.72
296.322
283.315
296.75
300.445
300.193
300.313
301.957
289.584
301.537
303.15
302.713
302.643
302.654
296.526
302.889
283.15
301.99
293.395
303.15
283.423
286.8
301.177
302.577
290.46
284.792
287.625
302.602
296.313
303.15
303.15
294.929
283.15
292.584
283.419
303.15
290.507
290.226
283.895
303.15
297.218
298.508
284.213
301.198
294.141
290.117
300.493
303.112
303.15
303.15
283.518
302.597
283.34
285.76
303.15
303.017
303.033
303.15
285.374
300.84
297.795
283.242
299.475
302.343
300.455
286.862
283.15
303.103
301.777
283.726
283.134
303.15
303.071
303.15
303.15
284.165
302.52
296.395
283.034
283.153
303.15
283.15
302.948
303.041
302.487
301.379
303.15
283.15
283.15
301.796
301.853
283.21
295.895
303.15
303.15
301.587
285.47
283.257
301.651
301.756
301.693
284.373
303.15
283.15
298.471
297.7
303.15
302.686
302.051
284.613
284.942
302.085
303.056
303.15
298.115
284.397
283.15
303.15
300.562
301.178
301.985
289.555
302.045
285.63
300.113
300.293
290.286
297.485
303.15
303.15
300.895
284.44
302.062
283.151
300.438
301.67
283.619
288.245
302.399
283.15
283.15
283.029
303.15
303.15
299.913
298.886
302.257
283.148
283.15
283.914
283.151
283.15
283.151
303.075
300.88
299.098
295.811
283.362
303.09
300.082
303.15
283.15
302.535
289.186
300.769
292.659
283.502
303.056
283.148
283.15
302.824
301.172
302.594
283.155
291.144
284.86
303.15
284.237
300.999
283.15
283.303
284.921
284.071
283.15
283.15
301.61
283.15
289.318
302.512
302.688
301.765
283.467
298.087
289.922
283.15
303.353
292.008
283.15
283.15
283.15
303.15
301.194
302.395
299.115
301.429
299.897
288.808
283.154
290.932
290.11
303.057
290.984
299.968
292.02
283.15
286.272
301.039
301.542
283.15
283.971
299.629
283.15
303.15
283.186
301.238
303.15
283.992
302.253
303.015
303.15
283.15
292.733
303.153
301.664
283.15
283.15
283.15
302.163
297.495
303.144
302.171
303.167
303.15
288.326
303.167
290.389
300.176
300.134
296.531
283.156
301.664
283.15
290.526
301.378
289.39
290.434
298.916
300.663
301.561
287.128
291.096
284.97
283.171
302.191
286.088
283.15
283.144
300.153
283.081
300.25
286.948
296.043
299.382
289.13
299.227
283.122
299.156
283.15
289.933
288.828
298.595
283.325
283.15
300.507
283.15
302.784
283.15
303.15
286.429
286.434
283.15
298.937
298.566
286.975
303.15
303.15
301.678
289.738
302.98
283.719
301.542
287.034
303.147
284.171
288.117
303.15
301.387
283.15
283.15
287.511
286.977
283.145
285.222
301.463
286.184
301.224
303.15
285.087
301.715
291.147
303.15
303.15
301.58
302.019
303.15
292.955
294.244
283.657
296.338
286.738
289.947
303.15
302.741
296.981
284.96
283.15
287.671
291.833
299.571
283.161
283.74
282.958
301.923
303.113
283.151
303.132
303.15
300.544
292.961
298.778
293.771
283.15
291.896
295.867
285.538
283.211
291.278
283.15
300.288
303.165
292.454
284.084
303.143
291.797
298.55
288.192
300.342
291.289
287.271
283.15
303.141
285.303
289.834
293.387
283.15
283.15
283.15
303.14
283.15
283.137
286.372
303.15
283.15
303.168
283.172
291.078
288.682
303.564
302.904
289.797
303.15
296.924
303.177
301.986
287.223
283.15
292.853
303.144
303.091
286.144
283.15
283.15
283.463
285.962
303.05
303.143
287.471
289.426
283.472
283.162
289.793
293.165
303.15
283.15
303.094
303.15
302.315
284.977
302.326
303.091
284.043
283.763
284.028
302.855
302.148
297.371
293.99
303.066
291.187
290.978
303.15
303.095
302.57
285.394
283.374
303.15
285.902
283.381
302.926
301.688
302.151
283.15
300.3
301.83
303.15
302.126
285.365
303.15
297.838
303.15
283.15
300.668
302.665
286.269
302.475
283.15
285.14
303.001
283.15
302.281
285.326
294.805
284.309
303.15
303.016
302.879
286.455
283.15
287.075
284.234
289.711
285.695
302.23
303.15
283.15
283.15
293.091
283.15
301.026
302.137
290.306
283.15
293.997
283.15
303.15
283.15
300.078
298.51
283.151
285.235
301.724
303.062
303.155
291.787
294.132
301.16
283.197
301.797
283.145
303.15
303.144
298.859
283.15
300.619
294.707
303.15
300.917
287.248
301.951
284.869
288.142
283.15
302.197
287.659
298.379
303.078
283.15
303.15
291.605
302.136
283.079
283.147
286.711
298.26
303.149
284.424
300.983
300.954
301.21
303.153
299.84
287.57
284.88
301.55
299.834
283.705
283.107
303.16
303.149
303.15
297.292
283.163
283.15
303.15
303.149
289.841
298.881
300.252
287.709
302.787
303.15
286.385
301.567
303.15
300.925
283.784
301.422
303.15
284.524
301.368
295.497
302.758
303.15
303.15
285.131
295.008
296.308
287.322
303.15
303.15
283.15
287.144
302.375
296.094
303.15
285.519
303.15
303.15
300.442
288.654
283.15
295.47
295.802
299.056
283.15
303.15
292.603
287.153
303.15
297.883
300.463
300.366
303.15
303.15
303.15
300.172
298.266
302.779
299.834
283.15
292.828
287.594
290.528
300.515
303.15
303.15
300.713
303.091
286.485
296.014
303.15
303.147
283.15
286.386
298.847
285.527
303.15
303.15
283.334
303.121
303.15
303.15
283.15
290.452
303.15
303.15
284.554
299.252
283.15
303.15
284.581
301.279
300.103
286.926
294.92
303.15
283.49
303.15
303.15
283.309
300.485
290.339
300.335
303.15
303.129
302.139
292.524
299.701
301.289
284.415
283.447
300.848
298.318
303.15
302.741
284.115
299.674
301.339
287.604
303.15
297.351
301.369
301.455
301.497
292.831
303.15
283.15
299.101
283.15
283.15
287.679
283.15
283.985
283.15
283.15
283.15
283.15
302.737
288.08
302.684
283.15
295.6
290.868
284.701
283.15
303.15
302.659
301.697
303.161
302.615
283.15
294.73
300.199
290.091
283.15
283.15
299.731
285.882
283.15
283.15
303.149
290.491
283.15
287.067
303.149
303.152
284.28
283.15
288.134
291.984
300.766
294.562
302.945
285.562
302.483
295.148
286.201
283.15
283.531
291.5
303.067
288.987
302.635
283.15
292.304
287.678
300.985
301.274
284.868
303.099
284.869
296.941
302.983
303.146
285.085
303.145
302.999
293.185
302.678
283.15
303.15
303.15
294.644
290.917
283.155
301.017
284.639
284.121
284.581
303.145
288.264
300.399
283.15
283.15
302.474
303.15
294.428
302.884
303.183
299.709
303.225
302.87
283.15
301.245
302.866
283.15
303.15
301.277
303.15
284.288
298.646
283.163
291.419
283.15
287.504
303.005
299.688
283.15
303.018
290.826
301.175
303.123
303.076
283.15
283.15
301.927
301.966
283.783
302.803
302.389
302.356
303.141
283.15
293.614
283.15
302.779
287.792
302.979
303.15
283.15
302.804
285.085
291.406
302.016
283.15
302.559
301.957
301.517
302.458
303.04
303.213
303.003
303.15
283.15
301.474
297.754
303.086
303.15
289.832
284.809
303.15
283.15
285.266
303.184
303.166
302.907
301.072
284.237
303.094
290.653
294.154
303.148
288.948
303.164
283.15
289.775
283.15
299.884
298.03
284.746
288.084
299.515
296.634
295.189
299.077
293.631
303.154
293.806
296.255
283.161
299.283
293.782
303.15
298.844
299.04
303.15
291.087
303.171
301.616
303.15
286.845
285.971
302.78
289.587
283.15
283.15
300.262
301.148
283.706
283.15
303.15
300.153
302.288
300.568
299.798
302.768
292.481
289.56
286.569
292.405
284.266
290.293
283.301
295.659
290.342
293.827
287.028
284.251
303.164
283.27
303.148
285.528
300.636
283.15
300.395
298.365
288.648
302.081
285.351
298.972
283.15
302.942
283.154
283.118
287.499
299.546
303.15
300.309
303.014
299.852
302.743
303.15
301.197
284.909
294.82
302.006
303.149
283.687
283.15
290.214
285.197
285.692
303.123
303.148
283.15
283.15
283.175
303.15
293.353
303.15
303.146
293.821
303.44
303.15
300.39
303.15
303.15
293.555
290.497
303.15
289.744
302.021
289.474
303.15
303.15
285.83
283.33
290.228
303.228
303.15
303.145
285.409
283.239
283.15
288.877
287.488
303.15
284.273
303.15
303.15
303.131
287.263
303.15
303.147
283.269
303.152
302.635
287.842
283.153
283.577
297.329
290.628
303.15
285.881
284.398
301.273
287.038
302.157
290.492
293.737
303.15
303.15
283.979
303.146
302.938
295.85
302.938
302.722
287.099
283.15
285.27
283.215
297.036
302.577
285.32
303.15
283.768
286.647
303.123
283.175
303.15
286.332
283.15
300.104
303.15
299.627
299.743
283.296
283.353
302.297
290.732
301.348
303.15
301.338
301.698
303.15
303.15
298.238
293.309
283.15
288.693
303.15
295.191
283.348
303.15
296.794
298.651
288.907
303.15
302.736
294.117
295.286
284.424
303.161
298.598
296.013
283.958
303.122
302.787
287.288
298.341
289.732
290.704
289.652
283.15
302.935
303.151
303.15
303.177
292.986
296.203
302.97
301.226
303.15
284.412
303.15
303.036
302.843
303.15
293.432
296.158
303.15
285.319
303.093
303.15
303.085
303.158
285.998
293.234
290.997
288.319
293.331
303.15
301.156
291.333
295.216
293.33
303.14
303.15
300.48
303.191
284.211
303.192
303.15
303.15
303.143
303.15
284.883
303.15
284.18
303.146
303.15
290.088
303.144
292.373
295.396
303.133
295.231
285.929
283.433
303.123
302.933
284.646
283.15
297.013
303.15
285.445
302.895
302.004
303.016
298.418
286.963
303.15
298.612
289.811
299.218
283.15
283.606
303.15
303.145
303.191
293.991
303.15
292.313
289.229
303.196
303.15
284.73
298.669
293.125
299.501
302.446
301.578
300.31
303.15
284.674
296.945
302.347
285.545
298.324
292.162
284.422
291.543
303.15
286.525
291.716
290.038
299.346
303.15
286.376
284.062
303.15
302.403
288.056
302.08
283.15
303.15
299.753
301.645
288.901
301.942
301.915
301.768
303.15
289.231
285.07
301.918
302.201
297.03
303.15
283.199
303.15
301.943
303.15
302.784
303.15
291.576
303.15
296.416
283.15
289.39
303.15
283.15
292.12
301.398
300.347
289.101
300.43
303.15
302.465
303.15
302.349
285.167
303.15
300.333
290.29
303.15
300.742
303.15
303.15
293.108
283.15
285.48
293.121
300.858
303.15
291.065
293.729
288.086
289.569
288.028
299.159
300.246
300.728