/*--------------------------------*- C++ -*----------------------------------*\
  =========                 |
  \\      /  F ield         | OpenFOAM: The Open Source CFD Toolbox
   \\    /   O peration     | Website:  https://openfoam.org
    \\  /    A nd           | Version:  10
     \\/     M anipulation  |
\*---------------------------------------------------------------------------*/
FoamFile
{
    format      ascii;
    class       volScalarField;
    location    "9.3";
    object      p;
}
// * * * * * * * * * * * * * * * * * * * * * * * * * * * * * * * * * * * * * //

dimensions      [0 2 -2 0 0 0 0];

internalField   nonuniform List<scalar> 
111485
(
31.5285
0.253195
0.289263
31.5282
0.275828
30.5627
0.238038
0.249863
0.238079
0.277881
0.230066
0.267539
0.252981
0.161986
0.247267
0.314909
0.1656
35.1593
0.260163
31.5268
31.5295
30.5814
0.2311
0.315283
0.247477
31.4111
0.297113
0.290899
0.277519
31.5358
0.0396351
0.119403
31.5417
30.5811
34.3231
30.4384
0.133674
0.238251
-0.00213191
0.279878
30.7746
0.263872
0.285835
0.201417
-0.622161
31.5989
0.224506
0.29813
0.280685
31.6817
31.673
29.5656
31.7062
0.159135
31.7273
0.212884
0.252712
30.6273
-0.0645145
0.270136
0.277141
31.5325
0.240643
0.0690753
30.7385
0.230769
20.6044
0.248701
0.153712
0.231636
-0.156212
0.199396
30.9223
0.173128
31.5645
0.184292
30.5851
0.258726
30.5746
32.3124
-0.0592904
0.170923
30.5876
31.5482
0.24199
0.248014
7.37027
0.142767
-0.0297396
0.183285
-0.433
0.254535
0.253225
0.203349
0.267002
31.5485
31.5298
0.19454
-2.53106
0.617088
31.5286
0.291236
30.5479
0.232239
0.223819
31.7415
30.6117
0.137607
0.253387
-0.953899
0.118521
0.259572
0.28424
0.275223
31.4032
0.193959
31.4672
30.5973
0.183802
31.533
31.4099
26.7984
30.591
30.629
0.279066
35.7781
26.6413
0.137323
31.5543
1.97557
-0.0364806
0.19463
31.5687
26.1955
27.334
0.243189
30.5852
0.198972
0.210064
0.283681
0.133495
0.227584
0.246832
0.292584
0.213826
0.13973
30.5849
31.5442
30.6424
0.239124
0.278746
31.5167
0.0992884
0.0363627
-2.19761
0.251449
0.235993
0.210749
-1.63438
31.5766
31.5283
0.241759
0.23838
-1.48075
-1.95061
0.154329
0.102031
30.7335
-1.33595
-1.19165
30.6205
31.5412
0.2501
30.5998
0.116901
0.0692648
30.7768
30.8347
31.4756
31.3507
30.7256
31.5237
0.266057
0.254797
0.282878
0.264139
0.28034
0.212175
0.173778
31.5319
0.14676
30.8201
31.4863
0.241526
0.250394
0.159019
0.274716
0.0721056
31.5687
0.282599
0.31583
21.4022
0.232123
0.161919
31.5322
0.22884
0.233565
30.8102
0.139117
0.211373
0.268527
0.175118
30.6939
31.5323
0.205689
20.0523
0.189714
30.5977
0.224417
0.206958
0.275893
31.5443
0.192291
0.0977447
24.1277
30.5988
30.6214
-0.0476398
-1.90639
31.0154
29.2207
0.222866
0.122133
-0.198002
31.0032
31.2524
0.0867224
31.557
0.213672
0.193956
0.21035
0.159656
0.202311
30.6265
-0.0516038
0.171999
30.641
30.5881
0.121859
0.251928
31.2313
0.196724
0.165126
31.5448
25.5693
0.221741
31.5723
32.1001
28.7961
31.5231
0.205813
0.145075
-0.0220543
31.561
0.103008
31.5284
31.5257
31.5683
0.0630511
0.242006
0.257318
0.157273
0.260139
0.222057
0.205693
0.0591757
0.094595
0.151189
30.4009
31.5417
0.0662533
0.105223
-0.113234
0.125863
31.5315
0.250496
0.244843
0.240006
0.32938
-0.0420483
0.246533
0.149295
0.214353
30.6135
0.21011
30.6002
34.9877
32.3659
-0.0906304
0.234953
0.238489
31.4916
30.8682
0.202429
0.132686
31.5163
31.5258
31.7392
0.159166
0.171602
0.259116
0.265305
0.2315
29.026
30.6293
31.5502
0.227647
13.1996
0.183536
-0.0464081
0.0174267
30.5907
31.5277
31.532
27.314
0.212432
0.287817
30.5839
0.215952
31.2203
31.4727
0.206512
0.217245
0.264145
0.223767
32.0275
27.172
30.5927
0.207984
0.0734054
0.0435927
30.7178
2.24756
-0.221894
0.294732
0.227546
5.45963
0.233564
30.5774
0.221207
0.229291
-0.0188493
0.180648
0.247991
30.5935
31.5558
30.6089
31.5389
0.256413
0.212076
0.209161
0.269608
30.6645
0.277244
30.6177
31.5603
0.245421
32.563
27.8969
31.7197
30.4225
0.250353
30.6221
0.0779075
0.295448
30.5755
0.184148
0.237525
31.5101
0.205742
0.283739
0.271321
0.16014
0.164507
0.13275
32.0693
31.5477
0.242408
30.6935
0.27357
0.157658
30.7745
30.6216
0.214057
0.210919
0.11183
0.328322
30.5839
0.0452535
0.251178
30.5551
0.197107
0.192122
31.5263
31.5257
0.0993656
0.252743
30.5363
31.476
23.5232
31.5258
0.272535
30.5984
31.5292
0.245623
-0.0129152
0.258114
0.296029
30.5701
27.3847
0.295261
27.7671
0.212827
0.323334
0.295881
21.2786
28.0649
-1.86279
-0.83156
31.5252
0.140707
0.292454
31.5372
-1.58794
0.275062
27.9237
0.26036
0.249138
0.168247
30.5785
1.06512
0.260285
0.201995
-0.129376
26.5545
-1.99017
31.5378
0.192592
-0.652374
30.6235
0.233495
0.277268
25.8344
31.5565
29.911
31.5241
0.270079
0.320648
0.281522
0.297575
0.130318
30.6017
0.113296
31.5783
0.32004
30.517
31.5671
31.6006
0.259811
31.5499
31.5298
33.4473
31.5262
30.6554
0.240918
30.6197
29.7803
30.5971
31.4825
30.5406
31.5758
30.5836
0.257603
30.5904
0.224653
0.248428
0.0976216
30.5932
0.244435
30.6264
31.5288
0.279567
0.337963
0.426768
-0.0892334
29.4088
0.249481
0.235513
0.131008
-0.0234728
0.263025
31.545
0.0246253
25.8823
0.36949
30.5997
0.291987
26.7678
0.122676
0.304466
33.1689
30.8593
-0.0869616
31.518
0.246747
0.215671
30.647
30.6752
31.7804
30.6167
-3.47131
0.241678
30.5487
30.6423
0.261826
30.5814
0.217661
30.5817
0.243879
31.5308
0.330588
0.318681
0.335035
0.111245
30.4843
-0.476545
30.5441
30.5989
0.221973
30.6044
0.280382
31.806
0.303528
31.5349
0.354006
31.5275
27.9577
-0.0404942
0.15055
0.211835
0.304543
0.145096
0.232981
30.6381
0.180676
0.233988
30.5923
0.153127
0.102568
0.257244
30.8324
32.1855
0.358285
0.140744
14.9893
30.9019
0.19926
0.304551
0.284363
0.271431
0.653647
10.4324
27.5909
-2.38455
12.8271
31.5307
0.320073
30.6891
28.0762
0.213192
10.2056
-2.45631
6.03044
27.5736
0.221854
0.288234
30.6296
29.878
0.300585
31.5415
30.5807
30.5846
30.5899
0.272899
30.6118
31.3756
0.3056
0.190109
24.1426
0.124066
29.354
0.175997
31.7015
30.6313
0.252339
30.5936
30.5926
27.9442
0.202635
18.7917
0.180364
0.179409
31.5728
-0.483098
0.0123846
0.251037
0.309129
1.43083
0.238466
30.605
0.250205
0.263567
31.5613
0.214663
0.195605
0.286765
0.15296
0.264817
0.27207
31.5972
0.270463
0.142497
27.865
0.267126
0.341569
19.5809
0.175905
0.287054
0.309264
0.293482
0.306746
0.118462
31.1382
0.289643
0.275196
32.9179
0.258226
0.204532
0.216156
30.6091
0.196811
31.6224
30.5874
30.6434
30.5847
0.302323
28.3073
-3.73472
31.5209
30.3164
0.295805
0.261927
31.513
0.256444
31.5249
31.5493
31.7105
0.186175
0.313261
28.0628
31.3457
30.6038
30.6073
0.104767
0.150157
27.344
0.271555
-1.2117
30.6344
0.299602
0.244667
0.354075
30.5765
30.5965
0.289496
0.199291
27.8043
30.6224
30.5227
0.172882
31.5553
31.5071
30.6045
0.274295
0.29305
30.5797
33.9182
32.8722
0.602661
30.6327
30.569
0.234174
0.0689046
27.7405
23.9486
4.8707
0.261653
0.0107707
30.4688
0.16238
0.304135
30.6111
31.6996
30.5829
30.5999
30.6226
30.5785
0.335162
31.5274
30.5869
30.8029
0.313832
0.190983
31.5326
31.7546
0.207257
0.174827
0.202239
31.5038
30.5907
0.17618
31.546
0.241567
0.147732
0.201051
31.4337
31.5301
31.5295
30.6051
0.354527
30.5912
30.5724
0.205086
31.5292
0.23322
0.342853
30.6569
0.226846
31.4305
0.202242
0.276338
0.194611
0.234363
-4.59577
29.042
0.189559
0.232243
0.0116579
31.2432
-7.89972
28.6808
0.111073
30.6163
0.20421
0.244469
0.187668
32.3276
31.5308
31.5567
0.178305
29.3404
-0.0492456
29.8868
0.294273
0.15549
0.0725321
0.188173
30.5839
30.6569
31.0075
0.177028
30.5802
29.0251
-0.205483
30.6229
30.6504
31.5371
30.5861
0.0849578
30.5076
30.5999
-5.6758
29.2708
30.7006
28.3221
30.5995
0.172308
0.0932876
31.5193
0.286714
4.423
0.17238
-1.0931
0.168735
30.6295
0.236946
0.245177
0.171149
31.546
-9.93773
0.0669951
26.0264
0.026289
-0.0705669
0.00199652
0.188747
0.144036
-0.153688
0.155142
0.138853
30.5278
30.6288
0.0705594
0.0202643
30.629
0.0859844
0.291171
0.126554
30.5609
-0.0718522
30.6016
0.107837
0.0900922
30.5756
-0.286756
0.15076
-0.221574
-0.0590694
30.3935
0.266857
-0.19903
0.1134
-0.217324
0.17501
30.5604
30.643
0.249867
30.586
0.363217
0.0401505
27.008
-1.48332
-2.86349
-0.785206
30.5863
25.6821
0.191648
31.5512
37.7689
0.160401
30.5486
30.5692
-2.46044
-3.0025
30.5863
-0.0701922
30.6006
30.5959
31.5588
31.5282
31.8351
31.5434
0.24317
30.5846
30.6218
30.6467
-5.29013
0.408916
0.242798
0.180691
30.6348
30.5647
0.160552
30.5939
30.5829
23.4329
0.136553
0.206098
30.5761
30.5511
30.6123
30.569
30.3951
30.563
0.0679379
30.5875
-0.392676
0.257078
30.6058
31.5727
31.7401
-0.0854262
31.7084
31.5308
30.669
-0.436502
30.598
0.0941709
0.0938754
-0.313967
30.5704
21.3118
0.194155
0.236729
30.6699
-0.370175
0.236572
31.5508
30.465
27.6599
30.5552
0.187517
0.239374
0.110137
-0.958728
30.5788
0.183531
30.3395
27.4544
27.4882
30.622
0.269448
30.5997
31.7812
0.125569
0.189898
31.7702
0.288199
29.3738
0.0320026
31.9971
30.5988
30.4955
31.5299
0.153021
0.269377
1.93128
30.583
30.7655
0.113456
30.5862
28.4013
31.5312
0.248141
-1.00735
0.406884
31.4745
0.0912014
0.140713
33.0436
0.142964
30.6004
0.171075
0.203659
0.190336
0.0370095
-0.306926
30.5893
30.6003
30.5979
0.0898953
30.8956
-0.0538161
31.5609
3.25276
31.5132
0.27442
0.282836
31.7892
30.5863
31.857
30.6532
-0.068682
31.8873
27.6868
0.0890208
-0.0478272
31.74
28.2706
30.915
28.3541
30.5738
30.5906
-0.0236315
0.343173
31.5275
31.4854
-2.0749
31.5571
-0.0250932
0.152329
30.8961
0.204232
31.5298
0.0659626
30.6007
0.283322
30.5737
-1.88306
-0.80927
-0.185508
0.179318
0.165934
18.9619
30.2849
0.209578
31.6885
0.259385
31.5119
30.7206
30.5179
30.6479
30.7445
30.628
0.117967
0.0690806
31.5309
26.6806
31.5404
0.128935
-0.0827197
31.5244
0.271381
-0.190975
31.7411
0.165558
0.13467
0.24948
-0.18406
30.5862
30.5898
30.7156
30.5851
0.236141
30.3278
0.207668
30.5947
0.180155
0.295084
30.6148
0.147823
30.5753
30.5844
0.16238
0.033041
8.85226
30.5962
31.8342
30.5424
0.242783
30.1324
31.7485
30.2048
3.86189
27.0528
-1.6575
28.2414
30.0626
31.0918
0.122229
0.0513017
0.300634
0.257158
31.4918
0.186155
30.6101
30.6217
0.0957078
30.4747
-2.11448
0.177387
0.176216
0.170539
-3.40208
0.234122
30.6157
-5.21787
-11.2889
0.258814
0.217575
0.221739
22.3213
31.5146
0.256985
31.5329
30.5697
-0.543755
0.255288
-3.98078
30.5342
29.9189
0.0790614
31.7407
30.5733
0.140262
31.8168
31.7726
0.550109
0.151172
-0.00223524
0.340643
0.176819
30.5848
30.5878
-0.674539
0.247786
30.5835
31.7942
0.38609
30.6151
26.5124
27.1787
27.3327
17.6972
26.5984
30.5893
0.309625
30.5225
0.0539343
30.5798
14.0184
30.7941
30.6642
30.6178
30.589
0.348245
30.5881
30.5862
27.8048
30.5568
30.6191
30.5848
0.229302
30.6559
0.213206
0.0420405
30.6751
0.420385
30.5811
0.203715
-0.328329
0.111097
0.131381
31.4098
0.127892
0.330722
-0.194736
31.5556
-0.0417803
0.210961
0.124362
29.4326
0.0871515
30.8497
30.611
30.5904
30.5785
0.110198
30.6002
30.5343
0.104492
-0.139981
0.0304195
30.6571
21.9146
0.361649
30.6229
-1.04448
31.7291
0.0718504
30.5547
30.5666
0.23353
30.5617
0.293503
31.5453
30.5797
0.133821
0.13875
0.179864
0.255913
-0.126413
0.211632
30.5794
32.166
0.267828
0.184936
0.252297
-0.00556446
30.5868
0.205902
30.5829
31.2254
0.238949
0.103684
30.6188
0.166129
30.5621
0.180844
0.16764
30.8684
30.5791
30.6059
0.269814
30.5991
30.5994
0.273085
0.18167
0.193582
0.111462
30.6587
30.6502
0.31467
0.324252
30.5985
0.25126
30.9146
0.244038
30.5825
30.5813
0.173045
30.5839
0.224416
0.308276
30.5946
30.5796
0.210795
26.0354
0.341645
31.5297
0.125623
31.5735
26.7839
25.8972
0.305791
27.989
27.6908
0.227187
27.5275
17.2301
25.5006
30.8107
31.5353
-0.315777
0.313515
30.7578
30.5936
0.210408
0.276887
30.6138
0.265484
30.5772
31.5552
0.288273
0.284636
0.482693
30.5775
30.6058
30.597
30.5859
30.5497
30.5612
30.5733
30.55
30.5684
30.5719
30.595
31.5418
30.5999
30.576
30.5781
31.2436
30.576
30.582
30.5884
30.6956
31.3366
0.327891
30.5973
30.5768
30.6517
0.263887
30.6325
31.5545
12.076
30.5219
30.1582
0.235517
33.036
30.3703
14.1805
0.21867
30.5937
27.1306
29.1024
30.57
0.211966
0.213468
0.225147
0.153921
0.205681
31.6387
30.5459
0.191046
0.216115
0.159158
30.572
0.229219
0.25524
0.251395
0.097075
0.143841
0.15829
0.153988
0.22886
31.5943
0.265841
0.26948
0.277228
0.231744
30.5998
30.594
30.6037
31.53
30.5899
0.217046
0.237333
30.6107
30.5696
30.5686
31.3739
30.5786
31.5274
30.5924
31.5431
0.223223
-0.119287
0.246039
0.373592
30.4713
30.6239
0.193758
-0.623405
30.5791
30.5877
0.257544
31.5979
30.5937
0.349097
0.174411
0.212609
0.359665
0.210936
31.6244
0.0745534
0.262874
27.697
31.5319
0.213323
31.6088
30.617
9.84948
5.44238
0.28579
31.1636
31.4534
0.197513
0.259917
0.13039
0.217435
13.8126
31.5261
0.280782
32.9328
31.5547
30.342
0.255884
30.5757
0.223654
0.045566
0.210076
0.238562
31.5645
0.269014
31.5539
29.9327
31.5446
31.4877
0.132955
18.1705
30.5874
31.527
33.4365
0.227962
27.505
0.161604
0.205936
0.119863
0.214022
31.3972
31.4859
26.6655
0.277739
0.214633
-3.24363
31.6996
31.5288
27.3618
0.252535
0.155818
30.581
0.028045
10.2681
0.253775
0.178862
31.5237
26.6422
0.169397
0.217737
30.6017
0.309305
0.296809
0.231495
0.0944264
0.179546
0.2518
27.7041
0.17057
0.189697
0.198996
31.9452
0.233701
28.0404
0.310766
0.197097
31.5558
0.107559
0.177091
0.145764
0.257987
34.9963
8.61269
0.156631
17.3376
0.179
30.6109
0.11355
0.192899
31.5402
30.5895
-1.03439
-0.0619388
0.28346
34.9205
0.282613
-0.403136
-4.15976
-0.0243022
31.5436
31.6263
0.209521
33.3695
0.226953
-0.467071
0.190501
0.164211
31.5236
0.286924
0.209872
31.5124
27.8475
0.195482
31.5972
0.181487
0.20015
31.5352
35.1266
0.269303
31.5172
30.5765
30.6156
0.148312
0.557618
0.275814
31.7614
0.261942
0.173617
30.8001
0.161996
0.116512
0.125801
-0.164423
30.5855
0.183937
0.237844
0.160068
0.128756
0.138524
-0.231475
0.309067
31.529
-0.168135
0.121663
31.5272
0.152584
30.6351
30.5967
31.5535
30.6539
31.5365
0.319504
30.6102
0.150436
0.195332
31.56
0.335297
31.3128
0.10299
31.5411
-0.273471
30.6502
0.254205
0.34848
-0.327061
0.24472
0.127199
0.277125
0.146957
0.256613
11.3322
0.20787
0.165213
0.25097
31.55
0.295042
-0.0844548
0.210687
0.257497
-0.265847
31.556
27.2256
31.5264
0.29513
31.5207
24.7873
0.127653
33.562
0.346261
31.4813
31.4192
30.5872
0.237123
0.430888
0.19205
0.175155
0.137815
0.190125
0.242399
0.197466
0.110221
0.231891
0.200018
31.6197
30.4237
31.5241
0.244791
0.265612
30.7132
30.5866
25.3036
0.301548
0.120802
31.5237
0.198432
31.5232
-1.28636
0.305017
0.112421
31.5309
31.5292
0.179723
31.529
0.254979
0.183906
29.9298
0.24197
0.257825
0.131551
31.5104
-0.0705399
28.0601
0.18324
0.265575
31.5363
31.592
0.16667
22.3024
31.6597
0.225478
0.154652
31.5321
31.4447
27.8787
0.166173
25.2534
0.220722
0.191113
0.287962
31.5268
28.1961
0.179302
31.5266
30.6171
31.5432
31.5347
28.616
30.9169
30.3101
31.5184
31.5641
29.3133
33.5852
30.5859
0.289686
30.6221
27.107
25.6427
35.5906
27.6362
31.5289
0.1921
29.6147
30.8573
0.189684
32.8365
34.2772
31.1874
0.164235
33.464
0.210439
0.0423279
0.327337
28.7885
31.5333
0.241657
-1.27285
31.3614
31.5197
0.243467
28.4717
0.234797
28.179
30.5201
31.0049
0.243873
0.258978
31.5282
0.262776
31.6903
29.6007
-0.360569
0.268004
0.200031
30.6001
0.236492
28.9816
0.204609
30.5801
31.5133
30.576
28.0377
0.235503
0.234898
31.5522
-2.63317
31.5505
31.6092
31.5491
31.5281
0.208431
0.153725
0.21087
0.317682
31.3951
0.292131
0.255244
0.219286
0.184778
30.8061
0.198078
0.3095
0.137312
-1.16103
0.248292
31.712
0.161859
0.211511
0.24057
0.241642
0.138628
31.6334
0.176993
31.1206
31.5487
0.237704
31.5682
0.314883
31.5273
31.7745
30.3115
31.5432
31.5472
0.140084
31.5362
0.214226
28.9105
30.6199
0.253649
0.295402
0.229643
0.183641
31.614
3.19611
31.5484
0.236168
31.7795
0.235197
0.183077
0.249692
0.25916
31.8971
31.9247
31.5397
0.210235
30.661
31.4876
0.198371
30.5335
30.5726
0.319749
31.8971
0.12479
-1.14916
28.7124
30.0217
29.78
0.175346
0.230225
31.5253
0.0370663
0.223491
28.0888
0.23655
31.5352
0.181601
0.296183
0.255947
31.5325
0.286297
0.181374
0.213552
0.277892
0.299136
31.5343
31.5276
-0.010192
31.4989
30.5758
31.5264
0.166407
0.23666
0.225098
0.0939552
27.612
0.238152
0.237606
0.236822
-0.0262574
0.305302
0.21972
0.302413
30.5876
30.5873
30.5849
0.376743
30.6046
0.146674
21.1939
0.266281
-1.79577
0.144181
0.120697
30.57
31.5384
0.272011
0.258527
31.5913
30.5654
31.5541
0.16219
0.261088
0.249807
0.298329
0.128404
0.221893
31.5209
31.5458
31.5306
0.19924
0.200674
0.037987
0.263377
0.23337
0.286481
31.4091
31.5273
25.5236
30.7377
0.143379
0.320252
31.5081
31.6442
31.5622
31.5596
31.4054
30.8861
0.25027
31.5297
0.143159
-0.040435
30.5991
0.273343
0.11559
0.172947
31.7166
31.0651
0.251879
31.5299
0.247146
-4.42679
0.177304
30.6874
23.8935
30.5818
31.5343
31.5008
30.4384
8.73538
31.5763
0.320577
0.215546
31.5431
31.5327
0.245742
31.5436
30.5998
0.209754
-0.399591
31.4737
31.4674
30.7338
0.165917
31.5292
31.5272
5.01909
0.188035
0.251829
31.5218
30.5956
28.8663
0.227933
0.239296
0.228526
0.235226
30.579
0.242338
0.0966748
0.0748099
30.3935
31.5305
31.5285
31.3581
31.5301
0.22152
0.235114
0.187562
31.6206
31.5391
31.528
31.5242
30.8466
0.189163
0.453186
0.0917888
30.5808
31.5295
31.7638
-3.56142
0.153379
0.112076
30.5885
-7.29532
33.0291
31.3814
31.5269
0.242185
0.310531
31.524
31.6453
0.267548
31.5349
0.174511
0.242291
11.1927
31.5081
30.7633
0.210627
0.104792
31.6559
10.42
0.248444
0.367726
31.5292
31.5355
31.5866
31.567
0.13631
0.188496
31.537
0.151572
0.233116
1.22792
31.5262
31.516
31.5171
31.5378
0.300746
33.5329
31.5277
31.1099
0.151171
0.200501
0.185952
31.4048
31.5404
0.260009
30.5227
31.5335
31.5301
31.5288
0.252716
30.8044
30.5279
30.5872
0.140581
0.287526
31.5057
31.5469
31.448
0.263427
32.6116
31.5349
31.4549
31.5483
31.5443
-0.385586
0.323051
31.7169
0.270669
0.294315
0.234526
31.5716
31.5552
31.5404
31.3917
30.5752
0.259157
31.5299
29.5792
29.4552
0.240948
30.6286
0.198388
31.5291
30.6106
0.266163
1.57829
28.2657
0.278217
31.531
0.263716
32.592
31.5961
31.7172
36.3728
31.5466
0.195624
31.5012
0.234795
30.6123
27.8813
31.5646
31.4978
0.115632
0.416306
30.583
10.857
30.6028
0.0195015
0.177733
0.318842
30.6209
-0.981234
0.181713
0.146416
0.327566
-2.04319
0.163534
30.4814
30.577
-2.53905
0.184843
0.260689
31.654
30.1712
25.6506
13.3007
31.5556
30.5895
31.5491
31.5561
31.5628
33.2125
0.415332
0.0728086
0.249445
27.9275
0.0114101
31.5476
0.264834
31.5292
31.5815
30.5976
30.8688
-0.0504201
30.7743
30.5903
31.5269
0.257241
31.5176
31.5351
0.165927
31.4163
23.1565
19.9073
18.5804
31.5625
19.4527
18.8172
19.2529
22.0191
30.5755
30.5792
0.236438
0.233967
27.966
28.6286
30.5773
0.222603
32.7662
30.959
-0.0429852
31.5305
31.5304
0.160358
0.0642446
31.4127
30.5771
0.264103
28.1677
30.5358
-1.17156
0.234128
0.397034
31.265
0.296985
31.5532
0.17899
-1.15715
0.269664
31.5282
-1.14084
0.2942
31.8849
-3.7061
31.4827
0.263689
30.1499
0.3312
31.2364
0.147067
31.5197
30.4066
30.6057
-5.40056
-5.42446
31.5964
0.244098
0.382405
31.7359
31.5253
0.137153
0.0273853
-0.0742661
31.5785
0.282265
0.274034
0.171581
-2.9588
31.5631
-0.260468
30.6173
-0.195512
31.5294
-6.4502
-7.53224
31.4383
0.219982
30.8197
0.179071
30.5812
31.4431
31.5685
31.6042
31.4341
31.479
0.279742
0.265124
-0.212815
31.552
25.4547
-0.170741
31.5485
31.3808
31.6435
31.5251
31.6479
0.09754
31.5274
31.55
30.5766
0.0782832
31.4623
30.5907
30.1925
0.173842
30.5936
0.0410643
-2.68294
0.0706813
0.159459
-0.0430912
32.8842
31.5365
31.5212
0.288851
0.197336
30.2841
25.3102
0.0789504
31.536
31.5553
-0.133336
31.4778
0.274335
31.5257
-0.0135315
0.134545
31.5515
30.5752
31.5239
31.5508
31.5269
0.261713
31.5133
0.0865343
31.7928
31.5268
0.145615
30.5796
0.25261
31.1172
31.5335
0.241767
0.243506
-0.0619272
31.5492
31.5491
31.5302
0.268018
0.0293294
31.8197
30.5852
30.5991
0.17114
31.4891
0.287992
-0.129709
31.5219
31.5018
0.165164
31.5069
30.6095
30.5946
31.8482
30.6008
-0.197246
24.956
30.6682
31.5418
25.6123
31.5015
26.4907
31.4089
31.496
31.0151
0.212143
31.2568
0.127296
31.4587
31.4933
0.125412
0.1845
31.4733
31.4033
31.5255
0.12816
26.9603
31.5304
30.949
31.5101
0.174235
31.4822
-0.298102
31.556
0.2291
27.8021
0.216453
31.577
31.5277
0.272189
26.314
31.543
0.187047
0.234918
31.6257
31.5513
0.218797
0.123718
0.171659
0.121737
0.116261
0.268428
0.196239
0.189196
31.8122
-0.342216
25.1917
24.7422
31.5286
31.5061
31.5271
0.185388
31.556
31.5303
31.5553
-0.110924
0.172662
23.9746
0.155871
31.5546
0.252553
30.559
0.16781
0.221274
25.4816
0.297695
31.4859
31.4038
30.5876
0.209883
0.232432
31.5296
30.5969
0.184894
31.5455
-0.100984
31.7
0.0634813
31.5293
30.587
31.4669
30.5832
0.18678
30.5834
1.51252
30.6122
0.254314
31.5221
31.5054
17.5075
16.2249
31.5958
31.5101
31.5287
31.5456
0.273449
-0.150915
21.0658
31.5558
0.276228
30.5739
30.6378
-1.28124
0.248774
0.108461
30.5895
0.150773
0.206466
0.227196
0.25323
31.5332
31.561
31.5778
31.5552
30.5898
30.5815
30.5883
31.39
30.5913
30.59
31.5291
30.5861
-0.0242829
30.5807
31.5183
34.5154
31.5489
31.5276
11.1262
30.5796
31.5183
0.199178
0.0198258
31.4212
31.4661
31.5308
0.264333
30.7486
31.4837
-0.0353317
30.5989
31.5193
31.5205
31.5484
0.174583
30.5902
-0.269825
31.5564
31.4783
31.5185
31.5236
31.5092
-0.034129
-0.155398
0.188174
31.5503
30.6609
31.6903
-0.0834893
31.5133
-0.118108
0.0665643
30.5841
31.4654
23.9349
-1.20805
31.4433
28.1929
-1.15597
24.252
0.273438
30.7294
0.179906
24.1189
22.5816
31.5282
0.276435
30.6005
0.223485
0.138425
31.552
0.272899
-0.708723
31.5224
0.08992
30.5838
31.4504
31.4894
31.4331
31.4849
30.5835
31.5127
31.544
-0.214004
28.5489
31.527
31.5249
31.5102
31.5242
0.247862
16.4157
-0.103129
-0.784342
31.5138
0.321201
0.267847
31.528
28.1092
31.249
31.4689
31.6181
31.8604
25.882
28.7804
0.151927
31.5344
31.5688
24.5114
26.6262
30.5867
0.235759
31.5403
30.6313
31.5479
0.0164239
31.5619
30.5797
0.226077
30.5946
30.4578
31.1544
31.739
0.231999
31.5276
31.5221
31.5157
31.4671
0.265758
0.0859116
0.12354
0.250819
0.219118
0.179354
30.5986
26.3248
-0.225614
0.20553
26.2818
-0.193958
31.5255
-3.88435
30.6498
0.00392543
31.5338
30.5888
0.210188
-5.1027
31.5314
0.201212
31.539
31.5448
-0.015546
0.1536
31.5418
30.5843
31.6886
30.5856
31.5071
27.4922
31.5476
31.53
0.190916
31.5461
31.5139
31.5183
0.237757
31.5637
27.6555
30.5905
30.5716
29.3179
27.8175
0.232715
30.5866
27.8526
0.21298
31.5182
0.1549
0.232536
31.5248
0.215298
31.5257
29.9318
31.7831
27.288
30.6126
31.4654
31.5229
31.5606
0.276397
31.5539
31.5406
31.54
31.0419
31.5238
31.2376
-0.0816414
31.529
31.5594
0.0952402
31.5304
30.5886
30.6135
0.329248
31.5302
-0.300799
26.9569
-1.09388
0.0873287
30.5773
26.3009
0.224875
25.2334
30.5913
-0.368421
-1.08254
-0.00816792
0.119733
-0.607779
-4.21967
30.7048
30.589
0.272009
-0.00386031
0.0414312
0.294254
-1.14235
30.5971
0.118978
0.219
0.244873
30.6244
0.267266
0.123687
0.215118
0.261025
-0.0954948
0.144536
0.22392
0.210774
0.00818391
0.199866
0.27065
27.7077
0.36384
0.0342211
0.250767
0.209528
0.108114
0.274077
0.0678751
28.3533
-0.0489629
28.1537
0.2748
0.290247
0.117162
0.192734
28.0976
30.578
0.260651
0.232671
-0.135116
0.112542
0.157463
0.240343
19.5025
0.29218
31.5292
0.42884
-0.0503337
0.156605
0.243387
-0.155053
-0.292186
0.271643
0.205925
0.103893
0.244883
0.24828
0.51464
24.699
21.7184
0.236801
31.534
31.5299
0.239461
0.325443
0.119205
31.525
0.0710503
0.143582
0.236427
22.5056
31.5228
-0.432498
0.0377286
-0.0775169
31.5621
0.198089
31.5319
0.230833
0.265858
0.155588
0.162034
31.5147
31.5376
0.220933
0.293858
0.346308
31.5056
0.244397
0.347361
0.206326
30.6153
0.236354
0.0858169
28.082
0.213045
-5.51912
-0.041091
30.4384
0.116942
0.0136529
31.5295
0.301287
0.0963675
5.94797
0.219895
0.328232
0.140326
0.345024
0.167221
-0.069944
-0.514964
-0.0981207
0.412499
0.136401
0.199555
-0.269107
0.258725
0.269313
0.305659
0.286636
-0.227274
0.219149
31.5313
0.283339
0.242053
-0.0473286
0.217736
0.186691
30.6759
0.284117
0.230854
31.5126
0.0563976
-0.0135031
0.264776
0.300196
0.126206
-0.169419
0.297702
0.219681
0.139516
31.5302
31.53
0.174821
30.6234
0.186789
0.328005
30.8484
0.125661
0.229102
0.0330232
31.5399
0.240186
0.234656
0.10648
-0.157753
0.224704
0.239817
0.229891
0.271512
31.5295
31.4458
0.0102479
0.184121
0.122703
0.289402
31.4432
0.198826
0.344637
30.8472
0.186293
0.270994
-0.296124
-0.445145
0.214318
0.126584
0.210806
0.285862
30.6463
0.320567
0.171135
0.282102
-0.378148
31.4479
0.252464
32.0657
31.5277
0.214316
0.219804
0.21918
0.899356
-0.0959575
6.2259
30.5997
0.14163
0.383759
0.479086
0.219897
31.5436
30.6202
30.5799
0.192499
0.214959
-0.480353
0.232961
30.5517
31.4616
0.156603
0.228999
0.171844
0.239288
0.214877
0.340976
0.167958
17.6785
30.5784
0.275432
0.0833327
31.4576
0.233333
0.319331
0.136457
0.290307
0.242045
0.2057
31.46
0.275482
0.236763
30.618
30.6136
0.143249
0.32082
0.143048
0.116447
0.288707
0.359007
0.183156
0.257179
0.304756
0.0841642
31.4448
31.4158
0.0446667
0.14425
0.291945
0.0156186
0.290968
0.213045
0.275349
0.256644
0.279592
30.5905
30.6499
-0.0201856
31.4404
27.4961
0.268276
0.213125
0.194908
0.019131
28.7723
0.207108
0.0941191
29.2972
0.0065928
-0.404416
0.282979
0.29839
0.0923383
0.328903
-0.177725
0.129139
31.5289
29.0732
0.0587943
0.165049
0.197058
0.157499
-0.0731757
0.185887
-0.0496742
29.1741
0.327578
0.262535
0.242798
-0.08232
0.193178
-0.00256544
-0.39145
0.24422
0.142582
28.7471
0.293488
0.310669
11.4846
27.3063
25.1399
0.341549
26.6917
0.0690644
0.289276
0.219624
0.332979
-0.0585743
20.3744
12.4692
32.3183
27.0111
0.17403
30.5825
30.583
-4.61332
31.5187
0.247112
0.205652
0.13403
0.22764
0.229525
0.266374
25.2287
0.147979
0.111474
0.179971
0.242927
0.240368
0.266844
30.5877
-0.408633
0.247167
-0.105309
30.5848
0.26278
0.212983
30.5844
31.4803
0.0384189
0.207917
31.6782
0.304623
0.295384
0.0204381
31.5433
30.5837
0.114663
-0.404655
0.317814
30.5862
30.5458
30.5855
0.287264
10.4923
9.58832
0.0873652
-1.05575
31.5835
0.193719
-0.965987
0.274565
0.112744
0.0400765
0.179552
-1.55216
0.145161
30.81
0.160099
0.214674
0.0767954
0.249088
0.101643
0.179085
0.0966477
0.12138
0.131044
0.120041
-1.10595
0.26664
0.0117801
-0.127051
-1.38448
0.00686336
-1.0309
0.0959707
0.158665
0.221113
0.24177
0.13768
0.215496
-1.05777
0.161683
29.9919
0.255947
15.5209
0.219381
0.215523
30.6208
0.240332
29.9917
0.229692
30.1019
31.6293
0.380147
0.190027
27.5195
0.16881
0.27468
0.223481
31.4659
31.547
0.418648
0.110442
-0.20398
0.232051
0.17876
0.209519
0.121428
0.255321
0.240617
26.113
0.264419
30.5869
31.3368
0.241554
0.20219
0.0191302
0.235043
0.187466
0.271871
0.231437
31.1488
-0.0489904
0.168171
0.267168
31.1872
31.5776
0.258623
0.251541
24.728
0.185083
0.13382
0.271486
-0.507416
0.207225
0.256813
31.4846
18.4984
0.240183
0.0839253
30.8792
0.270237
0.158938
0.226706
-0.0573122
0.189371
-0.176969
0.254627
0.205958
19.5643
0.187059
31.5271
0.250624
0.233546
0.198119
0.0709559
26.4397
0.0595887
0.0528027
0.251973
-0.0618424
29.7688
30.5874
0.246956
0.104488
0.276491
0.269338
0.186981
0.192589
0.00650521
0.226462
0.186227
0.102179
0.152309
28.254
-0.150728
0.198725
0.0217182
0.176147
29.0299
30.5749
-8.96294
-0.0570575
32.6981
-0.156163
0.221565
29.5089
20.221
21.9708
0.136338
0.214981
1.09076
23.5004
0.0369279
0.262569
30.4857
0.954468
27.6137
0.224744
0.168036
30.7273
-0.0884203
0.238703
0.22359
0.203591
30.5782
-0.644025
0.172039
0.0711517
0.262783
0.287154
0.229305
0.280183
-0.25581
0.227059
0.144403
0.210694
31.5156
25.9407
26.3128
30.9221
0.17972
0.240499
0.268902
0.0915368
0.159948
0.250721
0.247392
0.231181
0.231018
0.192543
0.253938
0.00837719
0.285171
0.191984
31.5267
0.173273
0.0913514
0.239693
0.285031
30.4588
0.180866
0.196829
0.410907
0.261987
0.252046
30.6424
0.290805
0.241962
27.5577
0.287303
0.24575
30.9019
0.190724
30.8659
30.6047
0.185525
0.0613628
0.259881
0.256208
30.5839
0.17744
0.166328
30.6208
0.297792
0.245301
0.245417
0.234632
31.0262
0.190491
0.199629
0.306415
30.8754
0.25138
0.144664
0.266652
0.216416
0.207151
31.6567
29.9304
28.3703
0.125947
28.8884
0.244954
0.162527
0.131054
31.4302
0.127604
30.7244
31.5261
31.326
0.264721
-0.0504643
-0.411821
0.291151
0.280106
30.1007
27.6092
0.19391
0.15777
0.271481
-0.26213
0.243819
-1.14629
31.532
23.0851
23.5493
30.5763
23.8483
0.0784833
31.5305
0.279613
0.239017
0.276867
0.0782422
0.237479
25.4161
0.131947
0.281059
0.257537
0.177313
25.5814
31.5321
0.206685
0.187133
-0.747606
-1.7383
-0.0390798
-0.23802
-0.635365
-0.373093
0.240372
0.0514912
0.208705
-2.77948
0.199803
0.285822
0.236024
0.210399
0.181088
-0.0697935
-2.0311
-1.57622
-3.39658
-4.58721
0.19716
0.137192
30.6336
-3.77261
-7.5409
0.160063
0.117039
0.0435799
0.288686
0.345346
-8.21969
0.119056
-0.0223024
31.6614
0.255994
0.183119
0.226474
31.545
0.146622
0.130717
0.135083
0.216733
31.5749
31.6801
0.247707
0.139133
0.16789
0.0781102
31.383
31.5292
30.5999
0.273017
0.257125
0.110184
31.5395
0.186051
31.697
31.7929
0.153062
0.123983
30.567
0.126329
0.153719
-0.0670974
30.5833
31.5426
0.181442
0.285968
31.7308
0.118222
0.264119
-0.154213
31.9582
31.9848
31.8526
-0.163708
0.121195
0.221464
0.272538
30.5608
0.134234
0.235514
0.202106
0.233597
30.7463
31.5191
0.34012
0.128742
0.127024
0.249039
30.7366
-0.351627
30.5922
0.143443
-0.0370801
0.231934
30.9386
28.6305
0.0667456
0.184319
28.076
28.2511
30.5883
0.315874
30.2691
26.8428
0.238091
0.24562
30.5932
27.6172
0.251784
0.304838
0.171584
0.234926
0.229796
28.0917
0.292723
25.7708
25.1204
31.6255
0.223449
0.301937
0.110671
25.2701
33.8495
0.31861
-0.0310143
0.335922
0.27503
0.246745
0.271066
0.235712
0.363673
24.7964
0.218001
0.129741
0.34111
0.279797
0.218138
17.9279
0.226432
0.220277
0.236657
0.225716
0.158422
24.0014
28.6214
0.251681
28.8562
29.2407
0.275365
28.9165
0.250042
28.2282
28.5806
30.7693
27.453
0.246415
0.159012
0.192525
28.1743
0.201135
0.237163
0.158674
28.6425
31.5313
0.253442
0.260625
-0.205976
0.255628
27.2768
0.0458147
0.206105
0.127833
30.5738
30.9821
0.250966
0.163866
31.0924
28.7425
0.160956
0.01888
28.1045
0.128494
0.109828
0.149377
0.279311
28.4139
0.251066
4.3942
0.198031
0.392624
0.238815
0.111037
0.22786
0.211747
0.315009
27.785
0.267413
0.30229
-0.257597
0.0907974
0.1699
28.5746
0.179693
0.296163
0.215058
0.187215
0.278388
-0.206564
0.520279
0.0541462
0.227219
0.201796
0.206074
0.191666
0.242509
0.262962
0.306021
31.6369
-1.23135
31.542
0.261908
0.274573
0.177056
0.10672
0.31329
0.237599
0.257655
-0.0424659