/*--------------------------------*- C++ -*----------------------------------*\
  =========                 |
  \\      /  F ield         | OpenFOAM: The Open Source CFD Toolbox
   \\    /   O peration     | Website:  https://openfoam.org
    \\  /    A nd           | Version:  10
     \\/     M anipulation  |
\*---------------------------------------------------------------------------*/
FoamFile
{
    format      ascii;
    class       volVectorField;
    location    "9.3";
    object      U;
}
// * * * * * * * * * * * * * * * * * * * * * * * * * * * * * * * * * * * * * //

dimensions      [0 1 -1 0 0 0 0];

internalField   nonuniform List<vector> 
111485
(
(2.90915 -2.90967 0.00328811)
(8.51044 -0.0227107 -0.0495591)
(8.38453 0.0199744 0.0260327)
(2.90991 -2.91068 0.000241926)
(8.71145 0.0383668 -0.00335369)
(3.05683 3.0552 0.000265321)
(8.56267 0.025146 0.0021698)
(8.79553 -0.0251301 0.0122866)
(8.56716 -0.00483648 0.0061587)
(8.7677 -0.0953353 -0.040708)
(8.43498 0.0208388 0.0249905)
(8.82529 -0.0215655 0.0411172)
(8.31224 0.00714241 0.0186549)
(8.39622 -0.017801 -0.0610441)
(8.51005 0.0336865 0.0178628)
(8.69141 -0.058698 -0.0473898)
(8.55373 -0.0096142 0.0128791)
(3.00128 -0.21592 0.44411)
(8.73465 0.0252324 -0.0194075)
(2.88917 -2.88527 -0.00146194)
(2.89438 -2.89391 -0.00337088)
(3.06447 3.06346 -0.000262906)
(8.63902 0.0294942 -0.00885653)
(8.77463 -0.0595052 -0.0173195)
(8.59472 0.0330448 -0.00985688)
(2.93289 -2.91981 -0.00339421)
(8.86629 -0.0439743 0.0458326)
(8.38912 -0.0127323 0.00359211)
(8.7608 0.0152443 -0.01988)
(2.89947 -2.90098 0.000288419)
(8.82864 0.143243 -0.0372991)
(8.7226 -0.0193324 0.00247698)
(2.88724 -2.8935 0.00427355)
(3.06079 3.06709 -0.00752651)
(3.06793 1.28527 0.488748)
(3.07995 3.10055 -0.0450132)
(8.78611 0.143666 -0.0576803)
(8.50047 0.031131 0.0744737)
(8.75696 2.65017 0.147454)
(8.72514 0.042264 0.00326564)
(3.02329 3.05076 -0.0213021)
(8.8216 0.0101802 -0.0510145)
(8.7158 0.0440307 0.0150965)
(8.40879 -0.0506546 0.00161413)
(8.79157 -0.153832 -0.0788045)
(2.91728 -2.89575 0.0152782)
(8.82065 -0.0400935 0.0404711)
(8.76204 -0.0550968 -0.0165156)
(8.82213 0.00410463 -0.0383047)
(2.89254 -2.85757 0.0174124)
(2.87679 -2.85074 0.0179331)
(3.47912 2.92818 0.050534)
(2.86851 -2.85719 0.00934628)
(8.8074 0.0400488 -0.0760004)
(2.86108 -2.84968 0.000874666)
(8.70639 0.0233339 -0.00798761)
(8.7091 -0.0372712 -0.0177835)
(3.06445 3.0585 0.00174037)
(7.94244 -0.0177646 -0.140168)
(8.74973 0.0355973 -0.00528928)
(8.7482 0.039578 -0.00376073)
(2.90032 -2.90604 0.00374236)
(8.10994 0.00859155 0.0533023)
(8.84979 -0.0233607 0.0706468)
(3.15953 2.86436 0.00465895)
(7.97959 0.018358 -0.0154088)
(6.13567 -0.485512 0.216628)
(8.77654 -0.0311735 0.0125765)
(7.91449 0.00383604 0.0231198)
(7.48545 -0.0147311 0.00369388)
(8.46691 0.0515153 -0.0425953)
(7.85389 -0.00857569 0.0269233)
(3.14158 -2.82768 -0.0654823)
(8.02208 0.0150319 0.0626309)
(2.90656 -2.90553 -4.48445e-05)
(8.73471 -0.0205185 0.00967647)
(3.06356 3.06364 -0.000523613)
(8.81168 -0.018826 0.0466396)
(3.06271 3.06081 -0.000404861)
(2.75873 2.69207 -0.0912866)
(8.49236 -0.131258 0.0890638)
(8.77018 0.0345225 0.0076454)
(3.05226 3.04502 -0.000145127)
(2.907 -2.90714 0.00163513)
(8.25903 -0.00184395 0.0160069)
(7.91427 0.021715 -0.0327414)
(6.80208 4.41809 -1.18529)
(8.68951 0.102332 0.00911772)
(8.3712 0.215297 0.18435)
(8.47734 0.0109619 0.0255028)
(8.96728 0.179315 -0.114274)
(8.72039 -0.0149893 0.0138602)
(8.15663 -0.0130616 0.0325718)
(8.2916 -0.00912789 0.00939025)
(8.83206 0.0267869 -0.0554964)
(2.90688 -2.90653 -0.0006936)
(2.90182 -2.90097 0.00163679)
(8.68603 0.0955969 0.0297795)
(8.94773 -1.76168 0.124444)
(8.13636 0.0300525 0.0533487)
(2.90685 -2.90731 0.00139047)
(8.73618 -0.0476136 0.00469449)
(3.0768 3.08193 0.0168892)
(8.66436 0.000585934 -0.00482169)
(8.58844 -0.0446054 -0.0552155)
(3.00575 2.68954 -0.0632566)
(3.06342 3.06236 -0.000574487)
(8.73008 -0.0238634 -0.00236544)
(8.06543 -0.0442729 0.0101698)
(7.7294 -0.22982 -0.245241)
(8.25474 -0.00659594 0.0151758)
(8.67305 0.0122359 -0.00477389)
(8.08823 -0.00489247 0.0327319)
(7.9634 -0.0416449 0.0178457)
(2.93493 -2.9191 0.00234418)
(7.65644 -0.00743545 0.023063)
(2.91827 -2.9089 -0.00355475)
(3.0772 3.06413 0.0127088)
(8.52387 0.0323092 0.0253361)
(2.90909 -2.90707 0.0010465)
(2.93431 -2.91887 -0.00137856)
(4.02607 3.16973 0.188056)
(3.03163 3.04433 -0.00588424)
(3.06996 3.06264 -0.00727846)
(8.33142 -0.0209797 0.040835)
(2.31712 -1.62553 -0.440362)
(3.8392 3.30311 0.116368)
(7.73286 -0.00213179 0.0377893)
(2.90654 -2.90539 -0.00102483)
(8.7744 0.659967 -0.237371)
(8.7574 0.169361 -0.0868003)
(8.67 0.0979528 0.0289005)
(2.89376 -2.8865 -0.0142859)
(3.94339 3.43014 0.353271)
(3.68017 3.28453 0.15486)
(8.75753 0.0263668 -0.0162905)
(3.06575 3.06546 -0.000951405)
(8.6921 0.0206474 0.00122069)
(8.63517 0.0400764 0.0235637)
(8.48821 0.0385191 0.036369)
(6.65256 0.000736248 0.0278071)
(8.70456 0.0450175 0.0106842)
(8.63065 0.044652 0.0281777)
(8.22611 0.00873466 -0.0344283)
(8.59906 -0.016498 0.00894838)
(8.50451 -0.00445942 0.0214112)
(3.06644 3.0667 -0.000637646)
(2.90685 -2.9081 0.000267038)
(3.0579 3.05958 0.00639251)
(8.70839 0.0381726 0.00648495)
(8.23017 0.0148171 -0.0310927)
(2.89639 -2.89492 0.00185183)
(5.68746 -0.0333996 0.0575844)
(8.49111 0.041214 0.0194456)
(9.30214 0.375859 0.163205)
(8.75622 0.025925 -0.0170934)
(8.71662 0.0268317 -0.00678239)
(8.07591 0.00255257 -0.0157216)
(9.38907 0.459856 0.112725)
(2.89073 -2.91799 0.0112527)
(2.90481 -2.90744 0.00276784)
(8.74155 0.024892 -0.016836)
(8.56348 -0.0305451 -0.0316789)
(9.45141 0.518111 0.122772)
(9.32239 0.45347 0.168904)
(8.10424 0.011959 0.0415338)
(8.72202 0.108946 -0.0395978)
(3.0254 3.05068 0.000508126)
(9.56233 0.640917 0.151953)
(9.12338 0.461541 0.140531)
(3.06138 3.06321 0.000846236)
(2.90153 -2.90089 0.000231117)
(6.95205 0.00855953 -0.0540528)
(3.06469 3.06602 0.000391863)
(8.67704 -0.0188334 -0.0035941)
(8.34811 0.00458679 -0.0193447)
(3.06391 2.99065 -0.016794)
(3.144 -2.88495 0.0312444)
(2.90088 -2.88599 -0.00517333)
(3.01983 2.85246 -0.0295132)
(3.15998 -2.90887 0.0510587)
(2.90446 -2.90629 0.00261366)
(8.68848 0.0332304 0.00975788)
(8.70309 0.0207703 -0.0163485)
(8.67171 0.0270177 -0.00864972)
(8.56205 -0.0254345 0.0307507)
(8.25119 -0.0202742 0.00684084)
(8.27949 0.0140648 0.0263148)
(7.34231 0.0956012 0.0100025)
(2.90185 -2.89172 1.10269e-05)
(8.01757 0.00130688 0.0103102)
(3.13664 -2.90827 0.0316268)
(2.92804 -2.93313 -0.00148058)
(8.34946 0.0159478 0.0298986)
(8.77169 -0.106594 -0.0393193)
(8.68664 0.0175533 -0.0398647)
(8.33961 -0.00970561 0.0110268)
(8.49345 -0.00604828 0.00973503)
(2.9014 -2.89667 0.00718499)
(8.33012 -0.037814 0.0059297)
(8.30699 -0.00882348 -0.0524479)
(5.81944 1.86585 0.244923)
(8.51551 -0.0684602 0.00554524)
(8.6362 -0.0145113 0.00765068)
(2.91533 -2.89893 -0.00468774)
(8.31345 0.0205796 0.029778)
(8.72717 0.0207432 -0.00728344)
(3.19061 -2.8757 0.0144306)
(8.37423 0.0208623 0.0321156)
(8.79077 -0.00678839 0.0449153)
(8.22589 0.00929203 -0.0358274)
(8.28893 0.0217881 0.0390749)
(3.15699 -2.91839 0.0412621)
(2.89988 -2.90005 -0.000793757)
(8.2867 0.022227 0.0419511)
(5.44086 3.41871 -0.337089)
(8.89169 0.0388383 -0.0881545)
(3.06316 3.06424 -0.00188221)
(8.33844 0.0165931 0.0348755)
(8.3444 0.00598646 0.00481642)
(8.84232 -0.0281978 0.055249)
(2.90896 -2.90765 0.00113233)
(7.78418 -0.00234658 0.0208767)
(8.73582 0.125597 0.0655076)
(4.80959 3.23451 -0.352181)
(3.06474 3.06528 -0.00226628)
(3.06142 3.0631 0.000836733)
(8.93371 -0.0579193 0.084824)
(8.34109 0.1985 -0.0241511)
(3.21976 2.72056 -0.0622229)
(3.60703 -2.79311 0.114009)
(8.36987 0.00829875 0.0150108)
(8.64357 0.0151345 -0.000975943)
(8.72919 0.019163 0.00819554)
(3.17311 2.76386 -0.0814587)
(3.06833 -2.82303 -0.0105131)
(8.40445 0.100062 -0.119354)
(2.9062 -2.90601 0.00173561)
(7.96835 0.0105953 -0.0509818)
(8.27675 0.005511 0.034592)
(8.36697 0.00406718 0.0189357)
(8.37756 0.0170764 0.0214999)
(8.41155 0.00912558 0.0284918)
(3.0531 3.05372 0.00946077)
(6.33217 -0.0186579 -0.24523)
(8.51134 0.0189959 0.0333073)
(3.04839 3.05361 -0.00367709)
(3.06327 3.06517 0.000222569)
(8.87133 -0.108174 -0.0104458)
(8.66922 0.0390418 -0.0130425)
(3.13625 2.67384 -0.0833864)
(7.89132 -0.00332885 0.0240678)
(8.49494 0.0239223 0.0219407)
(2.90851 -2.90707 -0.000872547)
(3.86056 3.65837 -0.0219544)
(8.72798 0.0799726 -0.035217)
(2.9197 -2.88165 0.00160263)
(3.23208 -2.28939 -0.0545217)
(4.44802 -1.54951 -0.15775)
(2.91171 -2.9033 -0.00146716)
(8.54497 -0.0153267 -0.0165307)
(8.30641 -0.0132782 -0.0163373)
(8.65187 0.0136007 -0.0211269)
(2.90489 -2.90535 -0.000211971)
(8.56338 0.0240431 0.0202304)
(2.90989 -2.91064 0.000226444)
(2.90919 -2.91017 0.000730894)
(2.90129 -2.88998 0.00478528)
(5.83965 0.0224522 -0.0908129)
(8.79465 -0.0425821 0.0497157)
(8.37001 0.031126 0.0433468)
(8.53007 0.0287483 0.01352)
(8.8267 -0.0512463 -0.0020882)
(8.49023 0.0129232 0.0145881)
(8.70294 0.0315593 0.0109638)
(8.76592 0.149469 -0.0141161)
(8.57929 0.0103486 -0.00413641)
(8.6534 0.0152459 -0.00432179)
(3.1162 3.06662 -0.001861)
(2.89753 -2.89768 -0.00379455)
(5.33584 0.0353543 -0.131267)
(8.70239 -0.0197337 0.00223225)
(8.7715 0.0665233 0.0711933)
(8.28096 -0.0106543 -0.0136063)
(2.90953 -2.90783 0.000776068)
(8.65647 0.027447 0.0160119)
(8.69279 0.0443145 0.0213915)
(8.51707 0.0198514 0.0107192)
(7.48742 -0.00783702 -0.0398882)
(7.84937 -0.0896518 -0.196852)
(8.64289 0.0270161 0.00995103)
(8.50613 0.0242382 0.0151502)
(8.66079 0.0667112 -0.042225)
(3.06376 3.06399 0.000365524)
(7.94489 0.0445051 -0.00275715)
(3.0627 3.06308 -0.000941177)
(2.48728 1.89612 -0.395046)
(3.27863 -2.09457 -0.213696)
(9.00292 -0.0812015 0.12136)
(8.82928 -0.0513153 -0.00176495)
(8.62021 -0.0034718 0.00151897)
(2.91138 -2.90396 -0.000851563)
(3.05043 3.06832 0.0252653)
(8.64642 0.0291192 0.0142983)
(8.27638 0.0182887 -0.0115076)
(2.898 -2.89733 0.000835826)
(2.90962 -2.90747 0.00239421)
(2.84027 -2.85941 0.0210531)
(8.21169 0.0113431 -0.00446363)
(8.61433 0.00956137 -0.00899456)
(8.2199 0.00218401 0.0310367)
(7.95085 0.0137323 -0.0425104)
(8.78166 0.0199818 -0.0210268)
(3.50778 3.01191 0.0838313)
(3.0572 3.06455 0.00557256)
(2.90631 -2.90269 -0.00135714)
(8.61005 0.0334865 0.023139)
(5.57955 -4.73131 -0.342154)
(8.20307 -0.00972238 0.0128091)
(8.93866 -0.0628089 0.1964)
(7.19597 0.00536567 -0.149893)
(3.06496 3.06438 -0.000417274)
(2.90461 -2.90782 0.00204383)
(2.90946 -2.9106 -0.00143165)
(3.85779 3.23826 0.198351)
(8.72217 0.0263893 -0.00336471)
(8.79523 -0.0516092 0.00886361)
(3.06903 3.0769 0.000995573)
(8.66425 0.0242186 -0.00150548)
(3.23483 2.62354 0.184488)
(2.91175 -2.87857 -0.00709384)
(8.87639 -0.0304239 0.0728727)
(8.6414 0.0322151 0.015912)
(8.8307 -0.012232 0.0209749)
(8.6675 0.0247779 0.000528339)
(2.9453 2.6126 0.15829)
(3.81888 3.28843 0.209136)
(3.05668 3.06058 -0.00437952)
(8.65408 0.0303784 0.0114932)
(8.64236 0.0235554 -0.00244991)
(8.80053 0.156065 -0.0525058)
(3.02907 3.02217 0.0055217)
(6.04216 5.35151 -1.27948)
(8.25174 0.0824171 0.0753886)
(8.80348 -0.0419648 0.0213381)
(8.66379 0.0313357 0.0196409)
(8.24808 0.858821 -0.0668492)
(8.78106 0.019308 -0.0249631)
(3.05163 3.05166 0.00136673)
(8.78292 0.0214499 -0.0133804)
(8.43758 0.0120388 0.0176175)
(8.88339 -0.209973 -0.00165947)
(8.90445 -0.0535679 0.109091)
(8.60644 -0.0696381 -0.0635388)
(3.05013 3.06353 -0.0114405)
(2.90308 -2.90629 -0.00548631)
(3.06923 3.05133 0.0116533)
(2.88464 -2.89297 -0.000568507)
(8.78467 -0.0415181 0.000597071)
(8.70527 -0.0129686 0.00337756)
(8.70796 0.0421163 -0.033092)
(8.77513 0.0245966 -0.0274852)
(3.03858 3.04167 -0.0131717)
(8.68721 -0.0641658 -0.0235535)
(3.06024 3.06112 0.00109871)
(2.89613 -2.90443 0.000137968)
(8.77626 0.0250732 -0.0180328)
(2.67416 -2.67715 0.0383711)
(4.82045 -0.852835 -0.0682752)
(2.87294 -2.86221 0.00241565)
(3.08929 3.04821 0.0244206)
(8.69326 0.0156408 -0.0120976)
(3.06268 3.06099 0.00111381)
(8.58599 0.0247595 -0.00516423)
(8.16599 0.0047022 -0.0378765)
(3.06805 3.06817 -0.000683132)
(7.86228 -0.00345962 -0.0373674)
(8.54566 0.0152956 0.0122704)
(3.08662 2.7096 -0.0990992)
(8.50802 0.0383429 0.0426509)
(8.04387 0.0429691 -0.0037774)
(8.56273 0.0407141 0.0119613)
(7.97899 0.0308175 0.100987)
(8.64102 0.0250367 0.00432517)
(8.25243 0.00215402 -0.0161884)
(3.02942 2.59219 -0.013086)
(2.89688 -2.8915 0.0173729)
(7.39262 0.0115928 0.173476)
(3.04191 3.05249 -0.0173459)
(8.54782 0.0464112 0.0406962)
(8.8828 -0.0452702 0.0892322)
(3.07666 2.94231 0.0245455)
(3.05608 3.06901 -0.00086357)
(8.75976 -0.0177178 0.00676923)
(8.44288 -0.0398332 -0.0870603)
(8.4646 0.045238 0.00136617)
(8.77401 0.02023 -0.00776823)
(3.0633 3.05884 -0.00149624)
(8.92143 -0.0254502 0.144078)
(8.78806 -0.0300689 0.0444668)
(3.07244 3.06722 -9.34952e-06)
(8.60041 0.133681 0.109003)
(8.21259 -0.0334899 -0.0888053)
(2.90217 -2.90188 -0.000635335)
(2.89893 -2.89888 0.000921552)
(8.5761 0.0254271 -0.00907899)
(8.6277 0.00758501 -0.0130094)
(3.07561 3.07572 -0.00388254)
(2.90488 -2.89886 -0.00450329)
(5.13784 -2.75905 0.630853)
(2.90869 -2.91065 0.000608317)
(8.62518 -0.00340239 0.0157641)
(3.04281 3.05433 0.00705897)
(2.90967 -2.91055 0.000228668)
(8.83542 -0.0127815 0.0287324)
(8.00537 -0.0936391 -0.231728)
(8.73896 -0.0524044 0.0118946)
(8.4427 -0.000945702 0.0161866)
(3.07009 3.06796 0.000186885)
(3.96915 3.06314 0.153269)
(8.44012 0.112935 0.161107)
(3.72062 3.28344 0.173491)
(8.41395 0.0359349 0.0660822)
(8.38077 -0.0718117 0.00703681)
(8.74885 -0.0253892 -0.0233683)
(6.08892 0.199859 0.226061)
(3.65098 3.14859 0.157558)
(8.73739 0.0141387 -0.0828102)
(8.85078 0.27468 -0.0886815)
(2.90455 -2.9098 0.00538485)
(8.82387 0.0229397 -0.0873767)
(8.83575 -0.0392413 0.0324104)
(2.91 -2.90939 0.00298505)
(8.51459 0.489152 -0.261231)
(7.44269 9.18578e-05 -0.102394)
(3.86128 3.04056 0.127708)
(8.80078 -0.0218841 0.0362107)
(8.69391 0.0137966 -0.00986297)
(8.64593 0.0236111 -0.00628058)
(3.06275 3.06012 -0.000860364)
(8.60769 -0.0128463 0.0596549)
(8.83284 -0.00365239 0.0284444)
(8.57578 0.0840819 -0.00853372)
(5.41182 -0.0728362 0.0911175)
(3.71991 3.5109 -0.0731978)
(5.10589 -0.13053 0.171023)
(2.90384 -2.90777 0.00213314)
(7.93531 -0.26914 -0.262883)
(8.60954 -0.0144777 -0.0567315)
(3.06417 3.06193 0.00484901)
(8.19015 0.0206037 -0.0627935)
(6.74545 -0.0174376 0.123542)
(3.96527 3.5097 -0.0376261)
(2.90675 -2.9048 0.000184223)
(3.40833 -2.89113 0.0941776)
(2.90901 -2.90784 -0.000360861)
(8.54585 0.0475084 -0.0060223)
(8.63371 0.0463457 -0.0149499)
(8.55673 -0.0244573 -0.0249887)
(8.03676 0.0221821 -0.0450354)
(8.7612 -0.178963 -0.0370496)
(3.0613 3.04812 -0.00597649)
(8.49991 0.000311906 -0.0213613)
(2.91534 -2.89397 0.000373246)
(8.41215 0.031552 0.0202663)
(3.07354 3.07391 -0.00132248)
(2.90681 -2.90424 1.59775e-05)
(2.87713 -2.88527 -0.0038774)
(8.26713 -0.0556515 0.0120619)
(2.89625 -2.89737 -0.00245201)
(2.90834 -2.90861 0.00123977)
(3.02029 2.01915 -0.123426)
(2.9089 -2.91072 0.00101404)
(3.03082 3.07279 0.0288926)
(8.4727 -0.0314579 -0.0132837)
(3.06476 3.06051 0.0011307)
(3.62992 2.68303 0.00507022)
(3.06511 3.06699 0.00367347)
(2.89787 -2.88803 -0.00107788)
(3.06415 3.05309 -0.00422844)
(2.89676 -2.88208 -0.0147548)
(3.04608 3.04837 3.31751e-05)
(7.70945 0.00219929 -0.0661553)
(3.06881 3.05257 0.012217)
(7.90625 0.117428 0.160235)
(8.65475 0.0114902 -0.00337028)
(8.92721 -0.367338 -0.061008)
(3.0714 3.05599 -0.000632121)
(7.53114 0.0217977 0.125543)
(3.06884 3.05813 0.00295727)
(2.90954 -2.91072 -0.00127573)
(8.52977 -0.0812634 -0.0876373)
(8.54187 -0.0658977 -0.0792539)
(8.56079 -0.0185829 -0.0236157)
(8.94414 0.0230731 -0.152401)
(3.51841 2.96338 -0.0974678)
(8.76469 0.00938158 -0.0476593)
(8.75895 0.0143478 -0.0465776)
(8.65753 0.0157549 -0.000215737)
(8.51678 0.00960084 0.00278034)
(8.67145 -0.0884743 -0.060829)
(2.89628 -2.8978 -0.000799688)
(8.66547 0.0119851 0.000130488)
(4.00349 3.48903 -0.0250003)
(8.63395 0.0224621 -0.0112007)
(3.05993 3.05654 -0.00110391)
(8.79196 0.0288394 -0.0395329)
(3.96113 3.29215 0.0304511)
(8.67386 0.00766642 -0.012686)
(8.69969 -0.0414792 0.0318074)
(3.3595 -1.6858 -0.0205482)
(3.06512 3.06731 0.0341361)
(8.52899 0.0152243 0.0149768)
(2.90586 -2.90486 0.000615923)
(8.83 0.036421 -0.0576646)
(8.76429 0.033716 -0.0375492)
(3.06193 3.0528 -0.024398)
(3.05532 3.05413 0.00754342)
(2.99738 2.68997 -0.0599158)
(3.06169 3.06395 0.00147351)
(6.12981 -0.328013 0.166638)
(8.83496 0.0304494 -0.0552651)
(3.10742 3.03433 -0.00221071)
(3.05784 3.06213 0.00302572)
(7.53383 0.00991943 -0.0175402)
(3.06658 3.06619 0.0001753)
(8.69855 0.024484 -0.0319488)
(3.06435 3.06365 0.000286601)
(8.61535 -0.0504182 -0.0375689)
(2.90973 -2.90996 0.000496301)
(8.08033 -0.0409611 -0.122919)
(6.6733 -0.0268602 0.00725169)
(8.09433 0.0255749 -0.0174956)
(8.67689 0.0098628 -0.013708)
(3.07578 3.05322 -0.0100251)
(7.86524 0.00806685 -0.00107741)
(3.06959 3.05873 0.00276072)
(3.06505 3.06592 -0.00832162)
(8.57673 -0.0231619 -0.0138375)
(3.06114 3.05751 -0.00140208)
(7.2956 0.00115763 -0.074455)
(2.95594 2.72153 -0.0901786)
(8.70928 0.022415 -0.0280992)
(2.8994 -2.90246 0.000279512)
(8.78362 0.0217312 -0.0193555)
(2.91103 -2.90834 0.000402403)
(3.63392 3.21794 0.093048)
(8.88563 0.314897 -0.0226396)
(8.53337 -0.0728497 -0.0919303)
(8.66247 0.0365875 -4.88487e-05)
(8.73412 -0.098959 -0.0647783)
(8.62412 0.0168925 -0.00958678)
(8.82018 -0.0627743 -0.0062445)
(3.04242 3.06575 -0.0136275)
(8.65745 0.0491727 0.0270003)
(8.56839 -0.085895 -0.0887628)
(3.06355 3.06539 -0.00167965)
(7.26967 -0.106576 -0.281468)
(8.85252 -0.0639355 -0.0444021)
(8.50105 0.0366107 0.0319709)
(3.03103 2.98973 -0.0171064)
(3.76744 0.755046 -0.593806)
(8.31939 0.0211938 0.0272671)
(6.80487 -0.0268719 0.0689175)
(7.05955 1.82313 -0.0146133)
(3.77305 -1.911 -0.157244)
(8.80367 -0.101545 -0.0228073)
(8.26052 0.0318003 0.0613031)
(8.52812 -0.0805437 -0.0886612)
(8.69154 -0.0489077 -0.0184703)
(8.54888 0.0501346 0.0211435)
(7.59404 0.987533 -0.0447526)
(3.78384 3.21257 0.0264821)
(7.71881 -0.291447 0.0671214)
(7.45176 -0.64686 0.157068)
(2.90349 -2.90505 0.00153838)
(7.60197 0.0533972 -0.0224925)
(3.07958 3.02172 -0.0158176)
(3.59145 3.26685 0.0306915)
(8.62095 0.0192144 -0.00501763)
(7.64932 1.30164 -0.0455526)
(9.19761 -0.78178 -0.141719)
(8.2892 -1.43079 0.0276507)
(3.58212 3.40474 -0.250389)
(8.76704 -0.0544905 -0.0171035)
(8.65017 0.0505169 0.0391447)
(3.05707 3.04851 -0.00148822)
(3.93951 2.19622 -0.0905892)
(8.64994 0.065032 0.0405066)
(2.90705 -2.89608 0.00309272)
(3.06345 3.06214 -0.000640382)
(3.05394 3.05279 -0.000279825)
(3.06717 3.0513 0.003592)
(8.76413 -0.0908629 -0.0416304)
(3.06433 3.06355 0.00192713)
(2.91695 -2.91679 0.0154145)
(8.60757 -0.0530226 -0.0433559)
(7.91521 -0.00302007 -0.0242625)
(4.28115 -3.7474 -0.198116)
(8.65047 0.0635201 0.0390518)
(3.56352 2.88295 0.0646582)
(8.69719 -0.0357864 -0.0196254)
(2.85023 -2.84809 -0.0133189)
(3.05674 3.06285 -0.00226758)
(8.74233 -0.0558279 -0.0159688)
(3.063 3.04521 -0.0125327)
(3.06486 3.05776 0.00171841)
(3.50835 3.35791 0.0968056)
(8.21948 -0.00664906 -0.00561752)
(5.03651 4.21923 -0.558664)
(8.61456 -0.0361393 -0.0174952)
(8.61836 0.0187166 -0.0068902)
(2.88136 -2.8626 -0.0229982)
(8.94075 -0.0258786 0.2849)
(8.19004 -0.0502516 -0.123077)
(8.58269 0.00156249 -0.00426615)
(8.68751 0.157006 0.0156193)
(8.73407 0.0864745 -0.18732)
(7.50656 0.003833 -0.0707473)
(3.05838 3.05509 0.00174017)
(8.7529 0.00954865 0.024071)
(8.68661 0.036964 -0.00746838)
(2.87875 -2.91684 0.00575095)
(8.0781 -0.00593684 -0.00218965)
(8.76757 0.0484581 -0.017577)
(8.76612 0.040255 -0.0146589)
(7.95999 -0.0344463 -0.0789722)
(8.76301 0.0384835 -0.0161813)
(8.76768 0.0459754 -0.00510085)
(2.91248 -2.87385 0.0177477)
(8.76619 -0.0185876 0.0446405)
(7.253 -0.0453908 -0.0136164)
(3.68751 3.20416 0.203294)
(8.76201 0.0326936 -0.0215105)
(8.36103 0.00961738 -0.0199167)
(4.90196 3.99408 -0.601909)
(8.61904 0.0181557 -0.00683482)
(8.76623 0.0276495 -0.0267936)
(8.36422 0.002794 -0.035063)
(8.69478 0.0398515 0.00345136)
(8.59476 0.0854954 0.0379556)
(8.64075 0.004288 0.00808951)
(2.99725 2.92952 0.00445273)
(8.6933 0.0458816 0.00552011)
(8.16013 -0.053907 -0.110694)
(3.25695 -1.95165 0.0763238)
(8.65196 0.0748455 0.0461366)
(8.5409 0.0710521 0.069729)
(8.66842 0.0279143 0.00162126)
(3.05881 3.0516 0.00270369)
(8.40376 0.0486945 -0.0800091)
(2.90658 -2.89397 0.00722698)
(3.06433 3.06456 -0.00208259)
(3.04811 3.02712 -0.00125136)
(3.06901 3.05133 0.000668305)
(7.27416 0.00445926 -0.033379)
(3.64677 3.1422 0.126544)
(6.5646 -0.463619 0.542106)
(2.89189 -2.89306 -0.00022621)
(3.05733 3.09829 -0.00462128)
(8.66134 0.0862275 0.0443363)
(8.71465 0.0227026 -0.0405077)
(2.90874 -2.90895 6.17929e-05)
(8.72387 -0.0530736 -0.00599875)
(2.90686 -2.90489 0.00847433)
(2.90886 -2.90684 -0.00111755)
(2.86025 -2.86028 0.0087001)
(8.85324 -0.0718965 -0.00973207)
(7.37006 0.0422768 -0.0202142)
(3.60974 3.25369 0.0404886)
(2.93605 -2.90349 0.00781549)
(3.0595 3.06957 -0.00402086)
(3.06125 3.06314 -0.000729157)
(8.90999 0.0177754 -0.0979875)
(8.64963 0.0176994 -0.000743077)
(3.63711 3.42055 0.157183)
(8.81172 0.0279554 -0.0482314)
(8.19578 -0.114788 -0.341045)
(3.05777 3.05916 -0.00157047)
(8.78873 0.0242058 -0.0419414)
(8.05654 0.00638654 0.0431529)
(8.55363 0.0453186 -0.0516951)
(3.0688 3.06716 -0.000227425)
(3.05973 3.05716 0.000346194)
(8.49188 0.0508699 0.0517404)
(8.67975 0.0214245 -0.00345454)
(3.61745 3.29185 0.0514034)
(3.04976 3.05078 0.000262896)
(3.10179 3.00748 -0.0123994)
(8.62605 -0.0162633 0.00763821)
(2.90436 -2.90431 -0.0032143)
(2.9001 -2.88896 0.0022383)
(3.04593 3.04646 0.000140195)
(8.78597 0.0270134 -0.0368423)
(7.67943 -0.0383465 0.0137158)
(3.06712 3.06744 7.69284e-05)
(3.39906 0.693416 0.596861)
(3.6924 -0.387051 -0.147217)
(8.49736 0.0458613 -0.00265868)
(3.05808 3.06311 -0.00137396)
(3.06411 3.05859 -0.00235366)
(8.81428 -0.111021 -0.017019)
(8.44278 0.143443 0.135681)
(3.6685 3.27963 0.154523)
(5.33018 1.73874 0.127309)
(8.32333 0.192225 0.240203)
(7.9647 0.0246713 -0.0558921)
(8.4701 0.0053663 -0.00689525)
(3.16602 2.97355 -0.0075827)
(8.42082 0.0252128 -0.00351363)
(8.72811 -0.0588443 0.0626811)
(3.06914 3.06162 -0.00327604)
(2.88477 -2.83595 0.00481475)
(3.04766 3.04946 0.000417536)
(3.05812 3.05786 -0.000628078)
(3.06381 3.06869 -0.00361136)
(3.06789 3.06901 -0.000627045)
(8.80341 0.0257759 -0.0390357)
(2.90668 -2.90599 0.00189456)
(3.05605 3.0567 0.000461694)
(3.04639 3.00644 -0.0040394)
(8.81145 0.0278201 -0.049404)
(8.67379 0.0210524 0.000105096)
(2.91917 -2.87995 -0.000255878)
(2.87171 -2.84184 0.00397641)
(8.88085 -0.0428453 0.0767778)
(8.43849 0.00373765 0.00780528)
(8.42583 0.00753638 0.0125052)
(2.90783 -2.9001 -0.0016116)
(3.0541 3.05422 0.00208428)
(8.43246 0.00500554 0.0118099)
(2.90869 -2.90626 0.000382729)
(8.32944 0.0232127 0.00228072)
(8.5206 0.0143912 0.0297053)
(8.54399 0.0293854 0.00970978)
(2.9161 -2.89442 0.00828937)
(2.90803 -2.90951 0.000561622)
(2.90755 -2.90948 0.000197099)
(3.06436 3.0647 0.000873528)
(8.63791 -0.0414911 -0.0240552)
(3.06087 3.06385 0.00130282)
(3.05528 3.05256 -0.000135548)
(8.59606 0.023233 -0.0342637)
(2.90825 -2.90921 0.001237)
(8.46989 0.00139479 0.00995823)
(7.72854 -0.0669556 0.0264525)
(3.08182 2.97802 0.0159454)
(8.66309 0.0228607 -0.00639557)
(4.08537 0.626456 -0.107658)
(8.55188 0.00906193 0.0046417)
(8.84109 -0.0302375 0.0207735)
(7.79786 0.032061 0.0110939)
(8.84177 -0.00148714 0.0578264)
(6.38307 0.13918 -0.242352)
(3.64346 2.91735 0.058761)
(8.53251 0.00515952 0.00327933)
(8.87642 0.0701489 0.0109408)
(8.66665 -0.0208382 -0.0089255)
(3.13717 2.731 -0.0915041)
(3.87957 0.384799 -0.197883)
(4.62047 -0.313069 0.154781)
(8.54218 0.012247 0.00657419)
(3.05546 3.05997 0.00406718)
(8.37615 -0.0195113 -0.0618994)
(8.55684 -0.0082153 -0.0191934)
(8.3054 -0.0739918 -0.134225)
(3.1778 -2.24363 -0.170548)
(2.9088 -2.90993 0.00142769)
(2.90573 -2.90576 -4.84054e-05)
(8.70749 -0.0284643 -0.00326024)
(3.57001 2.96086 -0.0383698)
(8.26443 0.0288365 0.0134866)
(3.32219 3.02657 0.0421819)
(8.22092 -0.0170559 -0.0591471)
(8.45373 -0.0175333 0.00854259)
(8.36577 -0.0103603 0.0298421)
(8.67668 0.02222 -0.00486276)
(3.05515 3.05512 -0.0010182)
(3.0419 3.03244 -0.00569028)
(3.10679 -2.82947 0.0141189)
(8.6621 0.029896 0.0054664)
(3.06782 3.05907 -0.000606464)
(3.53441 3.04181 -0.134139)
(8.85067 0.165343 -0.139181)
(3.0733 3.06952 -0.00180052)
(3.04929 3.06434 0.00924358)
(2.89223 -2.8833 -0.00476653)
(3.06587 3.0667 0.00089566)
(8.27484 -0.00321247 0.0282619)
(3.12598 2.96944 0.00604892)
(3.0646 3.06153 0.00096336)
(7.02951 0.99831 -0.731126)
(3.58268 2.90166 -0.0398163)
(3.04984 3.05144 -0.0253825)
(4.19237 -2.46606 0.154996)
(3.06217 3.0586 -0.00331481)
(6.75058 0.026866 -0.0597465)
(8.43693 -0.0146731 0.0233759)
(2.89712 -2.89748 -0.000190269)
(8.29156 0.00857869 -0.02192)
(8.37882 1.36409 -0.185953)
(8.24499 -0.0803213 -0.132803)
(9.07156 0.342145 0.00829984)
(8.153 0.00712567 -0.0133096)
(3.06127 3.04025 0.00968877)
(8.55989 -0.0804443 -0.0919824)
(8.86376 -0.0312544 0.0198561)
(8.24274 -0.0808456 -0.133276)
(2.90601 -2.90692 -0.000227127)
(8.98926 2.36165 0.630643)
(8.25499 0.0122645 0.012741)
(4.07329 3.2551 -0.19233)
(8.19794 0.00344432 0.00922425)
(8.94968 0.113225 -0.0850047)
(8.53996 0.173531 0.00953836)
(8.47234 -0.0256414 -0.0335132)
(8.47595 0.028481 0.000988268)
(9.02086 0.133289 -0.0499261)
(8.69835 -0.0152912 -0.0140485)
(8.6121 -0.0120837 0.00902265)
(3.0378 3.04943 0.0114636)
(3.04876 3.03382 0.00939107)
(8.31384 0.0226641 0.0117097)
(8.17377 0.0105407 0.0104844)
(3.05691 3.06417 -0.00131331)
(8.4309 0.00815969 0.000228133)
(8.83175 -0.0423246 0.00512469)
(8.63465 -0.0210867 0.00757042)
(3.06241 3.03109 -0.00115177)
(8.51056 0.173343 0.0384479)
(3.05467 3.05219 0.000166011)
(8.61675 -0.0117125 0.00754655)
(8.64479 -0.0135432 0.00573224)
(3.06217 3.06085 -0.000271618)
(8.26093 0.0448522 -0.0212974)
(8.62162 -0.0101675 0.00135434)
(8.47576 0.16179 0.0144976)
(8.34025 0.00207656 0.034079)
(3.12428 3.06579 -0.00467492)
(8.71584 -0.0233857 0.0260134)
(8.50167 0.197518 0.00256121)
(8.96264 -0.206597 0.0579784)
(7.54344 0.09909 0.0258537)
(6.7317 0.0213131 -0.0953422)
(3.06409 3.03259 -0.00547491)
(3.05398 3.05119 0.00221444)
(8.36116 0.115701 0.0151283)
(3.06604 3.06623 -0.0010115)
(7.29743 -0.0207347 -0.0180682)
(8.40091 -0.0450472 -0.0659383)
(5.12763 0.725862 -0.186238)
(9.30184 -0.594942 0.227311)
(8.20899 -0.365995 0.110534)
(9.13793 -0.32432 0.0914125)
(3.06542 3.06562 -0.000936689)
(4.15341 3.52897 0.0294109)
(8.69673 0.0215119 -0.00669204)
(2.89404 -2.9057 -0.00986824)
(1.59297 -1.11115 0.476991)
(8.60514 -0.165456 -0.128933)
(3.05197 3.0445 -0.00605901)
(3.06745 3.0639 0.000296577)
(7.68203 -0.148346 -0.00255575)
(6.28179 -0.406941 0.0840359)
(3.06659 3.0669 -0.000392425)
(7.77869 -0.14481 0.025624)
(3.05336 3.0508 0.00126724)
(3.06213 3.06697 -0.00504978)
(2.90537 -2.90562 -0.000566839)
(2.90908 -2.90262 0.00593492)
(2.85102 -2.8263 0.0096453)
(2.90312 -2.89742 -0.000351179)
(7.76137 0.0646307 -0.0292298)
(3.04099 3.02069 -0.00363705)
(3.06115 3.0625 0.00104254)
(3.04484 3.06098 0.00545138)
(7.22932 -1.59342 -0.414604)
(8.18996 -0.067954 -0.150115)
(7.92783 0.000149145 -0.0829834)
(8.69742 0.0203197 -0.00748462)
(3.04672 3.02706 -3.98396e-05)
(3.07477 3.06354 0.000166654)
(8.33143 -0.143194 -0.174687)
(3.06439 3.06538 -0.00355523)
(3.06178 3.05872 0.000899875)
(4.86696 2.80622 0.10293)
(8.86963 -0.122105 -0.00834358)
(8.68043 0.0201499 -0.00788832)
(3.06045 3.05976 -0.000295859)
(3.05841 3.05307 0.00448343)
(3.04682 3.03862 -0.00391954)
(3.0517 3.04542 -0.000435802)
(3.06515 3.06393 -0.00335144)
(3.07215 3.06338 0.00185998)
(8.68575 -0.20355 -0.128488)
(3.06898 3.06011 -5.58919e-05)
(6.02665 0.0868592 0.202768)
(8.75899 -0.0198786 0.0228664)
(3.06189 3.06627 -0.00084826)
(2.88573 -2.89736 -0.00788966)
(2.86564 -2.83638 0.00319203)
(7.34224 0.0864348 0.397803)
(2.84545 -2.84218 -0.0115795)
(2.90402 -2.90642 0.00303782)
(3.04472 3.04987 -0.0191372)
(7.86929 -0.123108 0.00799732)
(3.05227 3.05122 0.000274185)
(8.63356 -0.113502 -0.0716198)
(6.87483 0.112988 -0.0353958)
(5.67281 0.0071844 0.226678)
(3.05348 3.05576 0.000880231)
(5.90602 -1.50732 0.119826)
(8.7011 -0.0159448 0.00275367)
(8.76519 0.0219826 -0.0226194)
(3.12242 -2.98047 -0.0340415)
(8.42629 -0.136351 -0.0221066)
(8.60182 -0.0165586 -0.00907309)
(2.90918 -2.88881 0.00277457)
(3.16421 3.00261 0.0147784)
(4.11086 -3.16484 -0.266331)
(3.04582 3.04483 0.0010439)
(8.70119 0.0170894 -0.00223038)
(8.69366 -0.0110052 0.0103329)
(8.84067 -0.106892 0.0442668)
(5.81703 -0.00647746 0.318589)
(3.06771 3.06597 -0.000327474)
(8.70413 0.01724 -0.00382292)
(3.14331 2.99222 -0.00750697)
(3.82502 3.238 -0.0132409)
(3.91329 -3.04287 -0.1268)
(3.06175 3.06225 0.0011985)
(8.72397 0.0263409 -0.0055448)
(3.05247 3.04545 0.00195823)
(2.87496 -2.82376 0.00136376)
(7.95269 -0.109706 -0.200124)
(8.53844 -0.0191308 0.0102183)
(2.87721 -2.82951 -0.00828149)
(8.57769 0.0153862 -0.00362451)
(3.26117 3.18948 -0.0189653)
(8.712 -0.0747579 -0.0386652)
(2.88092 2.75675 0.027305)
(3.06502 3.06698 -0.00138853)
(3.07773 3.06734 0.010025)
(2.90959 -2.91016 0.000788995)
(8.43255 0.0133179 -0.0135152)
(7.54326 0.0162248 -0.0346264)
(8.7413 -0.0265125 0.183085)
(3.0492 3.05196 0.00200142)
(3.04455 2.99004 0.020567)
(8.38476 0.0161696 -0.0150101)
(3.06545 3.0656 -0.00112488)
(3.55716 3.22099 0.0444661)
(2.90662 -2.90467 0.000208384)
(8.3424 0.0537629 -0.00543689)
(8.88312 -0.2189 -0.0645992)
(8.70088 0.0218033 -0.00925114)
(2.90245 -2.89655 0.00674512)
(6.8885 -0.0104351 0.19201)
(7.1909 0.00688004 0.184674)
(2.7544 2.43418 0.0169617)
(7.77521 0.0996436 0.156167)
(3.06634 3.05045 0.00297651)
(8.21256 0.0773918 -0.00767483)
(8.82184 -0.0149215 0.0511616)
(8.54368 0.00570519 -0.0147517)
(8.8325 -0.112088 0.0133918)
(8.1143 -0.178825 -0.251943)
(3.06476 3.06145 0.000758814)
(3.06537 3.06516 -0.000212319)
(3.05813 3.06225 -0.000625636)
(7.11218 0.0701701 0.256311)
(3.03582 3.00878 0.00332873)
(8.63167 0.03642 -0.0159582)
(2.90536 -2.90503 -0.000226488)
(8.54911 -0.256787 0.183656)