/*--------------------------------*- C++ -*----------------------------------*\
  =========                 |
  \\      /  F ield         | OpenFOAM: The Open Source CFD Toolbox
   \\    /   O peration     | Website:  https://openfoam.org
    \\  /    A nd           | Version:  10
     \\/     M anipulation  |
\*---------------------------------------------------------------------------*/
FoamFile
{
    format      ascii;
    class       volScalarField;
    location    "7.4";
    object      p;
}
// * * * * * * * * * * * * * * * * * * * * * * * * * * * * * * * * * * * * * //

dimensions      [0 2 -2 0 0 0 0];

internalField   nonuniform List<scalar> 
111485
(
31.5667
0.39341
0.443687
31.5638
0.43793
30.6494
0.375621
0.368749
0.376709
0.481747
0.365884
0.442667
0.391795
0.303482
0.386412
0.458916
0.20608
35.1496
0.398621
31.5613
31.563
30.6741
0.370169
0.446032
0.408395
31.4406
0.494327
0.363651
0.434215
31.5774
0.314176
0.14687
31.5779
30.6922
34.3266
30.5649
0.410169
0.242767
0.348054
0.422385
30.8909
0.471503
0.428033
0.442236
-0.305592
31.6474
0.454745
0.432091
0.486045
31.7091
31.6983
29.6399
31.732
0.406651
31.7541
0.295306
0.390741
30.7516
0.168647
0.412777
0.419566
31.5713
0.35199
0.341678
30.8054
0.325682
20.7302
0.367245
0.266072
0.345559
0.13593
0.30187
30.9513
0.285581
31.6096
0.238351
30.6818
0.456407
30.6672
32.3595
0.218583
0.405059
30.6894
31.592
0.34735
0.396324
7.66554
0.38867
0.256154
0.22366
-0.120705
0.406568
0.362221
0.221426
0.4707
31.5921
31.5688
0.437761
-2.22718
0.867983
31.5662
0.490036
30.6678
0.426695
0.353683
31.7981
30.7257
0.171681
0.4053
-0.635516
0.135951
0.357274
0.430313
0.458755
31.4323
0.244094
31.4966
30.7223
0.29386
31.5669
31.4399
26.8977
30.6929
30.7535
0.493341
35.7649
26.7442
0.176169
31.6004
2.28309
0.237836
0.433711
31.6133
26.2989
27.4292
0.378253
30.6837
0.255705
0.333242
0.407061
0.34321
0.352859
0.371094
0.447981
0.433074
0.143941
30.683
31.5872
30.7602
0.367619
0.434263
31.5504
0.374228
0.0368738
-1.84894
0.383027
0.367985
0.349205
-1.28915
31.6242
31.5638
0.373794
0.393015
-1.13612
-1.60163
0.200205
0.366002
30.8556
-0.987161
-0.853889
30.7386
31.5838
0.419758
30.7072
0.124264
0.0683053
30.8489
30.8644
31.5053
31.4124
30.7554
31.5594
0.397448
0.387803
0.416249
0.261471
0.47756
0.277599
0.444488
31.5675
0.206712
30.85
31.5263
0.316917
0.454337
0.422616
0.36318
0.0799146
31.6138
0.408281
0.470443
21.5512
0.464131
0.198953
31.5789
0.302744
0.42177
30.842
0.399726
0.456284
0.422786
0.245415
30.7271
31.5725
0.271924
20.2207
0.439409
30.7041
0.290737
0.263195
0.484339
31.5931
0.265243
0.356168
24.2561
30.706
30.7403
0.238778
-1.5581
31.0793
29.262
0.279118
0.131639
-0.0945214
31.0677
31.2779
0.35754
31.6027
0.347957
0.251625
0.267985
0.218051
0.260557
30.7461
0.258809
0.211913
30.7623
30.6877
0.369356
0.350412
31.2941
0.208151
0.209583
31.5874
25.6801
0.448979
31.599
32.1171
28.8412
31.554
0.254341
0.200632
-0.0184721
31.61
0.151553
31.5644
31.5646
31.6144
0.333908
0.43989
0.360904
0.262891
0.44456
0.326923
0.316038
0.34322
0.105378
0.160955
30.4776
31.5843
0.33798
0.139144
0.102071
0.143583
31.5664
0.358113
0.378201
0.344016
0.514519
0.243164
0.349759
0.255682
0.444021
30.7385
0.407318
30.708
35.0003
32.3809
0.206831
0.420345
0.380835
31.5218
30.9884
0.279763
0.154027
31.5495
31.5661
31.7683
0.216204
0.181745
0.387857
0.399474
0.378289
29.1049
30.7437
31.5948
0.293248
13.4181
0.327456
0.237228
0.286589
30.6916
31.5665
31.5711
27.4101
0.298688
0.432117
30.7091
0.301437
31.2789
31.4998
0.45847
0.302534
0.44586
0.307176
32.0829
27.271
30.7134
0.293449
0.080121
0.319887
30.7935
2.59377
0.0607434
0.45685
0.30737
5.74172
0.379925
30.6732
0.370217
0.315822
0.264567
0.431493
0.413249
30.7064
31.6004
30.7254
31.5746
0.384814
0.285457
0.396041
0.4139
30.7736
0.449153
30.7326
31.5991
0.391589
32.5758
27.9528
31.7669
30.5503
0.383388
30.7469
0.0715657
0.465585
30.6684
0.303769
0.327201
31.5683
0.294271
0.457621
0.359511
0.422169
0.169411
0.145923
32.121
31.5907
0.479954
30.8147
0.453615
0.413545
30.8429
30.7429
0.298448
0.390454
0.123573
0.498235
30.6814
0.32031
0.426755
30.6397
0.434539
0.372928
31.5665
31.5606
0.0996809
0.413997
30.6601
31.5059
23.6198
31.5636
0.433476
30.7049
31.5664
0.42511
0.262483
0.477974
0.457307
30.6572
27.4776
0.531948
27.8643
0.450282
0.562057
0.50003
21.406
28.1744
-1.82151
-0.522029
31.5661
0.390835
0.463442
31.5862
-1.24217
0.482524
28.0152
0.443646
0.424155
0.174243
30.6675
1.06115
0.447379
0.207355
0.168301
26.6609
-1.66795
31.5829
0.463567
-0.638835
30.7411
0.416909
0.505377
25.9442
31.6053
29.9515
31.5577
0.43199
0.323905
0.459641
0.478616
0.391459
30.7097
0.307221
31.6169
0.481494
30.5998
31.6057
31.6428
0.442186
31.5934
31.5698
33.4769
31.5655
30.7749
0.469838
30.7447
29.8514
30.7128
31.5234
30.627
31.6203
30.6775
0.441319
30.7067
0.455841
0.436228
0.411846
30.6748
0.475045
30.742
31.5677
0.46157
0.517634
0.604261
0.203077
29.4875
0.47369
0.463023
0.138731
-0.0105321
0.451873
31.5876
0.0343782
25.9965
0.585546
30.7082
0.50268
26.8729
0.140704
0.484275
33.1742
30.9715
-0.0714501
31.5503
0.459885
0.427098
30.7674
30.7896
31.8369
30.7338
-3.12636
0.45421
30.6242
30.7652
0.425139
30.6743
0.433167
30.6776
0.469135
31.5699
0.534192
0.528722
0.421119
0.129012
30.5637
-0.464782
30.6249
30.7085
0.415817
30.7133
0.486546
31.8631
0.521826
31.5782
0.546682
31.5605
28.0503
0.285891
0.346542
0.429033
0.496793
0.36556
0.41221
30.7559
0.395517
0.428537
30.6975
0.442004
0.373686
0.469904
30.9039
32.2084
0.517102
0.357775
15.1916
30.9304
0.397327
0.465085
0.482147
0.46983
0.662114
10.6705
27.6866
-2.06346
13.0298
31.5669
0.528295
30.8105
28.1668
0.247659
10.4392
-2.12896
6.27022
27.671
0.422752
0.449354
30.7096
29.946
0.460917
31.5708
30.6729
30.6788
30.6693
0.473043
30.7267
31.4235
0.506615
0.247426
24.2359
0.287117
29.4316
0.234226
31.7256
30.7502
0.453479
30.7029
30.6747
28.0358
0.204486
18.9738
0.387486
0.193769
31.6008
-0.17028
0.225856
0.419409
0.568633
1.74768
0.401791
30.7135
0.455522
0.432885
31.6079
0.307265
0.428231
0.458984
0.156033
0.437793
0.444585
31.6415
0.478413
0.404786
27.9576
0.439766
0.551745
19.755
0.183212
0.459274
0.520805
0.47332
0.489618
0.131097
31.2041
0.470475
0.482978
32.9254
0.454395
0.401668
0.248241
30.7186
0.198786
31.6693
30.6867
30.7559
30.6642
0.466583
28.3969
-3.41138
31.5608
30.4064
0.495021
0.460055
31.5455
0.453431
31.5638
31.5956
31.7364
0.40258
0.522293
28.1508
31.3957
30.7123
30.7181
0.372405
0.203024
27.4401
0.46398
-0.881545
30.7548
0.491605
0.46798
0.36578
30.6665
30.7031
0.383376
0.241555
27.8964
30.7398
30.599
0.242747
31.5979
31.5365
30.7095
0.464412
0.440878
30.6728
33.9289
32.8887
0.611001
30.7556
30.6537
0.451782
0.341323
27.8373
24.0671
5.14532
0.475901
0.0122434
30.5397
0.325938
0.527879
30.7363
31.7249
30.6821
30.7073
30.7383
30.6733
0.523501
31.5659
30.6854
30.8756
0.50327
0.23326
31.5588
31.7806
0.429383
0.220453
0.246275
31.5344
30.6901
0.223688
31.5893
0.435273
0.190565
0.249513
31.4623
31.5677
31.5671
30.7177
0.514313
30.6916
30.669
0.448669
31.5665
0.308038
0.568365
30.7276
0.278746
31.4659
0.276665
0.48385
0.404591
0.456474
-4.25066
29.1215
0.264151
0.45377
0.0127234
31.305
-7.50282
28.7336
0.121929
30.7292
0.432089
0.479597
0.416875
32.3427
31.5692
31.6056
0.218313
29.4197
-0.0200986
29.9642
0.437753
0.164671
0.103448
0.231811
30.6786
30.7345
31.0361
0.223212
30.6624
29.1076
0.09153
30.746
30.7727
31.5738
30.6856
0.116032
30.5786
30.7061
-5.29037
29.3503
30.8233
28.374
30.704
0.403094
0.123077
31.5533
0.447209
4.72392
0.40551
-0.760464
0.203209
30.746
0.439186
0.50346
0.404801
31.5902
-9.48068
0.0973256
26.1377
0.0585485
0.218715
0.30241
0.307493
0.161447
0.141727
0.158695
0.16273
30.6412
30.7066
0.0885165
0.039023
30.7491
0.102875
0.469855
0.151043
30.6379
0.226568
30.715
0.133891
0.114744
30.6643
-0.271355
0.174393
0.0805534
-0.051309
30.4716
0.396434
0.103131
0.421223
0.082752
0.425941
30.6716
30.7557
0.492574
30.6848
0.546267
0.297026
27.087
-1.16278
-2.53412
-0.470427
30.6858
25.8013
0.255165
31.5973
37.7339
0.411366
30.6297
30.6557
-2.13449
-2.6837
30.6862
0.22743
30.708
30.7045
31.6052
31.5674
31.859
31.5866
0.496644
30.6633
30.7403
30.7678
-4.96421
0.656629
0.395302
0.243007
30.724
30.6474
0.423083
30.6977
30.6689
23.5659
0.394517
0.288208
30.667
30.6369
30.693
30.6536
30.5154
30.6462
0.329949
30.6701
-0.0917818
0.407484
30.7166
31.6106
31.7658
0.211369
31.733
31.5664
30.7794
-0.13378
30.7124
0.355781
0.36512
-0.0170918
30.6643
21.4148
0.455671
0.375995
30.7024
-0.0679218
0.451397
31.5793
30.5384
27.7109
30.641
0.250781
0.368807
0.374869
-0.646933
30.6681
0.246006
30.413
27.5508
27.5451
30.741
0.380659
30.7052
31.806
0.401107
0.274512
31.7951
0.495796
29.4558
0.299534
32.0504
30.708
30.6133
31.567
0.17822
0.395862
2.2246
30.6733
30.8378
0.139388
30.6854
28.4895
31.5705
0.438843
-0.693369
0.567111
31.5045
0.370488
0.416822
33.0835
0.419962
30.6798
0.413343
0.420615
0.31386
0.315691
-0.0243028
30.6906
30.7081
30.7062
0.367581
31.017
0.228177
31.6082
3.49327
31.542
0.416368
0.428763
31.8142
30.6829
31.8809
30.775
0.211507
31.9098
27.7383
0.114427
0.234084
31.7943
28.3553
30.975
28.4352
30.6538
30.6926
0.260523
0.560895
31.563
31.5137
-1.74137
31.5962
0.256935
0.179314
30.965
0.44873
31.5671
0.0857621
30.6781
0.437556
30.6616
-1.53919
-0.500222
0.110048
0.42661
0.415431
19.138
30.3602
0.459153
31.7138
0.368905
31.5431
30.8342
30.5482
30.7624
30.8599
30.7476
0.36726
0.318029
31.5681
26.7427
31.5692
0.380584
0.217826
31.5646
0.385604
0.109364
31.7663
0.203201
0.159585
0.359976
0.113322
30.6851
30.6951
30.8243
30.6803
0.357018
30.4478
0.460083
30.6968
0.434656
0.460991
30.7289
0.40095
30.6958
30.6824
0.417413
0.302709
9.09234
30.6989
31.8578
30.6273
0.363945
30.2045
31.7945
30.2816
4.16594
27.1534
-1.32213
28.3299
30.1402
31.1208
0.154058
0.0851542
0.478809
0.390385
31.5395
0.437719
30.7143
30.742
0.122423
30.5549
-1.76547
0.430755
0.193135
0.426745
-3.06468
0.410887
30.7333
-4.9263
-10.8657
0.475559
0.477292
0.306976
22.4655
31.5535
0.427316
31.5622
30.6557
-0.218876
0.461497
-3.53179
30.6469
30.0379
0.355104
31.765
30.6523
0.397745
31.8412
31.7977
0.647748
0.408609
0.267062
0.440931
0.225298
30.6669
30.6882
-0.360274
0.347997
30.6777
31.8189
0.566865
30.6943
26.5728
27.2769
27.4296
17.8891
26.6664
30.6835
0.484527
30.6075
0.325192
30.6677
14.247
30.8671
30.7402
30.736
30.6875
0.506864
30.6871
30.6849
27.9004
30.6429
30.7362
30.6937
0.323016
30.7548
0.298808
0.310672
30.7509
0.599755
30.6728
0.424672
-0.0428323
0.130323
0.151493
31.4392
0.149438
0.489404
0.0961611
31.6018
0.230903
0.285197
0.133462
29.5143
0.107374
30.9208
30.7286
30.6766
30.6719
0.124078
30.7077
30.6219
0.113761
0.136089
0.0415605
30.7771
22.0653
0.534544
30.7355
-0.705137
31.7542
0.0905662
30.6321
30.6459
0.420274
30.6497
0.561115
31.5846
30.6674
0.264305
0.363371
0.23102
0.380174
0.172995
0.307562
30.6679
32.2084
0.409713
0.236223
0.3449
0.26646
30.6857
0.292004
30.6803
31.2574
0.392584
0.377277
30.6988
0.22055
30.6806
0.233315
0.216239
30.9001
30.6731
30.7181
0.417416
30.7058
30.7067
0.420609
0.23383
0.452729
0.123058
30.7458
30.7654
0.499368
0.472914
30.6871
0.399866
30.9848
0.391648
30.6746
30.6709
0.321708
30.6837
0.440982
0.442157
30.6762
30.6732
0.347947
26.1427
0.506008
31.5683
0.390368
31.6125
26.8453
25.9687
0.443114
28.076
27.7798
0.352292
27.6198
17.37
25.6178
30.8821
31.565
-0.0158284
0.478363
30.8617
30.7032
0.374383
0.441655
30.6945
0.417054
30.6725
31.5843
0.478587
0.467721
0.481419
30.6689
30.715
30.7063
30.6848
30.6307
30.6424
30.6842
30.6336
30.6528
30.6663
30.7029
31.571
30.7016
30.6662
30.6626
31.3064
30.6661
30.6753
30.6889
30.7986
31.3838
0.494949
30.7023
30.6671
30.7712
0.377723
30.7576
31.5835
12.2875
30.5966
30.2364
0.349917
33.0721
30.4431
14.3677
0.331855
30.696
27.1924
29.1466
30.6563
0.451242
0.328894
0.334403
0.266542
0.272892
31.6659
30.6331
0.275476
0.303297
0.272642
30.6691
0.331292
0.484635
0.358919
0.114004
0.157846
0.271809
0.185008
0.33799
31.6403
0.393551
0.369278
0.434975
0.332265
30.7124
30.7024
30.7207
31.5672
30.7023
0.302915
0.339874
30.7223
30.6544
30.6514
31.4345
30.6656
31.5585
30.6679
31.5722
0.321475
0.175671
0.348064
0.558353
30.5484
30.6937
0.430274
-0.30794
30.6726
30.6863
0.421162
31.645
30.6994
0.447657
0.277828
0.313989
0.52105
0.44544
31.6535
0.0746999
0.382867
27.7495
31.562
0.336801
31.6368
30.695
10.0806
5.70724
0.461162
31.2271
31.5013
0.465149
0.385826
0.130805
0.303922
14.0034
31.5639
0.530025
32.9402
31.6021
30.4156
0.417267
30.6624
0.309494
0.0482206
0.331084
0.366544
31.6067
0.323982
31.5979
30.0103
31.5876
31.5171
0.15747
18.326
30.6868
31.5621
33.4411
0.314661
27.5624
0.250458
0.292159
0.14405
0.300436
31.4573
31.5118
26.7692
0.438331
0.276266
-2.90788
31.7252
31.5676
27.4228
0.487619
0.337723
30.6801
0.0935126
10.5013
0.37894
0.241267
31.5601
26.7073
0.233725
0.303417
30.7105
0.513571
0.495465
0.41079
0.179463
0.246473
0.320512
27.7564
0.192489
0.258774
0.257676
32.0021
0.353343
28.0903
0.491155
0.260689
31.6047
0.124401
0.23981
0.222192
0.34901
35.0129
8.86456
0.420839
17.4987
0.24905
30.6419
0.132984
0.272048
31.5681
30.6898
-0.739317
0.22913
0.385886
34.9165
0.461236
-0.103218
-3.79226
0.25094
31.5698
31.673
0.294729
33.3739
0.297551
-0.157326
0.314816
0.181342
31.5576
0.501521
0.294098
31.5422
27.9247
0.246144
31.6393
0.234519
0.248714
31.5743
35.115
0.395086
31.5493
30.6677
30.7412
0.165625
0.836069
0.437583
31.8071
0.420448
0.209394
30.8673
0.199315
0.157646
0.147154
0.131107
30.6803
0.259729
0.248607
0.198706
0.167184
0.159356
0.063987
0.450394
31.5676
-0.160881
0.14636
31.5637
0.190673
30.7546
30.7026
31.5985
30.777
31.5711
0.547685
30.7264
0.187985
0.388343
31.6068
0.518626
31.3751
0.128235
31.5699
0.0149329
30.6851
0.40563
0.596723
-0.0291775
0.283195
0.150254
0.44315
0.167105
0.294785
11.5695
0.24684
0.264419
0.289829
31.5969
0.377539
0.207955
0.25054
0.393502
0.0358616
31.6019
27.3235
31.5547
0.453815
31.5553
24.8652
0.154891
33.5665
0.542315
31.5117
31.466
30.6862
0.334898
0.59296
0.234696
0.430105
0.157369
0.270418
0.318049
0.297449
0.137383
0.307187
0.279571
31.6766
30.5418
31.5732
0.371425
0.350263
30.786
30.6855
25.3795
0.376755
0.149011
31.5569
0.278407
31.5633
-0.952521
0.463754
0.381475
31.5672
31.5684
0.277571
31.5665
0.469962
0.222699
30.0038
0.357507
0.399407
0.146016
31.5389
0.203457
28.1517
0.391486
0.427905
31.5728
31.6373
0.204021
22.4495
31.7021
0.274668
0.170804
31.5706
31.4739
27.9695
0.244474
25.3263
0.348022
0.42937
0.491941
31.5644
28.2492
0.41312
31.5656
30.7248
31.5853
31.5692
28.6662
30.9456
30.3471
31.5479
31.5855
29.3962
33.5868
30.6203
0.504166
30.6549
27.1671
25.7154
35.5753
27.6905
31.5674
0.429963
29.6564
30.8875
0.434309
32.8448
34.2728
31.2492
0.401991
33.467
0.44667
0.309904
0.528457
28.8751
31.5661
0.477218
-0.939937
31.3892
31.5668
0.368816
28.561
0.359841
28.2692
30.6313
31.0557
0.368753
0.381071
31.5698
0.446775
31.7472
29.6335
-0.0732591
0.327182
0.436358
30.7224
0.361737
29.0275
0.401711
30.6756
31.5413
30.666
28.0887
0.293433
0.309165
31.5951
-2.29955
31.579
31.6354
31.5769
31.5631
0.431937
0.377881
0.287232
0.657307
31.4449
0.452317
0.382792
0.276092
0.407514
30.9246
0.257098
0.529845
0.250976
-0.8264
0.36467
31.7369
0.31522
0.437278
0.366228
0.467853
0.379727
31.6604
0.419826
31.1508
31.588
0.340001
31.6118
0.472188
31.5691
31.7997
30.3831
31.5705
31.5925
0.365396
31.5628
0.401972
28.9941
30.7314
0.409505
0.513246
0.310587
0.363952
31.6584
3.49329
31.5921
0.43587
31.8047
0.391718
0.418386
0.476029
0.45924
31.9201
31.9475
31.5655
0.275467
30.7718
31.5181
0.268087
30.6103
30.66
0.542759
31.9197
0.247003
-0.821001
28.8013
30.0596
29.821
0.243315
0.362366
31.5594
0.0388506
0.417953
28.1786
0.463399
31.5778
0.256029
0.464401
0.312283
31.5661
0.452527
0.265776
0.451266
0.495679
0.482902
31.571
31.5654
0.27695
31.5299
30.6709
31.567
0.231199
0.46563
0.314468
0.232574
27.7027
0.40786
0.363835
0.372408
0.139842
0.471426
0.438699
0.486019
30.6863
30.6853
30.6831
0.559925
30.7167
0.343606
21.3523
0.450708
-1.46627
0.22014
0.150697
30.6585
31.5793
0.456658
0.442701
31.6302
30.6674
31.602
0.237983
0.445014
0.440211
0.489802
0.142613
0.35377
31.5517
31.5903
31.5691
0.209532
0.322848
0.0370282
0.400712
0.308288
0.479288
31.4346
31.5652
25.6288
30.8116
0.160202
0.481954
31.5461
31.671
31.6197
31.6062
31.4546
30.9169
0.45072
31.5624
0.391801
0.264277
30.6826
0.467087
0.11947
0.241715
31.7579
31.0937
0.452837
31.567
0.447832
-3.9532
0.255558
30.7188
24.0041
30.6775
31.567
31.5325
30.4717
8.95749
31.6039
0.52062
0.319779
31.5816
31.5713
0.451438
31.5735
30.7061
0.318914
-0.0926486
31.5039
31.4973
30.7671
0.207648
31.5665
31.5651
5.28164
0.395507
0.457099
31.5557
30.6789
28.9114
0.434696
0.44409
0.435347
0.377061
30.6708
0.274249
0.0812484
0.0824235
30.5177
31.5758
31.5672
31.4058
31.5675
0.331226
0.346616
0.276049
31.6672
31.5814
31.5653
31.5652
30.9122
0.439412
0.46884
0.0925194
30.6606
31.5662
31.8095
-3.18144
0.383599
0.381436
30.6974
-7.05145
33.0364
31.4104
31.5649
0.350584
0.429848
31.5535
31.6717
0.416097
31.5728
0.251479
0.341452
11.4035
31.5378
30.8373
0.286812
0.357501
31.6775
10.6476
0.25673
0.526631
31.5602
31.5653
31.633
31.6053
0.15514
0.240159
31.5669
0.406096
0.447624
1.53951
31.5608
31.5469
31.5469
31.568
0.469968
33.536
31.5625
31.1405
0.186124
0.390041
0.228403
31.4312
31.586
0.478473
30.5582
31.5718
31.5617
31.5615
0.369503
30.8357
30.616
30.6747
0.193319
0.407707
31.5365
31.5901
31.4771
0.404862
32.6232
31.5612
31.4841
31.5923
31.5868
-0.0803215
0.488835
31.7647
0.402766
0.458047
0.34718
31.619
31.6013
31.5766
31.4394
30.6619
0.41471
31.5644
29.6193
29.5335
0.456957
30.6625
0.415851
31.5668
30.7222
0.525765
1.88061
28.3538
0.495407
31.5651
0.480243
32.6353
31.6207
31.7459
36.349
31.5755
0.446852
31.5311
0.371876
30.7267
27.9711
31.607
31.529
0.156378
0.613681
30.6806
11.0789
30.7274
0.235606
0.427219
0.517798
30.7462
-0.672205
0.381073
0.397635
0.489793
-1.6978
0.365507
30.5509
30.6665
-2.17912
0.24933
0.462287
31.6789
30.2424
25.7651
13.505
31.6034
30.6704
31.5927
31.6025
31.6113
33.2206
0.610272
0.341614
0.337613
27.9789
0.291715
31.5911
0.423169
31.5681
31.6294
30.7021
30.8988
0.219005
30.8076
30.7156
31.5612
0.391449
31.5527
31.5762
0.427983
31.4774
23.2547
20.0389
18.7274
31.609
19.5906
18.9591
19.3929
22.131
30.666
30.6695
0.36621
0.44262
28.0589
28.6733
30.6708
0.348519
32.7763
31.0262
0.228621
31.5617
31.5674
0.382868
0.331589
31.4619
30.6608
0.54423
28.2213
30.6127
-0.841003
0.379979
0.536853
31.2924
0.438295
31.5983
0.267692
-0.847347
0.411253
31.5632
-0.826001
0.434925
31.9041
-3.3541
31.5113
0.404993
30.1859
0.456281
31.2647
0.395442
31.5484
30.4819
30.7201
-5.11511
-5.08908
31.6414
0.403666
0.628695
31.7836
31.5602
0.247088
0.0330235
0.233038
31.6254
0.444124
0.424479
0.434503
-2.61596
31.6114
0.0487346
30.7046
0.10197
31.5685
-6.07933
-7.14181
31.4674
0.309485
30.8911
0.439349
30.6791
31.4723
31.5971
31.6428
31.465
31.5178
0.484625
0.376652
0.0822509
31.5788
25.5399
0.122993
31.5775
31.4306
31.67
31.5725
31.6717
0.101506
31.5625
31.5948
30.6656
0.0819133
31.4919
30.6909
30.2288
0.193162
30.6982
0.0579515
-2.34258
0.275904
0.175787
-0.0231857
32.8943
31.566
31.5571
0.304701
0.239972
30.3599
25.3969
0.0992834
31.5769
31.6005
0.159318
31.5067
0.421894
31.5547
0.00534109
0.394742
31.5808
30.6651
31.554
31.5945
31.5671
0.522193
31.543
0.105881
31.8174
31.5597
0.196184
30.6952
0.411296
31.1458
31.5746
0.450878
0.333915
0.233929
31.5929
31.5933
31.5662
0.357147
0.316625
31.844
30.6855
30.6339
0.226414
31.5195
0.446861
0.166184
31.555
31.5332
0.220827
31.5456
30.6361
30.699
31.8682
30.7089
0.0989943
25.0356
30.7443
31.5844
25.6871
31.5331
26.554
31.4371
31.5238
31.0794
0.302458
31.3194
0.182431
31.484
31.5243
0.480323
0.240157
31.5037
31.4646
31.5558
0.182014
27.0613
31.5651
30.978
31.5407
0.232033
31.5123
0.00175491
31.6039
0.423874
27.886
0.451082
31.6051
31.5678
0.455937
26.4209
31.5717
0.229634
0.42503
31.6716
31.5948
0.429097
0.365017
0.226649
0.17607
0.171613
0.466233
0.250718
0.433904
31.8366
-0.0415151
25.3095
24.8646
31.5624
31.5314
31.5669
0.237042
31.603
31.579
31.6016
0.167091
0.413434
24.1042
0.377457
31.5992
0.476346
30.6338
0.434181
0.279594
25.5964
0.487318
31.5133
31.4332
30.6855
0.272658
0.429214
31.5657
30.704
0.249993
31.589
0.196712
31.7379
0.349026
31.568
30.6848
31.5133
30.6805
0.233026
30.6804
1.84404
30.7267
0.4566
31.5556
31.5371
17.7018
16.4317
31.6257
31.5417
31.5674
31.5906
0.464579
0.150597
21.2246
31.5986
0.470908
30.6669
30.749
-0.962222
0.37232
0.383522
30.688
0.18333
0.415792
0.324398
0.409803
31.5723
31.6094
31.6262
31.5993
30.6889
30.6791
30.6853
31.4187
30.6896
30.6869
31.5665
30.6825
0.258686
30.679
31.5489
34.5365
31.5931
31.5617
11.3566
30.6715
31.551
0.3524
0.314957
31.4521
31.5147
31.5684
0.398803
30.8695
31.5226
0.256106
30.7045
31.5489
31.561
31.5907
0.443347
30.6932
0.0362561
31.599
31.5193
31.5502
31.5577
31.5409
0.260364
0.137821
0.259249
31.5947
30.7321
31.7348
0.214367
31.5427
0.165212
0.363706
30.6891
31.5225
24.0657
-0.894798
31.4712
28.2835
-0.844183
24.3805
0.489687
30.8406
0.429076
24.2476
22.6802
31.5658
0.464584
30.7072
0.414875
0.402163
31.5768
0.463864
-0.402813
31.5606
0.35728
30.6703
31.4797
31.5201
31.4621
31.51
30.679
31.5424
31.591
0.0770479
28.636
31.5622
31.5652
31.5388
31.5516
0.383278
16.59
0.196077
-0.449601
31.5438
0.498515
0.446864
31.5642
28.2011
31.3097
31.4961
31.6442
31.8868
25.9944
28.8638
0.378661
31.5673
31.6159
24.5875
26.6925
30.6869
0.422893
31.5652
30.7114
31.5916
0.294215
31.6084
30.6722
0.436759
30.6981
30.5838
31.2156
31.7861
0.445747
31.5617
31.5546
31.5477
31.5246
0.441569
0.365303
0.404197
0.438086
0.458768
0.420567
30.706
26.4322
0.077758
0.440299
26.389
0.105677
31.5685
-3.51743
30.7279
0.284296
31.5691
30.6716
0.45102
-4.74396
31.5592
0.435312
31.574
31.584
0.26402
0.418944
31.5861
30.6793
31.7143
30.6843
31.5386
27.5504
31.5921
31.5693
0.423943
31.591
31.5512
31.5524
0.478923
31.5928
27.7114
30.6921
30.6676
29.3993
27.9098
0.473965
30.6672
27.9463
0.352663
31.5622
0.389763
0.466916
31.556
0.356923
31.5637
30.0082
31.823
27.3886
30.7282
31.5136
31.572
31.6083
0.416253
31.5993
31.5814
31.5855
31.1047
31.5586
31.301
0.201804
31.5666
31.6024
0.361301
31.5663
30.6887
30.7387
0.470274
31.5633
-0.0194775
27.0593
-0.772704
0.10307
30.6758
26.407
0.36198
25.3467
30.6889
-0.0725369
-0.770772
-0.00663214
0.375377
-0.292652
-3.8752
30.8214
30.6673
0.447037
0.282449
0.318671
0.461398
-0.812328
30.7107
0.1465
0.393474
0.418555
30.7496
0.439969
0.145937
0.312425
0.425322
0.191033
0.322773
0.25719
0.37136
0.0130552
0.270345
0.435355
27.7641
0.36659
0.0356364
0.43822
0.429482
0.116542
0.438205
0.0740879
28.3997
0.242668
28.1984
0.358326
0.464537
0.34271
0.326339
28.149
30.6777
0.420023
0.369034
0.155367
0.389648
0.198171
0.415997
19.6408
0.46648
31.5668
0.73293
0.238282
0.411336
0.340964
0.13872
0.0054946
0.475867
0.328142
0.22128
0.33066
0.424149
0.517427
24.8083
21.8377
0.413081
31.5641
31.5674
0.407022
0.493699
0.129212
31.5563
0.330738
0.410007
0.353159
22.6091
31.5607
-0.14638
0.0396609
0.214355
31.6106
0.237633
31.5723
0.359486
0.466222
0.401759
0.413761
31.5465
31.5757
0.487424
0.463226
0.514907
31.5441
0.378703
0.51667
0.424614
30.7205
0.357949
0.100283
28.1379
0.311738
-5.12842
0.233984
30.5174
0.380394
0.314342
31.5675
0.511629
0.112704
6.23487
0.431617
0.535413
0.178863
0.530924
0.384943
-0.0525746
-0.234579
0.180237
0.614365
0.168067
0.381051
0.0364509
0.389606
0.47295
0.371879
0.444891
0.0784528
0.253977
31.5704
0.499349
0.457258
0.2358
0.261996
0.440676
30.7524
0.485214
0.327677
31.5524
0.31559
-0.00890493
0.477254
0.506896
0.146771
-0.163821
0.480409
0.427477
0.400267
31.5698
31.5672
0.435919
30.7433
0.448683
0.580861
30.8768
0.147124
0.449705
0.170786
31.5854
0.337352
0.346866
0.365235
0.131942
0.334608
0.281726
0.366496
0.504655
31.567
31.4751
0.291772
0.417498
0.380017
0.431683
31.4727
0.433081
0.543903
30.874
0.322464
0.445026
-0.281865
-0.136778
0.457351
0.329466
0.248203
0.437321
30.7664
0.535422
0.280101
0.485736
-0.0685331
31.4775
0.495787
32.0856
31.5637
0.329034
0.42054
0.344334
1.24356
0.173411
6.46736
30.7008
0.343791
0.583128
0.606442
0.344779
31.5725
30.7457
30.7051
0.325431
0.347597
-0.166784
0.327539
30.587
31.4913
0.290417
0.367994
0.423101
0.366166
0.341016
0.497437
0.408876
17.8248
30.6687
0.470846
0.0948856
31.4872
0.419021
0.476347
0.438176
0.485002
0.423432
0.465112
31.4897
0.410432
0.392593
30.7367
30.6487
0.150428
0.329309
0.194062
0.13462
0.454127
0.511284
0.219468
0.352528
0.445199
0.101477
31.4742
31.4451
0.0462513
0.162495
0.449447
0.319187
0.436679
0.354577
0.478731
0.381553
0.424231
30.6853
30.7678
0.285204
31.4692
27.5556
0.426657
0.312749
0.349516
0.31304
28.856
0.453006
0.397813
29.3774
0.311853
-0.103711
0.427917
0.443753
0.100924
0.498581
0.110136
0.146733
31.5653
29.1557
0.331641
0.209461
0.322319
0.202159
0.188803
0.415913
0.234278
29.2554
0.483992
0.293058
0.378838
0.224618
0.436642
0.27422
-0.0859919
0.401007
0.173667
28.832
0.513382
0.459923
11.705
27.3992
25.2525
0.472405
26.7874
0.072283
0.420968
0.349708
0.507483
0.210597
20.5049
12.6848
32.3556
27.0742
0.434519
30.6805
30.681
-4.26179
31.5556
0.342683
0.371048
0.258495
0.317106
0.324246
0.441166
25.3394
0.191586
0.12961
0.409537
0.407899
0.328353
0.421842
30.6879
-0.102339
0.332762
0.107168
30.6831
0.473321
0.375581
30.6821
31.511
0.297071
0.293727
31.7183
0.487585
0.455799
0.281557
31.5862
30.681
0.126903
-0.10066
0.48994
30.6851
30.6631
30.6829
0.485209
10.7286
9.80655
0.157805
-0.744789
31.631
0.252521
-0.655746
0.413131
0.126077
0.0524625
0.243349
-1.19973
0.159998
30.9325
0.172292
0.248204
0.0846251
0.361102
0.119204
0.19868
0.116587
0.143667
0.135629
0.382718
-0.769936
0.423416
0.276553
0.16425
-1.04993
0.0773078
-0.702815
0.128419
0.142157
0.298466
0.286283
0.396548
0.25939
-0.721226
0.215605
30.0642
0.412637
15.6951
0.335417
0.391633
30.7392
0.457948
30.0646
0.413955
30.174
31.6517
0.486872
0.413618
27.6128
0.211368
0.400558
0.449037
31.4958
31.5907
0.674116
0.208341
0.0879537
0.346194
0.213821
0.426655
0.399387
0.461678
0.459212
26.1788
0.417756
30.6883
31.3999
0.324943
0.26207
0.314631
0.315094
0.238805
0.490171
0.456962
31.1795
0.233373
0.217712
0.480778
31.2184
31.6236
0.412367
0.435751
24.8095
0.439764
0.136702
0.460201
-0.489962
0.247916
0.371372
31.5153
18.6457
0.328596
0.357631
31.0009
0.354011
0.415992
0.426771
0.267973
0.2792
0.149737
0.408568
0.471527
19.735
0.456609
31.5606
0.432361
0.456319
0.238154
0.0726677
26.5459
0.0624146
0.326891
0.460971
0.20743
29.8186
30.6859
0.341384
0.376333
0.483572
0.44833
0.439791
0.237017
0.0216139
0.359597
0.195831
0.110997
0.409255
28.3419
0.147501
0.40647
0.0224734
0.423959
29.112
30.6637
-8.54713
0.231752
32.7406
0.139423
0.442863
29.5523
20.3843
22.0692
0.359919
0.302718
1.39518
23.5894
0.293096
0.362536
30.516
0.963698
27.6718
0.424175
0.234458
30.8371
-0.0718216
0.491323
0.474055
0.263445
30.6711
-0.329412
0.411948
0.331305
0.513128
0.541643
0.4834
0.504848
0.0530734
0.460301
0.177427
0.300157
31.5442
26.0515
26.3808
30.9509
0.395156
0.344576
0.358296
0.343647
0.209436
0.341853
0.43626
0.452769
0.443919
0.255317
0.479162
0.262323
0.48588
0.238282
31.5612
0.422195
0.341295
0.457181
0.515375
30.4926
0.308445
0.327814
0.587886
0.440846
0.39309
30.7189
0.431478
0.381162
27.6134
0.429852
0.449341
30.9345
0.332231
30.8956
30.7303
0.311296
0.286791
0.463824
0.394267
30.6707
0.193493
0.395486
30.7457
0.412046
0.392873
0.363972
0.446043
31.0545
0.412905
0.421426
0.501431
30.9427
0.352091
0.178881
0.464137
0.299614
0.313752
31.7009
30.009
28.4575
0.131379
28.9748
0.339908
0.24624
0.152881
31.4905
0.153617
30.7899
31.5606
31.3846
0.384263
-0.0465117
-0.101088
0.489505
0.381919
30.1308
27.6662
0.44679
0.403213
0.355728
0.0314572
0.346716
-0.823615
31.5661
23.1799
23.6454
30.6709
23.9395
0.0838763
31.5676
0.374862
0.428193
0.379664
0.0960168
0.364659
25.5316
0.212388
0.469111
0.474407
0.440735
25.6967
31.5637
0.432138
0.262617
-0.425606
-1.39944
0.244699
0.0595698
-0.329986
-0.0676032
0.306823
0.0580417
0.270583
-2.43845
0.258663
0.47539
0.439558
0.247615
0.240909
0.213864
-1.67873
-1.25496
-3.0429
-4.24196
0.226773
0.401535
30.7569
-3.44817
-7.18208
0.178738
0.128176
0.0473972
0.477928
0.483015
-7.92689
0.132957
0.266357
31.6886
0.351615
0.319663
0.380166
31.5734
0.261709
0.202909
0.148073
0.354724
31.6221
31.7068
0.455113
0.171283
0.202667
0.0508196
31.4078
31.5689
30.7084
0.427335
0.440345
0.143321
31.5787
0.286112
31.7226
31.8168
0.170373
0.132291
30.6494
0.160085
0.187844
-0.0586995
30.7083
31.5858
0.242269
0.476709
31.757
0.150079
0.28657
-0.12512
31.9797
32.0074
31.8772
-0.13358
0.153161
0.471846
0.295451
30.6834
0.157665
0.411742
0.459467
0.464166
30.7783
31.5508
0.359096
0.39773
0.389382
0.377534
30.7663
-0.0477128
30.6928
0.183834
0.25117
0.410575
30.9679
28.6747
0.338484
0.463193
28.1198
28.2871
30.6926
0.430029
30.3017
26.9068
0.424752
0.426725
30.6949
27.6707
0.410413
0.326639
0.197928
0.352547
0.328967
28.1431
0.47998
25.8419
25.1963
31.6585
0.347829
0.510855
0.141717
25.3482
33.8513
0.499788
0.254829
0.530421
0.486936
0.412915
0.413326
0.397807
0.386898
24.8806
0.396641
0.265366
0.364816
0.39552
0.428775
18.0705
0.341938
0.341347
0.35376
0.344407
0.194781
24.0903
28.7091
0.388518
28.9426
29.3221
0.440076
29.002
0.344618
28.3129
28.6677
30.8369
27.549
0.377214
0.197524
0.327591
28.2641
0.259808
0.360252
0.336897
28.7292
31.5706
0.386025
0.397585
0.0920136
0.387472
27.3786
0.046243
0.226887
0.146661
30.6616
31.0474
0.323047
0.225567
31.1565
28.8441
0.408162
0.0214417
28.2026
0.401277
0.356605
0.396728
0.422448
28.5023
0.414684
4.6628
0.204655
0.391732
0.485039
0.357728
0.452716
0.301662
0.481658
27.877
0.452399
0.469321
0.0396804
0.358208
0.416727
28.6592
0.29294
0.466605
0.308207
0.345365
0.446133
0.0808289
0.53182
0.318442
0.450309
0.448978
0.268943
0.43954
0.483681
0.42935
0.510219
31.695
-0.917065
31.5906
0.426643
0.447433
0.425026
0.367456
0.55049
0.404805
0.425335
0.234927
0.376801
0.218637
30.6412
23.4416
0.392442
0.448252
0.462566
0.475614
0.220533
0.258099
0.250175
0.606
24.4799
0.227683
0.680208
-6.98128
25.7634
0.102087
23.8789
0.343003
0.334572