/*--------------------------------*- C++ -*----------------------------------*\
  =========                 |
  \\      /  F ield         | OpenFOAM: The Open Source CFD Toolbox
   \\    /   O peration     | Website:  https://openfoam.org
    \\  /    A nd           | Version:  10
     \\/     M anipulation  |
\*---------------------------------------------------------------------------*/
FoamFile
{
    format      ascii;
    class       volScalarField;
    location    "7.4";
    object      SgRate;
}
// * * * * * * * * * * * * * * * * * * * * * * * * * * * * * * * * * * * * * //

dimensions      [1 -1 -3 -1 0 0 0];

internalField   nonuniform List<scalar> 
111485
(
6.58736e-18
9.62021e-06
2.84545e-05
2.38086e-19
5.87464e-05
9.55906e-19
5.4992e-05
7.20937e-06
2.28418e-05
1.43488e-06
5.54841e-05
1.12019e-05
5.69539e-06
1.04794e-06
7.81786e-06
3.65944e-05
1.67597e-06
0.00310521
1.24608e-05
2.68053e-17
1.2151e-18
2.25287e-18
3.13363e-05
4.15971e-05
1.05625e-05
3.25815e-18
4.78481e-05
2.173e-06
1.82491e-05
9.58111e-18
5.49325e-05
2.25902e-05
1.94564e-17
9.00893e-19
8.24068e-06
3.91883e-17
1.31895e-05
4.98855e-06
4.91013e-11
2.81448e-05
7.41029e-18
8.51108e-05
1.8912e-05
1.70696e-06
7.1738e-08
1.41676e-18
3.64192e-05
8.56036e-07
5.67654e-05
2.8447e-18
9.77092e-18
4.18247e-18
1.5694e-17
6.08119e-05
1.5458e-17
5.23765e-05
3.8014e-06
1.84211e-18
2.6143e-08
5.71001e-06
1.92027e-05
1.40741e-18
5.6223e-06
0.000116309
6.69836e-18
3.84476e-06
0.000378339
0.000113268
1.30343e-06
7.10179e-06
1.62631e-08
7.62983e-06
1.60192e-17
3.40934e-06
5.04109e-17
8.35239e-07
4.18361e-18
5.01533e-05
6.82466e-18
8.4893e-18
3.95591e-09
3.99481e-05
4.62892e-18
2.29918e-17
1.09433e-05
4.73489e-06
5.14678e-13
3.02956e-05
7.01765e-08
8.73974e-06
3.53606e-07
4.92871e-05
1.39701e-05
7.18956e-08
6.31157e-05
4.22072e-17
5.96062e-18
2.10379e-06
3.03225e-11
1.39224e-06
1.57753e-17
2.18125e-05
1.56462e-18
2.20967e-05
5.58468e-06
1.13931e-18
3.18412e-20
9.04075e-06
4.76947e-06
7.89166e-11
6.71614e-06
5.76679e-06
4.40958e-06
3.74279e-06
6.28377e-18
3.98892e-08
6.84733e-18
3.49679e-17
1.52465e-05
6.64477e-18
5.06467e-19
5.36395e-18
7.25188e-18
5.70341e-18
1.99857e-06
3.60839e-09
7.00338e-19
1.9711e-06
5.16245e-19
4.35295e-08
1.67684e-06
3.8821e-05
1.59844e-17
6.11153e-18
7.08369e-19
5.83053e-05
9.91361e-18
5.05431e-05
3.00689e-05
3.31809e-06
2.81009e-07
2.39616e-06
2.67292e-05
3.26616e-06
4.76786e-06
1.54717e-05
9.3308e-18
9.62411e-18
5.69483e-18
3.34046e-05
1.89163e-06
2.28158e-18
2.59858e-10
5.76784e-06
5.34127e-10
1.29243e-05
1.9583e-05
1.27534e-05
8.2084e-11
6.7901e-19
3.09337e-18
6.27527e-05
2.80058e-05
2.30722e-09
3.95683e-10
6.92465e-06
4.13665e-06
5.18221e-18
5.64718e-09
5.56304e-08
6.88849e-18
2.36159e-18
1.60616e-07
2.29159e-19
6.77402e-06
2.52971e-06
1.3259e-18
4.36047e-18
1.59811e-18
6.9214e-18
1.223e-17
1.85234e-18
1.75286e-06
8.14685e-06
3.54089e-05
4.98705e-06
8.9514e-06
4.78305e-06
9.41887e-08
2.9976e-18
5.71444e-06
2.97953e-18
6.33866e-18
7.76569e-06
1.25924e-05
3.35105e-05
1.33477e-05
5.94804e-06
4.49944e-18
7.89917e-06
5.95581e-07
5.23195e-08
1.65253e-05
2.78709e-06
1.08161e-17
4.43485e-06
3.11817e-05
2.27574e-17
1.99099e-07
9.21992e-06
2.42541e-06
4.22076e-07
1.09013e-17
2.76014e-17
9.82615e-06
1.20144e-14
0.000145101
5.80529e-18
7.92369e-06
2.43405e-05
0.000144426
2.03486e-19
3.76585e-06
1.64606e-05
2.09595e-16
2.50477e-18
2.87256e-19
0.000182637
3.29519e-10
1.23156e-17
9.94134e-18
1.15739e-05
9.3144e-06
1.8147e-05
4.04967e-18
1.934e-17
1.61235e-08
4.20374e-17
2.98474e-06
1.09857e-05
1.90987e-05
1.39426e-05
1.18209e-05
1.03259e-18
3.09426e-10
7.40225e-07
1.23628e-17
8.18813e-18
3.6551e-05
2.4834e-05
2.84626e-17
7.56166e-06
1.27129e-05
3.44118e-18
9.82062e-18
1.64488e-07
7.51645e-18
1.29136e-17
5.21752e-08
2.13012e-18
1.7959e-05
1.30724e-05
4.45544e-06
2.03134e-18
1.39366e-05
3.40178e-19
4.83797e-19
4.79545e-17
2.48031e-11
2.74815e-05
7.41829e-06
6.3373e-06
4.39058e-05
1.46465e-05
1.91746e-06
6.69886e-07
3.92025e-05
1.06927e-05
7.52055e-19
2.51878e-18
3.10451e-10
2.68667e-05
2.9145e-05
1.44294e-05
5.55654e-19
8.33754e-06
2.5064e-06
3.60308e-06
4.07197e-09
4.29969e-09
1.61323e-05
2.68329e-06
2.35443e-06
2.31973e-17
7.91504e-07
5.66732e-19
1.69694e-10
4.51879e-16
0.000291237
8.13732e-05
1.44721e-05
6.91648e-18
5.226e-19
1.06779e-05
1.97645e-06
4.0426e-18
2.04134e-17
1.60276e-17
3.73674e-07
7.02796e-05
4.66222e-06
1.65503e-05
2.27773e-05
5.5608e-18
6.34736e-18
4.0007e-18
4.54275e-06
2.04924e-15
1.20006e-06
0.000221627
3.84497e-10
2.99721e-19
1.60971e-18
3.33149e-18
1.08807e-17
7.14561e-05
1.43793e-05
2.98042e-18
6.22656e-06
3.47874e-18
4.45467e-17
8.25826e-05
6.96468e-06
1.33644e-05
1.11153e-05
6.52987e-18
9.3255e-18
7.92092e-18
1.11915e-05
2.22417e-05
6.1271e-06
5.76599e-19
4.3322e-13
1.94023e-07
2.55695e-06
9.50709e-06
4.3185e-08
3.40021e-05
4.58588e-18
4.47477e-05
4.20251e-06
9.30892e-06
2.97612e-05
1.63593e-05
9.68306e-18
7.15741e-17
6.10093e-18
2.84306e-18
3.76206e-05
1.15082e-05
4.00127e-05
8.05531e-05
8.74437e-19
2.25699e-05
1.16214e-18
9.92758e-19
1.98833e-05
4.43255e-19
8.85612e-05
2.7913e-18
1.90636e-18
2.77745e-05
2.94418e-18
1.63588e-05
3.36622e-07
4.58116e-18
1.21967e-06
1.95389e-05
1.13688e-18
1.06187e-05
1.11872e-05
9.69056e-06
7.73215e-07
3.26728e-06
6.7557e-06
5.35537e-18
3.33028e-18
2.19039e-06
1.22181e-18
7.31617e-06
0.000141185
8.83077e-19
5.18484e-18
3.22773e-05
1.381e-07
9.81877e-06
2.58209e-05
9.68378e-19
5.37191e-05
2.29054e-05
2.94526e-19
9.86816e-07
2.95857e-06
9.20007e-18
3.17393e-18
1.33251e-05
6.27822e-06
1.66228e-17
3.46025e-19
3.78545e-11
3.62664e-18
1.43063e-05
1.47729e-18
4.25008e-18
2.04817e-05
2.07474e-09
1.46842e-05
3.56674e-05
1.3699e-18
1.12529e-17
1.74214e-06
1.91813e-18
1.75822e-07
1.66731e-05
0.000146975
0.00102002
2.29922e-18
3.28587e-06
5.81849e-07
1.55512e-17
4.6582e-05
3.81007e-05
1.5154e-18
8.73626e-12
1.11044e-07
2.04935e-18
2.92995e-05
2.91635e-05
1.69782e-05
7.87416e-18
7.98698e-07
2.19356e-05
2.75022e-05
9.84883e-10
3.73418e-18
7.40928e-13
7.27316e-18
1.5935e-08
3.74327e-05
1.42428e-17
1.0233e-05
1.11749e-07
9.56173e-19
5.38172e-20
4.92679e-18
9.42022e-18
4.77715e-06
1.15042e-05
7.92346e-06
2.53101e-06
3.30646e-06
1.70306e-17
2.36605e-06
2.02629e-18
4.85089e-05
1.94396e-19
4.57893e-19
9.66712e-18
4.33131e-05
1.62132e-17
1.12992e-17
2.20833e-10
9.40305e-19
3.43761e-18
1.24879e-06
1.6806e-17
1.05189e-16
2.47579e-18
3.3016e-18
6.90305e-18
4.71998e-17
5.53491e-18
8.55246e-06
5.87688e-19
6.26834e-07
2.25541e-06
1.13045e-06
1.74773e-18
1.00192e-06
6.31415e-18
3.60829e-18
3.39134e-06
2.19088e-06
3.30549e-05
2.98371e-05
1.11694e-18
2.44198e-06
9.77188e-05
1.02358e-05
1.22981e-06
3.97888e-06
1.20356e-17
2.78496e-05
8.36086e-18
5.93738e-06
2.41485e-17
9.09415e-05
2.74817e-18
2.5772e-05
2.91931e-07
5.99043e-10
2.22149e-18
2.44788e-06
1.71598e-18
9.56979e-05
5.8407e-05
9.09208e-18
1.75534e-17
5.07337e-18
2.5467e-18
1.66572e-12
6.52239e-05
3.43528e-18
5.40593e-18
2.97178e-06
1.37401e-18
4.0289e-05
6.55961e-18
3.78293e-07
2.42069e-17
5.93809e-07
1.27745e-09
1.21281e-06
1.56399e-05
6.8582e-18
4.89367e-07
1.8086e-18
8.62778e-20
1.82281e-05
3.93318e-18
3.70517e-08
1.99313e-18
1.91411e-06
3.03081e-17
7.77653e-05
2.15796e-18
1.25281e-17
2.10386e-05
4.06493e-06
2.09294e-06
4.76256e-06
8.17274e-06
2.48827e-05
2.01553e-17
2.96765e-05
7.48603e-06
3.22095e-18
9.58951e-11
4.76269e-05
1.79371e-05
3.52437e-18
4.73268e-06
7.89384e-06
2.03067e-06
1.28357e-06
1.97029e-13
1.62998e-05
1.44024e-06
1.62055e-07
2.88676e-05
1.64188e-05
7.71478e-07
3.87546e-18
3.89723e-12
0.000777437
2.5794e-18
4.2559e-07
1.63239e-18
1.1325e-17
8.81097e-06
3.45459e-06
2.57317e-10
1.78551e-08
3.83359e-18
1.99234e-05
1.32512e-05
9.53807e-19
1.54979e-13
2.33043e-06
9.44903e-18
2.28363e-18
1.55123e-19
3.7227e-18
1.59491e-05
1.07909e-18
8.53829e-18
1.06198e-05
2.36069e-06
9.07174e-17
1.26484e-05
1.13476e-17
1.01652e-05
2.6337e-18
7.54522e-18
6.39468e-05
7.7312e-19
9.18245e-19
1.09188e-17
5.2934e-06
7.22667e-18
3.51408e-05
7.49489e-06
5.24559e-20
0.000103628
2.9596e-06
3.40335e-05
3.33642e-05
5.93693e-07
9.51439e-08
4.19372e-19
6.52151e-05
5.53885e-05
2.44895e-17
3.84164e-07
4.7757e-05
9.2312e-06
1.72235e-06
3.2866e-05
3.11142e-05
2.19439e-18
1.28012e-05
6.41414e-09
3.11313e-18
4.1246e-05
3.14442e-07
5.83483e-17
1.30614e-05
4.82748e-05
1.64085e-06
2.53547e-05
2.33208e-05
8.45139e-06
8.74661e-18
1.2229e-05
3.91138e-07
6.45876e-15
2.03415e-05
2.11414e-05
4.29892e-05
2.14763e-18
2.26494e-06
9.90724e-18
1.01498e-18
7.49912e-19
1.96634e-18
1.70874e-08
6.85431e-18
3.25338e-13
1.35656e-17
2.51818e-18
9.05082e-08
5.17647e-05
3.21232e-18
3.85126e-05
7.96054e-19
3.3668e-17
1.91039e-17
4.66934e-05
4.917e-07
1.99623e-17
1.72437e-18
7.79991e-19
1.41439e-18
0.000252449
8.28045e-05
1.6811e-17
2.34735e-06
2.62346e-09
4.99362e-18
4.44716e-05
9.87172e-06
1.45786e-05
1.16386e-18
1.10824e-17
5.07815e-07
1.29618e-06
1.55265e-18
1.85306e-17
8.455e-18
8.71648e-06
3.65084e-17
3.43477e-17
3.4151e-18
4.97715e-05
2.38706e-06
2.5686e-19
0.00466939
0.00038344
1.21893e-05
2.36765e-19
3.15129e-18
6.60952e-05
4.87991e-07
1.60673e-18
7.03733e-09
0.0001421
2.98033e-06
1.35322e-05
1.20216e-17
6.39134e-05
2.20677e-06
7.01703e-18
6.09971e-18
6.17915e-19
2.67499e-18
1.91304e-18
2.29817e-18
2.61776e-05
9.12742e-18
2.88267e-19
7.85566e-18
1.37893e-05
2.77972e-05
2.69675e-18
3.20886e-18
0.000127055
1.70973e-05
1.13628e-05
1.08073e-17
3.48706e-19
4.43068e-05
1.27877e-17
2.13076e-06
3.0894e-06
4.56398e-06
1.30106e-17
4.11928e-18
7.07353e-18
1.90106e-18
1.8023e-05
9.75821e-19
6.63306e-18
1.19056e-06
8.65048e-18
2.73384e-05
2.19985e-06
3.35055e-18
4.42684e-05
0.000451213
3.02157e-06
3.48552e-05
1.74046e-07
5.34007e-05
1.09254e-13
1.01595e-17
2.80336e-05
8.34185e-05
7.26804e-06
1.17624e-18
8.02391e-13
0.00087703
1.20556e-05
4.44217e-18
3.0134e-06
3.12179e-06
1.43647e-06
1.90149e-17
2.8702e-18
1.57772e-18
1.57875e-05
9.34472e-18
3.06845e-06
1.04962e-17
1.53332e-06
1.66616e-06
4.36958e-05
6.62905e-07
7.01823e-18
1.34906e-18
2.68216e-18
2.46225e-05
1.34428e-18
1.59867e-18
7.97299e-08
2.35505e-18
7.67316e-19
3.16194e-19
1.44444e-18
1.18896e-05
4.87859e-18
6.12837e-18
6.10541e-13
9.08835e-18
9.97129e-19
1.29217e-16
5.30598e-18
3.42925e-09
1.91697e-06
1.95465e-18
4.69046e-06
8.23138e-09
3.54038e-10
7.36607e-08
4.89303e-06
1.07341e-18
1.12138e-08
1.17637e-05
4.71706e-07
1.14179e-17
3.12496e-12
1.00289e-06
1.99102e-18
1.15644e-05
2.2299e-07
2.00734e-09
2.82805e-05
1.11083e-05
2.69795e-06
6.02423e-06
2.39999e-06
1.18401e-18
3.18465e-18
3.91336e-05
3.11643e-05
2.66098e-17
9.92983e-06
6.4423e-05
3.39338e-05
3.14876e-18
1.54033e-06
4.45007e-20
1.2344e-05
1.65755e-05
1.49559e-18
1.87333e-06
5.52877e-07
1.43914e-09
5.84907e-06
8.8973e-19
5.82922e-05
1.79242e-08
1.82749e-06
3.89714e-08
1.42805e-08
3.49673e-19
9.36803e-18
8.474e-06
5.24997e-18
1.3916e-07
3.05549e-07
3.23767e-07
6.16054e-11
8.36842e-11
4.56806e-10
2.9235e-19
3.00545e-18
2.76165e-05
8.46803e-18
1.70117e-07
2.45426e-06
1.98088e-18
2.45415e-18
7.1122e-10
1.06583e-12
1.51033e-18
5.80583e-09
4.1948e-18
4.20497e-18
6.48556e-18
4.73828e-18
1.63992e-17
9.97425e-18
3.35307e-07
9.85848e-18
1.88549e-18
1.10942e-17
7.51262e-09
6.35611e-08
2.17139e-06
1.11604e-05
4.11735e-19
2.46171e-18
2.05649e-07
3.43953e-18
3.90603e-18
2.07293e-16
2.22427e-05
5.05119e-05
4.23644e-18
6.1535e-19
8.18453e-18
5.72143e-18
7.09054e-19
1.05024e-18
8.44084e-06
2.01724e-18
6.13812e-11
3.20186e-05
2.50823e-18
4.15984e-18
3.61089e-18
3.19428e-08
4.95748e-18
2.88368e-18
8.79145e-18
1.07862e-08
6.24932e-18
5.28656e-06
1.13735e-09
7.3941e-12
3.43004e-19
8.75867e-08
2.43264e-06
5.27796e-05
1.77989e-17
9.67829e-09
6.80474e-06
5.62279e-18
1.23273e-19
9.44994e-17
9.41281e-19
9.99178e-06
1.98049e-06
3.9676e-06
2.06243e-10
3.95614e-19
2.63554e-05
5.26508e-18
8.69102e-18
9.61718e-17
3.89059e-18
3.14377e-05
5.66585e-18
1.52405e-17
2.11818e-09
6.11166e-05
2.09465e-17
2.89805e-06
7.97537e-19
1.0179e-06
1.07028e-18
1.56382e-18
8.45041e-19
1.65426e-18
2.93927e-06
7.24482e-07
0.000364351
3.70936e-19
3.87803e-18
2.41755e-06
2.9335e-18
9.47759e-18
1.13507e-17
4.42112e-05
1.09148e-08
3.82841e-05
7.849e-18
1.21687e-08
5.69353e-08
1.47521e-17
1.43781e-07
1.72377e-18
1.47769e-06
3.04908e-05
2.43347e-05
1.47314e-06
2.87922e-07
2.61681e-18
3.59365e-19
6.72027e-18
2.53537e-08
4.53664e-18
8.721e-06
9.48817e-18
0.000210691
2.3976e-19
4.92653e-05
3.76783e-06
8.18396e-18
9.03838e-19
4.61541e-18
4.35901e-18
4.84486e-05
4.3407e-18
1.26231e-16
1.42389e-05
8.07006e-06
2.92489e-18
2.08553e-17
1.63093e-17
5.06829e-18
2.507e-17
9.23738e-19
3.03913e-05
5.03564e-07
5.01623e-18
7.32007e-19
6.03691e-10
9.97475e-19
1.88581e-06
1.30159e-07
4.78505e-18
4.11734e-06
3.54776e-18
4.47121e-07
4.17605e-19
1.29625e-06
8.73832e-18
9.15638e-11
2.52894e-09
7.66398e-07
2.1334e-05
4.01338e-05
1.40484e-09
8.36335e-19
5.88972e-07
7.50354e-18
5.44716e-06
1.96309e-18
7.02741e-18
2.391e-17
4.50885e-18
3.02157e-19
1.84508e-17
8.47186e-06
9.5429e-06
1.15843e-18
2.11248e-18
1.28582e-17
8.92915e-07
1.62584e-08
1.64794e-17
2.17428e-05
2.19812e-07
9.28113e-18
2.78388e-05
9.7979e-06
4.25125e-06
1.39516e-05
1.93289e-18
5.17419e-18
1.46715e-19
2.43482e-18
4.40786e-05
1.42919e-18
0.000135521
1.46337e-19
3.6849e-07
8.71786e-07
1.19305e-17
1.11791e-06
3.54848e-18
2.96676e-18
3.6008e-06
2.67423e-11
1.09931e-05
3.61508e-18
1.38854e-17
7.0389e-19
9.80384e-07
2.92468e-18
1.4677e-18
3.00011e-18
3.52399e-10
6.73812e-19
8.47047e-09
3.53347e-18
1.06754e-18
4.04908e-19
2.1681e-05
1.18173e-05
2.18254e-05
4.30143e-05
1.44306e-17
1.86439e-08
5.15437e-18
8.07323e-19
1.18302e-05
3.46147e-19
2.66791e-09
4.19579e-07
7.88315e-06
4.21128e-07
1.30384e-12
2.30407e-06
2.24161e-18
1.36251e-12
5.75115e-13
1.46705e-07
9.6619e-07
1.75916e-05
7.26024e-11
3.10979e-18
3.64932e-05
1.92459e-18
3.52007e-19
1.75145e-08
8.9515e-05
6.98222e-11
3.90564e-19
4.44912e-18
3.76907e-10
8.41983e-18
1.20497e-18
2.06831e-08
2.16521e-17
1.02547e-17
4.82385e-05
2.60539e-07
2.0518e-07
2.70664e-05
8.68864e-06
2.53781e-18
4.42839e-19
1.95028e-08
4.8538e-06
4.63395e-19
1.10284e-17
1.16465e-05
7.74937e-19
9.29479e-18
1.39893e-18
3.91738e-18
2.69568e-16
0.00308701
2.02296e-18
2.53948e-07
1.13999e-18
2.48385e-05
1.81052e-18
1.34836e-15
4.80132e-18
2.00787e-18
6.79123e-18
4.19485e-18
3.41441e-06
1.56619e-18
1.3764e-17
9.37812e-19
5.15212e-19
1.53375e-18
1.4492e-18
1.16833e-05
7.71889e-18
1.32482e-05
3.61963e-06
1.47807e-18
1.92633e-06
3.61887e-18
5.80684e-07
2.34391e-09
4.59983e-06
1.58587e-05
2.06727e-18
1.08864e-07
9.40815e-06
1.04087e-08
4.14221e-18
2.97293e-09
2.21432e-05
5.64679e-06
1.56545e-18
3.11288e-05
3.78812e-18
2.04283e-18
8.63213e-18
2.85466e-18
9.75899e-06
1.17853e-17
1.585e-18
9.8271e-06
3.4404e-10
3.21724e-06
1.30686e-18
1.26891e-16
7.92902e-07
1.00999e-18
8.62968e-08
1.30889e-17
2.766e-05
1.95422e-18
5.4665e-19
6.64902e-08
7.6748e-18
1.62004e-07
3.52397e-18
4.72428e-19
5.72945e-06
5.04073e-07
5.69719e-06
1.86443e-05
0.000263787
2.42646e-05
1.48607e-18
3.11208e-17
3.49555e-06
8.02627e-06
4.35123e-05
1.30781e-05
5.90812e-18
1.44221e-05
3.48518e-18
2.54862e-18
1.07407e-05
1.29461e-05
7.71324e-18
1.56273e-05
7.75996e-18
3.26994e-06
1.03855e-05
3.55802e-18
1.67734e-18
1.44315e-18
3.30559e-06
1.41844e-17
1.1892e-17
4.93272e-06
2.51866e-05
4.31702e-09
8.90047e-06
2.18131e-18
1.16676e-18
9.72732e-08
8.99129e-07
3.34616e-18
1.22933e-05
1.61606e-17
3.13513e-06
9.38936e-19
1.37407e-18
1.45982e-05
1.8987e-17
4.65416e-08
4.26086e-06
3.85116e-19
1.69859e-18
5.19577e-06
6.1454e-14
6.26666e-05
6.41978e-18
0.000309975
1.75369e-17
1.78785e-17
2.70325e-17
8.84323e-06
2.66324e-17
2.14709e-18
6.59644e-06
8.93473e-18
2.84257e-07
8.48491e-19
2.63423e-18
1.97345e-18
1.27075e-10
9.16535e-07
1.57219e-18
7.81003e-19
4.19369e-05
1.11234e-06
4.27987e-18
5.22003e-07
1.4323e-17
7.66299e-18
1.93085e-09
3.16673e-06
1.5433e-06
5.81583e-18
1.11973e-18
1.8029e-18
2.409e-19
1.95285e-18
1.56558e-17
3.8699e-18
1.64092e-18
1.42087e-18
7.3937e-18
1.56613e-18
4.87286e-19
9.88612e-18
4.72006e-18
1.02648e-19
1.59766e-19
3.98965e-18
1.85052e-18
1.8233e-18
1.00735e-18
3.99772e-17
2.0907e-05
1.00078e-17
6.44498e-18
2.68668e-18
7.80209e-06
1.31988e-17
1.03935e-18
0.000335406
1.62473e-18
2.00204e-19
2.74103e-05
3.05713e-15
7.5179e-19
8.75543e-06
2.89926e-05
5.10201e-19
3.10887e-06
4.68691e-06
4.5856e-18
1.55927e-05
4.67265e-05
2.10626e-05
3.96412e-06
1.26911e-05
8.28427e-18
3.0033e-18
3.47702e-06
1.23529e-05
3.76463e-06
6.31034e-18
7.6976e-06
2.06025e-06
2.51479e-05
1.21959e-05
8.12573e-07
1.8378e-05
1.25617e-06
1.19053e-05
1.18203e-17
2.96304e-05
9.95953e-06
1.96624e-06
1.5926e-06
2.7506e-18
1.30979e-18
9.30577e-18
3.98131e-18
1.12732e-18
1.0793e-05
1.6063e-05
3.62061e-18
7.96365e-19
3.69329e-17
1.22083e-19
1.99667e-18
6.13775e-19
8.28767e-19
1.59546e-17
5.37627e-06
2.04451e-07
2.56275e-05
7.83679e-08
6.8675e-20
7.70747e-18
3.67508e-05
7.80189e-09
2.73714e-18
2.31971e-18
8.55609e-06
1.59237e-18
3.59294e-18
4.12743e-09
9.2664e-06
1.59358e-05
3.95599e-05
3.99761e-05
1.55808e-18
1.66424e-05
3.8846e-07
1.05673e-18
4.53266e-18
1.38438e-05
4.08513e-18
1.93999e-18
2.03114e-05
0.00123589
2.02644e-07
5.67555e-18
6.75729e-20
2.08519e-05
2.40477e-05
2.05938e-05
6.76067e-06
4.69989e-06
1.09985e-18
1.21955e-09
3.1347e-12
1.12011e-17
1.02603e-18
2.03505e-05
9.95286e-19
2.353e-06
2.97228e-05
2.05479e-05
1.37002e-05
2.46334e-17
7.08285e-06
7.90717e-18
2.30457e-18
7.62213e-18
4.31635e-19
2.8964e-06
0.0010269
1.23747e-19
2.3738e-18
3.28975e-09
2.72e-05
1.28322e-06
8.08385e-06
3.85305e-05
5.60859e-06
2.40245e-05
1.31944e-18
7.31639e-18
5.44777e-18
3.53932e-05
6.6378e-06
3.03196e-11
1.14071e-18
1.44219e-18
8.69032e-17
2.59478e-05
3.25726e-06
3.77887e-18
5.69535e-06
6.75068e-05
7.9141e-06
7.14782e-06
2.74783e-18
1.48182e-18
8.07479e-06
2.64307e-05
3.01485e-19
3.89354e-07
1.69918e-05
1.15933e-06
1.07179e-05
5.40489e-06
9.38933e-06
5.00473e-17
3.90376e-06
2.40066e-05
4.25769e-05
5.30842e-13
2.65994e-05
1.86981e-16
1.91035e-05
1.82311e-07
3.05994e-19
2.98619e-06
8.69978e-06
4.34982e-07
1.32942e-05
3.09353e-10
1.56149e-07
1.75153e-08
4.62862e-05
4.20061e-06
8.23343e-18
4.48209e-05
1.48629e-06
2.14824e-18
9.03286e-19
4.74691e-11
1.13493e-08
1.19148e-06
0.00127769
4.04245e-05
1.36419e-05
2.4473e-10
5.11358e-05
1.57177e-18
7.6843e-18
4.5712e-06
7.33071e-18
2.46244e-06
5.01025e-06
2.48995e-06
5.34485e-06
2.28564e-18
2.3929e-07
0.000124896
2.47902e-18
2.45056e-05
8.59688e-06
1.67851e-18
4.5965e-06
1.66231e-07
1.49694e-17
8.53748e-12
1.07076e-07
8.02836e-18
1.22063e-18
2.70058e-18
5.04147e-06
5.47926e-06
1.63246e-05
2.79493e-18
5.76368e-06
3.79156e-05
1.14636e-18
9.17056e-06
1.41797e-05
2.79712e-05
1.75557e-06
5.94394e-18
6.78193e-07
1.08307e-05
1.19397e-05
1.02975e-05
4.30709e-05
0.000188483
3.86119e-06
1.08547e-17
8.4239e-09
5.8082e-05
6.02643e-18
4.86951e-07
2.57679e-18
2.00829e-18
4.06326e-18
5.53916e-18
5.70371e-19
3.68892e-06
2.49582e-18
8.15802e-06
1.34368e-06
1.26569e-18
4.40342e-06
1.39341e-17
1.61515e-05
1.03361e-17
2.37406e-08
1.35144e-18
2.5105e-05
1.76928e-07
2.71538e-09
4.76258e-06
3.28569e-05
1.92325e-05
4.41779e-06
3.07786e-05
6.54275e-15
2.56461e-05
6.18095e-05
1.06781e-05
6.69867e-18
1.28945e-06
3.04331e-07
6.35628e-06
1.18849e-05
6.90834e-07
4.52678e-17
8.22296e-18
1.29409e-18
4.13005e-06
2.60455e-18
2.86966e-07
2.50987e-07
1.69667e-06
3.19529e-07
4.10504e-18
4.93482e-17
6.23851e-18
9.86768e-06
2.45219e-05
1.40497e-06
1.05915e-08
2.14818e-06
7.79097e-06
2.24442e-06
9.20072e-07
7.72439e-06
6.77403e-06
2.98228e-06
5.29231e-18
1.35336e-18
8.76568e-19
1.50923e-05
1.22591e-05
6.80063e-18
5.33054e-18
1.11103e-16
9.4062e-06
2.13852e-05
2.17534e-18
2.45559e-06
1.99871e-17
6.9332e-10
5.38751e-06
0.000100323
1.53805e-18
1.52141e-18
4.1575e-06
7.34079e-18
6.8459e-08
1.33824e-05
5.74806e-18
1.21947e-05
3.71261e-05
2.08497e-05
2.13282e-19
1.47872e-06
3.34298e-18
9.5601e-08
5.53592e-05
1.0732e-17
8.00168e-18
1.23311e-05
2.33229e-16
6.40508e-18
4.91173e-08
1.10717e-06
1.07627e-17
4.52911e-18
5.55548e-18
6.82635e-08
1.38735e-06
3.5379e-06
2.88308e-05
1.0454e-05
8.43402e-18
7.9531e-10
7.33498e-07
1.07078e-18
1.03422e-18
2.01469e-18
3.85896e-18
3.03722e-18
1.06002e-17
6.73118e-19
5.03481e-19
5.59161e-18
1.77937e-18
2.83714e-12
7.30047e-18
3.89688e-07
2.0293e-17
2.53891e-07
2.81205e-17
6.7201e-08
1.00647e-17
4.09436e-18
3.17971e-05
1.02591e-05
9.63085e-18
0.000101014
1.19485e-11
3.34271e-13
3.75803e-19
1.47958e-06
6.84606e-15
3.05835e-06
7.13745e-09
9.77585e-07
5.24763e-18
4.80895e-19
1.0114e-06
2.90123e-11
3.90502e-18
3.33959e-18
4.39066e-05
1.21604e-18
4.16565e-05
3.26934e-18
3.67942e-18
1.94518e-09
3.17121e-05
9.10238e-06
3.59416e-19
3.63369e-07
4.68189e-18
3.3889e-06
2.0135e-08
2.04748e-06
1.04931e-06
4.80711e-18
2.29524e-05
1.32198e-06
5.78757e-06
4.28535e-18
2.8243e-19
2.98043e-18
2.0245e-05
4.46027e-06
5.81607e-05
5.47767e-18
5.0631e-10
2.72155e-18
4.24672e-18
1.06412e-17
6.54419e-18
3.6375e-06
2.44332e-06
3.32032e-06
0.000357776
2.59646e-18
3.09334e-05
4.01707e-05
1.96067e-05
1.91297e-06
1.41149e-18
5.96812e-06
5.04659e-06
5.60093e-06
3.97403e-10
1.14173e-05
1.66536e-18
1.73636e-06
1.39838e-06
3.67867e-05
1.29297e-09
3.70482e-06
8.21343e-18
2.10185e-05
4.88096e-18
1.701e-17
1.85243e-06
3.73445e-18
6.99938e-06
1.26244e-17
5.86811e-18
1.32266e-17
6.35561e-18
1.67827e-17
8.92347e-07
9.27612e-18
6.24702e-07
2.56835e-18
2.90956e-18
2.0259e-05
6.15264e-06
8.85642e-06
8.46564e-06
9.46346e-18
0.000665548
6.15779e-18
7.86485e-05
7.44757e-18
2.00914e-05
2.6525e-05
2.65591e-06
6.39264e-05
2.18534e-17
2.44685e-17
2.83873e-19
2.43526e-06
3.92842e-18
1.86568e-18
1.99254e-05
3.92949e-18
2.9364e-19
5.99062e-06
2.02959e-17
1.43841e-05
7.44965e-11
2.14848e-18
2.10041e-18
4.46695e-18
1.82066e-06
7.59741e-06
5.49299e-18
2.56823e-05
3.80778e-07
3.44797e-19
0.000116392
7.60512e-19
1.77457e-05
2.03039e-05
3.95369e-06
3.18913e-18
2.00935e-05
1.08904e-05
9.48371e-07
5.97381e-06
1.40814e-05
2.16433e-18
3.27474e-17
2.00516e-09
9.25626e-19
1.93963e-18
2.04198e-18
2.21193e-05
5.04317e-05
4.98649e-06
2.43041e-06
4.12268e-19
5.62857e-05
5.17889e-05
4.7901e-06
2.77162e-06
1.04905e-05
2.36059e-05
3.01399e-06
4.01686e-18
8.39701e-19
9.58772e-19
7.7833e-06
3.19218e-18
2.80331e-05
5.42998e-18
8.4226e-07
6.18129e-10
2.94003e-06
2.50848e-05
4.15908e-18
1.33735e-17
2.79251e-06
4.11052e-07
2.94821e-18
2.33239e-17
1.38865e-18
3.7539e-08
3.57343e-07
1.6402e-07
9.30764e-07
1.13552e-05
9.84058e-05
1.69066e-17
1.21574e-17
4.69326e-19
4.25044e-06
2.03686e-05
2.26936e-05
3.96709e-05
2.03986e-06
3.30705e-06
7.19605e-19
2.03201e-17
1.45823e-16
5.23861e-18
1.07378e-05
2.54083e-05
2.29526e-18
2.02156e-17
3.25274e-18
1.0462e-17
4.32799e-19
6.67783e-18
1.5539e-05
3.54307e-17
1.12409e-06
0.000457083
2.66577e-18
1.61526e-08
2.59539e-05
8.39661e-07
5.65287e-18
4.56983e-18
5.55775e-06
1.40125e-18
1.60733e-05
1.19114e-09
2.76273e-05
1.93774e-18
3.33121e-15
4.53189e-18
1.7452e-18
1.1653e-18
1.88203e-17
0.000224106
3.33717e-18
6.69666e-06
1.36757e-06
5.7523e-18
7.17876e-17
2.19693e-06
2.95977e-18
8.17404e-19
1.48994e-05
1.39754e-07
1.67722e-18
4.82394e-18
1.15915e-17
1.91103e-05
7.48453e-18
1.70125e-18
4.59452e-07
2.9652e-06
3.4785e-06
6.88791e-18
1.09898e-18
9.7832e-18
4.31634e-06
2.09531e-06
1.47774e-05
4.21639e-06
8.27055e-19
9.08969e-07
1.37042e-05
7.35852e-06
5.30527e-19
7.66284e-18
2.64127e-18
5.70373e-17
6.35088e-18
3.5554e-05
6.03051e-06
6.22033e-06
2.54509e-18
2.0434e-19
7.96997e-18
3.86683e-18
1.40578e-18
1.09245e-09
2.79564e-07
2.58606e-06
1.3304e-18
1.94312e-17
9.87968e-18
2.77782e-12
3.94406e-05
0.000129816
5.92156e-19
7.86651e-13
2.17583e-14
4.73379e-18
6.79396e-18
4.37995e-06
7.59754e-06
2.73488e-19
5.27109e-18
3.29143e-06
1.74017e-17
8.0598e-07
1.26915e-06
0.00241673
2.34946e-18
8.64908e-19
1.39643e-05
6.00734e-07
1.9112e-18
0.000766255
6.77319e-07
7.34715e-06
2.23377e-18
9.41267e-18
6.72563e-18
1.76171e-18
9.15539e-06
1.07186e-07
2.25704e-17
2.88085e-05
2.18377e-05
0.00100043
1.44982e-18
6.17533e-19
6.24531e-18
2.14213e-18
7.44397e-06
7.37684e-11
9.43229e-18
1.27929e-17
2.14702e-05
1.07806e-06
5.63203e-06
3.07298e-18
5.41461e-17
3.29463e-05
9.43276e-18
5.25635e-18
1.72639e-19
7.56915e-19
2.51056e-05
2.92708e-18
5.76513e-18
1.18293e-17
2.89036e-05
1.39898e-05
6.89541e-19
1.02184e-17
2.33935e-18
1.75275e-05
2.0143e-10
1.56895e-17
1.24354e-18
9.90484e-17
6.40196e-18
2.72847e-06
1.24624e-05
2.99221e-19
2.34426e-06
1.25718e-06
5.41743e-06
2.53743e-17
7.42465e-18
2.32661e-18
8.93375e-18
3.99701e-19
2.26945e-05
2.75209e-17
1.67257e-05
1.62714e-18
1.73376e-06
1.08027e-16
2.68757e-06
1.97162e-19
2.24633e-19
1.23581e-05
0.00019541
1.13092e-17
4.04627e-06
5.78207e-18
4.38709e-07
3.53984e-17
6.76191e-18
1.86634e-18
1.86215e-10
3.22285e-18
3.60309e-07
3.62746e-18
4.03205e-05
5.20875e-18
8.24701e-18
2.97367e-18
9.63188e-18
8.90799e-09
1.5174e-07
5.71633e-18
6.2765e-06
4.07009e-18
3.22215e-06
2.14851e-05
1.42104e-06
5.36891e-18
5.21153e-09
4.92774e-07
2.4133e-09
4.94083e-06
3.73305e-10
1.87685e-06
1.75168e-18
7.37611e-19
4.85584e-10
6.44016e-06
2.67328e-07
3.61996e-17
1.00083e-17
1.52617e-18
0.000649577
4.87143e-19
4.7035e-18
1.02993e-17
3.46408e-19
1.17084e-19
3.62821e-08
1.99314e-07
1.15726e-06
7.60918e-08
1.00923e-15
1.6478e-06
7.51019e-18
6.41726e-06
4.63386e-18
6.35436e-19
7.66112e-18
6.91105e-18
2.18912e-08
2.93704e-18
2.962e-17
3.30325e-18
1.6568e-05
1.21075e-17
3.83968e-18
1.25022e-05
2.06873e-18
7.92765e-05
0.000139047
0.000632547
2.06598e-18
0.000229493
0.00133353
0.00138116
0.000747088
7.56916e-18
7.95692e-19
5.4977e-06
5.28576e-06
3.04449e-18
1.0043e-05
9.42666e-19
3.63354e-05
2.81955e-18
3.53473e-18
7.85713e-07
4.08381e-18
1.08062e-17
1.14033e-08
4.47152e-08
2.08402e-19
1.31132e-18
2.9591e-09
8.664e-18
7.35498e-18
2.27353e-08
9.33381e-06
1.67276e-06
3.01638e-17
8.66205e-06
3.95709e-17
3.96007e-06
4.43173e-10
8.13076e-06
2.19758e-18
1.7095e-11
6.27931e-06
3.23974e-18
1.70412e-12
2.73795e-18
3.63123e-05
2.28891e-18
1.09783e-05
4.20338e-18
2.22512e-10
7.58918e-18
2.18148e-18
9.5675e-18
8.63701e-13
5.59059e-13
1.43668e-17
1.36933e-05
1.01099e-05
7.43104e-19
8.97807e-18
3.68461e-05
1.95631e-05
0.00020496
3.87329e-18
7.47859e-08
2.79915e-05
5.16126e-05
6.87191e-11
2.15625e-19
6.39527e-05
4.15811e-18
0.000253645
3.82036e-18
3.9599e-11
3.91414e-11
1.82115e-19
5.6989e-08
6.88196e-18
2.39316e-05
1.23521e-17
1.10982e-18
5.29818e-18
4.70643e-18
1.34139e-18
4.57834e-18
3.38196e-07
2.09852e-06
0.000151055
1.38478e-17
3.19778e-18
4.57962e-05
1.02559e-18
2.35598e-20
7.81829e-18
1.69523e-17
3.62588e-18
6.47598e-06
1.39273e-18
6.92557e-18
2.06509e-19
3.61952e-06
4.55497e-18
7.01615e-18
1.09945e-18
3.54943e-06
4.08655e-19
6.72814e-06
0.000258488
5.70882e-06
5.90076e-06
2.93349e-05
6.79537e-20
8.03952e-18
6.85055e-18
3.35029e-06
1.95779e-06
5.78737e-19
4.3892e-18
6.471e-07
7.53705e-17
1.58635e-17
0.000370638
1.20138e-17
2.4493e-05
6.56865e-18
2.58934e-06
3.73168e-06
4.76907e-18
2.78604e-18
1.04066e-17
5.11745e-18
2.02738e-18
2.09427e-05
1.94952e-17
5.06626e-06
2.63013e-18
1.70114e-18
7.43297e-06
6.52007e-18
1.42454e-05
2.05361e-17
2.5915e-18
2.67716e-06
8.60659e-08
0.000155177
1.70049e-16
1.99151e-17
5.44857e-18
4.05564e-06
0.0001979
2.86597e-18
1.61429e-18
1.78583e-17
1.66186e-06
1.04964e-17
2.19279e-05
3.42509e-05
3.12623e-17
6.74621e-19
7.86195e-06
2.74609e-17
1.21797e-17
8.16842e-19
2.73271e-17
3.24416e-18
7.50069e-05
5.94871e-17
4.17055e-18
4.23576e-19
3.40873e-17
2.96148e-18
1.07194e-17
4.54387e-18
1.7389e-18
1.9497e-17
8.59873e-06
7.24564e-18
9.07049e-06
4.06941e-17
1.06979e-17
0.000641068
2.91674e-06
9.90492e-18
1.05292e-17
4.70217e-18
2.59389e-06
2.09059e-18
3.33786e-18
1.9704e-17
5.43129e-18
7.78217e-06
4.33215e-19
5.32987e-06
5.40067e-19
1.06657e-05
2.51849e-19
6.28873e-05
1.95834e-17
3.03439e-18
2.31868e-05
2.28742e-18
8.21946e-19
2.96371e-05
3.04471e-07
5.26159e-17
9.38683e-18
4.07382e-05
1.11902e-05
6.93039e-06
8.98973e-07
1.94832e-06
1.88778e-05
1.05213e-06
5.45539e-06
1.75173e-17
3.12241e-05
1.34707e-17
7.38174e-19
2.30148e-18
1.20937e-17
4.37191e-18
1.11355e-05
6.09052e-18
8.93273e-20
5.48086e-19
2.91265e-09
1.03439e-08
1.76365e-17
2.56215e-06
4.22443e-17
4.66328e-06
6.72909e-19
1.32904e-09
3.97041e-06
2.69847e-16
4.95837e-05
1.96477e-18
4.27709e-18
4.0557e-18
3.18498e-06
1.45119e-06
3.6318e-18
1.51913e-18
2.70486e-06
8.30213e-18
0.000726262
3.33747e-18
0.000112265
6.38095e-18
2.89004e-18
4.66709e-17
8.06852e-18
1.07968e-05
3.20572e-18
4.39954e-08
9.8718e-20
1.0759e-05
3.01253e-18
3.30473e-18
7.70482e-15
7.27285e-17
8.55764e-18
1.49805e-17
3.05663e-17
9.49263e-17
4.75075e-06
0.0002132
2.37217e-18
1.01228e-17
4.05158e-07
2.83724e-18
6.94019e-19
1.29818e-09
1.88923e-05
1.63948e-07
1.08405e-17
7.41219e-07
3.68472e-06
5.64104e-06
9.22983e-06
9.78497e-18
2.26625e-20
2.11715e-18
2.55402e-17
1.5884e-19
5.11513e-18
9.85419e-18
6.65954e-18
9.06156e-18
5.85752e-19
4.77041e-19
2.69341e-19
8.29964e-05
6.01833e-18
3.44451e-18
3.05848e-13
6.86245e-17
1.73733e-18
0.00121872
1.09619e-18
8.08436e-19
2.12995e-06
1.74839e-12
1.60937e-18
8.41437e-19
2.90364e-18
2.49637e-05
1.99817e-18
1.12091e-17
5.53988e-11
2.65039e-18
1.62553e-17
2.96263e-18
6.52873e-18
0.000126168
1.82678e-18
1.91108e-07
4.31211e-18
6.42636e-18
1.16161e-18
6.25442e-18
3.80297e-19
2.22806e-11
4.40452e-11
1.26994e-07
3.3966e-17
2.44327e-18
7.0553e-19
1.07625e-10
1.32144e-18
3.34357e-10
1.30109e-11
8.51961e-18
2.11758e-18
9.42962e-19
5.63878e-12
1.61673e-18
1.55654e-18
2.47927e-12
4.68952e-18
3.50756e-05
1.61629e-18
7.67564e-06
4.01348e-18
2.54789e-09
5.47462e-18
1.65629e-06
1.65804e-18
4.75333e-06
2.84289e-05
9.14753e-18
2.88718e-06
1.53685e-08
1.21274e-18
1.1899e-05
4.36715e-18
4.36701e-19
6.51131e-18
2.03017e-18
4.38904e-18
4.37011e-19
3.42826e-18
5.66125e-18
0.000316832
7.43999e-19
4.83762e-18
5.30278e-18
1.463e-19
3.90443e-18
3.56101e-05
0.000922601
3.43374e-09
1.31572e-08
2.50049e-18
2.29979e-06
1.57055e-06
1.07186e-17
2.18983e-18
6.44619e-18
1.69277e-18
2.42257e-18
7.56251e-18
1.62974e-18
2.65202e-19
4.55133e-07
6.82713e-18
5.2891e-19
2.33454e-07
3.78228e-09
4.14807e-17
2.96082e-05
4.74725e-18
5.47753e-18
8.16945e-18
0.0001967
1.55709e-17
1.8165e-19
2.88352e-05
3.1389e-18
2.91872e-17
9.89906e-19
4.14569e-18
6.21153e-05
1.93547e-19
1.44948e-18
3.6059e-18