/*--------------------------------*- C++ -*----------------------------------*\
  =========                 |
  \\      /  F ield         | OpenFOAM: The Open Source CFD Toolbox
   \\    /   O peration     | Website:  https://openfoam.org
    \\  /    A nd           | Version:  10
     \\/     M anipulation  |
\*---------------------------------------------------------------------------*/
FoamFile
{
    format      ascii;
    class       volScalarField;
    location    "7.4";
    object      T;
}
// * * * * * * * * * * * * * * * * * * * * * * * * * * * * * * * * * * * * * //

dimensions      [0 0 0 1 0 0 0];

internalField   nonuniform List<scalar> 
111485
(
303.15
285.117
300.984
303.15
298.426
283.15
298.935
293.398
296.346
286.262
300.526
296.214
300.222
284.579
299.985
286.773
299.304
298.051
294.063
303.15
303.15
283.15
297.255
288.712
301.546
303.15
293.212
300.619
288.876
303.15
300.735
294.316
303.15
283.15
283.452
283.15
302.285
297.613
283.149
296.606
283.15
289.611
297.023
302.884
303.191
303.15
287.394
288.571
289.651
303.15
303.15
283.15
303.15
298.934
303.15
293.517
287.912
283.15
283.323
295.454
295.855
303.15
302.058
300.282
283.15
284.56
300.328
291.544
302.112
302.531
303.163
301.902
303.15
302.109
303.15
295.364
283.15
293.479
283.15
283.15
283.239
293.39
283.15
303.15
300.321
284.216
283.15
301.552
303.119
299.097
283.344
289.597
300.87
300.375
289.792
303.15
303.15
301.553
303.149
283.417
303.15
286.674
283.15
285.179
285.756
283.15
283.15
293.064
301.458
283.146
298.913
288.078
301.297
301.704
303.15
301.982
303.15
283.15
300.134
303.15
303.15
283.15
283.15
283.15
283.401
303.151
283.15
301.816
303.15
283.177
303.085
301.945
303.15
283.15
283.15
292.513
283.15
294.229
298.792
301.094
303.137
296.819
298.971
284.778
302.281
297.809
283.15
303.15
283.15
297.14
284.937
303.15
303.144
287.335
283.156
293.725
295.636
302.524
283.154
303.15
303.15
292.19
286.256
283.153
283.157
301.186
283.688
283.15
283.152
283.152
283.15
303.15
283.206
283.15
291.537
287.184
283.15
303.15
303.15
283.15
303.15
303.15
297.646
293.508
295.794
289.779
301.381
300.426
283.19
303.15
301.449
303.15
303.15
300.161
286.29
301.409
301.327
295.761
303.15
300.883
284.602
283.16
300.781
297.057
303.15
300.419
288.218
303.15
283.226
300.183
284.813
300.689
303.15
303.15
300.703
283.15
292.783
283.15
300.608
298.716
290.381
303.15
301.754
300.535
283.15
283.15
283.15
289.503
283.157
283.15
303.15
298.652
291.388
289.927
283.15
303.15
303.107
303.15
284.336
300.085
299.263
299.511
299.381
283.15
283.144
298.859
283.15
283.15
288.761
288.373
283.15
301.186
298.878
303.15
283.15
301.016
303.15
303.15
303.121
303.15
288.273
285.868
290.8
303.15
298.338
303.15
303.15
303.15
283.148
298.097
300.975
299.419
291.208
299.477
296.233
283.211
290.348
291.595
283.15
303.15
283.149
292.447
298.735
286.467
303.15
297.988
297.254
298.887
302.961
283.166
297.098
299.358
302
283.15
283.61
283.15
283.149
303.15
283.896
290.27
286.317
303.15
283.15
297.587
285.254
303.15
303.15
303.15
284.593
290.254
301.063
284.408
293.023
283.15
283.15
303.15
298.348
303.15
283.823
289.518
283.152
283.15
303.15
303.15
283.15
294.353
289.97
283.15
295.712
283.15
303.15
301.076
297.296
293.978
295.82
283.15
283.15
283.15
296.608
291.023
302.364
283.15
283.15
283.15
290.092
296.941
283.214
290.484
283.15
292.793
299.555
284.203
298.69
285.266
283.15
303.15
283.15
303.15
290.675
296.633
287.953
291.951
283.15
286.365
283.15
303.15
293.812
303.15
301.779
303.15
283.15
291.962
283.15
288.795
284.629
283.15
283.987
298.026
283.15
300.146
284.675
298.84
303.024
291.068
286.007
283.15
303.15
303.144
283.15
300.984
300.856
283.15
283.15
294.695
284.371
298.194
296.818
283.15
295.137
296.117
283.15
302.052
283.9
303.15
303.15
288.265
298.588
283.15
303.15
303.15
303.15
300.734
283.15
303.15
293.946
283.171
286.973
299.966
283.15
283.15
302.612
283.15
302.461
301.44
297.86
288.892
283.15
293.923
303.381
303.15
298.639
292.31
303.15
283.15
283.307
283.15
290.046
286.108
291.663
283.15
292.882
296.581
293.075
303.147
283.15
303.15
303.15
283.169
292.741
283.15
284.323
303.133
283.15
303.15
303.15
303.15
301.82
290.533
286.005
284.194
284.319
283.15
285.708
303.15
300.735
283.15
303.15
303.15
300.673
303.15
303.15
283.151
303.15
283.15
300.674
283.15
283.15
283.15
303.15
283.15
303.15
283.15
283.667
283.15
303.126
301.847
283.746
283.15
303.084
283.15
303.15
284.715
284.677
286.127
297.527
283.15
297.486
297.599
292.308
286.825
285.275
303.15
291.773
283.15
299.861
283.15
296.789
283.15
292.096
298.583
303.151
283.15
286.806
303.15
295.505
299.085
283.15
283.15
283.15
283.15
303.15
293.682
283.15
283.15
283.238
283.15
299.814
283.15
284.802
303.15
283.436
303.121
284.643
291.918
283.15
301.458
283.15
283.15
285.701
283.15
283.255
283.15
299.667
303.15
290.674
303.15
283.15
302.381
284.474
300.083
285.665
300.082
289.476
283.15
300.626
284.554
283.15
283.14
300.341
301.589
283.15
282.444
301.062
303.063
283.118
303.15
287.579
302.17
284.41
285.398
288.215
282.546
283.15
303.15
300.621
303.15
283.55
283.15
283.15
291.778
282.673
303.149
303.118
283.15
286.286
299.58
283.15
283.15
299.594
303.15
283.15
283.15
283.15
286.167
283.15
303.15
284.83
284.227
303.15
299.687
283.15
289.249
303.15
283.15
286.163
283.15
283.15
283.15
285.381
283.15
285.453
291.973
303.15
300.366
283.449
298.707
300.941
283.32
283.459
283.15
288.976
298.437
303.15
302.26
296.039
296.87
284.721
297.434
297.184
303.15
300.247
303.136
283.15
297.139
284.835
283.15
292.382
295.718
284.855
298.763
300.624
292.34
283.15
298.902
283.471
303.15
300.584
301.966
294.093
283.15
286.503
303.15
283.15
283.15
283.15
283.302
283.15
303.15
303.15
283.15
300.406
299.245
303.15
285.63
303.15
303.15
303.15
290.028
283.42
283.15
303.15
283.15
283.15
286.819
292.389
283.15
295.138
283.136
283.15
295.313
302.221
287.79
283.15
283.15
300.245
292.096
283.15
283.15
283.15
293.992
303.15
303.15
283.15
296.239
302.38
283.15
282.405
301.787
286.542
283.15
283.15
287.46
302.967
283.15
283.16
287.293
283.757
288.793
283.15
285.698
300.306
283.15
303.15
283.15
283.15
283.15
283.15
295.669
303.15
283.15
283.15
295.285
291.821
303.15
303.15
289.863
298.425
298.322
303.15
283.15
297.997
303.15
283.831
298.826
298.348
303.15
303.15
303.15
283.15
286.065
283.15
283.15
302.703
303.15
297.817
302.277
283.15
294.058
283.256
296.437
291.973
283.42
289.791
283.15
283.15
296.885
288.06
290.833
283.15
283.15
297.873
294.983
283.15
283.91
284.595
283.478
303.15
303.15
303.15
290.739
283.15
300.055
283.15
284.377
297.59
298.514
292.27
283.15
283.15
303.15
295.376
283.15
283.15
303.098
283.15
283.15
303.15
283.15
299.325
283.15
283.15
283.15
283.15
283.15
303.15
283.15
283.172
298.763
303.15
302.532
283.131
283.401
283.095
285.524
283.15
284.456
290.529
283.401
303.15
283.149
299.74
283.15
300.253
283.147
283.143
286.208
297.495
283.207
291.87
297.975
283.15
283.15
299.064
299.803
283.15
297.358
291.277
297.54
283.15
283.244
283.15
297.854
296.974
283.15
300.069
297.622
283.149
299.774
283.15
295.648
283.144
303.124
283.162
283.16
283.15
283.15
284.428
283.15
302.971
283.59
283.064
303.148
303.149
303.147
283.15
283.15
293.801
303.15
303.177
283.874
283.15
283.15
303.154
303.149
283.15
303.165
283.15
283.15
303.15
303.15
303.15
303.15
283.364
283.15
283.15
283.15
303.157
283.306
283.891
293.453
283.15
283.15
283.336
283.15
283.15
283.15
287.244
293.602
283.15
283.15
283.15
283.15
283.15
283.15
284.012
283.15
303.15
291.579
283.15
303.15
303.15
303.153
303.15
303.15
283.15
303.17
283.15
283.699
283.144
303.152
283.15
303.063
284.402
292.088
303.15
303.128
284.452
303.15
283.15
303.15
283.15
294.044
293.483
284.646
303.148
283.15
293.254
283.15
283.15
303.15
283.15
294.848
283.15
303.15
283.163
298.156
303.15
284.382
283.15
283.58
283.15
283.15
283.15
303.15
285.86
283.471
284.275
283.15
283.15
285.647
283.15
283.15
303.15
284.332
303.164
298.556
303.15
303.128
303.128
283.15
303.131
283.15
283.443
289.161
301.007
283.805
283.167
283.15
283.15
283.15
303.183
283.15
302.905
303.15
292.765
303.15
288.733
283.828
303.15
283.15
303.15
283.15
301.798
303.15
303.15
286.421
300.566
283.15
283.15
283.15
283.15
283.15
283.15
300.82
283.581
303.15
303.15
303.157
303.15
300.2
284.423
283.15
302.115
303.15
301.633
283.15
302.571
283.15
283.148
303.152
283.313
302.116
300.236
283.147
283.15
289.358
303.15
293.389
303.15
283.15
303.15
283.15
283.15
283.15
300.815
302.056
303.15
303.15
303.15
302.902
283.15
303.15
292.899
283.084
303.15
297.512
298.297
296.492
283.376
283.15
283.15
283.15
283.15
294.636
283.15
294.889
283.15
303.058
289.85
283.15
302.859
283.15
283.15
302.741
283.148
302.921
283.15
303.15
283.15
302.393
283.15
303.15
283.15
283.148
283.15
283.171
283.15
283.15
303.15
292.987
301.091
296.134
297.029
303.15
303.116
283.15
283.15
285.703
283.15
283.158
302.845
298.774
302.944
303.15
283.361
283.15
303.15
283.15
302.994
283.32
298.29
283.15
303.15
288.107
303.15
283.15
283.125
295.109
283.147
283.15
283.15
283.149
303.15
283.15
303.142
303.15
303.15
289.954
302.989
302.996
289.024
293.268
283.15
283.15
303.09
289.095
283.15
303.15
284.734
283.15
303.15
283.15
283.15
283.15
297.506
283.15
302.942
283.15
300.513
283.15
283.15
283.15
283.15
283.15
283.15
285.021
283.15
283.15
283.15
283.15
283.15
283.15
292.012
283.15
298.357
302.937
283.15
302.325
283.15
302.52
303.145
292.3
288.796
303.15
292.165
284.788
303.11
303.15
303.139
295.051
288.681
283.15
287.901
283.15
283.15
283.15
283.15
287.529
283.15
283.15
291.649
303.136
285.322
283.15
283.15
302.52
283.15
283.184
303.15
299.888
283.15
283.15
302.823
283.15
303.178
303.15
283.15
289.074
297.963
292.71
285.672
292.558
294.137
283.15
283.15
302.293
290.599
292.785
284.414
283.15
294.37
283.15
303.15
300.746
298.726
283.15
297.409
283.15
292.768
297.225
303.15
283.15
283.15
301.783
283.15
283.15
300.513
296.132
283.196
291.23
283.15
283.15
302.8
300.532
283.15
300.65
283.15
300.505
283.15
283.15
300.81
283.15
283.228
301.602
283.15
283.15
302.434
283.15
287.928
303.15
290.432
303.15
303.15
303.15
300.957
283.15
283.15
299.548
283.15
302.993
283.15
283.15
303.15
283.151
288.217
283.15
283.15
288.079
288.259
283.15
283.679
283.15
303.15
302.42
283.728
301.576
283.15
283.15
283.15
283.15
283.15
283.15
283.15
283.15
283.15
283.15
283.15
303.15
283.15
283.15
283.15
283.15
283.15
283.15
283.15
283.15
303.15
286.969
283.15
283.15
283.15
294.715
283.15
303.15
302.912
283.15
283.15
294.722
283.15
283.15
301.839
295.199
283.15
303.646
303.594
283.15
301.513
293.97
297.557
301.477
298.14
303.15
283.15
296.368
291.784
301.42
283.15
302.149
302.416
300.875
288.051
287.325
301.061
301.779
301.786
303.15
285.874
297.545
285.538
297.249
283.15
283.15
283.15
303.15
283.15
291.999
297.914
283.15
283.15
283.15
283.15
283.15
303.15
283.15
303.15
292.136
303.118
299.022
302.842
283.15
283.15
285.418
283.167
283.15
283.15
301.699
303.15
283.15
298.152
299.51
297.523
298.656
300.807
303.15
291.047
302.588
303.15
303.15
300.332
303.15
283.15
282.975
295.564
302.95
283.15
303.15
289.613
286.166
297.13
292.198
302.408
303.15
303.137
303.15
303.15
283.15
298.941
283.15
291.815
290.468
299.697
284.773
303.15
301.929
303.15
283.15
303.15
303.15
291.506
299.599
283.15
303.15
303.134
291.794
303.032
299.351
292.823
288.333
292.925
283.15
303.15
283.15
291.258
298.309
303.151
303.15
303.15
303.15
297.487
302.558
283.15
299.97
301.14
284.87
299.518
303.15
303.15
298.69
292.976
283.15
302.905
299.749
302.609
291.987
297.312
298.258
303.15
286.993
298.164
291.357
283.15
289.075
303.15
288.406
301.067
303.15
288.72
301.287
300.136
293.184
283.149
283.159
283.239
301.664
300.929
303.15
288.827
301.489
303.15
283.15
303.15
303.21
298.766
290.847
296.786
303.253
283.149
297.562
303.15
303.15
292.804
303.15
300.307
283.306
301.326
291.534
303.15
283.665
293.226
303.15
283.049
298.686
303.15
300.699
286.263
303.15
303.15
283.999
303.15
283.15
283.15
285.921
299.268
291.194
303.15
285.23
297.496
283.15
298.852
298.887
288.982
303.1
283.15
301.503
299.616
298.852
300.09
288.668
290.798
302.482
303.15
301.561
288.728
303.15
298.863
283.15
283.15
303.15
283.15
303.15
297.444
283.15
300.531
283.635
303.15
283.795
283.15
289.853
303.15
303.144
303.15
294.174
302.995
303.118
299.883
290.42
289.456
290.595
298.445
303.15
299.413
292.181
298.95
303.15
283.876
283.454
299.27
287.184
283.513
303.15
283.15
303.15
285.337
303.15
303.321
284.694
303.348
302.956
303.15
303.15
283.15
300.559
300.634
285.506
303.087
287.009
295.683
301.878
292.514
288.173
302.082
296.111
283.15
283.15
303.15
285.823
289.714
283.15
283.15
303.15
301.99
288.695
303.15
296.402
303.15
283.156
285.197
301.088
303.15
303.15
292.293
303.15
283.302
290.625
283.15
297.155
294.649
296.083
303.15
302.714
283.15
302.666
293.433
303.15
303.15
288.801
283.15
303.15
301.808
284.447
303.15
303.15
283.15
302.351
303.462
289.512
299.708
298.039
303.15
303.159
302.608
303.15
283.15
303.15
303.15
303.15
303.15
303.15
303.15
303.15
283.15
303.15
303.15
283.342
303.15
303.335
303.15
303.16
303.15
303.15
300.948
303.68
303.15
292.046
303.15
303.15
283.15
302.56
303.15
302.133
303.115
283.29
283.15
303.15
302.925
283.149
303.15
303.15
291.387
283.15
292.609
283.15
283.15
283.153
291.235
284.848
303.15
296.67
283.15
303.733
303.134
284.32
302.595
283.15
292.186
303.084
301.686
283.15
303.15
283.15
304.085
284.827
296.884
303.15
303.15
303.15
303.15
303.15
303.15
302.35
302.809
297.632
292.05
303.15
287.15
292.659
284.984
303.206
283.15
286.925
302.753
284.782
283.148
287.49
303.15
283.383
302.919
292.55
302.846
301.911
303.15
302.228
303.15
303.15
297.943
303.15
284.478
303.15
303.15
283.15
303.15
303.15
302.845
303.15
283.298
283.15
283.15
285.822
284.915
300.903
286.108
303.15
294.762
303.15
290.476
303.15
287.159
300.692
301.49
293.374
303.15
303.15
303.15
289.815
283.15
303.15
289.569
283.15
283.15
301.829
303.15
286.202
283.148
283.15
303.15
303.15
300.661
298.201
303.15
293.45
303.039
283.15
298.575
303.15
286.422
288.248
302.147
303.15
296.299
296.744
302.954
301.887
301.665
303.15
303.15
303.147
303.15
283.15
303.15
289.573
300.069
294.347
302.137
283.15
300.37
291.416
298.232
283.605
298.338
289.62
302.167
283.15
283.15
283.15
302.213
283.15
290.492
283.15
301.272
303.161
289.727
298.053
283.15
303.15
301.26
301.238
303.15
283.15
303.15
286.438
301.449
302.978
302.341
298.019
288.452
303.15
303.15
303.15
294.264
285.977
289.819
295.895
283.962
302.956
303.15
303.15
283.15
283.15
285.43
299.591
303.15
303.15
283.15
303.15
303.15
303.15
300.268
303.15
285.371
292.543
283.15
283.249
293.384
285.704
303.15
303.15
301.892
303.15
299.245
283.146
297.583
303.15
303.15
283.15
303.15
303.15
303.15
305.238
303.15
301.845
301.119
303.15
303.15
301.625
303.15
283.15
287.26
303.106
303.15
303.15
303.15
297.945
303.15
303.15
302.486
302.492
301.784
303.15
283.15
303.15
302.049
302.512
301.532
302.535
283.15
300.663
287.516
297.46
283.15
303.15
303.15
303.15
303.15
294.387
287.578
299.657
303.15
303.15
303.15
303.15
283.15
303.148
284.782
285.156
283.15
303.15
303.15
283.148
299.604
294.978
283.15
303.15
303.15
303.15
303.15
289.621
289.691
303.15
303.15
302.399
303.15
301.446
283.955
291.915
303.15
283.15
301.165
303.124
303.15
303.105
301.331
286.842
303.15
303.15
303.15
303.15
293.3
284.154
303.15
302.699
298.08
289.508
303.15
303.15
303.15
303.15
299.547
303.151
303.15
303.15
298.276
302.587
288.368
303.15
303.15
297.764
303.15
303.15
303.15
303.15
288.827
303.15
283.15
283.15
295.959
291.116
303.15
303.15
303.15
297.007
303.146
303.15
303.15
303.15
303.15
303.413
300.889
303.15
287.353
302.646
299.4
303.15
303.15
303.15
303.15
283.15
285.671
303.15
302.844
283.15
302.183
303.15
303.134
303.15
283.15
301.924
285.751
283.15
302.829
303.15
302.423
283.15
303.15
303.15
303.151
303.15
283.271
303.15
290.868
283.15
283.15
303.15
303.15
298.847
302.385
283.15
302.423
283.15
284.101
288.015
302.707
283.15
303.155
302.988
303.134
284.401
283.156
302.984
283.15
283.15
283.156
302.084
302.296
303.15
283.15
283.15
295.43
303.15
283.15
303.15
303.15
303.15
303.108
303.047
302.932
302.453
303.15
302.907
303.15
284.827
303.15
303.15
283.15
303.15
303.111
303.15
283.15
303.15
288.333
303.15
303.15
303.169
283.15
302.883
302.128
296.759
303.15
289.411
294.647
283.83
290.045
283.15
283.15
287.227
284.326
283.15
303.803
283.15
286.428
303.15
283.15
303.156
303.15
303.15
303.014
303.155
303.15
283.15
303.138
303.15
283.15
283.105
298.759
302.706
303.15
301.854
303.15
285.717
303.152
301.194
303.15
303.15
301.058
303.15
303.15
303.15
287.71
303.15
285.156
303.15
303.147
303.15
283.15
283.15
303.15
303.15
303.15
288.731
302.553
303.15
303.15
288.608
286.52
291.262
303.15
302.705
287.69
287.55
303.15
303.15
287.723
283.15
291.922
303.15
303.152
303.149
303.15
300.536
283.15
302.306
283.15
303.15
303.15
303.15
303.15
303.15
284.337
302.254
291.062
303.15
303.15
290.594
303.15
303.15
303.15
303.15
303.15
300.167
303.15
303.15
283.15
299.474
303.15
283.15
303.15
301.381
283.15
299.975
290.733
302.689
300.037
299.455
303.15
303.15
303.15
300.843
288.501
283.15
303.15
300.332
303.15
303.15
291.99
303.15
287.5
303.15
297.846
284.324
303.15
283.15
303.15
303.15
303.15
285.261
303.15
300.502
303.15
303.15
299.715
283.15
284.757
303.15
303.15
288.13
301.537
296.432
303.15
303.15
303.15
301.555
292.288
303.15
283.15
303.15
300.68
303.15
284.78
296.313
303.15
303.15
301.147
303.15
303.15
283.15
303.15
283.15
294.58
303.15
283.15
303.15
303.15
303.15
303.15
303.15
303.15
283.15
301.503
283.15
302.085
303.15
303.15
296.088
300.489
303.15
283.15
303.15
300.893
283.15
303.15
303.15
303.15
300.737
303.15
297.687
303.15
285.843
283.15
286.743
303.15
303.15
298.508
283.15
303.15
287.873
283.246
303.15
303.15
285.087
283.851
300.862
301.739
301.195
293.166
301.745
283.85
303.15
297.728
283.15
283.15
303.15
303.15
303.15
301.217
303.15
303.15
303.15
303.13
283.169
283.15
283.559
303.15
302.021
283.15
303.142
296.12
283.15
294.6
303.15
303.15
283.15
299.9
283.931
303.15
283.15
299.926
303.15
297.675
303.15
295.321
303.15
283.15
303.15
283.15
299.428
283.15
283.227
283.15
286.212
303.15
303.15
283.15
283.15
303.15
303.15
303.15
303.15
284.886
284.754
283.15
303.15
283.233
283.15
283.15
303.154
289.882
283.539
283.15
301.507
284.881
300.468
288.189
303.15
303.15
303.15
303.15
283.15
283.15
283.15
303.15
283.15
283.15
303.15
283.15
297.288
283.15
303.15
283.15
303.15
303.15
283.336
283.15
303.15
301.95
303.149
303.15
303.15
303.15
288.736
283.15
303.15
303.149
283.15
303.15
303.15
303.15
295.244
283.15
283.182
303.15
303.15
303.15
303.15
303.15
303.149
303.147
284.106
303.15
283.15
303.15
303.149
303.15
303.148
303.149
283.15
283.15
283.15
303.15
303.15
283.15
303.149
283.15
287.716
283.15
301.821
283.15
303.154
303.15
284.614
283.15
284.456
297.394
303.15
284.698
303.173
303.15
297.402
283.15
303.15
303.15
303.15
303.15
283.15
303.15
303.15
299.171
283.15
303.15
303.15
303.15
303.15
292.33
290.441
303.17
283.165
303.15
301.816
302.318
303.15
283.15
283.15
303.15
303.15
303.15
283.15
283.15
283.824
303.15
303.15
303.196
303.151
283.15
288.87
303.15
283.15
303.15
288.086
303.15
283.15
302.122
283.15
283.15
283.15
303.15
299.688
303.15
303.15
303.15
283.15
284.509
293.604
295.232
289.56
303.121
303.019
283.15
283.15
301.025
283.695
283.15
303.149
303.15
303.15
283.15
294.56
303.15
283.15
302.98
303.15
303.15
283.797
303.15
303.15
288.419
289.567
303.15
283.15
303.15
283.15
303.15
303.15
303.15
303.15
283.949
303.15
303.15
303.15
302.929
303.15
303.15
283.15
283.15
283.15
283.15
302.942
283.15
283.15
300.972
303.15
284.774
284.935
303.15
301.13
303.15
283.15
303.15
283.15
283.15
303.15
303.15
303.15
302.664
303.15
303.15
303.15
283.15
303.15
283.15
286.379
303.15
303.15
291.636
303.15
283.15
283.15
302.421
303.15
303.148
283.15
303.194
286.67
283.15
283.15
299.213
283.15
283.15
303.048
303.161
293.335
303.166
303.151
303.152
283.15
283.15
302.646
283.455
285.843
300.848
283.158
283.15
291.052
301.57
301.467
283.15
300.219
290.701
300.145
302.207
302.75
284.689
295.497
299.217
286.262
293.32
300.106
303.15
297.951
297.584
302.789
283.662
292.375
301.146
287.339
303.15
301.061
303.15
300.721
301.498
283.635
284.984
303.15
283.15
302.28
301.692
283.146
303.173
288.557
302.678
301.849
300.829
303.15
303.23
301.131
295.095
300.425
288.98
302.912
301.632
302.188
302.274
284.217
302.503
301.598
283.179
303.15
302.895
303.15
303.15
302.099
302.005
294.29
303.15
284.673
292.323
292.342
300.945
303.15
284.016
285.198
284.393
303.15
298.788
303.15
296.372
295.393
300.759
303.142
303.15
303.15
301.947
301.265
302.785
303.15
292.626
302.745
289.973
283.15
298.349
294.005
303.15
300.507
283.15
283.203
283.15
302.577
303.098
303.15
302.981
298.4
283.148
300.505
302.224
295.332
283.538
295.868
297.081
283.463
303.133
284.743
296.318
283.32
296.882
300.51
300.255
300.362
302.004
289.862
301.58
303.15
302.72
302.65
302.652
296.494
302.884
283.15
302.017
293.436
303.15
283.435
286.844
301.199
302.599
290.534
284.827
287.717
302.624
296.396
303.15
303.15
295.029
283.15
292.701
283.432
303.15
290.57
290.323
283.915
303.15
297.296
298.49
284.229
301.243
294.179
290.181
300.539
303.107
303.15
303.15
283.534
302.614
283.35
285.802
303.15
303.018
303.037
303.15
285.423
300.797
297.863
283.246
299.577
302.374
300.517
286.912
283.15
303.106
301.823
283.74
283.139
303.15
303.073
303.15
303.15
284.182
302.531
296.372
283.036
283.153
303.15
283.15
302.95
303.044
302.504
301.413
303.15
283.15
283.15
301.822
301.878
283.215
295.874
303.15
303.15
301.62
285.5
283.259
301.683
301.783
301.731
284.411
303.15
283.15
298.466
297.767
303.15
302.704
302.085
284.735
284.979
302.116
303.054
303.15
298.146
284.437
283.15
303.15
300.58
301.224
302.02
289.631
302.077
285.665
300.152
300.271
290.352
297.55
303.15
303.15
300.943
284.468
302.096
283.151
300.513
301.714
283.625
288.31
302.424
283.15
283.15
283.029
303.15
303.15
299.945
298.946
302.29
283.147
283.15
283.94
283.151
283.15
283.152
303.076
300.937
299.186
295.905
283.369
303.098
300.148
303.15
283.15
302.561
289.239
300.789
292.705
283.505
303.061
283.148
283.15
302.838
301.215
302.617
283.156
291.314
284.878
303.15
284.263
301.044
283.15
283.31
284.946
284.196
283.15
283.15
301.64
283.15
289.397
302.531
302.706
301.782
283.482
298.386
290.086
283.15
303.339
292.113
283.15
283.15
283.15
303.15
301.204
302.418
299.18
301.473
299.922
288.87
283.155
290.999
290.168
303.06
291.112
299.997
292.079
283.15
286.299
301.09
301.546
283.15
283.983
299.646
283.15
303.15
283.188
301.286
303.15
284.023
302.261
303.02
303.15
283.15
292.812
303.153
301.697
283.15
283.15
283.15
302.2
297.595
303.143
302.197
303.166
303.15
288.4
303.166
290.454
300.239
300.199
296.609
283.157
301.707
283.15
290.604
301.42
289.482
290.499
298.996
300.706
301.605
287.186
291.151
285.033
283.172
302.221
286.139
283.149
283.144
300.219
283.079
300.313
287.017
296.062
299.448
289.226
299.291
283.121
299.135
283.15
290.016
289.151
298.675
283.331
283.15
300.581
283.15
302.801
283.15
303.15
286.497
286.499
283.15
299.006
298.563
287.064
303.15
303.15
301.738
289.798
303.003
283.73
301.585
287.11
303.147
284.199
288.223
303.15
301.433
283.15
283.15
287.575
287.046
283.145
285.26
301.504
286.258
301.179
303.15
285.128
301.753
291.212
303.15
303.15
301.625
302.05
303.15
293.047
294.29
283.683
296.419
286.81
290.041
303.15
302.794
297.029
285.031
283.15
287.736
291.929
299.664
283.164
283.752
282.94
301.954
303.118
283.151
303.134
303.15
300.578
293.092
298.831
293.868
283.15
291.949
296.018
285.609
283.211
291.71
283.15
300.266
303.164
292.575
284.103
303.144
291.869
298.631
288.259
300.352
291.337
287.343
283.15
303.142
285.356
289.92
293.506
283.15
283.15
283.15
303.141
283.15
283.137
286.446
303.15
283.15
303.167
283.172
291.118
289.05
303.511
302.913
289.887
303.15
296.999
303.176
302.007
287.283
283.15
292.945
303.145
303.094
286.206
283.15
283.15
283.476
286.039
303.055
303.144
287.524
289.495
283.483
283.162
289.868
293.226
303.15
283.15
303.097
303.15
302.335
285.024
302.339
303.093
284.062
283.775
284.042
302.853
302.185
297.397
293.997
303.071
291.303
291.04
303.15
303.098
302.587
285.448
283.38
303.15
285.954
283.386
302.932
301.669
302.179
283.15
300.34
301.854
303.15
302.159
285.419
303.15
297.911
303.15
283.15
300.688
302.686
286.35
302.492
283.15
285.178
303.011
283.15
302.311
285.383
294.893
284.346
303.15
303.018
302.874
286.519
283.15
287.136
284.258
289.806
285.743
302.255
303.15
283.15
283.15
293.134
283.15
301.049
302.166
290.37
283.15
294.032
283.15
303.15
283.15
300.056
298.576
283.151
285.285
301.723
303.077
303.156
291.868
294.215
301.21
283.21
301.798
283.145
303.15
303.142
299.129
283.15
300.965
294.789
303.15
300.947
287.326
301.948
284.904
288.215
283.15
302.225
287.749
298.423
303.075
283.15
303.15
291.655
302.165
283.076
283.147
286.763
298.357
303.149
284.504
301.034
301.006
301.259
303.153
299.898
287.663
284.932
301.588
299.901
283.73
283.103
303.16
303.149
303.15
297.356
283.163
283.15
303.15
303.149
289.921
298.906
300.274
287.797
302.802
303.15
286.434
301.554
303.15
300.955
283.8
301.459
303.15
284.546
301.379
295.503
302.765
303.15
303.15
285.181
295.069
296.376
287.396
303.15
303.15
283.15
287.222
302.402
296.165
303.15
285.56
303.15
303.15
300.446
288.723
283.15
295.551
295.877
299.06
283.15
303.15
292.67
287.232
303.15
297.952
300.503
300.409
303.15
303.15
303.15
300.217
298.323
302.8
299.886
283.15
292.875
287.68
290.604
300.569
303.15
303.15
300.754
303.097
286.567
296.101
303.15
303.147
283.15
286.441
298.921
285.584
303.15
303.15
283.343
303.122
303.15
303.15
283.15
290.517
303.15
303.15
284.579
299.278
283.15
303.15
284.622
301.325
300.166
286.993
294.926
303.15
283.495
303.15
303.15
283.31
300.529
290.395
300.395
303.15
303.13
302.178
292.665
299.793
301.356
284.452
283.455
300.833
298.386
303.15
302.749
284.132
299.726
301.373
287.696
303.15
297.41
301.401
301.488
301.528
292.877
303.15
283.15
299.181
283.15
283.15
287.751
283.15
284.007
283.15
283.15
283.15
283.15
302.754
288.134
302.702
283.15
295.684
290.929
284.734
283.15
303.15
302.677
301.735
303.165
302.635
283.15
294.806
300.261
290.161
283.15
283.15
299.812
285.93
283.15
283.15
303.149
290.57
283.15
287.145
303.149
303.152
284.314
283.15
288.198
292.514
300.782
294.574
302.957
285.626
302.5
295.237
286.27
283.15
283.537
291.621
303.075
289.127
302.654
283.15
292.357
287.747
301.015
301.248
284.89
303.106
284.905
297.061
302.983
303.147
285.128
303.145
303.004
293.298
302.673
283.15
303.15
303.15
294.755
291.041
283.155
301.096
284.681
284.151
284.614
303.145
288.345
300.454
283.15
283.15
302.503
303.15
294.558
302.9
303.182
299.809
303.221
302.883
283.15
301.283
302.878
283.15
303.15
301.303
303.15
284.306
298.756
283.164
291.518
283.15
287.576
303.013
299.743
283.15
303.024
290.891
301.188
303.126
303.078
283.15
283.15
301.926
301.994
283.798
302.809
302.414
302.369
303.141
283.15
293.705
283.15
302.786
287.859
302.987
303.15
283.15
302.82
285.114
291.464
302.039
283.15
302.581
301.987
301.561
302.481
303.046
303.209
303.01
303.15
283.15
301.507
297.808
303.087
303.15
289.915
284.91
303.15
283.15
285.305
303.184
303.165
302.917
301.128
284.26
303.097
290.657
294.196
303.148
289.034
303.164
283.15
289.827
283.15
299.949
298.116
284.772
288.169
299.604
296.628
295.27
299.157
293.754
303.153
293.802
296.378
283.159
299.368
293.829
303.15
298.892
299.124
303.15
291.172
303.172
301.669
303.15
286.917
285.983
302.799
289.653
283.15
283.15
300.344
301.122
283.718
283.15
303.15
300.214
302.315
300.604
299.853
302.784
292.554
289.622
286.629
292.464
284.303
290.384
283.304
295.671
290.409
293.898
287.077
284.281
303.163
283.272
303.147
285.595
300.708
283.151
300.37
298.358
288.726
302.092
285.394
299.061
283.15
302.951
283.154
283.115
287.683
299.648
303.15
300.331
303.018
299.907
302.759
303.15
301.248
284.951
294.906
302.041
303.149
283.707
283.15
290.285
285.235
285.748
303.131
303.149
283.15
283.15
283.176
303.15
293.426
303.15
303.15
294.352
303.434
303.15
300.4
303.15
303.15
293.63
290.589
303.15
289.814
302.052
289.541
303.15
303.15
285.949
283.333
290.304
303.224
303.15
303.145
285.466
283.247
283.15
288.968
287.59
303.15
284.302
303.15
303.15
303.132
287.32
303.15
303.147
283.277
303.152
302.661
287.903
283.152
283.599
297.304
290.709
303.15
285.905
284.427
301.318
287.1
302.208
290.56
293.837
303.15
303.15
284.008
303.148
302.945
295.835
302.941
302.739
287.162
283.15
285.313
283.218
297.11
302.584
285.371
303.15
283.795
286.707
303.125
283.176
303.15
286.381
283.15
300.097
303.15
299.709
299.887
283.304
283.359
302.322
290.827
301.317
303.15
301.385
301.736
303.15
303.15
298.316
293.4
283.15
288.766
303.15
295.182
283.358
303.15
296.876
298.685
288.972
303.15
302.756
294.19
295.344
284.463
303.161
298.66
296.094
283.978
303.123
302.799
287.365
298.409
289.795
290.778
289.72
283.15
302.943
303.152
303.15
303.174
293.06
296.28
302.975
301.281
303.15
284.446
303.15
303.041
302.856
303.15
293.531
296.204
303.15
285.374
303.095
303.15
303.09
303.157
286.058
293.302
291.093
288.388
293.369
303.15
301.198
291.403
295.339
293.417
303.141
303.15
300.543
303.189
284.24
303.189
303.15
303.15
303.143
303.15
284.939
303.15
284.223
303.146
303.15
290.213
303.144
292.441
295.493
303.134
295.297
285.979
283.446
303.125
302.934
284.674
283.15
297.083
303.15
285.501
302.912
302.032
303.018
298.389
287.051
303.15
298.662
289.883
299.333
283.15
283.614
303.15
303.145
303.19
294.032
303.15
292.414
289.323
303.195
303.15
284.791
298.738
293.194
299.566
302.471
301.575
300.368
303.15
284.714
296.911
302.361
285.583
298.308
292.26
284.466
291.622
303.15
286.649
291.799
290.104
299.419
303.15
286.442
284.085
303.15
302.423
288.128
302.094
283.15
303.15
299.811
301.686
288.984
301.977
301.901
301.804
303.15
289.306
285.128
301.954
302.23
297.123
303.15
283.201
303.15
301.978
303.15
302.8
303.15
291.648
303.15
296.488
283.15
289.438
303.15
283.15
292.159
301.43
300.394
289.185
300.473
303.15
302.489
303.15
302.362
285.204
303.15
300.381
290.379
303.15
300.785
303.15
303.15
293.153
283.15
285.54
293.205
300.904
303.15
291.15
293.837
288.161
289.635
288.095
299.197
300.235
300.776
287.364
287.092
301.241