/*--------------------------------*- C++ -*----------------------------------*\
  =========                 |
  \\      /  F ield         | OpenFOAM: The Open Source CFD Toolbox
   \\    /   O peration     | Website:  https://openfoam.org
    \\  /    A nd           | Version:  10
     \\/     M anipulation  |
\*---------------------------------------------------------------------------*/
FoamFile
{
    format      ascii;
    class       volScalarField;
    location    "3";
    object      p;
}
// * * * * * * * * * * * * * * * * * * * * * * * * * * * * * * * * * * * * * //

dimensions      [0 2 -2 0 0 0 0];

internalField   nonuniform List<scalar> 
111485
(
33.8429
5.67205
6.60638
33.6375
6.81561
33.1363
5.78448
5.04932
5.80574
8.48894
5.73296
7.35153
5.83099
5.661
5.86452
5.96204
1.93159
35.1788
5.80042
33.5588
33.5072
33.3241
5.84922
5.91045
6.78585
33.1028
8.1636
3.29062
6.59037
33.9771
11.0714
1.35157
33.6898
33.8524
34.7225
34.1453
10.9958
0.41601
12.9393
6.03803
34.1766
8.48229
6.0351
9.78967
11.8863
34.4683
9.25552
5.90283
8.46771
33.223
33.2171
31.9544
33.2346
9.9556
33.2437
3.67397
5.86445
34.2685
9.18711
6.02502
6.03802
33.8403
4.72042
10.8308
32.7446
4.13658
25.8224
5.37054
4.71717
5.06497
11.6813
4.27481
32.5368
4.70824
34.234
2.47662
33.448
8.1486
33.3191
33.7262
11.2179
9.52591
33.5919
34.1474
4.67352
6.21998
17.7227
10.0161
11.4359
1.79797
12.0271
6.23324
4.70503
0.756597
8.48154
34.1332
33.8546
10.0032
10.9169
10.6461
33.7703
8.22071
34.063
8.0282
5.48287
33.3677
33.9546
1.58281
6.34653
11.6814
1.0968
4.25492
6.22536
7.63972
33.0941
2.34728
33.2065
34.2594
4.74724
33.5688
33.0967
30.1253
33.596
34.2761
8.85561
35.5276
30.0454
1.81153
34.2869
13.8958
10.9583
9.99488
34.2135
29.7412
30.4908
5.65226
33.4896
2.47507
5.17911
5.24715
8.54105
5.23493
5.21524
6.51185
8.99036
0.28464
33.4828
34.0965
34.1007
5.4839
6.53261
33.5093
11.1083
0.0411636
11.1544
5.47481
5.43406
5.81516
11.4964
34.4003
33.6399
5.46193
6.53242
11.6104
11.3386
2.17036
10.6401
34.3083
11.718
11.8018
34.0922
34.0612
7.08177
33.7575
0.440045
0.0842781
32.9276
32.4895
33.1692
33.1773
32.4211
33.6247
5.49027
5.5452
5.42497
0.19271
8.15714
2.97973
10.9965
33.7492
2.58438
32.4883
33.8616
3.00247
8.44801
10.6139
3.93494
0.361033
34.2334
5.5584
6.45352
26.5071
9.5047
1.7197
34.3064
3.01603
7.78967
32.4727
10.5483
9.2047
6.47131
2.93268
32.3907
33.9079
2.97653
25.766
9.98454
33.7302
3.00546
2.57112
8.62184
34.437
3.32316
10.3759
28.3837
33.7494
34.1078
11.6975
11.3327
32.9143
31.3168
2.59835
0.703937
4.00009
32.8972
32.7761
10.8377
34.2695
5.49835
2.57878
2.60313
2.57224
2.60137
34.1339
11.3163
2.05417
34.1952
33.5657
9.97611
4.27503
33.0335
1.29805
1.93657
34.0821
29.3666
9.39917
33.1629
33.1934
30.9949
33.3539
2.28215
2.50718
0.179289
34.4586
1.93823
33.6654
33.8225
34.3032
10.9003
8.15635
4.47494
4.54492
7.62285
4.4805
4.56224
11.3559
0.687096
0.734417
32.7266
34.0598
11.4284
1.58291
8.39741
0.856043
33.5981
4.55591
5.55087
4.45854
7.80711
11.3741
4.4233
4.50986
9.45025
34.2751
8.08801
33.7613
35.2868
33.3495
11.6859
7.65496
5.95746
33.2647
34.3913
3.5248
1.15087
33.4866
33.9265
33.2666
2.5351
0.753875
5.42055
5.67686
6.13759
31.6144
33.99
34.1841
3.52942
20.9622
5.98746
11.4683
10.7639
33.5729
33.8212
33.8497
30.4607
3.79434
6.75615
34.2475
3.75612
32.975
33.1178
10.2082
3.7783
7.57125
3.72936
33.4976
30.3831
34.13
3.76293
0.22207
11.1656
32.9671
14.4878
11.048
6.83995
3.38697
16.2719
6.17656
33.4177
6.18311
3.83758
11.3821
10.1696
6.90071
33.9107
34.19
34.0289
33.6547
5.36202
3.2669
7.57721
6.18246
33.8795
7.2013
33.9922
33.871
6.1764
33.6036
30.4716
34.5156
34.1714
5.49582
34.2762
0.180753
7.13771
33.3263
4.95139
3.95204
33.213
3.8799
7.2663
3.90733
10.5884
0.394395
0.77545
33.5457
34.0898
9.76444
34.243
7.49704
10.3177
32.8604
34.1838
3.699
7.37783
0.647556
7.16849
33.4605
11.0359
7.33344
33.0667
9.78469
7.39606
33.9106
33.5987
0.186693
6.8024
34.1637
33.2232
27.5888
33.7625
6.97116
33.7339
33.7278
7.3611
11.018
9.04903
6.81635
33.1622
30.507
9.83024
30.7846
9.77967
9.89313
8.41172
26.2796
30.9767
0.0726765
11.7719
33.9658
10.174
7.15644
34.4412
11.7722
8.59167
30.8672
7.57525
7.32978
0.426886
33.2267
0.831886
7.73451
0.421037
11.8534
30.0043
11.0463
34.2129
11.1228
0.0129663
34.076
7.55904
9.37539
29.5293
34.4427
31.8033
33.4998
6.81912
0.481101
7.48292
7.53804
10.5228
33.7602
7.56644
33.8774
6.83472
32.9848
33.8688
34.0872
7.54114
34.1176
33.9024
34.3246
33.8567
34.1583
9.39935
34.2794
32.0355
33.9948
33.8974
33.1081
34.2119
33.3714
7.5983
34.0032
9.48266
7.78879
12.4037
33.0191
9.48524
34.0194
33.8317
7.56221
7.51776
7.67589
11.4642
31.8505
8.68599
8.69141
0.512681
0.844942
7.78869
34.0451
0.485414
29.5528
8.83885
33.8026
8.77877
30.1304
1.00433
7.48199
33.8272
34.1566
0.820415
33.4423
8.67886
8.70875
34.1767
34.0329
33.3834
34.0462
10.1815
8.64777
32.828
34.2467
6.82244
33.3299
8.68629
33.4181
9.12104
33.8469
8.52335
8.71744
3.87659
0.96947
32.8717
-0.129506
32.9594
33.8176
7.98428
33.8173
8.5687
33.4081
8.81868
34.0036
8.05821
33.4868
30.9026
12.3248
7.98424
8.64874
8.01817
8.64552
7.40086
34.0848
8.65557
8.01811
33.6886
11.6939
10.8049
8.69565
32.959
33.3539
6.81098
8.87536
22.3662
32.3705
7.96017
6.78313
8.1701
8.18473
1.25592
19.3989
30.6671
10.8121
20.8811
33.6691
8.65422
34.2519
31.0078
1.77233
19.3028
10.8395
16.4175
30.6709
8.22714
6.7931
33.0042
32.0086
6.77433
33.3001
33.304
33.3748
32.9711
8.24988
33.9862
34.2114
8.33391
2.65092
28.0297
6.69978
31.7966
2.59746
33.2274
34.1131
8.28831
33.7925
33.0409
30.9214
0.321604
24.9886
8.45439
1.7928
33.2808
12.0378
8.43306
7.01652
10.6924
13.4624
6.83462
33.8408
8.46767
7.00395
34.3238
4.01966
9.51902
7.17709
0.296454
7.19489
7.18204
34.2305
8.69152
10.5523
30.8403
7.18636
8.73988
25.4844
1.78669
7.1782
8.76805
7.61609
7.64482
1.80064
33.0986
7.64597
8.5911
33.7135
8.11632
8.11882
1.91417
33.8351
0.293617
34.3973
33.5216
33.9301
32.9689
6.99325
31.1356
10.0333
33.8799
32.9899
8.14928
8.17042
33.4325
8.7029
33.8339
34.2948
33.2528
8.8983
8.6902
30.9806
34.3176
33.7931
33.861
10.8256
1.91833
30.5235
7.97373
11.622
34.1717
7.98625
9.22603
1.11734
33.2516
33.7352
4.16509
1.88957
30.8209
34.0707
32.7617
3.09323
34.0815
33.2511
33.7068
7.90259
6.29334
33.3395
34.392
33.71
1.27663
34.2328
33.0871
8.95714
10.8527
30.7589
28.1309
15.6764
9.10965
0.0509476
32.6113
6.70838
9.41474
34.2791
33.215
33.5083
33.76
34.0164
33.3823
7.93573
33.8284
33.5014
32.9689
7.94784
1.86628
33.1414
33.2477
9.14606
1.88206
1.94019
33.3049
33.5259
1.90282
34.1133
7.98637
1.876
1.95523
33.0966
33.7631
33.7609
33.899
6.8391
33.5695
33.4122
10.0062
33.742
3.25783
9.39407
32.7993
1.81585
32.8899
3.25377
8.29487
8.55917
9.07319
9.80628
31.5922
3.23002
9.17666
0.0522227
33.0486
7.72426
31.0112
0.582558
33.9358
9.44729
9.24152
9.43481
33.3409
33.792
34.4526
1.88416
31.8066
1.17662
32.2334
6.15176
0.548722
1.3492
1.90649
33.3938
32.9723
32.5509
1.92613
33.0342
31.6016
11.9761
34.2283
34.232
33.7549
33.5214
1.38093
32.6594
33.7275
9.08062
31.7468
34.2917
30.7121
33.6775
9.40403
1.32624
33.5206
6.86767
15.6727
9.45807
11.8466
1.66784
34.0466
8.35983
10.7661
9.46004
34.1696
6.78008
1.37463
29.6332
1.2616
11.4904
11.919
5.00688
0.899759
11.6144
0.307335
1.20891
33.8586
32.9549
0.886438
0.880616
34.1499
0.900901
7.4877
1.21196
32.8538
11.7954
33.9294
1.23066
1.18521
33.2046
0.51192
1.20184
11.7373
0.248847
32.7097
5.42339
11.7799
12.5849
11.6644
10.1919
33.8301
33.9518
10.0159
33.5028
7.72411
10.2507
30.0298
11.5305
10.6419
11.9789
33.5243
29.4245
2.80525
34.2826
36.8529
10.1727
32.9716
33.1387
10.9071
10.4503
33.5119
11.8819
33.752
33.7897
34.3128
33.8502
33.2677
34.097
10.3277
32.9294
34.0936
34.1778
9.16794
10.2785
6.36382
2.7755
33.2774
33.0309
10.6289
33.6549
33.142
27.9127
10.3909
3.61566
33.273
33.1
33.0153
33.0868
33.9264
33.0419
10.5151
33.0392
11.6895
6.15138
33.8583
33.8239
33.2333
11.8575
33.2194
33.6474
33.9134
11.7561
33.9603
10.498
10.9462
11.6153
33.3483
26.2024
10.5928
5.92341
32.4232
11.7307
8.81101
33.2862
32.6645
30.3025
33.0985
2.80061
5.36516
10.7766
11.5719
33.225
2.78252
32.5589
30.5854
30.1983
34.1079
4.86603
33.6975
33.246
11.169
3.61467
33.2434
8.62305
31.9173
10.7519
33.544
33.8077
33.9527
33.7211
1.3265
5.31147
13.7613
33.2593
32.9175
1.31357
33.5124
31.2301
33.8638
7.88836
11.5925
6.87592
33.2398
11.2781
11.2411
34.1425
11.2803
32.9794
9.81938
8.83811
5.17486
11.1871
11.0092
33.5842
33.7664
33.771
11.2498
34.4436
11.3061
34.3621
14.6236
33.2242
5.97254
6.16832
33.257
33.4488
33.2779
34.228
11.3002
33.2859
30.3221
1.29043
11.3259
33.3291
31.131
32.718
31.1876
32.97
33.6075
11.369
8.88045
33.6315
33.1106
11.0716
33.8772
11.3708
1.34668
32.9586
9.99168
33.7425
0.804133
32.9094
6.61008
33.1829
11.3215
11.5688
11.5599
10.0372
10.0211
24.9749
32.5679
10.1304
33.218
4.84879
33.3627
34.0563
32.1807
34.0097
34.1306
34.1363
9.99525
9.97806
33.7484
29.6669
33.2807
10.1531
11.8244
33.9177
4.8776
11.7059
33.2359
1.73945
1.22329
4.63943
11.6067
33.505
33.6825
33.9341
33.4003
4.89313
33.8479
10.2489
33.6194
10.2727
6.63909
33.9616
10.2197
34.1102
33.4764
10.3297
10.8144
18.3304
33.6218
33.2522
33.0639
5.05362
32.3279
34.4708
32.5339
15.3265
30.3108
11.4075
31.1308
32.4329
32.7271
1.48467
1.30954
7.4402
5.54406
34.3165
10.3025
33.8186
34.1509
1.29112
32.8632
11.2138
10.2584
0.951138
10.3952
10.2477
7.31723
34.0673
9.07647
5.63028
8.93957
10.6031
3.73788
27.0992
33.825
7.1013
33.3065
33.1184
12.106
8.46721
10.1869
33.7809
33.4232
11.1317
33.2348
32.9278
10.4604
33.2619
33.2523
4.53527
10.4746
10.6617
4.41855
2.24641
33.0195
33.5697
11.9683
4.31719
33.3704
33.2525
7.60804
32.9887
29.5601
30.4078
30.5232
24.2758
29.6444
33.3765
7.21509
33.0478
10.6421
33.1871
21.9452
32.9684
32.931
34.0818
33.4977
6.71874
33.5137
33.4977
30.8395
33.1166
34.0591
33.7877
4.10646
33.5704
3.72997
10.6998
32.9339
7.37568
33.298
9.10963
11.7193
0.985546
1.04935
33.093
1.11195
6.72828
11.5337
34.2891
10.8868
3.25555
0.520297
31.9466
0.65272
32.9691
34.0601
33.1505
33.3465
0.662029
33.7532
33.1364
0.527292
10.7983
0.517265
34.1761
26.9721
7.32782
33.9324
11.8834
33.2293
1.07289
32.868
32.9468
7.24419
33.1735
11.037
33.8769
33.1845
3.21533
9.31605
2.3757
5.21018
11.9233
4.15519
33.2007
33.6303
6.25324
2.45561
4.07019
10.8699
33.5095
3.76108
33.4556
33.1362
6.27914
11.0272
33.0038
2.52476
34.0388
2.39734
2.21607
32.5271
33.3583
33.8987
6.22879
33.7381
33.7412
6.26736
2.38672
10.5532
0.613789
33.2538
34.0327
7.79354
6.3157
33.2229
6.24967
33.0044
6.22106
33.3044
33.2378
6.1855
33.5284
8.8603
5.74476
33.0187
33.3643
5.72165
29.5331
6.9804
33.8267
10.6438
33.8867
29.7337
29.1702
5.80639
30.9375
30.7006
5.33902
30.6413
23.6168
29.3014
32.9376
33.3016
11.5101
6.96686
33.8161
33.8185
6.85168
6.91816
33.0193
6.31756
33.395
33.3014
7.98026
7.60296
0.432224
33.2875
33.8263
33.7538
33.5012
32.968
32.9857
33.8307
33.0368
33.0797
33.3638
33.7685
33.3053
33.6144
33.2551
33.0934
33.0795
33.2492
33.3619
33.5564
33.7369
34.1381
7.05437
33.6851
33.2606
34.1541
4.8076
34.2983
33.2927
20.3604
32.7648
32.5078
4.85504
34.0777
32.5706
21.7047
4.88364
33.6139
29.9365
31.2211
33.1302
9.76502
4.89829
4.92471
4.71817
2.929
33.3221
33.1459
3.64626
3.82073
4.70337
33.4406
4.32206
9.45892
4.68586
0.785424
0.91757
4.73822
1.51704
4.66578
34.3267
5.30509
4.32149
6.60771
4.33001
33.9107
33.7915
34.0381
33.7489
33.8925
3.7847
4.38602
33.8867
33.0915
33.0318
33.1382
33.1684
33.3688
32.85
33.3075
4.32872
11.8332
4.36541
7.2686
32.846
32.6611
9.64604
11.8434
33.3444
33.5023
6.97492
34.3888
33.7038
4.36666
4.27321
4.32649
6.87522
9.57615
33.373
0.0730647
5.18973
30.3294
33.3162
5.11108
33.3209
32.9393
19.0145
16.0751
7.29495
33.0327
34.2918
10.8881
5.26705
0.137511
3.81254
21.485
33.7659
10.2206
33.7327
34.3617
32.5588
6.7885
33.1519
3.7843
0.181909
5.05275
5.22497
34.0633
3.32683
34.1645
32.3005
34.084
33.2025
1.24795
24.274
33.518
33.6057
34.0105
3.80835
30.1755
3.41639
3.79879
1.21064
3.80551
33.1438
32.9874
30.0748
6.76876
2.87638
10.3876
33.2172
33.8339
30.1172
9.69657
7.21707
33.5065
2.78007
19.22
5.25648
2.85575
33.6854
29.6527
2.87025
3.78182
33.8062
8.49781
8.19878
7.25093
3.31782
2.98295
3.11066
30.3284
1.14436
3.07638
2.63173
33.3311
5.0431
30.553
6.64406
3.23078
34.4508
0.820602
3.07487
3.35904
4.02737
35.227
18.2869
10.7213
23.7372
3.0995
32.2481
0.974322
3.06945
33.1709
33.5638
11.8969
11.6612
4.42959
35.0671
7.41512
11.8211
10.0341
11.0133
33.1001
34.3946
3.77089
34.0752
3.40695
11.6057
3.08597
0.967279
33.5361
9.021
3.74381
33.2796
30.5741
2.40948
34.0912
2.41119
2.25703
33.8605
35.1495
5.2888
33.4016
33.2638
34.2939
0.940463
12.7434
6.81083
34.4703
6.61394
1.66858
32.8299
1.66041
1.74194
1.05516
11.6881
33.3953
3.37533
0.744007
1.70867
1.71556
1.09086
11.4286
6.09309
33.8238
0.047255
1.1904
33.689
1.72009
34.1588
33.7178
34.2115
34.2605
33.5888
9.70436
34.0186
1.66153
7.91756
34.3302
7.67047
33.156
1.1802
33.2812
11.3231
32.3751
6.38327
10.1144
11.8399
1.79772
1.18765
6.60087
1.06216
1.83273
19.7811
1.80119
4.22982
1.84554
34.3269
3.81098
11.726
1.86398
5.90011
11.7019
34.2828
30.4083
33.1768
6.68331
33.5648
28.4517
1.1829
34.0994
8.20263
33.2574
34.1874
33.5114
4.16305
6.9644
1.99647
10.3209
0.993099
3.58331
3.42467
4.27351
1.35357
3.40403
3.52384
33.2963
33.8868
34.4332
5.28716
3.71161
32.8832
33.5072
28.7764
3.4533
1.38973
33.4966
3.52636
33.9137
11.6799
6.71497
10.667
33.6757
33.8512
4.18661
33.7414
8.85781
1.83818
32.197
4.71885
5.91432
0.776871
33.1954
10.9251
30.9459
8.45147
6.80134
33.7039
34.272
1.76087
27.2238
34.1757
2.32424
0.903214
33.8133
33.1716
30.7729
3.42649
28.7094
5.32448
9.71738
8.35408
33.8419
30.632
9.51986
33.86
33.7882
34.0274
33.569
30.9352
32.5331
32.1262
33.2698
32.9644
31.8735
34.1039
32.3112
8.87637
32.3219
29.9406
29.0068
35.436
30.2951
33.8497
9.71574
31.5939
32.4785
9.96705
33.6286
34.5911
33.033
9.73973
34.0647
9.71476
10.6525
8.36805
31.4889
33.4964
9.7227
11.6739
32.9867
34.3111
5.27932
31.2442
5.24789
31.0453
33.793
32.6763
5.23894
5.20262
33.9655
7.57947
33.3512
31.5533
11.2746
2.77308
9.70194
34.1803
5.26021
31.1315
8.14877
33.3861
33.2187
33.2511
30.5225
2.75166
3.33081
34.1359
10.7303
33.2742
33.3115
33.2696
33.5857
9.14848
9.13423
3.39162
12.6041
34.3498
6.72977
5.36104
2.57694
9.13636
34.2792
2.68683
9.16172
4.73058
11.7599
4.98541
33.2563
6.29872
9.28489
5.29912
9.34426
9.73144
33.2265
9.83339
32.7845
33.8809
4.37117
34.1488
6.70756
34.0063
33.2556
32.4994
33.2225
34.23
9.27076
33.1786
7.73498
31.5366
33.89
6.52136
8.98775
3.557
7.47506
34.2389
14.5838
34.1445
8.19584
33.2532
6.53138
9.1189
9.2678
8.27977
33.2885
33.3049
33.0518
2.89302
33.9189
33.271
2.8908
32.8419
33.1635
9.26203
33.2867
5.10548
11.689
31.4347
31.8828
31.715
3.38773
5.66016
33.5656
0.114012
7.99229
31.0302
9.429
34.0548
2.94264
6.6233
2.59918
33.5094
6.97936
3.67329
9.72448
9.06382
7.70668
33.7116
33.7875
11.6938
33.3331
33.3845
33.9365
2.98132
9.54424
3.86772
6.03133
30.6703
6.95542
5.3173
5.70297
6.73675
6.97951
8.66945
7.65043
33.5016
33.4798
33.4833
7.68036
33.8934
8.01158
26.5299
7.64578
11.2573
2.98229
1.4727
33.1814
33.9678
7.66923
7.62621
33.9063
33.5717
34.3933
3.22139
7.6146
7.88608
7.95233
0.810672
5.31907
33.3457
34.1774
33.831
0.71739
5.1033
0.0913292
5.81396
3.34594
8.00505
32.8908
33.8221
29.273
32.9471
0.869152
6.84923
33.7563
33.2262
33.2671
34.3227
34.3194
32.4796
8.26217
33.4695
10.0306
12.3794
33.0819
8.10726
0.278159
3.11167
34.1651
32.6502
8.21517
33.7326
8.25091
9.93562
3.40918
32.3577
27.8585
33.4189
33.4681
33.3498
32.1889
18.1982
33.2067
8.333
3.81874
33.8393
33.8065
8.4511
33.3404
33.7261
4.65612
11.725
33.2362
33.2272
32.4778
1.7954
33.7502
33.7725
15.7766
8.43298
8.46242
33.5284
33.0723
31.1219
8.46376
8.38755
8.449
6.02859
33.2987
1.50907
0.324169
0.391459
34.0337
34.217
33.8302
34.1841
33.7519
4.65332
4.77523
3.81945
34.383
34.0356
33.7348
33.9623
32.8131
10.2323
0.80673
0.178898
32.9675
33.6937
34.4733
10.3482
9.54822
10.9435
33.7775
7.81245
33.7754
33.0663
33.7773
4.64025
5.1431
33.2923
33.1527
6.29242
33.7882
3.41832
4.23456
19.7579
33.2686
32.9716
3.4409
10.3322
32.9808
19.2709
0.580706
6.81424
33.4768
33.3272
34.3327
33.8486
0.965908
2.37849
33.3337
10.3019
8.90243
13.2482
33.5706
33.3437
33.3023
33.3344
6.97876
34.112
33.5884
32.7743
1.5979
7.82579
1.97018
32.9425
34.2423
8.90564
32.2717
33.7981
33.3667
33.4729
4.93719
32.4896
33.1446
33.1852
1.96481
5.12876
33.3306
34.1105
33.1514
5.97195
33.516
33.142
33.1684
34.1525
34.0527
12.0237
6.89444
34.5494
5.47663
6.89487
4.80894
34.3797
34.2893
33.6905
34.2156
33.1505
6.51425
33.5685
31.5432
31.8731
8.91465
32.2238
8.87137
33.761
33.8897
10.6625
13.484
31.1538
8.97201
33.5575
8.94328
33.8353
33.227
33.4349
35.9641
33.2751
10.1541
33.2647
5.76464
33.9715
30.8412
34.0743
33.3309
1.83622
8.28049
33.4651
19.604
34.2545
8.97316
10.1403
8.23233
34.2924
11.584
8.17329
10.1908
7.00635
11.2385
8.26487
32.5827
33.2244
11.0209
2.91393
8.22074
33.1936
32.3443
29.4083
21.1556
34.3879
33.0028
34.1269
34.3101
34.438
33.8955
8.16386
10.714
3.86904
30.4802
11.2835
34.128
6.60594
33.8378
34.4228
33.6729
32.4554
10.6503
32.4938
34.2601
33.5537
5.6768
33.6025
33.9663
10.5612
33.1742
27.435
25.3822
24.5734
34.324
25.1235
24.6762
25.0195
26.7176
33.2595
33.2601
5.61598
8.54125
30.9072
30.9154
33.3413
5.68946
33.6986
32.9577
10.5631
33.3815
33.72
9.06771
10.7087
34.3254
33.0705
11.4973
30.643
32.8498
11.735
6.11264
5.98073
32.8254
6.0663
34.2227
3.78361
11.4977
6.01956
33.6021
11.5271
6.04579
33.1429
10.045
33.1546
5.69286
31.9705
5.63716
32.8512
10.1372
33.2175
32.6753
33.9603
8.95422
8.98547
34.2613
6.17921
10.2585
34.5632
33.5868
4.65243
0.246703
12.1248
34.3602
6.37277
6.27114
10.6374
10.5215
34.4304
12.0257
33.2153
11.6322
33.839
8.39423
7.69485
33.1386
3.94154
32.9472
10.5171
33.4734
33.1526
33.3023
33.8935
33.2819
33.7902
8.51732
4.73164
11.5679
33.2665
28.8488
11.5531
33.3068
34.3377
33.1819
34.3343
33.2733
0.22683
33.6012
34.1907
33.2128
0.198907
33.1977
33.5497
32.0456
0.972605
33.6665
0.925476
10.6656
8.25633
0.964162
0.9523
33.7751
33.2984
33.6439
1.03378
2.01109
32.5866
28.7809
0.9989
33.943
34.2313
11.5474
33.1481
6.23709
33.2658
0.952191
10.4776
33.2945
33.2439
33.2698
34.1396
33.9288
10.5806
33.2811
1.01766
33.2551
33.5038
2.25639
33.9742
6.61451
32.6907
33.961
8.61814
3.94808
11.7025
34.1315
34.1552
33.6692
3.94085
11.3275
33.2354
33.5422
32.3353
2.46765
33.2592
6.67934
11.6474
33.4816
33.3511
2.50841
33.8096
32.2963
33.666
33.1293
33.8157
11.607
28.5564
32.9352
34.061
28.985
33.3668
29.5526
33.0573
33.2161
32.9385
3.9559
33.0839
2.42316
32.8354
33.3101
12.5037
2.46534
33.2481
33.1632
33.3361
2.3933
30.3044
33.5764
32.6414
33.317
2.68689
33.2499
11.713
34.3964
8.04162
30.8111
9.61871
33.1478
33.9111
7.6591
29.839
33.2735
1.99632
7.86951
34.3449
34.1293
8.57622
9.78339
2.43997
2.41187
2.45145
8.6216
2.41313
9.97737
33.2124
11.7026
29.0604
28.7862
33.5346
33.0349
33.8862
2.37986
34.3414
34.4153
34.3001
11.08
9.91283
28.2654
8.99864
34.1934
9.23712
32.8092
10.7376
2.63937
29.2364
7.8959
33.0665
33.0855
33.4784
2.66798
8.06827
33.6595
33.7476
2.69001
34.1259
11.9669
33.9485
11.4077
33.7888
33.4731
34.2217
33.4562
2.15401
33.4536
13.5207
33.9708
8.29718
33.5341
33.3776
24.147
23.3509
33.3839
33.4124
33.8297
34.2073
7.86446
11.9078
26.4196
34.091
8.05742
33.3263
33.9059
11.5652
6.11864
11.1308
33.497
1.49169
8.55205
4.19042
6.52388
33.8585
34.4349
34.4464
34.1673
33.52
33.4596
33.4585
33.0444
33.4969
33.4591
33.7476
33.4324
11.3618
33.4768
33.3316
35.0097
34.1675
33.5463
19.8416
33.3022
33.4228
6.49098
11.782
33.0786
34.347
33.7296
5.69746
34.2888
33.7942
11.6881
33.7139
33.2844
33.9305
34.0651
10.6935
33.6267
12.0284
34.079
33.9043
33.4426
33.5546
33.3684
11.7238
11.7211
3.17259
34.185
32.7932
34.3232
11.7679
33.2672
11.7057
11.8417
33.6877
33.1415
28.2579
11.4547
33.1201
31.0506
11.4699
28.513
8.81365
33.9945
10.1303
28.4166
27.027
33.7555
7.7948
33.7412
7.82445
10.6793
33.2071
7.83957
11.553
33.7958
10.7157
33.154
33.1774
33.295
33.1394
32.936
33.4043
33.2649
34.3266
11.6915
31.2852
33.6122
33.917
33.2062
33.1481
5.74269
23.1498
11.8804
12.0805
33.2864
7.44208
7.43243
33.6742
31.0305
33.0681
33.042
33.1375
33.2477
29.5307
31.3724
9.2267
33.4916
34.363
28.2606
29.5975
33.5463
7.73676
32.9876
33.0081
34.1432
11.2264
34.3115
33.3164
8.70939
33.6482
34.1478
32.9714
34.5298
8.76317
33.5199
33.4621
33.3866
33.1717
9.29628
11.2395
11.2261
7.76202
9.81237
9.82856
33.754
29.8485
12.0851
9.59468
29.823
12.0776
34.0697
9.99833
32.9863
11.2371
33.6218
33.0477
9.85898
9.14531
33.1995
9.56472
33.5967
33.8682
11.2385
10.743
34.1759
33.3997
33.2049
33.5041
33.3596
30.2127
34.1911
33.8499
9.51992
34.2049
33.7651
33.5512
9.89692
33.3148
30.3012
33.5964
33.4281
31.8367
30.7527
9.89273
32.9885
30.82
5.81134
34.1264
9.53824
9.49047
33.362
6.01612
33.7985
32.2778
34.15
30.528
33.9969
34.3214
34.4362
34.3908
5.94733
34.2454
33.979
34.2367
32.9425
33.5897
33.0491
11.3673
33.7614
34.1052
10.7106
33.6662
33.5448
34.2802
5.90768
33.479
10.9996
30.2416
11.6982
0.743015
33.4895
29.8388
5.77627
29.1476
33.4791
11.7863
11.5131
0.0463115
10.3249
12.0568
9.79578
34.1245
32.9247
7.26896
11.4679
11.1426
7.04281
11.7701
33.9325
1.33998
7.21381
7.21113
34.2942
7.19193
1.14224
4.17585
6.86092
11.4094
7.48761
1.6329
6.69627
0.238923
3.10238
6.88535
30.3257
0.407988
0.0473407
7.77169
9.02024
0.417842
6.86128
0.300853
30.7564
11.6377
30.617
3.74804
7.27855
9.13954
5.45836
30.5911
33.52
6.73671
5.50723
11.4428
11.2358
1.91232
7.27366
25.1133
7.30752
33.7601
12.7576
11.5443
10.2962
4.20979
11.5472
11.6849
8.36011
5.16074
5.19682
3.80958
7.30907
0.579689
28.5767
26.4582
7.33222
33.3448
33.7482
6.93665
7.0676
0.616747
33.4073
10.4071
10.7516
5.04517
27.0085
33.7562
11.4188
0.17573
11.5527
34.4373
1.8733
33.9312
5.42522
8.25852
9.9884
10.0881
33.3794
33.7996
10.9251
7.07925
7.11387
33.7991
5.69733
7.0636
9.02716
33.7147
5.14576
0.45932
30.5557
4.21012
9.31618
11.0041
32.8035
10.6093
12.3521
33.792
8.75362
0.84576
16.649
8.85894
8.89879
1.65348
7.79618
8.93304
0.619763
11.3639
11.1128
8.4182
1.48372
7.46791
11.7599
5.48676
8.92437
3.13485
6.92768
11.8026
1.72248
33.8564
8.89004
8.84453
11.2879
2.24644
10.2599
32.961
8.84254
4.18704
33.8795
10.3525
0.158617
8.90926
8.52234
1.09124
0.0860067
7.67438
8.58384
10.5266
33.8787
33.7328
10.5919
34.1366
10.6201
10.4297
32.5287
1.10972
9.09889
5.58605
34.2357
4.1895
4.76633
10.4033
11.5204
4.67136
2.05843
5.76577
9.60304
33.7494
33.1675
11.3541
9.54483
10.3044
6.0491
33.1669
9.62068
8.30638
32.5149
5.74024
7.32893
0.338874
12.0226
9.88257
8.25986
1.78446
6.37161
34.1483
8.91695
4.54663
8.46612
11.9966
33.1776
9.98618
33.3442
33.6512
4.80605
8.23814
5.25392
13.0567
10.6832
16.5631
33.5805
8.21797
8.36173
5.46943
5.33909
33.2848
34.294
34.2444
5.32796
5.33726
11.9482
4.13886
32.3002
33.2102
5.31454
5.93919
10.1622
5.35169
5.32275
6.43074
9.79579
23.8665
33.2603
8.11274
0.633911
33.1994
7.60183
6.31911
12.4647
8.10434
6.30691
10.5506
33.2042
5.46822
6.57995
34.0979
32.3568
0.435917
0.845974
2.26977
0.970867
6.36547
6.44188
1.64099
4.15761
5.91785
0.940849
33.1575
33.1061
0.0522981
1.09682
6.29642
12.0059
6.17327
6.06673
8.40604
5.20959
6.14277
33.3834
34.1113
11.9221
33.1275
30.2437
6.65564
4.2406
6.51406
11.693
31.3749
9.99167
12.0616
31.7677
12.0415
11.8402
6.14218
6.18129
0.453067
7.13447
11.4275
1.05481
33.6887
31.6247
11.017
2.03201
5.33518
2.10565
10.3184
9.45852
11.3455
31.6983
6.54831
1.50658
5.68222
11.9919
9.94678
11.0916
11.8545
6.53318
1.53431
31.4144
9.16745
6.29302
20.0112
30.4605
29.0517
5.69912
30.0587
0.346518
5.68525
5.31521
7.13123
10.7622
25.6818
20.6239
33.6123
29.8666
10.5642
33.4739
33.4731
9.78747
33.7078
4.16414
5.50623
5.0387
3.89323
4.12476
7.27532
28.9575
2.01428
0.910512
9.37305
6.88035
3.90103
6.49671
33.5439
11.9248
3.81339
8.3316
33.4854
8.6835
6.76856
33.4706
33.283
10.3309
3.75271
34.0778
7.65589
6.90298
10.3784
34.0777
33.4549
0.653135
11.7445
7.2013
33.5043
33.9868
33.4704
8.27938
19.3522
18.7526
2.60979
11.4931
34.3961
2.63837
11.5328
5.87258
0.706013
0.666671
2.83503
11.6317
0.771994
34.3969
2.96483
1.58396
0.26263
4.72486
1.13433
1.13435
1.18514
1.24518
0.341286
10.7327
11.8345
6.45578
10.4786
11.4915
11.5865
1.18896
11.8441
1.21834
0.310884
3.45794
2.13266
10.3846
2.11036
11.9088
2.45266
32.2049
6.57307
22.5955
4.87912
7.25971
34.1017
8.92091
32.2222
7.58669
32.3046
33.0276
5.16483
9.09866
30.5367
2.03769
5.35171
9.07532
33.2193
34.1458
10.6805
2.94613
11.8041
4.81816
1.67743
8.86619
11.2716
8.47647
8.9441
29.2918
6.51602
33.5746
33.2009
3.68175
2.67248
11.7577
3.52456
2.35675
8.9496
9.26009
32.7908
11.3187
2.31761
8.83487
32.7962
34.2992
6.53279
7.6275
28.4029
10.3127
0.263976
7.84129
0.299785
1.93233
4.89875
33.2962
24.4932
3.91481
11.0588
34.4414
3.69606
10.3208
8.18074
12.5544
3.90853
12.442
6.52678
10.7209
25.4206
10.9462
33.5114
7.5334
9.05392
1.84834
0.110125
29.8845
0.169431
11.0666
8.61125
10.698
31.7612
33.4609
4.12425
10.9455
8.61863
7.443
10.2543
2.985
0.618718
5.64104
0.714076
0.484924
10.349
31.0382
11.7388
8.48751
0.0507596
10.11
31.516
33.2029
7.10261
11.6356
33.901
11.606
9.40969
31.5586
25.8381
26.6144
9.21693
3.83542
13.1599
27.5987
10.3022
4.35795
32.2004
1.4987
30.2454
8.18536
3.00718
33.9528
0.786814
10.1872
10.1691
2.68385
33.3336
11.7527
9.7171
10.7946
10.1872
10.5895
10.7997
9.29466
12.0716
9.56764
1.56686
3.89584
33.2026
29.5514
29.4009
32.5391
8.73783
4.52448
3.97053
10.1226
2.3136
4.01238
7.82709
9.10906
8.74087
2.90538
9.38661
10.0966
8.27165
2.15843
33.5719
10.0895
10.0513
8.91233
9.43516
32.2102
5.30018
5.409
7.39685
7.42024
5.94176
32.9254
5.9093
5.89814
30.2469
6.00009
8.41418
32.5426
5.96637
32.4744
34.2796
5.29453
9.0616
8.46793
5.87595
33.1675
0.999415
9.39593
34.2781
4.82892
6.11471
5.03838
8.64561
32.5773
9.15043
9.109
8.02886
32.8408
4.23489
1.65274
8.19333
3.65355
4.55039
34.2722
32.325
31.1562
0.368866
31.5608
4.14016
3.4376
1.16507
33.2315
1.29308
32.6938
33.5744
33.0796
5.04099
0.123085
11.8429
8.20391
4.455
31.8666
30.2507
10.2629
10.0835
3.42666
11.3675
4.44412
11.5011
33.5514
27.3566
27.7223
33.3619
27.8766
0.208435
33.7323
4.15815
7.75662
4.47177
0.886219
5.30848
29.2487
3.51261
7.77791
9.04229
10.6418
29.3685
33.4857
9.31832
3.51411
12.0006
11.4117
11.3978
11.7136
11.7906
11.9156
2.67917
0.612059
2.69059
10.6239
2.61339
7.81458
8.3947
1.80842
2.61567
11.3445
11.2758
11.3601
10.2416
9.48989
1.84463
10.7113
34.2431
9.99417
7.66259
1.02116
0.633046
0.23881
7.82931
5.93601
7.18908
0.673623
11.6844
33.3472
4.17187
5.70043
6.39165
33.2791
4.76643
2.67482
0.719252
5.80212
34.3719
33.2472
8.49652
1.70564
1.61219
0.357635
32.8193
33.8884
33.7851
6.40708
7.68957
1.50641
33.8671
4.24783
33.2325
33.2506
0.704253
0.496535
33.0133
1.52828
1.57281
0.254526
34.2423
34.1122
2.77507
7.82826
33.244
1.36766
1.33693
1.11093
33.3326
33.3393
33.2812
1.12998
1.36434
10.21
1.32232
34.159
1.17052
7.36186
10.3185
9.46847
32.4161
33.4611
1.25203
10.8563
10.5805
5.46185
32.435
11.8516
33.5571
1.87207
11.467
7.42591
32.5827
30.9394
10.9667
11.3874
30.5675
30.6897
33.6024
4.91632
32.0459
29.7908
7.70539
7.55382
33.5917
30.2663
6.58619
1.30999
1.2479
5.06423
4.26898
30.5746
7.83845
29.0724
28.6537
33.0193
5.34122
8.70113
1.2535
28.7769
34.3054
7.57743
11.4062
8.02164
8.77084
6.92001
6.03176
6.83844
1.41332
28.4572
7.40599
5.46999
1.40456
4.99857
8.66661
24.0095
4.9052
4.91861
4.9076
4.89979
1.7189
27.9518
31.4022
5.70913
31.52
31.7626
6.89879
31.5724
4.13678
31.1225
31.3718
32.7861
30.5218
5.4594
1.83241
5.50256
31.0098
2.64682
5.19816
7.29571
31.3428
33.855
5.49165
5.80026
11.6889
5.49733
30.525
0.0744019
1.26412
0.980141
33.1785
32.8964
3.27978
2.75018
32.985
31.4689
10.004
0.0950087
30.9989
10.9717
9.95438
9.99024
6.02969
31.2619
6.85706
15.3595
0.681086
0.35528
10.0611
9.89408
9.20662
3.87255
7.01037
30.7223
7.84868
7.01752
11.6208
10.7569
9.99068
31.2499
4.8109
7.16297
4.06339
6.10598
7.0727
11.3755
0.807019
10.5122
9.32973
10.0483
2.86457
10.094
10.5918
6.9664
8.52628
33.2602
11.4426
34.4245
6.89644
7.20486
10.0914
10.5511
9.81352
6.98301
6.99643
11.1075
5.46105
1.87129
33.0636
27.8728
10.5526
10.5467
8.29704
10.6143
11.6459
10.9175
11.6506
11.8327
28.5377
1.80925
11.9053
8.41327
28.9891
0.181256
27.7771
5.33745
6.99941
11.7477
4.83702
34.2593
6.78329
11.4957
0.131968
33.5006
11.5848
1.59704
9.1654
11.5339
11.5914
28.1634
33.4381
4.96604
7.39897
3.90691
7.38761
6.64643
7.48804
11.8104
29.8722
0.341023
29.246
7.52496
1.81128
7.94118
34.0425
26.6582
10.9197
7.4784
5.41863
8.02562
33.4809
7.97208
8.05166
0.392541
8.03291
19.9956
16.2015
8.04164
33.5364
33.2341
4.80918
19.7147
10.7882
34.1366
3.62896
32.941
10.3623
34.0502
2.27745
10.4544
11.5748
7.98474
8.40154
7.2262
9.97064
11.7391
0.696321
11.6462
4.50829
11.5793
32.2702
2.64207
33.1227
8.43691
8.53135
6.74516
5.9696
8.36712
0.484494
5.29411
8.28905
8.14321
11.8867
9.81594
10.9906
33.325
8.29241
1.91567
10.6538
1.81565
8.34053
10.5145
2.64707
11.5519
7.46492
10.8029
7.51778
4.59074
8.47852
6.81355
33.2257
33.1757
7.1814
7.37512
9.2199
33.6261
9.91418
0.587748
7.02748
5.3216
3.36389
5.5986
4.76971
7.35785
0.0328597
4.21663
9.74561
3.54719
6.36733
5.71849
5.23228
9.74728
8.37116
3.51431
12.1441
7.84439
11.4969
3.11308
8.81954
10.9115
3.99264
0.404373
5.60009
7.33242
3.22052
2.67492
32.9333
8.69958
11.3075
11.4916
19.4643
8.71517
29.1413
4.86315
8.66598
1.25271
9.3071
33.1469
8.48869
9.75659
-0.203313
8.85507
10.4418
9.70124
33.4677
5.76408
0.870387
9.42184
11.8061
11.2895
32.9034
33.5269
14.6658
31.264
9.74729
33.358
11.9598
14.5522
31.2097
31.3765
0.749508
31.6943
33.7382
9.7114
5.56813
34.2526
6.66703
5.04779
6.90105
8.52806
33.7432
11.0934
9.80231
9.32829
13.0671
33.7574
11.6974
9.51952
10.6273
33.4442
5.69802
9.47875
33.1246
4.96702
33.5933
33.1184
11.5759
9.37854
33.8883
11.9606
11.5732
11.7133
11.498
8.12806
11.3226
11.2165
8.51699
9.72797
34.3454
4.58323
1.65326
3.46653
0.52276
11.4758
1.566
4.93391
33.8886
33.3362
7.5419
11.4481
9.70614
4.63161
9.73363
5.23042
0.553688
33.5722
0.0366721
11.3511
1.30752
9.69348
3.14019
33.8947
11.169
8.53776
11.0753
13.7572
33.8694
4.32516
34.2153
1.7849
34.2852
9.65586
11.0211
9.22577
7.08179
8.45688
0.470419
9.17049
33.9264
9.67296