/*--------------------------------*- C++ -*----------------------------------*\
  =========                 |
  \\      /  F ield         | OpenFOAM: The Open Source CFD Toolbox
   \\    /   O peration     | Website:  https://openfoam.org
    \\  /    A nd           | Version:  10
     \\/     M anipulation  |
\*---------------------------------------------------------------------------*/
FoamFile
{
    format      ascii;
    class       volScalarField;
    location    "18";
    object      SgP;
}
// * * * * * * * * * * * * * * * * * * * * * * * * * * * * * * * * * * * * * //

dimensions      [1 -1 -3 -1 0 0 0];

internalField   nonuniform List<scalar> 
111485
(
1.24251e-09
1.65539e-06
5.95596e-07
5.33533e-12
1.47213e-07
2.49498e-09
2.97349e-07
1.12412e-08
2.68656e-07
2.41932e-08
5.76805e-07
2.16545e-08
1.42211e-07
0.00519354
1.48761e-07
2.65616e-07
0.00391861
1.60718e-05
1.84248e-08
2.5162e-08
0.000692797
2.32524e-10
5.35896e-08
1.76907e-07
9.76596e-07
2.14831e-09
2.15615e-08
2.519e-07
5.0181e-08
0.000902673
6.4849e-08
3.0233e-10
6.37467e-09
2.55506e-08
1.34957e-05
1.80201e-06
0.00241797
0.0037236
4.26325e-05
7.51041e-08
0.00072233
1.54449e-08
5.82599e-08
2.02497e-06
2.91718e-07
3.90991e-08
1.21191e-07
1.53158e-08
1.27773e-07
1.45813e-08
2.85292e-08
3.58385e-07
1.00994e-08
1.74463e-07
3.48058e-08
3.0076e-09
2.85151e-08
4.18565e-10
8.71376e-07
8.89599e-09
2.00032e-08
5.82172e-09
2.17447e-06
1.1065e-07
1.50061e-07
4.59181e-07
6.81889e-06
2.86049e-08
1.48355e-06
3.36388e-06
9.40911e-07
2.02077e-06
2.14078e-07
1.93838e-06
5.7806e-09
1.54001e-09
1.11686e-09
1.55571e-08
1.98422e-09
4.73728e-07
0.00496753
0.00922391
9.27278e-10
2.18029e-09
3.96555e-07
7.37086e-07
0.00249499
1.40281e-07
4.39305e-06
1.01692e-07
2.89967e-08
1.30816e-07
9.76221e-07
4.99453e-09
4.23726e-08
4.2409e-10
0.000505061
2.72979e-07
2.84986e-05
8.28113e-06
6.49789e-10
5.61716e-08
3.54576e-08
2.35408e-07
1.31313e-07
2.53166e-07
1.92665e-10
8.24535e-09
2.95289e-07
1.17419e-05
4.52088e-07
2.15417e-08
2.53565e-07
1.40253e-06
5.6257e-09
3.129e-09
1.5637e-09
1.64877e-07
5.55575e-07
1.57038e-10
1.14602e-09
3.36074e-06
0.00124903
4.51686e-08
8.43772e-07
0.00053092
1.97799e-06
3.01222e-07
1.76059e-11
5.55101e-06
2.83013e-06
3.66739e-07
0.00088479
3.16975e-06
1.47317e-06
3.98123e-09
2.00943e-10
1.79913e-08
2.67835e-07
5.14604e-07
1.43808e-06
3.08598e-09
0.00333988
1.69675e-06
5.99008e-07
5.86353e-08
2.32812e-10
8.39486e-10
2.22218e-09
2.13396e-08
5.83112e-07
0.000530752
0.00197891
1.36629e-07
1.18399e-06
1.165e-09
8.20784e-08
3.24588e-06
1.61695e-05
1.09077e-07
7.74153e-11
4.31296e-09
7.32555e-07
1.11829e-06
1.3465e-06
9.25278e-07
1.19295e-07
0.000451772
2.74557e-05
2.20447e-06
4.10319e-11
2.09414e-09
0.00348143
2.68799e-11
3.51422e-09
1.70877e-08
8.08226e-09
1.59474e-07
4.06034e-09
9.72533e-08
1.5168e-07
4.98217e-09
2.79733e-08
7.48007e-09
6.13064e-08
4.2795e-07
1.89021e-07
7.86603e-07
6.41705e-06
5.53238e-09
1.0135e-06
8.91902e-08
1.31593e-07
4.28571e-07
1.05325e-07
2.33416e-07
5.65875e-08
3.48453e-09
2.00856e-08
1.60878e-07
3.08132e-08
2.78878e-05
1.4267e-06
5.12011e-09
3.05502e-08
9.80789e-08
2.23919e-07
1.99505e-07
2.8912e-07
6.99572e-08
7.80215e-08
1.45708e-07
1.43686e-07
1.13317e-10
1.68954e-06
5.055e-06
6.53567e-09
2.7939e-10
2.45994e-07
3.82422e-07
1.89233e-08
1.35316e-09
2.03608e-07
2.65675e-07
5.06642e-06
1.16681e-10
2.22395e-11
6.6212e-07
7.37793e-05
4.10552e-07
1.72626e-06
2.56576e-07
9.55922e-09
0.00262037
6.53638e-07
2.02006e-07
0.00284583
1.38903e-09
9.53215e-07
4.72405e-07
4.54759e-07
6.17974e-07
1.25764e-07
7.49334e-08
3.32065e-05
6.88522e-09
1.44423e-07
1.47864e-09
1.08155e-07
0.00245052
3.58513e-07
3.05826e-07
3.0741e-07
2.53117e-11
3.63588e-06
1.54725e-08
5.71616e-09
1.21197e-06
0.00180401
1.52563e-09
1.06803e-07
8.97087e-07
1.69482e-08
6.55606e-11
1.33461e-07
1.50607e-11
9.67476e-10
1.2452e-08
0.00296724
6.28798e-08
6.46549e-07
2.25349e-08
0.00314162
4.28294e-07
1.89035e-08
4.21567e-06
2.43234e-08
1.95522e-08
9.41409e-09
1.83838e-09
0.00202681
1.71335e-08
7.78886e-07
2.17477e-07
2.73858e-11
0.00401376
0.0049005
4.02729e-08
6.15224e-06
5.64827e-07
7.30461e-08
1.65561e-07
2.45693e-07
1.64562e-10
1.31511e-07
3.15275e-10
6.30821e-06
4.93738e-06
2.86577e-07
3.51524e-08
0.00613504
6.07056e-09
0.00144089
1.76771e-08
5.5734e-08
2.44572e-10
2.20309e-09
0.000461978
5.71309e-08
3.62793e-08
1.5395e-07
2.73111e-06
7.20361e-09
4.57674e-07
7.73167e-10
3.9158e-09
9.29111e-08
7.67659e-05
0.00443012
5.88336e-08
1.3966e-05
1.72788e-10
1.02011e-09
4.48384e-10
1.49535e-06
3.41147e-08
1.48549e-08
5.71652e-08
1.42226e-08
1.32056e-06
0.00112861
9.62309e-08
1.07964e-08
5.31257e-08
3.94446e-08
0.000795781
9.2879e-07
1.07581e-08
2.12153e-08
3.10938e-09
2.38202e-07
2.66287e-09
0.00264774
4.35776e-06
8.47537e-09
7.62098e-08
4.85826e-06
1.15152e-08
0.000652051
2.70107e-09
2.25629e-07
1.05417e-07
8.83767e-09
3.66388e-07
1.75632e-07
6.86134e-09
9.12778e-09
2.17542e-08
5.61434e-08
0.00664739
5.46773e-07
1.46763e-09
0.000882312
3.25675e-07
4.19086e-10
8.77694e-09
2.22152e-09
0.000880219
1.23904e-05
0.000856222
0.000824261
5.99972e-09
2.16559e-10
4.6658e-08
4.76287e-08
3.61965e-11
1.53336e-07
5.87527e-08
2.83122e-07
5.59388e-07
2.50884e-06
9.79618e-08
1.26104e-05
2.99605e-08
1.11629e-07
8.85441e-07
1.23008e-08
1.25227e-05
5.51641e-09
2.3641e-07
5.76279e-08
0.000503796
1.99466e-09
1.09744e-09
0.00272826
9.95337e-08
0.00556127
7.80778e-09
1.14182e-07
5.98609e-08
1.31587e-10
9.7484e-08
8.34571e-07
1.82841e-09
0.000596638
5.89012e-08
5.11642e-08
1.6637e-08
3.19777e-10
1.31547e-05
3.58087e-10
1.66171e-07
6.68727e-08
1.5351e-12
1.59014e-08
9.0632e-07
0.0043312
2.72503e-06
3.89728e-11
1.4406e-06
1.75081e-06
1.78708e-06
6.67841e-07
1.1744e-05
4.31755e-08
1.94883e-05
9.83314e-07
0.00367755
4.17301e-06
3.7966e-09
1.3488e-07
2.70159e-08
1.94481e-09
2.43326e-05
3.88343e-06
1.38747e-06
3.12791e-08
3.1813e-08
2.90041e-07
3.65895e-09
0.00615639
3.33305e-08
6.3792e-07
8.44916e-05
1.69318e-06
2.47809e-05
1.23025e-09
0.00449365
0.00582742
4.1334e-10
6.49345e-07
5.18489e-06
1.99493e-06
6.19468e-11
4.81265e-07
4.2322e-10
0.00527393
1.36364e-06
3.74265e-07
2.08763e-06
5.39149e-07
4.64414e-09
8.7871e-08
1.35145e-08
1.44155e-06
2.93101e-09
1.79438e-08
0.000977559
1.75662e-06
1.79414e-09
2.05038e-09
7.30611e-06
1.54034e-09
3.14538e-08
7.87653e-08
6.74836e-11
1.06007e-06
1.6672e-09
0.00138477
8.4886e-09
4.47077e-08
3.12918e-09
4.23657e-06
8.87468e-09
0.00397225
4.19211e-07
0.00416128
4.75722e-10
1.12408e-06
4.68544e-08
6.07397e-11
0.0064891
0.00252298
5.34465e-07
6.98713e-08
5.6496e-07
1.38016e-08
2.48183e-07
9.235e-09
6.09397e-07
0.00509054
1.05621e-09
2.04645e-08
1.95448e-06
3.18494e-07
0.000986914
1.00939e-07
2.01859e-06
2.11995e-08
2.4788e-08
1.3181e-05
0.00136538
1.62999e-07
9.70398e-09
2.10218e-08
7.36991e-08
6.03229e-08
2.30961e-08
4.04857e-07
2.10858e-11
3.00652e-05
1.81183e-09
6.51816e-09
4.7898e-09
1.73839e-06
5.00323e-10
1.43625e-07
4.12078e-09
1.66303e-07
1.31467e-09
0.00205728
0.00201025
4.89452e-07
1.41543e-09
0.0010855
0.0016486
5.6889e-09
4.17689e-09
2.69456e-07
3.86418e-09
2.81845e-06
2.90335e-07
2.249e-07
0.000795453
3.68409e-08
9.19652e-11
8.18387e-07
7.61166e-07
1.12027e-06
2.23475e-08
3.36562e-07
2.53752e-07
2.54642e-08
1.87717e-08
4.13464e-07
6.16149e-07
1.50669e-10
0.00225976
1.31252e-06
8.62679e-07
3.42328e-08
2.07421e-05
6.88455e-07
8.65165e-06
4.06177e-05
6.14643e-06
4.40769e-08
1.82885e-06
2.24475e-07
4.13778e-07
0.00202986
3.52833e-06
1.31192e-06
6.51807e-05
0.0013579
5.86992e-09
1.17699e-06
8.13621e-08
6.14556e-07
9.61089e-09
8.80178e-06
4.89499e-05
9.55908e-06
2.93616e-06
4.56732e-07
2.11866e-08
6.23937e-09
3.43783e-06
3.0897e-08
1.45121e-09
5.38425e-11
9.05781e-09
7.96259e-10
3.89378e-07
3.00766e-11
0.000651099
2.71532e-07
5.15329e-07
0.00181065
0.00589073
1.01879e-06
5.15607e-08
0.000691475
6.91693e-10
3.83459e-07
3.29596e-09
9.89133e-09
8.0179e-07
3.39524e-07
0.00208422
5.08086e-07
9.00849e-10
6.43793e-08
5.98477e-07
0.00253493
1.45885e-07
5.35967e-07
1.04016e-06
0.00346407
0.000696072
5.56629e-08
3.45287e-07
1.31934e-07
4.10287e-08
1.51089e-07
1.59203e-08
5.44286e-07
7.63947e-08
3.6991e-08
2.15238e-08
7.80514e-08
1.2742e-05
5.47908e-07
6.4797e-08
7.43745e-08
1.22781e-05
3.09813e-09
8.90883e-09
3.06242e-07
9.00261e-08
3.14719e-07
1.53856e-08
6.86717e-08
4.0701e-08
5.3217e-07
3.14828e-06
2.93167e-07
5.96094e-07
3.90829e-08
9.50661e-09
5.01671e-07
9.93211e-08
2.13865e-09
0.00129589
6.06622e-10
0.00242005
1.01297e-06
0.000235864
1.31173e-08
0.000492523
8.44744e-08
2.0999e-07
3.11458e-10
1.82153e-07
6.00029e-09
4.14023e-10
2.01109e-08
0.00497856
2.20392e-06
5.64455e-07
0.000762504
2.27827e-09
4.14719e-10
1.12586e-07
4.35352e-08
1.49008e-06
8.76233e-09
2.40313e-06
6.48477e-10
1.25392e-07
2.29145e-06
0.00297008
9.36738e-12
3.67391e-09
3.04976e-08
6.55182e-10
2.27445e-06
9.10849e-09
0.00104538
1.35964e-08
1.12921e-09
4.47438e-09
0.00075927
8.59509e-08
3.05077e-06
1.89072e-11
8.43314e-05
1.55917e-05
0.00320087
2.53216e-10
2.56058e-09
8.20705e-08
4.73865e-07
7.51592e-07
9.57779e-06
6.44206e-06
4.60922e-06
2.42753e-08
0.00105399
5.28673e-07
2.0092e-08
1.45572e-09
2.42593e-08
4.96506e-09
3.75309e-09
1.1417e-09
2.57264e-11
3.26036e-08
1.36219e-09
8.464e-09
1.98074e-08
2.6759e-09
1.16504e-08
4.67811e-09
1.47995e-08
4.1914e-09
2.56699e-07
3.03675e-07
8.7426e-09
7.25342e-10
4.56006e-07
2.14484e-11
1.55825e-06
3.04819e-08
8.45524e-08
2.94428e-09
8.45363e-11
2.15432e-10
4.30405e-11
3.21857e-07
2.06604e-09
1.18414e-08
3.86409e-07
2.18187e-10
3.14218e-07
1.40006e-06
6.92331e-08
1.58578e-08
9.47322e-06
5.44209e-08
0.00444348
2.01161e-06
2.0465e-07
0.0037653
1.4787e-06
1.97632e-07
5.41471e-07
5.93753e-09
3.45394e-07
0.0016927
1.23279e-05
8.45396e-09
3.91555e-09
2.45086e-07
1.51285e-06
1.75381e-06
1.36534e-06
7.64856e-11
4.739e-13
1.91409e-08
6.72646e-07
5.96583e-08
6.94802e-08
3.22098e-06
1.24874e-08
3.59657e-07
3.37825e-10
2.86514e-09
0.000558342
1.99414e-07
1.16466e-08
2.08455e-09
8.88201e-07
2.26411e-06
3.38364e-08
8.19123e-09
0.000759966
3.52725e-11
3.32513e-07
0.00106068
6.44869e-10
0.00125278
7.64956e-07
0.000617688
8.85835e-06
5.54292e-09
5.05317e-07
2.92428e-07
0.000852473
1.05277e-06
2.26217e-05
0.00285816
2.05476e-06
2.20091e-07
2.11224e-08
1.15375e-08
0.00855421
0.00286261
3.18663e-09
0.00418729
1.2335e-07
2.95532e-06
3.66904e-07
3.71444e-07
2.08012e-05
7.17269e-07
1.25916e-07
1.28871e-07
2.24387e-08
9.85121e-09
0.000765768
3.42857e-09
4.8432e-07
3.20423e-07
9.86668e-10
4.84152e-08
0.00388472
4.11647e-08
6.26091e-09
1.06493e-05
8.17223e-10
7.04905e-09
0.00387971
7.82605e-09
0.00330658
0.00626512
2.2939e-05
2.55006e-07
1.8796e-08
5.97459e-08
1.04689e-06
4.62655e-06
2.03994e-05
5.39862e-06
7.88565e-08
0.000762801
1.9889e-06
5.97843e-10
6.47344e-06
5.2014e-06
1.15352e-05
8.37496e-06
1.6123e-05
3.07325e-06
1.03711e-10
1.30919e-06
1.16968e-08
1.3805e-08
2.66171e-05
0.00614093
4.34728e-09
5.62992e-09
5.71962e-05
6.23448e-05
4.27238e-11
1.12041e-05
9.85526e-09
2.30098e-10
3.46057e-10
7.70153e-09
1.06399e-07
8.23863e-09
1.37059e-06
0.000856337
5.60628e-11
1.36605e-08
7.90799e-05
0.00205634
1.42026e-06
1.36473e-09
0.000544607
6.97777e-11
2.46571e-06
5.33356e-10
8.53886e-10
1.07754e-05
0.00229216
4.39532e-08
1.99948e-09
3.27157e-09
0.00059383
8.50206e-09
0.000388428
4.63958e-09
2.15924e-06
1.36994e-10
3.85378e-05
4.35162e-08
4.38384e-11
1.79229e-08
9.61757e-09
2.73094e-05
1.63782e-08
3.72552e-09
3.52934e-08
8.50205e-05
0.000907106
1.33104e-06
1.055e-05
2.03927e-05
4.02437e-09
2.25046e-05
1.80809e-07
3.77778e-09
4.96261e-08
4.26487e-06
3.88781e-07
4.61084e-09
1.56633e-07
2.77741e-06
4.14107e-09
1.45127e-08
1.65849e-08
3.2587e-07
0.00125629
9.72071e-11
1.86573e-09
0.00101243
2.12231e-06
1.35836e-06
2.91917e-10
3.3277e-08
2.85356e-09
1.94559e-08
4.42928e-07
1.02445e-06
1.77634e-08
4.83502e-07
4.42247e-07
1.46774e-06
3.93864e-07
9.46164e-11
6.24085e-08
7.97047e-11
9.65341e-09
1.5274e-06
3.02611e-06
3.64394e-09
8.67727e-09
2.16589e-08
8.68455e-11
7.82831e-07
9.30324e-09
1.26947e-06
1.52869e-05
1.53416e-06
4.80338e-09
2.6875e-05
2.09747e-06
1.33039e-06
2.79235e-06
8.48009e-10
2.69512e-06
6.02519e-08
0.00219911
6.21695e-07
1.80422e-06
8.94912e-09
1.35116e-11
1.30783e-09
0.00328511
0.00125597
9.89142e-07
8.16948e-12
2.42659e-06
6.46538e-10
0.0031018
3.26822e-06
1.53737e-08
2.53379e-09
4.84059e-08
1.55983e-08
1.69486e-06
4.40645e-08
2.1003e-06
0.00557641
9.08062e-08
1.28725e-06
5.26122e-07
1.3379e-06
9.26458e-07
7.91428e-09
1.1429e-11
7.94267e-08
5.68794e-07
4.75548e-09
3.75946e-09
1.07226e-05
6.84171e-09
5.61306e-08
0.007545
2.70948e-08
1.22097e-06
1.33272e-11
3.0137e-08
3.74715e-09
0.00621201
3.89887e-10
0.00214948
0.000105565
2.38446e-06
3.2827e-07
3.01751e-07
1.78181e-05
4.60067e-08
1.00862e-07
4.8361e-08
7.30563e-09
1.29487e-08
3.82994e-08
1.52488e-06
5.64455e-08
0.00118882
4.63508e-09
9.63373e-08
5.77707e-06
9.26907e-11
7.26848e-06
4.57965e-09
8.51477e-07
1.41067e-05
2.35071e-09
2.34595e-09
1.16706e-06
9.77831e-09
8.18169e-08
0.0033844
9.15441e-09
1.82302e-07
1.33588e-10
0.000778553
1.59101e-07
1.22199e-08
1.15571e-08
8.10085e-08
1.32252e-07
1.41455e-09
0.00270442
2.04716e-08
5.03322e-11
2.28815e-06
8.18964e-09
1.34794e-10
8.21043e-07
1.5968e-05
1.46439e-05
4.44e-10
3.39069e-08
8.42227e-10
1.02393e-06
8.68304e-07
0.000643251
1.06213e-07
1.45527e-05
1.25384e-06
2.06134e-05
5.2193e-07
5.3951e-08
2.20524e-08
2.47276e-08
5.37437e-07
3.92906e-08
1.53876e-07
0.000820171
5.22053e-06
0.000801462
4.27097e-11
1.09116e-07
1.79989e-09
1.40581e-06
1.68855e-06
4.26042e-08
8.84411e-07
8.50948e-06
2.63898e-06
1.54072e-11
0.000113656
0.000144165
1.96753e-06
7.71482e-07
1.69318e-08
1.56226e-05
3.69378e-08
7.37774e-08
7.13138e-09
1.18145e-09
4.37946e-06
1.45897e-07
1.64745e-05
1.51688e-08
0.000792904
1.13393e-05
1.6042e-08
1.97271e-08
1.1186e-05
5.89058e-08
0.00104033
0.00506121
2.3155e-06
4.23308e-06
1.27823e-07
9.71869e-10
4.54577e-10
2.89011e-09
1.30938e-06
8.37754e-08
0.000582783
0.00102661
5.61289e-07
4.64154e-09
5.66068e-06
0.000704149
4.61105e-07
2.11197e-05
4.41665e-05
0.000739198
0.00228225
0.000859548
2.60683e-06
1.57629e-10
3.59073e-05
3.17843e-08
3.51653e-09
4.5866e-09
5.51925e-09
5.21421e-07
1.30266e-09
3.30579e-09
1.58803e-06
2.33342e-09
2.47173e-10
1.71502e-08
3.23235e-09
0.00100099
9.25178e-08
6.18666e-07
0.00129159
0.00478664
1.99447e-09
0.00333664
3.20268e-06
0.00695757
2.51719e-07
1.37394e-09
1.72041e-09
8.11366e-07
0.00464671
3.7675e-11
2.28648e-05
1.98313e-09
5.96154e-08
2.9004e-07
1.57785e-07
2.71139e-08
5.83659e-09
0.00131166
2.59288e-09
4.96173e-08
4.75428e-09
9.22971e-09
6.41742e-09
8.86952e-06
8.99213e-07
1.98459e-08
6.55847e-06
4.0927e-07
9.89623e-09
2.31632e-06
2.20032e-08
2.55621e-07
3.79676e-09
2.32346e-09
0.00468284
0.000743948
7.84323e-06
6.01196e-09
6.78832e-10
2.98577e-08
0.00344345
1.00966e-08
1.88241e-07
1.49471e-08
4.11329e-08
5.26479e-10
0.000598264
2.7342e-06
4.92357e-09
2.05147e-08
3.21545e-07
3.15334e-09
0.00330509
3.62769e-10
0.000756227
1.59831e-06
9.45818e-08
2.85506e-10
2.77602e-08
2.49545e-08
3.12023e-09
5.36724e-08
7.55907e-08
2.23624e-11
1.23119e-10
1.80816e-06
0.00136758
2.59682e-10
6.91491e-07
5.76649e-08
1.81912e-06
4.43344e-09
0.000821963
3.2122e-08
1.05528e-06
1.08299e-06
7.66904e-09
1.19851e-06
4.54186e-08
3.01293e-07
3.46364e-09
6.44976e-09
2.69452e-07
1.39111e-09
3.31389e-06
1.17696e-06
1.28449e-09
5.76249e-09
3.09719e-06
9.51571e-06
0.00553259
2.49752e-09
1.11094e-07
3.95413e-08
6.61513e-06
3.58098e-06
5.79309e-07
1.56926e-06
0.00135968
8.89103e-08
9.51206e-07
1.40874e-05
0.00115441
1.54372e-08
9.31156e-10
7.33702e-06
2.13445e-08
0.000707509
4.90825e-09
2.18392e-07
2.27355e-08
4.34126e-09
0.00410972
1.20679e-09
1.08682e-08
1.60832e-08
4.61744e-07
0.00641306
0.000971275
8.76914e-09
2.441e-09
7.36992e-11
1.11056e-08
1.06724e-08
1.74644e-08
2.98614e-09
1.33877e-10
3.90617e-09
1.92296e-10
5.39213e-09
0.001066
0.000635176
2.15095e-10
2.61512e-07
4.0865e-09
8.39913e-09
2.10822e-09
0.000622969
0.0015455
2.01365e-07
4.38873e-09
1.38434e-09
1.65516e-08
3.9408e-08
8.82731e-08
5.81639e-09
6.45063e-06
5.00828e-09
5.40821e-08
1.13814e-07
3.17995e-06
9.72075e-08
1.37107e-05
5.18853e-08
4.88017e-09
8.34245e-06
7.94997e-06
6.08096e-09
4.92348e-07
8.32956e-08
2.67004e-07
8.88017e-07
1.95372e-07
7.39149e-08
3.46172e-09
0.00610422
2.13647e-08
1.16261e-06
0.00106923
2.52614e-06
2.68805e-07
3.9958e-07
1.02411e-07
2.12238e-09
6.31568e-07
1.13426e-06
1.62787e-06
8.03858e-08
7.93947e-07
8.28623e-08
3.67469e-08
1.62303e-08
1.48759e-10
7.93272e-09
5.61148e-10
1.00054e-11
2.75761e-09
1.6987e-08
1.3542e-07
2.37526e-09
3.56985e-11
8.11398e-09
3.09515e-07
6.46648e-09
2.13837e-10
1.47331e-08
4.15381e-08
3.34344e-09
1.86833e-06
1.54663e-07
0.00455601
2.24497e-09
2.05244e-07
3.68202e-07
7.95006e-08
4.00103e-10
1.04798e-08
0.00415305
9.4048e-09
2.90142e-10
6.65883e-08
0.00419149
1.80735e-08
1.21024e-06
1.11587e-06
2.99155e-08
2.07401e-07
4.95845e-07
6.91363e-06
2.67104e-10
9.39824e-07
1.05569e-07
3.60367e-09
5.22671e-06
7.24625e-06
0.00367178
1.35775e-07
3.0367e-08
1.88581e-07
7.72243e-07
1.88172e-07
1.35955e-08
4.38911e-05
3.88832e-09
1.28738e-05
6.8784e-06
0.00113131
1.42668e-07
0.00477272
4.87026e-09
1.91921e-08
4.19827e-08
4.72531e-07
1.03146e-06
7.15802e-08
2.83847e-06
9.62129e-10
1.66108e-07
4.18988e-10
2.18776e-10
1.98863e-08
7.69847e-06
5.47545e-09
3.78315e-10
8.12717e-06
7.04235e-09
9.66674e-06
4.67457e-08
1.77925e-08
3.69126e-08
4.18833e-09
3.67665e-07
9.68733e-08
3.74646e-06
9.15958e-09
1.43547e-07
6.33471e-05
3.113e-08
3.24385e-10
2.69089e-06
6.41784e-08
6.27676e-07
8.86295e-10
0.00267432
2.29433e-06
8.66885e-07
4.52871e-08
6.18853e-09
3.79879e-06
1.1093e-07
3.22253e-09
8.19482e-11
1.38453e-06
1.36553e-06
1.54904e-06
0.00353887
9.39731e-08
1.82726e-07
4.71101e-06
8.52445e-08
8.20744e-08
2.84379e-08
1.23819e-06
4.43328e-08
2.25798e-06
0.00330418
2.38154e-07
3.16677e-13
2.51613e-08
8.99302e-07
3.41104e-07
5.3226e-09
1.13025e-05
1.51545e-05
8.59615e-06
1.73753e-05
3.27565e-07
9.006e-07
2.99333e-07
3.28097e-07
6.36427e-09
4.23609e-10
0.00187186
9.51712e-06
4.21906e-08
2.5678e-05
1.07456e-07
5.20765e-07
8.92518e-06
8.59028e-08
4.9665e-08
5.96325e-08
6.8642e-10
7.82291e-07
5.66044e-07
2.28376e-06
5.06113e-07
8.4732e-09
8.48974e-09
4.156e-07
3.14267e-08
5.51784e-10
5.98451e-06
1.00329e-07
1.82473e-07
8.50208e-07
1.66024e-08
2.81388e-09
9.77203e-06
0.00243151
1.34398e-08
4.18521e-10
1.02646e-10
0.00252785
0.00438428
7.35197e-09
0.00100116
1.68132e-07
3.65525e-07
1.45928e-07
1.71256e-07
2.76499e-07
2.42654e-07
5.9697e-07
0.00195954
0.00644208
0.00735046
2.23553e-07
4.37809e-07
3.57924e-07
1.44709e-07
0.0067609
6.27787e-10
0.00358756
7.05053e-07
6.05546e-10
8.34924e-09
1.01664e-08
7.29574e-09
1.44807e-09
3.73067e-09
1.20266e-09
0.00242401
1.22939e-09
6.04993e-07
3.58285e-06
4.29695e-10
8.65462e-08
1.24186e-07
9.10444e-08
2.04998e-09
1.08508e-05
1.03465e-07
2.14904e-08
1.48982e-06
1.02167e-07
3.4478e-07
2.04143e-07
1.98863e-08
7.92316e-09
3.47228e-07
5.74683e-05
6.01411e-07
1.03054e-08
2.81614e-07
1.96551e-08
4.03708e-07
2.39036e-06
1.98235e-07
1.05226e-07
8.81951e-08
2.22841e-08
1.05919e-06
8.85223e-09
2.31178e-07
0.000764447
7.35648e-06
0.00588242
1.29856e-05
1.88405e-06
2.64518e-10
0.00114893
7.88943e-10
1.17585e-06
1.34712e-07
2.11417e-07
1.62605e-06
1.07389e-08
6.92262e-09
6.77332e-07
1.633e-08
5.5914e-10
4.11414e-07
1.31844e-08
4.60827e-07
0.00131566
4.52961e-09
6.89625e-07
3.07911e-08
2.21152e-08
2.9993e-10
4.29837e-06
1.74341e-06
4.35048e-08
7.08282e-09
2.52656e-08
0.000831592
3.93997e-06
2.23855e-07
3.1399e-07
6.43813e-11
3.69634e-12
1.30507e-08
3.03821e-10
8.88613e-07
3.54285e-09
3.94258e-07
3.99392e-08
6.2453e-09
5.37269e-08
6.4502e-10
1.09822e-06
1.53088e-06
8.16369e-07
9.12735e-09
2.08367e-09
1.99033e-08
4.52058e-08
9.92448e-06
2.89099e-08
0.00307684
3.84358e-07
3.95474e-09
6.2072e-09
4.1267e-06
3.12998e-07
1.98894e-05
3.13347e-08
1.9156e-06
0.00413137
2.7734e-10
5.76134e-06
3.58365e-07
0.000796152
2.88447e-08
0.000886343
0.00154927
2.18308e-06
1.30143e-07
3.27208e-07
8.05443e-10
2.74362e-07
4.66203e-07
6.25116e-06
3.23775e-07
9.28042e-08
4.33159e-07
7.04793e-06
6.29327e-06
8.21713e-06
2.7351e-06
1.87602e-09
1.73083e-06
1.48154e-05
1.0669e-07
6.19282e-08
4.2401e-06
3.57521e-06
2.86939e-07
3.15539e-07
4.52745e-06
2.7551e-07
7.02851e-06
4.48755e-06
3.83422e-07
6.56362e-10
6.43885e-07
8.06681e-06
0.0012398
4.74047e-08
2.01891e-08
8.09351e-07
2.65748e-08
1.41253e-06
1.51324e-08
6.8333e-06
8.19968e-09
1.66078e-06
4.48114e-09
2.93906e-09
2.38082e-07
1.64502e-05
2.29765e-05
0.00589781
2.42327e-07
2.95637e-08
1.70773e-09
7.71462e-06
4.13351e-07
0.000562509
0.00131327
1.82919e-11
1.40138e-05
1.08876e-06
7.11294e-08
1.04496e-08
2.25539e-05
2.02479e-08
0.000799704
4.0511e-09
2.74585e-10
5.2323e-07
1.9812e-08
3.66086e-08
6.93858e-07
0.00073695
3.59059e-07
1.5261e-08
1.58488e-06
0.00388894
0.000719259
1.2361e-07
5.23743e-06
4.64803e-07
1.00716e-05
8.49158e-08
0.000698394
8.68484e-07
3.4457e-06
2.8929e-09
8.42027e-09
8.69876e-08
1.39974e-08
4.01322e-07
3.30073e-08
1.22148e-08
4.68405e-08
8.35989e-08
1.77997e-06
5.42308e-10
1.1934e-08
0.00134084
1.64301e-10
1.63498e-09
8.00705e-07
8.48726e-09
4.40688e-06
6.24378e-07
0.00110273
3.78007e-07
0.00458761
2.66508e-07
3.62629e-07
0.000745019
3.03602e-06
9.30201e-12
1.55755e-08
0.000523491
2.43408e-07
1.551e-06
3.19713e-07
1.51033e-09
1.3258e-07
1.49804e-07
1.97223e-08
0.00227598
3.5589e-08
2.29513e-08
6.39256e-08
1.22707e-08
1.08985e-09
1.69072e-06
5.94282e-08
0.00484434
1.63046e-06
6.34016e-07
7.85294e-07
1.00346e-06
3.33641e-07
6.58451e-08
1.13061e-10
2.32019e-08
1.64632e-06
3.82758e-07
7.3639e-08
5.63344e-09
3.20664e-07
1.88772e-08
8.53722e-07
6.26453e-09
1.33207e-08
2.64172e-08
5.85165e-07
4.15039e-07
6.53435e-07
4.64768e-09
5.0525e-09
3.23571e-05
7.02855e-09
1.48973e-09
1.57251e-10
2.67548e-08
0.00544297
4.26467e-09
3.44532e-06
1.28684e-06
4.64117e-07
2.49145e-09
1.76143e-08
3.83867e-06
1.55663e-07
4.38848e-09
8.09215e-07
2.19459e-09
1.66843e-09
5.81364e-10
1.82641e-06
4.8842e-09
0.00579503
9.31365e-06
6.75495e-07
3.43206e-05
1.06356e-08
1.42657e-07
9.45609e-10
0.00110659
1.7541e-07
1.03253e-07
3.35457e-08
2.09861e-08
1.25707e-09
0.00840262
3.43595e-07
8.96944e-06
1.24854e-06
8.06397e-09
0.00218788
1.5613e-08
6.42925e-09
1.05874e-08
1.93974e-08
3.72553e-07
5.27419e-09
4.87016e-07
6.72799e-07
9.94475e-06
5.50297e-08
3.23791e-10
3.20878e-06
9.5475e-09
0.00275103
5.5266e-08
6.00063e-09
2.78327e-08
3.58925e-07
0.00114294
0.000558916
3.23893e-07
9.42833e-07
0.00167381
6.05359e-08
5.77528e-07
0.000784303
2.24903e-07
1.42231e-08
0.00302366
0.000348768
1.70923e-07
6.27242e-07
1.7424e-09
7.38175e-07
3.02019e-05
1.72008e-07
1.75182e-07
6.47844e-06
3.40826e-10
0.000430887
2.58368e-09
4.986e-07
0.00344086
2.59614e-09
2.2272e-07
1.00625e-07
9.00685e-09
1.00604e-08
9.64166e-07
1.22254e-08
2.79858e-09
6.34259e-07
2.14541e-07
8.87081e-10
0.000432112
0.000820511
1.66277e-07
6.32105e-12
1.3693e-10
2.67147e-06
2.88839e-07
9.66973e-08
5.1875e-09
9.99995e-09
2.48999e-06
1.37561e-06
8.66773e-07
1.61384e-06
0.00678235
1.2131e-10
0.00261198
5.66605e-08
1.27555e-08
0.000939761
2.85962e-08
9.86805e-10
0.000426421
7.37684e-11
1.21234e-07
1.1513e-07
4.84092e-08
1.72486e-08
6.48788e-09
1.79244e-10
6.2989e-10
3.69383e-07
0.00231434
0.00388694
4.28423e-07
6.75066e-08
4.73165e-12
0.00104275
0.00397871
5.68042e-06
2.40902e-08
6.38469e-09
2.18788e-05
4.02756e-06
3.62453e-09
5.84665e-10
1.9774e-08
1.2432e-07
2.38971e-09
1.75839e-07
1.53512e-06
0.00111282
0.00385988
8.31233e-07
1.33294e-05
2.25314e-10
1.17603e-08
4.58468e-07
2.43369e-06
5.29179e-07
6.96795e-06
2.82435e-07
2.50274e-07
2.05686e-09
9.66274e-09
2.76933e-07
0.00108573
8.59356e-09
0.00320796
7.82568e-10
2.0837e-07
4.41404e-08
3.45317e-07
5.97727e-10
3.28928e-11
1.10133e-08
1.16912e-09
4.90899e-08
6.0291e-06
6.60704e-09
0.000690545
2.599e-07
0.00282126
1.55981e-08
4.62143e-08
3.04582e-08
3.71127e-08
2.05591e-07
2.19011e-10
1.01479e-09
8.58719e-10
8.04151e-08
1.51912e-07
0.000963347
0.000937462
1.31041e-07
1.67113e-08
1.07235e-10
5.40136e-11
4.36191e-10
2.22338e-08
3.61827e-06
7.79849e-09
3.05444e-10
1.04536e-10
0.000407942
7.75966e-07
9.89222e-07
0.000756395
1.22933e-08
0.00579444
1.63344e-07
1.44546e-08
1.79591e-11
4.84968e-09
0.00100054
1.5698e-11
4.51753e-07
9.06053e-10
1.13631e-05
7.72715e-07
1.60652e-06
2.42083e-06
4.93973e-07
6.75096e-10
4.65457e-10
0.0063358
6.92037e-07
6.07892e-07
4.3228e-06
1.628e-08
1.59517e-06
1.58649e-06
5.14317e-08
9.24192e-08
5.7443e-06
6.27869e-09
1.19419e-05
0.000728441
3.67705e-08
6.96245e-09
1.45658e-06
1.46524e-08
0.00063578
0.00333737
4.34771e-07
7.57478e-10
6.82296e-05
5.8286e-09
2.53698e-07
3.53994e-08
2.5083e-06
4.85191e-11
1.75462e-05
1.79718e-06
2.52202e-06
4.5591e-07
2.1258e-06
5.25883e-07
1.17823e-07
2.6618e-11
3.20762e-06
1.05776e-06
1.06509e-06
2.07894e-08
1.7167e-07
2.10635e-06
7.83507e-06
1.93288e-10
4.02977e-10
1.61674e-09
1.91365e-11
2.18034e-09
0.000395322
8.2104e-06
2.51539e-06
1.15279e-06
3.75022e-06
1.65251e-06
6.3367e-12
3.42331e-07
3.72022e-10
9.48066e-09
1.45824e-09
4.07077e-07
3.81045e-05
4.22355e-07
2.38977e-09
4.75204e-09
3.04994e-08
7.52165e-09
2.58536e-09
0.00259547
1.93827e-07
1.16538e-05
1.77372e-05
1.29801e-05
1.30936e-09
1.00505e-05
1.22084e-05
2.26229e-05
1.24162e-05
6.42047e-10
4.29668e-11
3.09835e-08
2.15592e-07
1.18667e-06
6.3539e-06
0.00070578
4.24089e-07
5.62673e-07
7.29111e-08
1.02223e-05
3.94176e-09
9.51169e-11
2.20437e-06
7.01773e-06
0.000488565
2.18718e-10
0.0020785
2.0819e-06
1.44042e-08
1.50807e-06
1.06532e-07
2.19076e-06
5.05133e-08
2.13027e-06
5.54467e-09
1.60811e-07
4.0078e-05
8.1965e-07
1.4608e-08
3.24996e-05
9.69259e-07
1.83053e-07
5.97681e-05
1.35606e-09
2.05626e-07
9.3976e-07
1.66534e-06
1.2626e-08
0.00338247
2.68767e-09
2.88714e-08
4.13512e-09
0.00209388
0.00207349
4.50689e-08
5.12977e-08
3.05815e-06
0.00102865
1.07544e-08
1.48675e-07
1.97738e-07
2.05063e-07
2.62812e-08
0.00362804
2.01637e-07
3.54875e-07
7.81147e-05
1.50094e-09
1.15921e-07
3.40922e-08
4.43943e-08
5.05015e-10
4.54106e-05
6.55933e-05
1.66477e-09
1.72668e-08
3.18658e-08
1.75984e-06
3.51562e-10
0.000737187
1.08879e-08
2.26059e-07
1.46266e-08
1.37191e-08
4.73643e-08
9.28444e-07
2.97349e-08
9.28628e-08
4.24357e-06
2.32129e-08
2.60763e-08
0.000800092
2.17225e-08
5.55337e-08
5.90104e-08
1.76072e-07
3.34779e-11
4.64352e-10
4.55078e-11
1.13046e-07
1.17781e-08
0.00112139
3.58933e-07
1.87863e-07
8.88935e-10
1.82002e-07
0.00206864
1.61137e-06
1.59977e-07
5.26405e-07
2.04897e-07
6.26307e-09
6.94296e-09
3.8954e-07
2.86354e-08
4.73349e-08
8.80644e-06
9.30935e-08
2.08978e-09
5.67198e-09
2.98432e-08
1.33034e-08
1.17517e-07
9.55192e-10
4.78474e-08
2.80059e-07
5.0633e-09
2.71794e-11
0.000852918
1.43096e-10
1.00094e-10
4.80044e-07
0.00105457
2.57119e-07
3.95668e-08
6.21995e-10
2.42604e-07
1.02621e-07
5.25248e-07
9.4733e-08
2.04325e-09
3.34527e-08
1.59286e-08
1.04184e-07
1.10724e-09
6.68805e-10
8.23655e-09
6.61173e-08
3.6922e-07
2.56959e-08
3.60433e-09
1.29317e-07
9.21598e-07
2.5597e-09
5.80037e-07
9.79632e-09
1.71277e-08
5.9098e-10
7.44719e-07
2.94997e-09
3.65704e-07
5.13238e-11
4.516e-07
5.00759e-10
2.9405e-08
6.11095e-06
2.55014e-09
1.08704e-09
0.0012639
9.75357e-10
0.00104093
1.00385e-08
1.17394e-08
2.01017e-07
3.90715e-07
0.000774577
1.1574e-06
0.000922628
0.001121
1.81025e-06
1.73502e-07
0.00075215
1.9253e-07
5.07682e-10
3.00976e-07
0.00236722
0.000688223
0.000781315
5.70744e-10
1.79276e-07
1.47738e-10
1.19211e-07
1.79494e-08
1.24442e-07
3.16534e-06
1.55244e-07
1.98746e-08
3.89787e-09
6.79623e-08
5.3964e-06
1.18789e-09
1.42434e-07
6.22099e-07
3.95826e-08
1.25941e-11
1.19727e-06
6.26469e-07
5.15165e-07
2.37651e-07
3.20621e-07
9.17537e-08
2.53005e-07
2.81237e-06
1.5788e-07
1.16476e-07
2.22793e-06
8.30372e-06
1.34244e-10
1.78636e-08
3.87343e-09
1.23955e-06
1.86412e-09
4.95833e-08
6.28189e-12
7.40276e-06
0.00692999
0.00150829
2.57895e-06
3.85135e-10
2.02957e-07
0.000918477
0.00179253
2.10054e-08
4.88577e-06
4.56762e-08
1.07047e-08
7.65027e-09
2.39908e-09
2.69218e-07
7.48186e-07
8.18495e-09
8.68501e-10
2.63464e-07
1.0549e-08
0.00311354
0.00100849
2.18774e-07
2.31004e-10
3.06828e-09
0.000786964
4.7469e-10
4.01974e-07
1.00478e-08
1.09313e-05
3.26112e-10
1.27342e-07
8.15622e-09
3.82885e-09
2.00116e-05
0.00268444
0.0012055
2.66414e-08
0.00127919
7.01184e-10
2.57463e-07
2.9772e-08
0.00201008
7.8151e-09
3.02729e-06
4.26004e-10
5.40509e-08
4.93475e-06
2.49931e-08
2.71087e-06
4.85346e-09
6.14337e-08
5.92926e-07
2.90509e-07
7.1384e-08
1.08477e-08
7.12517e-09
6.05366e-08
2.41299e-08
4.18943e-09
2.49478e-09
0.00125144
0.000691101
2.81545e-09
0.00139195
1.73008e-10
5.60176e-09
7.78614e-07
1.18513e-08
1.03051e-10
0.000647953
2.37492e-09
6.79767e-11
1.07643e-05
1.58236e-10
2.95175e-11
1.08433e-06
0.00156478
3.75993e-09
0.000694135
7.79317e-10
3.7808e-08
0.00083276
1.24156e-07
1.67241e-05
1.94285e-11
3.01943e-09
2.30405e-08
3.89498e-09
0.00369558
0.000756748
1.95485e-06
8.65058e-10
0.000864175
1.54559e-10
6.52351e-09
8.5763e-10
0.00174332
3.42016e-05
3.13385e-07
2.49559e-11
1.72217e-08
0.000899341
1.86304e-05
7.58729e-09
4.58572e-06
0.0018521
0.00143098
6.49415e-07
0.00144913
1.82277e-05
0.000795297
7.25431e-07
0.00113958
6.00412e-06
7.74342e-08
3.51832e-08
4.3194e-08
7.82804e-06
1.6379e-05
9.11868e-11
1.03907e-07
1.8533e-09
7.58001e-07
1.58089e-07
2.78298e-08
1.61622e-07
5.40519e-06
4.61268e-09
1.77023e-07
6.88661e-09
4.77549e-10
1.88233e-09
8.87567e-10
8.78616e-08
2.00108e-09
1.33304e-08
2.06011e-09
2.67482e-07
7.6306e-07
7.48932e-11
4.79412e-11
1.06859e-09
2.17761e-09
2.29126e-08
2.10673e-05
4.01217e-05
1.91553e-06
1.35733e-10
5.92212e-07
1.61312e-07
0.000861747
5.2794e-07
3.0009e-07
9.40584e-09
1.67917e-08
5.07401e-08
3.92326e-06
2.00756e-06
0.00315812
0.00124967
1.46564e-09
1.42354e-05
5.53089e-06
8.56113e-10
4.72785e-08
8.95248e-08
2.08828e-09
3.88428e-08
7.78384e-08
0.00115008
2.65942e-11
1.57045e-06
3.07209e-09
0.000814037
9.74517e-07
0.000664158
6.19506e-07
8.38629e-10
1.15541e-09
8.8541e-09
4.85271e-07
3.41528e-07
7.40783e-08
1.66628e-07
2.09008e-08
1.44122e-05
5.35145e-06
2.46151e-10
2.01433e-06
9.63364e-07
8.43439e-07
1.70575e-06
5.73101e-05
8.09637e-08
0.00170157
5.83773e-09