/*--------------------------------*- C++ -*----------------------------------*\
  =========                 |
  \\      /  F ield         | OpenFOAM: The Open Source CFD Toolbox
   \\    /   O peration     | Website:  https://openfoam.org
    \\  /    A nd           | Version:  10
     \\/     M anipulation  |
\*---------------------------------------------------------------------------*/
FoamFile
{
    format      ascii;
    class       volVectorField;
    location    "18";
    object      U;
}
// * * * * * * * * * * * * * * * * * * * * * * * * * * * * * * * * * * * * * //

dimensions      [0 1 -1 0 0 0 0];

internalField   nonuniform List<vector> 
111485
(
(0.200089 -0.200227 0.00035441)
(0.56775 -0.0013896 -0.00367833)
(0.561365 0.00126517 0.00166876)
(0.200481 -0.200534 8.63496e-06)
(0.583911 0.00246769 -0.000202102)
(0.199422 0.199381 4.04086e-05)
(0.573465 0.00132012 0.000382934)
(0.588259 -0.00108706 0.00086121)
(0.574588 -0.000396379 0.000491487)
(0.586182 -0.00629473 -0.00271731)
(0.564497 0.00121222 0.00169113)
(0.59193 -0.00124611 0.00280069)
(0.556316 0.0001434 0.00137575)
(0.560835 -0.00143774 -0.00371611)
(0.569813 0.00206195 0.00127833)
(0.580501 -0.00351583 -0.00210556)
(0.574303 0.001042 -0.00042872)
(0.20545 -0.0240407 0.0333515)
(0.585328 0.00143654 -0.00126341)
(0.197959 -0.197627 -4.49346e-05)
(0.198488 -0.198478 -0.000277675)
(0.200101 0.20003 1.02383e-05)
(0.578682 0.0013617 -0.000243911)
(0.586803 -0.00384501 -0.00115242)
(0.57588 0.00270437 -0.000865898)
(0.201851 -0.201065 -0.000296833)
(0.594105 -0.00283292 0.0031043)
(0.564836 -0.000467383 -0.000394749)
(0.586553 0.000738745 -0.00146173)
(0.199428 -0.199519 9.33156e-06)
(0.591243 0.0108871 -0.00300083)
(0.58052 0.000268601 8.84127e-05)
(0.19813 -0.1986 0.000329894)
(0.199753 0.200124 -0.000504376)
(0.200772 0.0820118 0.0345291)
(0.200691 0.201823 -0.00281334)
(0.588817 0.0106283 -0.00438227)
(0.562099 0.000972756 0.00514346)
(0.581591 0.17418 0.0112806)
(0.583829 0.00294673 0.000385481)
(0.196574 0.198198 -0.00139465)
(0.590837 0.000609362 -0.00359889)
(0.582982 0.00309028 0.00109615)
(0.562628 -0.00435615 -0.000877377)
(0.589511 -0.0107701 -0.00523409)
(0.199677 -0.198553 0.00122412)
(0.590707 -0.00259159 0.00282361)
(0.585983 -0.00355131 -0.00106059)
(0.590778 0.000191255 -0.00275899)
(0.199137 -0.19693 0.00119866)
(0.19773 -0.195898 0.00125444)
(0.228037 0.191106 0.00311212)
(0.197026 -0.196414 0.000674403)
(0.590702 0.00263185 -0.0053689)
(0.196668 -0.19574 0.000170556)
(0.583082 0.00145888 -0.000628294)
(0.583051 -0.00262076 -0.00109776)
(0.200069 0.199793 4.24332e-05)
(0.531428 -0.00126888 -0.00948814)
(0.58611 0.00232458 -0.000290323)
(0.585849 0.00264416 -0.00020219)
(0.199653 -0.199984 0.000247025)
(0.538431 0.000405421 0.00308571)
(0.593646 -0.00122143 0.00458571)
(0.206086 0.186291 0.000176388)
(0.537228 0.000854525 -0.000942966)
(0.411066 -0.0374079 0.0142944)
(0.58779 -0.00161843 0.000781267)
(0.525673 0.00025018 0.00108354)
(0.501546 -0.0010519 -0.000320612)
(0.565802 0.00434865 -0.00346873)
(0.522371 -0.00094978 0.00142905)
(0.214907 -0.194252 -0.00422143)
(0.532368 0.000858998 0.00368655)
(0.199885 -0.199761 7.5814e-05)
(0.584411 -8.72114e-05 0.000441616)
(0.200002 0.200067 -5.54008e-05)
(0.591043 -0.0011047 0.00314085)
(0.199866 0.19978 -4.92918e-05)
(0.178281 0.173504 -0.00630321)
(0.568496 -0.00880746 0.00591618)
(0.585788 0.00212354 0.000475099)
(0.198946 0.198548 -2.81605e-06)
(0.199828 -0.19979 9.23037e-05)
(0.550751 -0.000253737 0.000584852)
(0.531614 0.00138203 -0.0023218)
(0.453206 0.288798 -0.0804675)
(0.582559 0.00725637 0.000615656)
(0.560464 0.0149878 0.0136764)
(0.564206 0.000880835 0.00140335)
(0.598981 0.0110049 -0.00728443)
(0.584899 -0.00106047 0.000950037)
(0.543616 -0.000967057 0.0015234)
(0.562529 0.00113483 -0.00121044)
(0.591807 0.00185121 -0.00375238)
(0.199881 -0.199861 1.9679e-05)
(0.199191 -0.199062 0.000147542)
(0.582362 0.00676644 0.00201571)
(0.608526 -0.126382 0.00339492)
(0.549749 0.00532811 -0.0016407)
(0.199805 -0.199809 9.65947e-05)
(0.585201 -0.00336869 0.000330412)
(0.200924 0.201225 0.00109939)
(0.57986 5.37444e-05 -0.000319378)
(0.573323 -0.00251979 -0.00323377)
(0.196375 0.174317 -0.00430746)
(0.200199 0.200099 -6.9816e-05)
(0.580716 -1.71504e-05 -0.000122365)
(0.540182 -0.00304484 0.000309332)
(0.518138 -0.0152956 -0.0165506)
(0.558976 0.000113598 0.000303782)
(0.580144 0.000729359 -0.00021504)
(0.541078 -0.00040739 0.00208565)
(0.533079 -0.00308894 0.00122349)
(0.201792 -0.20074 3.716e-05)
(0.518389 -0.000316583 0.000671672)
(0.200953 -0.200359 -0.000262181)
(0.20082 0.199604 0.00116242)
(0.568777 0.00180772 0.00124049)
(0.200389 -0.200259 6.1322e-05)
(0.202001 -0.20101 -0.000105814)
(0.264543 0.20721 0.0129379)
(0.197211 0.198143 -0.000382745)
(0.199959 0.199459 -0.000716832)
(0.557678 -0.00125306 0.00231335)
(0.16035 -0.114505 -0.029331)
(0.252349 0.215885 0.00846969)
(0.524284 -0.00014139 0.00151059)
(0.200136 -0.20004 -8.21468e-05)
(0.58549 0.0419369 -0.0153888)
(0.587169 0.0126959 -0.00677764)
(0.58136 0.00695974 0.0019986)
(0.198972 -0.198497 -0.0011382)
(0.258838 0.224543 0.0235772)
(0.241183 0.214635 0.0107564)
(0.586516 0.0014644 -0.00122855)
(0.200325 0.200262 -8.70109e-05)
(0.580284 0.00100631 -7.8404e-06)
(0.576942 0.00216454 0.00150019)
(0.566361 0.00222594 0.00231155)
(0.4425 -1.48097e-05 0.00212792)
(0.581834 0.0027388 0.000523245)
(0.576386 0.00242906 0.0016082)
(0.55147 0.000364914 -0.00228774)
(0.577404 -0.00100228 -0.000539956)
(0.563854 -0.000400201 0.000982363)
(0.200425 0.200445 -3.2632e-05)
(0.200034 -0.200067 1.3324e-05)
(0.199729 0.199949 0.000471497)
(0.583161 0.00240142 0.000479948)
(0.552015 0.000725286 -0.00203091)
(0.198529 -0.19848 0.000116695)
(0.375731 -0.00220193 0.00373997)
(0.566405 0.000872364 0.00293036)
(0.62421 0.024523 0.0105731)
(0.586354 0.00138939 -0.00118284)
(0.583723 0.00150543 -0.000532128)
(0.54018 0.000172424 -0.000995436)
(0.62602 0.0339736 0.00582624)
(0.198831 -0.200839 0.00104355)
(0.199934 -0.200084 0.000250404)
(0.585672 0.00130071 -0.00118228)
(0.573446 -0.00198527 -0.00196203)
(0.630241 0.034357 0.0064461)
(0.620958 0.0311753 0.00840048)
(0.538995 0.000262735 0.00233771)
(0.584078 0.00686736 -0.00264136)
(0.196875 0.198965 -0.000242825)
(0.638768 0.0419641 0.00902088)
(0.608819 0.0311267 0.00879928)
(0.200026 0.200158 5.19999e-05)
(0.199612 -0.199665 1.11507e-05)
(0.466516 0.000492335 -0.00369255)
(0.200301 0.200393 2.76065e-05)
(0.573795 -0.000371069 -0.000209077)
(0.564179 -0.000369049 -0.00027562)
(0.199897 0.194949 -0.00119569)
(0.21552 -0.198688 0.00196518)
(0.198869 -0.197868 -0.000447865)
(0.197191 0.185837 -0.00193727)
(0.216565 -0.200183 0.00319091)
(0.19982 -0.199943 0.000203431)
(0.581639 0.00187258 0.000644139)
(0.583442 0.00123572 -0.00108188)
(0.580999 0.00131698 -0.000657823)
(0.56229 -0.00459584 0.0029669)
(0.552731 -0.00156363 0.000478931)
(0.552467 0.00070647 0.00189531)
(0.494804 0.00628088 0.000765086)
(0.1993 -0.198532 4.91359e-05)
(0.534036 -5.16555e-05 0.000773392)
(0.215025 -0.200271 0.00191402)
(0.201308 -0.201491 -3.90417e-05)
(0.556987 0.000713852 0.00188421)
(0.586467 -0.00711168 -0.00255551)
(0.582375 0.000990277 -0.00291998)
(0.561119 -0.000282543 2.75123e-05)
(0.568683 0.000149888 8.08882e-05)
(0.199355 -0.199036 0.000483609)
(0.559279 -0.00230293 0.000895336)
(0.55625 -0.000521168 -0.00300364)
(0.385038 0.119448 0.0152803)
(0.570224 -0.00480461 2.67975e-05)
(0.57912 0.000405998 7.93957e-06)
(0.200418 -0.199165 -0.000505389)
(0.554508 0.000991985 0.00206982)
(0.58452 0.00146626 -0.000219906)
(0.218537 -0.198426 0.000676742)
(0.561448 0.00115158 0.00258975)
(0.589515 -0.000562939 0.00326826)
(0.551404 0.000501228 -0.00229766)
(0.552497 0.00127783 0.00261224)
(0.216348 -0.200755 0.00250525)
(0.198883 -0.19896 -2.45985e-05)
(0.552335 0.00138903 0.00288464)
(0.360277 0.224034 -0.0210334)
(0.595748 0.00246796 -0.00617356)
(0.199878 0.199932 -0.000152933)
(0.556121 0.0010286 0.0024761)
(0.557693 0.000180938 0.000329338)
(0.592615 -0.00200856 0.003823)
(0.200119 -0.200078 3.04842e-05)
(0.523866 -0.000270084 0.00138894)
(0.585159 0.00896889 0.0043934)
(0.319114 0.213737 -0.0244479)
(0.200293 0.200356 -0.000146938)
(0.200004 0.200154 5.78653e-05)
(0.597529 -0.00291693 0.00594714)
(0.555393 0.0121897 -0.00333608)
(0.210482 0.176883 -0.00428444)
(0.246106 -0.191897 0.00806167)
(0.559647 0.000454297 0.000984819)
(0.574675 0.000116215 0.00016515)
(0.583114 0.00109818 0.000580602)
(0.20698 0.179392 -0.00553725)
(0.209672 -0.194748 -0.00124265)
(0.562524 0.00717704 -0.0085335)
(0.199869 -0.199805 8.6432e-05)
(0.534925 0.000644839 -0.00264652)
(0.552179 0.000367638 0.00217112)
(0.558703 -0.0001063 0.00129217)
(0.558787 0.000796503 0.00141305)
(0.560939 0.000218142 0.00189224)
(0.199301 0.199404 0.000611684)
(0.42604 -0.000885694 -0.0161233)
(0.566261 0.00147756 0.00153354)
(0.198214 0.198815 -3.41076e-05)
(0.200134 0.200212 4.96335e-05)
(0.593212 -0.00677261 -0.000544897)
(0.579793 0.00259876 -0.000590767)
(0.204725 0.173255 -0.00562856)
(0.541234 -0.000203849 3.75221e-05)
(0.565155 0.00128268 0.00132184)
(0.200285 -0.200183 -5.18225e-05)
(0.253932 0.240359 -0.00124807)
(0.584749 0.00612665 -0.0027376)
(0.201121 -0.198607 0.000172017)
(0.221714 -0.159446 -0.00381384)
(0.300873 -0.107224 -0.0107371)
(0.200501 -0.19985 -0.000122816)
(0.569406 -0.000228747 -0.00056452)
(0.553277 -0.00212342 8.07024e-05)
(0.570011 -0.000208004 -0.000972867)
(0.199978 -0.200056 -3.9998e-05)
(0.569082 0.00137988 0.00129423)
(0.20046 -0.200512 2.72416e-06)
(0.200322 -0.200468 0.000137584)
(0.199169 -0.198303 0.000395204)
(0.395601 0.00184172 -0.00529975)
(0.589884 -0.00263459 0.00328397)
(0.557763 0.00188686 0.00217359)
(0.569121 0.00169629 0.000969805)
(0.590065 -0.0033602 -1.11661e-05)
(0.566807 0.000702898 0.00134143)
(0.581587 0.00186298 0.000673538)
(0.58667 0.0107011 -0.00110453)
(0.572204 -0.000396729 9.23199e-05)
(0.57496 4.96197e-05 -1.90166e-05)
(0.203843 0.200481 -0.000118503)
(0.199011 -0.199084 -0.000270881)
(0.361985 0.0026332 -0.00744538)
(0.579868 -0.000310947 0.000191595)
(0.587071 0.0048116 0.00498752)
(0.557614 -0.000676416 -0.000290669)
(0.200427 -0.200295 4.83176e-05)
(0.577861 0.00153678 0.000934904)
(0.58103 0.0027569 0.00135771)
(0.569017 0.00102905 0.000493414)
(0.500045 -0.000612716 -0.00201631)
(0.527094 -0.00589549 -0.0133923)
(0.578286 0.00147213 0.000375654)
(0.567654 0.00125912 0.00109489)
(0.580635 0.00532677 -0.00330263)
(0.200001 0.200097 1.01462e-05)
(0.533258 0.00303858 -0.000170414)
(0.199887 0.200001 -7.16705e-05)
(0.161205 0.119888 -0.0268398)
(0.226175 -0.145996 -0.0120692)
(0.602007 -0.00583413 0.0111284)
(0.590204 -0.00336829 9.40379e-06)
(0.575697 -0.000351226 0.000261472)
(0.200289 -0.19977 -8.17446e-05)
(0.199229 0.20034 0.0017271)
(0.5776 0.00215384 0.00121274)
(0.558721 -0.000511758 5.68214e-05)
(0.198669 -0.198637 5.98741e-05)
(0.200233 -0.200112 0.000232054)
(0.195409 -0.196552 0.00126691)
(0.552861 8.24966e-05 0.000452399)
(0.573198 -0.000733428 -0.000230502)
(0.548476 -0.0002653 0.00201052)
(0.531741 0.00100894 -0.00202975)
(0.587927 0.00188349 -0.00134438)
(0.229489 0.196887 0.00585945)
(0.199712 0.200194 0.000383085)
(0.19959 -0.199413 -8.39999e-05)
(0.575307 0.00222898 0.00166305)
(0.377121 -0.319571 -0.0167334)
(0.549976 -0.000578936 0.000788909)
(0.598647 -0.00377243 0.0137571)
(0.48287 0.00104658 -0.0097131)
(0.200159 0.200138 1.96092e-06)
(0.199803 -0.200002 0.000164454)
(0.200386 -0.200496 -8.72545e-05)
(0.253535 0.211944 0.0133882)
(0.583455 0.00194765 -0.000103451)
(0.588339 -0.00296324 0.000492027)
(0.199754 0.200765 5.35248e-05)
(0.579931 0.00135279 -0.000224045)
(0.21185 0.170176 0.0125375)
(0.199681 -0.197289 -0.000305712)
(0.595447 -0.00184843 0.00498515)
(0.577862 0.00189434 0.00108157)
(0.591055 -0.000711394 0.00138753)
(0.580093 0.00148614 -0.000184764)
(0.191864 0.16899 0.0107112)
(0.251024 0.215294 0.0145585)
(0.199381 0.199641 -0.00038272)
(0.579092 0.00190177 0.00079575)
(0.571041 0.000355105 0.000366155)
(0.589882 0.0115066 -0.00435836)
(0.197101 0.196601 0.000379576)
(0.403865 0.353722 -0.0872324)
(0.551201 0.00200862 0.00480764)
(0.589429 -0.0026467 0.00137302)
(0.578888 0.00220731 0.00148558)
(0.549425 0.0557889 -0.0039123)
(0.587985 0.00120035 -0.00172275)
(0.198972 0.198962 0.000115685)
(0.587662 0.0014634 -0.00136249)
(0.564037 0.000616194 0.00110497)
(0.59386 -0.013518 6.50888e-05)
(0.597323 -0.00353926 0.00753847)
(0.57444 -0.00480872 -0.00413322)
(0.198775 0.199821 -0.000651702)
(0.19923 -0.199677 -0.000439136)
(0.200197 0.198871 0.000770501)
(0.198133 -0.198677 -5.59169e-05)
(0.587573 -0.00229141 0.000274425)
(0.582152 0.000225954 -0.000112326)
(0.583834 0.00269441 -0.0024169)
(0.587943 0.00150675 -0.00176672)
(0.198062 0.198239 -0.000852083)
(0.580817 -0.00390125 -0.00163762)
(0.200003 0.200024 6.11403e-05)
(0.199399 -0.199847 6.32516e-06)
(0.5877 0.00182121 -0.00129662)
(0.184394 -0.184463 0.00272985)
(0.325893 -0.0635049 -0.00350643)
(0.197001 -0.196225 -0.000205975)
(0.200341 0.19666 0.00116487)
(0.582552 0.000614494 -0.000515237)
(0.200041 0.199901 2.18366e-05)
(0.568898 -0.000161803 0.000227976)
(0.547147 0.000429306 -0.00225133)
(0.200588 0.200597 -5.15462e-05)
(0.524801 -6.50646e-05 -0.00223931)
(0.571594 0.000816086 0.000893156)
(0.201691 0.1762 -0.00652925)
(0.568044 0.00254307 0.00300731)
(0.541144 0.00229903 -0.000486483)
(0.572394 0.00267463 0.000861496)
(0.533666 0.00108447 0.00737739)
(0.569592 0.000516258 0.000742636)
(0.554332 -0.000166449 -0.000384671)
(0.197786 0.167913 -0.000818617)
(0.198826 -0.198487 0.00123265)
(0.494862 0.000923422 0.0121943)
(0.198285 0.198926 -0.0011758)
(0.572495 0.00270699 0.00270269)
(0.596121 -0.0032661 0.00587489)
(0.200701 0.191456 0.00175745)
(0.199498 0.200387 -3.28885e-05)
(0.58592 -0.000239135 0.00043334)
(0.563472 -0.00253044 -0.00516933)
(0.561722 0.00290752 0.00051145)
(0.586995 0.0016515 -0.00065433)
(0.199968 0.199612 -7.82373e-05)
(0.597672 -0.000964651 0.0100374)
(0.589447 -0.00193521 0.00306012)
(0.200885 0.200572 2.10891e-06)
(0.57625 0.00952197 0.00783465)
(0.549648 -0.00225358 -0.00640726)
(0.199648 -0.199696 -3.04593e-05)
(0.198898 -0.198918 6.66851e-05)
(0.565735 -0.000239555 0.000377923)
(0.578203 0.00029002 -0.000958784)
(0.200122 0.200048 -0.000310849)
(0.199616 -0.1992 -0.000300917)
(0.345032 -0.189177 0.0417721)
(0.200329 -0.200474 7.02395e-05)
(0.578561 -0.00109399 5.9685e-05)
(0.198569 0.199285 0.000422219)
(0.200433 -0.200517 9.12271e-06)
(0.59113 -0.000530764 0.00181707)
(0.536844 -0.00648356 -0.0153656)
(0.584065 -0.00368296 0.000839587)
(0.565426 -0.000299547 0.00090661)
(0.200766 0.200632 2.78551e-05)
(0.260981 0.200053 0.0100546)
(0.565279 0.00790327 0.011845)
(0.244121 0.214453 0.0122139)
(0.563751 0.00254461 0.00477554)
(0.560336 -0.00490247 0.000152618)
(0.586523 -0.00193464 -0.00162437)
(0.404202 0.00711281 0.0154644)
(0.239579 0.205294 0.0106949)
(0.579762 0.000350064 -0.00548477)
(0.592494 0.0190069 -0.0057798)
(0.199874 -0.200205 0.000261899)
(0.591754 0.00145218 -0.00628821)
(0.592102 -0.00254004 0.00218217)
(0.200044 -0.199982 0.000182668)
(0.574791 0.0326949 -0.0193128)
(0.499106 8.90125e-05 -0.00673299)
(0.253587 0.198685 0.00801928)
(0.589684 -0.00105359 0.00218435)
(0.582217 0.000675703 -0.000697928)
(0.569467 0.000717665 -0.000332695)
(0.200002 0.199892 -5.51731e-05)
(0.565494 -0.00193264 0.00400031)
(0.592049 -0.000193839 0.00195058)
(0.563463 0.00477035 -0.000650384)
(0.358997 -0.00573692 0.00652988)
(0.244423 0.229861 -0.00508396)
(0.338986 -0.0110242 0.0124412)
(0.199753 -0.200051 0.000188602)
(0.531265 -0.0187086 -0.0178538)
(0.566016 -0.00213876 -0.00366222)
(0.200076 0.199981 0.000281245)
(0.548647 0.0013594 -0.00404937)
(0.450993 -0.00104555 0.00893393)
(0.261086 0.229637 -0.00244151)
(0.200057 -0.199932 -3.53127e-05)
(0.233023 -0.199337 0.00631063)
(0.200323 -0.200263 -3.16316e-05)
(0.572436 0.00334606 -0.00029512)
(0.568815 0.00202606 -0.000558849)
(0.573131 -0.00162127 -0.0018171)
(0.538108 0.00121164 -0.00311441)
(0.585865 -0.0114913 -0.00233506)
(0.199811 0.198906 -0.000388189)
(0.568045 -0.000489578 -0.00142808)
(0.200774 -0.199049 -5.47368e-05)
(0.563288 0.00198347 0.0012277)
(0.200792 0.200855 -1.88061e-05)
(0.200165 -0.199999 -2.88737e-05)
(0.197399 -0.197984 -0.000313837)
(0.554504 -0.00378283 0.000690782)
(0.199102 -0.199303 -0.000209876)
(0.199923 -0.199991 1.58725e-05)
(0.19696 0.128829 -0.00860681)
(0.200334 -0.20048 9.35699e-05)
(0.197567 0.200157 0.00186556)
(0.567311 -0.00220737 -0.00128459)
(0.200049 0.199861 -3.13568e-06)
(0.237846 0.174886 0.000425797)
(0.200145 0.200264 0.000285119)
(0.199055 -0.198379 8.93519e-06)
(0.199914 0.199072 -0.000339805)
(0.198845 -0.197787 -0.00105023)
(0.198432 0.198609 1.27857e-05)
(0.51576 -2.44736e-06 -0.00415013)
(0.200191 0.19904 0.000861829)
(0.530514 0.00818534 0.0113185)
(0.580134 0.00110288 -0.000635181)
(0.596577 -0.0230727 -0.00337941)
(0.200803 0.199884 1.4889e-06)
(0.50466 0.00159531 0.00932042)
(0.200261 0.199503 0.00011035)
(0.200405 -0.200501 -8.61553e-05)
(0.569464 -0.0049255 -0.00591571)
(0.570676 -0.00419605 -0.0054526)
(0.574264 -0.00164727 -0.00100845)
(0.600009 0.00111185 -0.011162)
(0.230744 0.193579 -0.00637486)
(0.587618 0.000830077 -0.00350632)
(0.587144 0.000855915 -0.00318243)
(0.572181 0.000379786 0.000162663)
(0.568864 -0.000589818 0.000779893)
(0.578796 -0.00612062 -0.00478389)
(0.198628 -0.198703 -0.000127782)
(0.572376 7.34749e-05 0.000177521)
(0.26345 0.228031 -0.00115995)
(0.578791 0.00154286 -0.000749407)
(0.199683 0.199434 -7.33692e-05)
(0.589444 0.00192369 -0.00328578)
(0.260507 0.215652 0.0026765)
(0.57652 -0.00024698 -0.000572826)
(0.583547 -0.00279545 0.00208314)
(0.230319 -0.119367 -0.000732303)
(0.199676 0.199854 0.00230165)
(0.569174 -0.000229043 0.00184501)
(0.19972 -0.199706 4.35019e-05)
(0.591703 0.00230307 -0.00405721)
(0.587605 0.00249806 -0.00263639)
(0.199863 0.199229 -0.00165247)
(0.199295 0.199312 0.000463848)
(0.195774 0.174217 -0.00404226)
(0.200066 0.200205 7.5859e-05)
(0.409697 -0.0228545 0.009452)
(0.591963 0.00211164 -0.00388898)
(0.203276 0.198348 -0.000154101)
(0.199551 0.199992 0.000363331)
(0.506362 0.000668828 -0.00101781)
(0.200344 0.200364 2.77565e-05)
(0.58318 0.0017807 -0.00240484)
(0.200204 0.200126 1.4916e-05)
(0.576972 -0.00358688 -0.00164634)
(0.200241 -0.200291 -7.37575e-05)
(0.54126 -0.00264152 -0.00823564)
(0.443799 -0.00195879 0.000779415)
(0.54592 0.00162151 -0.000731523)
(0.57644 0.000128087 -0.000696901)
(0.200419 0.199019 -0.000641163)
(0.548169 0.000892214 -0.00181655)
(0.20038 0.19965 0.00019569)
(0.200173 0.200178 -0.000539387)
(0.574336 -0.001345 -0.000986289)
(0.199809 0.199521 -8.07848e-05)
(0.489532 -3.26809e-05 -0.00526501)
(0.19222 0.176441 -0.00601734)
(0.584098 0.00183422 -0.00202808)
(0.198884 -0.199026 6.24797e-06)
(0.588737 0.00116929 -0.00134596)
(0.200565 -0.200362 1.90211e-05)
(0.239383 0.210821 0.00666569)
(0.595375 0.0218177 -0.00210112)
(0.570476 -0.00503891 -0.00619653)
(0.580725 0.00247891 1.62716e-06)
(0.583774 -0.00651002 -0.00425364)
(0.577981 0.0013993 -0.000576802)
(0.58981 -0.00371829 -0.000424784)
(0.197822 0.199279 -0.000902304)
(0.580563 0.00346298 0.00180989)
(0.573187 -0.0056486 -0.00587086)
(0.199989 0.200067 -9.74396e-05)
(0.488695 -0.00620423 -0.019508)
(0.593398 -0.00527981 -0.00338365)
(0.570122 0.00266332 0.00224962)
(0.197326 0.194595 -0.00115799)
(0.246653 0.0442985 -0.0398462)
(0.55693 0.00137754 0.00170955)
(0.454126 -0.00201193 0.00505594)
(0.467656 0.108963 -0.00447945)
(0.255961 -0.133857 -0.00991311)
(0.58794 -0.0060819 -0.00122564)
(0.55269 0.00214382 0.00415524)
(0.569902 -0.00554072 -0.00605776)
(0.581852 -0.0032771 -0.00126088)
(0.568465 0.00208776 0.00164593)
(0.50418 0.0629836 -0.00176316)
(0.248774 0.210319 0.00184447)
(0.513533 -0.0224308 0.00636581)
(0.499377 -0.0463398 0.0103977)
(0.199751 -0.199802 0.000133741)
(0.510649 0.00367035 -0.0015421)
(0.201318 0.19744 -0.00105072)
(0.235307 0.213355 0.00202601)
(0.577073 7.17148e-05 -9.42518e-05)
(0.509006 0.0832611 -0.00151009)
(0.613572 -0.0572432 -0.00805509)
(0.555422 -0.104512 0.00142033)
(0.234992 0.222604 -0.0156205)
(0.586964 -0.00380119 -0.00115441)
(0.579118 0.00314354 0.00257655)
(0.199581 0.199017 -2.92396e-05)
(0.259586 0.142144 -0.00542087)
(0.578716 0.00434229 0.00262152)
(0.200014 -0.199251 0.000169691)
(0.2 0.199891 -4.79586e-05)
(0.199237 0.199146 2.02105e-05)
(0.200452 0.199374 0.000220797)
(0.586417 -0.00603709 -0.0026967)
(0.200172 0.200144 0.000117835)
(0.200312 -0.200516 0.00101267)
(0.576269 -0.00380367 -0.00282871)
(0.534491 -0.000155571 -0.000929686)
(0.290362 -0.255064 -0.0137927)
(0.578779 0.00424511 0.00261504)
(0.234249 0.188257 0.00447317)
(0.578512 -0.00129271 -0.000837863)
(0.195642 -0.195354 -0.000636559)
(0.1996 0.20002 -7.12131e-05)
(0.585419 -0.00386503 -0.00100549)
(0.199871 0.198703 -0.000797782)
(0.200293 0.199768 9.39785e-05)
(0.22983 0.219378 0.00665151)
(0.556572 -0.00177769 0.00151008)
(0.332779 0.277702 -0.037063)
(0.576948 -0.00242265 -0.00114456)
(0.576763 6.19927e-05 -0.000128771)
(0.197851 -0.196611 -0.00155209)
(0.599048 -0.00113226 0.0192153)
(0.547817 -0.0033246 -0.00833963)
(0.575046 -0.000100901 -0.000457033)
(0.582285 0.0111517 0.00125811)
(0.583471 0.0042675 -0.0120663)
(0.502222 0.000203123 -0.00447649)
(0.199817 0.199501 8.86281e-05)
(0.586513 0.000669005 0.00175602)
(0.582185 0.00220345 -0.000416722)
(0.197849 -0.200443 0.000289645)
(0.543482 -7.58786e-06 -0.000818499)
(0.586352 0.00345828 -0.00100448)
(0.587494 0.002588 -0.00101669)
(0.546545 -0.00263325 -0.00390453)
(0.5872 0.00247904 -0.00111335)
(0.587555 0.00306473 -0.000307729)
(0.199878 -0.197237 0.00130758)
(0.588812 -0.00117711 0.00257087)
(0.48398 -0.00361023 -0.00113119)
(0.241709 0.209126 0.0133253)
(0.587323 0.00199258 -0.00155252)
(0.559965 0.000904897 -0.00138948)
(0.3233 0.262329 -0.0402498)
(0.57694 0.000160809 -0.000213726)
(0.587523 0.00174498 -0.00181262)
(0.560223 0.000539152 -0.00225984)
(0.583476 0.00250607 -0.000383863)
(0.575494 0.00564459 0.00232051)
(0.577498 0.000413031 -0.000411374)
(0.195487 0.190849 0.000295553)
(0.582881 0.0029775 0.000244516)
(0.546601 -0.00363073 -0.00772993)
(0.223444 -0.137307 0.00509126)
(0.580334 0.00531496 0.00352203)
(0.572391 0.00509248 0.00520978)
(0.578645 0.00101848 -0.00010663)
(0.19936 0.198898 0.000183315)
(0.559945 0.0017761 -0.00400158)
(0.199859 -0.198719 0.00062256)
(0.200038 0.20003 -0.000198124)
(0.198786 0.197431 -0.000116909)
(0.200588 0.199339 4.8937e-05)
(0.488241 0.000228565 -0.00181544)
(0.238991 0.205883 0.00871856)
(0.448042 -0.0280109 0.0303073)
(0.198505 -0.198726 -5.74551e-05)
(0.199423 0.202053 -0.000408092)
(0.579848 0.00619569 0.00320837)
(0.585058 0.0013991 -0.00249927)
(0.199984 -0.199976 9.81105e-06)
(0.58426 -0.00395992 -0.000255011)
(0.200015 -0.199816 0.000662478)
(0.200254 -0.200102 -4.2529e-05)
(0.196524 -0.196623 0.000589611)
(0.591996 -0.00448695 -0.000560254)
(0.495384 0.00323571 -0.00127634)
(0.237886 0.212492 0.00358629)
(0.199643 -0.197802 0.000817299)
(0.199759 0.200451 -0.000297461)
(0.199561 0.199777 2.7937e-05)
(0.596396 0.00104093 -0.0068252)
(0.578241 0.000395815 -0.00033064)
(0.238014 0.223656 0.0104779)
(0.590667 0.00187522 -0.00326869)
(0.549705 -0.00949501 -0.0227306)
(0.199669 0.199819 -7.20541e-05)
(0.589249 0.00139004 -0.00292097)
(0.53908 0.000349379 0.00285124)
(0.568883 0.00178102 -0.00321635)
(0.200628 0.200553 1.74167e-06)
(0.199339 0.199269 9.66207e-05)
(0.567706 0.00236777 0.00307656)
(0.579866 0.000640135 -0.000328075)
(0.237612 0.215122 0.00348515)
(0.19914 0.199061 6.36914e-05)
(0.202 0.195458 -0.000576526)
(0.578402 -0.00102779 0.000395922)
(0.199896 -0.199858 -0.000281872)
(0.199022 -0.198293 0.000171748)
(0.198671 0.198629 -4.06567e-05)
(0.5889 0.00172109 -0.00269937)
(0.513745 -0.00273716 0.000640517)
(0.200528 0.200545 2.22635e-05)
(0.224162 0.0368317 0.042422)
(0.24916 -0.0329048 -0.00946309)
(0.565671 0.00184635 0.000923944)
(0.19971 0.199998 -7.95911e-05)
(0.200072 0.199727 -0.000168539)
(0.589741 -0.00702893 -0.00100399)
(0.565271 0.0103206 0.00949841)
(0.240871 0.21487 0.0109758)
(0.352753 0.111062 0.00704116)
(0.555657 0.0104745 0.0171498)
(0.533507 0.00182491 -0.00355354)
(0.568956 -0.000394069 8.06182e-05)
(0.206267 0.193453 -0.000424961)
(0.564044 0.00116674 -0.000441371)
(0.585698 -0.00388575 0.00413807)
(0.200372 0.199754 -0.000232759)
(0.198256 -0.194925 0.000299355)
(0.198557 0.198663 3.47594e-05)
(0.199252 0.1992 -5.06354e-05)
(0.200134 0.200525 -0.000279115)
(0.200578 0.200645 -2.63526e-05)
(0.590138 0.00195532 -0.0029986)
(0.200108 -0.200013 0.000106028)
(0.199003 0.199022 2.81209e-05)
(0.198921 0.196223 -0.000227341)
(0.590719 0.00190282 -0.00327218)
(0.579804 0.00044345 -0.000345714)
(0.200793 -0.198162 -4.8717e-05)
(0.197319 -0.195229 0.000443315)
(0.595041 -0.00289593 0.00529449)
(0.564277 4.39586e-05 0.00052972)
(0.56302 0.000244752 0.000681183)
(0.199895 -0.199438 -9.33883e-05)
(0.198987 0.198956 0.000115565)
(0.56374 0.000163406 0.000571377)
(0.200306 -0.200128 2.01914e-05)
(0.558821 0.00150168 0.000156972)
(0.566522 0.000988316 0.00166369)
(0.568536 0.00118702 0.000996713)
(0.199973 -0.198505 0.000478716)
(0.200285 -0.200386 3.62417e-05)
(0.200203 -0.200381 -3.52407e-05)
(0.200238 0.200278 6.33369e-05)
(0.577696 -0.00286345 -0.00153939)
(0.199928 0.200132 6.64273e-05)
(0.198421 0.198646 6.42342e-05)
(0.576657 0.00200403 -0.00296423)
(0.200282 -0.200356 9.30137e-05)
(0.566283 0.000111601 0.000878162)
(0.513875 -0.00556197 0.00109733)
(0.200978 0.193864 0.00110555)
(0.578138 0.000661545 -8.53986e-06)
(0.269947 0.03829 -0.00538426)
(0.572683 0.000318244 0.000487117)
(0.591254 -0.0018304 0.00122698)
(0.522338 0.00214484 0.000906029)
(0.592297 -4.18033e-05 0.00423776)
(0.429914 0.0113815 -0.0160527)
(0.23914 0.189996 0.00402326)
(0.571143 -0.000140164 0.000570951)
(0.594935 0.00430614 -2.03283e-07)
(0.571682 -0.00105523 -0.000771915)
(0.204912 0.177548 -0.00621649)
(0.268169 0.0179217 -0.00803355)
(0.309104 -0.0303748 0.0116924)
(0.570385 0.000159383 0.000104098)
(0.198832 0.199206 0.000246873)
(0.560539 -0.00106122 -0.00385073)
(0.572501 -0.000163314 -0.00101696)
(0.555659 -0.00477997 -0.0088878)
(0.214683 -0.156872 -0.0117424)
(0.200339 -0.20047 8.33149e-05)
(0.2 -0.200002 -4.91797e-06)
(0.579299 -0.000611065 0.000270533)
(0.234432 0.193628 -0.00251169)
(0.553563 0.00148045 0.000755323)
(0.217568 0.198072 0.00274555)
(0.550216 -0.00107843 -0.00408859)
(0.56964 0.000220364 -0.000623444)
(0.559472 0.000180848 0.000858152)
(0.57982 0.000628721 -0.000398313)
(0.19902 0.199009 -5.06284e-05)
(0.198033 0.197417 -0.000449391)
(0.21316 -0.194703 0.000926088)
(0.577668 0.00102244 9.86086e-05)
(0.200389 0.199796 -1.5352e-05)
(0.231935 0.198625 -0.00904808)
(0.593766 0.0122087 -0.010247)
(0.200118 0.199809 -0.000160046)
(0.198785 0.199721 0.000701732)
(0.198463 -0.197815 -0.000324681)
(0.200416 0.200475 4.88989e-05)
(0.555235 -2.47549e-06 0.000871458)
(0.203464 0.193114 0.000324586)
(0.200132 0.199972 8.76045e-05)
(0.464087 0.0618099 -0.0456517)
(0.235516 0.18959 -0.00230062)
(0.197836 0.19823 -0.00186981)
(0.284067 -0.171684 0.0114186)
(0.199861 0.199633 -0.000259236)
(0.454888 0.00225247 -0.00298658)
(0.56968 0.000180331 -0.000267354)
(0.198519 -0.198562 -2.00101e-06)
(0.555712 0.000688916 -0.00170035)
(0.553471 0.0889766 -0.00800447)
(0.551609 -0.00533129 -0.00890349)
(0.606045 0.0231618 0.000289698)
(0.549329 -5.33448e-05 0.000137632)
(0.19991 0.198204 0.000832593)
(0.572175 -0.00558936 -0.00628243)
(0.592393 -0.00130096 0.00125555)
(0.551358 -0.00539833 -0.0088895)
(0.199999 -0.200214 1.09948e-05)
(0.598298 0.152876 0.0385792)
(0.553353 0.00048676 0.00129563)
(0.267557 0.213242 -0.0132321)
(0.550566 0.000330789 0.000524356)
(0.598631 0.00710366 -0.00549487)
(0.572148 0.0116041 0.000426216)
(0.566601 -0.00114766 -0.00176955)
(0.565405 0.00195174 0.000125492)
(0.603284 0.00878156 -0.00296521)
(0.572174 -0.00012099 -0.000751663)
(0.575638 0.000964409 -0.000171272)
(0.198235 0.198999 0.000710194)
(0.198958 0.197795 0.000612335)
(0.557636 0.00147276 0.000546289)
(0.552123 0.00106974 0.000861107)
(0.199533 0.20008 -1.67578e-06)
(0.564124 0.0007341 0.000266056)
(0.590896 -0.00218847 0.00052406)
(0.575815 0.000581581 -0.000410688)
(0.199425 0.197304 -8.8197e-05)
(0.569904 0.0115846 0.00230386)
(0.199226 0.199082 -1.05764e-05)
(0.57621 0.000933158 -0.000336222)
(0.576301 0.00104142 -0.000316846)
(0.199897 0.199798 -2.70957e-05)
(0.551481 0.0029213 -0.00177329)
(0.574922 0.00114885 -0.000518198)
(0.567863 0.0104966 0.00054085)
(0.557538 -0.000142295 0.00187774)
(0.204429 0.200447 -0.000329961)
(0.584695 -0.00141356 0.00181304)
(0.569695 0.0130614 -8.22879e-05)
(0.602363 -0.0159501 0.00345775)
(0.508102 0.00709154 0.000988702)
(0.452889 0.00144539 -0.00582641)
(0.199833 0.197661 -0.00027463)
(0.199466 0.1993 6.56684e-05)
(0.559771 0.00788688 0.00104477)
(0.200426 0.200425 -9.02954e-05)
(0.487037 -0.00138627 -0.00118769)
(0.562591 -0.00284672 -0.00409274)
(0.339805 0.0441113 -0.0134521)
(0.625455 -0.0423024 0.0168224)
(0.552452 -0.0250549 0.0077796)
(0.61434 -0.0234867 0.00585688)
(0.200346 0.200365 -5.77969e-05)
(0.273571 0.232365 0.00157272)
(0.58181 0.00126395 -0.000359322)
(0.199286 -0.200195 -0.000805117)
(0.114279 -0.0814868 0.03133)
(0.574649 -0.0107385 -0.00810076)
(0.198568 0.198157 -0.000467477)
(0.200456 0.200211 2.37318e-05)
(0.517154 -0.00980488 -9.73376e-05)
(0.418054 -0.0290797 0.00234377)
(0.200473 0.200501 -3.12242e-05)
(0.517973 -0.0105471 0.00199337)
(0.198523 0.198273 6.84929e-06)
(0.20003 0.200393 -0.000333624)
(0.200059 -0.200037 -5.10389e-05)
(0.200137 -0.199662 0.000477393)
(0.195964 -0.194325 0.000602165)
(0.199488 -0.199076 -4.48818e-06)
(0.520429 0.00480048 -0.0017415)
(0.197576 0.196054 -0.00014903)
(0.199999 0.200131 8.11743e-05)
(0.198319 0.1995 0.000473337)
(0.484864 -0.108438 -0.027905)
(0.548576 -0.00493647 -0.010744)
(0.531039 -0.000118388 -0.00490807)
(0.581824 0.00117266 -0.000383266)
(0.198599 0.19739 5.54107e-05)
(0.201083 0.200335 2.05536e-05)