/*--------------------------------*- C++ -*----------------------------------*\
  =========                 |
  \\      /  F ield         | OpenFOAM: The Open Source CFD Toolbox
   \\    /   O peration     | Website:  https://openfoam.org
    \\  /    A nd           | Version:  10
     \\/     M anipulation  |
\*---------------------------------------------------------------------------*/
FoamFile
{
    format      ascii;
    class       surfaceScalarField;
    location    "6.5";
    object      phi;
}
// * * * * * * * * * * * * * * * * * * * * * * * * * * * * * * * * * * * * * //

dimensions      [0 3 -1 0 0 0 0];

internalField   nonuniform List<scalar> 
214403
(
-0.00301605
0.00231235
0.000128079
0.000575618
-0.00145935
-0.00492615
0.000405628
0.00597987
-0.00450819
2.56253e-05
-5.99889e-05
0.00454255
0.00396676
-0.00266591
-0.00664958
0.00534873
0.00540754
-0.00683177
0.0016219
-0.000197671
-0.00235354
0.00245146
-2.36339e-05
-7.42807e-05
-0.000377751
-0.000717595
-0.00404942
0.00514477
-0.0074835
0.00426573
-0.00112294
0.0043407
-0.0102682
0.00724752
0.00731146
-0.0042908
0.0062464
0.000741328
-0.00699393
6.20048e-06
0.00222265
-0.00439506
0.00090956
0.00126285
-0.00454847
0.0014233
0.00236381
0.000761355
0.000205217
-0.00503655
0.00607869
-0.00124736
-0.00438772
0.0044047
-1.69766e-05
0.000848848
0.00525046
-0.00673401
0.000634703
-0.00528593
0.00441994
0.00133038
-0.000464393
-0.00538133
0.00523733
0.000143998
0.00175369
-2.51602e-05
-0.000408206
-0.00132033
0.00688563
-0.00411513
-0.0091596
0.0063891
-3.41546e-05
-0.00139646
4.04974e-05
0.00139012
0.0028772
-0.00280874
-6.84598e-05
-0.00539411
-0.00186582
0.00185533
0.0054046
-0.00100757
0.00599565
-0.00483031
-0.000157764
0.00296281
0.000305874
0.00102891
-0.00429759
-0.00454932
-0.00218852
0.0058807
0.00085714
0.00411634
-0.00521255
3.17808e-05
0.00106443
0.00141732
-0.00123399
0.00465386
-0.00483719
0.00340658
0.00444851
-0.00536174
-0.00249335
0.00491762
-0.00308148
-0.000140262
-0.00169588
-0.00262962
0.00268169
-5.20712e-05
0.00108107
-0.00224847
0.00599445
-0.00482706
0.00620361
0.000295237
-0.00107235
-0.0054265
-0.00252505
-0.00259214
0.00265487
0.00246231
-0.00052477
-0.00295792
0.00261933
0.000863366
0.00194288
-0.00129767
-0.00413732
0.0034921
-0.000748452
0.00373475
-0.00134935
-0.00163695
0.00709542
-0.000172433
-0.00692299
-0.00302539
0.00591767
-0.00289228
0.00054413
-0.00650116
0.00376926
0.00218777
0.00108109
-0.000435039
0.0026498
-0.00329585
0.00249792
-2.46303e-05
-0.00247329
0.00451378
-9.8109e-05
0.000800262
-0.00521594
-0.00572947
0.000714673
0.00609589
0.000387504
0.000391853
0.0038127
-0.00459205
-0.00182084
-0.0118995
0.0115378
0.00218248
0.0025577
0.000461435
0.000577591
-0.00359673
0.0018653
0.00141313
-0.00456301
0.00128457
0.00588155
0.00351721
-0.00643595
0.000532044
0.00499523
-0.00101348
0.000817677
-0.00304949
-0.00180139
0.0040332
0.00139344
0.00214131
0.000635765
-0.00417052
0.00081334
-0.000610995
-0.00187374
0.0016714
0.00308144
-0.00557473
0.00388673
0.00525273
-0.00494709
-0.00169315
0.00138751
0.00477165
-0.000872528
-0.00377522
0.00511599
-0.000211349
-0.00112942
0.00388761
-0.00497743
6.03744e-05
0.00102944
-0.00362648
0.0002408
0.00579452
-0.00240885
-0.00677574
-0.00638426
0.00535311
0.00780689
-0.00360825
0.00362874
0.000712579
-0.00073307
0.000565073
-0.00460836
-0.00383841
-7.96541e-05
0.00199475
0.00192331
-0.00594952
0.00254895
0.00384695
-0.000446377
0.00695505
-0.00559807
0.000351457
-0.00170844
0.000317706
0.000118152
-0.00454645
0.00411059
0.00024076
-0.00128109
0.00631752
-0.00527719
-0.0155121
0.00164923
0.00174082
0.012122
-0.0014045
0.00416022
-0.00132046
-0.00143526
0.00207117
-0.00108147
-0.00441957
0.00342986
0.000500845
0.00315175
-0.00399887
0.000346281
-7.39157e-05
0.00376459
0.00130188
-0.00499256
-0.00074792
-0.000121699
-0.00157201
0.00244163
-0.00404314
0.00441523
-0.000165922
-0.000206162
0.000145542
-0.00402389
-0.00285011
0.00252484
0.000765774
-0.000440503
-0.00743533
-0.000471512
0.00361991
0.00428694
-0.00223868
-0.000953495
0.00190388
0.0012883
0.00331326
-0.0111147
0.00153627
0.0062652
-0.00171986
0.00346022
-0.0018901
0.000149743
0.00247729
-0.00192503
0.000244239
-0.0007965
6.22062e-05
-0.00469594
0.00463373
1.59905e-05
0.00381034
-0.00382633
0.00332903
-0.000651862
0.000440026
-0.00311719
-0.00203642
0.00290496
0.000963675
-0.00183222
-0.00141407
0.00604068
-0.00145444
-0.00317217
0.00287489
-0.00491561
-0.000177547
0.00221826
0.00325523
0.00343146
-0.00668668
0.00480827
-0.00540709
0.00138847
-0.000789648
0.000464837
-0.000869556
0.00629326
-0.00588854
0.00018665
-0.00100908
0.00450869
-0.00368626
0.00108363
0.0094581
0.00271367
-0.0132554
-0.00823681
0.00723758
0.00470637
-0.00370714
0.000376544
0.00292827
-0.00392988
0.000625063
0.00392161
0.00434071
-0.0014133
-0.00684902
0.0071547
-0.0043543
-0.000133318
-0.00266707
0.000317745
-0.000931197
-0.00292428
0.00353773
-0.00296319
1.66117e-05
0.00294658
0.00435888
0.000149604
0.000299785
0.00543692
0.000457992
-0.00827512
0.00238022
-0.00436484
0.000957461
0.000775421
0.00263196
-0.00279266
0.000692607
0.000343054
0.00175699
0.000668007
0.000482512
-0.00570933
0.00455881
-0.00116446
-0.00677439
0.00431875
0.00362011
0.00273698
-0.00324062
-0.00211015
0.00261379
0.00442379
-3.79556e-05
-0.00442094
3.51048e-05
0.00336345
-0.00474183
-0.00164671
0.0030251
0.00869025
-0.00263025
-0.00135359
-0.00470641
0.00495642
-8.87013e-06
-0.00454933
-0.00039822
-0.0025435
0.00298756
0.00621234
-0.0066564
0.00539587
-0.0018849
-0.00519445
0.00168348
0.000999121
-0.00146974
0.0063628
-0.00589218
-0.00709796
0.00646508
0.00613304
-0.00550015
0.000322439
-0.00555207
0.00213784
0.0030918
0.00698503
-0.000363958
-0.000151467
-0.0064696
0.00494601
-0.000963143
0.000955709
-0.00493858
-0.00582858
-0.00531339
0.00628618
0.00485579
-0.00108821
0.00312251
0.000847207
-0.00288151
-0.00239712
0.000130688
0.00464697
-0.00238054
-0.00053368
0.00607712
-0.00564955
0.000106111
-0.00531197
0.00493234
0.00096014
-0.000580509
-0.000176149
-0.00309652
0.00738901
0.000964254
-0.00320133
-0.0023441
0.00458118
-0.00254268
3.30035e-05
0.00250968
0.000777931
0.00353826
-0.00327296
-0.00104323
0.0057192
-0.00329797
-0.000878649
-0.00154258
5.14374e-05
-0.00172748
0.00167604
-0.00319106
-0.000861185
0.0012002
0.00285205
0.000340448
0.00187883
-0.00420193
0.00198265
0.00706952
-0.000638756
0.00276256
-0.00919333
0.00049772
-0.000636543
-0.00843377
0.00857259
0.000547042
-0.00241954
-0.00320601
0.00507851
0.000201273
0.00439985
-0.000242244
1.73282e-05
-0.00262604
0.00260871
0.00532709
-0.00197694
-0.0023859
-0.00322788
0.00269529
-0.00265847
0.00588579
-0.00490009
-0.000599192
-0.000386511
0.000586615
-0.00277269
0.00121236
0.000973715
-0.00479833
-0.00145964
0.000980151
0.00527781
0.00401831
-0.00650542
0.00430708
-0.00181997
-0.000171727
0.00589581
-0.00590171
0.000177627
-1.21917e-05
0.00550587
-0.00545629
-3.7388e-05
-0.00748997
0.0059787
-0.00479619
0.00630747
0.00624449
-0.00604763
-0.000196857
-0.00576324
0.00770765
-0.00139764
-0.000546771
-0.00513493
0.00123985
-0.000390712
0.00428579
-0.00840595
0.00063771
0.00540848
0.00235976
0.00148387
-0.00202719
0.00112994
-0.00209666
0.00238325
0.00383589
-0.00412248
-0.00222373
-0.000997897
0.0012721
0.00194953
-0.00303653
0.00198529
-0.00382429
0.00487553
0.000908269
7.9177e-05
-0.00675069
-0.00304777
0.00303996
7.80688e-06
0.00332459
-0.00319811
-0.000126477
-0.00496598
-0.000324063
-0.00131191
0.00121505
-0.00652788
0.00758812
-0.00227529
0.00292741
0.00502275
-0.00639337
-0.0015568
0.0055765
-0.00606164
0.000170511
0.000314631
0.0030442
0.000781269
-0.00313847
-0.000687007
-0.00472451
-0.000257768
0.00619732
0.00275528
-0.000199276
-0.00335837
0.000802369
0.00310077
-0.00265411
0.00305795
-0.00350461
-0.00530921
0.00100638
0.00723025
-0.00180907
-0.00250961
0.00831826
-0.00399958
-0.00256575
-0.00283515
0.000676393
0.000756164
0.00204309
-0.005365
-0.00366937
-0.0003144
0.00589641
-0.00191264
0.000566855
0.000906945
0.00324386
-0.00471766
-0.00171694
0.00420233
-0.00248539
0.00135221
-0.00658195
0.00239458
0.00391611
0.00273762
-0.00589757
-0.00549538
6.71827e-05
0.00684658
-0.00141838
0.000952041
0.000814915
0.00255083
-0.00431779
0.00384426
-0.00386742
2.31592e-05
0.00139065
-0.000525246
0.00466671
-0.00553211
0.00489937
-0.0015464
0.00234831
-0.00570128
0.00915885
-0.00296321
0.00682036
-0.013016
0.00147075
0.00273803
-0.00113854
-0.00307025
-0.00415921
0.00170937
0.00218088
0.000268959
0.00299861
-0.00225979
-6.21105e-05
-0.000676711
-0.00188844
-0.00239018
0.00696565
-0.00268704
-0.0033404
0.00434188
0.00172872
-0.0027302
0.00503325
-0.000274488
-0.001658
-0.00769435
0.00508573
-0.000427908
-0.00732474
0.00676012
0.00314738
-0.00258276
0.00467631
-0.00526691
-0.000757747
0.00134834
0.00263269
-0.00477843
-0.00248949
-0.0027341
-0.00250876
0.00141784
0.00382501
-0.00389667
0.00121458
0.00385256
-0.00117046
0.00455397
-0.00433473
-0.00298937
0.00277012
2.80799e-05
-3.9318e-05
-0.0042924
0.00430364
0.000108831
-0.00376132
-0.000139807
0.0037923
-0.00108425
-0.00641536
0.00101064
-0.00372038
0.00334681
-0.000637078
-0.00249089
-0.00104827
-0.000357517
-7.04955e-05
0.00624104
7.58536e-05
-0.0149461
0.0105145
0.00760257
-0.00317097
-0.00445612
0.000305382
0.000154044
0.0039967
-0.000878446
0.013962
-0.0164433
0.00335969
0.000708217
0.00109185
-0.0024513
0.000651239
-0.00951786
0.00512314
0.000668471
0.00372624
-0.000107865
-0.00627928
-0.000903515
0.00729066
-0.00255637
0.00945565
-0.00654894
-0.000350341
0.00424916
0.00617859
-0.0057108
-0.00471694
-0.00505344
0.00482707
0.00597591
-0.00574954
0.00199401
0.00278641
-0.00347069
-0.00130973
0.00195774
-0.00131513
-0.00313349
-0.0100505
-0.000397455
0.00820225
0.0022457
0.00298996
0.000462897
-0.00174349
0.00304114
0.0040746
-0.00376055
-0.00335518
-0.00502541
0.00112313
0.00490047
-0.000998197
0.00058902
0.00159459
0.00552404
-0.00584538
0.00576103
0.000557602
-0.000473248
0.00365072
0.00287205
-0.00258929
-0.000101878
-0.000729422
0.00342059
-0.0038535
-0.000777305
0.00214927
-0.00739001
0.00314329
0.00209746
0.000221494
0.00400689
-0.00444114
0.000212764
-0.00152955
0.000295954
-0.0014219
0.0026555
0.00620617
-0.00444025
0.000191819
-0.00351051
-0.00274649
0.00369517
0.00256183
0.0132492
-0.0141847
0.00464903
-0.00371356
-0.00258858
0.00321622
0.0012954
-0.00192303
-0.00599047
0.00258612
0.00520738
-0.00180303
-0.00253785
0.0036808
0.00473368
-0.00587663
0.00705563
-0.00271496
-0.00466688
0.000326208
0.0001215
-0.00170573
0.00414925
-0.00256502
-0.000721496
0.000713576
-0.00548746
0.00510218
0.00164914
-0.00546442
-0.0012869
0.0064154
-0.00526556
-0.0014076
0.00132971
0.00195865
-0.00465223
0.00136387
-0.00268009
-0.00487466
0.00435071
0.00320404
-0.000801986
-0.0020813
-0.00062723
0.00260153
-0.00277463
0.00596889
-0.00579579
0.000635323
-0.00727808
0.00664276
0.00245374
-0.00322016
0.00209613
0.00136918
0.000792677
0.00112197
-0.00328383
-0.000132173
-0.00608886
0.00622103
-0.00335869
0.000445456
-0.00109003
0.00400326
-0.000408944
0.00464426
-0.0042226
-1.27178e-05
-0.00311826
-0.00165892
0.00180816
0.00296902
-0.00115658
-0.00276367
-0.00255789
-0.00376233
0.00313527
0.00318495
0.000141805
-0.00385627
0.0065973
-0.00271158
-0.000351223
-0.0035345
0.00359253
-0.00035128
-0.00261883
-0.000622418
-0.000560029
0.00495213
-0.00618698
0.00179487
0.00318077
0.000121713
0.00154854
-0.00485102
-0.000115928
-0.00261248
0.0012618
0.00146661
-0.00183584
0.00238557
0.00459754
-0.00514726
-0.00646264
-0.00166296
-0.00179593
0.00591263
-0.00567278
0.000145932
0.00176615
0.0037607
0.00053689
-0.00196585
-0.0034799
0.00490886
-0.00257467
-0.00502632
0.0012683
0.00633269
-0.0023044
-0.00255413
0.00266029
0.00219824
-0.00600688
0.00578049
0.00610517
-0.00587878
-0.000820624
-0.00143318
-0.00433188
0.00658569
-0.00592745
0.000588076
0.00603161
-0.000692243
-0.00104456
0.00276032
-0.00171576
-0.00240219
0.00443822
-0.00334215
0.00130611
-9.81518e-05
0.00782393
-0.00291545
-0.00481033
-0.0028179
-0.00137224
0.00565055
-0.00146042
0.000903859
-0.00237221
0.00536971
-0.00390136
0.000251248
0.00356092
-0.000623812
-1.05743e-05
-0.0057337
0.00572967
1.46049e-05
0.00665411
-0.00117924
-0.00972668
0.00425181
-0.0061495
-0.000600498
0.00767436
-0.000924364
-0.00334003
0.00504638
0.000414106
-0.00212045
0.00299802
-0.00296607
-3.19515e-05
-0.00350408
0.000341987
-0.00300986
0.00617195
-0.00505596
0.00696585
-0.00143844
-0.000471455
0.00314444
-0.00131427
-0.00379364
0.00196347
-0.0061023
0.00614741
-4.51089e-05
0.00500899
-0.00727564
0.000582406
0.00168424
-0.00566549
-0.00155217
0.0096975
-0.00247983
0.00420582
-0.000181038
-0.000881295
-0.00314349
-0.0023823
-0.00404178
0.00902561
-0.00042316
-0.00594668
0.00359521
0.00931591
-0.0103868
-0.000994087
0.00206495
0.00256375
0.00122127
-0.00283297
-0.00272466
0.0028362
-0.000111543
-0.00106658
0.00597481
-0.000385422
-0.0045228
-0.00130888
0.00155341
0.00523466
-0.00547919
0.00342773
0.00806704
-0.00469424
-0.00680053
0.00594239
-0.00712792
0.00226655
-0.00108102
0.00531747
6.71897e-05
-0.00538466
9.32979e-05
0.00518595
-0.00527925
0.00582393
-0.00704617
0.00623124
5.60752e-05
-4.75451e-05
0.00466225
-0.00467078
0.000107086
0.00832022
-0.00829256
-0.000134744
-0.000699645
-0.00208049
-0.0042255
0.00700563
-0.00259155
-0.00153965
0.000518699
0.00492548
-0.00856223
0.00311805
-0.00410059
-0.00107456
0.0043958
0.000779358
-0.00494621
0.00545748
-0.00145779
0.000946521
0.00076277
0.00397436
-0.00135201
-0.00338512
-0.001923
0.000473853
0.00327267
-0.00182353
-6.36349e-06
0.00149873
-0.00189569
0.000403329
-0.00208384
0.0050969
-0.00293968
-7.33785e-05
0.00151644
-0.00481592
-0.00280282
3.63775e-05
-0.00449333
0.00445695
-0.00168959
-0.00162037
0.000752028
0.00255793
0.00248297
-0.0014326
-0.00105037
0.00624547
-0.00620766
-0.00126219
0.00122438
-0.000577561
-0.00375137
0.00346845
0.000860478
-1.58354e-05
2.18259e-05
0.00341796
-0.00342395
0.00170035
-0.00139781
-0.00540947
0.00510692
0.00393592
-0.000101517
-0.0038344
-0.00574579
-0.00371876
0.00553937
0.00392519
0.00330859
0.00516794
-0.0088997
0.00314898
-0.00113209
0.00177666
-0.00379355
-0.0012744
0.00127015
-0.0070455
0.00704975
0.00195568
-0.00385926
-0.00374677
0.00565035
-0.000394824
-0.000885063
0.00416084
-0.00288095
0.0028928
-0.00355544
0.0012887
-0.000626065
0.0016219
-0.0026903
-0.00260013
0.00366853
-0.0051485
0.00579483
-0.00153427
0.000887935
0.00592909
0.00761294
-0.00838712
-0.00515491
-0.00459124
0.00457245
1.87875e-05
-0.000510731
0.00536614
-0.00670703
0.00185162
0.000204767
-0.000331276
-0.00520565
0.00533216
0.0050174
0.000211636
-0.0057735
0.000544462
-0.00219575
-0.00371031
0.00466611
0.00123995
-0.00530104
0.00750933
-0.00265961
0.000451311
-0.00213669
-0.00261931
0.00155466
-0.000316206
-5.72768e-05
-0.00369741
0.00407089
-0.012096
5.17138e-05
0.00106977
0.0109745
0.000475565
-0.00305481
-0.00158079
0.00416003
0.00753163
-0.000623806
-0.00243899
-0.00446884
-0.00132733
-0.00289035
0.000551441
0.00366625
0.0021668
-7.47064e-06
-0.00215933
0.00356173
0.00189142
-0.00118392
-0.00426923
0.00274876
-0.00217641
0.00541089
-0.00598324
0.000171198
0.00565602
-0.00186562
-0.0039616
0.00136092
0.0019551
0.00421562
-0.0026915
0.000194831
0.00249667
-0.00349535
0.00049748
0.000925492
0.000584297
-0.00482181
0.00331202
-0.0045823
0.00670725
0.00202321
0.00691788
-0.00145888
-0.00748221
-0.00443663
0.00433494
-0.00688593
0.00698762
-0.000658503
-0.00330586
0.00115501
0.00280935
-0.00366237
0.0069176
0.00206713
-0.00240764
0.000545539
-0.000205038
-0.00226735
-0.00721726
0.00225628
0.00722833
0.0047408
-0.00472809
-5.04899e-05
3.7782e-05
0.00383546
-0.00449215
0.000954792
-0.000298094
0.000977395
0.00384977
-0.00685463
0.00202746
1.67403e-05
0.00329213
-0.00330887
0.00214324
-0.0054957
0.00432986
-0.00206828
0.00557165
0.00469078
-0.00819415
0.00157662
-0.00162017
-0.00751461
0.00755816
-0.00225794
0.00374532
-0.00752819
0.00604081
-0.00539419
0.00429479
0.00561827
-0.00451887
-0.0033513
0.00459302
-0.00296798
0.00172626
-0.000722965
0.00315101
0.00051199
-0.00294003
0.00155934
-0.0022746
0.0023459
-0.00163064
0.00301594
0.00112283
0.000991327
-0.0051301
0.00843336
-0.00572249
-0.000354521
-0.00235635
2.92455e-06
-0.00410596
0.00410303
0.00256103
-0.00374748
-0.0115027
0.0126891
-0.000521319
-0.0055614
-0.00167808
0.0077608
-0.000337146
-0.00254914
0.00288629
0.000782767
0.00369848
-0.000596146
-0.0038851
-0.00102549
-0.00370573
0.00298893
0.00174228
0.00293312
-0.00245731
-0.00431422
0.00734466
-0.00572274
0.00165529
0.001752
-0.00340729
0.00559691
-7.10427e-05
-0.000671274
-0.0048546
-0.00108565
-0.00184704
0.0029327
0.00197322
0.00131164
0.0110899
-0.0133478
-0.00469551
0.00695346
0.00169508
0.0036098
-0.00276115
-0.00254372
-0.00387756
0.00744783
0.00492737
-0.00849764
0.00441162
0.00153105
-0.000586704
-0.00535596
0.00719471
-0.00479878
0.00309574
-0.00549167
-0.00409256
0.00187462
-0.00517121
0.00738916
-0.00662133
0.0118411
-0.00462799
-0.000591809
-0.000182922
-0.00280514
-0.00386565
0.00685371
0.0053782
0.00222532
-0.00630369
-0.00129983
0.00291063
-0.00775594
0.00488631
-4.10107e-05
-0.00677294
-0.000256783
0.00442614
0.00260359
-0.0013699
0.0035362
0.00153562
-0.00370192
-0.000857762
0.00344004
0.00277522
-0.0053575
-0.00713189
0.00366168
-0.00033126
0.00380147
0.000636532
-0.00190098
0.00377901
-0.00251457
0.00304863
-0.00153333
0.00108787
-0.00260317
0.00292084
0.000565976
0.000284564
-0.00377138
-0.00425709
0.00456907
0.00169159
-0.00200357
-0.00101619
0.00544294
0.000105213
-0.00453196
0.00439318
-0.00257661
-0.00170066
-0.000115907
0.00377689
2.7263e-05
-0.00380415
0.00275131
0.00213028
-0.00048388
-0.00439771
0.00130251
0.00342415
0.00290361
-0.00763027
9.42631e-06
-0.00615616
0.00614673
-0.00321452
0.0124026
-0.00181384
-0.00737427
-5.24275e-05
0.00463788
-0.00458545
-0.000306209
-0.00330728
0.000594859
0.00301863
-0.00604776
0.00308774
0.0023397
0.000620322
0.0012361
0.00101589
-0.00706014
0.00480815
0.00357126
0.00564025
-0.00210744
-0.00710407
0.00545134
-0.00186242
-0.0052175
0.00162859
-0.00676153
0.00385607
0.0103731
-0.0074676
-1.70098e-05
0.00264238
-0.00264216
1.67849e-05
-0.00273479
0.00270683
2.79609e-05
-0.00689423
0.000101871
0.0029148
0.000779715
0.00166157
0.00455282
-0.00699411
0.00357507
-0.00425194
0.00274218
-0.0020653
-0.00350862
0.00307282
-0.000115227
0.000551025
-0.0007168
-0.0057535
0.00733672
-0.000866415
-0.00257494
0.00123909
0.00407834
-0.0027425
0.00441839
-0.00170273
0.000647636
-0.00336329
-0.00290443
-0.000505634
0.00339972
1.03499e-05
-0.000509299
-2.69819e-05
0.00483947
-0.00430319
0.000600868
-0.000511433
0.00478377
-0.0048732
-0.00431854
0.0060298
-0.00631793
0.00460668
2.13196e-05
-0.00542928
0.00540796
-0.00192557
0.000164836
0.00487001
-0.00310928
-0.0036679
0.00428848
-0.00584997
0.0052294
-0.00377634
0.000289426
0.00114282
-0.00175568
0.00477176
0.000268982
-0.00328506
-0.00126519
0.000175535
-0.00213823
-0.00187288
-0.00610132
0.00612779
0.00184641
-0.00271978
-0.00031734
-0.00068704
0.00372416
-0.00928823
0.00313303
0.000931221
0.00522397
-0.0029205
0.00676599
-0.00337304
-0.000472455
0.00204207
0.000800872
-0.00410814
0.00404369
0.00410855
-0.00815224
0.000559085
0.00890743
-0.00206964
-0.00739687
-0.00011379
-0.000160943
-0.00397588
0.00425061
-0.00426971
0.00702479
-0.00283485
7.97655e-05
0.0040415
-0.00254511
-0.0036654
0.00216901
0.00102556
-0.000137751
0.00125529
0.00624373
0.00172509
-0.0090117
0.00104287
-0.00436297
-0.000554457
0.00142324
0.00349419
0.00161847
-0.00180217
-0.00243562
0.00747305
-0.00502884
0.00392093
-0.00636514
-0.000838699
0.00483867
-0.00836697
0.004367
0.00288864
-0.00365757
-0.000370719
0.00113964
-0.00318911
-0.00111098
-0.000107282
0.00440737
-0.00239485
-0.00225457
0.00464942
0.000599144
-0.00643523
0.00570188
0.000134206
0.00245393
-0.00237632
-0.00247246
-0.00405083
0.00513669
-0.000976732
-0.00010912
0.00573151
0.00157738
-0.00617287
-0.00113602
-0.00223166
-0.00326078
-0.000375215
0.00586766
0.00371147
-0.00113034
0.00430173
-0.00688285
-0.00409959
-0.000218943
-0.0048621
0.00260753
0.000622356
-0.00541902
0.00173424
0.00306242
0.00159392
-0.00571239
0.00313678
0.000981689
0.000864314
0.000218454
-0.00431537
0.0032326
0.000645177
0.00278193
-0.000191434
0.004866
-0.0009611
-0.00371347
-0.00190412
-0.000205045
-0.001777
0.00388617
-0.00112872
-0.00151992
0.00290614
-0.000257502
-0.0044947
-5.46206e-05
-0.00751006
0.00270503
0.00394728
0.0106878
-9.57377e-05
0.00146584
-0.0120579
-0.00472635
0.00731704
0.00149595
-0.00408664
-0.00134466
0.000730973
0.00461186
-0.00399817
0.000553458
0.00157257
-0.0012158
-0.000910222
-0.00805558
-0.00167322
0.00694042
0.00278839
0.000179091
0.00344596
-0.000691927
0.000110272
0.00170723
-0.00536676
0.00354926
-0.0032948
-1.07283e-05
0.00121429
0.00209125
-0.00461958
0.0057109
-0.000912225
0.00261331
-0.00235636
-0.000256948
-0.00382185
0.000536156
-0.00296518
0.00625088
-0.00174023
0.00262044
-0.0020203
0.00114008
-0.00374303
0.0042157
-0.00174206
0.0012694
0.00165631
-0.000279904
-0.00389143
0.00251502
-0.00167374
0.0104912
-0.0141185
-0.00149207
-0.00104108
0.0010192
0.00151395
0.00492225
-0.00768578
-0.000347472
0.003111
-0.00205924
0.00153641
0.00264901
-0.00212618
-0.000615976
0.00325625
-0.000896195
-0.00174408
-0.00366037
0.000811956
0.00085549
0.00199292
-0.00209171
0.000179314
0.00191239
0.00471651
-0.00224463
-0.00239528
-7.66061e-05
0.000353363
0.00240466
-0.00365054
0.000892514
-0.00252652
-0.00306335
0.0031237
0.00246618
-0.00133946
0.00343312
-0.00293007
0.000836404
0.00121818
-0.00230514
0.00158832
-0.000501368
0.00447412
0.000112508
-0.00458663
0.00383807
-0.00473415
0.00234952
-0.00145344
-0.00603691
-0.000164964
0.00620187
0.00245257
-0.00203469
0.00047552
-0.000893406
-0.000188305
0.00428003
-0.00467887
0.00058714
-0.00212207
0.00265631
0.000683938
-0.00240602
0.0051537
0.00476165
-0.00405215
0.00400609
4.60532e-05
7.33313e-05
-0.00640666
0.00633333
0.00861963
0.00103261
-0.00182175
-0.00783048
0.00181458
-0.00705794
-0.000876424
0.00611979
0.00135474
0.001603
0.000916447
-0.00387419
-0.00242335
-0.00241506
3.16956e-05
0.00480672
-0.00115814
0.00158311
-0.00284833
-0.00530077
0.000964067
0.00695632
-0.00261961
-0.0104866
0.00768541
0.00337751
-0.000576322
0.00462638
2.67515e-05
-0.00465313
-0.00266779
-0.00359121
0.00232313
0.00393587
-0.00263013
-0.003808
0.00113736
-0.00377956
0.00205278
0.00237197
0.00153352
-0.00201066
-0.00366301
0.00414015
-0.00258086
1.8812e-06
0.00257898
-0.00605316
0.00247442
0.00250681
0.00107193
0.00151471
-0.00406249
-0.00123179
0.00517822
-0.00164875
-0.000124963
-0.00340451
-0.00349906
0.0058007
0.00342949
-0.00573113
-0.00104424
-0.00218281
0.000819486
0.00240756
-0.00146428
-0.00117869
0.00264297
-0.00258596
-0.00541933
-0.00248131
0.00122473
1.68854e-05
0.00247014
-0.00371175
0.00495139
-0.00360025
-0.00520916
0.00385801
-0.00183638
0.000658078
0.00370449
-0.0025262
0.00345638
-0.00243393
-0.000341898
-0.000680549
-0.00396633
0.000644804
0.00309831
0.000223214
-0.00246219
0.00564271
-0.00611024
0.00238241
0.00017608
0.00355175
0.00579206
-0.00463092
-0.00364551
0.00248437
-0.00458828
0.000965173
0.0085745
-0.00441823
-0.00291936
0.00475704
0.00258055
-0.000518424
0.00461528
-0.00175077
-0.00234609
0.000267177
-0.0027978
-0.00184953
0.00438015
0.0052487
-0.0034628
-0.000212418
-0.00157349
0.00163861
0.00121969
-0.00401643
-0.00110458
0.00125116
0.00308119
-0.00322777
-0.000926141
0.00481694
-0.00593694
0.00204614
-0.00293295
0.000707583
0.000709997
0.00151537
-0.0063656
0.00646027
-9.46724e-05
0.00449701
-0.00443897
-5.80491e-05
0.00179714
-0.00689912
-0.00265651
0.00775849
0.00154987
0.00293543
0.000692921
-7.33127e-05
0.002574
-0.00250069
0.00427547
0.00380712
-0.00808258
-0.00456888
0.00278974
0.00197085
-0.00019171
-0.00256542
0.000845259
0.00208651
-0.000366342
-0.00771794
0.00361069
0.00422755
-0.000120297
-0.00249028
-0.00277447
0.00268389
0.00402881
-0.000641527
-0.00258492
-0.000802358
-0.00424516
0.00458288
-0.00279991
0.000775719
-0.00485205
-0.000229484
0.00430582
-6.14219e-06
-0.00238769
0.00239383
0.0115432
7.79324e-05
0.00124217
-0.0128633
-0.000438759
-0.000863017
-0.00635022
0.00765199
0.00199246
-0.00269933
-0.00125621
0.00196308
0.000780582
0.00600884
-0.00242691
-0.00436251
0.0065187
-0.00651551
-2.41995e-06
-7.62656e-07
-0.00365549
-0.00329599
0.00515238
0.00179909
0.00214004
0.00162662
-0.00425382
0.00048717
3.04181e-05
0.00395735
-0.00404709
5.93152e-05
-0.00546401
0.00175748
0.00442599
-0.000719458
0.0041573
0.00251404
-0.00420874
-0.0024626
9.5972e-05
-0.00372104
0.00186986
-0.000971243
0.00562008
-0.00299212
-0.000389009
-0.000466263
0.00384739
-0.0050745
0.000269349
0.00480515
0.00737828
0.00319381
-0.00239457
-0.00817752
-0.00481577
9.9799e-05
0.00481195
-0.000437542
-0.00113971
-0.0029081
0.00448536
-0.000559282
-0.000578734
-0.00156398
0.002702
0.00121111
-0.00615593
0.0046458
0.000299013
0.00387947
-0.00059784
-0.003781
0.000499364
-0.00471059
0.000975132
0.000368545
0.00336691
-0.00180526
0.00119077
-0.00247281
0.00308731
0.0010291
0.000672106
-0.00610166
0.00440045
0.000206976
-0.00413618
-0.000280065
0.00420927
0.00409381
0.000548857
-8.31831e-05
-0.00455949
-0.00488406
0.00113197
0.0044201
-0.00351564
-0.00465962
0.00817526
0.00677256
-0.00342666
0.00146144
-0.00480734
0.000531857
0.00378142
-0.00232082
-0.00549743
0.00101372
0.0019469
0.0025368
0.00679418
-0.00701355
0.000219375
-0.00414827
-0.00141088
0.00290491
0.00265423
-0.00539673
-0.0041881
0.00281201
0.00677282
0.00548944
-0.00573158
-0.000702425
0.000944562
-0.000799275
0.00266999
-0.00210383
0.000233117
-0.00690068
0.00225871
0.00158309
0.00305888
-0.0102124
0.0126841
0.00213618
-0.00460795
0.0045749
-0.00991092
-0.000509532
0.00584556
-0.00406335
0.00517806
-0.00959631
0.0084816
-0.00423224
0.00932103
0.000925152
-0.00601395
0.00037543
0.00443354
-0.0010445
-0.00376448
0.00675671
-0.00507353
-0.000166184
-0.001517
-0.00117598
-0.00112945
0.00172652
0.000578901
-0.00315986
-0.00659646
0.00565225
0.00410407
-0.00453738
0.00604572
0.00524837
0.00373203
-0.00274428
-0.00341894
0.00243118
0.00135048
-0.00174734
-0.000771398
0.00116826
0.00299554
-0.00296573
-0.00393926
0.00390944
-0.00121076
0.00347288
-0.000250929
-0.00201119
-0.00483326
-0.000786635
0.00599532
-0.00363125
-0.000893139
0.00448959
3.48031e-05
0.00152006
-0.00339518
0.00187513
0.00119849
-0.00158456
0.00589628
-0.0055102
0.00472476
-0.00665282
0.000975338
0.000952724
0.00297797
-0.00321176
0.000233798
-0.00465683
0.000119446
0.00412257
-0.00157493
-0.00398202
0.00143437
0.00131435
0.00105178
0.00461235
-0.00697848
0.00292168
-0.00317199
0.000250313
-3.44071e-05
0.00358997
-0.00405856
0.000502991
-0.0051022
-0.000485452
0.00678614
-0.00218984
-0.000373761
0.000505907
0.00205769
0.000302209
-0.00249666
0.00184195
0.000352507
0.00410485
-0.00393131
-0.00097281
0.000480027
0.0069135
-0.00436525
-0.00302828
-0.00234387
0.00494944
-0.00260557
-0.00635004
0.00243023
-0.00148108
0.0054009
0.00497795
-0.00450595
-0.00737267
-0.00247193
-0.00295821
0.0101632
-0.00473303
-0.00716802
0.00456501
0.00651762
-0.00391461
-0.000142483
-0.0061118
0.00625428
0.00964903
2.32986e-05
-0.00556715
-0.00410518
0.00563441
-0.00363227
-0.000504599
-0.00149754
-0.00409912
0.00290496
-0.000730395
0.00192456
4.8152e-05
-0.00426614
0.00421799
-0.00305317
0.00314344
-9.02768e-05
-0.00222986
-0.00235913
-0.00603333
0.0106223
-0.00568073
0.00123423
-0.000629488
0.00507599
0.00133992
0.00217415
0.00597745
-0.00538674
-0.00445796
0.00386726
-0.00162315
-0.0033548
0.00369654
0.00128141
-0.00336582
-0.00170864
0.00507912
-4.6691e-06
0.00113566
-0.000647816
-0.00319167
0.00270383
0.00371057
0.000167902
-0.00474575
0.000867275
0.00114252
-0.000797767
0.00124974
-0.00150867
0.00150327
-0.00124434
0.00304964
0.002975
-0.00304384
-0.0029808
0.00150875
0.00354214
-0.00366035
-0.00139054
0.00315804
0.00136727
-0.00248324
0.00392383
-0.00475156
0.000995635
-0.00523419
0.00366279
0.00197325
-0.000401854
0.00618518
-0.0020497
-0.00647934
-0.00165637
0.00441281
0.00222151
0.00431177
-0.00209658
-0.0036458
-0.0010021
-0.000586286
-0.00580028
0.00542288
0.000508546
-0.00013115
-0.000355192
0.00725762
-0.000748128
-0.0061543
-0.00471524
0.000959523
0.00209935
-0.000753198
-0.00475726
0.00133904
0.00417142
0.00433364
0.000599979
-1.24539e-05
-0.00492116
-0.00649529
-3.83967e-05
3.33346e-05
0.00650035
-0.00168556
0.00183735
-0.0030041
0.00285231
-0.00446976
0.00564366
-0.000577977
-0.00059592
0.00587791
-0.0054862
-0.00486147
-0.00431497
0.00388967
-0.00122962
0.00165492
0.00347729
-0.000157279
-0.00109323
-0.00222679
-0.00660331
0.00636113
0.00312952
-0.00288735
0.0031578
0.00120278
-0.000401542
-0.00395903
0.00111136
0.00282218
-0.00352882
-0.000404717
-0.00209183
0.00210469
-1.2863e-05
-0.001222
-0.00312035
0.0031316
0.00487159
-0.00483618
-3.54116e-05
-0.00266225
-0.00212165
0.00208458
-0.000279593
-0.00322975
-0.000354215
0.00386356
-0.000370729
-0.00285057
0.00254879
0.000672508
0.00437812
-0.00497921
0.000601088
-0.00565083
0.0057876
0.00531124
-0.00544802
-0.00378539
0.00292751
-0.00198805
0.00284593
-0.00153871
0.000657497
0.00139311
-0.00051189
-0.000151784
0.00685228
-6.78023e-05
-0.0066327
-0.00351401
0.00170361
0.00173075
0.00200988
0.00255775
-0.00446231
-0.000105316
0.000193543
-0.00555141
-0.000216859
-0.00495368
0.00496064
-6.96136e-06
-0.0033817
0.00170746
-0.00372249
0.00111852
-0.00247598
0.000101246
0.00220557
0.00095742
0.00324815
6.31813e-05
-0.00277802
-0.000533309
0.00272168
-0.0067904
0.00544378
-0.00137506
0.00113831
-0.00155219
0.00575451
-0.00534064
0.0070252
0.00205711
-0.0010804
-0.00800191
-0.00178641
-0.00292586
-0.000951715
0.00566399
0.00212771
0.0088798
-0.00800775
-0.00299976
0.001023
0.0064683
-0.00624359
-0.00124771
-0.00219962
0.000288722
0.00450882
-0.00259793
-0.00078314
0.00631509
-0.00340424
0.00458239
-0.0036213
-0.00141179
0.000450704
0.00150926
0.00392161
-0.00543087
0.00363328
0.000806741
-0.000483882
-0.00395614
-0.00334749
0.00267665
0.000268726
0.00040211
-0.000319402
-0.00477624
0.000281334
0.00481431
-0.00349254
-0.000442724
-0.000140163
0.00407543