/*--------------------------------*- C++ -*----------------------------------*\
  =========                 |
  \\      /  F ield         | OpenFOAM: The Open Source CFD Toolbox
   \\    /   O peration     | Website:  https://openfoam.org
    \\  /    A nd           | Version:  10
     \\/     M anipulation  |
\*---------------------------------------------------------------------------*/
FoamFile
{
    format      ascii;
    class       volScalarField;
    location    "6.5";
    object      SgRate;
}
// * * * * * * * * * * * * * * * * * * * * * * * * * * * * * * * * * * * * * //

dimensions      [1 -1 -3 -1 0 0 0];

internalField   nonuniform List<scalar> 
111485
(
2.44944e-09
0.0088918
0.0201824
3.47035e-09
0.046223
1.996e-08
0.0401129
0.0062174
0.0158984
0.000862094
0.0394225
0.010183
0.00376413
0.22058
0.00558363
0.0282396
0.161414
2.43751
0.00974296
4.64781e-08
0.0291795
1.52359e-09
0.0234544
0.0316928
0.00976334
1.62398e-08
0.0404266
0.0015103
0.0190304
0.0377733
0.0428211
0.00504471
1.87166e-07
1.06288e-06
0.00908041
6.72007e-05
0.113537
0.160854
0.00187695
0.0196902
0.0318724
0.0714256
0.0154785
0.00135694
6.17031e-05
1.36872e-06
0.0303425
0.000660404
0.0484111
3.27857e-07
9.61068e-07
1.3009e-05
4.32812e-07
0.04443
1.08143e-06
0.0409528
0.00338192
1.90654e-08
5.19359e-05
0.00469887
0.0161305
2.01533e-07
0.0034163
0.0905574
5.31773e-06
0.00378895
0.307638
0.100112
0.000762628
0.00592707
4.6786e-05
0.00445287
9.17213e-06
0.00212639
2.02075e-08
0.00170235
8.60795e-09
0.0397384
2.51477e-08
2.37401e-05
0.212357
0.429052
3.2254e-08
4.86861e-09
0.00766933
0.00421673
0.107591
0.0223467
0.000235513
0.0030182
0.000549851
0.0346729
0.00941155
0.00130301
0.0563816
1.07843e-08
0.0212165
0.00154218
0.00117334
0.00177645
2.56585e-09
0.0191325
1.46758e-06
0.0212764
0.00393692
1.20588e-05
1.81403e-08
0.00656883
0.00345243
0.000520163
0.00279981
0.00460456
0.00299881
0.00308358
8.65558e-08
0.00120479
1.16007e-08
4.84423e-06
0.0103749
7.10619e-09
7.45024e-08
0.000146097
0.0551768
1.57315e-06
0.00191587
0.0224063
8.18165e-05
0.00157103
4.21831e-09
0.000316947
0.00123174
0.0286616
0.036985
0.000134508
6.0802e-05
0.0505511
5.00829e-09
0.0369151
0.022304
0.00209815
0.000224818
0.00202131
0.15676
0.00288525
0.0039836
2.89653e-05
5.19076e-08
4.30167e-09
3.75115e-08
0.0255927
0.00195711
0.0223821
0.0885702
3.25212e-05
3.05067e-05
0.00923063
0.0173223
0.0117307
0.000599318
4.24446e-06
4.56259e-09
0.0522679
0.0210928
5.88684e-05
4.98417e-05
0.00437698
0.00378786
0.0198417
0.001135
0.000154093
3.59824e-09
8.09239e-09
0.157207
4.9199e-09
8.81581e-05
6.78526e-06
4.52389e-07
8.32216e-06
3.98282e-08
4.42953e-06
7.38782e-06
2.4628e-08
0.00122118
0.00669452
0.0272053
1.80751e-05
0.00686924
0.000800881
0.000350493
1.27751e-07
0.00841868
4.60242e-06
5.59395e-06
0.000353633
0.00967063
0.0244829
0.011484
6.72028e-05
6.63125e-07
0.00668432
0.000795375
0.00130486
0.0124295
0.000783554
1.34715e-06
0.00179195
0.0239742
8.79802e-06
0.000227179
0.00770171
0.00283285
0.000712768
6.21121e-06
1.47401e-08
0.00162327
0.000236126
0.119292
1.78702e-08
0.00337288
0.00975237
0.118875
8.08727e-08
0.00104911
0.0127637
0.000213583
2.05223e-08
2.04184e-09
0.162389
0.0030506
1.81476e-05
6.97744e-05
0.0111862
0.000923545
0.122877
2.9404e-05
1.38848e-05
0.122041
3.1976e-08
0.00204321
0.00362863
0.00314436
0.000142834
0.00383344
3.10242e-06
0.00134381
0.0052033
5.69702e-06
1.04571e-07
0.030698
0.122806
1.36921e-05
0.00360794
0.00322282
7.67014e-10
0.000147699
0.000127263
2.15707e-07
5.01568e-05
0.0768438
2.72047e-08
0.0116793
0.0102582
5.48084e-05
8.82522e-09
0.00326272
8.4865e-10
3.69077e-08
3.76461e-07
0.130218
0.0243998
0.00486764
0.00446971
0.171119
0.0101415
0.00184289
0.000793993
0.00147497
0.00157083
3.99706e-07
9.13976e-09
0.0889008
0.0100996
0.0233213
0.000889978
4.27804e-09
0.168782
0.200897
0.00264249
0.000194004
2.86691e-05
0.0126313
0.00189932
0.00191056
8.05232e-08
0.000878475
9.59987e-09
0.000274169
0.000208545
0.259137
0.0689664
0.274408
1.74204e-08
0.0630116
0.0086716
0.000601283
9.91874e-09
9.05184e-08
0.0193437
0.000453309
0.00199043
0.00334199
0.0148657
0.0200231
2.3114e-05
2.52223e-08
1.59662e-08
0.00319966
0.00332451
0.192527
0.189948
0.000528542
6.64965e-09
1.00177e-08
1.64055e-08
6.53615e-05
0.0571264
0.0118525
1.55342e-06
0.00477712
5.53588e-05
0.0476796
0.0661654
0.00542867
0.0114056
0.00757542
0.0352662
3.82507e-05
5.95764e-07
0.00866679
5.80827e-05
0.00440942
1.81795e-08
0.113216
0.000324989
0.00161393
0.00752393
0.000277699
0.0295205
0.028676
0.0374097
0.00263971
0.00735767
0.024209
0.0119338
7.07299e-06
9.27183e-08
4.69059e-07
5.04865e-07
0.0310306
0.282022
0.0393186
0.0681542
0.0388108
0.0176896
2.93304e-08
3.43e-07
0.0139673
0.03699
0.0503356
0.0359926
0.0363834
0.0227878
1.83757e-08
4.24468e-05
0.000685967
6.31554e-09
0.00107398
0.0159434
1.17046e-05
0.00693584
0.0110792
0.00726493
0.00104727
4.52094e-05
0.000260539
3.12537e-05
5.48193e-07
0.00193754
3.25014e-07
0.00507848
0.113532
0.0222547
8.4448e-08
0.0265121
0.116031
0.00118845
0.253489
7.47713e-08
0.0426061
0.0235253
5.66361e-09
0.000688084
0.0024901
7.8256e-09
0.0251281
7.31411e-05
0.00446669
3.60849e-07
2.71752e-08
0.000573283
8.99324e-09
0.0123349
2.23014e-06
2.97829e-09
0.0179008
2.85051e-05
0.19934
0.024076
3.15761e-09
6.15318e-05
0.00116577
7.44979e-05
0.000160603
0.0122926
0.115201
0.888609
4.007e-05
0.156764
0.000481053
4.54964e-08
0.0348402
0.0334917
1.38151e-07
0.0010684
0.00022377
6.43846e-05
0.0223905
0.0278113
0.000228739
3.46764e-08
0.268835
0.019838
0.000178939
0.00335492
6.88727e-05
0.000973771
4.19683e-08
0.192618
0.25417
2.75466e-08
0.008825
0.000250777
7.83374e-05
3.36621e-09
2.18693e-05
3.06648e-09
0.221134
0.000233086
0.00520141
0.00259224
0.00323122
1.34614e-07
0.00295545
4.36007e-07
0.0332464
1.3691e-07
4.84515e-07
0.0411058
0.0349053
2.9204e-08
1.66686e-09
0.000291607
6.36319e-08
1.03566e-06
0.000926702
1.73386e-08
4.79883e-05
6.38875e-08
0.0582073
6.48235e-08
1.3141e-06
2.25304e-08
0.00771256
3.3126e-07
0.170101
0.00200286
0.179826
8.20175e-09
0.000710757
1.78834e-06
5.55532e-09
0.278714
0.108759
0.0257083
0.0226812
2.40886e-05
0.00195963
0.0704343
0.000515794
6.73778e-05
0.219167
1.34151e-08
0.000284952
8.20668e-05
0.00377705
0.0432601
0.068705
8.92591e-05
0.00168794
0.000326242
0.000561218
0.0600198
0.000156124
1.35766e-08
0.0793402
0.0447979
2.85485e-06
8.52337e-07
1.51394e-05
4.46222e-09
0.00132515
0.055175
2.36192e-07
1.85737e-07
0.00328767
4.12047e-09
0.0302318
3.17172e-08
0.000354698
1.13404e-09
0.0881612
0.0910595
0.00129384
0.000874638
0.0478371
0.0684446
7.96442e-09
1.96834e-07
0.0137478
8.08724e-08
0.000117766
1.29535e-05
0.00136844
0.0334503
0.0659461
8.52272e-09
3.57649e-05
0.0142707
0.0028202
0.00140965
0.00359799
0.00543881
0.0212546
7.20074e-07
0.0198541
0.00586922
4.8135e-09
0.0971716
0.0358074
0.0121349
9.60339e-07
0.00584091
0.00562355
0.00165192
0.00351413
0.000293824
0.0133906
0.000880457
0.000191781
0.0240585
0.0886489
0.00103727
5.67471e-05
0.00277653
0.686179
3.46275e-08
0.000508313
3.22263e-06
3.091e-05
0.00153986
0.00366844
0.00215016
0.000343135
0.000127529
0.016296
0.0110895
8.10378e-08
0.000151653
0.00212151
5.57064e-08
1.57012e-08
1.1462e-08
5.03406e-08
0.0150125
2.15974e-08
0.0272606
0.00915478
0.00256002
0.0766171
0.248614
4.66192e-05
0.0085886
0.0291929
4.81462e-08
0.0527584
1.68736e-07
1.11545e-08
3.63389e-05
2.44325e-05
0.0903966
0.0309876
0.00405607
2.0994e-06
0.0760148
0.110385
0.0256117
0.0250159
0.000931811
0.152619
0.0304651
0.0572432
0.0380634
4.4652e-06
0.000308421
0.0402642
0.00584853
2.24303e-05
0.0273099
0.0251235
7.90802e-07
0.0118162
0.000469783
2.53438e-05
0.0307592
0.000264231
0.000503963
0.0075333
0.0355595
0.00153087
0.0178378
0.0166251
0.0025176
2.61226e-06
0.00885415
0.000296747
0.00014556
0.0140072
0.0141613
0.0134519
4.08056e-07
4.46901e-05
3.59898e-06
1.36083e-08
0.057008
4.33097e-08
0.108043
4.49305e-05
0.0090913
7.19805e-08
0.0216014
4.37894e-05
0.0383657
2.37042e-09
0.0354392
2.66868e-07
1.34559e-08
7.69073e-07
0.251548
0.000577013
2.25248e-05
0.0323103
8.42268e-08
3.17942e-09
0.231594
0.0348282
6.48692e-05
0.00174692
9.7754e-05
4.31253e-08
0.0348218
0.00688515
0.128916
1.24163e-08
1.67012e-08
0.000337807
0.000465264
0.000101362
2.64417e-07
0.0462569
0.00689955
2.04402e-08
1.83569e-07
0.0334165
0.0395084
0.00208606
3.86943e-09
4.12353
0.211151
0.1389
3.67263e-08
1.47811e-08
0.0560994
0.000360071
3.08621e-05
0.000448872
0.151137
0.003059
5.32166e-05
0.0466419
0.0580766
0.00164761
3.42657e-08
9.18077e-07
3.10324e-08
5.42804e-09
4.78576e-08
1.39533e-08
0.0201738
3.23954e-08
1.14788e-08
4.72274e-07
0.0100306
0.01529
1.06476e-07
5.12122e-07
0.10546
0.00742533
0.0120694
2.04229e-08
1.37148e-08
0.00327856
3.16094e-09
0.00230145
0.00181224
0.00304076
9.15933e-08
1.88854e-09
6.01027e-09
2.37684e-09
0.0136848
4.13362e-08
3.35945e-08
0.000931992
6.50309e-09
0.0201632
0.00155389
1.55694e-06
0.0180572
0.522859
0.00227535
0.219263
0.000282185
0.0470643
0.159657
6.34632e-05
0.0182458
0.073329
8.67533e-06
1.49383e-05
0.0688343
0.643973
0.000118916
4.24203e-08
0.00309033
0.00290096
0.00142217
6.90361e-05
7.29062e-09
3.20964e-09
0.00638062
2.97497e-05
0.000880403
3.01596e-06
0.00104361
0.000104405
0.00127453
0.00381277
2.1468e-08
0.0246435
8.90778e-06
0.0149252
6.5669e-09
3.91849e-05
0.000149625
1.28893e-06
2.31353e-07
0.0319345
5.42789e-09
0.00204119
0.0469707
1.67328e-08
0.0551266
3.29948e-05
0.0272627
0.000464691
7.89158e-08
2.54082e-05
0.00750588
0.035972
0.00411531
0.00100924
0.122123
0.000174889
0.00141099
6.75865e-07
9.09183e-06
0.377084
0.122562
2.47679e-08
0.181679
0.00302496
0.000125444
0.00641109
0.000272277
0.000862033
0.020988
0.00233432
0.0022167
6.79919e-05
0.000961599
0.0335516
4.63766e-08
0.00450011
0.000699167
5.98028e-08
0.00036347
0.219005
0.00578957
2.67675e-07
0.00195079
1.44009e-08
0.00204712
0.169361
1.87713e-08
0.142202
0.265011
0.000958245
0.000310109
9.4598e-07
0.0517233
5.86634e-05
0.00190301
0.000896306
0.000218135
3.19698e-06
0.033399
0.0082385
1.7039e-09
0.000334145
0.000500995
0.000567462
0.00036088
0.000663729
0.000133839
3.44969e-09
5.26378e-05
0.0232296
3.09243e-07
0.00177651
0.265263
1.50763e-07
1.99526e-08
0.00249394
0.00254997
2.21806e-09
0.000463124
1.02664e-07
4.5186e-09
2.61839e-08
3.2974e-07
3.31299e-06
1.55417e-07
0.000389453
0.0381447
1.11e-08
6.12228e-07
0.00346111
0.08815
0.00149549
0.00848103
0.023949
5.69196e-09
0.000286309
4.00473e-09
5.90794e-09
0.000444381
0.11698
0.0414246
1.20042e-08
9.98985e-08
0.0262943
9.86983e-09
0.017022
4.17733e-08
0.00766986
1.94222e-09
0.00150394
0.0242427
7.04828e-09
5.73571e-07
4.6976e-07
0.00108879
5.01874e-07
1.53977e-08
1.54614e-06
0.00342457
0.0398153
0.00483122
0.00042853
0.000820924
7.48878e-08
0.00105133
0.00254797
0.0455633
2.4535e-06
0.000173344
0.00629385
1.76476e-07
6.66303e-06
0.00011221
4.95366e-08
0.00704051
0.00437619
0.00368678
0.0553313
1.60612e-09
0.0250423
0.0448912
9.37489e-05
5.69422e-05
1.46159e-08
0.0247648
2.0657e-08
7.75619e-07
2.18422e-05
0.03697
4.60519e-07
0.00289733
2.08305e-05
0.00108799
1.21752e-05
3.82056e-08
2.99833e-06
2.73931e-09
0.000585211
0.000699722
0.357499
2.40241e-08
4.8969e-07
0.000517542
8.6348e-09
3.73426e-05
3.30965e-07
0.0435581
0.000640857
0.0257228
4.14956e-08
0.00104325
0.000126084
5.29067e-05
0.000207671
4.77772e-08
0.00181065
0.0251137
0.111848
0.00146209
0.00034268
4.90915e-08
1.04084e-09
1.24248e-08
0.141902
0.0550262
0.00610052
7.85628e-09
0.175987
3.68149e-08
0.171071
0.0026368
4.84731e-07
4.05309e-08
2.10629e-06
5.0638e-07
0.0346807
1.62075e-06
9.15569e-05
0.241142
0.00589385
5.64499e-05
2.71789e-05
5.39892e-05
4.08698e-05
9.19345e-09
1.52153e-08
0.0221015
0.000424894
1.68648e-08
1.45015e-07
0.000484285
2.8532e-07
0.00142378
0.333783
1.60532e-06
0.00284989
3.33915e-09
0.000166432
2.3871e-07
0.250191
8.05643e-09
0.0911443
0.00425086
0.000871575
0.0156049
0.0295782
0.0007235
2.11102e-06
0.000457359
1.53821e-06
0.00429564
4.15913e-08
1.50996e-06
6.41653e-05
1.75724e-06
0.0519899
2.09865e-07
0.00610326
0.00681256
3.57648e-09
0.000290971
8.48324e-08
0.00065663
0.000612999
5.1731e-08
0.0185986
0.000250949
4.77265e-07
0.00579929
0.142841
0.00325906
0.0129831
2.55452e-08
0.0343249
6.79368e-06
1.85029e-07
0.035672
3.8694e-06
0.105973
2.35502e-09
0.115664
0.00068375
2.82146e-09
0.000832836
3.7414e-07
6.35132e-09
0.00244336
0.000689794
0.00737627
1.84963e-08
9.65967e-07
4.91967e-08
0.000611724
3.89408e-05
0.026945
5.37455e-06
0.000691323
5.2328e-05
0.000855523
2.4536e-05
2.52391e-06
7.63866e-07
0.00793797
0.00583443
0.0191879
0.0330915
0.0345668
0.000203711
0.0353159
5.03202e-09
0.00135559
8.57074e-08
5.36193e-05
0.000333856
0.00351268
0.000327675
0.000446624
0.00272619
4.31493e-09
0.0055404
0.00623898
0.000141658
0.00108548
0.015148
0.000672424
1.42117e-06
0.0278419
9.82165e-08
4.56863e-09
0.000207613
0.0773974
0.000749279
4.66149e-07
0.0349462
0.000453318
5.19335e-07
6.61875e-08
0.000429949
2.05405e-06
0.043773
0.246862
0.000261007
0.00030412
0.0218521
0.00625621
1.10977e-07
6.07085e-08
5.93638e-05
0.00449199
0.0257461
0.0433714
0.0118679
2.33817e-08
0.000239595
0.0309234
2.15344e-05
0.000883078
2.57386
0.032475
0.0969473
0.0377989
0.0178335
6.76684e-09
0.00155431
4.96663e-07
9.30164e-08
1.66547e-07
3.24797e-08
0.00408304
1.57805e-08
8.91321e-09
6.85899e-05
4.77037e-08
4.6667e-09
7.69466e-07
0.00940552
0.0441378
0.0123899
0.00258261
0.0570055
0.202925
1.05189e-08
0.14282
0.00012694
0.297612
0.00270147
8.22081e-08
0.000626817
0.00950646
0.199484
1.12007e-08
0.000881799
0.018622
9.67402e-05
1.28743e-05
0.000521638
8.30983e-07
1.92339e-07
0.0580183
1.3017e-08
0.000145869
8.96711e-08
4.07447e-07
0.000197834
0.00033823
7.28293e-05
8.90753e-07
0.000301456
0.000765785
3.22991e-07
0.000215398
5.65875e-07
0.00136818
1.17269e-07
7.43187e-08
0.197578
0.0327879
0.000401578
1.93207e-07
9.18678e-09
0.00684261
0.147858
0.00621245
0.0181492
0.217675
0.0195663
1.44351e-09
0.0266304
0.00215998
0.00642352
0.0353862
0.0123986
1.12465e-08
0.147203
8.43105e-09
0.0318502
0.00737656
0.0102689
1.23263e-08
0.012379
9.60708e-07
0.00326643
0.00433576
3.75705e-06
1.4838e-09
2.32108e-09
0.00235128
0.0602298
4.27421e-09
0.00337525
0.0184058
6.84491e-05
0.000174541
0.0361293
1.72384e-06
9.21596e-05
0.000781368
1.26479e-07
0.00818954
1.3437e-06
0.0019167
2.79868e-08
7.12007e-09
0.0103188
1.15807e-08
0.000140936
0.00275745
2.27272e-08
5.21193e-08
0.0033152
0.000423707
0.278875
6.56669e-08
0.269424
1.4233e-06
0.000278316
0.000125998
0.00584156
6.5163e-05
0.0596137
0.00483393
4.14641e-05
0.000836659
0.0504184
8.5725e-07
1.34148e-08
0.000297028
0.000606728
0.0311242
2.12757e-07
0.0332318
0.000699462
4.31718e-08
0.178692
1.1164e-08
1.27835e-07
1.90475e-06
0.00387736
0.263454
0.0429636
4.20899e-07
1.30588e-08
2.94821e-09
8.56811e-08
8.49419e-08
4.43236e-07
7.28418e-08
2.74731e-09
4.19551e-08
3.81214e-09
1.50498e-07
0.047056
0.0279449
1.2117e-08
1.06618e-05
5.5493e-09
2.49357e-08
1.07536e-08
0.027378
0.0646706
0.0174371
3.17966e-08
6.11353e-09
5.97026e-07
0.00582526
3.10757e-06
1.13879e-07
0.221189
2.78177e-07
2.58695e-06
0.0207271
0.00014777
3.90181e-06
0.00596243
0.0230073
1.55986e-08
0.00197337
0.00308999
1.97257e-08
0.0122016
0.0383821
0.0154403
0.00249076
0.00741462
3.0378e-06
1.3181e-07
0.25216
0.0123156
0.00239168
0.0471296
0.00536936
0.00158738
0.0174837
0.000417726
3.07557e-05
0.0123799
0.0409471
0.00819143
2.84811e-06
0.0259234
0.00738197
0.00213181
0.000924329
5.38659e-09
5.61828e-08
1.51759e-08
1.78561e-09
1.57152e-07
0.0112701
0.0121715
2.72521e-08
3.37382e-09
1.36777e-07
1.29093e-05
2.82663e-08
1.79716e-08
6.44541e-07
8.04807e-07
0.00442481
0.00018592
0.0190167
0.192802
1.26115e-07
9.17085e-06
0.0308957
6.93607e-06
4.55601e-09
2.70383e-08
0.178446
3.91161e-07
3.68667e-09
7.50114e-06
0.175805
0.0133165
0.0269874
0.0280477
8.10152e-07
3.63661e-05
0.000315989
0.000285906
1.57955e-08
0.00970689
3.92692e-06
1.09785e-07
0.0229538
1.01609
0.156458
5.48952e-06
1.13438e-06
0.0141058
0.0260335
5.63751e-05
0.00455555
0.00445032
1.87763e-08
0.000443611
0.000316906
0.0479063
7.47089e-06
0.21387
1.31097e-08
0.00195545
8.84191e-05
0.0144498
0.00792321
2.61893e-06
0.000581572
3.45493e-08
6.96008e-06
6.93726e-09
1.67749e-09
0.00236215
0.763543
5.56467e-08
2.93472e-09
0.000325872
0.0245105
0.00104298
0.00580013
0.0321173
0.000587084
0.015347
1.57192e-05
3.18243e-06
0.000160243
0.0300018
0.00354411
0.00256991
8.64962e-07
6.84145e-09
0.000118767
0.0194717
0.00303874
9.55664e-09
0.109944
0.0489999
0.00820284
0.00502376
2.80791e-09
0.000147849
0.00498538
0.0229347
3.62242e-09
0.000270496
0.0125133
0.00104755
0.156367
0.00447635
0.00611165
0.000186163
0.00055445
0.0205211
0.034078
6.11714e-05
0.0224133
8.96282e-05
0.152973
0.000792409
2.69048e-09
0.000271517
0.000729456
0.000415736
0.0103796
0.000372761
0.000817744
0.000346651
0.0280185
0.000700603
3.95111e-05
0.00501325
0.00013501
7.57662e-08
3.31372e-08
0.0778578
0.00039447
0.00106501
1.0351
0.0350991
0.00854329
0.00032253
0.0391632
1.90307e-06
2.40733e-06
0.00462137
3.15065e-05
0.00292983
0.00523764
0.000247329
0.000262925
1.25138e-08
0.000171081
0.102049
1.50471e-08
0.0344387
0.00372882
6.48115e-06
0.0068748
0.000593765
4.49826e-08
0.000444751
0.105382
3.83126e-08
9.20644e-09
1.47997e-08
0.110279
0.191322
0.0130331
0.0418395
0.00522285
0.00193927
6.3739e-06
0.00460207
0.00267807
0.00358257
0.0013361
0.0866557
0.263483
0.314745
0.00192686
0.0152149
0.00671396
0.1491
0.281247
1.0553e-08
0.148352
0.00964586
1.35993e-09
0.00217963
4.58638e-07
5.20203e-08
3.66919e-08
1.88019e-07
1.12976e-08
0.106482
5.7882e-08
0.0132547
0.00174633
1.04417e-08
0.00459517
5.69827e-06
0.00340172
1.34679e-07
0.000452409
4.84871e-06
0.0185845
0.00017231
5.08197e-06
0.00651478
0.00720253
0.016067
0.000615433
0.00186877
0.00256251
0.00309616
0.0517619
0.00199816
6.65814e-07
0.00106272
0.00037294
0.00497419
0.0119715
0.000665508
1.11946e-06
4.46065e-05
9.45563e-08
0.00423308
0.0323426
0.000391152
0.258371
0.00127256
0.000345817
3.73025e-08
0.0482838
4.56237e-09
0.00572712
0.0218519
0.00138007
6.69366e-05
9.42717e-05
0.00578708
0.00103222
0.00113289
0.00166267
0.00507432
0.00220257
1.70118e-05
0.0578643
2.72875e-07
0.0125791
0.00931357
5.58245e-07
4.4198e-08
0.000196673
0.00606669
0.00610264
4.18299e-09
0.00184384
0.0348544
0.000154675
0.00565302
0.0790007
6.22089e-09
2.9709e-09
0.00439584
3.40797e-09
0.000118716
0.000882131
1.67781e-05
0.00961098
0.0321841
0.00252183
4.22672e-08
0.00103933
6.98366e-05
0.000104115
0.046788
2.64288e-08
7.96348e-07
0.0053865
0.000414119
8.5127e-07
0.132559
6.73721e-05
1.87204e-08
5.00179e-08
0.000176868
0.000385297
0.0022695
0.00365009
0.0201594
0.185799
1.5999e-09
0.000248391
0.00058427
0.033369
1.31109e-06
0.0372442
0.0651918
8.77169e-05
6.53284e-06
1.52596e-05
1.31805e-08
1.26944e-05
2.0757e-05
0.000280629
1.34758e-05
0.000398489
1.94587e-05
0.000440205
0.0002595
0.00042762
9.67915e-05
2.28709e-08
0.0223872
0.0094265
5.49632e-06
0.0848417
0.000187148
0.000159528
1.04968e-05
0.00092798
0.000194379
0.0021665
0.000268239
0.00120324
1.5047e-05
4.49617e-09
0.000892267
0.000309478
0.0524732
1.56886e-06
0.0380433
3.74816e-05
0.0368604
6.48254e-05
7.28021e-07
0.000294857
0.0264887
0.00764849
7.49145e-09
0.000343424
9.01499e-06
0.00226293
0.000916175
0.263774
3.34244e-05
1.38911e-06
0.0195339
0.00121395
0.00535892
0.0247555
0.0552389
1.50574e-08
0.00824042
0.00239979
0.0437484
2.73458e-08
0.000881307
4.41675e-07
0.0335347
6.83568e-08
1.23265e-08
0.00246871
0.0013837
0.0016724
0.288432
0.0310181
0.0291687
0.0332449
0.01345
0.166488
0.0316582
0.00655119
0.00349512
0.00525675
0.000416554
0.00843244
0.029362
0.00191266
0.00103047
0.0313959
1.40461e-06
0.00280543
4.37962e-07
0.0166198
2.00099e-06
6.45108e-07
0.00156701
3.24895e-06
0.00773958
2.07486e-08
2.88662e-07
0.0591121
1.2785e-08
2.39864e-08
0.000621581
5.3477e-08
0.000747349
2.74273e-05
0.0483002
0.0199552
0.202185
0.00810226
0.00854549
0.0313072
0.521233
5.86701e-10
0.0643486
0.0219558
0.0189489
0.0187902
0.00184029
0.0553409
4.69843e-06
5.40054e-06
6.71781e-07
0.0968412
8.22988e-07
6.93041e-08
0.0151705
4.51989e-07
1.28295e-08
0.00435064
2.01158e-06
0.213398
5.91351e-05
2.68238e-05
3.49517e-05
4.40959e-05
0.00134167
0.00549535
3.1836e-09
5.56655e-05
0.000281488
1.625e-05
0.0953786
5.97735e-08
0.0130814
0.0156311
0.011551
1.25082e-08
0.0174607
0.00934043
0.000759814
0.00419591
0.0130036
3.03429e-08
9.78956e-09
0.0012644
1.38471e-08
5.78284e-09
3.84237e-09
0.0172834
0.277227
0.00448014
0.001519
5.2869e-05
0.0397507
0.0411098
0.0040591
0.00300466
0.00714828
0.0198827
0.00201513
4.23706e-09
2.01476e-09
1.74978e-09
0.00520061
8.20389e-08
0.271913
0.000404463
0.000717394
0.00141407
0.00214552
0.000456813
1.84423e-08
0.0464509
0.00216711
0.000326228
1.18563e-06
2.07913e-07
5.74158e-08
0.357616
0.000176094
0.000370932
0.000653382
0.00105207
0.172123
2.54609e-07
2.48658e-07
5.12e-07
0.000311664
0.0160359
2.86183e-05
0.0277308
0.00234036
0.00240472
2.25444e-06
1.17275e-09
0.000144638
3.39324e-07
0.119847
0.0188085
1.3342e-07
1.03736e-06
1.65374e-05
0.0475507
0.0233275
1.33213e-05
0.0107559
0.0710198
0.00118167
0.337534
0.0346851
2.15326e-05
4.9156e-05
0.129764
0.0146157
9.39587e-06
0.00394415
1.27358e-08
0.0126602
0.00126686
0.0226298
7.63079e-06
0.000285108
2.54191e-09
0.0181497
1.28906e-08
2.33574e-05
0.329651
1.06818e-07
0.00443459
0.00104357
3.57661e-07
3.63823e-08
0.00191364
3.70422e-07
7.98947e-08
0.0128084
6.79302e-05
1.52469e-08
0.0182658
0.03448
0.00203005
4.77459e-09
2.40823e-09
0.000437638
0.00203311
0.00254577
7.35584e-09
4.18496e-08
0.000100877
0.002912
0.0014364
0.00958572
0.275916
3.19625e-09
0.119993
3.90046e-05
0.000187706
0.0411745
8.53731e-07
2.3564e-08
0.0178924
3.75309e-09
0.0254525
0.00567157
0.00519509
8.42833e-07
9.37773e-09
7.87145e-09
1.6117e-08
1.62488e-05
0.103602
0.166864
2.19994e-05
1.82921e-06
2.59585e-09
0.043695
0.170516
0.0294889
0.102693
1.12539e-07
0.000740618
0.000181731
2.24965e-07
6.94369e-09
0.00268808
0.00596212
1.11921e-08
8.78083e-06
0.00304705
0.0470313
0.157942
0.000744686
2.0465
1.08903e-08
2.52564e-07
0.013443
0.000549975
2.58483e-05
0.643641
8.12249e-05
0.00711042
1.45122e-08
6.71597e-08
1.01375e-05
0.0456521
0.00119852
0.139646
2.69221e-08
0.0223078
0.0158251
0.839812
1.12536e-08
8.21178e-09
6.77378e-08
3.54351e-08
0.00525408
0.000241046
1.04008e-08
0.0292418
0.00410737
0.122167
0.00407536
1.82602e-06
1.26996e-06
0.0258189
9.91157e-06
2.51019e-08
1.58027e-08
3.10755e-08
0.0232374
7.18634e-06
0.0426319
0.0412731
0.00404034
0.0159407
1.53484e-08
3.18215e-09
2.468e-08
0.0145299
0.000184412
1.16804e-07
3.47679e-08
7.24335e-09
0.01721
0.00222756
0.00883989
0.0316576
0.00185503
0.234365
0.00362384
3.43116e-07
3.49734e-09
2.00037e-07
0.041918
1.01543e-09
0.022598
2.15247e-08
0.0156451
3.4002e-05
0.00128617
0.000110643
0.00180678
1.5842e-08
1.12376e-08
0.281001
0.198747
2.67161e-05
0.0027912
4.03326e-07
0.000333489
7.98096e-05
2.40093e-06
2.5777e-06
0.000219901
6.7359e-08
0.000837193
0.0306957
0.0327327
1.63812e-07
6.39089e-05
7.32576e-07
0.0267313
0.138698
0.000149684
6.57135e-09
0.00739524
2.7742e-07
0.00359628
0.0183891
0.00103987
8.09627e-09
0.000682032
0.000377212
8.99979e-05
0.00578165
8.88556e-05
0.00119082
4.58974e-06
3.56069e-09
0.000120585
0.00121144
0.000227787
3.47929e-07
7.3787e-06
9.42156e-05
0.468684
7.28824e-09
7.67225e-08
4.60039e-08
5.04334e-09
1.13399e-07
0.0169516
0.000403291
0.000970811
0.000177862
0.000154303
0.00108762
4.00902e-09
0.00668697
7.66661e-09
4.10438e-07
1.56968e-08
1.48696e-05
0.00150099
1.29583e-05
1.12541e-07
1.23315e-08
0.0136184
1.03775e-07
6.8819e-09
0.120325
6.94087e-06
0.0496853
0.0870813
0.437848
1.82262e-09
0.199087
1.2015
1.52031
0.660797
2.39564e-09
6.65268e-09
0.00425346
0.0051625
5.22034e-05
0.00477995
0.0311085
0.0271405
2.38124e-05
3.37701e-06
0.000953656
2.1633e-08
5.84237e-09
7.91178e-05
0.000294051
0.0204638
1.07765e-08
0.0896646
9.61266e-05
2.48908e-07
8.82284e-05
0.00705648
0.00109977
1.72204e-06
0.00631084
3.01491e-09
0.00248782
0.00167392
0.005675
7.32593e-08
0.00135674
0.00490561
8.65134e-06
0.00249357
6.13757e-08
0.0298439
4.31772e-05
0.00940338
7.42842e-07
0.149634
4.17784e-08
7.2386e-07
2.59994e-08
0.089513
0.0919708
1.60477e-06
0.00954047
0.0070994
0.0431664
1.37009e-08
0.0328498
8.49712e-05
0.176514
9.86924e-07
0.152324
0.0215343
0.0456724
0.0027244
1.18564e-07
0.0581551
1.09151e-06
0.215621
3.69893e-09
0.00188668
0.00308336
1.08591e-07
9.2277e-05
1.10078e-06
0.0183051
2.39027e-08
0.0311913
1.60862e-07
8.06467e-06
8.90816e-07
3.89189e-07
0.00025097
0.00155825
0.13346
4.3333e-06
0.000183889
0.0400105
9.88159e-07
0.0337313
5.90392e-07
2.93341e-06
2.11309e-06
3.7528e-05
1.60668e-09
1.55361e-09
7.02374e-09
4.01285e-05
5.58032e-08
0.04956
1.71267e-05
0.00110779
7.25556e-09
0.00190097
0.296233
0.00447817
0.00112512
0.000577746
9.33449e-06
1.86861e-07
7.65632e-08
0.000606146
0.00140704
2.47268e-06
0.000415598
0.000894813
3.79747e-08
1.98045e-08
0.312987
3.93227e-08
0.0186969
1.42597e-08
0.00121275
0.00342566
1.73037e-07
8.13777e-09
0.0358538
2.86145e-09
1.66674e-09
0.0184774
0.0442693
0.00137035
1.51893e-06
1.5683e-08
0.00104843
4.0569e-06
0.0140737
4.65402e-06
1.41111e-08
0.00157638
7.45852e-05
0.127677
1.13769e-08
1.34225e-08
1.49594e-08
0.00416065
0.166955
8.02121e-07
1.77994e-08
5.75461e-06
0.0148981
2.77656e-08
0.0211519
0.0258119
4.76884e-08
3.23257e-08
0.00402505
2.24292e-07
1.50527e-05
2.95469e-09
1.88627e-05
2.65112e-09
0.0610328
0.000264006
1.10379e-07
1.05314e-08
0.0534015
2.41632e-08
0.0439853
1.64907e-07
3.2337e-08
7.91009e-06
0.00893098
0.0343311
0.00409683
0.039121
0.0475991
0.557603
0.00337148
0.031652
8.49752e-06
1.42325e-08
0.0283259
0.104041
0.0290271
0.0330879
5.08926e-09
0.00863423
1.79776e-08
0.00317287
7.92225e-07
0.0111536
0.000130569
0.0533286
3.71986e-07
6.92415e-09
0.0167771
0.000224846
2.10303e-08
0.0191513
0.000307079
1.547e-06
7.35184e-10
0.0370381
0.0114737
0.00199292
0.00309303
0.00273228
0.0160036
0.00150572
0.00522774
6.94741e-06
0.0226429
9.40823e-05
0.000351368
6.57715e-09
5.05769e-07
1.31792e-08
0.00867051
5.34039e-08
1.89139e-06
1.37372e-09
0.000288821
0.298353
0.0659471
0.00299629
1.83871e-09
0.00395729
0.040538
0.0784338
0.0064181
0.000206025
0.0408401
3.88748e-07
3.97075e-07
5.4813e-09
0.000881518
0.00120773
6.20838e-08
1.97753e-08
0.00103808
1.37334e-07
0.754601
0.0423193
0.0850367
1.73341e-08
1.15571e-08
0.0329828
7.30412e-09
0.00203109
3.70663e-08
0.000510509
4.22444e-09
0.00779332
3.2012e-08
1.57249e-08
0.000822223
0.115646
0.0506829
1.40202e-08
0.0541024
5.062e-08
0.00366185
0.200896
0.0877148
2.22825e-07
0.000514726
7.1314e-09
1.43047e-06
0.000213225
0.016514
0.000273768
2.4363e-08
0.00286253
0.00379573
0.00497495
0.00856114
2.81964e-07
2.48311e-07
2.45517e-06
4.83405e-07
2.57115e-09
2.87083e-09
0.0551652
0.0291676
3.45774e-08
0.0618204
4.39487e-09
1.80884e-08
0.0705475
5.74556e-09
2.29809e-09
0.028959
3.67213e-08
5.31733e-09
1.0508
3.26481e-09
2.88462e-09
0.00147896
0.0703144
1.40799e-07
0.029105
1.78871e-08
0.0193196
0.0368631
4.62148e-06
0.000643853
1.49052e-09
4.50169e-08
8.19169e-07
8.8392e-08
0.266951
0.0334071
0.000279182
2.83391e-08
0.0363019
1.67434e-09
9.41137e-09
9.5864e-09
0.0779706
0.00135359
0.000139508
2.97196e-09
9.57101e-07
0.0377643
0.000689001
3.70366e-07
0.000196184
0.0821291
0.0631157
2.7877e-05
0.0631371
0.000710535
0.0334995
3.22069e-05
0.0494042
0.000263572
0.0300108
1.16869e-06
0.00603738
0.000352194
0.00069706
1.6736e-09
0.00141989
8.20117e-08
0.00340816
0.0207334
9.33234e-07
0.00214584
0.000237271
1.42198e-07
0.00859381
5.44465e-08
1.41942e-08
5.44533e-08
3.34678e-08
3.85557e-06
2.31198e-08
4.90969e-08
5.42748e-08
0.245238
3.30368e-05
2.42232e-09
9.69189e-09
6.88098e-08
1.25332e-07
0.0302629
0.791332
0.00160037
0.000109662
2.91235e-08
0.00159048
0.00105338
0.0363569
2.47824e-05
9.85889e-06
3.7166e-07
8.1139e-07
2.00188e-06
0.000171667
9.02775e-05
0.135207
0.0526838
5.27546e-08
0.000754235
0.000227949
1.26399e-08
0.0270982
4.44371e-06
3.54185e-08
1.23208e-06
0.160122
0.0487763
1.42644e-09
0.0239942
3.03908e-08
0.035713
4.12764e-05
0.0278494
0.0503819
1.48688e-08
4.36608e-09
3.07066e-08
1.91369e-05
0.0052059
0.228878
0.0288525
0.04712
0.00351227
0.0003896
4.39277e-09
8.95818e-05
0.117442
0.00130935
7.24319e-05
0.00223043
3.22845e-06
0.0751213
5.26933e-08
0.210954
0.0300774
1.43904e-08
0.000371047
0.00560923
2.55073e-08
0.010798
3.39485e-08
1.63955e-07
0.198651
0.0257162
3.69268e-08
3.69941e-09
5.1387e-07
6.43822e-09
1.63703e-09
9.64758e-05
1.15425e-08
4.13729e-09
0.00301116
1.0494e-08
8.48444e-08
2.04306e-07
0.00016506
1.55364e-07
0.000125978
1.2866e-07
4.33471e-08
1.73216e-05
5.04978e-05
0.0028321
0.031637
6.14378e-05
0.00384893
1.791e-06
0.24045
0.237912
7.15276e-08
0.00265887
2.07699e-08
0.0336701
0.0298302
0.000305084
0.0662008
0.0537186
5.48517e-06
3.25494e-09
0.00178165
1.55994e-08
1.50849e-08
3.33441e-07
1.21932e-05
2.83399e-09
1.31477e-05
0.0391961
4.75619e-09
3.57072e-08
0.336967
1.61469e-09
0.0126546
6.16181e-06
0.00100444
2.26841e-09
0.000323296
0.000113195
0.181431
0.000372062
0.0175578
0.000140684
0.0350821
0.000204461
0.0552584
0.00011355
0.000177395
2.75233e-05
0.0452017
0.000248922
0.0010013
3.14669e-06
9.70193e-08
0.000921194
0.000229549
0.018829
0.0103396
0.000124105
1.27212e-06
0.00184668
0.00387518
0.0151819
4.46357e-09
0.0108001
0.00319256
0.00315033
0.0010113
0.000762578
0.00390964
0.00788571
0.0342488
2.60459e-05
0.0111646
0.00715684
6.79923e-05
0.000178623
4.50514e-05
0.00081791
0.00320455
0.000203618
0.0113922
6.0791e-05
9.25814e-05
0.00898343
0.000313551
0.00454312
0.00242287
0.000392282
0.00355444
0.000152121
0.055545
0.00501807
0.00123108
0.000101877
0.000540972
0.00898705
0.0018566
0.163762
0.00272829
1.08279e-08
0.175929
0.0399637
0.0232246
0.00729608
0.0205569
0.000345149
0.0103092
0.35756
0.0014765
0.00203016
0.00173664
0.148299
0.00139492
0.0574405
6.82822e-05
4.10623e-08
8.00577e-09
0.00181989
0.00121913
0.00012648
0.0556243
0.00824769
0.0574491
0.0558185
0.041123
1.93606e-08
0.0091529
1.1407e-05
0.0325199
8.22462e-07
0.00165275
9.75726e-08
0.175642
0.0113338
0.00666066
0.169496
8.10895e-09
4.90062e-08
0.00170512
0.00258015
0.000513419
1.08249e-07