/*--------------------------------*- C++ -*----------------------------------*\
  =========                 |
  \\      /  F ield         | OpenFOAM: The Open Source CFD Toolbox
   \\    /   O peration     | Website:  https://openfoam.org
    \\  /    A nd           | Version:  10
     \\/     M anipulation  |
\*---------------------------------------------------------------------------*/
FoamFile
{
    format      ascii;
    class       volScalarField;
    location    "6.5";
    object      T;
}
// * * * * * * * * * * * * * * * * * * * * * * * * * * * * * * * * * * * * * //

dimensions      [0 0 0 1 0 0 0];

internalField   nonuniform List<scalar> 
111485
(
303.15
284.999
301.297
303.15
298.904
283.15
299.463
292.932
296.872
286.121
300.903
296.036
300.588
284.46
300.419
286.418
295.631
299.49
294.774
303.15
303.15
283.15
297.848
288.294
301.432
303.15
293.011
300.237
289.361
303.15
300.866
288.281
303.15
283.15
283.478
283.15
302.357
284.09
283.149
297.079
283.15
290.009
297.478
302.9
303.186
303.15
287.472
288.161
290.026
303.15
303.15
283.15
303.15
299.268
303.15
294.248
287.555
283.15
283.323
296.015
296.422
303.15
302.281
300.405
283.15
284.728
300.919
291.268
302.291
302.572
303.168
302.081
303.15
302.318
303.15
294.045
283.15
293.621
283.15
283.15
283.247
293.588
283.15
303.15
300.691
284.359
283.15
301.731
303.135
293.717
283.439
289.746
301.193
285.529
290.37
303.15
303.15
301.733
303.149
283.446
303.15
286.624
283.15
285.438
285.449
283.15
283.15
288.77
301.513
283.146
286.351
288.446
301.522
301.793
303.15
294.183
303.15
283.15
300.578
303.15
303.15
283.15
283.15
283.15
283.426
303.153
283.15
289.512
303.15
283.182
303.095
302.118
303.15
283.15
283.15
293.15
283.15
294.101
299.304
301.459
303.139
297.326
299.469
284.806
302.293
283.799
283.15
303.15
283.15
297.73
285.021
303.15
303.144
283.268
283.156
294.36
296.267
302.495
283.154
303.15
303.15
292.884
286.147
283.153
283.157
295.32
283.728
283.15
283.154
283.154
283.15
303.15
283.225
283.15
283.91
283.27
283.15
303.15
303.15
283.15
303.15
303.15
298.196
294.211
296.46
283.372
301.559
299.805
283.195
303.15
297.797
303.15
303.15
299.934
286.147
301.567
301.151
283.813
303.15
300.802
284.586
283.162
300.947
292.359
303.15
299.913
288.602
303.15
283.241
300.197
284.868
300.065
303.15
303.15
300.179
283.15
293.286
283.15
300.275
296.959
290.376
303.15
300.659
300.722
283.15
283.15
283.15
289.694
283.159
283.15
303.15
297.507
284.71
290.284
283.15
303.15
303.114
303.15
284.359
298.053
297.974
297.994
298.063
283.15
283.143
296.262
283.15
283.15
288.797
288.844
283.15
286.726
294.576
303.15
283.15
301.059
303.15
303.15
303.122
303.15
287.441
285.394
283.568
303.15
295.459
303.15
303.15
303.15
283.148
298.132
301.345
299.923
290.929
299.97
296.796
283.22
284.287
284.823
283.15
303.15
283.149
288.576
299.037
283.723
303.15
298.555
297.746
299.421
302.963
283.166
297.719
299.858
302.035
283.15
283.71
283.15
283.149
303.15
283.983
289.981
286.563
303.15
283.15
298.175
283.79
303.15
303.15
303.15
284.619
284.381
301.371
284.576
293.524
283.15
283.15
303.15
298.928
303.15
283.932
289.86
283.153
283.15
303.15
303.15
283.15
294.888
289.619
283.15
296.374
283.15
303.15
301.162
297.909
293.739
296.466
283.15
283.15
283.15
297.245
283.601
302.429
283.15
283.15
283.15
289.764
297.513
283.227
291.027
283.15
293.304
299.997
284.235
298.842
285.113
283.15
303.15
283.15
303.15
290.217
296.053
288.455
292.675
283.15
286.179
283.15
303.15
294.375
303.15
302.056
303.15
283.15
292.539
283.15
283.436
284.68
283.15
283.983
298.594
283.15
300.578
284.882
299.37
303.039
283.772
283.5
283.15
303.15
303.149
283.15
301.265
300.951
283.15
283.15
294.189
284.304
285.161
296.556
283.15
295.404
296.076
283.15
302.192
283.873
303.15
303.15
283.376
299.095
283.15
303.15
303.15
303.15
300.643
283.15
303.15
293.695
283.171
287.074
300.333
283.15
283.15
302.711
283.15
302.553
301.579
298.312
290.01
283.15
288.356
303.388
303.15
298.972
292.026
303.15
283.15
283.311
283.15
290.073
286.439
283.933
283.15
283.883
296.392
283.972
303.147
283.15
303.15
303.15
283.168
283.886
283.15
284.384
303.137
283.15
303.15
303.15
303.15
301.719
283.754
286.014
284.261
284.348
283.15
285.75
303.15
301.02
283.15
303.15
303.15
300.806
303.15
303.15
283.151
303.15
283.15
300.894
283.15
283.15
283.15
303.15
283.15
303.15
283.15
283.704
283.15
303.138
301.785
283.792
283.15
303.099
283.15
303.15
284.599
284.585
286.111
297.891
283.15
297.994
298.085
284.251
284.03
285.115
303.15
284.235
283.15
300.232
283.15
297.256
283.15
286.048
298.662
303.15
283.15
284.096
303.15
296.056
299.502
283.15
283.15
283.15
283.15
303.15
294.191
283.15
283.15
283.26
283.15
300.191
283.15
284.839
303.15
283.425
303.125
284.859
285.873
283.15
283.352
283.15
283.15
285.68
283.15
283.272
283.15
300.044
303.15
291.131
303.15
283.15
302.473
284.397
300.439
285.531
300.442
289.16
283.15
300.931
284.465
283.15
283.139
300.556
301.799
283.15
282.333
301.329
303.074
283.117
303.15
287.357
302.361
284.331
285.339
284.515
282.444
283.15
303.15
301.097
303.15
283.603
283.15
283.15
289.414
282.643
303.15
303.123
283.15
286.222
299.988
283.15
283.15
299.993
303.15
283.15
283.15
283.15
286.08
283.15
303.15
284.791
284.204
303.15
300.082
283.15
288.365
303.15
283.15
286.127
283.15
283.15
283.15
283.238
283.15
285.47
289.666
303.15
300.579
283.437
299.176
301.109
283.39
283.46
283.15
289.239
298.954
303.15
302.153
296.261
297.368
283.19
297.93
297.604
303.15
300.217
303.137
283.15
297.672
284.947
283.15
289.79
296.345
284.941
299.25
300.953
289.755
283.15
299.355
283.454
303.15
300.903
302.147
291.773
283.15
283.317
303.15
283.15
283.15
283.15
283.321
283.15
303.15
303.15
283.15
300.691
299.713
303.15
285.634
303.15
303.15
303.15
289.93
283.445
283.15
303.15
283.15
283.15
287.154
290.765
283.15
295.741
283.133
283.15
295.907
302.332
284.431
283.15
283.15
300.699
290.23
283.15
283.15
283.15
294.024
303.15
303.15
283.15
296.789
302.423
283.15
282.678
302.025
283.996
283.15
283.15
287.362
303
283.15
283.16
287.901
283.824
283.342
283.15
285.824
300.38
283.15
303.15
283.15
283.15
283.15
283.15
296.213
303.15
283.15
283.15
295.849
289.973
303.15
303.15
289.941
293.197
293.378
303.15
283.15
293.101
303.15
283.962
294.912
294.991
303.15
303.15
303.15
283.15
285.922
283.15
283.15
302.73
303.15
298.14
302.35
283.15
291.238
283.269
296.918
291.808
283.471
290.04
283.15
283.15
297.307
288.47
283.427
283.15
283.15
298.582
284.417
283.15
283.946
284.681
283.476
303.15
303.15
303.15
288.453
283.15
288.207
283.15
284.301
284.421
288.291
290.633
283.15
283.15
303.15
292.893
283.15
283.15
303.109
283.15
283.15
303.15
283.15
288.43
283.15
283.15
283.15
283.15
283.15
303.15
283.15
283.175
289.306
303.15
302.511
283.128
283.393
283.089
284.444
283.15
284.386
290.688
283.394
303.15
283.15
288.6
283.15
287.67
283.17
283.142
286.257
286.234
283.24
283.69
289.122
283.15
283.15
285.589
285.218
283.15
285.832
290.995
288.959
283.15
283.252
283.15
289.547
288.986
283.15
284.577
288.853
283.149
283.894
283.15
295.5
283.143
303.117
283.163
283.161
283.15
283.15
284.549
283.15
302.978
283.623
283.102
303.148
303.149
303.148
283.15
283.15
294.285
303.15
303.135
283.875
283.15
283.15
303.155
303.15
283.15
303.163
283.15
283.15
303.15
303.15
303.15
303.15
283.387
283.15
283.15
283.15
303.159
283.312
283.881
293.94
283.15
283.15
283.345
283.15
283.15
283.15
287.303
294.301
283.15
283.15
283.15
283.15
283.15
283.15
284.026
283.15
303.151
291.554
283.15
303.15
303.15
303.152
303.15
303.15
283.15
303.167
283.15
283.729
283.144
303.152
283.15
303.067
284.504
292.776
303.15
303.13
284.608
303.15
283.15
303.15
283.15
294.458
293.737
284.736
303.148
283.15
293.619
283.15
283.15
303.15
283.15
295.489
283.15
303.15
283.163
297.93
303.15
284.56
283.15
283.619
283.15
283.15
283.15
303.15
284.345
283.508
284.639
283.15
283.15
284.194
283.15
283.15
303.15
284.553
303.163
299.063
303.15
303.13
303.131
283.15
303.134
283.15
283.49
289.286
300.765
283.86
283.166
283.15
283.15
283.15
303.179
283.15
302.939
303.15
293.557
303.15
288.282
283.82
303.15
283.15
303.15
283.15
301.927
303.15
303.15
284.551
300.768
283.15
283.15
283.15
283.15
283.15
283.15
301.016
283.584
303.15
303.15
303.156
303.15
300.421
283.466
283.15
302.219
303.15
284.108
283.15
302.697
283.15
283.147
303.152
283.335
302.255
300.482
283.147
283.15
289.42
303.15
294.105
303.15
283.15
303.15
283.15
283.15
283.15
301.013
302.165
303.15
303.15
303.15
302.951
283.149
303.15
293.598
283.081
303.15
292.622
289.366
297.12
283.398
283.15
283.15
283.15
283.15
295.211
283.15
295.111
283.15
303.078
289.478
283.15
302.91
283.15
283.15
302.796
283.148
302.91
283.15
303.15
283.15
302.538
283.15
303.15
283.15
283.147
283.15
283.175
283.15
283.15
303.15
288.146
288.798
296.211
297.571
303.15
303.123
283.15
283.15
284.237
283.15
283.159
302.896
286.699
302.97
303.15
283.413
283.15
303.15
283.15
303.013
283.362
297.868
283.15
303.15
287.937
303.15
283.15
283.119
295.237
283.147
283.15
283.15
283.148
303.15
283.15
303.143
303.15
303.15
290.339
303.007
303.024
289.451
292.735
283.15
283.15
303.102
289.53
283.15
303.15
284.964
283.15
303.15
283.15
283.15
283.15
298.153
283.15
302.949
283.15
300.672
283.15
283.15
283.15
283.15
283.15
283.15
285.328
283.15
283.15
283.15
283.15
283.15
283.15
292.607
283.15
297.936
302.972
283.15
302.28
283.15
302.62
303.145
285.614
284.607
303.15
286.163
285.006
303.117
303.15
303.139
294.471
283.662
283.15
283.71
283.15
283.15
283.15
283.15
283.735
283.15
283.15
284.088
303.138
283.273
283.15
283.15
302.494
283.15
283.192
303.15
287.62
283.15
283.15
302.811
283.15
303.178
303.15
283.15
288.768
298
291.344
286.04
292.917
294.091
283.15
283.15
302.421
289.517
293.378
284.517
283.15
293.779
283.15
303.15
300.997
298.913
283.15
296.308
283.15
291.726
296.153
303.15
283.15
283.15
301.981
283.15
283.15
300.843
294.693
283.201
284.255
283.15
283.15
302.85
300.859
283.15
300.989
283.15
300.868
283.15
283.15
301.136
283.15
283.227
301.869
283.15
283.15
302.595
283.15
287.677
303.15
290.677
303.15
303.15
303.15
301.231
283.15
283.15
299.991
283.15
302.993
283.15
283.15
303.15
283.15
287.915
283.15
283.15
287.78
287.954
283.15
283.782
283.15
303.15
302.561
283.822
283.218
283.15
283.15
283.15
283.15
283.15
283.15
283.15
283.15
283.15
283.15
283.15
303.15
283.15
283.15
283.15
283.15
283.15
283.15
283.15
283.15
303.15
286.733
283.15
283.15
283.15
295.406
283.15
303.15
303.082
283.15
283.15
295.428
283.15
283.15
302.087
295.883
283.15
303.532
303.555
283.15
301.585
294.665
298.12
301.763
298.518
303.15
283.15
295.864
292.256
301.718
283.15
302.285
302.442
301.229
283.903
283.856
301.402
289.071
302.026
303.15
286.021
298.141
285.803
297.868
283.15
283.15
283.15
303.15
283.15
292.56
298.477
283.15
283.15
283.15
283.15
283.15
303.15
283.15
303.15
291.604
303.14
299.557
302.83
283.15
283.15
285.378
283.17
283.15
283.15
301.597
303.15
283.15
298.711
300.006
298.086
299.151
301.058
303.15
283.386
302.64
303.15
303.15
300.664
303.15
283.15
282.872
295.852
302.959
283.15
303.15
289.971
286.415
283.683
292.758
302.554
303.15
303.138
303.15
303.15
283.15
298.707
283.15
292.288
283.466
300.166
284.656
303.15
301.282
303.15
283.15
303.15
303.15
286.411
300.238
283.15
303.15
303.139
292.266
303.056
299.816
293.596
284.895
293.569
283.15
303.15
283.15
291.964
298.471
303.151
303.15
303.15
303.15
297.865
302.532
283.15
300.022
301.304
285.177
299.558
303.15
303.15
298.764
293.619
283.15
302.935
299.935
302.594
292.482
297.741
298.473
303.15
284.22
297.618
291.479
283.15
289.739
303.15
288.059
300.519
303.15
284.104
299.84
299.834
293.804
283.148
283.162
283.251
301.961
299.979
303.15
284.429
299.759
303.15
283.15
303.15
303.207
299.273
291.686
296.574
303.241
283.149
297.841
303.15
303.15
293.528
303.15
300.027
283.319
299.743
285.247
303.15
283.652
293.984
303.15
283.013
297.181
303.15
297.89
285.621
303.15
303.15
283.956
303.15
283.15
283.15
283.57
299.703
291.902
303.15
285.456
290.977
283.15
292.62
293.511
284.736
303.132
283.15
301.196
285.236
293.115
291.708
284.558
291.124
302.433
303.15
283.291
284.751
303.15
293.132
283.15
283.15
303.15
283.15
303.15
297.715
283.15
291.39
283.72
303.15
283.922
283.15
285.442
303.15
303.146
303.15
294.099
303.01
303.125
291.577
285.631
289.112
285.28
292.457
303.15
292.105
292.758
292.711
303.15
283.866
283.481
292.841
287.125
283.543
303.15
283.15
303.15
285.575
303.15
303.274
283.455
303.264
302.955
303.15
303.15
283.15
300.908
300.497
285.058
303.095
283.899
296.321
301.558
293.122
285.693
301.617
296.736
283.15
283.15
303.15
285.796
289.38
283.15
283.15
303.15
301.528
286.168
303.15
296.973
303.15
283.156
285.427
301.207
303.15
303.15
292.912
303.15
283.328
287.959
283.15
297.723
294.332
285.751
303.15
302.757
283.15
302.765
294.097
303.15
303.15
286.4
283.15
303.15
293.83
283.334
303.15
303.15
283.15
301.476
303.36
289.869
300.013
297.916
303.15
303.157
302.635
303.15
283.15
303.15
303.15
303.15
303.15
303.15
303.15
303.15
283.15
303.15
303.15
283.379
303.15
303.288
303.15
303.161
303.15
303.15
301.13
303.675
303.15
292.18
303.15
303.15
283.15
302.642
303.15
302.269
303.119
283.308
283.15
303.15
302.66
283.149
303.15
303.15
291.892
283.15
293.137
283.15
283.15
283.151
291.774
284.739
303.15
296.477
283.15
303.605
303.135
284.113
302.672
283.15
292.711
303.087
301.712
283.15
303.15
283.15
303.879
284.575
296.412
303.15
303.15
303.15
303.15
303.15
303.15
302.497
302.876
297.435
292.5
303.15
287.632
293.163
284.642
303.203
283.15
286.566
302.829
284.628
283.147
287.116
303.15
283.43
302.965
293.093
302.904
301.962
303.15
302.272
303.15
303.15
298.506
303.15
284.709
303.15
303.15
283.15
303.15
303.15
302.904
303.15
283.309
283.15
283.15
286.243
284.983
300.602
286.361
303.15
295.459
303.15
290.309
303.15
287.664
300.924
301.669
293.349
303.15
303.15
303.15
289.123
283.15
303.15
288.873
283.15
283.15
301.984
303.15
285.869
283.148
283.15
303.15
303.15
300.463
298.751
303.15
283.61
303.051
283.15
298.608
303.15
285.956
287.932
298.106
303.15
296.694
296.285
302.968
302.05
301.65
303.15
303.15
303.147
303.15
283.15
303.15
288.932
300.17
294.009
302.284
283.15
300.731
291.949
298.741
283.673
298.832
290.173
302.317
283.15
283.15
283.15
302.354
283.15
290.754
283.15
301.498
303.16
289.092
290.804
283.15
303.15
301.484
301.46
303.15
283.15
303.15
285.995
301.7
303.017
302.487
285.788
287.973
303.15
303.15
303.15
284.896
286.36
283.421
296.529
283.936
303.003
303.15
303.15
283.15
283.15
283.416
299.99
303.15
303.15
283.15
303.15
303.15
303.15
300.6
303.15
285.469
293.286
283.15
283.256
283.705
285.365
303.15
303.15
302.08
303.15
299.58
283.146
297.372
303.15
303.15
283.15
303.15
303.15
303.15
305.531
303.15
302.033
300.948
303.15
303.15
301.818
303.15
283.15
287.149
303.126
303.15
303.15
303.15
293.413
303.15
303.15
302.607
302.603
301.975
303.15
283.15
303.15
302.206
302.63
301.738
302.679
283.15
289.694
283.428
284.099
283.15
303.15
303.15
303.15
303.15
294.617
287.267
299.359
303.15
303.15
303.15
303.15
283.15
303.149
283.285
283.193
283.15
303.15
303.15
283.147
299.795
295.28
283.15
303.15
303.15
303.15
303.15
289.095
289.884
303.15
303.15
302.349
303.15
301.171
283.955
292.202
303.15
283.15
300.873
303.129
303.15
303.452
283.589
287.318
303.15
303.15
303.15
303.15
286.083
284.1
303.15
302.728
298.572
290.485
303.15
303.15
303.15
303.15
299.946
303.151
303.15
303.15
291.671
302.565
287.479
303.15
303.15
298.263
303.15
303.15
303.15
303.15
288.591
303.15
283.15
283.15
293.798
291.185
303.15
303.15
303.15
297.472
303.147
303.15
303.15
303.15
303.15
303.46
301.156
303.15
287.276
302.756
299.896
303.15
303.15
303.15
303.15
283.15
286.066
303.15
302.828
283.15
302.317
303.15
303.143
303.15
283.15
302.002
286.318
283.15
302.902
303.15
302.521
283.15
303.15
303.15
303.151
303.15
283.287
303.15
290.437
283.15
283.15
303.15
303.15
294.71
302.455
283.15
302.524
283.15
284.266
288.148
302.74
283.15
303.154
303.012
303.137
284.628
283.157
303.021
283.15
283.15
283.156
299.705
302.431
303.15
283.15
283.15
296.396
303.15
283.15
303.15
303.15
303.15
303.1
303.073
302.958
302.183
303.15
302.955
303.15
284.993
303.15
303.15
283.15
303.15
303.114
303.15
283.15
303.15
287.913
303.15
303.15
303.199
283.15
303.283
302.59
297.822
303.15
290.854
296.227
284.31
291.324
283.15
283.15
286.86
284.475
283.15
303.667
283.15
286.105
303.15
283.15
303.156
303.15
303.15
303.019
303.155
303.15
283.15
303.141
303.15
283.15
283.1
299.097
302.772
303.15
301.956
303.15
285.41
303.151
301.378
303.15
303.15
301.202
303.15
303.15
303.15
287.427
303.15
285.03
303.15
303.147
303.15
283.15
283.15
303.15
303.15
303.15
288.486
302.612
303.15
303.15
289.189
283.311
291.903
303.15
302.767
287.353
287.62
303.15
303.15
288.259
283.15
292.344
303.15
303.152
303.149
303.15
300.867
283.15
302.368
283.15
303.15
303.15
303.15
303.15
303.15
284.467
302.254
291.495
303.15
303.15
291.014
303.15
303.15
303.15
303.15
303.15
283.442
303.15
303.15
283.15
283.461
303.15
283.15
303.15
284.502
283.15
285.569
290.857
302.69
285.285
285.883
303.15
303.15
303.15
285.499
287.714
283.15
303.15
285.435
303.15
303.15
292.453
303.15
287.461
303.15
286.78
284.431
303.15
283.15
303.15
303.15
303.15
285.438
303.15
285.37
303.15
303.15
295.621
283.15
284.913
303.15
303.15
288.418
301.366
296.856
303.15
303.15
303.15
301.38
292.604
303.15
283.15
303.15
297.273
303.15
284.936
296.745
303.15
303.15
296.566
303.15
303.15
283.15
303.15
283.15
295.097
303.15
283.15
303.15
303.15
303.15
303.15
303.15
303.15
283.15
301.325
283.15
295.093
303.15
303.15
296.39
296.888
303.15
283.15
303.15
295.979
283.15
303.15
303.15
303.15
298.704
303.15
298.059
303.15
286.215
283.15
286.715
303.15
303.15
298.943
283.15
303.15
287.162
283.258
303.15
303.15
285.239
283.937
295.766
295.372
296.29
293.05
295.014
283.879
303.15
298.129
283.15
283.15
303.15
303.15
303.15
296.854
303.15
303.15
303.15
303.133
283.172
283.15
283.612
303.15
302.05
283.15
303.144
295.724
283.15
294.644
303.15
303.15
283.15
298.029
283.932
303.15
283.15
298.233
303.15
298.031
303.15
295.658
303.15
283.15
303.15
283.15
295.416
283.15
283.239
283.15
286.078
303.15
303.15
283.15
283.15
303.15
303.15
303.15
303.15
284.773
285
283.15
303.15
283.239
283.15
283.15
303.155
290.56
283.581
283.15
287.524
285.02
300.324
288.763
303.15
303.15
303.15
303.15
283.15
283.15
283.15
303.15
283.15
283.15
303.15
283.15
297.511
283.15
303.15
283.15
303.15
303.15
283.62
283.15
303.15
302.123
303.149
303.15
303.15
303.15
288.35
283.15
303.15
303.149
283.15
303.15
303.15
303.15
295.461
283.15
283.194
303.15
303.15
303.15
303.15
303.15
303.15
303.147
284.169
303.15
283.15
303.15
303.15
303.15
303.148
303.149
283.15
283.15
283.15
303.15
303.15
283.15
303.15
283.15
287.581
283.15
301.881
283.15
303.154
303.15
284.518
283.15
284.397
297.746
303.15
284.592
303.17
303.15
297.764
283.15
303.15
303.15
303.15
303.15
283.15
303.15
303.15
299.392
283.15
303.15
303.15
303.15
303.15
291.883
291.525
303.168
283.168
303.15
302.028
302.482
303.15
283.15
283.15
303.15
303.15
303.15
283.15
283.15
283.794
303.15
303.15
303.188
303.151
283.15
289.407
303.15
283.15
303.15
288.356
303.15
283.15
302.157
283.15
283.15
283.15
303.15
299.761
303.15
303.15
303.15
283.15
284.486
293.915
295.603
290.191
303.131
303.038
283.15
283.15
301.242
283.681
283.15
303.149
303.15
303.15
283.15
294.9
303.15
283.15
303.001
303.15
303.15
283.787
303.15
303.15
288.697
289.957
303.15
283.15
303.15
283.15
303.15
303.15
303.15
303.15
283.947
303.15
303.15
303.15
302.959
303.15
303.15
283.15
283.15
283.15
283.15
302.968
283.15
283.15
301.186
303.15
284.75
284.9
303.15
301.396
303.15
283.15
303.15
283.15
283.15
303.15
303.15
303.15
302.78
303.15
303.15
303.15
283.15
303.15
283.15
286.478
303.15
303.15
291.899
303.15
283.15
283.15
302.554
303.15
303.148
283.15
303.203
283.718
283.15
283.15
299.556
283.15
283.15
303.065
303.159
283.508
303.166
303.151
303.151
283.15
283.15
302.71
283.482
286.008
301.195
283.161
283.15
286.682
301.8
301.745
283.15
300.572
285.61
299.952
302.388
302.827
284.906
290.785
299.687
283.243
293.993
300.472
303.15
283.861
283.631
302.825
283.724
284.027
301.453
283.392
303.15
301.183
303.15
300.569
301.716
283.692
285.216
303.15
283.15
302.23
301.864
283.145
303.171
286.652
302.775
302.015
301.119
303.15
303.214
301.302
295.298
300.212
289.41
302.952
301.602
302.096
302.461
284.342
302.611
283.272
283.179
303.15
302.942
303.15
303.15
302.224
302.307
284.651
303.15
284.813
292.555
291.865
301.314
303.15
284.103
283.198
284.459
303.15
294.144
303.15
295.976
295.355
300.846
303.144
303.15
303.15
302.062
301.501
302.842
303.15
292.248
302.833
290.516
283.15
298.019
284.199
303.15
300.289
283.15
283.208
283.15
302.628
303.113
303.15
302.984
285.089
283.147
300.778
302.362
290.748
283.59
296.093
284.512
283.492
303.135
284.999
290.215
283.325
297.217
300.733
300.513
300.219
302.019
290.436
288.798
303.15
302.806
302.751
302.705
294.6
302.913
283.15
302.172
292.926
303.15
283.441
283.27
301.442
302.64
285.347
283.192
287.623
302.679
296.687
303.15
303.15
295.295
283.15
292.933
283.435
303.15
285.463
290.508
283.886
303.15
297.042
298.114
284.333
301.413
293.694
288.228
300.349
303.122
303.15
303.15
283.605
302.699
283.352
286.111
303.15
303.029
303.061
303.15
285.319
300.649
284.957
283.266
299.656
302.461
291.286
287.416
283.15
303.11
301.849
283.847
283.151
303.15
303.091
303.15
303.15
284.308
302.652
295.945
283.059
283.151
303.15
283.15
302.999
303.068
302.645
301.702
303.15
283.15
283.15
302.065
302.118
283.233
295.361
303.15
303.15
301.895
285.867
283.27
301.95
302.033
301.933
284.401
303.15
283.15
298.299
284.718
303.15
302.775
302.213
285.073
285.122
302.273
303.064
303.15
298.669
284.352
283.15
303.15
284.004
283.797
293.653
284.821
302.223
286.004
292.269
299.974
289.92
286.591
303.15
303.15
283.252
283.433
302.223
283.151
300.789
301.879
283.692
287.862
302.513
283.15
283.15
283.03
303.15
303.15
300.361
298.629
302.363
283.146
283.15
284.016
283.15
283.15
283.151
303.089
301.19
299.519
284.143
283.409
303.105
286.078
303.15
283.15
302.616
287.43
301.176
290.767
283.546
303.066
283.148
283.15
302.86
287.419
302.664
283.158
291.473
285.017
303.15
284.408
289.534
283.15
283.307
285.249
284.595
283.15
283.15
301.905
283.15
283.599
302.639
302.757
301.736
283.496
299.239
290.898
283.15
303.3
292.376
283.15
283.15
283.15
303.15
301.047
302.541
299.07
301.44
299.682
289.393
283.155
288.862
284.719
303.066
291.338
300.487
291.727
283.15
286.402
301.045
301.757
283.15
284.128
300.04
283.15
303.15
283.194
301.143
303.15
283.975
302.223
303.034
303.15
283.15
284.576
303.153
301.899
283.15
283.15
283.15
302.254
297.922
303.141
298.254
303.164
303.15
288.618
303.164
290.022
284.198
284.166
296.937
283.159
283.959
283.15
290.171
288.284
283.503
290.018
286.788
285.99
285.455
284.469
283.673
285.159
283.178
302.33
286.169
283.149
283.145
286.495
283.075
286.754
283.384
295.587
295.246
289.533
295.169
283.121
297.613
283.15
290.334
290.25
298.615
283.367
283.15
300.71
283.15
302.799
283.15
303.15
286.125
286.397
283.15
294.375
298.239
287.12
303.15
303.15
301.807
289.131
303.044
283.807
288.454
287.424
303.147
284.327
288.262
303.15
301.666
283.15
283.15
287.395
287.298
283.145
285.446
295.214
286.346
301.205
303.15
285.359
294.403
291.122
303.15
303.15
301.837
302.201
303.15
293.342
283.812
283.754
285.261
286.144
290.193
303.15
302.971
297.661
285.171
283.15
287.527
292.159
299.857
283.168
283.839
282.895
302.14
303.134
283.15
303.136
303.15
300.5
293.157
293.882
283.564
283.15
283.556
296.282
285.566
283.218
293.067
283.15
299.966
303.165
292.918
284.207
303.145
291.292
284.232
288.676
285.322
283.961
287.584
283.15
303.142
285.243
283.405
293.635
283.15
283.15
283.15
303.142
283.15
283.136
286.465
303.15
283.15
303.163
283.177
290.497
289.804
303.35
302.938
290.202
303.15
286.855
303.17
302.188
287.529
283.15
285.857
303.147
303.101
286.438
283.15
283.15
283.472
286.239
303.067
303.145
287.601
289.451
283.524
283.165
286.713
292.716
303.15
283.15
303.11
303.15
302.456
284.861
302.217
303.1
283.856
283.879
284.176
302.863
302.254
296.74
294.014
303.082
291.359
289.425
303.15
303.104
302.667
285.54
283.417
303.15
285.93
283.411
302.975
301.589
302.331
283.15
300.734
302.088
303.15
302.285
285.298
303.15
298.433
303.15
283.15
301.083
302.705
286.312
302.628
283.15
283.575
303.02
283.15
302.355
285.16
294.755
284.311
303.15
303.024
302.884
286.345
283.15
287.116
283.632
289.666
286.125
302.4
303.15
283.15
283.15
283.866
283.15
300.905
301.427
285.579
283.15
287.925
283.15
303.15
283.15
299.761
283.608
283.151
285.319
301.597
303.107
303.156
292.366
294.673
300.916
283.239
301.669
283.145
303.15
303.151
299.772
283.15
302.053
283.697
303.15
300.81
287.124
301.805
283.36
288.64
283.15
301.435
287.592
298.796
303.088
283.15
303.15
291.653
301.561
283.077
283.146
287.063
298.617
303.15
284.7
297.489
283.815
297.463
303.152
298.012
287.526
284.902
290.194
297.246
283.769
283.092
303.158
303.149
303.15
293.59
283.162
283.15
303.15
303.149
284.797
284.933
283.702
287.638
302.832
303.15
283.491
301.671
303.15
300.815
283.794
301.722
303.15
284.78
299.734
285.308
302.742
303.15
303.15
285.233
291.414
291.35
283.436
303.15
303.15
283.15
287.046
302.49
290.652
303.15
285.783
303.15
303.15
284.862
283.625
283.15
290.345
290.929
284.14
283.15
303.15
292.006
287.051
303.15
289.31
287.871
288.263
303.15
303.15
303.15
288.817
290.221
302.816
287.71
283.15
286.678
287.729
291.066
300.805
303.15
303.15
286.563
303.104
286.75
296.711
303.15
303.148
283.15
285.212
299.22
285.572
303.15
303.15
283.364
303.128
303.15
303.15
283.15
290.023
303.15
303.15
284.806
299.13
283.15
303.15
284.531
285.819
287.031
286.997
294.417
303.15
283.531
303.15
303.15
283.276
300.915
290.257
286.76
303.15
303.136
302.189
293.176
299.928
301.424
284.386
283.523
300.698
288.144
303.15
302.838
284.318
288.487
301.676
287.948
303.15
297.162
301.699
301.771
301.814
289.379
303.15
283.15
299.225
283.15
283.15
287.444
283.15
284.006
283.15
283.15
283.15
283.15
302.796
286.017
302.76
283.15
295.851
290.443
284.759
283.15
303.15
302.741
301.718
303.19
302.702
283.15
283.519
286.626
284.953
283.15
283.15
299.359
285.446
283.15
283.15
303.149
283.403
283.15
287.279
303.15
303.152
284.24
283.15
288.769
293.509
285.01
283.707
302.965
285.791
302.597
295.091
286.2
283.15
283.58
291.535
303.102
289.34
302.691
283.15
291.86
287.476
300.872
301.063
285.201
303.117
283.281
297.305
302.991
303.148
284.798
303.147
303.018
293.125
302.67
283.15
303.15
303.15
294.831
291.052
283.156
301.207
284.661
284.108
284.626
303.145
288.027
292.308
283.15
283.15
302.543
303.151
294.482
302.912
303.179
299.988
303.213
302.913
283.15
291.957
302.908
283.15
303.15
283.547
303.15
284.507
299.124
283.167
291.851
283.15
287.305
303.032
285.846
283.15
303.039
287.396
301.411
303.134
303.083
283.15
283.15
301.811
302.168
283.819
302.89
302.51
302.525
303.141
283.15
283.707
283.15
302.867
286.197
303.011
303.15
283.15
302.863
285.333
290.983
302.22
283.15
302.659
302.161
283.318
302.576
303.053
303.19
303.03
303.15
283.15
301.454
298.112
303.094
303.15
290.386
285.291
303.15
283.15
285.119
303.183
303.163
302.949
301.313
284.435
303.104
290.878
285.053
303.148
289.11
303.162
283.15
289.948
283.15
300.261
298.566
284.93
288.143
299.814
283.863
295.004
299.449
293.605
303.152
293.905
296.636
283.157
299.611
291.104
303.15
293.951
299.421
303.15
291.487
303.169
301.752
303.15
286.717
285.975
302.801
289.318
283.15
283.15
300.418
301.009
283.812
283.15
303.15
283.922
302.433
300.998
300.068
302.825
292.09
289.294
283.229
291.944
284.289
290.793
283.319
295.297
289.931
294.154
287.547
284.239
303.161
283.285
303.147
285.702
300.836
283.152
300.065
283.582
288.339
302.062
285.336
297.241
283.15
302.976
283.156
283.108
288.125
299.786
303.15
300.14
303.044
287.863
302.798
303.15
301.462
284.938
283.938
302.158
303.149
283.694
283.15
290.964
283.347
285.691
303.158
303.149
283.15
283.15
283.178
303.15
293.644
303.15
303.157
295.343
303.445
303.15
285.216
303.15
303.15
293.838
290.224
303.15
289.452
302.22
289.201
303.15
303.15
286.159
283.354
290.289
303.214
303.15
303.146
285.428
283.285
283.15
288.793
287.625
303.15
284.286
303.15
303.15
303.132
287.242
303.15
303.147
283.287
303.152
302.689
287.672
283.151
283.645
297.202
290.994
303.15
285.929
283.836
300.826
283.504
302.255
287.02
293.703
303.15
303.15
283.971
303.153
302.98
295.364
302.982
302.776
283.566
283.15
283.189
283.225
290.327
302.67
285.591
303.15
283.856
286.539
303.129
283.177
303.15
286.825
283.15
294.431
303.15
299.89
300.076
283.321
283.399
302.325
283.95
301.333
303.15
301.516
301.857
303.15
303.15
284.441
294.012
283.15
283.325
303.15
294.605
283.379
303.15
286.416
299.135
288.744
303.15
302.782
291.087
295.919
284.38
303.161
286.62
296.545
283.952
303.128
302.827
287.52
298.821
283.336
283.54
289.352
283.15
302.982
303.151
303.15
303.168
293.592
296.729
302.973
301.437
303.15
284.314
303.15
303.054
302.891
303.15
294.076
295.912
303.15
285.463
303.102
303.15
303.1
303.155
286.276
293.878
290.733
288.063
284.075
303.15
289.609
291.926
295.308
293.62
303.141
303.15
293.431
303.184
284.418
303.185
303.15
303.15
303.143
303.15
285.031
303.15
284.297
303.147
303.15
290.28
303.145
292.854
295.425
303.135
295.951
285.483
283.434
303.129
302.934
284.765
283.15
285.316
303.15
285.496
302.922
302.228
303.016
298.378
287.098
303.15
285.361
289.537
299.406
283.15
283.667
303.15
303.145
303.188
286.921
303.15
292.21
289.037
303.192
303.15
284.91
283.522
293.788
284.817
302.527
301.42
283.268
303.15
284.613
296.536
302.344
285.841
297.679
291.96
284.549
292.314
303.15
286.891
292.299
288.086
283.901
303.15
286.119
283.726
303.15
302.566
287.821
301.799
283.15
303.15
300.235
298.324
283.961
298.448
301.893
299.2
303.15
289.949
285.049
298.198
298.164
283.882
303.15
283.203
303.15
298.545
303.15
302.86
303.15
292.133
303.15
296.861
283.15
289.89
303.15
283.15
283.486
301.663
300.73
288.906
300.804
303.15
302.558
303.15
302.213
285.515
303.15
300.73
290.199
303.15
300.989
303.15
303.15
292.539
283.15
285.674
284.356
300.917
303.15
287.122
285.552
288.046
289.114
287.668
298.996
299.983
300.915
283.532
286.835
301.327
283.15
303.15
303.15