/*--------------------------------*- C++ -*----------------------------------*\
  =========                 |
  \\      /  F ield         | OpenFOAM: The Open Source CFD Toolbox
   \\    /   O peration     | Website:  https://openfoam.org
    \\  /    A nd           | Version:  10
     \\/     M anipulation  |
\*---------------------------------------------------------------------------*/
FoamFile
{
    format      ascii;
    class       volVectorField;
    location    "6.5";
    object      U;
}
// * * * * * * * * * * * * * * * * * * * * * * * * * * * * * * * * * * * * * //

dimensions      [0 1 -1 0 0 0 0];

internalField   nonuniform List<vector> 
111485
(
(1.29214 -1.29178 0.000693466)
(3.70469 -0.00626746 -0.0159069)
(3.65738 0.00727191 0.00923496)
(1.29128 -1.29196 5.4778e-05)
(3.7934 0.0140318 -9.19473e-05)
(1.32078 1.31969 -0.00010618)
(3.72822 0.00699365 0.00153963)
(3.83189 -0.00432995 0.00490371)
(3.73568 -0.00407652 0.00152826)
(3.82197 -0.0344633 -0.0127843)
(3.67887 0.00496482 0.00824992)
(3.84649 -0.00498149 0.0159604)
(3.63103 0.00139164 0.00793655)
(3.65985 -0.00677803 -0.0190841)
(3.70805 0.0113425 0.00644847)
(3.78613 -0.0180693 -0.0127252)
(3.75494 0.00452847 0.00155572)
(1.33149 -0.121448 0.209742)
(3.79696 0.00621307 -0.00712701)
(1.28894 -1.28724 -0.000159926)
(1.28982 -1.28947 -0.00102316)
(1.32154 1.32156 0.000219669)
(3.75874 0.00818929 -0.000770201)
(3.81942 -0.0194776 -0.00632784)
(3.77749 0.0182294 -0.00837838)
(1.30052 -1.29597 -0.00157658)
(3.86277 -0.0116438 0.0179624)
(3.69689 0.000152642 -0.0038585)
(3.81542 0.00184997 -0.00825477)
(1.29003 -1.29021 0.000735607)
(3.86936 0.0633727 -0.018047)
(3.78959 -0.00201012 0.00120317)
(1.2859 -1.28816 0.0018422)
(1.32184 1.32399 -0.00257667)
(1.33318 0.541044 0.215745)
(1.32954 1.33856 -0.0197794)
(3.85013 0.0616623 -0.0256881)
(3.70185 0.00511012 0.0303271)
(3.81426 1.15228 0.065718)
(3.80406 0.0157001 0.00242177)
(1.3058 1.31784 -0.0110077)
(3.84527 0.0051559 -0.0219357)
(3.80407 0.0165206 0.00582053)
(3.68328 -0.0188189 -0.0012971)
(3.85163 -0.0676837 -0.0357764)
(1.29706 -1.28746 0.0059379)
(3.84533 -0.0154349 0.0185709)
(3.81326 -0.0181552 -0.00506819)
(3.84588 -0.000758493 -0.0178946)
(1.28381 -1.26903 0.00514904)
(1.28261 -1.27138 0.0076284)
(1.5048 1.26258 0.0228763)
(1.27632 -1.27161 0.00450113)
(3.84613 0.0163527 -0.0296975)
(1.27315 -1.26904 0.000553275)
(3.78238 0.00603043 -0.00391405)
(3.78734 -0.0123067 -0.00534959)
(1.32201 1.32077 0.0011232)
(3.47529 -0.0104732 -0.058618)
(3.80877 0.013524 -0.00161283)
(3.80704 0.0147918 -0.000474075)
(1.28801 -1.29083 0.00139578)
(3.55349 0.0033508 0.0183987)
(3.86947 -0.00775499 0.0272938)
(1.36885 1.23981 0.00275666)
(3.53985 0.00361036 -0.0043504)
(2.69657 -0.230158 0.0966483)
(3.81195 -0.00650959 0.00555096)
(3.48074 -0.000955905 0.00915461)
(3.3709 -0.00669412 -0.0025174)
(3.70328 0.0340291 -0.0164604)
(3.46547 -0.00531328 0.0073425)
(1.39578 -1.26105 -0.0289134)
(3.51997 0.00463998 0.0209456)
(1.29119 -1.29077 -0.000356468)
(3.79723 -0.00184993 0.00207385)
(1.32145 1.32145 -0.000789261)
(3.8405 -0.00721531 0.0183356)
(1.32076 1.32099 0.000296408)
(1.19665 1.16652 -0.0401966)
(3.7173 -0.0549053 0.0364489)
(3.83984 0.015799 0.00252311)
(1.31977 1.3186 4.95059e-07)
(1.29146 -1.29133 0.000412742)
(3.613 -0.00290418 0.00474362)
(3.50359 0.00759141 -0.0088682)
(2.96501 1.91961 -0.518241)
(3.79889 0.0434147 0.0047929)
(3.66602 0.0939698 0.0791095)
(3.69952 0.0053371 0.00432907)
(3.91632 0.0733874 -0.048331)
(3.79344 -0.00485578 0.0056583)
(3.57627 -0.00671203 0.00529182)
(3.67886 0.00145327 -5.99428e-06)
(3.84742 0.00844147 -0.0190781)
(1.2916 -1.29086 -0.000322424)
(1.2907 -1.29047 0.000998211)
(3.79673 0.0405947 0.0135313)
(3.92887 -0.780615 0.0550461)
(3.57602 0.0112305 0.0216866)
(1.29161 -1.29133 0.0011914)
(3.80292 -0.0163948 0.002361)
(1.32847 1.33139 0.00710015)
(3.7832 -0.00250795 -0.00310694)
(3.74151 -0.0114482 -0.0163795)
(1.2961 1.1572 -0.0276552)
(1.32156 1.32145 -0.000249332)
(3.79255 -0.00424357 -0.000428776)
(3.55992 -0.0178912 0.00127123)
(3.38966 -0.0997238 -0.102994)
(3.64035 0.000875697 0.00109101)
(3.78218 0.00349557 -0.00178531)
(3.54552 -0.00363401 0.0100234)
(3.51081 -0.0158071 0.00398061)
(1.30283 -1.2962 0.000630633)
(3.45086 -0.00223126 0.0038397)
(1.29636 -1.29215 -0.00145224)
(1.32851 1.32303 0.00550728)
(3.72026 0.00955308 0.00753883)
(1.29137 -1.29113 0.000213064)
(1.30061 -1.29548 -0.001605)
(1.74652 1.37057 0.0842442)
(1.31221 1.31898 -0.00237478)
(1.32557 1.32219 -0.00309418)
(3.65601 -0.0092847 0.0166309)
(1.03999 -0.740801 -0.190152)
(1.66526 1.43015 0.0506141)
(3.47394 -0.00136319 0.00844942)
(1.29172 -1.29082 -0.00085868)
(3.83082 0.278014 -0.103344)
(3.83392 0.0721102 -0.0393142)
(3.78935 0.0417921 0.0144867)
(1.28786 -1.28304 -0.00630918)
(1.7089 1.48619 0.151865)
(1.59583 1.42307 0.0675042)
(3.80834 0.00766776 -0.00716694)
(1.32272 1.3222 -0.000554284)
(3.77699 0.00509731 0.000281311)
(3.76535 0.00836348 0.00844648)
(3.70637 0.0125946 0.0135636)
(2.9915 -7.75094e-05 0.00894149)
(3.79684 0.0167514 0.00388489)
(3.76688 0.0173483 0.0110949)
(3.60795 0.00133584 -0.0117086)
(3.7659 -0.00456472 0.00103368)
(3.69733 -0.00603993 0.00320611)
(1.32223 1.32314 -0.000482767)
(1.29127 -1.29174 0.000412102)
(1.31957 1.32019 0.00260991)
(3.78814 0.0134759 0.0014084)
(3.6125 0.00278708 -0.0103013)
(1.28963 -1.28954 -0.000447778)
(2.51801 -0.0120136 0.0233772)
(3.7166 0.0113751 0.0105471)
(4.06735 0.154212 0.0722935)
(3.80918 0.0075198 -0.0063565)
(3.78845 0.0083441 -0.00251819)
(3.58839 0.00484815 -0.01073)
(4.09769 0.19244 0.0483512)
(1.28485 -1.29659 0.00540074)
(1.28943 -1.29101 0.000961283)
(3.80141 0.00661343 -0.00716005)
(3.72805 -0.00870403 -0.0104026)
(4.12364 0.218683 0.0526196)
(4.06497 0.191914 0.0728544)
(3.56583 0.00254707 0.0124817)
(3.8094 0.0425608 -0.0157756)
(1.30611 1.31723 0.000284393)
(4.17513 0.270255 0.0646854)
(3.97851 0.190016 0.0590318)
(1.32138 1.32135 0.00100862)
(1.28986 -1.28969 0.000477692)
(3.14921 0.00391451 -0.0205577)
(1.32213 1.32275 0.000316265)
(3.75879 -0.00321226 -0.000161201)
(3.66772 -0.000298584 -0.00466716)
(1.32208 1.2904 -0.00757982)
(1.39181 -1.28079 0.0119079)
(1.29409 -1.28823 -0.00210688)
(1.30096 1.22688 -0.0126996)
(1.40173 -1.2926 0.0224949)
(1.2888 -1.29071 0.000957495)
(3.78452 0.0103317 0.00247281)
(3.78441 0.00495968 -0.0067675)
(3.77149 0.00611209 -0.00462448)
(3.72964 -0.0216845 0.0152104)
(3.60854 -0.00971695 0.00292178)
(3.61871 0.00351946 0.00670163)
(3.2485 0.0350962 -0.000830566)
(1.29073 -1.28626 -9.96086e-05)
(3.53758 -0.00110325 0.0012869)
(1.39029 -1.29087 0.0130836)
(1.30212 -1.30424 -0.000441287)
(3.64471 0.00439073 0.0080228)
(3.82325 -0.0388358 -0.0131098)
(3.79676 0.00604702 -0.0173442)
(3.68187 0.000605842 -0.00102614)
(3.70144 0.00243763 0.00263096)
(1.28891 -1.28623 0.00340008)
(3.66697 -0.011404 0.0044987)
(3.63066 -0.00247488 -0.0149185)
(2.53318 0.791349 0.106412)
(3.72283 -0.0281251 0.00217572)
(3.76422 -0.000746875 0.00220943)
(1.29584 -1.28973 -0.00223756)
(3.63259 0.00554509 0.00773168)
(3.80555 0.00842728 -0.000623532)
(1.41154 -1.277 0.00472028)
(3.66498 0.00730589 0.0131471)
(3.83975 -0.00401993 0.0149355)
(3.60752 0.00190478 -0.0115019)
(3.62425 0.00494419 0.0106125)
(1.3997 -1.29669 0.0171871)
(1.2904 -1.29062 -0.000607245)
(3.62418 0.00453222 0.0111394)
(2.36704 1.47817 -0.14629)
(3.87809 0.0146736 -0.0349252)
(1.32164 1.32208 -0.00110546)
(3.64323 0.00433437 0.0101164)
(3.63975 0.000972774 0.00279063)
(3.85336 -0.00799669 0.0235975)
(1.29287 -1.29188 0.000989516)
(3.48903 -0.0023443 0.000643017)
(3.82553 0.0541172 0.0272883)
(2.08893 1.39574 -0.153231)
(1.32229 1.32172 -0.000756932)
(1.32136 1.32161 0.000685405)
(3.90879 -0.0194389 0.0354781)
(3.65329 0.0816588 -0.00839571)
(1.39175 1.1723 -0.0272049)
(1.59879 -1.24256 0.0474001)
(3.65288 0.00103541 0.00387262)
(3.74779 0.00523537 0.000932243)
(3.80963 0.00750821 0.00401414)
(1.37432 1.19385 -0.0340193)
(1.36637 -1.2607 -0.00450557)
(3.68559 0.0435029 -0.0504257)
(1.29116 -1.29104 0.0010728)
(3.51755 0.000822783 -0.0150046)
(3.61935 0.00303437 0.00918228)
(3.65154 0.00028501 0.0056974)
(3.65455 0.00362293 0.00662909)
(3.66556 0.00387463 0.00682517)
(1.31817 1.31834 0.00490694)
(2.81143 -0.00641222 -0.103599)
(3.70976 0.00683289 0.00912325)
(1.31567 1.31883 -0.00294227)
(1.321 1.32233 -0.000416113)
(3.87607 -0.0425739 -0.00154538)
(3.78152 0.0148912 -0.00541356)
(1.35507 1.15455 -0.0368029)
(3.54362 -0.00263248 -0.00271629)
(3.69825 0.00595493 0.00688762)
(1.29156 -1.29114 -0.000528491)
(1.6782 1.58131 -0.0107383)
(3.82367 0.0372614 -0.0168688)
(1.2949 -1.27912 -0.000463842)
(1.42786 -1.02222 -0.0248147)
(1.96259 -0.697417 -0.0680195)
(1.2922 -1.28899 -0.000521809)
(3.71513 -0.00349565 -0.00360026)
(3.63322 -0.00504913 -0.00414712)
(3.75535 0.00171696 -0.00905264)
(1.29074 -1.29085 -0.000380704)
(3.72521 0.00765807 0.00607829)
(1.29189 -1.29206 -0.000477128)
(1.29141 -1.29255 0.000599982)
(1.28934 -1.28467 0.00229685)
(2.62032 0.00953661 -0.0371635)
(3.83632 -0.0112754 0.0192399)
(3.65744 0.0111555 0.0134278)
(3.71383 0.00925832 0.00636721)
(3.85908 -0.0165492 -0.000597553)
(3.69952 0.00623718 0.00618527)
(3.78957 0.0110974 0.00450148)
(3.83396 0.0601995 -0.00596884)
(3.7315 0.00328424 -0.00105355)
(3.75394 0.00437156 0.00256631)
(1.34367 1.32125 -0.00139072)
(1.28948 -1.28974 -0.00122648)
(2.39884 0.015462 -0.0558202)
(3.77321 -0.00358195 0.00193469)
(3.8381 0.0279912 0.0330452)
(3.64114 -0.00289713 -0.00220924)
(1.2913 -1.29097 0.00115329)
(3.77228 0.00958587 0.00464733)
(3.79558 0.016528 0.00746648)
(3.70906 0.00367989 0.00378413)
(3.35014 -0.000248331 -0.0198111)
(3.44471 -0.0377763 -0.0825646)
(3.75975 0.00901744 0.0015872)
(3.70192 0.00618534 0.00636851)
(3.79482 0.031589 -0.0187765)
(1.32223 1.32326 0.00175046)
(3.51314 0.0146782 0.000980467)
(1.32155 1.32187 -0.00026008)
(1.07442 0.814844 -0.173528)
(1.44745 -0.942279 -0.0901728)
(3.93202 -0.033608 0.0522523)
(3.85961 -0.0164438 -0.000760572)
(3.77202 -0.00362766 0.000267392)
(1.29311 -1.29025 -0.0010325)
(1.31769 1.3249 0.0101839)
(3.76253 0.00898065 0.00499207)
(3.66181 0.00228403 -0.00176672)
(1.29115 -1.29019 -0.000445813)
(1.29213 -1.29113 0.00143482)
(1.26483 -1.27203 0.00830016)
(3.64336 0.00156177 0.000313635)
(3.74624 0.000471374 -0.00282312)
(3.59537 -0.000998986 0.00872576)
(3.51344 0.00612169 -0.0102296)
(3.82157 0.00897099 -0.0074916)
(1.51793 1.30248 0.0342188)
(1.31947 1.32238 0.00245095)
(1.29166 -1.28962 -0.000324959)
(3.75194 0.00981703 0.00770162)
(2.45995 -2.08661 -0.1468)
(3.62317 -0.00531655 0.00549627)
(3.90752 -0.0253078 0.0819771)
(3.17388 0.00179687 -0.0608467)
(1.32108 1.32287 6.88696e-06)
(1.2905 -1.29132 0.000613839)
(1.29092 -1.29175 -0.000484869)
(1.67183 1.40043 0.0870804)
(3.79245 0.00829729 -0.000818522)
(3.8338 -0.0166188 0.0039468)
(1.325 1.32843 0.000456137)
(3.76374 0.00607742 -0.00126256)
(1.39757 1.12796 0.0810296)
(1.29844 -1.28261 -0.000661052)
(3.87827 -0.0102716 0.0295534)
(3.75652 0.00904378 0.00552204)
(3.85547 -0.000322054 0.0103815)
(3.76472 0.00709031 -0.00225914)
(1.27559 1.12849 0.0690569)
(1.65557 1.4221 0.0926253)
(1.31983 1.32083 -0.00232807)
(3.76011 0.00891925 0.00497835)
(3.75209 0.006356 0.00113884)
(3.85365 0.06974 -0.0253072)
(1.31108 1.30739 0.00232779)
(2.63161 2.32957 -0.559653)
(3.6148 0.0342775 0.0300886)
(3.8313 -0.0122942 0.00883077)
(3.77134 0.0114225 0.00727154)
(3.59665 0.361808 -0.0290073)
(3.81968 0.00545711 -0.00877444)
(1.31979 1.31933 0.000276226)
(3.82109 0.00749182 -0.00583591)
(3.67655 0.00193304 0.00553239)
(3.88306 -0.0845137 0.00102971)
(3.88831 -0.021101 0.04471)
(3.75015 -0.0216064 -0.0184376)
(1.31732 1.32368 -0.00491388)
(1.28912 -1.29033 -0.00163726)
(1.3249 1.31681 0.00511302)
(1.28354 -1.28694 -0.000686499)
(3.82394 -0.0124348 0.00168556)
(3.80339 4.53469e-06 0.00034803)
(3.80037 0.011167 -0.0120371)
(3.81831 0.00607985 -0.00974011)
(1.31339 1.31525 -0.00535833)
(3.78207 -0.0208617 -0.00611278)
(1.3205 1.32112 0.00155859)
(1.28646 -1.29033 -0.000400526)
(3.81854 0.00833881 -0.00773015)
(1.19409 -1.19499 0.0175014)
(2.12159 -0.396312 -0.0254014)
(1.27715 -1.27238 0.000606785)
(1.3335 1.31634 0.0106064)
(3.78183 0.00279739 -0.00459557)
(1.3216 1.32076 0.000537936)
(3.73833 0.00429279 -0.00223107)
(3.58277 0.00221574 -0.01176)
(1.3232 1.32304 -0.00034694)
(3.47499 -0.000381472 -0.0111948)
(3.71787 0.00346822 0.00341971)
(1.33186 1.16532 -0.0444266)
(3.70949 0.014254 0.0143447)
(3.55558 0.0140624 0.000300195)
(3.72828 0.0137073 0.0048161)
(3.49056 0.0136792 0.0425817)
(3.75168 0.00631823 0.00260306)
(3.63002 0.00078528 -0.00212087)
(1.30144 1.11175 -0.00568004)
(1.28894 -1.28593 0.00726167)
(3.24746 0.00671759 0.0727517)
(1.3135 1.31728 -0.00740141)
(3.73147 0.0152414 0.0167128)
(3.88114 -0.0174109 0.0357738)
(1.33312 1.27319 0.0108765)
(1.31905 1.32457 -0.00105457)
(3.81307 -0.0010174 0.00232237)
(3.67854 -0.0135393 -0.0270741)
(3.6886 0.0155559 -0.00156191)
(3.84032 0.013714 -0.00406113)
(1.32199 1.32068 0.000178171)
(3.89954 -0.00937868 0.0590721)
(3.82906 -0.00903392 0.0171207)
(1.3247 1.32222 -0.000297947)
(3.76859 0.0559522 0.0455415)
(3.59014 -0.00875811 -0.0311928)
(1.29098 -1.28961 -0.00062371)
(1.29072 -1.28973 -0.000735547)
(3.73362 0.00603629 -0.00259319)
(3.75714 0.000190227 -0.00539949)
(1.32787 1.32796 -0.00174773)
(1.29288 -1.2904 -0.00196781)
(2.26318 -1.22908 0.276017)
(1.29125 -1.29175 0.000489308)
(3.77477 0.000769242 0.00478061)
(1.3148 1.31929 0.00249706)
(1.2911 -1.29192 0.00020855)
(3.85624 9.23202e-05 0.0127422)
(3.50656 -0.0408277 -0.0968784)
(3.8203 -0.0188087 0.0030721)
(3.68383 -0.00392242 0.00436048)
(1.32365 1.32221 0.000381885)
(1.72034 1.32399 0.0652143)
(3.69224 0.0440485 0.070157)
(1.61177 1.42133 0.0759957)
(3.67877 0.0146497 0.02651)
(3.6645 -0.0270119 0.00209296)
(3.81088 -0.015516 -0.00986329)
(2.666 0.0682276 0.0966524)
(1.58374 1.3632 0.0684931)
(3.79786 0.00192617 -0.0364198)
(3.87987 0.118238 -0.0362251)
(1.29025 -1.29183 0.00211073)
(3.85216 0.00898184 -0.0351565)
(3.84789 -0.0126565 0.01337)
(1.2932 -1.29255 0.00169194)
(3.72153 0.204369 -0.113677)
(3.28631 -0.000291991 -0.0391198)
(1.67326 1.31196 0.0551807)
(3.82869 -0.00455592 0.0135092)
(3.7943 0.00275328 -0.00468636)
(3.75184 0.00570411 -0.0026594)
(1.32215 1.31969 -0.000264914)
(3.74145 -0.01076 0.0251427)
(3.85213 0.00234366 0.00970705)
(3.72634 0.0313543 -0.00429992)
(2.37338 -0.0332865 0.0372793)
(1.61284 1.52075 -0.0320389)
(2.23101 -0.0564153 0.0754728)
(1.29044 -1.29197 0.00129744)
(3.48832 -0.111862 -0.107304)
(3.743 -0.0113291 -0.0251453)
(1.32263 1.32162 0.00153015)
(3.58758 0.0070467 -0.0212663)
(2.98489 -0.00720629 0.0489881)
(1.72049 1.51945 -0.0155661)
(1.29131 -1.29066 0.000146633)
(1.50928 -1.28469 0.0404785)
(1.29104 -1.29057 0.000381089)
(3.76286 0.0272951 -0.0080316)
(3.75434 0.0146999 -0.00588065)
(3.7297 -0.00774541 -0.00718801)
(3.52868 0.00605087 -0.0121358)
(3.82388 -0.0726513 -0.013555)
(1.32127 1.31603 -0.00258934)
(3.71259 0.00160129 -0.00438452)
(1.29483 -1.28476 0.00015121)
(3.66739 0.0100268 0.00684185)
(1.32583 1.32549 -3.09875e-06)
(1.29082 -1.28979 -4.21601e-05)
(1.28048 -1.28426 -0.00211341)
(3.63604 -0.0184713 0.00376492)
(1.2878 -1.28982 -0.000466327)
(1.292 -1.29196 0.00075299)
(1.30358 0.857782 -0.0571692)
(1.29198 -1.2925 0.000400002)
(1.30838 1.3266 0.0120887)
(3.70333 -0.014903 -0.00646772)
(1.32226 1.32042 -6.91353e-05)
(1.56804 1.1565 0.00072582)
(1.32332 1.3227 0.0014661)
(1.29002 -1.28627 -0.000883778)
(1.32275 1.31891 -0.00136875)
(1.28782 -1.28083 -0.00637309)
(1.31857 1.31871 -6.58811e-05)
(3.40475 -0.0054463 -0.0189184)
(1.32507 1.31821 0.00543176)
(3.4726 0.0447796 0.0665658)
(3.78865 0.00809527 -0.00540634)
(3.90567 -0.14978 -0.0251974)
(1.3221 1.31742 -5.68933e-05)
(3.30402 0.00868998 0.0488707)
(1.32473 1.3202 0.00156001)
(1.29161 -1.29203 -0.000494903)
(3.72329 -0.0307646 -0.0314618)
(3.72522 -0.0253769 -0.0245951)
(3.73023 -0.00386751 -0.00834028)
(3.91259 0.00849071 -0.0628913)
(1.52267 1.27641 -0.0408612)
(3.8204 0.000597299 -0.0187735)
(3.81803 0.00368459 -0.0187164)
(3.75631 0.00221102 0.000349487)
(3.72933 0.00175624 0.000714789)
(3.78184 -0.0319229 -0.0193009)
(1.28896 -1.28944 -0.000465102)
(3.76009 0.00175581 0.000457281)
(1.7355 1.50954 -0.0111853)
(3.77146 0.0094701 -0.000752255)
(1.32164 1.32073 -0.000333092)
(3.83222 -0.0012361 -0.0124572)
(1.71499 1.42138 0.0128678)
(3.76357 -0.000821798 -0.00492651)
(3.79742 -0.0144498 0.0128158)
(1.48695 -0.758417 -0.0052908)
(1.32374 1.32545 0.0141107)
(3.73239 0.00288384 0.00777617)
(1.29091 -1.29027 -0.000276365)
(3.84874 0.0124297 -0.0230267)
(3.82356 0.010415 -0.0158941)
(1.32121 1.31833 -0.0110452)
(1.31966 1.31982 0.00282936)
(1.29509 1.15568 -0.0331904)
(1.3211 1.32261 0.000413585)
(2.6786 -0.143726 0.0741004)
(3.85047 0.0106273 -0.0208104)
(1.33916 1.30741 -0.00179915)
(1.31974 1.32153 0.00106416)
(3.37254 0.00210034 -0.00457209)
(1.32165 1.32249 -0.000715899)
(3.79718 0.0087634 -0.0115047)
(1.3216 1.32157 0.000976069)
(3.75786 -0.0194233 -0.0139268)
(1.29193 -1.29165 0.000596559)
(3.53526 -0.016354 -0.0437881)
(3.00342 -0.0102385 -0.00153076)
(3.58927 0.00606968 -0.00483412)
(3.76404 0.000611683 -0.00616683)
(1.33093 1.31941 -0.00325933)
(3.5321 0.00562002 -0.00728879)
(1.32483 1.31993 0.00100259)
(1.32246 1.32285 -0.00324187)
(3.73671 -0.00860843 -0.00358131)
(1.3222 1.32107 -0.000495798)
(3.23367 -0.00293959 -0.0335421)
(1.2795 1.17697 -0.0366579)
(3.79673 0.00358122 -0.0114093)
(1.29055 -1.29036 -7.6533e-05)
(3.82711 0.00576357 -0.00754642)
(1.29193 -1.29034 -0.000333361)
(1.57179 1.39008 0.0396627)
(3.89347 0.140365 -0.0104877)
(3.72196 -0.026683 -0.0335363)
(3.77386 0.0123821 -0.000413048)
(3.80704 -0.0369338 -0.0236198)
(3.75732 0.00668557 0.000997853)
(3.85126 -0.0177911 -0.00281516)
(1.31408 1.32464 -0.00654113)
(3.77091 0.020755 0.00822328)
(3.73636 -0.0303399 -0.028455)
(1.32204 1.32232 -0.00103236)
(3.201 -0.0439668 -0.123012)
(3.86953 -0.0272624 -0.0187381)
(3.71143 0.0119507 0.0123835)
(1.31018 1.29158 -0.00773149)
(1.63646 0.309095 -0.262483)
(3.63359 0.00741234 0.00970294)
(3.02002 -0.0120498 0.0267855)
(3.08022 0.782384 -0.00404768)
(1.66747 -0.858695 -0.0685255)
(3.83785 -0.0376159 -0.00691932)
(3.61116 0.0107173 0.0222108)
(3.71984 -0.0301008 -0.0320681)
(3.78617 -0.0172909 -0.00762301)
(3.73045 0.0193051 0.0107717)
(3.31047 0.416423 -0.0218155)
(1.63842 1.38731 0.0111746)
(3.37819 -0.127291 0.0293266)
(3.27279 -0.29639 0.0622608)
(1.28976 -1.29041 0.000203567)
(3.37223 0.0193491 -0.00815072)
(1.32917 1.30485 -0.00695475)
(1.5553 1.41272 0.0136072)
(3.74664 0.00317277 -0.000654112)
(3.3362 0.551408 -0.0181399)
(4.03305 -0.345091 -0.0649575)
(3.63986 -0.63379 0.013875)
(1.55196 1.47437 -0.109882)
(3.81625 -0.0190281 -0.00594582)
(3.77733 0.0195468 0.0159448)
(1.31918 1.31564 -0.000595502)
(1.7064 0.935866 -0.0394708)
(3.77886 0.0253743 0.0161962)
(1.29034 -1.28669 0.000747955)
(1.32142 1.32099 -0.000167249)
(1.32035 1.32009 0.000247669)
(1.32316 1.31506 0.00136959)
(3.81656 -0.0335867 -0.0137401)
(1.32179 1.32161 0.000666439)
(1.2968 -1.29649 0.00656088)
(3.75042 -0.0193981 -0.0157131)
(3.54057 -0.001142 -0.00415958)
(1.89333 -1.66002 -0.0872478)
(3.77933 0.0246333 0.0153492)
(1.5398 1.23936 0.0286855)
(3.77594 -0.00794788 -0.00501073)
(1.27035 -1.27036 -0.0057276)
(1.31922 1.32185 -0.000870172)
(3.80706 -0.0200229 -0.00609627)
(1.3224 1.31502 -0.00485291)
(1.32089 1.31802 0.000863987)
(1.51785 1.45382 0.0431104)
(3.64403 -0.00446573 0.00120566)
(2.19024 1.83265 -0.243437)
(3.75538 -0.0120299 -0.00545933)
(3.74592 0.00294045 -0.00154708)
(1.2817 -1.27349 -0.00994106)
(3.91698 -0.0126982 0.120066)
(3.58032 -0.0182593 -0.0462801)
(3.73721 -0.00174923 -0.00347245)
(3.80772 0.0657519 0.00863188)
(3.81689 0.0357248 -0.0803444)
(3.33331 -0.000212352 -0.0227314)
(1.32097 1.32061 0.000835565)
(3.81518 0.00127554 0.0115454)
(3.78139 0.0131602 -0.001858)
(1.27984 -1.29639 0.00216562)
(3.60613 0.00159068 -0.00616734)
(3.8329 0.024039 -0.00485929)
(3.81705 0.0150279 -0.00538459)
(3.55906 -0.0154761 -0.0286149)
(3.81578 0.0160593 -0.00394463)
(3.81852 0.0171413 -0.0025987)
(1.2948 -1.27799 0.00781274)
(3.8276 -0.00360292 0.0165781)
(3.2055 -0.0187973 -0.00595992)
(1.59932 1.38764 0.0874173)
(3.81377 0.0130014 -0.00912516)
(3.65985 0.00334675 -0.00605965)
(2.13275 1.73333 -0.262661)
(3.74535 0.00284788 -0.000976164)
(3.81709 0.00902408 -0.0113583)
(3.66152 0.00102557 -0.0117058)
(3.7896 0.0174297 -0.000474094)
(3.74752 0.0358435 0.012125)
(3.7495 0.000459354 -0.000144416)
(1.29335 1.26336 0.00127557)
(3.7885 0.0188019 0.00133519)
(3.56755 -0.0211914 -0.0402995)
(1.44172 -0.873591 0.0328531)
(3.77391 0.0296141 0.0206086)
(3.73537 0.0309808 0.0311489)
(3.76316 0.00455356 -2.78166e-06)
(1.32138 1.31817 0.00142657)
(3.68825 0.0181749 -0.0314166)
(1.29211 -1.28598 0.00402725)
(1.32199 1.32153 -0.000710955)
(1.31761 1.30777 0.000198504)
(1.32387 1.31697 0.00165782)
(3.26477 0.0012242 -0.0101963)
(1.5774 1.35699 0.0554944)
(2.87748 -0.202664 0.237149)
(1.2875 -1.28798 2.37238e-05)
(1.3209 1.33788 -0.000343216)
(3.79016 0.0340157 0.02)
(3.79258 0.00642686 -0.0151336)
(1.29167 -1.29177 0.000206511)
(3.80588 -0.0187428 -0.00386684)
(1.29174 -1.29042 0.00425799)
(1.29217 -1.29116 -0.00043566)
(1.27164 -1.27249 0.00399074)
(3.86481 -0.025774 -0.00627009)
(3.27996 0.0157224 -0.00689497)
(1.56137 1.40544 0.0161929)
(1.30492 -1.2904 0.00319572)
(1.3199 1.32418 -0.00193614)
(1.3217 1.32244 -0.000624971)
(3.8876 0.00622336 -0.0407408)
(3.75467 0.0032435 0.000502638)
(1.5767 1.48195 0.0694802)
(3.83781 0.00799843 -0.0196304)
(3.58974 -0.050319 -0.144251)
(1.31941 1.32036 0.000280557)
(3.82747 0.00653322 -0.0167998)
(3.52199 0.00100667 0.0179132)
(3.73454 0.0159153 -0.0201737)
(1.32215 1.3218 0.00018485)
(1.32067 1.31983 2.5338e-05)
(3.70629 0.0122318 0.0175528)
(3.7673 0.00432642 -0.000390173)
(1.56595 1.42186 0.0222618)
(1.31799 1.31814 0.00071451)
(1.34273 1.30049 -0.00552788)
(3.75323 -0.00787811 0.000991067)
(1.29065 -1.29074 -0.00170814)
(1.29162 -1.28704 0.000697587)
(1.31878 1.31874 0.000451709)
(3.82561 0.00783187 -0.0147122)
(3.42533 -0.0146968 0.00260844)
(1.32206 1.32219 3.91871e-05)
(1.47993 0.279479 0.265644)
(1.6339 -0.195251 -0.0529781)
(3.721 0.0159266 0.00205192)
(1.32061 1.32325 -0.000633868)
(1.32206 1.31963 -0.000439996)
(3.85187 -0.0316366 -0.00931169)
(3.69612 0.0613189 0.0518381)
(1.58932 1.41909 0.0673459)
(2.32429 0.747294 0.0537516)
(3.6406 0.0707049 0.104868)
(3.49897 0.00943251 -0.019773)
(3.7036 0.000835984 -9.37736e-05)
(1.3724 1.28682 -0.0024059)
(3.68196 0.0106421 -0.00071958)
(3.81429 -0.0221112 0.0242434)
(1.32482 1.32114 -0.00198121)
(1.28357 -1.26333 0.00109131)
(1.31837 1.31902 -0.000495197)
(1.32036 1.32083 -0.000390166)
(1.32202 1.32441 -0.00129946)
(1.32286 1.32244 -0.000235551)
(3.83518 0.00861395 -0.0153961)
(1.29016 -1.2904 0.0012713)
(1.32013 1.32058 0.000198405)
(1.31433 1.29748 -0.000711013)
(3.83784 0.00891288 -0.0196511)
(3.76526 0.00357837 0.00057471)
(1.29666 -1.28046 0.00042358)
(1.27697 -1.26446 0.00159955)
(3.86789 -0.0135544 0.0312364)
(3.67924 -0.000551442 0.00309075)
(3.67504 0.00164296 0.00450933)
(1.29181 -1.28823 -0.000466347)
(1.31945 1.32144 0.000438322)
(3.6778 0.000830768 0.00400071)
(1.29182 -1.29061 0.000233523)
(3.65693 0.00649929 0.00199543)
(3.71022 0.00633088 0.00958855)
(3.71915 0.00602421 0.00486207)
(1.29953 -1.29028 0.00350048)
(1.29081 -1.292 0.000969592)
(1.29088 -1.29176 0.000529724)
(1.32208 1.32318 0.000577422)
(3.75858 -0.0101866 -0.00581557)
(1.32099 1.32187 0.000915165)
(1.31988 1.31999 0.000298836)
(3.76345 0.0131192 -0.0152296)
(1.2908 -1.29128 0.000933384)
(3.68975 -0.00386788 0.00325295)
(3.40381 -0.0281931 0.0100394)
(1.33346 1.28969 0.00662198)
(3.76062 0.00457627 -0.0010562)
(1.784 0.25348 -0.0396153)
(3.72188 0.00149576 0.000738069)
(3.86171 -0.00881496 0.00818892)
(3.45272 0.0100512 0.00519656)
(3.85512 -0.000303659 0.0232865)
(2.80785 0.0540319 -0.108666)
(1.57684 1.25938 0.026578)
(3.71475 -0.000791685 0.00096958)
(3.86865 0.0256533 0.00487738)
(3.75382 -0.00462614 -0.00269522)
(1.35356 1.17585 -0.0416064)
(1.72433 0.164346 -0.0907536)
(2.03143 -0.161499 0.0719595)
(3.71562 0.00176238 -0.00273375)
(1.32006 1.32167 0.00177367)
(3.66171 -0.00753342 -0.0244122)
(3.73806 -0.00318342 -0.00605587)
(3.62869 -0.028542 -0.0538421)
(1.40904 -1.00443 -0.072983)
(1.29148 -1.29194 0.000635413)
(1.29085 -1.29113 -0.000304985)
(3.77491 -0.00639345 0.000935427)
(1.54092 1.27437 -0.0163902)
(3.62258 0.00788489 0.0040832)
(1.43452 1.30658 0.0169394)
(3.58937 -0.00528239 -0.0171315)
(3.70525 -0.00334296 6.70009e-05)
(3.65589 0.00035338 0.00481471)
(3.76557 0.00530335 -0.00182303)
(1.32034 1.32003 -0.000458031)
(1.31492 1.31159 -0.00235921)
(1.38595 -1.26263 0.0062112)
(3.75841 0.00428885 -0.000897305)
(1.32289 1.31934 -0.000324252)
(1.52658 1.31302 -0.0582669)
(3.87934 0.0710124 -0.0606218)
(1.32723 1.32539 -0.00119501)
(1.316 1.32186 0.0042761)
(1.28832 -1.28365 -0.00321067)
(1.32199 1.32267 0.000920429)
(3.63087 -0.00103121 0.00759024)
(1.3558 1.2863 0.00191762)
(1.32239 1.32057 9.68599e-05)
(3.08593 0.43348 -0.308256)
(1.54815 1.24771 -0.0164831)
(1.31683 1.31754 -0.0105719)
(1.85094 -1.10216 0.0649799)
(1.32245 1.31986 -0.00107979)
(3.0345 0.00613287 -0.023639)
(3.70908 -0.00171421 0.00355374)
(1.29056 -1.28986 -0.000489385)
(3.65612 0.00678563 -0.0165908)
(3.65359 0.581251 -0.0795738)
(3.60519 -0.0314948 -0.053273)
(3.95714 0.139011 0.000177834)
(3.60864 0.000158969 -0.00123825)
(1.32187 1.31311 0.00349444)
(3.73293 -0.0306154 -0.0339481)
(3.88275 -0.00954815 0.00862117)
(3.60307 -0.0318242 -0.0528838)
(1.29114 -1.29017 -0.000943492)
(3.92427 1.02851 0.274382)
(3.62093 0.00303541 0.00581372)
(1.76729 1.40629 -0.0838515)
(3.60668 -0.00346365 0.00168733)
(3.90694 0.045008 -0.0355528)
(3.74363 0.0702394 0.00386106)
(3.69428 -0.00923206 -0.0105625)
(3.69242 0.0106894 -0.00127845)
(3.93711 0.0538171 -0.0189627)
(3.76884 -0.00117892 -0.00478983)
(3.76502 -0.000329228 0.00196202)
(1.31299 1.3174 0.00521686)
(1.31881 1.31228 0.00411329)
(3.64105 0.00701438 0.000462384)
(3.60019 0.00218924 0.00242574)
(1.3191 1.32231 -0.000477612)
(3.67805 0.00295904 -0.000114097)
(3.85683 -0.0104293 0.00434386)
(3.77609 -0.00225727 0.00169843)
(1.32616 1.31276 -0.00017138)
(3.72784 0.0711935 0.0155104)
(1.3202 1.31912 0.000223294)
(3.7685 0.000132188 0.00213962)
(3.77959 0.000663114 0.00114822)
(1.32089 1.32012 -0.000443849)
(3.61777 0.0130726 -0.0199264)
(3.77257 0.00269761 -0.000347221)
(3.71536 0.0646804 0.00543301)
(3.65107 -0.00185202 0.00789263)
(1.34822 1.32183 -0.00187532)
(3.79609 -0.00643825 0.010531)
(3.72803 0.0806819 0.00124228)
(3.93263 -0.0977147 0.0224373)
(3.32632 0.0382076 0.0133111)
(2.99583 0.00856107 -0.0403873)
(1.32389 1.3104 -0.00229666)
(1.3196 1.31867 0.00202295)
(3.66849 0.0465749 0.00593216)
(1.32158 1.32259 -0.000100661)
(3.28004 -0.00701807 -0.0177535)
(3.67172 -0.0157748 -0.0243496)
(2.23267 0.298321 -0.0828526)
(4.08222 -0.263184 0.0953687)
(3.60107 -0.164514 0.0435624)
(4.0104 -0.148454 0.0366291)
(1.32164 1.32274 -1.69385e-05)
(1.80012 1.52553 0.0128134)
(3.77593 0.00577717 -0.00484821)
(1.28585 -1.29031 -0.0044912)
(0.725281 -0.51018 0.204289)
(3.76219 -0.0644275 -0.0499319)
(1.32177 1.31846 -0.00256785)
(1.32254 1.32022 -0.000501813)
(3.36902 -0.0693095 -0.00630269)
(2.74615 -0.17751 0.0390816)
(1.32182 1.32215 0.000277297)
(3.40872 -0.0617708 0.00850414)
(1.32082 1.3193 0.000933311)
(1.32129 1.32344 -0.00232608)
(1.29072 -1.29188 0.000223746)
(1.29276 -1.28958 0.00267581)
(1.26804 -1.25838 0.00367903)
(1.29083 -1.28874 8.33891e-05)
(3.41938 0.024685 -0.0121028)
(1.31974 1.313 -0.000240337)
(1.32147 1.32155 0.00057891)
(1.31309 1.32248 0.00236169)
(3.17102 -0.707705 -0.188322)
(3.58713 -0.0254107 -0.0623135)
(3.48497 3.07105e-05 -0.0257637)
(3.77702 0.00427635 -0.00473208)
(1.31693 1.30822 -0.000268143)
(1.32562 1.31984 -0.00033221)
(3.63961 -0.0589214 -0.0706787)
(1.32165 1.32221 -0.00162874)
(1.32187 1.31991 -0.000231835)
(2.11579 1.20616 0.0437785)
(3.87576 -0.0482918 -0.00206857)
(3.76948 0.00646949 -0.00238032)
(1.32059 1.32009 -0.000395654)
(1.32258 1.31907 0.0019692)
(1.31937 1.31473 -0.00216721)
(1.321 1.31852 1.08928e-05)
(1.32414 1.32318 -0.00114847)
(1.32398 1.3211 0.000561745)
(3.79506 -0.0816558 -0.0506921)
(1.32247 1.31852 -0.000487338)
(2.63863 0.0371107 0.086559)
(3.81005 -0.00586137 0.0103091)
(1.32098 1.32322 -0.000361478)
(1.28287 -1.28901 -0.00309231)
(1.27526 -1.26253 0.00069767)
(3.21574 0.037568 0.173092)
(1.2685 -1.26757 -0.00489048)
(1.28951 -1.29045 0.000439655)
(1.31572 1.31693 -0.00861472)
(3.44851 -0.0509473 -9.28052e-05)
(1.3194 1.31988 -0.000358169)
(3.76761 -0.0452078 -0.0282721)
(3.05402 0.0422142 -0.0160203)
(2.48846 0.0030124 0.0991961)
(1.31874 1.3202 0.000240825)
(2.59632 -0.676855 0.055608)
(3.79971 -0.00720207 0.00304537)
(3.8122 0.00527221 -0.00792821)
(1.3828 -1.31946 -0.0157788)
(3.69087 -0.0619384 -0.00946722)
(3.75897 -0.0082997 -0.00362039)
(1.29046 -1.28151 0.00129042)
(1.36591 1.29338 0.00525829)
(1.81328 -1.4024 -0.113196)
(1.31688 1.31825 -0.000629411)
(3.78269 0.0041778 -0.00099525)
(3.78378 -0.00203173 0.00591426)
(3.85892 -0.0444076 0.0187425)
(2.54434 -0.00177359 0.137887)
(1.32223 1.3216 -0.000441599)
(3.78432 0.00462581 -0.00140074)
(1.36358 1.29607 -0.00348641)
(1.65572 1.3982 -0.00724413)
(1.72867 -1.34898 -0.0540987)
(1.32171 1.32168 0.000510178)
(3.79328 0.00708258 -0.00218635)
(1.31876 1.31703 0.000396263)
(1.27864 -1.25763 0.000189639)
(3.48659 -0.0458443 -0.0841023)
(3.73382 -0.00337092 0.00227865)
(1.27837 -1.25822 -0.00366403)
(3.7509 0.003235 -0.00204847)
(1.41025 1.37801 -0.00927729)
(3.80374 -0.0307117 -0.0143582)
(1.24098 1.18483 0.0069488)
(1.32209 1.32176 -8.01767e-05)
(1.32963 1.3255 0.00505504)
(1.2912 -1.29192 0.00072506)
(3.71036 0.00313543 -0.00362903)
(3.38013 0.00413495 -0.00841021)
(3.82924 -0.0101808 0.0684312)
(1.31855 1.31891 0.000532512)
(1.31805 1.29199 0.00815412)
(3.69974 0.00349402 -0.00090902)
(1.3229 1.32283 -0.000459253)