/*--------------------------------*- C++ -*----------------------------------*\
  =========                 |
  \\      /  F ield         | OpenFOAM: The Open Source CFD Toolbox
   \\    /   O peration     | Website:  https://openfoam.org
    \\  /    A nd           | Version:  10
     \\/     M anipulation  |
\*---------------------------------------------------------------------------*/
FoamFile
{
    format      ascii;
    class       surfaceScalarField;
    location    "8.3";
    object      phi;
}
// * * * * * * * * * * * * * * * * * * * * * * * * * * * * * * * * * * * * * //

dimensions      [0 3 -1 0 0 0 0];

internalField   nonuniform List<scalar> 
214403
(
-0.00678576
0.00520337
0.000287113
0.00129528
-0.00336631
-0.011315
0.000964003
0.0137173
-0.0103271
6.89657e-05
-0.000140835
0.010399
0.00893131
-0.00600543
-0.0149699
0.012044
0.0123852
-0.0156608
0.00373083
-0.00045518
-0.00543513
0.0056609
-5.4951e-05
-0.000170818
-0.000859257
-0.00163351
-0.00930027
0.011793
-0.0171493
0.00975658
-0.00257652
0.00996921
-0.0234856
0.0165775
0.0167346
-0.00982652
0.0143197
0.00169922
-0.016
-1.8861e-05
0.00507767
-0.0100584
0.00206867
0.00291205
-0.0104269
0.00328113
0.00540226
0.00174348
0.000481172
-0.0115368
0.0138933
-0.00283774
-0.0100312
0.0100977
-6.65077e-05
0.00193471
0.0120293
-0.0154193
0.00145533
-0.0121578
0.010165
0.00308202
-0.00108921
-0.0122235
0.0119278
0.000295748
0.00395731
-6.46761e-06
-0.00101873
-0.00293211
0.0158162
-0.00946626
-0.0210295
0.0146795
-7.63022e-05
-0.00312761
9.16854e-05
0.00311223
0.00645097
-0.00629963
-0.000151344
-0.0124755
-0.0043158
0.00429133
0.0125
-0.00230464
0.0137545
-0.0110863
-0.000363513
0.00678445
0.000714247
0.00236741
-0.00986611
-0.0103295
-0.00495919
0.0133712
0.00191748
0.00926475
-0.0117363
6.93872e-05
0.00240213
0.00325766
-0.00284926
0.0106624
-0.0110708
0.00769843
0.0100715
-0.0121311
-0.00563883
0.0112728
-0.00707069
-0.000320909
-0.0038812
-0.005908
0.00602232
-0.000114318
0.00246173
-0.00512232
0.0136528
-0.0109922
0.0142572
0.000675647
-0.00248903
-0.0124438
-0.00566705
-0.00581578
0.00595596
0.00552687
-0.00121187
-0.00683584
0.00605565
0.00199207
0.00446785
-0.00310916
-0.00951415
0.00815547
-0.00172992
0.00862972
-0.00311769
-0.00378211
0.0161659
-0.000393401
-0.0157725
-0.00696104
0.0135761
-0.00661511
0.00125535
-0.0149043
0.00862912
0.00501983
0.00247784
-0.000996038
0.00606488
-0.00754668
0.00576928
-6.09741e-05
-0.00570831
0.0103338
-0.000222894
0.00183336
-0.0119443
-0.0131082
0.00164591
0.0139401
0.000868802
0.000892649
0.00870053
-0.010462
-0.00414739
-0.0271167
0.0262948
0.00496927
0.00574802
0.0010378
0.00129923
-0.00808505
0.00427739
0.00323718
-0.0104498
0.0029352
0.013483
0.00808137
-0.0147799
0.00121943
0.0114375
-0.00232307
0.0018337
-0.00686694
-0.00404027
0.0090735
0.00312544
0.00480394
0.00143001
-0.00935939
0.00187136
-0.00140501
-0.00433132
0.00386497
0.00691889
-0.0125227
0.00872929
0.0120086
-0.0113056
-0.00387933
0.00317634
0.0107131
-0.00196047
-0.0086742
0.0117611
-0.000500006
-0.00258691
0.0089328
-0.0114214
0.000131352
0.00235725
-0.00838035
0.000553627
0.0133919
-0.00556521
-0.0154675
-0.0145323
0.012206
0.0177938
-0.0082718
0.00832187
0.00163731
-0.00168738
0.00130461
-0.0105724
-0.00863585
-0.000179761
0.00448907
0.00432653
-0.013536
0.00581199
0.00875777
-0.00103372
0.0158775
-0.012789
0.000817845
-0.00390636
0.000730769
0.000265683
-0.0104756
0.00947914
0.000524103
-0.00287587
0.0142214
-0.0118696
-0.0351207
0.00364477
0.00390089
0.027575
-0.00324536
0.00955327
-0.00302513
-0.00328278
0.00469327
-0.00247155
-0.0100126
0.0077909
0.0011252
0.00699372
-0.00889148
0.000772563
-0.000174826
0.00858125
0.00298548
-0.0113919
-0.00170288
-0.00027004
-0.00354777
0.00552069
-0.00907519
0.00992115
-0.000377723
-0.000468242
0.000317827
-0.00916059
-0.00641089
0.00567829
0.00172364
-0.000991048
-0.0170777
-0.00107792
0.00833456
0.00982106
-0.00517606
-0.00220594
0.00440391
0.00297809
0.00759219
-0.0254635
0.00353107
0.0143403
-0.00397596
0.00800194
-0.00437007
0.000344082
0.00571038
-0.00443258
0.00056535
-0.00184314
0.000128876
-0.0107044
0.0105755
3.2589e-05
0.0086914
-0.00872399
0.00767964
-0.0015031
0.0010184
-0.00719493
-0.00458
0.00653471
0.00216588
-0.00412059
-0.0032374
0.0137916
-0.0033145
-0.00723968
0.00650914
-0.0110915
-0.000423447
0.00500584
0.00744874
0.00788525
-0.015334
0.0109865
-0.0123466
0.00316382
-0.00180378
0.00106654
-0.00198216
0.0143438
-0.0134281
0.000412187
-0.00231993
0.0103317
-0.00842391
0.00245138
0.0216191
0.00622968
-0.0303001
-0.0189077
0.0166353
0.0107819
-0.00850953
0.000868536
0.00665975
-0.00895479
0.00142651
0.00880746
0.00979521
-0.00320704
-0.0153956
0.0163904
-0.00995681
-0.000328296
-0.00610532
0.000714523
-0.00209467
-0.00657703
0.00795718
-0.00665636
3.77929e-05
0.00661857
0.00995619
0.00034412
0.000686234
0.012372
0.00104219
-0.0188041
0.00538996
-0.00991975
0.00219108
0.00176269
0.00596598
-0.00628143
0.00155752
0.000772432
0.00395147
0.00154386
0.00110411
-0.0130922
0.0104442
-0.00268933
-0.0156513
0.00997862
0.00836201
0.00626112
-0.00740674
-0.00482662
0.00597224
0.0101218
-0.00011021
-0.0101218
0.000110197
0.00776593
-0.0109747
-0.00381148
0.00702022
0.0200945
-0.00608007
-0.00313165
-0.0108828
0.0113756
-1.88399e-05
-0.0104641
-0.000892683
-0.00572877
0.00674735
0.0140619
-0.0150805
0.0122867
-0.00431518
-0.0118152
0.00384361
0.00225973
-0.00330477
0.0143777
-0.0133327
-0.0162421
0.0148036
0.014033
-0.0125946
0.000731434
-0.0126441
0.00488059
0.00703205
0.0158243
-0.000839031
-0.000321798
-0.0146635
0.0111346
-0.00217026
0.00215321
-0.0111176
-0.0129259
-0.0117545
0.0139124
0.010768
-0.00244911
0.00702465
0.00190414
-0.00647969
-0.00553946
0.000301938
0.0107366
-0.00549912
-0.00123342
0.0138944
-0.0129319
0.000270892
-0.0119553
0.0111034
0.00216184
-0.00130991
-0.000401043
-0.00697757
0.0166434
0.00221479
-0.0073839
-0.00539417
0.0105633
-0.00586326
7.71867e-05
0.00578608
0.00179753
0.00817396
-0.00756123
-0.00241025
0.0130137
-0.00750329
-0.00199358
-0.00351683
8.56339e-05
-0.00382083
0.0037352
-0.00734638
-0.00197913
0.00275865
0.00656687
0.000754987
0.00415801
-0.00933037
0.00441737
0.0158956
-0.00143517
0.00621267
-0.0206731
0.00114337
-0.0014043
-0.0193117
0.0195726
0.00124607
-0.00552057
-0.00730335
0.0115779
0.000467462
0.0100493
-0.000560585
4.03084e-05
-0.00590029
0.00585998
0.012254
-0.00454424
-0.00549494
-0.00743021
0.0062067
-0.00612287
0.0135129
-0.0112461
-0.00136217
-0.000904555
0.00135608
-0.00641294
0.00280379
0.00225307
-0.0110315
-0.0033386
0.00224176
0.0121283
0.00917797
-0.0149137
0.0098263
-0.00409057
-0.000408951
0.0134675
-0.0134861
0.000427477
-4.38645e-05
0.0122638
-0.0121512
-6.87567e-05
-0.0171412
0.0136797
-0.0109806
0.0144421
0.0142995
-0.0138389
-0.000460636
-0.0130995
0.0175463
-0.00320838
-0.00123837
-0.0117065
0.00281473
-0.000881338
0.0097731
-0.0193049
0.00148766
0.0124124
0.00540486
0.00343417
-0.00468974
0.00261165
-0.00471725
0.00536347
0.00862853
-0.00927476
-0.00514118
-0.00230728
0.00294214
0.00450631
-0.00694984
0.00454755
-0.00878527
0.0111876
0.00209199
0.000167911
-0.0153595
-0.00683613
0.006822
1.41245e-05
0.00749127
-0.00720189
-0.000289373
-0.0113089
-0.000739253
-0.00301005
0.00279152
-0.0148848
0.017337
-0.00524374
0.00670476
0.0115383
-0.0146732
-0.00356987
0.0128092
-0.0139127
0.000373423
0.000730009
0.00682148
0.00177335
-0.00705137
-0.00154345
-0.0107843
-0.000600203
0.0141761
0.00619389
-0.000447824
-0.0075506
0.00180454
0.00697985
-0.00597601
0.00688401
-0.00788785
-0.0121966
0.00229058
0.0166108
-0.00411879
-0.00577997
0.0190831
-0.0091843
-0.00588251
-0.00647762
0.00157578
0.00175553
0.00464949
-0.0122875
-0.00831671
-0.000733308
0.0133638
-0.00431381
0.00129667
0.00204486
0.00743237
-0.0107739
-0.00396665
0.00970994
-0.00574329
0.00314485
-0.0150574
0.00543494
0.00897167
0.0062664
-0.0134825
-0.0127008
0.000152791
0.015827
-0.00327899
0.00214043
0.00183374
0.00573165
-0.00970581
0.00852077
-0.00858508
6.43093e-05
0.00321511
-0.00121379
0.0107929
-0.0127942
0.0112965
-0.0035817
0.00543212
-0.0131469
0.0207546
-0.00667281
0.0154884
-0.0295702
0.00340138
0.00632818
-0.00262893
-0.00710063
-0.00937317
0.0038567
0.00491595
0.000600525
0.00671724
-0.00506062
-0.00013809
-0.00151853
-0.00437061
-0.00554345
0.0161411
-0.00622699
-0.00752827
0.00976474
0.00390134
-0.00613781
0.0113295
-0.000619431
-0.00373022
-0.0176408
0.0116595
-0.000968495
-0.0168237
0.0155214
0.0072079
-0.00590556
0.0107311
-0.0120941
-0.00174516
0.00310815
0.00605845
-0.0109454
-0.00573386
-0.00624243
-0.00572845
0.00323723
0.00873365
-0.00891221
0.00276749
0.00879623
-0.00265151
0.0102938
-0.00979333
-0.00674213
0.00624166
6.43582e-05
-8.93439e-05
-0.00964325
0.00966823
0.000232614
-0.00848253
-0.000322282
0.0085722
-0.00243867
-0.0144628
0.00227103
-0.00835904
0.00751916
-0.00143115
-0.00570033
-0.00240238
-0.000809494
-0.000193764
0.0143099
0.00020354
-0.0341526
0.0240239
0.0173614
-0.00723271
-0.0100899
0.000686336
0.000366537
0.00903698
-0.00200951
0.0319812
-0.0376293
0.00765765
0.00159284
0.00245695
-0.00551337
0.00146359
-0.0216047
0.011643
0.00150514
0.00845651
-0.000255774
-0.0143479
-0.00204106
0.0166447
-0.0059809
0.0216231
-0.014991
-0.000651153
0.00970359
0.0141063
-0.0130383
-0.0107716
-0.0115807
0.0110286
0.0136992
-0.0131471
0.00448138
0.00626209
-0.00779989
-0.00294359
0.00446913
-0.00301516
-0.0071543
-0.0230096
-0.000904964
0.0187991
0.00511543
0.00674575
0.00103048
-0.00391954
0.00694097
0.00929199
-0.00857969
-0.00765326
-0.0114875
0.00255871
0.0112055
-0.00227676
0.00136718
0.00360684
0.0125723
-0.0133341
0.0131674
0.00127626
-0.00110955
0.00822865
0.00645204
-0.00581551
-0.000230378
-0.00163615
0.00768204
-0.00881433
-0.00175227
0.00490305
-0.0170063
0.00723298
0.00487032
0.000517823
0.00916827
-0.0101737
0.00048761
-0.00353548
0.00068377
-0.00328733
0.00613904
0.0141861
-0.0101392
0.000422216
-0.00803508
-0.00628579
0.00845553
0.00586534
0.0303722
-0.0324908
0.0106119
-0.00849333
-0.00582035
0.00723216
0.0029133
-0.00432511
-0.0133186
0.00578969
0.0116126
-0.0040837
-0.00577759
0.00838665
0.0107861
-0.0133951
0.0162113
-0.00627242
-0.0107325
0.000793642
0.000282391
-0.00394395
0.00959437
-0.00593281
-0.00166783
0.00165438
-0.0126874
0.0116325
0.00378321
-0.0124531
-0.00296263
0.0146139
-0.0119877
-0.00322647
0.00307583
0.00455056
-0.010757
0.00313061
-0.00599233
-0.0109949
0.0097639
0.00722332
-0.00183294
-0.0047588
-0.00144334
0.00596948
-0.00637893
0.0137458
-0.0133363
0.00144649
-0.0166485
0.015202
0.0056752
-0.00741979
0.00482042
0.00307012
0.00177109
0.0025179
-0.00735911
-0.000310855
-0.013864
0.0141748
-0.00755449
0.00100349
-0.00245134
0.00900234
-0.000906938
0.0104966
-0.00956766
-2.20468e-05
-0.00713037
-0.00377381
0.00411722
0.00678696
-0.00265855
-0.00630475
-0.00585565
-0.00860695
0.00717897
0.00728362
0.000316139
-0.00883034
0.0152444
-0.00626815
-0.000811522
-0.00816475
0.00807122
-0.000770038
-0.00588854
-0.00141265
-0.00129063
0.0113786
-0.0142102
0.00412232
0.00734902
0.000282742
0.00357757
-0.0112093
-0.000269945
-0.00604147
0.00291557
0.00339584
-0.00417804
0.00543677
0.0105088
-0.0117675
-0.0147956
-0.00383732
-0.00414055
0.0136531
-0.0126406
0.000297993
0.00396681
0.00837582
0.00121692
-0.00448473
-0.00798799
0.0112558
-0.00579267
-0.0113073
0.0028531
0.0142469
-0.00529669
-0.00587644
0.00611271
0.00506042
-0.0136919
0.0131797
0.013906
-0.0133938
-0.00185333
-0.003235
-0.00974237
0.0148307
-0.0133399
0.00136124
0.0135767
-0.00159804
-0.00231775
0.00623007
-0.00391231
-0.00540539
0.00999197
-0.00752222
0.00293564
-0.000234974
0.0179755
-0.00667197
-0.0110686
-0.00643075
-0.00310746
0.0129082
-0.00336999
0.00207468
-0.00544257
0.0123502
-0.00898233
0.00056475
0.0080082
-0.00140299
-3.69937e-05
-0.0131581
0.0131481
4.69507e-05
0.0149806
-0.00265284
-0.0218958
0.00956802
-0.0138346
-0.00135577
0.0172737
-0.00208324
-0.00750857
0.011344
0.000931291
-0.00476668
0.00669127
-0.00660838
-8.28939e-05
-0.00800973
0.000772279
-0.00691226
0.0141497
-0.0115609
0.0159321
-0.00332217
-0.00104901
0.00720489
-0.00302177
-0.00868789
0.00450477
-0.0139236
0.0140487
-0.000125119
0.0114726
-0.0166831
0.00134949
0.00386102
-0.0129987
-0.00355857
0.0222294
-0.00567222
0.00958989
-0.00039954
-0.00201452
-0.00717583
-0.00546697
-0.00927203
0.0207085
-0.000975281
-0.0136838
0.00828013
0.021557
-0.0240504
-0.00228258
0.00477596
0.00575527
0.00274388
-0.00635873
-0.00602844
0.00628457
-0.00025613
-0.00246129
0.0137503
-0.000872833
-0.0104162
-0.00299404
0.00355135
0.0119436
-0.0125009
0.00780246
0.01831
-0.0107141
-0.0153984
0.0133727
-0.0160444
0.00510063
-0.00242889
0.0121764
0.000170375
-0.0123468
0.000225693
0.0118508
-0.0120765
0.0133597
-0.0161718
0.0142846
0.000144672
-0.000122581
0.0103934
-0.0104155
0.000268526
0.0189403
-0.0188698
-0.000339067
-0.00161868
-0.00478664
-0.00968731
0.0160926
-0.0059263
-0.00355193
0.00119001
0.0112108
-0.0195099
0.00710908
-0.00947692
-0.00248498
0.0101607
0.00180123
-0.0111669
0.0123313
-0.00329389
0.00212942
0.00176325
0.00918713
-0.00312525
-0.00782512
-0.00446118
0.0011112
0.00756085
-0.00421087
-1.19998e-05
0.00340818
-0.00427197
0.000875793
-0.00476154
0.0116486
-0.00671539
-0.000171647
0.00348241
-0.0109876
-0.00641846
7.76318e-05
-0.0102468
0.0101692
-0.00379856
-0.00364494
0.00169048
0.00575302
0.00573387
-0.00330788
-0.00242599
0.014334
-0.0142359
-0.00290372
0.00280562
-0.00130122
-0.00846627
0.007807
0.00196049
-3.54082e-05
4.77359e-05
0.00766928
-0.0076816
0.00382558
-0.00314406
-0.012172
0.0114905
0.00883039
-0.000220761
-0.00860963
-0.0129282
-0.00837135
0.0124759
0.0088237
0.00757773
0.0118763
-0.0204293
0.00719578
-0.00258902
0.0040511
-0.00865786
-0.00288085
0.00285805
-0.0158524
0.0158752
0.00449238
-0.00884696
-0.00860965
0.0129642
-0.000908556
-0.00203563
0.00958919
-0.006645
0.00668855
-0.00822063
0.00297896
-0.00144688
0.0036504
-0.00605073
-0.00584836
0.00824869
-0.0117879
0.0132736
-0.00353572
0.00205008
0.0133982
0.0172414
-0.0189839
-0.0116557
-0.010379
0.0103347
4.43347e-05
-0.00116235
0.0122636
-0.0153195
0.00421819
0.000476369
-0.000779013
-0.0117794
0.012082
0.0116054
0.000487054
-0.0133531
0.00126067
-0.00493808
-0.00834693
0.0104969
0.00278807
-0.0119329
0.016907
-0.00598641
0.00101237
-0.00493425
-0.00602797
0.00357833
-0.000732762
-0.000124697
-0.00848666
0.00934412
-0.0277268
0.000105999
0.00248317
0.0251376
0.00109822
-0.00705728
-0.00365266
0.00961171
0.0173136
-0.00142286
-0.00560432
-0.0102864
-0.00308979
-0.00667087
0.00129915
0.00846151
0.00485576
-1.85264e-05
-0.00483723
0.00813199
0.00433332
-0.0026975
-0.00976781
0.00629967
-0.00498915
0.0124274
-0.0137379
0.00040865
0.0129271
-0.00427177
-0.00906397
0.00313822
0.00447912
0.00969627
-0.0062032
0.000441642
0.00576156
-0.00805257
0.00113918
0.00213687
0.00135123
-0.0111419
0.00765384
-0.0105278
0.0154046
0.00466579
0.0159189
-0.00337354
-0.0172111
-0.0101064
0.00992512
-0.0157066
0.0158879
-0.00151977
-0.00762134
0.0026658
0.00647532
-0.00840088
0.0158496
0.00470455
-0.00547692
0.00122616
-0.000453795
-0.00519047
-0.0165547
0.00518313
0.016562
0.0108774
-0.0108555
-9.84924e-05
7.66014e-05
0.00879738
-0.0102681
0.00218844
-0.000717754
0.00225707
0.00882994
-0.0157298
0.00464282
3.76491e-05
0.00759564
-0.00763329
0.00491859
-0.012606
0.00994444
-0.00475488
0.012766
0.010753
-0.0187641
0.003631
-0.0036944
-0.0171848
0.0172482
-0.00517876
0.00857996
-0.0172103
0.0138091
-0.0123387
0.00982424
0.0128821
-0.0103677
-0.00774361
0.010609
-0.00685443
0.003989
-0.00162611
0.00708472
0.00115261
-0.00661122
0.00360535
-0.00525681
0.00542115
-0.0037697
0.00677446
0.00252064
0.00222824
-0.0115233
0.0193306
-0.0131256
-0.00078967
-0.00541534
-1.04475e-05
-0.00937352
0.00938397
0.00587123
-0.00858539
-0.0263248
0.029039
-0.00117901
-0.0127618
-0.0038694
0.0178102
-0.000776687
-0.00588236
0.00665905
0.00178867
0.00848399
-0.00133972
-0.00893294
-0.00237312
-0.00856563
0.00691271
0.00402604
0.00659946
-0.00552698
-0.00970833
0.0168683
-0.0131287
0.00370498
0.00392554
-0.00763052
0.012725
-0.000334571
-0.00152873
-0.0108617
-0.00244083
-0.00415151
0.00659234
0.00455991
0.00302984
0.0254598
-0.0306204
-0.0108172
0.0159778
0.00391673
0.00834416
-0.00638203
-0.00587886
-0.00891542
0.017062
0.0113437
-0.0194903
0.0100418
0.00348547
-0.0013444
-0.0121829
0.016647
-0.0111
0.00716306
-0.01271
-0.00930713
0.00425553
-0.0116663
0.0167179
-0.0151598
0.02717
-0.0106497
-0.0013604
-0.000400615
-0.00650224
-0.00896095
0.0158638
0.0123093
0.00508514
-0.0144443
-0.00295018
0.00658393
-0.0175528
0.0110797
-0.000110861
-0.0155278
-0.000591709
0.0101604
0.0059591
-0.0031141
0.00805375
0.00350232
-0.00844197
-0.00197483
0.00791984
0.0063706
-0.0123156
-0.0161732
0.00832006
-0.000788767
0.00864194
0.00148694
-0.00441906
0.00877935
-0.00584723
0.00684753
-0.0034446
0.00244416
-0.00584709
0.00664361
0.00127753
0.00065371
-0.00857485
-0.00983822
0.0105558
0.00390969
-0.00462727
-0.00232477
0.012445
0.000252772
-0.010373
0.0100395
-0.00589433
-0.00389312
-0.000252051
0.00869976
6.78668e-05
-0.00876762
0.0063599
0.00492445
-0.00111672
-0.0101676
0.00296621
0.00782858
0.00670044
-0.0174952
-1.70319e-05
-0.0140726
0.0140896
-0.0073473
0.0284221
-0.0041418
-0.016933
-0.000135136
0.0105906
-0.0104554
-0.000709178
-0.00764259
0.00137262
0.00697915
-0.0138192
0.00704024
0.00534687
0.00143205
0.00282032
0.00234646
-0.0161596
0.0109929
0.00826504
0.0130559
-0.00487956
-0.0164413
0.0124281
-0.00425804
-0.0118958
0.00372574
-0.0155393
0.00886072
0.0236849
-0.0170063
-3.93482e-05
0.00593463
-0.00593484
3.95574e-05
-0.00614032
0.00607633
6.3997e-05
-0.0158073
0.000243571
0.00664829
0.00176498
0.00381661
0.0104465
-0.0160281
0.0082597
-0.00982402
0.00633614
-0.00477182
-0.00787142
0.00689384
-0.000261466
0.00123904
-0.00165558
-0.0129698
0.0166124
-0.00198704
-0.00579678
0.00279138
0.00917824
-0.00617284
0.0100719
-0.00388244
0.00148628
-0.00767579
-0.00670534
-0.00116898
0.00784949
2.48291e-05
-0.00114698
-6.15388e-05
0.0108946
-0.00968609
0.00139303
-0.00116983
0.0109384
-0.0111616
-0.00983946
0.0137521
-0.0144092
0.0104966
6.745e-05
-0.0124038
0.0123363
-0.00441601
0.000387523
0.0111331
-0.00710464
-0.00849163
0.00992764
-0.0135388
0.0121028
-0.00870015
0.000658779
0.0026472
-0.00402167
0.0108968
0.000605458
-0.00748058
-0.00290807
0.00040601
-0.00492815
-0.00428892
-0.0139332
0.0139965
0.00422564
-0.00620654
-0.000727217
-0.00155967
0.00849343
-0.021271
0.00719012
0.00209566
0.0119852
-0.00674507
0.0154244
-0.00766003
-0.00101926
0.00470777
0.00184628
-0.00946212
0.00926884
0.00945222
-0.0187211
0.00125026
0.0203058
-0.00469828
-0.0168578
-0.000257665
-0.000359898
-0.00894413
0.00956169
-0.00975533
0.0160721
-0.00647894
0.000162165
0.0092623
-0.00584954
-0.00839455
0.00498178
0.00230582
-0.000309203
0.00282255
0.0142304
0.00398005
-0.0205928
0.00238235
-0.00985325
-0.00128591
0.00323132
0.00790784
0.00373937
-0.00414544
-0.0056219
0.0171508
-0.0115369
0.00896382
-0.0145778
-0.00189707
0.0110728
-0.0191509
0.00997522
0.00665484
-0.0084098
-0.000852282
0.00260724
-0.00737195
-0.00256516
-0.000249104
0.0101862
-0.00548774
-0.00518981
0.0106775
0.00137749
-0.0147231
0.0130579
0.000287727
0.00564803
-0.00544593
-0.00568984
-0.00921398
0.0116937
-0.00222883
-0.000250875
0.0131896
0.00362867
-0.0142107
-0.00260755
-0.00509892
-0.00745655
-0.000854994
0.0134105
0.00834381
-0.00253869
0.00967541
-0.0154805
-0.00931525
-0.000524207
-0.0111637
0.00597385
0.00143986
-0.0125262
0.0040079
0.00707845
0.00363404
-0.0130118
0.0071667
0.00221105
0.00194449
0.000511116
-0.00975665
0.00730105
0.00149677
0.00639612
-0.000430589
0.0109441
-0.00216257
-0.00835096
-0.00429609
-0.000437212
-0.00401615
0.00874945
-0.00254061
-0.00342238
0.0065436
-0.000580617
-0.0101842
-0.000145284
-0.0172287
0.00618502
0.00906887
0.0244813
-0.000199072
0.00333687
-0.0276191
-0.0107052
0.0166352
0.00337207
-0.00930211
-0.00305213
0.00167358
0.0105397
-0.0091611
0.00128006
0.00363338
-0.00281101
-0.00210242
-0.0184123
-0.00379909
0.0158904
0.006321
0.000401916
0.00775316
-0.00155561
0.000237393
0.00391573
-0.0122869
0.00813378
-0.0076191
-2.6938e-05
0.00280951
0.00483653
-0.0103965
0.0128482
-0.00204976
0.00586677
-0.00529028
-0.00057649
-0.00867946
0.00125131
-0.00674222
0.0141704
-0.00391172
0.00588651
-0.00453709
0.0025623
-0.00842029
0.00948225
-0.0039184
0.00285644
0.00380022
-0.000624013
-0.00903089
0.00585469
-0.00376578
0.023605
-0.0317722
-0.00344672
-0.00240554
0.00235537
0.00349689
0.0112453
-0.0175541
-0.000796693
0.00710547
-0.00476011
0.00355226
0.00612145
-0.0049136
-0.00141052
0.00751873
-0.00207374
-0.00403447
-0.00846199
0.00187731
0.00197781
0.00460687
-0.00469367
0.00040336
0.00429031
0.0108833
-0.00518243
-0.00552198
-0.000178898
0.000793435
0.00540589
-0.0082053
0.00200598
-0.00582665
-0.00706351
0.00720254
0.00568762
-0.00300553
0.00775771
-0.00665405
0.00190187
0.00281456
-0.00532826
0.00367247
-0.00115877
0.0101785
0.000276481
-0.010455
0.00876604
-0.0107932
0.00534109
-0.00331393
-0.0137581
-0.000405959
0.014164
0.00568124
-0.00471267
0.00109848
-0.00206705
-0.000447556
0.00975691
-0.010649
0.0013396
-0.00490416
0.00613959
0.00157913
-0.00541505
0.011602
0.01072
-0.00925706
0.00917664
8.04195e-05
0.000254718
-0.0146334
0.0143786
0.0197649
0.00238969
-0.00421596
-0.0179387
0.00412642
-0.0161037
-0.00199501
0.0139723
0.00314415
0.00371815
0.00208771
-0.00895001
-0.00553882
-0.0055475
7.46397e-05
0.0110117
-0.00264352
0.00363353
-0.00652884
-0.0121906
0.0022014
0.0160025
-0.00601334
-0.023925
0.0175216
0.00771179
-0.00130831
0.010581
9.16519e-05
-0.0106726
-0.00599336
-0.00806382
0.00521568
0.00884151
-0.00603817
-0.00876942
0.00261702
-0.00870517
0.00472989
0.00547205
0.00352964
-0.00458967
-0.00842359
0.00948361
-0.0059605
4.01446e-06
0.00595648
-0.0138657
0.00563682
0.00572381
0.00250503
0.00350991
-0.00938359
-0.00283149
0.0119152
-0.0037789
-0.00030095
-0.00783539
-0.00799352
0.0132453
0.00786236
-0.0131142
-0.00234165
-0.00491847
0.0018051
0.00545502
-0.00338208
-0.00272021
0.00610229
-0.00588319
-0.0123662
-0.00567567
0.00275545
3.54401e-05
0.0055597
-0.0083506
0.0113238
-0.00824708
-0.0119261
0.00884939
-0.00420141
0.00149727
0.00848996
-0.00578582
0.00798703
-0.00562279
-0.000791864
-0.00157237
-0.0091587
0.00148672
0.00715395
0.000518019
-0.00567528
0.0130406
-0.0141236
0.00550655
0.000408636
0.00820838
0.0132327
-0.0105677
-0.00832667
0.00566165
-0.010513
0.00218931
0.0196475
-0.0102395
-0.00675071
0.0110203
0.00596989
-0.00119622
0.0106654
-0.00404581
-0.00542337
0.000604397
-0.00625476
-0.00412552
0.00977589
0.012142
-0.00801014
-0.000492682
-0.00363922
0.00374244
0.0027959
-0.00918186
-0.0025523
0.00288979
0.00712668
-0.00746417
-0.00211116
0.0110371
-0.0136043
0.00467832
-0.00660097
0.00159205
0.00159772
0.00341119
-0.0145105
0.0147609
-0.000250411
0.00998161
-0.00983748
-0.000144129
0.00401592
-0.0155136
-0.00595656
0.0174543
0.00356125
0.0067745
0.00157949
-0.000171273
0.00593472
-0.00576345
0.00947487
0.00849284
-0.0179677
-0.0105633
0.00644863
0.00455817
-0.000443467
-0.00593252
0.00195496
0.00482315
-0.000845589
-0.0176965
0.0082586
0.00970593
-0.000268069
-0.00574971
-0.00641063
0.00619984
0.00907531
-0.00142843
-0.00584982
-0.00179707
-0.00980106
0.0105875
-0.00646168
0.00172714
-0.0109595
-0.00056063
0.00979298
-1.24439e-05
-0.005364
0.00537645
0.0264604
0.000212564
0.00281202
-0.029485
-0.000992129
-0.00194091
-0.0142972
0.0172302
0.00459823
-0.00622557
-0.00290334
0.00453067
0.00177961
0.0136829
-0.0055291
-0.00993345
0.014928
-0.0149364
-3.5444e-05
4.38196e-05
-0.00837325
-0.0075551
0.0118087
0.00411968
0.00488885
0.00374258
-0.00974452
0.00111309
6.87357e-05
0.00906068
-0.00925944
0.000130017
-0.0124737
0.00399447
0.0101093
-0.00163009
0.00960492
0.00580674
-0.00972377
-0.00568789
0.000226393
-0.00853091
0.00433664
-0.00222226
0.0128136
-0.00691633
-0.000900696
-0.00107955
0.00889658
-0.0115024
0.000604517
0.0108979
0.0168574
0.00728487
-0.0054649
-0.0186773
-0.0110074
0.000236666
0.0109971
-0.00101031
-0.00263023
-0.00671579
0.0103563
-0.00134617
-0.00132013
-0.00353995
0.00620626
0.00277461
-0.0140751
0.010612
0.000688528
0.00873839
-0.00136354
-0.00850257
0.00112772
-0.0108358
0.00227296
0.000885748
0.00767704
-0.00411532
0.00269355
-0.00555082
0.00697259
0.00237055
0.00150239
-0.0139563
0.0100834
0.000487856
-0.00945301
-0.000658715
0.00962386
0.00938131
0.00122749
-0.000158462
-0.0104503
-0.0111926
0.00260791
0.0101286
-0.00803679
-0.010672
0.0187088
0.015517
-0.00790977
0.0033376
-0.0109448
0.00121847
0.00872726
-0.0053475
-0.0125358
0.00230942
0.00443972
0.0057866
0.0154687
-0.0159272
0.00045849
-0.00933658
-0.00316995
0.00653537
0.00597116
-0.0121346
-0.0094271
0.00631929
0.0152424
0.0126866
-0.01325
-0.00162131
0.00218474
-0.00184506
0.0061563
-0.00485229
0.000541052
-0.0158547
0.00516779
0.00364397
0.00704291
-0.0233197
0.0290558
0.00479918
-0.0105352
0.0104038
-0.0225592
-0.00115467
0.01331
-0.00926192
0.0117625
-0.0218016
0.019301
-0.00973882
0.0214625
0.00213122
-0.0138549
0.000855255
0.0101639
-0.00237124
-0.00864793
0.0154511
-0.011589
-0.00038947
-0.00347265
-0.00272008
-0.00261263
0.0039924
0.00134031
-0.00733774
-0.0152441
0.012991
0.00959077
-0.0103634
0.0138051
0.0120094
0.00839845
-0.00617417
-0.00769422
0.00546994
0.00312152
-0.00403916
-0.00178406
0.0027017
0.00690653
-0.0068294
-0.00910295
0.00902582
-0.00280133
0.00803601
-0.000581416
-0.00465326
-0.0111085
-0.00176972
0.0137334
-0.00839657
-0.00206462
0.0103807
8.04548e-05
0.00341602
-0.00763187
0.00421585
0.00273207
-0.00362867
0.0135221
-0.0126255
0.010543
-0.0148244
0.00214589
0.00213552
0.00671793
-0.0072485
0.000530576
-0.0106468
0.000283347
0.00954613
-0.00363504
-0.00920927
0.00329818
0.00299045
0.00242862
0.010647
-0.0160661
0.00654852
-0.00710975
0.000561231
-8.15934e-05
0.00829828
-0.00938129
0.00116461
-0.0116983
-0.00112812
0.0155585
-0.00506031
-0.000864916
0.00116912
0.00475611
0.000699083
-0.00577713
0.00426135
0.00081669
0.00945922
-0.00905406
-0.00225022
0.00108281
0.0155888
-0.00981767
-0.00685391
-0.00537203
0.0113627
-0.00599072
-0.014528
0.00556373
-0.00341009
0.0123744
0.0114415
-0.0103689
-0.0169272
-0.00555124
-0.00664249
0.0228294
-0.0106356
-0.0163505
0.0104108
0.0148408
-0.00890104
-0.000365873
-0.0139477
0.0143135
0.022133
4.48195e-05
-0.0127519
-0.00942592
0.0128264
-0.00826113
-0.00114112
-0.0034241
-0.00935957
0.00664528
-0.00167969
0.00439398
0.000127632
-0.00959795
0.00947032
-0.0070514
0.0072579
-0.000206492
-0.00510661
-0.005395
-0.0138268
0.0243284
-0.0130224
0.00284073
-0.00145663
0.0116383
0.00301109
0.00488631
0.0133544
-0.0120513
-0.00996641
0.00866331
-0.00371114
-0.00764943
0.0084396
0.00292097
-0.00770904
-0.00392086
0.0116407
-1.08096e-05
0.00251722
-0.00144943
-0.00712774
0.00605995
0.00850972
0.000376705
-0.0108764
0.00198996
0.00262476
-0.00182408
0.00280918
-0.00338916
0.00337662
-0.00279664
0.00695358
0.00681326
-0.00695527
-0.00681158
0.00342089
0.00798833
-0.00826527
-0.00314394
0.00726789
0.00315175
-0.00571187
0.00898997
-0.0109012
0.00228792
-0.0119456
0.00835088
0.00449579
-0.000901026
0.0142197
-0.00470676
-0.0148849
-0.00378859
0.0101374
0.00509272
0.00988458
-0.00481547
-0.00832453
-0.00226738
-0.00135373
-0.0132865
0.0124337
0.00116811
-0.000315309
-0.000826518
0.0166051
-0.00172054
-0.0140581
-0.0108208
0.00220358
0.0048286
-0.00174297
-0.0110077
0.00309303
0.00965765
0.0099233
0.00137608
-2.41555e-05
-0.0112752
-0.0148172
-0.000125284
0.000103055
0.0148395
-0.00380571
0.00416975
-0.00676683
0.00640278
-0.0102051
0.0129071
-0.00133284
-0.00136912
0.0134087
-0.0125214
-0.0110923
-0.00992534
0.00894863
-0.00284176
0.00381846
0.00802957
-0.000361811
-0.00252568
-0.00514208
-0.0150026
0.0144691
0.00708923
-0.00655572
0.00709746
0.00270324
-0.000901267
-0.00889943
0.00257414
0.00652248
-0.00815845
-0.000938172
-0.00482794
0.0048564
-2.84583e-05
-0.00282537
-0.00721471
0.00723875
0.0108484
-0.0107543
-9.40795e-05
-0.00614543
-0.00488901
0.00480887
-0.000637487
-0.00735683
-0.000803788
0.0087981
-0.000830952
-0.00639707
0.00571848
0.00150953
0.0101148
-0.0114968
0.00138202
-0.0128766
0.013223
0.0120937
-0.0124401
-0.00867973
0.00670414
-0.00456785
0.00654344
-0.00346248
0.00147977
0.0031347
-0.001152
-0.000366006
0.0156734
-0.00013713
-0.0151703
-0.00790225
0.00383111
0.00389138
0.0045208
0.00575344
-0.0100384
-0.000235807
0.000435387
-0.0124682
-0.000489895
-0.0113312
0.0113265
4.64159e-06
-0.00759617
0.00382456
-0.00836298
0.002582
-0.00571415
0.000228819
0.00495777
0.00215276
0.00751231
0.000146485
-0.00642397
-0.00123483
0.00628909
-0.0156916
0.0125807
-0.00317826
0.00259823
-0.00354021
0.0131663
-0.0122243
0.0161324
0.00476187
-0.00248048
-0.0184138
-0.00411236
-0.00674196
-0.00218587
0.0130402
0.00488401
0.0203522
-0.0183786
-0.00685759
0.00234558
0.0147394
-0.0142292
-0.00285574
-0.00508499
0.00067082
0.0104222
-0.00600802
-0.00178129
0.0144789
-0.00781357
0.0104694
-0.00826559
-0.00322711
0.00102325
0.00342982
0.00897766
-0.0124075
0.00841219
0.0018667
-0.00112115
-0.00915775
-0.00773495
0.00618126
0.000621942
0.000931746
-0.000752999
-0.0109212
0.000636078
0.0110381
-0.00802089
-0.00101865
-0.000336675
0.00937621
0.00462594
-0.0102583
0.000101796
0.00403266
0.00612389
8.76369e-05
0.00666247
-0.00675011
0.000823666
0.0116697
-0.0298239
0.0173305
0.00328475
-0.00827672
0.00786364
-0.00287168
0.00471456
0.00538184
-0.00372771
-0.00636869
4.89018e-05
-0.00597727
0.00592837
-0.00323357
-0.00229375
0.0130946
-0.00756724
-0.00399389
0.0133419
-0.0115173
0.00216936
0.0146391
-0.0101714
-0.00982412
0.00535643
-0.00602007
0.00407191
0.0018638
8.43583e-05
-0.000801824
0.00459641
-0.00246864
-0.00132595
0.0157081
-0.0122783
0.00731544
-0.000845389
-0.0119748
0.00550477
-0.0033402
0.00312323
0.00374202
-0.00352505
0.00019035
0.0150196
-9.52174e-05
-0.0151147
-0.0109574
-0.00361099
0.0148555
-0.000287161
-0.00311589
-0.00132924
0.0034206
0.00443105
-0.00652241
0.00886559
0.00625116
-0.0132595
-0.00185728
-0.0027293
-0.00177759
-0.0118624
0.0163693
0.0156225
-0.0123565
-0.021774
0.018508
-0.00608918
-4.51018e-05
0.00613428