/*--------------------------------*- C++ -*----------------------------------*\
  =========                 |
  \\      /  F ield         | OpenFOAM: The Open Source CFD Toolbox
   \\    /   O peration     | Website:  https://openfoam.org
    \\  /    A nd           | Version:  10
     \\/     M anipulation  |
\*---------------------------------------------------------------------------*/
FoamFile
{
    format      ascii;
    class       volScalarField;
    location    "0.1";
    object      SgRate;
}
// * * * * * * * * * * * * * * * * * * * * * * * * * * * * * * * * * * * * * //

dimensions      [1 -1 -3 -1 0 0 0];

internalField   nonuniform List<scalar> 
111485
(
7.11972e-15
6.41533e-16
4.16862e-15
3.56279e-18
2.20761e-15
2.09472e-16
4.18659e-15
4.31344e-16
3.97132e-16
5.03579e-14
4.8037e-16
3.95261e-14
3.01051e-16
4.4029e-15
6.08797e-16
6.85792e-15
5.64299e-14
3.62474e-15
1.89351e-14
1.37481e-14
6.54675e-15
4.42512e-17
2.51311e-15
2.22438e-14
3.95902e-16
2.20502e-15
1.84829e-14
2.33925e-14
1.86984e-14
4.33721e-15
3.49113e-14
5.80827e-14
3.92906e-15
1.3053e-15
3.55981e-17
5.37558e-13
1.87805e-14
2.88793e-14
4.88733e-14
1.99381e-14
5.38351e-16
2.17388e-14
1.34737e-14
5.70881e-14
5.53009e-16
8.6497e-07
1.00245e-14
1.55195e-14
2.48139e-14
3.93972e-15
4.04097e-15
2.95827e-15
1.35951e-14
4.49567e-15
1.55846e-14
2.4302e-15
2.1611e-15
2.86394e-13
1.02319e-15
3.39416e-14
1.30769e-13
3.64119e-15
1.24066e-15
2.70736e-15
6.32329e-16
4.84779e-15
2.54889e-16
8.89528e-16
5.7396e-16
1.2796e-15
3.28618e-15
1.27967e-14
3.36844e-16
1.46012e-15
1.05614e-13
1.13705e-13
1.12252e-16
4.093e-15
3.17757e-15
2.03871e-15
2.46211e-13
1.06858e-14
2.08037e-16
1.58732e-13
5.55539e-15
1.88262e-14
4.88294e-14
6.7422e-15
2.9802e-15
2.76344e-14
2.47824e-15
2.48157e-15
1.55785e-15
3.54915e-14
6.4023e-14
5.99078e-15
7.59536e-16
2.63017e-14
7.83746e-15
8.38376e-14
4.39846e-16
2.15602e-14
7.31888e-14
5.31889e-15
7.90264e-16
3.4689e-17
1.46154e-16
4.08784e-14
1.61837e-15
3.72491e-14
3.07941e-14
1.37977e-15
1.70063e-14
1.66511e-14
5.97347e-15
2.20519e-15
3.1446e-15
6.67128e-13
1.7946e-15
1.35997e-15
1.2217e-14
1.83964e-15
4.92151e-15
1.26777e-13
7.1454e-15
3.74824e-14
4.53885e-16
2.28447e-13
5.54988e-15
4.2686e-14
1.30874e-14
3.17935e-14
1.03656e-13
9.53432e-15
1.21086e-15
1.62885e-15
2.01707e-15
1.79838e-14
4.05754e-15
2.07302e-15
3.18058e-14
2.05957e-15
3.96124e-15
1.77112e-14
3.10746e-14
4.23341e-15
1.56682e-15
6.61449e-14
3.40896e-14
6.97941e-16
5.66097e-15
7.86114e-16
2.10935e-15
1.57268e-14
9.85441e-15
3.86194e-15
1.06968e-15
5.07217e-15
4.16182e-14
2.12054e-13
6.03356e-17
1.00499e-15
4.86087e-16
3.99314e-14
1.69892e-14
1.95497e-14
2.00622e-14
9.99436e-14
6.65538e-15
7.40832e-14
2.10845e-15
2.10047e-14
1.34871e-14
2.41641e-15
8.75637e-14
5.35452e-15
3.08662e-17
7.71006e-15
2.9737e-15
5.83815e-16
9.6717e-15
2.85626e-16
2.25242e-15
1.2265e-15
1.18482e-14
7.95533e-13
5.02099e-14
1.92795e-13
2.94419e-15
6.86815e-17
1.19049e-13
6.85793e-15
1.51814e-15
1.79244e-13
1.33088e-14
4.23076e-15
2.68506e-15
8.76141e-15
3.58176e-13
1.25767e-15
2.12805e-15
2.05842e-15
1.58832e-14
3.539e-14
1.64486e-13
6.4856e-14
1.32657e-15
4.9693e-14
6.74102e-14
7.93572e-15
6.59657e-15
2.0098e-13
2.10317e-14
8.3301e-17
2.8245e-13
6.29008e-16
3.59384e-14
1.10668e-14
1.75013e-14
4.48976e-14
1.71298e-15
0.000134888
1.10075e-14
1.00038e-14
3.63813e-16
5.09483e-16
1.06679e-14
3.83041e-14
1.36843e-14
4.90385e-17
4.36625e-16
3.87754e-13
2.99593e-14
2.74226e-15
4.93496e-16
4.84241e-15
1.01451e-14
7.93579e-14
1.01666e-15
2.24763e-13
4.67767e-13
2.37441e-14
1.10141e-14
9.43334e-15
1.72716e-14
7.79268e-14
6.75202e-14
2.4109e-15
3.16963e-15
1.22256e-15
2.45127e-16
6.65015e-15
1.2711e-13
5.57049e-16
2.89904e-15
3.98556e-14
2.13242e-15
3.66044e-15
4.04213e-15
1.69633e-15
4.18236e-14
2.12365e-15
3.47543e-14
0.00951355
3.65796e-14
3.03126e-17
4.9384e-16
1.98052e-13
1.60735e-14
9.89828e-15
1.12038e-15
1.12782e-15
1.67302e-14
1.92388e-16
3.81054e-16
5.79577e-14
2.51942e-14
4.9007e-14
3.88607e-17
2.49855e-14
3.97387e-14
2.57347e-13
2.64506e-15
2.20689e-14
1.36397e-16
4.24769e-15
3.31673e-15
1.88274e-15
1.15046e-14
2.11429e-14
5.80525e-16
1.17514e-15
9.64695e-15
4.40754e-13
8.13357e-15
3.90987e-15
2.65225e-16
2.86672e-15
1.60558e-15
2.56431e-14
9.44789e-15
2.50212e-15
1.91638e-13
4.83179e-14
3.63876e-14
1.60075e-15
2.64273e-15
2.32258e-15
1.48252e-13
8.00584e-16
2.80018e-15
7.95675e-16
8.98849e-15
1.65016e-16
2.49885e-15
9.17979e-14
8.73834e-15
2.81201e-14
2.79202e-15
6.3723e-15
8.35427e-15
1.19868e-16
8.23677e-17
3.06877e-16
3.61023e-15
2.56157e-14
1.54449e-15
3.02317e-13
1.11145e-15
4.34619e-16
2.64966e-14
4.19556e-15
2.41764e-15
1.0467e-14
8.89952e-15
1.07601e-16
3.08354e-15
1.01498e-13
4.76239e-15
7.81041e-15
3.16209e-15
2.90878e-16
6.0652e-14
1.84451e-13
6.23725e-15
1.91592e-14
2.65272e-14
1.74113e-14
2.61284e-16
1.37165e-14
6.75653e-16
7.009e-14
2.53134e-14
3.36705e-15
3.77277e-14
1.24081e-13
1.26547e-14
2.5528e-16
1.70536e-15
1.39531e-14
2.35452e-15
8.9286e-17
2.91152e-15
3.65846e-16
2.33711e-16
2.70588e-15
3.78456e-14
1.56346e-16
6.53036e-16
2.50235e-12
1.96912e-13
6.94743e-17
2.17452e-14
8.01903e-15
5.02475e-14
1.12658e-16
1.78285e-15
2.27684e-15
1.11303e-16
4.84031e-16
3.1922e-14
1.32386e-15
6.20862e-14
1.49047e-15
5.1659e-14
3.18834e-16
3.32265e-14
1.089e-14
3.69601e-13
1.77715e-14
4.02843e-15
6.14535e-16
6.29132e-13
5.77908e-15
4.177e-14
5.55062e-14
1.05938e-14
8.92084e-16
3.7062e-14
8.31856e-16
9.7656e-16
1.84755e-15
5.24025e-15
3.58491e-15
3.57763e-15
7.60589e-15
3.90843e-15
8.01973e-15
3.06497e-16
4.17557e-14
2.39235e-16
1.78461e-15
1.07573e-15
1.7348e-16
1.42202e-15
1.37447e-15
2.58565e-14
2.06533e-14
9.02345e-19
5.19721e-15
1.04821e-14
1.23395e-16
9.28989e-15
5.81065e-15
4.03747e-15
5.46938e-15
8.01461e-16
3.66363e-14
5.48111e-15
1.84343e-14
3.25488e-14
2.41018e-16
0.00782169
2.63617e-15
3.89892e-14
2.59356e-15
3.96612e-15
6.52794e-15
8.98689e-15
1.30577e-15
2.59563e-14
2.95794e-15
3.50335e-14
9.9719e-14
3.57265e-15
4.13321e-15
1.73578e-14
1.20301e-16
3.11437e-14
5.39643e-14
2.02852e-14
2.8966e-14
1.60882e-14
0.000115665
3.87764e-15
2.91616e-15
4.01417e-14
6.55011e-15
1.97335e-14
4.32359e-15
9.00614e-14
4.83305e-14
1.29635e-14
2.77148e-15
2.0649e-14
8.36116e-16
4.39221e-16
4.28086e-16
6.93514e-15
7.07283e-14
7.83182e-16
1.62506e-16
1.463e-15
5.43758e-14
7.39393e-15
2.88458e-13
2.35131e-15
4.61639e-14
2.10486e-14
6.08905e-16
5.48025e-14
8.07671e-16
1.80631e-15
5.45478e-14
4.06102e-15
9.2132e-16
2.54966e-15
7.00144e-16
1.16595e-14
4.55019e-14
1.33384e-15
1.51325e-13
7.43739e-14
1.62482e-15
1.13312e-15
5.42748e-16
1.14866e-14
6.0264e-14
3.22282e-14
2.33832e-14
1.91897e-14
7.74303e-15
6.09586e-15
3.24213e-15
1.15352e-15
1.96494e-14
1.95592e-14
3.27198e-16
4.37705e-14
4.0901e-15
1.09763e-14
1.02082e-13
5.91592e-14
1.55637e-15
5.40929e-14
1.23405e-14
3.40154e-14
3.18879e-14
3.7158e-16
2.30844e-14
3.08787e-14
8.27659e-15
4.57394e-17
1.88054e-13
6.14669e-15
2.45264e-16
4.73753e-15
1.55006e-15
1.05604e-14
1.3437e-14
2.59288e-14
2.0638e-14
1.81531e-15
1.61144e-14
3.06558e-16
1.46657e-14
2.16072e-16
6.54714e-16
2.45735e-15
5.33226e-15
1.32544e-13
7.88283e-16
1.00362e-14
5.61851e-15
1.4736e-14
1.50894e-16
9.15142e-16
2.25664e-14
2.61347e-14
2.40146e-15
1.34944e-15
3.32391e-14
3.98592e-15
2.51781e-15
1.60051e-14
1.06602e-14
9.21687e-16
2.85718e-14
1.39926e-14
2.49069e-14
9.97959e-16
3.72052e-15
8.79307e-15
6.89612e-15
4.55113e-14
4.19877e-15
1.41818e-14
3.43993e-15
1.44633e-14
1.55648e-14
8.89448e-15
1.8912e-14
4.47288e-15
6.92196e-15
6.3536e-15
1.57309e-17
1.84001e-14
7.66759e-14
8.75052e-15
8.61607e-15
2.73767e-15
2.49053e-14
1.91236e-15
5.40186e-17
2.24347e-14
8.08456e-14
1.17369e-15
5.21574e-18
1.68692e-14
1.48218e-14
5.04993e-16
3.36596e-16
4.24347e-16
3.67386e-15
3.36821e-15
8.10754e-14
1.60511e-14
1.25202e-15
4.48597e-14
1.1825e-13
1.80683e-16
2.13893e-14
4.01706e-15
1.68833e-13
7.52559e-15
2.15149e-15
1.28829e-17
1.08674e-15
2.07629e-14
1.483e-15
5.61369e-15
1.54253e-13
1.17705e-16
1.69966e-15
9.94779e-15
4.35278e-16
4.74525e-15
1.47649e-14
1.33718e-14
1.06256e-15
8.63673e-15
2.83044e-16
6.29048e-13
1.34211e-15
1.28413e-14
3.95956e-14
1.37912e-13
1.51304e-14
7.21733e-14
8.84527e-14
1.19817e-13
7.28319e-15
5.01511e-16
4.35994e-14
4.94831e-14
2.06185e-15
8.1899e-14
8.76649e-14
5.00699e-15
7.12467e-15
3.58002e-15
3.51693e-13
4.93956e-16
1.23464e-14
2.563e-14
8.49317e-16
1.13811e-15
3.48752e-15
2.30197e-14
5.21668e-15
1.42172e-14
1.57593e-13
4.50405e-16
1.64578e-14
6.68019e-16
3.42019e-14
1.59059e-15
5.52074e-14
1.04024e-15
1.10813e-16
3.60434e-15
3.23918e-15
1.42997e-14
1.06241e-15
1.50415e-14
6.81679e-14
1.62847e-14
1.75369e-14
7.32588e-14
4.36421e-15
0.0178348
6.50046e-16
6.63272e-15
7.26982e-15
1.30963e-13
1.79499e-15
1.73928e-14
1.0133e-14
1.04994e-13
2.87958e-14
1.23602e-14
5.68516e-14
4.03004e-16
6.06444e-15
2.61076e-14
6.0577e-13
4.92197e-15
3.43258e-14
1.84313e-15
2.2874e-15
1.30727e-15
1.38033e-15
1.94014e-14
6.14259e-14
2.79364e-15
4.27182e-16
8.64051e-15
2.02606e-14
1.41174e-13
3.3191e-14
5.23597e-16
4.37213e-15
3.04334e-14
3.00358e-15
1.74044e-15
5.87045e-14
8.98881e-15
1.45125e-15
1.48037e-16
1.74619e-15
3.3816e-15
1.08848e-13
8.12283e-15
8.47132e-16
5.41872e-16
3.79684e-15
4.22886e-17
3.85045e-14
6.93913e-16
2.24109e-15
4.64919e-16
2.13079e-14
6.72005e-14
5.167e-16
7.14659e-16
4.74164e-15
1.03225e-14
6.43773e-15
1.01341e-14
1.46957e-15
1.81359e-13
1.53639e-15
3.26634e-14
9.94162e-14
8.45875e-14
3.55268e-15
7.29167e-16
1.57106e-15
4.16912e-15
6.88787e-15
3.15401e-16
1.85417e-15
2.7174e-14
6.67042e-16
9.71247e-15
2.82508e-14
2.72135e-15
1.5761e-13
9.99769e-15
9.5893e-15
1.17369e-14
3.43376e-15
2.7405e-15
7.61552e-15
7.5529e-16
2.55669e-14
3.89878e-16
1.30985e-15
4.99635e-16
6.04444e-14
1.20246e-15
7.9781e-15
2.07938e-15
1.70367e-15
2.22381e-14
2.05957e-14
3.12618e-15
3.4724e-16
0.00509333
5.53007e-14
1.28264e-15
8.52755e-14
2.49606e-16
1.3715e-15
1.427e-14
1.05952e-13
5.8719e-14
3.53398e-15
1.96412e-16
1.35206e-15
7.64781e-14
3.48975e-16
4.97331e-17
1.13378e-14
9.85274e-14
2.20939e-14
6.30856e-18
3.76325e-17
2.8863e-13
2.47844e-15
2.79887e-15
1.96839e-14
5.91985e-16
3.54219e-13
2.32071e-15
6.84775e-15
7.6147e-15
6.1851e-14
1.4895e-15
1.81529e-15
2.8461e-15
1.02341e-14
1.8448e-14
1.14479e-13
1.02188e-13
2.40664e-16
6.87728e-14
2.0262e-14
2.56776e-14
1.09073e-14
6.32253e-13
1.42548e-15
2.28007e-14
1.34991e-14
3.3181e-14
1.19297e-16
8.35871e-14
1.2526e-15
4.80718e-14
1.70832e-14
5.58402e-14
4.29407e-16
2.12896e-14
6.67986e-14
1.19441e-13
2.01733e-15
5.1827e-14
4.9005e-14
8.96334e-15
6.67601e-14
5.01928e-15
1.89526e-14
3.3386e-13
3.26407e-16
1.64121e-14
1.59324e-14
2.41788e-14
7.37284e-15
2.12442e-17
1.45709e-15
6.84524e-14
1.62023e-16
1.15751e-14
9.92368e-15
5.07246e-15
1.89732e-14
5.39008e-15
1.18077e-15
4.76188e-14
1.6482e-15
6.99847e-16
7.34684e-14
6.92524e-14
4.6116e-15
1.80864e-16
2.43984e-16
1.70415e-13
1.05637e-12
1.99392e-14
3.77575e-14
2.95854e-16
5.98776e-16
2.99845e-15
2.74881e-14
5.62112e-16
8.37336e-16
3.25537e-15
1.02793e-14
9.96565e-14
2.7142e-15
4.6882e-14
3.14271e-14
1.46717e-15
1.80218e-15
9.14498e-14
2.17402e-13
1.21331e-14
1.63521e-14
6.91557e-14
3.32161e-13
3.75675e-16
5.05894e-18
1.04544e-15
1.16714e-16
7.75498e-16
5.78763e-17
1.54436e-14
1.76643e-14
5.69388e-15
1.51344e-16
3.2358e-15
3.75294e-17
7.91489e-15
2.1579e-18
7.17164e-14
4.43428e-16
1.55415e-14
1.03145e-16
6.29243e-15
1.65094e-16
1.16101e-15
4.43827e-14
4.34797e-15
1.62572e-16
7.2783e-15
7.58983e-15
3.90086e-14
1.78344e-14
3.19927e-15
2.30581e-14
1.62186e-17
4.10759e-15
1.8782e-14
6.66681e-15
1.1468e-14
9.80627e-16
5.66243e-14
2.94879e-15
3.13263e-17
5.2782e-14
4.18175e-16
4.57896e-13
3.59232e-16
7.7365e-15
2.16108e-15
2.83368e-17
1.12954e-13
1.86656e-15
1.50895e-15
3.00698e-14
3.93318e-14
7.40919e-15
8.58161e-15
1.6225e-14
2.3414e-14
8.08434e-15
1.72598e-14
1.99411e-14
7.09157e-16
5.06564e-14
1.80015e-15
4.51042e-15
4.98722e-14
2.2239e-16
3.96999e-14
5.57094e-15
1.34174e-14
5.67286e-16
5.27459e-15
3.93525e-15
1.74322e-15
3.80189e-15
1.38187e-14
2.21704e-15
5.17229e-16
5.38599e-15
2.80845e-15
1.9411e-14
1.48951e-14
8.30009e-17
7.43144e-15
1.74404e-15
2.96098e-14
2.87815e-16
2.10965e-15
1.38435e-14
3.59811e-16
4.93133e-15
4.0889e-16
3.0496e-15
1.7323e-14
2.17136e-13
5.17337e-14
2.44962e-13
7.29132e-14
1.03547e-15
1.07158e-15
5.57907e-16
6.04248e-15
3.27317e-16
3.77619e-15
1.53806e-13
1.74142e-14
1.16793e-14
4.73873e-15
1.50542e-13
1.41156e-14
1.40559e-15
1.18596e-14
2.59708e-15
1.31364e-15
3.24194e-15
9.37439e-17
1.10208e-14
1.53101e-14
2.43306e-16
3.70645e-18
1.0786e-14
7.78559e-16
1.98766e-14
1.92655e-14
3.58869e-16
2.19316e-14
1.09444e-16
4.48766e-14
3.44643e-16
1.03553e-14
2.33575e-16
2.75156e-15
2.4275e-15
2.0149e-14
7.29107e-14
7.07774e-14
4.43484e-15
1.68204e-17
2.87234e-15
3.68543e-16
3.9677e-15
7.74667e-16
5.51598e-14
7.03281e-15
1.00299e-14
7.07181e-14
3.35582e-13
3.49668e-14
1.36564e-14
2.34731e-16
7.8826e-15
5.82843e-15
9.12522e-15
4.04356e-15
2.29367e-15
3.85236e-15
3.4947e-14
1.01853e-14
7.41709e-15
1.14187e-14
2.98082e-16
3.42141e-15
1.08681e-15
2.41771e-15
5.69581e-15
7.13293e-15
5.27028e-15
5.04713e-14
1.25447e-15
2.57377e-16
1.24383e-14
5.29126e-15
5.65869e-15
6.12553e-15
1.97688e-14
3.90605e-15
2.06204e-15
1.50043e-14
2.20783e-15
1.08817e-15
6.32934e-15
2.43449e-16
3.87994e-16
2.62636e-16
3.38675e-14
8.37287e-17
5.9865e-14
1.44919e-15
1.75505e-14
7.3614e-15
4.15304e-15
8.10852e-16
3.62486e-13
1.07393e-13
3.7695e-14
3.04621e-16
3.44314e-13
4.35497e-14
1.83315e-15
2.42778e-14
2.30238e-13
7.31426e-17
1.20432e-14
3.04004e-14
1.66255e-14
3.62221e-15
2.02156e-14
1.06701e-15
2.35467e-14
3.67448e-14
7.3282e-14
4.38832e-14
1.35789e-14
3.64124e-14
2.5524e-16
3.69255e-15
2.95936e-14
4.39669e-15
3.30313e-16
9.2726e-15
7.42189e-15
1.39571e-14
1.54054e-15
1.20077e-14
6.39466e-15
4.3418e-15
8.90738e-16
4.20806e-15
4.33928e-14
9.05152e-15
3.7235e-15
3.18074e-15
2.59532e-14
6.44845e-15
8.81673e-15
1.05352e-15
2.21125e-15
5.28107e-15
4.6703e-16
7.89768e-16
2.52269e-14
5.4823e-14
2.74938e-16
3.34151e-15
1.43442e-15
2.21582e-15
4.26005e-15
4.5981e-14
7.49106e-15
8.3098e-15
1.39407e-16
8.49062e-16
1.78629e-15
3.84011e-16
2.29158e-15
8.05557e-16
1.56105e-13
7.67045e-15
9.64616e-15
6.84045e-17
6.24324e-15
3.71196e-15
3.50416e-16
3.81696e-14
1.30917e-14
4.94811e-16
1.29359e-15
4.35455e-14
4.29032e-14
4.56291e-15
2.00994e-14
6.60501e-16
3.31321e-15
6.27683e-14
1.09121e-13
7.86395e-13
1.63597e-15
2.79648e-13
1.50008e-14
4.51999e-14
1.39996e-14
9.21893e-15
1.32447e-14
1.62289e-14
3.53441e-16
1.31367e-14
1.67018e-16
6.38859e-14
1.28402e-15
3.7235e-16
2.41818e-15
1.07297e-14
1.91118e-16
1.54483e-14
2.49561e-15
1.15587e-15
2.51611e-14
3.26553e-16
5.97559e-14
6.24356e-15
3.08321e-15
1.02632e-14
2.55541e-14
1.22303e-16
1.82382e-16
3.74492e-15
3.90359e-16
2.72546e-15
2.8414e-15
1.27592e-15
2.42061e-13
1.91149e-14
5.26973e-14
1.5453e-15
3.36163e-15
4.16291e-16
2.36543e-15
5.31668e-16
1.8286e-14
8.62587e-15
3.54788e-15
1.83127e-14
4.18533e-15
9.46746e-15
5.87746e-16
1.85371e-15
1.0143e-14
3.27398e-15
1.07965e-15
1.47528e-14
6.95523e-14
6.84467e-14
1.1512e-14
8.42704e-15
1.65343e-16
2.15947e-15
5.9721e-15
3.99839e-14
1.10893e-15
4.70256e-16
8.40958e-16
9.66988e-16
1.81041e-14
3.20194e-16
1.96259e-14
5.12605e-15
1.44351e-14
5.56175e-17
3.01834e-15
2.80813e-15
1.68584e-14
2.67878e-16
1.13858e-16
3.31922e-15
2.9667e-16
9.16388e-15
1.00913e-14
1.97093e-17
4.36166e-16
2.41909e-15
6.42456e-16
2.91764e-15
1.18223e-15
2.72185e-15
2.69244e-15
1.63624e-14
5.578e-16
7.14076e-15
1.58256e-15
1.35349e-16
4.81268e-16
3.0656e-15
3.78313e-15
3.63538e-15
1.23283e-15
1.96804e-14
4.19901e-14
1.78861e-14
1.09715e-14
1.29712e-15
3.83961e-15
4.89941e-15
5.69243e-16
2.51574e-14
3.21348e-15
1.14371e-14
1.18029e-14
4.00073e-14
4.26511e-13
9.43517e-16
2.9783e-15
2.67349e-15
9.61349e-18
1.00888e-15
1.92526e-15
1.37878e-15
4.45629e-17
1.47352e-17
3.86964e-16
1.1149e-14
2.99924e-16
5.51127e-15
8.70891e-16
1.19585e-16
1.17851e-15
1.00643e-15
4.51059e-16
2.57453e-15
2.10205e-15
1.17818e-14
2.71477e-15
1.78592e-14
3.23599e-16
1.02003e-13
2.13518e-15
7.20925e-13
2.10232e-15
6.50277e-15
2.45413e-16
7.59867e-16
8.09688e-15
4.59399e-15
1.89564e-16
1.29808e-16
9.80069e-15
2.52679e-17
4.54822e-15
2.13067e-15
5.98835e-16
2.16591e-14
8.50388e-16
4.88935e-16
1.27099e-15
7.33285e-14
2.54043e-15
2.76968e-17
3.60059e-15
7.51804e-15
1.17943e-15
1.70289e-15
6.4525e-15
1.49726e-15
9.5868e-16
4.08482e-13
2.78133e-15
2.35658e-15
4.74919e-14
2.25792e-15
3.44005e-13
8.44115e-17
9.90263e-16
2.01616e-15
5.61392e-15
3.76732e-14
1.16516e-14
1.6247e-14
1.77927e-16
2.47905e-14
1.55829e-14
6.51527e-16
4.65208e-15
2.34847e-17
3.80605e-16
2.04943e-16
5.47592e-16
1.49923e-16
5.54915e-16
5.37566e-15
2.68252e-14
7.96473e-15
1.35306e-15
3.6095e-15
3.81352e-16
2.17557e-15
2.01773e-15
7.16196e-16
4.87056e-16
7.34449e-17
1.12412e-14
8.75317e-13
9.15017e-16
1.44882e-14
2.83238e-15
7.42757e-16
8.74216e-15
1.85177e-14
6.9374e-15
1.12512e-14
7.48213e-15
4.25975e-15
1.374e-15
1.53459e-16
4.4393e-16
3.06201e-16
4.54032e-15
2.92186e-14
3.04117e-16
2.81214e-15
4.36217e-14
1.69591e-16
1.85798e-15
1.3462e-14
8.05349e-14
3.21759e-15
5.68168e-16
3.37644e-15
2.29946e-15
6.02855e-13
3.02532e-15
6.04468e-15
6.07227e-16
3.29466e-14
3.45554e-15
2.74607e-15
7.16418e-16
7.45608e-16
2.68482e-14
1.00029e-14
1.86842e-15
6.94531e-15
5.10765e-16
7.89624e-15
1.41409e-14
6.20386e-16
2.45274e-16
5.58161e-14
2.11879e-14
2.86074e-14
1.87881e-14
2.91112e-14
2.74888e-14
3.70536e-14
6.56642e-16
1.26306e-14
3.70657e-15
3.98962e-15
7.64304e-14
5.821e-14
8.26578e-15
1.07985e-15
4.0884e-14
1.18397e-14
4.97066e-15
8.56788e-16
6.73653e-14
1.74287e-14
6.7262e-16
2.02508e-13
6.06134e-16
4.79875e-14
7.4581e-14
3.67432e-14
2.16403e-16
9.50997e-15
9.63671e-15
6.84761e-14
1.58143e-14
2.54583e-14
5.80423e-15
5.48102e-15
5.28684e-15
1.41621e-14
1.85308e-14
3.90609e-16
9.60352e-16
1.54963e-14
1.12267e-14
1.91909e-15
0.00516594
1.59613e-13
4.82082e-14
7.85735e-15
1.54428e-15
8.63757e-16
1.72238e-14
9.53576e-15
8.74712e-15
2.62321e-14
1.71474e-15
2.25304e-14
1.59162e-14
1.01817e-14
1.33336e-16
2.96059e-14
1.93957e-14
2.13964e-16
5.28462e-15
1.04628e-14
4.33506e-15
2.77687e-14
7.65208e-15
2.45753e-15
1.59906e-13
1.46481e-13
1.78356e-15
5.64245e-15
5.74046e-15
3.65643e-14
1.38215e-13
2.99802e-16
1.70461e-14
2.04029e-14
8.85883e-16
6.95715e-16
3.22365e-16
8.14494e-15
1.26386e-14
2.22236e-14
1.18506e-15
1.06856e-14
1.0638e-15
4.59906e-15
2.98812e-16
7.97938e-13
5.76671e-14
7.57867e-14
2.57667e-15
6.53671e-13
6.25478e-15
1.77107e-13
2.15017e-16
1.51048e-13
3.65662e-15
3.26476e-15
3.48928e-14
6.33305e-16
1.40928e-15
9.23721e-15
1.69958e-13
4.68817e-13
8.09104e-14
1.72973e-14
2.85333e-15
1.44152e-15
3.16359e-14
9.70718e-14
4.25421e-16
6.52614e-14
8.25159e-14
1.11866e-16
6.31212e-14
2.59489e-14
2.21965e-16
3.96223e-14
7.23709e-15
1.06246e-13
1.43783e-14
5.05884e-14
3.05143e-14
1.05265e-15
3.66524e-14
1.28302e-14
2.3777e-14
1.78172e-15
6.14669e-16
1.3902e-14
8.22705e-14
1.15324e-13
4.05678e-14
1.79646e-14
2.55616e-15
1.19683e-13
6.81105e-15
5.14036e-13
1.61009e-15
8.48584e-14
1.516e-13
1.6296e-15
6.32318e-15
4.17317e-14
3.59163e-15
4.5747e-15
3.53931e-14
2.45441e-15
2.80494e-15
4.49196e-15
4.7073e-15
9.64419e-15
5.90732e-14
1.41498e-14
2.19611e-15
1.78392e-16
3.96733e-13
2.37122e-15
1.55809e-15
2.17815e-14
3.27113e-14
9.20817e-15
1.37946e-14
1.53877e-15
3.52213e-14
1.34046e-14
6.9538e-15
3.71177e-14
4.84168e-14
2.81724e-17
6.69915e-15
0.0051412
4.9822e-16
3.35536e-15
2.90357e-15
4.21462e-15
3.496e-14
8.74747e-15
2.02257e-14
2.04264e-15
4.74797e-14
3.38338e-15
8.49469e-15
8.95223e-15
3.90208e-15
3.27098e-16
2.42321e-17
3.94574e-16
1.16587e-16
2.99364e-14
7.57022e-15
7.03672e-16
2.9535e-17
6.06046e-15
6.81678e-14
4.57163e-16
7.49815e-15
3.75415e-17
2.37428e-15
2.13345e-15
5.30979e-16
3.18382e-14
2.93973e-14
2.60773e-15
2.93297e-14
8.7319e-14
4.73311e-15
5.0281e-16
1.79165e-17
1.35119e-15
1.88193e-14
6.37924e-15
6.35055e-16
3.68345e-14
3.42743e-14
3.23494e-15
1.6363e-14
2.45868e-14
2.11872e-15
1.25419e-16
5.15641e-15
3.07874e-16
1.35528e-15
1.4879e-14
5.87745e-16
8.34006e-17
1.22491e-14
2.43656e-16
1.82904e-15
7.65709e-15
2.67265e-14
2.85876e-14
2.87683e-17
9.92297e-15
4.94999e-15
1.74296e-14
3.40674e-15
1.46024e-15
3.43327e-14
1.07255e-14
8.47339e-16
1.47415e-14
2.67455e-14
8.2958e-17
3.79855e-15
9.70367e-16
4.92843e-14
4.6756e-15
2.42819e-14
4.03442e-16
6.58579e-16
1.43779e-14
7.14639e-16
3.65534e-15
4.82517e-13
1.60994e-15
5.57113e-16
7.91659e-16
5.51677e-16
7.3463e-16
1.16619e-15
3.10724e-15
1.88946e-15
9.28499e-15
7.4307e-15
1.88227e-16
4.87213e-14
5.59766e-14
2.45504e-15
2.6493e-14
7.10603e-16
6.65611e-15
6.12671e-14
9.41313e-15
1.0213e-15
1.45144e-15
1.11677e-16
3.94515e-14
1.33288e-14
7.08889e-14
1.5363e-14
1.37698e-14
2.297e-15
3.87481e-16
9.82941e-15
2.50765e-16
1.01804e-14
3.34496e-14
1.41629e-14
5.41752e-15
0.00979445
9.02859e-16
1.83599e-15
1.75976e-16
3.65609e-14
1.46872e-13
1.1294e-14
6.75372e-15
1.92016e-15
2.68313e-14
1.41912e-15
4.4009e-15
7.33805e-15
1.22306e-14
8.84562e-15
4.06082e-14
2.50127e-14
4.68342e-15
1.52829e-14
2.80218e-15
7.12719e-15
1.34283e-15
3.82932e-15
4.8458e-14
2.4611e-15
3.49969e-15
8.88286e-16
4.65417e-15
9.59213e-15
1.0148e-14
2.1743e-15
2.72724e-14
1.1153e-16
9.42696e-15
4.02604e-15
2.03949e-14
3.16269e-14
6.789e-15
3.39136e-14
2.96212e-14
1.14813e-14
6.00632e-14
1.27631e-14
5.85148e-15
6.20625e-15
3.23708e-16
1.09384e-14
2.32547e-14
1.04716e-13
1.00965e-16
9.14688e-15
4.62741e-15
8.5102e-15
1.90619e-14
1.63724e-16
4.18738e-16
2.13885e-14
1.11334e-14
3.21498e-15
4.48585e-15
1.70705e-15
9.80683e-16
2.32607e-15
3.47597e-15
4.72447e-15
9.69286e-16
9.13061e-14
2.20651e-14
1.17654e-15
1.10691e-14
2.62991e-14
1.4409e-15
1.77544e-14
1.17622e-13
8.04463e-16
2.90235e-15
2.60647e-15
1.55093e-14
2.67219e-14
9.05858e-14
8.48949e-15
3.2777e-15
1.53892e-14
1.34087e-15
1.22757e-16
1.17387e-15
2.6646e-14
5.38325e-14
9.89555e-15
5.18975e-14
1.26862e-15
4.29234e-14
5.62767e-15
1.07681e-14
1.42338e-13
2.3764e-15
2.33082e-14
4.06577e-14
2.61749e-15
6.38329e-16
1.26559e-15
1.99743e-14
9.12782e-15
3.88032e-15
1.14293e-15
1.56624e-14
3.075e-14
5.34378e-14
2.95962e-14
2.90767e-16
4.00944e-15
1.9716e-14
1.8042e-14
3.72364e-15
1.7038e-14
5.9055e-13
6.09794e-14
5.3826e-15
8.60678e-15
3.04601e-15
3.34093e-14
6.33285e-16
1.87008e-14
3.93294e-14
7.65088e-16
2.78472e-14
1.32362e-15
3.6769e-15
1.86452e-15
1.98454e-15
4.01542e-14
6.46684e-17
6.49216e-15
4.65223e-15
1.00507e-15
4.7033e-15
1.26497e-14
2.12578e-15
9.24415e-15
4.34932e-16
6.76004e-13
3.2169e-10
2.29772e-14
5.07271e-15
1.47956e-14
2.82439e-15
1.02574e-15
2.50203e-15
2.32231e-14
1.07186e-15
5.97032e-14
1.00983e-14
6.73863e-15
1.26167e-13
2.87383e-16
1.35056e-14
1.17522e-14
1.71618e-15
1.42676e-14
2.10305e-14
5.88863e-17
1.07057e-15
9.65429e-16
1.49055e-14
1.10343e-13
2.94614e-15
6.79065e-15
1.28699e-14
4.24462e-15
1.7653e-15
1.09723e-14
7.16621e-16
4.42714e-15
2.92837e-16
1.62903e-15
2.54345e-16
5.54932e-15
9.03307e-15
6.62167e-14
4.05795e-18
2.07877e-15
1.5281e-15
5.40347e-15
2.31144e-15
2.93788e-15
3.74306e-15
5.92581e-18
1.08111e-15
1.08435e-15
6.60563e-15
1.71241e-15
3.86171e-16
1.23775e-13
2.73863e-14
1.08423e-13
2.9353e-15
5.50458e-14
3.46962e-17
1.1914e-12
1.26457e-15
2.19992e-16
2.49417e-15
1.82853e-14
1.35348e-13
2.07436e-15
1.34224e-17
3.67101e-15
2.3179e-16
5.32904e-16
5.51181e-14
2.49864e-15
1.12099e-15
3.58151e-17
2.25707e-12
8.26279e-15
6.14117e-15
2.18147e-14
8.76325e-15
4.16778e-15
1.80242e-14
1.86823e-15
6.73913e-17
5.23489e-15
6.44925e-17
3.9632e-15
4.40054e-15
6.99259e-15
2.86324e-15
1.72614e-14
2.60151e-15
3.46553e-14
5.43558e-16
1.55677e-16
1.77165e-14
3.29678e-14
1.69825e-15
2.56179e-14
6.13455e-15
3.04359e-16
7.17414e-15
9.36122e-16
9.4543e-13
4.88209e-16
8.99907e-14
1.57552e-13
5.13886e-15
9.40894e-15
1.22593e-14
1.53863e-15
1.94692e-15
1.44236e-16
5.15406e-15
2.20852e-15
7.50257e-15
7.6691e-15
9.42094e-16
2.98434e-14
1.12421e-13
3.18404e-14
7.82674e-15
6.74074e-16
2.91218e-15
1.23735e-14
2.82001e-14
3.28687e-16
3.75431e-16
8.9323e-17
1.49806e-16
6.47485e-15
2.44031e-16
5.5911e-17
1.4231e-14
3.31493e-16
5.33462e-16
7.68594e-15
5.54937e-15
2.11902e-15
5.35682e-16
1.86404e-14
4.88746e-15
5.38181e-15
4.98338e-14
3.84555e-15
2.11416e-15
0.000142414
1.17925e-15
5.1061e-14
2.0956e-15
1.54072e-11
4.15672e-13
1.27099e-15
1.98876e-13
7.4561e-18
1.29511e-14
2.95371e-14
9.35876e-16
2.14362e-16
1.8473e-14
3.32469e-14
8.36749e-15
1.0332e-16
1.19599e-14
8.21069e-14
1.54185e-14
6.54436e-15
1.2359e-13
7.80123e-16
2.49037e-14
1.02965e-16
3.15404e-15
6.93187e-15
1.60812e-14
4.54827e-15
3.57525e-14
8.25614e-16
9.89649e-16
2.38091e-14
8.36749e-16
8.00995e-16
7.69324e-15
3.04005e-14
1.27054e-14
9.58505e-16
1.6401e-16
4.77275e-14
7.80249e-15
2.08904e-14
9.5269e-15
1.90446e-13
1.4369e-14
2.82497e-14
5.05423e-17
7.91009e-15
1.88987e-14
9.31685e-16
4.14914e-15
2.22091e-16
1.0344e-14
3.14257e-14
4.31055e-14
3.36295e-14
4.85588e-16
1.07482e-15
7.76779e-15
1.20649e-12
8.0803e-16
5.69938e-15
3.53739e-14
3.79374e-07
1.09103e-14
3.8168e-14
2.56642e-14
5.79527e-15
5.91021e-15
1.20517e-14
9.22657e-15
4.40999e-15
1.27567e-15
7.34813e-13
3.0528e-16
6.76675e-15
3.51064e-14
1.10025e-15
7.12154e-13
5.17451e-15
5.05516e-15
2.14538e-15
3.04544e-15
1.52598e-14
1.05538e-16
2.62624e-15
2.05411e-15
6.09569e-15
2.20011e-13
5.32931e-15
1.0817e-15
1.21253e-15
6.77901e-15
6.20577e-17
9.68162e-17
7.22694e-15
4.27173e-15
1.16617e-16
4.84314e-15
9.78573e-16
1.19757e-15
1.51673e-15
1.98928e-16
5.53593e-14
2.38295e-15
7.69933e-17
1.21732e-15
2.59744e-14
3.95649e-09
8.2181e-17
3.49926e-15
4.68952e-15
1.04802e-15
2.30299e-15
1.44969e-16
1.47793e-15
1.57463e-14
5.13805e-16
1.24152e-13
5.4073e-15
6.00146e-17
1.29553e-14
1.15561e-15
4.02617e-15
9.09711e-15
4.23363e-15
2.00647e-14
1.67347e-15
3.99644e-15
1.34218e-15
7.11192e-16
5.4749e-16
4.52362e-14
6.04641e-15
5.6511e-15
3.07254e-15
1.71143e-15
4.53358e-14
1.42914e-13
2.19614e-15
2.09064e-14
8.62462e-05
1.21887e-14
9.88447e-16
4.58336e-15
1.54665e-14
6.17798e-13
1.29609e-14
8.06231e-15
4.44923e-14
4.84945e-14
1.13561e-07
7.10904e-15
3.14214e-16
2.98825e-15
3.79617e-16
2.91708e-14
6.49676e-14
1.90251e-15
6.29144e-16
1.26119e-15
9.36216e-15
5.87842e-16
2.72964e-15
4.34209e-15
1.41778e-14
1.76147e-15
2.98793e-15
3.41408e-15
1.12991e-15
1.63795e-14
1.436e-14
3.093e-15
9.08694e-15
1.48549e-15
0.0101231
6.30935e-15
7.64417e-14
6.26868e-15
1.93908e-14
1.28794e-16
1.29081e-14
6.54166e-17
3.3381e-15
3.93822e-16
9.07901e-15
1.79417e-16
3.74597e-14
4.01494e-16
3.10784e-14
6.21641e-15
9.78273e-15
1.88719e-14
6.07286e-14
1.14597e-16
1.28783e-14
2.46377e-15
2.66784e-15
1.31452e-15
1.41087e-16
1.0565e-14
8.87777e-16
1.80293e-15
3.38176e-14
2.00452e-14
3.58234e-15
7.97731e-15
6.86152e-15
2.58755e-15
1.08144e-14
3.30419e-15
4.29082e-16
2.11907e-14
7.59621e-14
9.56479e-15
5.16834e-15
2.86341e-14
1.55399e-13
4.61578e-16
3.18821e-15
3.26849e-14
3.02141e-14
1.02043e-14
1.1209e-14
9.89988e-16
1.10156e-15
1.43601e-15
7.3106e-15
1.36903e-15
1.76284e-15
5.84074e-16
6.76255e-15
1.19367e-15
1.84552e-15
1.77137e-15
6.03716e-15
2.783e-14
9.36741e-16
1.55263e-14
1.21903e-14
7.87342e-15
3.48628e-15
1.98585e-14
2.36498e-16
4.92289e-15
3.93581e-16
2.37723e-14
5.14408e-15
2.74575e-14
3.65195e-14
3.80136e-15
1.12835e-14
9.66363e-15
5.05543e-15
6.6359e-15
1.70242e-16
1.48397e-15
2.12679e-15
8.5696e-16
6.43291e-16
1.21989e-13
2.18975e-14
8.09449e-15
1.2311e-14
1.2416e-13
2.39958e-14
6.11787e-16
3.09686e-15
8.32283e-14
3.85675e-15
1.09596e-16
1.21258e-14
3.99215e-15
3.91782e-15
2.18748e-16
2.43133e-15
1.29293e-13
1.25509e-15
1.15215e-15
1.38949e-14
3.59172e-14
2.35614e-15
2.72785e-14
2.09655e-15
9.06698e-18
3.63451e-15
1.11147e-15
6.1167e-14
4.27376e-15
1.17543e-15
4.86768e-14
2.30602e-14
3.89171e-14
5.81984e-15
2.63462e-14
5.97142e-14
6.68257e-15
2.01927e-15
5.68374e-16
1.03821e-15
8.6217e-16
1.01406e-15
7.26898e-15
3.38122e-14
1.37064e-13
2.5567e-13
2.4384e-07
1.31049e-13
1.11328e-14
7.30714e-15
4.50487e-15
8.77246e-16
8.29923e-14
2.72603e-15
3.32098e-15
3.50626e-14
2.97107e-14
9.04413e-17
1.52737e-15
1.18786e-15
1.3445e-14
2.8016e-15
3.77204e-14
1.40142e-15
9.16233e-17
2.4191e-15
8.26527e-15
3.34441e-14
1.91102e-14
2.33585e-15
5.36003e-14
1.73433e-16
4.20029e-16
2.62463e-14
1.77217e-15
1.37141e-14
6.03505e-15
6.43073e-15
1.56306e-14
1.11459e-14
3.58203e-15
6.6644e-17
6.31642e-15
7.97973e-15
2.2933e-15
3.67681e-15
1.32799e-15
1.95539e-13
6.58597e-15
7.85521e-15
1.73227e-15
2.72401e-14
1.45029e-14
2.61884e-16
1.02674e-14
8.57322e-15
2.84012e-15
8.35273e-16
1.05158e-14
1.16168e-13
1.7816e-16
5.00004e-15
3.77253e-15
9.52332e-15
2.93859e-07
1.48445e-07
5.61391e-14
8.15963e-17
3.91158e-15
1.00619e-14
1.12532e-14
4.95363e-16
1.25928e-15
5.83476e-16
4.57288e-17
8.33953e-15
1.72074e-15
8.58957e-17
8.33948e-17
1.40371e-15
2.60827e-16
4.38271e-14
3.99353e-16
5.14061e-16
4.15109e-14
2.16402e-14
4.97806e-15
2.24915e-10
1.50997e-17
3.40491e-15
3.4337e-13
2.73802e-16
7.5989e-14
2.12594e-15
7.83884e-15
6.20037e-15
3.13477e-14
9.93112e-15
2.99405e-15
3.45326e-14
5.70717e-15
5.27366e-15
2.66016e-16
1.22664e-15
7.57363e-16
4.0759e-15
2.1295e-14
2.36244e-13
4.09146e-15
4.32272e-16
6.11642e-13
7.7725e-15
1.66499e-15
4.96671e-15
1.2444e-14
1.38333e-14
6.1008e-17
6.53565e-15
5.02997e-15
6.44794e-15
3.49142e-16
9.15177e-15
1.40484e-15
2.18884e-14
2.37726e-14
3.18339e-14
6.30865e-16
2.68817e-15
1.42563e-15
9.55258e-14
4.97002e-15
1.1132e-14
6.92765e-15
7.1861e-16
3.76088e-14
1.64529e-15
2.34131e-16
1.48906e-14
3.62316e-15
4.51301e-15
2.29453e-15
5.84438e-16
6.69064e-15
2.61233e-16
1.16104e-16
8.60812e-15
6.31658e-15
1.63251e-16
4.54697e-16
2.6898e-15
7.13029e-16
4.29787e-15
2.0583e-15
4.2463e-15
2.74202e-14
2.18823e-14
2.3791e-16
3.82797e-15
1.57228e-14
3.34929e-16
2.06574e-16
2.47917e-16
6.16421e-16
9.47844e-16
6.77673e-16
1.11468e-15
2.04715e-16
1.26817e-14
8.24364e-15
1.6798e-13
3.66033e-14
3.48786e-15
2.74166e-15
4.17011e-15
2.56533e-15
2.28761e-16
4.07317e-15
1.26566e-15
5.82791e-13
6.77032e-17
3.99064e-14
4.86807e-15
4.02464e-13
7.13757e-17
3.19739e-12
7.12681e-15
6.08351e-16
1.3123e-15
2.13426e-15
2.7485e-16