/*--------------------------------*- C++ -*----------------------------------*\
  =========                 |
  \\      /  F ield         | OpenFOAM: The Open Source CFD Toolbox
   \\    /   O peration     | Website:  https://openfoam.org
    \\  /    A nd           | Version:  10
     \\/     M anipulation  |
\*---------------------------------------------------------------------------*/
FoamFile
{
    format      ascii;
    class       surfaceScalarField;
    location    "6.4";
    object      phi;
}
// * * * * * * * * * * * * * * * * * * * * * * * * * * * * * * * * * * * * * //

dimensions      [0 3 -1 0 0 0 0];

internalField   nonuniform List<scalar> 
214403
(
-0.00673111
0.00516151
0.000285003
0.00128459
-0.0033261
-0.0111822
0.000950984
0.0135574
-0.0102111
6.78609e-05
-0.000138852
0.0102821
0.00885965
-0.005957
-0.0148502
0.0119475
0.0122465
-0.0154846
0.00368828
-0.000450152
-0.00535878
0.00558147
-5.41692e-05
-0.000168521
-0.000850297
-0.0016156
-0.00919392
0.0116598
-0.0169502
0.00964573
-0.0025463
0.00985072
-0.0232243
0.0163931
0.0165454
-0.00971432
0.0141537
0.00167987
-0.0158169
-1.66149e-05
0.00502093
-0.0099458
0.002046
0.00287888
-0.010309
0.00324282
0.00534254
0.00172367
0.000474549
-0.011408
0.0137392
-0.00280576
-0.00991556
0.00997946
-6.39015e-05
0.00191279
0.0118939
-0.0152463
0.00143963
-0.012018
0.0100474
0.00304473
-0.00107407
-0.0120896
0.0117951
0.000294484
0.0039178
-1.64293e-05
-0.000984565
-0.0029168
0.0156355
-0.00935745
-0.0207897
0.0145116
-7.57136e-05
-0.00310241
9.10088e-05
0.00308711
0.00639879
-0.00624877
-0.000150015
-0.0123014
-0.00425558
0.00423147
0.0123255
-0.00227788
0.0135985
-0.0109613
-0.000359327
0.0067071
0.000704584
0.00233971
-0.0097514
-0.0102151
-0.00490696
0.0132232
0.00189882
0.00919142
-0.0116414
6.93889e-05
0.00238064
0.00321818
-0.0028172
0.0105439
-0.0109448
0.00761787
0.00996456
-0.0120032
-0.00557925
0.011144
-0.00698973
-0.00031709
-0.00383718
-0.00586071
0.00597375
-0.000113045
0.00243108
-0.00506274
0.0135039
-0.0108723
0.0140915
0.000667933
-0.00245873
-0.0123007
-0.00562142
-0.00576906
0.00590806
0.00548242
-0.001195
-0.00674
0.00597068
0.00196433
0.00440409
-0.00303434
-0.00938724
0.00801749
-0.0017056
0.00850862
-0.00307393
-0.00372908
0.0159898
-0.000391538
-0.0155982
-0.00688008
0.0134193
-0.00653923
0.00124181
-0.0147234
0.00852503
0.00495659
0.00244977
-0.000984802
0.00599546
-0.00746044
0.00568832
-6.00625e-05
-0.00562825
0.010217
-0.00021997
0.00181081
-0.0118079
-0.0129607
0.00162812
0.0137823
0.000860825
0.000881947
0.00860321
-0.010346
-0.00410541
-0.0268212
0.0260128
0.00491386
0.00570328
0.00102971
0.00128928
-0.00802227
0.00422962
0.00319854
-0.0103308
0.00290264
0.0133281
0.00798745
-0.0146084
0.00120603
0.0113084
-0.00229736
0.0018173
-0.00681019
-0.00400865
0.00900155
0.00310056
0.00476363
0.00141915
-0.00928333
0.00184685
-0.00138706
-0.00427
0.00381022
0.00686422
-0.0124234
0.00865972
0.0118737
-0.0111795
-0.00383456
0.0031404
0.0106275
-0.00194594
-0.00857516
0.0116257
-0.000493461
-0.00255704
0.00883033
-0.0112915
0.000130123
0.00233101
-0.008263
0.000546164
0.0132042
-0.00548733
-0.0152933
-0.0143752
0.0120712
0.0175972
-0.00817722
0.00822755
0.00161828
-0.00166862
0.00129016
-0.0104522
-0.00856666
-0.00017838
0.00445321
0.00429183
-0.0133839
0.00574613
0.00865937
-0.00102163
0.0157022
-0.0126475
0.000807372
-0.00386204
0.000721267
0.000263344
-0.0103295
0.00934484
0.000519201
-0.00284677
0.0140777
-0.0117501
-0.0347818
0.00363205
0.00387521
0.0272745
-0.00320696
0.00944285
-0.00299145
-0.00324444
0.00464171
-0.00244314
-0.00990287
0.0077043
0.00111346
0.00692503
-0.00880242
0.000763924
-0.000171376
0.00848643
0.00295142
-0.0112665
-0.00168569
-0.000266939
-0.00351
0.00546264
-0.00900221
0.00983869
-0.0003729
-0.000463582
0.000315246
-0.0090574
-0.00635938
0.00563274
0.00170974
-0.000983096
-0.0168798
-0.00106627
0.00823749
0.00970858
-0.005104
-0.0021746
0.00434202
0.00293658
0.0075074
-0.0251764
0.00349039
0.0141786
-0.00392046
0.00788991
-0.00430911
0.000339654
0.00562625
-0.00436811
0.000556463
-0.0018146
0.000128749
-0.0105846
0.0104558
3.31485e-05
0.00859237
-0.00862552
0.00757161
-0.0014807
0.00100333
-0.00709424
-0.00454322
0.0064821
0.00214839
-0.00408728
-0.00320142
0.0136386
-0.00327861
-0.00715856
0.00644222
-0.0109783
-0.000417577
0.00495367
0.0073606
0.00778207
-0.0151427
0.0108645
-0.0122099
0.00312855
-0.00178311
0.0010561
-0.00196024
0.0141842
-0.01328
0.000410771
-0.00229342
0.0102149
-0.00833224
0.0024248
0.0213725
0.00615782
-0.0299551
-0.0186913
0.0164434
0.0106619
-0.00841393
0.000858196
0.00658633
-0.00885583
0.00141131
0.00871801
0.00969221
-0.00317333
-0.0152369
0.0162055
-0.00984227
-0.000324995
-0.00603823
0.000708868
-0.00207755
-0.00652427
0.00789296
-0.00660254
3.75491e-05
0.006565
0.0098454
0.00033995
0.000679113
0.0122413
0.0010317
-0.0186134
0.00534044
-0.00981255
0.00216601
0.0017438
0.00590274
-0.0062309
0.001545
0.000766122
0.00391978
0.00152587
0.00109115
-0.0129435
0.0103265
-0.00265165
-0.0154321
0.00983885
0.00824494
0.00619047
-0.00732337
-0.0047721
0.005905
0.0100042
-0.000107707
-0.0100041
0.000107629
0.00765483
-0.0108188
-0.00375327
0.00691719
0.0198122
-0.00599499
-0.00308735
-0.0107299
0.0112435
-1.92171e-05
-0.0103404
-0.000883909
-0.00566864
0.00667535
0.0139111
-0.0149178
0.0121518
-0.0042673
-0.0116867
0.00380215
0.00223897
-0.00326796
0.0142247
-0.0131957
-0.0160542
0.0146321
0.0138708
-0.0124487
0.000723171
-0.0125051
0.00482585
0.00695611
0.0156513
-0.000825326
-0.000320916
-0.014505
0.0110449
-0.00215248
0.00213569
-0.0110282
-0.0127979
-0.0116389
0.0137749
0.0106618
-0.00242915
0.00696808
0.00188866
-0.00642759
-0.00546184
0.000297746
0.0105861
-0.00542201
-0.00121908
0.0137389
-0.0127871
0.000267323
-0.01186
0.0110143
0.00214409
-0.00129847
-0.000398379
-0.00692028
0.0165101
0.00218669
-0.00728315
-0.00532482
0.0104213
-0.0057807
7.58729e-05
0.00570483
0.00177232
0.00805937
-0.00745525
-0.00237645
0.0128679
-0.00741987
-0.00197206
-0.00347597
9.32195e-05
-0.00379943
0.00370621
-0.00724779
-0.00195366
0.00272358
0.00647788
0.000747969
0.0041174
-0.00923815
0.00437279
0.0157687
-0.00142401
0.00616302
-0.0205077
0.00112989
-0.00139551
-0.0190842
0.0193499
0.00122998
-0.00546275
-0.00721929
0.0114521
0.000461746
0.00993811
-0.000554453
3.99446e-05
-0.00585288
0.00581293
0.0120918
-0.00448584
-0.00541925
-0.00733007
0.00612174
-0.00603947
0.0133582
-0.0111175
-0.00134738
-0.000893346
0.00133709
-0.00632306
0.00276452
0.00222145
-0.0109021
-0.00330116
0.002216
0.0119873
0.00907434
-0.0147449
0.00971514
-0.00404457
-0.000404404
0.013317
-0.0133351
0.000422469
-4.17777e-05
0.0121358
-0.0120241
-6.99258e-05
-0.0169456
0.0135234
-0.0108548
0.0142771
0.0141393
-0.0136839
-0.000455393
-0.0129593
0.0173557
-0.00317121
-0.00122513
-0.0115787
0.00278488
-0.000873103
0.00966696
-0.0190836
0.00147017
0.0122697
0.00534375
0.003386
-0.00462408
0.00257517
-0.00467959
0.00532066
0.00855927
-0.00920034
-0.00506908
-0.00227496
0.00290089
0.00444315
-0.0068761
0.00449725
-0.0086831
0.011062
0.00206663
0.000167091
-0.015193
-0.00678131
0.00676691
1.43968e-05
0.0074016
-0.00711579
-0.000285805
-0.0111825
-0.000731227
-0.00297614
0.00275739
-0.0147172
0.0171372
-0.00517739
0.00662876
0.0114057
-0.0145056
-0.0035289
0.012663
-0.0137541
0.00036954
0.000721617
0.00675301
0.00175413
-0.00697928
-0.00152786
-0.0106619
-0.000592312
0.0140116
0.00614421
-0.000444166
-0.00749006
0.00179001
0.00692264
-0.00592801
0.00682891
-0.00782354
-0.0120566
0.00226465
0.0164207
-0.00407326
-0.00571245
0.0188653
-0.00907957
-0.00581258
-0.00640387
0.00155459
0.00173254
0.00459762
-0.0121427
-0.0082242
-0.0007266
0.0132151
-0.00426433
0.00128209
0.00202362
0.00734703
-0.0106527
-0.00391138
0.00957421
-0.00566282
0.00310292
-0.0148817
0.00537487
0.00886635
0.00619343
-0.0133272
-0.0125235
0.000151018
0.0156051
-0.0032326
0.00212375
0.00181934
0.00568432
-0.00962741
0.00844107
-0.00850613
6.50561e-05
0.00317021
-0.00119688
0.0106415
-0.0126149
0.011164
-0.00353912
0.00536807
-0.012993
0.0205365
-0.0066129
0.0153278
-0.0292514
0.003353
0.0062397
-0.00259203
-0.00700068
-0.00929714
0.00382561
0.0048743
0.000597231
0.00666244
-0.00501913
-0.00013752
-0.0015058
-0.00431018
-0.00546336
0.0159119
-0.00613832
-0.00746535
0.00968884
0.00386393
-0.00608742
0.0112391
-0.000614537
-0.00370192
-0.0174412
0.0115283
-0.000963221
-0.0166311
0.0153446
0.00712651
-0.00583999
0.0106102
-0.0119571
-0.00172617
0.00307311
0.00598669
-0.0108174
-0.00566592
-0.00617294
-0.00566348
0.00320098
0.00863544
-0.00881189
0.00273603
0.0086984
-0.00262254
0.0101888
-0.00969265
-0.00667506
0.00617894
6.35817e-05
-8.91359e-05
-0.00956658
0.00959214
0.000230515
-0.00839094
-0.000318516
0.00847894
-0.00242024
-0.0143422
0.00225301
-0.00829216
0.0074588
-0.00141966
-0.00563522
-0.00237397
-0.000802698
-0.000188417
0.0141425
0.000199649
-0.0337717
0.0237565
0.0171706
-0.00715542
-0.00998448
0.000680144
0.000362691
0.00894165
-0.00198483
0.0316252
-0.0372165
0.00757613
0.00158009
0.00243716
-0.00546911
0.00145186
-0.0213697
0.011514
0.00148874
0.00836701
-0.000252662
-0.0141856
-0.00201947
0.0164577
-0.00589369
0.0213864
-0.0148051
-0.000687554
0.00959389
0.0139482
-0.0128924
-0.0106496
-0.0114504
0.0109056
0.0135444
-0.0129996
0.00444546
0.00621182
-0.0077373
-0.00291997
0.00441916
-0.00298004
-0.00707435
-0.0227467
-0.000886292
0.0185787
0.00505435
0.00668706
0.00102347
-0.00388492
0.00686338
0.00918853
-0.00848397
-0.00756794
-0.011359
0.00253048
0.0110809
-0.00225236
0.00134993
0.00356932
0.0124364
-0.013185
0.013019
0.0012624
-0.00109639
0.00816014
0.006403
-0.00576875
-0.000228222
-0.00162345
0.00762042
-0.00871507
-0.00173391
0.0048467
-0.0167865
0.00714085
0.00479894
0.000511007
0.00906501
-0.0100579
0.000481878
-0.00348607
0.000674371
-0.00324125
0.00605295
0.014027
-0.0100259
0.000418086
-0.00794569
-0.00621609
0.00836183
0.00579995
0.0300297
-0.0321238
0.0104933
-0.00839923
-0.00577366
0.00717411
0.00288987
-0.00429032
-0.0131867
0.00573063
0.0114955
-0.00403945
-0.00571214
0.00829232
0.0106662
-0.0132464
0.0160073
-0.0061859
-0.0105949
0.000773551
0.000278201
-0.00388884
0.0094602
-0.00584957
-0.00164419
0.00163016
-0.0125095
0.0115037
0.00373714
-0.0123155
-0.00292533
0.0144487
-0.0118527
-0.00318833
0.00303101
0.00448175
-0.0106064
0.00309366
-0.00594791
-0.0109002
0.00968536
0.00716275
-0.00181275
-0.00470613
-0.00142682
0.00590215
-0.00630536
0.0135877
-0.0131845
0.00142985
-0.0164555
0.0150257
0.00558934
-0.00731533
0.004757
0.00304578
0.00175604
0.00249773
-0.00729955
-0.000310179
-0.0137112
0.0140214
-0.00749395
0.000995678
-0.00243178
0.00893005
-0.000898549
0.010388
-0.00946704
-2.23914e-05
-0.00705051
-0.00373218
0.00407132
0.00671137
-0.00262833
-0.00623492
-0.00578978
-0.00851067
0.0070985
0.00720196
0.000312864
-0.00873098
0.015031
-0.00618027
-0.000800248
-0.0080505
0.00799271
-0.000764147
-0.00583106
-0.00139751
-0.00129746
0.0112451
-0.0140115
0.0040639
0.00724608
0.000278688
0.0035275
-0.0110523
-0.000265683
-0.00595624
0.00287805
0.00334387
-0.00413224
0.00537629
0.0103899
-0.011634
-0.0146243
-0.00378234
-0.00408453
0.0134562
-0.0125177
0.000294102
0.00392157
0.008302
0.00120864
-0.00443841
-0.00789345
0.0111232
-0.00574584
-0.0112166
0.00283033
0.0141321
-0.00522261
-0.00579933
0.00602125
0.0050007
-0.0135395
0.013033
0.0137547
-0.0132481
-0.00183871
-0.00321199
-0.00966903
0.0147197
-0.0132375
0.00133916
0.0134739
-0.0015755
-0.00230152
0.00617099
-0.00386947
-0.00536221
0.00991188
-0.00746164
0.00291197
-0.000230036
0.0177706
-0.00660018
-0.0109404
-0.00636065
-0.00307366
0.0127631
-0.00332879
0.00205136
-0.00537879
0.0122068
-0.00887933
0.000560196
0.00794385
-0.0013917
-4.60018e-05
-0.0129982
0.0129922
5.19595e-05
0.0148604
-0.00263172
-0.0217204
0.00949168
-0.0137239
-0.00134483
0.0171355
-0.00206673
-0.00744829
0.011253
0.000923767
-0.00472843
0.00663229
-0.00655095
-8.13453e-05
-0.00792124
0.00076525
-0.00683508
0.0139911
-0.0114292
0.0157511
-0.00328447
-0.00103745
0.0071235
-0.00298735
-0.00858989
0.00445374
-0.0137649
0.0138858
-0.000120945
0.0113434
-0.0164946
0.00133366
0.00381755
-0.0128499
-0.00351777
0.0219745
-0.00560682
0.00948338
-0.000396324
-0.00199155
-0.00709551
-0.00540468
-0.0091669
0.0204737
-0.000963345
-0.0135267
0.0081847
0.0212585
-0.023714
-0.0022525
0.00470807
0.00571
0.00272159
-0.00630784
-0.00598147
0.00623587
-0.000254399
-0.00243222
0.013591
-0.000863822
-0.010295
-0.00296114
0.00351252
0.0118104
-0.0123618
0.00771626
0.0181162
-0.0105973
-0.0152352
0.0132659
-0.0159163
0.00506029
-0.00240989
0.0120379
0.00016821
-0.0122061
0.000223527
0.0117158
-0.0119393
0.0132088
-0.015989
0.0141236
0.00014279
-0.000120719
0.0102899
-0.010312
0.00026562
0.0187325
-0.0186643
-0.000333827
-0.00160041
-0.00473154
-0.00957771
0.0159097
-0.0058597
-0.00351144
0.00117653
0.0110905
-0.0192959
0.00702884
-0.00934393
-0.0024501
0.0100181
0.0017759
-0.0110521
0.0122041
-0.00326004
0.00210806
0.0017389
0.0090576
-0.00308147
-0.00771503
-0.00438274
0.00108439
0.00744624
-0.00414789
-1.35949e-05
0.00337653
-0.00423792
0.000874989
-0.0047066
0.0115134
-0.00663916
-0.000167661
0.0034404
-0.0108591
-0.00634612
7.65726e-05
-0.0101286
0.0100521
-0.00376807
-0.00361549
0.00167661
0.00570694
0.0056536
-0.00326156
-0.00239204
0.0141652
-0.0140658
-0.00287198
0.00277254
-0.00128738
-0.00837667
0.00772516
0.00193889
-3.53202e-05
4.75602e-05
0.00760699
-0.00761923
0.00379492
-0.00311902
-0.0120744
0.0113985
0.00875907
-0.000218649
-0.00854042
-0.01279
-0.00828205
0.012342
0.00873002
0.00749235
0.0117399
-0.0201956
0.00711501
-0.00256161
0.00400749
-0.00856089
-0.00285128
0.00282893
-0.0156927
0.0157151
0.0044398
-0.00874548
-0.00850871
0.0128144
-0.000896416
-0.00200674
0.00945773
-0.00655458
0.00659484
-0.00810518
0.00293703
-0.00142668
0.00362081
-0.00600193
-0.00580134
0.00818246
-0.0116523
0.0131194
-0.00349293
0.00202582
0.013277
0.0170779
-0.018806
-0.0115489
-0.0102657
0.0102215
4.41992e-05
-0.00115042
0.0121274
-0.0151468
0.0041698
0.000469865
-0.000768243
-0.0116572
0.0119555
0.0114385
0.000480684
-0.013164
0.00124481
-0.00489839
-0.00828017
0.0104125
0.00276601
-0.0118371
0.0167711
-0.00593824
0.00100425
-0.00486466
-0.00595019
0.00353169
-0.000724307
-0.000123307
-0.00838862
0.00923623
-0.0274048
0.000107557
0.00245334
0.0248439
0.00108298
-0.00695857
-0.0036017
0.00947729
0.0171158
-0.00140694
-0.00554067
-0.0101682
-0.0030418
-0.00658043
0.00127555
0.00834667
0.00481872
-1.73269e-05
-0.00480139
0.00804291
0.00428482
-0.0026685
-0.00965923
0.00622793
-0.00493238
0.0122855
-0.013581
0.000402283
0.0127797
-0.00422268
-0.00895934
0.00310239
0.0044288
0.00958465
-0.0061147
0.000437381
0.00567732
-0.00794454
0.00112622
0.00210698
0.0013322
-0.0109858
0.00754659
-0.0104071
0.0152281
0.00461455
0.015731
-0.00333511
-0.0170105
-0.00999717
0.00981345
-0.0155309
0.0157146
-0.00149844
-0.00751419
0.0026285
0.00638414
-0.00829301
0.0156536
0.00465235
-0.00541671
0.00121435
-0.000449996
-0.00513208
-0.016364
0.00512267
0.0163734
0.0107513
-0.0107297
-9.70119e-05
7.54061e-05
0.00869187
-0.0101493
0.00216314
-0.000705708
0.00223177
0.00872825
-0.0155498
0.00458978
3.79638e-05
0.00748924
-0.0075272
0.00486306
-0.0124609
0.00982962
-0.00470075
0.0126223
0.0106313
-0.0185529
0.00358677
-0.00365379
-0.0169869
0.017054
-0.00512095
0.00848403
-0.0170191
0.013656
-0.0121949
0.00971006
0.0127309
-0.0102462
-0.00763509
0.0104599
-0.00675817
0.00393338
-0.00161302
0.00702756
0.00114362
-0.00655816
0.00355477
-0.00518314
0.00534511
-0.00371674
0.00672011
0.00250047
0.00221042
-0.011431
0.0191075
-0.0129724
-0.000782239
-0.00535285
-9.01315e-06
-0.00926655
0.00927557
0.00580464
-0.00848866
-0.0260277
0.0287117
-0.00116626
-0.0126166
-0.00382375
0.0176066
-0.000765891
-0.00579979
0.00656568
0.00176884
0.00838604
-0.00132554
-0.00882933
-0.00233982
-0.00844564
0.00681577
0.00396969
0.00654641
-0.00548289
-0.00963019
0.0166743
-0.0129775
0.0036768
0.00389488
-0.00757169
0.0125934
-0.000290615
-0.00150851
-0.0107942
-0.00242118
-0.00411821
0.00653939
0.00449591
0.00298739
0.0251689
-0.0302731
-0.0106899
0.0157941
0.00386169
0.00822751
-0.0062926
-0.0057966
-0.00881215
0.0168723
0.0112101
-0.0192703
0.00993317
0.00344797
-0.00132927
-0.0120519
0.0164139
-0.0109448
0.00706276
-0.0125318
-0.00920727
0.00421017
-0.0115433
0.0165404
-0.01499
0.0268621
-0.0105277
-0.00134439
-0.000397758
-0.00640903
-0.00883318
0.01564
0.0121699
0.00502816
-0.0142807
-0.00291737
0.00651622
-0.0173713
0.010964
-0.000108891
-0.0153522
-0.000584889
0.0100451
0.00589195
-0.00307877
0.00796468
0.00346279
-0.0083487
-0.00195182
0.00782696
0.00629707
-0.0121722
-0.0160014
0.00823045
-0.000777505
0.00854843
0.00146279
-0.00435479
0.00865516
-0.00576316
0.00679254
-0.00341692
0.00242451
-0.00580013
0.00656975
0.00126358
0.000646808
-0.00848014
-0.00970217
0.0104074
0.00385808
-0.00456332
-0.00229879
0.0123057
0.000249054
-0.0102559
0.00992899
-0.00582932
-0.00384968
-0.000249983
0.00857806
6.51514e-05
-0.00864322
0.00627067
0.00485509
-0.00110108
-0.0100247
0.00293357
0.00774039
0.00662012
-0.0172941
-1.4437e-05
-0.0139105
0.0139249
-0.0072646
0.0280966
-0.00409459
-0.0167374
-0.000131309
0.0104699
-0.0103386
-0.000698957
-0.00753578
0.00135321
0.00688152
-0.013664
0.0069611
0.00528801
0.00141489
0.00279067
0.00231906
-0.0159757
0.0108659
0.00814868
0.012874
-0.00481112
-0.0162116
0.0122912
-0.0042117
-0.0117647
0.00368524
-0.015362
0.00876073
0.0234206
-0.0168194
-3.96109e-05
0.0058876
-0.00588764
3.96555e-05
-0.00609102
0.00602763
6.33895e-05
-0.0156257
0.000242054
0.00657148
0.00174624
0.00377258
0.0103288
-0.0158477
0.00814373
-0.00968619
0.00624744
-0.00470498
-0.00780761
0.00683781
-0.000259255
0.00122906
-0.00163024
-0.0128532
0.0164461
-0.00196267
-0.00575039
0.00276914
0.00910432
-0.00612307
0.00996286
-0.00384035
0.00146916
-0.00759167
-0.00661129
-0.00115276
0.00773937
2.46908e-05
-0.00113788
-6.11044e-05
0.0108071
-0.00960813
0.00137477
-0.00115686
0.0108152
-0.0110331
-0.0097287
0.013599
-0.0142512
0.0103809
6.48608e-05
-0.0122611
0.0121962
-0.00436703
0.000382375
0.0110093
-0.00702461
-0.00837253
0.00978825
-0.0133491
0.0119334
-0.00858352
0.000650882
0.00260782
-0.00397747
0.0107758
0.000599793
-0.00739815
-0.00286862
0.000399692
-0.00486114
-0.00424135
-0.0137775
0.0138404
0.00417853
-0.00613643
-0.000718827
-0.00154196
0.00839721
-0.0210332
0.00710726
0.00207614
0.0118498
-0.0066482
0.0152486
-0.00758362
-0.00101682
0.00463965
0.00182053
-0.0093288
0.00916084
0.00934156
-0.0185024
0.00124126
0.0200777
-0.00464419
-0.0166747
-0.000255625
-0.000357017
-0.00887236
0.009485
-0.0096482
0.0158916
-0.00640611
0.000162746
0.00915711
-0.00578187
-0.00829954
0.0049243
0.00228732
-0.000306743
0.0027999
0.0140709
0.00393049
-0.0203505
0.00234916
-0.00975249
-0.00127024
0.00319716
0.00782556
0.00368632
-0.00409382
-0.00554268
0.0169553
-0.0114066
0.00886527
-0.014414
-0.00187589
0.0109475
-0.0189334
0.00986178
0.00657657
-0.00831163
-0.000842192
0.00257725
-0.00726865
-0.00253009
-0.000246096
0.0100448
-0.00542362
-0.00512835
0.010552
0.00136371
-0.0145572
0.0129093
0.00028426
0.00558139
-0.00538235
-0.00562265
-0.00909314
0.01154
-0.00220065
-0.000246246
0.0130147
0.00358134
-0.0140232
-0.00257283
-0.00503395
-0.00735495
-0.000843551
0.0132325
0.00827706
-0.00251838
0.00959797
-0.0153567
-0.00921247
-0.000516228
-0.0110324
0.00590403
0.00141935
-0.0123509
0.00395184
0.00697968
0.00359459
-0.0128697
0.00708705
0.00218806
0.00192327
0.000504898
-0.00964819
0.00722002
0.00147432
0.00631775
-0.000427181
0.0108561
-0.00214504
-0.00828388
-0.00425834
-0.000437967
-0.00398195
0.00867826
-0.00252035
-0.00339493
0.00649113
-0.000575844
-0.010073
-0.000142082
-0.0170267
0.00611276
0.00896215
0.0242064
-0.000199177
0.00329997
-0.0273071
-0.0105933
0.016457
0.00333722
-0.00920084
-0.00301878
0.00165475
0.0104198
-0.00905579
0.00126202
0.00358251
-0.00277151
-0.00207302
-0.0182064
-0.00375764
0.0157118
0.00625227
0.000398587
0.00769108
-0.00154325
0.000235695
0.00387192
-0.0121492
0.00804161
-0.0075127
-2.66141e-05
0.00276997
0.00476934
-0.0103132
0.0127452
-0.00203341
0.00581959
-0.00524769
-0.000571901
-0.00858294
0.00123522
-0.00666852
0.0140162
-0.00388025
0.00583901
-0.00450057
0.0025418
-0.00835275
0.00940639
-0.00388697
0.00283332
0.00375529
-0.000619582
-0.00890082
0.00576511
-0.00373558
0.0234161
-0.0315175
-0.00339835
-0.00237174
0.0023223
0.00344778
0.0111179
-0.0173572
-0.000786613
0.00702599
-0.00469329
0.0035022
0.00603581
-0.00484472
-0.00139429
0.00741546
-0.00204352
-0.00397765
-0.00834335
0.00185107
0.00195018
0.0045421
-0.00465588
0.000400084
0.0042558
0.0107309
-0.00510987
-0.00544448
-0.000176515
0.000787187
0.00536246
-0.00813949
0.00198985
-0.00574508
-0.00696406
0.00710153
0.00560761
-0.00297589
0.00767797
-0.00658377
0.00188169
0.00277519
-0.00525356
0.00362086
-0.00114249
0.0100665
0.000272794
-0.0103393
0.00866917
-0.010675
0.00528334
-0.00327755
-0.0136076
-0.000394627
0.0140022
0.00560098
-0.00464711
0.00108414
-0.00203801
-0.000441933
0.00964803
-0.0105309
0.00132484
-0.00483554
0.00605365
0.00155708
-0.00537174
0.0115088
0.010634
-0.00914997
0.00906906
8.09053e-05
0.00024966
-0.0144623
0.0142127
0.0195441
0.00236103
-0.00417027
-0.0177349
0.00408312
-0.0159253
-0.00197397
0.0138162
0.00310045
0.00366373
0.0020643
-0.00882849
-0.00547709
-0.00548428
7.36902e-05
0.0108877
-0.00261474
0.0035923
-0.00645465
-0.0120483
0.00217657
0.0158157
-0.00594398
-0.0236517
0.0173211
0.00762457
-0.00129397
0.0104585
8.64775e-05
-0.0105449
-0.00594397
-0.00799947
0.005172
0.00877145
-0.00596841
-0.00866633
0.00258642
-0.0085896
0.00466425
0.00539967
0.00348932
-0.00453815
-0.0083306
0.00937943
-0.00587678
3.91496e-06
0.00587286
-0.0137077
0.00557288
0.00565994
0.00247484
0.00346136
-0.00925672
-0.00279424
0.0117767
-0.003736
-0.000296918
-0.00774376
-0.00790485
0.0130992
0.00777355
-0.0129679
-0.00232442
-0.00487825
0.00180046
0.00540221
-0.00333459
-0.00268206
0.00601665
-0.00581595
-0.0122246
-0.0056112
0.0027332
3.55479e-05
0.00551489
-0.00828363
0.0111967
-0.00815412
-0.011792
0.00874937
-0.0041546
0.00148109
0.00839378
-0.00572026
0.00787511
-0.00554369
-0.000780897
-0.00155052
-0.00903018
0.00146599
0.00705356
0.000510626
-0.00559373
0.0128508
-0.0139255
0.00542929
0.0004027
0.0080935
0.0130719
-0.0104444
-0.00822504
0.00559754
-0.0103948
0.00216289
0.0194287
-0.0100965
-0.00665621
0.0108656
0.00588707
-0.00117948
0.010516
-0.0039895
-0.00534699
0.000598049
-0.00619475
-0.00408535
0.00968204
0.0119721
-0.00789809
-0.000485816
-0.00358822
0.00370025
0.00276393
-0.00907891
-0.00251707
0.0028495
0.00702686
-0.00735929
-0.00208948
0.0109101
-0.0134466
0.00462594
-0.00654743
0.00157949
0.00158403
0.00338391
-0.0143485
0.0145945
-0.000246078
0.00988006
-0.00973925
-0.000140805
0.00397711
-0.015357
-0.00589714
0.0172771
0.00352038
0.0066945
0.00156179
-0.000168562
0.00585135
-0.00568279
0.00938037
0.00840822
-0.0177886
-0.0104157
0.00635869
0.00449439
-0.000437331
-0.00584937
0.00192765
0.00475553
-0.000833809
-0.017496
0.00816664
0.00959837
-0.000269041
-0.00566887
-0.00632075
0.00611284
0.00898458
-0.00141591
-0.00578856
-0.00178011
-0.00966005
0.0104337
-0.00636739
0.00170747
-0.0108352
-0.000555765
0.00968354
-1.26555e-05
-0.00532096
0.00533361
0.026158
0.000205126
0.00278631
-0.0291494
-0.000983003
-0.00192545
-0.0141836
0.017092
0.00453697
-0.0061429
-0.00286237
0.0044683
0.00176178
0.0135319
-0.00546913
-0.00982457
0.014755
-0.0147634
-3.3352e-05
4.17533e-05
-0.00827893
-0.00747032
0.0116759
0.00407333
0.00483339
0.0036973
-0.00963169
0.001101
6.73472e-05
0.00896047
-0.00915624
0.000128421
-0.0123312
0.00394995
0.00999367
-0.00161243
0.00947044
0.00572531
-0.00958763
-0.00560812
0.000223729
-0.00843531
0.00428376
-0.00219679
0.012668
-0.00681964
-0.000887865
-0.00106413
0.00877164
-0.0113815
0.000596377
0.0107851
0.0166697
0.00720187
-0.00540237
-0.0184692
-0.0108864
0.000234431
0.0108757
-0.000995898
-0.00259299
-0.00662138
0.0102103
-0.00130219
-0.00131361
-0.00350938
0.00612518
0.00274298
-0.0139175
0.0104934
0.000681144
0.00864122
-0.00134804
-0.0084088
0.00111562
-0.010696
0.00223887
0.000865147
0.00759202
-0.00407048
0.00266627
-0.00550598
0.00691019
0.00234228
0.00148676
-0.0137947
0.00996566
0.000481593
-0.00934706
-0.000650644
0.00951611
0.00927158
0.00121453
-0.000158302
-0.0103278
-0.011065
0.00257785
0.0100131
-0.00794389
-0.0105471
0.018491
0.0153331
-0.00781125
0.00330172
-0.0108236
0.00120503
0.00860892
-0.00527699
-0.0123974
0.00227984
0.00439435
0.00572319
0.0152996
-0.0157608
0.000461221
-0.00926164
-0.00314463
0.00648304
0.00592323
-0.0120159
-0.00933382
0.00625758
0.0150922
0.0125091
-0.0130645
-0.0015988
0.00215415
-0.00181868
0.00607303
-0.00478693
0.000532589
-0.0156734
0.00510739
0.00360308
0.00696291
-0.0230901
0.0287237
0.00477159
-0.0104052
0.0102937
-0.0223172
-0.00114613
0.0131697
-0.00915967
0.011645
-0.0215776
0.0190923
-0.00961205
0.0211747
0.00210401
-0.0136667
0.000845574
0.0100479
-0.00234505
-0.00854838
0.0152778
-0.0114593
-0.000385327
-0.00343325
-0.00268195
-0.00257576
0.00393638
0.00132134
-0.00723058
-0.01504
0.0128285
0.00944212
-0.0102473
0.01365
0.0118752
0.00833184
-0.00612472
-0.00763334
0.00542623
0.00307779
-0.0039827
-0.00175889
0.0026638
0.00680985
-0.0067348
-0.00897398
0.00889892
-0.00276179
0.00792318
-0.000573238
-0.00458815
-0.0109787
-0.0017516
0.0135759
-0.00827869
-0.00203558
0.0102348
7.94844e-05
0.00338866
-0.00757063
0.00418198
0.00270162
-0.00358794
0.0133671
-0.0124808
0.0104402
-0.0146806
0.00212601
0.00211445
0.00665684
-0.00718248
0.000525646
-0.0105274
0.000280129
0.00941365
-0.00358652
-0.00908369
0.00325656
0.00295831
0.00239844
0.0105172
-0.0158739
0.00649571
-0.00705224
0.000556527
-8.06606e-05
0.00818211
-0.00924963
0.00114818
-0.0115646
-0.00111455
0.0153808
-0.00498919
-0.000852688
0.00115261
0.00468927
0.000689127
-0.00569587
0.00420173
0.000805011
0.00933135
-0.00893138
-0.00221865
0.00107243
0.0154224
-0.00971448
-0.00678039
-0.00530679
0.0112173
-0.00591047
-0.0143651
0.00550153
-0.00336998
0.0122336
0.0113158
-0.0102539
-0.0167352
-0.00550662
-0.0065893
0.0226466
-0.0105507
-0.0161634
0.0102951
0.0146751
-0.00880689
-0.000360074
-0.0137908
0.0141509
0.0218824
4.41052e-05
-0.012609
-0.0093175
0.0126846
-0.00816978
-0.00112751
-0.00338726
-0.00925322
0.00656824
-0.00165816
0.00434314
0.000125651
-0.00950007
0.00937442
-0.00695309
0.00715677
-0.000203679
-0.00504665
-0.00533645
-0.013672
0.0240551
-0.0128754
0.0028084
-0.00143968
0.0115066
0.00298693
0.00484718
0.0132223
-0.011931
-0.00986665
0.00857537
-0.00366941
-0.00756447
0.0083447
0.00288918
-0.00762178
-0.00387605
0.0115091
-1.12532e-05
0.00249411
-0.00143597
-0.0070555
0.00599736
0.00841303
0.000373101
-0.010754
0.00196791
0.0025954
-0.00180415
0.00278667
-0.00336196
0.00334945
-0.00277416
0.0068793
0.00673654
-0.00687916
-0.00673668
0.00338235
0.00789946
-0.00817424
-0.00310757
0.00716904
0.00310828
-0.00563767
0.00888836
-0.0107776
0.00226232
-0.0118143
0.0082597
0.00444673
-0.000892141
0.0140351
-0.00464827
-0.0146936
-0.00373203
0.0100179
0.00502987
0.00977298
-0.00476067
-0.00823262
-0.00224366
-0.00133801
-0.0131366
0.0122933
0.00115492
-0.000311633
-0.000818089
0.016422
-0.00170246
-0.0139015
-0.0106686
0.00217018
0.00476641
-0.00171854
-0.0108511
0.00304935
0.0095203
0.00981369
0.00136162
-2.69717e-05
-0.0111483
-0.0146517
-0.000122909
0.000100317
0.0146743
-0.00377284
0.00412908
-0.00671291
0.00635667
-0.0100917
0.0127629
-0.0013186
-0.00135258
0.0132593
-0.0123824
-0.0109686
-0.00980992
0.00884777
-0.00280778
0.00376993
0.00791725
-0.000356731
-0.00249028
-0.00507024
-0.0148359
0.0143063
0.00701206
-0.00648246
0.00704069
0.0026816
-0.000894069
-0.00882822
0.00253794
0.00643096
-0.00804404
-0.000924863
-0.00476014
0.00478821
-2.8068e-05
-0.0027861
-0.00711346
0.00713778
0.0107454
-0.0106532
-9.22446e-05
-0.00606045
-0.00482739
0.00474493
-0.000634595
-0.00726392
-0.000795961
0.00869447
-0.000824211
-0.0063455
0.00567229
0.00149742
0.00997286
-0.0113353
0.00136241
-0.0127344
0.0130758
0.0119614
-0.0123027
-0.00858177
0.00662905
-0.00451528
0.006468
-0.00343409
0.00146766
0.00310949
-0.00114306
-0.000362636
0.0154942
-0.000136033
-0.0149955
-0.00783898
0.00380043
0.00386017
0.00448456
0.00570731
-0.00995766
-0.000234203
0.000431604
-0.012369
-0.000486028
-0.0112007
0.0111987
1.96807e-06
-0.00752234
0.00378757
-0.00828115
0.00254741
-0.00563688
0.000227109
0.004918
0.00213548
0.00740724
0.000144284
-0.00633435
-0.00121717
0.00620107
-0.015472
0.0124048
-0.00313384
0.00256735
-0.00349942
0.0130161
-0.0120841
0.0159523
0.00470348
-0.00245516
-0.0182006
-0.0040585
-0.00664967
-0.00215685
0.012865
0.00482802
0.0201221
-0.0181691
-0.00678098
0.0023186
0.0145767
-0.014071
-0.00282431
-0.00501367
0.000661801
0.010276
-0.00592413
-0.00176209
0.0143145
-0.00772436
0.0103516
-0.00817351
-0.00318938
0.00101133
0.00339078
0.00887263
-0.0122634
0.00829432
0.00184022
-0.00110487
-0.00902968
-0.00762629
0.0060946
0.000613167
0.000918523
-0.000744539
-0.0107979
0.000629003
0.0109134
-0.00792843
-0.00100654
-0.000331871
0.00926684
0.00456193
-0.0101152
0.000100547
0.00397633
0.0060383
8.53693e-05
0.00656849
-0.00665386
0.000813807
0.0115394
-0.0294849
0.0171318
0.0032583
-0.00821055
0.00780075
-0.00284851
0.00467622
0.00533825
-0.00369711
-0.00631737
4.79443e-05
-0.00589454
0.0058466
-0.00319662
-0.00226848
0.0129464
-0.00748127
-0.00395434
0.0132068
-0.0113989
0.00214649
0.0144343
-0.0100292
-0.00968628
0.00528123
-0.00593549
0.00402321
0.0018408
7.14752e-05
-0.000805841
0.00455778
-0.00244305
-0.00130889
0.0155264
-0.0121356
0.00721288
-0.000833723
-0.0118068
0.00542766
-0.00329324
0.00307948
0.00368958
-0.00347582
0.000186852
0.0148482
-9.19785e-05
-0.0149431
-0.0108367
-0.00356938
0.0146899
-0.000283816
-0.00307654
-0.00131842
0.00338118
0.00437904
-0.00644179
0.00876203
0.0061802
-0.0131112
-0.00183102
-0.0026982
-0.00176078
-0.0117354
0.0161944
0.0154542
-0.0122201
-0.0215385
0.0183044
-0.00600386
-4.57089e-05
0.00604957
-0.00729127
-0.00384838