/*--------------------------------*- C++ -*----------------------------------*\
  =========                 |
  \\      /  F ield         | OpenFOAM: The Open Source CFD Toolbox
   \\    /   O peration     | Website:  https://openfoam.org
    \\  /    A nd           | Version:  10
     \\/     M anipulation  |
\*---------------------------------------------------------------------------*/
FoamFile
{
    format      ascii;
    class       volScalarField;
    location    "6.4";
    object      SgT;
}
// * * * * * * * * * * * * * * * * * * * * * * * * * * * * * * * * * * * * * //

dimensions      [1 -1 -3 -1 0 0 0];

internalField   nonuniform List<scalar> 
111485
(
1.01115e-17
9.74099e-06
2.80559e-05
8.26324e-19
5.85561e-05
1.81097e-19
5.44536e-05
7.20572e-06
2.25844e-05
1.41528e-06
5.49033e-05
1.11973e-05
5.60001e-06
1.00043e-06
7.7598e-06
3.67272e-05
1.65844e-06
0.00308723
1.24165e-05
5.80474e-18
3.488e-18
2.35387e-18
3.09508e-05
4.1642e-05
1.05435e-05
1.84295e-18
4.78884e-05
2.16369e-06
1.86033e-05
9.4038e-19
5.46879e-05
2.23881e-05
5.40972e-18
1.35686e-19
8.55943e-06
2.79867e-17
1.31355e-05
4.95802e-06
5.15878e-11
2.77902e-05
3.32201e-18
8.50697e-05
1.88762e-05
1.66872e-06
6.7899e-08
1.57337e-17
3.65994e-05
8.55618e-07
5.68051e-05
3.36699e-18
3.82906e-18
5.42802e-17
3.14923e-18
5.99267e-05
8.88818e-18
5.20321e-05
3.86251e-06
2.22081e-18
2.65749e-08
5.70198e-06
1.9214e-05
1.37324e-18
5.50261e-06
0.000115406
1.4367e-17
3.92345e-06
0.000377306
0.000113516
1.27062e-06
7.0033e-06
1.45765e-08
7.49341e-06
1.10973e-18
3.33756e-06
1.50852e-18
8.2576e-07
2.95975e-18
5.01004e-05
6.59282e-18
4.18028e-18
4.97714e-09
3.99349e-05
1.20539e-17
3.2921e-18
1.0767e-05
4.805e-06
5.0541e-13
2.99346e-05
6.85209e-08
8.64685e-06
3.87066e-07
4.90894e-05
1.37251e-05
7.20662e-08
6.36155e-05
6.94091e-18
3.02262e-18
2.06169e-06
2.78458e-11
1.43281e-06
1.10556e-17
2.20039e-05
3.53839e-19
2.24392e-05
5.58842e-06
2.62219e-18
7.41917e-19
9.05526e-06
4.67733e-06
8.39472e-11
6.78359e-06
5.74265e-06
4.32546e-06
3.69554e-06
1.27245e-17
3.94032e-08
2.45125e-18
1.56189e-17
1.5003e-05
3.59374e-18
6.28784e-18
9.28525e-18
6.78306e-19
1.55714e-18
2.03469e-06
3.37628e-09
3.35203e-19
1.94868e-06
1.04986e-18
4.96766e-08
1.62169e-06
3.82714e-05
2.6292e-18
7.40699e-17
3.06497e-19
5.84485e-05
2.1047e-18
5.04854e-05
2.98555e-05
3.28524e-06
2.7188e-07
2.39913e-06
2.66918e-05
3.31952e-06
4.72827e-06
1.53995e-05
5.85335e-19
1.33476e-17
8.66758e-18
3.32103e-05
1.93819e-06
1.36207e-18
2.4662e-10
5.84394e-06
5.46152e-10
1.27016e-05
1.97782e-05
1.26556e-05
8.65367e-11
1.02729e-18
1.96949e-18
6.26734e-05
2.81818e-05
2.41254e-09
4.09112e-10
6.82772e-06
4.21438e-06
2.93365e-18
5.9148e-09
5.71504e-08
4.74256e-19
8.35161e-19
1.61283e-07
3.97058e-19
6.91901e-06
2.55872e-06
7.17467e-19
1.72708e-17
1.22338e-17
1.03929e-17
2.61494e-17
2.12981e-18
1.72378e-06
8.14546e-06
3.51448e-05
5.00976e-06
8.80606e-06
4.70514e-06
9.6763e-08
8.28406e-18
5.61228e-06
1.14417e-17
2.86452e-18
7.65987e-06
1.26328e-05
3.27572e-05
1.32236e-05
5.88045e-06
6.97774e-18
7.82403e-06
6.1443e-07
5.28686e-08
1.62198e-05
2.78513e-06
5.11659e-18
4.36128e-06
3.12785e-05
9.20855e-17
2.06713e-07
9.17082e-06
2.48048e-06
4.14085e-07
2.71819e-17
4.24675e-19
9.65335e-06
1.06884e-14
0.00014518
2.14212e-18
7.82578e-06
2.41121e-05
0.000144625
3.87835e-18
3.68189e-06
1.63589e-05
2.06568e-16
1.89417e-19
1.2991e-19
0.000184287
3.51471e-10
3.93851e-18
2.16645e-18
1.14849e-05
9.35342e-06
1.80407e-05
3.20559e-18
1.2696e-18
1.53638e-08
1.9176e-17
3.00206e-06
1.08581e-05
1.89368e-05
1.38422e-05
1.17605e-05
7.13112e-19
3.17533e-10
7.35286e-07
2.24447e-18
4.56641e-18
3.65506e-05
2.48912e-05
3.30047e-18
7.44305e-06
1.25736e-05
4.68113e-18
6.72163e-17
1.66375e-07
7.92907e-19
1.02333e-18
5.09309e-08
2.59689e-18
1.80766e-05
1.31779e-05
4.47329e-06
1.39938e-17
1.39058e-05
1.3644e-19
7.69006e-19
1.61364e-18
2.57675e-11
2.74605e-05
7.31948e-06
6.21479e-06
4.38965e-05
1.44334e-05
1.94503e-06
6.78731e-07
3.94629e-05
1.07735e-05
6.08285e-19
4.25907e-18
3.16468e-10
2.68192e-05
2.90483e-05
1.45694e-05
2.54006e-20
8.30553e-06
2.53163e-06
3.56118e-06
4.2882e-09
4.33117e-09
1.59981e-05
2.66173e-06
2.33753e-06
4.04618e-18
8.1879e-07
2.10512e-18
1.42236e-10
2.84678e-16
0.000295148
8.16171e-05
1.46559e-05
1.75721e-18
7.97891e-19
1.06585e-05
2.00305e-06
6.03664e-18
5.62084e-18
1.09956e-17
3.77646e-07
7.07567e-05
4.59966e-06
1.67865e-05
2.28464e-05
4.81758e-18
1.20708e-18
1.19759e-17
4.5416e-06
1.80587e-15
1.19478e-06
0.000222843
4.09725e-10
1.32742e-19
2.52135e-18
6.42652e-19
4.50781e-17
7.10921e-05
1.44346e-05
1.1819e-18
6.16871e-06
1.89205e-17
2.49297e-17
8.22922e-05
6.88408e-06
1.3349e-05
1.10277e-05
5.04184e-17
4.39839e-17
9.00317e-18
1.10987e-05
2.23866e-05
6.05608e-06
1.61198e-18
3.90312e-13
2.00693e-07
2.48824e-06
9.47335e-06
4.5587e-08
3.40179e-05
3.61595e-18
4.481e-05
4.1522e-06
9.27438e-06
2.95709e-05
1.64135e-05
1.24878e-18
8.40826e-19
1.05635e-17
5.56134e-18
3.77869e-05
1.13805e-05
4.06782e-05
8.06234e-05
2.94358e-18
2.26933e-05
1.7019e-18
9.38533e-18
1.9634e-05
2.00341e-18
8.36175e-05
4.72294e-18
7.7929e-19
2.78394e-05
1.75918e-19
1.64494e-05
3.51182e-07
1.17681e-18
1.2342e-06
1.93813e-05
5.37033e-18
1.04843e-05
1.14125e-05
9.60426e-06
7.40903e-07
3.27507e-06
6.8946e-06
1.49578e-17
7.75549e-19
2.10966e-06
6.12602e-18
7.15429e-06
0.000140685
2.60532e-18
2.61437e-18
3.21619e-05
1.37376e-07
9.72863e-06
2.59322e-05
4.16123e-19
5.30877e-05
2.3176e-05
5.16594e-19
9.71994e-07
3.00288e-06
6.84719e-18
6.59744e-19
1.33868e-05
6.26648e-06
1.19352e-17
8.30247e-19
3.45546e-11
4.02676e-18
1.42031e-05
3.07273e-18
4.99158e-18
2.05443e-05
2.13572e-09
1.49815e-05
3.50888e-05
2.99494e-18
2.04695e-17
1.67845e-06
9.71941e-18
1.71015e-07
1.62298e-05
0.000146874
0.00102883
6.51215e-18
3.26178e-06
5.45132e-07
5.36753e-18
4.60974e-05
3.83059e-05
1.51528e-17
9.17589e-12
1.13079e-07
8.31555e-18
2.904e-05
2.95327e-05
1.72036e-05
1.12533e-18
7.99407e-07
2.21047e-05
2.75091e-05
9.84143e-10
2.62932e-17
7.163e-13
5.92475e-18
1.63507e-08
3.75303e-05
2.45569e-18
1.03574e-05
1.08594e-07
4.71022e-17
9.46092e-19
4.2221e-18
5.40034e-18
4.80336e-06
1.15745e-05
7.9307e-06
2.58231e-06
3.37425e-06
1.30966e-17
2.42437e-06
6.41918e-18
4.77254e-05
7.72858e-20
6.70263e-19
2.43039e-18
4.28416e-05
9.08611e-19
7.48844e-18
2.37609e-10
5.27814e-19
5.90477e-18
1.22474e-06
2.15561e-18
4.59161e-17
4.89578e-18
1.67147e-18
1.75827e-17
7.52566e-18
4.48413e-18
8.67488e-06
8.50645e-18
6.02073e-07
2.24243e-06
1.19598e-06
2.84703e-18
9.67141e-07
2.96184e-18
7.67672e-19
3.38545e-06
2.20198e-06
3.32752e-05
2.94606e-05
9.76224e-18
2.45437e-06
9.61428e-05
1.02409e-05
1.24252e-06
3.97823e-06
2.10561e-18
2.79167e-05
3.57761e-17
5.80963e-06
1.95275e-18
8.99241e-05
1.09694e-17
2.58098e-05
2.88196e-07
3.41123e-10
2.6759e-18
2.45027e-06
8.4967e-19
9.58361e-05
5.79012e-05
8.57095e-18
3.15549e-18
1.55998e-17
1.67653e-18
1.67283e-12
6.54669e-05
4.80483e-18
6.76527e-19
3.04912e-06
5.58188e-19
3.97342e-05
3.93114e-18
3.85532e-07
3.45216e-18
6.02559e-07
1.23157e-09
1.23953e-06
1.56459e-05
1.35323e-17
4.79119e-07
9.71073e-18
3.60252e-19
1.83604e-05
2.21848e-19
3.77912e-08
1.01298e-17
1.89524e-06
5.68793e-18
7.7965e-05
2.93613e-19
1.14055e-17
2.05516e-05
4.0925e-06
2.05422e-06
4.7822e-06
8.01062e-06
2.49392e-05
4.17142e-19
2.89835e-05
7.5628e-06
1.25387e-18
9.55301e-11
4.67407e-05
1.75534e-05
1.88614e-17
4.9387e-06
7.7373e-06
1.96778e-06
1.32545e-06
2.74464e-13
1.63308e-05
1.40053e-06
1.67267e-07
2.91431e-05
1.64816e-05
8.04007e-07
3.28503e-17
3.9259e-12
0.000774387
7.34869e-18
4.38019e-07
2.29194e-18
1.06402e-16
8.80822e-06
3.53871e-06
2.46731e-10
1.70551e-08
1.60941e-17
2.01102e-05
1.32593e-05
7.7641e-19
1.34898e-13
2.424e-06
7.6491e-18
1.35571e-18
2.97789e-18
5.07126e-18
1.62147e-05
9.75121e-19
1.2941e-17
1.07329e-05
2.41311e-06
1.28925e-16
1.2565e-05
7.72301e-18
1.01807e-05
6.0978e-18
9.35655e-18
6.43482e-05
2.74383e-18
2.70115e-18
4.41165e-17
5.36915e-06
1.00432e-17
3.55808e-05
7.50268e-06
1.25664e-18
0.000101672
2.98914e-06
3.374e-05
3.30229e-05
6.58625e-07
9.66358e-08
4.85104e-19
6.56034e-05
5.46878e-05
6.39304e-18
3.80481e-07
4.78573e-05
8.99732e-06
1.7501e-06
3.28654e-05
3.10637e-05
5.1431e-17
1.28008e-05
6.14396e-09
5.08524e-18
4.09037e-05
3.16296e-07
7.65409e-17
1.30957e-05
4.79019e-05
1.65992e-06
2.50333e-05
2.30035e-05
8.4788e-06
2.58737e-17
1.20521e-05
3.95445e-07
1.51311e-14
2.0041e-05
2.0762e-05
4.29251e-05
3.48028e-19
2.2905e-06
2.54605e-18
3.24255e-18
8.14749e-18
5.76678e-18
1.73856e-08
1.1012e-17
3.05104e-13
6.06676e-18
3.96722e-18
8.67089e-08
5.13468e-05
5.94107e-18
3.9115e-05
6.59896e-18
8.57645e-18
2.31622e-17
4.68139e-05
5.03421e-07
5.86095e-17
2.35077e-17
1.58335e-18
2.68444e-18
0.000256436
8.26709e-05
3.22707e-17
2.31504e-06
2.78667e-09
1.21475e-18
4.42671e-05
9.62134e-06
1.47339e-05
1.66557e-19
2.16281e-18
5.02853e-07
1.29056e-06
4.92909e-17
2.61381e-18
3.82596e-18
8.67056e-06
1.78562e-18
1.72994e-17
6.5616e-18
4.94007e-05
2.34652e-06
7.58996e-19
0.00472033
0.000358887
1.23068e-05
3.62749e-18
1.6934e-17
6.63289e-05
4.72375e-07
4.91134e-19
7.67483e-09
0.000147198
3.03745e-06
1.36616e-05
2.70983e-17
6.45437e-05
2.17588e-06
2.00127e-18
2.03197e-17
1.56536e-18
2.13166e-18
1.62622e-18
6.87706e-19
2.58193e-05
6.00808e-19
3.70606e-19
2.86689e-17
1.39695e-05
2.79385e-05
2.61721e-18
3.61653e-18
0.000127023
1.69708e-05
1.1332e-05
1.63548e-17
1.16651e-19
4.40249e-05
2.77554e-18
2.1741e-06
3.09436e-06
4.54688e-06
1.08034e-17
1.75579e-18
1.63108e-17
8.76874e-19
1.80835e-05
1.95541e-18
9.74111e-18
1.17376e-06
1.35005e-18
2.70926e-05
2.13817e-06
8.23016e-18
4.42961e-05
0.000479412
2.99542e-06
3.49264e-05
1.80382e-07
5.37718e-05
1.23816e-13
8.14246e-17
2.78244e-05
8.427e-05
7.31661e-06
8.17696e-18
8.71843e-13
0.000861351
1.20342e-05
4.66489e-19
3.07931e-06
3.18183e-06
1.46657e-06
5.23644e-18
3.23643e-18
1.24111e-17
1.56958e-05
3.08482e-18
3.03471e-06
6.26315e-18
1.53506e-06
1.64467e-06
4.33885e-05
6.72898e-07
3.743e-18
1.96717e-18
8.72091e-19
2.45235e-05
1.23583e-18
1.12813e-17
7.5811e-08
3.1604e-18
5.81142e-19
7.97258e-19
6.95196e-20
1.17091e-05
5.76321e-18
2.22637e-18
6.19652e-13
1.32311e-17
9.23463e-18
1.94008e-17
4.19519e-18
3.51202e-09
1.91483e-06
3.16994e-19
4.6477e-06
8.50705e-09
3.61799e-10
7.50847e-08
4.94375e-06
2.78054e-18
1.122e-08
1.1681e-05
4.68954e-07
6.50747e-18
2.54344e-12
9.84521e-07
2.09917e-17
1.144e-05
2.29885e-07
2.03621e-09
2.84538e-05
1.10251e-05
2.6968e-06
6.14778e-06
2.40683e-06
4.52152e-18
2.65589e-18
3.86899e-05
3.09342e-05
2.2491e-19
9.84138e-06
6.46105e-05
3.3935e-05
1.4495e-17
1.57833e-06
6.09752e-19
1.237e-05
1.65706e-05
1.32116e-17
1.85352e-06
5.56259e-07
1.47125e-09
5.78206e-06
4.75718e-18
5.82228e-05
1.82538e-08
1.86665e-06
3.95379e-08
1.47482e-08
1.64274e-19
5.12097e-18
8.64409e-06
5.61242e-19
1.37604e-07
3.14193e-07
2.96435e-07
5.91647e-11
8.30186e-11
6.25077e-10
1.27463e-19
5.02257e-17
2.75313e-05
1.38745e-17
2.04677e-07
2.47936e-06
1.19933e-17
5.63124e-18
6.68024e-10
1.0626e-12
1.25119e-18
5.57837e-09
2.55103e-18
1.90362e-18
6.34895e-18
3.69267e-18
4.52492e-17
8.55187e-18
3.43779e-07
1.25198e-17
1.45134e-17
4.04027e-17
7.4305e-09
6.45139e-08
2.17066e-06
1.10967e-05
1.95656e-19
2.00926e-18
2.10508e-07
2.28446e-19
4.79642e-18
1.3169e-16
2.23405e-05
5.04826e-05
2.53053e-18
4.07685e-18
8.19226e-18
9.48055e-18
9.63955e-19
7.24365e-18
8.56413e-06
2.09077e-18
5.82361e-11
3.19886e-05
1.16624e-18
1.01844e-17
6.40333e-18
3.03088e-08
1.2097e-17
2.88884e-18
1.22334e-18
1.03638e-08
2.13543e-18
5.367e-06
1.16144e-09
6.27339e-12
1.04451e-18
8.27296e-08
2.50787e-06
5.29237e-05
3.61458e-18
9.07901e-09
6.9208e-06
1.95495e-18
1.60089e-18
6.73131e-17
5.97404e-18
9.89111e-06
2.06088e-06
4.03459e-06
2.04798e-10
6.11896e-19
2.66739e-05
3.38286e-18
1.54362e-17
6.20353e-17
8.63152e-19
3.12489e-05
5.04603e-20
5.04004e-17
2.17715e-09
6.08714e-05
9.91272e-18
2.95645e-06
1.21778e-17
1.04776e-06
2.29452e-17
6.52421e-19
1.84035e-17
6.12355e-18
2.97454e-06
7.37682e-07
0.000371642
8.67816e-19
7.06876e-18
2.47946e-06
1.25439e-18
7.31018e-17
1.26989e-17
4.49075e-05
1.03654e-08
3.77727e-05
1.1005e-18
1.1696e-08
5.44264e-08
2.2738e-17
1.36426e-07
4.49249e-18
1.53689e-06
3.06857e-05
2.4288e-05
1.50464e-06
2.94064e-07
4.13338e-18
4.95419e-19
1.80123e-18
2.43939e-08
7.95741e-19
8.47846e-06
1.38352e-17
0.000211272
7.41921e-19
4.94635e-05
3.78548e-06
8.85652e-18
2.53555e-19
3.91397e-18
4.20475e-18
4.73124e-05
6.90421e-17
6.65637e-17
1.43749e-05
7.92078e-06
2.21069e-17
1.64788e-16
6.61783e-17
4.41406e-17
2.08678e-17
1.1889e-19
2.97995e-05
5.11314e-07
5.83501e-18
2.06731e-18
5.69346e-10
8.86202e-18
1.86456e-06
1.31589e-07
5.43983e-18
3.99791e-06
9.19347e-20
4.38062e-07
2.17945e-18
1.26195e-06
3.02408e-18
9.74798e-11
2.50567e-09
7.89904e-07
2.08633e-05
3.93285e-05
1.39254e-09
9.32739e-19
5.74554e-07
1.84803e-18
5.39548e-06
3.77706e-18
8.00923e-19
2.60013e-17
1.96995e-18
3.29164e-18
4.085e-18
8.2887e-06
9.27532e-06
4.15468e-18
6.72953e-17
8.48847e-18
8.61434e-07
1.64891e-08
1.48299e-18
2.18148e-05
2.22909e-07
1.09268e-17
2.77717e-05
9.81046e-06
4.1855e-06
1.41464e-05
1.08222e-18
2.17766e-18
3.17166e-18
8.20924e-19
4.39577e-05
2.22251e-17
0.000134329
4.35141e-19
3.52542e-07
8.70567e-07
5.5697e-19
1.07674e-06
2.82902e-19
3.21426e-18
3.49375e-06
2.75258e-11
1.05153e-05
1.68615e-18
6.32454e-18
1.26176e-18
9.56857e-07
1.80876e-18
2.16438e-18
4.74498e-18
3.68118e-10
1.79353e-17
8.91687e-09
3.8679e-17
6.55799e-18
1.87136e-18
2.16961e-05
1.17907e-05
2.18398e-05
4.28278e-05
2.52859e-18
1.74657e-08
2.13566e-18
2.84058e-18
1.19489e-05
1.30873e-18
2.74476e-09
4.03491e-07
7.8444e-06
4.05588e-07
1.28797e-12
2.36622e-06
5.04193e-19
1.29889e-12
6.17258e-13
1.41532e-07
1.00072e-06
1.74743e-05
7.83484e-11
1.96103e-17
3.65425e-05
3.78213e-18
3.22694e-19
1.85568e-08
8.94943e-05
7.40767e-11
2.02514e-18
3.3654e-18
3.94243e-10
1.91322e-17
2.9678e-20
1.94909e-08
3.79739e-17
3.56393e-17
4.7992e-05
2.47827e-07
1.93958e-07
2.70675e-05
8.67865e-06
5.02114e-18
4.49506e-19
1.72476e-08
4.89214e-06
1.44454e-18
2.09455e-17
1.18424e-05
8.67621e-20
1.95893e-17
2.04373e-17
3.48964e-17
1.58496e-16
0.00308604
8.95732e-19
2.5157e-07
9.42541e-19
2.41389e-05
2.13314e-18
1.43063e-15
2.28953e-17
5.94497e-18
6.74235e-18
8.63188e-18
3.51424e-06
4.04015e-19
6.33094e-18
2.03767e-17
4.63771e-18
8.56652e-18
7.7214e-19
1.16739e-05
2.98806e-18
1.32498e-05
3.51216e-06
2.13356e-18
1.93197e-06
3.57216e-18
5.67814e-07
2.29725e-09
4.64165e-06
1.61076e-05
2.27098e-18
1.0876e-07
9.56805e-06
9.84027e-09
9.11481e-19
2.6757e-09
2.2054e-05
5.64491e-06
1.09988e-17
3.1229e-05
1.36571e-17
3.39035e-18
4.47574e-18
2.77594e-19
9.76878e-06
5.02768e-18
1.77344e-18
9.81293e-06
2.84705e-10
3.20134e-06
1.58586e-18
1.43364e-16
7.9247e-07
7.74201e-19
9.11643e-08
1.41298e-17
2.74935e-05
1.75231e-18
6.28785e-19
6.6368e-08
4.98108e-18
1.57419e-07
3.28443e-18
1.32649e-18
5.90416e-06
5.01147e-07
5.75893e-06
1.88449e-05
0.000263832
2.42035e-05
5.92967e-18
3.55218e-17
3.4025e-06
8.04377e-06
4.33468e-05
1.33349e-05
5.37981e-18
1.43661e-05
1.69748e-18
3.8633e-19
1.05401e-05
1.28744e-05
7.28513e-18
1.55732e-05
6.10646e-18
3.29074e-06
1.04238e-05
1.16115e-17
1.72473e-18
4.33926e-19
3.24503e-06
1.08473e-17
2.33436e-18
4.84626e-06
2.50763e-05
4.41454e-09
8.97477e-06
2.44918e-18
1.19285e-18
9.40082e-08
8.90844e-07
5.36413e-18
1.21346e-05
3.29222e-17
3.09206e-06
1.19352e-18
7.56449e-19
1.44252e-05
2.06584e-19
4.73382e-08
4.166e-06
1.68555e-17
1.4082e-18
5.07872e-06
6.21419e-14
6.28638e-05
1.76619e-17
0.000312467
2.32714e-18
1.86886e-17
1.27521e-17
8.68191e-06
2.87962e-18
2.01188e-18
6.52302e-06
1.74688e-17
2.80034e-07
7.98568e-17
6.20826e-18
5.76879e-18
1.34324e-10
9.06539e-07
8.29514e-18
1.49148e-18
4.20658e-05
1.10026e-06
3.31486e-18
5.31214e-07
9.97042e-18
1.34052e-17
1.87e-09
3.24892e-06
1.51688e-06
9.28965e-18
4.67857e-20
4.12343e-18
4.53485e-20
7.63805e-18
7.40901e-18
2.1423e-18
2.70987e-18
6.87495e-19
2.19679e-18
2.36572e-18
4.37361e-18
2.42394e-18
1.84813e-18
5.50179e-20
4.39147e-18
5.33015e-18
2.61048e-18
2.47812e-18
3.01243e-18
1.09422e-18
2.10478e-05
5.83529e-18
3.99824e-18
5.62053e-18
7.72135e-06
7.86144e-18
5.76843e-19
0.000324761
3.85703e-18
8.41201e-20
2.7283e-05
3.17471e-16
2.11132e-18
8.38044e-06
2.88204e-05
2.40518e-19
2.87415e-06
4.40243e-06
1.18902e-17
1.54172e-05
4.66063e-05
2.08984e-05
3.88875e-06
1.26466e-05
1.86674e-17
1.1565e-18
3.46406e-06
1.2504e-05
3.6906e-06
3.26826e-18
7.55224e-06
2.03129e-06
2.47777e-05
1.2329e-05
7.9443e-07
1.8084e-05
1.26765e-06
1.16863e-05
1.68935e-17
3.00006e-05
9.88921e-06
1.99433e-06
1.54157e-06
1.60612e-18
4.11678e-18
2.06833e-18
2.24098e-18
6.81997e-19
1.09508e-05
1.59831e-05
5.00112e-19
4.52443e-19
8.23356e-17
2.7491e-18
2.41485e-18
8.30528e-19
2.60434e-18
5.88785e-18
5.33985e-06
1.92805e-07
2.54133e-05
7.68361e-08
2.1601e-19
5.25784e-17
3.70269e-05
7.33475e-09
3.49294e-18
8.67982e-19
8.54211e-06
2.59041e-17
1.59653e-18
4.67841e-09
9.22145e-06
1.59071e-05
3.89982e-05
3.90579e-05
7.45716e-18
1.6705e-05
3.80226e-07
4.662e-18
4.71367e-19
1.36193e-05
3.22343e-18
5.25374e-18
2.13178e-05
0.00123368
2.0114e-07
6.23869e-17
2.05112e-17
2.00082e-05
2.44779e-05
2.04886e-05
6.66541e-06
4.40176e-06
1.15267e-17
1.21071e-09
3.07245e-12
3.09003e-17
1.01411e-17
2.03368e-05
3.30907e-18
2.34161e-06
2.9927e-05
2.0202e-05
1.36401e-05
2.70663e-19
6.95628e-06
3.27419e-18
2.35859e-18
4.28343e-18
1.30161e-18
2.91169e-06
0.0010129
2.70345e-19
1.58388e-18
5.82479e-09
2.72963e-05
1.18092e-06
8.02469e-06
3.85405e-05
5.54322e-06
2.35224e-05
1.20455e-17
1.92572e-17
1.95172e-17
3.57014e-05
6.61932e-06
2.90512e-11
1.60847e-17
2.07483e-18
9.41564e-17
2.5693e-05
3.25086e-06
1.62369e-18
5.63011e-06
6.63811e-05
8.01019e-06
7.07714e-06
1.55288e-18
1.83686e-16
8.02872e-06
2.65171e-05
6.80488e-19
3.75736e-07
1.673e-05
1.14981e-06
1.07625e-05
5.35341e-06
9.34638e-06
4.84742e-17
3.94094e-06
2.38722e-05
4.27624e-05
5.44245e-13
2.66281e-05
1.75206e-16
1.91235e-05
1.77761e-07
2.68473e-18
2.96453e-06
8.53361e-06
4.22556e-07
1.31753e-05
9.44678e-10
1.60808e-07
1.82311e-08
4.41658e-05
4.1349e-06
7.09689e-18
4.49619e-05
1.44768e-06
7.43541e-19
1.43349e-18
4.65845e-11
1.07362e-08
1.18119e-06
0.00127504
4.03045e-05
1.31353e-05
2.49535e-10
5.04497e-05
6.0558e-18
3.65591e-18
4.62781e-06
4.63167e-18
2.46155e-06
5.17289e-06
2.43823e-06
5.35287e-06
3.00882e-18
2.40613e-07
0.00012482
3.68159e-19
2.69384e-05
8.49046e-06
3.23619e-18
4.52469e-06
1.86542e-07
1.24383e-18
7.81287e-12
1.073e-07
6.58866e-18
3.32615e-18
6.24516e-18
5.01909e-06
5.29109e-06
1.63181e-05
9.70641e-18
5.80197e-06
3.76919e-05
2.62244e-18
9.08992e-06
1.40516e-05
2.81275e-05
1.72995e-06
1.40707e-18
6.84018e-07
1.08345e-05
1.18644e-05
1.01399e-05
4.33103e-05
0.000187397
3.86042e-06
6.63528e-18
8.08872e-09
5.85415e-05
2.76439e-18
4.74612e-07
9.54332e-18
8.79732e-19
8.99572e-19
2.99554e-18
1.83063e-18
3.67651e-06
1.6516e-18
8.04219e-06
1.38664e-06
1.57787e-17
4.50962e-06
1.07148e-17
1.62514e-05
2.93338e-18
2.20427e-08
2.62207e-18
2.49763e-05
1.72776e-07
2.55049e-09
4.66725e-06
3.29309e-05
1.93209e-05
4.41516e-06
3.0511e-05
6.42543e-15
2.52776e-05
6.18354e-05
1.04993e-05
9.51474e-18
1.30492e-06
3.12779e-07
6.2827e-06
1.2147e-05
7.06799e-07
1.39662e-18
2.85702e-17
9.92645e-19
4.1904e-06
5.13227e-18
2.2478e-07
2.51654e-07
1.5364e-06
3.18202e-07
1.09993e-18
1.94027e-18
5.48439e-18
9.70784e-06
2.44723e-05
1.4365e-06
1.01998e-08
2.15319e-06
7.72264e-06
2.2555e-06
9.47053e-07
7.86881e-06
6.69531e-06
2.92981e-06
6.67112e-18
4.37962e-19
1.20416e-17
1.52562e-05
1.22513e-05
9.63119e-18
1.63841e-18
6.76649e-17
9.31028e-06
2.15752e-05
3.066e-18
2.40684e-06
1.76273e-18
6.84455e-10
5.48409e-06
9.91696e-05
1.00361e-18
6.13265e-19
4.23072e-06
5.62992e-18
7.15257e-08
1.33741e-05
6.05452e-18
1.21232e-05
3.7186e-05
2.06917e-05
8.98907e-19
1.41299e-06
4.04766e-18
9.27259e-08
5.54022e-05
6.12377e-18
1.96209e-19
1.24375e-05
3.89241e-16
1.24993e-17
4.75682e-08
1.13234e-06
2.85455e-18
1.43635e-19
7.27502e-19
6.63052e-08
1.42667e-06
3.60846e-06
2.82358e-05
1.05094e-05
7.919e-18
7.79576e-10
7.1743e-07
9.04597e-18
1.48368e-19
1.14881e-18
7.82641e-18
1.04985e-17
1.51641e-17
1.17773e-17
9.57265e-19
1.83863e-17
1.01677e-17
3.51466e-12
1.35007e-17
3.98973e-07
9.44015e-17
2.33601e-07
5.72751e-17
6.46425e-08
6.52667e-17
6.39276e-18
3.10996e-05
1.02995e-05
2.76044e-17
0.000101304
6.12639e-12
2.79814e-13
3.95765e-19
1.4589e-06
6.55082e-15
3.01432e-06
6.89371e-09
1.00463e-06
6.35747e-18
2.35853e-18
9.76242e-07
3.18622e-11
3.07158e-18
2.65329e-17
4.39312e-05
1.65153e-17
4.17843e-05
2.37175e-18
9.54952e-19
1.8488e-09
3.16224e-05
9.20486e-06
1.39893e-18
3.67555e-07
1.57963e-17
3.02431e-06
1.96469e-08
2.06457e-06
1.0107e-06
7.88876e-19
2.29367e-05
1.29026e-06
5.80117e-06
1.50708e-18
1.15063e-18
4.61434e-18
1.79609e-05
4.47721e-06
5.77621e-05
8.28053e-18
4.78813e-10
1.46641e-18
2.38323e-18
3.71744e-18
1.09286e-18
3.5374e-06
2.35025e-06
3.25097e-06
0.000356234
2.87934e-17
3.1292e-05
4.01091e-05
1.97146e-05
1.83966e-06
8.99253e-18
6.0806e-06
4.89466e-06
5.5074e-06
4.41639e-10
1.14061e-05
2.62443e-18
1.77854e-06
1.35175e-06
3.67833e-05
1.24083e-09
3.6251e-06
5.65481e-18
2.09007e-05
1.06237e-17
3.34403e-18
1.85211e-06
1.16085e-17
7.17819e-06
7.74241e-18
2.82864e-18
1.53756e-17
5.74926e-19
1.88395e-18
8.67475e-07
2.67318e-18
6.39432e-07
3.09928e-18
2.03794e-19
2.05547e-05
6.18268e-06
8.76918e-06
8.62532e-06
1.36021e-18
0.000661899
1.68531e-18
7.87492e-05
1.31445e-17
2.0324e-05
2.59397e-05
2.59459e-06
6.40829e-05
3.46367e-17
2.18847e-16
8.97082e-19
2.44577e-06
5.8995e-18
5.14899e-19
1.99243e-05
6.10645e-18
1.6096e-18
5.85499e-06
3.69312e-17
1.43646e-05
7.85852e-11
4.7725e-18
4.0333e-18
2.9619e-17
1.81612e-06
7.53935e-06
5.10474e-19
2.56698e-05
3.69659e-07
4.16365e-18
0.000116267
8.42666e-18
1.78499e-05
2.02959e-05
3.876e-06
4.08029e-18
2.01522e-05
1.08024e-05
9.32009e-07
5.83897e-06
1.40807e-05
5.19706e-19
1.43327e-17
1.98229e-09
2.64727e-20
2.41041e-18
2.52742e-18
2.20783e-05
4.99117e-05
4.96623e-06
2.36764e-06
1.08545e-17
5.55947e-05
5.16662e-05
4.79915e-06
2.81737e-06
1.0355e-05
2.3645e-05
2.93927e-06
4.73616e-18
2.88031e-18
2.24342e-18
7.592e-06
9.21302e-20
2.82496e-05
2.18945e-17
8.43868e-07
5.79366e-10
2.90109e-06
2.51458e-05
1.35471e-18
2.00795e-18
2.74969e-06
4.04944e-07
3.70383e-18
8.82185e-18
1.40054e-18
3.69322e-08
3.44093e-07
1.58532e-07
9.08475e-07
1.12187e-05
9.87747e-05
1.48956e-17
1.50572e-17
1.94291e-17
4.27475e-06
2.07018e-05
2.2683e-05
3.92868e-05
2.08739e-06
3.20466e-06
4.24113e-19
4.66806e-18
1.43491e-16
2.34344e-18
1.07801e-05
2.53208e-05
2.77706e-18
3.38153e-18
5.52769e-19
3.06516e-17
3.20568e-18
5.62508e-17
1.52294e-05
3.52261e-17
1.15426e-06
0.000448905
1.69987e-18
1.65083e-08
2.58154e-05
7.99353e-07
3.23269e-19
1.32519e-17
5.43875e-06
3.08308e-19
1.59148e-05
1.23404e-09
2.74479e-05
4.13743e-17
2.97444e-15
6.47561e-18
1.70779e-18
3.58848e-18
1.21409e-16
0.000221486
1.58133e-18
6.50224e-06
1.36578e-06
2.06453e-18
2.49751e-17
2.17147e-06
3.50799e-18
2.49992e-18
1.52555e-05
1.28536e-07
6.61016e-19
5.59636e-18
6.68528e-18
1.88769e-05
5.20984e-18
2.83273e-18
4.45914e-07
2.88716e-06
3.39589e-06
3.3947e-18
1.10206e-18
1.90087e-18
4.20217e-06
2.04141e-06
1.44451e-05
4.12139e-06
1.26807e-18
8.94641e-07
1.38813e-05
7.30232e-06
1.29775e-18
6.20632e-18
1.14941e-18
1.87115e-17
4.64524e-18
3.52483e-05
6.22668e-06
6.06535e-06
1.828e-17
5.68877e-19
3.42852e-18
2.84237e-19
2.62949e-18
1.05233e-09
2.82264e-07
2.59831e-06
3.45606e-19
9.84372e-18
1.0911e-18
2.98501e-12
3.88251e-05
0.000128714
1.09332e-18
1.00142e-12
1.9763e-14
3.90948e-18
9.68475e-18
4.31661e-06
7.6425e-06
3.40573e-18
6.55436e-18
3.27093e-06
4.96286e-18
7.99749e-07
1.27152e-06
0.00242345
4.2072e-19
2.40671e-18
1.40035e-05
5.79155e-07
2.25696e-18
0.000765215
6.65042e-07
7.49139e-06
8.57727e-19
3.96435e-18
5.01513e-18
6.5779e-18
8.99887e-06
1.09652e-07
3.5322e-18
2.85678e-05
2.15071e-05
0.00100581
1.83116e-18
6.5972e-19
4.43273e-18
3.19329e-18
7.29465e-06
7.14114e-11
2.34047e-18
3.93388e-17
2.13283e-05
1.08214e-06
5.71136e-06
7.54227e-19
7.99365e-18
3.27925e-05
5.52404e-17
1.62059e-18
4.63534e-18
2.08623e-18
2.53657e-05
3.92568e-17
2.64216e-18
9.79291e-18
2.89258e-05
1.41989e-05
1.85196e-18
7.08145e-18
2.16079e-18
1.75048e-05
1.90834e-10
1.76507e-17
2.74765e-18
7.79258e-19
1.65966e-17
2.70862e-06
1.22324e-05
2.12594e-18
2.35818e-06
1.2244e-06
5.27739e-06
4.06678e-17
4.47687e-17
6.57248e-20
3.9565e-18
3.63704e-19
2.30593e-05
2.89013e-17
1.69857e-05
4.10565e-19
1.69266e-06
1.41447e-16
2.60349e-06
3.24125e-18
3.62839e-18
1.2344e-05
0.000202263
1.25694e-16
3.91992e-06
4.68283e-18
4.24843e-07
2.0898e-18
1.862e-18
7.0193e-18
2.26607e-10
4.23792e-18
3.70598e-07
4.66456e-18
4.03198e-05
1.4366e-18
1.59469e-17
7.13074e-19
6.7258e-19
9.00214e-09
1.50385e-07
7.58533e-19
6.07404e-06
7.99357e-19
3.31554e-06
2.16456e-05
1.3806e-06
1.82541e-18
5.05812e-09
4.78114e-07
2.30416e-09
5.08338e-06
3.89775e-10
1.81422e-06
6.85809e-17
2.10935e-18
4.81128e-10
6.32533e-06
2.59305e-07
6.08024e-18
2.12737e-18
1.5036e-17
0.000638077
7.23551e-18
7.05528e-18
4.56031e-18
1.47108e-18
5.95847e-19
4.31277e-08
1.94085e-07
1.12766e-06
7.34311e-08
7.06441e-16
1.60367e-06
2.38263e-18
6.53386e-06
3.44982e-17
1.8217e-18
2.24448e-18
3.97619e-17
2.23893e-08
4.20688e-19
8.27395e-18
5.1748e-18
1.66681e-05
2.07787e-17
1.9346e-18
1.24504e-05
1.59602e-17
7.48817e-05
0.000133135
0.000617023
2.13866e-17
0.000231247
0.00135739
0.00144665
0.000757543
1.62501e-17
9.14578e-19
5.51351e-06
5.35915e-06
5.51649e-18
8.98427e-06
4.74253e-19
3.63651e-05
1.64179e-17
2.67762e-18
7.58376e-07
4.88808e-18
6.07314e-18
1.11595e-08
4.32604e-08
1.48346e-18
7.95935e-19
2.7612e-09
2.43104e-17
2.10326e-18
2.32986e-08
9.28132e-06
1.63201e-06
1.122e-17
8.50605e-06
1.94287e-18
3.94477e-06
4.46318e-10
7.98508e-06
9.85501e-18
1.49209e-11
6.19196e-06
8.39455e-18
1.65947e-12
1.3724e-18
3.65029e-05
5.75661e-18
1.1098e-05
2.41732e-18
1.99099e-10
8.7508e-19
7.32889e-19
2.10855e-18
7.71316e-13
4.8105e-13
1.08144e-18
1.37329e-05
9.80801e-06
9.00919e-18
6.75142e-18
3.71232e-05
1.99003e-05
0.000206926
1.53336e-18
7.33826e-08
2.80737e-05
5.1928e-05
6.76652e-11
4.21045e-18
6.43487e-05
3.89382e-18
0.000253993
1.31466e-17
3.82647e-11
3.86072e-11
1.27505e-18
5.69297e-08
1.64737e-17
2.3794e-05
8.21664e-18
1.41009e-18
2.04139e-19
8.32095e-18
6.4681e-18
1.02921e-17
3.35635e-07
2.05843e-06
0.000152307
9.24527e-18
1.07829e-17
4.60586e-05
4.04544e-18
2.02306e-19
9.93492e-18
9.71543e-18
3.91434e-18
6.4002e-06
2.63488e-18
2.68673e-18
1.11355e-19
3.57299e-06
7.64811e-18
9.91341e-18
2.81322e-19
3.50207e-06
1.46261e-19
6.6224e-06
0.000257051
5.60415e-06
5.84571e-06
2.90339e-05
9.29059e-19
6.89508e-18
2.22603e-18
3.32003e-06
1.97996e-06
1.10402e-19
1.3278e-16
6.34895e-07
6.48753e-18
2.10318e-17
0.000370538
2.64043e-18
2.45946e-05
1.42413e-18
2.58103e-06
3.78356e-06
1.77723e-18
1.96279e-18
6.76941e-18
1.20828e-17
1.90272e-19
2.11235e-05
1.56978e-17
4.98791e-06
9.87594e-18
1.65327e-18
7.35129e-06
1.57092e-18
1.44383e-05
2.44654e-17
1.55433e-18
2.62958e-06
8.66347e-08
0.000154915
1.97979e-17
4.36843e-18
1.51456e-18
4.06723e-06
0.000198246
9.72487e-18
8.87423e-19
3.28724e-17
1.63514e-06
5.18702e-19
2.22039e-05
3.39385e-05
2.39941e-17
2.42291e-18
7.72838e-06
1.20676e-17
2.04157e-17
3.60117e-19
1.55633e-17
4.60842e-18
7.45411e-05
7.94267e-17
9.23711e-18
1.82586e-18
2.60829e-17
3.78571e-18
1.34063e-17
8.54842e-19
1.35279e-18
4.33219e-17
8.64163e-06
1.20592e-17
8.91341e-06
1.03412e-16
3.95938e-18
0.000644517
2.87919e-06
9.58819e-18
1.15831e-17
1.47429e-18
2.54837e-06
2.35163e-17
1.54127e-18
4.13592e-17
1.28319e-17
7.6663e-06
4.85558e-20
5.25666e-06
1.52851e-18
1.08675e-05
7.5509e-19
6.32104e-05
3.36394e-17
8.53057e-20
2.28359e-05
6.04822e-18
2.1593e-18
2.99304e-05
3.1044e-07
1.26868e-17
1.16344e-18
4.12744e-05
1.14469e-05
6.84965e-06
8.7586e-07
1.91268e-06
1.88548e-05
1.03278e-06
5.55944e-06
3.20348e-17
3.08284e-05
3.18839e-18
4.19964e-18
1.89743e-18
1.01439e-17
2.96674e-18
1.09454e-05
3.2283e-17
1.09542e-18
2.12514e-18
2.52686e-09
1.08587e-08
4.50381e-17
2.64082e-06
7.64849e-18
4.64318e-06
1.42437e-18
1.24841e-09
3.98812e-06
2.5243e-16
4.93723e-05
9.37748e-19
5.6983e-18
2.71238e-18
3.13997e-06
1.4705e-06
1.54024e-18
2.74679e-18
2.66267e-06
7.97067e-18
0.000726712
7.42647e-18
0.00011101
2.8657e-18
2.38408e-18
5.74074e-18
8.33359e-18
1.0708e-05
1.16062e-18
4.49671e-08
2.71395e-18
1.07621e-05
2.20256e-18
1.86488e-18
7.1381e-15
5.54212e-17
2.2856e-19
8.70212e-18
6.79644e-18
8.82678e-20
4.77697e-06
0.000216065
1.35808e-17
1.69379e-18
4.15559e-07
2.75013e-18
2.63955e-18
1.44188e-09
1.89974e-05
1.67976e-07
5.4348e-18
7.21976e-07
3.77132e-06
5.58195e-06
9.31971e-06
1.90069e-18
2.41489e-18
1.54703e-17
1.85544e-18
1.25364e-19
6.09302e-18
6.38584e-19
1.56014e-17
9.96673e-19
1.5192e-18
3.58542e-18
4.14081e-19
8.3259e-05
5.03508e-18
1.56958e-19
5.63106e-13
4.97651e-18
9.73073e-18
0.0012241
1.70022e-18
2.38449e-19
2.08134e-06
1.70132e-12
1.95996e-18
9.70722e-19
3.8543e-19
2.49372e-05
1.48058e-17
2.34177e-17
5.43887e-11
6.99253e-19
3.22962e-18
2.90873e-18
3.11045e-18
0.000125719
2.72844e-19
1.97623e-07
7.39514e-19
8.29603e-18
4.51066e-19
1.44675e-18
6.9661e-19
2.43132e-11
4.56889e-11
1.30209e-07
1.06309e-18
8.79955e-19
1.17428e-17
1.13128e-10
3.121e-19
3.26746e-10
1.44914e-11
2.95353e-18
6.85804e-18
2.45381e-17
6.56978e-12
5.59062e-18
1.88272e-17
2.36755e-12
2.96654e-17
3.52196e-05
4.20472e-18
7.59172e-06
9.43616e-18
2.55618e-09
5.26223e-18
1.67133e-06
1.69934e-18
4.77415e-06
2.76946e-05
3.97838e-18
2.89211e-06
1.4656e-08
2.7178e-18
1.15392e-05
2.02246e-18
5.18242e-18
7.42052e-18
9.80563e-19
1.13828e-17
4.24181e-19
4.0804e-19
2.31931e-18
0.000313747
4.12862e-18
5.2387e-18
1.21218e-18
5.14271e-21
2.51278e-18
3.56562e-05
0.000926929
3.35606e-09
1.36461e-08
9.86381e-19
2.24841e-06
1.53262e-06
1.12146e-17
2.46751e-17
2.31801e-17
2.65845e-18
1.70956e-18
9.65122e-18
3.56468e-19
2.2923e-18
4.5562e-07
1.75728e-17
2.74161e-17
2.22104e-07
3.54202e-09
1.19169e-17
2.9962e-05
6.03658e-18
1.4355e-17
6.27836e-18
0.000196044
1.04338e-17
7.31094e-20
2.85842e-05
3.95516e-18
2.49583e-18
4.22779e-18
1.66245e-17
6.16968e-05
7.82953e-19
2.18172e-18
5.1391e-19