/*--------------------------------*- C++ -*----------------------------------*\
  =========                 |
  \\      /  F ield         | OpenFOAM: The Open Source CFD Toolbox
   \\    /   O peration     | Website:  https://openfoam.org
    \\  /    A nd           | Version:  10
     \\/     M anipulation  |
\*---------------------------------------------------------------------------*/
FoamFile
{
    format      ascii;
    class       surfaceScalarField;
    location    "2.9";
    object      phi;
}
// * * * * * * * * * * * * * * * * * * * * * * * * * * * * * * * * * * * * * //

dimensions      [0 3 -1 0 0 0 0];

internalField   nonuniform List<scalar> 
214403
(
-0.00539362
0.00413514
0.000228818
0.00102966
-0.0025661
-0.00868312
0.000704374
0.0105448
-0.00800046
4.11862e-05
-0.000102602
0.00806188
0.00709862
-0.00476748
-0.0119002
0.00956908
0.00957293
-0.0120907
0.00285796
-0.000340209
-0.00415769
0.00433308
-4.49619e-05
-0.000130424
-0.000669969
-0.00127608
-0.0071763
0.00912235
-0.0131364
0.00749927
-0.00197533
0.00761245
-0.018282
0.0128885
0.0130236
-0.00763019
0.011021
0.00131402
-0.0123643
2.92517e-05
0.0039437
-0.00780216
0.00162341
0.00223504
-0.00804671
0.00251045
0.00418654
0.00134971
0.000369519
-0.00899899
0.0108602
-0.00223076
-0.0077538
0.00776444
-1.06424e-05
0.00150454
0.00929521
-0.0119291
0.0011293
-0.00927752
0.00773856
0.00233538
-0.000796417
-0.00942181
0.00915511
0.000266702
0.00308968
-3.71691e-05
-0.000737074
-0.00231543
0.0121794
-0.00727592
-0.01621
0.0113065
-6.11348e-05
-0.00248513
7.28762e-05
0.00247339
0.0051195
-0.0049982
-0.000121305
-0.00954896
-0.00330131
0.00328298
0.00956728
-0.00177949
0.0106194
-0.00855353
-0.000286382
0.00521836
0.00052783
0.00180776
-0.00755395
-0.00798692
-0.00387643
0.0103417
0.00152163
0.00736622
-0.00932627
5.86223e-05
0.00190143
0.0025015
-0.00217227
0.00822811
-0.00855734
0.00606448
0.00790276
-0.00952826
-0.00443898
0.00869587
-0.00544387
-0.000248857
-0.00300314
-0.00469167
0.00478357
-9.18968e-05
0.00188076
-0.00395404
0.0106323
-0.00855898
0.0107957
0.000520763
-0.00185994
-0.00945655
-0.00449842
-0.00461797
0.00472805
0.00438834
-0.000925632
-0.00523099
0.00463131
0.0015253
0.00341108
-0.00226522
-0.00735051
0.00620465
-0.00132005
0.00659822
-0.00238247
-0.0028957
0.0125893
-0.000341713
-0.0122475
-0.00531545
0.0104384
-0.00512291
0.000957559
-0.0115421
0.00670797
0.00387653
0.00189767
-0.000765273
0.00467448
-0.00580688
0.00441343
-3.91471e-05
-0.00437428
0.0079949
-0.000179415
0.00142057
-0.00923605
-0.0100787
0.00125406
0.0107223
0.0007055
0.000694592
0.00678654
-0.00818663
-0.0032683
-0.0211347
0.0205306
0.00387238
0.00457944
0.000829108
0.00103341
-0.00644196
0.00330114
0.00250404
-0.00808942
0.00228424
0.0103519
0.00618299
-0.0113165
0.000939513
0.00884966
-0.00179428
0.00146369
-0.00546126
-0.0032234
0.00722097
0.00248739
0.00381882
0.00113841
-0.00744462
0.00144071
-0.00108384
-0.00331285
0.00295598
0.00550159
-0.00995474
0.00694053
0.00931205
-0.00877568
-0.00298315
0.00244679
0.00852331
-0.00155802
-0.00665377
0.00901453
-0.000365609
-0.00199515
0.00684923
-0.00877894
0.000113102
0.0018166
-0.00641355
0.00042682
0.0102468
-0.00426003
-0.0119877
-0.0113574
0.00949074
0.0138544
-0.00637268
0.00640704
0.00125441
-0.00128878
0.000995784
-0.00813373
-0.00686337
-0.000141964
0.00356711
0.00343822
-0.0105746
0.00454195
0.00681147
-0.000778852
0.0123417
-0.00994961
0.000620464
-0.00301259
0.000562633
0.000213914
-0.00801483
0.00723829
0.000442942
-0.0023136
0.0114085
-0.00953786
-0.0277194
0.00308088
0.00305779
0.0215807
-0.00247033
0.00735125
-0.00233264
-0.00254828
0.00371122
-0.00194304
-0.00793278
0.00616461
0.000897818
0.00576759
-0.00729584
0.000630433
-0.000106141
0.00669942
0.00230572
-0.008899
-0.00134699
-0.000218636
-0.00285142
0.00441704
-0.0072043
0.00786835
-0.000294446
-0.000369606
0.000267401
-0.00713075
-0.00509129
0.00451155
0.00136961
-0.000789877
-0.0130307
-0.000827049
0.00633695
0.00752075
-0.00396201
-0.00168661
0.00336685
0.00228177
0.00587616
-0.0197118
0.00271552
0.0111201
-0.00304498
0.00612277
-0.00334556
0.000267768
0.00434006
-0.00337962
0.000431552
-0.00139199
0.000104903
-0.00833721
0.00823231
3.20451e-05
0.00673025
-0.00676229
0.00587486
-0.0011467
0.000773757
-0.00550192
-0.00363827
0.00519273
0.00172086
-0.00327531
-0.00252402
0.0107956
-0.00259754
-0.00567404
0.00516595
-0.00885243
-0.000307738
0.00399422
0.00578365
0.00608067
-0.0118643
0.00851844
-0.00957893
0.00246706
-0.00140657
0.000821436
-0.00153824
0.0111594
-0.0104426
0.000337999
-0.0017795
0.00795089
-0.00650939
0.00197254
0.0168212
0.00478959
-0.0235833
-0.0146051
0.0128293
0.00834601
-0.00657023
0.000677364
0.00524649
-0.00703756
0.0011137
0.00695651
0.00768826
-0.00249232
-0.0121524
0.0126868
-0.00771861
-0.00022727
-0.00474087
0.000566161
-0.00166299
-0.00522412
0.00632095
-0.00528379
2.88683e-05
0.00525492
0.00773249
0.000260526
0.000525431
0.00965974
0.000821982
-0.014755
0.0042733
-0.00780253
0.00169793
0.00137693
0.00472767
-0.00498984
0.00123803
0.000613709
0.0031381
0.00117425
0.000857313
-0.0101209
0.0080893
-0.00206009
-0.0119777
0.0076378
0.00640001
0.00484637
-0.00574647
-0.0037413
0.0046414
0.00778698
-5.27021e-05
-0.00778461
5.03342e-05
0.00593823
-0.00838854
-0.00288791
0.00533823
0.0153776
-0.00465751
-0.00239567
-0.00832444
0.00862882
-1.80221e-05
-0.00791136
-0.000699439
-0.00458522
0.00537703
0.0111522
-0.011944
0.00959518
-0.00333306
-0.00923658
0.00297447
0.00181418
-0.00267025
0.0115199
-0.0106638
-0.0124788
0.0113573
0.0107896
-0.00966812
0.000578394
-0.0099423
0.00382678
0.00553713
0.0125332
-0.000652743
-0.000286714
-0.0115937
0.0088518
-0.00172062
0.00170686
-0.00883805
-0.0107336
-0.00981348
0.0115993
0.00894777
-0.00194666
0.00558233
0.00151624
-0.00515191
-0.00423798
0.000231084
0.00821361
-0.00420671
-0.000939093
0.0107234
-0.00996438
0.00018003
-0.00950715
0.00882834
0.00171682
-0.00103802
-0.000313215
-0.005541
0.0132204
0.00170785
-0.00566004
-0.00415722
0.0081094
-0.00448346
5.79101e-05
0.00442555
0.00137532
0.00625403
-0.00578565
-0.0018437
0.0101503
-0.00584961
-0.00156392
-0.00273675
0.000111611
-0.00310338
0.00299177
-0.00564768
-0.00152606
0.00213778
0.00503596
0.000627656
0.00347666
-0.00775013
0.00364581
0.0126394
-0.00114222
0.00493597
-0.0164332
0.000883251
-0.00116722
-0.0149792
0.0152632
0.000951079
-0.00432564
-0.00565237
0.00902693
0.000355089
0.00779579
-0.000418389
3.09032e-05
-0.00468336
0.00465246
0.00942519
-0.00351143
-0.00420591
-0.00570555
0.00475404
-0.00469617
0.0103917
-0.00865579
-0.00106366
-0.000672272
0.001039
-0.00490791
0.00214666
0.00172225
-0.00839295
-0.00256445
0.00172185
0.00923556
0.00706291
-0.0114414
0.00756548
-0.00318703
-0.000295983
0.0104201
-0.0104261
0.000302026
-8.21285e-06
0.0100015
-0.00990927
-8.40168e-05
-0.013149
0.0105089
-0.00843976
0.0110798
0.0109622
-0.0106248
-0.000337395
-0.0103046
0.0137647
-0.00247765
-0.000982381
-0.0091319
0.00221561
-0.000703207
0.0076195
-0.0148629
0.00112028
0.00957101
0.00417157
0.00262716
-0.00358803
0.00199987
-0.00374905
0.00426059
0.0068566
-0.00736814
-0.00393269
-0.00176628
0.002251
0.00344796
-0.00537433
0.00351519
-0.00674771
0.00860685
0.00161695
0.000131849
-0.0120534
-0.00543034
0.0054176
1.27457e-05
0.00596511
-0.00574865
-0.000216461
-0.00877933
-0.000572233
-0.00231749
0.00216781
-0.0115988
0.013475
-0.00404409
0.00518094
0.00886245
-0.0112951
-0.00274831
0.00985099
-0.0107206
0.000306921
0.000562726
0.00543896
0.00138699
-0.00559785
-0.0012281
-0.00838785
-0.000447684
0.0110033
0.00492182
-0.000354431
-0.00600017
0.00143278
0.00554814
-0.00474724
0.00546928
-0.00627017
-0.00938356
0.00178138
0.0127831
-0.00322
-0.00443014
0.014745
-0.00709486
-0.00456984
-0.00502353
0.00120552
0.00134485
0.00361953
-0.00953422
-0.00659269
-0.000553994
0.0106108
-0.00346407
0.00100125
0.00164693
0.00575289
-0.00840107
-0.00303545
0.00742789
-0.00439244
0.00240774
-0.0116961
0.00426485
0.00693899
0.00488722
-0.0104814
-0.00972109
0.000119458
0.0121096
-0.00250794
0.00169774
0.00145727
0.0045537
-0.00770871
0.00698678
-0.00701853
3.17538e-05
0.00246136
-0.000930531
0.00825986
-0.0097907
0.0085805
-0.00270477
0.00411517
-0.00999091
0.0164558
-0.00531826
0.0122609
-0.0233984
0.0025998
0.00483955
-0.00200913
-0.00543022
-0.00743493
0.00305722
0.00389454
0.000483165
0.0053272
-0.00401452
-0.000112736
-0.00119993
-0.00335185
-0.00422646
0.0123326
-0.00475425
-0.00596599
0.00776302
0.00308215
-0.00487918
0.00900043
-0.000490514
-0.00296177
-0.0135763
0.00896859
-0.000766635
-0.0129731
0.0119879
0.00557331
-0.00458817
0.00826786
-0.00933781
-0.00134476
0.0024147
0.00457497
-0.00832556
-0.00432167
-0.00486735
-0.00447086
0.00252576
0.00681244
-0.00694322
0.00216837
0.00688608
-0.00211122
0.00817572
-0.00777737
-0.00536823
0.00496987
5.1449e-05
-7.08851e-05
-0.00766085
0.00768028
0.000204437
-0.00680869
-0.000249218
0.00685347
-0.00193326
-0.0114677
0.00180592
-0.00664021
0.00596882
-0.00113453
-0.00443703
-0.00186412
-0.000642072
-0.000106644
0.0110097
0.000117966
-0.0264839
0.0186415
0.0135076
-0.00566513
-0.00793167
0.000542
0.000263895
0.00712578
-0.00157982
0.0248524
-0.0292785
0.00600597
0.00126545
0.00195249
-0.00438071
0.00116278
-0.016993
0.00915233
0.00120832
0.0066324
-0.000187034
-0.0111684
-0.00161499
0.0129704
-0.00453643
0.016798
-0.0116556
-0.000605991
0.00756586
0.0109586
-0.0101542
-0.00837024
-0.00888266
0.0084851
0.0105055
-0.010108
0.00356068
0.00497348
-0.00619616
-0.00233801
0.00348464
-0.00233448
-0.00558719
-0.0178524
-0.000706109
0.0145625
0.00399595
0.00534141
0.000836822
-0.00312101
0.00540411
0.00726752
-0.0066979
-0.00597372
-0.00892341
0.00199087
0.00869231
-0.00175977
0.00104522
0.00285848
0.00986097
-0.0104084
0.0102429
0.000996622
-0.000831072
0.00652681
0.00513075
-0.00461652
-0.000180205
-0.00130228
0.00609901
-0.00684253
-0.00139752
0.00383706
-0.0131083
0.00554999
0.00372125
0.000381634
0.00711132
-0.00786724
0.000374286
-0.00270486
0.000524242
-0.00251658
0.00469719
0.0110142
-0.0078752
0.000345655
-0.00628988
-0.00493818
0.00664037
0.00458768
0.0234818
-0.0251617
0.00827254
-0.00659264
-0.00462519
0.00574675
0.00231353
-0.00343509
-0.0109408
0.00471618
0.00950953
-0.00328494
-0.00448666
0.00651007
0.00837381
-0.0103972
0.0125077
-0.00479492
-0.00828766
0.000574869
0.000216102
-0.00302095
0.00734361
-0.00453876
-0.00127539
0.00125756
-0.00970325
0.00905851
0.00290845
-0.0097034
-0.00226355
0.011409
-0.00935695
-0.00249976
0.00234462
0.00345561
-0.00822109
0.00242086
-0.00478549
-0.00868952
0.00775645
0.00571857
-0.00143609
-0.00373823
-0.00111555
0.00459706
-0.00487674
0.0105079
-0.0102282
0.00112049
-0.0127561
0.0116356
0.00431536
-0.00567227
0.00370153
0.00243236
0.00141803
0.00199155
-0.00584194
-0.000267869
-0.010801
0.0110689
-0.0060022
0.000797231
-0.00194834
0.0071533
-0.000742739
0.00835205
-0.00758277
-2.65487e-05
-0.00558917
-0.00299427
0.00324951
0.00533392
-0.00205934
-0.00496592
-0.00455752
-0.00671156
0.00560267
0.00566641
0.000258679
-0.00687553
0.0116636
-0.00479404
-0.000621724
-0.0062478
0.00642588
-0.000645951
-0.00468047
-0.00109946
-0.000975104
0.00870459
-0.0108801
0.00315066
0.00562361
0.000217215
0.0027376
-0.00857843
-0.000209848
-0.00462458
0.00223567
0.00259876
-0.00325896
0.0042343
0.00812184
-0.00909719
-0.0113583
-0.00293211
-0.00316967
0.0104171
-0.0104139
0.000277381
0.00323851
0.00689798
0.000956351
-0.00350368
-0.00614344
0.00869077
-0.00460426
-0.00898844
0.00226869
0.011324
-0.00408692
-0.00451446
0.00470008
0.0039013
-0.010606
0.0102149
0.0108141
-0.010423
-0.00146721
-0.00257438
-0.00775181
0.0117934
-0.0106479
0.00103884
0.0108252
-0.00121606
-0.00185928
0.00490309
-0.00304382
-0.00429822
0.00794557
-0.00598116
0.00233382
-0.000164727
0.0138526
-0.00518683
-0.00850109
-0.00504499
-0.00245237
0.0101055
-0.00260815
0.00158198
-0.00415253
0.00938531
-0.00681477
0.000449155
0.00636228
-0.00111451
3.31321e-06
-0.0100809
0.0100654
1.21387e-05
0.0119071
-0.0021123
-0.0174052
0.00761031
-0.0109986
-0.00107412
0.0137295
-0.00165679
-0.00596483
0.00901406
0.000737413
-0.00378664
0.00538453
-0.00534322
-4.13037e-05
-0.00622114
0.000618643
-0.00533078
0.0109333
-0.00893139
0.0123095
-0.00253113
-0.000847004
0.00557042
-0.00232331
-0.00671632
0.00346921
-0.0107499
0.0108153
-6.54465e-05
0.00888916
-0.0129053
0.00103439
0.00298179
-0.0099574
-0.00273314
0.0170505
-0.00435992
0.00747925
-0.000327443
-0.00155641
-0.00559539
-0.00420716
-0.00713617
0.0159404
-0.000730327
-0.0104534
0.00630702
0.0165004
-0.0184066
-0.00175167
0.00365786
0.00456896
0.00218057
-0.0050518
-0.0049163
0.00511009
-0.000193789
-0.00186868
0.0104855
-0.000685265
-0.00793154
-0.00231092
0.0027414
0.00923447
-0.00966495
0.00616924
0.0145572
-0.00843326
-0.0122932
0.0106347
-0.012754
0.00405525
-0.00193597
0.00934421
0.000110132
-0.00945434
0.000159061
0.00911098
-0.00927004
0.0103516
-0.012505
0.0110425
8.60307e-05
-7.1027e-05
0.00841898
-0.00843398
0.000165087
0.0147798
-0.0147398
-0.000205125
-0.00123494
-0.00367231
-0.00747635
0.0123836
-0.00460986
-0.00272506
0.000915642
0.00875566
-0.0151793
0.005508
-0.00725124
-0.00189943
0.00777285
0.00137783
-0.00888613
0.00979928
-0.00261331
0.00170016
0.00135124
0.00703175
-0.00239286
-0.00599012
-0.00331689
0.000777243
0.00572779
-0.00318814
-1.42031e-05
0.00267644
-0.00339313
0.000730888
-0.00368998
0.00905252
-0.00524999
-0.000112549
0.00266386
-0.008482
-0.00493174
7.0658e-05
-0.00790691
0.00783625
-0.00301841
-0.00289506
0.00134152
0.00457195
0.00438963
-0.00253209
-0.00185754
0.0109614
-0.010906
-0.00220909
0.00215365
-0.00102656
-0.00670036
0.00621
0.00151691
-2.92994e-05
3.70835e-05
0.00609205
-0.00609983
0.0030411
-0.00250251
-0.00966923
0.00913064
0.00701882
-0.000181659
-0.00683716
-0.0102298
-0.00662927
0.0098585
0.00700058
0.00583392
0.00906406
-0.0156283
0.00562487
-0.00201326
0.00317138
-0.00678299
-0.00228752
0.00229915
-0.0127194
0.0127078
0.00344544
-0.00680743
-0.00661022
0.00997221
-0.00070411
-0.00156482
0.0073528
-0.00508386
0.00511823
-0.00628872
0.00227945
-0.00110895
0.00289883
-0.00480734
-0.00464623
0.00655474
-0.00905224
0.0101828
-0.00269127
0.00156067
0.0105444
0.0135509
-0.0149279
-0.00916737
-0.00816788
0.00813967
2.82088e-05
-0.000957138
0.00955219
-0.0118848
0.00328973
0.000342411
-0.000561881
-0.00927244
0.00949191
0.00888175
0.000373
-0.0102191
0.000964385
-0.00392604
-0.00663373
0.00834278
0.00221699
-0.00948085
0.0134248
-0.00475483
0.00081092
-0.00377547
-0.00464046
0.0027559
-0.000548699
-0.000103689
-0.00649713
0.00714952
-0.0213051
9.11795e-05
0.00186206
0.0193519
0.000841141
-0.00540026
-0.00279537
0.00735449
0.0133007
-0.00110548
-0.00431028
-0.00788495
-0.00233782
-0.00512474
0.000962643
0.00649992
0.00385662
-1.03595e-05
-0.00384626
0.00633936
0.0033347
-0.00211237
-0.00756169
0.00485517
-0.0038357
0.00952438
-0.0105439
0.000294255
0.00997475
-0.00329117
-0.00697784
0.00239424
0.00345841
0.00744806
-0.0047432
0.000351706
0.0043915
-0.00619439
0.00089286
0.00163655
0.00103431
-0.00852508
0.00585422
-0.00807741
0.0118271
0.0035383
0.0121176
-0.00254537
-0.0131105
-0.00786953
0.00769728
-0.0122009
0.0123731
-0.00116075
-0.00582582
0.00203616
0.00495041
-0.00650386
0.0122875
0.00369452
-0.00429601
0.00096766
-0.000366174
-0.00401977
-0.0127425
0.00397975
0.0127825
0.0083026
-0.00828366
-9.53833e-05
7.64378e-05
0.00680659
-0.00798797
0.00169534
-0.00051396
0.00171979
0.00679695
-0.0121026
0.00358586
3.18558e-05
0.00581139
-0.00584325
0.00378638
-0.00970084
0.00763425
-0.00367104
0.00988641
0.00835596
-0.0145713
0.00277892
-0.00288373
-0.0133045
0.0134093
-0.00400468
0.00661833
-0.0133525
0.0107388
-0.00951469
0.00756863
0.00989819
-0.00795212
-0.00592039
0.00811126
-0.00524178
0.00305091
-0.00128879
0.0056249
0.000914896
-0.005251
0.00275645
-0.00402191
0.0041473
-0.00288184
0.00538294
0.0020025
0.00177099
-0.00915643
0.0148281
-0.0100456
-0.000639034
-0.00414347
1.45051e-05
-0.00717237
0.00715787
0.00454902
-0.0066496
-0.020419
0.0225195
-0.000931342
-0.0098394
-0.00296037
0.0137311
-0.000595312
-0.00449848
0.0050938
0.0013817
0.00653903
-0.00106562
-0.00685512
-0.00181334
-0.00655593
0.00528718
0.00308209
0.00524245
-0.00439354
-0.00771228
0.0129686
-0.0101135
0.00294903
0.00312502
-0.00607406
0.00993854
1.53621e-05
-0.00113878
-0.00881512
-0.00193817
-0.00329848
0.00523664
0.00348784
0.0023185
0.0196805
-0.023683
-0.00832756
0.0123301
0.0029946
0.00638515
-0.00488176
-0.00449799
-0.00679455
0.0131089
0.00862415
-0.0149385
0.00788039
0.00273265
-0.00104481
-0.00956823
0.0127446
-0.008502
0.0054811
-0.00972375
-0.00732064
0.00336249
-0.00931621
0.0132744
-0.0117612
0.0210039
-0.00821406
-0.00102862
-0.00033266
-0.00495834
-0.00682973
0.0121207
0.00948002
0.0039382
-0.0111125
-0.00230568
0.00521779
-0.0139103
0.00875806
-6.55243e-05
-0.0119632
-0.000452475
0.0078143
0.00460135
-0.00242739
0.00628532
0.00271998
-0.0065779
-0.00149465
0.00599654
0.00485054
-0.00935243
-0.0128847
0.00660492
-0.000572339
0.00685216
0.00111648
-0.00336857
0.00670997
-0.00445787
0.00543879
-0.00273402
0.00194117
-0.00464595
0.00517723
0.00101155
0.000511336
-0.00670011
-0.00752323
0.00807393
0.00299247
-0.00354317
-0.0018058
0.00961854
0.000176995
-0.00798974
0.00779856
-0.00457783
-0.00300386
-0.000216872
0.00665625
4.48305e-05
-0.00670108
0.00486281
0.00376498
-0.000855497
-0.0077723
0.00229242
0.00600045
0.00507502
-0.0133679
3.59647e-05
-0.0108876
0.0108517
-0.00573062
0.0219579
-0.00322376
-0.0130035
-8.65705e-05
0.00815147
-0.0080649
-0.000540776
-0.00585012
0.00105036
0.00534053
-0.0107358
0.00547212
0.00418804
0.00107562
0.00220389
0.00178101
-0.0124877
0.00850282
0.00632791
0.00999067
-0.00373308
-0.0125855
0.009635
-0.0032927
-0.00922034
0.00287804
-0.0119743
0.00686222
0.0183914
-0.0132794
-3.03198e-05
0.00471622
-0.00471654
3.06411e-05
-0.00487263
0.00482327
4.93609e-05
-0.0120879
0.000169626
0.00512373
0.00139309
0.00293766
0.00806959
-0.0124003
0.00631345
-0.00751075
0.00484789
-0.00365059
-0.00624942
0.00546901
-0.000204944
0.000985354
-0.00126105
-0.0102408
0.0130536
-0.00155171
-0.00460687
0.00221539
0.00729369
-0.00490221
0.00783718
-0.00301845
0.00114263
-0.00596136
-0.00512933
-0.000893006
0.00600275
1.95934e-05
-0.000911294
-4.74069e-05
0.00865822
-0.00769951
0.00104863
-0.000897596
0.00843394
-0.00858497
-0.00764777
0.0106848
-0.0112157
0.00817868
3.94402e-05
-0.00959219
0.00955275
-0.0034218
0.000293262
0.00867135
-0.00554281
-0.00649684
0.0075979
-0.0103646
0.00926349
-0.00667906
0.000512808
0.00200903
-0.003106
0.00845179
0.000476963
-0.00582275
-0.00224813
0.000318842
-0.00377626
-0.00331154
-0.0108234
0.0108664
0.0032685
-0.00482315
-0.000573369
-0.00121334
0.00660986
-0.0164809
0.00555806
0.00165878
0.00926407
-0.00519031
0.0120014
-0.00599348
-0.000817633
0.00359341
0.00141751
-0.00725905
0.00705776
0.00714494
-0.0142027
0.0010127
0.0157759
-0.00365261
-0.0131359
-0.000202847
-0.000288054
-0.0071086
0.0075995
-0.00759009
0.0124479
-0.00501913
0.000161302
0.0071488
-0.0044937
-0.0064796
0.0038245
0.00183213
-0.000246025
0.00224284
0.0111169
0.00306729
-0.0160007
0.00181647
-0.00780474
-0.000972543
0.00254154
0.00623574
0.0028549
-0.00319949
-0.00429588
0.0132394
-0.00891217
0.00696159
-0.0112889
-0.00149374
0.00856982
-0.014824
0.00774788
0.00503207
-0.00638376
-0.00064467
0.00199636
-0.00564511
-0.00196529
-0.000188774
0.00779917
-0.0041762
-0.00391286
0.00808906
0.00105677
-0.0113887
0.0100827
0.000249222
0.00425945
-0.00414685
-0.0042888
-0.00724264
0.0091603
-0.00173506
-0.000182594
0.010152
0.00278634
-0.0109186
-0.00201971
-0.00395487
-0.00580212
-0.000683636
0.0104406
0.006633
-0.00201915
0.00769075
-0.0123046
-0.00727333
-0.000374443
-0.00844844
0.00453557
0.00110301
-0.00958551
0.0030669
0.00541559
0.00283786
-0.0101735
0.0055729
0.0017627
0.00155144
0.000382397
-0.00773888
0.00580504
0.00114561
0.00491946
-0.000341446
0.00869486
-0.00171791
-0.0066355
-0.00339769
-0.000373112
-0.00317818
0.00694898
-0.00201944
-0.00271983
0.0052003
-0.000461025
-0.00789289
-9.40303e-05
-0.0130818
0.00471508
0.00687205
0.0189697
-0.000183794
0.00262418
-0.0214101
-0.00847889
0.0130809
0.00268468
-0.00728671
-0.00239829
0.00128858
0.00817031
-0.0070606
0.000980543
0.00277997
-0.00215059
-0.00160993
-0.0143031
-0.00297353
0.0123304
0.00494623
0.000321042
0.00616114
-0.00123974
0.000206696
0.00303341
-0.00953038
0.00629028
-0.0058329
-1.8701e-05
0.00215084
0.00370076
-0.00826047
0.0102101
-0.00162858
0.00465917
-0.00419969
-0.000459478
-0.00682797
0.000935873
-0.00529471
0.0111868
-0.00310657
0.00467751
-0.00360802
0.00203708
-0.00669252
0.0075376
-0.00311396
0.00226888
0.00295586
-0.000494669
-0.00687146
0.00441027
-0.00299445
0.0187655
-0.025252
-0.00263568
-0.00183952
0.00180115
0.00267406
0.00873437
-0.013654
-0.000617518
0.00553716
-0.00364078
0.00271615
0.00468385
-0.00375923
-0.00109939
0.00576125
-0.00157819
-0.00308367
-0.00647418
0.00143542
0.00151508
0.00352367
-0.00372813
0.000318549
0.00340958
0.00832591
-0.00396225
-0.00422594
-0.000137723
0.000633229
0.00429363
-0.00651972
0.00159286
-0.00445642
-0.00539907
0.00550659
0.00434889
-0.00241586
0.00616056
-0.00524748
0.00150278
0.00215377
-0.0040761
0.00280875
-0.000886415
0.00793347
0.000198185
-0.00813165
0.00679638
-0.00839725
0.00416733
-0.00256646
-0.0107125
-0.000282883
0.0109954
0.00434149
-0.00360308
0.000843702
-0.00158212
-0.00033439
0.00759997
-0.00830947
0.00104389
-0.00375385
0.00469988
0.00120774
-0.00430745
0.00921443
0.00851778
-0.00714818
0.00705114
9.70454e-05
0.000154023
-0.0112591
0.011105
0.0152985
0.00182411
-0.00322597
-0.0138966
0.00322021
-0.0125437
-0.00153266
0.0108561
0.00239944
0.00283643
0.00163231
-0.00686818
-0.00430168
-0.00426853
5.18251e-05
0.00851838
-0.00205831
0.0028
-0.00504336
-0.00926071
0.00169428
0.012148
-0.00458152
-0.0184297
0.0135013
0.00594588
-0.00101745
0.00814428
2.95742e-05
-0.00817386
-0.00475922
-0.00640986
0.00414426
0.00702482
-0.00460074
-0.00663733
0.00197736
-0.00670642
0.00364358
0.00420845
0.00272692
-0.00356975
-0.00651863
0.00736146
-0.00455706
1.2578e-07
0.00455693
-0.0107259
0.00436124
0.00444508
0.00191961
0.00268003
-0.0071954
-0.00219104
0.00906451
-0.00289416
-0.000211259
-0.0059591
-0.00621516
0.0103174
0.00607067
-0.0101729
-0.0018721
-0.00391413
0.00150151
0.00428473
-0.00258608
-0.00207969
0.00466577
-0.0045298
-0.00952881
-0.00437108
0.00218975
2.86408e-05
0.00441517
-0.00663356
0.00878354
-0.00638078
-0.00922505
0.00682229
-0.00326002
0.00117463
0.00655928
-0.00447389
0.00611006
-0.00430244
-0.000603627
-0.00120399
-0.00700444
0.00114205
0.00547016
0.000392232
-0.00432834
0.00993391
-0.0108089
0.00421679
0.000310611
0.0062815
0.0102755
-0.0082284
-0.0064535
0.00440637
-0.00812369
0.00172508
0.0151822
-0.00782798
-0.00518235
0.00843467
0.00457566
-0.000912697
0.0081586
-0.0030982
-0.0041477
0.000478671
-0.00504577
-0.00334319
0.00791029
0.00929149
-0.00613067
-0.000376387
-0.00278443
0.00289997
0.00215226
-0.00711053
-0.00195502
0.00221379
0.00545108
-0.00570985
-0.0016466
0.00852572
-0.0105189
0.00363974
-0.00524434
0.00126605
0.00126872
0.00270958
-0.0112822
0.0114315
-0.000149359
0.00818376
-0.00809073
-9.30345e-05
0.00325873
-0.0124439
-0.00479634
0.0139815
0.00271227
0.00513151
0.00122073
-0.000127177
0.0045372
-0.00441002
0.00792573
0.00702164
-0.0149474
-0.00808545
0.00493632
0.00348868
-0.000339551
-0.00453952
0.00149661
0.00368949
-0.000646582
-0.0136953
0.00641558
0.0075166
-0.000236853
-0.00439553
-0.00490345
0.00474192
0.00722417
-0.00117275
-0.00461025
-0.00144117
-0.00746661
0.00806886
-0.0049306
0.00133068
-0.00848504
-0.000435554
0.00758992
-1.29262e-05
-0.00425809
0.00427102
0.0204749
0.000116511
0.00222131
-0.0228127
-0.000784461
-0.00154798
-0.0113663
0.0136987
0.00354469
-0.004798
-0.00221618
0.00346949
0.0014043
0.0106502
-0.00432145
-0.00773303
0.0115128
-0.0114962
9.19148e-06
-2.58604e-05
-0.00649218
-0.00585044
0.00914677
0.00319586
0.0037815
0.0028484
-0.0074988
0.0008689
4.03236e-05
0.00703685
-0.00717494
9.7763e-05
-0.00963251
0.00310692
0.0078004
-0.00127481
0.00734655
0.0044397
-0.00743523
-0.00435102
0.000160531
-0.00661239
0.00328745
-0.00170001
0.00992539
-0.00529611
-0.000687247
-0.00082377
0.00680712
-0.00897372
0.000421778
0.00855194
0.0130953
0.00563549
-0.00422676
-0.014504
-0.00853589
0.000171287
0.00852513
-0.000773954
-0.00200922
-0.00512688
0.00791005
-0.000955662
-0.00105349
-0.00277919
0.00478835
0.00214951
-0.0109497
0.00827027
0.000529881
0.00699294
-0.00106604
-0.00682777
0.000900871
-0.0083713
0.0017326
0.000656648
0.00598205
-0.00319251
0.00211641
-0.00442988
0.00550598
0.00181737
0.00121506
-0.0107839
0.00775143
0.000356301
-0.00732439
-0.000482417
0.00745051
0.00721539
0.000982401
-0.000160327
-0.00803746
-0.00865337
0.00200242
0.00782521
-0.00614851
-0.00812038
0.0142689
0.0120419
-0.00612861
0.00260996
-0.00852325
0.000952225
0.00669754
-0.00410508
-0.00977207
0.00180261
0.00347165
0.00449781
0.0120788
-0.012442
0.000363138
-0.00741576
-0.0025198
0.00519357
0.00474199
-0.00971746
-0.00753829
0.00506189
0.0121939
0.00970557
-0.0101334
-0.00124312
0.001671
-0.00141729
0.00472576
-0.00372454
0.000416068
-0.0121986
0.00400366
0.00279121
0.00540371
-0.0181524
0.0224592
0.00377941
-0.00808621
0.00814697
-0.0176061
-0.00091745
0.0103766
-0.00725229
0.00924545
-0.0170758
0.0150827
-0.00750202
0.01649
0.00164334
-0.0106313
0.000667146
0.00785187
-0.00187096
-0.00664805
0.0119054
-0.00894236
-0.000286868
-0.00267616
-0.00208137
-0.00199835
0.00305675
0.00102297
-0.00562362
-0.0117023
0.0100497
0.0072762
-0.00799501
0.0106448
0.00925557
0.00667822
-0.00491079
-0.00611894
0.00435151
0.00238723
-0.00309098
-0.0013636
0.00206736
0.00528466
-0.00523417
-0.00695205
0.00690155
-0.00214182
0.00614376
-0.000444608
-0.00355734
-0.00852729
-0.00140654
0.010601
-0.00642316
-0.00158162
0.00794226
6.25208e-05
0.00271522
-0.00606282
0.0033476
0.0021339
-0.00280641
0.0104265
-0.00975403
0.00854704
-0.0120682
0.00179605
0.00172513
0.0053008
-0.00572274
0.000421938
-0.00819858
0.000203571
0.00731098
-0.00280241
-0.00705813
0.00254956
0.00230739
0.00184112
0.00805474
-0.0122032
0.00520324
-0.0056498
0.00044656
-6.07179e-05
0.00634733
-0.00717557
0.000888957
-0.00903341
-0.000846572
0.0120139
-0.00387266
-0.000657316
0.000894115
0.00363586
0.000534871
-0.00441722
0.00326189
0.000620462
0.00725983
-0.00694739
-0.00172973
0.000859123
0.0123461
-0.00780185
-0.00540341
-0.00416469
0.00877844
-0.00461375
-0.0112646
0.00430917
-0.00261464
0.00957011
0.00879412
-0.00795459
-0.0130381
-0.00441053
-0.00528083
0.018139
-0.00844768
-0.0127652
0.00809695
0.011593
-0.00692476
-0.000229419
-0.0108091
0.0110385
0.0171359
3.79224e-05
-0.00989029
-0.00728349
0.00996278
-0.00641572
-0.000893783
-0.00265328
-0.00728163
0.00517177
-0.00128554
0.0033954
9.01066e-05
-0.00767284
0.00758273
-0.00539312
0.00555153
-0.000158407
-0.00395822
-0.00418676
-0.0107059
0.0188509
-0.0100608
0.00217532
-0.00111069
0.00899619
0.00239345
0.00388246
0.0106876
-0.0096268
-0.00796337
0.00690253
-0.00286888
-0.0059341
0.00653204
0.00227093
-0.00595562
-0.00302111
0.00898472
-7.98977e-06
0.0020897
-0.00118661
-0.00582718
0.00492409
0.00656684
0.000310065
-0.0083953
0.00151839
0.00201766
-0.00140643
0.00223095
-0.00269195
0.00268045
-0.00221944
0.00542816
0.00527304
-0.00540333
-0.00529787
0.00269159
0.00636715
-0.00658326
-0.00247548
0.00558139
0.00241563
-0.00440361
0.00695674
-0.00840567
0.00175899
-0.00930679
0.00652149
0.00351312
-0.000727824
0.0109664
-0.00363659
-0.0114945
-0.00294015
0.00780408
0.00393018
0.00764282
-0.00370719
-0.00647791
-0.0018036
-0.00102527
-0.010248
0.00952282
0.00092446
-0.000199293
-0.000627057
0.0128283
-0.0013185
-0.0108827
-0.00835649
0.00170172
0.00371462
-0.00133635
-0.00841071
0.00236224
0.00738482
0.00767435
0.00106036
-2.47063e-05
-0.00871001
-0.0115297
-5.15438e-05
4.44394e-05
0.0115368
-0.00299963
0.00326695
-0.00538145
0.00511413
-0.00790619
0.00997703
-0.00101545
-0.00105539
0.010375
-0.00968261
-0.00859855
-0.0075906
0.0068288
-0.00215721
0.00291902
0.0061385
-0.000275754
-0.00193049
-0.00393225
-0.0116601
0.0112187
0.00553435
-0.00509296
0.00564485
0.00214883
-0.000717443
-0.00707624
0.00196272
0.00498942
-0.00623715
-0.00071499
-0.00369153
0.00371464
-2.31063e-05
-0.00216374
-0.00552351
0.00554544
0.00881652
-0.00876501
-5.15105e-05
-0.00472246
-0.00376968
0.00369414
-0.000497317
-0.00570764
-0.000649209
0.00685417
-0.000660559
-0.00507571
0.00453094
0.00120532
0.00773846
-0.00879382
0.00105535
-0.00996622
0.0102158
0.00935918
-0.00960878
-0.00670712
0.00519445
-0.00352755
0.00504023
-0.00275122
0.00117598
0.00248966
-0.000914422
-0.000265118
0.0121543
-0.000131468
-0.0117577
-0.00628037
0.00304454
0.00309387
0.00359221
0.00457107
-0.00797237
-0.000190909
0.00034475
-0.00990758
-0.000391902
-0.00873222
0.00876053
-2.83148e-05
-0.00610131
0.00309406
-0.0067102
0.00198686
-0.00438195
0.000178917
0.00393841
0.00171064
0.00574715
0.000110461
-0.0049137
-0.000943911
0.00481438
-0.0120136
0.00963004
-0.00243085
0.00200612
-0.00276383
0.0102256
-0.00946792
0.0124039
0.00362738
-0.00190499
-0.0141263
-0.00316552
-0.00516832
-0.00168011
0.0100139
0.0037652
0.0157341
-0.0141713
-0.00532802
0.00182179
0.01149
-0.0111027
-0.00220915
-0.00388823
0.000510287
0.00797534
-0.0045974
-0.00139943
0.0111974
-0.00603274
0.00813585
-0.00643589
-0.00250525
0.000805284
0.00264751
0.00683534
-0.00948285
0.00643403
0.00142794
-0.000855963
-0.00700601
-0.0059133
0.00472768
0.000473874
0.000711742
-0.000560292
-0.00842583
0.000495564
0.00849055
-0.00614335
-0.000777709
-0.000239702
0.00716076
0.0035471
-0.00785312
8.06947e-05
0.00308603
0.00468639
6.56255e-05
0.00509262
-0.00515824
0.000649089
0.00903847
-0.0230437
0.0133561
0.00260952
-0.00658062
0.00625163
-0.00228054
0.0037437
0.00427111
-0.00295814
-0.00505668
3.30414e-05
-0.00458424
0.0045512
-0.00249906
-0.00178691
0.0101195
-0.00583353
-0.00324001
0.0108261
-0.00931668
0.00173058
0.0111993
-0.00778483
-0.00750922
0.00409479
-0.00461656
0.00315845
0.00143459
2.35297e-05
-0.000687377
0.00365235
-0.00194991
-0.00101506
0.0120386
-0.00939113