/*--------------------------------*- C++ -*----------------------------------*\
  =========                 |
  \\      /  F ield         | OpenFOAM: The Open Source CFD Toolbox
   \\    /   O peration     | Website:  https://openfoam.org
    \\  /    A nd           | Version:  10
     \\/     M anipulation  |
\*---------------------------------------------------------------------------*/
FoamFile
{
    format      ascii;
    class       volScalarField;
    location    "2.9";
    object      SgT;
}
// * * * * * * * * * * * * * * * * * * * * * * * * * * * * * * * * * * * * * //

dimensions      [1 -1 -3 -1 0 0 0];

internalField   nonuniform List<scalar> 
111485
(
5.24902e-16
2.91453e-13
4.51795e-08
2.01909e-17
3.39031e-07
5.23668e-18
3.89013e-12
9.36002e-16
6.161e-12
3.44772e-07
2.65105e-12
2.01266e-06
8.15314e-12
6.31506e-15
7.77442e-12
5.52264e-12
8.08563e-17
0.00286242
7.52982e-12
5.93671e-16
1.5558e-16
9.72918e-18
2.12806e-11
4.25827e-12
6.08263e-08
4.80171e-16
3.28032e-05
4.23888e-16
1.66034e-08
6.69741e-18
5.8799e-05
4.33041e-16
1.03216e-15
5.31723e-17
1.01317e-05
3.5076e-16
1.41125e-05
4.14189e-16
8.77293e-11
5.42023e-11
1.39199e-17
6.1897e-05
5.56183e-11
1.41504e-06
2.7654e-08
2.69009e-16
3.14889e-05
1.60274e-12
4.16399e-05
4.37448e-16
3.91055e-16
9.30329e-16
3.12703e-16
4.85601e-05
1.1098e-16
1.80923e-15
4.65986e-12
1.80147e-17
2.19237e-08
7.16348e-11
2.18785e-10
5.07841e-16
1.83212e-16
0.00012534
5.41882e-16
5.78637e-16
0.000351948
1.29809e-13
7.59143e-16
3.21727e-15
1.1492e-08
1.41154e-17
5.99699e-16
5.94487e-16
1.30299e-16
3.66007e-16
7.59981e-17
3.14309e-05
1.14576e-16
8.0662e-15
3.47951e-08
3.1459e-05
9.09229e-18
2.96646e-16
6.25717e-17
1.6783e-11
5.19365e-13
2.52516e-05
5.79321e-08
4.54956e-16
1.16442e-06
4.55149e-10
9.32302e-17
4.0699e-16
4.85116e-05
3.49233e-16
2.40188e-16
1.38742e-06
4.52996e-12
2.24203e-06
1.62574e-17
8.12736e-06
7.94279e-17
5.76413e-06
2.81305e-15
9.48736e-16
6.06047e-17
1.33089e-15
2.18124e-09
1.04793e-10
2.66215e-15
2.69835e-16
2.13035e-10
1.10702e-05
2.77398e-17
2.74428e-17
1.64e-16
1.18389e-16
2.26897e-15
1.69188e-16
7.78444e-16
2.13794e-15
8.86734e-17
1.28463e-17
1.45951e-06
2.0793e-09
9.01397e-17
7.53685e-16
3.38578e-17
1.52805e-07
1.82396e-06
3.13876e-05
4.09155e-17
3.7732e-15
2.13601e-16
1.29753e-12
1.36712e-16
7.87114e-16
4.09988e-15
7.69728e-15
8.217e-06
6.63072e-15
3.13306e-15
3.2264e-10
7.54455e-06
1.37412e-16
1.34908e-16
2.39491e-16
2.4515e-16
1.76964e-13
5.78851e-10
9.45308e-16
3.43565e-11
3.68512e-16
6.36395e-10
2.0925e-13
3.82878e-14
8.89081e-12
1.18126e-10
9.72778e-17
7.95658e-17
1.12033e-13
1.65825e-09
3.11227e-09
2.98607e-10
1.32604e-15
5.6618e-06
2.72015e-17
7.29927e-09
6.41637e-08
3.18257e-17
2.00967e-16
3.8735e-11
1.54448e-17
7.84277e-16
3.46245e-16
4.20951e-17
1.30318e-16
3.90487e-16
1.05565e-15
1.19117e-15
3.2121e-16
3.12688e-13
4.44517e-13
1.3246e-13
6.54433e-17
5.72441e-06
6.32068e-16
1.3689e-07
3.56382e-16
2.49566e-15
3.1494e-16
2.45235e-16
5.67653e-16
4.62003e-06
2.30016e-05
1.60749e-15
2.83598e-15
2.99507e-16
1.36383e-13
1.04751e-10
5.7313e-08
1.35243e-05
6.7549e-16
1.8362e-17
4.29038e-17
3.6877e-06
1.69442e-16
3.41984e-07
9.03574e-06
4.17653e-10
3.7738e-16
1.67267e-16
1.89808e-16
3.11465e-15
7.98632e-15
0.000149061
4.47963e-17
2.5912e-16
1.17165e-16
0.000104736
7.83439e-17
4.15006e-16
1.84343e-05
9.26636e-16
1.58005e-17
3.20109e-17
0.000184826
5.15138e-10
8.453e-16
4.81362e-16
2.21232e-17
2.00789e-15
5.43141e-16
5.64e-17
4.62604e-16
1.72828e-08
2.08429e-16
2.13904e-15
4.1313e-16
1.67741e-17
5.86936e-16
5.57493e-17
2.00352e-16
3.18204e-10
3.77729e-16
1.06678e-16
5.3154e-17
3.44969e-05
1.27092e-15
6.425e-16
2.54116e-15
5.25896e-16
1.21186e-16
2.64509e-15
1.85251e-07
3.76718e-16
1.7701e-15
4.22028e-08
1.45807e-16
1.18069e-15
2.60517e-15
1.83923e-16
2.85482e-16
1.51614e-15
4.4298e-18
2.16688e-16
3.75041e-16
2.20275e-11
3.38556e-05
3.71066e-16
2.25858e-15
5.15691e-06
1.08e-15
1.19196e-15
8.83633e-07
2.43697e-15
1.20045e-15
1.2802e-16
3.14267e-16
2.79402e-10
2.84088e-16
3.59487e-05
4.92538e-16
7.2201e-17
1.35654e-16
2.39233e-13
7.57781e-17
8.21456e-05
4.77327e-09
6.02829e-16
5.3659e-17
3.05047e-06
3.35816e-17
2.42154e-07
1.28475e-16
4.57678e-10
2.42884e-16
0.000291456
8.55927e-06
3.41727e-12
1.11426e-15
1.22781e-16
8.85016e-16
5.56197e-15
2.82567e-16
4.51593e-16
1.04469e-14
3.57548e-16
3.00642e-15
1.71008e-14
1.67203e-13
1.53239e-10
4.96298e-16
4.19789e-17
4.12087e-16
1.94244e-16
2.23224e-16
3.64202e-14
0.000225636
5.60481e-10
2.50944e-17
1.17499e-16
5.2763e-17
3.34543e-15
2.44614e-15
2.35987e-08
2.03393e-17
1.55928e-16
4.80144e-15
8.40468e-16
9.45447e-05
9.78376e-17
2.26539e-06
2.50896e-16
1.03557e-15
2.17576e-15
2.35265e-16
1.03368e-16
8.24762e-17
7.20692e-06
3.70391e-17
3.799e-13
3.02444e-07
1.74874e-08
3.33503e-16
8.90883e-08
2.93798e-10
3.87513e-17
3.84871e-10
3.25306e-16
7.77092e-06
3.33303e-05
8.68292e-09
9.74757e-17
2.58565e-16
4.47542e-16
5.24217e-16
9.74982e-15
4.46893e-16
7.93131e-06
5.04865e-10
8.21718e-17
1.08429e-07
4.0326e-17
1.14266e-15
2.4861e-10
1.22998e-16
1.83536e-05
7.12116e-17
6.57777e-18
4.79527e-13
1.65419e-19
3.2858e-16
1.18593e-08
1.14157e-17
1.77541e-17
7.82792e-17
1.16051e-15
1.05897e-15
2.95414e-07
3.82756e-16
3.63141e-07
4.30097e-16
5.08633e-15
2.62275e-15
4.22559e-17
1.10721e-06
4.66235e-17
2.54836e-06
0.00015781
1.41962e-17
4.13257e-17
1.92089e-15
2.65034e-10
3.66796e-15
3.85628e-07
6.08126e-17
5.37785e-05
3.23542e-06
8.85521e-18
8.48872e-07
3.98588e-08
4.43639e-16
1.67252e-16
1.19256e-16
1.06283e-07
2.6296e-18
8.11056e-17
2.78479e-11
3.2187e-16
2.58589e-07
7.33759e-17
3.71233e-16
1.77504e-06
2.09116e-09
1.50539e-05
3.73355e-07
8.83868e-18
2.46261e-15
1.07029e-06
2.79441e-17
1.02905e-07
9.94048e-06
0.000128457
0.00104805
1.67666e-16
1.74984e-16
2.96003e-07
3.36886e-16
3.90104e-05
1.10803e-06
2.35011e-16
1.54252e-11
3.76339e-08
2.46507e-15
1.97564e-06
1.73877e-06
2.27281e-16
1.97424e-17
2.43215e-16
2.12055e-05
3.52966e-16
4.42107e-10
1.7477e-15
3.94725e-14
2.32751e-17
1.18005e-08
5.98461e-16
1.3654e-17
4.29299e-07
2.42589e-06
1.96785e-15
1.0685e-17
1.04359e-15
2.39217e-16
7.17285e-08
4.37642e-16
2.05161e-07
9.63068e-08
3.43473e-06
2.17362e-16
7.37481e-07
7.16475e-16
5.00244e-07
6.88877e-17
1.94814e-16
1.0005e-16
1.7022e-06
8.7353e-18
1.1429e-16
4.05672e-10
3.70167e-17
2.32363e-16
7.84437e-07
1.47629e-17
1.59156e-15
6.53236e-17
8.51336e-17
7.81245e-16
2.37535e-16
9.00049e-17
3.5224e-07
4.14693e-17
4.18425e-08
4.26167e-06
1.22762e-06
1.99434e-16
4.19518e-07
1.99253e-17
1.83381e-17
4.13799e-08
1.19138e-08
2.22657e-06
2.40627e-05
2.48645e-16
2.92214e-06
8.8282e-05
1.42867e-16
2.81543e-15
1.90706e-07
3.01979e-16
2.94704e-16
6.27311e-15
3.19897e-06
7.93727e-17
8.62992e-05
4.33298e-15
5.69389e-16
2.91358e-06
2.06954e-12
1.26005e-16
2.16282e-15
1.60526e-17
9.73166e-05
5.83925e-05
2.63673e-17
2.88358e-17
2.74418e-15
4.58526e-17
2.24663e-13
5.02165e-05
8.17037e-18
8.1715e-17
2.70574e-09
1.12928e-17
3.80406e-05
7.99581e-17
3.6454e-07
3.4375e-16
2.2459e-07
1.33204e-05
4.91729e-16
2.47086e-16
2.92876e-17
4.94651e-16
5.02474e-16
8.71435e-17
2.89671e-06
2.68717e-17
1.18702e-08
6.77476e-16
3.0631e-06
2.40505e-16
4.67879e-05
6.91064e-16
6.91691e-16
1.9143e-05
2.2615e-07
2.89086e-06
6.90814e-07
3.50189e-06
5.76963e-07
7.38888e-17
1.37438e-05
1.2191e-06
4.31357e-17
5.05461e-11
3.78432e-05
1.50581e-05
1.73448e-15
6.1131e-06
1.18431e-07
2.03507e-05
1.4093e-06
2.0331e-13
2.52964e-06
3.3815e-07
1.31909e-07
8.57228e-06
7.42662e-16
9.88918e-07
3.62812e-16
1.39226e-12
0.00076082
9.58507e-17
2.68765e-07
3.22103e-18
5.29823e-15
1.27744e-16
3.90143e-06
1.10211e-10
1.21674e-08
7.92832e-15
4.50236e-06
1.14614e-07
1.25671e-16
2.20496e-13
7.77332e-08
2.28751e-15
5.16975e-17
8.96034e-18
1.0604e-16
6.22771e-06
7.40717e-17
2.05797e-17
4.05726e-06
1.55328e-15
8.59788e-17
3.72743e-08
7.30091e-16
3.83085e-16
6.32307e-16
4.18934e-17
2.70456e-05
8.4583e-18
1.66009e-17
8.27974e-15
5.02001e-16
1.78208e-15
2.09262e-05
2.6835e-16
1.1105e-16
9.79316e-05
9.18012e-07
3.4586e-07
3.02111e-05
1.4363e-06
2.26676e-11
2.4095e-16
5.95008e-05
3.77177e-07
1.48784e-16
3.39578e-16
5.22709e-05
8.5701e-07
1.0456e-15
1.39722e-06
2.14543e-06
3.1322e-16
1.97292e-05
2.30973e-09
6.8343e-16
1.18481e-06
1.28126e-07
4.80506e-16
1.68009e-15
2.0353e-06
1.46044e-06
4.48738e-06
8.92822e-06
8.55111e-16
6.06877e-15
3.51877e-06
8.17397e-08
8.6463e-15
1.89103e-05
1.30078e-05
2.39423e-16
3.66495e-17
1.33943e-17
5.92538e-17
4.32461e-16
3.79427e-17
2.15059e-16
1.39576e-12
7.78374e-16
3.11101e-14
6.11495e-16
4.66945e-17
3.63477e-06
3.13863e-05
1.24042e-15
3.05457e-05
2.48373e-16
5.32938e-16
1.78204e-16
3.91673e-05
3.12637e-07
1.45407e-15
3.67785e-16
4.84175e-17
6.17191e-17
0.000312744
9.90698e-17
3.79952e-15
5.83581e-07
3.64982e-09
4.29252e-17
1.83722e-05
8.52413e-06
5.27954e-16
2.80162e-17
1.15242e-16
3.33075e-16
1.03827e-15
3.63887e-15
3.72938e-16
6.82858e-16
9.16948e-16
1.37288e-16
2.24628e-15
6.94867e-17
1.90615e-05
1.48269e-09
2.41011e-17
0.00493599
0.00017284
3.51305e-16
4.78997e-18
6.80988e-16
5.51007e-05
2.49283e-07
2.41555e-16
7.12065e-09
0.000171097
3.46709e-06
1.36288e-16
3.02806e-15
6.91558e-08
1.83683e-06
7.95365e-18
2.7143e-16
6.44778e-17
6.78345e-17
3.86568e-17
1.67081e-17
6.16e-06
3.37989e-16
2.51727e-16
3.69488e-16
1.42827e-05
1.412e-15
3.84726e-16
1.35224e-16
0.000128354
4.40966e-16
3.00453e-15
3.42746e-16
2.16929e-17
8.07142e-16
1.82658e-17
5.5894e-07
6.86204e-16
6.16888e-16
5.48201e-16
2.64017e-16
3.36183e-16
6.14717e-18
9.74149e-09
2.69011e-17
2.05887e-16
1.31824e-06
1.04131e-15
3.39409e-16
8.67621e-07
5.21826e-16
4.22703e-16
0.00104815
1.24481e-16
1.86316e-05
1.82808e-07
5.97488e-05
1.31851e-13
4.35281e-15
1.75267e-16
9.43443e-05
6.5541e-16
4.00289e-16
8.98872e-13
0.000752968
8.36492e-16
5.38762e-17
3.66041e-06
2.87741e-06
1.52423e-06
2.58576e-16
6.68924e-16
2.32184e-16
6.74029e-16
2.42842e-15
7.97279e-16
9.05459e-16
1.43947e-12
2.57072e-15
2.79371e-16
7.69026e-16
8.31976e-18
3.78338e-16
4.47525e-16
2.60528e-16
5.24816e-17
1.25899e-16
6.29687e-08
9.51665e-17
1.45752e-17
1.59973e-16
7.27045e-17
3.02878e-16
8.13999e-16
3.79778e-17
9.71318e-13
8.84953e-16
1.36131e-17
6.17579e-15
2.83409e-16
6.34852e-09
2.58728e-15
4.54994e-17
1.18019e-07
1.43199e-08
1.73822e-09
8.06761e-08
5.32133e-15
1.57139e-16
1.97863e-08
1.12667e-05
3.4721e-07
2.17065e-16
1.70616e-11
1.69465e-15
1.32833e-15
1.95814e-15
5.28473e-07
2.29485e-09
1.87711e-17
3.00404e-15
2.63162e-06
7.20153e-16
9.83863e-17
2.52822e-17
1.70383e-16
8.85625e-15
5.87708e-16
3.37198e-18
1.39002e-15
4.3987e-06
6.47725e-16
5.81069e-16
2.12016e-06
4.91548e-17
5.63727e-16
1.75961e-16
2.79915e-16
8.43747e-16
4.55749e-16
1.93403e-09
2.441e-15
3.86129e-16
1.10391e-13
2.67324e-08
2.09858e-06
3.30183e-08
2.20587e-08
4.64017e-17
9.61973e-17
1.13962e-05
2.77352e-16
4.64767e-05
3.25692e-07
3.3764e-07
8.59083e-11
5.15856e-11
1.37229e-09
1.33634e-16
6.45504e-15
6.02086e-16
2.57667e-16
3.83926e-07
2.13875e-06
2.39891e-17
3.19591e-16
5.68278e-10
5.74704e-14
1.1217e-17
4.03607e-09
1.22281e-16
4.96007e-17
3.06427e-16
4.43644e-17
1.36061e-16
3.17502e-17
4.7063e-07
1.37026e-16
1.348e-17
1.41655e-16
7.10889e-09
4.93794e-08
3.08584e-11
2.07074e-15
1.53803e-17
8.0025e-17
1.88113e-07
4.97854e-17
2.8856e-17
4.04272e-16
2.0625e-05
6.94852e-16
5.90548e-17
7.04295e-16
6.21404e-16
8.48429e-17
3.05978e-17
9.23507e-17
7.76441e-06
1.71457e-17
4.60099e-11
2.9175e-10
2.29337e-17
5.07779e-16
5.18655e-17
1.02039e-08
2.27369e-16
2.05637e-16
2.58317e-17
4.30666e-09
1.21906e-16
4.87429e-06
1.35969e-09
6.16859e-12
2.01329e-17
5.88809e-08
2.96887e-06
9.69309e-12
2.70979e-16
5.34136e-09
6.34795e-06
7.79424e-16
1.22525e-16
1.43431e-16
5.88244e-16
2.94057e-15
3.98337e-14
3.756e-06
1.33682e-10
1.90793e-17
6.15957e-16
4.36574e-16
3.99711e-16
1.45331e-15
3.38918e-17
1.61818e-15
1.75502e-17
9.03045e-16
2.30531e-09
1.29566e-15
3.83283e-16
2.26635e-06
2.79278e-15
1.0822e-06
4.03484e-15
2.0284e-16
6.8439e-17
1.37937e-16
5.6705e-17
1.03015e-16
0.000401802
2.37504e-17
3.02829e-16
1.13563e-14
6.11082e-17
6.5406e-16
2.14508e-16
7.03701e-06
3.52979e-09
4.18398e-07
8.66957e-16
4.64234e-09
2.50458e-08
6.6491e-15
5.58477e-08
1.50493e-16
2.82074e-06
2.46947e-05
2.46436e-15
1.55618e-06
2.73751e-07
1.47091e-16
5.71575e-17
4.25089e-17
1.24757e-08
5.44842e-18
5.00305e-06
9.39775e-17
0.000210039
5.1334e-16
2.45671e-11
2.60737e-12
6.20306e-16
3.6739e-17
2.02014e-16
1.18661e-16
3.18818e-05
7.8784e-16
1.03761e-15
3.67654e-17
6.85372e-06
1.00052e-15
1.08613e-15
2.11921e-15
1.69819e-15
1.24556e-16
1.59273e-17
2.30229e-05
2.51955e-07
5.09435e-16
1.82281e-16
2.2102e-10
9.21114e-16
3.00978e-06
1.16196e-15
4.87475e-16
2.59425e-06
4.63512e-16
4.28512e-16
2.19932e-17
3.20282e-08
1.8833e-16
1.22079e-10
2.17238e-09
1.0939e-06
1.53987e-05
3.01339e-05
1.17466e-09
6.4791e-17
5.60069e-07
7.0123e-16
4.53804e-16
6.98187e-16
4.99739e-17
6.70181e-16
9.69628e-17
4.07578e-16
1.65408e-16
6.18969e-06
6.14721e-06
3.40464e-16
4.6671e-16
3.54078e-15
4.36615e-07
1.54294e-08
6.07247e-17
1.72763e-15
1.87494e-07
1.30112e-16
3.48379e-16
4.08716e-16
9.29595e-16
1.44989e-05
1.73273e-17
1.30379e-15
6.50486e-17
4.25553e-17
7.40235e-15
3.00413e-17
0.000120538
3.35882e-17
2.0151e-07
3.77178e-09
4.12086e-18
6.07528e-07
2.15255e-17
2.97826e-16
2.25454e-06
3.93401e-11
8.7059e-06
4.01479e-17
1.65181e-16
1.00857e-16
3.28322e-16
7.16625e-16
1.59641e-16
2.15363e-15
6.40025e-10
6.88551e-16
1.19604e-08
8.6644e-16
7.48318e-16
7.57406e-16
8.73294e-16
1.64717e-16
2.45997e-06
1.90865e-13
1.83712e-16
5.76019e-09
4.93221e-18
4.73185e-17
1.66618e-15
4.69695e-16
3.03961e-09
2.49732e-07
2.51664e-15
2.15342e-07
1.5255e-13
4.43999e-08
2.14574e-17
7.01631e-14
6.65736e-13
1.59168e-05
1.56749e-06
2.68822e-16
9.66274e-11
3.21174e-16
2.24505e-07
2.14631e-15
2.08411e-16
2.40315e-08
9.26489e-05
7.97685e-11
5.78488e-17
5.80418e-17
8.28711e-10
8.36874e-16
4.23012e-16
6.82236e-09
3.04133e-16
1.28311e-16
1.56358e-15
1.07514e-07
8.64567e-08
9.80132e-16
1.03128e-15
2.03965e-16
5.32197e-18
1.1037e-08
1.14354e-15
1.50406e-16
5.18538e-16
5.80527e-07
2.05917e-16
1.08353e-16
2.42883e-15
2.79109e-15
7.87078e-16
0.00308823
1.88621e-16
3.99503e-06
1.06899e-15
1.68468e-05
4.17921e-17
3.7202e-16
2.49982e-15
9.01681e-16
2.52595e-17
1.05432e-16
2.43038e-09
3.8233e-17
1.99918e-16
1.43303e-15
3.69223e-16
9.72525e-17
7.10195e-18
3.30655e-16
1.95359e-16
7.83258e-16
2.22367e-06
6.11899e-17
8.35453e-07
8.96415e-17
3.51462e-07
2.18647e-09
1.89308e-16
1.42136e-15
2.36826e-16
8.55473e-16
4.77828e-09
9.26792e-09
1.28134e-16
1.14198e-09
3.84009e-16
2.07491e-15
3.51966e-15
4.75958e-16
5.92681e-16
2.30708e-17
7.83017e-17
2.15075e-16
4.05429e-16
8.47917e-17
4.64601e-17
1.10904e-15
1.96161e-10
3.0765e-15
1.10424e-17
7.84093e-17
2.54359e-06
1.49945e-17
1.25156e-07
1.45341e-15
1.03201e-16
8.04038e-17
2.56519e-16
7.63148e-07
1.56806e-16
9.63343e-08
1.03637e-15
1.88936e-17
1.05919e-15
5.96155e-07
6.81849e-16
6.7774e-16
0.000264577
2.35006e-15
9.73202e-17
1.17953e-14
9.27681e-10
1.25748e-15
3.77718e-15
1.54863e-05
1.55832e-16
6.70603e-16
1.61233e-16
2.64828e-16
3.89024e-09
1.40847e-05
1.1654e-16
3.14536e-16
1.97558e-17
1.06345e-15
1.67754e-15
1.10365e-16
2.58307e-17
2.08872e-17
5.10982e-10
1.57764e-17
1.10575e-17
1.16878e-09
2.95522e-16
5.85537e-09
1.60851e-15
3.33167e-17
3.11152e-17
3.00944e-06
9.64649e-10
4.59969e-16
1.64749e-09
4.21162e-15
1.02687e-09
2.59087e-17
1.72999e-16
5.18722e-10
5.97595e-16
1.9419e-08
3.13468e-12
5.14209e-16
3.39922e-18
3.13287e-12
4.28473e-14
8.28583e-08
1.81791e-16
0.000307572
3.15836e-16
1.3676e-15
1.07128e-16
4.34976e-12
1.16288e-15
4.46239e-17
1.79518e-14
1.03011e-15
3.02077e-07
2.77042e-15
7.61119e-16
7.10767e-16
1.96375e-10
1.42054e-08
5.82651e-17
1.47824e-16
3.58836e-08
7.81423e-09
1.12824e-16
3.71873e-12
9.30945e-17
1.12707e-16
7.79361e-06
3.12753e-07
3.73274e-17
1.83199e-16
1.52719e-16
6.53343e-17
3.55775e-18
2.99733e-17
2.41184e-16
4.06384e-17
1.65694e-17
8.35989e-17
4.10964e-17
4.65496e-18
4.24907e-16
2.94437e-17
2.94327e-17
3.26085e-17
5.51899e-17
2.99589e-17
4.14799e-17
1.78423e-16
1.41838e-17
8.99262e-17
5.34797e-08
1.2153e-16
1.43695e-17
2.64915e-17
1.0391e-15
7.09967e-17
2.49878e-15
0.000275758
1.02221e-15
1.87378e-17
4.9985e-16
4.91266e-13
4.13723e-17
6.85225e-06
1.84753e-15
3.39761e-18
9.04844e-07
1.55015e-06
8.10791e-16
1.57177e-05
2.17554e-15
1.28853e-16
4.94998e-16
1.82059e-16
5.29284e-15
1.85973e-16
1.46559e-16
1.45387e-15
1.2659e-15
1.43156e-17
2.9457e-16
2.17347e-06
3.38613e-15
1.33836e-15
2.15082e-15
1.65e-15
1.20265e-14
1.87829e-15
8.59648e-17
5.01825e-15
8.68015e-16
2.01248e-09
1.37464e-15
1.09504e-17
9.52206e-17
5.7249e-17
3.9623e-16
2.82878e-18
6.44507e-16
1.03043e-15
4.05857e-17
3.55402e-17
1.54261e-16
5.55424e-17
1.06972e-16
2.52799e-16
1.55384e-16
2.57596e-15
5.81527e-16
1.67111e-07
2.27667e-15
4.17685e-06
1.64378e-16
2.48991e-15
3.14887e-05
3.1315e-09
3.12257e-17
1.43332e-17
1.32409e-07
2.3374e-17
4.22621e-17
1.2327e-17
4.81382e-16
5.88558e-16
3.44672e-07
2.87473e-05
2.58283e-16
1.90153e-15
2.97713e-15
3.01531e-16
1.3333e-16
2.92518e-15
1.99214e-15
1.54619e-16
3.73532e-05
0.00127686
4.41793e-06
1.17702e-15
3.20774e-19
6.1112e-06
3.36622e-15
1.94055e-16
1.12641e-16
3.23579e-06
1.34048e-16
1.21869e-09
2.75248e-12
1.93527e-16
5.28129e-16
1.95384e-07
2.53756e-17
2.46437e-16
3.96411e-15
2.75335e-15
2.25534e-16
1.80787e-16
2.59913e-15
1.77497e-17
8.44481e-16
2.89308e-16
2.71397e-16
4.09694e-16
0.000941376
2.03369e-17
1.70336e-17
1.01093e-08
3.13193e-15
3.41954e-07
7.91631e-16
2.54186e-16
1.24821e-15
6.31839e-16
5.15171e-16
5.20699e-16
1.22143e-15
1.21982e-07
6.89461e-16
2.75e-11
1.75375e-16
8.80705e-17
5.92541e-17
2.25036e-05
2.46853e-06
6.40382e-17
1.29156e-16
6.13006e-05
1.13938e-15
8.83632e-17
9.25423e-17
1.05691e-15
6.57091e-16
5.61381e-16
6.35801e-17
1.06778e-05
2.53996e-06
1.41618e-06
6.66398e-16
1.6323e-16
1.76667e-16
6.11483e-16
5.24665e-15
7.71318e-16
2.61236e-15
1.5405e-12
1.39124e-15
2.94633e-16
1.87469e-09
1.40556e-16
4.17217e-17
3.98038e-16
3.77001e-17
3.02634e-15
1.07443e-15
1.81688e-08
2.48442e-07
2.40191e-08
3.51199e-05
4.483e-17
9.45531e-17
7.12888e-16
1.17772e-16
1.25026e-16
1.16991e-17
4.45786e-11
9.25049e-09
3.58827e-16
0.00124004
7.02777e-06
1.30164e-05
2.29902e-10
5.36367e-05
1.59084e-16
4.02873e-16
2.90939e-16
3.76194e-15
1.72195e-15
5.46467e-06
4.03028e-16
7.33097e-16
4.8363e-16
8.29253e-08
1.02359e-15
4.5549e-16
3.66527e-05
3.61493e-16
1.55952e-16
1.21915e-15
2.13753e-15
3.08591e-16
5.05699e-12
9.08677e-17
2.75868e-16
6.46799e-17
4.03578e-17
4.39525e-16
4.99643e-06
2.32351e-08
2.30856e-17
1.78259e-09
1.19064e-15
6.39691e-16
3.04861e-16
2.29979e-16
3.09085e-15
1.82978e-06
3.11948e-17
2.03057e-16
1.27969e-15
1.11782e-16
5.09591e-16
5.31051e-17
0.000169134
1.10027e-10
3.14173e-16
2.02989e-18
1.53828e-16
7.96097e-18
3.2994e-16
1.96792e-18
3.73038e-17
8.71554e-17
8.62327e-18
3.56537e-17
3.81892e-06
6.11301e-17
1.0395e-15
2.5934e-07
3.80587e-16
4.68127e-07
5.78166e-15
2.72812e-15
7.92614e-16
2.27224e-08
1.1754e-15
4.32473e-09
1.91594e-07
2.51762e-09
1.131e-15
2.56662e-16
5.87707e-09
7.70154e-16
6.36723e-16
8.13884e-16
1.51568e-15
4.30936e-15
2.97539e-16
4.1451e-16
4.24616e-15
3.1568e-07
7.89085e-16
9.64637e-12
1.17077e-06
1.21717e-17
1.58429e-15
2.93022e-17
2.43691e-09
1.07207e-16
1.69855e-07
3.08172e-16
6.08338e-07
4.70569e-06
2.14154e-16
1.08515e-16
1.36181e-16
3.3622e-16
4.3183e-07
1.3629e-15
1.28867e-08
1.03697e-15
4.90043e-16
5.41178e-16
2.75245e-17
4.1066e-15
2.27571e-16
1.20903e-15
2.41233e-16
3.07466e-17
2.39761e-16
2.27265e-15
1.43022e-15
5.74103e-16
7.87491e-17
4.23839e-16
2.98655e-15
4.81392e-16
8.8501e-16
1.90532e-16
3.36047e-16
6.51991e-10
3.74248e-09
0.000105568
7.95657e-17
4.54565e-17
1.28186e-16
9.76679e-18
1.05003e-07
8.76157e-17
2.04041e-16
1.4263e-15
8.78592e-11
7.91808e-16
2.52798e-16
1.36639e-06
4.05729e-16
1.28612e-05
1.52372e-07
2.40741e-16
1.30559e-16
1.89179e-16
2.92609e-15
4.19666e-16
3.74534e-18
1.20382e-15
1.29296e-16
7.0606e-16
1.36354e-15
1.47004e-16
5.17449e-07
7.71993e-15
2.16772e-05
1.47042e-05
1.90707e-16
2.50233e-10
6.68736e-07
1.22466e-16
1.065e-17
1.37471e-16
6.10745e-17
8.87871e-16
1.28055e-16
8.44511e-16
2.42584e-16
3.27586e-17
3.37329e-15
3.22972e-12
7.17308e-17
3.55723e-07
5.57623e-17
2.04941e-08
4.75407e-16
6.1337e-08
2.74689e-16
1.12649e-16
2.33019e-05
1.05224e-05
5.88353e-16
0.000101276
4.63635e-13
1.77354e-12
1.3413e-16
1.30852e-06
9.28791e-15
2.67823e-06
7.65976e-09
4.12172e-07
1.66265e-16
7.37097e-16
6.47047e-07
7.94157e-11
1.28699e-16
4.96983e-16
5.45098e-15
8.27953e-16
3.12918e-15
2.24777e-16
6.51065e-17
2.71724e-09
3.24711e-15
1.91703e-16
9.79165e-17
1.98471e-06
2.95281e-15
1.3702e-06
1.55931e-08
3.00778e-15
6.1866e-07
4.22751e-18
4.57486e-15
4.79809e-07
9.68494e-06
2.72373e-17
1.94139e-15
6.27262e-17
3.4213e-06
6.48975e-15
2.9795e-15
2.95542e-16
1.83632e-10
3.60117e-16
6.30925e-16
4.11032e-15
5.29004e-16
2.81344e-06
6.99358e-08
1.20526e-15
0.000352127
5.23327e-16
4.78217e-08
1.27472e-14
8.13083e-15
7.59228e-08
2.19801e-17
3.03316e-16
3.53437e-06
1.20596e-16
1.13461e-09
2.86438e-16
1.10176e-16
3.14203e-11
8.42715e-07
5.16427e-15
6.10861e-09
3.41288e-06
2.68696e-16
2.51798e-05
7.5045e-16
2.49565e-16
5.63378e-18
3.34219e-16
2.62938e-09
2.97751e-16
1.56053e-16
1.99247e-15
6.6378e-16
5.90118e-16
8.26788e-07
1.13234e-15
2.82866e-08
7.06638e-16
1.44361e-16
2.97654e-09
5.52699e-06
9.61584e-17
1.18834e-06
1.0575e-16
0.000636922
3.39334e-17
3.34178e-05
5.9099e-16
6.12679e-09
1.65664e-05
1.15048e-06
4.61164e-05
4.24022e-16
6.96814e-16
8.01394e-17
2.50756e-16
3.71528e-17
1.01531e-16
2.57515e-15
2.07948e-16
8.62846e-17
2.68389e-06
3.15339e-16
5.30812e-17
1.4166e-10
7.94543e-17
1.8096e-16
6.74663e-16
6.03956e-16
1.02253e-12
4.21168e-17
1.58633e-16
1.63282e-05
1.55112e-15
0.000130451
1.06249e-17
4.74239e-15
1.23064e-09
4.31789e-15
3.36153e-16
3.53631e-07
6.05637e-16
1.00741e-06
4.28811e-06
2.69797e-06
2.07431e-16
8.96009e-17
1.96711e-09
1.23524e-17
5.85728e-17
1.63737e-16
2.8094e-15
5.16854e-05
1.62345e-16
7.52608e-11
2.02812e-16
2.09867e-07
7.88901e-15
1.75541e-12
2.48001e-10
1.34676e-07
1.80883e-05
9.07422e-06
2.24283e-16
5.76543e-17
1.60155e-16
3.17626e-05
2.01503e-17
3.73972e-06
2.13576e-15
5.46784e-06
2.17019e-10
1.0639e-15
1.4175e-15
3.04599e-17
8.02566e-17
3.71968e-06
3.90189e-06
3.54163e-16
7.91966e-16
9.18478e-17
1.10186e-15
3.6979e-06
6.89893e-05
4.09319e-05
3.59667e-15
8.74241e-16
3.64279e-16
6.63759e-17
6.35011e-16
6.65454e-16
3.13777e-16
4.45862e-16
1.30003e-11
5.75723e-15
0.00013994
1.2197e-16
3.48506e-16
8.52469e-16
9.73243e-17
5.5219e-17
1.74429e-07
6.8027e-17
9.87055e-16
3.90374e-16
5.10216e-16
9.29758e-17
1.15128e-15
3.0131e-06
1.335e-15
1.59106e-06
0.000411762
7.62438e-16
2.26815e-09
3.50007e-15
3.6085e-17
5.25027e-17
9.42886e-16
6.74879e-06
1.82583e-16
6.75688e-06
1.08465e-09
8.36695e-16
2.87193e-16
6.3526e-15
3.88028e-17
2.27413e-16
5.79218e-17
1.5525e-15
0.000223638
1.17401e-16
4.01465e-06
2.22531e-16
2.74437e-16
2.70024e-16
5.38869e-06
1.76691e-15
3.10841e-17
5.46056e-16
7.36426e-08
4.7646e-16
6.91785e-16
1.04371e-16
8.94115e-16
1.08829e-16
6.64359e-16
3.69743e-07
4.17454e-06
4.34425e-06
4.1957e-16
9.61365e-16
1.14393e-15
2.60708e-06
1.11773e-05
1.06101e-05
8.46732e-11
3.97597e-18
8.97194e-16
5.9257e-16
1.75103e-15
4.31978e-17
3.1869e-17
1.16634e-16
4.26899e-17
6.54945e-17
1.06509e-15
2.84047e-16
1.50455e-15
2.14577e-17
2.00476e-16
5.2426e-16
1.74091e-17
2.06724e-16
2.78252e-09
7.02514e-15
6.35513e-16
1.68444e-16
2.58377e-16
1.85012e-16
3.50042e-12
3.10579e-05
0.000126694
6.57203e-17
2.69228e-14
9.06048e-15
6.25623e-17
2.80144e-17
1.96193e-16
1.69856e-15
4.64197e-16
5.74737e-16
3.35491e-09
1.90552e-16
9.54976e-17
4.20427e-16
0.00246267
1.43101e-16
6.86509e-16
1.38942e-16
3.20492e-07
4.76098e-16
0.000782122
3.24724e-16
2.24376e-08
5.35113e-16
4.61682e-15
5.75481e-17
1.91383e-16
3.14432e-15
3.99416e-16
1.19636e-15
3.25435e-05
2.12885e-05
0.000981054
7.73921e-17
4.20874e-16
2.44192e-15
4.87081e-16
1.65672e-07
7.71582e-11
1.64603e-16
2.86135e-16
8.92947e-16
7.33722e-06
1.17316e-15
2.03194e-16
4.18067e-16
3.29315e-05
4.69216e-16
1.0935e-16
1.05292e-15
2.30868e-15
1.09593e-15
3.00727e-16
5.21379e-17
6.99743e-17
1.89334e-15
2.28973e-15
1.69842e-16
2.1394e-17
2.68986e-16
3.2185e-11
1.3537e-10
9.65709e-16
9.89548e-16
1.63261e-16
1.81035e-15
2.6745e-06
4.33139e-07
4.01492e-17
1.43059e-14
3.86489e-07
5.24675e-15
1.11271e-15
5.90558e-17
4.21229e-17
3.177e-16
1.34754e-17
4.93796e-09
2.51009e-15
1.79225e-05
6.93901e-17
1.66521e-06
9.86452e-16
1.32076e-06
1.77055e-16
3.68468e-16
1.37976e-05
0.000261832
3.04345e-15
3.22802e-06
1.78643e-16
4.2325e-07
2.897e-17
2.53316e-15
5.5955e-16
4.97596e-10
4.34616e-18
5.22453e-07
3.03498e-17
2.0749e-12
4.53592e-17
2.82226e-15
3.64095e-17
5.95822e-17
1.31348e-16
2.60102e-05
2.30171e-16
5.3893e-06
7.83941e-18
4.76599e-06
1.98488e-05
3.6653e-05
9.44915e-18
3.98713e-09
2.65029e-05
1.10115e-09
1.73031e-08
4.52744e-10
3.96915e-06
1.56591e-15
2.09609e-17
4.3446e-10
1.18481e-15
2.45534e-05
1.52411e-15
8.52845e-17
4.64705e-16
0.000581858
3.31616e-17
8.97142e-17
2.99132e-17
1.87757e-16
1.28422e-17
8.93628e-08
0.000137024
7.62347e-07
1.36368e-15
5.94873e-16
1.33754e-06
7.34957e-18
8.81472e-10
3.02593e-16
1.13995e-17
1.13181e-16
1.36157e-16
3.08112e-08
6.08601e-16
3.25466e-17
9.39489e-16
2.3432e-13
2.91394e-16
3.33184e-17
1.50699e-05
1.49539e-15
5.28273e-05
7.48556e-05
0.0003723
4.26252e-16
0.000234736
0.00142729
0.00244368
0.000827243
9.55434e-17
1.2967e-17
1.39227e-13
4.47223e-06
1.68406e-16
2.60303e-06
3.41056e-17
4.79015e-14
3.69372e-15
3.37136e-16
4.26345e-07
3.58475e-16
3.21887e-16
3.72918e-08
2.29198e-08
3.93642e-17
1.04031e-16
3.33832e-09
4.6709e-15
3.32522e-17
2.33954e-08
2.96259e-10
1.36369e-11
1.31332e-15
1.03031e-10
9.93753e-17
1.70078e-16
4.97612e-10
8.7198e-11
1.45223e-16
1.68454e-11
1.37898e-10
1.55872e-16
1.46869e-13
8.92032e-17
8.52699e-13
8.12888e-17
1.04698e-13
1.25341e-16
2.8537e-11
2.88542e-16
9.81637e-17
6.97754e-17
1.77348e-14
5.59412e-13
1.99759e-16
1.11723e-10
6.32133e-06
1.34992e-16
6.85345e-17
5.9497e-16
3.42838e-16
0.000227794
6.66901e-17
7.65215e-11
2.15996e-10
5.10759e-05
2.50244e-12
4.125e-17
7.24956e-05
1.63653e-16
0.000267242
8.03445e-17
9.18173e-12
1.06015e-11
8.22549e-16
3.82499e-17
5.62318e-16
2.83979e-05
4.76123e-17
1.91612e-15
6.5258e-16
2.52854e-16
4.58242e-17
2.28331e-16
2.35407e-07
5.63564e-15
0.000174656
4.13989e-15
2.17831e-16
5.10872e-05
1.41557e-15
2.223e-18
4.21439e-16
1.97003e-16
2.00104e-15
5.45785e-16
2.56377e-16
5.5794e-17
4.99955e-18
5.23437e-16
3.67634e-15
2.23429e-17
1.67146e-15
6.02741e-16
3.07378e-17
3.45669e-15
0.00024793
1.98479e-05
1.10835e-15
1.18753e-15
2.62811e-16
1.73707e-15
2.06217e-16
7.01706e-16
4.34011e-16
1.27664e-17
3.73738e-15
1.97017e-15
3.05043e-17
6.32434e-17
0.000368822
3.16727e-16
6.22092e-10
1.05497e-15
2.43414e-15
3.60409e-06
1.51506e-15
1.0151e-17
1.51708e-16
9.52954e-17
6.62531e-16
1.95849e-05
3.97387e-16
2.10354e-15
1.03197e-15
1.81319e-16
1.03741e-15
6.64848e-17
2.85233e-09
1.30034e-15
4.63868e-17
1.89855e-06
2.71962e-16
0.00014949
6.43998e-16
1.1549e-16
2.26437e-16
2.99517e-16
0.000189522
2.23386e-16
9.51737e-17
1.47823e-15
8.83939e-16
4.78796e-16
4.03453e-09
2.8325e-05
7.119e-16
1.3272e-16
1.90033e-15
7.06966e-16
3.80327e-15
6.38924e-18
4.15444e-16
1.09103e-16
6.49767e-05
5.80113e-17
1.88903e-15
5.34916e-17
1.07261e-16
2.57257e-17
5.34041e-17
7.2996e-16
1.59191e-16
1.75783e-15
2.10246e-16
7.52233e-16
2.67385e-15
1.58075e-15
3.47994e-16
0.000661295
1.51575e-15
3.14005e-17
3.54823e-16
6.12867e-17
2.0191e-15
7.93997e-16
2.50883e-16
7.28411e-16
6.55748e-17
4.94387e-15
2.28144e-16
3.29348e-06
1.33088e-16
4.95124e-06
2.05206e-16
5.70347e-05
4.45263e-16
6.59212e-16
5.04562e-06
2.29066e-16
3.78952e-17
4.8236e-15
8.92895e-09
1.78363e-17
3.14192e-16
2.67926e-05
1.62747e-05
1.52775e-15
2.07939e-16
2.92936e-16
1.68256e-05
9.94337e-17
5.61277e-06
1.98497e-15
2.82007e-05
1.9854e-16
3.79833e-16
2.73217e-16
4.9512e-15
1.34469e-16
4.97383e-15
2.02022e-16
1.66923e-17
1.90421e-16
6.88967e-10
1.86489e-08
1.59527e-15
3.7989e-06
4.55541e-16
7.44591e-06
6.83206e-17
4.49252e-10
9.80817e-17
7.85212e-16
1.67044e-05
1.63501e-17
1.48774e-17
1.00476e-16
6.2123e-16
2.05238e-07
9.62428e-18
6.13061e-16
1.99842e-16
2.35213e-16
0.000745975
2.30796e-16
9.67531e-05
5.77875e-17
7.77981e-16
7.4496e-17
2.27681e-17
2.70033e-15
1.38463e-16
5.23233e-08
1.01358e-17
3.00789e-06
3.0073e-16
1.86902e-17
6.56739e-15
1.59431e-15
7.53286e-16
1.29251e-15
4.65049e-16
8.31585e-16
3.84779e-07
0.000247707
7.03868e-16
8.32595e-17
7.54962e-08
2.96237e-17
1.78712e-17
2.20337e-09
1.90299e-10
2.67923e-07
4.16529e-16
1.16179e-15
3.8283e-06
2.77332e-16
6.05922e-09
2.02743e-16
1.9006e-17
3.2821e-16
2.00051e-16
6.49918e-18
1.12789e-16
6.66802e-16
6.40946e-17
5.71715e-16
9.69756e-16
1.75899e-16
8.3288e-17
8.50552e-05
3.66226e-17
8.67331e-18
1.77629e-12
1.62017e-16
1.33887e-16
0.00124972
9.1635e-17
3.99159e-16
1.12874e-08
2.23812e-12
2.66003e-16
8.50516e-17
8.38411e-18
4.00013e-13
7.33178e-18
2.53741e-16
5.88836e-11
1.14205e-17
1.02301e-15
4.49826e-16
9.1149e-16
0.000126386
8.20614e-17
2.10991e-07
2.05075e-16
3.26957e-17
3.06363e-17
8.69397e-16
2.04581e-16
5.55127e-11
7.9157e-11
7.661e-16
1.10198e-16
2.41626e-16
7.66279e-16
1.15585e-10
1.60635e-15
3.22016e-10
3.40209e-11
5.1524e-17
6.64492e-17
5.10093e-16
4.19495e-12
7.33899e-17
6.46583e-16
2.77103e-12
8.87788e-15
2.65829e-05
4.96631e-17
8.24809e-06
3.31277e-15
2.34838e-09
2.36296e-16
9.83816e-08
4.01881e-17
1.29871e-07
2.15835e-05
3.3235e-15
1.91633e-07
8.35356e-09
2.66371e-16
9.35582e-06
4.69031e-16
2.06414e-16
9.68789e-16
3.96315e-16
1.64252e-16
1.13394e-17
3.4605e-16
3.72055e-16
0.000318971
1.57073e-17
6.05407e-17
4.15264e-17
1.93126e-16
2.29389e-16
1.31293e-12
0.000947361
1.46274e-09
1.43848e-08
5.10451e-16
2.78129e-06
2.672e-06
1.83317e-16
2.11723e-15
4.31879e-16
1.12772e-16
1.44715e-16
6.19047e-15
1.10736e-15
2.58976e-16
3.0448e-07
8.64009e-16
9.58416e-17
1.25262e-07
1.16878e-09
1.0387e-16
8.47494e-06
1.35847e-16
1.19897e-15
5.57437e-16
0.000176307
8.44932e-16
1.36543e-17
3.38766e-05
4.02641e-17
2.9064e-17
2.49079e-16
1.00094e-16
6.40237e-05
6.08851e-16
2.55613e-17
1.42962e-16
5.07989e-16