/*--------------------------------*- C++ -*----------------------------------*\
  =========                 |
  \\      /  F ield         | OpenFOAM: The Open Source CFD Toolbox
   \\    /   O peration     | Website:  https://openfoam.org
    \\  /    A nd           | Version:  10
     \\/     M anipulation  |
\*---------------------------------------------------------------------------*/
FoamFile
{
    format      ascii;
    class       volScalarField;
    location    "56";
    object      SgP;
}
// * * * * * * * * * * * * * * * * * * * * * * * * * * * * * * * * * * * * * //

dimensions      [1 -1 -3 -1 0 0 0];

internalField   nonuniform List<scalar> 
111485
(
1.32497e-09
1.70183e-06
5.55637e-07
5.75529e-12
1.40792e-07
2.50426e-09
2.69491e-07
1.08217e-08
2.58213e-07
2.45484e-08
5.0775e-07
2.06341e-08
1.31651e-07
0.00517134
1.32936e-07
2.70089e-07
0.00367627
1.60635e-05
1.67382e-08
2.5213e-08
0.000692769
2.32839e-10
5.03711e-08
1.75993e-07
9.08624e-07
2.17735e-09
2.0952e-08
3.15719e-07
4.88227e-08
0.000902608
6.50724e-08
3.14513e-09
6.32046e-09
2.55525e-08
1.34739e-05
1.80201e-06
0.00241824
0.00362988
4.26316e-05
7.01202e-08
0.00072233
1.63195e-08
5.34633e-08
2.02616e-06
2.91369e-07
3.90997e-08
1.22533e-07
1.51554e-08
1.29284e-07
1.45339e-08
2.90957e-08
3.58017e-07
1.03654e-08
1.77806e-07
3.4803e-08
1.17165e-09
2.81429e-08
4.18569e-10
8.70221e-07
8.49393e-09
1.84173e-08
5.8207e-09
1.87298e-06
1.04627e-07
1.50052e-07
5.30394e-07
6.82552e-06
2.72495e-08
1.42352e-06
3.0335e-06
9.36652e-07
2.0116e-06
2.1547e-07
1.76316e-06
5.78016e-09
2.63693e-09
1.11105e-09
1.46406e-08
1.98179e-09
5.29988e-07
0.00496753
0.00922153
9.25798e-10
2.18174e-09
3.33351e-07
7.53962e-07
0.00249484
1.40391e-07
4.39396e-06
1.43751e-07
2.89688e-08
1.26885e-07
9.05081e-07
7.60911e-09
3.99367e-08
4.24349e-10
0.000505011
2.71566e-07
2.9322e-05
8.30275e-06
6.37783e-10
5.63813e-08
3.54574e-08
2.27792e-07
1.30432e-07
2.60578e-07
1.91442e-10
3.78041e-09
2.55641e-07
1.17388e-05
8.67658e-07
2.11328e-08
2.45304e-07
1.36445e-06
5.60127e-09
6.35318e-09
1.557e-09
1.64877e-07
4.71175e-07
1.58197e-10
1.14169e-09
3.35995e-06
0.00124904
4.51687e-08
8.30299e-07
0.000530868
1.97625e-06
3.07865e-07
1.76048e-11
5.56078e-06
2.83623e-06
3.67398e-07
0.000884791
3.16909e-06
1.47689e-06
3.65088e-09
1.99169e-10
1.19588e-08
2.17561e-07
4.18513e-07
1.37011e-06
2.92273e-09
0.00317019
1.74223e-06
6.5098e-07
5.10337e-08
2.31207e-10
8.27953e-10
2.22174e-09
1.95038e-08
6.01823e-07
0.000530778
0.00197822
2.64717e-07
1.18381e-06
1.52929e-09
7.56787e-08
2.99968e-06
1.6164e-05
1.09077e-07
6.72108e-11
5.20421e-09
7.23283e-07
1.11892e-06
1.3445e-06
9.55816e-07
1.19342e-07
0.000451772
2.74858e-05
2.20054e-06
4.09208e-11
2.1057e-09
0.00347448
2.66153e-11
6.35341e-09
6.58501e-08
7.92746e-09
1.63582e-07
4.0668e-09
9.91029e-08
1.50099e-07
4.99975e-09
2.63852e-08
7.36569e-09
5.01376e-08
4.05856e-07
1.95821e-07
8.24308e-07
6.44279e-06
5.53679e-09
1.12701e-06
9.15352e-08
1.31599e-07
3.90497e-07
1.09936e-07
2.33547e-07
5.44981e-08
2.76132e-08
2.00859e-08
1.54679e-07
3.5249e-08
2.79758e-05
1.44957e-06
1.06339e-08
3.05502e-08
1.01778e-07
2.17778e-07
2.0035e-07
2.90164e-07
6.43713e-08
8.30311e-08
1.45367e-07
1.41079e-07
1.19517e-10
1.58024e-06
5.05797e-06
6.98984e-09
2.9004e-10
2.23246e-07
3.61293e-07
1.84958e-08
1.35316e-09
3.19119e-07
2.65771e-07
5.05855e-06
1.16563e-10
2.22069e-11
6.6274e-07
7.378e-05
4.09842e-07
1.72697e-06
2.86264e-07
2.24424e-08
0.00255584
6.52995e-07
2.51687e-07
0.00284555
1.3862e-09
1.03628e-06
4.87263e-07
4.58941e-07
5.88689e-07
1.10632e-07
7.49335e-08
3.28342e-05
6.58593e-09
1.44423e-07
1.48283e-09
1.09762e-07
0.00240158
3.58265e-07
3.38195e-07
3.83169e-07
2.52835e-11
3.63723e-06
1.51737e-08
5.71097e-09
1.21006e-06
0.00180411
1.56123e-09
1.10173e-07
1.06986e-06
1.99288e-08
6.55685e-11
1.13309e-07
1.62053e-11
9.67062e-10
1.2452e-08
0.00297142
6.64913e-08
5.70184e-07
1.82957e-08
0.00311018
3.68795e-07
1.69027e-08
4.27517e-06
7.39169e-08
2.82557e-08
9.40809e-09
1.83155e-09
0.00203507
1.02825e-08
7.75317e-07
4.33231e-07
2.66761e-11
0.00382583
0.00466935
3.46233e-08
6.15158e-06
5.3922e-07
5.82449e-08
1.43938e-07
2.44342e-07
1.6455e-10
1.32224e-07
3.21122e-10
6.31028e-06
4.93434e-06
2.86856e-07
3.60045e-08
0.00606065
6.04921e-09
0.00144089
1.44914e-08
1.2811e-07
2.27697e-10
2.20165e-09
0.000461979
6.44976e-08
3.26167e-08
1.30123e-07
2.96085e-06
7.14038e-09
4.56753e-07
7.73385e-10
3.91411e-09
8.69737e-08
7.56646e-05
0.00441253
5.87139e-08
1.38565e-05
1.76858e-10
1.02636e-09
4.48414e-10
1.49239e-06
2.73922e-08
1.48616e-08
5.71653e-08
1.32929e-08
1.3221e-06
0.00112862
9.71335e-08
1.00731e-08
5.62728e-08
3.2699e-08
0.000795724
9.27906e-07
1.0758e-08
1.62747e-08
1.55762e-08
2.34819e-07
2.70124e-09
0.00264754
4.36072e-06
8.51695e-09
6.65283e-08
4.85582e-06
1.18574e-08
0.00065205
2.55192e-09
2.12695e-07
1.05787e-07
8.85189e-09
3.61349e-07
1.75632e-07
6.85702e-09
9.12817e-09
1.8787e-08
4.94444e-08
0.00634453
5.44405e-07
1.30908e-09
0.000882311
3.30702e-07
4.20068e-10
8.77439e-09
2.17325e-09
0.000880229
1.23962e-05
0.000856222
0.000824261
6.25281e-09
2.16555e-10
2.90984e-08
5.08718e-08
3.45467e-11
1.84018e-07
4.72693e-08
2.82295e-07
5.06847e-07
2.54459e-06
8.47352e-08
1.25842e-05
2.523e-08
9.09033e-08
8.79158e-07
1.23026e-08
1.25805e-05
5.51638e-09
2.34994e-07
5.80578e-08
0.000503772
1.99465e-09
1.30329e-09
0.00272056
1.2184e-07
0.00538812
7.80753e-09
1.1315e-07
6.17125e-08
1.31808e-10
9.75854e-08
8.28094e-07
1.69571e-09
0.000596805
8.30607e-08
4.95017e-08
1.6637e-08
3.18517e-10
1.31617e-05
3.4619e-10
1.62182e-07
6.6882e-08
1.40959e-12
1.81267e-08
9.12474e-07
0.00433039
2.59769e-06
3.90395e-11
1.43981e-06
1.75611e-06
1.77223e-06
6.61791e-07
1.17796e-05
4.47569e-08
1.95038e-05
9.52796e-07
0.00358992
4.16975e-06
3.81411e-09
1.34646e-07
2.59372e-08
1.94483e-09
2.43376e-05
3.89447e-06
1.38956e-06
2.95101e-08
3.11398e-08
2.33906e-07
3.65075e-09
0.00614946
3.85274e-08
6.03592e-07
8.44587e-05
1.69352e-06
2.48121e-05
1.23016e-09
0.00449318
0.00581341
4.13105e-10
6.51557e-07
5.25051e-06
1.99418e-06
6.19405e-11
4.77375e-07
4.38891e-10
0.00501164
1.34588e-06
3.70949e-07
2.08134e-06
5.39063e-07
4.63542e-09
8.49787e-08
1.35148e-08
1.33541e-06
2.93078e-09
1.7944e-08
0.000977568
1.73951e-06
1.78633e-09
2.04805e-09
7.27807e-06
1.54074e-09
3.14541e-08
7.99596e-08
6.74808e-11
1.06072e-06
1.66796e-09
0.00138474
8.47718e-09
4.47086e-08
3.12672e-09
4.2641e-06
8.87455e-09
0.00396979
3.92423e-07
0.00416014
4.98433e-10
1.14096e-06
4.68533e-08
6.05731e-11
0.00646762
0.00251506
5.32084e-07
6.97616e-08
5.65197e-07
1.49909e-08
2.54672e-07
6.00198e-09
6.95021e-07
0.0050738
1.05584e-09
2.0591e-08
1.95169e-06
3.25181e-07
0.000986907
1.0444e-07
2.01782e-06
3.0625e-08
2.77177e-08
1.32366e-05
0.00136538
2.38151e-07
9.68564e-09
2.21101e-08
7.69267e-08
6.03233e-08
2.30981e-08
4.01033e-07
2.10121e-11
3.0244e-05
2.07621e-09
6.5089e-09
4.78989e-09
1.78428e-06
4.99644e-10
1.48036e-07
4.12029e-09
1.64123e-07
1.30027e-09
0.00205235
0.00198853
4.4635e-07
6.92196e-09
0.00108549
0.00142056
5.71626e-09
4.1644e-09
2.70123e-07
3.85591e-09
2.69854e-06
2.87183e-07
2.30934e-07
0.000795453
3.85423e-08
9.20375e-11
8.13123e-07
7.49057e-07
1.13156e-06
2.17944e-08
3.41583e-07
2.60527e-07
2.63988e-08
1.8772e-08
4.11858e-07
6.29726e-07
1.56999e-10
0.0022587
1.31105e-06
8.70974e-07
3.4335e-08
2.07411e-05
6.33249e-07
8.70263e-06
4.06343e-05
6.15348e-06
4.64271e-08
1.70087e-06
2.28642e-07
4.28607e-07
0.00201691
3.52239e-06
1.31175e-06
6.53308e-05
0.00135824
5.97237e-09
1.148e-06
8.13619e-08
6.11961e-07
1.09762e-08
8.78162e-06
4.8837e-05
9.36955e-06
2.94733e-06
4.6664e-07
1.94544e-08
6.28941e-09
3.46426e-06
2.90323e-08
1.45152e-09
5.38603e-11
9.03943e-09
7.67422e-10
3.90814e-07
3.01e-11
0.000651099
2.75246e-07
6.17634e-07
0.00181029
0.00561975
1.01959e-06
3.2039e-08
0.000691469
6.91671e-10
3.92514e-07
3.28791e-09
9.89198e-09
8.01535e-07
4.58619e-07
0.00208409
5.17273e-07
4.01942e-09
6.43745e-08
5.89154e-07
0.00253003
1.40745e-07
5.36872e-07
1.04174e-06
0.00345442
0.000696086
5.40775e-08
3.38938e-07
1.31934e-07
4.34941e-08
1.54086e-07
1.61791e-08
6.61925e-07
7.26381e-08
3.50275e-08
2.15247e-08
7.30615e-08
1.27475e-05
5.44181e-07
6.50085e-08
7.47449e-08
1.22773e-05
4.9569e-09
8.94323e-09
2.9355e-07
8.3371e-08
3.00333e-07
2.18406e-08
6.95197e-08
6.87066e-08
5.44171e-07
3.15002e-06
2.86626e-07
5.75045e-07
3.11079e-08
9.51031e-09
8.02201e-07
9.9321e-08
2.15821e-09
0.00129589
6.3908e-10
0.00241366
1.01663e-06
0.000235846
1.30071e-08
0.000492524
8.3917e-08
2.20513e-07
3.27105e-10
1.86143e-07
6.00115e-09
4.14008e-10
2.01169e-08
0.00497994
2.17159e-06
5.58611e-07
0.000762504
2.26835e-09
4.16938e-10
1.13587e-07
2.96496e-08
1.4919e-06
9.76411e-09
2.40061e-06
6.48487e-10
1.32476e-07
2.30833e-06
0.0029492
9.18807e-12
3.69006e-09
2.96948e-08
3.67183e-10
2.27688e-06
9.10636e-09
0.00104519
1.3333e-08
1.12964e-09
4.48117e-09
0.000759285
9.05737e-08
2.85446e-06
1.86917e-11
8.43503e-05
1.56067e-05
0.00318823
2.53221e-10
2.55556e-09
8.33168e-08
4.76165e-07
7.50836e-07
9.5744e-06
6.51251e-06
4.59206e-06
1.08363e-07
0.00105398
5.30028e-07
2.00343e-08
1.45572e-09
2.4667e-08
4.95303e-09
3.79472e-09
1.14113e-09
2.63073e-11
3.42597e-08
1.36224e-09
8.43985e-09
1.9874e-08
3.04449e-09
9.41271e-09
4.74603e-09
1.47951e-08
4.42046e-09
3.11083e-07
3.03758e-07
8.78215e-09
7.23183e-10
4.25968e-07
2.14706e-11
1.55449e-06
3.25024e-08
7.95551e-08
2.94434e-09
8.55916e-11
2.23899e-10
4.53813e-11
3.21156e-07
2.07125e-09
1.18419e-08
3.85928e-07
2.22663e-10
2.8072e-07
1.41802e-06
6.92533e-08
1.46996e-08
9.49456e-06
5.66114e-08
0.00443733
2.00027e-06
2.0589e-07
0.00376577
1.47669e-06
1.56648e-07
5.35048e-07
1.0484e-08
3.45409e-07
0.00169279
1.23314e-05
1.37225e-08
3.91673e-09
2.45968e-07
1.5358e-06
1.77275e-06
1.36912e-06
7.5044e-11
4.7407e-13
1.26878e-08
6.72732e-07
7.17399e-08
6.95615e-08
3.23437e-06
4.62872e-08
5.97939e-07
1.54916e-10
2.85934e-09
0.000558342
2.04473e-07
4.79947e-09
2.08885e-09
8.88483e-07
2.26188e-06
3.38362e-08
8.19114e-09
0.000759997
3.61378e-11
5.49176e-07
0.00106066
6.47572e-10
0.0012528
7.65035e-07
0.000617688
8.85302e-06
5.53967e-09
5.17369e-07
3.36387e-07
0.000852507
9.93519e-07
2.26428e-05
0.00285746
2.06216e-06
2.64901e-07
2.11223e-08
1.14594e-08
0.00855656
0.00286187
3.18688e-09
0.00418716
2.7951e-07
2.96173e-06
6.38948e-07
3.71127e-07
2.07886e-05
7.0619e-07
2.44234e-07
1.28365e-07
1.33068e-08
2.37666e-08
0.000765769
3.70175e-09
1.02416e-06
6.08426e-07
9.86714e-10
7.60313e-08
0.00383114
9.06266e-08
6.295e-09
1.06519e-05
8.16339e-10
1.95575e-08
0.00372351
7.82784e-09
0.00312992
0.00598949
2.28677e-05
3.76342e-07
1.88683e-08
6.2604e-08
1.05051e-06
4.62478e-06
2.04245e-05
5.38377e-06
7.88576e-08
0.0007628
1.98077e-06
6.05889e-10
6.36926e-06
5.20104e-06
1.15469e-05
8.3791e-06
1.60779e-05
3.07266e-06
1.036e-10
1.30513e-06
7.13555e-09
1.38047e-08
2.66197e-05
0.00614133
4.34614e-09
5.61131e-09
5.7176e-05
6.26721e-05
4.22687e-11
1.11964e-05
9.90702e-09
2.28879e-10
3.46069e-10
7.69915e-09
1.06271e-07
8.23752e-09
1.36676e-06
0.000856356
5.60245e-11
1.36592e-08
7.90686e-05
0.00205637
1.44505e-06
1.26872e-09
0.000544609
6.88035e-11
2.4664e-06
5.29175e-10
8.52788e-10
1.07767e-05
0.00229218
3.38051e-08
2.00241e-09
3.27029e-09
0.000593825
8.52124e-09
0.000388429
4.64711e-09
2.15951e-06
1.37645e-10
3.85794e-05
4.35439e-08
4.3345e-11
1.79267e-08
9.82133e-09
2.7331e-05
1.6192e-08
3.503e-09
3.52935e-08
8.50143e-05
0.000907105
1.33151e-06
1.04735e-05
2.0385e-05
4.01364e-09
2.25275e-05
1.8084e-07
3.56552e-09
4.95194e-08
4.2601e-06
3.78647e-07
4.61303e-09
1.57047e-07
2.7785e-06
4.13874e-09
1.17397e-08
1.62836e-08
3.26608e-07
0.00125654
9.56131e-11
1.52992e-09
0.00101242
2.12488e-06
1.362e-06
2.91676e-10
2.35578e-08
2.8624e-09
1.95587e-08
4.46442e-07
1.04486e-06
1.77832e-08
4.73091e-07
4.42167e-07
1.46988e-06
3.95438e-07
9.29384e-11
6.2409e-08
8.06922e-11
1.32409e-08
1.62573e-06
3.01805e-06
3.63918e-09
8.56117e-09
1.74391e-08
8.09619e-11
7.88092e-07
9.30275e-09
1.2589e-06
1.52948e-05
1.44573e-06
4.808e-09
2.69024e-05
2.1023e-06
1.31304e-06
2.79231e-06
8.89086e-10
2.69724e-06
6.30786e-08
0.00206715
6.17985e-07
1.80205e-06
8.95078e-09
1.28861e-11
1.29796e-09
0.00328465
0.00125597
9.90019e-07
8.16902e-12
2.39805e-06
6.46003e-10
0.00304142
3.3899e-06
1.52099e-08
2.53201e-09
4.85311e-08
1.55983e-08
1.69604e-06
4.41184e-08
2.09899e-06
0.00549152
9.16535e-08
1.28524e-06
5.19087e-07
1.33776e-06
9.16179e-07
7.86426e-09
1.1699e-11
8.02241e-08
5.73781e-07
4.74549e-09
3.75839e-09
1.07125e-05
6.84159e-09
5.70425e-08
0.00738021
2.70175e-08
1.21297e-06
1.22123e-11
8.32579e-08
3.79336e-09
0.00584098
3.90043e-10
0.00214944
0.00010554
2.32382e-06
3.31517e-07
3.01799e-07
1.78287e-05
4.59958e-08
8.90309e-08
4.83196e-08
8.64478e-09
1.29266e-08
3.82992e-08
1.5246e-06
5.64419e-08
0.00118882
4.63504e-09
9.71814e-08
5.78576e-06
9.33366e-11
7.26249e-06
4.58374e-09
8.51615e-07
1.40998e-05
2.35004e-09
4.20568e-09
1.17005e-06
9.76067e-09
1.68069e-07
0.00321141
9.82127e-09
1.82747e-07
1.30444e-10
0.000778552
1.5921e-07
1.22218e-08
1.12732e-08
8.10084e-08
1.32579e-07
1.41406e-09
0.00270453
2.05403e-08
5.05423e-11
2.28685e-06
8.18969e-09
1.35629e-10
8.2156e-07
1.59072e-05
1.4591e-05
4.40018e-10
3.41081e-08
8.42281e-10
9.83249e-07
8.68438e-07
0.000643251
1.06523e-07
1.452e-05
1.25361e-06
2.0617e-05
5.19652e-07
5.39677e-08
2.19968e-08
1.29746e-08
1.31329e-06
3.97201e-08
1.4234e-07
0.000820171
5.23863e-06
0.000801464
4.26976e-11
1.79399e-07
1.79477e-09
1.40603e-06
1.68434e-06
1.1307e-07
8.85557e-07
8.38398e-06
2.69864e-06
1.54445e-11
0.000114712
0.000144145
1.87293e-06
7.72181e-07
1.95361e-08
1.55267e-05
3.69364e-08
7.31454e-08
7.13402e-09
1.18566e-09
4.38604e-06
1.53721e-07
1.63523e-05
1.51797e-08
0.000792903
1.13321e-05
1.60495e-08
1.9731e-08
1.11968e-05
5.88227e-08
0.00104032
0.00493551
2.31214e-06
4.22046e-06
1.11979e-07
6.16656e-10
5.285e-10
2.90217e-09
1.29495e-06
8.55081e-08
0.000582785
0.00102663
5.66538e-07
5.62751e-09
5.66706e-06
0.000704152
4.62188e-07
2.11211e-05
4.41667e-05
0.000739216
0.00215068
0.000859548
2.61658e-06
1.58853e-10
3.58938e-05
3.16674e-08
3.41608e-09
4.58633e-09
5.5151e-09
5.21155e-07
1.29986e-09
3.29431e-09
1.58788e-06
2.3373e-09
2.47149e-10
1.71505e-08
3.34905e-09
0.00100099
1.161e-07
6.1451e-07
0.00129169
0.00464954
1.99444e-09
0.00333594
3.32726e-06
0.00688118
1.22777e-07
1.36048e-09
1.89612e-09
8.08097e-07
0.00464667
3.77084e-11
2.28212e-05
3.07709e-09
8.71245e-08
2.90054e-07
2.32772e-07
2.7187e-08
5.83663e-09
0.00131168
2.59031e-09
1.40655e-07
4.75656e-09
9.23127e-09
9.94364e-09
8.87872e-06
2.18889e-06
1.98463e-08
6.55085e-06
3.95502e-07
9.89876e-09
2.31085e-06
2.2059e-08
6.52901e-07
3.76639e-09
2.30673e-09
0.00450865
0.000743948
7.86357e-06
6.01067e-09
6.76257e-10
2.99133e-08
0.00344444
6.58439e-09
2.07125e-07
1.49614e-08
4.22125e-08
5.35642e-10
0.000597433
2.40109e-06
3.20724e-09
2.01096e-08
3.21237e-07
3.17298e-09
0.00318088
3.65749e-10
0.000756225
1.47406e-06
9.44361e-08
3.2081e-10
3.90228e-08
2.49541e-08
1.88471e-09
4.77577e-08
7.57169e-08
2.24945e-11
1.21691e-10
1.7741e-06
0.00136757
2.60787e-10
6.74873e-07
9.43594e-08
1.81497e-06
2.77249e-09
0.000821964
3.2123e-08
1.10596e-06
1.06344e-06
7.66407e-09
1.09718e-06
4.44576e-08
3.13029e-07
3.45773e-09
6.45455e-09
2.63691e-07
1.39024e-09
3.28447e-06
8.9287e-07
1.2772e-09
5.76686e-09
2.47786e-06
9.51097e-06
0.00545063
2.49721e-09
1.1196e-07
3.95372e-08
6.63783e-06
3.54973e-06
5.24265e-07
1.5561e-06
0.00135974
7.08001e-08
9.56031e-07
1.40859e-05
0.00115441
1.54622e-08
9.33404e-10
7.35575e-06
2.11751e-08
0.000707508
4.90212e-09
2.08907e-07
2.31635e-08
4.35335e-09
0.00410032
1.18342e-09
1.08777e-08
1.5043e-08
4.67704e-07
0.00540869
0.000971275
8.7609e-09
2.45347e-09
7.49495e-11
1.11211e-08
1.0679e-08
1.74649e-08
2.98736e-09
1.34591e-10
3.90674e-09
1.92815e-10
5.39415e-09
0.001066
0.000635181
2.14284e-10
2.61862e-07
4.08763e-09
8.4108e-09
2.09446e-09
0.000622969
0.0015455
1.93743e-07
4.35966e-09
1.38167e-09
1.65514e-08
3.40865e-08
8.82731e-08
5.81951e-09
6.45857e-06
5.00466e-09
5.42068e-08
9.08675e-08
3.2046e-06
9.82721e-08
1.3695e-05
4.2361e-08
4.87389e-09
8.34628e-06
7.95376e-06
6.10882e-09
4.87593e-07
6.30051e-08
2.37658e-07
8.17268e-07
1.75115e-07
7.39161e-08
3.46503e-09
0.00583235
2.21382e-08
9.71961e-07
0.00106923
2.43682e-06
2.68144e-07
3.30108e-07
6.04853e-08
1.40602e-08
5.12844e-07
1.52741e-06
1.38918e-06
8.03864e-08
7.92884e-07
7.06753e-08
3.6508e-08
1.40875e-08
1.48648e-10
7.92691e-09
5.61e-10
1.01738e-11
2.75865e-09
1.65767e-08
1.1358e-07
2.37124e-09
3.59004e-11
8.11024e-09
3.10473e-07
6.46364e-09
2.15059e-10
1.46311e-08
4.15448e-08
2.39616e-09
1.88032e-06
1.30472e-07
0.00437874
2.24657e-09
2.04909e-07
3.67186e-07
7.92976e-08
4.0409e-10
1.04439e-08
0.00396472
9.41294e-09
2.89436e-10
6.5079e-08
0.003981
1.50972e-08
1.13174e-06
1.11933e-06
2.99142e-08
1.75558e-07
2.12649e-07
6.92217e-06
2.67365e-10
8.26849e-07
1.05566e-07
3.62538e-09
5.22961e-06
7.25343e-06
0.00346872
1.36131e-07
3.03672e-08
1.89904e-07
6.9883e-07
3.56794e-07
1.22888e-08
4.38684e-05
3.96374e-09
1.28778e-05
6.88307e-06
0.00113131
1.41464e-07
0.00456698
4.87513e-09
1.90786e-08
1.02218e-07
3.957e-07
9.94667e-07
7.15835e-08
2.54572e-06
9.62457e-10
1.66131e-07
4.16511e-10
2.17326e-10
2.56851e-08
7.69737e-06
5.47492e-09
3.59904e-10
8.09059e-06
5.4322e-09
9.66186e-06
4.59993e-08
1.51805e-08
3.01174e-08
2.85768e-09
3.65577e-07
9.81732e-08
3.74489e-06
9.16832e-09
1.26596e-07
6.33822e-05
3.10931e-08
3.13106e-10
2.68561e-06
6.53828e-08
6.01769e-07
9.10199e-10
0.00253824
2.2928e-06
9.71824e-07
3.67047e-08
6.11695e-09
3.74795e-06
1.00455e-07
2.7502e-09
7.92878e-11
1.2607e-06
1.41656e-06
1.50745e-06
0.00343214
8.5018e-08
1.46816e-07
4.71044e-06
1.45141e-07
1.08938e-07
4.13807e-08
1.23712e-06
4.80892e-08
2.26458e-06
0.00324679
2.73876e-07
3.16606e-13
5.50458e-08
1.0863e-06
2.66797e-07
4.83761e-09
1.12961e-05
1.52001e-05
8.57437e-06
1.73799e-05
3.57876e-07
8.99145e-07
2.34463e-07
3.84558e-07
6.36833e-09
4.25389e-10
0.00187012
9.40916e-06
3.89497e-08
2.5678e-05
1.09028e-07
5.20801e-07
8.92845e-06
8.62877e-08
4.97773e-08
5.96407e-08
6.61072e-10
7.82282e-07
6.0037e-07
2.28399e-06
7.25016e-07
6.25447e-09
8.50838e-09
4.19209e-07
1.80509e-08
5.50076e-10
6.00269e-06
8.9692e-08
1.82489e-07
8.22425e-07
6.66841e-08
2.81411e-09
9.77506e-06
0.0024298
1.34584e-08
4.1537e-10
1.02649e-10
0.00253895
0.00438396
7.34588e-09
0.00100116
1.64952e-07
4.18646e-07
1.46214e-07
1.62943e-07
2.49082e-07
3.07979e-07
5.97728e-07
0.00195957
0.0059904
0.0069105
2.16207e-07
5.95298e-07
2.37076e-07
1.45774e-07
0.00635384
6.28203e-10
0.00306231
4.43068e-07
5.95806e-10
6.99539e-09
1.01676e-08
7.33985e-09
1.44784e-09
3.73061e-09
1.19473e-09
0.00242425
1.22931e-09
7.0992e-07
3.64899e-06
4.29694e-10
8.72078e-08
1.25289e-07
1.05231e-07
2.05104e-09
1.08667e-05
1.03827e-07
2.43942e-08
1.48898e-06
1.01785e-07
6.36016e-07
1.21475e-07
2.00848e-08
3.34975e-09
3.80825e-07
5.64226e-05
9.27382e-07
9.06812e-09
3.17351e-07
1.96551e-08
4.89438e-07
2.39181e-06
2.47646e-07
9.90548e-08
8.87407e-08
2.22862e-08
1.0594e-06
8.82587e-09
2.26218e-07
0.000764455
7.35687e-06
0.00577286
1.29809e-05
1.82366e-06
2.66766e-10
0.00114893
7.88229e-10
1.14102e-06
1.27922e-07
2.3031e-07
1.63152e-06
1.32952e-08
5.79884e-09
7.53556e-07
1.87179e-08
1.6592e-09
4.78705e-07
1.01389e-08
4.60074e-07
0.00131566
4.52958e-09
6.92715e-07
2.52955e-08
2.19233e-08
3.00536e-10
4.27069e-06
1.7691e-06
8.64133e-08
7.09749e-09
2.23072e-08
0.000831516
3.94336e-06
2.19931e-07
3.17145e-07
6.54714e-11
3.7659e-12
1.30278e-08
3.09697e-10
8.66278e-07
5.61757e-09
3.94132e-07
3.23105e-08
6.17758e-09
9.77326e-08
6.46934e-10
1.10007e-06
1.53106e-06
8.32963e-07
8.62651e-09
2.08551e-09
1.99029e-08
3.26441e-08
9.92702e-06
2.89002e-08
0.00283362
5.01743e-07
3.98577e-09
6.23776e-09
4.11924e-06
2.77674e-07
1.9894e-05
3.20014e-08
1.92103e-06
0.00412942
2.84332e-10
5.76098e-06
3.57724e-07
0.000796123
2.88461e-08
0.000886367
0.00154927
2.18069e-06
1.30278e-07
3.26401e-07
8.06375e-10
2.82344e-07
4.66112e-07
6.27135e-06
3.25886e-07
9.00175e-08
4.44159e-07
7.04898e-06
6.35877e-06
8.21841e-06
2.73483e-06
1.84231e-09
1.73773e-06
1.4807e-05
1.16024e-07
6.29002e-08
4.24423e-06
3.57331e-06
2.86694e-07
3.16254e-07
4.5273e-06
2.81724e-07
7.06702e-06
4.52993e-06
3.79229e-07
6.57904e-10
6.44341e-07
8.06973e-06
0.00123979
4.73993e-08
2.10672e-08
8.24603e-07
2.65126e-08
1.40824e-06
1.51292e-08
6.83604e-06
9.60093e-09
1.62367e-06
4.49249e-09
3.55818e-09
2.38011e-07
1.64498e-05
2.29779e-05
0.00594415
2.44688e-07
2.95634e-08
1.89155e-09
7.7123e-06
4.20474e-07
0.000562507
0.00131328
1.85463e-11
1.40221e-05
1.28743e-06
8.81406e-08
1.0448e-08
2.25667e-05
2.02486e-08
0.000799702
4.05002e-09
2.71819e-10
5.25804e-07
2.03867e-08
3.40288e-08
6.82729e-07
0.00073695
3.58004e-07
1.61579e-08
1.65426e-06
0.00388354
0.000719259
1.04182e-07
5.3288e-06
4.59326e-07
1.0073e-05
8.91212e-08
0.00069838
8.66126e-07
3.47528e-06
3.13849e-09
9.78026e-09
8.67484e-08
1.39212e-08
3.83579e-07
3.27338e-08
1.22127e-08
4.46456e-08
8.35955e-08
1.80047e-06
5.52642e-10
1.1884e-08
0.00134082
1.64593e-10
1.63469e-09
8.21461e-07
8.37531e-09
4.44787e-06
6.24601e-07
0.00110274
3.75101e-07
0.00458862
2.85655e-07
3.63392e-07
0.000745019
3.02783e-06
9.29822e-12
1.62109e-08
0.000523472
2.33912e-07
1.57079e-06
3.23085e-07
1.31465e-09
1.32465e-07
1.49755e-07
1.98626e-08
0.0022387
3.55872e-08
2.29202e-08
4.50208e-08
1.23647e-08
1.10033e-09
1.71691e-06
5.94804e-08
0.00480375
1.63179e-06
6.35248e-07
7.87001e-07
1.00247e-06
3.73363e-07
5.73418e-08
1.13197e-10
7.23302e-09
1.74775e-06
3.8255e-07
7.33214e-08
5.6304e-09
2.50604e-07
1.89391e-08
9.33222e-07
6.2399e-09
1.31953e-08
2.88187e-08
5.84642e-07
4.2426e-07
6.22517e-07
4.79558e-09
3.64709e-09
3.23931e-05
7.11312e-09
1.49597e-09
1.59923e-10
1.9759e-08
0.0054441
5.32044e-09
3.24104e-06
1.2893e-06
4.47444e-07
3.25213e-09
1.69526e-08
3.82992e-06
1.45164e-07
4.80883e-09
8.02749e-07
2.1859e-09
1.67979e-09
5.79288e-10
1.57878e-06
4.88587e-09
0.00576637
9.29826e-06
6.94183e-07
3.43336e-05
5.42115e-09
3.08167e-07
9.66997e-10
0.00110659
1.57111e-07
1.11814e-07
3.35438e-08
2.09811e-08
1.25706e-09
0.00839493
3.57834e-07
9.05717e-06
1.25512e-06
2.22965e-08
0.00214845
1.57199e-08
6.42119e-09
1.05896e-08
1.04647e-08
8.32166e-07
1.03327e-08
4.7131e-07
5.44371e-07
1.0065e-05
5.57782e-08
3.42325e-10
3.21079e-06
9.62742e-09
0.00274633
5.1413e-08
5.86311e-09
2.78015e-08
3.57722e-07
0.00114294
0.000558916
3.0044e-07
9.5425e-07
0.00167386
6.07133e-08
5.72827e-07
0.000784305
2.22014e-07
1.0784e-07
0.00303501
0.000348769
1.73907e-07
6.39324e-07
1.68979e-09
7.3966e-07
3.02283e-05
1.88199e-07
1.61325e-07
6.4874e-06
3.37534e-10
0.000430889
2.55561e-09
4.97027e-07
0.00343666
2.5985e-09
2.22941e-07
1.07847e-07
9.00991e-09
9.99428e-09
9.94838e-07
1.22252e-08
2.79888e-09
6.1934e-07
2.14896e-07
8.78235e-10
0.00043211
0.000820492
1.82918e-07
6.39447e-12
1.37296e-10
2.68766e-06
2.89694e-07
9.38367e-08
5.21474e-09
1.0003e-08
2.48818e-06
1.39134e-06
8.81038e-07
1.65247e-06
0.00638632
1.21664e-10
0.0024682
3.3829e-07
9.48991e-08
0.000939761
2.85964e-08
9.86597e-10
0.000426421
7.48228e-11
1.25566e-07
1.07044e-07
5.54472e-08
1.72486e-08
6.4957e-09
1.80669e-10
6.27695e-10
3.69362e-07
0.0023134
0.00373118
7.50165e-07
6.75083e-08
4.85906e-12
0.00104275
0.00397805
5.8027e-06
2.4509e-08
6.38797e-09
2.19638e-05
4.02527e-06
3.63534e-09
5.84071e-10
1.74237e-08
1.34577e-07
2.39165e-09
1.75583e-07
1.36513e-06
0.00111284
0.00359475
1.00428e-06
1.44038e-05
2.26188e-10
1.17815e-08
5.31759e-07
2.43281e-06
5.28971e-07
8.36137e-06
1.64533e-07
2.57806e-07
2.05793e-09
9.66736e-09
2.76933e-07
0.00108574
6.18383e-09
0.00313142
7.82705e-10
2.0756e-07
4.50592e-08
3.45404e-07
5.89112e-10
3.30657e-11
1.09947e-08
1.17107e-09
4.74199e-08
6.02925e-06
6.6066e-09
0.000690401
3.20852e-07
0.0028092
2.64541e-08
4.63175e-08
3.04663e-08
3.83091e-08
2.01745e-07
2.3423e-10
1.01489e-09
8.51339e-10
6.86602e-08
1.51891e-07
0.000963347
0.000937462
9.84277e-08
1.86183e-08
1.06212e-10
5.38407e-11
4.3439e-10
1.95911e-08
3.62469e-06
7.74527e-09
3.03815e-10
1.04531e-10
0.000407931
7.70364e-07
9.06946e-07
0.000756395
1.45343e-08
0.00547072
1.41939e-07
1.44543e-08
1.79393e-11
4.83769e-09
0.00100054
1.58512e-11
4.6832e-07
9.00353e-10
1.13588e-05
7.73047e-07
1.62365e-06
2.41637e-06
4.96255e-07
6.68653e-10
4.5411e-10
0.00633518
6.93784e-07
6.0752e-07
4.39504e-06
1.6286e-08
1.62926e-06
1.59111e-06
5.14197e-08
9.24153e-08
5.74566e-06
6.28001e-09
1.19827e-05
0.000728447
3.5482e-08
6.96058e-09
1.45659e-06
1.46525e-08
0.000635793
0.00319937
4.42668e-07
7.60321e-10
6.81354e-05
5.82852e-09
2.47678e-07
3.55507e-08
2.24348e-06
4.8517e-11
1.74216e-05
1.62794e-06
2.52987e-06
4.51121e-07
2.12699e-06
5.12704e-07
1.17768e-07
2.69247e-11
3.2065e-06
1.14768e-06
1.10045e-06
2.07805e-08
1.7158e-07
2.10533e-06
7.82703e-06
1.93264e-10
4.38926e-10
1.62486e-09
1.9154e-11
2.18035e-09
0.000395368
8.25256e-06
2.50927e-06
9.65034e-07
3.7575e-06
1.65488e-06
6.37563e-12
3.37601e-07
3.78806e-10
9.48066e-09
1.47384e-09
4.18484e-07
3.80791e-05
3.90272e-07
2.38973e-09
4.74247e-09
2.9389e-08
7.51673e-09
2.60361e-09
0.00259595
1.95359e-07
1.16607e-05
1.77209e-05
1.29879e-05
1.30848e-09
1.00455e-05
1.22038e-05
2.26093e-05
1.24187e-05
6.40509e-10
4.23399e-11
3.06594e-08
2.15021e-07
1.18959e-06
6.34949e-06
0.000705771
4.13445e-07
5.62308e-07
7.24916e-08
1.02178e-05
3.93251e-09
1.00348e-10
2.13136e-06
7.0215e-06
0.000488565
2.07996e-10
0.00207829
2.08022e-06
1.43896e-08
1.50712e-06
1.08862e-07
2.031e-06
4.93467e-08
1.94723e-06
5.56675e-09
1.47696e-07
3.99452e-05
7.43588e-07
1.4752e-08
3.23763e-05
9.03436e-07
1.8075e-07
5.93655e-05
1.35625e-09
1.97582e-07
9.4021e-07
1.69481e-06
1.25235e-08
0.00338154
2.70443e-09
2.88783e-08
4.13398e-09
0.00209478
0.00207167
4.5069e-08
4.65098e-08
3.06554e-06
0.00102865
1.08495e-08
1.7361e-07
5.66517e-07
2.05034e-07
2.62812e-08
0.00340108
1.9505e-07
3.61393e-07
7.79122e-05
1.50095e-09
1.16062e-07
3.40887e-08
4.42602e-08
5.1637e-10
4.54672e-05
6.57234e-05
1.6616e-09
1.62547e-08
3.17123e-08
1.76632e-06
3.51474e-10
0.000737184
1.08864e-08
2.26056e-07
1.46264e-08
1.3719e-08
4.54713e-08
7.0053e-07
2.97024e-08
9.28609e-08
4.24285e-06
2.31597e-08
2.60818e-08
0.000800092
2.16994e-08
5.55338e-08
5.90301e-08
5.03265e-07
3.25123e-11
4.74294e-10
4.49223e-11
1.98268e-07
1.17974e-08
0.00112138
3.60082e-07
3.83704e-07
8.84764e-10
5.53897e-07
0.00206869
1.67297e-06
2.32261e-07
1.01494e-06
2.04952e-07
6.26419e-09
7.02944e-09
3.35147e-07
3.76739e-08
4.74053e-08
8.79776e-06
2.15603e-07
2.08689e-09
5.70428e-09
2.9531e-08
1.3277e-08
1.24207e-07
9.53314e-10
1.44369e-07
2.80535e-07
5.06329e-09
2.6179e-11
0.000852916
1.42954e-10
1.06709e-10
4.79624e-07
0.00105457
5.58955e-07
3.95879e-08
6.21337e-10
2.38499e-07
1.02619e-07
5.16376e-07
9.49562e-08
1.90092e-09
3.27532e-08
1.54057e-08
1.04807e-07
1.10709e-09
6.6794e-10
8.27564e-09
6.78562e-08
3.57539e-07
2.57392e-08
3.60393e-09
1.29062e-07
1.08156e-06
2.57774e-09
5.70346e-07
1.00016e-08
1.71242e-08
5.78439e-10
9.48951e-07
2.9503e-09
3.6787e-07
5.33945e-11
4.54815e-07
5.32472e-10
2.95294e-08
6.04833e-06
2.39901e-09
1.09767e-09
0.00126342
9.71635e-10
0.00104112
1.00165e-08
1.17385e-08
2.02165e-07
4.20854e-07
0.00077455
1.5333e-06
0.000922593
0.00112103
1.81833e-06
1.77264e-07
0.000752147
1.92233e-07
5.06067e-10
6.03607e-07
0.00236718
0.000688213
0.000781314
5.62065e-10
1.72896e-07
1.53609e-10
1.19299e-07
1.79494e-08
1.22446e-07
3.14407e-06
1.56192e-07
1.96433e-08
3.9564e-09
8.08385e-08
5.39549e-06
1.18777e-09
2.13296e-07
6.2523e-07
3.95827e-08
1.26453e-11
1.19884e-06
6.27419e-07
5.5598e-07
4.50495e-07
4.08128e-07
9.40208e-08
2.45426e-07
2.8127e-06
1.57816e-07
1.1513e-07
2.23178e-06
8.30678e-06
1.42134e-10
1.76648e-08
3.86504e-09
3.59134e-07
1.86419e-09
4.95833e-08
6.27484e-12
7.39624e-06
0.00693094
0.00150819
2.55998e-06
3.87556e-10
2.08846e-07
0.00091847
0.00179306
2.55299e-08
4.88546e-06
4.88352e-08
1.0764e-08
7.59261e-09
2.401e-09
2.69042e-07
7.67168e-07
8.57934e-09
8.50832e-10
2.92028e-07
1.05487e-08
0.00311356
0.00100849
2.15165e-07
2.29295e-10
3.05851e-09
0.000786964
4.77492e-10
4.97963e-07
1.01351e-08
1.09752e-05
3.25665e-10
1.29624e-07
8.12989e-09
3.84043e-09
2.00032e-05
0.00268426
0.0012055
2.67728e-08
0.00127918
7.01222e-10
2.5615e-07
2.97391e-08
0.00200998
7.81574e-09
3.0629e-06
4.29536e-10
5.40565e-08
4.93456e-06
2.40415e-08
2.7293e-06
4.82081e-09
2.50858e-07
6.05751e-07
2.94421e-07
6.35203e-08
1.08949e-08
7.12514e-09
6.05366e-08
2.41289e-08
4.16879e-09
2.48901e-09
0.00125138
0.000691136
2.81232e-09
0.00139196
1.59256e-10
5.5993e-09
8.40464e-07
1.18518e-08
1.03426e-10
0.000647957
2.37438e-09
6.9537e-11
1.07434e-05
1.59215e-10
3.01493e-11
1.02926e-06
0.00156525
3.73249e-09
0.000694135
7.80599e-10
3.78913e-08
0.00083276
1.2415e-07
1.67923e-05
2.07207e-11
3.01959e-09
2.30365e-08
3.89249e-09
0.00369541
0.000756753
1.95439e-06
8.65018e-10
0.000864185
1.65135e-10
6.58591e-09
8.54445e-10
0.00174988
3.47025e-05
2.16887e-07
2.49248e-11
1.73281e-08
0.000899341
1.87555e-05
7.5893e-09
4.69341e-06
0.00185437
0.00143098
6.4936e-07
0.0014491
1.81771e-05
0.000795312
7.25542e-07
0.00113952
6.00417e-06
7.82297e-08
3.51851e-08
4.36649e-08
7.83101e-06
1.63863e-05
1.18163e-10
1.05809e-07
1.85358e-09
7.52013e-07
1.58111e-07
2.78388e-08
1.64104e-07
5.41076e-06
4.61371e-09
1.77346e-07
6.89167e-09
4.74495e-10
1.86935e-09
8.88981e-10
8.91751e-08
1.99613e-09
1.3301e-08
2.06038e-09
2.70073e-07
7.62945e-07
7.79356e-11
4.7815e-11
1.07161e-09
2.18167e-09
2.30645e-08
2.10559e-05
4.01316e-05
1.92248e-06
1.34563e-10
5.71329e-07
1.4602e-07
0.000861669
5.28311e-07
3.01501e-07
9.41698e-09
1.67585e-08
5.07341e-08
3.92076e-06
2.01069e-06
0.00315658
0.00124968
1.46564e-09
1.42345e-05
5.53147e-06
8.64015e-10
4.56911e-08
9.03873e-08
2.10749e-09
3.8843e-08
7.49384e-08
0.00115007
2.70002e-11
1.55993e-06
3.06656e-09
0.000814037
9.76255e-07
0.000664158
6.27836e-07
8.64132e-10
1.16296e-09
8.86458e-09
4.84259e-07
3.44142e-07
7.0827e-08
1.61002e-07
1.88914e-08
1.44676e-05
5.35646e-06
2.59855e-10
2.01118e-06
9.65406e-07
8.4266e-07
1.70623e-06
5.71795e-05
8.0971e-08
0.00170108
5.73932e-09
1.12934e-07