/*--------------------------------*- C++ -*----------------------------------*\
  =========                 |
  \\      /  F ield         | OpenFOAM: The Open Source CFD Toolbox
   \\    /   O peration     | Website:  https://openfoam.org
    \\  /    A nd           | Version:  10
     \\/     M anipulation  |
\*---------------------------------------------------------------------------*/
FoamFile
{
    format      ascii;
    class       volScalarField;
    location    "56";
    object      T;
}
// * * * * * * * * * * * * * * * * * * * * * * * * * * * * * * * * * * * * * //

dimensions      [0 0 0 1 0 0 0];

internalField   nonuniform List<scalar> 
111485
(
303.15
285.234
301.178
303.15
298.742
283.15
299.232
293.581
296.719
286.437
300.738
296.448
300.461
284.667
300.214
286.915
299.38
300.894
294.508
303.15
303.15
283.15
297.607
288.889
301.551
303.15
293.483
300.711
289.289
303.15
300.816
294.451
303.15
283.15
283.495
283.15
302.328
297.887
283.149
296.969
283.15
290.082
297.372
302.938
303.181
303.15
287.679
288.744
290.133
303.15
303.15
283.15
303.15
299.324
303.15
293.918
288.089
283.15
283.338
295.86
296.253
303.15
302.155
300.529
283.15
284.662
301.544
291.804
302.213
302.603
303.172
302.024
303.15
302.204
303.15
295.507
283.15
293.871
283.15
283.15
283.255
293.938
283.15
303.15
300.541
284.303
283.15
301.743
303.142
299.338
283.518
289.912
301.067
300.456
290.276
303.15
303.15
301.743
303.15
283.452
303.15
286.903
283.15
285.424
285.874
283.15
283.15
293.203
301.626
283.145
299.116
288.457
301.479
301.866
303.15
302.084
303.15
283.15
300.34
303.15
303.15
283.15
283.15
283.15
283.451
303.153
283.15
301.927
303.15
283.186
303.065
302.138
303.15
283.15
283.15
292.949
283.15
294.6
299.061
301.244
303.142
297.163
299.228
284.891
302.353
298.084
283.15
303.15
283.15
297.484
285.062
303.15
303.145
287.598
283.156
294.16
296.014
302.579
283.153
303.15
303.15
292.622
286.429
283.151
283.156
301.332
283.751
283.15
283.152
283.159
283.15
303.15
283.21
283.15
291.715
287.371
283.15
303.15
303.15
283.15
303.15
303.15
297.974
293.925
296.184
290.147
301.583
300.619
283.195
303.15
301.583
303.15
303.15
300.367
286.465
301.629
301.397
296.06
303.15
300.999
284.705
283.163
301.056
297.207
303.15
300.612
288.579
303.15
283.247
300.352
284.928
300.863
303.15
303.15
300.877
283.15
293.354
283.15
300.786
298.974
290.704
303.15
301.863
300.754
283.15
283.15
283.15
289.956
283.158
283.15
303.15
298.912
291.791
290.346
283.15
303.15
303.112
303.15
284.412
300.304
299.512
299.746
299.623
283.15
283.143
299.105
283.15
283.15
289.005
288.737
283.15
301.32
299.129
303.15
283.15
301.037
303.15
303.15
303.12
303.15
288.463
285.992
291.216
303.15
298.603
303.15
303.15
303.15
283.148
298.41
301.141
299.668
291.415
299.729
296.591
283.217
290.684
292.022
283.15
303.15
283.149
292.648
299.032
286.614
303.15
298.284
297.587
299.161
302.987
283.164
297.433
299.613
302.044
283.15
283.677
283.15
283.148
303.15
284.086
290.474
286.632
303.15
283.15
297.887
285.441
303.15
303.15
303.15
284.753
290.628
301.25
284.509
293.466
283.15
283.15
303.15
298.622
303.15
283.922
290.101
283.151
283.15
303.15
303.15
283.15
294.755
290.166
283.15
296.077
283.15
303.15
301.325
297.614
294.178
296.179
283.15
283.15
283.15
296.949
291.429
302.407
283.15
283.15
283.147
290.304
297.263
283.234
290.919
283.15
293.236
299.788
284.315
299.074
285.391
283.15
303.15
283.15
303.15
290.86
296.686
288.32
292.401
283.15
286.533
283.15
303.15
294.242
303.15
302.197
303.15
283.15
292.368
283.15
289.142
284.734
283.15
284.04
298.323
283.15
300.347
284.798
299.104
303.051
291.478
286.131
283.15
303.15
303.147
283.15
301.178
301.111
283.15
283.15
294.836
284.462
298.455
296.847
283.15
295.623
296.444
283.15
302.168
283.958
303.15
303.15
288.613
298.912
283.15
303.15
303.15
303.15
300.837
283.15
303.15
294.145
283.172
287.425
300.248
283.15
283.15
302.689
283.15
302.558
301.657
298.328
291.037
283.15
294.286
303.393
303.15
299.056
292.572
303.15
283.15
283.317
283.15
290.395
286.417
292.056
283.15
293.261
296.79
293.443
303.147
283.15
303.15
303.15
283.17
293.135
283.15
284.407
303.137
283.15
303.15
303.15
303.15
301.817
290.914
286.183
284.267
284.437
283.15
285.876
303.15
300.967
283.15
303.15
303.15
300.913
303.15
303.15
283.151
303.15
283.15
300.952
283.15
283.15
283.15
303.15
283.15
303.15
283.15
283.699
283.15
303.132
301.874
283.862
283.15
303.095
283.15
303.15
284.824
284.793
286.302
298.066
283.15
297.911
298.011
292.659
287.108
285.41
303.15
292.144
283.15
300.167
283.15
297.223
283.15
292.463
298.922
303.15
283.15
287.087
303.15
296.019
299.437
283.15
283.15
283.15
283.15
303.15
294.191
283.15
283.15
283.249
283.15
300.129
283.15
284.948
303.15
283.461
303.128
284.758
292.305
283.15
301.586
283.15
283.15
285.865
283.15
283.26
283.15
299.99
303.15
291.11
303.15
283.15
302.535
284.575
300.369
285.829
300.374
289.678
283.15
300.872
284.665
283.15
283.138
300.724
301.76
283.15
282.26
301.264
303.078
283.132
303.15
287.779
302.265
284.507
285.563
288.558
282.34
283.15
303.15
301.362
303.15
283.581
283.15
283.15
292.137
282.621
303.15
303.125
283.15
286.5
299.826
283.15
283.15
299.833
303.15
283.15
283.15
283.15
286.366
283.15
303.15
284.963
284.311
303.15
299.912
283.15
289.407
303.15
283.15
286.369
283.15
283.15
283.15
285.563
283.15
285.621
292.329
303.15
300.664
283.482
299.041
301.141
283.415
283.479
283.15
289.335
298.775
303.15
302.318
296.564
297.27
284.8
297.815
297.567
303.15
300.434
303.141
283.15
297.553
284.956
283.15
292.746
296.156
284.972
299.102
300.83
292.713
283.15
299.221
283.501
303.15
300.802
302.072
294.464
283.15
286.767
303.15
283.15
283.15
283.15
283.313
283.15
303.15
303.15
283.15
300.603
299.591
303.15
285.816
303.15
303.15
303.15
290.273
283.432
283.15
303.15
283.15
283.15
287.339
292.76
283.15
295.615
283.13
283.15
295.778
302.338
288.123
283.15
283.15
300.443
292.488
283.15
283.15
283.15
294.323
303.15
303.15
283.15
296.682
302.476
283.15
282.92
301.822
286.829
283.15
283.15
287.664
303.011
283.15
283.161
288.213
283.802
289.051
283.15
285.861
300.57
283.15
303.15
283.15
283.15
283.15
283.15
296.146
303.15
283.15
283.15
295.771
292.203
303.15
303.15
290.245
298.696
298.593
303.15
283.15
298.277
303.15
283.935
299.074
298.614
303.15
303.15
303.15
283.15
286.227
283.15
283.15
302.736
303.15
298.113
302.402
283.15
294.428
283.208
296.776
292.212
283.457
290.191
283.15
283.15
297.212
288.471
291.023
283.15
283.15
299.522
295.304
283.15
283.982
284.724
283.515
303.15
303.15
303.15
290.927
283.15
300.254
283.15
284.457
297.798
298.775
292.659
283.15
283.15
303.15
295.728
283.15
283.15
303.11
283.15
283.15
303.15
283.15
299.551
283.15
283.15
283.15
283.15
283.15
303.15
283.15
283.174
298.93
303.15
302.583
283.125
283.429
283.086
285.674
283.15
284.555
290.866
283.429
303.15
283.15
299.955
283.15
300.445
283.184
283.142
286.377
297.776
283.245
292.004
298.048
283.15
283.15
299.293
299.992
283.15
297.637
291.516
297.614
283.15
283.257
283.15
297.941
297.057
283.15
300.267
297.699
283.148
299.977
283.15
295.976
283.143
303.116
283.163
283.159
283.15
283.15
284.535
283.15
302.997
283.645
283.158
303.147
303.148
303.147
283.15
283.15
294.209
303.15
303.135
283.955
283.15
283.15
303.153
303.15
283.15
303.162
283.15
283.15
303.15
303.15
303.15
303.15
283.381
283.15
283.15
283.15
303.159
283.324
283.941
293.863
283.15
283.15
283.365
283.15
283.15
283.15
287.479
293.987
283.15
283.15
283.15
283.15
283.15
283.15
284.1
283.15
303.151
291.896
283.15
303.15
303.15
303.15
303.15
303.15
283.15
303.166
283.15
283.768
283.143
303.152
283.15
303.071
284.549
292.54
303.15
303.131
284.631
303.15
283.15
303.15
283.15
294.436
293.853
284.827
303.148
283.15
293.639
283.15
283.15
303.15
283.15
295.244
283.15
303.15
283.162
298.359
303.15
284.554
283.15
283.649
283.15
283.15
283.15
303.15
286.106
283.497
285.024
283.15
283.15
285.879
283.15
283.15
303.15
284.476
303.161
298.905
303.15
303.132
303.133
283.15
303.136
283.15
283.489
289.523
301.009
283.916
283.172
283.15
283.15
283.15
303.177
283.15
302.961
303.15
293.858
303.15
288.893
283.873
303.15
283.15
303.15
283.15
302.005
303.15
303.15
286.687
300.892
283.15
283.15
283.15
283.15
283.15
283.15
301.14
283.622
303.15
303.15
303.155
303.15
300.561
284.492
283.15
302.247
303.15
301.748
283.15
302.629
283.15
283.147
303.152
283.345
302.261
300.56
283.147
283.15
289.647
303.15
293.804
303.15
283.15
303.15
283.15
283.15
283.15
301.099
302.189
303.15
303.15
303.15
302.941
283.148
303.15
293.326
283.078
303.15
297.67
298.359
296.843
283.4
283.15
283.15
283.15
283.15
295.047
283.15
295.434
283.15
303.077
290.036
283.15
302.907
283.15
283.15
302.812
283.147
302.896
283.15
303.15
283.15
302.472
283.15
303.15
283.15
283.147
283.15
283.176
283.15
283.15
303.15
293.127
301.184
296.506
297.379
303.15
303.124
283.15
283.15
285.94
283.15
283.159
302.897
298.882
302.986
303.15
283.398
283.15
303.15
283.15
303.018
283.383
298.342
283.15
303.15
288.34
303.15
283.15
283.113
295.497
283.147
283.15
283.15
283.146
303.15
283.15
303.144
303.15
303.15
290.371
303.021
303.03
289.418
293.654
283.15
283.15
303.116
289.49
283.15
303.15
284.935
283.15
303.15
283.15
283.15
283.15
298.446
283.15
302.971
283.15
300.893
283.15
283.15
283.15
283.15
283.15
283.15
285.233
283.15
283.15
283.15
283.15
283.15
283.15
292.434
283.15
298.405
302.988
283.15
302.339
283.15
302.594
303.146
292.439
288.956
303.15
292.305
284.984
303.122
303.15
303.14
295.17
288.865
283.15
288.079
283.15
283.15
283.15
283.15
287.717
283.15
283.15
291.791
303.139
285.421
283.15
283.15
302.547
283.15
283.2
303.15
299.985
283.15
283.15
302.849
283.15
303.175
303.15
283.15
289.311
298.06
292.86
285.926
293.075
294.44
283.15
283.15
302.391
290.769
293.197
284.543
283.15
294.467
283.15
303.15
300.968
298.921
283.15
297.53
283.15
292.947
297.517
303.15
283.15
283.15
301.926
283.15
283.15
300.746
296.275
283.198
291.398
283.15
283.15
302.854
300.763
283.15
300.863
283.15
300.728
283.15
283.15
301.022
283.15
283.233
301.741
283.15
283.15
302.504
283.15
288.111
303.15
290.965
303.15
303.15
303.15
301.154
283.15
283.15
299.807
283.15
303.012
283.15
283.15
303.15
283.149
288.406
283.15
283.15
288.262
288.444
283.15
283.758
283.15
303.15
302.498
283.803
301.695
283.15
283.15
283.15
283.15
283.15
283.15
283.15
283.15
283.15
283.15
283.15
303.15
283.15
283.15
283.15
283.15
283.15
283.15
283.15
283.15
303.15
287.151
283.15
283.15
283.15
295.103
283.15
303.15
303.068
283.15
283.15
295.114
283.15
283.15
302.185
295.583
283.15
303.476
303.521
283.15
301.746
294.376
297.888
301.62
298.416
303.15
283.15
296.417
292.201
301.567
283.15
302.243
302.48
301.054
288.211
287.459
301.233
301.862
301.907
303.15
286.04
297.859
285.798
297.577
283.15
283.15
283.15
303.15
283.15
292.417
298.212
283.15
283.15
283.15
283.15
283.15
303.15
283.15
303.15
292.305
303.157
299.275
302.867
283.15
283.15
285.586
283.172
283.15
283.15
301.698
303.15
283.15
298.438
299.74
297.835
298.998
301.059
303.15
291.21
302.655
303.15
303.15
300.561
303.15
283.15
282.801
296.196
302.978
283.15
303.15
290.246
286.349
297.216
292.613
302.611
303.15
303.141
303.15
303.15
283.15
298.95
283.15
292.231
290.715
299.946
284.871
303.15
302.035
303.15
283.15
303.15
303.15
291.741
300.452
283.15
303.15
303.14
292.21
303.069
299.584
293.238
288.497
293.331
283.15
303.15
283.15
291.727
298.586
303.15
303.15
303.15
303.15
297.94
302.583
283.15
300.176
301.393
285.08
299.743
303.15
303.15
298.949
293.379
283.15
302.942
300.071
302.652
292.398
297.622
298.538
303.15
287.136
298.234
291.702
283.15
289.451
303.15
288.588
301.232
303.15
288.903
301.44
300.32
293.594
283.148
283.158
283.244
302.066
301.103
303.15
288.976
301.625
303.15
283.15
303.15
303.203
299.048
292.303
297.004
303.235
283.149
298.156
303.15
303.15
293.214
303.15
300.425
283.34
301.474
291.676
303.15
283.714
293.636
303.15
282.965
298.95
303.15
300.872
286.412
303.15
303.15
284.049
303.15
283.15
283.15
286.027
299.971
291.665
303.15
285.473
297.791
283.15
299.099
299.133
289.16
303.138
283.15
301.555
299.663
299.099
300.29
288.814
291.505
302.512
303.15
301.679
288.893
303.15
299.11
283.15
283.15
303.15
283.15
303.15
297.868
283.15
300.709
283.681
303.15
283.878
283.15
290.054
303.15
303.147
303.15
294.489
303.012
303.128
300.088
290.586
289.653
290.748
298.713
303.15
299.644
292.604
299.206
303.15
283.922
283.519
299.501
287.401
283.557
303.15
283.15
303.15
285.585
303.15
303.249
284.773
303.265
302.977
303.15
303.15
283.15
300.75
300.656
285.736
303.103
287.14
296.048
301.946
292.93
288.494
302.151
296.462
283.15
283.15
303.15
285.974
289.923
283.15
283.15
303.15
302.064
289.015
303.15
296.74
303.15
283.155
285.433
301.024
303.15
303.15
292.715
303.15
283.335
290.786
283.15
297.482
294.896
296.176
303.15
302.779
283.15
302.723
293.879
303.15
303.15
288.959
283.15
303.15
301.924
284.546
303.15
303.15
283.15
302.426
303.24
289.926
300.064
298.064
303.15
303.157
302.698
303.15
283.15
303.15
303.15
303.15
303.15
303.15
303.15
303.15
283.15
303.15
303.15
283.383
303.15
303.263
303.15
303.162
303.15
303.15
301.225
303.65
303.15
292.495
303.15
303.15
283.15
302.635
303.15
302.24
303.123
283.3
283.15
303.15
302.958
283.149
303.15
303.15
291.816
283.15
293.033
283.15
283.15
283.147
291.656
284.947
303.15
296.903
283.15
303.52
303.136
284.388
302.671
283.15
292.613
303.091
301.843
283.15
303.15
283.15
303.778
284.919
297.019
303.15
303.15
303.15
303.15
303.15
303.15
302.45
302.854
297.879
292.726
303.15
287.459
293.087
285.085
303.201
283.15
287.087
302.804
284.877
283.147
287.641
303.15
283.409
302.951
292.974
302.887
302.103
303.15
302.262
303.15
303.15
298.239
303.15
284.618
303.15
303.15
283.15
303.15
303.15
302.887
303.15
283.307
283.15
283.15
286.068
285.156
300.959
286.32
303.15
295.792
303.15
290.766
303.15
287.484
300.949
301.688
293.723
303.15
303.15
303.15
289.971
283.15
303.15
289.724
283.15
283.15
302.004
303.15
286.333
283.147
283.15
303.15
303.15
300.807
298.518
303.15
293.801
303.058
283.15
298.737
303.15
286.545
288.439
302.224
303.15
296.681
296.847
302.983
302.033
301.779
303.15
303.15
303.147
303.15
283.15
303.15
289.734
300.04
294.602
302.253
283.15
300.595
291.842
298.531
283.678
298.686
290.106
302.279
283.15
283.15
283.15
302.318
283.15
290.957
283.15
301.469
303.158
289.887
298.187
283.15
303.15
301.458
301.44
303.15
283.15
303.15
286.55
301.628
303
302.432
298.203
288.599
303.15
303.15
303.15
294.617
286.197
290.132
296.279
284.011
302.98
303.15
303.15
283.15
283.15
285.529
299.831
303.15
303.15
283.15
303.15
303.15
303.15
300.559
303.15
285.572
294.079
283.15
283.254
293.689
285.81
303.15
303.15
302.034
303.15
299.578
283.145
297.824
303.15
303.15
283.15
303.15
303.15
303.15
305.826
303.15
301.991
301.193
303.15
303.15
301.798
303.15
283.15
287.445
303.139
303.15
303.15
303.15
298.224
303.15
303.15
302.738
302.574
301.943
303.15
283.15
303.15
302.173
302.585
301.696
302.597
283.15
300.834
287.79
297.641
283.15
303.15
303.15
303.15
303.15
294.748
287.722
299.721
303.15
303.15
303.15
303.15
283.15
303.149
284.931
285.25
283.15
303.15
303.15
283.147
299.975
295.633
283.15
303.15
303.15
303.15
303.15
289.784
290.009
303.15
303.15
302.43
303.15
301.498
284.005
292.672
303.15
283.15
301.215
303.133
303.15
303.815
301.461
287.141
303.15
303.15
303.15
303.15
293.5
284.253
303.15
302.766
298.524
291.861
303.15
303.15
303.15
303.15
299.793
303.151
303.15
303.15
298.545
302.6
288.675
303.15
303.15
298.214
303.15
303.15
303.15
303.15
289.049
303.15
283.15
283.15
296.292
291.454
303.15
303.15
303.15
297.359
303.148
303.15
303.15
303.15
303.15
303.497
301.11
303.15
287.571
302.698
299.656
303.15
303.15
303.15
303.15
283.15
285.918
303.15
302.818
283.15
302.3
303.15
303.14
303.15
283.15
301.943
287.007
283.15
302.87
303.15
302.514
283.15
303.15
303.15
303.152
303.15
283.28
303.15
291.106
283.15
283.15
303.15
303.15
299.095
302.489
283.15
302.567
283.15
284.262
288.392
302.771
283.15
303.154
303.015
303.138
284.551
283.157
303.006
283.15
283.15
283.155
302.181
302.4
303.15
283.15
283.15
296.871
303.15
283.15
303.15
303.15
303.15
303.1
303.061
302.977
302.532
303.15
302.973
303.15
285.031
303.15
303.15
283.15
303.15
303.114
303.15
283.15
303.15
288.507
303.15
303.15
303.201
283.15
303.417
302.917
298.515
303.15
291.682
297.445
284.595
292.071
283.15
283.15
287.38
284.497
283.15
303.582
283.15
286.566
303.15
283.15
303.159
303.15
303.15
303.03
303.154
303.15
283.15
303.142
303.15
283.15
283.1
299.096
302.763
303.15
302.001
303.15
285.821
303.15
301.47
303.15
303.15
301.258
303.15
303.15
303.15
287.885
303.15
285.274
303.15
303.148
303.15
283.15
283.15
303.15
303.15
303.15
288.964
302.648
303.15
303.15
288.936
286.675
292.613
303.15
302.764
287.859
287.786
303.15
303.15
288.785
283.15
292.714
303.15
303.151
303.15
303.15
300.734
283.15
302.346
283.15
303.15
303.15
303.15
303.15
303.15
284.513
302.34
291.832
303.15
303.15
291.35
303.15
303.15
303.15
303.15
303.15
300.352
303.15
303.15
283.15
299.685
303.15
283.15
303.15
301.512
283.15
300.175
291.133
302.745
300.233
299.674
303.15
303.15
303.15
301.005
288.818
283.15
303.15
300.512
303.15
303.15
292.788
303.15
287.723
303.15
298.119
284.466
303.15
283.15
303.15
303.15
303.15
285.502
303.15
300.667
303.15
303.15
299.935
283.15
284.956
303.15
303.15
288.487
301.585
297.164
303.15
303.15
303.15
301.604
293.027
303.15
283.15
303.15
300.855
303.15
284.98
297.058
303.15
303.15
301.298
303.15
303.15
283.15
303.15
283.15
295.521
303.15
283.15
303.15
303.15
303.15
303.15
303.15
303.15
283.15
301.55
283.15
302.18
303.15
303.15
296.503
300.676
303.15
283.15
303.15
301.056
283.15
303.15
303.15
303.15
300.869
303.15
298.351
303.15
286.138
283.15
286.958
303.15
303.15
298.833
283.15
303.15
288.189
283.251
303.15
303.15
285.24
283.995
301.03
301.857
301.342
293.405
301.86
283.919
303.15
298.406
283.15
283.15
303.15
303.15
303.15
301.367
303.15
303.15
303.15
303.135
283.173
283.15
283.593
303.15
302.137
283.15
303.144
296.452
283.15
294.99
303.15
303.15
283.15
300.12
283.993
303.15
283.15
300.145
303.15
298.222
303.15
296.072
303.15
283.15
303.15
283.15
299.617
283.15
283.257
283.15
286.395
303.15
303.15
283.15
283.15
303.15
303.15
303.15
303.15
285.008
285.229
283.15
303.15
283.237
283.15
283.15
303.155
290.306
283.589
283.15
301.635
285.014
300.566
288.564
303.15
303.15
303.15
303.15
283.15
283.15
283.15
303.15
283.15
283.15
303.15
283.15
297.823
283.15
303.15
283.15
303.15
303.15
283.97
283.15
303.15
302.086
303.15
303.15
303.15
303.15
288.927
283.15
303.15
303.149
283.15
303.15
303.15
303.15
295.496
283.15
283.21
303.15
303.15
303.15
303.15
303.15
303.15
303.146
284.176
303.15
283.15
303.15
303.15
303.15
303.148
303.15
283.15
283.15
283.15
303.15
303.15
283.15
303.15
283.15
287.933
283.15
301.992
283.15
303.154
303.15
284.718
283.15
284.552
297.919
303.15
284.807
303.169
303.15
297.941
283.15
303.15
303.15
303.15
303.15
283.15
303.15
303.15
299.506
283.15
303.15
303.15
303.15
303.15
292.487
292.058
303.166
283.174
303.15
301.952
302.403
303.15
283.15
283.15
303.15
303.15
303.15
283.15
283.15
283.876
303.15
303.15
303.18
303.15
283.15
289.274
303.15
283.15
303.15
288.666
303.15
283.15
302.264
283.15
283.15
283.15
303.15
299.974
303.15
303.15
303.15
283.15
284.621
294.297
295.933
290.015
303.133
303.044
283.15
283.15
301.378
283.74
283.15
303.149
303.15
303.15
283.15
295.261
303.15
283.15
303.011
303.15
303.15
283.863
303.15
303.15
289.014
290.234
303.15
283.15
303.15
283.15
303.15
303.15
303.15
303.15
284.005
303.15
303.15
303.15
302.971
303.15
303.15
283.15
283.15
283.15
283.15
302.984
283.15
283.15
301.191
303.15
284.909
285.082
303.15
301.326
303.15
283.15
303.15
283.15
283.15
303.15
303.15
303.15
302.716
303.15
303.15
303.15
283.15
303.15
283.15
286.605
303.15
303.15
292.221
303.15
283.15
283.15
302.498
303.15
303.148
283.15
303.206
286.853
283.15
283.15
299.496
283.15
283.15
303.068
303.158
293.542
303.164
303.151
303.152
283.15
283.15
302.719
283.523
286.145
301.024
283.164
283.15
291.239
301.722
301.608
283.15
300.443
290.852
300.244
302.298
302.906
284.903
295.839
299.509
286.378
293.727
300.333
303.15
298.013
297.862
302.844
283.702
292.73
301.302
287.482
303.15
301.371
303.15
300.841
301.666
283.674
285.121
303.15
283.15
302.315
301.837
283.146
303.168
288.718
302.73
302.085
301.051
303.15
303.192
301.377
295.607
300.496
289.739
302.971
301.65
302.23
302.355
284.295
302.577
301.714
283.181
303.15
302.929
303.15
303.15
302.225
302.134
294.541
303.15
284.83
292.892
292.54
301.703
303.15
284.152
285.296
284.459
303.15
299.041
303.15
296.448
295.724
301.009
303.145
303.15
303.15
302.126
301.455
302.835
303.15
292.864
302.79
290.503
283.15
298.418
294.242
303.15
300.572
283.15
283.207
283.15
302.685
303.124
303.15
302.998
298.644
283.147
300.719
302.319
295.497
283.602
296.29
297.352
283.527
303.138
284.939
296.4
283.331
297.401
300.735
300.556
300.559
302.125
290.978
301.704
303.15
302.773
302.711
302.696
296.525
302.915
283.15
302.152
293.611
303.15
283.473
286.969
301.377
302.677
290.733
284.911
287.959
302.702
296.901
303.15
303.15
295.567
283.15
293.254
283.474
303.15
290.736
290.841
283.962
303.15
297.52
298.527
284.338
301.522
294.348
290.341
300.59
303.115
303.15
303.15
283.657
302.691
283.382
285.998
303.15
303.033
303.053
303.15
285.549
300.819
298.133
283.293
299.861
302.487
300.679
287.204
283.15
303.115
301.943
283.843
283.168
303.15
303.088
303.15
303.15
284.264
302.602
296.425
283.083
283.151
303.15
283.15
302.974
303.059
302.571
301.566
303.15
283.15
283.15
301.941
301.992
283.259
295.923
303.15
303.15
301.762
285.708
283.268
301.819
301.905
301.882
284.527
303.15
283.15
298.555
297.976
303.15
302.773
302.207
285.284
285.123
302.231
303.052
303.15
298.446
284.531
283.15
303.15
300.668
301.366
302.121
289.892
302.197
285.871
300.349
300.292
290.532
297.833
303.15
303.15
301.084
284.573
302.217
283.152
300.78
301.86
283.668
288.463
302.51
283.15
283.15
283.02
303.15
303.15
300.189
299.102
302.395
283.145
283.15
284.026
283.149
283.15
283.153
303.091
301.153
299.505
296.211
283.411
303.116
300.337
303.15
283.15
302.657
289.442
300.956
292.845
283.548
303.077
283.147
283.15
302.88
301.358
302.688
283.163
291.789
285.046
303.15
284.403
301.171
283.15
283.324
285.122
284.941
283.15
283.15
301.778
283.15
289.681
302.601
302.766
301.87
283.536
300.012
291.253
283.15
303.269
292.678
283.15
283.15
283.15
303.15
301.27
302.499
299.36
301.617
300.009
289.299
283.154
291.168
290.324
303.074
291.511
300.205
292.272
283.15
286.559
301.257
301.669
283.15
284.089
299.882
283.15
303.15
283.197
301.437
303.15
284.093
302.31
303.044
303.15
283.15
293.051
303.152
301.849
283.15
283.15
283.15
302.327
298.051
303.14
302.276
303.162
303.15
288.743
303.162
290.633
300.41
300.371
296.908
283.158
301.821
283.15
290.828
301.553
289.783
290.693
299.222
300.873
301.727
287.339
291.305
285.26
283.184
302.329
286.328
283.145
283.147
300.396
283.076
300.491
287.248
296.197
299.681
289.691
299.525
283.124
299.164
283.15
290.455
291.094
298.905
283.365
283.15
300.848
283.15
302.854
283.15
303.15
286.636
286.691
283.15
299.253
298.621
287.332
303.15
303.15
301.942
289.959
303.075
283.778
301.708
287.426
303.147
284.357
288.536
303.15
301.61
283.15
283.15
287.759
287.346
283.144
285.399
301.637
286.487
301.183
303.15
285.511
301.87
291.482
303.15
303.15
301.792
302.177
303.15
293.94
294.458
283.797
296.729
287.11
290.359
303.15
303.059
297.36
285.285
283.15
287.918
292.978
299.995
283.176
283.804
282.856
302.083
303.134
283.15
303.138
303.15
300.706
293.497
299.083
294.208
283.15
292.11
296.492
285.803
283.218
294.614
283.15
300.286
303.162
293.041
284.169
303.146
292.068
298.859
288.563
300.433
291.479
287.688
283.15
303.143
285.499
290.237
293.902
283.15
283.15
283.15
303.142
283.15
283.135
286.686
303.15
283.15
303.161
283.172
291.243
290.599
303.198
302.953
290.221
303.15
297.295
303.168
302.122
287.514
283.15
293.323
303.147
303.105
286.466
283.15
283.15
283.511
286.334
303.075
303.145
287.804
289.763
283.575
283.162
290.074
293.416
303.15
283.15
303.117
303.15
302.433
285.126
302.396
303.104
284.129
283.832
284.125
302.871
302.312
297.53
294.207
303.09
291.658
291.199
303.15
303.108
302.674
285.618
283.424
303.15
286.11
283.405
302.959
301.687
302.28
283.15
300.555
301.973
303.15
302.235
285.563
303.15
298.247
303.15
283.15
300.86
302.755
286.567
302.562
283.15
285.315
303.04
283.15
302.401
285.497
295.186
284.446
303.15
303.03
302.887
286.702
283.15
287.331
284.334
290.102
285.983
302.344
303.15
283.15
283.15
293.281
283.15
301.133
302.263
290.534
283.15
294.212
283.15
303.15
283.15
300.077
298.82
283.151
285.437
301.772
303.122
303.155
292.523
294.798
301.364
283.3
301.85
283.145
303.15
303.158
300.296
283.15
302.686
295.092
303.15
301.041
287.534
301.986
284.989
288.589
283.15
302.319
287.992
298.81
303.08
283.15
303.15
291.938
302.261
283.093
283.145
287.229
298.756
303.15
284.88
301.19
301.143
301.402
303.151
300.123
287.912
285.076
301.713
300.12
283.836
283.083
303.158
303.15
303.15
297.654
283.161
283.15
303.15
303.15
290.152
299.025
300.374
288.035
302.849
303.15
286.554
301.694
303.15
301.052
283.841
301.625
303.15
284.669
301.452
295.613
302.798
303.15
303.15
285.329
295.422
296.701
287.651
303.15
303.15
283.15
287.432
302.499
296.493
303.15
285.716
303.15
303.15
300.514
288.914
283.15
295.888
296.211
299.147
283.15
303.15
292.869
287.444
303.15
298.231
300.681
300.591
303.15
303.15
303.15
300.408
298.589
302.865
300.088
283.15
293.025
287.937
291.238
300.851
303.15
303.15
300.92
303.116
286.851
296.484
303.15
303.148
283.15
286.595
299.439
285.739
303.15
303.15
283.373
303.13
303.15
303.15
283.15
290.691
303.15
303.15
284.766
299.378
283.15
303.15
284.72
301.462
300.355
287.197
295.023
303.15
283.515
303.15
303.15
283.192
300.735
290.641
300.569
303.15
303.137
302.285
293.476
300.093
301.576
284.539
283.503
300.862
298.646
303.15
302.795
284.235
299.94
301.523
288.02
303.15
297.61
301.549
301.632
301.666
293.025
303.15
283.15
299.402
283.15
283.15
287.934
283.15
284.06
283.15
283.15
283.15
283.15
302.809
288.267
302.76
283.15
296.019
291.101
284.847
283.15
303.15
302.736
301.872
303.201
302.702
283.15
295.093
300.446
290.35
283.15
283.15
300.007
286.043
283.15
283.15
303.149
290.815
283.15
287.465
303.15
303.152
284.389
283.15
288.585
294.59
300.867
294.687
302.992
285.845
302.573
295.517
286.453
283.15
283.564
291.966
303.12
289.616
302.73
283.15
292.531
287.937
301.108
301.239
285.079
303.13
285.049
297.493
302.992
303.149
285.224
303.146
303.027
293.606
302.691
283.15
303.15
303.15
295.117
291.424
283.156
301.391
284.811
284.222
284.717
303.145
288.532
300.638
283.15
283.15
302.609
303.151
294.893
302.954
303.177
300.222
303.206
302.934
283.15
301.425
302.928
283.15
303.15
301.394
303.15
284.412
299.169
283.171
291.979
283.15
287.754
303.044
299.951
283.15
303.049
291.054
301.354
303.137
303.09
283.15
283.15
301.97
302.119
283.84
302.848
302.503
302.451
303.141
283.15
294.067
283.15
302.827
288.042
303.013
303.15
283.15
302.885
285.27
291.635
302.161
283.15
302.663
302.125
301.679
302.572
303.057
303.183
303.032
303.15
283.15
301.617
298.293
303.096
303.15
290.312
285.458
303.15
283.15
285.46
303.181
303.161
302.953
301.347
284.394
303.108
291.03
294.353
303.148
289.318
303.16
283.15
290.253
283.15
300.253
298.559
284.887
288.452
299.928
296.724
295.546
299.481
294.076
303.151
294.017
296.827
283.152
299.698
293.998
303.15
299.138
299.467
303.15
291.554
303.167
301.841
303.15
287.109
286.129
302.855
289.837
283.15
283.15
300.592
301.136
283.817
283.15
303.15
300.378
302.421
300.793
300.078
302.835
292.777
289.825
286.78
292.666
284.418
290.796
283.314
295.767
290.587
294.454
287.431
284.34
303.16
283.278
303.147
285.848
300.962
283.151
300.386
298.436
288.913
302.156
285.516
299.304
283.15
302.982
283.155
283.102
288.408
299.979
303.15
300.406
303.038
300.069
302.816
303.15
301.469
285.084
295.248
302.183
303.15
283.765
283.15
290.711
285.328
285.929
303.165
303.149
283.15
283.15
283.18
303.15
293.98
303.15
303.164
296.404
303.44
303.15
300.48
303.15
303.15
294.192
290.817
303.15
290.004
302.164
289.73
303.15
303.15
286.37
283.349
290.604
303.205
303.15
303.147
285.647
283.322
283.15
289.224
287.909
303.15
284.37
303.15
303.15
303.133
287.523
303.15
303.147
283.312
303.152
302.734
288.1
283.147
283.737
297.396
291.24
303.15
286.051
284.544
301.478
287.266
302.382
290.725
294.17
303.15
303.15
284.077
303.154
302.976
295.898
302.972
302.792
287.329
283.15
285.455
283.229
297.407
302.661
285.597
303.15
283.887
286.889
303.132
283.181
303.15
286.618
283.15
300.15
303.15
300.064
300.315
283.276
283.399
302.407
291.258
301.318
303.15
301.593
301.911
303.15
303.15
298.54
293.901
283.15
289.019
303.15
295.249
283.398
303.15
297.128
298.995
289.192
303.15
302.82
294.559
295.759
284.563
303.161
298.906
296.597
284.03
303.133
302.85
287.674
298.85
289.968
290.996
289.906
283.15
302.987
303.151
303.15
303.165
293.628
296.77
302.996
301.473
303.15
284.513
303.15
303.064
302.9
303.15
293.933
296.418
303.15
285.577
303.106
303.15
303.106
303.154
286.367
293.734
291.359
288.575
293.516
303.15
301.344
291.994
295.674
293.973
303.142
303.15
300.703
303.179
284.379
303.18
303.15
303.15
303.143
303.15
285.127
303.15
284.387
303.146
303.15
290.579
303.145
292.891
295.974
303.136
295.68
286.091
283.48
303.131
302.955
284.784
283.15
297.305
303.15
285.655
302.957
302.138
303.031
298.46
287.31
303.15
298.818
290.08
299.655
283.15
283.655
303.15
303.144
303.184
294.196
303.15
292.705
289.563
303.188
303.15
285.014
298.979
293.627
299.779
302.575
301.623
300.535
303.15
284.806
296.953
302.42
285.77
298.354
292.526
284.629
292.032
303.15
287.089
292.209
290.252
299.621
303.15
286.577
284.131
303.15
302.5
288.325
302.155
283.15
303.15
300.06
301.808
289.33
302.084
301.912
301.919
303.15
289.678
285.269
302.058
302.319
297.382
303.15
283.209
303.15
302.084
303.15
302.874
303.15
292.099
303.15
296.999
283.15
290.097
303.15
283.15
292.291
301.567
300.593
289.407
300.664
303.15
302.57
303.15
302.418
285.408
303.15
300.579
290.636
303.15
300.964
303.15
303.15
293.313
283.15
285.835
293.491
301.078
303.15
291.538
294.173
288.516
289.8
288.252
299.194
300.27
300.958
287.55
287.281