/*--------------------------------*- C++ -*----------------------------------*\
  =========                 |
  \\      /  F ield         | OpenFOAM: The Open Source CFD Toolbox
   \\    /   O peration     | Website:  https://openfoam.org
    \\  /    A nd           | Version:  10
     \\/     M anipulation  |
\*---------------------------------------------------------------------------*/
FoamFile
{
    format      ascii;
    class       volVectorField;
    location    "56";
    object      U;
}
// * * * * * * * * * * * * * * * * * * * * * * * * * * * * * * * * * * * * * //

dimensions      [0 1 -1 0 0 0 0];

internalField   nonuniform List<vector> 
111485
(
(0.200079 -0.200226 0.000361542)
(0.567965 -0.00141758 -0.00374614)
(0.561674 0.00129193 0.00175449)
(0.200481 -0.200531 7.7422e-06)
(0.584003 0.0026225 -0.000173073)
(0.199422 0.19938 3.9685e-05)
(0.573821 0.00145132 0.000317448)
(0.588521 -0.00139139 0.000860738)
(0.574397 -0.000365074 0.000377732)
(0.586114 -0.00600546 -0.00251054)
(0.565141 0.00137113 0.0016236)
(0.591928 -0.00116591 0.00283705)
(0.556686 0.000204561 0.00119726)
(0.561143 -0.00147185 -0.00378953)
(0.570251 0.0021795 0.00118414)
(0.580572 -0.00344481 -0.00219315)
(0.572358 -0.000558632 0.00066901)
(0.205448 -0.0240457 0.0333384)
(0.585417 0.00154285 -0.00134068)
(0.197959 -0.197627 -4.41199e-05)
(0.198484 -0.198474 -0.000280464)
(0.2001 0.200029 9.4114e-06)
(0.578819 0.00143812 -0.000302843)
(0.586891 -0.00384899 -0.00111656)
(0.576139 0.00279123 -0.000982647)
(0.201851 -0.201066 -0.000300788)
(0.594141 -0.00251217 0.0031661)
(0.562567 -0.000955035 1.49727e-05)
(0.586636 0.000788192 -0.00151461)
(0.199437 -0.199497 2.47451e-06)
(0.591277 0.0108912 -0.00301417)
(0.583869 -0.00106691 0.00018114)
(0.198127 -0.198602 0.00032798)
(0.199753 0.200124 -0.000504687)
(0.200749 0.082026 0.0345267)
(0.200691 0.201823 -0.00281334)
(0.588855 0.0106607 -0.00439937)
(0.569591 0.000828186 0.00506023)
(0.581526 0.174245 0.0113036)
(0.584007 0.0030227 0.00040995)
(0.196574 0.198198 -0.00139482)
(0.590895 0.000545991 -0.00360614)
(0.583172 0.00318352 0.00114813)
(0.56259 -0.00436055 -0.000853313)
(0.589535 -0.0107586 -0.00523839)
(0.199677 -0.198553 0.00122413)
(0.59074 -0.00258454 0.00286022)
(0.586067 -0.00353977 -0.00102409)
(0.590822 0.00010891 -0.00275518)
(0.199137 -0.196931 0.00119996)
(0.197754 -0.195892 0.00126397)
(0.228035 0.191106 0.00311371)
(0.197019 -0.196416 0.000674914)
(0.590698 0.0026273 -0.00537316)
(0.196666 -0.195747 0.000169599)
(0.583412 0.00150008 -0.000609939)
(0.58309 -0.00256849 -0.00105346)
(0.200069 0.199793 4.24277e-05)
(0.531241 -0.00120653 -0.00941003)
(0.586218 0.00240744 -0.000331082)
(0.585957 0.00271228 -0.000226032)
(0.199653 -0.199985 0.000246785)
(0.542314 0.000579263 0.00362452)
(0.593649 -0.00115984 0.00454294)
(0.206087 0.186288 0.00018191)
(0.535867 0.00100563 -0.00135317)
(0.411101 -0.0374065 0.0142937)
(0.587794 -0.00192392 0.000858531)
(0.528886 0.000337656 0.00179937)
(0.499521 -0.00112019 0.000252711)
(0.5657 0.00433646 -0.00345629)
(0.523846 -0.00103586 0.00190339)
(0.21487 -0.194268 -0.00422829)
(0.536239 0.00105384 0.00423563)
(0.199885 -0.199761 7.58342e-05)
(0.585179 -0.00116984 0.000584919)
(0.200003 0.200066 -5.50272e-05)
(0.591029 -0.00122969 0.00314542)
(0.199865 0.19978 -4.89742e-05)
(0.178131 0.17362 -0.00665954)
(0.568493 -0.00881729 0.00591773)
(0.585732 0.00212708 0.000485358)
(0.198946 0.198547 -2.05372e-06)
(0.199829 -0.199791 9.29279e-05)
(0.552888 -0.000135422 0.00104138)
(0.530866 0.00144083 -0.00227047)
(0.453202 0.288778 -0.0804124)
(0.582546 0.00726386 0.000632206)
(0.560447 0.0149595 0.0136369)
(0.567349 0.000869939 0.00165862)
(0.599002 0.0110099 -0.0072858)
(0.584825 -0.000987632 0.00104166)
(0.545901 -0.000981955 0.00196394)
(0.554954 -0.000557839 0.000551854)
(0.591867 0.00170988 -0.00376283)
(0.199881 -0.199861 1.96553e-05)
(0.199179 -0.199054 0.000148589)
(0.582344 0.00677355 0.00202449)
(0.608913 -0.126871 0.00390928)
(0.549746 0.00534364 -0.00164352)
(0.199811 -0.199816 0.000101671)
(0.585188 -0.00319154 0.000494639)
(0.200924 0.201225 0.00109941)
(0.580097 2.20762e-05 -0.00031019)
(0.573665 -0.00258385 -0.00326146)
(0.196394 0.174335 -0.00435628)
(0.200198 0.200099 -6.93903e-05)
(0.584128 -0.00131996 -5.91568e-05)
(0.540236 -0.00302181 0.000423505)
(0.518136 -0.0152931 -0.0165517)
(0.553264 -0.00040586 0.00122396)
(0.579963 0.000845367 -0.000240808)
(0.5415 -0.00042607 0.00197534)
(0.532323 -0.00326234 0.000932167)
(0.201787 -0.200749 3.08235e-05)
(0.510895 -0.000471526 0.00147984)
(0.200955 -0.200359 -0.000263749)
(0.20082 0.199604 0.00116241)
(0.570674 0.00218125 0.00165002)
(0.200387 -0.20026 6.00856e-05)
(0.202001 -0.201008 -0.000107414)
(0.264538 0.207212 0.0129381)
(0.197213 0.198144 -0.000383173)
(0.199959 0.199459 -0.000716834)
(0.557947 -0.00134698 0.00238982)
(0.160352 -0.1145 -0.0293331)
(0.252356 0.215885 0.00846786)
(0.516086 -0.000178102 0.00248005)
(0.200136 -0.20004 -8.20678e-05)
(0.585468 0.0419638 -0.0153988)
(0.5872 0.0127041 -0.00677482)
(0.581333 0.00696099 0.00199726)
(0.198972 -0.198498 -0.00113845)
(0.258837 0.224545 0.0235764)
(0.241198 0.214619 0.0107506)
(0.586543 0.00167499 -0.00144321)
(0.200324 0.200264 -8.78562e-05)
(0.58176 0.00135813 3.31833e-05)
(0.577946 0.00266337 0.00177582)
(0.568096 0.00267319 0.00266494)
(0.442458 -1.16132e-06 0.00188216)
(0.58233 0.00322846 0.000699008)
(0.577218 0.00293861 0.00184899)
(0.55114 0.000545304 -0.00228119)
(0.577499 -0.000951878 -0.000467503)
(0.569308 -0.000542112 0.00142835)
(0.200424 0.200444 -3.14745e-05)
(0.200035 -0.200069 1.19594e-05)
(0.199729 0.199949 0.000471346)
(0.583601 0.00268828 0.00049101)
(0.551671 0.000925252 -0.00200278)
(0.198532 -0.198487 0.000116298)
(0.37567 -0.00220052 0.00370145)
(0.569221 0.00287798 0.0018022)
(0.624219 0.0245265 0.0105879)
(0.586553 0.00167525 -0.00125856)
(0.584115 0.0018303 -0.00056481)
(0.5408 0.000120559 -0.00129541)
(0.626022 0.0339545 0.00585392)
(0.198831 -0.200839 0.00104356)
(0.199923 -0.200087 0.000237436)
(0.585816 0.00158489 -0.00129202)
(0.573354 -0.00190469 -0.0019127)
(0.630251 0.0343571 0.00645983)
(0.620977 0.0311822 0.008401)
(0.541517 0.000375739 0.00280499)
(0.58411 0.00688119 -0.00265561)
(0.196875 0.198965 -0.000242832)
(0.638767 0.0419466 0.00903349)
(0.608875 0.0311635 0.00881048)
(0.200026 0.200158 5.20031e-05)
(0.199609 -0.199665 9.74934e-06)
(0.465948 0.000487766 -0.00383201)
(0.200296 0.200389 2.75731e-05)
(0.581554 -0.00105273 -0.000205377)
(0.559981 0.000335435 -0.000987711)
(0.199896 0.194958 -0.00118523)
(0.215559 -0.198773 0.00202555)
(0.198868 -0.19787 -0.000444853)
(0.197118 0.185792 -0.00197748)
(0.21659 -0.200233 0.0031875)
(0.199822 -0.199954 0.000198095)
(0.582041 0.00213406 0.000681203)
(0.583548 0.0014532 -0.00120593)
(0.58129 0.00160946 -0.000760684)
(0.572316 -0.00222201 0.00230404)
(0.552077 -0.00172671 0.000300493)
(0.554225 0.000874494 0.0018074)
(0.494712 0.00635272 0.000783772)
(0.199304 -0.198537 4.87754e-05)
(0.535628 7.84691e-05 0.000780172)
(0.215037 -0.200329 0.00194076)
(0.201309 -0.201492 -3.91354e-05)
(0.558826 0.000915631 0.00189046)
(0.586373 -0.00671697 -0.00237651)
(0.582367 0.000995822 -0.0029266)
(0.559266 -0.00067004 0.000495454)
(0.569336 0.000216199 0.000297906)
(0.199355 -0.199036 0.000483642)
(0.558791 -0.0026501 0.00071107)
(0.556175 -0.000465463 -0.00309872)
(0.384991 0.119403 0.0153127)
(0.570102 -0.00485835 5.1006e-05)
(0.579153 -0.000851717 0.000483936)
(0.200418 -0.199165 -0.000505382)
(0.556283 0.00126518 0.00201578)
(0.584708 0.00128146 -5.22014e-05)
(0.218532 -0.198462 0.000672289)
(0.561455 0.00114385 0.00259767)
(0.589608 -0.000495007 0.0032056)
(0.551091 0.000630872 -0.0023118)
(0.554484 0.00141749 0.00255939)
(0.216392 -0.200794 0.00250649)
(0.198886 -0.198961 -2.26544e-05)
(0.554251 0.00149915 0.0028509)
(0.36027 0.224028 -0.0210378)
(0.595753 0.00246512 -0.00615518)
(0.199881 0.199931 -0.000149497)
(0.557965 0.00110854 0.00233547)
(0.559295 0.000284679 0.000311364)
(0.592667 -0.00193757 0.00383669)
(0.200119 -0.200078 3.04878e-05)
(0.520607 -0.000414029 0.00133978)
(0.585159 0.00898151 0.0044003)
(0.319116 0.213767 -0.0244533)
(0.200293 0.200356 -0.000146867)
(0.200005 0.200154 5.77664e-05)
(0.597521 -0.00290775 0.00595407)
(0.555407 0.0121892 -0.00330543)
(0.210481 0.17688 -0.00428512)
(0.246122 -0.191878 0.00806485)
(0.560837 0.000508822 0.00101502)
(0.579811 0.000799215 -6.90972e-05)
(0.583176 0.00122194 0.000522132)
(0.206979 0.17939 -0.00553088)
(0.209593 -0.194369 -0.00101989)
(0.562495 0.00718592 -0.00851906)
(0.19987 -0.199806 8.71354e-05)
(0.534241 0.000639864 -0.00288138)
(0.554299 0.000386774 0.00233385)
(0.560656 0.000200225 0.00134628)
(0.561247 0.00108781 0.00143363)
(0.563558 0.000540238 0.00188564)
(0.199301 0.199404 0.000611687)
(0.426286 -0.00088853 -0.0157634)
(0.569479 0.00181725 0.00172876)
(0.198214 0.198815 -3.41288e-05)
(0.200133 0.200215 4.9691e-05)
(0.592907 -0.00682872 -0.000343073)
(0.579614 0.00270957 -0.000655699)
(0.204731 0.173249 -0.00562866)
(0.528328 -0.000464949 0.0011698)
(0.568645 0.00160948 0.0014733)
(0.200285 -0.200183 -5.19285e-05)
(0.253933 0.240355 -0.00124935)
(0.584801 0.0062285 -0.00277424)
(0.201121 -0.198606 0.000172456)
(0.221732 -0.159441 -0.00381034)
(0.300886 -0.107236 -0.0107236)
(0.2005 -0.199849 -0.000125218)
(0.572809 -0.000881725 -0.000965614)
(0.556222 -0.00101791 -0.000842361)
(0.579295 0.000839471 -0.00152041)
(0.199978 -0.200056 -3.99974e-05)
(0.572457 0.00162851 0.00138475)
(0.20046 -0.200511 2.98061e-06)
(0.200322 -0.200469 0.000137013)
(0.199169 -0.198303 0.000395211)
(0.395914 0.00179248 -0.00533627)
(0.589876 -0.0026066 0.00320466)
(0.56002 0.00210076 0.00248959)
(0.570757 0.00191167 0.00138349)
(0.590093 -0.0029823 7.18828e-05)
(0.568529 0.000944363 0.00173767)
(0.582356 0.00221433 0.000789981)
(0.586562 0.0106571 -0.00100302)
(0.57567 0.000493414 -0.000211176)
(0.580114 0.000917993 -0.000306298)
(0.203842 0.20048 -0.000118435)
(0.199011 -0.199083 -0.000271283)
(0.362808 0.00249628 -0.00774108)
(0.582836 -0.00116169 0.00049135)
(0.587071 0.0047933 0.0049896)
(0.555412 -0.000850088 -0.000827184)
(0.200426 -0.200296 4.7315e-05)
(0.578975 0.00191322 0.00118158)
(0.581435 0.00309492 0.00148212)
(0.570568 0.00123443 0.000771646)
(0.501 -0.000599672 -0.00233784)
(0.527053 -0.00601049 -0.0133315)
(0.579341 0.00174565 0.00050298)
(0.569282 0.00144973 0.00143365)
(0.580702 0.00540108 -0.00334074)
(0.200001 0.200097 1.01433e-05)
(0.533696 0.00296801 -6.45759e-06)
(0.199883 0.199997 -7.24377e-05)
(0.161181 0.11985 -0.0268972)
(0.226198 -0.145971 -0.0120681)
(0.602003 -0.00582418 0.0111379)
(0.590241 -0.00296863 9.92735e-05)
(0.575699 -0.000298072 0.000228193)
(0.20029 -0.199768 -8.04734e-05)
(0.199229 0.20034 0.0017271)
(0.578345 0.00205049 0.00123038)
(0.554255 0.000829744 -0.000701202)
(0.198663 -0.198631 5.26827e-05)
(0.200234 -0.200113 0.000231865)
(0.195409 -0.196552 0.00126586)
(0.549401 0.000655435 -6.13539e-05)
(0.577415 0.000560513 -0.000634441)
(0.550164 -0.000108949 0.00204448)
(0.530514 0.00111239 -0.00211708)
(0.587991 0.0019431 -0.00137822)
(0.229542 0.196905 0.00582137)
(0.199712 0.200194 0.000382852)
(0.19959 -0.199413 -8.37574e-05)
(0.57617 0.00214334 0.00160032)
(0.377481 -0.318912 -0.0150911)
(0.549613 -0.000553584 0.000801261)
(0.598632 -0.00377614 0.0137454)
(0.482919 0.00101198 -0.0097351)
(0.200157 0.200138 -9.21964e-07)
(0.199805 -0.200002 0.000165042)
(0.200386 -0.200497 -8.74616e-05)
(0.253543 0.211943 0.0133935)
(0.583898 0.0018959 -0.000131296)
(0.588407 -0.00293366 0.000551375)
(0.199754 0.200765 5.35182e-05)
(0.580638 0.00150227 -0.000173803)
(0.211856 0.170168 0.0125422)
(0.199682 -0.197291 -0.000303026)
(0.595453 -0.00184555 0.00499119)
(0.578777 0.00198895 0.00106516)
(0.591108 -0.000305754 0.00139687)
(0.580848 0.00156048 -0.000104602)
(0.19185 0.168982 0.0107064)
(0.251036 0.215303 0.0145653)
(0.199381 0.199641 -0.000382757)
(0.579874 0.00194733 0.000765625)
(0.579013 0.00174367 -8.05582e-05)
(0.589904 0.0115239 -0.0043761)
(0.197102 0.196603 0.000381384)
(0.40386 0.353698 -0.0872476)
(0.55116 0.00206294 0.00480364)
(0.589498 -0.00261862 0.0014556)
(0.579602 0.00203928 0.00134915)
(0.549433 0.0558163 -0.00393316)
(0.588049 0.00127303 -0.00174615)
(0.198969 0.198963 0.000117768)
(0.587752 0.00151282 -0.00139689)
(0.565418 0.000714621 0.00120542)
(0.593866 -0.0135111 6.70163e-05)
(0.597342 -0.00356959 0.00753473)
(0.574647 -0.00485734 -0.00419589)
(0.198775 0.199821 -0.000651692)
(0.19923 -0.199677 -0.000439143)
(0.200197 0.198871 0.000770293)
(0.198168 -0.198753 -1.91181e-05)
(0.587724 -0.00243384 0.000250205)
(0.582199 -0.000470664 7.58244e-05)
(0.584005 0.00266866 -0.00245676)
(0.587994 0.00155647 -0.00180166)
(0.198062 0.198239 -0.00085193)
(0.581048 -0.00376092 -0.00169513)
(0.200003 0.200023 6.11542e-05)
(0.199399 -0.199848 6.16029e-06)
(0.587792 0.00183475 -0.0013378)
(0.184394 -0.184465 0.00272995)
(0.325849 -0.0635038 -0.00351789)
(0.197001 -0.196225 -0.000205977)
(0.200341 0.19666 0.00116487)
(0.582548 0.000635787 -0.000555084)
(0.200041 0.199901 2.18363e-05)
(0.575182 0.00162713 -0.000154681)
(0.547117 0.000416427 -0.00225614)
(0.200588 0.200596 -5.46782e-05)
(0.525678 -0.000216217 -0.00250571)
(0.572852 0.000922049 0.00102972)
(0.201681 0.176183 -0.0065334)
(0.569204 0.00251849 0.00301652)
(0.540922 0.00228404 -0.000566261)
(0.573389 0.0027224 0.000976287)
(0.533693 0.00109546 0.00737986)
(0.578468 0.00155357 0.000479991)
(0.553031 0.000264687 -0.000936345)
(0.197818 0.16796 -0.000881019)
(0.198826 -0.198487 0.00123273)
(0.494661 0.000903239 0.0121928)
(0.198285 0.198926 -0.00117581)
(0.572418 0.00294091 0.00295338)
(0.596126 -0.00328324 0.00586096)
(0.200685 0.191466 0.00174617)
(0.199498 0.200387 -3.29034e-05)
(0.586207 -0.0008466 0.00043892)
(0.563586 -0.00254964 -0.00514567)
(0.566371 0.00292158 0.000296545)
(0.586963 0.00197624 -0.000770358)
(0.199968 0.199611 -7.80988e-05)
(0.597688 -0.000938482 0.0100187)
(0.58933 -0.00202465 0.00301808)
(0.200885 0.200572 1.99276e-06)
(0.576257 0.00953177 0.00784466)
(0.549797 -0.0022911 -0.0062914)
(0.199617 -0.19969 -1.25327e-05)
(0.198926 -0.198943 8.05187e-05)
(0.573978 0.00168544 -0.000519017)
(0.578219 0.00038705 -0.000917434)
(0.200122 0.200048 -0.000310859)
(0.199615 -0.199199 -0.00029922)
(0.344997 -0.189181 0.0417861)
(0.200341 -0.200472 8.23231e-05)
(0.578516 -0.0011661 -0.000195189)
(0.198569 0.199285 0.000422188)
(0.200432 -0.200511 1.21244e-05)
(0.591211 -0.000236716 0.00187596)
(0.536853 -0.00646878 -0.0153623)
(0.584112 -0.00373343 0.000848555)
(0.56544 -0.000206176 0.00100772)
(0.200766 0.200632 2.80453e-05)
(0.260977 0.200055 0.0100587)
(0.565273 0.00785978 0.0118924)
(0.244161 0.214396 0.0122188)
(0.563742 0.00251718 0.00477162)
(0.560223 -0.00491275 0.000164115)
(0.586228 -0.00219243 -0.00174727)
(0.404274 0.00711309 0.015495)
(0.23971 0.205331 0.010746)
(0.5841 0.00085825 -0.00561508)
(0.592501 0.018997 -0.00578029)
(0.199879 -0.200202 0.000262521)
(0.591707 0.00144115 -0.00626015)
(0.592168 -0.00244839 0.00226818)
(0.200044 -0.199982 0.000182669)
(0.574783 0.0326832 -0.0193044)
(0.4984 0.00017151 -0.00644265)
(0.253598 0.198703 0.00801966)
(0.589823 -0.00115548 0.00239122)
(0.582341 0.000785997 -0.000779093)
(0.578455 0.00155607 -0.000408425)
(0.200002 0.199891 -5.61096e-05)
(0.575235 -0.000962095 0.00410675)
(0.592086 4.99868e-05 0.00194689)
(0.573085 0.00567205 -0.000585032)
(0.35916 -0.00580218 0.00666679)
(0.244423 0.229861 -0.00508325)
(0.338761 -0.0110179 0.0123417)
(0.199753 -0.200051 0.000188608)
(0.531205 -0.0187152 -0.0178663)
(0.575363 -0.00107194 -0.00370561)
(0.200076 0.199981 0.00028128)
(0.548729 0.00129127 -0.00389775)
(0.450166 -0.00104477 0.00885957)
(0.261085 0.229629 -0.00243648)
(0.200057 -0.199932 -3.53068e-05)
(0.233037 -0.199304 0.00631745)
(0.200323 -0.200258 -2.95755e-05)
(0.572707 0.0034485 -0.000415349)
(0.577297 0.0032848 -0.00101284)
(0.573257 -0.00167581 -0.00163492)
(0.538216 0.00114995 -0.0029865)
(0.58587 -0.0114812 -0.00232756)
(0.199812 0.198906 -0.00038993)
(0.568176 -0.000588211 -0.00120787)
(0.200774 -0.199049 -5.50219e-05)
(0.563565 0.00204531 0.00140375)
(0.200792 0.200855 -1.89687e-05)
(0.200165 -0.2 -2.90387e-05)
(0.1974 -0.197984 -0.000313886)
(0.553651 -0.00392737 0.000446836)
(0.199102 -0.199302 -0.000210098)
(0.199914 -0.199974 1.80901e-05)
(0.197006 0.128807 -0.00858497)
(0.200335 -0.20048 9.36429e-05)
(0.197567 0.200157 0.00186552)
(0.56713 -0.00227305 -0.00124643)
(0.200049 0.199861 -3.13892e-06)
(0.237849 0.174864 0.000402776)
(0.200145 0.200264 0.000284945)
(0.199052 -0.19838 1.20504e-05)
(0.199913 0.199071 -0.000339703)
(0.198845 -0.197787 -0.00105017)
(0.198432 0.198609 1.28368e-05)
(0.51583 -4.75485e-05 -0.00401982)
(0.200191 0.199039 0.000861799)
(0.530312 0.00806511 0.0113254)
(0.580414 0.00137556 -0.000814194)
(0.59652 -0.0240678 -0.00381619)
(0.200807 0.199874 1.76146e-05)
(0.504235 0.00155973 0.00925212)
(0.200261 0.199503 0.00011032)
(0.200405 -0.200502 -8.68636e-05)
(0.569569 -0.00481487 -0.0057907)
(0.570828 -0.00416901 -0.00535062)
(0.574379 -0.00169233 -0.000815052)
(0.600017 0.00112137 -0.0111575)
(0.230745 0.193579 -0.00637693)
(0.587456 0.000682486 -0.0035216)
(0.586983 0.00072359 -0.00318925)
(0.579653 0.00115838 3.94392e-05)
(0.570025 0.000686135 0.000248045)
(0.578782 -0.00588993 -0.00457938)
(0.198628 -0.198703 -0.000127882)
(0.580106 0.00102355 1.7989e-05)
(0.26344 0.228025 -0.00115388)
(0.578577 0.00140752 -0.000735991)
(0.199683 0.199433 -7.14549e-05)
(0.589361 0.00179105 -0.00330061)
(0.26051 0.215676 0.00267378)
(0.581088 0.000359342 -0.000751259)
(0.583256 -0.00300544 0.00197672)
(0.230225 -0.119343 -0.00077841)
(0.199676 0.199854 0.00230161)
(0.570649 0.00107647 0.00112685)
(0.199719 -0.199708 4.62428e-05)
(0.591679 0.00222112 -0.00408131)
(0.587487 0.00238979 -0.00264314)
(0.199863 0.199229 -0.00165248)
(0.199296 0.199312 0.000463884)
(0.195822 0.174165 -0.00407616)
(0.200066 0.200204 7.60537e-05)
(0.409709 -0.023034 0.00913231)
(0.59196 0.00201858 -0.00390391)
(0.203273 0.198348 -0.000150466)
(0.199551 0.199992 0.000363318)
(0.506087 0.000719227 -0.00110175)
(0.200344 0.200364 2.72173e-05)
(0.582977 0.00167573 -0.00239385)
(0.200204 0.200126 1.49582e-05)
(0.576904 -0.00348684 -0.00162647)
(0.200236 -0.200296 -7.44278e-05)
(0.540602 -0.00248169 -0.00787173)
(0.443992 -0.00196205 0.000509513)
(0.543465 0.0017787 -0.00103891)
(0.581375 0.0006628 -0.000793875)
(0.200417 0.199019 -0.000640866)
(0.524792 0.000693961 -8.47901e-06)
(0.200378 0.199644 0.000193723)
(0.200174 0.200177 -0.000540457)
(0.574337 -0.00128699 -0.000688323)
(0.19981 0.19952 -7.90874e-05)
(0.488886 -2.20451e-05 -0.00484908)
(0.192372 0.176319 -0.0061895)
(0.583955 0.0017395 -0.00202212)
(0.198884 -0.199026 5.71049e-06)
(0.588672 0.000731763 -0.00129583)
(0.200561 -0.20036 2.09036e-05)
(0.239388 0.210796 0.00665936)
(0.59536 0.0217789 -0.00206207)
(0.570212 -0.00486582 -0.00589315)
(0.580507 0.00237154 -1.33367e-05)
(0.58369 -0.00619795 -0.00404343)
(0.577723 0.00128373 -0.000577686)
(0.589882 -0.00345572 -0.000305336)
(0.197822 0.199279 -0.000902425)
(0.580344 0.00333629 0.00173987)
(0.573029 -0.0054995 -0.00556839)
(0.19999 0.200071 -9.8227e-05)
(0.488629 -0.00629088 -0.0198823)
(0.593391 -0.00529393 -0.00338075)
(0.56989 0.0025923 0.00223608)
(0.197325 0.194596 -0.00115547)
(0.24664 0.0443018 -0.0398549)
(0.557182 0.00141226 0.00183301)
(0.453105 -0.00202635 0.00489299)
(0.467659 0.108903 -0.00446505)
(0.255948 -0.133864 -0.0099102)
(0.588005 -0.00576359 -0.00103706)
(0.553273 0.00224671 0.00435178)
(0.569625 -0.00529492 -0.00575235)
(0.581819 -0.00310167 -0.00108284)
(0.571635 0.00321556 0.00140874)
(0.504197 0.0629623 -0.00173456)
(0.248778 0.210297 0.00185789)
(0.513811 -0.0224153 0.00608894)
(0.499489 -0.0463976 0.0103628)
(0.199758 -0.199809 0.000135413)
(0.510923 0.00359582 -0.00148701)
(0.201318 0.19744 -0.00105071)
(0.235283 0.213341 0.00201422)
(0.578449 0.000977171 -0.000203312)
(0.508967 0.0831901 -0.00157118)
(0.613332 -0.0573886 -0.00797162)
(0.555412 -0.104509 0.00115383)
(0.23504 0.222547 -0.0154759)
(0.586967 -0.0035798 -0.000986266)
(0.579323 0.00322604 0.0026258)
(0.199578 0.199015 -2.58566e-05)
(0.259508 0.142311 -0.00541719)
(0.578849 0.00454625 0.00288606)
(0.200014 -0.19925 0.000169552)
(0.2 0.199891 -4.7878e-05)
(0.199239 0.199152 1.6192e-05)
(0.200463 0.19937 0.000219756)
(0.586342 -0.00570694 -0.00245045)
(0.200172 0.200144 0.00011744)
(0.200312 -0.200516 0.00101267)
(0.576121 -0.00358554 -0.00261744)
(0.53105 0.000262489 -0.00137088)
(0.290325 -0.255197 -0.0137007)
(0.578962 0.00441298 0.00273157)
(0.234259 0.188257 0.00447327)
(0.581379 -0.00201121 -0.00110217)
(0.195644 -0.195349 -0.000636772)
(0.1996 0.20002 -7.12301e-05)
(0.585387 -0.00365544 -0.000852144)
(0.199873 0.198704 -0.000797218)
(0.200292 0.199772 8.53246e-05)
(0.229828 0.219371 0.00664797)
(0.550245 -0.000339196 -0.000441661)
(0.332776 0.277693 -0.037068)
(0.576811 -0.00229976 -0.000995525)
(0.578147 0.000917705 -0.000218063)
(0.197851 -0.196611 -0.00155199)
(0.599003 -0.00099996 0.0192477)
(0.547276 -0.00316343 -0.00809699)
(0.574991 -4.75636e-05 -0.000481212)
(0.582282 0.0111592 0.00126016)
(0.583477 0.00426338 -0.0120645)
(0.501777 0.000247366 -0.00454976)
(0.199817 0.199504 8.7518e-05)
(0.586574 0.000599656 0.00176943)
(0.582253 0.0023987 -0.00039424)
(0.197849 -0.200443 0.000289647)
(0.540545 -0.00040596 -0.000302225)
(0.586202 0.00364962 -0.000898361)
(0.587533 0.00276142 -0.000994903)
(0.532039 -0.00237569 -0.00520239)
(0.587236 0.0026461 -0.0011025)
(0.587601 0.0032451 -0.000287447)
(0.199878 -0.197237 0.0013076)
(0.588845 -0.00105 0.00258625)
(0.483873 -0.00362875 -0.0011374)
(0.241706 0.209163 0.0132713)
(0.587323 0.00213195 -0.00154405)
(0.559955 0.00090313 -0.00129397)
(0.323292 0.262318 -0.0402601)
(0.57861 0.000923398 -0.00022789)
(0.587527 0.00188081 -0.0018347)
(0.560243 0.000541841 -0.00215485)
(0.583324 0.00242139 -0.000228295)
(0.575277 0.00638677 0.00259469)
(0.579351 0.000893037 -0.000128805)
(0.195499 0.190851 0.000280644)
(0.582954 0.00274423 -0.000360815)
(0.546078 -0.00345697 -0.00746163)
(0.223445 -0.13731 0.00508945)
(0.580153 0.00536986 0.00355776)
(0.572312 0.00512985 0.00527271)
(0.581038 0.00149366 -4.94834e-05)
(0.19936 0.198897 0.000182986)
(0.562029 0.00345212 -0.00542928)
(0.199859 -0.198719 0.000622564)
(0.200035 0.200029 -0.000199691)
(0.198786 0.197431 -0.000117035)
(0.200597 0.199344 4.23715e-05)
(0.487709 0.000261935 -0.0019669)
(0.239027 0.205923 0.00869876)
(0.447667 -0.0284026 0.0301583)
(0.198505 -0.198725 -5.64459e-05)
(0.199423 0.202054 -0.000407997)
(0.579802 0.00605275 0.00318196)
(0.584671 0.00124731 -0.0025395)
(0.199987 -0.199975 1.69816e-05)
(0.584197 -0.00378493 -0.000160369)
(0.200016 -0.199816 0.000662314)
(0.200254 -0.200102 -4.25402e-05)
(0.196507 -0.196625 0.000584953)
(0.592033 -0.00427067 -0.000475621)
(0.495659 0.00318113 -0.00120642)
(0.237899 0.212463 0.00358428)
(0.199643 -0.197802 0.000817303)
(0.199758 0.20045 -0.000298191)
(0.19956 0.199777 2.71402e-05)
(0.596397 0.00104193 -0.00683431)
(0.579891 0.00102729 -0.000244492)
(0.238024 0.223648 0.0104724)
(0.590553 0.00178651 -0.00335189)
(0.549695 -0.00949253 -0.0227233)
(0.199669 0.199819 -7.20643e-05)
(0.589092 0.00124721 -0.00299612)
(0.538662 0.000254185 0.00288168)
(0.571819 0.00299295 -0.00355973)
(0.200627 0.200556 2.10118e-06)
(0.199339 0.199269 9.701e-05)
(0.569155 0.00247337 0.00325763)
(0.581782 0.00120627 -0.000295284)
(0.237613 0.215102 0.00350321)
(0.19914 0.199061 6.35231e-05)
(0.201979 0.195448 -0.000576634)
(0.578662 -0.0013061 0.000534722)
(0.199896 -0.199858 -0.00028179)
(0.199022 -0.198293 0.000171145)
(0.19867 0.198633 -4.07229e-05)
(0.588666 0.00171321 -0.00271078)
(0.513917 -0.00266807 0.000586771)
(0.200528 0.200545 2.30195e-05)
(0.22415 0.0368589 0.0424015)
(0.249164 -0.0329054 -0.00947727)
(0.56781 0.00311584 7.55324e-05)
(0.19971 0.199998 -7.96006e-05)
(0.200071 0.199726 -0.000169101)
(0.589723 -0.00683628 -0.000935101)
(0.565268 0.0103134 0.00948459)
(0.240892 0.214861 0.0109802)
(0.352741 0.111069 0.00703472)
(0.55581 0.0104242 0.017163)
(0.533416 0.00170768 -0.00357911)
(0.568673 0.000354502 -0.000374281)
(0.206265 0.193453 -0.000425452)
(0.563895 0.00132012 -0.000408413)
(0.585688 -0.00388039 0.00415709)
(0.200372 0.199754 -0.000232762)
(0.198267 -0.194918 0.000302489)
(0.198556 0.198664 3.51071e-05)
(0.199262 0.199204 -4.77739e-05)
(0.200134 0.200525 -0.000279162)
(0.200578 0.200645 -2.56274e-05)
(0.590073 0.00195964 -0.00299592)
(0.200107 -0.200014 0.000106054)
(0.199003 0.199022 2.7577e-05)
(0.198923 0.196228 -0.000227685)
(0.590632 0.00189035 -0.0033533)
(0.581611 0.00122315 -0.000272739)
(0.200818 -0.198164 -6.33703e-05)
(0.197314 -0.195231 0.000441698)
(0.595112 -0.00282735 0.00531169)
(0.565353 5.76207e-05 0.000806164)
(0.564413 0.000248773 0.000880699)
(0.199895 -0.199439 -9.38089e-05)
(0.198986 0.198957 0.000115886)
(0.564898 0.000160947 0.000803821)
(0.200306 -0.200129 2.0404e-05)
(0.55925 0.00145465 0.000214722)
(0.570052 0.00123313 0.0018848)
(0.571793 0.00164703 0.00107821)
(0.199971 -0.198505 0.000477217)
(0.200285 -0.200384 3.82865e-05)
(0.200204 -0.200379 -3.72725e-05)
(0.200239 0.200278 6.30193e-05)
(0.577833 -0.00287566 -0.00147276)
(0.199927 0.200134 6.81784e-05)
(0.198423 0.198646 6.38944e-05)
(0.576699 0.00199571 -0.00295851)
(0.200291 -0.200342 0.000108438)
(0.567688 0.000361396 0.000736289)
(0.513517 -0.00562174 0.00119139)
(0.200978 0.193868 0.00110064)
(0.580634 0.00138314 -0.000223027)
(0.269942 0.0382789 -0.00539131)
(0.57338 0.000425443 0.000456248)
(0.591256 -0.00142956 0.00133611)
(0.52296 0.00204389 0.00104796)
(0.592339 -3.53494e-05 0.00425977)
(0.429942 0.0113784 -0.0160515)
(0.239148 0.189987 0.00402137)
(0.572054 5.54007e-06 0.000445453)
(0.594967 0.00422057 -2.67957e-05)
(0.580546 -0.00132399 -0.000483306)
(0.204916 0.177536 -0.00621719)
(0.268187 0.0179105 -0.00803351)
(0.309099 -0.030382 0.0116868)
(0.57287 0.00054227 0.000236175)
(0.198831 0.199207 0.000245581)
(0.560543 -0.001047 -0.00384178)
(0.572509 -0.000178332 -0.00103005)
(0.555602 -0.00473532 -0.00884797)
(0.214682 -0.156869 -0.0117508)
(0.200341 -0.20047 8.67299e-05)
(0.2 -0.200002 -4.91886e-06)
(0.582988 -0.00168729 7.48054e-05)
(0.234433 0.193628 -0.00251297)
(0.553536 0.00201143 0.000891953)
(0.217565 0.198075 0.00274011)
(0.549931 -0.00107318 -0.00391638)
(0.567347 -0.0013304 0.000529066)
(0.56049 -0.000821206 0.00150891)
(0.581665 0.00132951 -0.000397934)
(0.199021 0.199009 -5.07845e-05)
(0.198033 0.197416 -0.000448186)
(0.213148 -0.19468 0.000921706)
(0.580296 0.00151517 0.000121679)
(0.200388 0.199794 -1.73602e-05)
(0.231935 0.198624 -0.00904969)
(0.593747 0.0121714 -0.0101992)
(0.200118 0.199809 -0.000160044)
(0.198785 0.199721 0.000701722)
(0.198465 -0.197816 -0.000324442)
(0.200418 0.200475 4.98211e-05)
(0.554237 -0.000158088 0.00157157)
(0.203462 0.193112 0.000325567)
(0.200133 0.199972 8.48728e-05)
(0.464094 0.0618076 -0.0456437)
(0.235515 0.18959 -0.00230067)
(0.197836 0.19823 -0.00186982)
(0.284071 -0.171694 0.0114009)
(0.199861 0.199632 -0.000258737)
(0.455045 0.0022547 -0.00301231)
(0.565766 -0.00103267 0.00103758)
(0.198524 -0.198566 1.25169e-06)
(0.555859 0.000719933 -0.00174297)
(0.553513 0.0889385 -0.00796874)
(0.551543 -0.00529317 -0.00886511)
(0.606061 0.0231825 0.00028008)
(0.546966 0.000421191 -0.000785669)
(0.19991 0.198204 0.000832594)
(0.571852 -0.00532778 -0.00598815)
(0.592427 -0.00131134 0.00112084)
(0.551283 -0.00536502 -0.00885316)
(0.199999 -0.200214 1.11293e-05)
(0.598286 0.152873 0.0385763)
(0.552617 0.00105022 0.00107837)
(0.267548 0.213227 -0.0132224)
(0.548919 -1.45927e-06 0.000639198)
(0.598654 0.00709936 -0.00549629)
(0.572149 0.0115998 0.000438224)
(0.567282 -0.00156937 -0.00196554)
(0.567969 0.00179043 0.000164104)
(0.60329 0.00880608 -0.00298602)
(0.582231 -0.000838582 -0.000763105)
(0.576428 -0.000572767 0.000483021)
(0.198235 0.198999 0.00071016)
(0.198969 0.197886 0.000565437)
(0.556818 0.0015003 0.000937898)
(0.547221 0.000861032 0.00074335)
(0.199533 0.20008 -1.69334e-06)
(0.565098 0.000501327 0.00010718)
(0.590945 -0.00182569 0.000576668)
(0.577317 -0.00114413 0.000419436)
(0.199418 0.197292 -8.66062e-05)
(0.569925 0.011497 0.00235962)
(0.199226 0.199082 -1.09407e-05)
(0.576809 -0.000599782 0.000435717)
(0.577992 -0.000611155 0.000299425)
(0.199898 0.199798 -2.98955e-05)
(0.552268 0.00307083 -0.00175148)
(0.576402 -0.000350451 -4.65309e-05)
(0.56785 0.0104921 0.000571668)
(0.557709 0.000206801 0.00203999)
(0.204425 0.200446 -0.000335054)
(0.584641 -0.0017409 0.0017418)
(0.569699 0.0130478 -5.42052e-05)
(0.602353 -0.015952 0.00346832)
(0.508083 0.00692217 0.00110902)
(0.45301 0.00143463 -0.00583827)
(0.199833 0.197661 -0.000274584)
(0.199465 0.1993 6.55909e-05)
(0.559873 0.0078934 0.00103538)
(0.200428 0.200427 -9.03738e-05)
(0.487482 -0.00135999 -0.00143388)
(0.5626 -0.00285551 -0.00408854)
(0.339818 0.0441202 -0.0134424)
(0.625469 -0.0423154 0.0167644)
(0.552469 -0.0250254 0.00780189)
(0.614318 -0.0235118 0.00581802)
(0.200348 0.200366 -5.8403e-05)
(0.273573 0.232364 0.00155882)
(0.582685 0.00153112 -0.000347401)
(0.199286 -0.200195 -0.000805106)
(0.114277 -0.0814806 0.0313287)
(0.574666 -0.0107307 -0.00810304)
(0.198568 0.198157 -0.000468174)
(0.200459 0.200211 2.35734e-05)
(0.517127 -0.00980935 -0.000120798)
(0.418092 -0.0292908 0.00199327)
(0.200472 0.200502 -3.11189e-05)
(0.51801 -0.0105444 0.00200704)
(0.198522 0.198276 8.82892e-06)
(0.200031 0.200393 -0.000333487)
(0.200059 -0.200037 -5.1037e-05)
(0.200138 -0.199663 0.000477228)
(0.19596 -0.194324 0.000602441)
(0.199488 -0.199077 -4.29397e-06)
(0.520475 0.00476159 -0.00175961)
(0.197575 0.196053 -0.000148049)
(0.199999 0.200131 8.11356e-05)
(0.198319 0.1995 0.000473265)
(0.484873 -0.108436 -0.0278858)
(0.54857 -0.00492942 -0.0107399)
(0.530492 -2.39758e-05 -0.00490434)
(0.582699 0.00147019 -0.000397174)
(0.198599 0.197391 5.55467e-05)
(0.201083 0.200335 2.007e-05)