/*--------------------------------*- C++ -*----------------------------------*\
  =========                 |
  \\      /  F ield         | OpenFOAM: The Open Source CFD Toolbox
   \\    /   O peration     | Website:  https://openfoam.org
    \\  /    A nd           | Version:  10
     \\/     M anipulation  |
\*---------------------------------------------------------------------------*/
FoamFile
{
    format      ascii;
    class       volScalarField;
    location    "9.6";
    object      SgRate;
}
// * * * * * * * * * * * * * * * * * * * * * * * * * * * * * * * * * * * * * //

dimensions      [1 -1 -3 -1 0 0 0];

internalField   nonuniform List<scalar> 
111485
(
1.69063e-18
9.46467e-06
2.87964e-05
8.47805e-20
5.89914e-05
1.33745e-18
5.54674e-05
7.22868e-06
2.30412e-05
1.44651e-06
5.59908e-05
1.12505e-05
5.77023e-06
1.05892e-06
7.87014e-06
3.63126e-05
1.69486e-06
0.00313291
1.24978e-05
1.07159e-17
4.42291e-18
3.69338e-19
3.16849e-05
4.13887e-05
1.06725e-05
3.48389e-19
4.76748e-05
2.18515e-06
1.79232e-05
1.06936e-19
5.50886e-05
2.28061e-05
8.2407e-19
3.08451e-18
7.9008e-06
6.38739e-19
1.32336e-05
5.01683e-06
4.74475e-11
2.84146e-05
2.72691e-18
8.50187e-05
1.89726e-05
1.75351e-06
7.41908e-08
1.58101e-18
3.60326e-05
8.53545e-07
5.66507e-05
2.51946e-18
2.08247e-17
2.99242e-17
2.86995e-18
6.16253e-05
7.91753e-18
5.26031e-05
3.74568e-06
7.77525e-19
2.5513e-08
5.71966e-06
1.92182e-05
3.53029e-18
5.7329e-06
0.000117727
7.08446e-18
3.77794e-06
0.000379666
0.000113104
1.3333e-06
7.24079e-06
1.86616e-08
7.77641e-06
3.52081e-18
3.4754e-06
2.25815e-18
8.47656e-07
2.82438e-18
5.01036e-05
4.07685e-18
5.79766e-18
3.07853e-09
4.00221e-05
1.26969e-17
3.85456e-18
1.10998e-05
4.65537e-06
4.39608e-13
3.05904e-05
7.20849e-08
8.79791e-06
3.22732e-07
4.92522e-05
1.41818e-05
7.16395e-08
6.2801e-05
2.12859e-18
7.18572e-19
2.13724e-06
3.2318e-11
1.35991e-06
2.07077e-18
2.15408e-05
3.14476e-19
2.18069e-05
5.55096e-06
3.54508e-18
2.69603e-19
9.04e-06
4.876e-06
7.43842e-11
6.66719e-06
5.8007e-06
4.4829e-06
3.81077e-06
6.30776e-18
4.0381e-08
8.42852e-19
1.019e-18
1.54604e-05
2.17658e-18
3.56209e-19
5.78801e-18
2.68181e-18
3.3955e-19
1.95188e-06
3.64173e-09
1.36912e-18
1.999e-06
1.19512e-19
3.75744e-08
1.7478e-06
3.92612e-05
2.39518e-18
6.58006e-18
9.2076e-19
5.8198e-05
6.08897e-19
5.06094e-05
3.03395e-05
3.3573e-06
2.88482e-07
2.39507e-06
2.68267e-05
3.20046e-06
4.84187e-06
1.55286e-05
1.85779e-18
2.11171e-18
1.25335e-17
3.3536e-05
1.84779e-06
3.16713e-19
2.70664e-10
5.67225e-06
5.29645e-10
1.31512e-05
1.93994e-05
1.29354e-05
7.79959e-11
1.2803e-19
1.44928e-18
6.29364e-05
2.76836e-05
2.17135e-09
3.8152e-10
7.03713e-06
4.07759e-06
6.38739e-19
5.2956e-09
5.44794e-08
7.91561e-18
1.46573e-18
1.57657e-07
3.10668e-19
6.65029e-06
2.50235e-06
2.93816e-19
1.84215e-17
1.04675e-17
1.59577e-17
4.86506e-17
1.17133e-18
1.7773e-06
8.15329e-06
3.56978e-05
4.96172e-06
9.08211e-06
4.86182e-06
9.19336e-08
5.19489e-19
5.82141e-06
1.90574e-18
3.85605e-18
7.83186e-06
1.24796e-05
3.41176e-05
1.35277e-05
6.01575e-06
3.37901e-18
7.99755e-06
5.78572e-07
5.12687e-08
1.68934e-05
2.79221e-06
7.963e-18
4.51016e-06
3.08768e-05
2.08553e-17
1.92653e-07
9.34237e-06
2.37979e-06
4.30451e-07
5.45262e-18
4.04167e-18
1.00037e-05
1.28395e-14
0.00014493
1.86886e-18
8.03129e-06
2.45767e-05
0.000144037
1.72664e-18
3.85485e-06
1.66234e-05
1.85794e-16
6.09617e-19
1.31727e-18
0.00018055
3.12897e-10
1.65835e-18
2.09203e-17
1.16774e-05
9.28494e-06
1.83031e-05
1.09953e-17
3.89173e-17
1.7059e-08
3.47461e-18
2.94547e-06
1.11362e-05
1.92946e-05
1.40811e-05
1.19213e-05
2.45287e-18
3.00953e-10
7.47826e-07
3.23577e-18
3.94328e-18
3.65541e-05
2.47803e-05
1.05824e-17
7.65801e-06
1.28369e-05
8.7763e-19
2.26466e-17
1.62004e-07
4.95541e-18
3.47296e-17
5.25116e-08
3.48571e-20
1.7831e-05
1.29422e-05
4.44484e-06
1.72167e-18
1.39951e-05
2.29256e-19
3.28429e-18
9.758e-18
2.36989e-11
2.76529e-05
7.50318e-06
6.44447e-06
4.37777e-05
1.48325e-05
1.89604e-06
6.62488e-07
3.88434e-05
1.05734e-05
4.0869e-18
4.28086e-19
2.99476e-10
2.68984e-05
2.92932e-05
1.42887e-05
3.68856e-19
8.38328e-06
2.47967e-06
3.6399e-06
4.22769e-09
4.21571e-09
1.62751e-05
2.70128e-06
2.38892e-06
5.05118e-19
7.68994e-07
9.6171e-19
2.14474e-10
3.29262e-16
0.000286092
8.10881e-05
1.43284e-05
3.39076e-18
1.54749e-18
1.07174e-05
1.94928e-06
2.15491e-18
2.17134e-17
4.38652e-17
3.67659e-07
6.96876e-05
4.72989e-06
1.62577e-05
2.27435e-05
2.65122e-17
1.46264e-18
7.01273e-18
4.56595e-06
2.09298e-15
1.20905e-06
0.000220585
3.64852e-10
2.85621e-18
3.85644e-18
9.21275e-20
4.31382e-18
7.17207e-05
1.42989e-05
2.07133e-19
6.27671e-06
2.65709e-17
7.65389e-18
8.30646e-05
7.03284e-06
1.34121e-05
1.12123e-05
1.7843e-17
1.19636e-17
2.06361e-17
1.12867e-05
2.21772e-05
6.18105e-06
2.52902e-17
3.69679e-13
1.87691e-07
2.60969e-06
9.57101e-06
4.08093e-08
3.39407e-05
1.00465e-17
4.4676e-05
4.24716e-06
9.36578e-06
3.0098e-05
1.61786e-05
1.17374e-17
1.48857e-18
1.84682e-17
1.63076e-18
3.74209e-05
1.16327e-05
3.94455e-05
8.04769e-05
2.52486e-18
2.23062e-05
3.9701e-18
1.45095e-18
2.00393e-05
9.69441e-18
9.27807e-05
9.80445e-18
5.08781e-20
2.76974e-05
1.60216e-20
1.62388e-05
3.26843e-07
9.44302e-19
1.1995e-06
1.9711e-05
3.2007e-18
1.07419e-05
1.09593e-05
9.7814e-06
7.98549e-07
3.21307e-06
6.63562e-06
1.97316e-17
7.53731e-18
2.25665e-06
2.54949e-18
7.43139e-06
0.00014222
1.65716e-19
2.68243e-18
3.24438e-05
1.3682e-07
9.90708e-06
2.56525e-05
1.70294e-18
5.47922e-05
2.2938e-05
4.23954e-19
9.9911e-07
2.90055e-06
5.7223e-18
8.51528e-19
1.32031e-05
6.29843e-06
1.20478e-17
1.86193e-18
4.27388e-11
1.92152e-18
1.45063e-05
2.4739e-18
3.25952e-18
2.04033e-05
2.00422e-09
1.43649e-05
3.61157e-05
1.9585e-18
6.26746e-18
1.79731e-06
5.8927e-18
1.79935e-07
1.7035e-05
0.000147137
0.00101039
1.5452e-17
3.29856e-06
6.21753e-07
1.19992e-17
4.70554e-05
3.78391e-05
1.18127e-18
8.37567e-12
1.08103e-07
7.58341e-18
2.91529e-05
2.89064e-05
1.68014e-05
2.95585e-18
7.96047e-07
2.16124e-05
2.73425e-05
9.87613e-10
7.54051e-18
7.74655e-13
3.41489e-18
1.55057e-08
3.72831e-05
2.83217e-19
1.0057e-05
1.14496e-07
2.4146e-18
2.46878e-18
2.42063e-17
4.15308e-18
4.78999e-06
1.14661e-05
7.84488e-06
2.47405e-06
3.2065e-06
1.79765e-18
2.31719e-06
9.21974e-18
4.91723e-05
7.56329e-19
3.37572e-18
9.43284e-20
4.39109e-05
1.11154e-17
7.34521e-18
1.98965e-10
2.13459e-19
9.1487e-18
1.26346e-06
2.40252e-19
2.38172e-17
1.61021e-18
3.896e-18
1.86526e-17
1.26175e-17
5.75833e-18
8.38974e-06
8.07517e-18
6.49299e-07
2.29613e-06
1.08039e-06
2.74935e-18
1.03111e-06
4.70043e-18
1.74512e-19
3.35954e-06
2.16094e-06
3.2715e-05
3.01479e-05
1.01258e-17
2.45955e-06
9.87193e-05
1.0224e-05
1.21615e-06
3.93588e-06
1.81687e-18
2.77257e-05
2.66209e-17
6.02337e-06
1.02443e-18
9.16879e-05
2.01354e-17
2.57502e-05
2.95694e-07
6.06712e-10
5.31004e-18
2.44659e-06
6.38109e-19
9.57926e-05
5.88708e-05
2.06025e-18
2.37185e-18
1.39293e-17
1.66106e-18
1.64839e-12
6.50378e-05
1.26998e-18
4.50121e-19
2.89765e-06
7.91454e-20
4.06257e-05
3.32604e-18
3.76141e-07
9.66123e-18
5.81804e-07
1.31466e-09
1.18742e-06
1.56601e-05
2.20648e-17
5.01261e-07
3.22144e-18
1.788e-18
1.80291e-05
5.90775e-18
3.60638e-08
7.87111e-18
1.93455e-06
6.35762e-18
7.77809e-05
8.20993e-19
3.75394e-18
2.15111e-05
4.00258e-06
2.11413e-06
4.71611e-06
8.26783e-06
2.47954e-05
3.3e-18
3.01149e-05
7.35306e-06
1.45824e-18
9.57129e-11
4.8418e-05
1.82613e-05
6.89514e-18
4.60936e-06
8.04077e-06
2.08248e-06
1.23636e-06
2.86668e-13
1.62501e-05
1.47829e-06
1.5455e-07
2.83776e-05
1.63421e-05
7.30581e-07
1.19532e-17
3.92028e-12
0.000780348
7.21855e-19
4.13157e-07
7.90269e-19
4.40589e-17
8.80516e-06
3.36301e-06
2.70907e-10
1.88973e-08
1.63704e-17
1.96312e-05
1.32627e-05
1.43745e-17
1.84749e-13
2.29401e-06
5.88972e-18
6.14198e-18
3.17014e-19
3.98062e-19
1.56042e-05
2.23495e-18
7.8172e-18
1.0446e-05
2.31353e-06
4.58031e-17
1.2735e-05
1.41721e-17
1.01171e-05
2.25915e-17
1.00743e-17
6.32006e-05
3.64926e-18
2.14136e-18
4.07494e-17
5.22593e-06
7.17065e-17
3.45439e-05
7.48592e-06
1.10707e-18
0.00010576
2.90928e-06
3.43084e-05
3.37916e-05
5.41365e-07
9.29954e-08
6.06818e-20
6.4933e-05
5.59577e-05
4.11941e-18
3.8844e-07
4.77628e-05
9.40774e-06
1.69407e-06
3.28957e-05
3.11788e-05
1.3645e-17
1.29457e-05
6.67462e-09
9.39461e-19
4.15107e-05
3.1053e-07
6.5989e-17
1.29972e-05
4.85684e-05
1.61625e-06
2.56137e-05
2.36152e-05
8.44975e-06
2.68749e-17
1.23747e-05
3.8377e-07
4.35592e-15
2.05833e-05
2.14541e-05
4.30669e-05
1.00525e-18
2.24207e-06
2.27771e-18
5.23472e-18
5.02993e-18
2.35184e-18
1.66031e-08
1.41314e-18
3.74014e-13
1.91233e-18
1.97514e-18
9.34056e-08
5.20198e-05
6.38708e-18
3.76976e-05
6.5187e-18
2.72576e-17
3.70563e-18
4.65194e-05
4.78311e-07
1.00656e-17
9.99045e-18
1.26703e-18
5.65042e-20
0.000249355
8.28555e-05
4.1399e-17
2.37739e-06
2.46679e-09
4.94186e-19
4.47155e-05
1.00752e-05
1.44142e-05
6.86702e-18
1.04162e-18
5.12144e-07
1.30382e-06
1.37005e-17
1.3185e-17
1.05749e-17
8.75237e-06
2.2099e-19
3.49099e-17
3.71468e-19
5.01157e-05
2.44505e-06
1.60175e-18
0.00463244
0.000407784
1.20755e-05
1.4649e-18
1.08829e-17
6.57336e-05
4.99952e-07
3.08538e-19
6.20014e-09
0.000136451
2.91346e-06
1.33984e-05
2.50314e-17
6.32188e-05
2.24301e-06
1.70594e-19
8.35843e-18
4.13361e-19
1.62396e-18
2.41472e-18
3.45075e-18
2.64607e-05
8.31743e-18
4.21424e-18
2.75293e-18
1.36898e-05
2.76382e-05
2.03274e-18
7.93821e-18
0.000127049
1.72374e-05
1.14393e-05
1.23026e-17
1.77366e-18
4.4677e-05
1.38385e-18
2.08457e-06
3.10733e-06
4.59812e-06
1.19096e-17
1.74975e-18
2.46515e-18
1.79905e-18
1.78614e-05
6.07073e-19
2.01118e-18
1.22217e-06
4.63897e-18
2.75956e-05
2.24978e-06
9.1754e-18
4.42864e-05
0.000428894
3.04475e-06
3.47074e-05
1.68727e-07
5.28651e-05
9.94224e-14
5.73643e-17
2.82548e-05
8.25727e-05
7.23784e-06
1.55108e-18
6.8919e-13
0.000902628
1.2086e-05
2.24144e-19
2.93651e-06
3.03e-06
1.39753e-06
1.10943e-16
1.01088e-18
1.61569e-18
1.58422e-05
6.56878e-18
3.10737e-06
2.7505e-18
1.5137e-06
1.69197e-06
4.40313e-05
6.51084e-07
2.80826e-18
6.93388e-19
3.02452e-17
2.46986e-05
1.70653e-19
2.43262e-17
8.50167e-08
2.53921e-18
2.37109e-19
4.64757e-19
1.38839e-18
1.20942e-05
4.02825e-18
3.06828e-18
5.52325e-13
1.65832e-17
5.97135e-18
3.22036e-17
6.0646e-18
3.34102e-09
1.92256e-06
1.26187e-18
4.77366e-06
7.70694e-09
3.42053e-10
7.28071e-08
4.83019e-06
2.994e-18
1.12655e-08
1.17831e-05
4.78552e-07
4.46802e-18
3.32133e-12
1.0223e-06
9.56074e-18
1.16986e-05
2.16873e-07
1.93417e-09
2.80013e-05
1.12025e-05
2.70076e-06
5.93395e-06
2.40217e-06
5.52964e-18
7.42285e-19
3.95778e-05
3.14354e-05
1.15112e-18
1.00155e-05
6.42248e-05
3.40155e-05
3.19428e-18
1.51096e-06
1.84605e-18
1.23527e-05
1.66212e-05
7.05291e-18
1.89373e-06
5.50735e-07
1.41793e-09
5.91576e-06
5.66885e-18
5.84589e-05
1.76272e-08
1.77982e-06
3.77059e-08
1.38796e-08
1.69149e-18
8.72247e-19
8.30571e-06
3.43766e-19
1.43205e-07
2.97396e-07
3.35471e-07
6.54343e-11
8.4731e-11
3.29761e-10
1.08014e-18
5.91374e-17
2.77379e-05
1.85903e-18
1.36433e-07
2.417e-06
3.86381e-18
1.6215e-18
7.60078e-10
1.09386e-12
3.31576e-18
6.02109e-09
6.53166e-18
3.98293e-18
1.88068e-18
5.63667e-18
1.38268e-17
1.6192e-17
3.26811e-07
3.97715e-18
1.26958e-17
1.25003e-17
7.65087e-09
6.22106e-08
2.1444e-06
1.12324e-05
2.55592e-19
1.40614e-18
2.00235e-07
1.43011e-18
3.29341e-19
1.37661e-16
2.20914e-05
5.05799e-05
1.05892e-18
8.91873e-19
8.55398e-18
5.74209e-18
3.31555e-18
1.46358e-18
8.27458e-06
1.00516e-18
6.38163e-11
3.19675e-05
4.64368e-18
4.18282e-18
7.96118e-18
3.34461e-08
2.43464e-17
2.17518e-19
7.52413e-18
1.11988e-08
3.78556e-19
5.17381e-06
1.10089e-09
6.86473e-12
9.42668e-19
9.00057e-08
2.33713e-06
5.2632e-05
9.3495e-18
1.02779e-08
6.67391e-06
2.36275e-18
4.04303e-18
4.41129e-17
1.35827e-17
1.00892e-05
1.94599e-06
3.87661e-06
2.11297e-10
1.23464e-18
2.60192e-05
5.53826e-18
2.91532e-17
1.60964e-17
3.59893e-18
3.16212e-05
4.2351e-18
1.42204e-17
2.02384e-09
6.1486e-05
5.06919e-18
2.83845e-06
1.36104e-17
9.76637e-07
2.6022e-17
2.08435e-18
1.51586e-18
2.93022e-18
2.90549e-06
7.09439e-07
0.000358429
1.70535e-18
3.33231e-18
2.35951e-06
2.21761e-18
7.58213e-18
1.22483e-17
4.3619e-05
1.1449e-08
3.87125e-05
1.04192e-17
1.26803e-08
5.92967e-08
9.53489e-18
1.51311e-07
3.22814e-18
1.42254e-06
3.01483e-05
2.44575e-05
1.42929e-06
2.80956e-07
1.79683e-18
1.5051e-18
1.93129e-18
2.63674e-08
1.79511e-19
8.96228e-06
1.23127e-19
0.000210177
3.83426e-19
4.90861e-05
3.71161e-06
4.46073e-17
6.27532e-18
3.47515e-17
1.56523e-18
4.9587e-05
1.27384e-17
6.4525e-18
1.41134e-05
8.21003e-06
5.17024e-18
1.91549e-17
1.50526e-17
5.92632e-18
1.91678e-17
3.65338e-19
3.09397e-05
4.94741e-07
1.52348e-18
2.24768e-19
6.41746e-10
5.94815e-19
1.89432e-06
1.27407e-07
2.62276e-18
4.21236e-06
9.41687e-19
4.56298e-07
7.18717e-18
1.32889e-06
2.37826e-18
8.69514e-11
2.55389e-09
7.4528e-07
2.17116e-05
4.07961e-05
1.4041e-09
7.7975e-19
6.15879e-07
4.72904e-17
5.4936e-06
2.75396e-18
2.66234e-17
3.3259e-16
9.21979e-18
8.40299e-18
2.65615e-18
8.631e-06
9.7628e-06
5.8492e-19
1.18361e-17
2.99639e-18
9.15896e-07
1.57576e-08
9.89187e-18
2.16637e-05
2.1324e-07
9.31953e-18
2.79535e-05
9.8271e-06
4.30436e-06
1.362e-05
7.48597e-19
2.06922e-17
3.91579e-19
5.80668e-18
4.41145e-05
3.76959e-20
0.000136828
2.84493e-19
3.8409e-07
8.70946e-07
8.8917e-19
1.15389e-06
5.18185e-19
1.50468e-18
3.69568e-06
2.60579e-11
1.14833e-05
2.96284e-18
3.29578e-18
6.17499e-19
1.00299e-06
2.93398e-18
3.87771e-18
2.69525e-17
3.29856e-10
3.29749e-18
7.87913e-09
7.38602e-18
4.01334e-18
1.01879e-18
2.16729e-05
1.18737e-05
2.19121e-05
4.32068e-05
1.23628e-17
1.97851e-08
3.67779e-19
3.78287e-18
1.17176e-05
1.69046e-18
2.62512e-09
4.35601e-07
7.92473e-06
4.33034e-07
1.3126e-12
2.25004e-06
2.34727e-18
1.46537e-12
4.89091e-13
1.504e-07
9.31766e-07
1.77502e-05
7.61862e-11
1.87839e-17
3.62793e-05
3.79476e-18
3.69611e-18
1.62888e-08
8.98202e-05
6.63016e-11
9.05839e-18
1.30529e-18
3.59213e-10
1.24828e-17
7.13403e-18
2.17036e-08
1.22062e-17
1.58147e-17
4.85328e-05
2.71483e-07
2.15136e-07
2.71084e-05
8.68869e-06
8.06989e-19
1.71163e-18
2.24338e-08
4.81682e-06
2.68271e-18
4.35547e-18
1.14703e-05
2.71436e-18
1.76661e-18
1.17814e-17
1.48481e-17
1.33997e-16
0.00308657
8.29484e-20
2.60034e-07
4.17696e-18
2.54244e-05
5.90268e-19
6.97974e-16
2.7299e-17
1.17436e-17
6.63671e-18
1.69553e-19
3.32992e-06
6.15012e-19
9.53466e-19
2.16816e-18
3.11012e-18
5.32323e-18
2.68409e-18
1.17027e-05
2.14314e-17
1.32819e-05
3.70577e-06
5.48752e-19
1.94245e-06
2.45191e-18
5.94719e-07
2.39646e-09
4.5539e-06
1.56066e-05
1.8533e-18
1.09117e-07
9.25892e-06
1.13306e-08
4.96223e-19
3.1709e-09
2.22892e-05
5.64273e-06
1.19153e-17
3.10133e-05
3.4227e-17
8.01824e-18
8.45212e-18
5.15439e-18
9.7396e-06
6.00473e-18
1.15862e-18
9.84277e-06
3.96357e-10
3.2214e-06
1.19083e-18
1.57062e-16
8.03621e-07
5.21575e-19
7.98221e-08
1.45334e-17
2.78718e-05
3.01179e-18
4.07003e-19
6.71532e-08
5.61874e-19
1.65485e-07
4.15026e-18
4.31704e-18
5.71392e-06
5.08522e-07
5.65649e-06
1.84358e-05
0.000263763
2.43529e-05
3.69092e-19
6.25805e-17
3.57758e-06
8.01146e-06
4.36459e-05
1.27517e-05
2.79777e-18
1.45246e-05
5.36782e-19
2.03748e-19
1.0921e-05
1.31193e-05
1.65254e-17
1.57188e-05
8.50269e-18
3.25431e-06
1.04288e-05
3.41037e-17
1.54707e-19
8.41333e-19
3.36317e-06
5.83171e-18
2.52068e-18
5.00743e-06
2.53385e-05
4.2269e-09
8.85153e-06
5.13754e-19
1.32528e-18
9.97911e-08
9.08884e-07
9.89133e-20
1.24347e-05
8.27255e-17
3.16685e-06
1.56557e-17
1.66502e-18
1.47469e-05
3.17311e-18
4.54349e-08
4.34873e-06
9.64471e-19
2.14853e-20
5.29822e-06
6.61536e-14
6.21999e-05
4.565e-18
0.000306289
1.08649e-17
6.60166e-17
3.40549e-17
8.97949e-06
4.07329e-18
3.21264e-18
6.65756e-06
1.07035e-18
2.91986e-07
1.65878e-17
6.88341e-18
1.0922e-18
1.22373e-10
9.17643e-07
1.31708e-19
2.13263e-18
4.16364e-05
1.11254e-06
5.22278e-18
5.14402e-07
9.66678e-19
3.96478e-18
1.98479e-09
3.09311e-06
1.57217e-06
9.15069e-19
4.85161e-18
6.41751e-19
4.22146e-18
5.91966e-17
1.68148e-17
2.30437e-18
2.79507e-18
7.35659e-18
9.25235e-18
8.14007e-19
4.98951e-19
1.93639e-18
2.1557e-19
2.98185e-19
4.24084e-19
9.82931e-19
7.62461e-19
5.03594e-18
7.17865e-19
8.62253e-18
2.06694e-05
1.94569e-18
1.09441e-18
7.82138e-18
7.88687e-06
2.72804e-18
2.09965e-18
0.00034689
6.00297e-18
1.63457e-18
2.75398e-05
4.11072e-15
2.11129e-18
9.18881e-06
2.9168e-05
9.21722e-19
3.29776e-06
4.90894e-06
3.06466e-18
1.58651e-05
4.68901e-05
2.12746e-05
4.03147e-06
1.27525e-05
3.44599e-18
4.37455e-18
3.49348e-06
1.22156e-05
3.83796e-06
1.11604e-18
7.83766e-06
2.10534e-06
2.54865e-05
1.20677e-05
8.27418e-07
1.86407e-05
1.25231e-06
1.21301e-05
4.32157e-18
2.92138e-05
1.00309e-05
1.94242e-06
1.63291e-06
6.18704e-19
1.00481e-18
1.58986e-17
3.17127e-19
1.23007e-18
1.06358e-05
1.61608e-05
3.53142e-20
9.25197e-19
7.26418e-18
1.232e-18
6.83112e-19
6.51281e-19
1.25079e-18
1.79322e-18
5.41457e-06
2.21604e-07
2.58327e-05
8.01021e-08
1.49234e-18
5.09167e-17
3.629e-05
8.66076e-09
2.92807e-18
6.464e-19
8.61429e-06
4.26078e-18
7.40338e-18
3.7119e-09
9.32007e-06
1.59562e-05
4.00387e-05
4.0714e-05
1.09833e-18
1.65964e-05
3.96586e-07
5.09251e-18
9.39777e-19
1.40676e-05
2.84594e-18
1.59883e-18
1.93104e-05
0.00123999
2.07643e-07
1.05719e-17
9.99602e-18
2.16216e-05
2.36793e-05
2.07645e-05
6.84179e-06
5.01821e-06
7.78726e-19
1.27843e-09
3.16911e-12
1.46139e-17
2.03198e-17
2.04286e-05
3.37248e-18
2.36587e-06
2.95657e-05
2.07874e-05
1.36169e-05
2.24008e-18
7.19443e-06
8.21523e-19
2.66991e-18
3.94628e-19
3.21851e-19
2.87745e-06
0.00104274
9.09856e-20
2.64926e-19
4.46089e-09
2.71132e-05
1.36545e-06
8.15e-06
3.85171e-05
5.64901e-06
2.44272e-05
5.82464e-18
4.26085e-18
8.83005e-18
3.5116e-05
6.67345e-06
3.19383e-11
1.64467e-17
2.11543e-18
2.76425e-18
2.61686e-05
3.29602e-06
1.13427e-18
5.76509e-06
6.86198e-05
7.80356e-06
7.21765e-06
4.07399e-18
1.82271e-17
8.12763e-06
2.63606e-05
2.71326e-18
3.99633e-07
1.72677e-05
1.17978e-06
1.06529e-05
5.45974e-06
9.43316e-06
7.19235e-17
3.86404e-06
2.41983e-05
4.23749e-05
5.41868e-13
2.65336e-05
4.30079e-16
1.9057e-05
1.8671e-07
3.99696e-19
2.99943e-06
8.8581e-06
4.48183e-07
1.33685e-05
1.66834e-10
1.4967e-07
1.67442e-08
4.85234e-05
4.27314e-06
6.63753e-18
4.46447e-05
1.52272e-06
4.18084e-18
1.10856e-18
4.85219e-11
1.28818e-08
1.2084e-06
0.00128038
4.06637e-05
1.42573e-05
2.38412e-10
5.21973e-05
4.79712e-18
1.4935e-18
4.51891e-06
1.21193e-17
2.46347e-06
4.83014e-06
2.53682e-06
5.33081e-06
2.80243e-18
2.36129e-07
0.000124973
1.42747e-19
2.11658e-05
8.70241e-06
1.90272e-18
4.6779e-06
1.51674e-07
3.55518e-18
7.5108e-12
1.05573e-07
3.09904e-18
7.26484e-18
1.28229e-18
5.0578e-06
5.70938e-06
1.63409e-05
1.74943e-19
5.72054e-06
3.82014e-05
1.78751e-18
9.27221e-06
1.43107e-05
2.7815e-05
1.78199e-06
6.1695e-18
6.72085e-07
1.08396e-05
1.20447e-05
1.04431e-05
4.27887e-05
0.000188602
3.88386e-06
1.11557e-18
8.76061e-09
5.75619e-05
1.48999e-18
4.90231e-07
5.67411e-18
3.6145e-18
1.52134e-18
2.94101e-18
3.17804e-19
3.6975e-06
1.6723e-18
8.28528e-06
1.3061e-06
3.34478e-19
4.31555e-06
7.15172e-17
1.6035e-05
1.73434e-18
2.64096e-08
1.12337e-17
2.51695e-05
1.83087e-07
2.93242e-09
4.85391e-06
3.27322e-05
1.91179e-05
4.42098e-06
3.1085e-05
8.01359e-15
2.60186e-05
6.17508e-05
1.08481e-05
2.04485e-17
1.25726e-06
2.94717e-07
6.43222e-06
1.16519e-05
6.90257e-07
6.38642e-18
1.20015e-17
7.87242e-19
4.0754e-06
1.51699e-18
3.51429e-07
2.48247e-07
1.88823e-06
3.23243e-07
2.36252e-18
2.36322e-17
1.67616e-18
1.00087e-05
2.46516e-05
1.36932e-06
1.10794e-08
2.13983e-06
7.85224e-06
2.23674e-06
8.91052e-07
7.53775e-06
6.88443e-06
3.02452e-06
6.18908e-18
4.07393e-18
4.10412e-18
1.48897e-05
1.21972e-05
2.90934e-18
9.148e-19
1.22355e-17
9.52913e-06
2.11368e-05
2.86472e-18
2.49117e-06
3.12139e-18
6.98344e-10
5.29793e-06
0.000101766
3.32484e-19
4.67098e-19
4.07469e-06
1.37944e-18
6.675e-08
1.33725e-05
3.24684e-18
1.22544e-05
3.70463e-05
2.10743e-05
1.09165e-18
1.56512e-06
4.57854e-18
9.78568e-08
5.54222e-05
1.9426e-18
5.46126e-19
1.22201e-05
2.75549e-16
1.26488e-17
5.08738e-08
1.0846e-06
1.02647e-18
1.95865e-18
1.82311e-18
7.04619e-08
1.39722e-06
3.46979e-06
2.93421e-05
1.03834e-05
8.58243e-19
8.11994e-10
7.54655e-07
1.81074e-18
1.42003e-18
1.45525e-18
8.27277e-19
4.04507e-18
4.16416e-18
2.55362e-17
4.61517e-19
1.24764e-17
1.22881e-17
2.67891e-12
4.33692e-18
3.81757e-07
8.00512e-18
2.73009e-07
9.30655e-18
6.9326e-08
6.24264e-18
1.08668e-17
3.23559e-05
1.01836e-05
5.26888e-17
0.000100346
1.21807e-11
4.45176e-13
2.12785e-18
1.49807e-06
1.2606e-14
3.09474e-06
7.47208e-09
9.49794e-07
5.83043e-19
2.69645e-18
1.03885e-06
2.63372e-11
1.78382e-18
1.54126e-18
4.38135e-05
2.89456e-18
4.1525e-05
7.92057e-18
4.97723e-18
2.00346e-09
3.17407e-05
8.96639e-06
8.57278e-18
3.59939e-07
1.85687e-17
3.64138e-06
2.08224e-08
2.01872e-06
1.08103e-06
2.02864e-18
2.29441e-05
1.35182e-06
5.85094e-06
3.32304e-20
8.33719e-20
6.75457e-19
2.20477e-05
4.417e-06
5.86589e-05
2.34681e-18
5.358e-10
1.65209e-18
1.47977e-18
3.75959e-18
1.00968e-18
3.71604e-06
2.52654e-06
3.38564e-06
0.000359543
6.14648e-18
3.06033e-05
4.02017e-05
1.94506e-05
1.97877e-06
2.98339e-18
5.86587e-06
5.16301e-06
6.90372e-06
3.6131e-10
1.13711e-05
1.69533e-17
1.69646e-06
1.43716e-06
3.67325e-05
1.32366e-09
3.79994e-06
4.57168e-19
2.1245e-05
3.21923e-18
1.00077e-17
1.85678e-06
7.87277e-19
6.84648e-06
2.39878e-18
1.01516e-17
6.69151e-18
3.44038e-19
5.16024e-18
9.15909e-07
6.38789e-18
6.08351e-07
2.13772e-17
3.39394e-18
1.99953e-05
6.06204e-06
8.94841e-06
8.313e-06
3.76489e-19
0.000664756
1.67484e-18
7.82948e-05
1.15613e-17
1.98681e-05
2.70195e-05
2.69738e-06
6.37498e-05
1.66784e-17
4.18787e-18
1.87741e-19
2.43462e-06
9.34494e-20
3.1295e-18
1.98392e-05
1.58155e-17
6.36633e-18
6.11263e-06
1.48678e-17
1.42774e-05
7.8442e-11
3.4258e-18
3.93121e-18
9.68409e-18
1.81971e-06
7.65134e-06
6.8847e-19
2.56093e-05
3.90144e-07
1.95766e-18
0.000117009
5.76775e-18
1.76408e-05
2.02585e-05
4.04151e-06
1.27334e-18
2.00533e-05
1.10248e-05
9.76103e-07
6.08634e-06
1.432e-05
4.98654e-18
1.90183e-17
2.04702e-09
1.46683e-19
4.45712e-19
3.97449e-18
2.202e-05
5.11462e-05
5.01877e-06
2.48058e-06
1.5808e-18
5.68733e-05
5.18449e-05
4.78423e-06
2.73029e-06
1.06044e-05
2.36389e-05
3.07371e-06
7.42658e-19
6.81201e-19
2.54769e-18
7.94976e-06
4.92417e-18
2.79088e-05
4.13951e-17
8.46145e-07
6.59055e-10
2.89223e-06
2.51171e-05
1.63291e-17
3.07391e-18
2.83754e-06
4.17199e-07
5.81658e-18
1.33894e-17
3.67263e-19
3.86294e-08
3.66233e-07
1.6867e-07
9.47125e-07
1.14981e-05
9.79496e-05
1.73604e-18
3.41095e-17
3.17188e-18
4.23019e-06
2.00364e-05
2.26662e-05
3.99631e-05
1.98137e-06
3.39124e-06
1.68747e-17
5.6765e-18
1.67091e-16
7.15564e-19
1.06954e-05
2.55488e-05
2.2889e-18
3.60985e-18
1.80751e-18
3.38378e-19
3.7688e-18
2.68746e-17
1.57919e-05
2.60213e-18
1.0881e-06
0.00046791
1.16637e-18
1.5726e-08
2.60919e-05
8.6624e-07
3.82645e-18
4.62436e-18
5.66298e-06
5.54622e-19
1.63136e-05
1.17346e-09
2.78203e-05
1.54944e-17
2.5741e-15
1.14147e-18
2.05608e-18
1.11152e-19
1.13178e-17
0.000227557
9.07004e-19
6.84343e-06
1.37922e-06
3.58082e-18
2.63584e-17
2.23022e-06
8.85112e-19
3.36039e-18
1.29174e-05
1.54594e-07
2.8537e-18
1.42913e-17
1.09258e-18
1.92314e-05
1.78254e-18
7.55099e-19
4.81248e-07
3.02892e-06
3.54969e-06
9.37357e-19
1.22778e-18
6.21954e-17
4.40729e-06
2.14038e-06
1.50229e-05
4.30065e-06
2.32817e-19
9.21611e-07
1.35111e-05
7.42175e-06
3.77527e-20
2.94862e-19
1.16574e-17
5.5832e-18
1.83211e-18
3.57724e-05
5.99902e-06
6.41241e-06
1.42993e-17
3.16465e-18
2.88956e-19
1.18832e-18
5.00619e-18
1.13656e-09
2.77885e-07
2.56572e-06
1.34529e-18
6.19482e-19
5.55766e-18
2.6737e-12
4.005e-05
0.000131414
4.03731e-18
8.80977e-13
2.57459e-14
5.88777e-18
1.73886e-18
4.39677e-06
7.52741e-06
2.08495e-19
1.3918e-17
3.3417e-06
1.69353e-18
8.10759e-07
1.25261e-06
0.00241216
7.96275e-19
1.04369e-17
1.39732e-05
6.16283e-07
1.12995e-18
0.000768231
6.91129e-07
7.23658e-06
3.52746e-18
8.31276e-18
1.51908e-17
2.07453e-18
9.32149e-06
1.04765e-07
1.23126e-17
2.92843e-05
2.20996e-05
0.000994159
1.50864e-18
3.76836e-19
2.793e-19
2.3813e-19
7.57707e-06
8.01348e-11
6.65366e-19
2.4294e-17
2.16056e-05
1.07408e-06
5.54234e-06
5.89088e-18
1.51585e-18
3.31421e-05
1.0281e-17
1.89126e-19
1.16515e-19
6.62574e-19
2.48233e-05
1.98141e-17
1.47402e-18
1.0008e-17
2.89601e-05
1.38279e-05
5.14553e-19
1.58392e-18
3.29423e-20
1.75645e-05
2.15224e-10
4.64161e-18
8.63901e-19
5.78663e-18
3.5505e-18
2.76772e-06
1.26916e-05
1.64523e-18
2.3223e-06
1.28777e-06
5.53218e-06
2.05467e-17
1.17301e-17
9.85619e-19
1.26813e-17
1.74065e-19
2.23571e-05
9.76402e-18
1.65263e-05
4.27184e-18
1.7691e-06
1.6291e-16
2.7569e-06
4.37559e-18
4.11728e-18
1.23993e-05
0.000189092
5.43465e-17
4.13888e-06
3.83331e-19
4.49349e-07
2.53588e-17
5.28171e-18
1.31894e-18
1.40474e-10
4.04531e-18
3.49637e-07
1.8816e-19
4.02651e-05
1.16898e-18
3.21427e-18
2.75711e-18
4.67789e-18
8.96138e-09
1.53857e-07
2.41724e-18
6.49848e-06
6.79857e-19
3.1479e-06
2.12016e-05
1.45584e-06
2.65919e-19
5.38668e-09
5.04756e-07
2.49527e-09
4.77397e-06
3.71759e-10
1.92629e-06
1.60298e-17
4.64407e-18
4.99287e-10
6.55714e-06
2.72979e-07
3.2895e-18
2.20268e-18
3.77532e-18
0.000662301
8.31497e-19
1.7205e-19
5.5177e-18
1.08013e-18
1.2627e-17
3.35156e-08
2.04021e-07
1.1763e-06
7.88689e-08
9.99626e-16
1.71815e-06
5.46673e-19
6.30682e-06
1.71649e-17
2.42107e-18
1.79601e-18
3.5488e-17
2.11372e-08
3.04372e-18
3.42389e-19
7.21713e-19
1.64174e-05
2.96478e-18
1.33997e-17
1.25596e-05
9.64983e-18
8.48748e-05
0.000143914
0.000646541
4.86606e-18
0.000229189
0.00131151
0.00131679
0.000738443
4.81411e-18
6.81137e-19
5.46143e-06
5.21848e-06
6.64272e-18
1.08762e-05
5.10637e-18
3.61048e-05
2.14673e-17
6.53289e-19
8.06339e-07
2.42467e-18
3.29e-18
1.16918e-08
4.57741e-08
7.10119e-19
9.05834e-19
3.2562e-09
3.91849e-17
5.16453e-18
2.22673e-08
9.38653e-06
1.71609e-06
6.88407e-18
8.83261e-06
6.23364e-18
3.97276e-06
4.64828e-10
8.26568e-06
4.14452e-18
1.78469e-11
6.38737e-06
1.10039e-17
1.80724e-12
8.16476e-19
3.59866e-05
8.30911e-18
1.08157e-05
4.56245e-18
2.75214e-10
1.68329e-18
1.23267e-18
4.13786e-18
9.3511e-13
5.79034e-13
1.40411e-18
1.35901e-05
1.03213e-05
1.86829e-17
5.55229e-18
3.65828e-05
1.92506e-05
0.00020372
2.98246e-18
7.64701e-08
2.78131e-05
5.11425e-05
6.81109e-11
1.40333e-18
6.3398e-05
6.40206e-19
0.000253286
1.00502e-18
4.26932e-11
4.0367e-11
1.41576e-18
5.80226e-08
3.3342e-17
2.41102e-05
2.06036e-19
2.29281e-18
4.15612e-18
9.8706e-18
2.58006e-18
9.88096e-18
3.39853e-07
2.14294e-06
0.000149967
3.77094e-18
7.69023e-17
4.55954e-05
2.63645e-18
2.2618e-19
4.32298e-19
8.57495e-18
3.67829e-18
6.55198e-06
1.43395e-18
7.77708e-19
6.74574e-19
3.66521e-06
4.73579e-18
2.75092e-18
2.96187e-17
3.59945e-06
5.02879e-18
6.83235e-06
0.000259119
5.82632e-06
5.96562e-06
2.96396e-05
2.83513e-18
2.19408e-18
6.48347e-18
3.38646e-06
1.93154e-06
2.30626e-19
5.5507e-16
6.59699e-07
7.89132e-18
1.66168e-17
0.000370755
2.1327e-19
2.42805e-05
1.72218e-18
2.59881e-06
3.65339e-06
2.19895e-18
7.3678e-18
4.23252e-18
1.87515e-18
5.02691e-18
2.05581e-05
2.95683e-18
5.15055e-06
8.46639e-18
2.29408e-18
7.5238e-06
1.28315e-18
1.40674e-05
1.41567e-17
6.547e-18
2.68018e-06
8.57668e-08
0.000155139
1.1511e-17
3.78545e-18
1.46188e-17
4.05852e-06
0.000196512
1.41913e-17
3.18021e-18
4.07113e-17
1.69376e-06
8.72757e-18
2.16817e-05
3.42644e-05
2.61643e-18
3.0233e-19
7.99905e-06
2.14809e-17
4.42702e-17
9.5148e-19
4.02448e-17
4.62578e-19
7.53804e-05
3.6772e-18
2.26528e-17
1.05503e-18
2.24808e-18
1.11787e-18
8.94281e-18
5.94596e-18
1.25602e-18
1.89818e-17
8.5875e-06
8.00237e-18
9.25019e-06
1.42339e-16
6.61026e-18
0.000637587
2.95921e-06
1.78627e-18
7.24475e-18
5.33798e-19
2.63878e-06
5.84621e-19
1.12063e-18
2.59461e-17
1.37184e-18
7.90246e-06
3.03173e-19
5.27822e-06
4.63432e-19
1.04978e-05
4.98229e-19
6.2391e-05
8.31637e-18
4.66328e-18
2.34036e-05
4.9982e-18
5.03016e-19
2.93132e-05
2.9642e-07
1.44704e-18
1.27822e-18
4.00802e-05
1.09919e-05
7.02131e-06
9.24424e-07
1.98552e-06
1.88291e-05
1.07237e-06
5.31715e-06
3.85686e-18
3.17539e-05
7.4648e-18
1.59433e-18
3.77331e-19
7.54627e-18
5.57623e-18
1.13327e-05
4.7182e-17
7.19169e-18
7.22753e-20
3.34309e-09
9.94416e-09
1.85053e-17
2.49826e-06
2.39979e-18
4.72563e-06
3.84259e-18
1.37428e-09
3.96982e-06
1.83543e-16
4.99151e-05
8.31186e-19
9.53859e-19
4.0887e-18
3.23443e-06
1.42274e-06
1.30324e-19
8.61662e-19
2.74609e-06
2.60412e-18
0.000725108
1.36292e-19
0.000112514
4.85389e-18
1.52134e-18
1.55294e-17
2.54888e-18
1.08933e-05
3.71961e-19
4.2682e-08
1.42783e-18
1.06934e-05
2.38852e-18
3.32336e-19
6.14041e-15
3.61399e-17
3.04589e-19
7.60415e-18
9.93791e-18
1.13237e-17
4.6864e-06
0.000208985
3.09071e-18
1.08559e-18
3.93907e-07
5.83622e-18
1.71594e-18
1.24683e-09
1.88457e-05
1.61053e-07
7.46173e-19
7.61189e-07
3.60201e-06
5.71826e-06
9.15805e-06
2.74934e-18
1.55384e-17
3.54066e-18
3.72319e-18
8.65769e-20
4.02766e-18
3.58361e-19
8.52351e-18
5.05747e-18
5.87297e-19
1.08356e-18
2.13463e-18
8.2517e-05
2.11394e-18
1.46836e-18
4.68217e-14
7.00077e-18
2.34604e-19
0.00121368
1.68092e-18
5.0514e-20
2.17706e-06
2.15167e-12
5.98823e-18
3.08049e-18
3.50814e-20
2.49406e-05
3.91521e-18
1.13232e-17
5.60316e-11
3.68746e-19
4.11048e-18
1.06991e-17
3.33969e-18
0.000127048
2.11109e-18
1.87446e-07
8.0622e-20
1.71967e-18
5.22915e-19
1.15495e-18
7.93577e-19
1.99014e-11
4.15446e-11
1.23459e-07
9.3579e-19
1.58966e-18
1.32338e-18
1.12827e-10
1.25782e-18
3.3853e-10
1.13697e-11
1.60599e-19
8.05391e-19
6.86115e-18
5.5417e-12
1.47605e-18
1.43724e-17
2.57687e-12
3.7457e-17
3.48479e-05
4.76611e-18
7.82959e-06
2.9879e-17
2.53906e-09
3.1479e-19
1.6244e-06
1.71183e-18
4.67731e-06
2.89433e-05
1.46251e-17
2.85583e-06
1.60906e-08
4.57936e-18
1.21632e-05
3.07276e-18
4.68675e-19
3.65219e-18
4.94156e-19
4.61518e-19
1.73526e-20
3.01431e-18
5.65602e-18
0.000320512
4.3803e-19
1.12987e-18
1.29201e-18
9.48357e-20
7.09773e-19
3.5588e-05
0.000919553
3.51278e-09
1.267e-08
4.39179e-20
2.33908e-06
1.60013e-06
6.27463e-19
2.92829e-17
3.98757e-17
1.05136e-17
3.30069e-18
1.72806e-17
3.2856e-18
7.38573e-18
4.53014e-07
5.34181e-18
2.06493e-18
2.54937e-07
4.1055e-09
3.92423e-19
2.93268e-05
1.05905e-17
5.45633e-18
3.59717e-18
0.000196485
5.35615e-17
8.62086e-19
2.93096e-05
4.15521e-19
9.62055e-19
1.17796e-18
8.96237e-19
6.28546e-05
5.26934e-19
9.59468e-19
1.11736e-18
1.89419e-18