/*--------------------------------*- C++ -*----------------------------------*\
  =========                 |
  \\      /  F ield         | OpenFOAM: The Open Source CFD Toolbox
   \\    /   O peration     | Website:  https://openfoam.org
    \\  /    A nd           | Version:  10
     \\/     M anipulation  |
\*---------------------------------------------------------------------------*/
FoamFile
{
    format      ascii;
    class       surfaceScalarField;
    location    "7";
    object      phi;
}
// * * * * * * * * * * * * * * * * * * * * * * * * * * * * * * * * * * * * * //

dimensions      [0 3 -1 0 0 0 0];

internalField   nonuniform List<scalar> 
214403
(
-0.00676003
0.00518396
0.000285563
0.00129051
-0.00334511
-0.0112467
0.000956938
0.0136348
-0.0102682
6.84126e-05
-0.000139843
0.0103397
0.00889714
-0.00598227
-0.0149131
0.0119982
0.0123148
-0.0155714
0.00370915
-0.000452562
-0.00539507
0.0056192
-5.46495e-05
-0.000169481
-0.000854599
-0.0016245
-0.00924662
0.0117257
-0.0170485
0.00970077
-0.00256119
0.00990888
-0.0233527
0.0164836
0.0166386
-0.00976948
0.0142356
0.00169
-0.0159071
-1.85218e-05
0.00504905
-0.0100015
0.00205734
0.00289509
-0.0103673
0.00326209
0.00537186
0.00173337
0.000477596
-0.0114716
0.0138154
-0.00282142
-0.00997284
0.010039
-6.61604e-05
0.00192383
0.0119608
-0.0153319
0.00144722
-0.0120879
0.0101057
0.00306352
-0.00108133
-0.0121568
0.0118613
0.000295452
0.00393841
-1.27706e-05
-0.000998055
-0.00292758
0.0157247
-0.00941117
-0.0209082
0.0145947
-7.60275e-05
-0.00311563
9.13353e-05
0.00310032
0.0064262
-0.00627554
-0.000150665
-0.0123838
-0.00428399
0.00425972
0.0124081
-0.00229161
0.0136756
-0.0110225
-0.000361422
0.00674537
0.000709349
0.0023536
-0.00980832
-0.0102718
-0.00493306
0.0132963
0.00190847
0.00922953
-0.0116914
6.888e-05
0.00239295
0.00323691
-0.00283341
0.0106031
-0.0110066
0.00765866
0.0100178
-0.0120671
-0.00560941
0.0112076
-0.00702976
-0.000318963
-0.00385887
-0.0058856
0.00599917
-0.000113574
0.00244518
-0.0050921
0.0135774
-0.0109305
0.0141732
0.000671687
-0.00247361
-0.0123713
-0.00564538
-0.00579358
0.0059332
0.00550576
-0.00120295
-0.00678551
0.00601102
0.00197744
0.00443494
-0.00306837
-0.00944801
0.00808145
-0.00171718
0.00856612
-0.00309469
-0.00375424
0.0160765
-0.000391117
-0.0156854
-0.00692004
0.0134968
-0.00657672
0.00124595
-0.0148118
0.00857747
0.00498835
0.00246366
-0.00099028
0.00603
-0.00750338
0.00572674
-6.04848e-05
-0.00566625
0.0102747
-0.000221305
0.00182152
-0.0118749
-0.013033
0.00163673
0.0138599
0.000864245
0.000887287
0.00865041
-0.0104019
-0.00412679
-0.0269677
0.0261525
0.00494196
0.00572675
0.00103396
0.0012945
-0.00805521
0.00425358
0.00321683
-0.0103891
0.00291874
0.0134049
0.00803403
-0.0146936
0.00121283
0.011372
-0.00231014
0.00182599
-0.00683975
-0.00402747
0.00904123
0.00311336
0.0047854
0.00142491
-0.00932367
0.00185842
-0.00139558
-0.00429923
0.0038364
0.00689274
-0.0124755
0.00869611
0.0119404
-0.011242
-0.00385679
0.00315837
0.0106718
-0.00195311
-0.00862373
0.0116927
-0.000496917
-0.00257201
0.00888151
-0.0113564
0.000130514
0.00234433
-0.0083187
0.000549699
0.0132933
-0.0055243
-0.0153782
-0.014452
0.0121372
0.0176931
-0.00822408
0.00827414
0.00162762
-0.00167768
0.00129725
-0.0105116
-0.00860299
-0.000179135
0.0044721
0.00431002
-0.0134576
0.00577765
0.00870739
-0.00102744
0.0157885
-0.0127177
0.000813638
-0.00388439
0.000725832
0.00026443
-0.0103988
0.00940849
0.000521687
-0.00286113
0.0141484
-0.0118089
-0.034952
0.00363653
0.00389053
0.0274249
-0.00322601
0.00949685
-0.00300776
-0.00326308
0.00466705
-0.00245715
-0.00995608
0.00774618
0.00111907
0.00695864
-0.0088456
0.000767895
-0.000173346
0.00853274
0.00296895
-0.0113283
-0.0016935
-0.000268036
-0.0035284
0.00548994
-0.00904055
0.00988156
-0.000375362
-0.000465644
0.000317008
-0.00910755
-0.0063864
0.00565664
0.00171703
-0.000987265
-0.0169778
-0.00107205
0.00828573
0.00976412
-0.00513823
-0.00218927
0.00437131
0.00295619
0.00754896
-0.025317
0.0035099
0.0142582
-0.00394678
0.00794303
-0.00433792
0.000341676
0.00566579
-0.00439851
0.000560663
-0.00182794
0.000129153
-0.0106434
0.0105143
3.22431e-05
0.00864149
-0.00867373
0.00762281
-0.00149134
0.00101054
-0.00714201
-0.00456253
0.00650969
0.00215748
-0.00410464
-0.00322021
0.0137143
-0.00329614
-0.00719797
0.00647499
-0.0110341
-0.000420551
0.00497968
0.00740487
0.0078309
-0.0152358
0.0109251
-0.0122779
0.0031459
-0.00179317
0.00106169
-0.00197091
0.0142627
-0.0133535
0.00041039
-0.00230716
0.0102717
-0.00837495
0.00243752
0.0214927
0.00619248
-0.0301227
-0.0187974
0.0165367
0.0107216
-0.00846082
0.000863538
0.00662237
-0.00890467
0.00141876
0.0087641
0.00974304
-0.00318999
-0.0153172
0.0162967
-0.00989878
-0.000326444
-0.00607145
0.000711931
-0.00208666
-0.00655194
0.00792666
-0.00663099
3.77815e-05
0.00659321
0.00990035
0.000342023
0.000682751
0.0123079
0.00103753
-0.0187102
0.00536477
-0.00986588
0.00217827
0.00175348
0.00593414
-0.00625721
0.00155157
0.000769335
0.00393631
0.00153475
0.00109743
-0.0130167
0.0103845
-0.00266948
-0.0155362
0.00990515
0.00830048
0.00622527
-0.00736486
-0.00479902
0.00593861
0.0100623
-0.000108903
-0.0100623
0.000108827
0.00770805
-0.0108931
-0.00378063
0.0069657
0.0199459
-0.00603539
-0.00310825
-0.0108023
0.0113086
-1.90091e-05
-0.0104012
-0.000888431
-0.00569814
0.0067105
0.013985
-0.0149974
0.0122187
-0.00429182
-0.0117504
0.0038236
0.00225078
-0.00328541
0.0142994
-0.0132648
-0.0161465
0.0147165
0.0139505
-0.0125205
0.00072728
-0.0125737
0.00485276
0.00699368
0.0157359
-0.000830969
-0.000320738
-0.0145842
0.0110918
-0.00216185
0.00214514
-0.0110751
-0.012859
-0.0116944
0.0138407
0.0107127
-0.00243965
0.00699768
0.00189672
-0.00645475
-0.00549868
0.000299721
0.0106576
-0.0054586
-0.00122579
0.0138154
-0.0128583
0.00026878
-0.0119101
0.011061
0.00215338
-0.00130422
-0.000399554
-0.00695062
0.0165797
0.00220055
-0.00733176
-0.00535772
0.0104889
-0.00582002
7.64503e-05
0.00574357
0.00178429
0.00811378
-0.00750556
-0.00239251
0.0129396
-0.00746101
-0.00198281
-0.00349577
9.06059e-05
-0.00381861
0.00372801
-0.0072948
-0.00196604
0.00274059
0.00652025
0.000751433
0.004137
-0.00928251
0.00439408
0.0158352
-0.00142978
0.00618908
-0.0205945
0.00113721
-0.00140195
-0.0191961
0.0194608
0.00123722
-0.00549092
-0.00726001
0.0115137
0.000464671
0.00999326
-0.000557575
4.01401e-05
-0.00587774
0.0058376
0.012169
-0.00451312
-0.00545531
-0.00737886
0.006162
-0.00607794
0.0134342
-0.0111809
-0.00135442
-0.000898866
0.00134605
-0.00636569
0.00278316
0.00223647
-0.0109656
-0.00331999
0.0022287
0.0120569
0.00912657
-0.0148282
0.00976916
-0.0040675
-0.000406775
0.0133914
-0.013409
0.000424402
-4.28301e-05
0.0121988
-0.0120866
-6.93019e-05
-0.0170419
0.0136006
-0.010917
0.0143583
0.0142183
-0.0137603
-0.000457938
-0.0130284
0.0174496
-0.0031896
-0.00123163
-0.0116418
0.00279966
-0.000877333
0.00971944
-0.0191927
0.00147889
0.0123399
0.00537391
0.00340889
-0.0046553
0.00259246
-0.00469933
0.00534318
0.00859562
-0.00923947
-0.00510329
-0.0022903
0.00292046
0.00447313
-0.00690973
0.00452153
-0.00873407
0.0111223
0.00207962
0.000167411
-0.0152754
-0.00681017
0.00679582
1.4352e-05
0.00744423
-0.00715638
-0.000287856
-0.0112429
-0.000735067
-0.00299362
0.00277374
-0.0147992
0.0172349
-0.00520948
0.00666627
0.011471
-0.0145879
-0.00354935
0.0127347
-0.0138322
0.000371812
0.000725691
0.00678674
0.00176353
-0.00701483
-0.00153543
-0.0107219
-0.000596204
0.0140919
0.00617025
-0.000446089
-0.00752182
0.00179766
0.00695267
-0.00595325
0.00685783
-0.00785725
-0.0121253
0.00227752
0.0165141
-0.0040956
-0.00574587
0.0189725
-0.00913105
-0.00584611
-0.00643966
0.00156384
0.00174307
0.00462358
-0.0122128
-0.00826815
-0.000728496
0.0132858
-0.00428911
0.00128907
0.00203411
0.00738945
-0.0107126
-0.00393745
0.00963838
-0.00570093
0.00312215
-0.0149671
0.00540534
0.00891807
0.00622863
-0.0134036
-0.0126077
0.000151769
0.0157105
-0.0032546
0.00213236
0.0018268
0.00570937
-0.00966853
0.00848046
-0.00854611
6.56473e-05
0.00319142
-0.00120498
0.0107135
-0.0126999
0.0112291
-0.00356001
0.00539928
-0.0130684
0.0206447
-0.00664317
0.0154065
-0.029408
0.00337596
0.00628165
-0.00260928
-0.00704834
-0.00933777
0.0038425
0.00489558
0.000599692
0.00669139
-0.00504101
-0.00013708
-0.0015133
-0.00433883
-0.00550119
0.0160204
-0.00618042
-0.0074967
0.00972989
0.00388274
-0.00611593
0.0112857
-0.000617196
-0.00371588
-0.0175395
0.0115918
-0.00096202
-0.016726
0.0154316
0.00716647
-0.005872
0.0106694
-0.012024
-0.00173467
0.00308926
0.00602192
-0.0108803
-0.00569927
-0.00620759
-0.00569585
0.00321905
0.00868439
-0.00886077
0.00275108
0.00874629
-0.0026366
0.0102415
-0.00974293
-0.00670879
0.00621023
6.45695e-05
-8.91178e-05
-0.00960777
0.00963232
0.000231884
-0.00843493
-0.000320262
0.00852331
-0.00243003
-0.0144044
0.00226254
-0.0083273
0.00749043
-0.00142567
-0.0056665
-0.00238724
-0.000807029
-0.000191526
0.0142257
0.000201432
-0.0339605
0.0238886
0.0172638
-0.00719189
-0.0100369
0.000683054
0.000365045
0.00898884
-0.00199563
0.0318062
-0.0374295
0.00761889
0.00158677
0.00244754
-0.00549232
0.00145801
-0.0214832
0.0115752
0.00149615
0.00841186
-0.000254343
-0.0142649
-0.00202996
0.0165492
-0.00593542
0.021492
-0.0148878
-0.000668774
0.00964821
0.0140258
-0.012964
-0.0107099
-0.0115153
0.0109667
0.0136209
-0.0130723
0.00446431
0.0062382
-0.00777014
-0.00293236
0.00444362
-0.00299663
-0.00711349
-0.0228772
-0.000898405
0.0186891
0.0050865
0.0067161
0.00102763
-0.00390123
0.006902
0.00923945
-0.00853135
-0.00761009
-0.0114217
0.00254411
0.0111422
-0.00226459
0.00135873
0.00358758
0.0125033
-0.0132577
0.0130908
0.00126931
-0.00110241
0.00819646
0.00642901
-0.00579338
-0.000229312
-0.00163005
0.00765273
-0.00876327
-0.00174334
0.00487707
-0.0168925
0.00718318
0.00483223
0.000514357
0.00911578
-0.0101149
0.000484773
-0.0035095
0.000678851
-0.00326313
0.00609378
0.0141047
-0.0100816
0.000420485
-0.00798919
-0.00624932
0.00840672
0.00583179
0.0301978
-0.0323044
0.0105519
-0.00844529
-0.00579816
0.00720457
0.00290216
-0.00430857
-0.0132515
0.0057596
0.0115525
-0.00406058
-0.00574427
0.00833873
0.0107255
-0.01332
0.0161063
-0.0062275
-0.0106613
0.000782567
0.000280085
-0.00391497
0.00952391
-0.00588903
-0.00165547
0.00164167
-0.0125939
0.0115674
0.00375919
-0.0123829
-0.00294364
0.0145314
-0.0119206
-0.00320706
0.00305289
0.0045134
-0.0106788
0.00311248
-0.00597212
-0.0109497
0.00972783
0.00719399
-0.00182273
-0.00473166
-0.0014348
0.00593534
-0.00634123
0.0136651
-0.0132592
0.00143794
-0.0165503
0.0151124
0.00563038
-0.00736454
0.00478705
0.00305908
0.0017634
0.00250826
-0.00733074
-0.000310359
-0.0137865
0.0140969
-0.00752562
0.000999761
-0.00244197
0.00896783
-0.000902608
0.0104416
-0.0095165
-2.25308e-05
-0.00708953
-0.00375242
0.00409362
0.00674833
-0.00264313
-0.00626913
-0.00582194
-0.00855771
0.00713767
0.00724199
0.00031483
-0.0087799
0.0151323
-0.00622199
-0.000805623
-0.00810473
0.0080326
-0.000767356
-0.00585988
-0.00140537
-0.00128293
0.0113125
-0.0141248
0.00409528
0.00729492
0.000280617
0.00355127
-0.0111268
-0.000268179
-0.00599695
0.00289444
0.00337068
-0.00415496
0.00540617
0.0104488
-0.0117
-0.0147086
-0.00380968
-0.00411146
0.0135515
-0.0125797
0.000295942
0.00394248
0.00834123
0.0012108
-0.00445888
-0.00794215
0.0111902
-0.00577035
-0.0112642
0.00284224
0.0141923
-0.00526149
-0.00583509
0.00606919
0.00502739
-0.0136149
0.013105
0.0138299
-0.01332
-0.00184703
-0.00322341
-0.00970594
0.0147764
-0.0132923
0.00134972
0.0135283
-0.00158579
-0.00231142
0.00620078
-0.00388936
-0.00538497
0.00995379
-0.00749327
0.00292444
-0.000232651
0.0178711
-0.00663536
-0.0110031
-0.0063953
-0.00308984
0.0128344
-0.00334924
0.00206348
-0.00541017
0.0122779
-0.00893124
0.000562583
0.00797759
-0.00139762
-3.74021e-05
-0.0130803
0.0130713
4.63974e-05
0.0149234
-0.00264279
-0.0218123
0.00953172
-0.0137819
-0.00135052
0.017208
-0.00207556
-0.00747992
0.0113007
0.000927711
-0.00474849
0.00666288
-0.00658083
-8.20499e-05
-0.00796514
0.000768831
-0.00687293
0.0140692
-0.0114941
0.0158399
-0.00330222
-0.0010436
0.00716357
-0.00300444
-0.00863776
0.00447862
-0.0138433
0.0139668
-0.000123505
0.0114067
-0.0165873
0.00134156
0.00383905
-0.0129234
-0.00353777
0.0221
-0.00563876
0.00953588
-0.0003973
-0.00200351
-0.00713506
-0.00543644
-0.00921825
0.02059
-0.000969084
-0.0136039
0.00823173
0.0214007
-0.0238744
-0.00226613
0.00473988
0.0057335
0.00273336
-0.0063345
-0.00600771
0.00626002
-0.000252315
-0.00244655
0.0136697
-0.000868258
-0.0103549
-0.00297738
0.00353175
0.0118765
-0.0124308
0.00775841
0.0182113
-0.0106545
-0.0153152
0.0133219
-0.0159834
0.00508135
-0.00241983
0.0121063
0.000169293
-0.0122756
0.000224579
0.0117821
-0.0120067
0.0132833
-0.016079
0.0142024
0.00014395
-0.000121373
0.0103409
-0.0103634
0.00026027
0.01884
-0.0187659
-0.000334379
-0.00160947
-0.00475856
-0.00963145
0.0159995
-0.00589206
-0.00353164
0.00118312
0.0111501
-0.0194018
0.00706863
-0.0094071
-0.00246668
0.0100858
0.00178793
-0.0111087
0.0122673
-0.00327719
0.00211856
0.00175054
0.00911882
-0.00310222
-0.00776713
-0.00442092
0.00109785
0.00750153
-0.00417846
-1.20394e-05
0.00339198
-0.00425574
0.000875803
-0.00473514
0.011581
-0.00667596
-0.000169895
0.00346159
-0.0109243
-0.0063806
7.67547e-05
-0.0101867
0.0101099
-0.00378406
-0.00363098
0.00168392
0.00573112
0.0056917
-0.00328355
-0.00240815
0.0142513
-0.0141529
-0.0028874
0.002789
-0.00129414
-0.00842083
0.00776542
0.00194955
-3.52959e-05
4.78014e-05
0.00763967
-0.00765218
0.00381099
-0.00313221
-0.0121256
0.0114468
0.00879821
-0.000224797
-0.00857341
-0.0128582
-0.00832655
0.0124083
0.00877639
0.00753496
0.0118068
-0.0203108
0.00715502
-0.00257513
0.00402881
-0.0086087
-0.0028657
0.00284302
-0.0157709
0.0157935
0.00446683
-0.00879641
-0.00855894
0.0128885
-0.000901137
-0.00202066
0.00952395
-0.00660216
0.00663931
-0.00815991
0.00295691
-0.00143631
0.00363628
-0.00602748
-0.00582598
0.00821718
-0.0117179
0.0131944
-0.00351471
0.00203815
0.0133482
0.0171527
-0.0188944
-0.0116065
-0.0103216
0.0102775
4.41042e-05
-0.00115652
0.0121953
-0.0152323
0.00419348
0.000473197
-0.000773607
-0.0117186
0.012019
0.0115183
0.00048398
-0.0132545
0.00125218
-0.0049191
-0.00831532
0.0104567
0.00277768
-0.0118874
0.0168422
-0.00596333
0.00100855
-0.00489811
-0.00598725
0.0035536
-0.000728485
-0.000123953
-0.00843695
0.00928939
-0.0275625
0.000107611
0.00246846
0.0249865
0.00109014
-0.0070053
-0.00362576
0.00954093
0.0172131
-0.00141488
-0.00557188
-0.0102264
-0.00306384
-0.00662317
0.00128458
0.00840242
0.00483705
-1.89037e-05
-0.00481815
0.00808651
0.00430924
-0.00268231
-0.00971343
0.00626338
-0.00496029
0.0123553
-0.0136584
0.000405624
0.0128532
-0.00424767
-0.0090112
0.00311971
0.00445349
0.00963992
-0.00615526
0.000436908
0.00571835
-0.00799642
0.00113226
0.00212119
0.00134121
-0.0110599
0.00759749
-0.0104666
0.0153151
0.00464068
0.0158195
-0.00335089
-0.0171093
-0.0100506
0.00986893
-0.0156182
0.0157998
-0.00150858
-0.00756502
0.00264619
0.0064274
-0.00834468
0.0157495
0.00467863
-0.00544702
0.00121979
-0.000451398
-0.00516091
-0.0164576
0.0051523
0.0164662
0.0108132
-0.0107914
-9.78867e-05
7.61778e-05
0.0087414
-0.0102068
0.00217547
-0.000710048
0.0022439
0.00877848
-0.0156387
0.0046163
3.76421e-05
0.00753983
-0.00757747
0.0048907
-0.012532
0.00988522
-0.00472719
0.0126927
0.0106914
-0.0186569
0.00360928
-0.00367376
-0.0170855
0.01715
-0.00514958
0.00853194
-0.0171135
0.0137312
-0.0122655
0.00976617
0.0128054
-0.010306
-0.00768645
0.0105307
-0.00680386
0.00395961
-0.00161985
0.00705753
0.0011483
-0.00658598
0.0035788
-0.00521811
0.00538121
-0.0037419
0.00674861
0.00251107
0.00221977
-0.0114794
0.0192169
-0.0130477
-0.000785839
-0.00538336
-9.65778e-06
-0.00931932
0.00932898
0.00583756
-0.00853622
-0.0261738
0.0288724
-0.00117234
-0.0126882
-0.00384665
0.0177072
-0.000771024
-0.00583902
0.00661004
0.00177857
0.00843427
-0.00133277
-0.00888006
-0.00235564
-0.00850252
0.00686174
0.00399642
0.00657423
-0.00550605
-0.00967117
0.0167704
-0.013052
0.0036917
0.00391104
-0.00760274
0.0126582
-0.000307836
-0.00151833
-0.010832
-0.00243151
-0.00413567
0.00656718
0.00452631
0.00300752
0.0253121
-0.0304435
-0.0107535
0.0158849
0.00388778
0.00828296
-0.00633506
-0.00583568
-0.00886457
0.0169615
0.011276
-0.0193729
0.00998651
0.00346641
-0.00133659
-0.0121163
0.0165248
-0.0110187
0.00711034
-0.0126165
-0.00925698
0.00423268
-0.0116039
0.0166282
-0.0150735
0.0270133
-0.0105872
-0.00135255
-0.000400167
-0.00645286
-0.00889503
0.0157481
0.012238
0.00505616
-0.0143604
-0.00293376
0.00654943
-0.0174603
0.0110207
-0.000109832
-0.0154382
-0.000588007
0.0101013
0.00592494
-0.00309986
0.00800991
0.00348431
-0.00839436
-0.00196318
0.00787289
0.00633357
-0.0122433
-0.0160859
0.00827465
-0.000783092
0.00859435
0.00147402
-0.00438487
0.00871408
-0.00580324
0.00682138
-0.00343143
0.0024348
-0.00582475
0.00660593
0.00127067
0.000650386
-0.00852699
-0.00976557
0.0104779
0.00388089
-0.00459325
-0.00231127
0.0123756
0.000250749
-0.0103151
0.00998377
-0.00586138
-0.00387146
-0.000250931
0.00863556
6.65998e-05
-0.00870216
0.00631301
0.00488804
-0.00110847
-0.0100926
0.00294978
0.00778416
0.00665949
-0.0173934
-1.56066e-05
-0.0139896
0.0140052
-0.00730539
0.0282568
-0.0041177
-0.0168337
-0.000132657
0.0105293
-0.0103966
-0.00070382
-0.00758649
0.00136251
0.0069278
-0.0137409
0.0070014
0.00531638
0.00142314
0.00280468
0.00233219
-0.0160658
0.0109289
0.00820415
0.01296
-0.00484361
-0.0163206
0.012359
-0.00423457
-0.0118297
0.00370529
-0.0154489
0.00881012
0.0235502
-0.0169114
-3.97687e-05
0.00591258
-0.00591256
3.97507e-05
-0.00611685
0.0060532
6.36545e-05
-0.0157156
0.000242284
0.00660879
0.00175556
0.00379422
0.0103868
-0.0159366
0.00819877
-0.00975161
0.00628956
-0.00473672
-0.00784119
0.00686741
-0.000260342
0.00123412
-0.00163899
-0.0129122
0.0165286
-0.00197734
-0.00577471
0.00278082
0.00914309
-0.0061492
0.0100169
-0.00386122
0.00147765
-0.00763328
-0.00665593
-0.00116032
0.00779161
2.46325e-05
-0.00114269
-6.10511e-05
0.0108529
-0.00964912
0.00138361
-0.00116369
0.0108762
-0.0110961
-0.00978308
0.0136742
-0.0143288
0.0104377
6.52939e-05
-0.0123305
0.0122652
-0.0043912
0.000384876
0.0110702
-0.00706393
-0.00842931
0.00985452
-0.0134392
0.012014
-0.00863957
0.000655426
0.00262643
-0.00399934
0.0108358
0.000602372
-0.00743884
-0.00289019
0.000402406
-0.00489107
-0.00426507
-0.0138545
0.0139178
0.00420177
-0.00617107
-0.000723248
-0.00155022
0.00844453
-0.0211499
0.00714757
0.00208587
0.0119165
-0.00669307
0.0153349
-0.00762231
-0.00101947
0.00466964
0.00183214
-0.00939197
0.00921446
0.00939607
-0.0186105
0.00123669
0.0202116
-0.00467791
-0.0167704
-0.000256677
-0.000358577
-0.00890998
0.00952523
-0.00970101
0.0159805
-0.0064421
0.000162587
0.00920867
-0.00581514
-0.00834603
0.0049525
0.00229704
-0.000308036
0.00281179
0.0141491
0.00395367
-0.0204696
0.00236685
-0.00980234
-0.0012779
0.00321406
0.00786618
0.00371256
-0.00411944
-0.00558037
0.0170517
-0.0114701
0.00891229
-0.0144939
-0.00188666
0.0110094
-0.0190408
0.00991799
0.0066152
-0.00836027
-0.000847197
0.00259227
-0.00731718
-0.00254702
-0.000247354
0.0101116
-0.00545536
-0.00515878
0.0106141
0.00137079
-0.0146394
0.0129831
0.000285535
0.00561441
-0.00541386
-0.00565591
-0.00915118
0.0116144
-0.00221465
-0.000248576
0.0130995
0.00360262
-0.0141123
-0.00258983
-0.00506452
-0.00740515
-0.00085006
0.0133197
0.00831208
-0.00252904
0.0096386
-0.0154216
-0.00926289
-0.000520192
-0.0110974
0.00593859
0.00142903
-0.0124341
0.0039785
0.00702658
0.00361341
-0.0129394
0.00712651
0.00219949
0.0019336
0.000508126
-0.00970163
0.00725991
0.00148566
0.00635232
-0.000428964
0.0109023
-0.00215425
-0.00831908
-0.00427697
-0.000438377
-0.00399974
0.00871508
-0.00253106
-0.00340924
0.00651857
-0.000578269
-0.0101284
-0.000143357
-0.0171265
0.00614849
0.00901484
0.0243398
-0.000198923
0.00331868
-0.0274596
-0.010648
0.0165447
0.00335439
-0.00925112
-0.00303488
0.00166404
0.010479
-0.00910817
0.00127058
0.00360671
-0.00279031
-0.00208698
-0.0183052
-0.00377671
0.0157993
0.00628263
0.000400302
0.00772367
-0.00154975
0.000236627
0.00389351
-0.0122172
0.00808703
-0.00756313
-2.67986e-05
0.00278891
0.00480102
-0.010357
0.0127993
-0.00204197
0.00584434
-0.00527002
-0.000574319
-0.00863038
0.00124339
-0.00670471
0.0140917
-0.00389677
0.0058639
-0.00451971
0.00255258
-0.00838863
0.00944631
-0.00390372
0.00284604
0.0037822
-0.000621535
-0.00896574
0.00580508
-0.00375139
0.023515
-0.031651
-0.00342132
-0.00238779
0.00233801
0.00347111
0.0111809
-0.0174543
-0.000791849
0.00706526
-0.004725
0.00352599
0.00607644
-0.00487743
-0.00140134
0.00746466
-0.00205839
-0.00400493
-0.00839966
0.00186352
0.0019633
0.00457284
-0.0046757
0.000401803
0.00427389
0.0108033
-0.00514443
-0.00548116
-0.000177677
0.000790473
0.00538522
-0.00817401
0.00199831
-0.00578377
-0.00701141
0.00714949
0.00564569
-0.00299039
0.00771713
-0.00661825
0.00189151
0.00279386
-0.00528901
0.00364539
-0.00115024
0.010122
0.000274683
-0.0103967
0.0087171
-0.0107332
0.00531172
-0.00329564
-0.013682
-0.000400049
0.0140821
0.00563907
-0.00467927
0.00109232
-0.00205212
-0.000444589
0.0097019
-0.0105893
0.00133201
-0.00486812
0.00609446
0.00156752
-0.00539449
0.0115576
0.010679
-0.00920292
0.00912228
8.06377e-05
0.00025207
-0.0145464
0.0142944
0.0196516
0.00237487
-0.00419145
-0.017835
0.00410538
-0.0160129
-0.00198552
0.0138931
0.00312119
0.00368935
0.00207571
-0.00888625
-0.00550775
-0.00551577
7.45896e-05
0.0109489
-0.0026289
0.003612
-0.00649085
-0.0121181
0.00218824
0.0159081
-0.00597825
-0.0237863
0.0174197
0.00766749
-0.00130088
0.0105196
8.88231e-05
-0.0106084
-0.00596936
-0.00803335
0.00519407
0.00880864
-0.00600287
-0.00871693
0.00260169
-0.00864339
0.00469317
0.00543587
0.00350924
-0.00456391
-0.00837648
0.00943115
-0.00591654
3.91872e-06
0.00591262
-0.0137856
0.00560429
0.00569132
0.00248996
0.0034852
-0.00931622
-0.00281237
0.0118449
-0.00375685
-0.000298988
-0.00778908
-0.00794817
0.0131704
0.00781736
-0.0130396
-0.00233407
-0.00489979
0.00180367
0.00543019
-0.00335713
-0.00270019
0.00605732
-0.0058489
-0.0122944
-0.00564299
0.00274482
3.57068e-05
0.00553828
-0.00831881
0.011259
-0.00819968
-0.0118584
0.00879909
-0.0041776
0.00148896
0.00844092
-0.00575228
0.00792821
-0.00558142
-0.000786
-0.00156079
-0.00909119
0.00147589
0.00710122
0.000514076
-0.00563294
0.0129408
-0.0140195
0.00546595
0.000405432
0.00814811
0.0131508
-0.0105063
-0.00827439
0.00562981
-0.0104536
0.00217439
0.0195382
-0.0101639
-0.00670183
0.0109393
0.00592638
-0.00118743
0.0105869
-0.00401621
-0.0053833
0.000601171
-0.00622448
-0.00410594
0.00972925
0.0120527
-0.00795129
-0.000489024
-0.00361238
0.00372104
0.00277993
-0.00912987
-0.00253368
0.00286862
0.00707421
-0.00740915
-0.00210127
0.0109719
-0.0135225
0.0046519
-0.00657542
0.00158602
0.00159182
0.00339758
-0.0144276
0.0146757
-0.00024814
0.00993001
-0.00978755
-0.000142455
0.00399596
-0.0154339
-0.00592619
0.0173641
0.00354032
0.00673404
0.00157055
-0.000169846
0.00589094
-0.0057211
0.00942645
0.00844794
-0.0178744
-0.0104858
0.0064014
0.00452469
-0.000440258
-0.00588884
0.00194062
0.0047876
-0.000839383
-0.0175941
0.0082116
0.00965072
-0.000268198
-0.00570726
-0.00636347
0.00615419
0.00902948
-0.0014222
-0.00581871
-0.00178857
-0.00972729
0.0105066
-0.00641228
0.0017171
-0.0108963
-0.000558189
0.0097374
-1.26e-05
-0.00534375
0.00535635
0.0263065
0.000208453
0.00279942
-0.0293144
-0.000987619
-0.00193378
-0.0142433
0.0171647
0.00456632
-0.00618282
-0.00288134
0.00449784
0.00177143
0.0136083
-0.00549976
-0.00987995
0.0148398
-0.0148483
-3.47642e-05
4.32808e-05
-0.0083253
-0.00751233
0.0117415
0.00409616
0.0048604
0.00372006
-0.00968741
0.00110695
6.78651e-05
0.00900989
-0.00920749
0.000129735
-0.0124015
0.00397201
0.0100507
-0.00162125
0.00953428
0.00576395
-0.00965224
-0.00564599
0.000225221
-0.00848265
0.00431011
-0.00220943
0.0127391
-0.00686551
-0.000893933
-0.00107141
0.00883085
-0.0114429
0.000601004
0.0108419
0.0167616
0.00724261
-0.00543202
-0.0185722
-0.0109471
0.000235875
0.0109364
-0.00100273
-0.00261061
-0.0066661
0.0102794
-0.00131909
-0.00131246
-0.00352525
0.0061568
0.00275851
-0.0139951
0.0105518
0.000684832
0.00868918
-0.00135593
-0.00845472
0.00112148
-0.0107607
0.00225264
0.000873358
0.00763475
-0.00409313
0.00267758
-0.00552767
0.00694322
0.00235602
0.00149202
-0.0138702
0.0100221
0.000484447
-0.00939915
-0.000654365
0.00956907
0.0093253
0.00122065
-0.000158154
-0.0103878
-0.0111278
0.00259269
0.0100699
-0.0079894
-0.0106086
0.018598
0.0154215
-0.00785522
0.00331858
-0.0108849
0.00121174
0.00866544
-0.00531086
-0.0124659
0.00229352
0.0044174
0.005755
0.0153841
-0.0158443
0.000460165
-0.00930098
-0.00315769
0.00651039
0.00594828
-0.012075
-0.00938008
0.00628823
0.0151668
0.0125933
-0.0131525
-0.00160947
0.00216868
-0.00183099
0.00611275
-0.00481793
0.000536162
-0.0157627
0.00513797
0.00362311
0.00700162
-0.0231819
0.0288708
0.00477897
-0.0104679
0.0103448
-0.022436
-0.00114939
0.0132406
-0.00920974
0.0117043
-0.0216918
0.0191972
-0.00967309
0.0213116
0.00211759
-0.0137561
0.000850222
0.010105
-0.00235763
-0.00859763
0.0153631
-0.0115231
-0.000387305
-0.00345266
-0.00270005
-0.00259311
0.00396291
0.00133025
-0.00727951
-0.0151396
0.0129061
0.009513
-0.0103045
0.0137264
0.0119412
0.00836697
-0.00615067
-0.00766556
0.00544927
0.00309857
-0.00400946
-0.00177088
0.00268177
0.00685573
-0.00677968
-0.00903523
0.00895918
-0.00278054
0.00797671
-0.000577059
-0.00461912
-0.0110426
-0.00176057
0.0136534
-0.00833464
-0.00204936
0.010304
8.00108e-05
0.00340301
-0.00760275
0.00419974
0.00271622
-0.00360803
0.0134432
-0.0125514
0.0104909
-0.0147517
0.00213564
0.00212512
0.0066882
-0.0072162
0.000528
-0.0105861
0.000281567
0.00947668
-0.00360938
-0.00914395
0.00327665
0.00297438
0.00241332
0.0105808
-0.0159685
0.00652355
-0.00708216
0.000558601
-8.0963e-05
0.00823719
-0.00931225
0.00115603
-0.0116307
-0.00112134
0.0154682
-0.00502295
-0.000858514
0.00116042
0.00472104
0.000693834
-0.00573445
0.00423005
0.000810564
0.00939214
-0.00898966
-0.00223346
0.00107743
0.0155048
-0.00976533
-0.00681692
-0.00533972
0.011288
-0.00594824
-0.0144453
0.00553171
-0.00338933
0.0123029
0.0113765
-0.0103087
-0.0168305
-0.00552985
-0.0066174
0.0227426
-0.0105953
-0.0162575
0.010352
0.0147586
-0.00885317
-0.000363113
-0.0138678
0.0142309
0.0220057
4.45659e-05
-0.0126795
-0.00937078
0.0127547
-0.00821497
-0.00113412
-0.00340558
-0.00930454
0.00660421
-0.00166832
0.00436865
0.000126605
-0.00954829
0.00942168
-0.00700007
0.00720511
-0.000205034
-0.0050756
-0.00536504
-0.0137481
0.0241887
-0.0129476
0.00282424
-0.00144801
0.0115714
0.0029996
0.00486772
0.0132887
-0.0119914
-0.00991715
0.00861985
-0.00369011
-0.0076065
0.00839236
0.00290424
-0.0076648
-0.00389817
0.011574
-1.10139e-05
0.00250616
-0.00144316
-0.00708997
0.00602697
0.00846069
0.000374836
-0.0108144
0.00197886
0.00260987
-0.00181399
0.00279849
-0.00337624
0.00336367
-0.00278593
0.00691661
0.00677425
-0.00691704
-0.00677382
0.00340118
0.0079418
-0.00821798
-0.003125
0.0072163
0.00312846
-0.00567512
0.00893852
-0.0108386
0.0022749
-0.0118788
0.00830453
0.00447066
-0.000896403
0.0141224
-0.00467634
-0.0147858
-0.00376457
0.0100781
0.00506294
0.00982798
-0.00478763
-0.00827786
-0.00225511
-0.00134581
-0.0132096
0.0123629
0.00116081
-0.00031411
-0.00082156
0.0165125
-0.00171087
-0.01398
-0.0107551
0.0021904
0.00480014
-0.00173027
-0.0109254
0.00307011
0.00958558
0.00986658
0.00136768
-2.34486e-05
-0.0112108
-0.0147325
-0.000124501
0.000101706
0.0147553
-0.00379008
0.00414965
-0.00674147
0.00638189
-0.0101476
0.0128345
-0.00132586
-0.00136106
0.0133336
-0.0124514
-0.0110298
-0.00986712
0.00889608
-0.00282499
0.00379603
0.00797059
-0.000359124
-0.00250707
-0.00510439
-0.0149184
0.0143869
0.00704988
-0.0065184
0.00707047
0.00269297
-0.000897857
-0.00886558
0.0025551
0.00647443
-0.00809829
-0.000931233
-0.00479233
0.00482056
-2.8228e-05
-0.0028047
-0.00716147
0.00718563
0.0107962
-0.0107033
-9.2889e-05
-0.00610081
-0.00485756
0.00477556
-0.000638456
-0.00731047
-0.000797988
0.00874691
-0.000827729
-0.0063726
0.00569658
0.00150375
0.0100403
-0.011412
0.00137178
-0.0128047
0.0131484
0.0120275
-0.0123711
-0.00863036
0.00666617
-0.00454115
0.00650533
-0.00344884
0.00147391
0.00312263
-0.0011477
-0.000365165
0.0155832
-0.000134638
-0.0150834
-0.00787218
0.00381651
0.00387654
0.00450358
0.0057315
-0.01
-0.000235047
0.000433265
-0.0124208
-0.000488
-0.0112651
0.0112616
3.49312e-06
-0.00755883
0.00380551
-0.00832167
0.00256377
-0.00567344
0.000228328
0.00493884
0.00214455
0.00745713
0.000145362
-0.00637688
-0.0012256
0.00624285
-0.0155763
0.0124884
-0.00315492
0.00258281
-0.00351932
0.0130898
-0.0121533
0.0160393
0.0047331
-0.00246619
-0.0183062
-0.00408416
-0.00669409
-0.00217027
0.0129485
0.00485532
0.0202355
-0.0182722
-0.00681869
0.00233192
0.0146575
-0.0141495
-0.00283987
-0.00504756
0.000666092
0.0103454
-0.00596391
-0.00177156
0.0143954
-0.00776853
0.0104103
-0.0082192
-0.00320805
0.00101695
0.0034098
0.00892443
-0.0123342
0.00835029
0.00185272
-0.00111263
-0.00909038
-0.00767788
0.00613573
0.000617395
0.000924758
-0.000747902
-0.0108584
0.000632978
0.0109733
-0.00797402
-0.00101266
-0.000334658
0.00932134
0.00459236
-0.0101832
0.000101195
0.00400302
0.00607899
9.28464e-05
0.00661069
-0.00670353
0.000818486
0.0116046
-0.0296518
0.0172287
0.00327222
-0.00824527
0.00783371
-0.00286065
0.00469641
0.00536119
-0.00371328
-0.00634432
4.8355e-05
-0.00593371
0.00588536
-0.00321456
-0.00228101
0.0130193
-0.00752373
-0.00397382
0.0132725
-0.0114566
0.00215796
0.0145314
-0.0100965
-0.00975145
0.00531659
-0.00597184
0.00404461
0.00185118
7.60541e-05
-0.000804628
0.0045785
-0.0024577
-0.00131617
0.0156158
-0.012206
0.00726158
-0.000839287
-0.0118866
0.00546428
-0.00331559
0.00310024
0.00371448
-0.00349913
0.000188915
0.0149331
-9.38034e-05
-0.0150282
-0.0108966
-0.00358918
0.0147714
-0.000285656
-0.00309617
-0.00132189
0.00339724
0.00440522
-0.00648056
0.00881685
0.0062109
-0.0131829
-0.00184483
-0.00271394
-0.00176905
-0.0117966
0.0162796
0.015537
-0.0122869
-0.0216545
0.0184045
-0.00604418
-4.52105e-05
0.00608939
-0.00732894