/*--------------------------------*- C++ -*----------------------------------*\
  =========                 |
  \\      /  F ield         | OpenFOAM: The Open Source CFD Toolbox
   \\    /   O peration     | Website:  https://openfoam.org
    \\  /    A nd           | Version:  10
     \\/     M anipulation  |
\*---------------------------------------------------------------------------*/
FoamFile
{
    format      ascii;
    class       volScalarField;
    location    "7";
    object      T;
}
// * * * * * * * * * * * * * * * * * * * * * * * * * * * * * * * * * * * * * //

dimensions      [0 0 0 1 0 0 0];

internalField   nonuniform List<scalar> 
111485
(
303.15
285.12
300.995
303.15
298.444
283.15
298.951
293.402
296.363
286.266
300.538
296.217
300.234
284.581
299.999
286.775
299.305
298.133
294.083
303.15
303.15
283.15
297.272
288.715
301.546
303.15
293.217
300.622
288.892
303.15
300.74
294.319
303.15
283.15
283.453
283.15
302.288
297.627
283.149
296.618
283.15
289.625
297.035
302.885
303.191
303.15
287.403
288.574
289.666
303.15
303.15
283.15
303.15
298.949
303.15
293.536
287.915
283.15
283.323
295.469
295.87
303.15
302.066
300.291
283.15
284.566
300.36
291.55
302.118
302.534
303.163
301.908
303.15
302.116
303.15
295.369
283.15
293.491
283.15
283.15
283.24
293.408
283.15
303.15
300.334
284.221
283.15
301.56
303.12
299.112
283.347
289.609
300.881
300.378
289.81
303.15
303.15
301.56
303.149
283.418
303.15
286.679
283.15
285.188
285.758
283.15
283.15
293.067
301.463
283.146
298.923
288.089
301.305
301.709
303.15
301.988
303.15
283.15
300.146
303.15
303.15
283.15
283.15
283.15
283.402
303.151
283.15
301.823
303.15
283.177
303.085
301.952
303.15
283.15
283.15
292.532
283.15
294.245
298.806
301.104
303.137
296.833
298.985
284.782
302.283
297.824
283.15
303.15
283.15
297.157
284.942
303.15
303.144
287.348
283.156
293.745
295.654
302.526
283.154
303.15
303.15
292.209
286.26
283.153
283.157
301.197
283.69
283.15
283.152
283.152
283.15
303.15
283.207
283.15
291.543
287.194
283.15
303.15
303.15
283.15
303.15
303.15
297.663
293.528
295.813
289.794
301.389
300.44
283.19
303.15
301.459
303.15
303.15
300.175
286.293
301.418
301.328
295.777
303.15
300.888
284.606
283.16
300.79
297.062
303.15
300.432
288.234
303.15
283.227
300.187
284.818
300.702
303.15
303.15
300.716
283.15
292.804
283.15
300.62
298.734
290.39
303.15
301.759
300.539
283.15
283.15
283.15
289.52
283.157
283.15
303.15
298.67
291.406
289.938
283.15
303.15
303.108
303.15
284.339
300.1
299.279
299.528
299.397
283.15
283.144
298.873
283.15
283.15
288.767
288.387
283.15
301.193
298.893
303.15
283.15
301.017
303.15
303.15
303.121
303.15
288.281
285.872
290.815
303.15
298.353
303.15
303.15
303.15
283.148
298.106
300.987
299.434
291.21
299.492
296.247
283.211
290.366
291.613
283.15
303.15
283.149
292.454
298.742
286.474
303.15
298.002
297.269
298.904
302.962
283.166
297.116
299.373
302.001
283.15
283.612
283.15
283.149
303.15
283.901
290.273
286.326
303.15
283.15
297.601
285.263
303.15
303.15
303.15
284.599
290.269
301.073
284.412
293.036
283.15
283.15
303.15
298.362
303.15
283.827
289.539
283.152
283.15
303.15
303.15
283.15
294.365
289.974
283.15
295.731
283.15
303.15
301.084
297.312
293.98
295.838
283.15
283.15
283.15
296.626
291.039
302.367
283.15
283.15
283.15
290.096
296.955
283.214
290.498
283.15
292.807
299.57
284.205
298.703
285.268
283.15
303.15
283.15
303.15
290.679
296.633
287.969
291.971
283.15
286.367
283.15
303.15
293.828
303.15
301.791
303.15
283.15
291.98
283.15
288.808
284.633
283.15
283.989
298.043
283.15
300.159
284.681
298.856
303.025
291.083
286.012
283.15
303.15
303.144
283.15
300.994
300.864
283.15
283.15
294.696
284.373
298.208
296.815
283.15
295.154
296.125
283.15
302.057
283.901
303.15
303.15
288.277
298.605
283.15
303.15
303.15
303.15
300.736
283.15
303.15
293.947
283.171
286.971
299.979
283.15
283.15
302.616
283.15
302.465
301.448
297.877
288.954
283.15
293.939
303.381
303.15
298.656
292.314
303.15
283.15
283.307
283.15
290.056
286.118
291.678
283.15
292.897
296.585
293.09
303.147
283.15
303.15
303.15
283.169
292.756
283.15
284.326
303.133
283.15
303.15
303.15
303.15
301.819
290.547
286.01
284.197
284.322
283.15
285.713
303.15
300.747
283.15
303.15
303.15
300.681
303.15
303.15
283.151
303.15
283.15
300.684
283.15
283.15
283.15
303.15
283.15
303.15
283.15
283.669
283.15
303.126
301.848
283.748
283.15
303.085
283.15
303.15
284.717
284.678
286.132
297.546
283.15
297.505
297.617
292.324
286.836
285.276
303.15
291.787
283.15
299.875
283.15
296.807
283.15
292.113
298.593
303.151
283.15
286.816
303.15
295.523
299.099
283.15
283.15
283.15
283.15
303.15
293.697
283.15
283.15
283.239
283.15
299.827
283.15
284.807
303.15
283.436
303.121
284.65
291.935
283.15
301.466
283.15
283.15
285.705
283.15
283.256
283.15
299.681
303.15
290.692
303.15
283.15
302.386
284.475
300.096
285.667
300.095
289.477
283.15
300.637
284.556
283.15
283.14
300.355
301.597
283.15
282.439
301.073
303.064
283.118
303.15
287.582
302.177
284.411
285.402
288.227
282.541
283.15
303.15
300.642
303.15
283.551
283.15
283.15
291.798
282.672
303.15
303.118
283.15
286.292
299.595
283.15
283.15
299.608
303.15
283.15
283.15
283.15
286.172
283.15
303.15
284.833
284.232
303.15
299.7
283.15
289.253
303.15
283.15
286.169
283.15
283.15
283.15
285.39
283.15
285.458
291.993
303.15
300.372
283.45
298.724
300.946
283.324
283.46
283.15
288.989
298.455
303.15
302.261
296.059
296.889
284.725
297.452
297.201
303.15
300.252
303.136
283.15
297.158
284.84
283.15
292.402
295.74
284.86
298.779
300.634
292.361
283.15
298.915
283.471
303.15
300.595
301.972
294.113
283.15
286.514
303.15
283.15
283.15
283.15
283.303
283.15
303.15
303.15
283.15
300.416
299.261
303.15
285.635
303.15
303.15
303.15
290.032
283.421
283.15
303.15
283.15
283.15
286.832
292.409
283.15
295.157
283.136
283.15
295.332
302.226
287.801
283.15
283.15
300.259
292.114
283.15
283.15
283.15
294.007
303.15
303.15
283.15
296.257
302.383
283.15
282.415
301.81
286.551
283.15
283.15
287.462
302.969
283.15
283.16
287.322
283.76
288.808
283.15
285.705
300.315
283.15
303.15
283.15
283.15
283.15
283.15
295.687
303.15
283.15
283.15
295.304
291.839
303.15
303.15
289.875
298.441
298.339
303.15
283.15
298.014
303.15
283.835
298.841
298.364
303.15
303.15
303.15
283.15
286.069
283.15
283.15
302.705
303.15
297.835
302.281
283.15
294.076
283.255
296.457
291.978
283.421
289.806
283.15
283.15
296.904
288.077
290.84
283.15
283.15
297.913
295
283.15
283.912
284.599
283.479
303.15
303.15
303.15
290.745
283.15
300.068
283.15
284.379
297.6
298.53
292.288
283.15
283.15
303.15
295.396
283.15
283.15
303.099
283.15
283.15
303.15
283.15
299.339
283.15
283.15
283.15
283.15
283.15
303.15
283.15
283.172
298.77
303.15
302.534
283.131
283.401
283.095
285.533
283.15
284.458
290.539
283.401
303.15
283.149
299.753
283.15
300.265
283.148
283.143
286.214
297.512
283.208
291.873
297.977
283.15
283.15
299.078
299.814
283.15
297.374
291.28
297.542
283.15
283.244
283.15
297.856
296.976
283.15
300.082
297.624
283.149
299.787
283.15
295.655
283.144
303.123
283.162
283.16
283.15
283.15
284.433
283.15
302.971
283.592
283.064
303.148
303.149
303.147
283.15
283.15
293.821
303.15
303.173
283.875
283.15
283.15
303.154
303.149
283.15
303.165
283.15
283.15
303.15
303.15
303.15
303.15
283.365
283.15
283.15
283.15
303.157
283.307
283.893
293.474
283.15
283.15
283.337
283.15
283.15
283.15
287.252
293.622
283.15
283.15
283.15
283.15
283.15
283.15
284.014
283.15
303.15
291.589
283.15
303.15
303.15
303.153
303.15
303.15
283.15
303.17
283.15
283.701
283.144
303.152
283.15
303.063
284.407
292.107
303.15
303.128
284.457
303.15
283.15
303.15
283.15
294.064
293.496
284.652
303.148
283.15
293.272
283.15
283.15
303.15
283.15
294.865
283.15
303.15
283.163
298.164
303.15
284.388
283.15
283.582
283.15
283.15
283.15
303.15
285.869
283.473
284.295
283.15
283.15
285.655
283.15
283.15
303.15
284.338
303.164
298.574
303.15
303.128
303.128
283.15
303.131
283.15
283.445
289.173
301.006
283.809
283.167
283.15
283.15
283.15
303.183
283.15
302.907
303.15
292.805
303.15
288.735
283.829
303.15
283.15
303.15
283.15
301.805
303.15
303.15
286.431
300.576
283.15
283.15
283.15
283.15
283.15
283.15
300.831
283.582
303.15
303.15
303.157
303.15
300.211
284.427
283.15
302.121
303.15
301.64
283.15
302.576
283.15
283.148
303.152
283.314
302.122
300.249
283.147
283.15
289.367
303.15
293.409
303.15
283.15
303.15
283.15
283.15
283.15
300.826
302.062
303.15
303.15
303.15
302.904
283.15
303.15
292.919
283.083
303.15
297.516
298.298
296.509
283.377
283.15
283.15
283.15
283.15
294.648
283.15
294.906
283.15
303.059
289.855
283.15
302.862
283.15
283.15
302.744
283.148
302.921
283.15
303.15
283.15
302.399
283.15
303.15
283.15
283.148
283.15
283.171
283.15
283.15
303.15
292.99
301.095
296.145
297.046
303.15
303.116
283.15
283.15
285.712
283.15
283.158
302.848
298.778
302.946
303.15
283.362
283.15
303.15
283.15
302.995
283.322
298.29
283.15
303.15
288.111
303.15
283.15
283.125
295.121
283.147
283.15
283.15
283.149
303.15
283.15
303.142
303.15
303.15
289.965
302.99
302.997
289.037
293.286
283.15
283.15
303.091
289.107
283.15
303.15
284.74
283.15
303.15
283.15
283.15
283.15
297.54
283.15
302.943
283.15
300.525
283.15
283.15
283.15
283.15
283.15
283.15
285.03
283.15
283.15
283.15
283.15
283.15
283.15
292.029
283.15
298.356
302.939
283.15
302.325
283.15
302.523
303.145
292.303
288.801
303.15
292.168
284.795
303.11
303.15
303.139
295.052
288.688
283.15
287.909
283.15
283.15
283.15
283.15
287.538
283.15
283.15
291.653
303.136
285.326
283.15
283.15
302.521
283.15
283.185
303.15
299.892
283.15
283.15
302.824
283.15
303.178
303.15
283.15
289.081
297.964
292.714
285.681
292.593
294.147
283.15
283.15
302.297
290.604
292.802
284.419
283.15
294.37
283.15
303.15
300.755
298.734
283.15
297.413
283.15
292.774
297.238
303.15
283.15
283.15
301.79
283.15
283.15
300.524
296.137
283.196
291.235
283.15
283.15
302.802
300.543
283.15
300.661
283.15
300.517
283.15
283.15
300.821
283.15
283.228
301.61
283.15
283.15
302.439
283.15
287.931
303.15
290.449
303.15
303.15
303.15
300.967
283.15
283.15
299.561
283.15
302.993
283.15
283.15
303.15
283.151
288.22
283.15
283.15
288.082
288.262
283.15
283.682
283.15
303.15
302.425
283.731
301.584
283.15
283.15
283.15
283.15
283.15
283.15
283.15
283.15
283.15
283.15
283.15
303.15
283.15
283.15
283.15
283.15
283.15
283.15
283.15
283.15
303.15
286.971
283.15
283.15
283.15
294.734
283.15
303.15
302.922
283.15
283.15
294.742
283.15
283.15
301.852
295.218
283.15
303.64
303.592
283.15
301.52
293.989
297.575
301.486
298.155
303.15
283.15
296.367
291.796
301.43
283.15
302.156
302.418
300.887
288.056
287.329
301.072
301.782
301.795
303.15
285.882
297.562
285.548
297.266
283.15
283.15
283.15
303.15
283.15
292.013
297.929
283.15
283.15
283.15
283.15
283.15
303.15
283.15
303.15
292.138
303.119
299.038
302.842
283.15
283.15
285.421
283.167
283.15
283.15
301.698
303.15
283.15
298.168
299.524
297.538
298.673
300.817
303.15
291.051
302.591
303.15
303.15
300.344
303.15
283.15
282.971
295.587
302.951
283.15
303.15
289.632
286.176
297.133
292.212
302.417
303.15
303.137
303.15
303.15
283.15
298.941
283.15
291.826
290.48
299.711
284.776
303.15
301.936
303.15
283.15
303.15
303.15
291.515
299.631
283.15
303.15
303.134
291.805
303.033
299.365
292.844
288.339
292.943
283.15
303.15
283.15
291.28
298.326
303.151
303.15
303.15
303.15
297.504
302.559
283.15
299.985
301.15
284.876
299.534
303.15
303.15
298.706
292.993
283.15
302.906
299.758
302.609
291.997
297.329
298.275
303.15
286.998
298.165
291.378
283.15
289.093
303.15
288.411
301.078
303.15
288.727
301.297
300.144
293.201
283.149
283.158
283.239
301.679
300.94
303.15
288.83
301.498
303.15
283.15
303.15
303.21
298.782
290.886
296.789
303.252
283.149
297.58
303.15
303.15
292.823
303.15
300.311
283.306
301.335
291.537
303.15
283.666
293.246
303.15
283.047
298.703
303.15
300.712
286.27
303.15
303.15
284.001
303.15
283.15
283.15
285.924
299.285
291.216
303.15
285.239
297.515
283.15
298.867
298.902
288.988
303.101
283.15
301.504
299.618
298.867
300.104
288.671
290.817
302.484
303.15
301.568
288.734
303.15
298.878
283.15
283.15
303.15
283.15
303.15
297.461
283.15
300.543
283.638
303.15
283.799
283.15
289.86
303.15
303.145
303.15
294.184
302.996
303.119
299.897
290.424
289.461
290.599
298.464
303.15
299.429
292.197
298.966
303.15
283.878
283.456
299.287
287.19
283.515
303.15
283.15
303.15
285.346
303.15
303.32
284.698
303.342
302.957
303.15
303.15
283.15
300.571
300.633
285.513
303.088
287.013
295.7
301.88
292.531
288.188
302.084
296.126
283.15
283.15
303.15
285.829
289.719
283.15
283.15
303.15
301.992
288.712
303.15
296.414
303.15
283.156
285.206
301.092
303.15
303.15
292.31
303.15
283.303
290.629
283.15
297.169
294.656
296.085
303.15
302.717
283.15
302.669
293.454
303.15
303.15
288.805
283.15
303.15
301.816
284.452
303.15
303.15
283.15
302.355
303.458
289.525
299.722
298.04
303.15
303.159
302.611
303.15
283.15
303.15
303.15
303.15
303.15
303.15
303.15
303.15
283.15
303.15
303.15
283.343
303.15
303.332
303.15
303.16
303.15
303.15
300.958
303.68
303.15
292.061
303.15
303.15
283.15
302.564
303.15
302.138
303.115
283.291
283.15
303.15
302.927
283.149
303.15
303.15
291.402
283.15
292.624
283.15
283.15
283.153
291.25
284.851
303.15
296.674
283.15
303.723
303.134
284.324
302.599
283.15
292.201
303.084
301.691
283.15
303.15
283.15
304.074
284.832
296.886
303.15
303.15
303.15
303.15
303.15
303.15
302.355
302.811
297.642
292.069
303.15
287.164
292.675
284.99
303.206
283.15
286.932
302.756
284.785
283.148
287.493
303.15
283.385
302.921
292.566
302.848
301.917
303.15
302.23
303.15
303.15
297.958
303.15
284.484
303.15
303.15
283.15
303.15
303.15
302.848
303.15
283.299
283.15
283.15
285.833
284.915
300.906
286.117
303.15
294.797
303.15
290.482
303.15
287.173
300.702
301.498
293.384
303.15
303.15
303.15
289.818
283.15
303.15
289.572
283.15
283.15
301.836
303.15
286.204
283.148
283.15
303.15
303.15
300.664
298.217
303.15
293.468
303.039
283.15
298.578
303.15
286.425
288.253
302.151
303.15
296.317
296.744
302.955
301.893
301.668
303.15
303.15
303.147
303.15
283.15
303.15
289.575
300.066
294.354
302.142
283.15
300.383
291.432
298.247
283.608
298.354
289.638
302.173
283.15
283.15
283.15
302.219
283.15
290.504
283.15
301.281
303.161
289.729
298.056
283.15
303.15
301.269
301.247
303.15
283.15
303.15
286.439
301.458
302.98
302.346
298.027
288.454
303.15
303.15
303.15
294.28
285.988
289.836
295.913
283.965
302.958
303.15
303.15
283.15
283.15
285.434
299.606
303.15
303.15
283.15
303.15
303.15
303.15
300.28
303.15
285.378
292.588
283.15
283.249
293.398
285.707
303.15
303.15
301.9
303.15
299.257
283.146
297.592
303.15
303.15
283.15
303.15
303.15
303.15
305.257
303.15
301.852
301.121
303.15
303.15
301.633
303.15
283.15
287.267
303.107
303.15
303.15
303.15
297.962
303.15
303.15
302.495
302.496
301.791
303.15
283.15
303.15
302.055
302.516
301.54
302.54
283.15
300.675
287.531
297.467
283.15
303.15
303.15
303.15
303.15
294.402
287.584
299.655
303.15
303.15
303.15
303.15
283.15
303.148
284.789
285.16
283.15
303.15
303.15
283.148
299.615
294.997
283.15
303.15
303.15
303.15
303.15
289.625
289.704
303.15
303.15
302.4
303.15
301.447
283.957
291.901
303.15
283.15
301.167
303.124
303.15
303.123
301.339
286.856
303.15
303.15
303.15
303.15
293.307
284.159
303.15
302.702
298.1
289.541
303.15
303.15
303.15
303.15
299.562
303.151
303.15
303.15
298.293
302.588
288.383
303.15
303.15
297.784
303.15
303.15
303.15
303.15
288.834
303.15
283.15
283.15
295.975
291.129
303.15
303.15
303.15
297.019
303.146
303.15
303.15
303.15
303.15
303.416
300.898
303.15
287.361
302.65
299.415
303.15
303.15
303.15
303.15
283.15
285.681
303.15
302.842
283.15
302.188
303.15
303.135
303.15
283.15
301.927
285.773
283.15
302.831
303.15
302.427
283.15
303.15
303.15
303.151
303.15
283.272
303.15
290.872
283.15
283.15
303.15
303.15
298.862
302.388
283.15
302.43
283.15
284.107
288.026
302.709
283.15
303.155
302.99
303.134
284.407
283.156
302.985
283.15
283.15
283.156
302.091
302.301
303.15
283.15
283.15
295.477
303.15
283.15
303.15
303.15
303.15
303.108
303.048
302.933
302.457
303.15
302.909
303.15
284.834
303.15
303.15
283.15
303.15
303.111
303.15
283.15
303.15
288.336
303.15
303.15
303.17
283.15
302.908
302.152
296.815
303.15
289.465
294.74
283.841
290.094
283.15
283.15
287.23
284.332
283.15
303.794
283.15
286.43
303.15
283.15
303.156
303.15
303.15
303.015
303.155
303.15
283.15
303.139
303.15
283.15
283.105
298.772
302.708
303.15
301.859
303.15
285.719
303.152
301.201
303.15
303.15
301.065
303.15
303.15
303.15
287.713
303.15
285.159
303.15
303.147
303.15
283.15
283.15
303.15
303.15
303.15
288.737
302.557
303.15
303.15
288.626
286.528
291.288
303.15
302.707
287.694
287.556
303.15
303.15
287.744
283.15
291.943
303.15
303.152
303.149
303.15
300.548
283.15
302.309
283.15
303.15
303.15
303.15
303.15
303.15
284.342
302.257
291.087
303.15
303.15
290.618
303.15
303.15
303.15
303.15
303.15
300.178
303.15
303.15
283.15
299.486
303.15
283.15
303.15
301.389
283.15
299.987
290.816
302.69
300.049
299.469
303.15
303.15
303.15
300.854
288.516
283.15
303.15
300.343
303.15
303.15
292.016
303.15
287.507
303.15
297.862
284.329
303.15
283.15
303.15
303.15
303.15
285.27
303.15
300.512
303.15
303.15
299.731
283.15
284.764
303.15
303.15
288.144
301.538
296.454
303.15
303.15
303.15
301.555
292.29
303.15
283.15
303.15
300.693
303.15
284.787
296.336
303.15
303.15
301.158
303.15
303.15
283.15
303.15
283.15
294.608
303.15
283.15
303.15
303.15
303.15
303.15
303.15
303.15
283.15
301.504
283.15
302.09
303.15
303.15
296.107
300.501
303.15
283.15
303.15
300.904
283.15
303.15
303.15
303.15
300.743
303.15
297.704
303.15
285.852
283.15
286.748
303.15
303.15
298.52
283.15
303.15
287.885
283.246
303.15
303.15
285.094
283.855
300.873
301.747
301.205
293.17
301.752
283.853
303.15
297.747
283.15
283.15
303.15
303.15
303.15
301.227
303.15
303.15
303.15
303.13
283.169
283.15
283.561
303.15
302.025
283.15
303.142
296.14
283.15
294.611
303.15
303.15
283.15
299.914
283.933
303.15
283.15
299.94
303.15
297.68
303.15
295.322
303.15
283.15
303.15
283.15
299.438
283.15
283.228
283.15
286.216
303.15
303.15
283.15
283.15
303.15
303.15
303.15
303.15
284.888
284.765
283.15
303.15
283.233
283.15
283.15
303.154
289.901
283.54
283.15
301.515
284.886
300.471
288.206
303.15
303.15
303.15
303.15
283.15
283.15
283.15
303.15
283.15
283.15
303.15
283.15
297.28
283.15
303.15
283.15
303.15
303.15
283.349
283.15
303.15
301.957
303.149
303.15
303.15
303.15
288.74
283.15
303.15
303.149
283.15
303.15
303.15
303.15
295.248
283.15
283.182
303.15
303.15
303.15
303.15
303.15
303.149
303.147
284.11
303.15
283.15
303.15
303.149
303.15
303.148
303.149
283.15
283.15
283.15
303.15
303.15
283.15
303.149
283.15
287.719
283.15
301.826
283.15
303.154
303.15
284.616
283.15
284.458
297.409
303.15
284.7
303.173
303.15
297.417
283.15
303.15
303.15
303.15
303.15
283.15
303.15
303.15
299.182
283.15
303.15
303.15
303.15
303.15
292.334
290.492
303.17
283.165
303.15
301.824
302.323
303.15
283.15
283.15
303.15
303.15
303.15
283.15
283.15
283.825
303.15
303.15
303.196
303.151
283.15
288.887
303.15
283.15
303.15
288.095
303.15
283.15
302.126
283.15
283.15
283.15
303.15
299.697
303.15
303.15
303.15
283.15
284.511
293.615
295.249
289.579
303.121
303.02
283.15
283.15
301.04
283.696
283.15
303.149
303.15
303.15
283.15
294.569
303.15
283.15
302.981
303.15
303.15
283.798
303.15
303.15
288.428
289.583
303.15
283.15
303.15
283.15
303.15
303.15
303.15
303.15
283.951
303.15
303.15
303.15
302.931
303.15
303.15
283.15
283.15
283.15
283.15
302.944
283.15
283.15
300.98
303.15
284.777
284.938
303.15
301.139
303.15
283.15
303.15
283.15
283.15
303.15
303.15
303.15
302.668
303.15
303.15
303.15
283.15
303.15
283.15
286.385
303.15
303.15
291.647
303.15
283.15
283.15
302.425
303.15
303.148
283.15
303.194
286.68
283.15
283.15
299.225
283.15
283.15
303.049
303.161
293.343
303.166
303.151
303.152
283.15
283.15
302.649
283.457
285.854
300.859
283.158
283.15
291.058
301.578
301.476
283.15
300.231
290.704
300.147
302.213
302.754
284.696
295.515
299.233
286.266
293.341
300.12
303.15
297.953
297.599
302.791
283.664
292.392
301.157
287.343
303.15
301.069
303.15
300.724
301.507
283.637
284.991
303.15
283.15
302.281
301.698
283.145
303.173
288.562
302.681
301.858
300.84
303.15
303.23
301.144
295.114
300.427
289.003
302.915
301.633
302.189
302.281
284.221
302.507
301.605
283.18
303.15
302.897
303.15
303.15
302.104
302.011
294.309
303.15
284.68
292.335
292.346
300.967
303.15
284.021
285.203
284.396
303.15
298.803
303.15
296.374
295.402
300.767
303.142
303.15
303.15
301.954
301.274
302.787
303.15
292.631
302.748
289.993
283.15
298.35
294.015
303.15
300.509
283.15
283.204
283.15
302.58
303.099
303.15
302.982
298.414
283.148
300.511
302.228
295.337
283.539
295.882
297.096
283.465
303.133
284.748
296.319
283.32
296.903
300.519
300.267
300.376
302.008
289.889
301.588
303.15
302.722
302.653
302.654
296.494
302.886
283.15
302.023
293.438
303.15
283.436
286.847
301.206
302.602
290.541
284.831
287.723
302.627
296.404
303.15
303.15
295.035
283.15
292.704
283.433
303.15
290.575
290.322
283.917
303.15
297.303
298.49
284.234
301.254
294.182
290.186
300.542
303.108
303.15
303.15
283.538
302.617
283.351
285.811
303.15
303.019
303.038
303.15
285.426
300.794
297.877
283.247
299.586
302.378
300.526
286.926
283.15
303.107
301.827
283.743
283.139
303.15
303.074
303.15
303.15
284.187
302.535
296.372
283.035
283.153
303.15
283.15
302.952
303.045
302.509
301.423
303.15
283.15
283.15
301.83
301.886
283.216
295.872
303.15
303.15
301.63
285.51
283.26
301.692
301.791
301.738
284.413
303.15
283.15
298.465
297.777
303.15
302.707
302.09
284.75
284.984
302.121
303.054
303.15
298.161
284.439
283.15
303.15
300.583
301.233
302.026
289.644
302.082
285.675
300.166
300.27
290.356
297.566
303.15
303.15
300.952
284.474
302.101
283.151
300.524
301.72
283.627
288.313
302.427
283.15
283.15
283.029
303.15
303.15
299.959
298.95
302.293
283.147
283.15
283.943
283.151
283.15
283.152
303.077
300.946
299.2
295.921
283.37
303.099
300.16
303.15
283.15
302.565
289.246
300.8
292.709
283.507
303.061
283.148
283.15
302.839
301.224
302.619
283.156
291.329
284.885
303.15
284.268
301.05
283.15
283.311
284.954
284.214
283.15
283.15
301.649
283.15
289.413
302.535
302.709
301.784
283.484
298.428
290.121
283.15
303.335
292.118
283.15
283.15
283.15
303.15
301.205
302.422
299.186
301.481
299.924
288.888
283.155
291.004
290.172
303.06
291.129
300.011
292.084
283.15
286.304
301.098
301.551
283.15
283.986
299.66
283.15
303.15
283.188
301.293
303.15
284.024
302.262
303.021
303.15
283.15
292.822
303.153
301.705
283.15
283.15
283.15
302.204
297.611
303.143
302.201
303.166
303.15
288.416
303.166
290.458
300.248
300.209
296.624
283.157
301.714
283.15
290.611
301.429
289.499
290.503
299.009
300.717
301.613
287.192
291.155
285.04
283.173
302.225
286.145
283.149
283.144
300.229
283.078
300.323
287.03
296.064
299.465
289.245
299.307
283.121
299.135
283.15
290.029
289.202
298.682
283.332
283.15
300.59
283.15
302.803
283.15
303.15
286.5
286.502
283.15
299.024
298.564
287.072
303.15
303.15
301.744
289.801
303.005
283.732
301.592
287.124
303.147
284.203
288.232
303.15
301.441
283.15
283.15
287.581
287.059
283.145
285.268
301.513
286.266
301.18
303.15
285.14
301.761
291.216
303.15
303.15
301.633
302.056
303.15
293.059
294.296
283.686
296.433
286.821
290.053
303.15
302.803
297.046
285.039
283.15
287.742
291.935
299.674
283.164
283.755
282.938
301.961
303.119
283.151
303.134
303.15
300.58
293.104
298.847
293.886
283.15
291.954
296.036
285.613
283.211
291.784
283.15
300.264
303.164
292.591
284.105
303.144
291.875
298.644
288.273
300.355
291.341
287.357
283.15
303.142
285.359
289.938
293.519
283.15
283.15
283.15
303.141
283.15
283.136
286.453
303.15
283.15
303.166
283.172
291.118
289.09
303.5
302.915
289.902
303.15
297.014
303.175
302.013
287.297
283.15
292.96
303.145
303.095
286.216
283.15
283.15
283.477
286.049
303.055
303.144
287.53
289.499
283.486
283.162
289.876
293.228
303.15
283.15
303.097
303.15
302.339
285.027
302.34
303.094
284.067
283.778
284.046
302.854
302.189
297.4
293.999
303.072
291.314
291.045
303.15
303.098
302.59
285.455
283.381
303.15
285.959
283.387
302.934
301.668
302.184
283.15
300.352
301.861
303.15
302.164
285.421
303.15
297.927
303.15
283.15
300.699
302.688
286.355
302.496
283.15
285.186
303.012
283.15
302.314
285.385
294.902
284.348
303.15
303.019
302.875
286.522
283.15
287.144
284.262
289.812
285.752
302.26
303.15
283.15
283.15
293.138
283.15
301.051
302.172
290.374
283.15
294.038
283.15
303.15
283.15
300.055
298.591
283.151
285.29
301.724
303.079
303.156
291.893
294.238
301.22
283.212
301.798
283.145
303.15
303.142
299.154
283.15
301.027
294.806
303.15
300.95
287.329
301.948
284.908
288.227
283.15
302.231
287.754
298.434
303.076
283.15
303.15
291.659
302.172
283.076
283.147
286.777
298.368
303.149
284.516
301.045
301.014
301.268
303.153
299.913
287.668
284.936
301.597
299.915
283.733
283.102
303.16
303.149
303.15
297.373
283.163
283.15
303.15
303.149
289.931
298.911
300.278
287.802
302.803
303.15
286.437
301.561
303.15
300.958
283.801
301.468
303.15
284.553
301.382
295.506
302.766
303.15
303.15
285.186
295.09
296.395
287.414
303.15
303.15
283.15
287.228
302.407
296.185
303.15
285.569
303.15
303.15
300.448
288.731
283.15
295.572
295.897
299.064
283.15
303.15
292.677
287.236
303.15
297.97
300.515
300.421
303.15
303.15
303.15
300.23
298.34
302.802
299.899
283.15
292.879
287.687
290.626
300.58
303.15
303.15
300.765
303.098
286.577
296.12
303.15
303.147
283.15
286.448
298.939
285.588
303.15
303.15
283.344
303.123
303.15
303.15
283.15
290.52
303.15
303.15
284.585
299.279
283.15
303.15
284.625
301.334
300.178
287
294.926
303.15
283.496
303.15
303.15
283.309
300.541
290.399
300.406
303.15
303.13
302.181
292.692
299.802
301.363
284.454
283.457
300.833
298.401
303.15
302.752
284.137
299.74
301.383
287.708
303.15
297.415
301.411
301.497
301.537
292.881
303.15
283.15
299.188
283.15
283.15
287.754
283.15
284.009
283.15
283.15
283.15
283.15
302.756
288.136
302.704
283.15
295.701
290.933
284.738
283.15
303.15
302.679
301.739
303.166
302.638
283.15
294.824
300.272
290.167
283.15
283.15
299.821
285.934
283.15
283.15
303.149
290.581
283.15
287.154
303.149
303.152
284.316
283.15
288.215
292.572
300.786
294.577
302.958
285.635
302.503
295.246
286.274
283.15
283.539
291.629
303.077
289.143
302.656
283.15
292.36
287.749
301.017
301.248
284.898
303.107
284.912
297.078
302.984
303.147
285.132
303.145
303.005
293.305
302.674
283.15
303.15
303.15
294.767
291.051
283.155
301.104
284.683
284.152
284.618
303.145
288.349
300.466
283.15
283.15
302.507
303.15
294.567
302.901
303.182
299.82
303.221
302.884
283.15
301.294
302.88
283.15
303.15
301.307
303.15
284.312
298.772
283.164
291.521
283.15
287.579
303.014
299.756
283.15
303.025
290.895
301.194
303.127
303.079
283.15
283.15
301.926
302
283.801
302.812
302.417
302.374
303.141
283.15
293.722
283.15
302.789
287.866
302.988
303.15
283.15
302.823
285.122
291.468
302.046
283.15
302.584
301.993
301.568
302.485
303.047
303.209
303.011
303.15
283.15
301.51
297.822
303.087
303.15
289.926
284.93
303.15
283.15
285.314
303.184
303.165
302.919
301.136
284.265
303.098
290.657
294.201
303.148
289.046
303.163
283.15
289.839
283.15
299.96
298.133
284.777
288.178
299.614
296.631
295.276
299.168
293.761
303.153
293.808
296.392
283.159
299.379
293.834
303.15
298.907
299.136
303.15
291.191
303.172
301.675
303.15
286.92
285.989
302.8
289.656
283.15
283.15
300.351
301.12
283.721
283.15
303.15
300.223
302.32
300.616
299.868
302.786
292.559
289.623
286.636
292.467
284.305
290.393
283.305
295.674
290.413
293.917
287.092
284.284
303.163
283.272
303.147
285.602
300.716
283.151
300.369
298.361
288.729
302.093
285.401
299.075
283.15
302.952
283.155
283.115
287.704
299.658
303.15
300.332
303.019
299.915
302.761
303.15
301.257
284.954
294.921
302.046
303.149
283.708
283.15
290.304
285.239
285.752
303.133
303.149
283.15
283.15
283.176
303.15
293.444
303.15
303.15
294.411
303.435
303.15
300.403
303.15
303.15
293.651
290.594
303.15
289.819
302.058
289.543
303.15
303.15
285.962
283.334
290.31
303.224
303.15
303.145
285.471
283.248
283.15
288.976
287.599
303.15
284.305
303.15
303.15
303.132
287.324
303.15
303.147
283.278
303.152
302.663
287.905
283.152
283.601
297.305
290.727
303.15
285.911
284.433
301.327
287.108
302.213
290.564
293.846
303.15
303.15
284.01
303.148
302.947
295.835
302.943
302.741
287.17
283.15
285.321
283.219
297.125
302.587
285.378
303.15
283.798
286.71
303.125
283.176
303.15
286.394
283.15
300.097
303.15
299.719
299.9
283.306
283.36
302.324
290.843
301.318
303.15
301.392
301.742
303.15
303.15
298.328
293.42
283.15
288.78
303.15
295.182
283.359
303.15
296.889
298.701
288.975
303.15
302.757
294.21
295.362
284.464
303.161
298.674
296.113
283.981
303.124
302.801
287.375
298.426
289.801
290.787
289.724
283.15
302.945
303.152
303.15
303.173
293.081
296.299
302.976
301.288
303.15
284.448
303.15
303.042
302.858
303.15
293.549
296.209
303.15
285.38
303.096
303.15
303.09
303.157
286.064
293.32
291.1
288.391
293.373
303.15
301.208
291.424
295.348
293.438
303.141
303.15
300.551
303.189
284.244
303.189
303.15
303.15
303.143
303.15
284.945
303.15
284.228
303.146
303.15
290.224
303.144
292.456
295.502
303.134
295.315
285.982
283.447
303.125
302.935
284.679
283.15
297.093
303.15
285.506
302.914
302.039
303.018
298.39
287.059
303.15
298.668
289.887
299.343
283.15
283.616
303.15
303.145
303.19
294.037
303.15
292.419
289.33
303.195
303.15
284.798
298.753
293.212
299.578
302.474
301.576
300.378
303.15
284.716
296.912
302.362
285.592
298.308
292.269
284.47
291.641
303.15
286.662
291.809
290.108
299.431
303.15
286.444
284.089
303.15
302.428
288.13
302.095
283.15
303.15
299.825
301.694
288.997
301.984
301.902
301.812
303.15
289.325
285.131
301.961
302.235
297.136
303.15
283.201
303.15
301.985
303.15
302.803
303.15
291.663
303.15
296.508
283.15
289.46
303.15
283.15
292.162
301.441
300.407
289.188
300.486
303.15
302.492
303.15
302.364
285.212
303.15
300.393
290.389
303.15
300.797
303.15
303.15
293.155
283.15
285.542
293.219
300.915
303.15
291.166
293.856
288.165
289.639
288.098
299.2
300.234
300.787