/*--------------------------------*- C++ -*----------------------------------*\
  =========                 |
  \\      /  F ield         | OpenFOAM: The Open Source CFD Toolbox
   \\    /   O peration     | Website:  https://openfoam.org
    \\  /    A nd           | Version:  10
     \\/     M anipulation  |
\*---------------------------------------------------------------------------*/
FoamFile
{
    format      ascii;
    class       volScalarField;
    location    "44";
    object      SgP;
}
// * * * * * * * * * * * * * * * * * * * * * * * * * * * * * * * * * * * * * //

dimensions      [1 -1 -3 -1 0 0 0];

internalField   nonuniform List<scalar> 
59698
(
0.00309505
0.0018977
0.00239568
0.00281349
1.13984e-06
0.00145199
0.00249703
1.10933e-07
1.98732e-09
3.90693e-09
0.000586477
1.79177e-09
1.58187e-09
0.00237197
2.7522e-08
4.25755e-07
9.60902e-09
4.03323e-09
1.655e-09
5.90674e-10
0.00036588
1.55875e-06
0.00049991
8.8191e-08
1.98108e-07
1.2514e-09
1.21278e-09
0.00248186
0.00239347
2.13225e-09
1.35222e-07
0.000600675
6.68894e-08
0.00403539
1.106e-06
3.99511e-09
0.000464816
5.04955e-07
1.75708e-08
0.00245252
2.97005e-08
2.30461e-07
2.31114e-08
2.45629e-08
0.000402108
1.04921e-07
2.74221e-09
4.88448e-08
0.00290853
3.26793e-08
2.95906e-10
2.44339e-09
0.00178433
0.00272952
0.0021681
2.12724e-09
8.45123e-08
1.56702e-08
1.7725e-08
2.74817e-05
0.00178291
6.28733e-08
1.99524e-07
1.5644e-09
5.01634e-07
4.17128e-08
1.75037e-09
3.30897e-09
4.27275e-09
6.77292e-09
6.24505e-07
2.7985e-08
0.00035954
1.59379e-06
0.000411955
1.11178e-06
2.15788e-08
2.24194e-08
6.39174e-09
9.5435e-09
4.78025e-07
9.88752e-10
3.9672e-09
8.33841e-09
1.68873e-05
3.1442e-08
9.17391e-09
2.30292e-07
2.33587e-06
2.4012e-08
4.51463e-09
6.36029e-08
1.72481e-07
6.85518e-09
6.26695e-08
0.00372265
1.35371e-07
6.06647e-08
5.10404e-08
8.59137e-10
0.00353711
2.08082e-05
2.9523e-07
0.00329398
5.42811e-08
0.000564776
2.39146e-09
2.32859e-09
2.63632e-09
4.40336e-10
3.80841e-08
2.72338e-06
1.36384e-06
1.56284e-07
1.0073e-07
3.54224e-08
3.60518e-07
0.0036612
3.0817e-07
1.14731e-08
2.32094e-09
2.99731e-07
2.25595e-07
3.42826e-09
1.72946e-09
8.13833e-09
7.91239e-09
7.20249e-09
1.28226e-08
3.99241e-07
0.00335615
3.95733e-09
1.10543e-09
1.77585e-07
6.46321e-08
3.2258e-09
5.08247e-07
2.18261e-10
1.7645e-09
5.86611e-09
2.16303e-08
0.00240418
0.00252085
1.58583e-09
1.96717e-07
8.08405e-10
5.53709e-07
3.93591e-07
0.00465167
7.12013e-07
0.00025728
0.000434377
2.84267e-08
2.63589e-07
9.13951e-09
1.04598e-07
8.0621e-09
0.00168881
6.72554e-08
5.5582e-10
3.06036e-09
7.78525e-09
2.19937e-08
9.69922e-08
1.85473e-08
0.00222905
1.05905e-09
0.000567334
0.00152527
6.91885e-09
2.55716e-07
1.49098e-06
2.17978e-07
9.25876e-07
5.74869e-07
0.00125666
4.37076e-09
0.00139549
0.000326013
0.0029332
2.25501e-06
7.453e-07
4.0011e-07
1.16037e-08
2.52732e-07
7.02956e-08
3.71155e-07
0.00247022
1.19859e-10
1.86007e-08
6.43606e-09
7.28022e-09
2.30363e-08
6.06674e-07
1.22267e-07
0.00432183
1.78858e-06
0.00294396
1.26278e-05
9.05773e-08
0.00022707
6.72533e-07
1.48996e-09
2.65261e-09
0.00356792
0.00244689
3.54541e-08
0.0020581
0.00270792
0.00350349
0.00251233
6.24379e-09
0.00262719
1.56858e-08
2.29325e-09
0.00349015
1.0003e-08
4.66442e-08
1.54864e-07
4.65492e-09
1.37394e-05
0.00217456
1.77849e-09
5.08979e-07
8.90512e-09
0.00274742
2.11598e-08
5.50242e-09
4.85065e-08
6.84008e-07
7.55818e-09
1.87458e-08
7.40302e-09
1.1329e-08
9.71333e-09
9.33692e-09
3.05816e-07
2.0252e-08
1.82436e-07
8.18836e-09
0.00270604
1.18809e-07
3.47516e-08
0.000664542
8.96491e-09
2.2041e-07
2.29048e-05
3.51629e-06
5.29495e-09
5.09853e-09
6.15151e-08
6.0939e-09
3.08584e-08
0.000233554
1.97511e-08
0.00169899
1.10086e-07
5.44747e-08
0.00325493
2.73831e-09
7.02781e-06
1.8532e-09
7.84098e-09
0.00270836
0.00357836
8.54922e-07
1.13153e-09
1.06493e-07
2.05818e-08
6.06204e-10
3.27322e-09
1.53328e-06
6.89492e-05
6.60316e-10
1.23575e-07
5.01615e-08
0.0015162
3.97573e-08
2.95897e-09
1.23392e-09
0.000574137
2.0343e-09
1.76884e-09
4.65472e-07
0.00335009
1.0241e-07
5.27397e-09
0.000647271
3.81037e-07
1.00361e-07
2.6719e-06
0.00232505
9.7096e-09
1.52573e-09
7.02855e-07
0.00283355
4.87054e-10
1.52405e-07
1.44741e-08
6.63206e-07
3.07257e-09
2.22786e-09
6.86637e-08
5.91696e-10
1.07421e-09
1.19238e-09
3.63872e-07
2.1933e-08
5.37802e-09
4.9139e-10
0.00196749
4.39644e-08
3.96976e-09
2.37975e-08
0.0019865
5.63201e-09
0.00040339
8.43682e-09
0.000829308
8.72816e-08
9.78047e-08
3.15086e-07
1.70322e-08
2.90783e-09
1.6511e-06
2.55912e-07
1.63825e-08
8.8781e-09
4.28159e-10
0.000361923
0.00289972
4.01719e-08
3.59217e-07
2.45779e-06
0.000430956
1.03013e-08
8.0407e-09
4.29241e-09
1.3988e-07
0.00122097
2.13408e-08
0.00206218
0.00258974
4.9513e-09
1.00426e-07
1.32548e-09
2.63587e-10
1.25198e-06
1.40666e-09
0.00203383
9.24634e-10
1.44622e-08
1.23543e-06
7.95698e-10
9.43479e-07
0.00191593
2.73221e-06
1.4489e-08
3.35943e-08
1.82554e-09
2.22058e-08
1.12875e-08
1.1059e-07
3.59414e-09
1.21217e-10
1.04128e-07
0.00289957
0.00201718
2.96109e-08
9.8596e-07
1.13213e-07
0.000533995
0.00379178
0.000651124
2.08119e-08
2.99376e-09
3.76886e-08
2.1506e-09
0.000460524
2.48646e-09
0.000347124
4.62e-08
4.42235e-08
5.15476e-08
8.7229e-10
6.79047e-06
1.13074e-08
0.000544826
8.41224e-10
3.50257e-08
2.15122e-08
0.000457463
0.00330064
3.33195e-09
5.36689e-05
0.00179761
3.6605e-06
0.00189317
0.00278828
8.38826e-08
0.00243872
0.00236487
0.00266085
5.2967e-09
0.00153834
0.0043305
0.00384013
0.00276299
5.91934e-09
8.23051e-07
1.88033e-07
0.0004043
0.00163746
0.000434526
4.79019e-10
2.05235e-07
2.05267e-09
2.26246e-06
0.00189808
0.00175634
0.00292235
0.00226144
0.00249155
0.00166445
8.105e-09
2.15063e-09
7.89798e-09
1.3452e-08
0.00143451
5.59123e-10
7.79693e-09
0.00196239
0.00116497
2.34752e-08
3.6975e-08
1.4437e-08
1.38756e-08
0.00126121
3.54943e-09
0.00211827
1.9233e-07
0.00331325
5.11041e-09
4.57531e-08
1.92853e-07
2.02454e-06
8.62804e-08
4.52536e-10
2.29974e-09
1.29425e-07
0.00262931
7.35309e-09
7.24556e-08
1.96835e-06
6.14524e-07
1.19337e-07
3.39995e-07
1.40507e-09
1.15295e-06
1.7116e-07
6.10594e-08
4.58918e-09
0.00320841
6.47206e-09
2.19885e-09
2.0227e-07
3.51143e-07
9.30531e-09
4.41384e-08
6.20428e-09
0.00247465
4.41429e-09
2.10507e-10
6.87789e-09
6.31489e-08
2.04052e-06
8.14363e-07
2.16148e-09
0.00300895
0.00194628
2.44508e-08
2.10302e-07
1.6414e-08
1.91965e-08
2.51484e-07
4.2692e-08
4.59458e-08
2.068e-08
1.65242e-09
1.64343e-09
2.49865e-07
4.101e-07
3.9424e-10
4.3918e-08
0.00402056
2.20871e-07
1.59288e-08
0.00245318
3.71811e-08
0.000365618
9.72603e-10
1.18108e-07
2.03889e-07
1.2127e-08
1.71079e-08
1.12144e-09
8.42351e-08
2.17709e-09
5.21333e-09
8.28954e-09
5.76398e-09
7.91536e-09
1.35518e-06
5.41923e-08
1.60479e-08
2.62091e-09
6.88097e-09
9.74231e-09
7.04289e-08
2.48586e-08
1.71598e-08
3.46797e-09
5.05646e-09
3.86037e-09
2.18674e-09
6.31153e-06
3.29702e-08
2.77612e-09
0.00339739
0.00370806
3.01195e-09
0.00385347
1.82753e-08
5.74938e-09
0.00150501
3.56423e-10
1.35528e-08
0.00178834
1.95685e-09
0.000384875
4.32922e-08
2.70732e-09
4.5669e-08
2.9863e-06
1.48249e-08
5.13885e-09
8.93087e-06
0.000167019
1.87144e-08
7.4377e-06
1.87389e-08
2.28047e-09
3.18258e-08
1.90993e-09
5.21694e-09
1.49727e-08
1.91089e-08
1.61987e-08
2.58159e-09
2.23613e-09
0.000768496
1.74001e-09
1.60889e-08
1.03233e-05
1.53151e-08
1.81319e-09
1.21099e-06
2.31831e-08
8.589e-09
0.000539255
7.77465e-10
7.86001e-09
1.87748e-07
1.57819e-09
4.41636e-08
1.30091e-09
2.95978e-10
4.34612e-10
0.0020034
2.31304e-09
0.000732638
4.08315e-08
0.00320787
1.58219e-08
3.2766e-09
0.000313352
1.1751e-09
1.39466e-08
1.79077e-08
1.64078e-08
1.99117e-09
0.00316748
8.5913e-09
1.7466e-08
8.51786e-10
4.20601e-08
9.25329e-07
0.00264858
0.000349776
7.30003e-09
7.95269e-09
1.64063e-09
3.02513e-09
0.0034989
1.35333e-08
4.42429e-09
2.67935e-09
0.0010876
0.00385601
1.54662e-08
1.28759e-08
1.56523e-09
1.15607e-08
4.29986e-09
4.13327e-09
5.13819e-09
4.93523e-09
3.59127e-08
7.83653e-05
7.34717e-09
5.03189e-09
7.88054e-09
1.82209e-08
2.54523e-05
0.00241926
1.13155e-08
0.00266356
1.63305e-09
8.76878e-09
4.32295e-09
0.00269465
0.000211233
1.0181e-09
8.40564e-09
7.12359e-10
2.86109e-08
6.31456e-09
2.8857e-09
0.00156967
0.00323672
1.31815e-07
1.68275e-07
0.000607914
1.44834e-09
5.2284e-09
1.60755e-09
4.2589e-07
0.00218519
3.506e-08
1.75826e-09
0.000439476
7.97015e-09
3.18443e-08
3.34583e-09
2.44145e-09
4.60463e-09
9.24385e-10
7.58118e-06
1.015e-09
0.00182036
5.26262e-08
1.12026e-07
6.89891e-09
1.54534e-06
3.45554e-06
5.38942e-09
2.15411e-08
0.00239481
0.00311151
7.28832e-08
3.86906e-09
7.85788e-07
1.67719e-09
0.00356354
3.28335e-10
1.96226e-08
0.000428464
0.00255414
4.18743e-09
1.68327e-09
1.96449e-07
6.09717e-07
3.53432e-07
0.000378102
0.00140485
1.2153e-10
6.63871e-09
9.10599e-10
4.6722e-09
0.00277493
2.71777e-08
0.00302891
9.96838e-09
0.0013154
0.00209609
0.00245178
6.41539e-08
4.11656e-09
0.000650643
1.31687e-09
2.38744e-10
1.02952e-09
4.35204e-09
1.81465e-08
4.71638e-09
1.49812e-09
9.21697e-08
6.95701e-08
7.89278e-09
2.72079e-09
0.00186399
4.17917e-08
3.72584e-08
0.000362139
9.94504e-09
3.46031e-08
3.82696e-08
1.96037e-09
1.37066e-09
0.000646942
0.00196361
0.00241495
3.87533e-09
1.14928e-08
6.84159e-09
1.63782e-07
0.00194612
1.41003e-09
5.68293e-07
2.6516e-08
1.31593e-05
0.000344565
0.00169856
2.24998e-07
1.48097e-07
2.22517e-08
0.00445549
0.000532173
1.89159e-08
9.0025e-07
3.62276e-09
7.07669e-08
3.44708e-06
0.00231969
2.45566e-08
1.20679e-07
1.0103e-07
1.59084e-05
2.60304e-08
0.00185639
2.39891e-09
5.18614e-08
1.16231e-08
0.00212987
7.4045e-10
6.7456e-09
2.08521e-07
4.50337e-06
0.000599773
1.13342e-07
7.03126e-08
0.000383644
4.15035e-08
2.54159e-09
0.00196777
0.00219677
5.48379e-09
8.04868e-09
0.000401558
1.00399e-08
1.75005e-08
0.000373921
3.51166e-10
0.00274015
2.61048e-09
1.93133e-08
1.87851e-07
4.1472e-09
3.93367e-08
3.59556e-08
5.00924e-05
3.75425e-09
6.12294e-09
7.08168e-09
1.17376e-08
9.70643e-08
1.4998e-08
0.000326089
6.90578e-09
2.0455e-08
0.00145234
5.68451e-08
9.84936e-08
8.52379e-06
0.00193099
2.40404e-06
0.000541711
6.91824e-09
0.000382996
1.66422e-08
3.25875e-09
1.6179e-09
0.00324495
3.9541e-07
3.25597e-08
7.12937e-05
6.44023e-08
0.00157969
1.65566e-07
9.84308e-06
3.56769e-09
0.00100438
3.28678e-09
0.00130372
5.39184e-05
2.4528e-07
0.000651795
0.00185409
1.20098e-06
1.10762e-05
4.237e-09
1.128e-06
2.56831e-08
4.09366e-05
0.00044478
0.000428775
0.00211178
3.52703e-08
3.19661e-08
0.000561237
4.56883e-08
0.00235311
6.80122e-10
0.000401156
2.37795e-09
2.79508e-09
2.94185e-05
0.000503641
0.000205952
0.000108534
7.69676e-09
5.07739e-09
1.86361e-09
0.000487276
2.18943e-09
0.00350809
0.00489898
2.48436e-09
0.000499726
2.05814e-09
1.04169e-09
2.92811e-09
3.31172e-06
0.000469633
3.13275e-09
1.323e-09
1.05588e-06
4.3422e-09
1.12203e-07
3.90846e-09
3.09776e-09
8.87527e-08
2.63807e-07
3.12609e-08
1.07288e-08
0.000532562
8.15046e-10
0.000127597
2.82312e-10
2.51156e-09
0.00127475
1.499e-09
7.74517e-06
8.9825e-08
7.43794e-09
0.000108822
1.29822e-08
0.00157162
2.72477e-08
4.5397e-10
0.00174582
5.95585e-09
1.13502e-08
0.000307132
1.24215e-09
0.00212869
1.74244e-08
1.58857e-09
0.00438043
3.05575e-09
5.43046e-09
1.49625e-08
1.65078e-08
0.000319936
8.02749e-09
5.60924e-09
1.69357e-07
0.00180907
0.000633468
0.00058403
2.24232e-08
1.77234e-09
0.000379941
0.00245121
6.8781e-09
8.57583e-09
5.57825e-08
1.19685e-08
3.03277e-09
2.57122e-08
0.000412259
0.00149988
0.00271702
1.49205e-07
2.03689e-09
0.00276323
0.00414741
0.00538732
5.0872e-08
1.81527e-08
1.63858e-07
4.39984e-07
1.8078e-08
2.73462e-08
7.87356e-07
2.90003e-08
7.49822e-09
8.14483e-09
1.35928e-06
7.31191e-08
7.39202e-09
0.00254232
1.63006e-09
5.98862e-08
1.8765e-08
2.82349e-08
6.49766e-09
3.89892e-10
0.000761137
1.88785e-08
3.11146e-09
0.00193675
1.907e-08
2.39266e-08
0.00328149
2.94259e-08
3.33352e-07
5.71699e-09
2.03858e-08
2.50549e-08
0.000825941
3.1443e-08
0.00227663
1.82784e-07
2.05222e-07
3.77403e-08
0.00552402
0.000295109
4.95421e-09
5.52751e-09
9.92246e-07
1.45436e-09
1.16129e-08
8.55776e-09
0.00167196
1.17064e-09
2.28411e-09
8.12383e-09
2.47736e-09
3.62791e-08
2.38109e-08
7.52942e-09
0.000429221
0.00219274
0.000466222
6.29186e-08
0.00314144
0.00256332
5.59969e-08
1.77181e-09
0.00183288
6.43339e-06
0.00154621
0.00208214
0.00203127
3.3283e-09
6.03753e-08
0.00237835
1.96116e-07
3.27971e-08
1.89405e-07
2.64423e-08
0.000443766
2.1806e-08
0.000538421
1.69221e-05
2.57435e-08
0.00196228
2.00086e-08
0.000608723
6.88682e-09
1.8727e-08
1.1827e-09
3.99541e-08
0.00157534
0.00377508
1.25563e-09
0.000395621
0.00188714
0.00140226
0.00278279
5.67204e-10
1.01152e-08
1.17536e-09
0.00355518
8.40945e-10
1.2968e-07
0.00356063
5.7588e-09
0.0035981
0.00351666
0.00379041
1.54028e-08
5.71588e-08
4.62636e-08
9.02305e-09
1.10441e-08
6.15787e-08
1.3171e-08
5.02956e-09
0.000475259
3.70041e-09
3.70448e-08
2.76029e-07
5.49943e-10
0.00167276
2.93765e-08
4.95649e-09
6.66136e-08
2.78111e-10
7.01047e-08
4.11462e-09
2.03325e-07
0.00306626
3.12509e-05
9.36996e-10
1.56188e-08
0.00210253
0.00314927
1.78274e-07
0.000760547
9.98444e-09
7.76921e-09
0.00257398
2.22487e-08
0.00322068
0.000542247
1.04704e-09
7.10507e-08
0.000765797
1.6859e-08
2.49356e-08
0.0025018
6.36397e-09
1.3577e-08
3.11739e-09
0.000534605
3.14934e-06
0.00193142
1.81833e-07
9.40324e-09
0.00175019
1.25296e-07
2.54903e-10
5.96891e-06
2.18475e-09
7.17059e-07
0.00132127
2.69605e-09
9.49804e-10
1.18414e-08
5.83298e-09
1.54747e-08
5.85507e-09
1.26626e-08
1.03654e-06
9.76766e-10
1.32226e-09
0.00176173
4.65591e-09
5.39005e-06
2.96616e-08
6.21924e-06
1.30177e-06
1.21285e-06
5.36492e-06
1.26476e-06
5.35132e-09
1.65807e-08
0.00100308
3.12896e-06
2.48077e-08
2.25032e-08
2.57403e-08
0.000449091
1.36582e-06
8.05079e-08
2.28891e-07
3.51921e-09
0.00226328
4.93218e-09
1.22647e-08
2.08714e-08
1.18542e-08
2.99252e-08
0.00212605
5.57452e-08
2.40682e-08
1.86716e-08
5.03447e-09
0.000477736
2.26936e-09
5.38992e-09
3.35723e-08
2.47847e-10
1.46613e-09
6.29602e-09
9.35349e-09
1.42464e-08
0.000332671
1.18353e-08
1.31688e-08
2.53195e-09
2.00283e-08
1.28883e-08
1.01443e-08
5.84788e-08
0.00038063
0.002506
1.58551e-08
8.29037e-09
0.00284487
1.72646e-09
4.29988e-05
0.00203117
4.95036e-09
7.1363e-07
1.5335e-06
0.00186559
2.19977e-08
3.2588e-08
2.25272e-07
1.73943e-05
8.67617e-07
2.18104e-07
1.39849e-09
3.87947e-09
4.2464e-07
1.08928e-07
5.85897e-09
1.55734e-09
1.235e-08
7.54569e-09
3.06406e-06
0.00129416
6.41272e-08
3.74744e-08
5.28516e-08
0.00264606
0.00253771
9.14519e-07
1.5137e-08
3.40853e-08
4.01458e-08
4.45799e-09
2.89707e-09
1.81469e-07
4.22475e-09
3.45846e-08
2.08384e-09
1.25592e-08
2.26781e-08
3.44159e-09
4.16519e-07
2.93096e-09
0.000434431
9.50466e-08
0.00394819
0.00165208
1.12435e-07
2.16471e-08
0.000579702
0.000345167
2.77359e-08
2.34263e-08
9.36596e-06
2.28563e-09
1.94665e-09
2.44718e-08
1.73338e-08
0.000781453
0.000646965
9.64652e-09
1.22133e-08
7.9184e-09
3.44679e-07
5.07566e-08
0.00275979
0.000496403
1.39856e-08
0.000238787
7.21745e-09
0.000315421
0.000227713
0.000223596
2.80523e-08
1.05414e-07
1.81935e-09
1e-07
2.54039e-08
0.00240339
4.90019e-09
4.27301e-08
6.88898e-09
7.69736e-08
2.27603e-05
0.00194514
0.00235672
2.19077e-08
3.08581e-08
0.000377623
4.02105e-08
1.03682e-06
1.04335e-08
0.00304789
4.17371e-08
2.33329e-08
8.53645e-06
0.00262292
6.8384e-08
2.29667e-08
0.00131289
2.06922e-08
4.64733e-10
1.39147e-09
4.29675e-09
3.19557e-08
1.32928e-08
6.20447e-10
2.25953e-08
3.72543e-08
1.17426e-08
6.2482e-08
1.67881e-08
5.51718e-07
0.0019121
2.94146e-09
1.57476e-08
5.72012e-08
0.0020009
8.71829e-07
2.02119e-08
0.000375095
3.01647e-09
2.25163e-07
1.4622e-07
0.000983777
3.60086e-07
3.22278e-10
1.2202e-07
1.40067e-08
1.22681e-07
5.06755e-08
3.31134e-09
1.5555e-07
6.88509e-09
8.69618e-08
8.75568e-10
0.000584269
4.86875e-08
0.00207979
1.43282e-09
6.59402e-08
2.17471e-06
1.07232e-08
4.70612e-06
4.78946e-09
6.93317e-10
2.45034e-07
4.18592e-08
4.89414e-09
1.72267e-05
6.10868e-08
7.66146e-08
0.000547247
3.09605e-09
0.0005637
3.20111e-08
2.26438e-09
7.68491e-09
5.80179e-09
1.98274e-08
3.90471e-07
3.23621e-07
1.50431e-07
0.00246781
2.08373e-07
0.0039322
0.00209524
0.00329191
8.49808e-08
2.26756e-07
0.00143517
3.99411e-09
2.49836e-08
2.98801e-08
0.00236957
9.27375e-09
0.000635586
0.000492206
2.83858e-09
0.00262595
5.09424e-06
0.00264006
1.89558e-08
0.00249649
5.59527e-08
0.000340202
1.6119e-09
3.98082e-09
4.26091e-08
0.000746715
7.83459e-07
4.18008e-10
2.6923e-08
6.35962e-10
0.000532965
0.000313623
5.69969e-08
0.00190928
4.55449e-07
0.00054462
3.19839e-08
5.60135e-10
6.28771e-09
2.59943e-09
8.96041e-08
2.04414e-05
5.68951e-09
1.33658e-06
4.51057e-08
4.2293e-08
4.66082e-09
9.86791e-05
2.24216e-07
1.84732e-09
6.40895e-09
0.000432451
1.08491e-06
7.80777e-08
0.00152079
1.77438e-06
1.48975e-06
7.77265e-09
8.62502e-09
3.99625e-09
0.000681376
2.73543e-08
5.52277e-09
1.49629e-08
3.6265e-07
9.96436e-07
2.01834e-07
1.82276e-09
3.18678e-06
6.73106e-07
7.43118e-09
5.98426e-09
5.53545e-06
2.5739e-09
5.32297e-09
0.00246645
0.00229014
6.18335e-08
4.50316e-09
1.16084e-09
3.38675e-08
0.00192988
2.59048e-07
1.35579e-06
5.70151e-10
5.50835e-07
3.25841e-08
0.00111996
0.00044488
6.55837e-07
2.36883e-08
3.43266e-06
5.1633e-07
0.000100699
2.23025e-09
1.88476e-08
0.00118801
2.54826e-08
7.84542e-07
5.89748e-07
2.01811e-06
1.22786e-06
1.16928e-08
0.00162287
1.31209e-05
2.49418e-09
1.21553e-08
4.71641e-09
0.000427673
0.000113536
1.906e-08
0.000637652
1.2159e-07
7.27561e-05
0.00292455
0.000398953
0.00282013
0.00183704
0.00221777
4.53635e-10
2.82819e-06
8.47904e-08
3.46463e-06
1.49552e-05
2.21394e-06
2.01939e-09
3.98697e-07
1.47345e-08
3.30665e-07
0.000761567
2.86971e-07
9.13042e-10
0.00178473
1.4586e-07
0.000207822
1.83519e-07
4.23964e-07
5.07668e-09
4.01599e-07
2.1962e-07
0.0015685
2.09546e-07
3.57445e-08
1.49463e-07
2.59416e-05
0.00129741
0.00136279
0.00293884
4.8461e-09
0.000502802
0.00155107
0.00175321
0.00149469
2.45828e-07
0.0022478
2.68209e-07
4.6885e-09
5.63131e-09
7.0072e-09
0.00152602
0.00183411
5.64152e-09
1.45879e-08
8.43844e-09
4.23264e-07
0.000298095
0.0036829
0.00140454
8.20624e-08
0.00247913
8.22392e-10
3.61822e-08
0.00112948
0.000804531
5.36968e-09
2.79016e-06
1.22309e-08
6.40684e-09
0.00352005
6.38004e-09
0.00042327
1.17475e-09
0.00037871
0.000405405
0.000581335
0.00190957
3.38971e-07
0.00161648
1.27026e-08
1.18089e-05
0.000460546
0.00124697
0.00220786
0.00109663
7.51594e-09
0.00124438
8.96586e-09
1.59849e-08
0.00292774
1.64007e-07
6.65354e-06
5.65976e-08
5.23531e-08
0.000573426
1.43471e-06
3.29835e-09
1.4933e-07
4.37986e-07
0.000403303
0.00219812
2.81543e-07
7.62783e-09
0.000614677
1.82399e-08
1.56875e-08
5.22671e-08
6.04753e-07
0.00214107
3.81115e-09
0.00241627
8.41517e-10
0.00025611
0.00433595
8.6926e-09
3.0336e-06
0.00242899
4.99468e-05
5.11974e-06
2.46514e-09
0.00177838
0.00277878
5.14967e-10
0.000489112
8.34965e-07
0.000618779
1.49155e-08
8.50576e-07
5.11939e-07
3.52659e-08
7.68509e-11
0.000345784
0.00131379
6.89333e-09
1.21983e-09
0.00218105
1.11116e-08
2.20666e-09
3.829e-08
1.87733e-09
7.87622e-08
0.00354112
0.0020935
2.64637e-08
5.47048e-10
0.00221111
2.06425e-07
0.00270358
2.77896e-09
1.90117e-06
4.5612e-08
7.43828e-09
2.75155e-09
1.07405e-08
0.00333553
5.03844e-09
2.79614e-07
0.000274723
0.0024362
0.000453094
1.37907e-08
1.17683e-06
2.56835e-09
0.000229147
0.00228075
8.78379e-10
3.75197e-09
3.9789e-08
3.39238e-08
0.000502529
2.69359e-07
0.000529726
1.97714e-07
6.63453e-09
5.86904e-11
4.96747e-08
0.000221039
0.000394062
5.43152e-09
0.00384293
0.0024568
9.2035e-09
3.18882e-10
3.98387e-09
7.33259e-09
3.81584e-09
1.59623e-08
0.00275124
0.000619982
0.000514079
7.76498e-05
0.000348253
0.00038168
2.92048e-09
4.26803e-08
1.59602e-09
2.99747e-08
1.8864e-08
0.00234614
1.1183e-08
4.98594e-09
0.00115974
1.90207e-08
7.93257e-08
8.73792e-08
1.77764e-09
8.40579e-08
3.52241e-08
0.00227009
5.5115e-09
1.49039e-08
4.44133e-09
1.59608e-08
2.20768e-08
0.00387323
4.5277e-07
1.1619e-07
7.32228e-08
1.05527e-09
4.5099e-05
1.24786e-06
3.34468e-09
5.74254e-07
1.23771e-05
1.05132e-08
1.13288e-08
1.03126e-05
2.03936e-06
2.48981e-07
0.00304111
3.98835e-09
3.98285e-07
1.44813e-06
0.00291734
2.24902e-07
4.04928e-10
1.92935e-06
1.52865e-05
3.45666e-07
1.03638e-08
1.71458e-07
4.55636e-08
6.62386e-08
1.99938e-08
3.31367e-08
0.00185723
2.22673e-09
1.18186e-08
1.08371e-08
6.76232e-10
4.63663e-09
1.06257e-09
0.0042142
1.24411e-07
2.07602e-09
3.31685e-09
3.15024e-09
1.08042e-09
4.97328e-08
5.17122e-09
2.80659e-09
5.60864e-08
1.3371e-08
0.00228545
3.05909e-09
0.000384381
3.52535e-08
1.17896e-07
1.81882e-08
1.20625e-06
1.01612e-09
0.0031576
9.70278e-09
0.00178967
2.95617e-07
4.041e-08
1.40207e-08
1.81619e-06
2.78301e-09
3.75149e-09
2.93319e-09
0.00025916
0.000626653
0.00213672
1.0048e-07
1.58189e-07
0.00227902
1.72912e-06
3.37315e-09
1.38116e-08
2.97727e-07
1.06295e-08
0.0042552
2.79345e-06
0.00307984
2.74449e-08
7.84317e-09
0.00158841
0.0014924
0.00180579
1.71377e-08
1.46763e-06
0.00193943
1.71858e-09
1.23001e-05
1.51488e-07
0.00183799
0.000459323
1.80767e-07
0.00238652
2.04423e-05
6.17849e-07
0.00205394
0.00224287
1.94521e-08
0.00243646
0.00311824
0.00186901
2.49525e-08
4.37342e-09
6.40425e-09
8.07689e-10
2.85724e-09
0.00163014
0.00275286
0.00182463
2.8379e-09
0.00303293
2.74936e-09
0.00228124
0.00257993
5.76036e-09
3.79951e-08
0.00170919
2.45851e-08
1.33433e-08
3.2129e-07
4.29866e-10
0.00264565
0.00199029
8.3015e-07
0.00163485
4.45996e-09
3.0474e-09
7.3143e-09
3.30038e-08
6.75111e-08
3.13247e-07
1.21022e-09
5.60927e-09
1.48752e-08
8.10498e-09
6.24359e-09
1.04374e-07
3.68866e-10
2.31404e-08
2.10676e-06
1.20545e-08
3.5343e-08
2.78928e-09
1.2598e-07
1.55781e-09
5.20979e-09
2.22667e-07
1.66081e-09
3.07694e-09
0.00190899
3.50113e-08
5.38674e-09
6.5283e-07
3.10622e-09
1.47461e-08
4.78558e-08
0.0018574
9.37949e-08
0.0022081
0.00153821
1.72831e-08
2.0722e-08
5.74987e-08
6.78169e-09
0.00163035
4.97212e-08
2.26772e-07
3.67589e-07
2.93464e-08
0.00243804
0.00154751
1.9535e-09
3.21096e-09
7.07814e-09
6.37586e-08
5.90999e-08
7.5515e-09
4.16173e-07
5.21875e-09
1.48543e-06
2.49654e-09
1.52912e-09
6.54435e-09
1.60761e-08
2.33304e-07
7.83896e-09
1.90201e-08
0.00444221
0.00150062
0.00265778
0.00160672
1.48353e-06
1.25101e-08
0.00208232
6.95649e-07
6.87638e-09
0.000410058
1.31996e-09
1.44509e-07
0.00239191
4.39824e-08
1.27295e-07
2.30266e-08
4.25854e-08
0.00139999
8.40208e-09
1.00126e-09
2.11396e-07
2.64556e-09
4.86209e-07
5.97871e-06
6.73164e-08
0.00211104
4.18652e-08
0.00046056
2.57874e-07
0.0020988
4.03396e-10
5.02067e-09
2.68401e-07
3.86176e-09
0.00183883
3.83343e-07
0.000518182
1.49308e-07
1.85026e-07
1.33881e-07
2.66197e-08
8.84314e-09
5.0204e-08
3.01943e-06
4.21477e-08
2.60662e-06
0.00324761
5.33856e-08
0.00421555
5.64887e-09
2.57172e-09
4.56789e-06
0.0018642
1.42062e-08
1.33077e-09
9.0222e-07
5.69009e-08
3.39662e-08
0.00233948
1.34795e-08
6.11262e-07
0.00262092
1.35762e-09
8.0945e-09
4.1859e-07
1.00497e-09
8.17284e-09
0.0026188
5.51135e-09
0.00285998
2.3169e-08
2.15979e-07
3.93687e-08
0.000894224
6.07408e-08
2.77217e-08
1.48771e-07
0.00262185
1.58854e-06
1.25528e-08
9.2879e-09
1.23969e-07
0.00207309
3.23831e-09
5.17578e-08
6.30146e-08
1.59079e-06
0.00261578
0.000269833
0.00119006
1.74548e-08
0.000358008
1.22709e-08
9.00453e-07
0.000789454
1.15673e-08
0.000880841
3.29825e-06
4.8587e-09
2.6429e-09
1.19671e-08
0.00261811
1.51859e-08
2.64127e-09
2.60211e-07
1.12549e-08
5.37672e-09
0.000301395
2.89026e-09
4.48623e-08
0.00251981
1.26494e-06
4.5188e-09
0.00210925
3.2563e-06
6.52335e-09
1.36836e-08
1.20227e-05
4.30091e-08
2.2376e-07
1.67232e-08
4.13481e-08
6.04288e-08
4.73576e-06
0.00109772
4.84204e-08
0.00248244
1.50482e-08
3.7958e-08
0.00271653
3.06632e-08
7.8337e-08
9.88916e-09
1.33994e-07
0.00244882
3.00981e-08
2.13314e-08
0.00163512
5.79819e-09
0.00276027
1.43449e-09
8.78237e-09
1.07739e-09
9.48891e-09
0.0015168
5.36939e-08
1.4053e-09
2.57982e-09
1.43499e-08
5.28939e-08
0.00255057
4.80918e-09
4.63539e-09
1.88763e-09
1.54813e-07
5.29599e-06
5.04385e-09
0.00156966
3.50286e-08
9.39918e-09
6.60306e-09
5.12154e-08
0.000429642
6.72456e-07
1.54737e-10
1.0025e-09
0.0018263
0.00217022
6.14404e-08
3.91169e-09
0.00183583
1.66697e-08
8.4392e-10
0.00356095
9.4673e-09
0.00275306
2.89741e-07
1.80244e-08
1.96683e-08
9.76613e-09
9.60107e-09
4.35852e-09
3.05232e-05
7.4242e-07
2.26345e-09
4.0772e-08
5.64296e-08
5.60749e-09
0.00267605
8.69348e-09
1.33108e-08
0.00197402
2.61636e-08
3.59955e-08
2.93186e-10
0.00228713
2.83156e-08
1.32778e-07
3.46134e-09
3.70091e-08
4.02601e-09
0.00233766
5.91933e-09
7.02124e-09
0.000614808
1.11704e-08
7.35985e-09
0.00241688
6.53948e-08
3.88049e-10
3.25014e-08
6.13432e-09
0.00188365
4.57874e-07
6.00758e-08
3.50272e-09
4.02349e-07
1.41054e-07
8.87156e-09
1.38019e-09
1.03056e-09
3.53154e-08
1.05037e-08
8.72754e-10
8.06971e-09
6.07346e-09
1.08502e-08
0.00239731
7.20579e-07
1.4779e-08
2.14887e-09
9.28066e-10
0.00219987
1.94199e-08
0.00339766
9.33642e-07
0.00163977
7.61611e-10
0.0022297
0.00292638
8.97405e-09
9.36095e-09
8.96013e-08
0.00210513
0.00251644
3.06934e-07
7.38141e-09
2.49987e-07
1.05054e-09
2.21454e-07
8.7106e-09
9.40693e-08
1.66753e-08
1.37727e-09
3.80924e-09
1.00305e-09
6.4682e-09
9.35954e-09
3.93043e-09
5.07294e-09
1.51625e-08
9.01261e-08
3.53346e-11
3.36023e-09
7.4842e-10
5.92829e-09
1.4756e-09
1.73603e-07
0.0019649
0.0028921
4.50902e-09
0.00230929
1.45873e-08
3.07199e-09
4.7801e-09
1.63998e-06
1.8018e-07
7.15555e-08
9.94684e-10
1.11603e-08
2.1439e-09
8.2449e-09
1.61081e-09
1.33527e-08
1.41357e-07
0.00164291
2.438e-09
2.10978e-08
0.00145414
0.00184805
0.0022716
0.00206341
0.00176519
4.68909e-08
3.7756e-08
2.97969e-09
8.20128e-09
7.60545e-09
1.39094e-06
3.93698e-09
2.9346e-08
3.46868e-08
7.1955e-09
2.43235e-09
2.67141e-09
7.63426e-07
3.15501e-06
3.96686e-07
6.02646e-09
1.67964e-09
3.43931e-09
0.00294843
2.53967e-09
0.00192131
1.06194e-07
8.78202e-09
7.52446e-07
0.00105424
6.75673e-08
4.05996e-10
3.78565e-09
3.20493e-08
1.50449e-09
2.38758e-08
9.77619e-10
0.00114513
3.56019e-10
4.18318e-08
0.00284445
2.83845e-09
0.00137974
5.86605e-08
0.00223945
9.80251e-08
0.00126303
3.54166e-10
0.0028952
0.00232083
2.78858e-08
4.1836e-09
0.00158364
1.99328e-08
0.00186983
1.71325e-08
7.86563e-09
5.02083e-10
1.68621e-08
2.04481e-08
1.50902e-08
6.54434e-07
0.00292276
0.00166191
1.22056e-06
3.89516e-09
3.47006e-07
0.00316044
0.00136145
0.00245233
0.0024318
5.23723e-09
6.10127e-08
2.75908e-08
1.24553e-08
0.00314694
6.52654e-09
0.00153946
0.00333301
5.38443e-09
3.28458e-09
0.00166402
0.00313837
2.94456e-08
8.36894e-10
0.00173
9.01214e-08
2.55511e-09
4.66737e-07
9.87133e-08
0.000406259
7.13797e-08
5.66265e-08
2.47246e-07
2.70164e-07
9.28828e-08
3.8318e-09
4.69826e-09
1.0846e-08
2.02956e-09
2.05344e-08
8.66762e-09
1.72139e-10
2.28806e-09
0.0020177
0.00293919
3.38391e-10
2.60731e-08
6.61524e-09
2.80703e-09
4.79523e-07
1.94919e-08
2.42374e-09
0.00270663
0.00156
0.00144868
0.00162343
4.89829e-08
0.001362
2.55075e-07
0.0039065
7.41056e-10
0.00235636
2.72991e-08
3.78477e-08
1.55517e-07
6.32202e-10
0.00301614
1.85382e-07
0.00423625
6.19195e-09
1.227e-09
9.40127e-09
9.17535e-09
0.00137406
0.0029723
1.94303e-10
3.0991e-09
2.43565e-08
0.0016744
3.94723e-09
0.00280326
3.52171e-07
1.98576e-09
5.72396e-09
0.00241514
3.64824e-08
0.00221572
8.48484e-08
0.00395938
0.0033103
8.00004e-08
3.32778e-09
0.00365679
8.92299e-09
8.51624e-07
0.000344638
1.62381e-08
1.39246e-07
2.27934e-08
8.85861e-09
0.00311303
4.29421e-09
7.39345e-08
3.7543e-10
7.03697e-08
4.83664e-09
5.33862e-09
1.52075e-08
9.95091e-09
1.77448e-08
0.00294984
2.20938e-08
2.7587e-08
4.87143e-09
1.43785e-08
9.03993e-09
9.86269e-09
1.15776e-08
0.00217435
8.76987e-09
0.00303609
0.00189542
4.9801e-09
0.000360671
2.9475e-09
3.34872e-09
2.70417e-08
3.49156e-08
3.12861e-08
0.00158135
0.00209854
1.14316e-07
1.04015e-07
8.31189e-08
0.00305502
0.00110983
4.80806e-08
0.00216298
0.0045399
1.24882e-06
0.00259023
0.000410461
6.63287e-09
7.82543e-07
2.53095e-08
0.000563895
6.80553e-10
0.0025248
3.3812e-10
2.40933e-09
0.000636589
0.000341712
1.5865e-08
0.000460444
4.24074e-08
1.08155e-07
2.57853e-08
2.69361e-09
3.93505e-07
2.87512e-09
4.99928e-09
0.00243082
1.34163e-08
1.38993e-08
4.55734e-09
1.22013e-07
1.66042e-09
4.59244e-05
2.96209e-08
2.03138e-08
7.75804e-08
1.6894e-07
0.00029709
0.00227294
4.17949e-08
7.08392e-09
0.00236628
0.00234106
3.70334e-08
2.34566e-08
1.27732e-08
3.14887e-09
3.05117e-08
1.13599e-08
0.0020014
0.00448263
6.30819e-09
2.11099e-09
3.86532e-09
5.99924e-09
0.0025521
0.000394486
1.75717e-09
1.86035e-08
1.58373e-08
0.00211897
1.049e-05
1.09442e-06
0.00194316
2.49229e-08
2.59793e-08
5.00368e-09
4.11959e-08
2.52943e-08
0.00220488
5.4288e-08
0.000310604
5.52017e-09
6.26403e-09
0.00320551
0.0026027
7.55866e-09
0.00306976
1.08115e-09
1.47278e-09
4.53274e-07
5.09602e-09
3.69442e-09
0.00179327
2.67153e-08
1.2389e-07
0.00384983
1.24464e-08
0.00154966
0.00311517
1.42884e-08
0.00330234
1.43342e-08
1.30991e-08
1.83319e-08
1.87125e-07
9.88178e-09
4.63595e-08
5.97128e-09
2.46017e-08
4.83436e-07
1.94517e-08
0.00232333
6.82792e-09
0.0030132
8.44402e-10
1.15339e-08
5.44939e-09
0.00231043
8.77872e-09
0.0022805
0.00192373
0.00315389
1.57287e-08
0.00209372
1.44941e-07
2.12098e-08
3.1996e-09
7.94008e-09
1.27481e-08
7.64448e-08
1.47285e-07
2.94565e-07
3.42436e-09
0.00283369
3.23308e-08
1.20954e-09
9.50515e-10
4.46651e-09
7.03562e-10
0.00200405
3.64564e-08
0.00294259
2.69686e-08
0.000624965
3.60046e-09
3.5173e-09
0.00177437
0.00346348
6.65868e-08
3.70198e-09
0.00375534
1.56824e-08
1.06403e-09
3.32678e-09
1.32056e-08
6.47656e-10
1.36764e-08
1.54442e-09
1.40494e-08
2.86363e-09
6.09937e-08
2.70163e-08
0.00246217
5.69957e-07
1.03e-07
1.12431e-08
4.65012e-09
0.00208841
1.37588e-08
0.00298238
4.13766e-08
2.79873e-08
6.28758e-09
6.18322e-09
7.92594e-08
7.69369e-07
0.00129927
0.00121785
8.12193e-09
0.00370752
2.35785e-08
0.00286309
9.04471e-09
1.3549e-08
2.90209e-09
0.00268487
0.00132462
0.000427458
4.48281e-08
2.03367e-09
0.00133738
5.34421e-09
3.13461e-09
9.45153e-09
5.33903e-09
0.00245407
0.00209636
1.81569e-08
3.15204e-08
5.16044e-08
4.01576e-09
3.25871e-06
1.81747e-06
6.21454e-09
2.54214e-08
0.00157865
9.15705e-09
3.11583e-08
1.08737e-09
3.00247e-08
4.69901e-09
0.0022682
4.69402e-09
1.69308e-06
0.000526658
1.03635e-08
6.67831e-09