/*--------------------------------*- C++ -*----------------------------------*\
  =========                 |
  \\      /  F ield         | OpenFOAM: The Open Source CFD Toolbox
   \\    /   O peration     | Website:  https://openfoam.org
    \\  /    A nd           | Version:  10
     \\/     M anipulation  |
\*---------------------------------------------------------------------------*/
FoamFile
{
    format      ascii;
    class       volScalarField;
    location    "44";
    object      SgRate;
}
// * * * * * * * * * * * * * * * * * * * * * * * * * * * * * * * * * * * * * //

dimensions      [1 -1 -3 -1 0 0 0];

internalField   nonuniform List<scalar> 
59698
(
0.0162065
0.0018977
0.00239568
0.00281349
0.0305048
0.00145199
0.00463399
1.10933e-07
1.98732e-09
3.90693e-09
0.000586477
1.79177e-09
1.58187e-09
0.00237197
0.00036064
4.25755e-07
0.000671866
4.03323e-09
1.655e-09
0.000253826
0.00174043
0.0142636
0.00050003
8.8191e-08
0.0422822
1.2514e-09
1.21279e-09
0.0101126
0.00918619
0.00747912
0.00480654
0.000600675
6.68894e-08
0.0165135
0.00246679
3.99511e-09
0.0194547
0.0205487
1.75708e-08
0.0250867
0.00863878
2.30461e-07
0.00370529
0.000634112
0.000402108
0.032267
2.74222e-09
0.000730306
0.00315794
3.26793e-08
0.00151975
2.44339e-09
0.00178433
0.00273463
0.0114081
2.12724e-09
0.00132813
0.000212358
0.000808926
0.00290572
0.00523935
0.000500818
0.122583
1.56441e-09
0.0125344
0.00172795
1.75037e-09
3.30897e-09
4.27276e-09
6.77292e-09
6.25291e-07
0.000251522
0.000363136
0.0414134
0.000411955
0.0393897
0.000117607
0.00922932
0.000357782
0.00614672
0.00880944
0.000474907
3.9672e-09
8.33841e-09
0.00845859
0.000548263
0.000100608
2.30292e-07
0.0630693
2.85364e-08
4.51463e-09
0.0020654
0.0146873
6.85519e-09
6.26695e-08
0.00372265
0.00525909
6.06647e-08
0.000267169
8.59137e-10
0.0763917
0.00180655
0.0161797
0.0153252
5.42811e-08
0.000564776
2.39146e-09
2.32859e-09
2.63632e-09
4.40336e-10
3.80841e-08
2.72338e-06
0.0378666
1.56284e-07
1.0073e-07
3.54224e-08
3.60518e-07
0.0036612
3.0817e-07
1.14731e-08
2.32094e-09
0.000723673
2.25595e-07
3.42826e-09
1.72946e-09
8.13833e-09
0.010805
7.20249e-09
1.28226e-08
3.99241e-07
0.0451386
3.95734e-09
1.10543e-09
0.100081
0.00433034
0.00438105
5.08247e-07
2.18261e-10
1.7645e-09
0.000290981
2.16303e-08
0.00240418
0.0026996
0.00267028
1.96717e-07
0.000522424
5.53709e-07
3.93591e-07
0.00465167
0.0292826
0.000299352
0.000434377
0.00147405
2.63589e-07
0.000158355
0.000341426
8.0621e-09
0.00168881
0.0124042
5.55821e-10
0.000858287
7.78525e-09
0.0164109
0.00163579
0.00343055
0.0346171
1.05906e-09
0.0718984
0.00200218
0.000409563
0.0119893
1.51446e-06
0.010838
0.0148255
0.0792912
0.00141311
4.37076e-09
0.00144604
0.000326013
0.00930424
0.00948274
0.0183847
0.0148252
1.16037e-08
0.0456137
0.000235416
0.0114633
0.0024703
1.19859e-10
0.00118154
0.000394079
7.28022e-09
0.00267849
0.0386736
0.00409409
0.00432183
0.00983548
0.0585133
2.6888e-05
0.0077104
0.00022707
0.00624577
0.0210792
2.65296e-09
0.0104878
0.00277388
0.00615721
0.00285564
0.00781985
0.0114978
0.00251233
0.000545996
0.00278792
1.56858e-08
0.00406902
0.00349015
1.0003e-08
0.000667632
0.0128045
0.00666251
0.0056234
0.00268549
1.77849e-09
0.0665366
0.000822145
0.0264443
0.00731791
0.0032353
0.00691598
0.15933
7.55818e-09
0.00469476
0.00293592
0.00319337
9.71333e-09
0.00962041
0.083123
2.02642e-08
1.82436e-07
0.000449552
0.00270604
0.00147393
0.0134933
0.000664542
0.00609247
2.2041e-07
0.00380083
0.23046
0.00123466
5.09854e-09
0.000745921
0.00164431
0.00062839
0.000233554
1.97511e-08
0.002392
0.00561976
0.00128907
0.00325493
2.73831e-09
1.39459e-05
1.8532e-09
0.000389074
0.00558306
0.00445172
0.0477927
1.13153e-09
1.06493e-07
2.05818e-08
6.06205e-10
3.27323e-09
0.0440745
0.000221666
6.60317e-10
0.018029
0.000206127
0.0015162
0.000504859
0.00208751
1.23392e-09
0.000574137
2.0343e-09
1.76884e-09
0.105237
0.0493262
0.020286
0.000137151
0.000647271
0.0731926
0.000436659
0.0902628
0.00234099
9.7096e-09
1.52573e-09
0.000326177
0.00283355
3.20876e-05
0.000805047
0.00420812
6.63206e-07
0.0027217
2.22786e-09
6.86637e-08
5.91863e-10
1.07422e-09
1.19238e-09
0.0520735
0.00101462
2.0264e-06
4.91391e-10
0.00196749
4.39644e-08
3.96976e-09
2.37975e-08
0.0019865
0.00513548
0.00040339
0.00056948
0.000829308
0.000285989
0.000403159
0.323385
0.00105792
2.90783e-09
0.0482158
0.0105169
0.00031548
0.000525568
0.000440717
0.000361923
0.00945101
0.00415659
0.0203687
0.205383
0.000430956
1.8799e-05
8.0407e-09
0.000721572
0.00909451
0.00449245
0.010251
0.00206613
0.00258974
0.00147884
9.69836e-05
1.32548e-09
0.000102074
0.0394776
1.40666e-09
0.00204825
0.00799044
1.44622e-08
0.0401724
7.95698e-10
0.24567
0.00216904
0.0141524
1.4489e-08
3.35943e-08
1.82554e-09
2.22058e-08
3.48167e-08
1.1059e-07
0.000891269
1.21217e-10
1.04128e-07
0.00289957
0.00203064
2.96109e-08
0.00166983
0.00189151
0.000533995
0.00379178
0.000651124
0.0061937
2.99376e-09
3.76886e-08
2.1506e-09
0.000460524
2.48646e-09
0.000347124
4.62e-08
4.42235e-08
0.000525525
8.72292e-10
1.96212e-05
1.15804e-08
0.000544826
8.41224e-10
3.50257e-08
3.11333e-08
0.000457463
0.00457294
0.00260755
0.00133516
0.00227484
0.0477293
0.00189317
0.00278828
8.38826e-08
0.00284866
0.002387
0.00266085
5.2967e-09
0.00153834
0.0043305
0.0857463
0.0281817
2.26804e-05
0.00542411
0.031618
0.0004043
0.00178335
0.000434526
4.79019e-10
0.0590196
2.05267e-09
0.010406
0.00240072
0.00183957
0.00303471
0.00226144
0.00252756
0.311151
8.105e-09
2.15064e-09
7.89798e-09
0.000215887
0.00143451
5.59126e-10
0.000258953
0.00215186
0.0163566
0.00303039
0.00212374
1.4437e-08
1.38756e-08
0.213318
3.54943e-09
0.00317811
1.9233e-07
0.00331325
5.11041e-09
4.57532e-08
1.92853e-07
0.00240171
0.0700613
4.52536e-10
2.29974e-09
0.00907214
0.00262931
7.35309e-09
9.26391e-05
0.0326762
0.000269157
1.19337e-07
0.108565
1.40507e-09
0.00970087
1.7116e-07
0.0543814
4.58918e-09
0.0157944
0.0133307
2.19885e-09
0.000972637
0.000415984
0.00846912
3.23651e-05
0.00804243
0.00292327
4.41429e-09
2.10509e-10
6.87789e-09
0.000407302
0.000882525
0.00111921
0.0689721
0.00622388
0.00219233
2.44508e-08
0.000572865
1.6414e-08
1.91965e-08
0.0053452
4.2692e-08
4.59459e-08
2.068e-08
0.0657717
0.00179428
0.0230986
0.0664718
0.00109665
4.3918e-08
0.0585712
2.20871e-07
1.59288e-08
0.00245318
0.00943512
0.000365618
9.72604e-10
0.0643032
0.00715861
0.00459801
1.71079e-08
1.12144e-09
8.42351e-08
2.17709e-09
5.21333e-09
0.00314274
0.000585419
0.0748134
0.0074258
5.41923e-08
0.0090893
2.62091e-09
6.88097e-09
9.74231e-09
7.04289e-08
2.48586e-08
0.00541986
0.00378588
5.05646e-09
3.86037e-09
2.18674e-09
0.00127335
0.00954969
2.77612e-09
0.0106918
0.0039029
3.01196e-09
0.0421985
1.82753e-08
5.74938e-09
0.00150501
3.56425e-10
1.35528e-08
0.00185481
1.95685e-09
0.000384875
0.00973038
2.70732e-09
4.5669e-08
0.0675477
0.00819502
0.0135486
0.0100197
0.000173347
0.0117252
7.82059e-06
1.87389e-08
2.28047e-09
3.18258e-08
1.90993e-09
5.21695e-09
1.49727e-08
1.91089e-08
0.00115793
0.00688726
0.000451253
0.000768496
1.74001e-09
1.60889e-08
9.17786e-05
1.53151e-08
1.81319e-09
0.0744879
2.31831e-08
0.00551262
0.000539255
0.00288143
7.86002e-09
1.87748e-07
0.00259983
0.00286766
0.00338172
2.95978e-10
0.00402561
0.00211824
2.31304e-09
0.000732638
4.08315e-08
0.00520232
1.58219e-08
0.00404163
0.000313352
0.00244498
1.39466e-08
0.00416658
0.00268165
0.00216437
0.00332556
8.5913e-09
1.7466e-08
8.51786e-10
4.20601e-08
9.25331e-07
0.00433988
0.000349776
7.30003e-09
0.00515735
3.36187e-05
3.02513e-09
0.0034989
0.00148231
0.00216296
2.67935e-09
0.0010876
0.00393013
1.54662e-08
1.28759e-08
0.00055212
1.15607e-08
0.00433462
0.00140446
0.00278572
4.93523e-09
0.22592
1.87906
7.34717e-09
5.03189e-09
0.000602472
0.00213121
0.000942895
0.00248062
3.87765e-06
0.00710872
0.00245706
0.0031711
0.00155396
0.00276859
0.000211233
1.0181e-09
0.00113595
7.12361e-10
0.00132935
0.000238404
2.8857e-09
0.00156967
0.10959
2.02945e-07
1.68275e-07
0.000607914
1.44834e-09
0.00243059
0.00380494
4.2589e-07
0.00218521
3.506e-08
1.75826e-09
0.000439476
7.97015e-09
0.00828638
0.000641901
0.000331064
4.60463e-09
9.24386e-10
7.86292e-06
0.000325466
0.00202926
7.95161e-08
0.000812207
0.000880508
0.0198458
0.089612
0.0013708
2.15411e-08
0.00239481
0.00317556
0.0415191
3.86906e-09
7.85788e-07
1.6772e-09
0.00356354
3.28336e-10
0.00152909
0.000428464
0.0107936
0.0473312
1.68327e-09
0.000419198
6.09717e-07
3.53432e-07
0.000378102
0.00158023
1.21531e-10
0.00219561
9.106e-10
0.000474448
0.0113609
0.00441304
0.0392255
0.000837997
0.00139475
0.00211612
0.00245178
6.41541e-08
0.00117334
0.000650643
1.31688e-09
2.38744e-10
1.02952e-09
0.00661116
0.000821072
4.71639e-09
1.49812e-09
0.00635005
6.95701e-08
5.87692e-06
2.72079e-09
0.00343112
4.17917e-08
1.04143e-05
0.000362139
9.94504e-09
0.00195247
0.00920515
1.96037e-09
1.37067e-09
0.000646942
0.0624146
0.0032199
3.87533e-09
0.000389161
0.00145825
0.0257036
0.0088699
1.41003e-09
0.0559369
2.6516e-08
0.00258354
0.000344565
0.00939434
6.89168e-05
1.48097e-07
0.0111684
0.00445549
0.000532173
0.00308715
0.0599848
3.62277e-09
7.0767e-08
0.244189
0.00232601
0.000743656
0.00239909
0.00190288
0.00174348
2.60382e-08
0.0152459
2.39892e-09
0.0599583
0.0031755
0.0246058
7.4045e-10
6.75693e-09
0.105033
0.237147
0.000599773
1.13342e-07
0.0500728
0.000383644
0.00225786
0.00516338
0.00196777
0.00827768
0.00405312
8.04868e-09
0.000401558
0.0019821
0.0142464
0.000373921
3.51167e-10
0.00274015
2.61048e-09
0.00434796
1.87851e-07
4.1472e-09
0.00607616
0.00522916
1.23575
3.75425e-09
0.0246485
0.00974632
0.0210435
0.00105383
0.00477856
0.000326089
0.000967711
0.00158445
0.00145234
0.00655446
0.0111268
0.104652
0.00202873
0.00549677
0.000541711
6.91824e-09
0.000382996
1.66422e-08
3.25875e-09
1.6179e-09
0.00324495
3.9541e-07
0.00949742
0.00021635
0.000712051
0.0015825
1.65566e-07
0.00687089
3.56769e-09
0.00100438
3.28679e-09
0.00130372
0.000118432
0.0137252
0.000651795
0.00185409
0.0199396
0.210092
4.237e-09
0.0087002
2.56831e-08
0.000708238
0.00044478
0.000428775
0.00378126
0.000843095
0.0074963
0.000561237
0.00627402
0.00235311
6.80123e-10
0.000401156
2.37796e-09
2.79508e-09
3.33663e-05
0.000503641
0.000274487
0.000316769
7.69676e-09
5.07739e-09
1.86362e-09
0.000487276
2.18943e-09
0.00554187
0.00489898
0.0015288
0.000499726
0.0040618
1.04169e-09
2.92811e-09
0.0157785
0.000469633
3.13275e-09
1.323e-09
0.0355546
0.00488904
0.000880979
3.90846e-09
3.09776e-09
0.0105998
2.63807e-07
0.00983507
1.07288e-08
0.000532562
0.000488307
0.000128396
2.82315e-10
2.51157e-09
0.00136963
1.499e-09
0.0088951
8.9825e-08
0.00204612
0.000108822
1.29822e-08
0.00163657
0.00164823
0.000592934
0.00192332
5.95585e-09
0.00200145
0.000307132
1.24215e-09
0.00212869
1.74244e-08
1.58857e-09
0.00438043
3.05575e-09
0.000266563
0.00372468
0.0182772
0.000319936
0.00106222
0.00297667
1.69357e-07
0.00462513
0.000633468
0.00058403
0.00448824
0.000148934
0.000379941
0.00245121
0.00160905
8.57583e-09
0.00263418
1.19685e-08
3.03277e-09
0.0654826
0.000412259
0.00149988
0.00271702
1.49205e-07
2.03689e-09
0.00276323
0.00414741
0.00538732
0.0202465
0.00399955
0.000121446
0.0408788
9.31915e-05
0.00132783
0.115628
2.90003e-08
0.00457643
0.00452737
0.0325015
0.0587341
7.39202e-09
0.00254319
1.63006e-09
0.0246935
0.000269888
0.00036175
0.00142057
3.89892e-10
0.000761137
0.0024303
0.000579889
0.00195234
0.00681047
0.00278968
0.00328149
8.34335e-05
0.0251025
0.000750541
2.03858e-08
2.50549e-08
0.000825941
3.79427e-08
0.00227663
0.00105762
2.05222e-07
3.77403e-08
0.00552402
0.000295109
4.95421e-09
5.52751e-09
0.00544138
1.45436e-09
1.16129e-08
0.00962699
0.00321299
0.000289992
0.000406369
0.000265071
0.000128867
0.000959488
2.38109e-08
7.52942e-09
0.000429221
0.00234365
0.000466222
0.000313701
0.014069
0.0187402
0.0178081
1.77182e-09
0.00184306
0.00296246
0.00271763
0.00483294
0.00596565
0.00040015
6.03753e-08
0.00255706
0.000268325
0.011103
0.0565971
0.0016767
0.000443766
2.1806e-08
0.000538421
0.000105282
0.00110434
0.0022753
0.00234687
0.000608723
6.88682e-09
1.8727e-08
0.00235919
0.00236272
0.00181726
0.00377508
0.0471749
0.000395621
0.00190304
0.00140226
0.0230574
5.67204e-10
0.000397944
1.4592e-05
0.00463269
8.41274e-10
0.00173891
0.00471904
5.7588e-09
0.0035981
0.00356875
0.00379041
0.0054844
0.00952914
0.0100874
0.00816548
0.00525588
0.00589737
1.3171e-08
4.78645e-08
0.000475259
0.00595015
0.00475234
0.00220275
5.49943e-10
0.00181972
0.00391615
4.95649e-09
0.00117035
2.78111e-10
0.014887
4.11462e-09
0.0407066
0.00314807
0.736093
9.36999e-10
1.56188e-08
0.00215631
0.00317218
1.78274e-07
0.000760547
0.00399651
0.00700899
0.00434351
0.000632433
0.00677181
0.000542247
1.04704e-09
0.019717
0.000765797
0.000931861
0.00115803
0.00267827
0.00032382
0.00111661
3.11739e-09
0.000534605
0.00814074
0.00271232
0.0922511
9.40324e-09
0.00240974
0.0817043
2.54903e-10
0.00876046
0.0028115
0.0252212
0.00167568
0.00362826
9.49808e-10
1.18414e-08
0.00132092
1.54747e-08
0.00123453
4.21906e-05
1.03654e-06
9.76766e-10
1.32226e-09
0.00176173
0.00323922
0.00974226
2.96616e-08
0.00230207
0.000527251
1.21285e-06
0.0365471
0.0542494
0.00499505
0.000372411
0.00425915
0.455872
0.023981
0.02625
2.57403e-08
0.000449091
0.102727
8.05079e-08
2.28891e-07
3.51921e-09
0.0166729
4.93218e-09
0.00170644
0.000320363
0.00174801
2.99252e-08
0.00459856
0.00904181
0.00287802
0.000649042
1.38679e-06
0.000477736
2.26936e-09
5.38992e-09
0.00363792
2.47847e-10
8.98315e-06
4.00306e-06
0.00778392
1.42464e-08
0.114317
1.18353e-08
0.00118816
2.53195e-09
0.00566618
1.28883e-08
0.00110932
0.00257061
0.00038063
0.002506
1.58551e-08
8.29037e-09
0.00285807
1.72646e-09
0.0185848
0.012225
4.95036e-09
0.00150414
0.0841072
0.00297178
0.00399462
3.2588e-08
2.25272e-07
0.00374494
0.0363307
0.00901123
0.00265044
8.06115e-06
0.0019112
0.00336521
0.00297601
0.00373686
0.00536805
7.54569e-09
0.116248
0.0514698
0.000486202
3.74744e-08
5.28516e-08
0.00312792
0.00253771
0.026041
0.0011321
3.40853e-08
0.00230306
0.000427974
2.89707e-09
0.003561
4.22475e-09
0.00269229
2.08384e-09
0.00148614
0.00377018
3.44159e-09
0.0194919
2.93097e-09
0.000434431
0.00363782
0.00413172
0.00205329
0.0021093
0.0118391
0.000579702
0.000345167
0.000374685
0.000170962
9.36629e-06
2.28563e-09
1.94665e-09
2.44718e-08
0.000204327
0.000781453
0.000646965
0.000657309
1.22133e-08
7.9184e-09
3.44679e-07
0.000319474
0.00275979
0.000496403
4.46874e-05
0.000238787
7.21745e-09
0.000315421
0.000232052
0.000223596
0.00389381
0.10329
1.81935e-09
0.00479682
0.00168971
0.00413005
4.90019e-09
4.27301e-08
6.88898e-09
0.00829755
0.0200757
0.00480341
0.00235672
2.19077e-08
3.08581e-08
0.000377623
0.00476596
0.00937383
1.04335e-08
0.00514086
0.00284014
0.000101345
0.00358921
0.00264099
0.0145558
0.0019184
0.00385534
9.53264e-05
4.64733e-10
1.39147e-09
5.26659e-05
0.00564025
6.98172e-06
6.20447e-10
2.25953e-08
0.00502768
0.000244255
0.00024711
0.00102309
5.00632e-05
0.00192259
2.94147e-09
0.00392028
5.72012e-08
0.00209132
0.0284647
0.00210326
0.00122039
3.01647e-09
2.25163e-07
0.00100811
0.000983777
0.0146812
3.22278e-10
1.2202e-07
0.00121208
1.22681e-07
0.000889528
3.31135e-09
1.55557e-07
6.88509e-09
0.000215144
8.75571e-10
0.000584269
0.00201781
0.00213743
1.43282e-09
7.36052e-08
2.63175e-05
1.07232e-08
0.00576266
0.000204048
6.93317e-10
0.0474641
6.56204e-05
4.89414e-09
0.000282249
6.10868e-08
7.66146e-08
0.000547247
3.09605e-09
0.0005637
3.20111e-08
0.000949075
0.00034219
0.00273129
0.00428428
0.00128677
3.23621e-07
0.0624947
0.00246781
2.08373e-07
0.00608032
0.00289366
0.00671481
1.08909e-05
2.26756e-07
0.352438
3.99411e-09
2.49836e-08
2.98801e-08
0.0253587
0.0030546
0.000635586
0.000492206
2.83858e-09
0.00321573
0.0363874
0.00481371
0.00867558
0.0143212
5.59527e-08
0.000340202
1.6119e-09
2.7996e-05
0.0083132
0.000746715
0.0751205
4.18008e-10
0.000486132
6.35963e-10
0.000532965
0.000313623
0.000377992
0.0105522
0.0180752
0.00054462
0.00185413
0.00451689
6.28771e-09
0.000237645
0.000992204
0.00200617
0.000413495
0.000800172
0.00748861
0.0106494
0.000589139
0.00170685
0.00265475
3.67698e-05
6.40895e-09
0.000432451
0.0137389
0.0116278
0.00501782
0.0474365
0.00265636
7.77265e-09
0.00524732
3.99625e-09
0.000681376
0.00106552
0.0223237
0.000280972
0.0206042
0.0116542
0.0341268
1.82276e-09
0.10108
0.00885412
0.00172616
0.00461209
0.0649761
0.000709336
0.00281281
0.00246645
0.00229014
0.00805753
0.00111188
1.16084e-09
3.38675e-08
0.00203503
0.0248961
0.293587
5.70153e-10
0.00898079
0.000289364
0.00126481
0.00044488
0.188148
0.000619714
0.286992
0.777391
0.000103975
2.23025e-09
1.88476e-08
0.0013712
0.0106776
0.00561192
0.0101642
0.062506
0.0343545
0.00183074
0.00163631
0.0102891
0.011341
1.21553e-08
0.000516637
0.000427673
0.000357445
0.00042837
0.000637652
0.138394
0.000274167
0.00292455
0.000398953
0.00308239
0.00201795
0.00221777
4.53635e-10
0.477643
0.0314122
0.185026
0.14845
0.00218926
2.01939e-09
0.00667029
0.00124462
3.30665e-07
0.000761567
0.0854255
9.13043e-10
0.00178801
1.4586e-07
0.000207822
0.0164992
4.23964e-07
0.00854827
4.01599e-07
2.1962e-07
0.0015685
0.000627255
0.00112603
0.0130199
2.92213e-05
0.00243852
0.00136279
0.0178486
4.8461e-09
0.000502802
0.00155107
0.015232
0.00164548
1.88528e-05
0.0022478
0.0315135
0.000483672
6.44591e-07
7.0072e-09
0.00152602
0.00183411
0.00305919
1.45879e-08
3.15019e-05
4.23264e-07
0.000298095
0.00380884
0.00140454
8.20624e-08
0.00268961
8.22392e-10
0.0107158
0.00112948
0.000804531
0.00190399
0.00170386
0.00953096
0.000446102
0.0138287
0.000303713
0.00042327
1.17475e-09
0.00037871
0.000405405
0.000581335
0.00194674
3.38971e-07
0.00163185
0.00947812
0.00174605
0.000460546
0.0188255
0.00225122
0.00130367
0.0145228
0.00749233
0.0123267
0.0130941
0.00628261
1.64007e-07
0.321147
0.0621375
0.000386057
0.000573426
0.0147418
0.000727406
0.0242368
0.000103428
0.000403303
0.0142389
2.81543e-07
0.0067806
0.000614677
1.82399e-08
0.0075671
5.22671e-08
0.0312623
0.357392
0.00114005
0.0573325
8.41519e-10
0.00025611
0.00435179
1.65389e-06
0.102237
0.0024415
0.00166091
0.000464907
2.46514e-09
0.00342303
0.00279652
5.14967e-10
0.000489112
0.026547
0.000618779
5.76764e-05
0.0619552
5.11939e-07
0.00270502
7.68509e-11
0.000345784
0.00239309
6.89335e-09
1.21983e-09
0.00218445
1.11116e-08
0.00248659
0.000226342
1.87733e-09
7.87622e-08
0.00439702
0.00209901
0.00279516
5.47048e-10
0.00221471
2.15356e-07
0.00279438
5.09297e-05
0.0319409
4.5612e-08
5.53139e-05
2.75155e-09
0.00166539
0.0371127
5.03844e-09
2.79615e-07
0.000274723
0.00273391
0.000453094
0.00195442
0.296833
2.56835e-09
0.000231981
0.00232285
8.78379e-10
3.75197e-09
3.9789e-08
0.000179905
0.000502529
0.000391582
0.000529726
0.000448934
0.000203015
5.8691e-11
0.0115235
0.000221039
0.000394062
0.00147295
0.00394955
0.00354491
0.0444292
3.18886e-10
7.22238e-08
0.000138436
0.000100566
6.25113e-08
0.0027778
0.000619982
0.000514079
0.000120134
0.000348253
0.00038168
2.92048e-09
4.26803e-08
7.70257e-08
0.0226768
1.8864e-08
0.0085225
1.04448e-07
0.0156123
0.00115974
0.000120578
7.93257e-08
0.00438568
1.77764e-09
0.00409965
0.0192899
0.00227684
3.86465e-07
1.49039e-08
2.23447e-05
0.000606493
3.10441e-07
0.00388019
0.0163542
2.32384e-07
0.0104729
1.05527e-09
0.876459
0.440477
3.34847e-09
0.0409123
9.47985e-05
1.05144e-08
0.00939771
1.03135e-05
0.604194
0.0439681
0.00759285
4.00475e-09
0.0283293
0.392793
0.00291734
0.0249282
0.0044079
0.00219665
0.124757
0.0440857
1.03928e-08
0.000959536
0.0259717
0.0487057
0.00411935
0.000311738
0.0332421
2.23838e-09
0.0139254
1.08371e-08
6.76232e-10
0.00659234
1.06257e-09
0.00421515
0.00391135
2.07603e-09
0.00012754
3.15024e-09
1.08042e-09
0.0078467
0.00602687
2.80659e-09
3.18603e-07
0.00171261
0.00228545
0.00405045
0.000384381
0.011529
0.0637369
1.81882e-08
0.0330947
0.000140295
0.0043106
9.70278e-09
0.00223908
0.030185
0.00416361
1.40207e-08
0.0274327
0.000498006
3.7515e-09
0.000351075
0.00025916
0.000626653
0.0075122
0.0259479
0.014684
0.00740859
0.00549899
0.0010411
1.38116e-08
2.97727e-07
1.06295e-08
0.0042552
2.80696e-06
0.00471877
2.74449e-08
7.84317e-09
0.0015931
0.0014924
0.00180579
1.71377e-08
0.0102386
0.00193954
1.71858e-09
0.00342838
0.000276441
0.00183799
0.000459323
0.00683297
0.00238652
0.00510775
0.00044381
0.00635293
0.00224287
1.94521e-08
0.00264458
0.00311824
0.00186901
0.00153249
4.37342e-09
6.40425e-09
8.07694e-10
0.0346173
0.0017963
0.00701576
0.00184076
2.83791e-09
0.00334629
0.00839261
0.00228143
0.00257993
0.00362439
3.79951e-08
0.00170919
0.00190177
1.33433e-08
4.13293e-05
0.00299593
0.00264565
0.00799712
0.0290782
0.00167338
4.45996e-09
0.00297412
0.000299515
0.00426779
3.81504e-05
0.00616419
0.000354402
0.00280082
1.48752e-08
0.000730113
0.000921592
0.00721368
3.68868e-10
0.0201081
0.00612179
1.20545e-08
0.000264533
0.00159063
3.74025e-07
1.55781e-09
0.00247891
0.0218696
1.66081e-09
0.0376186
0.00232417
3.50113e-08
5.38675e-09
0.00153815
3.10622e-09
0.000878252
0.0137488
0.0232466
0.00206596
0.011816
0.00153821
1.72831e-08
0.00438933
0.0143501
6.7817e-09
0.00163035
4.97212e-08
0.0822216
0.0418527
2.93464e-08
0.00243804
0.00154751
1.9535e-09
3.21096e-09
0.0337903
0.00868625
0.0158546
7.5515e-09
0.000997487
5.21875e-09
0.0194263
2.49654e-09
0.00337171
6.54435e-09
6.47119e-07
0.0203017
7.83896e-09
0.000396696
0.00444221
0.00150062
0.00265778
0.00160672
0.0236859
3.23088e-07
0.00208232
0.0199891
0.000605851
0.000410058
0.000436729
0.000324626
0.00287979
0.0134081
0.000430312
2.30266e-08
5.06924e-05
0.00141164
8.40208e-09
1.00126e-09
2.11396e-07
2.64556e-09
4.86209e-07
3.7659e-05
0.0115806
0.00499943
0.000372829
0.000460561
0.000292682
0.0623177
4.03397e-10
5.02068e-09
0.0180907
0.00281024
0.001861
0.00332241
0.000518182
1.49308e-07
0.0182125
0.00220886
0.022908
0.000778983
0.0501016
0.014243
2.40174e-06
0.0257357
0.00326311
0.0892097
0.0074699
5.64887e-09
2.57177e-09
0.256262
0.00668766
0.00100221
0.00310064
0.000161312
0.00333942
0.0308401
0.0108952
0.00288134
0.144567
0.00637118
1.35762e-09
0.0178036
0.064174
0.0348505
0.00132861
0.0026188
7.01191e-08
0.00285998
0.000678257
0.0190321
0.0197137
0.000894229
0.052421
0.0230754
0.000619292
0.00262185
0.0137064
0.00325082
0.000720773
0.0505278
0.00260646
0.000112791
0.0107286
0.0108518
0.0217928
0.00261578
0.000270372
0.00276636
0.016309
0.000358008
1.22709e-08
0.17284
0.00336702
0.00123908
0.00160496
4.704e-05
0.00434592
2.6429e-09
0.0186134
0.00261811
0.0140863
2.64127e-09
0.00570635
1.12549e-08
0.0165031
0.000301395
2.89026e-09
0.00874813
0.00251981
0.00660156
0.0077203
0.00210925
0.0158708
0.000121533
0.0156906
0.0066398
0.00932673
0.0562517
0.00558678
0.0292582
0.0346249
0.0169496
0.00114174
0.0045366
0.00265612
0.000965805
0.000920863
0.00398446
0.00216695
0.000640471
9.88916e-09
1.33994e-07
0.00244882
0.00133084
0.00128258
0.0538645
0.00323432
0.00276027
1.43449e-09
0.000106083
1.07744e-09
9.48891e-09
0.00258873
0.0299334
0.00254361
0.00193113
1.43499e-08
0.0169975
0.002551
4.80918e-09
4.63539e-09
0.000239453
0.0346522
0.00681853
0.000521186
0.0022897
0.0044785
0.000220978
6.60306e-09
0.00494033
0.000429642
6.72456e-07
1.54737e-10
1.0025e-09
0.00187177
0.00221783
0.00104556
0.00867151
0.103211
0.000248091
8.4392e-10
0.00356769
9.4673e-09
0.0111087
0.00240104
1.80244e-08
1.96683e-08
0.00318888
9.60107e-09
0.010104
0.075204
0.0447696
0.000173901
0.000521987
5.64296e-08
5.60749e-09
0.00267609
0.00391883
0.000448459
0.00273098
0.0142073
0.00193047
0.000166867
0.00230942
0.000410369
0.0298031
3.46135e-09
3.70091e-08
0.0110476
0.00234379
0.000558632
0.0046855
0.00061481
1.11705e-08
7.35985e-09
0.00241688
0.0226762
3.88049e-10
3.25015e-08
6.13439e-09
0.00699263
4.57874e-07
0.000697756
3.50272e-09
0.00128063
0.00952086
0.000486194
0.0285953
1.03056e-09
3.53154e-08
0.00241233
8.05107e-05
8.06974e-09
0.00348019
0.00119714
0.00239731
7.20579e-07
0.00181071
2.14887e-09
9.28067e-10
0.00226716
0.00333566
0.00339766
0.301591
0.00163977
0.000948281
0.0022297
0.00295735
0.000251046
0.00028558
0.0037101
0.0021517
0.00308791
7.43076e-05
0.000907594
0.0140498
0.00278457
0.111855
0.000869791
0.0100619
0.0104159
0.0123538
0.00138169
1.00305e-09
6.4682e-09
9.35954e-09
3.93044e-09
5.07294e-09
0.000258491
0.0115618
3.53375e-11
3.36023e-09
0.00375933
5.92829e-09
1.4756e-09
0.0150801
0.0019649
0.0028921
0.00190563
0.00230929
1.45873e-08
0.00159095
4.7801e-09
0.0243176
0.0132847
0.0102602
0.00191943
0.000617827
0.00158846
8.2449e-09
0.000177946
1.33527e-08
1.41357e-07
0.00164291
0.0109968
0.0069416
0.00145414
0.00184805
0.0022716
0.00232223
0.00176655
0.000222604
0.00411967
2.97969e-09
8.20128e-09
7.60545e-09
1.39094e-06
0.00276963
0.000448716
0.000380319
0.002276
2.43235e-09
2.67141e-09
7.63426e-07
3.15501e-06
0.0537348
0.000477631
0.000654341
3.43931e-09
0.00294843
0.00221579
0.00192131
0.00343666
3.9923e-05
7.52446e-07
0.00105424
2.83625e-05
0.019471
0.00321432
0.0241923
0.00160624
0.0512331
9.77621e-10
0.00114513
3.56019e-10
4.18318e-08
0.00372945
2.83846e-09
0.00137974
0.00010348
0.00223945
0.0192423
0.00126303
0.00232395
0.00868487
0.00239259
0.0108375
0.003612
0.00163459
0.000892059
0.00505887
0.0296928
0.000303387
5.02084e-10
0.0634627
0.00887384
0.00641086
0.000377635
0.0652733
0.00193351
0.0151409
0.000153189
0.0172996
0.00316044
0.0013615
0.00245233
0.0024318
5.23723e-09
0.0402244
0.0145874
0.0145507
0.00314694
0.00231873
0.00153946
0.00333301
0.000953197
3.28458e-09
0.00166402
0.00313837
2.94456e-08
8.36894e-10
0.0019862
0.0359328
0.00308819
0.0003129
9.87133e-08
0.000406259
0.00168576
0.000733417
0.00146698
0.000717278
0.000728837
0.0140922
1.01849e-05
0.000593982
0.00204038
0.00125655
0.000127088
1.72139e-10
0.000231839
0.0022759
0.00293919
3.38392e-10
0.000380633
0.000665764
2.80703e-09
1.27638e-06
0.0168095
2.50874e-09
0.00329088
0.00156
0.00150427
0.00212913
0.00695089
0.00426842
0.000582987
0.0039065
7.41057e-10
0.00235636
0.00439454
3.78477e-08
0.00751032
6.32728e-10
0.00371151
0.0018851
0.0999784
6.19195e-09
1.227e-09
9.40127e-09
9.17535e-09
0.00180868
0.0029723
1.94304e-10
3.0991e-09
0.00138644
0.00541622
0.000584788
0.0028802
3.52171e-07
3.94923e-09
0.00951292
0.00241584
3.64824e-08
0.00221572
8.48484e-08
0.00395938
0.0033103
8.00004e-08
3.32778e-09
0.00365679
8.92299e-09
8.51625e-07
0.000344638
1.62381e-08
0.120184
8.03236e-06
0.000560629
0.00311303
4.29421e-09
0.0117181
3.75434e-10
0.0027545
4.83665e-09
5.33862e-09
0.000512708
1.93561e-05
1.77448e-08
0.00295168
2.20938e-08
2.7587e-08
4.87157e-09
0.0185865
0.000603411
9.86269e-09
0.000363365
0.00217768
8.76987e-09
0.00303609
0.0045227
4.98011e-09
0.000360671
2.9475e-09
0.000875802
2.70417e-08
0.012281
3.12861e-08
0.00158135
0.00209854
1.30913e-07
0.0841637
0.000381734
0.00306171
0.00110983
4.80806e-08
0.0023735
0.0045399
0.026469
0.0112629
0.000410461
6.63287e-09
0.0374783
0.0400099
0.000563895
0.0179205
0.00852711
0.000621674
2.40934e-09
0.000636589
0.000341712
1.58655e-08
0.000460444
0.00439464
1.08155e-07
0.000162912
2.58321e-05
5.34797e-05
0.00602026
4.99936e-09
0.00247054
1.34163e-08
1.38993e-08
0.000199259
1.22013e-07
1.66042e-09
1.00057
0.000186358
0.0193867
0.00306257
1.6894e-07
0.00029709
0.0179364
0.00188683
7.08392e-09
0.00238245
0.00563208
3.70334e-08
2.34566e-08
1.27732e-08
3.14887e-09
0.00222296
1.13599e-08
0.00248353
0.00448263
1.19068e-08
6.10517e-09
0.019859
0.00282675
0.00255211
0.000394486
0.00356718
0.000323
2.40278e-08
0.00236267
0.00922122
0.0125409
0.00607129
0.000755104
2.67651e-08
0.00258868
0.00191678
0.00205908
0.00267247
3.26889e-05
0.000310604
0.00367314
0.00168996
0.00333244
0.00271131
0.000751702
0.00465805
1.08115e-09
1.47278e-09
0.022643
5.09602e-09
3.19713e-05
0.00212561
0.00330863
0.0098482
0.00385016
1.24464e-08
0.00703658
0.00311517
3.17323e-05
0.00330234
1.43342e-08
1.30991e-08
1.83319e-08
0.00362441
0.0128715
4.63595e-08
0.00606826
0.00161399
0.15204
0.000167652
0.00370372
6.37498e-05
0.0120793
8.44406e-10
8.60912e-05
5.44939e-09
0.0222079
8.77873e-09
0.0026438
0.00262103
0.00343691
0.00679982
0.00215869
0.00219556
0.01684
0.00696844
7.94008e-09
1.27481e-08
0.0122105
1.47285e-07
2.94565e-07
0.00189993
0.00331263
0.00183436
1.20954e-09
9.50516e-10
0.00463699
0.0032572
0.00206777
3.64564e-08
0.00320031
0.00192387
0.000624965
7.69473e-05
3.5173e-09
0.00241442
0.0184038
0.00287052
0.00155186
0.00714738
0.000486721
0.0313734
0.00132053
0.00740302
1.43058e-08
1.36764e-08
0.000235208
1.40494e-08
0.000437567
6.09937e-08
2.70163e-08
0.00366134
5.69957e-07
0.0372273
0.000900338
0.007878
0.00214261
0.00741453
0.00332165
0.0148012
0.0174656
0.00140179
0.00977925
1.08163e-05
7.69369e-07
0.0013318
0.00181467
8.12193e-09
0.0040404
2.35785e-08
0.00286309
9.83607e-05
0.00265017
2.90209e-09
0.0028845
0.00132462
0.000427458
0.0265284
0.000162823
0.00133738
5.34421e-09
3.13461e-09
9.45153e-09
0.00543123
0.00245407
0.00209636
1.81569e-08
0.00159208
0.00312341
4.01576e-09
0.0157457
0.0133363
6.21454e-09
4.919e-08
0.00173743
4.55264e-08
0.00029199
0.000469944
0.00044803
2.52703e-08
0.00317646
5.76609e-05
0.00533378
0.000526658
0.0011784
0.000533021
0.00838212
0.00526652
0.00870381
2.47761e-08
0.0538067
0.0219005
0.0972484
0.00186389
0.000145321
1.70106e-09
0.000278504
0.00672496
0.0102378
0.0300331
0.0247059
2.27663e-08
1.17045e-08
0.0077986
0.000414965
0.0173764
0.301477
0.0175011
0.0003887
0.000767811
0.0161889
0.00160649
2.82485e-07
0.000901148
0.161808
1.3782
1.21073e-05
5.5647e-08
2.08741e-08
0.00487898
0.000950572
0.00178248
0.00273236
0.00196413
0.00436328
0.000886475
0.00230151
5.07552e-09
0.00243354
0.00273782
0.00255956
2.92368e-08
9.49567e-09
7.15944e-09
0.00467561
0.0147075
0.00402941
0.00258574
2.40095e-08
0.0016001
0.00137058
1.70847e-08
2.07588e-09
0.00885746
5.25535e-09
0.0313231
3.84353e-08
0.0487687
0.0150153
0.000247196
0.00495699
9.9607e-06
0.00235302
6.38341e-08
0.000873742
0.084115
2.13876e-07
3.11077e-08
8.29905e-06
0.00388095
0.00346597
0.00152153
0.000988722
0.000978947
0.00124835
0.00104056
0.00196583
1.52467e-07
0.06817
0.0265415
0.00292672
0.00149596
0.00287863
0.0669507
0.0119721
0.00406297
0.000291446
0.00719975
0.00267428
2.35182e-08
1.30257e-07
0.00479782
0.00681693
0.017228
0.00525001
6.6403e-09
0.00450765
0.0370777
0.0244256
0.00323974
7.63993e-05
2.98454e-08
0.0397562
0.0014598
0.0103059
0.000491847
2.19016e-08