/*--------------------------------*- C++ -*----------------------------------*\
  =========                 |
  \\      /  F ield         | OpenFOAM: The Open Source CFD Toolbox
   \\    /   O peration     | Website:  https://openfoam.org
    \\  /    A nd           | Version:  10
     \\/     M anipulation  |
\*---------------------------------------------------------------------------*/
FoamFile
{
    format      ascii;
    class       volScalarField;
    location    "44";
    object      SgT;
}
// * * * * * * * * * * * * * * * * * * * * * * * * * * * * * * * * * * * * * //

dimensions      [1 -1 -3 -1 0 0 0];

internalField   nonuniform List<scalar> 
59698
(
0.0131115
6.45213e-17
4.91799e-16
4.1506e-16
0.0305037
3.58176e-17
0.00213696
2.28483e-16
1.18663e-15
3.39622e-17
8.73021e-16
5.08681e-15
1.87133e-16
1.79602e-15
0.000360612
8.8098e-17
0.000671856
7.24389e-16
2.33977e-15
0.000253825
0.00137455
0.014262
1.20111e-07
5.50491e-19
0.042282
3.27662e-16
5.30194e-15
0.00763071
0.00679272
0.00747911
0.0048064
5.85861e-18
3.47001e-16
0.0124781
0.00246569
1.34164e-15
0.0189899
0.0205482
1.00021e-15
0.0226341
0.00863875
2.35672e-18
0.00370527
0.000634087
9.27677e-18
0.0322669
3.01054e-15
0.000730257
0.000249414
2.20914e-16
0.00151975
3.00565e-15
1.44813e-15
5.11134e-06
0.00924001
1.49328e-15
0.00132805
0.000212342
0.000808908
0.00287824
0.00345644
0.000500755
0.122583
1.50992e-15
0.0125339
0.00172791
6.73221e-17
4.62021e-15
1.9266e-15
3.3185e-17
7.85893e-10
0.000251494
3.59556e-06
0.0414118
3.03464e-18
0.0393886
0.000117586
0.0092293
0.000357775
0.00614671
0.00880896
0.000474906
4.57837e-17
1.35772e-16
0.0084417
0.000548232
0.000100599
4.53417e-16
0.0630669
4.52439e-09
2.64231e-16
0.00206534
0.0146871
2.78657e-15
3.56425e-15
1.21889e-15
0.00525895
4.9296e-16
0.000267118
1.16994e-17
0.0728546
0.00178575
0.0161794
0.0120312
1.84523e-15
1.23723e-15
1.03804e-15
4.13214e-16
2.26839e-16
2.28179e-16
2.76119e-16
2.65266e-15
0.0378653
6.05661e-18
7.52707e-16
1.16495e-15
6.90908e-16
2.62189e-16
3.72308e-16
6.93625e-17
2.87693e-17
0.000723373
3.24233e-16
1.18201e-15
1.10766e-15
2.75297e-16
0.010805
7.84974e-18
5.73103e-16
2.91732e-16
0.0417824
5.0558e-16
8.1597e-17
0.10008
0.00433028
0.00438105
1.94085e-15
3.79194e-17
1.60083e-15
0.000290975
3.36475e-16
3.06259e-15
0.000178753
0.00267028
8.00442e-16
0.000522423
1.5303e-15
2.07359e-15
4.12326e-16
0.0292818
4.2072e-05
9.49408e-16
0.00147402
1.29543e-15
0.000158346
0.000341321
5.07657e-15
1.05347e-15
0.0124041
5.19168e-16
0.000858284
3.33912e-15
0.0164109
0.0016357
0.00343053
0.032388
4.5029e-15
0.071331
0.000476913
0.000409556
0.011989
2.34829e-08
0.0108378
0.0148246
0.0792906
0.000156445
6.37616e-17
5.05504e-05
2.84225e-15
0.00637104
0.00948049
0.0183839
0.0148248
5.01481e-16
0.0456135
0.000235345
0.0114629
7.54923e-08
3.15505e-16
0.00118152
0.000394073
1.49938e-16
0.00267847
0.038673
0.00409396
4.83113e-16
0.00983369
0.0555693
1.42601e-05
0.0077103
8.44188e-15
0.0062451
0.0210792
3.46839e-13
0.00691992
0.000326998
0.00615717
0.000797533
0.00511193
0.00799429
8.21614e-16
0.00054599
0.00016073
3.41294e-18
0.00406902
3.98987e-16
1.88363e-15
0.000667585
0.0128043
0.00666251
0.00560966
0.000510926
3.09216e-16
0.0665361
0.000822136
0.0236969
0.00731789
0.0032353
0.00691593
0.159329
1.16572e-16
0.00469474
0.00293591
0.00319335
6.42475e-16
0.0096204
0.0831227
1.21222e-11
8.51903e-16
0.000449544
2.27131e-16
0.00147381
0.0134933
1.08516e-18
0.00609246
1.34688e-15
0.00377792
0.230456
0.00123465
6.36745e-15
0.00074586
0.0016443
0.000628359
8.87155e-16
1.68195e-15
0.000693008
0.00561965
0.00128902
3.12485e-15
5.29725e-16
6.91812e-06
2.36082e-16
0.000389066
0.00287469
0.000873354
0.0477919
8.16131e-16
2.68399e-15
4.67381e-16
2.50317e-16
1.21483e-15
0.044073
0.000152717
2.42688e-16
0.0180288
0.000206076
1.29822e-15
0.000504819
0.0020875
2.65001e-16
3.63355e-17
5.12501e-16
4.06055e-15
0.105237
0.0459761
0.0202859
0.000137146
3.3259e-10
0.0731922
0.000436558
0.0902601
1.59443e-05
6.84178e-16
1.39815e-15
0.000325474
2.48455e-15
3.20871e-05
0.000804894
0.00420811
3.77851e-16
0.0027217
1.06783e-17
3.71208e-17
1.67281e-13
1.16074e-14
2.81297e-15
0.0520732
0.00101459
2.02102e-06
1.66248e-15
1.02707e-15
5.19241e-16
1.14076e-15
1.75204e-17
1.19563e-15
0.00513547
9.80486e-18
0.000569472
1.00237e-16
0.000285902
0.000403061
0.323384
0.0010579
1.24561e-17
0.0482142
0.0105166
0.000315464
0.000525559
0.000440716
3.35249e-16
0.00655129
0.00415655
0.0203683
0.20538
6.42114e-17
1.87887e-05
3.09949e-16
0.000721568
0.00909437
0.00327148
0.0102509
3.94946e-06
5.28805e-16
0.00147883
9.68832e-05
1.01271e-15
0.000102074
0.0394764
5.31894e-16
1.44208e-05
0.00799044
1.71446e-16
0.0401712
1.94196e-19
0.245669
0.000253116
0.0141497
7.3045e-16
1.00359e-15
2.06011e-17
7.13863e-16
2.35292e-08
2.86274e-15
0.000891265
1.83174e-16
1.49422e-18
1.87464e-17
1.34574e-05
8.23304e-16
0.00166885
0.0018914
4.79541e-16
6.73622e-16
5.98508e-18
0.00619368
7.57277e-17
7.15288e-16
1.0894e-15
4.81536e-16
5.70857e-16
1.58683e-18
6.8359e-15
4.81315e-15
0.000525473
1.35786e-15
1.28308e-05
2.72987e-10
5.9617e-16
1.64034e-16
2.75264e-16
9.62111e-09
5.7374e-19
0.0012723
0.00260755
0.00128149
0.000477221
0.0477257
5.39784e-16
9.34493e-16
1.42179e-15
0.000409937
2.21302e-05
6.10905e-16
7.10578e-16
8.55724e-16
4.31062e-16
0.0819062
0.0254187
2.26745e-05
0.00542328
0.0316178
1.48e-15
0.000145882
2.85079e-15
2.39768e-16
0.0590193
7.43604e-16
0.0104038
0.000502646
8.32315e-05
0.000112353
1.28629e-15
3.60109e-05
0.309487
1.49173e-16
3.98575e-15
1.5923e-16
0.000215873
1.1613e-15
3.5115e-15
0.000258945
0.000189471
0.0151916
0.00303036
0.0021237
9.0079e-17
1.63761e-15
0.212057
1.89293e-15
0.00105984
7.62809e-19
5.1965e-10
5.47851e-17
5.3929e-15
8.33407e-16
0.00239968
0.0700612
3.72835e-17
1.34892e-16
0.00907201
2.51369e-16
1.01506e-16
9.25666e-05
0.0326743
0.000268542
4.63594e-15
0.108565
1.46454e-17
0.00969971
1.57905e-15
0.0543814
3.79879e-16
0.012586
0.0133307
1.04425e-16
0.000972435
0.000415633
0.00846911
3.2321e-05
0.00804243
0.000448623
3.09039e-16
2.17547e-15
3.64349e-16
0.000407239
0.000880484
0.0011184
0.0689721
0.00321492
0.000246051
3.99499e-16
0.000572654
7.95863e-16
3.90965e-15
0.00534495
6.48187e-16
1.93899e-15
4.13393e-15
0.0657717
0.00179428
0.0230983
0.0664714
0.00109665
4.99093e-15
0.0545506
3.18054e-15
4.58115e-16
8.45279e-16
0.00943508
2.84066e-16
5.54984e-16
0.0643031
0.0071584
0.00459799
3.3403e-16
1.39213e-17
4.36426e-16
9.1299e-18
1.39257e-16
0.00314274
0.000585413
0.0748134
0.00742444
4.65615e-18
0.00908929
7.08125e-17
1.17842e-16
1.97889e-16
3.74172e-18
8.0045e-17
0.00541985
0.00378588
1.37985e-15
8.95401e-17
2.14059e-16
0.00126704
0.00954965
3.31313e-15
0.00729445
0.000194845
6.40114e-16
0.0383451
3.73198e-19
1.57911e-16
2.36431e-17
1.84947e-15
1.19593e-18
6.64682e-05
1.897e-16
3.32343e-16
0.00973033
3.38931e-16
9.14523e-16
0.0675447
0.008195
0.0135486
0.0100107
6.32783e-06
0.0117251
3.82892e-07
2.00144e-15
1.23233e-16
2.11583e-15
1.33601e-16
8.42775e-15
1.87721e-16
2.95062e-15
0.00115792
0.00688726
0.000451251
1.64456e-15
7.72231e-16
8.23494e-16
8.14553e-05
2.1679e-17
1.36739e-17
0.0744867
1.02396e-15
0.00551262
1.79391e-15
0.00288143
1.39386e-15
2.10817e-15
0.00259983
0.00286761
0.00338172
5.10358e-16
0.00402561
0.000114838
1.91873e-17
2.06321e-18
1.38617e-15
0.00199445
1.37243e-16
0.00404162
9.89188e-16
0.00244498
5.46463e-17
0.00416657
0.00268164
0.00216436
0.000158078
4.63964e-16
2.1569e-16
3.07592e-16
7.17918e-16
1.2542e-12
0.0016913
3.61024e-18
2.73446e-17
0.00515734
3.3617e-05
1.15336e-15
2.53054e-15
0.0014823
0.00216296
8.71949e-17
2.40186e-17
7.41243e-05
4.67877e-16
1.63483e-16
0.000552118
4.98652e-16
0.00433461
0.00140446
0.00278571
5.72989e-17
0.22592
1.87898
6.11093e-17
1.32973e-15
0.000602464
0.00213119
0.000917443
6.13615e-05
3.86634e-06
0.00444515
0.00245706
0.00317109
0.00155395
7.3942e-05
2.08512e-15
3.19395e-15
0.00113594
1.49874e-15
0.00132932
0.000238398
4.72588e-17
1.28061e-16
0.106353
7.11299e-08
6.03401e-16
5.41497e-15
3.45434e-16
0.00243058
0.00380494
2.06927e-15
2.46408e-08
6.87893e-16
2.34096e-15
4.89993e-16
2.44757e-15
0.00828635
0.000641898
0.000331061
2.16834e-16
1.87312e-16
2.81734e-07
0.000325465
0.0002089
2.68899e-08
0.000812095
0.000880501
0.0198443
0.0896085
0.0013708
2.22375e-15
3.36818e-15
6.40574e-05
0.041519
2.74105e-16
9.37213e-14
8.0503e-15
4.03917e-14
9.47913e-16
0.00152907
6.40393e-18
0.00823948
0.0473312
3.39638e-15
0.000419001
6.29056e-14
1.66768e-18
3.27165e-17
0.000175383
4.2632e-16
0.00219561
1.11751e-15
0.000474443
0.008586
0.00441302
0.0361966
0.000837987
7.93548e-05
2.00278e-05
1.54839e-13
2.20477e-13
0.00117333
8.40093e-17
1.52735e-15
2.81082e-17
9.02894e-16
0.00661116
0.000821054
6.56431e-15
1.50554e-15
0.00634995
6.49883e-17
5.86903e-06
2.92444e-16
0.00156714
8.32554e-19
1.0377e-05
1.04755e-15
6.83386e-16
0.00195243
0.00920511
1.19958e-15
2.5393e-15
3.56826e-16
0.060451
0.000804948
6.25459e-16
0.000389149
0.00145825
0.0257034
0.00692378
1.33672e-15
0.0559363
1.35535e-15
0.00257038
8.76986e-17
0.00769578
6.86918e-05
2.12998e-18
0.0111684
1.59432e-09
4.42167e-15
0.00308713
0.0599839
9.6503e-15
1.15008e-13
0.244186
6.32098e-06
0.000743631
0.00239897
0.00190278
0.00172757
7.78485e-12
0.0133895
2.88922e-15
0.0599583
0.00317549
0.022476
6.85797e-17
1.1331e-11
0.105033
0.237142
1.73848e-15
8.87418e-16
0.0500727
2.48974e-17
0.00225781
0.00516338
3.51939e-16
0.00608091
0.00405312
1.43382e-15
8.41117e-16
0.00198209
0.0142464
4.80257e-16
4.58071e-16
1.20094e-15
2.95771e-16
0.00434794
1.11393e-15
1.18315e-15
0.00607612
0.00522912
1.2357
2.60371e-17
0.0246485
0.00974632
0.0210435
0.00105373
0.00477854
2.78572e-16
0.000967704
0.00158443
8.36516e-16
0.0065544
0.0111267
0.104644
9.77438e-05
0.00549437
2.52387e-15
6.60202e-16
8.88654e-15
2.04276e-14
9.67017e-16
1.14848e-15
5.45868e-15
2.93585e-16
0.00949739
0.000145057
0.000711986
2.80765e-06
2.27345e-16
0.00686105
1.93072e-16
1.44434e-16
3.77378e-15
8.03136e-11
6.45133e-05
0.013725
9.43217e-18
6.22271e-16
0.0199384
0.210081
4.19151e-16
0.00869907
7.87887e-16
0.000667302
2.67473e-15
1.92958e-15
0.00166948
0.000843059
0.00749626
1.55206e-16
0.00627398
3.16809e-17
1.35969e-16
2.36764e-16
7.19335e-15
3.91715e-16
3.9478e-06
6.99473e-15
6.8535e-05
0.000208235
2.4884e-15
1.50008e-15
6.50787e-15
2.4564e-15
8.63885e-16
0.00203377
5.13245e-16
0.0015288
7.44677e-16
0.0040618
3.30152e-16
7.46382e-16
0.0157752
3.57951e-16
3.07257e-16
8.9352e-17
0.0355536
0.00488903
0.000880867
2.8959e-15
2.13443e-16
0.0105997
2.17668e-19
0.00983504
1.22538e-16
1.92539e-15
0.000488306
7.98941e-07
2.52137e-15
1.06818e-14
9.48858e-05
2.25063e-16
0.00888735
8.89377e-18
0.00204611
1.46239e-17
2.74187e-15
6.4956e-05
0.0016482
0.000592934
0.000177502
1.51298e-16
0.00200144
8.7985e-17
3.64049e-17
1.31072e-16
1.00598e-15
7.31608e-16
5.62685e-15
2.72147e-15
0.000266558
0.00372466
0.0182771
1.67956e-16
0.00106221
0.00297666
1.16038e-15
0.00281607
1.02259e-15
1.0623e-17
0.00448822
0.000148932
9.15178e-19
4.01713e-16
0.00160904
9.57037e-18
0.00263412
1.46656e-15
2.03539e-15
0.0654826
3.14139e-16
4.38647e-16
1.72383e-16
7.64982e-17
1.09237e-16
1.05106e-15
3.26597e-16
1.21814e-16
0.0202464
0.00399953
0.000121282
0.0408783
9.31735e-05
0.0013278
0.115627
3.83724e-15
0.00457642
0.00452737
0.0325001
0.058734
1.56777e-15
8.67908e-07
5.19299e-16
0.0246934
0.000269869
0.000361722
0.00142057
1.23803e-17
1.97573e-16
0.00243028
0.000579885
1.55867e-05
0.00681045
0.00278966
6.33023e-16
8.34041e-05
0.0251022
0.000750535
8.98366e-16
5.09823e-16
5.84555e-14
6.49969e-09
7.74029e-16
0.00105744
5.59043e-16
2.56192e-16
4.53744e-16
4.40245e-16
2.68023e-16
7.31639e-16
0.00544038
2.28377e-16
6.29602e-15
0.00962698
0.00154104
0.000289991
0.000406367
0.000265063
0.000128865
0.000959452
8.61106e-17
4.95267e-16
4.92268e-16
0.000150906
4.13855e-18
0.000313638
0.0109276
0.0161768
0.0178081
4.99026e-15
1.01807e-05
0.00295602
0.00117142
0.0027508
0.00393438
0.000400147
6.80233e-16
0.000178715
0.000268129
0.0111029
0.0565969
0.00167667
4.71522e-16
9.69548e-16
7.97436e-19
8.83598e-05
0.00110431
0.000313024
0.00234685
2.95608e-15
1.60051e-15
1.57859e-15
0.00235919
0.00236268
0.000241915
3.43379e-16
0.0471749
9.4825e-16
1.58998e-05
3.16768e-16
0.0202746
3.87844e-17
0.000397934
1.45908e-05
0.0010775
3.28804e-13
0.00173878
0.00115841
7.98024e-16
1.31592e-15
5.20923e-05
4.31444e-16
0.00548439
0.00952908
0.0100873
0.00816547
0.00525587
0.00589731
4.07795e-16
4.2835e-08
3.28619e-18
0.00595015
0.00475231
0.00220247
1.05067e-16
0.000146965
0.00391612
4.35869e-16
0.00117028
3.21357e-16
0.0148869
2.58765e-15
0.0407064
8.18118e-05
0.736061
3.19155e-15
4.38664e-17
5.37853e-05
2.29162e-05
6.02038e-15
2.36144e-10
0.0039965
0.00700898
0.00176953
0.00063241
0.00355113
5.14321e-18
4.27901e-18
0.019717
6.38885e-16
0.000931844
0.00115801
0.000176464
0.000323814
0.0011166
3.17843e-16
4.56635e-16
0.00813759
0.0007809
0.0922509
3.99607e-16
0.000659556
0.0817041
7.7469e-17
0.00875449
0.0028115
0.0252205
0.000354407
0.00362826
4.35692e-15
1.4059e-15
0.00132091
1.61906e-19
0.00123453
4.21779e-05
6.92024e-17
1.90834e-16
5.00135e-16
3.32062e-15
0.00323922
0.00973687
2.16525e-16
0.00229585
0.000525949
3.23341e-16
0.0365417
0.0542481
0.00499504
0.000372395
0.00325607
0.455869
0.0239809
0.02625
4.25632e-15
1.16122e-17
0.102726
3.86105e-16
2.11236e-19
3.01431e-15
0.0144096
1.48006e-15
0.00170642
0.000320342
0.001748
5.56426e-17
0.00247252
0.00904176
0.002878
0.000649023
1.38175e-06
3.66771e-18
3.50037e-17
2.96987e-15
0.00363789
6.03074e-16
8.98169e-06
3.99677e-06
0.00778391
3.47627e-15
0.113984
5.81006e-15
0.00118815
9.84819e-16
0.00566616
3.04303e-15
0.00110931
0.00257055
1.21972e-18
2.14976e-15
5.77725e-17
1.81632e-16
1.31956e-05
1.20591e-16
0.0185418
0.0101939
6.95354e-16
0.00150343
0.0841056
0.00110619
0.00399459
1.775e-15
5.04546e-16
0.00372754
0.0363298
0.00901101
0.00265044
8.05727e-06
0.00191077
0.0033651
0.002976
0.00373686
0.00536804
8.04679e-19
0.116245
0.0501756
0.000486138
1.29831e-15
6.8526e-15
0.000481856
8.0303e-17
0.0260401
0.00113208
5.55632e-16
0.00230302
0.00042797
3.45895e-17
0.00356082
1.22939e-18
0.00269226
3.17291e-15
0.00148613
0.00377016
1.00217e-15
0.0194915
4.36632e-15
4.5916e-19
0.00363773
0.000183531
0.000401213
0.00210919
0.011839
7.47899e-19
2.42415e-19
0.000374657
0.000170939
3.3428e-10
4.66055e-16
6.4761e-16
1.17447e-15
0.000204309
6.38543e-17
8.25382e-17
0.000657299
1.72745e-15
2.8634e-16
2.96946e-16
0.000319423
3.73926e-17
1.79791e-16
4.46734e-05
1.73444e-15
3.70165e-16
1.38952e-14
4.33949e-06
8.51178e-16
0.00389378
0.10329
1.51321e-15
0.00479672
0.00168968
0.00172666
6.82995e-17
7.26647e-16
2.40869e-16
0.00829747
0.0200529
0.00285827
3.95151e-16
2.66465e-17
5.2734e-16
6.68915e-17
0.00476592
0.0093728
6.48843e-17
0.00209297
0.0028401
0.000101322
0.00358067
1.8065e-05
0.0145558
0.00191838
0.00254245
9.53057e-05
1.47198e-16
5.64901e-16
5.26616e-05
0.00564022
6.96842e-06
5.71715e-18
7.60527e-16
0.00502764
0.000244243
0.000247047
0.00102307
4.95115e-05
1.04929e-05
3.41677e-15
0.00392026
1.74599e-16
9.04185e-05
0.0284639
0.00210324
0.000845299
1.43503e-15
6.76598e-19
0.00100796
2.62868e-17
0.0146808
1.69632e-16
1.76362e-15
0.00121207
2.6883e-17
0.000889477
5.04339e-15
7.30988e-12
1.53249e-19
0.000215057
2.70772e-15
3.21156e-17
0.00201776
5.76472e-05
7.43834e-16
7.66499e-09
2.41428e-05
7.97008e-17
0.00575795
0.000204043
5.54545e-17
0.0474638
6.55785e-05
9.17e-16
0.000265022
4.09478e-19
1.78616e-16
1.58971e-16
6.74164e-16
7.57185e-17
9.84403e-16
0.000949073
0.000342182
0.00273128
0.00428426
0.00128638
6.55384e-16
0.0624945
1.36051e-16
3.82873e-14
0.00214812
0.000798426
0.0034229
1.0806e-05
4.79017e-14
0.351003
3.62851e-16
1.67596e-15
3.45125e-15
0.0229891
0.00305459
1.10861e-15
7.60313e-17
7.88194e-16
0.000589778
0.0363823
0.00217364
0.00867556
0.0118247
3.33177e-18
1.99951e-16
2.75517e-16
2.7992e-05
0.00831316
7.26291e-16
0.0751197
1.36618e-16
0.000486105
3.96291e-16
1.40959e-15
5.72585e-16
0.000377935
0.00864294
0.0180748
3.41512e-18
0.0018541
0.00451689
4.42463e-17
0.000237643
0.000992114
0.00198573
0.000413489
0.000798835
0.00748856
0.0106493
0.000589134
0.00160817
0.00265453
3.6768e-05
8.83246e-18
1.37876e-17
0.0137378
0.0116277
0.00349703
0.0474347
0.00265487
2.10461e-16
0.00524731
7.30912e-16
2.48438e-15
0.00106549
0.0223237
0.000280957
0.0206039
0.0116532
0.0341266
1.99366e-19
0.101077
0.00885345
0.00172615
0.00461209
0.0649705
0.000709333
0.00281281
4.22742e-15
1.11734e-15
0.00805747
0.00111188
3.09016e-16
3.06884e-16
0.000105142
0.0248958
0.293585
1.37645e-15
0.00898024
0.000289331
0.000144858
8.37797e-17
0.188147
0.00061969
0.286989
0.777391
3.27588e-06
1.32948e-16
3.54606e-16
0.000183185
0.0106775
0.00561113
0.0101636
0.062504
0.0343533
0.00183072
1.34412e-05
0.0102759
0.011341
1.95952e-16
0.000516632
1.60194e-16
0.000243909
0.000428351
2.80946e-18
0.138394
0.000201411
5.56791e-16
4.67652e-16
0.000262255
0.000180914
3.77637e-18
7.28685e-16
0.47764
0.0314121
0.185022
0.148435
0.00218705
1.5099e-15
0.00666989
0.00124461
3.05216e-16
5.98413e-19
0.0854252
3.33593e-16
3.27644e-06
3.10921e-15
2.47077e-18
0.0164991
1.34691e-15
0.00854827
2.47041e-16
1.48864e-15
3.04974e-16
0.000627046
0.001126
0.0130198
3.27978e-06
0.0011411
3.28971e-15
0.0149098
1.71975e-17
1.93333e-15
1.17885e-15
0.0134788
0.000150788
1.8607e-05
6.11782e-16
0.0315132
0.000483667
6.38959e-07
3.29066e-16
3.66433e-16
1.11073e-15
0.00305918
1.11694e-16
3.14934e-05
7.65847e-16
1.6424e-15
0.00012594
9.75947e-16
3.86137e-15
0.000210485
4.80432e-16
0.0107157
3.1845e-16
5.11994e-16
0.00190398
0.00170107
0.00953095
0.000446096
0.0103086
0.000303706
2.23785e-17
9.52406e-17
1.35708e-18
6.11195e-16
3.29613e-16
3.71717e-05
2.82993e-16
1.53636e-05
0.00947811
0.00173424
1.66344e-15
0.0175785
4.33652e-05
0.00020704
0.0145227
0.00624795
0.0123267
0.0130941
0.00335487
4.11528e-18
0.321141
0.0621374
0.000386005
1.53763e-17
0.0147404
0.000727403
0.0242366
0.000102991
5.30157e-17
0.0120408
9.94555e-16
0.00678059
1.1975e-16
1.24495e-15
0.00756709
6.36672e-16
0.0312617
0.355251
0.00114004
0.0549162
2.75885e-15
3.99681e-15
1.58418e-05
1.64519e-06
0.102234
1.25041e-05
0.00161096
0.000459788
8.77802e-17
0.00164465
1.77416e-05
9.76604e-17
9.88664e-16
0.0265461
3.85186e-18
5.76615e-05
0.0619543
9.52497e-14
0.00270498
3.90096e-18
1.45848e-15
0.0010793
1.92684e-14
5.43212e-15
3.3997e-06
2.73812e-15
0.00248659
0.000226304
2.11218e-15
7.50184e-18
0.000855895
5.50464e-06
0.00279513
1.88482e-16
3.5959e-06
8.93087e-09
9.08004e-05
5.09269e-05
0.031939
5.99127e-18
5.53065e-05
6.59204e-16
0.00166538
0.0337771
2.35952e-16
2.26773e-14
8.27517e-16
0.000297706
1.14666e-15
0.0019544
0.296832
3.70203e-16
2.8338e-06
4.21017e-05
8.64508e-17
1.97701e-15
3.18448e-16
0.000179872
3.66965e-15
0.000391313
8.11194e-16
0.000448736
0.000203008
6.70598e-16
0.0115235
1.26521e-16
2.95868e-17
0.00147295
0.000106626
0.00108811
0.0444292
3.57753e-15
6.82399e-08
0.000138429
0.000100562
4.6549e-08
2.65573e-05
4.38344e-15
9.13756e-16
4.24838e-05
1.0674e-15
3.47911e-16
2.41117e-15
5.77073e-16
7.54297e-08
0.0226767
3.45187e-16
0.00617636
9.32652e-08
0.0156123
1.52798e-15
0.000120559
1.9315e-15
0.00438559
1.17405e-15
0.00409957
0.0192899
6.75493e-06
3.80954e-07
7.08315e-16
2.23402e-05
0.000606477
2.88364e-07
6.96166e-06
0.0163537
1.16194e-07
0.0104728
1.38553e-16
0.876413
0.440475
3.79624e-12
0.0409117
8.24214e-05
1.26193e-12
0.0093977
9.79807e-10
0.604192
0.0439679
0.00455173
1.64035e-11
0.0283289
0.392792
5.91808e-11
0.0249279
0.0044079
0.00219472
0.124742
0.0440854
2.90506e-11
0.000959364
0.0259716
0.0487056
0.00411933
0.000311705
0.0313849
1.16554e-11
0.0139254
4.52735e-15
4.31958e-16
0.00659234
4.39922e-15
9.42212e-07
0.00391122
5.56687e-15
0.000127536
2.30911e-15
3.7523e-16
0.00784665
0.00602686
3.10333e-16
2.62516e-07
0.0017126
8.53638e-16
0.00405045
5.67241e-15
0.0115289
0.0637368
7.62453e-15
0.0330935
0.000140294
0.00115301
3.89203e-15
0.000449414
0.0301848
0.00416357
1.00212e-15
0.0274308
0.000498003
4.52342e-15
0.000351072
3.72449e-16
8.66146e-16
0.00537548
0.0259478
0.0146838
0.00512956
0.00549726
0.0010411
5.32545e-15
3.97001e-15
2.68245e-15
1.34781e-15
1.35117e-08
0.00163892
2.85424e-15
1.70996e-15
4.69658e-06
1.89566e-15
6.14686e-16
4.66288e-16
0.0102372
1.08045e-07
2.88271e-16
0.00341608
0.00027629
2.32023e-16
1.79236e-15
0.00683279
1.69333e-15
0.0050873
0.000443192
0.00429899
5.82512e-15
6.89231e-16
0.000208117
8.98244e-16
2.95128e-17
0.00153247
1.73096e-15
1.54019e-17
4.34613e-15
0.0346173
0.000166164
0.0042629
1.61251e-05
1.33904e-15
0.000313358
0.00839261
1.88355e-07
4.51828e-16
0.00362438
2.6573e-15
1.1564e-15
0.00190174
3.62333e-16
4.1008e-05
0.00299593
1.97547e-15
0.00600683
0.0290773
3.85317e-05
2.57056e-15
0.00297412
0.000299507
0.00426776
3.80829e-05
0.00616388
0.0003544
0.00280081
1.06343e-15
0.000730105
0.000921586
0.00721357
1.68312e-15
0.0201081
0.00611968
5.35837e-15
0.000264498
0.00159062
2.48044e-07
9.14332e-16
0.00247891
0.0218694
4.95981e-16
0.0376186
0.000415182
3.44463e-17
6.13304e-15
0.0015375
4.77985e-15
0.000878237
0.0137488
0.0213892
0.00206587
0.00960789
1.45026e-15
1.05709e-16
0.00438931
0.01435
1.25735e-14
1.42037e-15
1.09881e-15
0.0822214
0.0418523
2.29647e-15
6.33959e-16
8.43163e-16
4.255e-16
1.06885e-15
0.0337903
0.00868618
0.0158546
1.38094e-16
0.000997071
2.26354e-16
0.0194248
2.70907e-18
0.00337171
5.37907e-16
6.31043e-07
0.0203015
1.23381e-16
0.000396677
3.33972e-16
7.44977e-17
7.01011e-16
2.25891e-17
0.0236844
3.10578e-07
1.06959e-16
0.0199884
0.000605844
4.94758e-17
0.000436728
0.000324481
0.000487875
0.0134081
0.000430185
1.23091e-19
5.06499e-05
1.16535e-05
1.11256e-15
4.29707e-16
1.09229e-15
1.94879e-16
2.50531e-16
3.16803e-05
0.0115805
0.00288839
0.000372787
1.00572e-09
0.000292424
0.0602189
2.12617e-16
1.49028e-15
0.0180904
0.00281024
2.21703e-05
0.00332203
1.32627e-14
6.66681e-18
0.0182123
0.00220872
0.022908
0.000778974
0.0501016
0.01424
2.35959e-06
0.0257331
1.55013e-05
0.0892097
0.00325435
9.88542e-16
5.22764e-14
0.256258
0.00482346
0.0010022
0.00310064
0.00016041
0.00333936
0.03084
0.00855567
0.00288132
0.144567
0.00375026
1.92829e-18
0.0178036
0.0641736
0.0348505
0.0013286
9.82067e-16
6.46077e-08
5.53824e-15
0.000678234
0.0190319
0.0197136
4.59471e-09
0.052421
0.0230753
0.000619143
4.4783e-16
0.0137049
0.00325081
0.000720764
0.0505276
0.000533379
0.000112788
0.0107286
0.0108517
0.0217912
2.41768e-16
5.39552e-07
0.0015763
0.016309
1.41321e-15
4.80315e-15
0.17284
0.00257757
0.00123907
0.000724122
4.37418e-05
0.00434592
5.48135e-16
0.0186133
1.69108e-16
0.0140863
5.95529e-16
0.00570609
1.75993e-17
0.0165031
2.11264e-11
5.90981e-16
0.00874809
2.42808e-15
0.0066003
0.0077203
2.43737e-16
0.0158676
0.000121526
0.0156906
0.00662778
0.00932668
0.0562514
0.00558676
0.0292581
0.0346249
0.0169448
4.40217e-05
0.00453656
0.000173678
0.00096579
0.000920825
0.00126793
0.00216692
0.000640392
3.60091e-15
7.24216e-16
7.83585e-16
0.00133081
0.00128256
0.0522294
0.00323432
3.36624e-16
1.39847e-15
0.000106074
4.96724e-14
1.87257e-15
0.00107193
0.0299334
0.0025436
0.00193113
3.19841e-16
0.0169975
4.2819e-07
2.40669e-16
6.98531e-17
0.000239451
0.034652
0.00681323
0.000521181
0.000720043
0.00447847
0.000220968
3.09174e-15
0.00494028
1.10016e-15
2.5714e-15
2.25541e-16
6.29577e-17
4.54745e-05
4.76071e-05
0.0010455
0.0086715
0.101375
0.000248075
3.74148e-16
6.73834e-06
1.13483e-15
0.00835568
0.00240075
7.63633e-16
2.79683e-16
0.00318887
9.85897e-16
0.010104
0.0751734
0.0447689
0.000173899
0.000521946
6.29708e-16
3.40723e-15
3.76246e-08
0.00391882
0.000448445
0.000756956
0.0142072
0.00193043
0.000166867
2.22935e-05
0.000410341
0.029803
1.8286e-16
1.30621e-18
0.0110476
6.12505e-06
0.000558626
0.00468549
2.04948e-09
1.36281e-13
5.26171e-15
1.02283e-15
0.0226762
3.24992e-16
1.37144e-13
6.87298e-14
0.00510898
7.22347e-15
0.000697696
9.03111e-16
0.00128023
0.00952072
0.000486185
0.0285953
5.59994e-16
8.51301e-14
0.00241232
8.05098e-05
2.6448e-14
0.00348018
0.00119713
7.83179e-16
7.64698e-16
0.0018107
3.11925e-17
3.62296e-16
6.72899e-05
0.00333564
1.72897e-15
0.30159
1.90391e-16
0.000948281
6.13346e-16
3.09695e-05
0.000251037
0.00028557
0.00371001
4.65672e-05
0.000571472
7.40007e-05
0.000907587
0.0140495
0.00278457
0.111854
0.000869782
0.0100618
0.0104158
0.0123538
0.00138168
1.31664e-15
2.44887e-15
1.26893e-15
6.99705e-16
1.06235e-16
0.000258476
0.0115617
2.90805e-15
3.83942e-16
0.00375933
2.30743e-15
2.50349e-16
0.0150799
3.28088e-16
7.49447e-16
0.00190563
8.8811e-16
4.23752e-16
0.00159095
1.92589e-16
0.024316
0.0132845
0.0102601
0.00191942
0.000617816
0.00158846
6.46385e-16
0.000177944
1.66351e-16
7.74518e-19
7.05854e-16
0.0109968
0.00694158
2.10419e-16
1.26116e-15
5.4143e-15
0.00025882
1.3563e-06
0.000222558
0.00411963
1.38789e-15
6.94401e-16
4.46039e-16
6.08246e-17
0.00276963
0.000448687
0.000380284
0.002276
4.5104e-17
1.33796e-16
5.55437e-16
3.22033e-19
0.0537344
0.000477625
0.00065434
1.19537e-15
3.97176e-15
0.00221578
3.42711e-17
0.00343656
3.99142e-05
6.64433e-18
2.40184e-18
2.8295e-05
0.019471
0.00321432
0.0241922
0.00160624
0.0512331
1.92646e-15
2.24359e-15
2.58866e-16
3.34745e-19
0.000885002
2.81805e-15
3.26967e-16
0.000103421
2.62921e-15
0.0192422
7.99851e-12
0.00232395
0.00578967
7.17605e-05
0.0108375
0.003612
5.09521e-05
0.000892039
0.00318904
0.0296927
0.000303379
1.85551e-16
0.0634627
0.00887382
0.00641085
0.00037698
0.0623506
0.000271596
0.0151396
0.000153185
0.0172993
1.09965e-15
5.22548e-08
1.00251e-16
1.31969e-16
1.7851e-15
0.0402244
0.0145874
0.0145507
1.84664e-16
0.00231873
5.67319e-16
5.13451e-16
0.000953191
2.21955e-16
2.28415e-15
1.04586e-15
3.26584e-16
2.14742e-16
0.000256207
0.0359327
0.00308819
0.000312434
2.20375e-15
1.3581e-14
0.00168569
0.000733361
0.00146673
0.000717008
0.000728744
0.0140922
1.01802e-05
0.000593971
0.00204038
0.00125653
0.000127079
3.50631e-17
0.000231837
0.0002582
1.66752e-16
1.3073e-15
0.000380607
0.000665757
7.24275e-16
7.96854e-07
0.0168095
8.49916e-11
0.000584247
1.01741e-15
5.55919e-05
0.000505703
0.00695084
0.00290641
0.000582732
5.12418e-15
1.19534e-16
2.24043e-15
0.00439452
7.5637e-15
0.00751016
5.25653e-13
0.000695377
0.00188491
0.0957422
1.37708e-16
1.2571e-16
3.24132e-15
4.07083e-17
0.000434625
1.65645e-15
1.25702e-15
1.27501e-15
0.00138642
0.00374182
0.000584784
7.69481e-05
3.35712e-16
1.96347e-09
0.00951291
7.01272e-07
2.44126e-15
3.46825e-15
2.32723e-16
1.22547e-16
6.61274e-16
8.41451e-16
1.62072e-15
1.56744e-15
5.54249e-16
7.0933e-13
4.61346e-18
1.26829e-15
0.120184
8.00957e-06
0.000560621
1.05933e-15
2.48783e-15
0.011718
3.27872e-15
0.00275443
5.13795e-15
9.393e-16
0.000512693
1.93461e-05
2.79665e-15
1.8379e-06
5.30377e-16
9.83191e-16
1.37789e-13
0.0185865
0.000603402
9.85575e-16
0.000363353
3.33154e-06
3.13527e-16
6.42242e-16
0.00262728
2.49525e-15
6.76845e-17
3.06274e-16
0.000875799
1.11373e-16
0.012281
8.28461e-16
8.34284e-16
3.14276e-15
1.65972e-08
0.0841636
0.000381651
6.68559e-06
6.17043e-18
1.10013e-18
0.000210518
1.45602e-13
0.0264677
0.00867267
2.27195e-15
1.86451e-15
0.0374775
0.0400098
6.91434e-18
0.0179205
0.00600231
0.000621673
3.64365e-15
9.24356e-17
2.75559e-17
5.53415e-13
6.48898e-16
0.00439459
4.53352e-16
0.000162886
2.58294e-05
5.30862e-05
0.00602026
7.30546e-14
3.97192e-05
3.40591e-16
2.03132e-17
0.000199254
3.01938e-19
1.70883e-17
1.00052
0.000186329
0.0193866
0.00306249
1.03412e-15
1.51701e-16
0.0156635
0.00188679
6.91317e-16
1.61766e-05
0.00329102
6.38619e-16
2.2854e-15
6.81959e-16
8.16053e-16
0.00222293
5.22979e-14
0.000482127
4.72487e-14
5.59864e-09
3.99418e-09
0.019859
0.00282674
3.35099e-09
8.57381e-17
0.00356718
0.000322981
8.19056e-09
0.000243694
0.00921073
0.0125398
0.00412813
0.000755079
7.85801e-10
0.00258867
0.00191674
0.00205906
0.000467588
3.26346e-05
6.50046e-18
0.00367313
0.00168995
0.000126926
0.000108612
0.000751695
0.00158829
1.77559e-16
5.60614e-16
0.0226425
5.44707e-16
3.19676e-05
0.000332333
0.0033086
0.00984808
3.36245e-07
3.04657e-15
0.00548692
8.34683e-16
3.1718e-05
1.6556e-15
4.3387e-16
9.4665e-16
7.23108e-17
0.00362423
0.0128715
5.39071e-19
0.00606826
0.00161396
0.152039
0.000167632
0.00138039
6.3743e-05
0.00906614
4.36507e-15
8.60797e-05
1.03829e-15
0.0198975
2.54368e-15
0.000363297
0.000697303
0.000283012
0.00679981
6.49748e-05
0.00219541
0.0168399
0.00696844
3.99232e-16
2.50148e-16
0.0122104
1.89807e-15
1.59246e-15
0.00189993
0.000478941
0.00183433
2.35019e-16
9.95494e-16
0.00463698
0.0032572
6.37194e-05
8.92552e-15
0.000257719
0.00192385
5.49428e-17
7.69437e-05
3.25337e-16
0.000640051
0.0149403
0.00287045
0.00155185
0.00339204
0.000486705
0.0313734
0.00132053
0.00740301
1.36581e-08
2.29997e-16
0.000235206
5.3426e-16
0.000437564
6.45481e-16
1.80973e-17
0.00119918
1.78858e-16
0.0372272
0.000900327
0.00787799
5.42046e-05
0.00741452
0.000339278
0.0148012
0.0174655
0.00140178
0.00977924
1.07371e-05
5.32027e-15
3.25299e-05
0.000596812
1.97004e-15
0.000332883
6.80428e-16
1.27994e-16
9.83517e-05
0.00265015
6.27595e-16
0.000199627
1.98259e-15
1.22164e-15
0.0265283
0.000162821
6.52382e-16
6.5641e-16
2.64048e-15
5.78397e-15
0.00543122
4.40502e-17
3.48864e-16
2.20519e-16
0.00159205
0.00312336
1.53206e-15
0.0157424
0.0133345
1.93386e-16
2.37685e-08
0.000158776
3.63694e-08
0.000291959
0.000469943
0.000447999
2.05713e-08
0.00090826
5.76562e-05
0.00533208
8.2634e-16
0.00117839
0.000533014
0.00838201
0.00526652
0.00870357
1.21187e-15
0.0538063
0.0219002
0.0972444
2.04936e-05
0.000145312
5.50703e-16
0.00027119
0.00672495
0.0102378
0.0300281
0.0247058
1.47595e-16
1.89171e-15
0.00779852
0.000414957
0.0173763
0.301476
0.0175005
0.000388685
0.000767803
0.0161888
0.00159918
4.61513e-15
0.000901139
0.161808
1.37819
1.21027e-05
4.09009e-17
2.16701e-16
0.00346173
0.00095007
0.00178192
0.00273236
0.00196412
0.0021037
0.000886474
2.10138e-08
7.59239e-16
3.19293e-14
1.35825e-15
5.76661e-05
2.80087e-08
4.46142e-16
2.24119e-15
0.00320228
0.010978
0.00402941
3.05311e-16
1.91685e-16
3.28221e-05
2.63111e-16
3.60175e-16
2.03142e-15
0.00885474
3.0498e-16
0.0313229
3.75017e-08
0.048768
0.0150152
0.000245887
0.00215261
9.95906e-06
0.00235295
6.51991e-16
0.00087373
0.0841149
1.66291e-15
4.8598e-19
5.63887e-10