/*--------------------------------*- C++ -*----------------------------------*\
  =========                 |
  \\      /  F ield         | OpenFOAM: The Open Source CFD Toolbox
   \\    /   O peration     | Website:  https://openfoam.org
    \\  /    A nd           | Version:  10
     \\/     M anipulation  |
\*---------------------------------------------------------------------------*/
FoamFile
{
    format      ascii;
    class       volScalarField;
    location    "40";
    object      SgT;
}
// * * * * * * * * * * * * * * * * * * * * * * * * * * * * * * * * * * * * * //

dimensions      [1 -1 -3 -1 0 0 0];

internalField   nonuniform List<scalar> 
111485
(
2.28649e-16
0.00902254
0.0210434
6.90441e-18
0.0450039
2.40727e-16
0.0416638
0.00587319
0.0183902
0.00112849
0.0418496
0.00916126
0.0042479
0.00083734
0.00592697
0.0316631
0.00129464
1.99757
0.0100268
3.13776e-16
3.31489e-16
6.48761e-17
0.0234435
0.0355299
0.00847696
7.63334e-17
0.0400965
0.00174281
0.0159322
2.19425e-17
0.0434915
0.0173683
2.20403e-16
3.99223e-17
0.00966997
3.2878e-18
0.010546
0.00388917
6.46155e-08
0.021591
1.02136e-17
0.0720058
0.0144302
0.00099784
3.68189e-05
4.48879e-18
0.0328268
0.00072073
0.0475697
1.77661e-16
1.02934e-15
4.89833e-16
1.2622e-15
0.0444746
1.79108e-15
0.0430367
0.00355236
3.6371e-18
2.70515e-05
0.0044922
0.0149329
6.2798e-17
0.00401741
0.0884447
2.51546e-15
0.0035913
0.300977
0.0972142
0.000921278
0.0051217
6.62328e-06
0.0054801
4.62172e-15
0.00244502
1.13102e-17
0.000638021
1.29588e-16
0.042515
1.88058e-16
1.32006e-16
5.16577e-05
0.0316012
6.52219e-16
1.23753e-16
0.00813041
0.00442471
5.76767e-10
0.0225391
4.65749e-05
0.00678487
0.000867039
0.0410641
0.0103434
6.13873e-05
0.0559735
1.44986e-16
3.46048e-17
0.00145241
8.64883e-09
0.0014797
6.38429e-16
0.019512
1.70695e-18
0.0214729
0.00483064
6.85143e-15
2.48115e-18
0.00748226
0.00318934
1.49898e-07
0.00562212
0.0050716
0.00313808
0.00264286
2.09134e-16
3.05296e-05
2.58773e-16
1.70923e-19
0.0113595
8.20227e-17
4.44578e-18
1.41568e-15
1.81653e-16
2.81922e-19
0.00233777
2.33266e-06
7.52854e-16
0.00149755
7.14578e-18
0.000173268
0.000988374
0.0280668
8.98286e-18
1.23615e-15
3.18605e-15
0.0491749
6.63458e-17
0.04097
0.02254
0.0025556
0.000171996
0.00186935
0.0204552
0.00310454
0.00379337
0.0122031
9.31611e-17
8.29896e-17
4.80579e-19
0.0262481
0.00183011
5.41242e-17
1.33057e-07
0.00502926
4.80074e-07
0.0106304
0.0154629
0.00942942
1.68804e-07
2.47418e-18
5.85972e-17
0.0526974
0.0252315
5.16393e-06
2.31807e-07
0.00518662
0.00369028
4.21259e-19
9.96892e-06
6.58973e-05
1.41861e-18
4.44212e-18
0.000148436
8.85881e-18
0.00614297
0.00226982
2.56535e-16
1.4873e-15
7.6781e-16
2.5845e-15
8.87511e-17
3.41652e-17
0.00134156
0.00671478
0.0277217
0.00415861
0.00642051
0.00356657
9.50195e-05
9.94818e-18
0.00425198
1.99773e-16
8.91409e-18
0.00582173
0.0110695
0.0228179
0.0103169
0.00462834
4.71917e-17
0.00604653
0.000573056
4.52218e-05
0.0111766
0.00230492
6.14147e-18
0.00325685
0.0275379
4.89335e-16
0.000230149
0.00652795
0.00227953
0.000309214
3.90529e-15
4.62489e-17
0.00728478
7.27161e-12
0.12385
5.54874e-17
0.00601536
0.0190233
0.12185
5.28902e-19
0.00266805
0.0119918
1.96261e-13
1.14202e-17
2.99362e-18
0.166637
4.20025e-07
2.29513e-16
5.10145e-16
0.009143
0.00847035
0.0159992
3.77567e-15
3.19909e-15
9.41001e-06
3.49234e-17
0.00272658
0.00833076
0.0149839
0.0107801
0.0091764
6.83802e-18
3.22344e-07
0.000565383
2.91338e-18
2.00456e-16
0.0306819
0.0214602
1.14139e-15
0.00558815
0.00978539
8.95606e-18
2.13615e-15
0.000153194
2.14827e-16
1.65672e-14
3.92706e-05
8.59094e-17
0.0156145
0.0117297
0.00335983
2.90184e-18
0.0109643
3.6021e-18
4.8263e-17
7.48627e-19
3.72362e-08
0.0225567
0.00553002
0.00466596
0.0369613
0.0109679
0.00149792
0.000590644
0.0340443
0.00941746
9.31401e-17
5.09952e-17
3.3674e-07
0.0220604
0.021518
0.0128344
4.40466e-17
0.0063307
0.00194884
0.00276418
6.23594e-06
4.40701e-06
0.0122161
0.0021152
0.00186367
3.6906e-18
0.000778768
3.54792e-17
5.27097e-07
2.30438e-13
0.266652
0.0682481
0.0138376
9.54097e-17
1.3466e-18
0.00830957
0.00190059
2.50151e-16
3.00307e-17
3.75791e-15
0.000415091
0.0622579
0.00334115
0.0154449
0.0182883
1.58475e-15
3.0336e-18
5.82883e-17
0.00351254
1.30016e-12
0.00132668
0.18694
5.82309e-07
1.81063e-18
2.95657e-17
1.68523e-17
2.18032e-16
0.0574288
0.0123202
7.59191e-19
0.00486196
5.08502e-15
4.74123e-15
0.0671565
0.0053834
0.0107209
0.00854768
1.81412e-14
6.86569e-16
3.06636e-18
0.00872369
0.0189595
0.00468733
1.5778e-15
1.93165e-10
0.000225187
0.00177751
0.00734152
6.3402e-05
0.0284757
1.31786e-16
0.0370425
0.00315834
0.00785425
0.0230957
0.0147297
1.40204e-16
6.43576e-18
9.74708e-18
1.898e-17
0.0320968
0.00856552
0.0370835
0.0669843
9.03391e-17
0.0201525
2.14259e-18
2.15765e-16
0.0161395
6.27633e-16
0.0397266
3.00597e-19
5.05379e-18
0.0237418
5.25401e-19
0.0140975
0.000335249
4.47205e-17
0.00112367
0.015066
9.9519e-16
0.00797971
0.0106758
0.0073891
0.000435091
0.00292282
0.00614411
9.57021e-15
6.42076e-17
0.00136355
6.25513e-18
0.00500863
0.111977
3.11816e-16
9.4073e-18
0.0256116
0.000127617
0.0075955
0.0224567
2.07422e-16
0.0389883
0.0197501
5.00517e-18
0.000695975
0.00281993
3.14414e-17
1.00843e-16
0.0118049
0.00487806
1.02008e-18
1.26825e-16
1.074e-08
2.25692e-16
0.0105547
5.39424e-17
2.07942e-17
0.0177194
2.47388e-06
0.0146337
0.0266889
2.134e-16
3.4062e-15
0.00108245
5.15535e-15
0.000107698
0.0108163
0.121697
0.905647
3.43324e-15
0.00260253
0.000234641
1.89367e-16
0.0350325
0.0331376
8.96121e-19
1.14092e-08
0.000108583
1.79451e-16
0.0257071
0.0268888
0.0127632
3.67325e-16
0.000590425
0.020622
0.0212335
6.09669e-07
1.36782e-15
9.35052e-11
7.67701e-18
2.07806e-05
0.031843
9.93973e-18
0.00958017
6.81022e-05
1.01895e-14
1.94274e-18
1.29482e-14
2.57578e-16
0.00428754
0.00950589
0.00711842
0.00244116
0.00339053
2.86604e-16
0.00228176
1.42878e-16
0.0356576
2.8086e-17
8.38758e-17
6.39133e-18
0.0317841
3.89351e-18
1.31364e-16
3.37156e-07
3.9869e-17
2.69119e-18
0.000875269
3.21409e-19
1.14154e-14
3.85432e-18
2.41925e-17
2.58076e-15
5.60334e-18
5.98691e-16
0.00815722
1.95106e-17
0.000392559
0.00166377
0.00265792
1.52311e-16
0.000624821
1.018e-17
1.41928e-17
0.00311091
0.0020544
0.0294093
0.0222491
2.64584e-15
0.00187078
0.0726671
0.00842867
0.00110896
0.00365592
1.10488e-16
0.0223975
2.13488e-16
0.00428109
5.78756e-17
0.0691125
2.45465e-16
0.0210538
0.000323319
8.32736e-08
1.65051e-17
0.00232997
1.53788e-16
0.0759308
0.0443167
2.81626e-18
1.14351e-17
6.81504e-15
2.25e-18
1.9914e-10
0.0545941
6.04929e-16
1.00446e-18
0.00288019
9.73964e-17
0.0304138
1.95207e-16
0.000351132
1.81417e-16
0.00058615
7.49627e-07
0.00112203
0.0124482
2.79962e-16
0.000366196
6.15458e-16
8.67996e-18
0.0162773
8.84143e-18
3.57168e-05
3.76007e-15
0.00147686
1.16121e-16
0.0661542
1.4494e-16
2.55526e-15
0.0121374
0.00387712
0.00150443
0.00430749
0.00590839
0.0208845
5.07707e-18
0.0207353
0.00708265
4.2752e-17
5.69876e-08
0.0314417
0.0125513
8.12366e-16
0.00549971
0.00543911
0.00127728
0.00139321
1.48726e-10
0.0137986
0.00098294
0.000166658
0.0267637
0.0141722
0.00109374
4.11517e-15
2.98466e-09
0.619845
1.19365e-16
0.000418413
1.4433e-18
5.07788e-15
0.00729829
0.00363703
1.24686e-07
8.4057e-06
1.8358e-16
0.0185005
0.00994342
2.44732e-16
9.24137e-12
0.0020427
3.26585e-16
4.6752e-17
3.92776e-17
3.40158e-16
0.0152441
3.9621e-18
5.30479e-18
0.00987127
0.00233984
2.32701e-13
0.00938027
6.96852e-16
0.00860211
6.16767e-16
5.75708e-18
0.0571214
2.90318e-17
9.87584e-17
5.21929e-16
0.00490268
4.42884e-15
0.0328184
0.00638737
2.39252e-16
0.0728671
0.0028301
0.0261285
0.0235864
0.000929627
9.17611e-05
3.7994e-18
0.056923
0.0416042
6.57722e-18
0.000308879
0.0361898
0.00708413
0.0015575
0.0244323
0.0237692
7.84642e-17
0.0104651
3.68654e-06
2.65109e-15
0.032
0.000299141
2.80466e-14
0.0109182
0.0388223
0.00158807
0.018534
0.016844
0.00706155
2.08809e-15
0.00915727
0.000400133
8.00786e-12
0.0144586
0.014894
0.0347876
1.49197e-17
0.00211224
3.60978e-18
7.60886e-17
1.15583e-17
1.06952e-16
1.68508e-05
4.71093e-15
1.50976e-10
1.14138e-16
2.72563e-16
5.12181e-05
0.0396447
6.58188e-16
0.0366144
1.96938e-16
8.32256e-17
1.29382e-15
0.039654
0.000496385
1.02937e-14
4.31696e-18
2.95352e-17
1.14937e-17
0.238457
0.0684308
4.24126e-15
0.00176983
4.67904e-06
3.06461e-18
0.034899
0.00649899
0.0129284
4.48684e-17
1.28999e-17
0.00039266
0.00106906
9.35909e-15
2.45442e-17
6.26805e-16
0.00706659
2.24148e-18
1.78433e-16
1.59646e-16
0.0384897
0.00161493
1.03123e-16
4.12135
0.142732
0.0108951
4.62993e-19
2.04744e-15
0.056797
0.000304614
3.68296e-15
7.60582e-06
0.170069
0.00291266
0.0119137
5.58831e-15
0.0577977
0.00151976
4.31947e-19
3.88464e-16
4.62917e-17
3.12481e-17
8.90231e-18
7.95449e-17
0.0193259
1.19708e-16
9.27972e-17
4.18098e-15
0.0119226
0.0234243
1.69675e-15
1.88687e-16
0.105645
0.0133276
0.00877132
5.07417e-16
2.7064e-17
0.03459
7.34012e-18
0.0022758
0.00240235
0.00353449
1.40978e-15
1.0781e-16
4.79861e-17
7.19534e-18
0.0158618
7.25974e-17
1.58622e-16
0.000816716
1.41013e-16
0.0211428
0.00140682
1.59835e-15
0.0358218
0.600926
0.00232022
0.029432
0.000200193
0.0480039
2.39524e-10
7.37336e-15
0.0218639
0.0766188
0.00620442
9.15274e-16
1.32283e-09
0.517765
0.00988849
2.85581e-18
0.00291517
0.00313601
0.00143461
6.91981e-15
3.56667e-17
4.73052e-18
0.0126425
1.68303e-15
0.00232557
3.98658e-16
0.00145583
0.00127646
0.0343176
0.000535345
1.8498e-16
3.65584e-16
2.8008e-15
0.0197171
1.00145e-16
1.81451e-15
4.2969e-05
7.83089e-19
2.05474e-18
3.3335e-18
3.29484e-17
0.00897052
4.44965e-16
8.80962e-18
7.16769e-10
3.42089e-15
8.15975e-19
1.42679e-14
1.77198e-16
3.26611e-06
0.00151549
1.9211e-16
0.0033339
1.23002e-05
2.76433e-07
8.53658e-05
0.00439105
4.64279e-18
1.00562e-05
0.00928531
0.000371222
4.23273e-17
1.09093e-08
0.000752153
1.13426e-15
0.00888185
0.000299914
2.01146e-06
0.0253079
0.00866942
0.002159
0.0055415
0.00197547
1.93847e-17
2.53099e-16
0.0301291
0.0243812
9.16507e-18
0.00775927
0.0536781
0.027734
3.16597e-15
0.00166026
7.39764e-18
0.0102745
0.0134807
1.15149e-15
0.00144234
0.000475708
1.50101e-06
0.00451215
2.76277e-17
0.0471611
1.93508e-05
0.00186024
4.0216e-05
1.37632e-05
4.54832e-18
1.18736e-17
0.00832982
3.11594e-17
8.94115e-05
0.000328765
1.08111e-05
6.45827e-08
6.15092e-08
1.23256e-06
3.03566e-18
2.32594e-15
0.0216275
2.74879e-17
0.00115832
0.00234837
6.32914e-16
1.46787e-16
6.38987e-07
1.49581e-10
1.36462e-17
3.34056e-06
2.4826e-17
1.03913e-17
2.68782e-18
5.76287e-17
4.92881e-15
9.27666e-17
0.000330606
6.1859e-16
6.34574e-19
1.56089e-17
4.73092e-06
7.04853e-05
0.00204179
0.0091605
1.51195e-16
9.38931e-17
0.000232666
7.38831e-17
3.08474e-16
9.7665e-14
0.0194841
0.0407456
4.58997e-16
1.48722e-17
3.48189e-16
2.13202e-15
5.2995e-18
1.67622e-16
0.0084545
1.0856e-16
7.90723e-08
0.0269208
3.87827e-17
9.0117e-17
6.10172e-16
1.52936e-05
9.65164e-16
3.27889e-17
2.17125e-17
5.91069e-06
1.02346e-17
0.00530367
1.07034e-06
4.3525e-09
1.494e-17
4.68451e-05
0.00260443
0.0434699
1.72749e-15
5.54134e-06
0.00721894
6.63586e-16
1.70028e-16
3.82269e-14
4.7624e-16
0.00786987
0.00174661
0.00396192
1.59866e-07
5.18545e-18
0.0223045
2.26706e-17
3.76502e-15
1.24055e-13
8.6009e-19
0.0252992
3.18954e-17
1.20109e-15
2.63732e-06
0.0487865
1.30734e-16
0.00300167
4.13222e-16
0.00112405
1.47114e-15
1.91762e-17
3.36553e-17
2.82302e-16
0.0026443
0.000683148
0.338662
1.28337e-16
5.41952e-16
0.00205272
8.799e-17
1.39927e-15
1.21961e-16
0.0422377
5.62186e-06
0.028683
3.19724e-16
6.49313e-06
2.96392e-05
4.96999e-14
6.9402e-05
4.94521e-16
0.00182388
0.0276372
0.0200053
0.00164528
0.000326749
3.41365e-16
1.29188e-17
2.3129e-17
1.39893e-05
1.42394e-18
0.00544312
8.52793e-18
0.175761
3.33106e-17
0.0417085
0.00354272
3.19916e-15
9.08588e-17
1.06756e-15
2.05707e-18
0.0313366
5.96058e-15
1.85162e-13
0.0129852
0.00536142
3.02664e-15
5.08616e-15
1.71284e-14
1.07696e-14
3.02986e-15
3.11071e-18
0.0203948
0.000519731
5.6653e-17
1.97312e-16
2.76836e-07
8.46198e-17
0.00132905
0.000116009
2.21472e-16
0.00271095
2.00396e-17
0.000331751
6.88625e-16
0.000889258
3.43618e-16
1.27412e-07
1.80227e-06
0.000876756
0.0144
0.0274218
1.01278e-06
9.01815e-17
0.000449883
9.46804e-17
0.00436731
4.88385e-17
5.52975e-18
8.92694e-14
6.5467e-18
1.24552e-17
4.60096e-18
0.00569722
0.00627551
2.816e-17
4.67298e-14
2.66377e-15
0.000535036
1.76135e-05
6.63868e-18
0.0184357
0.000213074
5.9029e-16
0.0224818
0.00811728
0.00331976
0.0134641
1.13915e-16
7.28345e-17
2.87977e-17
6.66926e-16
0.0362695
9.02957e-17
0.103809
8.91958e-18
0.000216809
0.000729445
4.56874e-19
0.000670005
1.23951e-17
1.21622e-16
0.00227031
2.58871e-08
0.00590133
3.39722e-17
1.20075e-15
6.4159e-17
0.000694739
3.03127e-15
2.63662e-18
7.03097e-16
5.10711e-07
1.83231e-15
1.1913e-05
5.19289e-16
3.21624e-16
3.96389e-16
0.0178343
0.00958607
0.0176842
0.0342959
2.30378e-18
9.65744e-06
6.22454e-18
1.06014e-18
0.0107352
2.51236e-17
3.10857e-06
0.000255357
0.00628856
0.000240378
9.74891e-11
0.00242449
5.86471e-19
1.68846e-10
9.84057e-10
9.31561e-05
0.00123526
0.0134723
6.59216e-08
2.41976e-16
0.0311723
5.47343e-17
9.73394e-16
2.96695e-05
0.074524
1.01329e-07
7.73474e-18
3.28163e-17
6.03386e-07
6.07211e-16
6.38951e-15
1.01634e-05
1.63789e-15
1.02964e-15
0.0419787
0.00014172
0.000105992
0.0234432
0.00717133
8.96315e-16
1.25667e-17
3.67325e-06
0.00420062
7.67748e-17
1.38331e-15
0.0112366
1.52756e-16
1.18631e-13
8.21692e-16
3.13244e-15
4.80055e-13
2.52199
1.51919e-16
0.000184091
2.88898e-17
0.0153212
1.8286e-16
3.33833e-12
7.66822e-15
2.99659e-15
1.60829e-18
3.94797e-16
0.00336423
5.23361e-18
3.05952e-16
2.00092e-15
3.36729e-16
2.82696e-18
1.32668e-17
0.00996571
9.58589e-17
0.0110373
0.00234012
1.19885e-15
0.00172616
1.33958e-16
0.000399588
1.49981e-06
0.00407132
0.0141923
1.4743e-16
8.96395e-05
0.00933886
4.50216e-06
1.19712e-18
1.08031e-06
0.0169617
0.00475942
4.79874e-16
0.0267151
1.57293e-15
1.27126e-18
4.44766e-16
9.60892e-17
0.00827268
4.05589e-17
3.43249e-16
0.00805361
1.07878e-07
0.00278291
1.03605e-18
7.57319e-14
0.000675828
3.50064e-18
0.000147378
7.44718e-16
0.0217484
3.15971e-16
2.65243e-17
5.53827e-05
3.04416e-16
0.00010161
1.84557e-16
2.17527e-16
0.00534529
0.000392159
0.00488971
0.0174756
0.217638
0.0197364
4.79962e-16
2.81963e-14
0.00237045
0.00669073
0.0352021
0.0133444
5.91484e-17
0.011284
9.1127e-17
6.73786e-17
0.00763391
0.0095967
2.46831e-15
0.0124337
1.62377e-17
0.0028422
0.00827284
3.95268e-16
4.75319e-17
7.37178e-18
0.00232388
3.01526e-16
1.60899e-17
0.00354708
0.0199368
3.99603e-06
0.00767859
2.4899e-16
5.9505e-18
5.47901e-05
0.00065716
3.25051e-16
0.00923716
6.94379e-15
0.00243434
2.81716e-17
2.01392e-16
0.0111164
1.6919e-17
4.50553e-05
0.00296567
1.74331e-15
5.49678e-17
0.00365043
2.50813e-11
0.0539121
1.08679e-16
0.28529
2.50916e-17
5.44475e-14
1.72776e-14
0.00642737
1.73291e-15
1.15313e-15
0.00501706
7.38757e-15
0.000161902
3.01023e-16
3.08417e-16
4.33461e-16
1.56535e-07
0.000773853
2.16109e-17
4.13691e-17
0.0359661
0.000940819
3.06356e-16
0.000596263
3.76859e-16
3.82024e-16
1.21391e-06
0.00368895
0.00117272
2.62661e-16
2.35798e-17
3.79231e-17
1.73329e-17
1.89034e-15
4.56633e-15
1.834e-17
3.53572e-16
1.3968e-16
4.39569e-16
7.76043e-18
6.77447e-17
4.05312e-17
2.71273e-16
1.355e-17
1.54248e-15
9.55206e-17
2.17786e-16
1.71868e-16
4.98483e-17
2.83829e-18
0.0183497
3.54635e-16
3.70587e-17
2.11658e-18
0.0061953
6.33025e-18
7.63205e-17
0.194528
6.72627e-16
2.47782e-17
0.0219166
3.7693e-12
8.3499e-16
0.0043751
0.0232892
2.46906e-17
0.00127063
0.00216018
3.19137e-15
0.0111003
0.0373915
0.0165308
0.00287479
0.00976279
3.86382e-16
3.52607e-16
0.0027524
0.0101733
0.00268371
1.25897e-17
0.0055996
0.00135141
0.0186417
0.0107076
0.000639462
0.0135883
0.00106895
0.00844624
8.81702e-19
0.0265812
0.00755859
0.00181894
0.00117381
1.02119e-17
6.27631e-17
1.95193e-18
1.51451e-17
6.88024e-18
0.00873718
0.0121989
4.06572e-19
4.39239e-17
3.5247e-15
6.1684e-16
5.60291e-16
3.43309e-16
4.92417e-16
2.86594e-16
0.00409683
8.69722e-05
0.0194743
4.9048e-05
1.43867e-17
3.48098e-15
0.0331565
2.82213e-06
3.63274e-16
1.52803e-16
0.00701138
5.96587e-18
3.04564e-17
3.60038e-06
0.00701472
0.0122233
0.0293574
0.0270151
1.42552e-16
0.0139873
0.000260757
2.78492e-14
2.85168e-16
0.0101788
5.58566e-16
1.65318e-16
0.0276754
0.993964
0.000149302
1.46024e-14
3.97801e-18
0.0153997
0.0222134
0.0162137
0.00577141
0.00198832
2.06509e-17
6.8347e-07
2.27305e-09
2.35834e-17
3.27342e-15
0.016976
8.43218e-18
0.00194059
0.0258719
0.0155102
0.0119822
2.21843e-17
0.00523588
7.21983e-18
2.51203e-16
3.16738e-17
1.74418e-17
0.00250983
0.710021
8.14138e-18
7.22564e-17
4.11681e-06
0.0224796
0.000463926
0.00617131
0.0312012
0.00456187
0.0197268
2.85155e-15
3.89125e-16
7.87674e-15
0.0306403
0.00511016
2.70825e-08
7.17698e-16
9.26209e-17
2.35699e-14
0.0186995
0.00268888
1.95565e-17
0.0043227
0.0450324
0.00817448
0.00544179
6.04185e-17
7.04534e-14
0.00613318
0.0214973
3.82447e-18
0.000238269
0.0120388
0.000856692
0.00884865
0.00411223
0.00747972
2.78713e-14
0.00346643
0.0186864
0.036475
1.27048e-09
0.0230039
1.04107e-13
0.0159205
0.000147194
1.87341e-18
0.00249404
0.00634354
0.000312284
0.0106791
2.17681e-07
0.000191809
1.72809e-05
0.0245974
0.00311491
1.70962e-15
0.0377609
0.00105589
5.97609e-16
1.36868e-17
2.55988e-08
5.03931e-06
0.000901824
1.0133
0.032511
0.0077681
2.56509e-07
0.0370964
5.83696e-16
4.44369e-18
0.00383195
2.5666e-15
0.00230762
0.00615317
0.00180704
0.00445722
3.27017e-17
0.000238449
0.102127
1.2335e-16
0.0596126
0.00653406
5.51771e-17
0.00341891
0.00018082
1.28229e-17
2.11285e-09
9.4848e-05
3.32128e-16
5.79495e-17
4.7218e-18
0.00426916
0.00449625
0.0132504
1.12367e-17
0.00560793
0.0296839
1.36546e-15
0.00701941
0.0108719
0.024072
0.001303
1.53909e-16
0.000616709
0.00894589
0.00917243
0.00780272
0.0369194
0.146458
0.00324722
4.47016e-17
5.95214e-06
0.0503184
4.05606e-19
0.000375037
1.74048e-18
1.27083e-17
6.44222e-18
6.6423e-20
2.99102e-18
0.00265886
2.02037e-17
0.00613075
0.00144128
2.21523e-18
0.00408399
8.29341e-15
0.0139203
1.14698e-16
6.89933e-06
3.36227e-15
0.0206339
0.000111393
1.27092e-06
0.00357316
0.0277743
0.0165566
0.00364137
0.0239593
2.28136e-12
0.0196756
0.0497452
0.00819051
3.21305e-18
0.00118866
0.00035778
0.00479094
0.0113059
0.000754746
3.48434e-17
2.67809e-16
4.04494e-18
0.00404588
2.63714e-17
4.75652e-05
0.00022751
0.000535121
0.000271489
6.11095e-16
3.24597e-17
9.95915e-17
0.00738347
0.0199902
0.00127626
7.31834e-06
0.00185386
0.00612954
0.00196681
0.000719818
0.00628964
0.00530284
0.00231745
1.95423e-15
7.26742e-18
9.58094e-18
0.0138014
0.0102506
5.59567e-16
1.39671e-16
1.77792e-13
0.00707779
0.0186013
3.8702e-16
0.00189025
3.45987e-17
3.75356e-07
0.00524932
0.074122
2.91505e-18
1.57894e-18
0.00342119
2.25219e-17
8.4812e-05
0.0109817
8.86242e-16
0.00938501
0.0313399
0.0160248
1.17198e-16
0.000660167
2.21732e-15
5.70516e-05
0.0454422
6.65787e-17
9.64978e-19
0.0107319
3.60908e-13
8.65978e-17
3.51375e-05
0.00107345
1.88281e-17
8.05493e-17
1.44974e-15
4.66283e-05
0.00124541
0.00305387
0.0201855
0.00945046
1.69689e-16
3.25138e-07
0.000421075
3.37802e-18
5.46962e-18
1.18087e-18
1.72837e-16
3.71803e-15
2.24653e-15
3.48033e-15
2.30182e-16
1.57737e-14
7.69485e-17
1.38783e-09
2.38797e-15
0.000410193
4.03856e-15
8.61196e-05
1.47189e-14
6.33584e-05
1.98955e-13
3.29572e-16
0.0220003
0.00804214
4.06283e-15
0.086721
1.56451e-09
3.5073e-11
3.89914e-16
0.00104455
1.29944e-13
0.00218771
4.75811e-06
0.000972605
7.4816e-15
3.25087e-16
0.000633889
5.8375e-08
4.22546e-16
4.48615e-19
0.0368761
3.5633e-15
0.0339015
1.22989e-14
4.34583e-18
1.10543e-06
0.0266655
0.00844021
9.47408e-17
0.000399109
1.76942e-15
0.00102898
1.21997e-05
0.00186583
0.000645477
1.03911e-18
0.0190145
0.000757106
0.00480965
1.18178e-16
1.81074e-16
1.72639e-16
0.00521056
0.0039834
0.0440398
1.71437e-17
2.34187e-07
3.46993e-17
4.08299e-17
1.61277e-15
1.04412e-16
0.00237935
0.00156507
0.002365
0.279351
5.04194e-17
0.0286962
0.0329529
0.0174922
0.00122511
7.17611e-19
0.00544706
0.00326438
0.00476815
8.40841e-07
0.00961098
5.6917e-16
0.00172238
0.00089109
0.0303793
8.05757e-07
0.00241312
7.65127e-16
0.0166217
2.93296e-16
3.59803e-17
0.00142528
1.24023e-18
0.00695281
1.24168e-17
2.67561e-16
1.69587e-15
1.21842e-16
6.19034e-18
0.000590925
7.06805e-16
0.000599296
1.86395e-15
1.90848e-17
0.0187873
0.00592963
0.00718848
0.0080834
2.02723e-17
0.555184
9.17384e-18
0.066672
8.77181e-16
0.0185494
0.0180642
0.00183289
0.0533757
5.69831e-15
1.42616e-14
5.23854e-16
0.00205834
4.96925e-17
1.21444e-16
0.01677
2.18521e-16
1.76877e-16
0.00404123
1.26555e-15
0.0125738
1.1119e-07
1.85687e-14
5.91745e-15
3.07937e-15
0.00143197
0.00574722
2.64849e-17
0.0207111
0.000242363
2.55506e-15
0.0942054
4.98658e-17
0.0153888
0.0170184
0.00296007
2.5939e-16
0.015491
0.00824229
0.000598111
0.00410608
0.0111032
1.49647e-16
5.42124e-16
1.49133e-06
1.72527e-16
4.24933e-17
3.21137e-17
0.0182942
0.0358391
0.00400292
0.00175192
1.78636e-15
0.0416504
0.0429888
0.00365578
0.00300009
0.00796388
0.0200851
0.00204128
1.03787e-16
1.67873e-17
1.55548e-16
0.00504911
2.51465e-17
0.0241688
1.60531e-15
0.000630879
2.92883e-07
0.00238758
0.0208623
2.05793e-16
8.74365e-18
0.00197868
0.000278701
1.13749e-16
1.32493e-15
5.53071e-19
2.70594e-05
0.000258005
0.000105892
0.000634609
0.00876721
0.083642
8.24974e-16
1.56213e-16
1.99338e-16
0.00354924
0.0188292
0.0186838
0.0310015
0.0019127
0.00211139
7.42163e-17
1.341e-16
3.15037e-13
1.30168e-16
0.00934525
0.0190767
1.56304e-16
1.1014e-15
6.62085e-16
4.77715e-18
1.79915e-19
2.03214e-15
0.0109367
8.43095e-16
0.00108568
0.291555
5.93609e-17
1.55219e-05
0.0208915
0.000617986
9.99634e-18
1.37299e-15
0.00368129
8.25377e-17
0.0116097
1.46312e-06
0.0218106
9.10818e-16
1.65643e-12
9.32822e-17
7.83041e-17
1.00602e-16
3.15047e-16
0.173365
2.89406e-16
0.00440933
0.00105885
1.36158e-16
1.40507e-16
0.00146345
6.72315e-17
3.6982e-17
0.0141959
4.99932e-05
5.27461e-16
2.01876e-16
3.88953e-16
0.0148015
2.14037e-17
5.17693e-17
0.000241519
0.00196825
0.00224779
1.63064e-16
1.59969e-16
1.25257e-15
0.00295132
0.00140612
0.01036
0.00295166
2.00039e-17
0.00068576
0.0123629
0.00582246
9.86796e-18
1.10793e-17
5.88535e-17
4.09594e-17
4.43445e-17
0.0282181
0.00717415
0.00426238
8.91971e-18
1.3741e-17
1.1174e-17
6.38683e-18
8.5601e-16
6.35353e-07
0.000291159
0.0022998
1.94759e-16
5.85822e-17
6.6351e-18
3.82171e-09
0.0275198
0.0947019
1.25883e-17
5.54588e-11
3.0974e-13
5.05409e-16
1.16746e-16
0.00326562
0.00676116
7.29167e-17
2.17631e-15
0.00243756
4.31003e-17
0.000678841
0.00115029
2.00897
1.00836e-16
9.22143e-16
0.0119834
0.000361346
1.49032e-15
0.634801
0.000510173
0.00672682
3.484e-16
9.33522e-16
8.50356e-18
7.56939e-17
0.00696117
9.02886e-05
1.48422e-15
0.0216809
0.0159712
0.838303
3.63732e-17
3.53307e-17
1.23817e-16
1.16308e-16
0.00536336
2.82191e-08
3.93991e-16
2.52654e-15
0.0167603
0.00105622
0.00481404
5.30689e-17
1.13959e-17
0.0256027
2.6347e-15
2.2422e-16
8.1372e-17
2.5797e-16
0.022732
2.67857e-16
1.60418e-16
5.12068e-16
0.0228875
0.0126163
6.91582e-17
8.58659e-18
8.25569e-18
0.013384
7.41923e-08
3.86856e-16
2.9322e-16
4.03805e-17
1.61157e-17
0.00217059
0.00864615
6.08521e-19
0.00205562
0.000864111
0.00392702
1.12487e-17
4.84548e-17
5.88784e-16
4.30779e-18
9.19522e-17
0.0213936
1.64999e-15
0.0155189
3.90582e-15
0.00115239
5.64507e-14
0.00169889
7.7233e-17
3.91622e-17
0.010166
0.261392
5.05063e-16
0.00259178
4.55022e-16
0.000285708
4.85818e-15
6.42344e-16
2.94924e-16
1.6629e-07
4.9193e-16
0.000358628
8.0108e-17
0.0334946
2.70111e-17
2.38177e-15
1.70142e-17
1.09109e-16
7.13804e-06
0.000111071
9.25436e-17
0.0037655
7.90536e-20
0.00351677
0.0195545
0.000889798
2.05494e-18
2.97475e-06
0.0003056
1.37521e-06
0.00490611
4.94413e-07
0.00119412
3.47254e-15
2.01756e-16
3.26493e-07
0.00471723
0.000169083
2.85989e-16
8.86364e-16
9.01428e-16
0.431004
1.49862e-18
7.06984e-16
4.47412e-17
3.29658e-18
9.09527e-18
8.54245e-05
0.000121577
0.00075367
5.20917e-05
6.55166e-13
0.000911662
3.5129e-18
0.00632637
5.57714e-16
2.16639e-18
8.73543e-17
6.7307e-16
2.40297e-05
3.64813e-16
1.97775e-18
8.59056e-16
0.0145151
2.24468e-15
2.20724e-17
0.0106303
4.101e-15
0.036527
0.065652
0.384748
1.0371e-17
0.204489
1.27462
1.80463
0.668592
4.46515e-16
3.69749e-17
0.00473468
0.00523607
3.13347e-17
0.00293185
1.36942e-17
0.0310658
6.90767e-15
1.08216e-15
0.000470456
3.34251e-16
4.2151e-17
6.79328e-06
2.79313e-05
2.4719e-19
5.79214e-18
1.33511e-06
7.05094e-15
3.12948e-16
2.01236e-05
0.00739526
0.00113113
9.72123e-16
0.00605607
3.41532e-17
0.00337842
3.8344e-07
0.005123
2.82318e-17
1.14568e-09
0.00465584
1.12035e-14
2.06594e-10
3.75191e-16
0.0317608
6.14688e-15
0.0101957
4.20333e-16
9.54924e-08
2.61608e-16
6.26022e-16
7.21422e-18
7.35037e-11
7.86905e-10
4.49413e-17
0.0119486
0.00671318
4.60384e-17
1.76028e-15
0.0327268
0.0177204
0.173706
1.01914e-17
4.7192e-05
0.0240663
0.0455658
2.91377e-09
9.47998e-19
0.0647359
3.47663e-16
0.213497
1.04605e-16
1.0869e-08
6.77487e-09
1.33314e-16
3.71816e-05
4.1645e-15
0.0198375
2.7641e-16
1.23021e-17
5.05745e-16
5.77976e-17
1.22581e-16
1.16571e-16
0.00036546
0.001478
0.137737
1.20321e-15
1.03397e-15
0.0407715
1.05668e-16
2.61139e-18
1.04008e-15
2.10393e-18
6.08213e-16
0.00497307
1.22942e-16
6.65563e-17
3.35799e-17
0.00278246
2.80405e-16
1.16546e-16
1.15342e-15
0.00270535
3.44042e-17
0.00512921
0.195976
0.00380945
0.00449303
0.0226665
2.00668e-15
1.34762e-16
2.27958e-16
0.0025574
0.00167128
6.49483e-17
2.9115e-14
0.000484234
3.34465e-16
1.23188e-16
0.31173
3.47348e-16
0.0215474
5.83677e-16
0.00205885
0.00365748
1.29193e-15
7.35265e-17
1.13183e-16
3.95448e-18
1.03616e-16
0.0200206
6.08955e-16
0.00382342
2.41266e-16
6.78193e-16
0.00569088
5.41737e-18
0.0137772
6.2344e-16
9.17447e-18
0.00220147
7.77968e-05
0.123575
1.80694e-16
2.0342e-17
1.12425e-15
0.00357855
0.170833
1.12673e-15
5.34696e-17
1.34152e-15
0.00124684
7.40687e-16
0.0212799
0.0233367
1.10122e-16
1.40832e-16
0.00583635
1.47627e-16
2.79144e-15
3.18977e-18
3.13596e-15
6.78988e-17
0.0601316
2.84072e-13
2.49572e-15
3.00681e-18
5.52932e-15
6.66579e-16
2.31432e-14
2.64289e-16
1.06879e-15
4.2206e-15
0.00754155
2.5306e-15
0.00674883
5.93778e-15
3.01162e-17
0.542462
0.00216352
1.23581e-16
2.5771e-15
1.45556e-16
0.00193621
1.00014e-14
6.11197e-17
3.3808e-15
2.94573e-16
0.00573865
2.1047e-16
0.00291611
8.45703e-19
0.0100162
1.00513e-14
0.0551381
9.49581e-16
1.10715e-16
0.0170873
3.6091e-15
7.78505e-17
0.0259861
0.000268919
2.71771e-18
2.5587e-17
0.0385736
0.011843
0.00527109
0.000651416
0.00145336
0.015632
0.000769247
0.00543534
1.05435e-15
0.019932
1.30989e-14
5.38769e-15
1.90084e-17
4.00879e-15
3.71998e-16
0.00827861
1.66352e-17
5.77683e-19
7.3831e-18
5.11416e-07
1.41868e-05
6.61281e-15
0.00280728
3.83603e-17
0.00408234
6.48646e-16
6.99825e-07
0.00310987
2.14115e-13
0.0398978
3.9607e-16
1.46885e-15
6.15557e-16
0.00236101
0.00142143
3.26512e-18
4.47606e-17
0.00201602
7.47933e-18
0.622225
5.99139e-18
0.0800657
1.48977e-17
1.34536e-17
3.07863e-17
2.60059e-16
0.00836055
2.29526e-16
6.06759e-05
1.70732e-17
0.00933288
2.1173e-16
9.77994e-18
7.08995e-12
3.47028e-13
1.06883e-16
3.85502e-16
1.74888e-16
7.54897e-18
0.00435257
0.22759
3.44435e-14
1.9577e-17
0.00039554
5.2195e-17
1.50638e-17
1.84355e-06
0.0165658
0.000170337
3.55244e-16
0.000546168
0.00367979
0.00442726
0.00842666
3.34072e-17
1.04359e-18
2.10923e-18
2.28618e-17
1.49334e-18
1.77489e-16
6.55857e-17
1.01291e-15
6.15732e-17
1.31644e-16
1.0528e-16
4.66899e-17
0.0706369
9.27787e-17
2.91107e-17
3.92103e-09
9.0237e-18
8.76562e-17
1.05454
3.30453e-16
1.02581e-17
0.00139615
2.43368e-10
2.64731e-16
1.40587e-16
3.79309e-18
0.0207085
9.73276e-18
1.00483e-16
3.46534e-08
1.21699e-17
4.58045e-16
6.28803e-17
3.11034e-17
0.101243
8.33426e-17
0.000248547
1.08928e-17
5.18379e-17
1.93558e-16
6.31544e-17
5.29916e-17
4.32643e-08
6.4279e-08
0.00012672
3.17484e-18
6.38813e-16
6.71692e-17
1.13145e-07
6.44895e-17
2.44568e-07
3.12947e-08
1.87601e-16
3.95147e-15
1.24015e-14
1.29501e-08
3.59171e-16
4.80009e-16
1.16039e-09
1.26524e-17
0.0302539
6.59902e-18
0.00546447
3.32958e-16
1.74971e-06
3.43486e-17
0.0015612
3.35498e-17
0.00448343
0.0193728
7.31298e-17
0.00264145
8.99366e-06
4.45734e-17
0.00818623
4.22332e-17
2.97264e-16
5.36476e-16
3.78618e-16
5.43496e-15
9.45462e-17
8.51345e-16
1.70417e-17
0.239284
1.3144e-15
1.26723e-16
5.80994e-18
1.08054e-16
2.1465e-16
0.0293167
0.779241
1.94918e-06
1.663e-05
1.49432e-16
0.00156643
0.00104576
6.22612e-17
7.91976e-16
8.8339e-16
3.68525e-16
1.52653e-16
8.93362e-16
2.9383e-15
2.52763e-15
0.000411559
2.37126e-16
1.2417e-18
9.50944e-05
1.53424e-06
3.13996e-16
0.0263808
1.29438e-15
9.11623e-16
1.27007e-16
0.165395
9.22297e-17
2.41402e-17
0.0215556
6.20477e-17
1.93941e-18
1.62578e-15
5.38666e-19
0.0481729
1.5781e-17
1.13729e-16
1.30621e-16
1.80987e-16
0.00645168
0.230561
0.0268314
0.045207
0.00265948
0.000153856
2.81152e-18
5.1906e-15
0.10579
0.00156948
1.25105e-15
4.6694e-08
3.18409e-17
1.5829e-09
2.00571e-15
0.210726
2.82229e-17
1.12724e-16
0.000165659
6.02216e-11
2.14915e-16
0.0116498
3.58201e-17
6.48041e-17
0.20213
0.0277866
3.05634e-17
7.54e-17
4.60642e-16
1.12285e-16
7.59724e-17
1.60519e-14
7.21639e-18
3.0861e-17
0.00344214
4.26235e-18
1.47784e-18
1.21389e-16
1.01403e-05
2.8348e-16
2.39839e-14
1.23862e-16
9.559e-17
1.50672e-15
7.1239e-16
0.00242003
2.11174e-16
1.28585e-15
0.00419093
3.21759e-17
0.000415521
0.0051009
5.59621e-16
0.00277205
5.33059e-17
6.28834e-17
3.87844e-17
1.03391e-14
1.81565e-17
1.16333e-16
1.01228e-16
4.61096e-19
0.00183602
2.30865e-16
3.71639e-17
1.16038e-18
8.67536e-16
6.1538e-17
4.13462e-15
0.040229
6.41079e-17
1.16713e-17
0.326936
3.10816e-17
1.85074e-17
1.02444e-18
0.000956157
1.47559e-16
3.1553e-06
2.25564e-16
5.07104e-05
0.00854282
5.41872e-17
3.59863e-15
0.0375672
5.06066e-16
5.98263e-17
8.75225e-05
3.74359e-07
0.00971051
1.30189e-06
3.81839e-07
7.7044e-08
5.36482e-18
2.32409e-15
0.000741349
0.000217699
0.0206277
0.0106466
3.54482e-05
8.13168e-18
0.00536941
0.00412477
0.0159489
3.30295e-18
0.0108039
0.0157564
0.00239655
0.00111678
0.000407898
0.00451982
0.018039
0.0356818
0.00747745
0.0109568
0.00716976
6.00853e-15
0.00254717
0.00341376
0.000571709
0.00309836
0.0135348
0.012148
0.0204388
2.41928e-14
0.00732745
5.55002e-14
0.00442964
0.00231871
0.000312371
0.00281297