/*--------------------------------*- C++ -*----------------------------------*\
  =========                 |
  \\      /  F ield         | OpenFOAM: The Open Source CFD Toolbox
   \\    /   O peration     | Website:  https://openfoam.org
    \\  /    A nd           | Version:  10
     \\/     M anipulation  |
\*---------------------------------------------------------------------------*/
FoamFile
{
    format      ascii;
    class       volVectorField;
    location    "40";
    object      U;
}
// * * * * * * * * * * * * * * * * * * * * * * * * * * * * * * * * * * * * * //

dimensions      [0 1 -1 0 0 0 0];

internalField   nonuniform List<vector> 
111485
(
(0.200074 -0.200243 0.000396853)
(0.567967 -0.00142192 -0.00374676)
(0.561679 0.00129496 0.00174979)
(0.200481 -0.200537 8.52336e-06)
(0.584005 0.00262187 -0.000172573)
(0.199422 0.19938 3.98189e-05)
(0.573812 0.00144244 0.000310708)
(0.588481 -0.00140348 0.000865189)
(0.574406 -0.000334762 0.000385648)
(0.586137 -0.00599935 -0.00250857)
(0.565133 0.00136696 0.00161935)
(0.591923 -0.00116094 0.00283861)
(0.556676 0.000199063 0.00118665)
(0.561144 -0.00147491 -0.00378894)
(0.570251 0.00217518 0.0011787)
(0.580558 -0.0034578 -0.00217868)
(0.572363 -0.000557511 0.000669133)
(0.205445 -0.0240486 0.0333446)
(0.585416 0.00153603 -0.00133842)
(0.197959 -0.197628 -4.43986e-05)
(0.198483 -0.198474 -0.000280147)
(0.2001 0.200029 9.62085e-06)
(0.578812 0.00143098 -0.000302818)
(0.586902 -0.00384662 -0.00111648)
(0.576123 0.00280636 -0.000986789)
(0.201853 -0.201067 -0.00029758)
(0.594152 -0.00251456 0.00316537)
(0.562565 -0.00095315 1.59264e-05)
(0.586634 0.000788777 -0.00151455)
(0.199435 -0.199496 2.47393e-06)
(0.591249 0.0108848 -0.00300922)
(0.58387 -0.00106765 0.000178979)
(0.198127 -0.198603 0.000328761)
(0.199753 0.200124 -0.000504624)
(0.200762 0.0820114 0.0345239)
(0.200691 0.201823 -0.00281333)
(0.588811 0.0106647 -0.00440318)
(0.569596 0.000830386 0.00506239)
(0.581554 0.174218 0.0112945)
(0.584003 0.0030239 0.000410468)
(0.196574 0.198197 -0.00139509)
(0.590896 0.000545922 -0.00360478)
(0.58317 0.00318393 0.00114809)
(0.56259 -0.00435665 -0.000853596)
(0.589534 -0.0107609 -0.00523615)
(0.199677 -0.198553 0.00122411)
(0.590739 -0.00258574 0.00286223)
(0.586075 -0.00353481 -0.00102047)
(0.590824 0.000109136 -0.00275453)
(0.199137 -0.196931 0.00120017)
(0.197754 -0.195892 0.00126401)
(0.228041 0.1911 0.00311825)
(0.197019 -0.196416 0.000675223)
(0.590696 0.00262766 -0.00537275)
(0.196666 -0.195746 0.000169769)
(0.583412 0.00150128 -0.000611923)
(0.583094 -0.00256965 -0.0010487)
(0.200069 0.199793 4.24322e-05)
(0.531239 -0.00120663 -0.00940916)
(0.586217 0.00240243 -0.000332794)
(0.585955 0.00270786 -0.000226938)
(0.199652 -0.199984 0.000246633)
(0.542303 0.000570816 0.00361813)
(0.593644 -0.00115081 0.00452567)
(0.206088 0.18629 0.000179315)
(0.535866 0.00100146 -0.00134706)
(0.411066 -0.0374152 0.0142966)
(0.587975 -0.0017451 0.000826618)
(0.528874 0.000331553 0.00179563)
(0.499529 -0.00112033 0.000248211)
(0.565715 0.00431343 -0.00338209)
(0.523817 -0.0010159 0.00188705)
(0.214876 -0.194245 -0.00424101)
(0.536231 0.00105264 0.00423368)
(0.199885 -0.199761 7.58176e-05)
(0.585171 -0.0011697 0.000580864)
(0.200003 0.200066 -5.54506e-05)
(0.591036 -0.001229 0.0031537)
(0.199866 0.19978 -4.9093e-05)
(0.178147 0.173616 -0.00664747)
(0.568493 -0.00881484 0.00591775)
(0.58573 0.00212855 0.000487302)
(0.198946 0.198548 -2.01863e-06)
(0.199828 -0.19979 9.2903e-05)
(0.552881 -0.00013027 0.00103044)
(0.530867 0.00144044 -0.00226951)
(0.453203 0.288794 -0.0804178)
(0.582545 0.00726189 0.00063389)
(0.560405 0.0149645 0.0136745)
(0.567354 0.00087094 0.00166036)
(0.599006 0.0110107 -0.00728194)
(0.584816 -0.000970697 0.00104269)
(0.545886 -0.000981125 0.0019615)
(0.554952 -0.000561009 0.000554224)
(0.591868 0.00171142 -0.00376263)
(0.199881 -0.199861 1.96502e-05)
(0.199198 -0.199044 0.000133118)
(0.582345 0.00677415 0.00203215)
(0.60881 -0.12643 0.0037204)
(0.549744 0.00534104 -0.00164286)
(0.199825 -0.199842 0.000110722)
(0.585177 -0.00319419 0.000495463)
(0.200924 0.201225 0.00109942)
(0.580098 2.23628e-05 -0.000310199)
(0.57366 -0.00258504 -0.00326481)
(0.1964 0.174338 -0.00436034)
(0.200198 0.200099 -6.93531e-05)
(0.584132 -0.00131999 -5.91487e-05)
(0.54022 -0.00302669 0.000426584)
(0.518139 -0.0152933 -0.0165498)
(0.553266 -0.000415073 0.00122608)
(0.579959 0.000845791 -0.000240027)
(0.541493 -0.000417671 0.00197032)
(0.53231 -0.00326986 0.00092651)
(0.201795 -0.200742 3.51136e-05)
(0.510902 -0.000470996 0.00148351)
(0.200954 -0.20036 -0.000263182)
(0.20082 0.199604 0.00116241)
(0.57066 0.00217616 0.00164651)
(0.200388 -0.200259 6.07756e-05)
(0.202 -0.201011 -0.000106559)
(0.264536 0.207211 0.0129429)
(0.197213 0.198144 -0.000383053)
(0.199959 0.199459 -0.000716833)
(0.55795 -0.00134696 0.00238893)
(0.16039 -0.114515 -0.0292947)
(0.25235 0.215886 0.00847182)
(0.516093 -0.000178841 0.00248317)
(0.200136 -0.20004 -8.21433e-05)
(0.585476 0.0419414 -0.0153995)
(0.587172 0.0127035 -0.00678134)
(0.581335 0.00696114 0.00200508)
(0.198972 -0.198497 -0.00113797)
(0.258835 0.224544 0.0235776)
(0.241191 0.214629 0.0107458)
(0.586542 0.00167424 -0.00144005)
(0.200324 0.200264 -8.86764e-05)
(0.581758 0.00135909 3.40758e-05)
(0.577937 0.00265065 0.00177964)
(0.568098 0.0026741 0.00268853)
(0.442454 -1.37914e-06 0.00187871)
(0.582339 0.00323042 0.000683686)
(0.57723 0.00291413 0.0018732)
(0.551133 0.000549125 -0.00226741)
(0.577646 -0.000932306 -0.000566114)
(0.569314 -0.000537264 0.00143096)
(0.200424 0.200444 -3.16497e-05)
(0.200034 -0.200067 1.24861e-05)
(0.199729 0.199949 0.000471376)
(0.583599 0.00268749 0.00049377)
(0.551669 0.000925783 -0.00199716)
(0.198522 -0.19848 0.000115986)
(0.375672 -0.00220255 0.00369079)
(0.569212 0.00287474 0.00179853)
(0.62422 0.0245275 0.0105836)
(0.586553 0.00167446 -0.00125591)
(0.584119 0.00183133 -0.000565424)
(0.540822 0.000124691 -0.00130401)
(0.626021 0.0339642 0.00584717)
(0.198831 -0.200839 0.00104355)
(0.199926 -0.200087 0.000243778)
(0.58582 0.00158342 -0.00129098)
(0.573366 -0.00188669 -0.00189177)
(0.630253 0.0343596 0.00645459)
(0.620982 0.0311766 0.00838932)
(0.541516 0.000388326 0.00279839)
(0.584104 0.0068798 -0.00266323)
(0.196875 0.198965 -0.000242827)
(0.638769 0.041954 0.00903143)
(0.608868 0.0311566 0.00880575)
(0.200026 0.200158 5.2029e-05)
(0.199609 -0.199665 9.74351e-06)
(0.465947 0.000487252 -0.00383399)
(0.200296 0.200388 2.76911e-05)
(0.581558 -0.00105278 -0.000206254)
(0.559974 0.000338243 -0.000985285)
(0.199894 0.194954 -0.00118821)
(0.215578 -0.198784 0.00199953)
(0.198871 -0.197872 -0.000448804)
(0.197126 0.185801 -0.00197789)
(0.216571 -0.200241 0.00320448)
(0.199819 -0.199953 0.000201173)
(0.582037 0.00213362 0.0006814)
(0.583553 0.00145078 -0.00120688)
(0.581293 0.00161046 -0.000760464)
(0.572325 -0.00220911 0.00230165)
(0.552072 -0.00172799 0.000300255)
(0.554223 0.000873503 0.00180876)
(0.49472 0.0063479 0.000780501)
(0.199306 -0.198528 4.65855e-05)
(0.535638 8.02385e-05 0.000780564)
(0.215048 -0.200333 0.00193621)
(0.201308 -0.201491 -3.9118e-05)
(0.558826 0.000915411 0.00189295)
(0.58639 -0.00673126 -0.00237769)
(0.582365 0.000986703 -0.00292521)
(0.559265 -0.000670154 0.000498127)
(0.569327 0.000173017 0.000289298)
(0.199355 -0.199036 0.000483638)
(0.558789 -0.00265386 0.000698205)
(0.556168 -0.000470175 -0.00309828)
(0.385012 0.119426 0.0152917)
(0.5701 -0.00485751 4.43487e-05)
(0.579147 -0.000853697 0.000492199)
(0.200418 -0.199165 -0.000505367)
(0.556284 0.00126476 0.00201746)
(0.58471 0.00128167 -5.29387e-05)
(0.218556 -0.198481 0.000662053)
(0.561457 0.00114548 0.00259484)
(0.589582 -0.000488091 0.00325193)
(0.551083 0.000631092 -0.00230589)
(0.554486 0.00141779 0.00256142)
(0.216365 -0.200805 0.00253251)
(0.198885 -0.19896 -2.26228e-05)
(0.554251 0.00149927 0.00285309)
(0.360275 0.224019 -0.0210382)
(0.595755 0.00246753 -0.00615839)
(0.199883 0.199934 -0.000151645)
(0.557966 0.00110825 0.00233719)
(0.559305 0.000284887 0.000311466)
(0.592666 -0.00193202 0.00384578)
(0.200119 -0.200078 3.04861e-05)
(0.520607 -0.000416229 0.00134199)
(0.58516 0.00898567 0.0044025)
(0.319123 0.213781 -0.0244693)
(0.200293 0.200356 -0.0001469)
(0.200005 0.200154 5.77917e-05)
(0.597525 -0.00291795 0.00595041)
(0.555415 0.0121903 -0.0033147)
(0.210481 0.17688 -0.00428307)
(0.246113 -0.191891 0.00807119)
(0.56084 0.000508222 0.00102013)
(0.579777 0.000851881 -0.000107704)
(0.583177 0.00122327 0.000522136)
(0.206976 0.179388 -0.00552708)
(0.209482 -0.194618 -0.00110571)
(0.562529 0.00717919 -0.00851242)
(0.19987 -0.199806 8.67759e-05)
(0.534245 0.000640423 -0.00288402)
(0.554307 0.000391964 0.00234039)
(0.560658 0.000199265 0.00135662)
(0.561241 0.00109544 0.00143136)
(0.563556 0.000533488 0.00189096)
(0.199301 0.199404 0.000611693)
(0.426291 -0.000940194 -0.0160854)
(0.56948 0.00181871 0.00172996)
(0.198214 0.198815 -3.41086e-05)
(0.200133 0.200215 4.97629e-05)
(0.593228 -0.00672033 -0.000545081)
(0.579612 0.00271001 -0.000655069)
(0.20473 0.173248 -0.00563099)
(0.528372 -0.000531532 0.00113982)
(0.568648 0.00161174 0.00147425)
(0.200285 -0.200183 -5.18321e-05)
(0.253938 0.240348 -0.00125328)
(0.584799 0.00623107 -0.00277659)
(0.201121 -0.198605 0.00017245)
(0.221757 -0.159477 -0.00381258)
(0.300933 -0.107247 -0.0106841)
(0.2005 -0.19985 -0.000124826)
(0.572811 -0.000881881 -0.000966465)
(0.556227 -0.00101989 -0.000841226)
(0.579302 0.000829206 -0.001502)
(0.199978 -0.200056 -3.99991e-05)
(0.572458 0.00163022 0.00138561)
(0.20046 -0.200514 3.5281e-06)
(0.200322 -0.200468 0.000137793)
(0.199169 -0.198303 0.000395212)
(0.395919 0.00179341 -0.00533861)
(0.589887 -0.0025935 0.00321859)
(0.56001 0.00210301 0.00249676)
(0.570816 0.00191427 0.00130223)
(0.590103 -0.00298942 7.08243e-05)
(0.568534 0.000905437 0.00170552)
(0.582352 0.00221235 0.000793459)
(0.586569 0.0106469 -0.000995849)
(0.575539 0.000522045 -0.000255002)
(0.580089 0.000924653 -0.000324516)
(0.203842 0.200481 -0.000117441)
(0.19901 -0.199082 -0.00027071)
(0.36277 0.00244409 -0.00760332)
(0.582834 -0.001162 0.000492044)
(0.587072 0.00479784 0.00499222)
(0.555404 -0.000858002 -0.00082961)
(0.200428 -0.200295 4.72223e-05)
(0.578981 0.00190586 0.0011751)
(0.581433 0.00309171 0.0014809)
(0.570579 0.00125456 0.000763272)
(0.500982 -0.000599793 -0.00235163)
(0.527076 -0.00592882 -0.0133528)
(0.579331 0.00174862 0.000515968)
(0.569347 0.00146754 0.00140935)
(0.580704 0.00540146 -0.00334354)
(0.200001 0.200097 1.01463e-05)
(0.533695 0.00296854 -5.51978e-06)
(0.199883 0.199997 -7.45016e-05)
(0.161179 0.119851 -0.026898)
(0.226284 -0.145973 -0.0119966)
(0.602005 -0.00582188 0.0111343)
(0.59025 -0.00297853 9.75921e-05)
(0.575696 -0.000295668 0.000226876)
(0.20029 -0.199769 -8.16731e-05)
(0.199229 0.20034 0.0017271)
(0.578346 0.00205514 0.00123149)
(0.554247 0.000829014 -0.000704369)
(0.198661 -0.198632 5.01782e-05)
(0.200233 -0.200113 0.000231844)
(0.19541 -0.196552 0.00126615)
(0.549393 0.00065857 -6.66221e-05)
(0.577415 0.000544276 -0.000643074)
(0.550167 -0.000109102 0.00205363)
(0.530513 0.0011127 -0.00211947)
(0.58799 0.00192847 -0.00137161)
(0.229501 0.196892 0.00584565)
(0.199712 0.200194 0.000382863)
(0.19959 -0.199413 -8.38677e-05)
(0.576171 0.00214807 0.00160332)
(0.377371 -0.319084 -0.0155729)
(0.549609 -0.000552644 0.000798694)
(0.598637 -0.00377099 0.0137446)
(0.482908 0.00101815 -0.00972454)
(0.200157 0.200137 -6.50236e-07)
(0.199805 -0.200002 0.00016563)
(0.200386 -0.200496 -8.77764e-05)
(0.253544 0.211937 0.0133938)
(0.583897 0.00189586 -0.000131136)
(0.588412 -0.00295102 0.000563776)
(0.199754 0.200765 5.3524e-05)
(0.58064 0.00150322 -0.000176627)
(0.211853 0.170173 0.0125337)
(0.199683 -0.197291 -0.000303267)
(0.595441 -0.00184648 0.00499408)
(0.578775 0.00198822 0.00106354)
(0.591102 -0.000307831 0.001395)
(0.580851 0.00156181 -0.000108889)
(0.191866 0.168986 0.0107129)
(0.25103 0.215298 0.0145613)
(0.199381 0.199641 -0.000382743)
(0.579874 0.00194804 0.000763754)
(0.579006 0.00173224 -8.91836e-05)
(0.589889 0.0115157 -0.00435477)
(0.197102 0.196601 0.000379317)
(0.403863 0.353708 -0.087237)
(0.551163 0.00206198 0.00479936)
(0.589492 -0.00263378 0.00144436)
(0.579604 0.00204369 0.0013495)
(0.549424 0.0558019 -0.00392633)
(0.588049 0.0012695 -0.00174885)
(0.198969 0.198963 0.000117771)
(0.58775 0.00151545 -0.00139207)
(0.565418 0.000717765 0.00120457)
(0.593869 -0.0135137 6.40385e-05)
(0.597338 -0.00356053 0.00753575)
(0.574649 -0.00486436 -0.0041995)
(0.198775 0.199821 -0.000651714)
(0.19923 -0.199677 -0.000439097)
(0.200197 0.198871 0.000770313)
(0.198172 -0.198731 -4.10219e-05)
(0.587832 -0.00250057 0.000321059)
(0.582198 -0.000473342 7.89128e-05)
(0.584006 0.00266881 -0.00245698)
(0.587995 0.00155813 -0.00180054)
(0.198062 0.198239 -0.000851895)
(0.581044 -0.0037582 -0.00169848)
(0.200003 0.200023 6.11283e-05)
(0.199399 -0.199847 6.06897e-06)
(0.587781 0.0018684 -0.00133445)
(0.184393 -0.184463 0.00273038)
(0.325761 -0.0635573 -0.00357521)
(0.197001 -0.196225 -0.000205979)
(0.200341 0.19666 0.00116487)
(0.582548 0.000641575 -0.000559951)
(0.200041 0.199901 2.18384e-05)
(0.575124 0.00160869 -0.000180693)
(0.547118 0.000417341 -0.00225549)
(0.200589 0.200596 -5.46816e-05)
(0.525671 -0.000199251 -0.00250356)
(0.572858 0.000922205 0.00102953)
(0.201688 0.176184 -0.00653804)
(0.569206 0.0025209 0.00301376)
(0.540918 0.00228454 -0.000567148)
(0.573384 0.00272355 0.000976276)
(0.533682 0.00108463 0.00739347)
(0.578483 0.00155467 0.000487805)
(0.553023 0.000258264 -0.000938679)
(0.197807 0.167965 -0.000884633)
(0.198827 -0.198487 0.00123271)
(0.494654 0.000899823 0.0121887)
(0.198285 0.198926 -0.0011758)
(0.572421 0.00294158 0.00295304)
(0.596125 -0.00328894 0.00587534)
(0.20069 0.191462 0.00174588)
(0.199498 0.200387 -3.28866e-05)
(0.586206 -0.000849772 0.000439214)
(0.563591 -0.00254872 -0.00513952)
(0.566376 0.00292348 0.00029752)
(0.586963 0.00196657 -0.0007703)
(0.199968 0.199611 -7.81732e-05)
(0.597658 -0.000966171 0.0100321)
(0.589328 -0.00202499 0.003024)
(0.200885 0.200571 1.87021e-06)
(0.576258 0.00953008 0.0078435)
(0.549793 -0.00229167 -0.00629537)
(0.199617 -0.199688 -1.3592e-05)
(0.198946 -0.198961 7.92741e-05)
(0.573982 0.00163637 -0.000524659)
(0.578221 0.000387209 -0.000916641)
(0.200122 0.200048 -0.000310839)
(0.199618 -0.1992 -0.000303437)
(0.345019 -0.189174 0.0417747)
(0.20034 -0.200471 8.16055e-05)
(0.578525 -0.00115378 -0.000198647)
(0.198569 0.199285 0.00042215)
(0.20043 -0.200506 1.095e-05)
(0.591209 -0.000236615 0.00187648)
(0.53686 -0.00647019 -0.0153567)
(0.584117 -0.00372908 0.000853238)
(0.565444 -0.000207421 0.00100728)
(0.200765 0.200632 2.81461e-05)
(0.260974 0.200053 0.0100561)
(0.565274 0.00786778 0.0119011)
(0.244124 0.214454 0.0122078)
(0.563715 0.0025091 0.00476279)
(0.560205 -0.00491412 0.000161892)
(0.586223 -0.00219065 -0.00174643)
(0.404247 0.00710728 0.0154906)
(0.23958 0.20529 0.0107089)
(0.584099 0.000858822 -0.00561742)
(0.59251 0.0189884 -0.00580546)
(0.199878 -0.200203 0.000261375)
(0.591704 0.00143897 -0.00625698)
(0.592167 -0.00246512 0.00227668)
(0.200044 -0.199982 0.000182668)
(0.574788 0.0326891 -0.0193093)
(0.498403 0.000171255 -0.00644282)
(0.253609 0.198672 0.00801613)
(0.589823 -0.00115321 0.00238846)
(0.58234 0.00078596 -0.000779027)
(0.578474 0.00156019 -0.000409752)
(0.200001 0.199891 -5.60346e-05)
(0.575237 -0.000958646 0.00410887)
(0.592094 5.48602e-05 0.00194013)
(0.573086 0.00567236 -0.00058371)
(0.359134 -0.00583309 0.00667993)
(0.244417 0.229862 -0.005072)
(0.338766 -0.0110351 0.0123269)
(0.199753 -0.200051 0.000188605)
(0.531217 -0.0186964 -0.0178521)
(0.575363 -0.0010693 -0.00370265)
(0.200075 0.19998 0.000280832)
(0.548728 0.00129067 -0.00389892)
(0.450175 -0.00104443 0.00887489)
(0.261082 0.229615 -0.00242716)
(0.200057 -0.199932 -3.53114e-05)
(0.233039 -0.19934 0.00632013)
(0.200323 -0.200265 -3.11388e-05)
(0.57267 0.00345775 -0.000416111)
(0.577268 0.00328843 -0.00102866)
(0.573259 -0.00167551 -0.00163617)
(0.538216 0.00114968 -0.00299368)
(0.585869 -0.0114915 -0.00233405)
(0.199812 0.198905 -0.000388534)
(0.568178 -0.000588599 -0.00120773)
(0.200774 -0.199048 -5.51191e-05)
(0.563568 0.00204438 0.00140356)
(0.200792 0.200854 -1.88896e-05)
(0.200165 -0.2 -2.90912e-05)
(0.1974 -0.197984 -0.000313874)
(0.553612 -0.00393086 0.000447009)
(0.199102 -0.199303 -0.000209925)
(0.199923 -0.199988 4.14971e-05)
(0.197004 0.128806 -0.00858262)
(0.200334 -0.20048 9.3308e-05)
(0.197567 0.200157 0.00186554)
(0.567127 -0.00226899 -0.00125256)
(0.200049 0.199861 -3.135e-06)
(0.237858 0.174897 0.000448131)
(0.200145 0.200264 0.000285142)
(0.199051 -0.198388 1.12434e-05)
(0.199914 0.199072 -0.00034008)
(0.198845 -0.197787 -0.00105018)
(0.198432 0.198609 1.28735e-05)
(0.515828 -4.71521e-05 -0.00402009)
(0.200191 0.19904 0.000861801)
(0.530312 0.00806762 0.0113257)
(0.580429 0.00139526 -0.000817294)
(0.59652 -0.0240314 -0.00380908)
(0.200806 0.199876 -3.74052e-05)
(0.50425 0.00156493 0.00925446)
(0.200261 0.199503 0.000110322)
(0.200404 -0.200502 -8.6489e-05)
(0.569556 -0.00481161 -0.00578532)
(0.570788 -0.00413642 -0.00527871)
(0.574381 -0.00169107 -0.000816893)
(0.600027 0.0010875 -0.0111492)
(0.230744 0.19358 -0.0063759)
(0.587456 0.00068273 -0.00351902)
(0.586983 0.000724736 -0.00318721)
(0.579646 0.00116825 3.89802e-05)
(0.570026 0.00068492 0.000245648)
(0.578791 -0.00588907 -0.00458175)
(0.198628 -0.198703 -0.000127755)
(0.580072 0.00102537 8.49041e-06)
(0.263419 0.227998 -0.001148)
(0.578581 0.00140657 -0.000736533)
(0.199684 0.199432 -7.0814e-05)
(0.589362 0.0017932 -0.00330044)
(0.260513 0.215723 0.00267527)
(0.581086 0.000360603 -0.000751593)
(0.583248 -0.00300923 0.00198486)
(0.229821 -0.119333 -0.000896889)
(0.199676 0.199854 0.00230174)
(0.57065 0.00107708 0.00112438)
(0.199718 -0.199707 4.7534e-05)
(0.591687 0.00221882 -0.00408535)
(0.587496 0.00238897 -0.00264575)
(0.199863 0.199229 -0.00165247)
(0.199296 0.199312 0.00046377)
(0.195825 0.174161 -0.00407596)
(0.200066 0.200204 7.60618e-05)
(0.40962 -0.0229523 0.00927645)
(0.591964 0.00201859 -0.00390314)
(0.203277 0.198348 -0.000154842)
(0.199551 0.199992 0.000363333)
(0.506086 0.000719158 -0.00110256)
(0.200344 0.200363 2.72977e-05)
(0.582978 0.00167544 -0.00239134)
(0.200204 0.200125 1.51413e-05)
(0.576903 -0.00348639 -0.0016265)
(0.200252 -0.200293 -4.38772e-05)
(0.540604 -0.00248191 -0.00787241)
(0.443982 -0.00195563 0.000511921)
(0.543465 0.00177714 -0.00103409)
(0.581374 0.000663399 -0.000794783)
(0.200418 0.199019 -0.000641261)
(0.524799 0.000693476 -4.40182e-06)
(0.200376 0.199637 0.000187983)
(0.200174 0.200177 -0.000540338)
(0.574339 -0.00128683 -0.0006896)
(0.19981 0.19952 -7.88561e-05)
(0.488889 -2.18028e-05 -0.00484923)
(0.192374 0.176319 -0.00618693)
(0.58396 0.00173511 -0.00202322)
(0.198884 -0.199025 6.44206e-06)
(0.588671 0.000730822 -0.00129551)
(0.200564 -0.200361 2.0155e-05)
(0.239383 0.210819 0.00665611)
(0.595213 0.0220225 -0.00203427)
(0.570211 -0.00486432 -0.00588762)
(0.580509 0.00237045 -1.20468e-05)
(0.583689 -0.00619562 -0.00403997)
(0.577727 0.00128228 -0.000573696)
(0.589883 -0.00344808 -0.000305795)
(0.197822 0.199279 -0.000902139)
(0.580345 0.00333489 0.00174114)
(0.573029 -0.00550088 -0.00556372)
(0.199988 0.20007 -9.89953e-05)
(0.48863 -0.00628815 -0.0198727)
(0.593458 -0.0052793 -0.00338333)
(0.569892 0.00259205 0.00223767)
(0.197325 0.194596 -0.00115596)
(0.246635 0.0443088 -0.0398574)
(0.557185 0.00141186 0.00183241)
(0.453095 -0.00202591 0.00488955)
(0.46766 0.108949 -0.00448591)
(0.255956 -0.133881 -0.00991748)
(0.588015 -0.00576211 -0.00103703)
(0.553275 0.00224689 0.00435335)
(0.569628 -0.00528995 -0.00574526)
(0.581799 -0.00310623 -0.00108875)
(0.571636 0.00321773 0.00140831)
(0.504191 0.0629874 -0.00173886)
(0.248772 0.210296 0.00185451)
(0.513735 -0.0224688 0.00611865)
(0.499449 -0.0463654 0.0103797)
(0.199757 -0.1998 0.000143914)
(0.510926 0.00359575 -0.00148754)
(0.201318 0.19744 -0.00105071)
(0.235279 0.213344 0.00201211)
(0.578449 0.000978269 -0.000204664)
(0.50898 0.0832251 -0.00154798)
(0.613411 -0.0572883 -0.00801874)
(0.555306 -0.104546 0.00133567)
(0.235108 0.222487 -0.0153162)
(0.586948 -0.00357302 -0.000991304)
(0.579329 0.0032198 0.00262195)
(0.199565 0.199023 -4.77403e-05)
(0.259558 0.142209 -0.00541772)
(0.578849 0.00454519 0.00288593)
(0.200014 -0.199251 0.000169495)
(0.2 0.199891 -4.84031e-05)
(0.199236 0.199147 2.03527e-05)
(0.200463 0.199369 0.000219654)
(0.586336 -0.00570812 -0.00244924)
(0.200172 0.200144 0.000117475)
(0.200312 -0.200516 0.00101267)
(0.576112 -0.00358303 -0.00261814)
(0.531043 0.000262454 -0.001372)
(0.290322 -0.255099 -0.0137149)
(0.578964 0.0044135 0.00273098)
(0.234248 0.188257 0.00447381)
(0.581383 -0.00201552 -0.00110074)
(0.195643 -0.195349 -0.000636467)
(0.1996 0.20002 -7.12114e-05)
(0.585375 -0.00365549 -0.000847499)
(0.199871 0.198703 -0.000798128)
(0.200293 0.199768 8.46656e-05)
(0.229827 0.219371 0.00665188)
(0.550241 -0.000347682 -0.000437195)
(0.332777 0.277694 -0.0370608)
(0.576815 -0.00229926 -0.000994669)
(0.578147 0.00091865 -0.000219349)
(0.197851 -0.196611 -0.00155184)
(0.599023 -0.00100514 0.0192257)
(0.547275 -0.00316219 -0.00809671)
(0.574994 -4.80692e-05 -0.00047966)
(0.582282 0.0111619 0.00126312)
(0.583469 0.00426344 -0.0120723)
(0.501776 0.000247887 -0.00455216)
(0.199818 0.199504 8.58022e-05)
(0.586577 0.000602708 0.00177026)
(0.582254 0.00239951 -0.000392482)
(0.197849 -0.200443 0.000289651)
(0.540541 -0.000406277 -0.000301046)
(0.586201 0.00364765 -0.000898072)
(0.587538 0.00276195 -0.000995331)
(0.532029 -0.00237673 -0.0052047)
(0.587234 0.00264595 -0.00110439)
(0.587606 0.0032467 -0.000289809)
(0.199878 -0.197237 0.00130761)
(0.588852 -0.00102851 0.00261203)
(0.483875 -0.00361993 -0.00113168)
(0.241711 0.209125 0.013325)
(0.587325 0.00213405 -0.00154494)
(0.559959 0.0009024 -0.00129489)
(0.323281 0.262319 -0.0402782)
(0.57861 0.000923607 -0.000229234)
(0.587523 0.00188277 -0.00183284)
(0.560247 0.000540423 -0.00215553)
(0.583331 0.00241522 -0.00022797)
(0.57528 0.0063877 0.002594)
(0.57935 0.000893588 -0.00013011)
(0.195485 0.190845 0.000295552)
(0.582962 0.00274826 -0.000357473)
(0.54608 -0.00345724 -0.00746305)
(0.223437 -0.137313 0.00511922)
(0.58015 0.00537874 0.00356155)
(0.572298 0.00513522 0.00526856)
(0.581037 0.00149555 -5.03704e-05)
(0.19936 0.198897 0.000183057)
(0.562023 0.00345301 -0.00543036)
(0.199859 -0.198719 0.000622564)
(0.200035 0.200029 -0.000200091)
(0.198786 0.197431 -0.000117102)
(0.200596 0.199345 4.09124e-05)
(0.487708 0.000261562 -0.00196767)
(0.239014 0.205935 0.00869728)
(0.447868 -0.0282585 0.0302532)
(0.198504 -0.198726 -5.66089e-05)
(0.199423 0.202054 -0.000407905)
(0.579798 0.0062487 0.00324129)
(0.584669 0.00124646 -0.00253927)
(0.199991 -0.199979 1.7512e-05)
(0.584203 -0.00378104 -0.000165272)
(0.200015 -0.199816 0.00066226)
(0.200254 -0.200102 -4.254e-05)
(0.196507 -0.196625 0.000585324)
(0.592015 -0.00429023 -0.000479167)
(0.495661 0.00318097 -0.00120675)
(0.237903 0.212492 0.00359963)
(0.199643 -0.197802 0.000817299)
(0.199759 0.200451 -0.000298216)
(0.19956 0.199777 2.72763e-05)
(0.596407 0.00104522 -0.00684684)
(0.579891 0.0010283 -0.000245507)
(0.238024 0.223653 0.0104781)
(0.590553 0.00178658 -0.00335106)
(0.549699 -0.00949228 -0.0227242)
(0.199669 0.199819 -7.20475e-05)
(0.589092 0.00124714 -0.00299545)
(0.538663 0.000248227 0.00289158)
(0.571822 0.00299794 -0.00356032)
(0.200627 0.200556 1.95449e-06)
(0.199339 0.199269 9.67694e-05)
(0.56917 0.00248569 0.00317929)
(0.58178 0.00120814 -0.000296254)
(0.237608 0.215105 0.00350483)
(0.199142 0.199062 6.31747e-05)
(0.201996 0.195438 -0.000571434)
(0.578663 -0.00129998 0.000535793)
(0.199896 -0.199858 -0.00028174)
(0.199021 -0.198293 0.000171028)
(0.198672 0.198629 -4.20123e-05)
(0.588665 0.00171404 -0.00271008)
(0.513905 -0.00266144 0.000621502)
(0.200528 0.200546 2.30275e-05)
(0.224156 0.0368308 0.0424322)
(0.249129 -0.0329169 -0.00949783)
(0.567812 0.00311857 7.42814e-05)
(0.19971 0.199998 -7.95905e-05)
(0.200071 0.199726 -0.000169644)
(0.589711 -0.00686043 -0.00095942)
(0.565264 0.0103145 0.0094834)
(0.240878 0.214865 0.0109593)
(0.352745 0.111061 0.00703882)
(0.55582 0.0103973 0.0171211)
(0.533418 0.00170722 -0.00357954)
(0.568635 0.000402941 -0.000368631)
(0.206266 0.193453 -0.000425171)
(0.563894 0.00130889 -0.00041671)
(0.585693 -0.00388004 0.00415828)
(0.200372 0.199754 -0.000232757)
(0.198266 -0.194919 0.000302733)
(0.198556 0.198664 3.50724e-05)
(0.199259 0.199203 -4.87792e-05)
(0.200134 0.200525 -0.000279155)
(0.200578 0.200645 -2.5735e-05)
(0.590074 0.00195984 -0.00299543)
(0.200107 -0.200013 0.000106024)
(0.199003 0.199022 2.77067e-05)
(0.198925 0.196219 -0.000229053)
(0.590632 0.00189087 -0.00335271)
(0.58161 0.00122476 -0.00027378)
(0.200826 -0.198156 -7.30856e-05)
(0.197314 -0.195231 0.000441966)
(0.595086 -0.00281542 0.00529618)
(0.565356 5.63031e-05 0.000806627)
(0.564418 0.000249153 0.000882132)
(0.199895 -0.199439 -9.34692e-05)
(0.198987 0.198957 0.000116032)
(0.564902 0.000161053 0.000805268)
(0.200307 -0.200129 2.03621e-05)
(0.559252 0.00145567 0.000214562)
(0.570055 0.0012367 0.00188865)
(0.571796 0.00165024 0.00107927)
(0.19997 -0.198504 0.000478436)
(0.200285 -0.200384 3.81816e-05)
(0.200203 -0.200379 -3.77012e-05)
(0.20024 0.200278 6.30221e-05)
(0.577845 -0.00288124 -0.00148701)
(0.199927 0.200134 6.78844e-05)
(0.198422 0.198646 6.40213e-05)
(0.576706 0.00198903 -0.00295219)
(0.200291 -0.200346 0.000107823)
(0.567685 0.000355901 0.000737969)
(0.513513 -0.00562273 0.00119152)
(0.200976 0.193865 0.00109877)
(0.580633 0.00138481 -0.000224095)
(0.269926 0.0382966 -0.00538739)
(0.573377 0.000421201 0.000460133)
(0.591231 -0.0014009 0.00132429)
(0.522961 0.00204388 0.00104737)
(0.59234 -3.67505e-05 0.00425818)
(0.429943 0.0113675 -0.0160571)
(0.239152 0.189986 0.00403342)
(0.572051 4.61726e-07 0.00044826)
(0.594967 0.0042265 -2.58362e-05)
(0.580545 -0.00132122 -0.000487187)
(0.204923 0.177539 -0.00621458)
(0.268187 0.0179127 -0.00803791)
(0.309087 -0.0303808 0.0116797)
(0.572875 0.000535194 0.000225743)
(0.198831 0.199207 0.000245862)
(0.560542 -0.00104671 -0.00384126)
(0.572509 -0.000179033 -0.00103003)
(0.5556 -0.00473352 -0.00884576)
(0.214674 -0.15688 -0.0117541)
(0.200341 -0.200472 8.68822e-05)
(0.2 -0.200002 -4.91837e-06)
(0.582987 -0.00168717 7.42372e-05)
(0.234433 0.193627 -0.00251309)
(0.553542 0.00200809 0.000903303)
(0.217572 0.198067 0.00274914)
(0.549912 -0.0009538 -0.00388588)
(0.567349 -0.0013708 0.000550475)
(0.560498 -0.000841624 0.00148667)
(0.581664 0.00133125 -0.000398763)
(0.19902 0.199009 -5.06071e-05)
(0.198032 0.197417 -0.000447577)
(0.213138 -0.194661 0.000896428)
(0.580296 0.00151688 0.000121058)
(0.200389 0.199797 -1.68078e-05)
(0.231935 0.198625 -0.00904933)
(0.593763 0.012199 -0.0102137)
(0.200118 0.199809 -0.000160044)
(0.198785 0.199721 0.000701728)
(0.198466 -0.197816 -0.000325901)
(0.200418 0.200476 5.02896e-05)
(0.554228 -0.000169728 0.0015603)
(0.203463 0.193113 0.000325657)
(0.200134 0.199972 8.44847e-05)
(0.464094 0.0618095 -0.0456464)
(0.235516 0.18959 -0.00230157)
(0.197836 0.19823 -0.00186981)
(0.284077 -0.171697 0.0114098)
(0.199861 0.199632 -0.000258679)
(0.455046 0.00225366 -0.00301194)
(0.565764 -0.00103634 0.00103431)
(0.198521 -0.198565 -1.11616e-06)
(0.555871 0.000729873 -0.00175378)
(0.553493 0.0889582 -0.00798134)
(0.551543 -0.00528979 -0.0088639)
(0.606054 0.0231792 0.000280462)
(0.546966 0.000420851 -0.000781091)
(0.19991 0.198204 0.000832588)
(0.571853 -0.00532545 -0.00599004)
(0.592322 -0.00155346 0.00113787)
(0.551282 -0.00536108 -0.00885171)
(0.199999 -0.200214 1.10757e-05)
(0.598297 0.152874 0.0385776)
(0.552605 0.00104344 0.00109019)
(0.267546 0.213206 -0.0131841)
(0.548945 -1.65323e-06 0.00065393)
(0.598659 0.00710275 -0.00549312)
(0.572145 0.0115891 0.000424524)
(0.567268 -0.0015627 -0.00197372)
(0.567969 0.00179174 0.000164461)
(0.603288 0.00880045 -0.00298916)
(0.582234 -0.000837168 -0.000762168)
(0.576424 -0.00057475 0.000482244)
(0.198235 0.198999 0.000710161)
(0.198969 0.197885 0.000565378)
(0.55683 0.00150179 0.000938639)
(0.547235 0.000864414 0.00074237)
(0.199533 0.20008 -1.67621e-06)
(0.565099 0.000503666 0.000108154)
(0.590942 -0.00182373 0.000582546)
(0.577315 -0.00114595 0.000419289)
(0.199418 0.197296 -8.50687e-05)
(0.569915 0.0115009 0.00236607)
(0.199226 0.199082 -1.07635e-05)
(0.576808 -0.000605311 0.000436058)
(0.577991 -0.00061333 0.000299499)
(0.199898 0.199798 -3.01457e-05)
(0.552283 0.0030711 -0.00175039)
(0.576399 -0.000350948 -4.73467e-05)
(0.56783 0.0104849 0.000582559)
(0.557723 0.00020647 0.00204178)
(0.204428 0.200447 -0.000329618)
(0.584647 -0.00173733 0.00174888)
(0.569682 0.0130429 -7.66751e-05)
(0.602357 -0.0159576 0.00346104)
(0.508084 0.00692381 0.00111077)
(0.453004 0.00143393 -0.00584365)
(0.199833 0.197661 -0.00027471)
(0.199465 0.1993 6.561e-05)
(0.559871 0.0079027 0.00103505)
(0.200428 0.200427 -9.12574e-05)
(0.487455 -0.00136129 -0.00143332)
(0.562594 -0.00284929 -0.00408613)
(0.339806 0.0441192 -0.0134472)
(0.625457 -0.0423163 0.0167742)
(0.55245 -0.0250364 0.00778438)
(0.614324 -0.0235091 0.00583208)
(0.200349 0.200366 -5.89133e-05)
(0.273563 0.232363 0.00153358)
(0.582684 0.00153196 -0.000346957)
(0.199286 -0.200195 -0.000805026)
(0.114286 -0.0814935 0.0313267)
(0.574699 -0.0107363 -0.00809714)
(0.198568 0.198157 -0.000468127)
(0.200459 0.20021 2.43927e-05)
(0.517133 -0.00980331 -0.000112067)
(0.418094 -0.0292546 0.00207012)
(0.200473 0.200502 -3.1262e-05)
(0.517985 -0.0105601 0.00201559)
(0.198522 0.198275 8.06198e-06)
(0.200031 0.200393 -0.000333486)
(0.200059 -0.200037 -5.10484e-05)
(0.200137 -0.199662 0.000477212)
(0.19596 -0.194324 0.000602854)
(0.199488 -0.199077 -4.26488e-06)
(0.520487 0.00476546 -0.00172757)
(0.197573 0.196054 -0.000150205)
(0.199999 0.200131 8.11789e-05)
(0.198319 0.1995 0.000473255)
(0.484867 -0.108435 -0.0278999)
(0.548569 -0.00492604 -0.0107427)
(0.530492 -2.34778e-05 -0.00490336)
(0.582698 0.00147152 -0.000396733)
(0.198599 0.197391 5.5627e-05)
(0.201083 0.200335 2.04647e-05)
(0.558201 -0.00955691 -0.011635)