/*--------------------------------*- C++ -*----------------------------------*\
  =========                 |
  \\      /  F ield         | OpenFOAM: The Open Source CFD Toolbox
   \\    /   O peration     | Website:  https://openfoam.org
    \\  /    A nd           | Version:  10
     \\/     M anipulation  |
\*---------------------------------------------------------------------------*/
FoamFile
{
    format      ascii;
    class       surfaceScalarField;
    location    "52";
    object      phi;
}
// * * * * * * * * * * * * * * * * * * * * * * * * * * * * * * * * * * * * * //

dimensions      [0 3 -1 0 0 0 0];

internalField   nonuniform List<scalar> 
214403
(
-0.000467198
0.000358375
1.96259e-05
8.91968e-05
-0.000224087
-0.000756485
6.36708e-05
0.000916901
-0.000692993
4.67606e-06
-9.40542e-06
0.000697722
0.000615818
-0.000414059
-0.0010322
0.000830444
0.000831605
-0.00105145
0.00025052
-3.06762e-05
-0.000355419
0.000370294
-3.69151e-06
-1.11836e-05
-5.80174e-05
-0.000109773
-0.000623927
0.000791718
-0.00114899
0.000654449
-0.000172905
0.00066745
-0.00157554
0.0011138
0.00112254
-0.000660797
0.00095863
0.000113671
-0.00107187
-4.26601e-07
0.00034069
-0.000674976
0.000138984
0.000195301
-0.000700146
0.000219959
0.000363259
0.000116928
3.19422e-05
-0.00077421
0.000932455
-0.000190187
-0.00067159
0.000676285
-4.69481e-06
0.000129336
0.000807216
-0.00103471
9.81556e-05
-0.000809517
0.000676571
0.000205095
-7.21487e-05
-0.000819408
0.000799206
2.02014e-05
0.000267996
-7.70372e-06
-5.28599e-05
-0.000207433
0.001062
-0.000635364
-0.00141178
0.000985145
-5.24009e-06
-0.000214462
6.29987e-06
0.000213402
0.000442781
-0.000432398
-1.03829e-05
-0.000816588
-0.000282544
0.000280958
0.000818173
-0.000154141
0.000923226
-0.000744683
-2.44012e-05
0.000454652
4.78636e-05
0.000158539
-0.000661054
-0.000692732
-0.000334327
0.000896951
0.000130107
0.000638631
-0.000808605
4.99217e-06
0.000164982
0.000218317
-0.000190935
0.000715518
-0.0007429
0.000517221
0.000676172
-0.00081448
-0.000378913
0.000756168
-0.000474188
-2.13986e-05
-0.000260581
-0.00040662
0.000414486
-7.86539e-06
0.000162913
-0.000341738
0.000917002
-0.000738178
0.000955865
4.5362e-05
-0.000166426
-0.000834801
-0.000389283
-0.00039937
0.00040898
0.000379673
-7.9296e-05
-0.000447083
0.000396102
0.000130278
0.00028805
-0.000192672
-0.000625749
0.000530371
-0.000113933
0.000564226
-0.000203899
-0.000246393
0.00108645
-2.89198e-05
-0.00105754
-0.000466233
0.000909317
-0.000443084
7.84886e-05
-0.000989046
0.000577151
0.000333407
0.000166156
-6.67704e-05
0.000406726
-0.000506111
0.00037578
-3.92267e-06
-0.000371858
0.000693775
-1.50941e-05
0.000122478
-0.000801158
-0.000878758
0.000110683
0.00093423
5.84899e-05
5.87279e-05
0.000583722
-0.000700939
-0.000280738
-0.0018216
0.00176706
0.000335276
0.000393659
7.13933e-05
8.89807e-05
-0.000554033
0.00028662
0.000217213
-0.000701044
0.000197211
0.000903555
0.000541121
-0.000990023
8.20786e-05
0.000767162
-0.000155466
0.000126298
-0.00047331
-0.000278343
0.000625355
0.000214919
0.000330315
9.86578e-05
-0.000643892
0.000123362
-9.26008e-05
-0.000283521
0.00025276
0.000475832
-0.000861129
0.000600217
0.000806987
-0.000759527
-0.000260232
0.000212773
0.000736914
-0.000134784
-0.000582376
0.000789378
-3.35446e-05
-0.000173457
0.000598922
-0.000765885
8.90014e-06
0.000158062
-0.000548698
3.6205e-05
0.000876721
-0.000364227
-0.00103648
-0.000973606
0.000817692
0.0011924
-0.000555084
0.000558588
0.000109762
-0.000113266
8.75698e-05
-0.000709424
-0.00059488
-1.23668e-05
0.000309307
0.000297939
-0.000906175
0.000389416
0.000586223
-6.94645e-05
0.00106627
-0.000860032
5.56802e-05
-0.000261919
4.85171e-05
1.79482e-05
-0.000684629
0.000618164
3.54851e-05
-0.000193509
0.000956016
-0.000797992
-0.00238827
0.00025913
0.000270521
0.00185862
-0.000217513
0.000641384
-0.000203536
-0.000220335
0.00031406
-0.000165566
-0.000670061
0.000521567
7.52733e-05
0.000467593
-0.000594136
5.12692e-05
-1.03549e-05
0.0005733
0.00020016
-0.000763106
-0.00011406
-1.82036e-05
-0.000236945
0.000369208
-0.000623939
0.000680404
-2.50968e-05
-3.13682e-05
2.12535e-05
-0.000613369
-0.000441288
0.000390665
0.000118765
-6.81419e-05
-0.00114613
-7.23209e-05
0.000559024
0.000659422
-0.000338816
-0.000144357
0.000288228
0.000194944
0.000509954
-0.00171054
0.000237345
0.000963241
-0.00026014
0.000523666
-0.000285972
2.24467e-05
0.000369689
-0.00028729
3.57154e-05
-0.000118114
8.72093e-06
-0.000717775
0.000709054
2.42855e-06
0.000581974
-0.000584403
0.000501784
-9.8179e-05
6.64691e-05
-0.000470074
-0.000315046
0.000449603
0.000148898
-0.000283455
-0.000217324
0.000924828
-0.00022223
-0.000485274
0.000437232
-0.0007453
-2.82633e-05
0.000336332
0.000501889
0.000514
-0.00101589
0.000738009
-0.000829022
0.000212027
-0.000121013
7.34194e-05
-0.000132278
0.000959995
-0.000901137
2.74992e-05
-0.000155192
0.000692597
-0.000564904
0.000165813
0.00144598
0.000415369
-0.00202716
-0.00126957
0.00111712
0.000724472
-0.000572025
5.81649e-05
0.000446584
-0.000600493
9.57442e-05
0.000590574
0.000656501
-0.000214919
-0.00103216
0.00110009
-0.000668255
-2.16663e-05
-0.000410171
4.91489e-05
-0.000144137
-0.000452543
0.00054753
-0.000457136
2.55249e-06
0.000454584
0.000668395
2.336e-05
4.62537e-05
0.000833031
6.70075e-05
-0.00127276
0.000372726
-0.000667011
0.000147184
0.000118994
0.000400834
-0.000432032
0.000107149
5.31534e-05
0.000271729
0.000103538
7.3789e-05
-0.000878266
0.000700939
-0.000175976
-0.00102454
0.000653275
0.000547236
0.000419849
-0.000496812
-0.000323851
0.000400814
0.000677694
-6.82279e-06
-0.000677346
6.47458e-06
0.000507362
-0.00071799
-0.000246665
0.000457293
0.00131634
-0.000398264
-0.000205065
-0.000713013
0.000762797
-1.35484e-06
-0.00070123
-6.02123e-05
-0.00038511
0.000453125
0.000943339
-0.00101135
0.000825204
-0.000290317
-0.000793381
0.000258494
0.000151167
-0.000222268
0.000965894
-0.000894793
-0.001088
0.000991211
0.000940323
-0.000843536
4.91131e-05
-0.000847539
0.000326811
0.000471615
0.0010599
-5.68663e-05
-2.15358e-05
-0.000981494
0.000766754
-0.000149519
0.000147721
-0.000764956
-0.000863647
-0.000785497
0.000929719
0.000719425
-0.000168782
0.000484064
0.000131237
-0.00044652
-0.000362783
1.95507e-05
0.000701529
-0.000358297
-8.28339e-05
0.000931514
-0.000867106
1.84257e-05
-0.000824236
0.000765471
0.00014897
-9.02051e-05
-2.76242e-05
-0.000480759
0.00114701
0.000146313
-0.000484788
-0.000356613
0.000695089
-0.000382771
5.02569e-06
0.000377745
0.000117421
0.000533512
-0.000492976
-0.000157956
0.000872853
-0.000503089
-0.000134374
-0.00023539
8.61116e-06
-0.000266136
0.000257525
-0.000482944
-0.000130311
0.000183135
0.000430121
5.05708e-05
0.000277937
-0.000623664
0.000295157
0.00109542
-9.89632e-05
0.000428085
-0.00142455
7.42659e-05
-9.89621e-05
-0.00128821
0.00131291
8.28303e-05
-0.000372772
-0.000487201
0.000777143
3.17811e-05
0.000674816
-3.82016e-05
2.71815e-06
-0.000406062
0.000403344
0.000806088
-0.000299845
-0.00035993
-0.000488367
0.000406316
-0.000400894
0.00090679
-0.000754339
-9.18714e-05
-6.05794e-05
8.88502e-05
-0.000420051
0.000183674
0.000147526
-0.000739685
-0.000223838
0.000150342
0.00081318
0.00061498
-0.000999826
0.000658659
-0.000273813
-2.7803e-05
0.000902992
-0.000904081
2.88928e-05
-2.95709e-06
0.000817421
-0.000809912
-4.55223e-06
-0.00114864
0.000916611
-0.000735938
0.00096797
0.000957697
-0.00092657
-3.11273e-05
-0.000879427
0.00117739
-0.000214904
-8.30627e-05
-0.000786489
0.000189889
-6.13585e-05
0.000657959
-0.00129406
9.971e-05
0.000831928
0.000362421
0.000225037
-0.000307293
0.000171106
-0.000324621
0.000369452
0.000593886
-0.000638717
-0.000336578
-0.000151242
0.000192833
0.000294987
-0.000466751
0.000305251
-0.000589421
0.000750922
0.000140054
1.15116e-05
-0.00103099
-0.000469117
0.000468071
1.04577e-06
0.000495956
-0.000476616
-1.93394e-05
-0.000759079
-5.02908e-05
-0.000201733
0.000186369
-0.00100018
0.00116384
-0.000350037
0.000449977
0.000774148
-0.000984859
-0.000239266
0.000859909
-0.000933955
2.52838e-05
4.8762e-05
0.000457622
0.000118523
-0.000472617
-0.000103528
-0.00071901
-4.30343e-05
0.000948414
0.000426545
-3.088e-05
-0.000520084
0.000124419
0.000480618
-0.000411666
0.000474253
-0.000543205
-0.000819166
0.000154058
0.00111509
-0.00027647
-0.000387096
0.00127963
-0.00061606
-0.000388998
-0.000435365
0.000105352
0.000118019
0.000312554
-0.000819571
-0.000556819
-4.91727e-05
0.000894368
-0.000288376
8.68908e-05
0.000138271
0.00049789
-0.000723052
-0.000259106
0.000634647
-0.000375541
0.000208534
-0.00100593
0.000362034
0.000601364
0.00041849
-0.000901835
-0.000831865
9.96578e-06
0.00103663
-0.00021473
0.000147182
0.000126456
0.000394592
-0.00066823
0.000571295
-0.000575849
4.55372e-06
0.000210633
-7.95494e-05
0.00070709
-0.000838174
0.000758234
-0.000240287
0.000364356
-0.000882302
0.00139361
-0.000449301
0.00104146
-0.00198577
0.000222004
0.000413972
-0.000171645
-0.000464331
-0.000645028
0.000265591
0.000337267
4.21691e-05
0.000460726
-0.000347244
-9.50544e-06
-0.000103976
-0.000287088
-0.000361951
0.00105614
-0.000407106
-0.000517051
0.000672115
0.000266971
-0.000422034
0.000780022
-4.26507e-05
-0.000256753
-0.00118372
0.000782033
-6.50665e-05
-0.00113002
0.00104234
0.000484294
-0.000396612
0.000720668
-0.0008119
-0.000117294
0.000208526
0.000405206
-0.000732458
-0.000383254
-0.000418511
-0.00038381
0.00021734
0.000584981
-0.000597415
0.000185303
0.000589805
-0.000177693
0.000694182
-0.000659718
-0.000455384
0.00042092
4.25251e-06
-6.13485e-06
-0.000663123
0.000665005
1.55707e-05
-0.000567537
-2.15658e-05
0.000573532
-0.000167942
-0.000994138
0.000156647
-0.00057481
0.000516543
-9.83793e-05
-0.000382131
-0.000161064
-5.42205e-05
-1.20555e-05
0.000957729
1.2957e-05
-0.00229253
0.00161355
0.00116585
-0.000486867
-0.000677353
4.58693e-05
2.4312e-05
0.000607171
-0.000133877
0.00214719
-0.00252973
0.00051642
0.000109588
0.00016895
-0.000379127
0.00010059
-0.00145133
0.000782012
0.000100357
0.000568963
-1.69417e-05
-0.000962056
-0.000137362
0.00111636
-0.000388199
0.00144724
-0.00100278
-5.62604e-05
0.000650876
0.000945376
-0.000874975
-0.000721278
-0.000777847
0.000740734
0.000920134
-0.000883021
0.000308116
0.000430501
-0.000536103
-0.000202515
0.000299474
-0.000201979
-0.000479625
-0.00154472
-6.12911e-05
0.00126098
0.000345038
0.000463304
7.29931e-05
-0.000270706
0.000465786
0.000624384
-0.000576344
-0.000513826
-0.000774506
0.00017258
0.000754051
-0.000152125
9.12629e-05
0.000242472
0.00084366
-0.000893377
0.00088218
8.5736e-05
-7.45398e-05
0.000565409
0.000443973
-0.00039917
-1.58046e-05
-0.000112247
0.000527222
-0.000590714
-0.000117359
0.000333829
-0.0011255
0.000475182
0.00031649
3.4981e-05
0.000615055
-0.000682788
3.27529e-05
-0.000231253
4.47224e-05
-0.000214985
0.000401516
0.00095076
-0.000679638
2.83513e-05
-0.000539372
-0.000421988
0.000567454
0.000393907
0.00203936
-0.00218137
0.00071248
-0.000570468
-0.000400784
0.000497826
0.000200728
-0.00029777
-0.000892238
0.000388097
0.000777555
-0.000273414
-0.000385881
0.000561635
0.000722248
-0.000898002
0.0010768
-0.000416394
-0.000710075
4.96666e-05
1.85577e-05
-0.000258426
0.000628583
-0.000388714
-0.000109151
0.000108258
-0.000830973
0.000780129
0.000252536
-0.000835139
-0.000197526
0.000973604
-0.000801706
-0.000214932
0.000200645
0.000294878
-0.000703362
0.000207839
-0.0004107
-0.000750834
0.000668534
0.000492999
-0.0001231
-0.000319403
-9.68687e-05
0.000401358
-0.000428377
0.000923614
-0.000896595
9.70004e-05
-0.00111416
0.00101716
0.000367789
-0.000483801
0.000316656
0.000210315
0.000122995
0.000172794
-0.000506104
-2.2386e-05
-0.000928894
0.00095128
-0.000520013
6.90131e-05
-0.000168615
0.000619615
-6.14824e-05
0.0007049
-0.00064244
-9.78029e-07
-0.000478451
-0.000253
0.000276109
0.000455341
-0.000178478
-0.000423073
-0.000392897
-0.000577548
0.000481599
0.000488846
2.12165e-05
-0.000592592
0.000997805
-0.000410414
-5.3196e-05
-0.000534195
0.000544811
-5.32348e-05
-0.00039752
-9.40569e-05
-8.74426e-05
0.000761797
-0.000949699
0.000275345
0.000479236
1.85223e-05
0.000233405
-0.000731164
-1.77037e-05
-0.000395573
0.000190986
0.00022229
-0.000280666
0.000364703
0.0007036
-0.000787638
-0.000990997
-0.000250053
-0.000271159
0.000889001
-0.00084788
2.02852e-05
0.000265122
0.000562473
8.18436e-05
-0.000300953
-0.000535582
0.000754691
-0.000399193
-0.000779235
0.000196605
0.000981823
-0.000349674
-0.000386196
0.000401486
0.000334384
-0.000917946
0.00088378
0.000934902
-0.000900736
-0.000127746
-0.000223149
-0.000672003
0.0010229
-0.000923139
8.6816e-05
0.000938371
-0.000102048
-0.000161159
0.000423068
-0.000261908
-0.000372342
0.000688587
-0.0005184
0.000202156
-1.49273e-05
0.00120656
-0.000449272
-0.000742364
-0.000431844
-0.000208208
0.00086561
-0.000225557
0.000139144
-0.000365029
0.000828325
-0.00060244
3.89265e-05
0.000551825
-9.67259e-05
-2.91633e-06
-0.000881134
0.000880788
3.26141e-06
0.00103294
-0.000182919
-0.00150956
0.000659539
-0.000953727
-9.30339e-05
0.00119021
-0.000143451
-0.000515542
0.000779189
6.4022e-05
-0.000327669
0.000452793
-0.000448374
-4.41866e-06
-0.000537926
5.21026e-05
-0.000464608
0.000950431
-0.000774067
0.00106717
-0.000222673
-7.04342e-05
0.000483674
-0.000202788
-0.000582539
0.000301652
-0.000932911
0.000940355
-7.44383e-06
0.000769504
-0.00111863
9.11424e-05
0.000257988
-0.000871474
-0.000238762
0.00149012
-0.000379881
0.000642576
-2.57861e-05
-0.000135426
-0.000481364
-0.000367175
-0.000622774
0.00139131
-6.53329e-05
-0.000918916
0.000555872
0.00141351
-0.00157657
-0.000149675
0.00031274
0.000395586
0.000188656
-0.00043706
-0.000411016
0.000427749
-1.67332e-05
-0.000164951
0.000923021
-5.86212e-05
-0.000699449
-0.000201371
0.000238748
0.00080088
-0.000838257
0.000523428
0.00122977
-0.000719271
-0.00103392
0.000921923
-0.00110613
0.000351584
-0.000167381
0.000815769
1.16547e-05
-0.000827424
1.53342e-05
0.000793914
-0.000809248
0.000897112
-0.00108524
0.00095763
1.01206e-05
-8.35564e-06
0.000696391
-0.000698156
1.81575e-05
0.00127256
-0.00126764
-2.30778e-05
-0.000108512
-0.000321252
-0.000650586
0.00108035
-0.000397069
-0.000237891
7.94639e-05
0.000754222
-0.00130947
0.000475784
-0.000620172
-0.000162464
0.000664766
0.000117871
-0.000751048
0.000829676
-0.000221632
0.000143004
0.000115256
0.000601271
-0.000204424
-0.000512102
-0.000282751
6.69817e-05
0.000488374
-0.000272605
1.80538e-06
0.000233495
-0.000296964
6.16635e-05
-0.00031713
0.000780994
-0.00045241
-1.14536e-05
0.000232516
-0.000735911
-0.000429516
5.44199e-06
-0.000685575
0.000680133
-0.000261467
-0.000250991
0.000116278
0.00039618
0.000375277
-0.000216363
-0.000158914
0.000960293
-0.000953376
-0.000194939
0.000188022
-8.69356e-05
-0.00056828
0.000524015
0.0001312
-2.43243e-06
3.26264e-06
0.00052626
-0.00052709
0.000263797
-0.000216755
-0.000838637
0.000791596
0.000607197
-1.5236e-05
-0.000591961
-0.000866681
-0.000560844
0.000836216
0.000591309
0.00050896
0.00079725
-0.00137154
0.000482178
-0.000173792
0.000271981
-0.000580367
-0.000193506
0.000193385
-0.00106715
0.00106727
0.000301616
-0.00059405
-0.000577117
0.000869551
-6.05542e-05
-0.000133458
0.000629249
-0.000435236
0.000438021
-0.000538362
0.000195044
-9.47028e-05
0.000251346
-0.000416198
-0.000402017
0.000566869
-0.000789852
0.000889223
-0.000236693
0.000137322
0.000911447
0.00117274
-0.00129241
-0.000791774
-0.000696624
0.000693788
2.83609e-06
-7.917e-05
0.000824012
-0.00102602
0.000281175
3.07907e-05
-5.1619e-05
-0.000791692
0.00081252
0.000759929
3.1795e-05
-0.00087425
8.25258e-05
-0.000340038
-0.000574467
0.000722582
0.000191922
-0.000822451
0.00116557
-0.000412623
6.95054e-05
-0.00032331
-0.000397179
0.0002357
-4.91962e-05
-8.26895e-06
-0.000569089
0.000626554
-0.00185696
7.97515e-06
0.000165499
0.00168348
7.16669e-05
-0.000460298
-0.000239065
0.000627696
0.00116243
-9.55491e-05
-0.000376447
-0.000690433
-0.000199418
-0.000438408
8.08177e-05
0.000557008
0.000333461
-1.16473e-06
-0.000332296
0.000547101
0.000291419
-0.000181456
-0.000657064
0.000422931
-0.000334821
0.000833445
-0.000921555
2.66089e-05
0.000866989
-0.000286677
-0.000606921
0.000210681
0.000300957
0.000650791
-0.000404564
3.09158e-05
0.000373649
-0.000529692
7.6071e-05
0.000139807
8.82385e-05
-0.000728431
0.000500385
-0.00070657
0.00103395
0.000313306
0.00106859
-0.000226692
-0.00115521
-0.000679499
0.000664638
-0.00105334
0.0010682
-9.92664e-05
-0.000497115
0.000174084
0.000422297
-0.000559363
0.00106125
0.000317987
-0.000384303
9.1398e-05
-2.50822e-05
-0.000348578
-0.00111003
0.000347292
0.00111132
0.000728929
-0.000727458
-6.59472e-06
5.12422e-06
0.000586926
-0.000685748
0.000145552
-4.673e-05
0.000151032
0.000592344
-0.00105506
0.000311683
2.5501e-06
0.000496467
-0.000499017
0.000329739
-0.000844472
0.000665764
-0.000318999
0.000856537
0.000721559
-0.0012591
0.000242329
-0.000247974
-0.00114969
0.00115533
-0.000348357
0.000576408
-0.00115624
0.000928194
-0.000825523
0.000657264
0.000861732
-0.000693472
-0.00050623
0.00069327
-0.00044794
0.0002609
-0.000111716
0.000486455
7.94469e-05
-0.000454186
0.000235866
-0.000343611
0.000354146
-0.000246401
0.000465612
0.00017332
0.000153307
-0.000792239
0.00129598
-0.000879174
-5.34737e-05
-0.000363333
-1.69136e-07
-0.000628213
0.000628382
0.000395258
-0.000576785
-0.00176863
0.00195016
-7.90105e-05
-0.000856766
-0.000259534
0.00119531
-5.0709e-05
-0.000384376
0.000435085
0.000119757
0.000568788
-9.04229e-05
-0.000598122
-0.000155474
-0.00056111
0.000452951
0.000263632
0.000454422
-0.00038081
-0.000668491
0.00113151
-0.000880779
0.000255097
0.000269831
-0.000524928
0.000857411
-1.03583e-06
-9.82414e-05
-0.000758133
-0.00016748
-0.000285189
0.000452669
0.000297622
0.000197135
0.00170919
-0.00205616
-0.00072536
0.00107233
0.00025641
0.000546336
-0.000417887
-0.000384858
-0.00059794
0.0011458
0.000760413
-0.00130827
0.000673855
0.00023387
-9.01575e-05
-0.000817568
0.00109101
-0.000727385
0.000469406
-0.000833034
-0.000623264
0.000285114
-0.000780925
0.00111908
-0.00101776
0.00182416
-0.000714745
-9.16598e-05
-2.90478e-05
-0.00042396
-0.000585088
0.0010381
0.000824695
0.000341013
-0.000968173
-0.000197536
0.000442487
-0.00118029
0.00074471
-6.91047e-06
-0.00104174
-3.94659e-05
0.000681274
0.000399929
-0.000208293
0.000540123
0.000235283
-0.000567114
-0.00013262
0.000531067
0.000427521
-0.000825968
-0.00108547
0.000558647
-5.26393e-05
0.000579467
9.54784e-05
-0.000287876
0.000574361
-0.000381964
0.000470383
-0.00023666
0.000167904
-0.000401628
0.000445838
8.49346e-05
4.36926e-05
-0.000574465
-0.00064291
0.00069001
0.000255392
-0.000302492
-0.000155661
0.000834992
1.65949e-05
-0.000695927
0.000674891
-0.000396058
-0.000261809
-1.70243e-05
0.000568548
3.79291e-06
-0.000572341
0.000416159
0.000322308
-7.30664e-05
-0.000665401
0.000199374
0.000525183
0.000448264
-0.00117282
-7.13402e-07
-0.000941861
0.000942574
-0.000492671
0.0019045
-0.000277235
-0.0011346
-8.01739e-06
0.000709116
-0.000701099
-4.64351e-05
-0.000500038
8.97559e-05
0.000456717
-0.000927762
0.000471877
0.000360644
9.52406e-05
0.000189318
0.000157548
-0.00108606
0.000739199
0.000541732
0.000855818
-0.000319839
-0.00107771
0.000834589
-0.000286655
-0.000798973
0.000251039
-0.00104131
0.000593907
0.00158717
-0.00113976
-2.76323e-06
0.000408528
-0.000408493
2.72792e-06
-0.000421693
0.000417254
4.43918e-06
-0.00105989
1.6144e-05
0.000445803
0.000118796
0.000256129
0.0007011
-0.00107602
0.000538062
-0.000639187
0.000412977
-0.000311853
-0.0005413
0.000474046
-1.79015e-05
8.51548e-05
-0.000106591
-0.000882081
0.001126
-0.000137331
-0.000399582
0.000192386
0.000632546
-0.00042535
0.000676997
-0.000261522
9.96407e-05
-0.000515115
-0.000438582
-7.63554e-05
0.000513374
1.56418e-06
-7.90595e-05
-4.21465e-06
0.0007511
-0.000667826
9.24126e-05
-7.85706e-05
0.000733669
-0.000747511
-0.000660343
0.000924082
-0.00096858
0.00070484
4.90532e-06
-0.000830685
0.00082578
-0.000296237
2.55966e-05
0.000747133
-0.000476492
-0.00055671
0.000650838
-0.000887489
0.00079336
-0.000572239
4.40557e-05
0.00017157
-0.000270876
0.000731567
4.09297e-05
-0.000501621
-0.000193196
2.74666e-05
-0.000322637
-0.000288563
-0.000934652
0.000939178
0.000284037
-0.000415407
-4.8991e-05
-0.000104149
0.000568547
-0.00142863
0.000482581
0.000142675
0.000803378
-0.000439097
0.00103457
-0.00052043
-7.50397e-05
0.000306398
0.000120347
-0.000619941
0.000621066
0.000632986
-0.00125405
8.41444e-05
0.00136187
-0.000313947
-0.00113207
-1.77103e-05
-2.48597e-05
-0.000615945
0.000658515
-0.000655896
0.00107991
-0.000434578
1.05624e-05
0.000621856
-0.00039247
-0.000563635
0.000334249
0.000158488
-2.11915e-05
0.000194229
0.000953026
0.000262003
-0.00137407
0.000159039
-0.000661024
-8.56112e-05
0.000216807
0.000529828
0.000244715
-0.000274154
-0.00036774
0.00115189
-0.000774949
0.000602482
-0.000979422
-0.000127831
0.000743167
-0.00128475
0.000669414
0.000446118
-0.00056375
-5.7181e-05
0.000174813
-0.000482544
-0.000167829
-1.6347e-05
0.000666719
-0.000367381
-0.000347452
0.000714834
9.2503e-05
-0.000988975
0.000876816
1.96567e-05
0.000378061
-0.000364666
-0.000380776
-0.000612659
0.00077645
-0.000148522
-1.52683e-05
0.000868483
0.000238052
-0.000934462
-0.000172073
-0.000336965
-0.000494307
-5.66359e-05
0.000887908
0.000574637
-0.000174604
0.000666218
-0.00106625
-0.000625007
-3.53361e-05
-0.000747327
0.000399875
9.42529e-05
-0.000819804
0.000262142
0.000463409
0.00024384
-0.000873336
0.000480271
0.000149226
0.000129435
3.48422e-05
-0.000652493
0.000488215
9.73634e-05
0.000421446
-2.95932e-05
0.000753992
-0.000149081
-0.000575317
-0.000294074
-3.26581e-05
-0.000275578
0.00060231
-0.00017514
-0.000235876
0.000451044
-4.00272e-05
-0.000683761
-8.97097e-06
-0.00115378
0.000413918
0.000607247
0.00164243
-1.35496e-05
0.000224267
-0.00185314
-0.000717386
0.00111539
0.00022594
-0.000623944
-0.00020448
0.00011127
0.000706213
-0.000613003
8.37731e-05
0.000237666
-0.0001839
-0.000137539
-0.00123272
-0.000254194
0.00106631
0.000420604
2.78356e-05
0.000534046
-0.00010746
1.60675e-05
0.000262706
-0.000824488
0.000545714
-0.000499024
-1.74645e-06
0.000183967
0.000316803
-0.000716529
0.000885263
-0.000140899
0.000403157
-0.000363372
-3.97844e-05
-0.000581231
8.38695e-05
-0.000453162
0.000950524
-0.000269326
0.000405074
-0.000312233
0.000176485
-0.000579633
0.00065219
-0.000269424
0.000196867
0.000251522
-4.17843e-05
-0.000586609
0.000376871
-0.0002594
0.00162704
-0.00219009
-0.000225179
-0.000157302
0.000153983
0.000228498
0.000753381
-0.00117721
-5.34988e-05
0.000477329
-0.000311577
0.000232377
0.00040079
-0.000321591
-9.38315e-05
0.000492837
-0.000134969
-0.000264036
-0.00055404
0.000122993
0.000129534
0.000301514
-0.000322637
2.7686e-05
0.000294951
0.000711176
-0.000338649
-0.000360769
-1.17587e-05
5.45821e-05
0.000371348
-0.000563704
0.000137774
-0.000380688
-0.000461129
0.000470291
0.000371526
-0.000202108
0.00051995
-0.000445485
0.000127643
0.000183979
-0.00034842
0.000240024
-7.55829e-05
0.000683126
1.93893e-05
-0.000702515
0.000588632
-0.000725505
0.000359367
-0.000222493
-0.000920441
-2.59472e-05
0.000946388
0.000372379
-0.000308972
7.21076e-05
-0.000135514
-3.09296e-05
0.000654323
-0.000713032
8.96388e-05
-0.000320785
0.000401605
0.000103159
-0.000373227
0.000799785
0.00073901
-0.000619758
0.000614265
5.49303e-06
1.43972e-05
-0.000982802
0.000968404
0.00132819
0.000159343
-0.000282901
-0.00120463
0.000275849
-0.0010818
-0.000132401
0.000938356
0.000205808
0.000242823
0.000139382
-0.000588013
-0.000372098
-0.00037278
5.68658e-06
0.000739192
-0.000177307
0.000243536
-0.000438327
-0.000817504
0.000147784
0.00107294
-0.00040322
-0.00160384
0.00117436
0.000517535
-8.80517e-05
0.000708216
5.83627e-06
-0.000714052
-0.000411289
-0.000553448
0.000357845
0.000606891
-0.000404707
-0.00058803
0.000175233
-0.00057419
0.000312373
0.000359181
0.00023697
-0.00030846
-0.000564972
0.000636462
-0.000389914
2.65832e-07
0.000389648
-0.000931863
0.000377983
0.000384921
0.000168959
0.000229624
-0.000617166
-0.000186647
0.000799631
-0.000253805
-2.00276e-05
-0.000525798
-0.000536133
0.000889356
0.000527897
-0.00088112
-0.000163304
-0.000338616
0.000129474
0.000372446
-0.000220821
-0.000177617
0.000398437
-0.000394312
-0.000828897
-0.000380632
0.000189501
2.42062e-06
0.000382595
-0.000574516
0.000760435
-0.000554199
-0.000800096
0.00059386
-0.000281948
0.000100774
0.000570039
-0.000388866
0.000522655
-0.000367889
-5.19233e-05
-0.000102843
-0.000598828
9.71909e-05
0.000467869
3.37682e-05
-0.000369865
0.000848179
-0.000925152
0.000360782
2.67615e-05
0.000537609
0.000880477
-0.000708808
-0.000551847
0.000380177
-0.000705106
0.000146798
0.00131874
-0.000670993
-0.000442943
0.000721983
0.000391954
-7.88477e-05
0.000698257
-0.000264745
-0.000354664
4.06819e-05
-0.000420408
-0.000277749
0.000657475
0.000795179
-0.000524471
-3.23057e-05
-0.000238403
0.000251484
0.000187615
-0.000616405
-0.00016716
0.000189116
0.000466671
-0.000488627
-0.000142444
0.000739731
-0.000911265
0.000313978
-0.000454611
0.000109604
0.000110073
0.000234934
-0.000972638
0.000988788
-1.61505e-05
0.000665148
-0.000655361
-9.78699e-06
0.000270037
-0.00104288
-0.000400617
0.00117346
0.000238783
0.000454757
0.000106091
-1.11356e-05
0.000387572
-0.000376436
0.00063305
0.000567743
-0.00120079
-0.00069132
0.000421996
0.00029835
-2.9026e-05
-0.0003883
0.000127986
0.000315629
-5.53146e-05
-0.00118706
0.000554248
0.000651335
-1.85234e-05
-0.000375928
-0.00041959
0.000405604
0.000608997
-9.63357e-05
-0.000391865
-0.000120797
-0.000638974
0.000688605
-0.000419496
0.000116077
-0.000736573
-3.66361e-05
0.000657132
-8.48189e-07
-0.000368351
0.000369199
0.00177688
1.20822e-05
0.000190287
-0.00197925
-6.83266e-05
-0.000133927
-0.000985868
0.00118812
0.000302877
-0.000410022
-0.000189518
0.000296662
0.000120273
0.000917471
-0.000371858
-0.000665886
0.00099982
-0.000999858
-1.94482e-06
1.98278e-06
-0.000562225
-0.000507166
0.000792703
0.000276688
0.000327512
0.000249974
-0.000652112
7.46257e-05
4.77276e-06
0.000608128
-0.00062156
8.65899e-06
-0.000836261
0.00026852
0.000677646
-0.000109906
0.000626253
0.00037826
-0.000633786
-0.000370728
1.53579e-05
-0.00057281
0.000289472
-0.000148715
0.000859063
-0.000452533
-5.88961e-05
-7.06126e-05
0.000582042
-0.000776109
4.16751e-05
0.000734434
0.00113241
0.000486901
-0.000366201
-0.00125311
-0.000739148
1.58833e-05
0.000738623
-6.592e-05
-0.000171302
-0.000438361
0.000675583
-7.99441e-05
-8.87691e-05
-0.000239077
0.00040779
0.00018609
-0.000944197
0.000711907
4.62008e-05
0.000582944
-9.16624e-05
-0.000566824
7.55421e-05
-0.000703488
0.000141405
4.34433e-05
0.000518639
-0.000274286
0.000181952
-0.000382348
0.000474683
0.000158679
0.000103105
-0.000936646
0.000674862
3.30871e-05
-0.000634195
-4.4619e-05
0.000645727
0.000627637
8.23661e-05
-1.09282e-05
-0.000699075
-0.000750551
0.000174775
0.000679314
-0.000538446
-0.000714801
0.00125325
0.00102942
-0.00052242
0.000226168
-0.000733168
8.14612e-05
0.000573775
-0.000352358
-0.000838519
0.000150697
0.000299447
0.000388375
0.00103527
-0.00107291
3.76439e-05
-0.000642975
-0.000218024
0.00044993
0.000411069
-0.000816835
-0.000634299
0.000425355
0.00102578
0.000831226
-0.000868203
-0.000106476
0.000143453
-0.000120138
0.000404079
-0.000318723
3.47818e-05
-0.00106547
0.000347703
0.000244631
0.000473138
-0.00155673
0.00192611
0.000332891
-0.000702269
0.000691015
-0.0015086
-8.48704e-05
0.000902451
-0.000619975
0.000799738
-0.00147128
0.00129151
-0.000644369
0.00141042
0.000143562
-0.000909614
5.76632e-05
0.000681486
-0.000159411
-0.000579739
0.00103616
-0.000777062
-2.61387e-05
-0.00023296
-0.000178082
-0.000170863
0.000261287
8.76588e-05
-0.000479422
-0.00100522
0.000861462
0.000623179
-0.00069458
0.000925057
0.000805684
0.000578368
-0.000425071
-0.000529817
0.000376519
0.000204256
-0.000264338
-0.000116763
0.000176845
0.00045157
-0.000446434
-0.000595972
0.000590835
-0.000183446
0.00052636
-3.81402e-05
-0.000304774
-0.000743732
-0.000118941
0.000920336
-0.000549942
-0.000135171
0.000679847
5.26594e-06
0.000234863
-0.000524739
0.000289876
0.000183486
-0.000243823
0.000906525
-0.000846188
0.000707406
-0.000996231
0.00014475
0.000144076
0.000459887
-0.000495119
3.5232e-05
-0.000713946
1.93655e-05
0.00062697
-0.000239401
-0.00060554
0.000217971
0.000200934
0.000162588
0.000711986
-0.00107551
0.000450419
-0.000488842
3.84233e-05
-5.30271e-06
0.000543006
-0.000613849
7.61451e-05
-0.000784175
-7.58124e-05
0.00104347
-0.000330872
-5.66356e-05
7.64592e-05
0.000311048
4.57112e-05
-0.000378314
0.000279184
5.34184e-05
0.000620026
-0.000593546
-0.000146617
7.2508e-05
0.00104527
-0.000658173
-0.000459602
-0.000358673
0.000752918
-0.000394245
-0.000974633
0.000373307
-0.000228385
0.000829711
0.000768793
-0.000696311
-0.00113795
-0.000382124
-0.000456616
0.00157007
-0.000731333
-0.00109772
0.000698468
0.00099574
-0.000596482
-2.39706e-05
-0.000933785
0.000957755
0.00148518
3.56872e-06
-0.000856024
-0.000632721
0.000860379
-0.00055421
-7.52839e-05
-0.000230885
-0.000626555
0.000442522
-0.000109349
0.000293381
8.39897e-06
-0.000642465
0.000634066
-0.000461612
0.000475099
-1.3487e-05
-0.000342253
-0.000362518
-0.000928496
0.00163327
-0.000874367
0.000190647
-9.75996e-05
0.000781319
0.000207071
0.000335909
0.000894833
-0.00080732
-0.000667987
0.000580474
-0.000248988
-0.000512503
0.000565193
0.000196297
-0.000517431
-0.000263286
0.000781433
-7.15548e-07
0.00016866
-9.70942e-05
-0.000477137
0.000405572
0.000571166
2.51933e-05
-0.000730125
0.000133766
0.000176377
-0.000122642
0.000193085
-0.000232892
0.000231922
-0.000192115
0.000468147
0.00045797
-0.000467945
-0.000458172
0.000228488
0.000533107
-0.000552049
-0.000209547
0.0004768
0.000206725
-0.000377127
0.000603603
-0.000731858
0.000153448
-0.000801053
0.000560329
0.000301116
-6.03916e-05
0.000936445
-0.000312186
-0.000982933
-0.000255876
0.000681895
0.000342773
0.000663585
-0.000323268
-0.000558569
-0.000152319
-9.0165e-05
-0.000893009
0.000834904
7.90262e-05
-2.09214e-05
-5.56561e-05
0.0011142
-0.000116083
-0.000942457
-0.000730254
0.000148889
0.000325489
-0.000113985
-0.000719255
0.000202221
0.000631019
0.000667049
9.27458e-05
-2.7175e-06
-0.000757077
-0.00099306
-8.40888e-06
6.44585e-06
0.000995023
-0.000261559
0.00028294
-0.000467022
0.000445642
-0.00068481