/*--------------------------------*- C++ -*----------------------------------*\
  =========                 |
  \\      /  F ield         | OpenFOAM: The Open Source CFD Toolbox
   \\    /   O peration     | Website:  https://openfoam.org
    \\  /    A nd           | Version:  10
     \\/     M anipulation  |
\*---------------------------------------------------------------------------*/
FoamFile
{
    format      ascii;
    class       volScalarField;
    location    "52";
    object      SgP;
}
// * * * * * * * * * * * * * * * * * * * * * * * * * * * * * * * * * * * * * //

dimensions      [1 -1 -3 -1 0 0 0];

internalField   nonuniform List<scalar> 
111485
(
1.52486e-09
1.70169e-06
5.54808e-07
5.63006e-12
1.40904e-07
2.50074e-09
2.69283e-07
1.08286e-08
2.58335e-07
2.42247e-08
5.08604e-07
2.06036e-08
1.31539e-07
0.00517132
1.32844e-07
2.6999e-07
0.00367625
1.6062e-05
1.67382e-08
2.52277e-08
0.00069277
2.33122e-10
5.03691e-08
1.75824e-07
9.08141e-07
2.16421e-09
2.09997e-08
3.15583e-07
4.87716e-08
0.000902594
6.96517e-08
3.1518e-09
6.32258e-09
2.55531e-08
1.34919e-05
1.80201e-06
0.00241798
0.00362997
4.26232e-05
7.02205e-08
0.000722329
1.62925e-08
5.34338e-08
2.02722e-06
2.87925e-07
3.90988e-08
1.22823e-07
1.51633e-08
1.29256e-07
1.45376e-08
2.91212e-08
3.57647e-07
1.03807e-08
1.76985e-07
3.4814e-08
1.17172e-09
2.81812e-08
4.18571e-10
8.70042e-07
8.50917e-09
1.84687e-08
5.82029e-09
1.87169e-06
1.10312e-07
1.50037e-07
5.30414e-07
6.80693e-06
2.66664e-08
1.42354e-06
3.0338e-06
9.56759e-07
2.01151e-06
2.14416e-07
1.76252e-06
5.78095e-09
2.64116e-09
1.11381e-09
1.47062e-08
1.98276e-09
4.87011e-07
0.00496749
0.00922153
9.27121e-10
2.17911e-09
3.33003e-07
7.5294e-07
0.00249496
1.4061e-07
4.38637e-06
1.4374e-07
2.88396e-08
1.26e-07
9.04455e-07
7.60911e-09
3.99111e-08
4.24067e-10
0.000505054
2.72019e-07
3.00277e-05
8.30252e-06
7.20195e-10
5.59899e-08
3.54574e-08
2.27773e-07
1.30446e-07
2.54728e-07
1.91517e-10
3.78265e-09
2.55328e-07
1.17389e-05
8.69051e-07
2.11349e-08
2.46051e-07
1.3629e-06
5.63026e-09
6.34908e-09
1.55887e-09
1.64877e-07
4.7137e-07
1.55695e-10
1.14767e-09
3.35903e-06
0.00124904
4.51686e-08
8.27943e-07
0.000530784
1.97826e-06
3.07802e-07
1.75842e-11
5.5582e-06
2.83765e-06
3.67085e-07
0.000884791
3.16986e-06
1.47447e-06
3.63157e-09
2.02079e-10
1.19602e-08
2.17074e-07
4.22062e-07
1.3704e-06
3.10952e-09
0.00317022
1.74198e-06
6.64682e-07
5.10105e-08
2.32902e-10
8.35778e-10
2.22177e-09
1.95368e-08
6.01626e-07
0.000530848
0.00197845
2.63623e-07
1.18638e-06
1.51604e-09
7.47894e-08
2.99868e-06
1.61668e-05
1.09077e-07
7.03638e-11
5.16437e-09
7.24139e-07
1.11941e-06
1.34527e-06
9.57565e-07
1.19421e-07
0.000451772
2.74644e-05
2.20151e-06
4.09219e-11
2.10889e-09
0.00347445
2.67168e-11
6.31331e-09
6.5993e-08
7.9575e-09
1.6104e-07
4.05249e-09
9.67454e-08
1.50182e-07
4.99537e-09
2.63976e-08
7.36537e-09
5.02526e-08
4.0556e-07
1.95831e-07
8.24204e-07
6.44609e-06
5.54062e-09
1.12677e-06
9.14105e-08
1.31591e-07
3.90086e-07
1.1038e-07
2.33542e-07
5.43151e-08
2.79101e-08
2.00856e-08
1.54777e-07
3.52495e-08
2.7964e-05
1.44801e-06
1.05812e-08
3.05502e-08
1.01584e-07
2.178e-07
2.0042e-07
2.90138e-07
7.52615e-08
8.30905e-08
1.45404e-07
1.41396e-07
1.20384e-10
1.5788e-06
5.0539e-06
6.99535e-09
3.16883e-10
2.23151e-07
3.61363e-07
1.90371e-08
1.35316e-09
3.18976e-07
2.66289e-07
5.06276e-06
1.16423e-10
2.2211e-11
6.62509e-07
7.37806e-05
4.10454e-07
1.72406e-06
2.86063e-07
2.47698e-08
0.00255585
6.52949e-07
2.01992e-07
0.00284556
1.386e-09
1.03629e-06
4.867e-07
4.5771e-07
5.89542e-07
1.10452e-07
7.49336e-08
3.29817e-05
6.57829e-09
1.44422e-07
1.48984e-09
1.05829e-07
0.00240158
3.57821e-07
3.38048e-07
3.8328e-07
2.51563e-11
3.63294e-06
1.54356e-08
5.71287e-09
1.20562e-06
0.001804
1.56118e-09
1.10144e-07
1.06909e-06
1.98112e-08
6.55615e-11
1.13197e-07
1.5816e-11
9.68822e-10
1.2452e-08
0.00297155
6.6352e-08
5.68397e-07
1.89964e-08
0.00311021
3.69619e-07
1.7127e-08
4.26758e-06
7.48554e-08
2.7935e-08
9.42219e-09
1.8374e-09
0.0020352
1.02831e-08
7.75887e-07
4.32998e-07
2.67125e-11
0.00382581
0.0046693
3.50459e-08
6.15618e-06
5.63024e-07
5.84222e-08
1.48185e-07
2.44193e-07
1.64555e-10
1.32197e-07
3.25119e-10
6.30484e-06
4.9354e-06
2.86552e-07
3.6101e-08
0.00606064
6.05633e-09
0.00144089
1.44956e-08
1.28028e-07
2.22896e-10
2.20354e-09
0.000461976
6.45574e-08
3.22802e-08
1.30176e-07
2.96168e-06
7.1606e-09
4.57811e-07
7.7339e-10
3.91561e-09
8.70013e-08
7.48867e-05
0.00441253
5.8948e-08
1.38576e-05
1.77158e-10
1.02282e-09
4.48698e-10
1.49472e-06
2.73941e-08
1.49761e-08
5.71653e-08
1.32942e-08
1.31994e-06
0.00112863
9.71039e-08
1.00704e-08
5.62569e-08
3.26943e-08
0.000795811
9.29276e-07
1.07581e-08
1.62955e-08
1.69313e-08
2.37578e-07
2.69233e-09
0.0026474
4.35978e-06
8.65391e-09
6.65273e-08
4.85609e-06
1.18901e-08
0.000652046
2.55417e-09
2.12743e-07
1.05682e-07
8.88351e-09
3.60616e-07
1.75632e-07
6.86187e-09
9.12755e-09
2.12573e-08
5.00294e-08
0.00634452
5.44441e-07
1.26111e-09
0.000882313
3.30572e-07
4.20041e-10
8.77594e-09
2.16788e-09
0.000880195
1.23874e-05
0.000856222
0.000824261
6.25934e-09
2.16554e-10
2.96262e-08
5.09225e-08
3.45493e-11
1.84049e-07
4.71166e-08
2.83219e-07
5.06945e-07
2.54451e-06
8.46453e-08
1.25799e-05
2.61075e-08
9.09067e-08
8.82027e-07
1.23019e-08
1.25846e-05
5.51639e-09
2.35019e-07
5.82285e-08
0.000503805
1.99465e-09
1.30271e-09
0.00272018
1.21837e-07
0.00538808
7.80749e-09
1.12744e-07
6.17273e-08
1.31988e-10
9.75412e-08
8.28968e-07
1.67697e-09
0.000596686
8.15241e-08
4.95074e-08
1.6637e-08
3.18435e-10
1.31479e-05
3.48056e-10
1.62193e-07
6.68818e-08
1.3293e-12
1.67148e-08
9.12211e-07
0.00433056
2.59794e-06
3.90635e-11
1.43944e-06
1.75495e-06
1.77735e-06
6.65831e-07
1.17775e-05
4.48291e-08
1.95069e-05
9.70881e-07
0.00358995
4.17247e-06
3.8234e-09
1.3472e-07
2.60516e-08
1.94483e-09
2.43369e-05
3.89472e-06
1.39227e-06
2.95369e-08
3.11176e-08
2.34903e-07
3.64685e-09
0.00614949
3.82155e-08
6.03737e-07
8.4401e-05
1.68924e-06
2.48998e-05
1.23022e-09
0.00449304
0.00581336
4.1224e-10
6.51599e-07
5.25007e-06
1.99976e-06
6.19444e-11
4.80398e-07
4.34349e-10
0.00501146
1.34657e-06
3.70524e-07
2.0818e-06
5.38536e-07
4.63518e-09
8.50588e-08
1.3514e-08
1.33538e-06
2.93163e-09
1.79448e-08
0.000977569
1.74165e-06
1.79237e-09
2.06973e-09
7.29956e-06
1.53903e-09
3.1454e-08
7.95768e-08
6.74811e-11
1.05908e-06
1.66807e-09
0.00138477
8.48175e-09
4.47077e-08
3.12658e-09
4.26379e-06
8.8745e-09
0.00396959
3.92186e-07
0.00415883
4.77552e-10
1.14469e-06
4.68533e-08
6.03968e-11
0.00646782
0.00251366
5.32002e-07
6.96081e-08
5.64709e-07
1.49885e-08
2.55007e-07
5.94446e-09
6.94508e-07
0.00507385
1.056e-09
2.05298e-08
1.9572e-06
3.25272e-07
0.000986904
1.04569e-07
2.01693e-06
3.06245e-08
2.78239e-08
1.32412e-05
0.00136538
2.38124e-07
9.62562e-09
2.21928e-08
7.73074e-08
6.03233e-08
2.31017e-08
4.04863e-07
2.10222e-11
3.01738e-05
2.0691e-09
6.52722e-09
4.78985e-09
1.78421e-06
4.99917e-10
1.4824e-07
4.12066e-09
1.64166e-07
1.30086e-09
0.00205236
0.00198841
4.4631e-07
6.91832e-09
0.00108549
0.00142055
5.67623e-09
4.16733e-09
2.69974e-07
3.85182e-09
2.69896e-06
2.89515e-07
2.31213e-07
0.000795453
3.85637e-08
9.17137e-11
8.20216e-07
7.99504e-07
1.13223e-06
2.18206e-08
3.40909e-07
2.60654e-07
2.57341e-08
1.87736e-08
4.11531e-07
6.29515e-07
1.61498e-10
0.00225866
1.31374e-06
8.71061e-07
3.45033e-08
2.07389e-05
6.32514e-07
8.70153e-06
4.06197e-05
6.1481e-06
4.60728e-08
1.69716e-06
2.27852e-07
4.27289e-07
0.00201691
3.5242e-06
1.31057e-06
6.49491e-05
0.00135825
5.88067e-09
1.14796e-06
8.13619e-08
6.12167e-07
1.09758e-08
8.7782e-06
4.95287e-05
9.57813e-06
2.91312e-06
4.66116e-07
1.94893e-08
6.22523e-09
3.51295e-06
2.90612e-08
1.45166e-09
5.36167e-11
9.06952e-09
7.63136e-10
3.96709e-07
3.00921e-11
0.000651099
2.74728e-07
6.17672e-07
0.00181276
0.00561965
1.02007e-06
3.20469e-08
0.000691462
6.91679e-10
3.93548e-07
3.28664e-09
9.92467e-09
8.01876e-07
4.57611e-07
0.00208428
5.17114e-07
4.01905e-09
6.43732e-08
6.01653e-07
0.00253007
1.40817e-07
5.37362e-07
1.04052e-06
0.00345438
0.000696077
5.42599e-08
3.39052e-07
1.31934e-07
4.37837e-08
1.54029e-07
1.62196e-08
6.62055e-07
7.26521e-08
3.50082e-08
2.1524e-08
7.21817e-08
1.27735e-05
5.45624e-07
6.49633e-08
7.47959e-08
1.22815e-05
4.95501e-09
8.9571e-09
2.93606e-07
8.33919e-08
3.00225e-07
2.18159e-08
6.89903e-08
6.89001e-08
5.4388e-07
3.15234e-06
2.86763e-07
5.75413e-07
3.11022e-08
9.51118e-09
8.0087e-07
9.93211e-08
2.14122e-09
0.00129589
6.30894e-10
0.00241363
1.02102e-06
0.00023115
1.31555e-08
0.000492525
8.37633e-08
2.20657e-07
3.22742e-10
1.85832e-07
5.99962e-09
4.14071e-10
2.01111e-08
0.00497995
2.17163e-06
5.64907e-07
0.000762504
2.27052e-09
4.17107e-10
1.13453e-07
2.96311e-08
1.48924e-06
9.77132e-09
2.40215e-06
6.4849e-10
1.32457e-07
2.31292e-06
0.00294922
9.18607e-12
3.69081e-09
2.95755e-08
3.67467e-10
2.2685e-06
9.10346e-09
0.00104537
1.3345e-08
1.12954e-09
4.48243e-09
0.000759284
9.05646e-08
2.8539e-06
1.87166e-11
8.43205e-05
1.56024e-05
0.00318825
2.53226e-10
2.56017e-09
8.3387e-08
4.74499e-07
7.53616e-07
9.57313e-06
6.52075e-06
4.59197e-06
1.07954e-07
0.00105399
5.2964e-07
1.9975e-08
1.45571e-09
2.46921e-08
4.94212e-09
3.7899e-09
1.14112e-09
2.62968e-11
3.42602e-08
1.36281e-09
8.4407e-09
2.00405e-08
3.04598e-09
9.40533e-09
4.68262e-09
1.4799e-08
4.30434e-09
3.11211e-07
3.03912e-07
8.78403e-09
7.25089e-10
4.26108e-07
2.14695e-11
1.55327e-06
3.25049e-08
7.9547e-08
2.97957e-09
8.62897e-11
2.28609e-10
4.5415e-11
3.20762e-07
2.0876e-09
1.18406e-08
3.84852e-07
2.19466e-10
2.80906e-07
1.41998e-06
6.95363e-08
1.46833e-08
9.50465e-06
5.6681e-08
0.00443682
2.00031e-06
2.06329e-07
0.00376544
1.47898e-06
1.5681e-07
5.34993e-07
1.04035e-08
3.44847e-07
0.00169279
1.23272e-05
1.37301e-08
3.916e-09
2.45986e-07
1.53579e-06
1.77297e-06
1.36865e-06
7.91373e-11
4.74082e-13
1.26758e-08
6.73078e-07
7.18167e-08
6.97314e-08
3.28235e-06
4.6306e-08
5.97909e-07
1.55609e-10
2.85905e-09
0.00055834
2.02395e-07
4.79745e-09
2.09533e-09
8.88761e-07
2.26092e-06
3.38362e-08
8.19114e-09
0.000759979
3.6072e-11
5.50352e-07
0.00106067
6.47552e-10
0.00125276
7.65014e-07
0.000617688
8.86663e-06
5.53801e-09
5.1752e-07
3.36834e-07
0.000852488
9.92434e-07
2.2643e-05
0.00285745
2.0618e-06
2.65061e-07
2.11217e-08
1.11996e-08
0.00855726
0.00286185
3.1863e-09
0.00418697
2.80096e-07
2.94534e-06
6.38815e-07
3.7116e-07
2.07873e-05
7.0706e-07
2.44044e-07
1.28482e-07
1.33382e-08
2.37254e-08
0.000765769
3.70378e-09
1.02368e-06
6.08249e-07
9.86714e-10
7.59648e-08
0.00383104
9.06475e-08
6.24554e-09
1.06525e-05
8.16029e-10
1.95675e-08
0.00372348
7.83152e-09
0.00313003
0.00598943
2.28641e-05
3.76206e-07
1.875e-08
6.23858e-08
1.05186e-06
4.63337e-06
2.04246e-05
5.38334e-06
7.88577e-08
0.000762801
1.98083e-06
6.03277e-10
6.37146e-06
5.20341e-06
1.15318e-05
8.35544e-06
1.61397e-05
3.0721e-06
1.03672e-10
1.31453e-06
7.13693e-09
1.3805e-08
2.66359e-05
0.00614157
4.34486e-09
5.60824e-09
5.72522e-05
6.18874e-05
4.21096e-11
1.12174e-05
9.91248e-09
2.2884e-10
3.46055e-10
7.69973e-09
1.0633e-07
8.23909e-09
1.36791e-06
0.000856336
5.60335e-11
1.36608e-08
7.9065e-05
0.00205637
1.44529e-06
1.26792e-09
0.000544609
6.95472e-11
2.466e-06
5.32666e-10
8.53224e-10
1.07693e-05
0.00229193
3.37739e-08
2.00211e-09
3.26724e-09
0.000593826
8.50421e-09
0.000388429
4.64851e-09
2.15969e-06
1.36427e-10
3.85563e-05
4.3253e-08
4.31836e-11
1.79275e-08
9.81694e-09
2.72995e-05
1.61871e-08
3.60866e-09
3.52937e-08
8.50171e-05
0.000907106
1.33012e-06
1.04747e-05
2.04031e-05
4.01355e-09
2.25257e-05
1.80858e-07
3.58978e-09
4.94553e-08
4.26641e-06
3.77808e-07
4.61167e-09
1.56694e-07
2.79284e-06
4.13859e-09
1.17288e-08
1.63424e-08
3.25278e-07
0.00125627
9.57852e-11
1.53214e-09
0.00101243
2.12052e-06
1.34894e-06
2.91747e-10
2.36033e-08
2.86141e-09
1.95498e-08
4.45921e-07
1.04382e-06
1.77756e-08
4.73015e-07
4.42312e-07
1.46896e-06
3.94853e-07
9.28857e-11
6.24089e-08
8.12812e-11
1.33192e-08
1.62571e-06
3.0156e-06
3.63552e-09
8.61189e-09
1.74419e-08
8.34145e-11
7.80934e-07
9.30096e-09
1.25877e-06
1.52668e-05
1.44586e-06
4.72325e-09
2.68893e-05
2.10507e-06
1.32558e-06
2.78859e-06
8.80608e-10
2.69754e-06
6.30669e-08
0.0020672
6.16558e-07
1.79987e-06
8.95046e-09
1.28909e-11
1.2828e-09
0.00328452
0.00125597
9.90812e-07
8.16848e-12
2.41399e-06
6.46313e-10
0.00304146
3.36608e-06
1.52204e-08
2.53317e-09
4.85713e-08
1.55983e-08
1.68525e-06
4.41375e-08
2.10143e-06
0.00549159
9.17234e-08
1.28503e-06
5.31223e-07
1.33778e-06
9.21186e-07
7.85801e-09
1.16804e-11
8.07259e-08
5.73773e-07
4.7459e-09
3.7583e-09
1.08416e-05
6.84222e-09
5.77555e-08
0.00738025
2.70487e-08
1.22068e-06
1.23858e-11
8.32346e-08
3.79478e-09
0.00584161
3.90073e-10
0.00214955
0.000105607
2.32402e-06
3.29686e-07
3.02901e-07
1.78193e-05
4.60105e-08
9.99106e-08
4.83414e-08
8.62686e-09
1.29024e-08
3.82992e-08
1.52547e-06
5.64415e-08
0.00118882
4.63506e-09
9.73366e-08
5.77935e-06
9.36734e-11
7.2807e-06
4.58464e-09
8.52054e-07
1.41001e-05
2.35168e-09
4.17522e-09
1.17018e-06
9.75885e-09
1.67952e-07
0.00321138
9.63694e-09
1.82594e-07
1.32412e-10
0.000778554
1.59216e-07
1.22205e-08
1.13058e-08
8.10085e-08
1.32927e-07
1.41513e-09
0.00270471
2.04696e-08
5.05527e-11
2.28242e-06
8.18942e-09
1.35057e-10
8.20068e-07
1.59055e-05
1.46359e-05
4.41339e-10
3.41476e-08
8.41536e-10
9.83529e-07
8.68708e-07
0.000643251
1.06405e-07
1.45353e-05
1.25631e-06
2.06179e-05
5.24214e-07
5.3874e-08
2.20661e-08
1.29519e-08
1.31235e-06
3.97263e-08
1.42261e-07
0.000820171
5.2161e-06
0.000801464
4.27022e-11
1.79441e-07
1.7966e-09
1.4047e-06
1.69108e-06
1.13144e-07
8.82687e-07
8.90291e-06
2.69856e-06
1.54522e-11
0.000112556
0.00014411
1.87212e-06
7.71737e-07
1.95117e-08
1.55194e-05
3.69329e-08
7.28644e-08
7.13479e-09
1.18249e-09
4.38532e-06
1.5514e-07
1.6378e-05
1.5176e-08
0.000792904
1.13334e-05
1.60559e-08
1.97287e-08
1.11191e-05
5.88416e-08
0.00104031
0.00493552
2.3118e-06
4.23566e-06
1.11994e-07
6.17542e-10
5.0875e-10
2.90857e-09
1.27748e-06
8.5405e-08
0.000582785
0.00102662
5.66499e-07
5.60644e-09
5.6681e-06
0.00070413
4.61825e-07
2.10974e-05
4.4136e-05
0.000739203
0.00215082
0.00085955
2.62088e-06
1.58699e-10
3.59017e-05
3.17454e-08
3.43279e-09
4.58632e-09
5.53314e-09
5.20624e-07
1.2988e-09
3.30499e-09
1.58526e-06
2.33572e-09
2.47226e-10
1.71515e-08
3.34792e-09
0.00100099
1.16232e-07
6.1626e-07
0.00129168
0.00464959
1.99562e-09
0.00333593
3.36878e-06
0.00688113
1.22623e-07
1.37795e-09
1.89645e-09
8.08478e-07
0.0046463
3.76925e-11
2.29193e-05
3.07953e-09
8.70442e-08
2.90054e-07
2.32866e-07
2.73644e-08
5.8367e-09
0.00131167
2.5906e-09
1.40901e-07
4.7524e-09
9.23128e-09
9.91552e-09
8.88577e-06
2.18888e-06
1.98463e-08
6.56601e-06
3.94659e-07
9.89843e-09
2.30682e-06
2.20555e-08
6.53317e-07
3.76895e-09
2.32938e-09
0.0045091
0.000743948
7.85277e-06
6.01154e-09
6.76557e-10
2.99463e-08
0.00344451
6.57186e-09
2.07035e-07
1.51798e-08
4.23111e-08
5.35782e-10
0.000598063
2.40264e-06
3.19735e-09
2.01161e-08
3.21056e-07
3.16043e-09
0.0031809
3.62418e-10
0.000756226
1.47439e-06
9.68327e-08
2.90088e-10
3.90453e-08
2.49541e-08
1.89485e-09
4.76909e-08
7.54852e-08
2.25679e-11
1.21815e-10
1.77661e-06
0.00136757
2.61116e-10
6.74828e-07
9.44695e-08
1.81487e-06
2.78722e-09
0.000821964
3.21233e-08
1.10357e-06
1.06366e-06
7.66232e-09
1.09752e-06
4.54572e-08
3.12583e-07
3.46346e-09
6.45455e-09
2.64414e-07
1.39732e-09
3.28446e-06
8.98671e-07
1.27602e-09
5.76689e-09
2.51371e-06
9.50295e-06
0.00545081
2.49842e-09
1.11843e-07
3.95365e-08
6.64525e-06
3.53633e-06
5.23491e-07
1.5576e-06
0.00135962
7.08928e-08
9.51334e-07
1.41867e-05
0.0011544
1.52935e-08
9.34069e-10
7.35548e-06
2.13356e-08
0.000707508
4.90189e-09
2.09706e-07
2.31067e-08
4.33683e-09
0.0041003
1.18359e-09
1.08677e-08
1.51252e-08
4.67588e-07
0.00540867
0.000971275
8.77471e-09
2.4408e-09
7.35158e-11
1.11197e-08
1.06731e-08
1.74672e-08
2.98731e-09
1.34628e-10
3.9068e-09
1.92784e-10
5.39415e-09
0.00106599
0.000635182
2.13781e-10
2.61537e-07
4.08812e-09
8.41065e-09
2.09874e-09
0.000622969
0.0015455
1.94814e-07
4.36853e-09
1.38164e-09
1.65514e-08
3.4109e-08
8.82732e-08
5.81963e-09
6.46317e-06
5.00411e-09
5.41006e-08
9.09987e-08
3.18225e-06
9.69877e-08
1.37186e-05
4.23752e-08
4.87617e-09
8.35128e-06
7.95263e-06
6.1182e-09
4.88068e-07
6.30133e-08
2.38159e-07
8.17627e-07
1.75182e-07
7.39136e-08
3.46417e-09
0.00583223
2.21391e-08
9.70767e-07
0.00106923
2.44038e-06
2.68454e-07
3.33764e-07
6.03874e-08
1.39777e-08
5.11826e-07
1.52759e-06
1.38826e-06
8.03862e-08
7.93184e-07
7.04923e-08
3.64881e-08
1.41043e-08
1.48214e-10
7.89558e-09
5.61133e-10
1.02924e-11
2.75861e-09
1.66027e-08
1.13857e-07
2.36965e-09
3.5573e-11
8.11259e-09
3.09609e-07
6.46384e-09
2.17719e-10
1.46662e-08
4.15434e-08
2.39513e-09
1.8871e-06
1.30284e-07
0.00437922
2.25103e-09
2.04934e-07
3.66588e-07
7.93023e-08
4.0447e-10
1.04555e-08
0.00396454
9.40605e-09
2.91006e-10
6.49878e-08
0.00398094
1.50158e-08
1.13157e-06
1.11885e-06
2.99168e-08
1.75631e-07
2.12501e-07
6.93198e-06
2.67439e-10
8.27493e-07
1.05567e-07
3.61534e-09
5.22418e-06
7.24958e-06
0.00346888
1.35893e-07
3.03672e-08
1.90155e-07
6.98889e-07
3.56857e-07
1.22982e-08
4.38637e-05
3.95686e-09
1.29105e-05
6.88168e-06
0.00113131
1.42782e-07
0.00456734
4.87735e-09
1.9095e-08
1.02367e-07
3.95375e-07
9.97764e-07
7.15803e-08
2.5464e-06
9.62425e-10
1.66139e-07
4.18209e-10
2.17776e-10
2.58101e-08
7.72116e-06
5.47491e-09
3.64873e-10
8.06852e-06
5.43454e-09
9.65469e-06
4.60083e-08
1.51716e-08
3.02858e-08
2.85615e-09
3.67169e-07
9.8238e-08
3.74693e-06
9.17993e-09
1.2654e-07
6.31732e-05
3.11084e-08
3.10767e-10
2.69038e-06
6.54382e-08
5.99411e-07
8.9661e-10
0.00253824
2.30338e-06
9.71662e-07
3.66614e-08
5.91499e-09
3.77304e-06
1.00472e-07
2.74702e-09
7.92989e-11
1.26064e-06
1.41385e-06
1.50497e-06
0.00343212
8.50345e-08
1.46903e-07
4.72496e-06
1.45578e-07
1.08862e-07
4.13513e-08
1.23845e-06
4.81302e-08
2.27417e-06
0.00324644
2.738e-07
3.16449e-13
5.50594e-08
1.08569e-06
2.67121e-07
4.83705e-09
1.12956e-05
1.51984e-05
8.57337e-06
1.73703e-05
3.57647e-07
9.00722e-07
2.34211e-07
3.84393e-07
6.38282e-09
4.21695e-10
0.00187828
9.49893e-06
3.91585e-08
2.56705e-05
1.08453e-07
5.19693e-07
8.9264e-06
8.61225e-08
4.97776e-08
5.96461e-08
6.59323e-10
7.82776e-07
5.99897e-07
2.28561e-06
7.24615e-07
6.25084e-09
8.51653e-09
4.19287e-07
1.80435e-08
5.50261e-10
5.99843e-06
8.9886e-08
1.82475e-07
8.22016e-07
6.67134e-08
2.81357e-09
9.78078e-06
0.00242981
1.34476e-08
4.15143e-10
1.02652e-10
0.00253899
0.00438535
7.35549e-09
0.00100116
1.64874e-07
4.18803e-07
1.46147e-07
1.63031e-07
2.4922e-07
3.08286e-07
5.98698e-07
0.00195957
0.00599061
0.00691041
2.1631e-07
5.95585e-07
2.36778e-07
1.46168e-07
0.00635398
6.2841e-10
0.0030623
4.44829e-07
5.61766e-10
6.99905e-09
1.01693e-08
7.41704e-09
1.44836e-09
3.73062e-09
1.20134e-09
0.00242424
1.22928e-09
7.10327e-07
3.64853e-06
4.29679e-10
8.72243e-08
1.24132e-07
1.05744e-07
2.05094e-09
1.0887e-05
1.02922e-07
2.4089e-08
1.48831e-06
1.01066e-07
6.36343e-07
1.21948e-07
1.96113e-08
3.34292e-09
3.8092e-07
6.11484e-05
9.27783e-07
9.03637e-09
3.17552e-07
1.9655e-08
4.89499e-07
2.39263e-06
2.4782e-07
9.90583e-08
8.86403e-08
2.22844e-08
1.05871e-06
8.83993e-09
2.26256e-07
0.000764445
7.35481e-06
0.00577289
1.29712e-05
1.82618e-06
2.7006e-10
0.00114893
7.86496e-10
1.14446e-06
1.27583e-07
2.30407e-07
1.62498e-06
1.33601e-08
5.80713e-09
7.52294e-07
1.86981e-08
1.6847e-09
4.78114e-07
1.01462e-08
4.60283e-07
0.00131566
4.52963e-09
6.91617e-07
2.57293e-08
2.20842e-08
2.99957e-10
4.27735e-06
1.76932e-06
8.58287e-08
7.10008e-09
2.23188e-08
0.000831511
3.94035e-06
2.19963e-07
3.14952e-07
6.42434e-11
3.61603e-12
1.30135e-08
3.08705e-10
8.68401e-07
5.61049e-09
3.9398e-07
3.23675e-08
6.12394e-09
9.76687e-08
6.47404e-10
1.09917e-06
1.53249e-06
8.31605e-07
8.63404e-09
2.07766e-09
1.99036e-08
3.2637e-08
9.91307e-06
2.89104e-08
0.00283361
5.01424e-07
3.98171e-09
6.23826e-09
4.09799e-06
2.77649e-07
1.98902e-05
3.19448e-08
1.91901e-06
0.00412953
2.72829e-10
5.75615e-06
3.57841e-07
0.000796129
2.88468e-08
0.000886361
0.00154926
2.18756e-06
1.3067e-07
3.26437e-07
8.06236e-10
2.74512e-07
4.66612e-07
6.33067e-06
3.25892e-07
9.03625e-08
4.38407e-07
7.04706e-06
6.35795e-06
8.21579e-06
2.75993e-06
1.87146e-09
1.73602e-06
1.48172e-05
1.10924e-07
6.25226e-08
4.23782e-06
3.57638e-06
2.86949e-07
3.16786e-07
4.52739e-06
2.79784e-07
7.00798e-06
4.52896e-06
3.77955e-07
6.54183e-10
6.43306e-07
8.0605e-06
0.00123976
4.74027e-08
2.10572e-08
8.02785e-07
2.65884e-08
1.41714e-06
1.51297e-08
6.82472e-06
9.58566e-09
1.62388e-06
4.49943e-09
3.61158e-09
2.38414e-07
1.64427e-05
2.30077e-05
0.005944
2.44456e-07
2.9564e-08
1.92299e-09
7.70389e-06
4.23011e-07
0.000562508
0.00131328
1.85912e-11
1.40133e-05
1.28828e-06
8.80873e-08
1.04466e-08
2.25555e-05
2.02483e-08
0.000799702
4.05066e-09
2.73339e-10
5.26614e-07
2.03783e-08
3.40256e-08
6.93878e-07
0.00073695
3.5795e-07
1.61381e-08
1.654e-06
0.00388339
0.000719259
1.04162e-07
5.33795e-06
4.5941e-07
1.00723e-05
9.01479e-08
0.000698376
8.64922e-07
3.49443e-06
3.15559e-09
1.15185e-08
8.66547e-08
1.39211e-08
3.81737e-07
3.30209e-08
1.22127e-08
4.46477e-08
8.35987e-08
1.80061e-06
5.42298e-10
1.18891e-08
0.00134083
1.64671e-10
1.63486e-09
8.09912e-07
8.44492e-09
4.44843e-06
6.23491e-07
0.00110274
3.74848e-07
0.00458801
2.85526e-07
3.63542e-07
0.000745019
3.09723e-06
9.29057e-12
1.61428e-08
0.000523467
2.33789e-07
1.57293e-06
3.22292e-07
1.39585e-09
1.32554e-07
1.49859e-07
1.98668e-08
0.00223871
3.55872e-08
2.29295e-08
4.49835e-08
1.23332e-08
1.09699e-09
1.71928e-06
5.95182e-08
0.0048036
1.63049e-06
6.48689e-07
7.86031e-07
1.0029e-06
3.72944e-07
5.72976e-08
1.13118e-10
7.18847e-09
1.74905e-06
3.82589e-07
7.32015e-08
5.63148e-09
2.50467e-07
1.8839e-08
9.32488e-07
6.25788e-09
1.3191e-08
2.8802e-08
5.84301e-07
4.24856e-07
6.24386e-07
4.7886e-09
4.4989e-09
3.22338e-05
7.05856e-09
1.50005e-09
1.54406e-10
1.97472e-08
0.0054443
5.32633e-09
3.24023e-06
1.28708e-06
4.47591e-07
3.21121e-09
1.69267e-08
3.82982e-06
1.45246e-07
4.8568e-09
8.03244e-07
2.18657e-09
1.67128e-09
5.78917e-10
1.58426e-06
4.88651e-09
0.00576638
9.33548e-06
6.94251e-07
3.43302e-05
5.4071e-09
3.08273e-07
9.66144e-10
0.00110659
1.57248e-07
1.11786e-07
3.35488e-08
2.09824e-08
1.25706e-09
0.00839489
3.58014e-07
9.06677e-06
1.25595e-06
2.23404e-08
0.00214852
1.57229e-08
6.42734e-09
1.05858e-08
1.03533e-08
8.325e-07
1.04619e-08
4.70472e-07
5.44181e-07
1.00749e-05
5.57912e-08
3.77236e-10
3.21005e-06
9.60128e-09
0.00274637
5.14338e-08
5.86731e-09
2.78026e-08
3.59371e-07
0.00114294
0.000558916
3.15107e-07
9.53595e-07
0.00167385
6.09092e-08
5.80337e-07
0.000784304
2.21986e-07
1.07885e-07
0.00303501
0.000348768
1.72821e-07
6.38712e-07
1.68738e-09
7.38604e-07
3.02837e-05
1.87936e-07
1.66389e-07
6.50116e-06
3.37628e-10
0.000430887
2.5313e-09
4.99504e-07
0.00343413
2.60145e-09
2.22563e-07
1.04899e-07
9.00849e-09
1.00314e-08
9.94269e-07
1.22254e-08
2.79997e-09
6.18207e-07
2.15414e-07
8.78777e-10
0.000432173
0.000820549
1.82927e-07
7.36127e-12
1.37871e-10
2.62298e-06
2.89582e-07
9.35605e-08
5.22879e-09
1.00147e-08
2.49239e-06
1.38873e-06
8.79832e-07
1.65042e-06
0.00638629
1.21694e-10
0.00246812
3.33459e-07
9.45972e-08
0.000939761
2.8596e-08
9.86614e-10
0.000426421
7.54484e-11
1.25602e-07
1.06931e-07
5.87875e-08
1.72486e-08
6.45863e-09
1.80109e-10
6.3192e-10
3.69437e-07
0.00231364
0.00373126
7.50162e-07
6.75107e-08
4.85606e-12
0.00104275
0.00397843
5.78965e-06
2.41129e-08
6.39196e-09
2.1617e-05
4.02721e-06
3.62953e-09
5.85184e-10
1.75198e-08
1.3442e-07
2.39287e-09
1.75824e-07
1.36511e-06
0.00111281
0.00359479
1.0039e-06
1.39582e-05
2.26446e-10
1.17778e-08
5.31017e-07
2.42004e-06
5.29116e-07
8.5935e-06
1.64448e-07
2.57825e-07
2.05655e-09
9.6681e-09
2.76933e-07
0.00108573
6.17535e-09
0.00313139
7.82579e-10
2.06299e-07
4.50706e-08
3.45101e-07
5.86105e-10
3.30202e-11
1.09952e-08
1.17066e-09
4.73957e-08
6.02948e-06
6.61278e-09
0.000690369
3.20996e-07
0.00280929
2.64549e-08
4.62443e-08
3.04788e-08
3.83557e-08
2.02487e-07
2.32971e-10
1.01409e-09
8.53205e-10
6.89915e-08
1.52722e-07
0.000963348
0.000937461
9.83414e-08
1.82381e-08
1.06809e-10
5.38878e-11
4.36141e-10
1.95638e-08
3.6249e-06
7.89431e-09
3.03977e-10
1.04713e-10
0.000407942
7.64577e-07
9.06305e-07
0.000756395
1.45118e-08
0.00547105
1.41907e-07
1.44546e-08
1.79537e-11
4.84093e-09
0.00100054
1.57701e-11
4.66112e-07
9.00288e-10
1.13544e-05
7.7321e-07
1.62364e-06
2.42011e-06
4.96373e-07
6.76411e-10
4.45226e-10
0.00633661
6.92563e-07
6.11979e-07
4.39728e-06
1.62766e-08
1.62945e-06
1.58447e-06
5.14223e-08
9.24144e-08
5.74686e-06
6.28234e-09
1.19858e-05
0.000728447
3.57649e-08
6.96083e-09
1.45779e-06
1.46523e-08
0.000635793
0.00319937
4.4279e-07
7.57597e-10
6.82548e-05
5.82851e-09
2.47874e-07
3.42639e-08
2.24626e-06
4.85156e-11
1.7457e-05
1.62703e-06
2.52378e-06
4.51128e-07
2.12674e-06
5.11197e-07
1.17715e-07
2.69169e-11
3.20755e-06
1.14737e-06
1.10005e-06
2.0783e-08
1.71498e-07
2.10701e-06
7.81305e-06
1.93318e-10
4.45377e-10
1.61759e-09
1.9117e-11
2.18033e-09
0.000395331
8.25692e-06
2.52118e-06
9.65314e-07
3.76505e-06
1.64991e-06
6.3859e-12
3.37511e-07
3.75807e-10
9.48066e-09
1.47435e-09
4.07612e-07
3.81544e-05
4.07769e-07
2.38974e-09
4.74533e-09
2.93582e-08
7.5197e-09
2.5973e-09
0.00259639
1.93997e-07
1.1656e-05
1.7704e-05
1.29922e-05
1.30858e-09
1.0039e-05
1.22117e-05
2.25934e-05
1.24154e-05
6.40576e-10
4.24157e-11
3.06343e-08
2.15173e-07
1.17584e-06
6.34158e-06
0.000705779
4.13514e-07
5.62699e-07
7.34241e-08
1.02194e-05
3.926e-09
9.9478e-11
2.1296e-06
7.03257e-06
0.000488565
2.17313e-10
0.00207754
2.08641e-06
1.43943e-08
1.50845e-06
1.10262e-07
2.03263e-06
4.93875e-08
1.94744e-06
5.69883e-09
1.47588e-07
4.00267e-05
7.45742e-07
1.45703e-08
3.24219e-05
9.01765e-07
1.83135e-07
6.06086e-05
1.35675e-09
1.97767e-07
9.41444e-07
1.69515e-06
1.26179e-08
0.00338083
2.70048e-09
2.88757e-08
4.13324e-09
0.00208879
0.00207421
4.50686e-08
4.6349e-08
3.06927e-06
0.00102865
1.0851e-08
1.73578e-07
5.67683e-07
2.05214e-07
2.62812e-08
0.00340103
1.95011e-07
3.58116e-07
7.73777e-05
1.50094e-09
1.16071e-07
3.40882e-08
4.40917e-08
5.14075e-10
4.53329e-05
6.58989e-05
1.66198e-09
1.62607e-08
3.20178e-08
1.77294e-06
3.5156e-10
0.000737179
1.08883e-08
2.26052e-07
1.46261e-08
1.37196e-08
4.55654e-08
7.0185e-07
2.96623e-08
9.28629e-08
4.24517e-06
2.30994e-08
2.60802e-08
0.000800092
2.1699e-08
5.55338e-08
5.90361e-08
5.03291e-07
3.37123e-11
4.56876e-10
4.49848e-11
1.98102e-07
1.15999e-08
0.00112138
3.60529e-07
3.83628e-07
8.87379e-10
5.5355e-07
0.00206863
1.66431e-06
2.3222e-07
1.0146e-06
2.05201e-07
6.26496e-09
7.02406e-09
3.35143e-07
3.76658e-08
4.74621e-08
8.84607e-06
2.15528e-07
2.08771e-09
5.79371e-09
2.99174e-08
1.33229e-08
1.23889e-07
9.53376e-10
1.44329e-07
2.80432e-07
5.06316e-09
2.62039e-11
0.000852915
1.43126e-10
1.01554e-10
4.79751e-07
0.00105457
5.58781e-07
3.96126e-08
6.22144e-10
2.38703e-07
1.02621e-07
5.16331e-07
9.50861e-08
1.90395e-09
3.27076e-08
1.53349e-08
1.04155e-07
1.10689e-09
6.68906e-10
8.315e-09
6.82344e-08
3.56875e-07
2.57502e-08
3.60365e-09
1.29589e-07
1.08126e-06
2.56597e-09
5.70331e-07
1.04641e-08
1.71271e-08
5.93132e-10
9.49349e-07
2.95001e-09
3.67385e-07
5.37475e-11
4.51732e-07
5.31236e-10
2.94379e-08
6.06497e-06
2.39632e-09
1.09533e-09
0.00126352
9.73074e-10
0.00104126
9.99481e-09
1.17246e-08
2.0124e-07
4.21093e-07
0.000774578
1.53415e-06
0.000922597
0.00112103
1.82325e-06
1.77371e-07
0.000752147
1.92189e-07
5.08273e-10
6.03564e-07
0.0023672
0.000688209
0.000781321
5.61387e-10
1.72828e-07
1.53526e-10
1.19738e-07
1.79495e-08
1.22313e-07
3.1421e-06
1.54953e-07
1.98587e-08
3.95869e-09
8.03596e-08
5.39809e-06
1.18755e-09
2.13267e-07
6.25425e-07
3.95826e-08
1.25879e-11
1.19905e-06
6.27385e-07
5.55678e-07
4.50744e-07
4.0844e-07
9.53574e-08
2.45343e-07
2.81249e-06
1.57898e-07
1.14968e-07
2.21901e-06
8.29525e-06
1.39859e-10
1.80073e-08
3.86735e-09
3.59228e-07
1.8641e-09
4.95834e-08
6.28176e-12
7.41431e-06
0.00693085
0.00150827
2.55943e-06
3.85409e-10
2.02449e-07
0.000918463
0.00179226
2.55254e-08
4.88533e-06
4.89242e-08
1.0754e-08
7.61944e-09
2.40123e-09
2.68854e-07
7.67321e-07
7.40176e-09
8.55753e-10
2.91881e-07
1.05493e-08
0.00311372
0.00100849
2.13468e-07
2.30469e-10
3.05928e-09
0.000786964
4.76781e-10
4.97799e-07
1.00965e-08
1.0843e-05
3.2582e-10
1.29531e-07
8.12672e-09
3.84211e-09
2.00039e-05
0.00268436
0.0012055
2.50812e-08
0.0012792
7.01112e-10
2.55969e-07
2.97141e-08
0.00200985
7.81528e-09
3.06289e-06
4.30065e-10
5.40551e-08
4.96609e-06
2.4303e-08
2.71894e-06
4.83925e-09
2.50591e-07
6.05731e-07
2.94975e-07
6.40806e-08
1.08793e-08
7.12515e-09
6.05366e-08
2.41304e-08
4.17893e-09
2.49324e-09
0.00125141
0.000691112
2.8146e-09
0.00139196
1.88444e-10
5.60167e-09
8.08299e-07
1.18462e-08
1.03517e-10
0.000647997
2.37389e-09
6.95906e-11
1.07387e-05
1.59002e-10
3.02252e-11
1.02872e-06
0.00156488
3.7479e-09
0.000694135
7.76678e-10
3.79246e-08
0.00083276
1.24152e-07
1.67999e-05
2.06876e-11
3.0207e-09
2.30396e-08
3.89477e-09
0.00369611
0.000756754
1.95282e-06
8.652e-10
0.000864175
1.6506e-10
6.61148e-09
8.53206e-10
0.00174574
3.41193e-05
2.17119e-07
2.5037e-11
1.72372e-08
0.000899341
1.86015e-05
7.58882e-09
4.67615e-06
0.00185121
0.00143098
6.49297e-07
0.00144917
1.82041e-05
0.000795315
7.26468e-07
0.00114221
6.00159e-06
7.74818e-08
3.51839e-08
4.34983e-08
7.81588e-06
1.63741e-05
1.15708e-10
1.05766e-07
1.85495e-09
7.52091e-07
1.58062e-07
2.78414e-08
1.64062e-07
5.40527e-06
4.61394e-09
1.77261e-07
6.8905e-09
4.77337e-10
1.90049e-09
8.89012e-10
8.93343e-08
1.99623e-09
1.33253e-08
2.06047e-09
2.6862e-07
7.60518e-07
7.40486e-11
4.80868e-11
1.07049e-09
2.18273e-09
2.30134e-08
2.10813e-05
4.00775e-05
1.91774e-06
1.34981e-10
5.71609e-07
1.46126e-07
0.000861608
5.27726e-07
3.00467e-07
9.41088e-09
1.67652e-08
5.0803e-08
3.92542e-06
2.01373e-06
0.00315658
0.00124967
1.46562e-09
1.42323e-05
5.52938e-06
8.64648e-10
4.56996e-08
9.04069e-08
2.02148e-09
3.88429e-08
7.5424e-08
0.00115008
2.69679e-11
1.56338e-06
3.06393e-09
0.000814037
9.7463e-07
0.000664158
6.29488e-07
8.60505e-10
1.16353e-09
8.84703e-09
4.84633e-07
3.43424e-07
7.14924e-08
1.61497e-07
1.88926e-08
1.44598e-05
5.35529e-06
2.5822e-10
2.01459e-06
9.45595e-07
8.44988e-07
1.70612e-06
5.72343e-05
8.09629e-08
0.00170133