/*--------------------------------*- C++ -*----------------------------------*\
  =========                 |
  \\      /  F ield         | OpenFOAM: The Open Source CFD Toolbox
   \\    /   O peration     | Website:  https://openfoam.org
    \\  /    A nd           | Version:  10
     \\/     M anipulation  |
\*---------------------------------------------------------------------------*/
FoamFile
{
    format      ascii;
    class       volScalarField;
    location    "52";
    object      SgRate;
}
// * * * * * * * * * * * * * * * * * * * * * * * * * * * * * * * * * * * * * //

dimensions      [1 -1 -3 -1 0 0 0];

internalField   nonuniform List<scalar> 
111485
(
1.52486e-09
0.0090238
0.0210419
5.63006e-12
0.0449875
2.50074e-09
0.0416595
0.00587409
0.018395
0.00112982
0.0418453
0.00916001
0.0042457
0.00600783
0.00592911
0.0316477
0.0049697
1.99803
0.0100301
2.52277e-08
0.00069277
2.33122e-10
0.0234289
0.0355068
0.00847645
2.16421e-09
0.0401073
0.00174996
0.0159377
0.000902594
0.0436033
0.0173595
6.32258e-09
2.55531e-08
0.00968347
1.80201e-06
0.0129459
0.00751792
4.26876e-05
0.0215865
0.000722329
0.0720073
0.0144309
0.000999204
3.71345e-05
3.90988e-08
0.0328173
0.000719891
0.0475664
1.45376e-08
2.91212e-08
3.57647e-07
1.03807e-08
0.044485
3.4814e-08
0.0430355
0.00355258
4.18571e-10
2.79147e-05
0.0044916
0.0149325
5.82029e-09
0.00401983
0.0883426
1.50037e-07
0.00359269
0.301034
0.0972857
0.000923416
0.00512728
7.57808e-06
0.00548061
2.14416e-07
0.00244728
5.78095e-09
0.000637895
1.11381e-09
0.0425257
1.98276e-09
4.87011e-07
0.00501928
0.0408315
9.27124e-10
2.17911e-09
0.00812564
0.0044266
0.00249496
0.0225432
5.0909e-05
0.00678553
0.000867328
0.041094
0.0103398
6.13571e-05
0.0559733
4.24067e-10
0.000505054
0.00145396
3.00367e-05
0.00148795
7.20196e-10
0.0195207
3.54574e-08
0.0214673
0.00482886
2.54728e-07
1.91517e-10
0.00747901
0.00318565
1.18889e-05
0.00562581
0.00507025
0.00313759
0.00264585
5.63026e-09
3.05002e-05
1.55887e-09
1.64877e-07
0.0113588
1.55695e-10
1.14768e-09
3.35903e-06
0.00124904
4.51686e-08
0.00233783
0.000533114
1.97826e-06
0.0014987
1.75842e-11
0.000179005
0.000991525
0.0280739
0.000884791
3.16986e-06
1.47447e-06
0.0491718
2.02079e-10
0.0409755
0.0225363
0.00255144
0.000173266
0.00186939
0.0236253
0.0031071
0.00380304
0.0122025
2.32903e-10
8.35778e-10
2.22177e-09
0.0262378
0.00183062
0.000530848
0.00197858
0.00502878
1.66627e-06
0.0106231
0.0154726
0.00943204
1.63357e-05
1.09077e-07
7.03638e-11
0.0526881
0.0252338
6.27527e-06
1.57728e-06
0.00518908
0.00369198
0.000451772
3.74189e-05
6.80691e-05
4.09219e-11
2.10889e-09
0.00362285
2.67169e-11
0.00613836
0.00226961
7.9575e-09
1.6104e-07
4.0525e-09
9.67454e-08
1.50182e-07
4.99537e-09
0.00134088
0.00671503
0.0277218
0.00415925
0.00641783
0.00356637
0.000101267
5.54062e-09
0.00425397
9.14105e-08
1.31591e-07
0.00581944
0.0110775
0.0227971
0.0103132
0.00462934
2.00856e-08
0.00604894
0.000573182
7.31356e-05
0.0111822
0.00230483
3.05502e-08
0.00325751
0.0275299
2.0042e-07
0.000230602
0.00651317
0.00227998
0.000309796
1.41396e-07
1.20384e-10
0.0072839
5.0539e-06
0.123824
3.16883e-10
0.00601053
0.019026
0.121876
1.35316e-09
0.00266976
0.0120017
5.06276e-06
1.16423e-10
2.2211e-11
0.166634
7.42001e-05
4.10454e-07
1.72406e-06
0.00914701
0.00847396
0.018556
6.52949e-07
2.01992e-07
0.00285492
1.386e-09
0.00272638
0.00833135
0.0149857
0.010779
0.00917474
7.49336e-08
3.3304e-05
0.000565443
1.44422e-07
1.48984e-09
0.0307186
0.0238601
3.57821e-07
0.00559889
0.00979003
2.51563e-11
3.63294e-06
0.000153216
5.71287e-09
1.20562e-06
0.00184317
1.56118e-09
0.015618
0.0117299
0.00336007
6.55616e-11
0.0109679
1.5816e-11
9.68822e-10
1.2452e-08
0.00297159
0.0225801
0.00553075
0.00466426
0.0400456
0.0109691
0.0014978
0.000595283
0.0340415
0.00941443
9.42219e-09
1.8374e-09
0.00203554
0.0220531
0.0215199
0.0128319
2.67125e-11
0.0101548
0.00661956
0.00276376
1.23695e-05
4.96675e-06
0.0122122
0.00211604
0.00186386
1.64555e-10
0.000779017
3.25119e-10
6.83287e-06
4.9354e-06
0.266562
0.0682438
0.0198979
6.05633e-09
0.00144089
0.00831055
0.00190219
2.22897e-10
2.20354e-09
0.000461976
0.000416156
0.0622657
0.00334138
0.0154452
0.0182877
4.57811e-07
7.7339e-10
3.91561e-09
0.00351248
7.48867e-05
0.00573941
0.187095
1.44402e-05
1.77158e-10
1.02282e-09
4.48698e-10
1.49472e-06
0.0574304
0.0123226
5.71653e-08
0.00486282
1.31994e-06
0.00112863
0.067138
0.00538612
0.0107153
0.00854953
0.000795811
9.29276e-07
1.07581e-08
0.00872379
0.0189563
0.00469292
2.69233e-09
0.0026474
0.0002295
0.00177821
0.00734405
6.83303e-05
0.0284747
0.000652046
0.0370403
0.0031599
0.00787351
0.023068
0.0147266
1.75632e-07
6.86187e-09
9.12755e-09
2.12573e-08
0.0321034
0.0149024
0.0370908
0.06698
0.000882313
0.0201484
4.20041e-10
8.77594e-09
0.0161348
0.000880195
0.0399724
0.000856222
0.000824261
0.0237392
2.16554e-10
0.0140979
0.000335104
3.45494e-11
0.001124
0.0150698
2.83219e-07
0.00798197
0.0106754
0.00739107
0.000447123
0.00292094
0.00614023
8.82027e-07
1.23019e-08
0.00137596
5.51639e-09
0.00500642
0.112056
0.000503805
1.99465e-09
0.0256203
0.00284778
0.0075917
0.0278303
7.80749e-09
0.0389773
0.0197423
1.31989e-10
0.000696712
0.00281934
1.67698e-09
0.000596686
0.0118069
0.00487439
1.6637e-08
3.18435e-10
1.31586e-05
3.48056e-10
0.0105689
6.68818e-08
1.32933e-12
0.0177102
3.38851e-06
0.0189594
0.0266891
3.90636e-11
1.43944e-06
0.00108473
1.77735e-06
0.000108362
0.0108262
0.121694
0.905573
9.70881e-07
0.00619235
0.00023876
3.8234e-09
0.0350401
0.0331077
1.94483e-09
2.43483e-05
0.000112499
1.39227e-06
0.0256967
0.0268962
0.0127564
3.64685e-09
0.0067398
0.02064
0.0212225
8.50071e-05
1.68924e-06
2.48999e-05
1.23022e-09
0.00451382
0.037657
4.1224e-10
0.00957753
7.33843e-05
1.99976e-06
6.19444e-11
4.80398e-07
4.34349e-10
0.0092994
0.0095102
0.00711435
0.00244317
0.00339088
4.63519e-09
0.00228363
1.3514e-08
0.0356549
2.93163e-09
1.79448e-08
0.000977569
0.0317944
1.79237e-09
2.06973e-09
7.63615e-06
1.53903e-09
3.1454e-08
0.000875535
6.74811e-11
1.05908e-06
1.66807e-09
0.00138477
8.48177e-09
4.47077e-08
3.12658e-09
0.00816035
8.8745e-09
0.00436204
0.00165998
0.00682776
4.77553e-10
0.000625498
4.68533e-08
6.03968e-11
0.0095773
0.0045618
0.0294027
0.0222498
5.64709e-07
0.00186906
0.0726853
0.00843158
0.00111025
0.00873188
1.056e-09
0.0223888
1.9572e-06
0.00428232
0.000986904
0.0691348
2.01693e-06
0.0210664
0.000322526
1.33185e-05
0.00136538
0.00233409
9.62562e-09
0.0759199
0.0443252
6.03233e-08
2.31017e-08
4.04863e-07
2.10222e-11
3.0174e-05
0.0545882
6.52722e-09
4.78985e-09
0.00288147
4.99917e-10
0.0304245
4.12066e-09
0.000351284
1.30086e-09
0.00263868
0.00198916
0.00112165
0.0124583
0.00108549
0.0017865
5.67624e-09
4.16733e-09
0.0162761
3.85182e-09
3.84222e-05
2.89515e-07
0.00147724
0.000795453
0.0661555
9.17138e-11
8.20216e-07
0.0121362
0.00387838
0.00150506
0.00430771
0.00591101
0.0208839
1.87736e-08
0.020748
0.00708385
1.61498e-10
0.00225872
0.0314828
0.0125547
3.45033e-08
0.00552357
0.00543838
0.0012871
0.00143389
6.14826e-06
0.013802
0.000984364
0.000167067
0.0267815
0.0161976
0.00109693
1.31057e-06
6.49522e-05
0.620938
5.88067e-09
0.000419094
8.13619e-08
6.12167e-07
0.00729807
0.0036465
4.9655e-05
1.80342e-05
2.91312e-06
0.018514
0.00994145
6.22523e-09
3.51296e-06
0.00204133
1.45166e-09
5.36173e-11
9.06952e-09
7.63137e-10
0.0152598
3.00922e-11
0.000651099
0.0098766
0.00233901
0.00181276
0.0149919
1.02007e-06
0.00859497
0.000691462
6.91679e-10
0.0571494
3.28664e-09
9.92467e-09
8.01876e-07
0.00490341
0.00208428
0.032835
0.00638709
6.43732e-08
0.0727671
0.00536281
0.0261314
0.0235781
0.000930845
0.00354613
0.000696077
0.0569083
0.0415973
1.31934e-07
0.000308559
0.0361869
0.00708532
0.00155741
0.0244342
0.0237705
2.1524e-08
0.010467
1.64488e-05
5.45624e-07
0.0320002
0.000299622
1.22815e-05
0.0109189
0.0388205
0.00158848
0.0185275
0.0168413
0.00706494
6.89903e-08
0.00915569
0.000400939
3.15235e-06
0.014464
0.0149027
0.0347908
9.51118e-09
0.00211392
9.93211e-08
2.14123e-09
0.00129589
6.30897e-10
0.00243047
1.02102e-06
0.00023115
1.31555e-08
0.000492525
5.14765e-05
0.0396504
3.22744e-10
0.0366037
5.99962e-09
4.14071e-10
2.01111e-08
0.0446169
0.000498403
5.64907e-07
0.000762504
2.27052e-09
4.17107e-10
0.238112
0.0684329
1.48924e-06
0.00176949
7.07835e-06
6.4849e-10
0.0348999
0.00649662
0.0158794
9.18624e-12
3.69081e-09
0.000392904
0.00106919
2.2685e-06
9.10346e-09
0.00104537
0.00706549
1.12954e-09
4.48243e-09
0.000759284
0.0385014
0.00161527
1.87168e-11
4.12157
0.142735
0.0140873
2.53226e-10
2.56017e-09
0.0567348
0.000305175
7.53616e-07
1.71602e-05
0.170136
0.00291579
0.0119157
0.00105399
0.0577979
0.0015209
1.45571e-09
2.46921e-08
4.94212e-09
3.7899e-09
1.14112e-09
2.62971e-11
0.0193339
1.36281e-09
8.4407e-09
2.00405e-08
0.0119171
0.0234262
4.68262e-09
1.4799e-08
0.10567
0.0133311
0.00878199
8.78404e-09
7.25089e-10
0.0345927
2.14695e-11
0.00227686
0.00240372
0.00353583
2.97958e-09
8.62897e-11
2.28609e-10
4.5415e-11
0.0158575
2.0876e-09
1.18406e-08
0.000817542
2.19466e-10
0.021148
0.00140766
6.95363e-08
0.0358252
0.60118
0.00232101
0.0338749
0.000202122
0.0479968
0.00376544
1.47898e-06
0.0218646
0.0766144
0.00620246
3.44847e-07
0.00169279
0.51785
0.00988831
3.916e-09
0.0029143
0.00313639
0.00143585
1.36865e-06
7.91373e-11
4.741e-13
0.0126388
6.73078e-07
0.00232953
6.97314e-08
0.00145939
0.00127617
0.0343237
0.000535422
2.85905e-09
0.00055834
2.02395e-07
0.0197178
2.09533e-09
8.88761e-07
4.53349e-05
3.38362e-08
8.19114e-09
0.000759979
3.60721e-11
0.00897448
0.00106067
6.47552e-10
0.00125276
7.65014e-07
0.000617688
8.86663e-06
5.53801e-09
3.78174e-06
0.00151665
0.000852488
0.00333635
3.49463e-05
0.00285773
8.7382e-05
0.00439089
2.11217e-08
1.00592e-05
0.0178117
0.00323443
3.1863e-09
0.00418698
0.000752849
2.94534e-06
0.00888457
0.000300071
2.27985e-05
0.0253093
0.00867032
0.00215952
0.00553609
0.00197601
0.000765769
3.70378e-09
0.0301265
0.0243848
9.86714e-10
0.00775726
0.0574849
0.0277315
6.24554e-09
0.00167258
8.16029e-10
0.0102759
0.0172031
7.83152e-09
0.0045713
0.00646483
2.43654e-05
0.00451184
1.875e-08
0.0471501
2.04056e-05
0.00186479
6.06477e-05
1.914e-05
7.88577e-08
0.000762801
0.00833782
6.03277e-10
9.59917e-05
0.000333817
2.22312e-05
8.41984e-06
1.62012e-05
4.30296e-06
1.03672e-10
1.31453e-06
0.0216371
1.3805e-08
0.00118436
0.00849252
4.34486e-09
5.60825e-09
5.78926e-05
6.18876e-05
4.21097e-11
1.45465e-05
9.91248e-09
2.2884e-10
3.46055e-10
7.69973e-09
1.0633e-07
8.23909e-09
0.000331905
0.000856336
5.60335e-11
1.36608e-08
8.37915e-05
0.00212693
0.0020438
0.00916614
0.000544609
6.9548e-11
0.000235104
5.32666e-10
8.53225e-10
1.07693e-05
0.0217336
0.0407454
2.00211e-09
3.26724e-09
0.000593826
8.50421e-09
0.000388429
4.64851e-09
0.00845827
1.36428e-10
3.86354e-05
0.0269316
4.31836e-11
1.79275e-08
9.81694e-09
4.24893e-05
1.61872e-08
3.60866e-09
3.52937e-08
9.09155e-05
0.000907106
0.00530593
1.15441e-05
2.04074e-05
4.01355e-09
6.937e-05
0.00260518
0.043468
4.94553e-08
9.77089e-06
0.00722038
4.61168e-09
1.56694e-07
2.79284e-06
4.13859e-09
0.00787557
0.00174952
0.0039631
0.00125643
9.57852e-11
0.0222896
0.00101243
2.12052e-06
1.34894e-06
2.91747e-10
0.0253006
2.86141e-09
1.95498e-08
3.08079e-06
0.0487965
1.77756e-08
0.0030028
4.42312e-07
0.00112539
3.94853e-07
9.28858e-11
6.24089e-08
8.12815e-11
0.00264478
0.000684637
0.338674
3.63552e-09
8.61189e-09
0.00205011
8.34145e-11
7.80934e-07
9.30096e-09
0.0422419
2.08723e-05
0.0286754
4.72326e-09
3.33704e-05
3.17659e-05
1.32558e-06
7.20676e-05
8.80609e-10
0.00182848
0.027637
0.0220821
0.00164752
0.000327975
8.95046e-09
1.28909e-11
1.2828e-09
0.00329853
0.00125597
0.00543824
8.16849e-12
0.175943
6.46313e-10
0.0447512
0.00354618
1.52204e-08
2.53317e-09
4.85713e-08
1.55983e-08
0.0313191
4.41376e-08
2.10143e-06
0.018482
0.00536388
1.28503e-06
5.31223e-07
1.33778e-06
9.21186e-07
7.85801e-09
1.16804e-11
0.0203971
0.000520397
4.7459e-09
3.7583e-09
1.1119e-05
6.84222e-09
0.00133091
0.00749617
2.70487e-08
0.00271326
1.23861e-11
0.00033194
3.79478e-09
0.00673159
3.90076e-10
0.00214967
0.000107409
0.000878717
0.0144
0.0274228
1.88322e-05
4.60105e-08
0.000448595
4.83414e-08
0.00436957
1.29024e-08
3.82992e-08
1.52547e-06
5.64415e-08
0.00118882
4.63506e-09
0.00569839
0.00628416
9.36735e-11
7.2807e-06
4.58465e-09
0.000536755
3.17212e-05
2.35168e-09
0.0184353
0.000214251
9.75887e-09
0.0224797
0.0113335
0.00332164
0.0134634
1.32412e-10
0.000778554
1.59216e-07
1.22205e-08
0.0362728
8.10085e-08
0.103799
1.41513e-09
0.00292174
0.000729096
5.05527e-11
0.000672976
8.18942e-09
1.35057e-10
0.00227169
1.59314e-05
0.00591792
4.41339e-10
3.41476e-08
8.41536e-10
0.000695965
8.68708e-07
0.000643251
1.06405e-07
1.50459e-05
1.25631e-06
3.25297e-05
5.24214e-07
5.3874e-08
2.20661e-08
0.0178251
0.00959753
0.0176857
0.0342905
0.000820171
1.48969e-05
0.000801464
4.27022e-11
0.0107386
1.7966e-09
4.51418e-06
0.000257209
0.00628654
0.000241537
8.90301e-06
0.00242679
1.54523e-11
0.000112556
0.000144111
9.51998e-05
0.00123879
0.0134946
1.55852e-05
3.69329e-08
0.0311662
7.13479e-09
1.18249e-09
3.40197e-05
0.0745263
1.64793e-05
1.5176e-08
0.000792904
1.1938e-05
1.60559e-08
1.97288e-08
2.12873e-05
5.88416e-08
0.00104031
0.0469115
0.00014371
0.000110013
0.0234475
0.00717125
5.08752e-10
2.90857e-09
4.98073e-06
0.00420011
0.000582785
0.00102662
0.0112391
5.60645e-09
5.6681e-06
0.00070413
4.61825e-07
2.10974e-05
2.5223
0.000739203
0.00233524
0.00085955
0.0153425
1.58699e-10
3.59017e-05
3.17454e-08
3.43279e-09
4.58632e-09
5.53314e-09
0.003365
1.2988e-09
3.30499e-09
1.58526e-06
2.33572e-09
2.47226e-10
1.71515e-08
0.00996398
0.00100099
0.0110259
0.00233588
0.00129168
0.0063742
1.99562e-09
0.00373475
4.86357e-06
0.0109496
0.014175
1.37795e-09
8.95869e-05
0.00934294
0.00465079
3.76925e-11
2.40011e-05
0.016956
0.0047612
2.90054e-07
0.0267168
2.73644e-08
5.8367e-09
0.00131167
2.5906e-09
0.00827408
4.7524e-09
9.23129e-09
0.0080516
8.99511e-06
0.00278857
1.98463e-08
6.56601e-06
0.000676186
9.89843e-09
0.000149513
2.20555e-08
0.0217496
3.76895e-09
2.32938e-09
0.00456445
0.000743948
0.000109433
6.01154e-09
6.76558e-10
0.0053432
0.00383578
0.00488789
0.0174798
0.217503
0.0197427
5.35782e-10
0.000598063
0.00237123
0.00669238
0.0351937
0.0133335
3.16043e-09
0.0144761
3.62418e-10
0.000756226
0.00763442
0.00960612
2.9009e-10
0.0124337
2.49541e-08
0.00284065
0.00827245
7.54852e-08
2.25682e-11
1.21815e-10
0.00232474
0.00136757
2.61116e-10
0.00354744
0.0199294
5.80394e-06
0.00767732
0.000821964
3.21233e-08
5.59851e-05
0.000657494
7.66232e-09
0.00924351
4.54572e-08
0.00243835
3.46346e-09
6.45455e-09
0.011119
1.39732e-09
4.83404e-05
0.00296715
1.27602e-09
5.76689e-09
0.00365379
9.50297e-06
0.0593687
2.49842e-09
0.285332
3.95365e-08
6.64525e-06
3.53633e-06
0.00642604
1.5576e-06
0.00135962
0.00501585
9.51334e-07
0.000175841
0.0011544
1.52935e-08
9.34074e-10
7.51249e-06
0.000774103
0.000707508
4.90189e-09
0.0359672
0.00094099
4.33683e-09
0.00469658
1.1836e-09
1.08677e-08
1.21873e-06
0.00369135
0.00658082
0.000971275
8.77471e-09
2.4408e-09
7.35158e-11
1.11197e-08
1.06731e-08
1.74672e-08
2.98731e-09
1.34629e-10
3.9068e-09
1.92784e-10
5.39415e-09
0.00106599
0.000635182
2.13781e-10
2.61537e-07
4.08812e-09
8.41065e-09
2.09874e-09
0.000622969
0.0015455
0.018356
4.36853e-09
1.38164e-09
1.65514e-08
0.00619545
8.82732e-08
5.81963e-09
0.194736
5.00411e-09
5.41006e-08
0.0219234
3.18225e-06
9.69877e-08
0.00438716
0.0232855
4.87617e-09
0.00128536
0.00217686
6.1182e-09
0.0111034
0.0373786
0.0165352
0.00287561
0.00975738
7.39136e-08
3.46418e-09
0.00858722
0.0101734
0.00268465
0.00106923
0.00560186
0.00135225
0.0186376
0.0107029
0.000640426
0.0135888
0.00107251
0.00843962
8.03862e-08
0.0265792
0.00755781
0.00181928
0.00117267
1.48214e-10
7.89558e-09
5.61133e-10
1.02924e-11
2.75861e-09
0.00873789
0.0121971
2.36965e-09
3.55732e-11
8.11259e-09
3.09609e-07
6.46385e-09
2.1772e-10
1.46662e-08
4.15434e-08
0.00409819
8.85097e-05
0.0194727
0.00442836
2.25103e-09
2.04934e-07
0.0331408
2.92489e-06
4.0447e-10
1.04555e-08
0.0109736
9.40605e-09
2.91007e-10
3.69086e-06
0.0109953
0.0122278
0.0293495
0.0270176
2.99168e-08
0.013983
0.000261024
6.93198e-06
2.6744e-10
0.0101825
1.05567e-07
3.61534e-09
0.0277142
0.994085
0.00361841
1.35893e-07
3.03672e-08
0.0155572
0.0222164
0.0162175
0.00576862
0.00203124
3.95686e-09
1.35916e-05
6.88397e-06
0.00113131
1.42782e-07
0.0215421
4.87735e-09
0.00193913
0.0258726
0.0155146
0.0119705
7.15803e-08
0.00523275
9.62425e-10
1.66139e-07
4.18209e-10
2.17777e-10
0.00250856
0.709937
5.47491e-09
3.64873e-10
1.23469e-05
0.0224766
0.000475482
0.00617162
0.031203
0.00456431
0.0197248
3.67169e-07
9.8238e-08
3.74693e-06
0.0306334
0.00510553
6.32001e-05
3.11084e-08
3.10767e-10
2.69038e-06
0.0186969
0.00268863
8.9661e-10
0.00685702
0.0450322
0.00817998
0.00544321
5.91499e-09
3.77304e-06
0.00613145
0.0214972
7.92989e-11
0.00023933
0.0120296
0.000858602
0.0122797
0.00411446
0.00747655
4.72496e-06
0.00346475
0.0186852
0.0364755
1.23972e-06
0.0230096
2.27417e-06
0.0191681
0.000147101
3.16452e-13
0.00249407
0.00634609
0.000312542
0.0106786
1.15132e-05
0.000207282
2.58295e-05
0.024593
0.00311547
9.00722e-07
0.0377527
0.00105698
6.38282e-09
4.21695e-10
0.00187831
1.44705e-05
0.000900411
1.01319
0.0325109
0.00776513
9.18332e-06
0.0371329
4.97776e-08
5.96461e-08
0.00383109
7.82776e-07
0.00230445
0.00615467
0.00180789
0.00445617
8.51653e-09
0.00023892
0.102133
5.50261e-10
0.059636
0.00653414
1.82475e-07
0.00342081
0.000180525
2.81357e-09
9.78288e-06
0.00252456
1.34476e-08
4.15144e-10
1.02652e-10
0.00680942
0.00885943
0.0132464
0.00100116
0.00560985
0.0296864
1.46147e-07
0.00701949
0.0108725
0.0240663
0.00130257
0.00195957
0.00660808
0.0158523
0.00917272
0.00780134
0.0368983
0.14643
0.00960176
6.2841e-10
0.00306823
0.0502676
5.61766e-10
0.000374998
1.01693e-08
7.41704e-09
1.44836e-09
3.73062e-09
1.20134e-09
0.00508193
1.22928e-09
0.00612699
0.00144507
4.29679e-10
0.00408439
1.24132e-07
0.013916
2.05094e-09
1.78542e-05
1.02922e-07
0.0206416
0.000112746
1.36709e-06
0.00356996
0.0277623
0.0165573
0.00363954
0.0239609
6.11484e-05
0.0196719
0.0497224
0.00818846
1.9655e-08
0.00118972
0.000360254
0.00479109
0.0113092
0.000757082
2.22844e-08
1.05871e-06
8.83993e-09
0.00404734
0.000764445
5.48843e-05
0.00600059
0.000544433
0.000273486
2.70061e-10
0.00114893
7.86497e-10
0.00738528
0.019985
0.00127573
8.94449e-06
0.00185365
0.00613091
0.00197106
0.00072026
0.00628259
0.00531
0.00231785
4.60283e-07
0.00131566
4.52963e-09
0.0138031
0.0102487
2.20842e-08
2.99958e-10
4.27735e-06
0.00708706
0.0185985
7.10008e-09
0.0018901
0.000831511
4.31692e-06
0.00525078
0.0741075
6.42435e-11
3.61603e-12
0.00342076
3.08705e-10
8.56222e-05
0.0109794
3.9398e-07
0.0093865
0.0313371
0.0160299
6.47404e-10
0.000661435
1.53249e-06
5.78862e-05
0.045444
2.07766e-09
1.99036e-08
0.0107291
9.91308e-06
2.89104e-08
0.00286873
0.00107367
3.98171e-09
6.23826e-09
4.09799e-06
4.69545e-05
0.00127312
0.00305651
0.0201892
0.013623
2.72829e-10
6.08287e-06
0.000421591
0.000796129
2.88468e-08
0.000886361
0.00154926
2.18756e-06
1.3067e-07
3.26437e-07
8.06236e-10
2.74512e-07
4.66612e-07
6.33206e-06
3.25892e-07
0.000410288
4.38407e-07
9.3803e-05
6.35795e-06
7.15508e-05
2.75993e-06
1.87146e-09
0.0220015
0.00805917
1.10924e-07
0.0867116
4.23927e-06
3.57641e-06
2.86949e-07
0.00104577
4.52739e-06
0.00218893
1.17614e-05
0.000977538
3.77955e-07
6.54183e-10
0.000634364
8.11889e-06
0.00123976
4.74027e-08
0.0368803
8.02785e-07
0.0339089
1.41714e-06
1.51297e-08
7.9276e-06
0.0266699
0.0084426
4.49943e-09
0.000399796
2.38414e-07
0.00104699
3.52234e-05
0.00781104
0.000645819
2.9564e-08
0.0190183
0.000767885
0.00480317
0.000562508
0.00131328
1.85916e-11
0.00526903
0.00398821
0.0440532
1.04466e-08
2.279e-05
2.02483e-08
0.000799702
4.05066e-09
2.73339e-10
0.00237659
0.00156194
0.0023643
0.279486
0.00073695
0.0287009
0.0329573
0.0174966
0.00510552
0.000719259
0.00544222
0.0032661
0.00476751
1.09125e-05
0.00960418
0.000698376
0.00172368
0.000893192
0.0303858
8.12685e-07
0.00241166
1.39211e-08
0.0166322
3.30209e-08
1.22127e-08
0.00142534
8.35987e-08
0.00695498
5.42298e-10
1.18891e-08
0.00134083
1.64671e-10
1.63486e-09
0.000591645
8.44492e-09
0.000603826
6.23491e-07
0.00110274
0.0187876
0.0105169
0.00717737
0.00808491
0.000745019
0.556229
9.29057e-12
0.0666509
0.000523467
0.0185497
0.0180547
0.00183418
0.0533773
1.32554e-07
1.49859e-07
1.98668e-08
0.00429639
3.55872e-08
2.29295e-08
0.0167566
1.23332e-08
1.09699e-09
0.00404411
5.95182e-08
0.0173686
1.74159e-06
6.48689e-07
7.86031e-07
1.0029e-06
0.00143033
0.00574793
1.13119e-10
0.0207083
0.000244014
3.82589e-07
0.0941343
5.63148e-09
0.0153822
0.0170146
0.00296005
6.25788e-09
0.0154888
0.00824899
0.000599113
0.00410269
0.0110958
4.78861e-09
4.4989e-09
3.37256e-05
7.05856e-09
1.50005e-09
1.54406e-10
0.0182942
0.0413248
0.00400841
0.00175476
1.28708e-06
0.0416358
0.0429942
0.00365648
0.00300555
0.00796279
0.0200926
0.00204129
2.18657e-09
1.67128e-09
5.78917e-10
0.0050495
4.88651e-09
0.0299267
9.33548e-06
0.000632229
3.4623e-05
0.00238559
0.0208694
9.66144e-10
0.00110659
0.00197932
0.000278695
3.35488e-08
2.09824e-08
1.25706e-09
0.00842204
0.000257918
0.000114877
0.000636033
0.00876836
0.0857742
1.57229e-08
6.42734e-09
1.05858e-08
0.0035453
0.0188316
0.0186838
0.0309933
0.0019143
0.00212193
5.57912e-08
3.77236e-10
3.21005e-06
9.60129e-09
0.012091
0.01906
5.86731e-09
2.78026e-08
3.59371e-07
0.00114294
0.000558916
3.15107e-07
0.0109365
0.00167385
0.00108625
0.291624
0.000784304
1.57462e-05
0.020889
0.00365186
0.000348768
1.72821e-07
0.00367987
1.68738e-09
0.0115979
3.17463e-05
0.0218098
1.66389e-07
6.50116e-06
3.37628e-10
0.000430887
2.5313e-09
4.99504e-07
0.177858
2.60145e-09
0.00440975
0.00105948
9.00849e-09
1.00314e-08
0.00146286
1.22254e-08
2.79997e-09
0.014185
5.07009e-05
8.78777e-10
0.000432173
0.000820549
0.0148054
7.36132e-12
1.37871e-10
0.000246245
0.00196859
0.00224677
5.22879e-09
1.00147e-08
2.49239e-06
0.00295335
0.00140675
0.010362
0.00933792
1.21694e-10
0.00315272
0.0123632
0.0058224
0.000939761
2.8596e-08
9.86615e-10
0.000426421
7.54486e-11
0.0282216
0.00716575
0.00426852
1.72486e-08
6.45863e-09
1.80109e-10
6.3192e-10
3.69437e-07
0.00231427
0.00402263
0.0023016
6.75107e-08
4.85607e-12
0.00104275
0.00397844
0.0275246
0.0947435
6.39196e-09
2.1617e-05
4.02721e-06
3.62953e-09
5.85184e-10
0.00326913
0.00676227
2.39287e-09
1.75824e-07
0.00243701
0.00111281
0.00427545
0.00115264
2.00832
2.26447e-10
1.17778e-08
0.0119829
0.000364164
5.29116e-07
0.634741
0.000510151
0.00672596
2.05655e-09
9.6681e-09
2.76933e-07
0.00108573
0.00696287
0.00322171
7.8258e-10
0.0217328
0.0159698
0.838464
5.86105e-10
3.30202e-11
1.09952e-08
1.17066e-09
0.00536149
6.05771e-06
6.61278e-09
0.000690369
0.0167586
0.00387107
0.00481357
4.62443e-08
3.04788e-08
0.0256131
2.02487e-07
2.32971e-10
1.01409e-09
8.53205e-10
0.0227098
1.52722e-07
0.000963348
0.000937461
0.0228923
0.0126304
1.06809e-10
5.38878e-11
4.36141e-10
0.0133845
3.69914e-06
7.89432e-09
3.03977e-10
1.04713e-10
0.000407942
0.00217158
0.0086479
0.000756395
0.00205608
0.00633472
0.0039254
1.44546e-08
1.79537e-11
4.84093e-09
0.00100054
1.57702e-11
0.0213952
9.00292e-10
0.0155331
7.7321e-07
0.0011542
2.42011e-06
0.00170077
6.76411e-10
4.45226e-10
0.0165104
0.261353
6.11979e-07
0.00259716
1.62766e-08
0.000287339
1.58447e-06
5.14223e-08
9.24144e-08
5.91352e-06
6.28234e-09
0.000370576
0.000728447
0.0334975
6.96083e-09
1.45779e-06
1.46523e-08
0.000635793
0.00320652
0.000111407
7.57597e-10
0.00383222
5.82851e-09
0.00351832
0.0195659
0.00089128
4.85156e-11
2.04347e-05
0.000306963
3.89997e-06
0.00490635
2.62117e-06
0.00119508
1.17715e-07
2.6917e-11
3.53393e-06
0.0047182
0.000170067
2.0783e-08
1.71498e-07
2.10701e-06
0.431316
1.93318e-10
4.45379e-10
1.61759e-09
1.9117e-11
2.18033e-09
0.000480738
0.000129734
0.00075541
5.30125e-05
3.76505e-06
0.000914127
6.38591e-12
0.00632756
3.75807e-10
9.48066e-09
1.47435e-09
4.07612e-07
6.22106e-05
4.07769e-07
2.38974e-09
4.74533e-09
0.0145141
7.5197e-09
2.5973e-09
0.0132112
1.93997e-07
0.0364101
0.0654642
0.384889
1.30858e-09
0.204801
1.27534
1.8061
0.668872
6.40577e-10
4.24157e-11
0.00473356
0.00523702
1.17584e-06
0.00295483
0.000705779
0.0310573
5.62699e-07
7.34241e-08
0.000480041
3.926e-09
9.9478e-11
8.93201e-06
3.49523e-05
0.000488565
2.17313e-10
0.00207887
2.08641e-06
1.43943e-08
2.16772e-05
0.00739652
0.00113297
4.93875e-08
0.00605481
5.69883e-09
0.00337721
4.04148e-05
0.00512546
1.45703e-08
3.2423e-05
0.0046543
1.83135e-07
6.06088e-05
1.35675e-09
0.0317564
9.41444e-07
0.010196
1.26179e-08
0.00338093
2.70048e-09
2.88757e-08
4.13324e-09
0.00208879
0.00207421
4.50686e-08
0.0119516
0.00672182
0.00102865
1.0851e-08
0.0327276
0.017712
0.173798
2.62812e-08
0.00344817
0.0240884
0.0455877
7.73806e-05
1.50094e-09
0.0647355
3.40882e-08
0.213433
5.14075e-10
4.53438e-05
6.59058e-05
1.66198e-09
3.71899e-05
3.20178e-08
0.0198482
3.5156e-10
0.000737179
1.08883e-08
2.26052e-07
1.46261e-08
1.37196e-08
0.000365835
0.0014775
0.137675
9.28629e-08
4.24517e-06
0.0407667
2.60802e-08
0.000800092
2.1699e-08
5.55338e-08
5.90361e-08
0.0049734
3.37125e-11
4.56876e-10
4.49848e-11
0.00278241
1.15999e-08
0.00112138
3.60529e-07
0.00270541
8.87379e-10
0.00513042
0.198093
0.00380905
0.00449482
0.0226567
2.05201e-07
6.26497e-09
7.02407e-09
0.00255836
0.00167132
4.74621e-08
8.84607e-06
0.000485063
2.08771e-09
5.79371e-09
0.311765
1.33229e-08
0.021557
9.53377e-10
0.00205729
0.00365738
5.06316e-09
2.62041e-11
0.000852915
1.43126e-10
1.01554e-10
0.0200231
0.00105457
0.00382346
3.96126e-08
6.22144e-10
0.00569154
1.02621e-07
0.01378
9.50861e-08
1.90395e-09
0.00220557
7.75847e-05
0.123572
1.10689e-09
6.68906e-10
8.315e-09
0.0035713
0.171006
2.57502e-08
3.60365e-09
1.29589e-07
0.00124921
2.56597e-09
0.0212861
0.0233071
1.71271e-08
5.93133e-10
0.00583743
2.95001e-09
3.67385e-07
5.37475e-11
4.51732e-07
5.31236e-10
0.060172
6.06497e-06
2.39633e-09
1.09533e-09
0.00126352
9.73074e-10
0.00104126
9.99481e-09
1.17246e-08
2.0124e-07
0.00753426
0.000774578
0.00674894
0.000922597
0.00112103
0.542503
0.00216302
0.000752147
1.92189e-07
5.08273e-10
0.00193657
0.0023672
0.000688209
0.000781321
5.61388e-10
0.00574137
1.53526e-10
0.00292224
1.79495e-08
0.0100151
3.1421e-06
0.0551279
1.98588e-08
3.95869e-09
0.017079
5.39809e-06
1.18755e-09
0.0259862
0.000269538
3.95826e-08
1.25879e-11
0.0385845
0.0118466
0.00527056
0.000651849
0.00145385
0.0156306
0.000769285
0.0054392
1.57898e-07
0.0199363
2.21901e-06
8.29525e-06
1.39859e-10
1.80073e-08
3.86735e-09
0.00827802
1.8641e-09
4.95834e-08
6.28176e-12
7.92853e-06
0.00694503
0.00150827
0.00281012
3.85409e-10
0.00408226
0.000918463
0.00179296
0.00310628
4.88533e-06
0.0398837
1.0754e-08
7.61944e-09
2.40123e-09
0.00236094
0.00142238
7.40176e-09
8.55753e-10
0.00201654
1.05493e-08
0.625716
0.00100849
0.0801
2.30469e-10
3.05928e-09
0.000786964
4.76783e-10
0.00835571
1.00965e-08
7.14389e-05
3.2582e-10
0.00932428
8.12672e-09
3.84211e-09
2.00039e-05
0.00268436
0.0012055
2.50812e-08
0.0012792
7.01112e-10
0.00435458
0.227601
0.00200985
7.81528e-09
0.000398664
4.30065e-10
5.40551e-08
6.80964e-06
0.0165612
0.000172838
4.83925e-09
0.000545888
0.003678
0.00442464
0.00842441
1.08793e-08
7.12515e-09
6.05366e-08
2.41304e-08
4.17893e-09
2.49324e-09
0.00125141
0.000691112
2.8146e-09
0.00139196
1.88444e-10
5.60167e-09
0.0706147
1.18462e-08
1.03517e-10
0.000648001
2.37389e-09
6.95906e-11
1.05499
1.59003e-10
3.02254e-11
0.00139642
0.00156488
3.7479e-09
0.000694135
7.76678e-10
0.0206898
0.00083276
1.24152e-07
1.68346e-05
2.06876e-11
3.02071e-09
2.30396e-08
3.89477e-09
0.105125
0.000756754
0.000251424
8.652e-10
0.000864175
1.6506e-10
6.61148e-09
8.53206e-10
0.00174579
3.41844e-05
0.000126915
2.5037e-11
1.72372e-08
0.000899341
1.87154e-05
7.58882e-09
4.91991e-06
0.00185124
0.00143098
6.49297e-07
0.00144917
1.82171e-05
0.000795315
7.26468e-07
0.00114221
6.00159e-06
0.0302499
3.51839e-08
0.00545916
7.81588e-06
1.81219e-05
1.15708e-10
0.00156168
1.85495e-09
0.00448544
0.0193174
2.78414e-08
0.00264364
1.43729e-05
4.61394e-09
0.00819628
6.89051e-09
4.77338e-10
1.90049e-09
8.89012e-10
8.93343e-08
1.99623e-09
1.33253e-08
2.06047e-09
0.239319
7.60518e-07
7.40486e-11
4.80869e-11
1.07049e-09
2.18273e-09
0.0293045
0.779443
4.20194e-05
1.8549e-05
1.34982e-10
0.00156663
0.00104604
0.000861608
5.27726e-07
3.00467e-07
9.41088e-09
1.67652e-08
5.0803e-08
3.92542e-06
2.01373e-06
0.00356823
0.00124967
1.46562e-09
0.000109297
7.06574e-06
8.64652e-10
0.0263843
9.04069e-08
2.02148e-09
3.88429e-08
0.165279
0.00115008
2.6968e-11
0.0215674
3.06393e-09
0.000814037
9.7463e-07
0.000664158
0.0481536
8.60505e-10
1.16353e-09
8.84703e-09
4.84633e-07
0.00645366
0.230653
0.0268774
0.045208
0.00267284
0.000159254
2.5822e-10
2.01459e-06
0.105617
0.00156945
1.70612e-06
5.72809e-05
8.09629e-08
0.00170133
5.78035e-09
0.210868
0.000713284
6.89935e-10
0.000170429
0.000140108
2.11818e-09
0.011648
5.44642e-10
4.40751e-09
0.202139
0.02775
1.60502e-09
2.34883e-09
2.44898e-08
3.0726e-10
1.78339e-09
1.96671e-06
4.40912e-10
1.93812e-11
0.00344058
9.1223e-11
2.558e-09
3.55844e-09
1.44111e-05
8.90877e-09
3.0219e-06
1.33871e-08
2.10456e-09
3.9568e-07
1.23565e-06
0.00242387
0.000714581
1.38697e-06
0.00419047
4.42594e-08
0.00603842
0.0105619
6.02911e-09
0.00277239
3.86531e-09
0.000768293
0.000710892
6.93122e-06
0.00150373
0.00127909
9.87352e-08
1.74612e-11
0.00183849
3.04333e-09
3.52899e-10
1.30683e-08
2.94439e-07
3.13145e-09
3.4223e-07
0.0402499
1.79726e-10
8.23208e-10
0.324795
6.22394e-11
0.000287446
1.76292e-07
0.00095808
4.41089e-10
1.12337e-05
2.55986e-06
0.00430463
0.00854289
0.000400352
3.40598e-06
0.0375687
4.54987e-06
0.00126105
8.8216e-05
4.75497e-06
0.00970768
0.000988948
5.39537e-06
2.12903e-05
8.55389e-08
2.82444e-09
0.000745285
0.000219687
0.0206153
0.0106441
3.75063e-05
3.39444e-08
0.00536669
0.00412313
0.0159481
2.91093e-12
0.010805
0.0157549
0.00239514
0.00111792
0.000410254
0.00452019
0.0180425
0.0356756
0.0074853
0.0109636
0.00716512
1.44074e-06
0.00254604
0.00341383
0.000576571
0.00309763
0.0135292
0.0121382
0.0204321
1.90617e-06
0.00732798
7.79211e-06
0.0044324
0.00231968
0.000313605
0.00281469
3.24718e-06
0.00126209
0.00450185
0.00101769
6.38602e-06
1.71012e-05
0.0167561
0.00179932
0.145653
0.00284865
5.2535e-11