/*--------------------------------*- C++ -*----------------------------------*\
  =========                 |
  \\      /  F ield         | OpenFOAM: The Open Source CFD Toolbox
   \\    /   O peration     | Website:  https://openfoam.org
    \\  /    A nd           | Version:  10
     \\/     M anipulation  |
\*---------------------------------------------------------------------------*/
FoamFile
{
    format      ascii;
    class       volScalarField;
    location    "22";
    object      p;
}
// * * * * * * * * * * * * * * * * * * * * * * * * * * * * * * * * * * * * * //

dimensions      [0 2 -2 0 0 0 0];

internalField   nonuniform List<scalar> 
111485
(
7.87175
0.0268541
0.0170346
7.87301
0.0101419
7.60955
0.0102164
0.0186822
0.0107204
-0.00239827
0.0096903
0.00737397
0.0139967
-0.000823707
0.0120964
0.0379211
0.0259874
8.79301
0.0152098
7.87377
7.87402
7.61246
0.00821217
0.0269018
0.00503488
7.84796
0.0133514
0.044958
0.0153312
7.87259
-0.0835202
0.0162712
7.87553
7.60799
8.5724
7.56839
-0.0601601
0.0519709
-0.121087
0.0211029
7.65525
-0.00173532
0.0218157
-0.0327279
-0.260918
7.88555
-0.0161144
0.0226627
-0.00693783
7.91604
7.9142
7.36156
7.92271
-0.0475822
7.92769
0.0241881
0.016097
7.61661
-0.0961702
0.0184753
0.0196617
7.87223
0.0184424
-0.073481
7.65714
0.0240851
5.10009
0.0168361
0.00465542
0.0160712
-0.141935
0.0302311
7.72632
0.00490573
7.87757
0.0317821
7.61215
-0.00527368
7.61089
8.0562
-0.113019
-0.0350925
7.61178
7.87398
0.0226044
0.00892585
1.74368
-0.0535353
-0.105266
0.0381536
-0.213814
0.0108092
0.0217396
0.0461227
-0.00165131
7.87369
7.8722
-0.0371364
-0.746865
0.0670824
7.87215
0.00511479
7.59744
-0.00939448
0.0107665
7.91234
7.61509
0.0151051
0.00836418
-0.350004
0.0210126
0.0324824
0.0163386
0.00599893
7.8445
0.0294913
7.86098
7.60885
0.0108248
7.87466
7.84696
6.6628
7.61263
7.6168
-0.00334203
8.9541
6.62529
0.0186082
7.87437
0.387892
-0.104005
-0.0385411
7.87808
6.50977
6.79864
0.0101951
7.61202
0.0321395
0.00843833
0.026997
-0.0387392
0.00881154
0.0165728
0.0167364
-0.0236173
0.0329198
7.61201
7.87321
7.62155
0.0165645
0.0132831
7.87167
-0.0724669
0.00924978
-0.66738
0.0183966
0.0140497
0.00915665
-0.524865
7.87893
7.8733
0.0155442
0.00719786
-0.484739
-0.604917
0.0251192
-0.0650006
7.64382
-0.447091
-0.413077
7.61623
7.87274
0.00608049
7.61357
0.0295493
0.0172667
7.66732
7.70483
7.86374
7.81126
7.67588
7.87236
0.0232988
0.0186501
0.0254963
0.0700756
0.000976399
0.0276731
-0.0498687
7.87286
0.0153436
7.69997
7.86047
0.0356846
-0.00914607
-0.0478611
0.0312587
0.016218
7.87841
0.0224256
0.0174655
5.29349
-0.023548
0.0249892
7.86851
0.0315376
-0.010076
7.69892
-0.0547996
-0.0124544
0.0148803
0.0141504
7.66866
7.87168
0.0279558
4.95542
-0.0382478
7.61327
0.030529
0.0337115
-0.00444213
7.87056
0.019687
-0.063906
5.98766
7.61332
7.61636
-0.119617
-0.593563
7.72509
7.29718
0.0319919
0.0229098
-0.0825604
7.72312
7.80662
-0.0714159
7.87525
0.00672738
0.0293597
0.0297201
0.0171414
0.0288243
7.61757
-0.107817
0.017835
7.62043
7.61186
-0.0522812
0.0315168
7.78282
0.0303421
0.0297155
7.87339
6.35291
-0.0285745
7.88816
8.02474
7.18595
7.87386
0.025363
0.0183562
-0.0104813
7.87487
0.0296534
7.87282
7.87093
7.878
-0.0789932
-0.0117743
0.0249291
0.0161283
0.000480196
0.0187382
0.0161888
-0.0815149
0.0101337
0.0206493
7.57144
7.87313
-0.083675
0.0194637
-0.0940453
0.0256402
7.87419
0.0257234
0.012334
0.0190868
0.0168839
-0.113985
0.0141586
0.0174863
-0.025636
7.61315
-0.0134407
7.61363
8.73836
8.09187
-0.122082
-0.0115956
0.00940159
7.86714
7.67727
0.0266421
0.0262251
7.87139
7.86947
7.93128
0.0180524
0.029664
0.0197438
0.0171041
0.012332
7.22544
7.61938
7.87446
0.028841
3.26611
-0.00482822
-0.114545
-0.0884453
7.61263
7.87142
7.87216
6.79222
0.0234823
0.0182926
7.60557
0.0264407
7.77929
7.8639
-0.0354676
0.0240182
0.00223142
0.0264891
7.98467
6.75631
7.6087
0.0237954
0.0199007
-0.0849833
7.65019
0.44481
-0.152037
0.0178187
0.0288126
1.26709
0.0108062
7.61055
0.00596529
0.0298243
-0.102182
-0.0418212
0.00718027
7.61074
7.8759
7.61384
7.87624
0.0255019
0.0238834
-0.0149552
0.0154694
7.62868
0.0114822
7.61619
7.87926
0.0120039
8.13932
6.94942
7.9148
7.56376
0.017474
7.61525
0.0173533
0.0163035
7.61069
0.00452285
0.025761
7.8534
0.0255602
0.0112361
0.0313771
-0.0477281
0.0408106
0.0300472
7.99295
7.87383
-0.021341
7.6333
0.00439577
-0.0483731
7.66582
7.6158
0.0261026
0.0101574
-0.000770049
0.0232886
7.61184
-0.0808777
0.00283268
7.60755
-0.0354668
-0.0120245
7.87069
7.87259
0.0248568
0.00519293
7.59375
7.8649
5.85725
7.87151
0.0104282
7.61324
7.87244
-0.000389506
-0.0975198
-0.00977623
0.0183138
7.61067
6.81008
-0.00809508
6.90784
-0.030841
-0.00388161
0.00403392
5.27349
6.98168
-0.489864
-0.317836
7.87009
-0.0519751
0.00983164
7.86864
-0.51472
-0.00282542
6.94656
0.00432941
0.00621501
0.0387039
7.6119
0.268585
0.00312777
0.0490836
-0.137802
6.60118
-0.605719
7.87106
-0.0435978
-0.168987
7.61681
-0.00674106
-0.0111932
6.41909
7.87383
7.47169
7.873
0.0112422
0.0783203
0.0101093
0.00974873
-0.0572515
7.61359
-0.0460794
7.88405
0.0230609
7.59868
7.88141
7.88843
0.00050026
7.87467
7.87169
8.3451
7.87062
7.62484
-0.0203963
7.61464
7.41648
7.61068
7.85919
7.60428
7.8807
7.61278
-0.00184421
7.60918
-0.0230518
0.00106445
-0.087763
7.6188
-0.0205952
7.6183
7.87145
-0.00625569
-0.00834107
0.0410674
-0.125514
7.3213
-0.0124924
-0.0219218
0.0230391
-0.014537
-0.00294415
7.87387
-0.00428804
6.43025
0.00315232
7.61311
-0.0204885
6.65458
0.0224447
0.0147232
8.29201
7.67785
-0.0326973
7.87177
-0.0133107
-0.0207581
7.62357
7.63072
7.92101
7.61564
-0.982497
-0.013679
7.60788
7.62094
0.00791116
7.61243
-0.0155789
7.61141
-0.0195032
7.87166
0.00718995
0.00626409
0.0509683
0.021302
7.59091
-0.128475
7.60591
7.61318
0.00326905
7.61422
-0.00257959
7.92706
-0.03476
7.87314
0.0225891
7.87407
6.95435
-0.113295
-0.0485448
-0.0169979
0.00681509
-0.0287468
-0.00502748
7.62069
-0.0244
-0.0283695
7.61271
-0.0531453
-0.0645072
-0.00951289
7.68131
8.03479
0.0309721
-0.0404562
3.67351
7.71988
-0.00132821
0.0193978
0.00332122
0.000330152
0.155871
2.5213
6.86071
-0.704107
3.13611
7.87315
0.00816327
7.63259
6.98508
0.0298513
2.46922
-0.725831
1.41568
6.85852
-0.0139268
0.0146593
7.62705
7.44345
0.0217874
7.87957
7.61241
7.61315
7.61732
-0.000839239
7.61476
7.8291
0.00453276
0.0258991
6.01828
-0.0306034
7.3084
0.0269197
7.92156
7.6185
-0.00703636
7.61224
7.61735
6.95188
0.0458062
4.63512
-0.0260139
0.0375159
7.88782
-0.227391
-0.0693493
0.0037
-0.0154706
0.251716
-0.000578828
7.61555
-0.00853886
0.00644112
7.87609
0.0199721
-0.0242602
0.0126619
0.0345653
0.0127108
0.0116757
7.88603
-0.0017697
-0.0567643
6.93207
0.0134683
0.0123073
4.83483
0.0383869
0.0139111
0.00318924
0.00651851
0.0150398
0.0323336
7.75714
0.00885877
-0.00229851
8.23033
-0.00590167
-0.0200905
0.0361787
7.61533
0.0493882
7.8906
7.61238
7.62519
7.61541
0.0160593
7.04487
-1.04994
7.86868
7.55299
0.00360514
-0.00215605
7.87064
-0.0115168
7.86997
7.87309
7.92391
-0.00840107
0.00587221
6.98148
7.81986
7.61449
7.61477
-0.0660937
0.0202135
6.79975
0.00135855
-0.416182
7.61916
0.00894373
-0.017796
0.0828373
7.61166
7.61287
0.021543
0.0309852
6.91565
7.61697
7.60345
0.0167488
7.87617
7.8705
7.6146
0.00534671
0.0196072
7.61177
8.47911
8.21231
0.148966
7.61835
7.61126
-0.0232668
-0.0738938
6.90026
5.9439
1.13087
-0.0129449
0.00221147
7.59014
-0.0208317
-0.00565201
7.61162
7.9213
7.61147
7.61365
7.61726
7.6111
0.0219281
7.87116
7.61221
7.67194
0.0131494
0.0167769
7.87815
7.93464
-0.0250194
0.024801
0.0347544
7.86975
7.61283
0.0254049
7.87378
-0.00858106
0.0187898
0.0410401
7.8507
7.87224
7.87209
7.61394
0.0348172
7.61276
7.612
-0.0343405
7.87221
0.0341014
0.00535482
7.63578
0.0343005
7.84036
0.023724
-0.00600676
-0.0247738
-0.0179101
-1.28059
7.22877
0.0217957
-0.0197383
0.00098427
7.78601
-2.11679
7.14505
0.0238004
7.61662
-0.0294279
-0.0140048
-0.0328174
8.07989
7.87227
7.87398
0.0288555
7.30504
-0.0265807
7.44224
0.0243195
0.0343368
0.00957243
0.0240311
7.61073
7.63846
7.74841
0.0265885
7.61464
7.22608
-0.159112
7.61559
7.62251
7.87372
7.61194
0.0100896
7.60137
7.61386
-1.58172
7.28743
7.63513
7.06678
7.61393
-0.03787
0.0133776
7.87154
0.0155802
1.00091
-0.0378132
-0.389578
0.0238647
7.61891
-0.0112018
-0.0310177
-0.0369052
7.87335
-2.65425
0.0102185
6.46685
-0.00389413
-0.117764
-0.103814
0.0025947
0.027014
-0.140537
0.038841
0.0277325
7.59241
7.62849
0.0112373
-0.000383133
7.61772
0.0137598
0.00564036
0.0220407
7.61023
-0.121798
7.61256
0.019622
0.0135718
7.61179
-0.0662816
0.0273566
-0.160056
-0.0217554
7.56877
0.015077
-0.154326
-0.0775756
-0.157914
-0.0402289
7.60305
7.62306
-0.0237271
7.61195
0.0283784
-0.0789501
6.71822
-0.475558
-0.829462
-0.306199
7.61185
6.37924
0.0254282
7.87363
9.46262
-0.0482496
7.60711
7.61075
-0.728248
-0.865079
7.61207
-0.123205
7.61366
7.61228
7.87534
7.87073
7.95559
7.87283
-0.0264401
7.61631
7.61661
7.62255
-1.44487
0.0133087
0.000361302
0.0264606
7.62604
7.61077
-0.0495244
7.61317
7.61458
5.81106
-0.0548352
0.0241082
7.61176
7.60674
7.62344
7.61103
7.55882
7.60999
-0.0727969
7.61639
-0.203492
0.0125734
7.61447
7.88263
7.93125
-0.124979
7.92342
7.87371
7.6301
-0.212606
7.61141
-0.0658853
-0.070076
-0.180943
7.60933
5.28901
-0.0412497
0.00738555
7.66401
-0.199857
-0.014545
7.88207
7.58792
6.8996
7.6075
0.0239916
0.0130953
-0.0639484
-0.349072
7.61265
0.0268338
7.56636
6.82606
6.85668
7.61645
0.0193999
7.61307
7.94181
-0.0656681
0.0293649
7.93889
-0.000649543
7.31188
-0.0845053
7.97741
7.61296
7.58471
7.87255
0.02531
0.0213848
0.352201
7.61361
7.66277
0.0155516
7.61221
7.07026
7.87175
-0.00364602
-0.337444
0.0449161
7.86341
-0.0732392
-0.0610506
8.24095
-0.0608194
7.62026
-0.041329
-0.0259407
0.00722367
-0.0878416
-0.178751
7.61256
7.61363
7.61326
-0.0728992
7.68416
-0.109937
7.87546
0.731663
7.87258
0.0187153
0.0204654
7.94354
7.61162
7.9608
7.62294
-0.111509
7.96896
6.90762
0.00485246
-0.104646
7.91063
7.03621
7.70447
7.05663
7.61329
7.61238
-0.103253
0.00611868
7.87306
7.8665
-0.631243
7.8782
-0.102916
0.0234426
7.69659
-0.0349996
7.87246
0.0179457
7.62137
0.0154721
7.61166
-0.589056
-0.308694
-0.14749
-0.040477
-0.0448639
4.68357
7.54212
-0.0341637
7.91773
0.0132797
7.8712
7.6426
7.62385
7.62393
7.64799
7.61771
-0.0551795
-0.0665548
7.87273
6.65358
7.87923
-0.0541683
-0.125038
7.86889
0.0250264
-0.150868
7.9317
0.0263569
0.0264328
0.0163591
-0.147145
7.61232
7.61179
7.64164
7.61244
0.0197196
7.54266
-0.0352209
7.61273
-0.0451507
0.0199207
7.61575
-0.053115
7.60399
7.61193
-0.0462937
-0.0833137
2.13209
7.61336
7.95498
7.60483
0.0214069
7.50418
7.92268
7.52191
0.858702
6.72505
-0.531726
7.02732
7.48539
7.7695
0.0197634
0.00448406
0.0122381
0.0194881
7.85773
-0.0304947
7.61528
7.61606
0.0168406
7.58907
-0.648366
-0.0411284
0.032621
-0.0476132
-0.965498
-0.00242902
7.61515
-1.4249
-2.97776
-0.00867719
-0.0359123
0.0229709
5.52416
7.86759
0.00134588
7.87686
7.61059
-0.247317
-0.00190706
-1.11716
7.59691
7.44097
-0.0745454
7.93128
7.61325
-0.054047
7.95011
7.93912
0.111926
-0.0540499
-0.0916567
0.0474967
0.026698
7.61613
7.61214
-0.275131
0.0257668
7.61314
7.94436
0.0329014
7.62392
6.61071
6.75942
6.79605
4.35851
6.62513
7.61463
0.020839
7.59959
-0.0781096
7.61306
3.4263
7.67152
7.63675
7.61553
7.61286
0.0291184
7.61262
7.61233
6.91583
7.60843
7.61618
7.6095
0.024354
7.62999
0.0213314
-0.0820134
7.639
0.0419578
7.61273
-0.027778
-0.208801
0.0177193
0.0262212
7.84674
0.0234172
0.024807
-0.151447
7.87472
-0.107895
0.0253371
0.0266835
7.32766
0.0180133
7.68394
7.61386
7.61518
7.61176
0.0237223
7.61345
7.60229
0.0205039
-0.135243
0.0087114
7.625
5.42689
0.030756
7.61825
-0.372981
7.92847
0.0131731
7.60918
7.61167
-0.00472882
7.60907
-0.0201631
7.87535
7.61262
0.0279938
-0.0390608
0.0245866
0.019509
-0.135707
0.0182612
7.61297
8.01919
0.0140105
0.0293311
0.0301997
-0.094233
7.61212
0.022259
7.61196
7.79933
0.00454623
-0.0687175
7.62462
0.023586
7.60135
0.0192644
0.03135
7.71316
7.61161
7.61405
0.0131736
7.61476
7.61334
0.0164853
0.0197823
-0.0426403
0.0230846
7.63399
7.6248
0.0118437
0.0289727
7.61774
0.0113712
7.70061
0.00742816
7.61278
7.61241
-0.00714997
7.61164
-0.0236229
0.0312552
7.61857
7.61098
0.00474979
6.47145
0.0318447
7.87183
-0.0601251
7.88227
6.67968
6.45705
0.0279216
6.96351
6.88942
0.0116338
6.84687
4.25287
6.33259
7.67401
7.87787
-0.17969
0.0255046
7.65337
7.61155
0.00195437
0.0134553
7.62294
0.0132904
7.61071
7.88299
0.00476146
-0.00537103
0.126023
7.61163
7.61447
7.61329
7.61208
7.60683
7.61002
7.60654
7.60737
7.61117
7.60999
7.61229
7.8792
7.61561
7.61096
7.61352
7.78543
7.61144
7.61166
7.61222
7.63991
7.81734
0.0197994
7.61401
7.61173
7.62482
0.0270452
7.617
7.88291
2.94475
7.60147
7.50907
0.0182994
8.24322
7.56511
3.47914
0.0134127
7.61331
6.75899
7.25951
7.61081
-0.0299515
0.0155981
0.0124456
0.00424002
0.0323212
7.90294
7.60574
0.0175837
0.02361
0.00314053
7.60965
0.0222515
-0.015938
0.0270445
0.021842
0.0228422
0.00475634
0.0263717
0.0164105
7.88597
0.0225054
0.0263359
0.0134682
0.0193009
7.61224
7.61171
7.6123
7.87256
7.60982
0.0254084
0.0252759
7.61535
7.61112
7.61167
7.81874
7.61339
7.87471
7.61827
7.8794
0.0299397
-0.227654
0.0260049
0.0318155
7.58791
7.6288
-0.0340572
-0.265173
7.61171
7.61268
0.00839456
7.88467
7.61236
0.0646751
-0.00124793
0.0156728
0.0325125
-0.0299574
7.89921
0.0144726
0.0217945
6.90943
7.87661
0.0112177
7.89605
7.62501
2.37703
1.26815
-0.00879262
7.76577
7.84927
-0.0434279
0.0222705
0.0329096
0.0245426
3.39045
7.87214
-0.0184501
8.23645
7.87347
7.55786
9.82021e-05
7.6129
0.0271026
0.0107525
0.0119085
0.0137643
7.87945
0.036442
7.87528
7.45346
7.87343
7.86619
0.0220535
4.48686
7.61225
7.87299
8.35889
0.0264625
6.85616
0.0111833
0.0201785
0.0216574
0.0227719
7.82402
7.86875
6.62865
0.0135761
0.0268917
-0.925508
7.92078
7.87183
6.82515
-0.0233587
-0.0244444
7.61088
-0.0333273
2.48792
0.015276
0.0203027
7.87246
6.64428
0.0124802
0.0251158
7.61378
0.00608792
0.00441381
-0.00236777
-0.00511848
0.0207322
0.0381168
6.9117
0.0315111
0.0247917
0.0292186
7.96787
0.0176209
6.99821
0.0330436
0.0208833
7.87373
0.0212619
0.0168078
0.0115838
0.0252955
8.73843
2.06413
-0.0525137
4.27638
0.0186013
7.64835
0.0224609
0.0185785
7.88036
7.61238
-0.368632
-0.117829
0.0203916
8.7304
0.00731012
-0.208456
-1.17127
-0.0826467
7.88122
7.89197
0.0231336
8.3457
0.0247495
-0.218765
0.0180759
0.0331213
7.87263
-0.00164039
0.0245965
7.87193
6.92984
0.0360818
7.88694
0.0280305
0.032561
7.87318
8.78884
0.0226468
7.87287
7.61135
7.61347
0.0294893
0.0288563
0.0134445
7.9261
0.0103932
0.0290443
7.67302
0.0317516
0.0194989
0.0250474
-0.131172
7.61244
0.0188176
0.0540569
0.0314825
0.0198502
0.0272097
-0.159212
0.0297658
7.87159
-0.0496452
0.0225952
7.87212
0.026841
7.61951
7.61359
7.87485
7.62358
7.87435
0.0025764
7.61411
0.0271146
-0.0179138
7.87545
0.014699
7.80434
0.0175395
7.87947
-0.167534
7.65403
0.0078172
0.00250924
-0.188787
0.0441963
0.0239808
0.0182538
0.0288479
0.0388597
2.79515
0.0365892
0.00566179
0.0400001
7.87283
0.0410473
-0.12527
0.0338801
0.0143389
-0.168578
7.87506
6.76939
7.87754
0.0138161
7.87195
6.1666
0.0250329
8.38973
0.00887826
7.86429
7.84016
7.6123
0.018163
0.0443105
0.0232131
-0.0460015
0.0249248
0.0229751
0.0327284
0.00944697
0.0156382
0.0308239
0.0210912
7.87967
7.56696
7.86543
0.0178809
0.0291178
7.64907
7.61225
6.30567
0.0454428
0.0185232
7.87249
0.0230309
7.86973
-0.437761
0.0176421
-0.0664194
7.87336
7.8714
0.0110771
7.87211
-0.00803625
0.0300992
7.45411
0.0207073
0.0168076
0.0274873
7.87207
-0.111441
6.98076
-0.0257794
0.010417
7.8749
7.88392
0.0274778
5.5251
7.90384
0.033932
0.031708
7.87235
7.85561
6.93675
0.0136309
6.28325
0.0163984
-0.0351954
-0.00114622
7.8718
7.03413
-0.0367917
7.8705
7.61908
7.87383
7.87588
7.14729
7.72638
7.57286
7.87343
7.89039
7.29705
8.39802
7.64173
0.00152528
7.65134
6.7543
6.39277
8.90669
6.89702
7.87189
-0.0346149
7.38857
7.71082
-0.0352776
8.20901
8.5737
7.77137
-0.0441633
8.36801
-0.0331242
-0.0857869
0.0119989
7.16524
7.87547
-0.0247703
-0.45995
7.83562
7.86507
0.0209568
7.08618
0.0206575
7.01073
7.59518
7.72874
0.0193061
0.0230195
7.87052
0.00520535
7.89747
7.3884
-0.188272
0.0436619
-0.0325453
7.61007
0.0221512
7.22959
-0.0225949
7.61325
7.87257
7.61162
6.98804
0.0414775
0.0313817
7.87397
-0.772794
7.88204
7.89513
7.88175
7.87354
-0.0258168
-0.0400558
0.0332716
-0.0219518
7.83243
0.0115784
0.0129617
0.0371727
-0.0317209
7.66289
0.0277398
-0.000603182
-0.00445715
-0.433238
0.0225452
7.92438
-0.0136364
-0.024751
0.0229402
-0.0243299
-0.048225
7.90315
-0.0412967
7.7795
7.87609
0.0210235
7.87929
0.0260532
7.86949
7.93955
7.55126
7.88003
7.87299
-0.0477845
7.87868
-0.0160166
7.1959
7.61698
0.0214608
-0.00324862
0.0301379
-0.0166753
7.88986
0.695202
7.87408
-0.0198055
7.9408
0.0152689
-0.030534
-0.0171956
-0.00462083
7.9711
7.97804
7.88045
0.0289243
7.62797
7.86614
0.024513
7.60429
7.61112
0.000822842
7.97097
0.00869
-0.43976
7.14628
7.50037
7.43878
0.0115157
0.0129448
7.87266
0.00748452
-0.0118761
6.98868
-0.0222999
7.87035
0.0209131
0.022748
0.0396383
7.87486
0.0117876
0.0202985
-0.0291482
-0.00358172
0.00793597
7.87402
7.87224
-0.108925
7.86837
7.61006
7.87003
0.0145391
-0.0191787
0.0186088
-0.0359876
6.86937
-0.0035368
0.0161909
0.0121938
-0.0602576
0.01903
-0.0184116
0.0132514
7.612
7.61239
7.61215
0.0324736
7.61378
-0.0328925
5.24315
0.00324917
-0.561221
0.00830655
0.0134254
7.61079
7.8728
0.00428289
0.00347568
7.88693
7.60617
7.87337
0.0112564
0.00589354
0.00211756
0.00835877
0.0296602
0.0147747
7.8736
7.87304
7.8717
0.0399295
0.00598806
0.00254027
0.0159593
0.0332184
0.00397927
7.8496
7.87192
6.34099
7.65557
0.0245292
0.0275269
7.86756
7.90659
7.86705
7.87508
7.836
7.71752
-0.00630101
7.8748
-0.0505404
-0.119355
7.61928
-0.000427487
0.0273187
0.0219516
7.91753
7.76372
-0.00528388
7.8727
-0.00712894
-1.23148
0.0191186
7.66756
5.95337
7.61178
7.87702
7.86871
7.60557
2.1058
7.88676
0.00872123
-0.0034844
7.87503
7.87251
-0.00904902
7.87914
7.61354
0.0124402
-0.203455
7.86221
7.86279
7.67385
0.0421452
7.87225
7.87195
1.16159
-0.0242255
-0.0100472
7.87239
7.61867
7.20811
-0.014531
-0.0097849
-0.0120051
0.00628727
7.61225
0.0546468
0.012803
-0.000170179
7.55748
7.86888
7.87176
7.82473
7.8724
0.0237528
0.0200484
0.00216821
7.88938
7.87228
7.87201
7.86939
7.68627
-0.0403147
0.109809
0.0184061
7.61586
7.87287
7.92633
-1.01265
-0.0425222
-0.0701346
7.61118
-1.95179
8.25718
7.83945
7.87127
0.0227456
0.0346358
7.87527
7.90761
0.011709
7.87329
0.0136928
0.0290797
2.73013
7.87105
7.662
0.0229481
-0.0618673
7.91158
2.53815
0.0542918
0.0319517
7.87418
7.8771
7.88178
7.881
0.026066
0.0266766
7.87741
-0.0515368
-0.0139681
0.202643
7.87286
7.87228
7.87373
7.87769
0.00872205
8.38371
7.87407
7.7688
0.0243659
-0.00869003
0.0295886
7.84614
7.87164
-0.0200377
7.62568
7.87273
7.87527
7.87438
0.0201603
7.69649
7.59719
7.61481
0.0199747
0.0265089
7.86964
7.87389
7.85603
0.0157177
8.15138
7.8787
7.85807
7.8739
7.87347
-0.20172
0.0235688
7.91403
0.0206535
0.0155113
0.0200399
7.87799
7.87457
7.8741
7.83334
7.61212
0.0311088
7.87378
7.37881
7.33285
-0.0171226
7.65323
-0.0249009
7.87217
7.61522
-0.0158802
0.289406
7.03312
-0.00585415
7.87512
-0.00996202
8.12366
7.89217
7.92299
9.10704
7.88054
-0.0378382
7.87101
0.0100976
7.61491
6.93552
7.8792
7.8683
0.0153326
0.0331247
7.61197
2.64359
7.61032
-0.0725932
-0.0417313
0.0103644
7.61496
-0.352504
-0.0234595
-0.0504481
0.0226163
-0.628497
-0.0295515
7.59294
7.61218
-0.753468
0.0220758
-0.00190764
7.91026
7.51485
6.37173
3.25238
7.8739
7.61733
7.87436
7.87462
7.87531
8.30256
0.0349197
-0.0729259
0.0300711
6.96849
-0.0936747
7.87395
0.0100829
7.87161
7.88008
7.61332
7.71336
-0.10536
7.69385
7.60695
7.87255
0.0172019
7.87105
7.87217
-0.0574131
7.82773
5.74999
4.92553
4.58741
7.87616
4.80694
4.64615
4.75742
5.4584
7.61189
7.61226
0.0114266
-0.0135507
6.95711
7.13924
7.60801
0.00628658
8.19133
7.71231
-0.099151
7.87531
7.87272
-0.0374761
-0.0886179
7.83764
7.61333
-0.0320158
7.03445
7.60527
-0.40772
0.00714336
0.0515132
7.81257
0.0219872
7.87431
0.0154206
-0.396333
0.0166544
7.87303
-0.38949
0.0212566
7.96793
-1.04087
7.86513
0.0203917
7.53172
0.0273384
7.80513
-0.0489419
7.87434
7.57234
7.61416
-1.47212
-1.47981
7.88534
0.00988263
0.0115444
7.9186
7.87268
-0.00540183
0.017823
-0.123588
7.87978
0.0151929
0.00961572
-0.0450703
-0.854624
7.87545
-0.171515
7.62104
-0.151684
7.87166
-1.73552
-2.01217
7.85352
0.0221061
7.67498
-0.0455888
7.61117
7.85777
7.88612
7.8903
7.85149
7.8589
-0.00210821
0.0285496
-0.15548
7.8827
6.3483
-0.143254
7.88093
7.82866
7.90627
7.86614
7.90469
0.0229748
7.87312
7.87404
7.61202
0.016035
7.85865
7.61252
7.54201
0.036774
7.61302
0.00871191
-0.783981
-0.0518109
0.0344015
-0.015237
8.22107
7.87829
7.87144
0.0696275
0.0308865
7.54241
6.31312
0.0104588
7.87242
7.87516
-0.133139
7.86422
0.0161314
7.87547
-0.0122764
-0.055729
7.88165
7.61154
7.87502
7.87464
7.87015
-0.0250491
7.87168
0.0117077
7.94413
7.87552
0.0242292
7.60664
0.00781822
7.77564
7.87209
-0.0125531
0.031186
-0.118871
7.87366
7.87403
7.87295
0.0297319
-0.0872376
7.95172
7.61135
7.64351
0.0132716
7.86664
0.0144367
-0.134784
7.87223
7.86884
0.0222549
7.86636
7.64591
7.61317
7.95994
7.61333
-0.152899
6.21903
7.63735
7.87303
6.38229
7.86849
6.60353
7.84761
7.86758
7.72886
0.0180248
7.78851
0.011218
7.86172
7.8678
-0.0591884
0.00578513
7.86315
7.82536
7.87495
0.0263322
6.70105
7.87434
7.73409
7.87114
0.0187575
7.86444
-0.180286
7.87375
-0.00950961
6.91711
-0.0270618
7.89006
7.87015
0.00565301
6.54435
7.8805
0.0290505
-0.00743479
7.89211
7.8747
-0.0179512
-0.0573537
0.0204896
0.0168976
0.0072998
-0.0073574
0.0221298
-0.0391089
7.94912
-0.19019
6.25671
6.14225
7.8739
7.87211
7.87054
0.0350656
7.87432
7.86735
7.87455
-0.121776
-0.0433914
5.94808
-0.0387356
7.8754
-0.0165963
7.61051
-0.0585048
0.0230876
6.33041
0.00288163
7.86699
7.84676
7.61271
0.041489
-0.0112772
7.87313
7.61295
0.0318072
7.87346
-0.133376
7.91449
-0.0819911
7.87192
7.61321
7.85222
7.61207
0.0247654
7.61229
0.270814
7.61505
-0.00478305
7.87302
7.8695
4.31039
3.98512
7.89138
7.8699
7.87218
7.87266
-0.00636524
-0.142691
5.21074
7.87654
0.00111429
7.61057
7.62268
-0.429349
0.0126825
-0.0674962
7.61334
0.0259349
-0.0208476
0.0258231
0.0150501
7.87248
7.87484
7.87906
7.87561
7.61312
7.612
7.61275
7.84139
7.61367
7.61294
7.87221
7.61265
-0.107907
7.61193
7.87318
8.61532
7.874
7.87336
2.70351
7.61202
7.87231
-0.00515037
-0.0938446
7.84946
7.85104
7.87286
0.0187682
7.64767
7.86016
-0.109885
7.61374
7.87386
7.86844
7.87599
-0.0465534
7.61207
-0.174417
7.87631
7.85712
7.87189
7.8726
7.87051
-0.106182
-0.145237
0.0215551
7.87422
7.63613
7.9089
-0.122948
7.87292
-0.142837
-0.0798692
7.61053
7.84367
5.93831
-0.40476
7.85622
7.01533
-0.391599
6.01735
-0.0112995
7.64537
-0.0399514
5.98426
5.61208
7.87199
0.00018326
7.61368
-0.0130326
-0.0536013
7.88208
-0.000686969
-0.283676
7.87012
-0.0677355
7.61478
7.85726
7.86607
7.85319
7.86838
7.61053
7.87274
7.87151
-0.153854
7.10546
7.87281
7.86983
7.87181
7.87586
0.0194523
4.03818
-0.131896
-0.308214
7.87208
0.0145814
0.00375996
7.87274
6.99325
7.78749
7.86309
7.9002
7.96268
6.43117
7.1643
-0.0346091
7.87462
7.87738
6.09745
6.63806
7.61187
-0.00601055
7.88128
7.62638
7.87405
-0.0791421
7.87595
7.61201
-0.0154808
7.6127
7.57369
7.76376
7.91964
-0.0159589
7.87391
7.87241
7.87237
7.84333
-0.0151075
-0.0653786
-0.0563775
-0.0023827
-0.0304516
-0.0387599
7.61344
6.54278
-0.163539
-0.0324518
6.53263
-0.151993
7.86808
-1.08931
7.63427
-0.0886432
7.87486
7.617
-0.0310415
-1.38653
7.87769
-0.0327217
7.87614
7.87596
-0.0949388
-0.055401
7.87211
7.61248
7.91806
7.612
7.8699
6.86145
7.87338
7.87166
-0.0330527
7.87291
7.86831
7.87135
-0.0239834
7.88489
6.90322
7.61283
7.61209
7.29834
6.92031
-0.0255125
7.61639
6.92898
0.00566358
7.86593
-0.0423903
-0.0252717
7.87483
0.000387804
7.87115
7.45421
7.93456
6.78367
7.61539
7.85094
7.86483
7.87538
0.0205872
7.87444
7.87296
7.8711
7.73401
7.87221
7.78467
-0.119486
7.87214
7.87688
-0.0687736
7.87328
7.61304
7.61256
0.032159
7.87482
-0.162458
6.70209
-0.38427
0.015755
7.60924
6.53733
0.00790331
6.2668
7.6133
-0.197571
-0.379498
-0.00261784
-0.0576916
-0.260126
-1.17054
7.63746
7.61768
0.00884855
-0.10143
-0.0832982
0.0169534
-0.400103
7.61116
0.0197592
-0.00106225
0.00536644
7.61593
0.00799098
0.0223071
0.0233171
0.00451222
-0.122739
0.0153423
0.0422452
-0.00431541
0.0109533
0.0265459
0.01037
6.91696
0.0914989
0.00627415
-0.00145394
-0.0248637
0.0236153
0.0124269
0.0150567
7.0772
-0.114451
7.02598
0.0349347
0.0110671
-0.0500078
0.00266642
7.01468
7.61051
0.0123446
0.0154416
-0.127697
-0.0634404
0.0244329
-0.000451781
4.82627
0.00929327
7.87214
-0.001191
-0.112784
-0.0482053
0.0305306
-0.140637
-0.176133
-0.0022783
0.00693339
-0.00299565
0.0315081
0.00172191
0.12355
6.13632
5.40293
0.00201237
7.87685
7.87283
0.00155103
0.0220131
0.0234126
7.87405
-0.0724783
-0.0559781
0.017752
5.5831
7.87163
-0.209981
0.00738928
-0.118921
7.87501
0.0287871
7.87194
0.00813887
-0.00485379
-0.0466646
-0.0459193
7.87263
7.8741
-0.0369152
0.012597
0.0276845
7.86553
0.00834746
0.0275359
-0.0260596
7.61934
0.0335992
0.0490287
7.0064
0.0225546
-1.50631
-0.105178
7.58032
-0.0623594
-0.102051
7.87203
0.00358318
0.0179086
1.38771
-0.0134523
0.00889373
0.0227796
0.0217343
-0.0343209
-0.0229281
-0.233936
-0.110066
0.0326046
0.022307
-0.014456
-0.17636
0.0208544
-0.0200512
0.0602247
0.0145423
-0.160297
0.0401645
7.87207
-0.00245215
-0.0124363
-0.105529
0.038115
-0.0413025
7.63956
-0.00473059
0.0243827
7.86745
-0.0745012
-0.0154377
-0.00470372
0.00265519
0.0227279
-0.045913
0.0129328
-0.016648
-0.0533141
7.87167
7.87238
-0.0490636
7.61717
-0.0459368
-0.0046463
7.70667
0.0224078
-0.0201135
0.0403481
7.87113
0.0258779
0.0112738
-0.0627168
-0.143827
0.0206388
0.0451444
0.00881148
-0.0103346
7.87232
7.85584
-0.0957407
-0.0327617
-0.0586643
0.0207525
7.8555
-0.0332801
0.0159296
7.70717
0.00106211
0.0111642
-0.0835118
-0.22479
-0.0308698
-0.038132
0.0387372
-0.00442831
7.62213
0.00354593
0.00319977
0.000254404
-0.203157
7.8567
-0.0218692
8.01386
7.87326
0.0125958
-0.0120808
0.00576071
0.122121
-0.117642
1.4813
7.61489
-0.0311053
0.026063
0.0659469
0.00910133
7.88002
7.61478
7.60428
-0.00130861
0.00343741
-0.230115
0.025069
7.6278
7.86001
-0.00941509
0.00578743
-0.0429596
0.0135188
0.00838185
0.0296031
-0.0539025
4.37429
7.61176
-0.00391699
0.023379
7.8595
-0.00379407
0.025035
-0.0755781
0.0113349
0.00980091
-0.0423544
7.85966
0.0258055
0.00635713
7.61554
7.64423
0.0295723
0.0796393
0.0134713
0.0211199
0.0183687
0.0133767
0.0332086
0.0298087
0.0255751
0.0140971
7.85546
7.84795
0.0099531
0.031034
0.0173707
-0.100095
0.0211578
-0.00279726
-0.00119861
0.0240662
0.0174032
7.61495
7.62277
-0.114119
7.85424
6.86391
0.0133762
0.0202885
0.0010877
-0.0955357
7.16204
-0.0348909
-0.0815837
7.29303
-0.103102
-0.209418
0.0206426
0.0227838
0.0201939
0.028417
-0.144634
0.0208985
7.87272
7.23589
-0.0794134
0.0303728
0.00503163
0.0264836
-0.108197
-0.033165
-0.109811
7.26202
0.0256579
0.0531892
0.0145766
-0.123813
-0.037001
-0.0950344
-0.202798
0.00337061
0.0227811
7.15406
-0.00406131
0.0271386
2.78483
6.79042
6.23964
0.0382621
6.63534
0.0138276
0.0237508
0.00605751
0.0237919
-0.107239
5.04193
3.0405
8.05916
6.72871
-0.0471696
7.61191
7.61166
-1.28444
7.87033
0.0281957
0.0122204
0.0260266
0.0226986
0.0231292
0.00620119
6.2676
0.0231046
0.0256171
-0.0310125
0.0152841
0.0348852
0.0135961
7.61208
-0.206048
0.0299841
-0.095625
7.61204
-0.00853841
-0.00509619
7.61191
7.86485
-0.0805017
0.0193124
7.90803
0.0129318
0.0169088
-0.0846669
7.87319
7.61194
0.0208104
-0.208781
0.0233613
7.6121
7.59751
7.61207
0.000765468
2.54831
2.32017
-0.00346494
-0.369904
7.88081
0.0270862
-0.347218
0.0193311
0.0237709
0.00734498
0.01837
-0.506065
0.0284749
7.6626
0.0112984
0.039934
0.0180884
0.0203365
0.0142493
0.0353536
0.0172696
0.00998944
0.030459
-0.0616796
-0.389235
0.0121936
-0.0847012
-0.132616
-0.460201
0.0102739
-0.3733
0.0198032
0.0303939
0.0222814
0.0394992
-0.0537623
0.0349726
-0.380055
0.0230055
7.4696
0.0106664
3.81067
0.0141136
-0.00579006
7.61624
-0.0162106
7.46909
-0.00370203
7.49709
7.9049
0.0433479
-0.0260223
6.84559
0.0241037
0.0198756
-0.0235134
7.86079
7.87373
0.0138758
0.00119404
-0.181961
0.0166973
0.0323511
-0.0243379
-0.0643083
-0.00774512
-0.0170802
6.50866
0.0100261
7.61166
7.80649
0.0311682
0.0301494
-0.0967472
0.0305114
0.0314557
-0.00943631
-0.0220768
7.78226
-0.111362
0.0207036
-0.0120948
7.79474
7.87965
0.0100033
-0.0008761
6.16208
-0.0429367
0.0294076
0.00110511
-0.135407
0.0328816
0.0228655
7.86418
4.57198
0.021896
-0.07383
7.68018
0.0402019
-0.0491165
-0.0129208
-0.122852
0.0171568
-0.153013
0.00970157
-0.0381568
4.83195
-0.0481417
7.87394
0.000295209
-0.020154
0.0309518
0.00982959
6.57211
0.0145939
-0.0797249
-0.0136805
-0.10921
7.42225
7.61219
0.0295524
-0.0733911
-0.0040124
0.00471842
-0.0429685
0.0218539
-0.00222534
0.00897308
0.0416783
0.0267654
-0.0504242
7.0315
-0.132971
-0.0226887
-0.000768563
-0.0401068
7.22716
7.61167
-2.38903
-0.116108
8.15319
-0.142178
-0.0247062
7.37095
4.99714
5.45661
-0.0447629
0.0240671
0.172582
5.83977
-0.0774818
0.0312428
7.6174
0.227088
6.88606
-0.0130019
0.0221573
7.64585
-0.0286266
-0.0264946
-0.0303422
0.0272951
7.61149
-0.269676
-0.0407122
-0.0770839
-0.0207496
-0.021483
-0.0394662
-0.00985875
-0.176467
-0.0230294
0.0218352
0.0230796
7.87265
6.44494
6.55591
7.72775
-0.0306745
0.0254497
0.0313472
-0.0645449
0.0208697
0.0293732
-0.00594037
-0.0199813
-0.0160826
0.0243819
-0.0146656
-0.0865993
0.00311086
0.0253982
7.87307
-0.0427727
-0.0614252
-0.0170658
-0.0106128
7.61078
0.00153369
0.00390239
0.0357774
0.00312111
0.0131176
7.63125
0.0237741
0.0128156
6.87898
0.0242575
-0.0111776
7.7217
-0.000942658
7.71315
7.61056
0.00280664
-0.0616821
-0.00633163
0.0148783
7.61474
0.0347847
-0.0387597
7.61493
0.0295881
0.0125939
0.0185118
-0.0126942
7.75288
-0.0324164
-0.0271568
0.010094
7.695
0.0460743
0.0205282
-0.00213656
0.0270202
0.0127762
7.901
7.45286
7.05918
0.0269657
7.18798
0.02878
0.0157627
0.0250896
7.83445
0.0214855
7.65521
7.87367
7.80831
0.0101333
-0.0125993
-0.20982
0.00331232
0.0347469
7.51622
6.88362
-0.0412307
-0.0458697
0.0367507
-0.166232
0.0250601
-0.402659
7.87593
5.73554