/*--------------------------------*- C++ -*----------------------------------*\
  =========                 |
  \\      /  F ield         | OpenFOAM: The Open Source CFD Toolbox
   \\    /   O peration     | Website:  https://openfoam.org
    \\  /    A nd           | Version:  10
     \\/     M anipulation  |
\*---------------------------------------------------------------------------*/
FoamFile
{
    format      ascii;
    class       surfaceScalarField;
    location    "22";
    object      phi;
}
// * * * * * * * * * * * * * * * * * * * * * * * * * * * * * * * * * * * * * //

dimensions      [0 3 -1 0 0 0 0];

internalField   nonuniform List<scalar> 
214403
(
-0.00340597
0.00261179
0.000144442
0.000649742
-0.00169389
-0.00570768
0.000484236
0.00691733
-0.00520237
3.48846e-05
-7.20083e-05
0.0052395
0.00448004
-0.00301256
-0.0075095
0.00604202
0.00623868
-0.00788623
0.00188004
-0.000232495
-0.00274947
0.00286342
-2.71931e-05
-8.67571e-05
-0.000432097
-0.000821987
-0.00468197
0.00593605
-0.00866623
0.00492693
-0.00129614
0.00503543
-0.0118097
0.0083359
0.00841611
-0.00494232
0.00722455
0.000856831
-0.00807245
-8.93041e-06
0.0025582
-0.00506567
0.00104107
0.0014664
-0.0052524
0.00165338
0.00272039
0.000878641
0.000242593
-0.00580681
0.00699174
-0.00142752
-0.00507199
0.00510617
-3.41753e-05
0.000973718
0.00606269
-0.00776822
0.000731804
-0.00614878
0.00514226
0.0015576
-0.000551088
-0.00618287
0.0060348
0.000148073
0.00199792
4.95732e-06
-0.000538557
-0.00146432
0.00795872
-0.00476393
-0.0105822
0.00738738
-3.84513e-05
-0.00157694
4.56539e-05
0.00156974
0.0032502
-0.00317329
-7.69034e-05
-0.00630131
-0.00218008
0.00216783
0.00631356
-0.00115956
0.00692206
-0.0055802
-0.000182298
0.00342462
0.000361221
0.00119636
-0.0049822
-0.00523168
-0.0024985
0.00676511
0.000965068
0.00464895
-0.00588788
3.65262e-05
0.00120241
0.00164314
-0.00143379
0.00537082
-0.00558017
0.0038808
0.00507501
-0.00611532
-0.00284048
0.00567453
-0.00355995
-0.000160909
-0.00195367
-0.00296967
0.00302681
-5.71377e-05
0.00124829
-0.00259011
0.00688639
-0.00554457
0.00719969
0.000340423
-0.00125695
-0.00628316
-0.00285169
-0.00292753
0.00299837
0.00278085
-0.000612991
-0.00345588
0.00306086
0.00100802
0.00226797
-0.0015948
-0.00480838
0.00413521
-0.000874741
0.00436365
-0.00157651
-0.0019124
0.00815123
-0.000189788
-0.00796145
-0.00351489
0.00685588
-0.003341
0.000632677
-0.0075131
0.00434942
0.002531
0.00125122
-0.000502789
0.0030592
-0.00380764
0.0029194
-3.1011e-05
-0.00288839
0.00520897
-0.000110706
0.000920498
-0.00601876
-0.00662127
0.000830189
0.00704231
0.000436797
0.000451192
0.00437919
-0.00526718
-0.00207681
-0.013657
0.0132301
0.00250371
0.00288013
0.000523074
0.000649208
-0.00405242
0.00214963
0.00163538
-0.00526008
0.00147507
0.00680703
0.00408036
-0.00746277
0.000615058
0.005761
-0.00116709
0.00091952
-0.00344078
-0.00202914
0.0045504
0.00157131
0.00241712
0.000718305
-0.00470673
0.000944642
-0.000708883
-0.00218901
0.00195325
0.00347966
-0.00629589
0.00438754
0.00604543
-0.0056916
-0.00195393
0.00160011
0.00538351
-0.000984336
-0.00436772
0.00592125
-0.00025128
-0.00130225
0.00450146
-0.00575571
6.44708e-05
0.00118979
-0.00423626
0.000280074
0.00676965
-0.00281346
-0.00780201
-0.00732666
0.00615467
0.00897401
-0.00416752
0.00419259
0.000825118
-0.000850193
0.000655152
-0.00532546
-0.00433414
-8.95795e-05
0.00225247
0.00217125
-0.00684526
0.00293615
0.00443288
-0.000523761
0.0079976
-0.00643974
0.000410592
-0.00196845
0.000367406
0.000134341
-0.00530749
0.00480574
0.000263135
-0.00145093
0.00716463
-0.00597684
-0.0176734
0.00182901
0.00194056
0.0139038
-0.001631
0.00480975
-0.00152776
-0.001651
0.00236844
-0.0012438
-0.00505883
0.00393419
0.000566173
0.00353007
-0.00448832
0.000392078
-9.11025e-05
0.00432243
0.00149989
-0.00573122
-0.000863451
-0.000138555
-0.00178129
0.0027833
-0.00456715
0.00499136
-0.000189505
-0.000234712
0.0001601
-0.00463693
-0.00321926
0.00285154
0.000865125
-0.000497401
-0.00861323
-0.000538537
0.00420114
0.00495062
-0.00261492
-0.00111405
0.00222506
0.00150391
0.0038195
-0.0128123
0.00177599
0.0072168
-0.0020084
0.00404253
-0.00220779
0.000173662
0.0029043
-0.00225346
0.000288929
-0.000939765
6.82662e-05
-0.00539993
0.00533166
1.56582e-05
0.00439173
-0.00440739
0.00388924
-0.000760497
0.000515224
-0.00364397
-0.00230003
0.0032806
0.0010882
-0.00206877
-0.00163202
0.00694374
-0.00166918
-0.00364255
0.00327739
-0.00558597
-0.000214256
0.00252283
0.00375414
0.00398504
-0.00773918
0.00553584
-0.00622231
0.00159467
-0.000908209
0.000532763
-0.000998241
0.00723143
-0.00676596
0.000209604
-0.00117394
0.00521727
-0.00425293
0.00123806
0.0108935
0.00313269
-0.0152643
-0.00951001
0.00836883
0.00542188
-0.0042807
0.000437912
0.00335505
-0.0045109
0.000717938
0.00445279
0.00494983
-0.00162328
-0.00777934
0.00824968
-0.00501244
-0.000164851
-0.00307239
0.000359206
-0.00105211
-0.00330303
0.00399594
-0.00334781
1.93787e-05
0.00332843
0.00501628
0.000173714
0.000345852
0.00623521
0.000528711
-0.00946662
0.0027027
-0.00499691
0.00110227
0.000888223
0.00300642
-0.00315421
0.000782023
0.00038759
0.0019846
0.000776424
0.000556963
-0.00658969
0.0052563
-0.00136011
-0.00791345
0.00504493
0.00422863
0.00315454
-0.00373034
-0.00243249
0.00300829
0.00511425
-5.63757e-05
-0.00511394
5.60655e-05
0.00392847
-0.00554136
-0.00193684
0.00354973
0.010153
-0.00307144
-0.00158193
-0.0054996
0.00574752
-6.91702e-06
-0.00529087
-0.000449731
-0.00288751
0.0034
0.00708382
-0.00759632
0.00619216
-0.00216785
-0.00595742
0.00193311
0.00113902
-0.00166207
0.00723566
-0.00671261
-0.00819946
0.00747682
0.00708085
-0.00635821
0.000369597
-0.00636966
0.00245828
0.00354178
0.00797272
-0.000422468
-0.0001622
-0.00738805
0.00558838
-0.00109078
0.00108051
-0.0055781
-0.00653515
-0.00593998
0.00703203
0.0054431
-0.00122822
0.00352698
0.000955534
-0.0032543
-0.00280054
0.000152571
0.00542908
-0.00278111
-0.000622056
0.00701546
-0.00653076
0.000137352
-0.00599762
0.0055695
0.00108464
-0.00065653
-0.00019932
-0.00349943
0.0083477
0.00111868
-0.00373147
-0.00272078
0.00533357
-0.00297118
3.96819e-05
0.0029315
0.000908731
0.00413343
-0.00382339
-0.00121877
0.0065716
-0.00378901
-0.00100784
-0.00177476
4.23667e-05
-0.00192082
0.00187845
-0.00371357
-0.000998881
0.00139128
0.00332117
0.000380937
0.00210184
-0.00471572
0.00223294
0.00798144
-0.000720576
0.00311994
-0.0103808
0.000578083
-0.000709947
-0.00973118
0.00986304
0.000632437
-0.00277574
-0.00369097
0.00583427
0.00023307
0.00506496
-0.000281755
2.05066e-05
-0.00296715
0.00294664
0.00619302
-0.00229177
-0.00278257
-0.00375737
0.00314157
-0.00309777
0.00680547
-0.00566506
-0.00068485
-0.000455559
0.00068477
-0.00323883
0.0014157
0.00113836
-0.00556669
-0.00168487
0.00113076
0.0061208
0.0046264
-0.00752354
0.00498837
-0.00209123
-0.000203855
0.00680111
-0.00681118
0.000213927
-2.20581e-05
0.00620191
-0.0061476
-3.22482e-05
-0.00866471
0.00691257
-0.00554704
0.00729918
0.00722517
-0.00698856
-0.000236609
-0.00659657
0.0088347
-0.00161741
-0.000620724
-0.00589347
0.00141684
-0.000443167
0.00491979
-0.00972927
0.000744201
0.00626525
0.00271983
0.00173419
-0.00236847
0.00131905
-0.00236749
0.00269206
0.00433171
-0.00465628
-0.00259803
-0.00116577
0.00148615
0.00227765
-0.00350125
0.00229163
-0.00442722
0.00563684
0.00105223
8.62814e-05
-0.00773508
-0.00344158
0.00343416
7.42128e-06
0.00379549
-0.00364904
-0.000146452
-0.00569966
-0.000373198
-0.00151571
0.00140874
-0.00750461
0.00873874
-0.00264288
0.00337551
0.00581013
-0.00738705
-0.00179859
0.00644641
-0.00700191
0.000187722
0.000367779
0.00344116
0.000896739
-0.00355851
-0.000779393
-0.00543579
-0.000299747
0.00714428
0.00311159
-0.00022546
-0.0037927
0.000906566
0.00350261
-0.00299878
0.00345424
-0.00395806
-0.00613736
0.00115312
0.00835975
-0.00207493
-0.0029111
0.00960696
-0.00462093
-0.002966
-0.00326247
0.000792676
0.000883753
0.0023421
-0.00619185
-0.00421063
-0.00037083
0.00676333
-0.00218187
0.000652107
0.0010333
0.00374167
-0.00542708
-0.00200573
0.00490975
-0.00290402
0.00158394
-0.00759125
0.00274483
0.00451792
0.00315837
-0.00679254
-0.006419
7.75176e-05
0.00799912
-0.00165765
0.00107635
0.00092049
0.00288079
-0.00487763
0.00431388
-0.00434511
3.12293e-05
0.00162446
-0.000613162
0.0054517
-0.006463
0.00568809
-0.00180195
0.00273429
-0.00662042
0.0104349
-0.00335063
0.00778436
-0.0148686
0.00172124
0.00319836
-0.00133213
-0.00358747
-0.00470078
0.0019316
0.00246798
0.000301199
0.00338728
-0.0025531
-6.94842e-05
-0.000764695
-0.00220551
-0.00280016
0.00815009
-0.00314441
-0.00377906
0.00490276
0.00195856
-0.00308226
0.00568582
-0.000310525
-0.00187269
-0.00889218
0.00587948
-0.000488557
-0.00846228
0.00780601
0.0036253
-0.00296903
0.00539731
-0.00608432
-0.000877829
0.00156484
0.00306429
-0.00552961
-0.00290256
-0.00314383
-0.00288678
0.00163072
0.00439989
-0.00449532
0.00139643
0.00443419
-0.00133529
0.00518779
-0.00493753
-0.00339602
0.00314577
3.13938e-05
-4.47894e-05
-0.00484791
0.00486131
0.000119367
-0.00429193
-0.000162396
0.00433496
-0.00122534
-0.00725449
0.00114088
-0.00420068
0.00377922
-0.000719417
-0.00287621
-0.00121317
-0.000405941
-9.81706e-05
0.00721962
0.000103101
-0.0172006
0.0120977
0.00874391
-0.00364103
-0.00508447
0.00034627
0.000186864
0.00455134
-0.00101057
0.0160816
-0.0189223
0.00385125
0.000799717
0.00123328
-0.00276853
0.000735532
-0.0108791
0.00585799
0.000757806
0.00426331
-0.000127247
-0.00723382
-0.00102845
0.00838952
-0.00301848
0.0108939
-0.00755459
-0.000320828
0.00488916
0.00710747
-0.0065673
-0.00542932
-0.00583171
0.00555871
0.00689946
-0.00662646
0.0022518
0.00314721
-0.00391978
-0.00147923
0.00225672
-0.00152296
-0.00360997
-0.0115772
-0.00045543
0.00946018
0.00257246
0.00338405
0.000517896
-0.00197035
0.00349725
0.00468123
-0.00432243
-0.00385604
-0.00578661
0.00129041
0.00564409
-0.0011479
0.000687476
0.00181502
0.00633221
-0.00673326
0.00665063
0.000642833
-0.000560202
0.00412904
0.00324169
-0.002925
-0.000115565
-0.000822913
0.00386348
-0.00444971
-0.00088713
0.00247277
-0.0085837
0.00364717
0.00246376
0.000259962
0.00461541
-0.00512217
0.000246799
-0.00178643
0.000345083
-0.0016607
0.00310205
0.00716295
-0.00512131
0.000215084
-0.00404677
-0.00316012
0.00425887
0.00294802
0.0152838
-0.0163539
0.00534547
-0.00427539
-0.00292332
0.00363255
0.00146306
-0.00217229
-0.00671615
0.00291883
0.00585638
-0.00205907
-0.00291372
0.00423468
0.00543805
-0.00675901
0.00817871
-0.00316881
-0.00541689
0.000406993
0.00014237
-0.00199205
0.00484692
-0.00299724
-0.000842953
0.000836369
-0.00641241
0.00586678
0.00190726
-0.00628232
-0.00149173
0.00736886
-0.00604385
-0.00162476
0.00155682
0.00230256
-0.00544094
0.00158156
-0.00301523
-0.00553097
0.00491684
0.00362936
-0.000922707
-0.00239683
-0.00072724
0.00300194
-0.00321052
0.00690844
-0.00669986
0.00073032
-0.00841928
0.00768896
0.00287879
-0.00376036
0.00243839
0.00154508
0.00089828
0.00126793
-0.00371129
-0.000147985
-0.00699632
0.00714431
-0.00379305
0.000503071
-0.00123093
0.00452091
-0.000456375
0.00528411
-0.00481652
-1.12183e-05
-0.00358979
-0.00190138
0.00207776
0.00341341
-0.00133746
-0.00317503
-0.00295475
-0.00433521
0.00361656
0.00367339
0.000155709
-0.00444792
0.00770659
-0.00316827
-0.000410048
-0.00412828
0.00406954
-0.000389956
-0.00296926
-0.000710318
-0.000655836
0.00574303
-0.00717179
0.0020846
0.00371571
0.000142153
0.00180899
-0.00566685
-0.000135792
-0.00305187
0.00147226
0.0017154
-0.00210686
0.00274158
0.00530242
-0.00593714
-0.00746914
-0.00194292
-0.00209556
0.00691728
-0.00637085
0.000149235
0.00199806
0.00422356
0.000613745
-0.00226026
-0.00403042
0.00567694
-0.00290726
-0.00567603
0.00143167
0.00715163
-0.00267782
-0.00297016
0.00309184
0.00255614
-0.00691533
0.00665554
0.00701416
-0.00675437
-0.000928178
-0.00162065
-0.00489496
0.00744379
-0.00668329
0.000690341
0.00680192
-0.000808962
-0.00116943
0.00314083
-0.0019714
-0.00271183
0.00501093
-0.0037743
0.0014752
-0.000116743
0.00905031
-0.00336014
-0.00557342
-0.00323707
-0.00156453
0.00650195
-0.00170035
0.00104902
-0.00274647
0.00622969
-0.00453224
0.000283627
0.00402206
-0.00070462
-2.41669e-05
-0.00664394
0.00664283
2.52734e-05
0.00751499
-0.00133072
-0.0109845
0.00480019
-0.00694284
-0.00068002
0.00866835
-0.00104548
-0.00377228
0.00569877
0.00046833
-0.00239482
0.00337591
-0.00333583
-4.00858e-05
-0.00403173
0.000389378
-0.0034802
0.00712255
-0.0058406
0.00804862
-0.00167839
-0.00052963
0.0036324
-0.00152315
-0.00437869
0.00226945
-0.00703645
0.00710164
-6.51849e-05
0.00577245
-0.00839736
0.00068172
0.00194319
-0.00656082
-0.00179494
0.0112204
-0.00286469
0.00483142
-0.000203419
-0.00101467
-0.00361333
-0.00273551
-0.00467584
0.0104133
-0.000496297
-0.00688101
0.00416679
0.0108782
-0.0121352
-0.00115307
0.00241013
0.00289633
0.00137932
-0.00319929
-0.00304029
0.00316797
-0.000127678
-0.00123933
0.00692268
-0.000438771
-0.00524458
-0.00151034
0.00179149
0.00603324
-0.00631439
0.00392478
0.00921622
-0.00539284
-0.00774817
0.0067086
-0.00804854
0.00255861
-0.00121867
0.00615061
8.46078e-05
-0.00623522
0.00011213
0.00599251
-0.00610464
0.00672554
-0.00814017
0.00718708
7.80175e-05
-6.30754e-05
0.00524082
-0.00525576
0.000134835
0.0095414
-0.00950895
-0.000167286
-0.000812682
-0.00241302
-0.004875
0.00810071
-0.00298289
-0.00178207
0.000598448
0.00564843
-0.00983972
0.00359284
-0.00479085
-0.00125626
0.00513649
0.000910625
-0.00562314
0.00620844
-0.00165938
0.00107408
0.000890438
0.00464222
-0.00157895
-0.0039537
-0.00228177
0.000577943
0.00384679
-0.00214296
-6.06104e-06
0.00171275
-0.00214335
0.000436663
-0.00240249
0.00586913
-0.00338125
-8.53943e-05
0.0017623
-0.0055544
-0.00324435
3.90617e-05
-0.00518092
0.00514185
-0.00190798
-0.00183014
0.000849713
0.00288842
0.00289992
-0.00167329
-0.00122663
0.00723473
-0.00718424
-0.00146638
0.00141589
-0.000658461
-0.00427388
0.00393982
0.000992529
-1.75479e-05
2.39518e-05
0.00385977
-0.00386617
0.00192161
-0.00157811
-0.00610982
0.00576632
0.00444385
-0.000114194
-0.00432966
-0.00653795
-0.00423105
0.00630765
0.00446135
0.00381133
0.00598116
-0.0102888
0.00362432
-0.00130355
0.00204003
-0.0043608
-0.00145096
0.00143301
-0.00797386
0.00799181
0.00226307
-0.00445697
-0.00433559
0.00652949
-0.000455963
-0.0010284
0.00485158
-0.00336721
0.00337944
-0.00415437
0.00150564
-0.000730712
0.00183292
-0.00303872
-0.00293703
0.00414282
-0.00595267
0.00670662
-0.0017889
0.00103495
0.00674288
0.00868779
-0.00956195
-0.00586872
-0.00524625
0.00522197
2.42771e-05
-0.000581741
0.00617293
-0.00772052
0.00212933
0.00023832
-0.000389438
-0.00593632
0.00608744
0.00586187
0.000246806
-0.00674479
0.000636113
-0.0024793
-0.00419045
0.00526963
0.00140012
-0.00598745
0.008484
-0.0030051
0.00050855
-0.0024947
-0.00304257
0.00180581
-0.000369202
-6.18038e-05
-0.00428013
0.00471114
-0.0139935
6.03403e-05
0.00125853
0.0126747
0.000555259
-0.00356849
-0.00184668
0.00485991
0.00871517
-0.00071661
-0.00282036
-0.00517819
-0.00156546
-0.00337053
0.000662102
0.00427389
0.00244675
-9.66143e-06
-0.00243708
0.00409381
0.00218148
-0.00135845
-0.00491684
0.00317323
-0.00251686
0.00626628
-0.00692266
0.000206788
0.00652554
-0.00215423
-0.00457811
0.00158117
0.00225427
0.00487973
-0.00314717
0.00021827
0.0029289
-0.00406719
0.000573602
0.00108089
0.000682626
-0.00563294
0.00386943
-0.00530228
0.0077589
0.00235042
0.00802033
-0.00170042
-0.00867032
-0.00509531
0.00500898
-0.00792337
0.00800969
-0.000771037
-0.00386302
0.00135142
0.00328264
-0.00424708
0.00800121
0.00237032
-0.0027596
0.000619011
-0.000229736
-0.00261153
-0.00834863
0.00261231
0.00834785
0.00549288
-0.00548235
-4.90743e-05
3.85478e-05
0.00443122
-0.00517456
0.00110256
-0.000359231
0.0011375
0.00444488
-0.00792376
0.00234138
1.96101e-05
0.00384528
-0.00386489
0.00247512
-0.00635133
0.00501372
-0.00239124
0.00642671
0.0054131
-0.00944857
0.00182863
-0.00186218
-0.00866435
0.00869789
-0.00260395
0.00431717
-0.0086652
0.00695199
-0.00623355
0.00496316
0.00650538
-0.00523499
-0.00391661
0.00536757
-0.00346794
0.00201698
-0.000817152
0.00355993
0.000578654
-0.00332143
0.00182251
-0.0026573
0.00274112
-0.00190633
0.00340498
0.00126786
0.00111964
-0.00579248
0.00975703
-0.00662937
-0.000397914
-0.00272975
-7.16515e-06
-0.00474489
0.00475205
0.00294997
-0.00432066
-0.0132447
0.0146153
-0.000594579
-0.00642281
-0.00194699
0.00896438
-0.000393764
-0.00297864
0.0033724
0.000903084
0.00427377
-0.000679324
-0.00449753
-0.00119911
-0.00432874
0.00349295
0.00203491
0.00331205
-0.00277334
-0.00487284
0.00849268
-0.00661214
0.00186552
0.00197607
-0.00384159
0.00640726
-0.000199068
-0.000779761
-0.00542844
-0.00122654
-0.00208598
0.00331252
0.00230555
0.0015321
0.0128042
-0.0153971
-0.00544173
0.00803466
0.00197994
0.0042181
-0.00322617
-0.00297188
-0.0044968
0.00859755
0.00571932
-0.00982007
0.00505622
0.00175451
-0.000677007
-0.00613372
0.00840475
-0.00560438
0.00361713
-0.00641749
-0.00469983
0.00214696
-0.00588929
0.00844216
-0.00762999
0.0136764
-0.00535842
-0.000688024
-0.00020054
-0.0032872
-0.00452316
0.0080109
0.0062142
0.00256531
-0.00728894
-0.00149057
0.00331456
-0.00883463
0.00557414
-5.40656e-05
-0.00782693
-0.000296791
0.00512142
0.00300231
-0.00157179
0.0040582
0.00176422
-0.00425063
-0.00099701
0.00399784
0.00321464
-0.00621546
-0.00814279
0.00418732
-0.000398766
0.00435423
0.000753784
-0.00223295
0.00442663
-0.00294746
0.00344494
-0.00172876
0.00122918
-0.00294536
0.00335511
0.00064585
0.000325961
-0.00432692
-0.004975
0.00533853
0.00197627
-0.0023398
-0.00117068
0.00627541
0.000127164
-0.0052319
0.00505376
-0.00296606
-0.00195948
-0.000128219
0.00441046
3.50841e-05
-0.00444554
0.00321494
0.0024894
-0.000564403
-0.00513994
0.00149646
0.00395297
0.00338372
-0.00883315
-8.34811e-06
-0.0071018
0.00711015
-0.00370224
0.01434
-0.00209159
-0.00854619
-7.14224e-05
0.00535666
-0.00528524
-0.000357933
-0.003863
0.000694867
0.00352607
-0.00696012
0.00354808
0.00269115
0.000720891
0.00141826
0.00118011
-0.00813585
0.00553749
0.0041721
0.00659036
-0.00246319
-0.00829927
0.00627296
-0.00214492
-0.00600445
0.0018764
-0.00782985
0.00446297
0.0119436
-0.00857671
-1.96479e-05
0.00298372
-0.00298349
1.94264e-05
-0.00308955
0.00305744
3.21109e-05
-0.00797258
0.000122902
0.00335288
0.000887906
0.00192064
0.0052584
-0.00806694
0.00417739
-0.00496797
0.00320362
-0.00241304
-0.00396198
0.00347037
-0.000130947
0.000622558
-0.00083331
-0.00653253
0.00836483
-0.000998986
-0.0029086
0.00140029
0.00460621
-0.00309789
0.00506997
-0.00195545
0.000750202
-0.00386472
-0.00339343
-0.000592543
0.00397415
1.18234e-05
-0.000575474
-3.08275e-05
0.00546577
-0.00485947
0.000703876
-0.000590253
0.00551891
-0.00563254
-0.00496194
0.00692897
-0.00725792
0.00529088
2.58643e-05
-0.00625936
0.00623349
-0.0022221
0.000196602
0.00560301
-0.00357752
-0.00428629
0.00501105
-0.00683397
0.00610922
-0.00439666
0.000335
0.00134088
-0.00202368
0.00549137
0.000306282
-0.00377397
-0.00146893
0.000205746
-0.00249418
-0.00215923
-0.00701965
0.00705094
0.00212793
-0.00312788
-0.000365349
-0.000787845
0.00428108
-0.0107028
0.00361399
0.00105356
0.00603526
-0.00341755
0.0077804
-0.00384785
-0.000515005
0.00238398
0.000930106
-0.00478302
0.00468469
0.0047779
-0.00946259
0.000629638
0.0102417
-0.00237865
-0.00849265
-0.000128723
-0.000181737
-0.00448982
0.00480028
-0.0049121
0.0080918
-0.00326282
8.31146e-05
0.00466626
-0.0029472
-0.00422953
0.00251047
0.00115825
-0.000155399
0.00141766
0.00717167
0.00200175
-0.0103869
0.00121351
-0.00497147
-0.000649005
0.00162942
0.00399105
0.00189273
-0.00209181
-0.00284349
0.00862913
-0.00580561
0.00451307
-0.00733659
-0.000957913
0.00557597
-0.00964327
0.00502521
0.00335997
-0.00424377
-0.000431054
0.00131485
-0.0037248
-0.00129761
-0.0001257
0.00514811
-0.00277615
-0.00262448
0.00540062
0.000693012
-0.00741591
0.00658066
0.000142235
0.00285511
-0.00275442
-0.00287683
-0.00466782
0.00592301
-0.00112536
-0.000129832
0.00666714
0.00183639
-0.0071869
-0.00131663
-0.00257397
-0.00377507
-0.000435278
0.00678431
0.00419064
-0.00127613
0.00485783
-0.00777234
-0.00470227
-0.000259668
-0.00564615
0.00302168
0.000726864
-0.00633024
0.00202557
0.0035778
0.00183017
-0.00655452
0.00360919
0.00111516
0.000983969
0.000255077
-0.00492773
0.00368869
0.000755805
0.00323351
-0.000216323
0.0054964
-0.00108596
-0.00419412
-0.00216027
-0.000217405
-0.00201383
0.0043915
-0.00127487
-0.00171675
0.00328267
-0.00029105
-0.00515565
-7.60348e-05
-0.00870848
0.00312712
0.00458436
0.0123244
-0.000101308
0.00167633
-0.0138995
-0.00539579
0.00838128
0.0017015
-0.004687
-0.00154045
0.000844402
0.00531428
-0.00461824
0.00064659
0.00183706
-0.00142054
-0.00106311
-0.00927412
-0.00191983
0.00799902
0.00319492
0.00020117
0.0038916
-0.00078072
0.00011854
0.0019708
-0.00618675
0.00409742
-0.0038482
-1.39222e-05
0.00141853
0.0024436
-0.00521791
0.00644881
-0.00102972
0.00295145
-0.00266135
-0.000290099
-0.00437372
0.000628762
-0.00339293
0.00713789
-0.00196619
0.00296023
-0.00228152
0.00128747
-0.00422694
0.00475991
-0.00196667
0.00143371
0.00191333
-0.000315841
-0.00456125
0.00296376
-0.0018891
0.0118457
-0.015944
-0.00174357
-0.00121659
0.00119092
0.00176925
0.00566643
-0.00884237
-0.000402609
0.00357855
-0.00240635
0.00179588
0.0030943
-0.00248383
-0.000710026
0.00379668
-0.00104898
-0.00203767
-0.00427652
0.00094916
0.00099884
0.00232851
-0.00236163
0.000203345
0.00215828
0.00550909
-0.0026225
-0.0027973
-8.92829e-05
0.000397964
0.00271618
-0.00412261
0.00100847
-0.00295096
-0.00357933
0.00364944
0.00288085
-0.00151541
0.00391196
-0.00335425
0.000957707
0.00142267
-0.00269365
0.00185633
-0.000585354
0.00513714
0.000135566
-0.00527271
0.0044165
-0.00543485
0.00268916
-0.0016708
-0.00693981
-0.000195207
0.00713502
0.00286745
-0.00237745
0.00055481
-0.00104481
-0.000221433
0.00492023
-0.00537281
0.000674021
-0.00247891
0.00310281
0.000798772
-0.00271672
0.00582207
0.00537865
-0.00468162
0.00464234
3.92733e-05
9.73406e-05
-0.00742759
0.00733025
0.00994788
0.0012008
-0.00211693
-0.00903174
0.00208118
-0.00811221
-0.00100706
0.00703808
0.00158412
0.00188055
0.00105301
-0.00451768
-0.00279008
-0.00278943
3.87083e-05
0.0055408
-0.00133234
0.00182619
-0.00328393
-0.00615027
0.00110857
0.00807319
-0.00303149
-0.0120825
0.00885135
0.00389133
-0.000660199
0.00535475
4.47681e-05
-0.00539952
-0.00301294
-0.00405495
0.00262305
0.00444483
-0.00304551
-0.00442678
0.00132202
-0.00439298
0.00238839
0.00276039
0.00177265
-0.00232499
-0.00421587
0.00476821
-0.00301627
2.95742e-06
0.00301332
-0.00700937
0.00283305
0.00288144
0.00129489
0.00177199
-0.00473769
-0.00142728
0.00600611
-0.00190334
-0.000151646
-0.00395113
-0.00402307
0.00666713
0.00395581
-0.00659986
-0.00117327
-0.00246672
0.000898708
0.00274128
-0.00171104
-0.00137717
0.00308821
-0.00297447
-0.00624615
-0.00286187
0.00138307
1.8896e-05
0.00279107
-0.00419303
0.00570319
-0.00414984
-0.00601047
0.00445712
-0.00211466
0.000753756
0.00427396
-0.00291305
0.00403832
-0.00284321
-0.000400543
-0.000794568
-0.00463399
0.000751816
0.00362023
0.000261945
-0.00288587
0.00661379
-0.0071374
0.00278232
0.000206706
0.00414837
0.00667566
-0.00532666
-0.00419763
0.00284863
-0.0052952
0.00110235
0.00989604
-0.00516647
-0.00340594
0.00556086
0.00301155
-0.000606883
0.00539278
-0.00204439
-0.00274151
0.000303412
-0.00315782
-0.00207994
0.00493434
0.00613104
-0.00404489
-0.000248113
-0.00183804
0.00188381
0.00140729
-0.00462345
-0.00128976
0.00146108
0.00360018
-0.0037715
-0.00106336
0.00556029
-0.00685428
0.00235734
-0.003313
0.000798686
0.00080244
0.00171187
-0.00732306
0.00744471
-0.000121643
0.00505029
-0.00497634
-7.39505e-05
0.0020242
-0.00781487
-0.00300092
0.00879159
0.00179609
0.00341542
0.000794598
-8.70971e-05
0.00300707
-0.00291997
0.00478889
0.00429402
-0.0090829
-0.00533716
0.00325869
0.00230255
-0.000224074
-0.00299725
0.000987739
0.00243699
-0.000427471
-0.00890021
0.0041558
0.00487278
-0.000128369
-0.0029106
-0.00324173
0.00313606
0.00458237
-0.000721794
-0.00295343
-0.000907151
-0.0049748
0.00536823
-0.0032793
0.00085938
-0.00548146
-0.000280351
0.00490243
-6.20571e-06
-0.00269738
0.00270358
0.0133111
0.000108099
0.00141573
-0.0148349
-0.000496982
-0.000972721
-0.00717118
0.00864088
0.00231987
-0.00314192
-0.00146633
0.00228838
0.00089136
0.0069029
-0.00278097
-0.0050133
0.00753385
-0.00753828
-1.76378e-05
2.20632e-05
-0.00421498
-0.00380101
0.00594167
0.00207432
0.00246755
0.00189451
-0.00492139
0.000559334
3.34102e-05
0.00456026
-0.00466059
6.69193e-05
-0.00630219
0.00201664
0.00510675
-0.0008212
0.00485604
0.0029372
-0.00491653
-0.00287671
0.000112044
-0.00429361
0.00217895
-0.00112745
0.00648235
-0.00349387
-0.000454982
-0.000545201
0.00449405
-0.00581228
0.000319136
0.00549315
0.00848768
0.00367341
-0.0027556
-0.00940548
-0.00554555
0.000116713
0.00554088
-0.000511333
-0.00133285
-0.0033992
0.00524339
-0.00069402
-0.000659064
-0.00178192
0.00313501
0.00139935
-0.00709059
0.00534616
0.000345072
0.00441633
-0.00068791
-0.00429708
0.00056866
-0.00546938
0.00115017
0.000452199
0.003867
-0.00207347
0.0013537
-0.00278593
0.00350571
0.00119388
0.000769434
-0.00705702
0.00509371
0.000245337
-0.0047689
-0.000331533
0.0048551
0.00473923
0.000619402
-8.0809e-05
-0.00527782
-0.00563681
0.00131157
0.00510167
-0.00406206
-0.0053963
0.00945836
0.007827
-0.00399117
0.00167667
-0.0055125
0.000613097
0.00440654
-0.00269977
-0.00631587
0.00117335
0.00222634
0.00291618
0.00779841
-0.0080314
0.000232987
-0.00468586
-0.00159322
0.00328098
0.00299809
-0.00611423
-0.00475071
0.00318529
0.00767965
0.00641425
-0.00669828
-0.000819784
0.00110381
-0.00093388
0.00311106
-0.00245053
0.000273348
-0.00796524
0.00259981
0.00182911
0.00353631
-0.0117495
0.0146385
0.0024147
-0.00530369
0.00524402
-0.0113747
-0.000569714
0.00670044
-0.00467071
0.00591931
-0.0109667
0.00971807
-0.00491683
0.0108509
0.00107383
-0.00700794
0.000431303
0.00511857
-0.00119665
-0.00435322
0.00780209
-0.00585467
-0.000194976
-0.00175245
-0.00137405
-0.00132031
0.00201716
0.000677202
-0.00370331
-0.00768857
0.00654973
0.00484215
-0.00523562
0.00697891
0.0060588
0.00421426
-0.00309869
-0.00385957
0.002744
0.00157787
-0.00204091
-0.000901646
0.00136469
0.00349862
-0.00346134
-0.00460568
0.0045684
-0.00141524
0.00405932
-0.000293515
-0.00235057
-0.00560106
-0.000893622
0.00692599
-0.00424321
-0.00104298
0.00524554
4.06498e-05
0.00171633
-0.00383444
0.00211812
0.00137602
-0.0018264
0.00681204
-0.00636166
0.00532752
-0.00748853
0.00108368
0.00107734
0.00338272
-0.00364934
0.000266621
-0.005378
0.000142385
0.00481344
-0.0018322
-0.00464313
0.00166189
0.00151224
0.00122689
0.00537132
-0.00811044
0.00329763
-0.00357999
0.000282364
-4.04615e-05
0.00419452
-0.00474194
0.000587882
-0.00589175
-0.00056681
0.00783458
-0.00255831
-0.000437424
0.000591374
0.00240436
0.00035342
-0.00291835
0.00215176
0.000413178
0.00478316
-0.00458033
-0.00113671
0.000545894
0.00786823
-0.00495586
-0.00345826
-0.00270934
0.00573913
-0.00302978
-0.00731498
0.00279994
-0.0017176
0.00623264
0.00574858
-0.00520479
-0.00850902
-0.00278938
-0.00334133
0.0114769
-0.00534616
-0.00823165
0.00524446
0.00747736
-0.00449018
-0.000180984
-0.00703972
0.00722071
0.0111364
2.18865e-05
-0.00641561
-0.0047427
0.00647814
-0.00417626
-0.000577905
-0.00172398
-0.00471599
0.00335041
-0.000851051
0.00221663
6.41633e-05
-0.00485114
0.00478698
-0.00356646
0.00367127
-0.000104806
-0.00257076
-0.00271386
-0.0069553
0.0122399
-0.00655842
0.0014317
-0.000729681
0.0058564
0.00151303
0.00245509
0.00674889
-0.00609282
-0.00503568
0.00437961
-0.00187167
-0.00386064
0.0042587
0.00147361
-0.00388291
-0.00197402
0.00586288
-5.94959e-06
0.00127209
-0.000732291
-0.00360365
0.00306385
0.00428389
0.000190711
-0.00547676
0.00100216
0.00132223
-0.000921246
0.00141153
-0.00170398
0.00169811
-0.00140566
0.00349974
0.00342882
-0.00350053
-0.00342803
0.00172792
0.00403986
-0.0041761
-0.00159168
0.00367711
0.00159351
-0.00288664
0.00452467
-0.0054871
0.00115315
-0.00601335
0.00420384
0.0022632
-0.000453687
0.00718177
-0.00237382
-0.0075173
-0.00191459
0.00510034
0.00256283
0.00497428
-0.00242363
-0.00419113
-0.00114108
-0.000681138
-0.00669465
0.00625978
0.000591203
-0.000156335
-0.000415694
0.00837293
-0.000867561
-0.00708968
-0.00546728
0.00111535
0.00243734
-0.00087723
-0.00556519
0.00156314
0.00487928
0.00499998
0.000696204
-1.74977e-05
-0.00567868
-0.00747004
-6.00329e-05
5.06441e-05
0.00747943
-0.0019095
0.00209655
-0.00339096
0.0032039
-0.00515025
0.00650929
-0.000669074
-0.00068997
0.00677495
-0.00632203
-0.00560316
-0.00499498
0.00450837
-0.00142955
0.00191616
0.00406038
-0.000183101
-0.00127591
-0.00260137
-0.00758233
0.00731418
0.00358118
-0.00331303
0.00356505
0.00135798
-0.000453147
-0.00446989
0.0013009
0.00329701
-0.00412325
-0.000474655
-0.00244445
0.00245887
-1.44155e-05
-0.00142769
-0.00364432
0.00365677
0.00548453
-0.00543482
-4.97097e-05
-0.00310564
-0.00246357
0.00242729
-0.000318386
-0.00372831
-0.000405626
0.00445232
-0.000418916
-0.00322062
0.00288103
0.000758499
0.00511533
-0.0058175
0.000702172
-0.00650781
0.00667199
0.00611865
-0.00628284
-0.00436942
0.00337408
-0.00229621
0.00329155
-0.00173809
0.00074262
0.00157376
-0.000578292
-0.00018227
0.00789289
-6.91906e-05
-0.00764143
-0.00396735
0.00192343
0.00195434
0.00226971
0.00288911
-0.00504071
-0.000118102
0.000218914
-0.00626928
-0.000245525
-0.00571933
0.0057174
1.92454e-06
-0.0038256
0.00192665
-0.00421529
0.00130321
-0.00288377
0.000114232
0.00249066
0.00108131
0.00379518
7.41532e-05
-0.00324611
-0.000623217
0.00317798
-0.00793066
0.00635841
-0.00160573
0.00130813
-0.00178279
0.0066292
-0.00615455
0.00810618
0.00239791
-0.00124641
-0.00925768
-0.002077
-0.00341098
-0.00110668
0.00659466
0.0024602
0.0102419
-0.00924912
-0.00345297
0.00117887
0.00742845
-0.00717255
-0.00143477
-0.00256978
0.000338904
0.00526772
-0.00303684
-0.000896047
0.00728579
-0.00392955
0.00527507
-0.00416378
-0.00162693
0.000515651
0.00173412
0.0045402
-0.00627432
0.00424614
0.000942849
-0.000565879
-0.00462311
-0.00391217
0.00312723
0.000314434
0.000470505
-0.000374973
-0.00551335
0.000322733
0.00556559
-0.00404063
-0.000513725
-0.000167154
0.00472151
0.00233727
-0.00518678
5.09121e-05
0.00203862
0.00309725
4.63513e-05