/*--------------------------------*- C++ -*----------------------------------*\
  =========                 |
  \\      /  F ield         | OpenFOAM: The Open Source CFD Toolbox
   \\    /   O peration     | Website:  https://openfoam.org
    \\  /    A nd           | Version:  10
     \\/     M anipulation  |
\*---------------------------------------------------------------------------*/
FoamFile
{
    format      ascii;
    class       volScalarField;
    location    "22";
    object      SgT;
}
// * * * * * * * * * * * * * * * * * * * * * * * * * * * * * * * * * * * * * //

dimensions      [1 -1 -3 -1 0 0 0];

internalField   nonuniform List<scalar> 
111485
(
5.15455e-15
0.00772908
0.0242777
1.43904e-16
0.0489562
1.9301e-16
0.0464383
0.00616599
0.0190497
0.00124589
0.0468076
0.00946433
0.00481664
0.000796928
0.00649937
0.0302554
0.00143533
2.62296
0.0103423
1.1827e-14
4.93558e-15
1.1359e-15
0.0269153
0.0345544
0.00872272
6.53022e-15
0.0393631
0.00177946
0.0153013
2.0893e-15
0.0446248
0.0195868
1.23899e-14
3.81883e-15
0.00634896
2.45101e-14
0.0106234
0.00421782
3.8486e-08
0.0241957
6.55255e-16
0.0708172
0.0158599
0.00156205
6.35573e-05
4.16318e-15
0.0294752
0.000711398
0.0474387
2.71076e-15
8.71719e-15
1.66592e-14
1.59117e-14
0.0514084
2.06294e-14
0.0437561
0.0030385
1.09484e-14
2.01043e-05
0.0048019
0.0160691
6.57943e-14
0.00480704
0.09818
3.6177e-15
0.00311632
0.315829
0.0943973
0.00111353
0.00616211
1.9082e-05
0.00665499
8.64377e-15
0.00291227
2.55721e-14
0.000716863
8.50944e-15
0.0411439
1.12805e-15
1.11857e-14
1.13364e-06
0.0338579
2.96338e-15
3.19351e-15
0.00938056
0.00381385
3.33445e-10
0.0253787
6.02471e-05
0.00743862
0.000260687
0.0403042
0.0119506
5.78981e-05
0.0521413
2.84601e-15
1.14443e-15
0.00182083
3.11109e-08
0.00112417
3.03517e-14
0.0176978
1.40471e-14
0.0180291
0.00458404
8.99112e-15
2.3246e-15
0.00758815
0.00418845
5.51035e-08
0.00552226
0.00474919
0.00379942
0.0032636
1.8568e-14
3.40966e-05
6.09308e-15
5.9726e-15
0.0128786
3.46669e-15
5.57665e-15
3.59558e-15
9.87407e-15
2.75763e-15
0.00152816
2.99269e-06
2.47102e-15
0.00171875
1.21819e-15
2.30787e-05
0.00151792
0.0328288
2.73077e-15
3.35576e-14
4.05427e-14
0.0482887
7.53218e-15
0.0425366
0.0254089
0.0027115
0.000251385
0.00199962
0.0225245
0.00262108
0.00406301
0.0130638
3.69379e-15
1.29432e-15
8.2276e-15
0.0281356
0.00153124
3.28941e-15
2.37761e-07
0.00469309
4.2657e-07
0.010946
0.0161174
0.0108267
5.90961e-08
1.39646e-15
1.32777e-15
0.0523568
0.0225269
1.65834e-06
3.05907e-07
0.00585304
0.00339249
5.00293e-15
4.02776e-06
4.30273e-05
4.46861e-16
2.55716e-15
0.000122741
2.02445e-15
0.00548713
0.0020665
5.09678e-16
8.49735e-15
1.73115e-15
9.76479e-16
1.83401e-14
1.04688e-15
0.0015172
0.00677541
0.029912
0.00412143
0.00769295
0.00403501
7.75175e-05
6.28654e-14
0.00485907
1.84996e-14
9.88366e-16
0.0065462
0.0103721
0.0287104
0.0114642
0.00503504
2.5143e-15
0.00678701
0.000500019
4.10604e-05
0.0144313
0.00233657
6.79015e-15
0.00384501
0.0249981
9.53561e-14
0.00015883
0.00791294
0.00199908
0.000370201
3.65327e-14
1.20542e-15
0.00833878
1.04693e-11
0.119411
1.19584e-15
0.00668959
0.020587
0.119126
4.92858e-16
0.00329342
0.013713
2.11595e-13
2.97796e-15
3.19e-16
0.15034
2.38083e-07
4.84298e-15
1.85193e-14
0.00944852
0.0078197
0.0149413
5.08439e-15
1.03431e-14
1.31903e-05
8.6799e-16
0.00236993
0.00956893
0.0166529
0.0116459
0.00965972
4.36303e-15
2.4207e-07
0.000630918
9.74236e-15
6.58574e-15
0.030962
0.0205706
2.70071e-14
0.00655266
0.0107764
1.0729e-15
4.00683e-14
0.000112889
3.75802e-15
2.26691e-14
4.48667e-05
1.02911e-14
0.0147784
0.0106387
0.00368227
1.44593e-15
0.0118193
2.84879e-16
1.73937e-14
1.06419e-14
1.76491e-08
0.0230237
0.00616434
0.00550723
0.0362511
0.0123799
0.00155806
0.00056441
0.0322513
0.00872839
1.10862e-15
3.09307e-15
2.34073e-07
0.0226941
0.0245531
0.0118002
2.47151e-16
0.00700463
0.0020261
0.00303438
1.98245e-06
3.55041e-06
0.0138508
0.00218469
0.00197576
2.19869e-14
0.000645334
6.73874e-15
2.08466e-07
4.96447e-13
0.234596
0.0678817
0.0117903
2.04384e-15
5.55456e-15
0.00898509
0.00171782
2.62499e-15
1.51156e-14
7.0658e-15
0.000295186
0.0569316
0.00401525
0.0132905
0.0192267
7.77497e-15
4.73607e-15
4.23732e-15
0.00377473
2.02466e-12
0.000864641
0.184333
2.87827e-07
4.56241e-16
5.62505e-16
5.66729e-15
7.8533e-15
0.0601146
0.011824
6.2838e-15
0.00528357
5.81371e-16
3.56007e-14
0.0670841
0.00597995
0.0114449
0.00932625
5.65636e-15
3.32955e-14
2.89147e-15
0.00949715
0.0187426
0.00487052
5.64222e-16
3.33325e-10
0.000155626
0.00229662
0.00805516
3.26423e-05
0.0284576
1.11405e-15
0.0375118
0.00357577
0.00774218
0.0257268
0.0131735
4.37073e-14
3.93662e-14
2.46099e-14
1.02591e-14
0.0311403
0.00978977
0.0326513
0.0673195
1.30021e-15
0.0183113
1.79624e-15
5.51904e-14
0.0167018
2.51225e-14
0.0808252
2.28269e-15
2.77119e-16
0.0228239
3.21789e-16
0.0135167
0.000284806
5.82479e-17
0.000974754
0.0166295
7.1666e-16
0.00893483
0.00900876
0.00818355
0.000701965
0.00267099
0.00547203
4.24851e-16
4.60242e-14
0.00200552
1.62051e-14
0.00630996
0.11778
1.67559e-15
1.3076e-14
0.0276673
0.000109461
0.00829283
0.0204588
1.85268e-14
0.0477147
0.0188735
4.00632e-16
0.000840892
0.00236297
1.05922e-15
1.42905e-14
0.0109241
0.00518493
2.44877e-14
1.68905e-16
3.93289e-08
2.29745e-15
0.0124758
3.29134e-15
2.82123e-15
0.0167252
1.56045e-06
0.0123087
0.0298923
5.99908e-16
5.9419e-14
0.00153289
6.14761e-15
0.000164482
0.0145573
0.121765
0.830557
1.52354e-14
0.00276105
0.000547281
8.84302e-15
0.0389448
0.0309146
1.03738e-14
7.03942e-09
8.65574e-05
1.41296e-14
0.0237419
0.0239648
0.0138772
5.80807e-15
0.000662313
0.0167378
0.0228081
8.24374e-07
7.19135e-15
6.84484e-10
1.78905e-15
1.14438e-05
0.0312077
6.42079e-16
0.00818616
0.000101774
6.25487e-14
8.25033e-16
1.17428e-14
7.0769e-16
0.00371911
0.00957872
0.0063065
0.00203782
0.00258299
2.90997e-14
0.0019476
7.30437e-14
0.0411271
1.11277e-16
1.81248e-15
6.60096e-15
0.0374276
1.71372e-14
7.78937e-15
1.43582e-07
3.54325e-15
4.79272e-14
0.00106846
4.87242e-15
7.71793e-15
1.14078e-14
3.3093e-15
4.23027e-15
4.57228e-14
7.60334e-15
0.00681446
3.00195e-15
0.000538978
0.00197488
0.00083337
6.67862e-16
0.000903129
1.12071e-14
6.84589e-15
0.0027333
0.00175746
0.0267857
0.0250859
1.92435e-15
0.00203831
0.0822276
0.00851298
0.00101055
0.00320024
4.27907e-14
0.0232502
1.81974e-14
0.0050243
8.80199e-15
0.0763041
1.1708e-15
0.0211617
0.000246538
5.01251e-07
2.83835e-14
0.00202166
3.63731e-15
0.080046
0.048893
8.63719e-15
9.34343e-15
7.05315e-15
5.37739e-15
1.35883e-09
0.0546981
1.34776e-16
1.47678e-14
0.00241778
3.15603e-15
0.0339543
3.92823e-15
0.000312138
5.84302e-15
0.000467859
1.17825e-06
0.000983671
0.0127509
5.4949e-14
0.000417729
6.99838e-16
7.79727e-15
0.0147516
4.27231e-15
2.86346e-05
1.67464e-14
0.00164013
8.53659e-15
0.0644739
3.29042e-15
1.7667e-14
0.017614
0.00320512
0.00173935
0.00385319
0.00686829
0.0206871
8.0662e-15
0.0253861
0.00595512
2.92289e-15
7.48898e-08
0.0412279
0.0154293
3.26479e-15
0.00369137
0.00689986
0.00179816
0.000977459
1.99192e-10
0.0136922
0.00122897
0.000120076
0.0229143
0.013731
0.000575096
1.13429e-14
3.00741e-09
0.649748
1.07945e-14
0.000345449
4.45379e-15
1.36693e-14
0.00731298
0.00264964
2.33238e-07
1.77945e-05
6.80006e-15
0.015953
0.0110315
1.53477e-16
2.04225e-10
0.00130293
8.25046e-15
2.08986e-15
2.16387e-15
2.79466e-15
0.0126669
4.09074e-15
9.06386e-15
0.00848134
0.00191053
1.04253e-13
0.0105316
6.96057e-15
0.00846832
4.15599e-15
1.06124e-14
0.051811
7.68908e-16
2.997e-16
3.49247e-15
0.00419787
4.11424e-14
0.0280994
0.00624636
1.38615e-15
0.0900588
0.00232862
0.0286814
0.0281353
0.000422363
7.35612e-05
6.33688e-16
0.0538724
0.0466286
7.14199e-15
0.000319514
0.0406123
0.00803338
0.00138791
0.0275711
0.0260757
2.40505e-14
0.0109303
6.74317e-06
1.45772e-14
0.0348248
0.000249415
1.03972e-13
0.0108758
0.0406753
0.00131134
0.0215284
0.0196486
0.00720215
6.09173e-15
0.0104295
0.000301315
4.22748e-12
0.0171251
0.0179446
0.0357417
5.20343e-16
0.00184064
2.23944e-15
4.47563e-15
7.80576e-15
2.05006e-15
1.32324e-05
6.7736e-15
3.18954e-10
6.14751e-15
9.97138e-16
8.15467e-05
0.0427036
6.20679e-15
0.0304937
6.31748e-14
1.26662e-14
1.18846e-14
0.0385574
0.000392709
6.53259e-15
8.5121e-15
3.71769e-17
1.82422e-15
0.205901
0.0696945
7.45281e-16
0.00200205
1.81869e-06
1.40407e-15
0.0373582
0.00856646
0.0114677
3.58827e-15
2.00524e-15
0.000411755
0.00107011
1.13025e-14
2.91765e-15
1.76168e-15
0.00722792
4.91681e-15
2.48362e-15
2.98994e-14
0.0420906
0.00212932
1.56345e-15
3.84343
0.368393
0.00968337
2.17318e-15
9.54259e-15
0.0550817
0.000429487
1.93467e-14
4.85054e-06
0.109405
0.00237933
0.0112184
3.04252e-15
0.0520969
0.00191323
1.61095e-15
1.64722e-14
4.26777e-16
2.80676e-15
4.9965e-15
2.38114e-15
0.0223694
2.52555e-14
3.84779e-15
2.28346e-15
0.011313
0.0235752
1.78503e-15
2.15444e-15
0.105561
0.0143286
0.00988359
1.03833e-14
3.45425e-15
0.0371612
2.61844e-15
0.00169485
0.00263545
0.0039634
3.65676e-15
2.38216e-15
1.17356e-14
1.19886e-15
0.0146151
2.11322e-15
6.64084e-15
0.00105889
3.54752e-15
0.023241
0.00192215
5.10994e-15
0.0368621
0.341626
0.00253245
0.0289917
0.000139785
0.0434777
7.17368e-11
9.78098e-15
0.0236624
0.0676732
0.00599275
3.0014e-15
4.7828e-10
0.78313
0.010015
2.3853e-15
0.00241707
0.00241618
0.00113011
2.59439e-14
4.32441e-15
1.02924e-15
0.0134678
1.62246e-14
0.00271709
2.97762e-16
0.00119243
0.00142688
0.0367091
0.000569216
1.27707e-15
2.32284e-15
9.87031e-16
0.0204969
3.69538e-15
2.82947e-15
7.47916e-05
7.39832e-15
4.0884e-15
2.53306e-14
3.05984e-15
0.0101348
3.94233e-15
2.35045e-15
4.44942e-10
4.00649e-16
8.5748e-15
2.30797e-13
1.00701e-14
2.91967e-06
0.00161526
1.33311e-15
0.00404635
6.2345e-06
2.90129e-07
5.76872e-05
0.00395981
2.54717e-14
9.33741e-06
0.0101109
0.000396892
4.03302e-15
6.01515e-09
0.000855577
8.92892e-15
0.00993516
0.000187444
1.60119e-06
0.0229731
0.00944119
0.00224229
0.00484822
0.00197592
1.17635e-14
1.29941e-15
0.0329725
0.026467
9.06392e-15
0.00842111
0.0540227
0.0283956
7.49147e-15
0.00124921
2.85469e-15
0.0101756
0.0139521
4.8407e-15
0.0015855
0.000446561
1.18066e-06
0.00495504
1.11773e-15
0.0486315
1.47375e-05
0.00140731
2.93623e-05
1.20402e-05
3.14117e-15
1.15879e-14
0.00684551
3.70479e-15
0.000124043
0.000242385
0.000301471
5.94614e-08
7.07043e-08
1.87549e-07
6.16649e-16
5.59854e-15
0.0226486
5.85869e-15
0.000182645
0.00196485
3.63539e-14
6.01683e-15
6.6663e-07
9.1782e-10
1.29804e-15
5.18922e-06
8.77066e-15
1.44803e-15
1.04205e-14
2.36174e-14
6.21553e-14
1.91219e-14
0.000270204
1.83956e-15
4.34637e-15
2.61012e-14
6.53524e-06
4.83414e-05
0.00169013
0.0091868
1.67264e-15
1.03877e-15
0.000156205
1.9928e-15
1.03936e-15
1.45353e-14
0.0184306
0.0420803
1.23067e-15
2.03592e-15
1.05325e-15
3.91343e-15
2.2998e-15
5.87757e-15
0.00665221
5.47993e-16
5.42142e-08
0.0263374
3.06888e-15
3.82348e-15
1.86106e-15
2.91188e-05
6.8166e-15
1.62896e-15
5.97599e-16
9.7282e-06
1.97937e-14
0.00415164
8.87455e-07
6.23372e-09
1.67886e-15
7.67815e-05
0.00187752
0.0439821
6.57127e-15
8.51208e-06
0.00537171
2.28885e-15
3.03386e-16
2.86049e-13
2.71571e-16
0.00819196
0.00162877
0.00316112
1.81733e-07
1.11717e-15
0.0229608
1.7983e-15
2.74235e-15
1.40827e-13
3.46045e-15
0.0264404
6.32614e-15
3.5915e-14
1.5507e-06
0.0520197
2.5028e-14
0.00231738
9.72672e-16
0.000770302
9.23859e-15
1.65656e-14
1.39986e-14
3.58516e-15
0.00246817
0.00058143
0.302821
1.5754e-15
2.60555e-15
0.00208324
3.59203e-15
1.7854e-15
4.09341e-15
0.0359596
9.91272e-06
0.0318795
8.37943e-16
1.12313e-05
5.14732e-05
7.31473e-15
0.000133414
5.6052e-16
0.00118594
0.0245235
0.0202404
0.00113208
0.000221529
4.71473e-15
3.22779e-16
1.28664e-15
2.28595e-05
1.6823e-15
0.00761492
2.73755e-15
0.17409
1.69258e-15
0.0409934
0.00294165
2.54916e-15
1.72429e-16
1.92722e-15
4.68668e-15
0.0418457
4.42095e-14
5.70475e-14
0.01166
0.00685113
6.60673e-15
7.01436e-15
3.97535e-14
3.80853e-15
1.65029e-14
1.91416e-15
0.025928
0.000392892
8.42108e-15
7.88404e-16
5.5767e-07
5.02707e-14
0.00153979
0.000102525
6.9949e-16
0.00354314
7.08329e-15
0.000387159
2.66002e-15
0.00110846
2.02614e-15
6.66384e-08
2.16533e-06
0.000607866
0.0184126
0.0345256
1.15165e-06
3.76323e-16
0.00056558
1.28268e-15
0.00465116
4.63839e-15
6.35506e-15
2.29749e-14
1.76718e-14
1.93223e-14
1.03173e-14
0.0073023
0.00823793
4.03632e-15
4.24336e-15
1.03416e-14
0.000803855
1.23023e-05
3.27024e-15
0.0180006
0.000168146
3.08517e-14
0.0234746
0.00810884
0.00372271
0.0110026
3.17192e-15
8.24912e-15
1.58699e-15
6.61543e-15
0.0369635
1.47725e-14
0.114723
4.85914e-15
0.000324229
0.000727136
4.95534e-15
0.000988477
3.52004e-16
2.6739e-14
0.00310518
2.20575e-08
0.00965842
7.62309e-16
2.2934e-14
2.31704e-15
0.00084453
7.95587e-16
3.48357e-15
7.05006e-16
2.71064e-07
6.99236e-15
6.28641e-06
8.33687e-15
3.16775e-15
1.05577e-15
0.0183363
0.00978506
0.0182559
0.0358945
1.13143e-15
1.6323e-05
1.25924e-15
3.1281e-15
0.00955206
8.67146e-16
2.0907e-06
0.000362176
0.00672956
0.00037944
1.06503e-09
0.00185605
2.94292e-15
1.36675e-09
3.31381e-10
0.000129655
0.000760836
0.015275
6.61277e-08
4.01032e-14
0.030019
5.4716e-15
5.39442e-16
1.20457e-05
0.0748942
5.19123e-08
7.04318e-15
1.87105e-14
3.03658e-07
5.70233e-15
9.98116e-15
1.86352e-05
8.11637e-14
2.28962e-14
0.0398604
0.000238337
0.000188103
0.0223887
0.00721618
1.70886e-16
4.40725e-15
2.5821e-05
0.0040432
2.61572e-15
4.23476e-14
0.00958281
2.08313e-16
6.07765e-14
2.87864e-15
7.43461e-15
2.28699e-13
2.56733
1.33671e-14
0.000218691
2.35913e-15
0.0217173
7.72803e-16
1.00453e-12
4.15663e-15
1.74494e-15
1.11136e-14
3.32817e-15
0.00279722
9.77902e-16
7.71853e-15
8.81309e-15
5.18684e-15
1.32469e-14
5.44741e-15
0.0097119
3.40576e-16
0.0109091
0.00316065
1.51389e-15
0.00151842
7.86531e-16
0.00051441
2.08658e-06
0.00382412
0.0128905
5.6121e-15
9.28823e-05
0.0075502
1.03812e-05
1.67571e-14
3.1967e-06
0.019214
0.00465681
6.27585e-16
0.0257293
1.83962e-16
8.0546e-15
4.82753e-15
5.20691e-16
0.00806599
9.65602e-15
1.17874e-15
0.00829457
4.09001e-07
0.00263596
4.00109e-15
7.79398e-14
0.000648072
3.81289e-15
6.02971e-05
2.10721e-14
0.023445
3.70188e-15
1.79973e-15
5.31388e-05
2.16882e-16
0.000139855
1.26107e-14
2.18901e-15
0.00466866
0.000447182
0.00468082
0.0151048
0.217823
0.0202733
4.84331e-15
9.42442e-15
0.00302774
0.00671041
0.0368904
0.0102758
1.31594e-14
0.0125139
2.41133e-15
8.69804e-16
0.00926197
0.0111662
2.41479e-15
0.0133074
2.13109e-15
0.00272773
0.00898457
2.31479e-14
1.56942e-15
1.23399e-15
0.00286615
8.38764e-15
3.16921e-16
0.00423312
0.0215959
3.58658e-06
0.00734037
1.79102e-15
1.38374e-14
8.94296e-05
0.000790929
3.52247e-16
0.0102422
1.01703e-14
0.00255192
7.67781e-15
2.607e-15
0.0122699
9.19687e-15
3.58311e-05
0.00367655
6.85627e-17
4.76956e-15
0.00445324
5.46891e-11
0.0518613
8.07923e-15
0.24911
2.32024e-14
1.47915e-14
1.3591e-14
0.00753943
1.43965e-14
4.71302e-15
0.00559072
2.78966e-15
0.000255924
5.15246e-15
3.00921e-15
1.29202e-15
9.67725e-08
0.000784876
1.05668e-14
7.54766e-15
0.0346904
0.000945741
1.14125e-15
0.0004049
1.50975e-14
5.654e-15
1.74576e-06
0.00287501
0.00131093
7.32554e-15
1.43206e-16
2.03587e-15
2.16699e-15
1.07308e-13
2.43204e-14
7.78472e-15
1.19054e-15
9.6969e-16
3.78927e-14
8.38167e-15
3.88772e-15
3.10224e-14
1.81419e-15
2.24992e-15
1.07511e-15
7.2843e-15
1.79282e-15
3.00041e-15
1.44526e-15
3.72072e-15
0.0169668
1.20119e-14
1.23259e-15
1.7949e-15
0.00663086
1.51668e-14
4.68943e-15
0.297783
2.77685e-15
1.45516e-15
0.0228804
4.67563e-12
8.33688e-16
0.00801929
0.0244158
3.95997e-15
0.00290976
0.00431722
1.84376e-15
0.0134727
0.0391569
0.0177425
0.00337096
0.0106262
1.82015e-14
4.21961e-16
0.00300355
0.0105008
0.00322101
2.22524e-15
0.00679201
0.00179343
0.021403
0.00995608
0.000698504
0.0155751
0.00100457
0.0102886
2.63816e-15
0.0240794
0.00841814
0.00162482
0.0014321
5.02195e-15
4.32382e-15
2.93852e-15
6.50717e-15
6.08458e-15
0.00912773
0.0134745
2.11548e-15
2.6233e-15
3.16012e-14
4.88544e-16
3.21258e-15
4.00485e-15
2.58707e-15
1.92597e-14
0.00467015
0.000209351
0.0216707
7.27231e-05
1.35298e-16
2.01068e-14
0.0298792
7.53945e-06
3.72428e-15
1.44567e-15
0.00709916
5.22124e-15
2.78515e-16
2.33128e-06
0.00771156
0.0134986
0.0333319
0.0343986
1.53772e-15
0.0138937
0.000344761
1.32872e-14
4.20393e-16
0.0118736
7.64086e-16
3.08408e-16
0.0154605
1.04376
0.00017209
7.03271e-16
1.63094e-15
0.0169841
0.0196348
0.0178234
0.00555805
0.00440297
3.95538e-15
1.0638e-06
2.65547e-09
6.26625e-15
2.45806e-14
0.0168025
2.11961e-16
0.00197614
0.0246447
0.0174612
0.0110223
2.83516e-15
0.005942
1.75886e-14
2.10528e-15
6.39922e-15
3.24834e-16
0.00244883
0.883535
1.81911e-15
3.19556e-15
4.31796e-06
0.0229344
0.00121048
0.00681458
0.0321691
0.00467836
0.0203263
3.8823e-15
1.07781e-14
1.12534e-14
0.0289551
0.00553258
3.0231e-08
1.15204e-14
7.45951e-15
2.99512e-13
0.0217549
0.00261181
2.40571e-15
0.00481185
0.0573611
0.00623299
0.00609499
5.5387e-15
2.37437e-13
0.00675767
0.022274
5.27168e-16
0.000347793
0.014707
0.000963723
0.00903789
0.00462009
0.00774746
1.33622e-13
0.00319652
0.0205222
0.0350643
4.19538e-10
0.022008
5.16661e-13
0.0159365
0.000150042
9.36574e-16
0.00247169
0.00742777
0.000407598
0.0113065
4.14526e-07
0.000122759
1.37166e-05
0.0416757
0.00360375
3.24532e-15
0.0370446
0.00126463
6.28824e-15
1.0064e-16
4.24149e-08
1.40518e-05
0.0010376
1.05789
0.0344852
0.0120328
1.8717e-07
0.0443616
5.34161e-15
5.11257e-15
0.00378993
7.76145e-15
0.00196341
0.00378684
0.0021408
0.00450144
8.53579e-16
0.000185967
0.104175
2.09041e-15
0.0135534
0.00736233
1.38309e-14
0.00387174
0.000128049
1.19902e-15
6.49382e-09
8.20317e-05
3.33969e-15
3.75121e-15
9.33122e-15
0.00414786
0.00480357
0.0135689
8.58167e-15
0.00458599
0.0317462
1.94264e-16
0.00776336
0.0120086
0.0229679
0.00147126
7.89423e-16
0.000502829
0.00885291
0.0100742
0.00877391
0.0354541
0.157126
0.00314132
2.04347e-14
7.35084e-06
0.0476248
3.90966e-16
0.000405061
4.45539e-16
1.6124e-15
1.91325e-14
3.62959e-15
1.54176e-15
0.00313047
2.95498e-15
0.0068969
0.00108822
1.85424e-14
0.00361536
3.06972e-15
0.0132928
1.61452e-15
2.62061e-05
9.35946e-15
0.0207214
0.000153479
2.41635e-06
0.00408677
0.0271455
0.0158065
0.00374973
0.0260627
6.44092e-12
0.0222371
0.0519468
0.00940497
3.91425e-15
0.00102049
0.000233071
0.00540513
0.00969811
0.000585433
5.11841e-15
3.94926e-14
4.22722e-15
0.00334882
2.88981e-15
0.000340246
0.000203662
0.00170277
0.00024652
2.18776e-16
7.69973e-14
3.52103e-15
0.00836258
0.0202879
0.00112859
9.14934e-06
0.0017683
0.00661242
0.00173991
0.000788721
0.00626938
0.00595232
0.00258652
5.62934e-16
2.63426e-15
1.292e-15
0.0122346
0.0103158
5.74246e-16
4.76543e-15
7.88827e-15
0.00811885
0.0173448
2.28188e-15
0.0021457
5.31016e-15
5.86045e-07
0.00439243
0.0859563
2.54849e-15
8.82237e-16
0.00345428
1.4336e-14
5.55116e-05
0.0114285
2.88737e-15
0.0103308
0.0310295
0.0181919
5.11444e-17
0.00146972
7.11788e-15
8.87962e-05
0.0461015
1.34088e-14
2.12919e-14
0.0101155
2.85259e-13
6.29066e-15
4.17179e-05
0.000902351
2.94845e-14
3.5963e-16
2.3131e-14
7.15815e-05
0.00119101
0.00297439
0.0244126
0.00813625
5.02248e-15
6.86765e-07
0.000686635
2.95566e-14
1.68588e-16
4.83345e-15
5.64781e-15
1.50126e-14
2.61851e-14
1.29354e-14
1.10691e-15
2.34122e-14
3.48909e-16
2.49342e-09
6.94524e-15
0.00031255
7.00873e-14
0.00024813
5.77774e-14
9.67569e-05
2.71357e-14
6.47453e-15
0.0271538
0.00851901
1.55158e-14
0.0815342
9.72211e-09
6.19055e-10
1.4457e-16
0.0011447
1.53e-11
0.00261842
6.03439e-06
0.00078992
8.78381e-15
1.05962e-15
0.00115315
2.04978e-08
1.47793e-15
8.80691e-15
0.0365812
8.08326e-16
0.03505
1.14e-14
7.54519e-15
1.70585e-06
0.0263848
0.00734971
6.84358e-15
0.000300571
3.667e-15
0.00343167
1.84928e-05
0.00164728
4.71951e-06
6.31042e-15
0.01918
0.00115119
0.00493974
6.23372e-15
2.45789e-15
1.18128e-15
0.0195887
0.00358388
0.0497762
6.60094e-15
4.63744e-07
3.30464e-16
4.43341e-15
2.89614e-15
1.53917e-15
0.00318775
0.00210715
0.00290436
0.298351
5.47751e-15
0.0251648
0.0338591
0.0159317
0.00164845
8.6668e-15
0.00486578
0.00439965
0.005685
2.76418e-07
0.00946782
6.5248e-15
0.00139822
0.00123089
0.0307733
1.04511e-06
0.00329124
1.1587e-14
0.0173887
5.58191e-15
1.00119e-14
0.00156497
1.01766e-14
0.00561782
9.76097e-15
5.73731e-15
1.90727e-14
7.34774e-16
1.76825e-14
0.000793235
2.38501e-15
0.000502047
2.83021e-15
2.5441e-15
0.0164882
0.00499655
0.00750543
0.00685474
1.84675e-14
0.548744
1.99428e-15
0.0642416
1.88426e-14
0.0163171
0.0229097
0.00224892
0.0526387
4.02733e-14
2.44338e-13
1.53562e-15
0.00203225
2.80586e-15
1.78606e-15
0.0165808
2.98271e-16
1.2379e-15
0.00520447
2.1537e-14
0.0116095
6.27698e-08
1.15908e-14
1.10433e-14
4.52539e-14
0.00143161
0.00636509
3.3773e-15
0.0217227
0.000336927
3.04432e-14
0.0948802
1.04485e-14
0.0145657
0.0169492
0.00354598
4.05909e-15
0.0169476
0.00960715
0.000856881
0.00514047
0.0116655
2.07903e-14
4.37394e-14
1.75883e-06
1.84987e-15
2.78823e-15
8.55781e-16
0.0185177
0.0462894
0.00429776
0.00208441
1.32704e-14
0.0474662
0.0432372
0.00397742
0.00216742
0.00885831
0.0196672
0.00262109
4.54793e-15
7.58903e-16
7.1282e-15
0.00688235
2.32136e-15
0.0233969
3.82538e-14
0.000731063
5.62335e-07
0.00247558
0.0207366
4.68969e-16
2.75937e-15
0.00244231
0.000367704
5.80152e-14
1.29305e-14
1.66543e-15
3.71026e-05
0.000292753
0.000143974
0.000802596
0.0096909
0.0817439
4.92303e-15
5.10705e-15
2.05786e-15
0.00360923
0.0164932
0.0189574
0.0330892
0.00163587
0.00291828
3.30394e-15
3.57296e-14
1.36007e-13
6.66344e-16
0.00876785
0.0211446
3.65677e-16
1.26339e-14
4.19864e-15
5.24076e-15
6.472e-15
4.2477e-14
0.0132475
8.85292e-15
0.000893993
0.40533
7.02199e-15
1.28173e-05
0.021703
0.000725934
1.34334e-14
8.64235e-15
0.00489712
1.34938e-14
0.0139048
9.07283e-07
0.0234058
6.87495e-14
2.34687e-12
2.23608e-15
3.90412e-15
2.85508e-15
1.00619e-13
0.186975
3.27229e-15
0.00585066
0.00119794
7.27195e-14
5.22118e-14
0.00197563
5.9821e-15
1.15485e-14
0.010661
0.000139775
4.68316e-16
3.32309e-15
2.35229e-14
0.016247
3.03923e-15
8.94489e-15
0.000450877
0.00260663
0.0030827
1.40898e-15
1.91222e-14
4.3411e-15
0.00374033
0.00183989
0.0125346
0.00362523
3.00919e-15
0.000754215
0.0110853
0.00623101
1.75252e-15
5.9118e-14
3.53878e-14
3.85577e-15
8.54558e-15
0.0296601
0.00488312
0.00574404
1.43027e-15
1.71852e-14
7.64043e-15
3.82912e-15
1.16058e-15
1.02487e-06
0.000212723
0.00209436
3.75685e-16
4.36652e-15
6.46571e-15
2.02923e-09
0.0338418
0.111868
1.2232e-16
9.1418e-10
2.79403e-11
1.88956e-15
2.51012e-14
0.00367487
0.00616563
4.61124e-15
9.13299e-15
0.00277521
3.4611e-14
0.000669722
0.000997964
2.00295
2.19847e-15
1.65907e-15
0.0113605
0.000529365
2.06961e-15
0.635641
0.00058163
0.00598257
4.91801e-16
1.12299e-14
1.10757e-14
8.45481e-15
0.00819069
8.77034e-05
3.67419e-15
0.0243997
0.0184431
0.826597
3.23649e-15
2.29047e-15
1.38454e-15
1.16987e-15
0.00654198
8.04654e-08
4.94317e-15
5.48417e-14
0.0179566
0.000786758
0.00458412
3.39421e-17
3.14961e-14
0.0276738
4.54478e-14
9.51767e-15
4.62172e-15
5.67787e-15
0.0204041
1.5154e-14
7.44019e-16
5.56019e-15
0.0246907
0.0114745
8.66258e-16
1.59814e-14
1.3529e-14
0.014683
1.93568e-07
2.54684e-14
7.3696e-15
4.25481e-15
3.72027e-15
0.00231959
0.0108456
5.47203e-16
0.00191056
0.00107438
0.00474595
1.3808e-15
1.04937e-14
8.4859e-15
3.71311e-15
1.90701e-16
0.0182596
9.4392e-15
0.0136942
1.90869e-15
0.00151332
2.23057e-13
0.00238765
5.91872e-15
2.14817e-14
0.00983309
0.153952
1.04272e-14
0.00354682
9.09766e-15
0.000377328
1.85255e-14
5.931e-15
6.6797e-15
5.37816e-08
6.63523e-15
0.000289738
5.17439e-15
0.0337804
1.28675e-14
1.31259e-14
1.3061e-14
1.06209e-15
7.42801e-06
0.000131445
6.88126e-15
0.00552471
6.19741e-15
0.00262701
0.017355
0.00127157
9.60488e-16
4.75472e-06
0.000443098
2.18332e-06
0.00406361
2.96079e-07
0.00165943
3.22127e-15
3.82211e-16
4.12069e-07
0.00552373
0.000239349
3.37171e-14
2.19165e-15
9.15055e-15
0.561775
8.46384e-15
9.65505e-16
4.9153e-15
1.02525e-14
5.45292e-15
2.92074e-05
0.000180831
0.000976583
6.65767e-05
1.38934e-12
0.00140691
4.42024e-15
0.00520841
5.39881e-15
1.38614e-15
1.71974e-14
2.57534e-14
1.38291e-05
5.44553e-15
1.11983e-15
3.99548e-15
0.0136697
6.35735e-15
1.46094e-14
0.0100047
2.81216e-15
0.0747353
0.121075
0.545698
1.02951e-14
0.193342
1.07927
1.05551
0.608221
7.36516e-15
2.06061e-15
0.00456563
0.00429571
1.29282e-15
0.0100814
3.51264e-15
0.0300539
5.65071e-15
1.7601e-15
0.00069834
2.19121e-15
4.51594e-15
1.0327e-05
3.87626e-05
8.21554e-15
6.0758e-16
2.81073e-06
1.56681e-14
2.11512e-14
1.75383e-05
0.0077999
0.00146842
1.7867e-14
0.00753055
8.51731e-16
0.00327699
4.19612e-07
0.0070236
7.60045e-15
1.53631e-08
0.00544692
1.37812e-14
1.59316e-09
1.33247e-15
0.029861
2.97633e-15
0.0088299
6.61184e-16
2.36435e-07
7.12801e-15
9.43809e-15
3.90517e-15
8.39534e-10
4.98391e-10
4.77946e-16
0.0111356
0.00867017
6.21955e-16
7.4509e-15
0.0301586
0.0158655
0.172536
3.27392e-15
6.68338e-05
0.0232016
0.0425709
5.60528e-08
3.23066e-15
0.053064
2.98853e-15
0.211762
2.48712e-15
4.20764e-08
3.72972e-08
8.11418e-15
5.59994e-05
5.64944e-15
0.0192477
5.63151e-15
8.75805e-16
3.23229e-15
1.95474e-14
7.61669e-16
1.453e-14
0.000253515
0.00185418
0.124745
1.84065e-14
3.3732e-14
0.0380249
7.2616e-15
1.75917e-16
4.74434e-15
1.04493e-15
1.28064e-15
0.00548856
1.9741e-15
4.05865e-14
5.45292e-16
0.00304348
5.50067e-15
1.08916e-14
1.06399e-14
0.00305304
3.74253e-15
0.00564473
0.217654
0.00508984
0.00523279
0.0246264
4.91603e-15
7.62066e-15
3.55189e-15
0.00295871
0.00159913
3.76853e-16
3.43429e-14
0.000564926
2.12874e-14
1.23487e-14
0.309709
5.17738e-15
0.0198786
3.21094e-15
0.00217088
0.00294042
1.07024e-14
5.91319e-16
2.43752e-15
3.38793e-14
2.50448e-15
0.0164487
1.32874e-14
0.00433995
6.84563e-16
1.71548e-15
0.0064071
1.73215e-14
0.0115511
3.60991e-14
1.95117e-15
0.00214535
6.58824e-05
0.12931
2.3026e-14
1.07893e-14
1.18194e-15
0.00312744
0.163872
3.58267e-15
5.19823e-15
7.96721e-15
0.00137734
7.89675e-16
0.0177264
0.0284667
3.96185e-14
6.31948e-16
0.00665811
1.26942e-14
2.67735e-14
1.85471e-15
3.68606e-15
2.07332e-15
0.0630048
1.16466e-13
4.87553e-15
5.10181e-15
1.02094e-13
1.14407e-15
5.57147e-14
7.37081e-16
2.22479e-15
5.81965e-15
0.00689641
1.23708e-14
0.00794203
7.48471e-14
1.39977e-15
0.531538
0.00253005
1.81818e-14
3.24011e-14
1.59706e-15
0.00223401
3.22223e-15
1.47154e-15
2.83387e-14
1.8023e-15
0.00682717
2.2555e-15
0.00434146
1.73571e-15
0.00871417
3.36131e-14
0.051828
4.41412e-14
7.77252e-15
0.0199095
6.12111e-14
3.38196e-16
0.0243451
0.000246004
4.41792e-15
1.41061e-15
0.0325701
0.00907229
0.00596337
0.000773592
0.00167295
0.0159098
0.00094631
0.00429428
6.62719e-15
0.0265554
7.31919e-15
2.06406e-14
4.41029e-15
2.07933e-14
2.57798e-14
0.00961564
3.05163e-15
1.67907e-16
2.18217e-15
4.33505e-06
7.52071e-06
5.03339e-14
0.00208063
4.43151e-14
0.00395337
1.10572e-14
1.2148e-06
0.00292282
2.26874e-13
0.0414718
1.08646e-15
1.73442e-14
1.25647e-14
0.00272827
0.00113639
5.29896e-15
1.75904e-14
0.00228261
7.69685e-15
0.608944
7.69787e-15
0.0935702
2.16778e-14
4.64297e-16
2.98119e-14
1.58853e-16
0.00915684
9.62297e-15
3.36139e-05
1.9293e-15
0.00892277
1.02554e-15
1.6154e-15
4.84815e-12
6.12468e-14
7.29214e-15
1.11412e-14
9.93976e-16
3.42716e-14
0.00381319
0.169979
2.90835e-14
1.21029e-14
0.000324992
2.47133e-15
2.88106e-15
1.02538e-06
0.0156423
0.000136339
8.86852e-15
0.000622644
0.0029725
0.00490521
0.00756141
3.76682e-15
1.632e-14
6.66304e-15
5.43104e-15
9.14875e-16
6.50025e-15
9.93082e-15
1.40337e-14
6.35871e-15
1.50409e-14
8.74421e-15
2.10595e-15
0.0686313
1.32544e-15
7.8515e-16
3.53664e-10
1.47305e-14
2.95899e-15
1.01002
1.72251e-15
2.27832e-16
0.00188344
2.39395e-09
2.23847e-15
1.97652e-15
1.97084e-15
0.0209762
1.01731e-15
3.97251e-14
4.9099e-08
3.87754e-16
2.95533e-15
5.96718e-17
8.89651e-15
0.10999
8.51872e-15
0.000148245
2.99218e-16
5.37136e-14
1.17729e-15
3.30135e-15
4.97253e-15
1.55247e-08
2.93024e-08
0.000101468
1.88437e-15
1.56026e-15
5.7338e-16
8.5162e-08
3.87093e-15
2.7785e-07
8.72741e-09
1.67164e-14
1.92718e-15
1.75387e-14
4.55664e-09
1.91957e-14
1.95878e-15
2.17705e-09
1.32128e-14
0.0288662
6.54959e-15
0.00670908
4.86578e-16
2.14562e-06
3.90404e-15
0.0013027
6.85282e-15
0.00374436
0.0243437
2.69186e-15
0.00233415
1.36006e-05
4.49795e-15
0.0101828
2.90545e-16
5.72989e-15
7.28211e-15
1.31906e-15
1.40031e-14
2.30069e-15
4.78096e-15
3.05443e-15
0.267809
2.71445e-15
4.09895e-15
3.4544e-16
7.24831e-16
2.92768e-15
0.0299603
0.766431
3.01797e-06
9.77054e-06
1.79345e-15
0.00198433
0.00138552
4.64744e-15
1.14378e-15
3.92794e-15
1.81032e-15
5.3087e-15
1.63387e-15
1.9377e-14
1.73787e-15
0.0003654
1.13233e-14
8.90943e-15
0.000230425
3.68138e-06
2.6864e-14
0.0242173
5.6371e-15
1.56703e-15
9.32638e-15
0.16157
2.11437e-14
8.42236e-16
0.0250033
1.13838e-15
1.05313e-14
3.95479e-16
7.47247e-15
0.0531209
2.82799e-15
1.91789e-15
3.0496e-15
5.66315e-16
0.00562332
0.22508
0.0277841
0.0417121
0.00370928
0.00025028
5.61873e-15
1.57901e-15
0.138356
0.00122842
3.39969e-15
8.99266e-08
1.46876e-15
6.98358e-11
8.39555e-15
0.20554
6.82864e-15
1.93687e-15
0.000226687
2.20628e-10
4.15774e-15
0.00956595
3.54059e-15
6.27107e-15
0.197752
0.0298282
5.89198e-15
4.86216e-15
4.51589e-15
5.28456e-15
1.30986e-15
4.29759e-14
3.61337e-14
4.95086e-16
0.00307017
5.32471e-15
4.19561e-15
6.27652e-15
1.38297e-05
1.2921e-14
1.26422e-13
8.9302e-15
7.3358e-15
3.11344e-16
5.53964e-15
0.00334267
2.42337e-15
1.24979e-15
0.00498362
3.18023e-14
0.000358677
0.00447616
6.32276e-15
0.00340899
1.9566e-14
9.25624e-16
5.37359e-15
3.21998e-14
2.55304e-14
4.67578e-16
1.1032e-14
2.06948e-16
0.00234117
5.30507e-14
5.30374e-15
2.41518e-14
6.01763e-16
1.70007e-14
6.9343e-15
0.0355613
6.82043e-15
2.49479e-15
0.337619
4.98973e-16
3.1095e-15
8.37446e-16
0.00125205
1.31078e-16
5.9772e-06
6.73833e-16
4.91059e-05
0.00794019
4.3027e-15
5.46178e-15
0.0403087
2.18464e-14
4.20502e-15
0.00012687
7.16784e-07
0.0098362
2.28667e-06
9.02498e-07
1.36229e-07
1.62466e-15
1.82696e-15
0.00101667
0.000120191
0.0158114
0.012072
2.86229e-05
4.48258e-15
0.0054889
0.0051918
0.0185055
1.4535e-14
0.0122728
0.0166482
0.00275403
0.00138567
0.00124877
0.00323644
0.0189776
0.0407978
0.00710093
0.0110573
0.00797513
1.27384e-13
0.00290176
0.00363202
0.000852288
0.00256027
0.014181
0.0137436
0.0193811
2.13273e-14
0.0114348
2.13275e-14
0.0050667
0.00283841
0.000270956