/*--------------------------------*- C++ -*----------------------------------*\
  =========                 |
  \\      /  F ield         | OpenFOAM: The Open Source CFD Toolbox
   \\    /   O peration     | Website:  https://openfoam.org
    \\  /    A nd           | Version:  10
     \\/     M anipulation  |
\*---------------------------------------------------------------------------*/
FoamFile
{
    format      ascii;
    class       volScalarField;
    location    "22";
    object      T;
}
// * * * * * * * * * * * * * * * * * * * * * * * * * * * * * * * * * * * * * //

dimensions      [0 0 0 1 0 0 0];

internalField   nonuniform List<scalar> 
111485
(
303.15
285.07
300.945
303.15
298.379
283.15
298.884
293.347
296.25
286.202
300.481
296.142
300.165
284.542
299.942
286.706
299.307
297.092
293.981
303.15
303.15
283.15
297.196
288.642
301.573
303.15
293.115
300.605
288.804
303.15
300.77
294.287
303.15
283.15
283.44
283.15
302.303
297.543
283.149
296.568
283.15
289.54
296.992
302.868
303.193
303.15
287.3
288.502
289.576
303.15
303.15
283.15
303.15
298.87
303.15
293.44
287.839
283.15
283.316
295.399
295.8
303.15
302.036
300.185
283.15
284.537
300.058
291.454
302.086
302.508
303.157
301.864
303.15
302.087
303.15
295.333
283.15
293.357
283.15
283.15
283.234
293.31
283.15
303.15
300.267
284.2
283.15
301.525
303.113
299.05
283.324
289.512
300.82
300.366
289.742
303.15
303.15
301.525
303.149
283.413
303.15
286.583
283.15
285.145
285.698
283.15
283.15
293.021
301.404
283.147
298.843
288.001
301.25
301.654
303.15
301.947
303.15
283.15
300.101
303.15
303.15
283.15
283.15
283.15
283.39
303.151
283.15
301.778
303.15
283.175
303.099
301.911
303.15
283.15
283.15
292.45
283.15
294.139
298.761
301.076
303.135
296.78
298.944
284.745
302.264
297.734
283.15
303.15
283.15
297.091
284.905
303.15
303.144
287.256
283.156
293.658
295.583
302.512
283.154
303.15
303.15
292.114
286.192
283.153
283.157
301.148
283.68
283.15
283.152
283.152
283.15
303.15
283.206
283.15
291.477
287.12
283.15
303.15
303.15
283.15
303.15
303.15
297.604
293.425
295.717
289.689
301.333
300.376
283.19
303.15
301.412
303.15
303.15
300.111
286.229
301.367
301.311
295.662
303.15
300.835
284.569
283.159
300.715
297.022
303.15
300.369
288.139
303.15
283.223
300.13
284.782
300.649
303.15
303.15
300.663
283.15
292.713
283.15
300.568
298.617
290.273
303.15
301.713
300.523
283.15
283.15
283.15
289.459
283.157
283.15
303.15
298.569
291.293
289.844
283.15
303.15
303.108
303.15
284.31
300.038
299.193
299.451
299.322
283.15
283.144
298.814
283.15
283.15
288.711
288.303
283.15
301.132
298.827
303.15
283.15
301.054
303.15
303.15
303.122
303.15
288.206
285.823
290.703
303.15
298.282
303.15
303.15
303.15
283.148
297.99
300.942
299.374
291.151
299.426
296.192
283.21
290.25
291.493
283.15
303.15
283.149
292.382
298.719
286.413
303.15
297.959
297.228
298.832
302.954
283.167
297.04
299.308
302.015
283.15
283.604
283.15
283.149
303.15
283.849
290.217
286.25
303.15
283.15
297.545
285.221
303.15
303.15
303.15
284.556
290.171
301.019
284.389
292.953
283.15
283.15
303.15
298.31
303.15
283.805
289.392
283.153
283.15
303.15
303.15
283.15
294.287
289.899
283.15
295.636
283.15
303.15
300.981
297.237
293.932
295.745
283.15
283.15
283.15
296.542
290.929
302.374
283.15
283.15
283.15
290.01
296.894
283.211
290.407
283.15
292.722
299.502
284.179
298.562
285.214
283.15
303.15
283.15
303.15
290.607
296.654
287.898
291.878
283.15
286.297
283.15
303.15
293.748
303.15
301.704
303.15
283.15
291.865
283.15
288.705
284.6
283.15
283.966
297.958
283.15
300.111
284.655
298.79
303.017
290.976
285.959
283.15
303.15
303.144
283.15
300.953
300.773
283.15
283.15
294.68
284.334
298.13
296.867
283.15
294.987
296.008
283.15
302.043
283.876
303.15
303.15
288.18
298.535
283.15
303.15
303.15
303.15
300.71
283.15
303.15
293.909
283.17
286.869
299.903
283.15
283.15
302.607
283.15
302.444
301.391
297.769
288.413
283.15
293.829
303.377
303.15
298.578
292.214
303.15
283.15
283.302
283.15
289.94
286.054
291.566
283.15
292.79
296.519
292.983
303.147
283.15
303.15
303.15
283.168
292.649
283.15
284.299
303.131
283.15
303.15
303.15
303.15
301.846
290.441
285.943
284.174
284.285
283.15
285.652
303.15
300.673
283.15
303.15
303.15
300.612
303.15
303.15
283.151
303.15
283.15
300.616
283.15
283.15
283.15
303.15
283.15
303.15
283.15
283.658
283.15
303.128
301.858
283.739
283.15
303.084
283.15
303.15
284.674
284.644
286.063
297.449
283.15
297.419
297.53
292.206
286.758
285.226
303.15
291.678
283.15
299.807
283.15
296.723
283.15
291.996
298.473
303.151
283.15
286.739
303.15
295.445
299.027
283.15
283.15
283.15
283.15
303.15
293.611
283.15
283.15
283.236
283.15
299.76
283.15
284.755
303.15
283.425
303.119
284.619
291.824
283.15
301.411
283.15
283.15
285.641
283.15
283.254
283.15
299.62
303.15
290.58
303.15
283.15
302.382
284.436
300.031
285.606
300.029
289.413
283.15
300.577
284.51
283.15
283.141
300.255
301.556
283.15
282.481
301.015
303.058
283.124
303.15
287.52
302.154
284.373
285.336
288.124
282.597
283.15
303.15
300.551
303.15
283.545
283.15
283.15
291.696
282.694
303.149
303.114
283.15
286.208
299.557
283.15
283.15
299.578
303.15
283.15
283.15
283.15
286.095
283.15
303.15
284.781
284.206
303.15
299.682
283.15
289.188
303.15
283.15
286.087
283.15
283.15
283.15
285.332
283.15
285.396
291.891
303.15
300.313
283.437
298.637
300.93
283.298
283.45
283.15
288.881
298.394
303.15
302.247
295.974
296.827
284.688
297.391
297.153
303.15
300.179
303.133
283.15
297.084
284.8
283.15
292.301
295.652
284.817
298.714
300.592
292.262
283.15
298.862
283.458
303.15
300.557
301.954
294.024
283.15
286.433
303.15
283.15
283.15
283.15
283.299
283.15
303.15
303.15
283.15
300.399
299.189
303.15
285.562
303.15
303.15
303.15
289.968
283.416
283.15
303.15
283.15
283.15
286.772
292.31
283.15
295.065
283.137
283.15
295.232
302.196
287.71
283.15
283.15
300.215
292.019
283.15
283.15
283.15
293.902
303.15
303.15
283.15
296.175
302.348
283.15
282.353
301.657
286.491
283.15
283.15
287.42
302.957
283.15
283.159
287.122
283.747
288.723
283.15
285.656
300.213
283.15
303.15
283.15
283.15
283.15
283.15
295.599
303.15
283.15
283.15
295.21
291.738
303.15
303.15
289.735
298.338
298.238
303.15
283.15
297.906
303.15
283.82
298.778
298.286
303.15
303.15
303.15
283.15
286.002
283.15
283.15
302.7
303.15
297.739
302.245
283.15
293.983
283.272
296.361
291.911
283.416
289.678
283.15
283.15
296.804
287.991
290.769
283.15
283.15
297.513
294.874
283.15
283.886
284.555
283.464
303.15
303.15
303.15
290.67
283.15
299.996
283.15
284.342
297.523
298.432
292.195
283.15
283.15
303.15
295.304
283.15
283.15
303.097
283.15
283.15
303.15
283.15
299.251
283.15
283.15
283.15
283.15
283.15
303.15
283.15
283.172
298.712
303.15
302.522
283.132
283.39
283.097
285.479
283.15
284.419
290.465
283.39
303.15
283.149
299.674
283.15
300.194
283.141
283.144
286.154
297.415
283.206
291.829
297.986
283.15
283.15
298.993
299.736
283.15
297.265
291.197
297.553
283.15
283.243
283.15
297.857
296.983
283.15
300.019
297.633
283.149
299.719
283.15
295.554
283.145
303.128
283.161
283.16
283.15
283.15
284.409
283.15
302.963
283.574
283.063
303.147
303.149
303.148
283.15
283.15
293.741
303.15
303.215
283.848
283.15
283.15
303.154
303.149
283.15
303.165
283.15
283.15
303.15
303.15
303.15
303.15
283.361
283.15
283.15
283.15
303.157
283.3
283.87
293.395
283.15
283.15
283.328
283.15
283.15
283.15
287.188
293.519
283.15
283.15
283.15
283.15
283.15
283.15
283.986
283.15
303.15
291.481
283.15
303.15
303.15
303.154
303.15
303.15
283.15
303.171
283.15
283.679
283.145
303.152
283.15
303.061
284.36
292.015
303.15
303.129
284.423
303.15
283.15
303.15
283.15
293.969
293.381
284.596
303.148
283.15
293.162
283.15
283.15
303.15
283.15
294.783
283.15
303.15
283.163
298.086
303.15
284.358
283.15
283.562
283.15
283.15
283.15
303.15
285.797
283.465
284.088
283.15
283.15
285.595
283.15
283.15
303.15
284.317
303.165
298.49
303.15
303.126
303.127
283.15
303.129
283.15
283.44
289.046
301.032
283.779
283.165
283.15
283.15
283.15
303.184
283.15
302.893
303.15
292.553
303.15
288.672
283.811
303.15
283.15
303.15
283.15
301.759
303.15
303.15
286.362
300.511
283.15
283.15
283.15
283.15
283.15
283.15
300.764
283.567
303.15
303.15
303.157
303.15
300.146
284.395
283.15
302.09
303.15
301.591
283.15
302.56
283.15
283.148
303.152
283.309
302.091
300.178
283.147
283.15
289.301
303.15
293.309
303.15
283.15
303.15
283.15
283.15
283.15
300.759
302.032
303.15
303.15
303.15
302.899
283.15
303.15
292.816
283.087
303.15
297.469
298.311
296.439
283.37
283.15
283.15
283.15
283.15
294.571
283.15
294.718
283.15
303.056
289.784
283.15
302.853
283.15
283.15
302.725
283.148
302.909
283.15
303.15
283.15
302.373
283.15
303.15
283.15
283.148
283.15
283.17
283.15
283.15
303.15
292.948
301.069
296.022
296.949
303.15
303.115
283.15
283.15
285.642
283.15
283.158
302.836
298.759
302.934
303.15
283.357
283.15
303.15
283.15
302.987
283.313
298.304
283.15
303.15
288.014
303.15
283.15
283.127
294.985
283.147
283.15
283.15
283.149
303.15
283.15
303.141
303.15
303.15
289.875
302.981
302.988
288.947
293.184
283.15
283.15
303.08
289.017
283.15
303.15
284.716
283.15
303.15
283.15
283.15
283.15
297.273
283.15
302.933
283.15
300.423
283.15
283.15
283.15
283.15
283.15
283.15
284.991
283.15
283.15
283.15
283.15
283.15
283.15
291.934
283.15
298.375
302.925
283.15
302.334
283.15
302.504
303.145
292.26
288.739
303.15
292.124
284.753
303.107
303.15
303.14
295.04
288.616
283.15
287.838
283.15
283.15
283.15
283.15
287.465
283.15
283.15
291.605
303.135
285.281
283.15
283.15
302.523
283.15
283.182
303.15
299.87
283.15
283.15
302.819
283.15
303.178
303.15
283.15
289.001
297.998
292.664
285.62
292.464
294.042
283.15
283.15
302.266
290.538
292.714
284.382
283.15
294.366
283.15
303.15
300.687
298.733
283.15
297.393
283.15
292.712
297.158
303.15
283.15
283.15
301.746
283.15
283.15
300.457
296.097
283.196
291.172
283.15
283.15
302.785
300.476
283.15
300.605
283.15
300.46
283.15
283.15
300.763
283.15
283.225
301.573
283.15
283.15
302.419
283.15
287.853
303.15
290.271
303.15
303.15
303.15
300.906
283.15
283.15
299.489
283.15
302.981
283.15
283.15
303.15
283.151
288.145
283.15
283.15
288.009
288.189
283.15
283.667
283.15
303.15
302.408
283.704
301.532
283.15
283.15
283.15
283.15
283.15
283.15
283.15
283.15
283.15
283.15
283.15
303.15
283.15
283.15
283.15
283.15
283.15
283.15
283.15
283.15
303.15
286.893
283.15
283.15
283.15
294.64
283.15
303.15
302.88
283.15
283.15
294.643
283.15
283.15
301.761
295.12
283.15
303.68
303.603
283.15
301.442
293.893
297.482
301.445
298.1
303.15
283.15
296.392
291.699
301.387
283.15
302.121
302.405
300.836
287.99
287.273
301.025
301.755
301.757
303.15
285.831
297.498
285.488
297.2
283.15
283.15
283.15
303.15
283.15
291.92
297.884
283.15
283.15
283.15
283.15
283.15
303.15
283.15
303.15
292.085
303.106
298.979
302.837
283.15
283.15
285.366
283.168
283.15
283.15
301.725
303.15
283.15
298.122
299.48
297.489
298.591
300.765
303.15
290.993
302.567
303.15
303.15
300.271
303.15
283.15
282.996
295.494
302.941
283.15
303.15
289.522
286.121
297.141
292.119
302.358
303.15
303.136
303.15
303.15
283.15
298.973
283.15
291.729
290.393
299.645
284.732
303.15
301.898
303.15
283.15
303.15
303.15
291.432
299.425
283.15
303.15
303.132
291.708
303.026
299.312
292.743
288.274
292.85
283.15
303.15
283.15
291.176
298.251
303.151
303.15
303.15
303.15
297.442
302.562
283.15
299.935
301.101
284.835
299.475
303.15
303.15
298.636
292.901
283.15
302.894
299.66
302.603
291.904
297.263
298.19
303.15
286.939
298.169
291.267
283.15
289
303.15
288.339
301.02
303.15
288.654
301.241
300.066
293.115
283.151
283.16
283.237
301.575
300.877
303.15
288.772
301.443
303.15
283.15
303.15
303.208
298.7
290.527
296.723
303.26
283.149
297.364
303.15
303.15
292.725
303.15
300.278
283.298
301.282
291.487
303.15
283.647
293.148
303.15
283.071
298.631
303.15
300.657
286.211
303.15
303.15
283.976
303.15
283.15
283.15
285.88
299.202
291.113
303.15
285.181
297.408
283.15
298.802
298.837
288.916
303.101
283.15
301.509
299.638
298.802
300.037
288.615
290.711
302.482
303.15
301.518
288.667
303.15
298.813
283.15
283.15
303.15
283.15
303.15
297.404
283.15
300.487
283.63
303.15
283.786
283.15
289.785
303.15
303.144
303.15
294.065
302.997
303.116
299.811
290.358
289.384
290.537
298.345
303.15
299.333
292.112
298.885
303.15
283.859
283.44
299.194
287.114
283.503
303.15
283.15
303.15
285.288
303.15
303.343
284.661
303.393
302.953
303.15
303.15
283.15
300.507
300.657
285.45
303.083
286.959
295.617
301.864
292.449
288.091
302.067
296.052
283.15
283.15
303.15
285.774
289.641
283.15
283.15
303.15
301.971
288.636
303.15
296.353
303.15
283.155
285.151
301.156
303.15
303.15
292.219
303.15
283.297
290.559
283.15
297.115
294.575
296.091
303.15
302.697
283.15
302.659
293.35
303.15
303.15
288.744
283.15
303.15
301.772
284.419
303.15
303.15
283.15
302.326
303.478
289.43
299.646
298.09
303.15
303.159
302.581
303.15
283.15
303.15
303.15
303.15
303.15
303.15
303.15
303.15
283.15
303.15
303.15
283.336
303.15
303.351
303.15
303.163
303.15
303.15
300.882
303.676
303.15
291.898
303.15
303.15
283.15
302.545
303.15
302.128
303.113
283.288
283.15
303.15
302.561
283.149
303.15
303.15
291.309
283.15
292.533
283.15
283.15
283.153
291.157
284.807
303.15
296.594
283.15
303.783
303.133
284.294
302.581
283.15
292.108
303.083
301.637
283.15
303.15
283.15
304.142
284.793
296.854
303.15
303.15
303.15
303.15
303.15
303.15
302.337
302.805
297.554
291.954
303.15
287.101
292.588
284.948
303.209
283.15
286.866
302.748
284.73
283.148
287.428
303.15
283.38
302.917
292.474
302.842
301.851
303.15
302.241
303.15
303.15
297.912
303.15
284.459
303.15
303.15
283.15
303.15
303.15
302.841
303.15
283.295
283.15
283.15
285.788
284.849
300.909
286.062
303.15
294.539
303.15
290.374
303.15
287.108
300.64
301.451
293.248
303.15
303.15
303.15
289.759
283.15
303.15
289.512
283.15
283.15
301.794
303.15
286.139
283.148
283.15
303.15
303.15
300.626
298.144
303.15
293.36
303.032
283.15
298.574
303.15
286.373
288.177
302.123
303.15
296.269
296.735
302.947
301.861
301.627
303.15
303.15
303.147
303.15
283.15
303.15
289.513
300.18
294.264
302.106
283.15
300.336
291.338
298.203
283.591
298.264
289.548
302.143
283.15
283.15
283.15
302.19
283.15
290.409
283.15
301.223
303.162
289.668
298.022
283.15
303.15
301.211
301.188
303.15
283.15
303.15
286.388
301.413
302.973
302.324
297.965
288.39
303.15
303.15
303.15
294.177
285.935
289.732
295.815
283.942
302.953
303.15
303.15
283.15
283.15
285.392
299.578
303.15
303.15
283.15
303.15
303.15
303.15
300.212
303.15
285.31
292.135
283.15
283.247
293.299
285.656
303.15
303.15
301.865
303.15
299.172
283.147
297.504
303.15
303.15
283.15
303.15
303.15
303.15
305.129
303.15
301.816
301.11
303.15
303.15
301.589
303.15
283.15
287.194
303.099
303.15
303.15
303.15
297.884
303.15
303.15
302.388
302.476
301.753
303.15
283.15
303.15
302.025
302.501
301.499
302.523
283.15
300.626
287.431
297.396
283.15
303.15
303.15
303.15
303.15
294.285
287.523
299.659
303.15
303.15
303.15
303.15
283.15
303.148
284.748
285.118
283.15
303.15
303.15
283.148
299.518
294.772
283.15
303.15
303.15
303.15
303.15
289.556
289.602
303.15
303.15
302.399
303.15
301.451
283.936
291.803
303.15
283.15
301.17
303.121
303.15
302.98
301.284
286.789
303.15
303.15
303.15
303.15
293.231
284.132
303.15
302.675
298.009
289.228
303.15
303.15
303.15
303.15
299.532
303.151
303.15
303.15
298.216
302.595
288.293
303.15
303.15
297.7
303.15
303.15
303.15
303.15
288.748
303.15
283.15
283.15
295.88
291.015
303.15
303.15
303.15
296.979
303.146
303.15
303.15
303.15
303.15
303.385
300.832
303.15
287.282
302.636
299.348
303.15
303.15
303.15
303.15
283.15
285.637
303.15
302.844
283.15
302.161
303.15
303.133
303.15
283.15
301.945
285.552
283.15
302.826
303.15
302.403
283.15
303.15
303.15
303.151
303.15
283.27
303.15
290.777
283.15
283.15
303.15
303.15
298.799
302.355
283.15
302.39
283.15
284.089
287.904
302.689
283.15
303.155
302.98
303.133
284.381
283.156
302.98
283.15
283.15
283.156
302.054
302.275
303.15
283.15
283.15
295.134
303.15
283.15
303.15
303.15
303.15
303.107
303.044
302.92
302.428
303.15
302.898
303.15
284.782
303.15
303.15
283.15
303.15
303.11
303.15
283.15
303.15
288.264
303.15
303.15
303.169
283.15
302.775
301.929
296.625
303.15
289.132
294.16
283.765
289.827
283.15
283.15
287.161
284.299
283.15
303.853
283.15
286.364
303.15
283.15
303.155
303.15
303.15
303.011
303.155
303.15
283.15
303.138
303.15
283.15
283.107
298.668
302.689
303.15
301.811
303.15
285.668
303.152
301.138
303.15
303.15
300.998
303.15
303.15
303.15
287.64
303.15
285.108
303.15
303.147
303.15
283.15
283.15
303.15
303.15
303.15
288.64
302.532
303.15
303.15
288.536
286.463
291.101
303.15
302.687
287.621
287.49
303.15
303.15
287.572
283.15
291.841
303.15
303.153
303.149
303.15
300.487
283.15
302.314
283.15
303.15
303.15
303.15
303.15
303.15
284.306
302.226
290.983
303.15
303.15
290.512
303.15
303.15
303.15
303.15
303.15
300.106
303.15
303.15
283.15
299.409
303.15
283.15
303.15
301.333
283.15
299.91
290.683
302.673
299.974
299.392
303.15
303.15
303.15
300.807
288.422
283.15
303.15
300.27
303.15
303.15
291.918
303.15
287.421
303.15
297.776
284.289
303.15
283.15
303.15
303.15
303.15
285.206
303.15
300.445
303.15
303.15
299.652
283.15
284.713
303.15
303.15
288.033
301.542
296.361
303.15
303.15
303.15
301.558
292.18
303.15
283.15
303.15
300.632
303.15
284.736
296.241
303.15
303.15
301.101
303.15
303.15
283.15
303.15
283.15
294.487
303.15
283.15
303.15
303.15
303.15
303.15
303.15
303.15
283.15
301.509
283.15
302.051
303.15
303.15
296.053
300.43
303.15
283.15
303.15
300.839
283.15
303.15
303.15
303.15
300.692
303.15
297.599
303.15
285.809
283.15
286.684
303.15
303.15
298.475
283.15
303.15
287.797
283.244
303.15
303.15
285.05
283.828
300.804
301.7
301.147
293.112
301.707
283.826
303.15
297.633
283.15
283.15
303.15
303.15
303.15
301.177
303.15
303.15
303.15
303.129
283.168
283.15
283.554
303.15
301.981
283.15
303.142
296.023
283.15
294.465
303.15
303.15
283.15
299.835
283.907
303.15
283.15
299.863
303.15
297.647
303.15
295.206
303.15
283.15
303.15
283.15
299.373
283.15
283.222
283.15
286.148
303.15
303.15
283.15
283.15
303.15
303.15
303.15
303.15
284.839
284.692
283.15
303.15
283.231
283.15
283.15
303.154
289.816
283.536
283.15
301.464
284.848
300.438
288.126
303.15
303.15
303.15
303.15
283.15
283.15
283.15
303.15
283.15
283.15
303.15
283.15
297.199
283.15
303.15
283.15
303.15
303.15
283.287
283.15
303.15
301.916
303.149
303.15
303.15
303.15
288.664
283.15
303.15
303.149
283.15
303.15
303.15
303.15
295.279
283.15
283.177
303.15
303.15
303.15
303.15
303.15
303.149
303.147
284.088
303.15
283.15
303.15
303.149
303.15
303.148
303.149
283.15
283.15
283.15
303.15
303.15
283.15
303.149
283.15
287.661
283.15
301.76
283.15
303.154
303.15
284.574
283.15
284.42
297.33
303.15
284.657
303.174
303.15
297.338
283.15
303.15
303.15
303.15
303.15
283.15
303.15
303.15
299.086
283.15
303.15
303.15
303.15
303.15
292.279
290.109
303.171
283.164
303.15
301.791
302.305
303.15
283.15
283.15
303.15
303.15
303.15
283.15
283.15
283.804
303.15
303.15
303.2
303.151
283.15
288.805
303.15
283.15
303.15
287.981
303.15
283.15
302.08
283.15
283.15
283.15
303.15
299.59
303.15
303.15
303.15
283.15
284.471
293.501
295.138
289.494
303.117
303.012
283.15
283.15
301.02
283.679
283.15
303.149
303.15
303.15
283.15
294.464
303.15
283.15
302.972
303.15
303.15
283.775
303.15
303.15
288.335
289.481
303.15
283.15
303.15
283.15
303.15
303.15
303.15
303.15
283.93
303.15
303.15
303.15
302.919
303.15
303.15
283.15
283.15
283.15
283.15
302.932
283.15
283.15
300.915
303.15
284.733
284.889
303.15
301.081
303.15
283.15
303.15
283.15
283.15
303.15
303.15
303.15
302.652
303.15
303.15
303.15
283.15
303.15
283.15
286.333
303.15
303.15
291.537
303.15
283.15
283.15
302.4
303.15
303.147
283.15
303.184
286.605
283.15
283.15
299.138
283.15
283.15
303.048
303.162
293.275
303.167
303.151
303.153
283.15
283.15
302.629
283.44
285.758
300.833
283.157
283.15
290.985
301.546
301.446
283.15
300.194
290.645
300.114
302.191
302.713
284.65
295.417
299.173
286.215
293.261
300.084
303.15
297.974
297.511
302.773
283.655
292.275
301.131
287.284
303.15
300.968
303.15
300.681
301.46
283.629
284.957
303.15
283.15
302.282
301.649
283.146
303.173
288.498
302.669
301.787
300.779
303.15
303.235
301.079
294.911
300.414
288.811
302.901
301.643
302.19
302.255
284.198
302.486
301.555
283.177
303.15
302.887
303.15
303.15
302.064
301.973
294.223
303.15
284.648
292.221
292.276
300.76
303.15
283.98
285.156
284.379
303.15
298.736
303.15
296.386
295.273
300.674
303.141
303.15
303.15
301.907
301.217
302.772
303.15
292.55
302.737
289.904
283.15
298.344
293.93
303.15
300.501
283.15
283.202
283.15
302.544
303.092
303.15
302.98
298.319
283.148
300.487
302.206
295.289
283.525
295.748
296.986
283.448
303.132
284.721
296.324
283.315
296.752
300.445
300.195
300.313
301.957
289.589
301.537
303.15
302.713
302.643
302.654
296.528
302.889
283.15
301.99
293.399
303.15
283.423
286.802
301.176
302.577
290.463
284.793
287.627
302.603
296.324
303.15
303.15
294.945
283.15
292.604
283.42
303.15
290.51
290.225
283.895
303.15
297.221
298.51
284.213
301.199
294.143
290.119
300.494
303.111
303.15
303.15
283.519
302.597
283.34
285.761
303.15
303.018
303.033
303.15
285.375
300.84
297.795
283.242
299.477
302.344
300.456
286.863
283.15
303.103
301.778
283.726
283.135
303.15
303.071
303.15
303.15
284.165
302.52
296.396
283.034
283.153
303.15
283.15
302.948
303.041
302.487
301.379
303.15
283.15
283.15
301.796
301.852
283.21
295.898
303.15
303.15
301.587
285.471
283.257
301.65
301.756
301.693
284.373
303.15
283.15
298.473
297.702
303.15
302.686
302.052
284.614
284.943
302.086
303.056
303.15
298.114
284.397
283.15
303.15
300.564
301.179
301.985
289.557
302.045
285.631
300.112
300.295
290.289
297.486
303.15
303.15
300.896
284.44
302.062
283.151
300.439
301.671
283.619
288.247
302.399
283.15
283.15
283.029
303.15
303.15
299.914
298.889
302.257
283.148
283.15
283.915
283.151
283.15
283.151
303.075
300.881
299.1
295.812
283.362
303.09
300.083
303.15
283.15
302.536
289.188
300.768
292.662
283.502
303.056
283.148
283.15
302.824
301.173
302.594
283.155
291.148
284.861
303.15
284.236
301
283.15
283.303
284.922
284.075
283.15
283.15
301.61
283.15
289.319
302.512
302.688
301.765
283.467
298.089
289.927
283.15
303.351
292.024
283.15
283.15
283.15
303.15
301.196
302.395
299.116
301.43
299.9
288.808
283.154
290.934
290.112
303.057
290.986
299.966
292.021
283.15
286.273
301.039
301.543
283.15
283.971
299.632
283.15
303.15
283.186
301.239
303.15
283.993
302.253
303.015
303.15
283.15
292.735
303.153
301.665
283.15
283.15
283.15
302.164
297.498
303.144
302.171
303.167
303.15
288.324
303.167
290.392
300.177
300.136
296.528
283.156
301.665
283.15
290.529
301.378
289.391
290.436
298.917
300.664
301.562
287.13
291.099
284.971
283.171
302.191
286.088
283.15
283.144
300.154
283.081
300.251
286.949
296.046
299.382
289.132
299.228
283.122
299.157
283.15
289.931
288.838
298.597
283.325
283.15
300.508
283.15
302.784
283.15
303.15
286.43
286.435
283.15
298.937
298.567
286.976
303.15
303.15
301.679
289.74
302.981
283.719
301.542
287.036
303.147
284.172
288.118
303.15
301.387
283.15
283.15
287.513
286.976
283.145
285.223
301.463
286.185
301.224
303.15
285.089
301.715
291.147
303.15
303.15
301.58
302.019
303.15
292.953
294.247
283.656
296.339
286.738
289.949
303.15
302.741
296.978
284.962
283.15
287.673
291.832
299.573
283.161
283.741
282.958
301.923
303.114
283.151
303.132
303.15
300.546
292.962
298.777
293.773
283.15
291.899
295.87
285.54
283.211
291.296
283.15
300.29
303.165
292.457
284.085
303.143
291.8
298.551
288.193
300.344
291.292
287.272
283.15
303.141
285.304
289.835
293.387
283.15
283.15
283.15
303.14
283.15
283.137
286.373
303.15
283.15
303.168
283.172
291.081
288.686
303.562
302.905
289.799
303.15
296.924
303.177
301.987
287.224
283.15
292.854
303.144
303.091
286.143
283.15
283.15
283.463
285.963
303.05
303.143
287.471
289.425
283.472
283.162
289.795
293.169
303.15
283.15
303.094
303.15
302.316
284.978
302.327
303.091
284.044
283.763
284.029
302.855
302.149
297.373
293.99
303.066
291.19
290.98
303.15
303.095
302.57
285.395
283.374
303.15
285.903
283.381
302.926
301.689
302.151
283.15
300.301
301.83
303.15
302.126
285.366
303.15
297.838
303.15
283.15
300.666
302.665
286.27
302.475
283.15
285.141
303.001
283.15
302.282
285.327
294.807
284.31
303.15
303.016
302.879
286.456
283.15
287.077
284.234
289.713
285.695
302.23
303.15
283.15
283.15
293.094
283.15
301.028
302.137
290.308
283.15
293.999
283.15
303.15
283.15
300.079
298.51
283.151
285.236
301.725
303.064
303.155
291.789
294.135
301.16
283.198
301.798
283.145
303.15
303.144
298.869
283.15
300.625
294.707
303.15
300.919
287.249
301.952
284.87
288.139
283.15
302.197
287.66
298.379
303.078
283.15
303.15
291.605
302.136
283.079
283.147
286.713
298.262
303.149
284.424
300.984
300.955
301.211
303.153
299.84
287.572
284.881
301.55
299.834
283.705
283.107
303.16
303.149
303.15
297.291
283.163
283.15
303.15
303.149
289.843
298.883
300.254
287.711
302.787
303.15
286.387
301.568
303.15
300.927
283.784
301.422
303.15
284.525
301.369
295.499
302.758
303.15
303.15
285.132
295.008
296.307
287.323
303.15
303.15
283.15
287.145
302.375
296.093
303.15
285.52
303.15
303.15
300.443
288.656
283.15
295.47
295.802
299.058
283.15
303.15
292.606
287.155
303.15
297.883
300.463
300.366
303.15
303.15
303.15
300.172
298.266
302.779
299.835
283.15
292.83
287.595
290.53
300.514
303.15
303.15
300.713
303.091
286.486
296.014
303.15
303.147
283.15
286.387
298.852
285.528
303.15
303.15
283.334
303.121
303.15
303.15
283.15
290.454
303.15
303.15
284.554
299.254
283.15
303.15
284.581
301.28
300.104
286.928
294.923
303.15
283.49
303.15
303.15
283.309
300.484
290.341
300.336
303.15
303.129
302.14
292.528
299.703
301.29
284.415
283.447
300.848
298.318
303.15
302.741
284.115
299.674
301.339
287.606
303.15
297.353
301.369
301.455
301.497
292.833
303.15
283.15
299.102
283.15
283.15
287.68
283.15
283.986
283.15
283.15
283.15
283.15
302.737
288.082
302.684
283.15
295.596
290.869
284.701
283.15
303.15
302.659
301.698
303.16
302.615
283.15
294.731
300.2
290.094
283.15
283.15
299.733
285.883
283.15
283.15
303.149
290.494
283.15
287.068
303.149
303.152
284.281
283.15
288.136
291.99
300.768
294.564
302.946
285.563
302.484
295.152
286.202
283.15
283.531
291.502
303.067
288.989
302.636
283.15
292.306
287.679
300.987
301.276
284.868
303.099
284.869
296.941
302.983
303.146
285.087
303.145
302.999
293.186
302.678
283.15
303.15
303.15
294.646
290.919
283.155
301.016
284.64
284.121
284.582
303.145
288.266
300.399
283.15
283.15
302.474
303.15
294.43
302.884
303.183
299.71
303.224
302.87
283.15
301.245
302.866
283.15
303.15
301.279
303.15
284.288
298.648
283.163
291.418
283.15
287.505
303.005
299.688
283.15
303.018
290.828
301.177
303.123
303.077
283.15
283.15
301.928
301.967
283.784
302.803
302.389
302.356
303.141
283.15
293.612
283.15
302.779
287.794
302.979
303.15
283.15
302.804
285.086
291.408
302.016
283.15
302.559
301.957
301.518
302.458
303.041
303.213
303.003
303.15
283.15
301.475
297.759
303.086
303.15
289.83
284.811
303.15
283.15
285.267
303.184
303.166
302.907
301.073
284.237
303.094
290.659
294.156
303.148
288.95
303.164
283.15
289.771
283.15
299.886
298.034
284.747
288.086
299.517
296.636
295.191
299.079
293.634
303.154
293.809
296.258
283.162
299.285
293.784
303.15
298.842
299.042
303.15
291.086
303.171
301.617
303.15
286.847
285.972
302.781
289.588
283.15
283.15
300.263
301.149
283.706
283.15
303.15
300.154
302.288
300.567
299.798
302.769
292.484
289.561
286.57
292.409
284.266
290.291
283.301
295.662
290.344
293.819
287.03
284.252
303.164
283.27
303.148
285.526
300.637
283.151
300.397
298.367
288.65
302.081
285.352
298.974
283.15
302.943
283.154
283.118
287.504
299.548
303.15
300.31
303.014
299.853
302.743
303.15
301.199
284.91
294.819
302.007
303.149
283.687
283.15
290.217
285.199
285.691
303.123
303.148
283.15
283.15
283.175
303.15
293.346
303.15
303.146
293.827
303.436
303.15
300.391
303.15
303.15
293.547
290.499
303.15
289.746
302.021
289.475
303.15
303.15
285.832
283.33
290.228
303.228
303.15
303.145
285.411
283.24
283.15
288.879
287.489
303.15
284.274
303.15
303.15
303.131
287.261
303.15
303.147
283.269
303.152
302.635
287.843
283.153
283.576
297.331
290.625
303.15
285.882
284.398
301.273
287.04
302.157
290.495
293.74
303.15
303.15
283.98
303.146
302.937
295.852
302.937
302.722
287.101
283.15
285.271
283.215
297.033
302.577
285.32
303.15
283.769
286.649
303.123
283.175
303.15
286.333
283.15
300.105
303.15
299.628
299.745
283.296
283.353
302.298
290.733
301.348
303.15
301.338
301.698
303.15
303.15
298.239
293.313
283.15
288.695
303.15
295.195
283.348
303.15
296.796
298.654
288.909
303.15
302.736
294.116
295.284
284.425
303.16
298.599
296.013
283.959
303.122
302.787
287.289
298.341
289.735
290.707
289.654
283.15
302.935
303.151
303.15
303.176
292.986
296.203
302.971
301.227
303.15
284.413
303.15
303.036
302.843
303.15
293.433
296.161
303.15
285.32
303.093
303.15
303.085
303.158
285.995
293.237
291
288.32
293.333
303.15
301.156
291.337
295.219
293.334
303.14
303.15
300.481
303.191
284.211
303.191
303.15
303.15
303.143
303.15
284.884
303.15
284.181
303.146
303.15
290.091
303.144
292.377
295.4
303.133
295.231
285.931
283.433
303.123
302.933
284.647
283.15
297.015
303.15
285.446
302.895
302.004
303.016
298.417
286.964
303.15
298.614
289.812
299.22
283.15
283.606
303.15
303.145
303.191
293.993
303.15
292.316
289.231
303.196
303.15
284.731
298.67
293.128
299.502
302.446
301.58
300.311
303.15
284.675
296.947
302.347
285.547
298.326
292.165
284.423
291.544
303.15
286.528
291.715
290.04
299.348
303.15
286.378
284.062
303.15
302.403
288.058
302.081
283.15
303.15
299.753
301.645
288.902
301.943
301.915
301.768
303.15
289.232
285.071
301.919
302.201
297.033
303.15
283.199
303.15
301.943
303.15
302.785
303.15
291.572
303.15
296.42
283.15
289.395
303.15
283.15
292.123
301.398
300.347
289.103
300.43
303.15
302.466
303.15
302.35
285.167
303.15
300.333
290.293
303.15
300.742
303.15
303.15
293.11
283.15
285.474
293.123
300.858
303.15
291.063
293.732
288.088
289.571
288.03
299.161
300.247
300.728
287.302
287.019
301.204