/*--------------------------------*- C++ -*----------------------------------*\
  =========                 |
  \\      /  F ield         | OpenFOAM: The Open Source CFD Toolbox
   \\    /   O peration     | Website:  https://openfoam.org
    \\  /    A nd           | Version:  10
     \\/     M anipulation  |
\*---------------------------------------------------------------------------*/
FoamFile
{
    format      ascii;
    class       volScalarField;
    location    "67";
    object      T;
}
// * * * * * * * * * * * * * * * * * * * * * * * * * * * * * * * * * * * * * //

dimensions      [0 0 0 1 0 0 0];

internalField   nonuniform List<scalar> 
59698
(
286.614
292.868
293.306
293.543
299.96
283.15
292.538
293.495
303.15
303.15
303.15
293.178
283.15
293.766
300.14
303.15
294.065
293.448
293.174
293.808
303.281
302.131
303.149
303.15
295.684
293.447
293.103
298.354
295.703
295.344
300.29
303.15
303.15
298.825
302.372
293.265
283.379
283.463
293.444
297.531
296.22
283.15
296.562
293.85
283.15
296.588
293.303
295.263
294.648
293.577
293.061
293.34
292.348
294.539
294.392
293.195
294.28
302.177
294.241
282.978
291.242
294.297
299.619
293.203
286.796
294.462
303.15
293.177
293.175
303.15
283.15
293.778
283.136
298.525
283.15
297.782
294.54
287.694
291.646
294.15
299.954
292.578
303.15
293.441
303.697
294.507
294.184
293.555
298.872
293.881
303.15
294.738
298.975
293.541
293.77
293.513
299.052
293.521
298.899
283.15
299.104
283.128
285.917
284.499
293.37
283.15
293.469
293.133
303.15
283.15
293.402
293.655
298.858
283.15
293.421
293.227
293.408
293.42
293.441
303.15
293.251
292.837
293.439
293.291
293.376
293.244
295.48
303.15
293.381
292.884
287.508
292.978
303.15
292.769
290.224
291.66
292.893
303.15
293.123
293.464
293.464
293.766
290.848
292.125
292.9
293.58
293.374
293.379
293.45
301.184
283.138
303.15
288.085
293.261
294.056
293.369
293.308
293.475
296.966
283.15
289.68
293.437
290.76
299.553
297.82
296.701
292.906
280.912
299.359
292.194
300.376
283.151
300.944
301.01
285.543
292.809
303.15
283.237
303.15
298.941
302.766
300.419
298.652
293.237
298.702
300.856
300.768
293.858
292.994
294.718
294.358
293.667
296.589
297.449
299.393
293.591
293.915
296.601
303.155
299.387
283.15
284.147
292.453
292.8
299.301
290.943
297.345
295.414
293.594
298.045
293.133
293.708
299.128
303.15
294.872
293.455
293.279
294.062
297.845
296.018
282.057
296.326
292.639
299.289
295.268
299.342
295.826
291.351
295.661
284.996
283.15
296.156
295.169
295.83
293.429
294.816
295.993
293.74
293.564
295.002
293.235
293.986
289.938
303.15
294.636
293.581
282.929
285.578
293.628
293.301
293.827
294.943
295.147
303.15
293.591
294.753
294.119
295.306
292.851
293.302
303.12
283.15
294.455
294.34
294.822
295.333
292.667
303.15
293.473
293.291
293.325
286.64
303.101
293.308
287.32
293.709
292.899
293.633
293.969
303.15
303.15
292.903
293.335
289.068
295.121
290.703
292.95
303.15
286.01
294.61
301.399
291.294
293.397
293.415
294.888
293.604
292.717
293.624
295.101
292.674
291.441
283.15
283.15
292.613
293.236
293.2
287.833
293.657
294.631
293.058
293.116
293.316
293.371
283.15
293.713
292.677
283.15
293.725
283.15
293.587
293.873
293.373
293.999
303.15
298.297
286.253
294.106
293.713
292.433
283.15
300.178
290.667
298.878
281.571
303.15
293.804
293.695
292.555
298.463
293.843
295.131
295.547
292.633
294.982
298.952
293.306
295.603
301.427
293.729
289.167
292.82
293.043
301.355
303.15
284.19
300.753
302.094
293.327
293.638
303.15
293.301
293.848
303.15
295.007
283.15
283.15
293.551
290.469
293.543
282.755
292.666
283.15
292.739
283.15
296.425
303.15
293.54
292.914
283.15
303.15
283.15
292.713
293.304
293.512
293.506
283.148
293.503
283.15
283.15
293.409
293.817
303.15
294.605
290.722
303.133
301.992
301.771
293.518
292.671
292.794
288.503
295.721
292.732
293.361
293.548
293.483
295.971
293.294
295.673
302.254
297.909
303.15
295.279
303.15
293.441
289.811
292.982
283.573
302.298
302.831
294.384
293.421
290.792
281.998
293.368
293.327
303.15
294.394
293.273
283.15
295.498
302.786
285.302
291.84
287.576
303.15
303.15
298.656
292.866
291.934
283.15
292.19
303.15
293.651
293.149
302.913
294.861
283.15
293.464
299.203
292.737
293.296
294.105
286.324
294.008
293.625
290.667
303.15
284.312
293.319
290.079
293.389
283.967
293.921
303.15
293.569
293.407
291.898
294.113
294.985
295.101
283.15
283.15
283.15
294.051
293.141
302.759
292.145
293.7
294.019
293.381
293.599
293.38
283.15
300.93
293.369
293.506
293.385
291.951
292.872
299.063
290.526
291.379
293.475
292.087
293.489
293.435
293.507
289.595
283.15
283.15
295.186
299.056
294.676
283.15
303.15
293.342
303.15
293.358
290.288
294.702
290.696
283.15
283.15
291.632
293.352
283.15
293.388
283.15
283.15
289.565
293.96
293.395
283.15
283.15
302.995
294.939
292.607
289.848
288.755
293.259
301.434
303.15
293.427
293.558
283.15
283.15
286.366
293.393
303.15
290.01
292.983
293.115
281.277
289.378
291.839
282.237
283.132
290.837
283.147
293.352
303.15
293.475
303.15
292.889
293.311
283.15
295.584
291.513
291.835
283.15
303.15
293.499
283.123
293.32
303.15
286.374
293.342
291.21
303.15
292.075
293.455
283.15
291.906
290.959
293.527
293.098
292.276
295.523
303.15
283.15
293.564
285.262
293.206
292.367
283.15
292.431
293.184
289.713
291.653
291.959
296.414
293.078
293.123
283.15
293.37
303.15
282.783
283.15
283.15
290.93
290.973
283.15
293.46
291.042
291.616
292.895
283.15
291.077
293.318
293.297
292.537
293.302
292.113
291.114
291.145
293.267
297.853
285.618
293.263
283.15
291.153
291.923
302.957
295.263
293.734
290.923
292.23
292.02
292.079
295.601
283.15
293.222
291.362
293.063
292.147
292.08
293.252
293.2
286.956
293.495
292.773
283.15
303.15
292.039
294.049
292.803
293.72
293.658
283.15
283.15
293.17
288.57
291.778
291.999
293.251
293.019
303.147
293.6
292.388
293.667
293.391
290.993
283.794
301.814
291.644
293.688
293.772
291.801
288.923
283.15
293.523
292.812
293.535
292.862
291.679
283.15
295.325
293.211
292.88
292.428
293.517
283.15
283.15
291.898
293.01
291.899
292.953
291.992
295.75
290.798
297.171
293.963
291.728
290.813
293.62
293.625
292.589
283.15
292.869
283.15
283.15
292.548
291.772
293.239
303.15
296.513
293.124
292.091
283.15
293.673
283.15
293.754
283.15
293.441
297.639
289.341
293.162
303.15
283.15
297.876
297.945
293.191
292.06
295.605
297.212
295.558
283.15
296.221
293.303
282.865
283.15
290.524
300.328
283.15
291.116
292.813
303.15
297.635
287.926
293.091
293.823
283.269
297.043
294.591
294.53
283.596
283.447
292.466
286.008
293.061
296.881
293.74
298.112
283.15
292.92
290.281
295.031
303.15
293.417
296.891
283.15
298.221
295.934
292.317
293.863
296.74
293.144
283.15
294.929
294.561
283.15
283.15
292.343
283.15
289.442
293.558
292.408
294.53
294.548
297.425
283.15
293.684
290.455
294.874
295.289
295.319
283.15
284.363
298.847
293.572
288.639
297.668
301.039
293.496
302.766
283.15
283.15
283.15
292.667
292.765
283.15
292.553
293.574
298.052
283.163
292.522
291.712
283.15
282.353
283.15
283.15
292.575
283.15
303.103
298.493
303.15
292.55
284.569
288.633
292.545
282.183
293.471
283.227
283.15
283.15
291.275
294.729
296.693
283.15
295.8
292.658
292.671
283.15
292.656
292.684
283.162
283.15
283.132
283.173
303.15
283.15
283.15
283.15
283.15
291.192
292.951
291.046
283.15
294.639
293.275
283.15
285.383
283.15
292.753
283.15
299.434
295.183
291.976
292.586
292.759
295.886
303.15
295.878
292.893
283.15
292.599
283.149
293.311
283.15
292.047
283.15
284.105
283.15
290.386
283.15
293.503
291.774
294.915
292.689
291.904
292.716
292.103
283.15
283.15
292.71
293.545
293.046
293.216
283.15
294.324
296.328
296.014
283.15
294.118
295.069
293.418
296.75
303.15
283.15
295.897
292.367
283.15
292.945
293.415
283.15
295.892
292.792
293.137
293.585
283.15
293.259
293.338
283.15
303.15
293.038
292.954
292.888
295.899
297.651
294.002
296.679
290.214
294.988
295.622
293.564
291.429
290.735
286.593
292.125
283.15
289.767
283.15
296.568
295.752
291.92
290.298
283.15
283.15
297.546
291.278
290.051
296.13
296.761
293.393
295.393
285.341
294.021
293.186
293.356
283.15
293.379
292.94
293.24
293.059
293.292
293.39
303.15
293.34
293.499
294.492
303.15
293.564
296.663
294.178
293.518
293.858
294.465
295.682
292.888
303.15
303.15
283.15
295.552
283.15
293.572
291.472
302.709
298.556
293.047
295.018
302.163
297.861
294.929
295.849
293.718
293.131
295.69
293.881
290.652
287.766
294.115
283.15
293.133
303.15
283.168
294.721
300.405
294.706
303.15
303.15
292.731
293.395
294.907
292.727
293.005
292.632
283.15
293.741
293.22
298.372
283.15
294.56
295.253
302.802
293.053
293.697
302.798
293.207
293.537
302.806
292.739
294.563
295.188
296.449
295.37
296.001
295.213
293.479
292.908
303.15
295.49
296.54
293.256
283.15
293.21
297.707
293.095
293.63
293.126
295.364
292.794
287.745
294.508
290.901
292.827
303.15
293.571
288.107
283.15
303.15
294.047
294.204
295.99
294.325
289.345
303.15
303.15
293.102
283.15
295.023
294.444
294.314
294.431
293.95
303.15
303.15
284.107
294.32
295.144
303.15
294.082
296.135
303.15
282.449
292.914
283.566
291.986
294.359
292.922
293.209
294.107
303.15
293.776
291.731
293.102
292.933
292.988
293.566
294.39
301.06
303.15
297.203
302.912
293.024
301.668
287.121
291.096
295.278
297.73
297.077
289.465
289.153
293.327
283.15
288.132
292.877
303.15
293.336
300.986
293.128
294.508
294.323
294.939
283.15
302.394
289.603
294.813
294.647
292.52
283.15
303.15
293.513
286.769
283.15
292.945
292.984
294.665
293.474
304.912
293.335
295.045
292.736
295.3
293.402
287.086
294.943
303.15
292.729
292.91
292.917
290.192
293.281
300.806
301.128
293.37
295.893
299.132
302.603
293.683
293.371
293.05
302.577
287.714
300.263
291.918
292.139
295.94
295.794
295.388
293.304
295.257
303.15
286.062
298.853
295.793
293.754
292.991
297.238
293.72
298.987
293.769
293.133
293.66
293.571
303.15
293.357
303.15
292.582
292.864
294.043
292.085
293.174
285.411
292.805
303.15
294.48
291.969
288.947
292.438
293.372
303.15
303.15
293.553
293.425
283.15
303.15
293.132
293.509
294.143
283.15
303.15
292.819
293.319
293.285
292.95
285.24
292.619
283.15
284.974
303.15
293.431
283.15
303.143
303.15
297.274
290.54
293.22
297.349
296.7
292.321
303.15
293.341
293.347
296.903
282.33
296.658
293.034
303.15
293.387
303.15
296.783
284.587
283.15
291.185
297.606
293.496
302.764
297.496
295.76
297.462
291.405
297.626
283.15
283.15
297.493
297.426
294.317
303.15
292.809
291.913
293.736
293.666
294.08
294.361
294.159
293.332
291.255
293.25
300.615
285.608
297.022
303.023
293.203
303.15
294.743
283.15
299.956
303.15
303.15
293.501
283.15
300.656
293.197
283.15
303.15
292.054
292.898
303.15
293.493
291.79
293.094
293.673
302.96
303.15
297.45
293.753
283.15
289.034
292.018
293.17
283.097
303.15
293.121
303.15
293.204
303.15
293.152
297.882
297.779
296.958
297.554
294.282
293.144
286.809
293.75
283.15
292.019
298.047
294.841
296.661
283.15
301.155
293.202
303.15
293.316
297.001
296.293
303.15
303.15
293.283
288.943
287.336
294.32
289.22
289.612
303.15
303.15
283.15
292.115
287.794
303.15
299.766
303.15
287.57
303.15
303.15
303.15
291.7
290.739
299.278
303.15
292.598
292.928
303.15
291.92
287.297
282.682
293.721
283.734
295.845
291.705
292.134
283.313
293.656
292.23
303.15
303.15
285.189
288.654
292.716
283.576
283.286
292.914
289.887
293.125
283.15
295.282
291.708
294.634
287.695
285.212
293.948
303.15
292.201
284.061
290.957
294.01
300.929
291.98
292.386
292.555
293.508
298.089
292.207
292.923
293.495
283.9
286.789
283.771
292.978
284.865
292.868
284.223
303.15
294.011
290.561
288.461
292.606
303.112
303.15
293.392
284.408
294.787
300.623
284.977
285.124
298.421
294.549
284.944
282.312
294.006
303.15
287.371
283.15
283.131
285.151
303.15
297.616
283.151
292.995
303.15
284.926
300.028
303.15
283.15
289.246
295.114
296.522
297.856
283.514
303.15
285.246
291.855
293.361
283.15
293.93
283.15
303.125
293.453
303.15
294.346
293.463
292.612
293.424
293.424
293.573
300.127
298.994
285.916
283.138
299.322
293.6
299.414
303.15
283.15
293.377
296.295
285.769
292.942
292.788
288.098
293.752
293.563
293.152
293.547
293.539
296.753
303.15
293.694
293.546
303.15
288.564
293.573
283.15
288.196
303.15
296.127
293.572
303.15
296.85
302.678
290.227
292.505
286.899
288.13
303.15
283.15
303.15
283.15
283.15
294.162
293.576
283.14
291.91
283.207
303.15
288.308
288.775
287.967
294.285
288.264
294.9
289.064
286.217
303.15
287.426
291.764
292.992
303.15
300.563
292.907
289.593
303.228
303.15
299.147
293.498
290.461
303.15
293.43
290.513
293.501
297.734
297.141
290.169
295.029
303.15
303.15
290.273
290.296
283.924
295.154
283.154
283.57
303.15
283.789
290.228
303.15
283.15
283.003
283.15
290.353
299.833
303.15
290.328
303.15
303.15
283.668
293.805
283.15
283.149
303.15
293.274
292.423
303.15
303.15
291.362
283.127
290.959
303.15
283.139
293.464
290.992
290.992
300.723
283.15
290.995
303.15
294.711
294.214
303.15
303.15
303.15
292.523
283.15
291.127
291.886
303.15
283.14
291.298
303.15
303.15
303.15
292.416
283.15
293.581
283.15
293.787
291.63
283.15
296.145
303.15
283.15
291.55
291.432
291.413
294.061
283.15
293.468
291.775
291.821
293.855
283.14
283.15
303.15
283.15
283.15
283.15
292.969
303.15
293.616
294.232
303.15
285.302
293.661
293.206
293.483
292.945
293.561
297.218
292.993
296.723
295.911
292.534
293.473
292.957
292.19
292.281
293.479
292.184
298.951
293.638
287.275
293.243
304.962
284.021
292.369
300.339
283.134
293.555
291.74
303.15
294.38
296.496
295.237
292.63
301.433
296.221
292.199
298.947
293.107
302.824
297.669
300.389
292.318
285.247
294.207
289.311
294.343
295.909
297.461
292.779
296.647
283.15
293.221
294.765
292.783
283.143
299.573
293.017
288.106
293.086
283.15
297.891
293.733
283.15
293.604
292.504
292.974
295.062
283.15
293.102
298.399
293.737
300.332
292.877
294.442
292.872
293.603
298.442
291.702
292.485
284.616
293.488
292.677
293.366
283.15
303.15
292.508
297.138
298.061
301.565
283.457
292.505
292.851
293.564
292.407
292.4
303.151
291.673
293.654
292.541
283.139
292.589
292.568
292.803
301.994
293.9
292.685
303.187
293.705
293.17
283.15
299.009
292.84
302.108
302.828
294.675
292.77
293.238
292.054
293.428
292.682
293.535
283.15
293.223
292.676
295.153
302.943
293.041
288.185
292.999
298.908
293.009
283.158
293.132
292.342
293.463
292.697
295.255
293.325
302.926
293.273
292.682
291.266
298.243
302.944
293.281
292.713
292.741
298.517
294.068
294.317
288.188
289.743
293.35
294.464
289.066
294.118
292.92
289.324
302.814
292.836
293.353
289.435
293.384
293.299
294.025
299.712
292.779
294.613
292.218
293.466
292.812
293.138
292.792
295.053
287.184
298.576
299.533
289.32
293.073
293.176
294.785
295.981
293.358
292.773
293.334
298.674
285.526
293.077
292.928
292.821
292.812
292.82
296.222
287.989
296.568
293.335
292.864
293.168
299.579
303.15
293.416
292.86
292.99
296.966
293.404
299.695
292.873
293.41
292.857
292.86
299.656
293.624
292.894
301.302
292.077
283.15
293.155
294.341
292.002
289.327
293.417
303.15
294.295
301.437
293.456
293.187
292.887
283.15
293.291
301.371
287.262
290.355
292.986
283.15
283.23
295.969
293.132
283.15
298.925
291.965
290.403
290.57
283.15
303.15
298.525
293.431
294.394
295.7
295.01
301.377
293.369
301.192
295.295
292.997
292.099
303.15
293.613
300.047
295.446
295.687
291.92
302.833
286.646
295.637
293.872
292.388
296.218
295.421
283.15
291.14
292.612
295.754
294.103
293.068
293.355
292.66
296.434
296.075
295.202
296.198
294.292
295.792
294.785
292.939
291.976
295.615
295.814
296.779
300.265
297.341
297.454
297.95
301.247
293.069
303.146
283.149
290.489
283.15
292.641
301.779
303.552
295.265
303.01
303.129
291.145
283.15
292.091
292.667
290.842
293.135
300.602
283.15
291.099
303.15
293.065
293.477
293.614
301.066
295.239
293.164
302.013
294.057
289.216
302.269
286.672
295.411
291.732
292.614
294.642
300.56
302.959
293.229
289.818
289.043
294.068
295.288
294.648
295.879
292.848
293.217
292.548
294.207
294.246
295.79
291.135
292.941
292.973
293.774
292.976
293.432
290.953
294.095
292.895
292.177
293.345
293.393
294.699
293.337
293.348
293.553
286.564
302.171
291.968
299.928
296.663
294.708
292.825
295.98
303.15
293.165
293.139
292.954
295.299
296.777
295.482
294.323
298.704
288.436
293.318
283.142
292.922
291.341
291.611
293.349
293.349
292.662
293.354
296.163
297.899
300.886
295.6
294.843
293.51
292.832
293.844
295.388
293.748
295.507
294.703
289.673
293.417
295.691
300.953
296.726
293.434
303.15
292.587
295.697
293.367
294.702
283.15
293.638
292.378
293.479
290.624
292.994
293.64
293.603
292.922
293.276
295.198
293.161
295.383
290.847
292.433
293.606
283.15
293.637
292.248
293.739
293.57
295.098
295.179
293.164
293.158
295.479
293.016
292.992
296.656
296.185
293.434
297.94
292.878
293.912
293.362
293.694
293.667
292.313
296.018
293.075
296.423
295.426
294.964
299.986
292.906
296.161
295.109
296.779
295.667
293.659
292.868
293.028
292.971
292.815
293.411
303.15
294.006
289.371
283.15
283.15
292.524
292.941
293.223
299.289
292.976
292.9
293.549
293.788
292.916
292.617
292.831
300.857
286.356
287.365
293.275
293.892
293.729
292.938
294.224
292.822
283.15
292.97
291.717
295.917
293.281
293.182
292.71
284.191
288.496
292.318
294.62
293.442
293.311
303.15
293.169
293.609
293.773
293.252
292.014
292.972
293.164
293.493
303.15
287.15
291.367
293.44
293.291
293.653
292.017
293.512
291.373
290.507
283.15
283.15
294.587
293.43
291.659
294.159
293.51
291.59
293.115
293.614
293.098
303.15
283.41
292.813
293.59
290.627
292.72
295.832
293.207
292.076
285.212
292.975
289.289
295.574
291.022
293.908
302.028
294.375
293.606
283.15
294.254
293.216
296.884
293.816
300.501
291.971
301.262
292.647
297.619
292.807
294.611
293.398
293.749
293.437
293.905
295.038
292.925
293.41
293.356
292.99
293.457
292.164
292.986
293.457
293.454
293.459
292.771
292.068
299.353
293.972
293.879
283.15
283.15
291.123
292.775
294.357
294.574
294.046
291.645
292.199
293.621
292.326
294.095
289.772
292.797
292.178
292.133
292.797
292.991
293.604
290.943
293.093
302.664
290.509
292.685
296.799
293.348
285.564
293.405
298.65
303.388
296.196
293.645
293.175
293.119
298.422
293.781
290.072
292.882
293.94
286.383
285.95
292.733
292.756
293.283
292.941
294.028
293.379
292.774
293.743
293.556
293.061
294.727
294.951
293.366
292.259
292.25
293.063
293.691
293.71
293.382
292.728
292.941
293.261
293.266
293.384
292.94
303.15
303.15
292.775
292.017
295.68
293.266
292.88
293.105
296.997
293.32
291.966
293.541
293.51
291.255
290.81
292.799
290.875
292.732
293.681
292.616
295.394
295.464
293.311
294.526
294.509
293.762
292.727
303.243
293.148
303.15
292.834
291.766
292.737
296.086
292.964
293.369
293.15
292.604
291.149
294.381
294.513
283.15
303.15
282.891
292.775
301.98
284.044
303.15
293.365
300.868
294.265
283.15
291.749
293.053
292.88
293.046
303.15
303.15
293.357
283.15
296.675
293.312
295.553
294.342
294.943
293.891
292.699
296.773
293.284
283.15
300.788
303.15
303.15
297.809
293.856
294.849
294.735
293.011
283.15
300.977
292.102
293.201
291.232
291.807
303.15
293.157
292.948
293.204
291.013
292.794
300.84
292.805
292.666
292.654
294.437
292.2
292.682
283.15
292.166
293.717
292.685
296.681
301.949
302.71
293.563
295.793
293.649
293.212
291.447
292.103
300.577
293.042
283.15
291.82
290.47
290.345
290.517
291.798
290.475
283.15
303.15
297.112
293.292
292.501
295.104
291.545
297.952
283.146
293.498
283.669
293.458
293.466
292.986
293.295
293.356
293.348
292.177
294.949
303.15
295.682
284.938
292.882
297.802
298.037
293.774
292.085
293.352
298.077
293.375
296.17
293.419
292.437
298.683
292.774
294.559
298.113
294.135
296.56
293.852
293.349
293.352
297.008
293.302
293.038
291.94
292.561
293.074
293.299
292.748
291.937
291.516
291.253
293.717
295.879
292.069
283.15
292.534
293.419
291.864
299.657
291.872
294.105
286.318
291.134
290.739
292.062
293.863
292.8
293.494
292.375
293.395
292.748
293.201
283.15
290.852
293.397
296.82
292.617
296.33
294.099
295.973
297.511
295.567
287.429
297.251
294.021
295.386
293.199
294.176
297.509
292.758
292.611
293.417
292.772
290.558
294.818
293.356
293.842
293.57
283.15
290.108
292.473
293.605
293.402
293.172
293.275
292.31
293.095
293.71
293.275
295.596
298.737
292.843
302.766
301.08
303.15
293.801
294.233
293.4
295.412
293.445
295.139
293.734
293.674
292.107
302.511
283.15
298.123
290.025
294.389
292.775
300.299
292.955
288.336
300.868
287.186
290.685
290.299
292.992
283.117
291.994
289.934
282.404
293.562
293.485
293.611
296.773
292.315
284.916
291.412
302.41
292.655
292.302
297.406
303.181
293.035
291.647
294.847
290.935
292.732
293.495
293.225
284.32
293.239
294.576
293.105
293.174
291.427
293.445
293.84
293.035
292.965
293.586
300.294
293.148
293.539
293.595
294.647
300.456
290.229
293.588
292.966
298.924
293.376
292.4
293.478
283.222
283.15
297.211
293.222
285.066
297.044
283.144
291.989
292.09
298.598
293.576
292.453
290.665
293.317
283.15
283.149
292.388
293.211
282.639
291.894
292.099
292.443
303.151
293.613
293.217
293.636
286.01
293.095
292.388
292.098
297.333
285.996
283.744
293.36
284.421
283.288
293.773
293.674
293.797
292.313
284.344
293.855
293.377
289.458
297.393
287.157
291.299
291.972
293.57
295.71
292.823
296.338
293.141
293.34
293.344
296.753
292.711
303.15
287.447
294.976
285.608
293.848
285.811
292.046
296.631
287.974
293.037
303.15
286.264
292.078
288.234
285.271
285.173
290.776
285.469
288.557
291.917
294.504
295.588
292.6
289.252
294.61
294.002
293.045
294.638
293.01
293.072
293.932
288.528
299.549
288.965
288.38
287.413
292.961
286.463
302.404
291.908
295.184
292.969
293.451
294.823
291.007
291.247
293.36
293.454
295.856
283.15
292.503
291.786
293.251
283.15
283.15
302.589
296.431
286.914
293.384
293.621
294.452
293.923
303.103
283.15
292.358
293.454
294.41
292.482
292.756
293.442
292.132
284.081
299.071
291.817
293.565
291.558
293.921
290.921
293.933
300.067
292.615
299.602
291.844
299.155
299.185
302.344
302.086
299.49
299.693
299.539
289.06
293.38
292.464
291.828
292.883
288.847
293.565
294.172
290.626
292.546
285.599
292.291
292.827
291.579
289.987
293.517
291.231
301.037
293.608
299.974
301.476
289.117
293.456
293.753
291.98
290.278
299.047
290.779
292.413
293.637
292.125
283.15
292.029
292.099
293.182
293.887
292.967
292.121
290.843
292.78
290.854
292.179
293.902
293.116
292.827
292.127
297.391
293.439
291.749
293.32
292.636
292.187
295.916
283.15
292.869
293.088
292.132
293.625
290.963
293.086
292.852
293.01
301.898
302.259
294.634
293.484
301.13
304.618
292.446
302.216
302.159
293.471
292.457
292.988
293.156
302.352
294.174
292.907
293.122
302.35
293.524
293.691
292.607
292.478
292.78
294.119
293.206
303.081
293.484
296.17
292.789
292.507
292.552
292.546
293.108
292.498
290.506
292.512
293.142
293.048
293.035
294.125
293.049
299.249
292.822
292.671
293.219
287.052
301.439
293.435
301.093
291.192
300.508
293.207
301.531
283.15
298.681
293.282
290.92
290.438
296.678
298.683
297.846
294.203
292.807
293.566
300.216
292.814
291.799
298.93
292.835
283.151
292.943
284.222
299.024
287.911
299.04
291.658
293.105
293.783
295.767
293.196
293.251
292.675
296.74
289.165
295.187
292.977
297.321
292.86
292.882
298.134
297.056
291.267
291.813
297.13
290.31
287.452
297.547
298.819
303.15
292.207
285.564
293.553
304.273
291.266
287.617
296.079
283.15
296.477
283.15
291.651
294.761
297.508
293.028
292.298
293.74
292.174
292.24
293.891
294.098
301.827
283.15
296.49
286.155
297.301
292.654
294.45
292.661
301.926
294.083
295.024
294.915
288.686
295.609
300.128
292.676
292.648
293.461
293.612
299.361
296.608
292.564
292.556
290.752
292.794
294.539
294.234
303.144
295.582
295.69
290.646
299.164
290.289
293.485
303.15
293.36
283.15
293.308
293.316
286.956
294.899
292.376
293.18
292.327
291.092
283.15
293.513
287.957
292.801
294.352
291.286
292.802
289.746
293.407
298.283
295.801
300.58
291.775
293.4
293.027
294.062
284.602
296.422
297.132
292.196
296.645
293.735
296.629
297.123
300.245
295.155
294.376
290.56
292.72
292.736
303.108
303.15
292.878
295.387
290.32
293.448
292.979
303.15
303.15
293.95
294.789
293.44
295.101
295.229
287.265
295.086
294.703
295.175
295.23
295.843
289.749
291.714
292.532
298.633
293.486
293.979
293.043
292.968
302.5
290.59
293.624
292.56
294.039
292.965
283.15
292.828
292.347
292.966
293.996
291.642
293.243
302.709
293.242
293.241
298.27
295.649
303.15
288.105
297.619
300.9
293.643
292.391
295.845
296.001
293.49
294.074
293.256
294.752
292.66
292.948
291.696
296.36
292.355
293.724
297.254
293.4
297.036
293.494
292.417
293.086
293.108
293.45
294.053
295.574
295.031
293.49
300.816
295.228
292.183
292.246
293.245
293.369
293.267
293.102
292.347
289.491
293.281
291.995
303.15
293.491
293.549
294.257
294.709
292.805
293.259
302.458
295.149
297.406
289.863
289.763
293.275
293.466
293.79
293.7
294.148
290.41
293.449
293.288
293.339
292.914
293.003
293.459
293.351
292.96
294.276
295.597
285.18
291.723
291.994
294.5
294.386
293.147
295.972
295.66
295.901
295.664
295
295.659
293.428
295.382
295.331
290.233
292.113
291.504
295.209
293.123
294.779
293.028
302.968
294.656
295.679
296.865
285.484
295.17
290.261
285.43
293.313
290.286
293.757
292.035
282.85
293.297
294.992
292.763
292.901
300.07
297.293
283.146
297.863
292.749
300.965
290.296
293.524
293.244
293.564
301.324
296.122
293.602
291.783
295.245
293.154
283.15
294.644
292.585
293.591
293.071
295.584
292.573
293.189
292.31
293.255
293.663
291.947
294.987
292.781
290.914
293.24
293.391
291.117
293.484
290.437
289.495
292.984
296.963
293.22
297.623
286.677
293.309
299.376
290.229
293.367
303.199
293.393
292.772
293.279
294.591
293.04
283.15
289.775
293.338
293.144
294.368
292.621
290.823
291.371
287.294
290.084
297.477
295.797
293.54
297.283
283.6
292.693
288.682
303.15
297.598
293.005
292.288
292.771
294.252
293.118
294.306
292.827
298.145
290.163
303.15
290.135
289.597
287.531
289.976
289.547
291.989
286.328
303.15
292.124
289.702
286.597
292.77
292.838
292.436
293.039
289.995
296.716
293.366
293.243
292.805
293.842
293.766
301.588
292.632
288.685
292.759
293.498
296.617
292.579
294.978
293.394
300.899
292.99
292.824
294.084
293.362
293.878
286.248
295.42
293.769
295.891
293.475
293.823
293.606
302.451
293.042
293.369
295.44
303.113
293.145
294.441
283.15
293.826
296.743
289.413
293.299
291.566
293.659
295.699
293.553
293.88
295.702
294.578
296.596
293.323
293.734
292.998
293.656
303.15
293.607
293.344
293.566
292.849
293.726
293.285
292.98
292.639
287.477
283.186
292.539
293.899
293.072
293.66
290.309
294.443
293.666
293.454
292.83
293.309
293.21
293.27
292.975
292.974
292.976
294.287
293.332
293.401
293.119
294.408
292.385
298.826
290.611
293.751
296.532
293.659
293.78
296.887
297.075
296.905
293.345
292.75
291.794
292.278
293.661
292.911
297.21
287.57
301.62
293.573
292.279
293.763
293.106
292.925
291.729
291.547
293.335
291.697
292.81
293.6
287.047
294.357
288.499
295.192
292.985
291.969
293.544
293.202
293.023
283.15
283.15
292.893
290.043
296.741
293.077
293.182
293.035
293.008
293.204
290.994
296.137
293.567
291.731
283.15
293.705
293.591
291.631
290.995
286.741
287.806
288.536
291.265
291.324
297.692
294.161
294.195
294.443
300.989
285.01
295.939
294.455
285.039
284.921
293.026
293.195
290.692
291.433
296.453
293.16
283.15
291.203
293.43
297.485
285.007
293.646
291.136
295.807
296.95
289.192
292.231
293.921
300.249
293.381
301.7
294.023
292.717
292.559
293.834
293.448
294.115
291.094
293.666
284.101
291.122
293.633
292.665
294.003
293.47
293.003
293.335
293.483
293.716
292.342
293.037
283.722
292.13
293.16
293.939
293.629
284.773
292.07
293.449
283.15
293.384
294.179
294.103
293.484
293.375
293.737
293.201
293.67
301.233
283.569
292.911
288.406
283.15
293.534
288.446
293.534
293.433
293.867
283.15
293.07
293.245
293.3
283.15
293.906
293.234
293.438
292.892
293.819
286.956
293.969
293.467
293.376
293.32
292.786
293.964
292.786
294.102
283.15
293.356
292.96
293.418
293.239
294.246
293.173
293.876
293.721
286.998
293.672
293.443
294.58
294.164
294.017
294.107
294.468
293.459
290.612
294.084
293.622
292.17
294.141
293.774
294.203
293.397
302.491
294.506
295.198
297.193
293.363
295.383
293.39
292.842
283.15
293.667
293.344
295.688
293.319
291.757
296.68
293.528
290.914
298.885
292.075
291.784
290.552
290.805
294.234
292.681
292.627
293.45
283.15
293.318
292.677
292.59
292.606
292.605
292.521
293.394
293.641
293.766
293.341
293.658
293.749
293.476
293.339
293.16
292.221
292.814
293.472
292.425
292.487
293.465
293.088
293.368
295.012
292.967
292.639
294.618
294.113
293.609
294.376
292.639
293.646
293.576
293.721
293.448
284.895
293.721
292.788
292.966
292.901
283.728
293.207
293.321
283.216
284.928
283.15
293.405
293.45
283.75
293.165
293.121
283.15
284.991
290.097
293.363
293.455
292.743
293.801
294.096
294.199
294.096
294.114
294.162
293.27
293.417
293.35
285.296
293.468
289.573
285.499
285.341
290.978
293.993
293.648
293.29
294.118
294.045
294.463
292.973
290.263
293.522
293.585
293.666
291.616
294.135
293.403
293.611
294.3
293.889
293.503
293.627
294.03
293.477
291.421
293.594
293.366
293.834
294.351
293.05
293.593
283.15
292.662
293.151
293.342
293.491
290.618
293.965
292.308
289.994
293.416
293.608
293.167
292.671
288.735
291.638
289.236
301.692
295.532
289.024
293.263
292.796
296.052
293.459
292.964
290.266
293.124
289.02
293.441
291.687
293.28
296.323
288.939
303.15
293.524
293.386
294.052
288.74
295.597
291.084
293.786
290.81
290.982
300.43
283.209
290.838
295.203
293.576
293.783
293.527
290.593
294.37
293.775
293.098
293.618
291.43
293.565
289.674
291.999
293.977
283.15
284.925
289.141
291.542
293.796
291.372
292.736
292.617
292.634
293.57
285.767
287.996
292.51
293.681
293.703
294.261
303.15
292.61
293.655
296.853
303.15
288.244
293.288
294.027
293.275
290.423
291.749
292.653
288.964
294.028
292.687
285.249
295.33
283.15
293.665
293.241
293.584
293.445
293.555
294.196
293.548
293.762
293.143
293.871
299.046
292.571
292.026
292.149
294.897
292.314
292.775
286.515
293.018
294.087
292.392
303.15
293.621
293.61
283.195
292.351
293.228
293.518
291.234
293.421
293.102
293.056
293.84
293.439
294.735
293.44
292.665
291.9
293.307
291.783
293.435
293.563
293.59
293.421
294.363
293.426
293.968
293.314
294.051
293.952
294.06
293.123
293.079
293.213
292.314
293.726
293.461
288.343
298.836
293.88