/*--------------------------------*- C++ -*----------------------------------*\
  =========                 |
  \\      /  F ield         | OpenFOAM: The Open Source CFD Toolbox
   \\    /   O peration     | Website:  https://openfoam.org
    \\  /    A nd           | Version:  10
     \\/     M anipulation  |
\*---------------------------------------------------------------------------*/
FoamFile
{
    format      ascii;
    class       volScalarField;
    location    "56";
    object      SgRate;
}
// * * * * * * * * * * * * * * * * * * * * * * * * * * * * * * * * * * * * * //

dimensions      [1 -1 -3 -1 0 0 0];

internalField   nonuniform List<scalar> 
59698
(
0.0162276
0.00196735
0.00251688
0.00299438
0.0302422
0.00145199
0.00462695
0.000949917
1.98017e-09
3.94333e-09
0.000586479
0.000300981
1.5911e-09
0.00229242
0.000353379
4.28308e-07
6.99272e-06
0.000145487
4.65701e-05
0.000263383
0.0017353
0.0139454
0.000499398
8.81915e-08
0.0422772
6.98982e-05
0.000341897
0.0100165
0.00915375
0.00743408
0.0047784
0.000600622
6.68789e-08
0.0164822
0.00242888
0.000159776
0.0191829
0.0204967
1.90913e-08
0.0250955
0.00866231
2.30465e-07
0.00374307
0.000644326
0.000402108
0.0321957
6.97864e-05
0.00072978
0.00315484
0.000174338
0.00151732
0.000119469
0.00206544
0.00273458
0.0114072
7.70257e-05
0.00132739
0.000212369
0.000806582
0.00280264
0.00523037
0.000501232
0.122455
7.14787e-05
0.0125962
0.00160766
1.75394e-09
0.000402236
5.51623e-05
6.77609e-09
6.35531e-07
0.000253787
0.000363138
0.0417947
0.000411953
0.0391103
0.000117182
0.00925649
0.000356146
0.00615558
0.00889325
0.000475234
4.05479e-09
1.65134e-05
0.00855945
0.000550859
3.6171e-06
0.00039068
0.0637187
0.000129016
4.50321e-09
0.0020594
0.0148571
9.79474e-06
7.31975e-05
0.00375109
0.00538362
0.000901487
0.000270508
8.60362e-10
0.0770733
0.00182464
0.0162744
0.0155535
7.71845e-05
0.000564778
4.7934e-05
3.39881e-05
2.73053e-09
4.39404e-10
0.000136324
1.26206e-05
0.0381337
1.56283e-07
4.1934e-07
3.57612e-08
6.23158e-07
0.0036619
4.07752e-07
1.15047e-08
2.35475e-09
0.00070749
4.49778e-07
3.48993e-09
1.6839e-09
7.94483e-09
0.0108131
7.20411e-09
1.34023e-08
3.99711e-07
0.0445292
3.99447e-09
1.10463e-09
0.100156
0.00424316
0.00440569
5.08634e-07
2.55376e-10
0.00025679
0.000130923
0.000108419
0.0023188
0.00269744
0.00265166
1.97299e-07
0.000693493
5.54361e-07
3.92439e-07
0.00465137
0.0293366
0.000299529
0.000434379
0.00153428
2.63809e-07
0.000163035
0.000342408
4.74308e-05
0.00173345
0.0124112
6.02382e-10
0.000857489
1.0637e-08
0.0164531
0.0016474
0.00336686
0.0344833
0.000239251
0.0718719
0.00202895
0.000413555
0.0120131
1.52848e-06
0.0108117
0.0147005
0.0795154
0.00194583
4.36565e-09
0.00144645
0.000326014
0.00920712
0.00940449
0.0180196
0.0147016
1.16372e-08
0.0460804
0.000238033
0.0114368
0.00247892
1.50425e-10
0.00118267
0.00040414
6.67857e-05
0.00268692
0.0388382
0.00400357
0.00417847
0.0098204
0.0578786
2.67251e-05
0.00770552
0.000227091
0.0062412
0.0211499
6.60448e-05
0.0103456
0.0027667
0.00612927
0.00287057
0.00783415
0.0113501
0.00256095
2.3652e-05
0.00279289
1.56764e-08
0.00408511
0.00348965
0.000372656
3.64206e-05
0.0127388
0.00658938
0.00564076
0.00268851
1.88575e-05
0.0660842
0.000809801
0.0264113
0.00735372
0.00324391
0.00682726
0.159151
7.55877e-09
0.00475087
0.00291101
0.00323876
1.12842e-08
0.00969584
0.0828806
1.91168e-05
0.000434606
0.000443905
0.00270684
0.00146783
0.0135545
0.000664542
0.00613732
0.00187963
0.00380645
0.229737
0.00122218
0.000425681
0.000702398
0.0016301
0.000628959
0.000233555
0.000611741
0.00238843
0.00602051
0.00128437
0.00361215
4.12685e-09
1.43362e-05
1.79955e-09
0.000394352
0.0059298
0.00472989
0.0474436
1.91115e-05
1.07345e-07
0.00016285
1.24251e-09
0.000141021
0.0439129
0.000223067
1.2245e-09
0.0179816
0.000206303
0.00151629
0.000510902
0.00206703
1.21661e-09
0.000574131
0.000158144
0.000214806
0.104298
0.0488016
0.0202365
0.000134998
0.000646995
0.0728758
0.000444422
0.0920712
0.00234056
0.000188151
0.000164607
0.000321629
0.00299373
0.000356681
0.000803392
0.0042461
1.13035e-05
0.00272332
2.23921e-09
6.86641e-08
0.000822342
6.81242e-05
5.31422e-05
0.0521295
0.00101377
2.01944e-06
0.000269017
0.00196817
1.79134e-07
0.000267154
2.37971e-08
0.00193983
0.00514519
0.000403389
0.000392806
0.000829308
0.000806559
0.000341831
0.323862
0.000321151
2.94167e-09
0.0482965
0.010561
0.00032804
0.000353745
0.000442646
0.000361922
0.00943318
0.00416175
0.0203015
0.206594
0.000430949
1.92674e-05
1.0038e-05
0.00066474
0.00909214
0.00448571
0.0102153
0.00206575
0.00253566
0.00147945
9.68211e-05
2.26899e-09
0.000100277
0.0395912
4.76633e-05
0.00204892
0.00797911
0.000290717
0.0399054
7.96117e-10
0.242897
0.00217369
0.0139952
1.5317e-08
3.70988e-05
1.82424e-09
0.000327784
8.76084e-06
1.10666e-07
0.000889953
1.31858e-10
1.04127e-07
0.00281167
0.00203108
0.000145275
0.00163772
0.00191085
0.000533996
0.00406345
0.00065112
0.00618748
2.97636e-09
0.000149345
2.12116e-09
0.000460561
2.49037e-09
0.000347124
8.12357e-05
5.86715e-05
0.000529171
0.000142778
1.99102e-05
0.0002114
0.000544827
7.88787e-10
0.000137223
8.7573e-05
0.000457481
0.00456537
0.00264977
0.00134647
0.00228302
0.0487133
0.00232911
0.00271918
0.000110572
0.00284932
0.00238679
0.00259274
0.000831249
0.00188762
0.00491507
0.085013
0.0281578
2.29664e-05
0.00537531
0.0313665
0.000404303
0.00178398
0.000434528
5.63467e-10
0.0595869
4.03967e-07
0.0103674
0.00240929
0.00183748
0.00303716
0.00226147
0.00252694
0.309862
8.431e-09
1.84813e-08
7.78056e-09
0.000218498
0.00151317
5.41343e-10
0.000266476
0.00214697
0.0163432
0.00303004
0.00210893
1.41311e-08
1.39477e-08
0.212993
0.000231783
0.00317538
1.92329e-07
0.00325757
5.11487e-09
2.12318e-05
0.000450786
0.00238184
0.0700302
4.50072e-10
6.53377e-05
0.00909252
0.00257057
0.000126163
5.87599e-05
0.0329614
0.000283645
9.54543e-05
0.10856
1.39265e-09
0.00976966
1.70913e-07
0.0541999
9.19555e-06
0.0159617
0.0133436
2.18936e-09
0.000976058
0.000447708
0.00849552
3.3144e-05
0.00807781
0.00292899
4.43676e-09
2.01689e-10
6.90828e-09
0.000385384
0.000817014
0.00112717
0.0689094
0.00621797
0.00220223
4.86752e-06
0.000497063
3.97242e-05
1.92825e-08
0.00539364
4.60009e-05
5.65753e-05
9.58072e-05
0.0657339
0.00178926
0.0229699
0.0656054
0.001135
0.000162664
0.058963
5.91655e-05
0.000320247
0.00237024
0.00953543
0.000365618
9.69575e-10
0.0638766
0.00716283
0.0046043
1.7106e-08
1.11903e-09
7.05605e-07
2.15545e-09
7.15673e-06
0.00316258
0.000581594
0.074774
0.00715094
5.41923e-08
0.00913861
5.3332e-06
6.89819e-09
1.0044e-05
7.03982e-08
2.48514e-08
0.00546886
0.00377959
7.78384e-06
3.87528e-09
2.17931e-09
0.00127926
0.00948823
1.18758e-05
0.0107123
0.00390544
3.0038e-09
0.0429164
1.82768e-08
2.22e-05
0.00161901
3.56338e-10
1.35531e-08
0.00185592
0.000138196
0.000384877
0.00971897
0.000356732
0.000674873
0.0678809
0.00817726
0.0135171
0.010071
0.000173497
0.0116868
7.88125e-06
0.000140074
2.28814e-09
0.000107254
1.90822e-09
0.000149361
0.000195382
1.9267e-08
0.00116808
0.0068987
0.000443502
0.000768494
1.72631e-09
8.14428e-05
9.36516e-05
0.000573353
1.81184e-09
0.0741361
9.22877e-05
0.00553555
0.000539254
0.0028777
6.3382e-05
2.03002e-07
0.00259384
0.00287636
0.00338006
3.25705e-10
0.003992
0.00211529
2.31329e-09
0.000732637
0.000571029
0.00515455
5.41549e-05
0.00408939
0.000313361
0.00242541
1.72304e-05
0.00413769
0.00269263
0.00215867
0.00332574
0.000372232
0.00016878
8.53451e-10
0.000170187
9.27204e-07
0.0043208
0.000349776
7.27392e-09
0.00517337
3.36499e-05
2.79727e-09
0.00372003
0.00147207
0.0021643
0.000168224
0.00108757
0.0039325
1.58476e-08
1.2914e-08
0.000546941
1.14133e-08
0.00434013
0.00142305
0.00279118
5.15167e-09
0.224942
1.87778
7.58094e-09
5.01792e-09
0.000595948
0.00213586
0.000906612
0.00247884
4.83678e-05
0.00713823
0.00247092
0.00318014
0.00155815
0.00276866
0.000211211
9.41237e-05
0.00113973
0.00010885
0.00134027
0.000236776
2.96913e-09
0.00157171
0.10975
0.000238014
5.05817e-06
0.000607873
1.45357e-09
0.00243062
0.00382301
6.23694e-05
0.00244237
0.000119485
1.78128e-09
0.000439477
0.000176026
0.00830026
0.000799369
0.000584616
0.000114253
9.60349e-10
7.96721e-06
0.000326957
0.00202962
0.000307099
0.000815561
0.000893264
0.0197974
0.0918501
0.00136053
3.36139e-05
0.00233341
0.00319777
0.0415744
3.85546e-09
2.14534e-05
0.000454436
0.00354636
0.000144973
0.00167086
0.000428464
0.0107964
0.0473358
0.000145433
0.000422811
8.00473e-05
3.53431e-07
0.000378101
0.00140704
1.16967e-10
0.00215041
0.000190213
0.000191453
0.0114404
0.00440208
0.0393885
0.000806703
0.0013858
0.00211566
0.00244221
0.000242319
0.00118235
0.000650654
0.00015845
2.25389e-10
1.076e-09
0.00660488
0.000821666
4.53629e-05
1.49465e-09
0.0064248
0.000695085
4.43201e-06
2.72252e-09
0.00343033
4.17944e-08
0.000504397
0.000362119
5.01885e-08
0.00197975
0.00916632
0.000450359
1.38544e-09
0.000646931
0.0617522
0.003234
0.00034611
0.000950616
0.00144834
0.0257922
0.00881171
1.32176e-09
0.0553159
0.000419033
0.00258186
0.000344566
0.00942328
6.52646e-05
1.4811e-07
0.0112411
0.00449356
0.00053216
0.00307657
0.0608957
0.000550697
6.94953e-05
0.246233
0.0023261
0.000734971
0.00240303
0.00190751
0.00172219
5.23028e-06
0.0152841
9.95585e-09
0.0600734
0.0031702
0.0246763
6.85142e-10
0.000211729
0.105194
0.235947
0.000599772
0.000320636
0.0497094
0.000383643
0.00224371
0.00520806
0.00194309
0.00832062
0.00411208
7.80982e-09
0.000401561
0.00197455
0.014175
0.000373922
3.50175e-10
0.00269279
2.50207e-09
0.00434305
0.000700114
0.000223676
0.00609323
0.00523239
1.22925
3.75151e-09
0.0244855
0.00969354
0.0210627
0.00106928
0.00475281
0.000326089
0.000957662
0.00163771
0.00230246
0.0066858
0.0111346
0.105843
0.00218952
0.0054531
0.000541187
7.04798e-09
0.000383091
0.000367227
0.000233103
1.55824e-09
0.00320551
0.00106152
0.00943819
0.000215041
0.000718836
0.00158245
1.69509e-07
0.0068923
3.59699e-09
0.0010044
5.95861e-05
0.00130485
0.000114024
0.0136987
0.000651795
0.0017956
0.0201646
0.21006
8.37181e-05
0.00876975
0.0011422
0.000689724
0.000444795
0.000428746
0.00379501
0.000844641
0.007421
0.000561237
0.00627358
0.00228644
2.02554e-05
0.000401155
7.8881e-05
8.58721e-05
3.33961e-05
0.000503644
0.000275315
0.000319942
7.69185e-09
5.18195e-09
2.14064e-09
0.000487225
1.98834e-09
0.00557949
0.00506742
0.00153874
0.000499714
0.00406191
0.000395462
2.93742e-09
0.0156228
0.000469628
0.000330802
1.30454e-09
0.0358661
0.004891
0.000879412
8.17547e-06
0.000335862
0.0106146
2.638e-07
0.00981681
0.000832564
0.000532568
0.000485064
0.00012841
3.31732e-05
2.46563e-09
0.00134204
1.50443e-09
0.00877471
8.98242e-08
0.00209793
0.000108822
7.09211e-05
0.00163725
0.00165162
0.000598266
0.00192496
0.000509627
0.00202585
0.000307135
1.24831e-09
0.0023267
5.98414e-05
0.00026654
0.00423774
3.0537e-09
0.000267579
0.00372869
0.0183023
0.000319936
0.00105619
0.00299967
0.000506847
0.00460621
0.000633463
0.000584034
0.00449435
0.000148996
0.000379941
0.00245201
0.0016298
8.57547e-09
0.00261069
1.20621e-08
2.91589e-09
0.0651747
0.000412252
0.00150023
0.0027174
1.49197e-07
2.03953e-09
0.00276412
0.00414849
0.00538873
0.0202501
0.00398154
7.0976e-07
0.0410348
9.55084e-05
0.00132781
0.115426
0.000222755
0.00459082
0.00450156
0.0327391
0.0585093
7.36511e-09
0.00254334
1.63266e-09
0.0246793
0.0002699
0.000347213
0.00141473
3.83027e-10
0.000761136
0.00245241
0.000578303
0.0019533
0.00680726
0.00283303
0.00328143
8.37603e-05
0.0250007
0.000734951
0.000140191
2.52052e-08
0.000825859
5.69699e-05
0.00238121
0.00106983
2.05593e-07
4.78553e-05
0.00552413
0.000294937
0.000159786
0.000106295
0.00539504
1.44926e-09
0.000142369
0.00958436
0.00357552
0.00029405
0.000414961
0.000265255
0.000125711
0.000423559
2.36759e-08
7.5164e-09
0.000429215
0.00233997
0.000466222
0.000397701
0.0141539
0.0190873
0.0178272
7.61552e-06
0.00184145
0.00292899
0.00271298
0.00484725
0.00599595
0.000397787
0.000284504
0.00255889
4.39417e-05
0.0110465
0.0565424
0.00197692
0.000443722
2.15986e-08
0.000538422
0.000101237
0.00114498
0.00226214
0.00234579
0.000608739
6.86775e-09
0.000122734
0.0023736
0.00235714
0.00231772
0.00377618
0.0471889
0.000395621
0.00190296
0.00200505
0.0227534
5.63744e-10
0.00039724
1.42836e-05
0.00460727
0.000453885
0.0016019
0.00468225
5.77415e-09
0.00367264
0.00356352
0.0040777
0.00550213
0.00949183
0.0100853
0.00817901
0.00522457
0.00580084
4.79103e-05
0.000148819
0.000475249
0.00599627
0.00473889
0.00222651
5.359e-10
0.0017417
0.00390622
0.000246877
0.00161711
2.77218e-10
0.0145727
0.000126371
0.0405547
0.00314949
0.740864
8.13851e-06
1.56473e-08
0.00211445
0.00317178
1.78597e-07
0.000760263
0.00399367
0.00701025
0.00430491
0.000634098
0.00684562
0.000542247
1.04723e-09
0.0197394
0.000765795
0.000925432
0.00115841
0.00267855
0.000322772
0.00112666
3.12312e-09
0.000534593
0.00825742
0.00271148
0.0924651
9.37292e-09
0.00240979
0.0819125
2.59331e-10
0.00885167
0.00276959
0.0251766
0.00130962
0.00362833
3.52306e-05
0.000404728
0.00132893
1.54776e-08
0.00124162
4.2241e-05
0.000551878
0.000126539
1.28999e-09
0.00241152
0.00322581
0.0097039
2.93e-08
0.00225748
0.000524484
0.00016114
0.035979
0.0546036
0.00507212
0.000371302
0.00427356
0.458774
0.02413
0.0263043
0.000450783
0.000449091
0.102314
0.000136853
2.28915e-07
1.45159e-06
0.0165084
0.000200935
0.0017054
0.000329529
0.00174598
2.99225e-08
0.00460525
0.00900618
0.00288486
0.000646297
0.000736305
0.000477736
2.25454e-09
0.000130934
0.00365657
2.41202e-10
0.00114408
0.000584381
0.00778143
0.00035542
0.117113
4.476e-05
0.00118454
0.000155204
0.00564603
9.27376e-05
0.00110042
0.00257462
0.000380629
0.00266091
0.000203719
7.58131e-05
0.00285965
0.000275391
0.0187297
0.0121429
0.000577312
0.00150345
0.0836034
0.00297009
0.00400832
0.000114084
2.25092e-07
0.00374827
0.0362531
0.00882993
0.0026427
0.00018227
0.00193364
0.00336511
0.00300436
0.00372357
0.00537544
7.53349e-09
0.116705
0.0513302
0.000493433
1.05476e-06
3.03799e-05
0.0031322
0.00244967
0.0262415
0.00113188
0.000558325
0.00230328
0.00037168
2.8959e-09
0.0035511
4.22348e-09
0.00268505
2.7638e-05
0.00147777
0.00375232
9.20408e-05
0.0198151
0.000147974
0.000434431
0.00364604
0.00413486
0.00204493
0.00209723
0.0119194
0.000579702
0.000345169
0.000375419
0.000265119
9.30812e-06
2.32526e-09
0.000191964
7.28656e-05
9.71948e-05
0.000781456
0.000646993
0.000853206
1.63641e-08
1.97525e-08
3.44871e-07
0.000308121
0.00267105
0.000496407
4.34939e-05
0.000238787
1.674e-08
0.000315453
0.000232059
0.000223587
0.00392648
0.103612
5.53347e-05
0.00477751
0.00165998
0.00412519
4.88526e-09
5.40938e-08
1.73461e-08
0.00844208
0.0197541
0.00478266
0.00235752
2.26108e-08
0.000586609
0.000377619
0.00474345
0.00956582
1.04566e-08
0.0051619
0.00280808
0.00107467
0.00353223
0.00263955
0.0145666
0.00185602
0.00384338
9.22176e-05
4.63933e-10
1.39258e-09
5.3067e-05
0.00561161
8.42534e-06
6.33343e-10
0.00027111
0.00502501
0.000210588
0.00100906
0.00101733
5.99454e-05
0.00191182
4.77836e-05
0.00388708
0.000618079
0.00208666
0.0285055
0.00211686
0.00121295
6.31093e-05
2.25159e-07
0.00101849
0.000983776
0.014624
3.18839e-10
1.22084e-07
0.00127379
1.22676e-07
0.00086839
0.000221779
1.46989e-07
6.88519e-09
0.0002149
0.000282976
0.000584269
0.0021963
0.00208092
0.000282163
0.000574303
2.51345e-05
1.0731e-08
0.00505957
0.000205533
6.52929e-10
0.0469946
6.57691e-05
0.000574262
0.000283456
6.1092e-08
0.00040696
0.000547251
0.000209094
0.000563699
0.000743032
0.000947018
0.000338162
0.00276287
0.00428554
0.00129529
0.000350907
0.0632279
0.0023829
2.16099e-07
0.00606997
0.00288842
0.00667787
1.21587e-05
2.24599e-07
0.351244
0.000533477
2.47664e-08
0.000530881
0.0255883
0.00306325
0.000635586
0.000492202
0.000369618
0.00322308
0.036085
0.0048207
0.00870689
0.014287
5.58919e-08
0.000340285
1.66182e-09
3.63397e-05
0.0083188
0.000746787
0.0748198
4.1583e-10
0.000489003
6.3404e-10
0.000532957
0.00031362
0.000377257
0.0105297
0.0181628
0.00054471
0.0018335
0.00450104
6.26805e-09
0.000235197
0.000994074
0.00204149
0.000398741
0.000791744
0.00750674
0.0106956
0.000592006
0.00171373
0.00266896
3.7132e-05
6.38518e-09
0.000432447
0.0138186
0.0116437
0.00504194
0.0476073
0.00273435
2.09014e-05
0.00524319
0.000184408
0.000681618
0.00106947
0.0222627
0.000285927
0.0203702
0.0115273
0.0345044
1.82261e-09
0.102484
0.00877499
0.00173032
0.00460861
0.0641277
0.000399369
0.00281009
0.00239117
0.00228696
0.00810943
0.00112491
3.6127e-08
1.24262e-05
0.00203104
0.0249232
0.297545
0.000156423
0.00908526
0.000291603
0.00125664
0.000444878
0.18934
0.000621396
0.285906
0.780044
0.000103935
2.24065e-09
1.90001e-08
0.00136369
0.0106222
0.00568442
0.0101954
0.0636802
0.0342817
0.00183946
0.00163784
0.0104897
0.0113565
1.21114e-08
0.00052382
0.000427673
0.000354444
0.000421573
0.000637651
0.138838
0.000272692
0.0029256
0.000398956
0.00307855
0.00201944
0.00221777
4.53964e-10
0.478662
0.0315043
0.184242
0.147137
0.00215874
2.0163e-09
0.0065458
0.00125113
0.000371256
0.000761567
0.0854217
8.8898e-10
0.00178766
0.000539357
0.000207824
0.0166586
0.000121552
0.00854063
0.000490105
0.000703061
0.00185726
0.00063486
0.00114175
0.0129734
2.93759e-05
0.0024342
0.00185871
0.0180658
4.94696e-09
0.000502806
0.00155078
0.015252
0.00164886
0.000165644
0.00226647
0.0313777
0.000499091
0.000196445
1.78132e-06
0.00215494
0.00213608
0.00302571
1.46588e-08
2.96053e-05
0.000219393
0.000298094
0.00380894
0.00165275
8.22901e-08
0.00269402
8.69861e-10
0.0107135
0.00133753
0.000804586
0.00191965
0.00173486
0.00954301
0.00057915
0.0137896
0.000306382
0.000423327
1.17178e-09
0.00037871
0.000405407
0.000581334
0.00196189
0.000698014
0.00163215
0.00947529
0.00173242
0.000460527
0.0189202
0.00225151
0.00131074
0.0145236
0.0075212
0.0122547
0.0130949
0.00624995
1.64011e-07
0.324283
0.0621449
0.000811534
0.00057343
0.0147202
0.000911467
0.0242186
0.000102151
0.000403271
0.0143463
0.00112505
0.0067851
0.000614692
0.000577411
0.0075721
0.000890789
0.0312517
0.357402
0.00114986
0.0577097
8.37124e-10
0.00025611
0.00435192
1.6542e-06
0.102679
0.00244211
0.00164467
0.000443022
2.47552e-09
0.00339882
0.0027961
5.12129e-10
0.000489128
0.0261251
0.000618779
5.77958e-05
0.0618523
5.11383e-07
0.00273996
7.88084e-11
0.000345761
0.0023939
0.000152641
1.16411e-09
0.00218549
1.11199e-08
0.00250676
0.000522885
1.87541e-09
7.87808e-08
0.00438872
0.00209936
0.00279754
5.44321e-10
0.00221587
0.000627684
0.00279818
5.0566e-05
0.0315895
4.57082e-08
5.7407e-05
2.74891e-09
0.00161577
0.0372303
5.03733e-09
2.80292e-07
0.000274717
0.00254525
0.000453099
0.00197501
0.296836
2.56686e-09
0.000231934
0.0023226
9.09453e-10
3.76885e-09
3.97844e-08
0.000175701
0.000502529
0.000847131
0.000529725
0.000106059
0.000197455
5.8876e-11
0.0114121
0.000221104
0.000394062
0.00148057
0.00394827
0.00385456
0.0445187
3.12297e-10
0.000172193
0.000122903
8.52579e-05
0.000106868
0.00277953
0.000620047
0.00051408
0.000120291
0.000348256
0.00038168
1.10207e-07
4.27238e-08
8.38527e-05
0.0226589
1.88752e-08
0.00847818
0.000123305
0.0155156
0.0018307
0.000118707
4.73713e-05
0.00431897
1.17595e-07
0.00408816
0.0192956
0.00222066
6.11068e-05
1.49533e-08
0.000149848
0.000860616
0.000347678
0.00386214
0.0164765
7.15281e-05
0.0104261
1.09561e-09
0.87886
0.441121
0.000109258
0.041412
9.79757e-05
0.00039061
0.00939822
1.03432e-05
0.602016
0.0442525
0.00755846
0.000621693
0.0283305
0.393478
0.00291643
0.0249332
0.00437143
0.00222046
0.124679
0.0439142
0.000576844
0.000952333
0.0260239
0.0486344
0.00414113
0.00030971
0.0330086
0.000205675
0.0141032
1.08874e-08
7.14e-10
0.00660392
0.00021334
0.00421618
0.00392929
0.000123795
0.000130273
0.000295652
1.08547e-09
0.00780904
0.00606012
2.82635e-09
0.000441887
0.00171675
0.00228616
0.00403638
0.000384411
0.0115696
0.0631866
4.56384e-07
0.033116
0.000139837
0.00431313
0.000144122
0.00224111
0.030202
0.00414037
0.000222483
0.0272085
0.000305443
7.62404e-05
0.000365912
0.000259136
0.000626653
0.0075485
0.0258261
0.014738
0.00740825
0.00550196
0.00105305
0.00140167
8.54346e-05
0.000136172
0.00413609
2.82917e-06
0.0048204
2.94215e-06
3.6176e-06
0.00159408
0.00144833
0.00175659
9.29162e-08
0.010381
0.00187364
1.62421e-05
0.00340721
0.000275896
0.00183753
0.000459346
0.00680496
0.00231618
0.00509183
0.000441453
0.00636026
0.00236854
0.000106904
0.00238883
0.00328822
0.00191063
0.00153659
4.42743e-09
6.33015e-09
4.80602e-05
0.0346232
0.00179663
0.00703172
0.00183939
0.000210993
0.00334567
0.00836964
0.00228108
0.00284935
0.00361901
1.23899e-06
0.00182255
0.00189353
0.000297792
4.15393e-05
0.00300257
0.00272391
0.0079873
0.0289214
0.00167275
8.48047e-05
0.00300457
0.000329675
0.00425531
7.57179e-05
0.00616208
0.000347318
0.00278382
4.7443e-07
0.000732756
0.000930423
0.00721347
0.000306216
0.0199816
0.00613882
0.000270986
0.00138942
0.00158785
0.000251659
0.000201125
0.00248799
0.021896
2.64725e-09
0.0377737
0.00208455
2.81719e-06
1.32682e-08
0.00188561
2.87479e-08
0.000870433
0.0137435
0.0231246
0.00208853
0.0117962
0.00153789
1.77822e-08
0.00439952
0.0145336
0.00044663
0.00163062
5.11561e-08
0.0829334
0.0418874
0.000164594
0.00243879
0.00154787
1.96043e-09
3.22654e-09
0.033767
0.00857655
0.0158698
7.67952e-09
0.00100595
0.000103582
0.019271
2.49511e-09
0.00338203
6.54832e-09
0.00104933
0.0202428
5.30345e-05
0.000399907
0.00444324
0.00156234
0.00265821
0.00160699
0.023438
0.00022811
0.00208244
0.0199799
2.05724e-05
0.000410058
0.000434187
0.000366048
0.00236951
0.0134367
0.000465728
2.30267e-08
5.23123e-05
0.00141075
9.4084e-09
1.01403e-09
2.10616e-07
2.61125e-09
4.85704e-07
3.63515e-05
0.0116872
0.0050021
0.000370742
0.000460495
0.00029235
0.0622967
4.02242e-10
5.02408e-09
0.0180909
0.00279771
0.00186037
0.00331718
0.000518424
1.49305e-07
0.0184363
0.00216677
0.0229766
0.000774843
0.0496903
0.0141824
0.000125169
0.0257646
0.00326288
0.089453
0.0074874
5.63684e-09
3.55187e-05
0.256316
0.00674047
0.000993754
0.0031023
0.000162453
0.00330588
0.0308639
0.0108747
0.00292525
0.144453
0.00634854
1.35803e-09
0.0178576
0.0638888
0.0347935
0.0013271
0.00261956
0.000211004
0.00281784
0.000674843
0.0190173
0.0197095
0.000894217
0.0522594
0.0229987
0.000621998
0.00262246
0.0136667
0.00324901
0.000707277
0.0504691
0.00261263
0.000110748
0.0108585
0.0108106
0.0217581
0.00261658
0.000270582
0.00280863
0.016314
0.000358062
9.41182e-05
0.173262
0.0033404
0.00122791
0.00159645
4.63648e-05
0.00435198
2.63878e-09
0.0185739
0.00254204
0.0140793
2.49765e-09
0.00555218
1.12538e-08
0.0164649
0.00030144
2.81826e-09
0.00868297
0.00278057
0.00663976
0.00772653
0.00211006
0.0158118
0.000134328
0.0156157
0.00669409
0.00926288
0.0563626
0.00557535
0.0290249
0.0344588
0.0169821
0.00114057
0.00453464
0.00265299
0.000986487
0.000918056
0.00397941
0.00222128
0.00064736
9.87963e-09
1.34411e-07
0.00237273
0.00133966
0.00128005
0.0536411
0.00325147
0.00276114
3.98701e-09
2.36145e-05
0.00045092
4.6117e-08
0.00258811
0.0298007
0.00253972
0.0019265
2.29665e-06
0.0170456
0.00255102
2.02201e-06
2.67947e-06
0.000216325
0.0347736
0.00667783
0.000517143
0.00230267
0.00447496
0.000219229
8.82849e-08
0.00487878
0.000429644
6.728e-07
1.24174e-09
1.65578e-09
0.00187322
0.00221627
0.001044
0.00863519
0.10287
0.00024603
9.3557e-10
0.00356728
0.000288453
0.0111124
0.00241144
2.50598e-06
1.33777e-06
0.00319788
9.89546e-09
0.0101075
0.0727013
0.0453483
0.000171642
0.000525358
5.50024e-05
6.50726e-09
0.00263419
0.00392906
0.000450983
0.00273531
0.0142919
0.00193869
0.000277032
0.00230958
0.000429161
0.0298038
5.01717e-09
3.70046e-08
0.0109886
0.0023437
0.000564921
0.00465618
0.000615574
0.000105855
0.00051167
0.00247676
0.0226712
1.99061e-09
0.000114136
0.000299816
0.00702145
7.82534e-05
0.000696436
5.54132e-07
0.00128345
0.00963045
3.64941e-05
0.028579
1.03405e-09
5.08914e-05
0.00237428
7.51895e-05
0.000338145
0.00345835
0.00118954
0.00239809
0.000404369
0.00181242
3.05696e-09
1.83893e-09
0.00226732
0.00330275
0.00336491
0.300879
0.00164027
0.0009525
0.00223017
0.00295714
0.000284105
0.000246575
0.00372733
0.00215465
0.00309049
7.08228e-05
0.000905221
0.0139979
0.00279161
0.111983
0.00086509
0.010139
0.0102801
0.0124274
0.00126087
3.03518e-06
2.17546e-06
2.2805e-06
0.000101135
5.07757e-09
0.000257375
0.0116884
2.95539e-11
3.3675e-09
0.00375266
9.48815e-07
0.000135027
0.0149181
0.00196553
0.00301044
0.00190812
0.00227802
0.000292592
0.00159201
0.000252658
0.0241906
0.0134935
0.0101435
0.00191471
0.000139771
0.00158474
0.000361163
5.83245e-06
0.000248151
1.4138e-07
0.00216876
0.0110608
0.0069675
0.00161653
0.00184752
0.00255776
0.00232546
0.00176681
0.000342286
0.00412281
2.92572e-09
4.1253e-05
7.60168e-09
1.38838e-06
0.00277018
6.72049e-05
0.000333349
0.00227705
2.36631e-09
0.00010388
6.65683e-05
3.15504e-06
0.0532407
0.000487615
0.000677404
5.27737e-05
0.00285491
0.00221257
0.00194811
0.00343668
3.90139e-05
7.52531e-07
0.00105424
2.75611e-05
0.0194762
0.00321193
0.0242029
0.00159574
0.0512151
0.000295965
0.00118281
0.0001835
4.18323e-08
0.0037385
7.27102e-05
0.00135989
0.000103832
0.00221462
0.0193232
0.00166076
0.00232925
0.00880687
0.00239375
0.0108106
0.00358918
0.00163504
0.000933123
0.00502246
0.0296401
0.000302719
5.10908e-10
0.0632469
0.00892135
0.00648614
4.22164e-05
0.0650811
0.00193635
0.0150631
3.23275e-05
0.0172355
0.00323807
0.00136151
0.00245141
0.00235332
5.768e-09
0.0403923
0.0144554
0.0145846
0.0031458
0.00232146
0.00158815
0.003332
0.000923057
3.28002e-09
0.00166361
0.00313802
3.04188e-08
0.000130161
0.00169065
0.0361795
0.00308297
0.000347414
9.61954e-08
0.000406582
0.0016924
0.00045634
0.00151553
0.000732782
1.51241e-06
0.0140953
0.00025182
0.000666464
0.00205932
0.00125249
0.000128543
7.48507e-05
0.00017646
0.00205092
0.00293992
3.58227e-10
0.000108197
0.000672208
0.000103276
1.10268e-06
0.0167234
0.000217109
0.00329014
0.00153037
0.0015049
0.00211197
0.00695042
0.00426027
0.000590274
0.00398065
6.86175e-05
0.00228168
0.00435184
9.47505e-06
0.00746752
0.000391421
0.00296601
0.00187209
0.0998097
0.000469265
0.000193079
0.000516271
9.28535e-09
0.00137863
0.00297205
0.000199087
1.62321e-05
0.00137717
0.0054016
0.000583389
0.00287201
3.52773e-07
0.000464168
0.0095397
0.00241573
0.000140561
0.00214471
8.51053e-08
0.00419767
0.00338178
8.03542e-08
0.000291155
0.0036567
3.31464e-07
8.52091e-07
0.000344637
0.000198928
0.12031
6.93794e-06
0.000565129
0.00323421
0.000105635
0.0118085
8.41058e-06
0.00274151
0.0001217
7.9945e-05
0.000525101
1.84662e-05
0.000205956
0.00295146
3.86365e-06
0.000109037
0.000122289
0.0184955
0.000601844
0.000359454
0.000357676
0.00217767
4.50266e-05
0.00311685
0.00456863
5.09398e-09
0.000360669
3.05104e-09
0.00116756
1.47559e-05
0.0124804
0.000290726
0.00158117
0.00218887
0.000126765
0.084379
0.000378089
0.00306158
0.00110987
4.8137e-08
0.00236867
0.00498746
0.0267095
0.0112794
0.000410464
2.24178e-05
0.0378714
0.0398932
0.000563895
0.0179672
0.00842802
0.000393014
2.77522e-08
0.00063643
0.00034171
0.000317252
0.000460465
0.00433864
1.08172e-07
0.000162869
2.69415e-05
5.78432e-05
0.00603926
7.73038e-05
0.00247025
1.37292e-08
1.38953e-08
0.000192586
1.22004e-07
1.65772e-09
1.00305
0.000184211
0.0193908
0.00305508
1.69921e-07
0.00029709
0.0176927
0.00188662
7.18055e-09
0.00238243
0.00566722
3.699e-08
2.36723e-08
0.00039597
3.27081e-09
0.00222895
0.000554587
0.00248378
0.00486881
5.96573e-06
7.00123e-05
0.0197765
0.00283533
0.00306213
0.000394481
0.00355691
9.59569e-05
9.34986e-05
0.00237131
0.00931207
0.0126636
0.0060373
0.000756883
0.000178249
0.00252722
0.00190442
0.00202007
0.00267069
0.000228778
0.000310611
0.00366698
0.0016908
0.00332997
0.00270884
0.000751769
0.00464271
1.07276e-09
1.47299e-09
0.0227665
5.1732e-09
0.000906534
0.00209595
0.00329989
0.00979635
0.0038534
8.02795e-05
0.00714356
0.00376642
0.000124955
0.00343694
1.49218e-08
1.32061e-08
1.85641e-08
0.00361367
0.0129444
4.636e-08
0.0060428
0.00159535
0.151068
0.000168301
0.00373266
3.05946e-05
0.0121109
7.43087e-09
8.48205e-05
1.53356e-08
0.0221721
1.01621e-08
0.00275001
0.00260879
0.00311651
0.0067439
0.002157
0.0022002
0.0168414
0.00688016
9.12065e-09
1.51447e-08
0.0122969
0.000323876
2.94625e-07
0.00189989
0.00359427
0.00188938
2.10224e-05
0.00010715
0.00467769
0.00326703
0.00206826
2.7064e-05
0.00320024
0.00189574
0.00062496
7.56495e-05
0.000115885
0.00269594
0.0186577
0.00284618
0.001556
0.00708643
0.000490447
0.0313765
0.00131879
0.00746303
0.000252952
8.40308e-05
0.000236107
9.4564e-05
0.000447644
0.00068674
2.70258e-08
0.00365613
0.000604121
0.0372872
0.000767241
0.00785588
0.00214048
0.00740976
0.00331316
0.0149107
0.01746
0.00141324
0.00974807
1.04916e-05
0.000372782
0.00130014
0.00182395
0.000221571
0.00404204
0.0005561
0.00307584
0.000101157
0.00265016
0.000504256
0.00265514
0.00133601
0.000427413
0.0266203
0.000161578
0.00130444
0.000371201
3.10288e-05
0.000138295
0.00542
0.00245482
0.00202129
1.85458e-08
0.00159631
0.00312608
0.000250229
0.0156503
0.0132501
6.18869e-09
0.00020853
0.00174117
0.000100009
0.0002873
0.00047128
0.0004504
2.3756e-05
0.00320137
0.000451074
0.00532006
0.000526644
0.00115995
0.000540995
0.00837254
0.00526234
0.00883326
2.51498e-08
0.054008
0.0219368
0.0970555
0.00186408
0.000146008
3.06237e-07
0.000301205
0.00673879
0.0101379
0.030127
0.0246733
0.000421603
1.57291e-05
0.00777042
0.000401147
0.017375
0.301386
0.0173822
0.000345309
0.000448702
0.0159594
0.00161854
0.000459698
0.000724504
0.163085
1.37354
6.94451e-05
6.32822e-05
0.000367555
0.00484885
0.00104653
0.00185618
0.00269097
0.00197197
0.00439072
0.000881438
0.00222079
5.07403e-09
0.00255689
0.00284084
0.00256451
0.00044408
0.000144304
0.000182579
0.00470003
0.0145284
0.00403496
0.00287517
2.45369e-08
0.00159744
0.00137025
6.6173e-05
1.69542e-08
0.00870784
5.40927e-09
0.0313597
0.000107664
0.0487345
0.0149658
0.000245957
0.00495619
1.0062e-05
0.00237314
0.000132871
0.000871399
0.0836607
1.1452e-05
3.11059e-08
8.26677e-06
0.00388116
0.00341511
0.00151423
0.00099566
0.000976231
0.00126375
0.00104016
0.00182276
0.00128432
0.0680352
0.0265388
0.00284945
0.00150485
0.00287749
0.0668586
0.0120121
0.00410729
0.000286917
0.00726403
0.00268418
8.15137e-05
5.15944e-05
0.0048181
0.00681568
0.0172435
0.00521377
2.45489e-08
0.00455789
0.0374103
0.0244939
0.00323969
7.6605e-05
2.87573e-05
0.0397863
0.00146017
0.010235
0.000417485
4.03685e-08