/*--------------------------------*- C++ -*----------------------------------*\
  =========                 |
  \\      /  F ield         | OpenFOAM: The Open Source CFD Toolbox
   \\    /   O peration     | Website:  https://openfoam.org
    \\  /    A nd           | Version:  10
     \\/     M anipulation  |
\*---------------------------------------------------------------------------*/
FoamFile
{
    format      ascii;
    class       volScalarField;
    location    "6.3";
    object      SgT;
}
// * * * * * * * * * * * * * * * * * * * * * * * * * * * * * * * * * * * * * //

dimensions      [1 -1 -3 -1 0 0 0];

internalField   nonuniform List<scalar> 
111485
(
7.38523e-18
9.75832e-06
2.79943e-05
2.09257e-19
5.8555e-05
2.42183e-19
5.43895e-05
7.20759e-06
2.25587e-05
1.4134e-06
5.48332e-05
1.11881e-05
5.59101e-06
9.94977e-07
7.74225e-06
3.67313e-05
1.65573e-06
0.00308529
1.24013e-05
3.00751e-18
2.02295e-17
1.51499e-18
3.09335e-05
4.16343e-05
1.05315e-05
2.57989e-18
4.7896e-05
2.15794e-06
1.87127e-05
8.20492e-18
5.4694e-05
2.23634e-05
3.92849e-17
1.52636e-18
8.60439e-06
5.11079e-17
1.31196e-05
4.95065e-06
5.2054e-11
2.7722e-05
3.08116e-19
8.51285e-05
1.88683e-05
1.66166e-06
6.74596e-08
9.7877e-17
3.66751e-05
8.54479e-07
5.68372e-05
1.37296e-18
5.9912e-18
1.21277e-17
3.04871e-17
5.9848e-05
1.90245e-17
5.19889e-05
3.86862e-06
1.74171e-18
2.66898e-08
5.69983e-06
1.92051e-05
5.51553e-17
5.48579e-06
0.000115323
5.48924e-18
3.93343e-06
0.000377256
0.000113541
1.26651e-06
6.98723e-06
1.43726e-08
7.47911e-06
4.01907e-18
3.32748e-06
1.59009e-17
8.27779e-07
2.18422e-18
5.00844e-05
2.06457e-18
3.99338e-17
5.05086e-09
4.01097e-05
1.99641e-17
6.70509e-18
1.07499e-05
4.81677e-06
5.18179e-13
2.98916e-05
6.83733e-08
8.63388e-06
3.9202e-07
4.90596e-05
1.37014e-05
7.20895e-08
6.3659e-05
2.94407e-17
7.516e-18
2.05646e-06
2.7658e-11
1.43777e-06
1.26396e-17
2.20339e-05
3.17541e-19
2.24378e-05
5.58972e-06
1.02211e-17
2.16183e-19
9.0633e-06
4.66224e-06
8.44348e-11
6.78459e-06
5.75172e-06
4.31442e-06
3.69152e-06
4.88531e-18
3.93966e-08
2.9848e-18
5.62421e-17
1.49746e-05
2.30064e-17
6.33092e-19
5.0405e-18
9.85582e-18
6.64218e-18
2.04531e-06
3.40937e-09
1.65085e-18
1.9456e-06
1.37922e-18
5.05823e-08
1.61556e-06
3.81969e-05
2.07998e-17
1.15342e-17
1.59901e-18
5.84492e-05
1.63925e-18
5.048e-05
2.98601e-05
3.28446e-06
2.71449e-07
2.39943e-06
2.67033e-05
3.32965e-06
4.71986e-06
1.5378e-05
7.4106e-18
5.74881e-18
8.58252e-18
3.31993e-05
1.94687e-06
8.38722e-19
2.4504e-10
5.85133e-06
5.44889e-10
1.26912e-05
1.98086e-05
1.26415e-05
8.53697e-11
3.23493e-18
2.46878e-18
6.26949e-05
2.822e-05
2.42457e-09
3.96642e-10
6.81689e-06
4.22168e-06
9.10444e-18
5.9628e-09
5.6884e-08
9.95782e-19
1.37402e-18
1.61447e-07
9.69196e-20
6.90624e-06
2.56179e-06
2.23708e-18
2.51904e-18
5.77073e-18
9.81469e-18
1.12703e-18
1.7346e-18
1.71975e-06
8.14422e-06
3.51245e-05
5.01023e-06
8.79175e-06
4.69839e-06
9.70221e-08
1.08119e-17
5.59864e-06
4.8994e-19
1.01157e-17
7.65054e-06
1.26372e-05
3.26506e-05
1.32084e-05
5.87188e-06
2.5405e-17
7.81143e-06
6.18941e-07
5.28788e-08
1.61652e-05
2.78452e-06
9.34318e-17
4.35635e-06
3.1336e-05
5.37506e-18
2.08003e-07
9.14727e-06
2.49302e-06
4.13574e-07
4.13868e-18
1.48324e-17
9.6375e-06
1.16771e-14
0.000145182
1.38696e-18
7.81319e-06
2.40853e-05
0.000144606
1.81762e-17
3.67503e-06
1.62815e-05
2.44032e-16
8.24793e-19
1.44364e-18
0.000184476
3.59011e-10
3.86364e-18
7.44231e-18
1.14746e-05
9.36341e-06
1.80852e-05
1.21551e-17
1.92551e-18
1.52919e-08
2.30207e-17
3.00483e-06
1.08436e-05
1.89073e-05
1.383e-05
1.17538e-05
1.93659e-18
3.19622e-10
7.34924e-07
3.90175e-18
5.70745e-18
3.65707e-05
2.49139e-05
3.14816e-17
7.42521e-06
1.25629e-05
7.84281e-18
2.10958e-18
1.66573e-07
2.70117e-18
3.01086e-18
5.02029e-08
8.17042e-18
1.80853e-05
1.31882e-05
4.47132e-06
8.4654e-17
1.38928e-05
1.42513e-18
1.0498e-18
2.31344e-17
2.59772e-11
2.74736e-05
7.29813e-06
6.20881e-06
4.39233e-05
1.44066e-05
1.94582e-06
6.80403e-07
3.95012e-05
1.07879e-05
1.09556e-18
3.73833e-18
3.16854e-10
2.68113e-05
2.89826e-05
1.45874e-05
3.18931e-18
8.30336e-06
2.52657e-06
3.55629e-06
4.37292e-09
4.33766e-09
1.59898e-05
2.65343e-06
2.3289e-06
2.83436e-17
8.22008e-07
3.6385e-18
1.4152e-10
3.02137e-16
0.000295542
8.16381e-05
1.46887e-05
2.51656e-17
5.45883e-19
1.06624e-05
2.00718e-06
1.60731e-17
3.5063e-18
7.23151e-17
3.77959e-07
7.08079e-05
4.59303e-06
1.68181e-05
2.28825e-05
4.8147e-18
1.22568e-18
1.29093e-18
4.54216e-06
1.44658e-15
1.19762e-06
0.000223279
4.11293e-10
4.30795e-18
9.94987e-18
3.36934e-18
5.16527e-18
7.10569e-05
1.44437e-05
3.0016e-18
6.16313e-06
3.2114e-17
7.22557e-18
8.22861e-05
6.87871e-06
1.33492e-05
1.10269e-05
9.76004e-18
2.99332e-19
6.42409e-18
1.10927e-05
2.23919e-05
6.04409e-06
5.03552e-19
3.81733e-13
2.01371e-07
2.47962e-06
9.47507e-06
4.61545e-08
3.40198e-05
2.72892e-18
4.48168e-05
4.14803e-06
9.26816e-06
2.95657e-05
1.64285e-05
7.89731e-18
1.14348e-17
2.83794e-18
5.15244e-18
3.78081e-05
1.13622e-05
4.07208e-05
8.06393e-05
3.17581e-18
2.27183e-05
1.04274e-18
8.22262e-17
1.96079e-05
2.10375e-17
8.31408e-05
1.05921e-16
2.68338e-18
2.78466e-05
3.82572e-18
1.64696e-05
3.52641e-07
1.28227e-18
1.23684e-06
1.93704e-05
9.62435e-18
1.04728e-05
1.14352e-05
9.59889e-06
7.37407e-07
3.28216e-06
6.90023e-06
3.94383e-17
3.99461e-17
2.09764e-06
4.86649e-18
7.13645e-06
0.000140475
2.65134e-18
1.95661e-18
3.21628e-05
1.37378e-07
9.7233e-06
2.59466e-05
3.6269e-18
5.29775e-05
2.3184e-05
1.71237e-19
9.69374e-07
3.01102e-06
5.52323e-18
2.66042e-17
1.34136e-05
6.27116e-06
3.38308e-18
1.88733e-18
3.4716e-11
9.98409e-19
1.41829e-05
6.86338e-18
4.35269e-18
2.05607e-05
2.14083e-09
1.49466e-05
3.50152e-05
1.03481e-18
6.75309e-17
1.67038e-06
2.59886e-19
1.70353e-07
1.61622e-05
0.000146857
0.00102971
1.36762e-18
3.26423e-06
5.44454e-07
1.26567e-17
4.60139e-05
3.83314e-05
8.8146e-17
9.36188e-12
1.13271e-07
1.45217e-17
2.89698e-05
2.95543e-05
1.72919e-05
1.47396e-18
7.98111e-07
2.21275e-05
2.75437e-05
9.87772e-10
1.359e-17
7.24962e-13
2.82633e-18
1.63848e-08
3.75106e-05
6.75546e-19
1.03765e-05
1.08165e-07
2.33608e-17
6.35916e-18
6.89487e-18
1.68453e-17
4.80299e-06
1.1582e-05
7.93609e-06
2.58888e-06
3.37969e-06
2.48065e-18
2.42794e-06
4.27055e-17
4.76157e-05
2.43254e-18
1.60961e-17
5.15455e-18
4.27853e-05
2.63469e-17
1.22233e-17
2.37951e-10
4.23027e-19
4.75189e-18
1.22026e-06
1.92364e-17
6.89902e-17
3.58437e-19
7.83889e-18
2.55947e-17
6.12504e-18
1.719e-17
8.69347e-06
2.57572e-18
5.98437e-07
2.24029e-06
1.23765e-06
7.0812e-18
9.61301e-07
5.67279e-19
3.46233e-18
3.38777e-06
2.20458e-06
3.33295e-05
2.94381e-05
2.13826e-17
2.44825e-06
9.60941e-05
1.02408e-05
1.24417e-06
3.97568e-06
4.40234e-17
2.79265e-05
2.89611e-17
5.80013e-06
1.74887e-18
8.98636e-05
1.62785e-17
2.5839e-05
2.88148e-07
3.39334e-10
7.21115e-18
2.45074e-06
1.9158e-18
9.57039e-05
5.78522e-05
3.33512e-19
1.25424e-18
3.2259e-17
1.3643e-18
1.70315e-12
6.54487e-05
1.68842e-19
8.84427e-18
3.06233e-06
2.4223e-18
3.97227e-05
5.14031e-19
3.85743e-07
9.14866e-18
6.031e-07
1.22994e-09
1.24298e-06
1.56416e-05
3.91148e-18
4.78085e-07
6.22234e-18
1.18368e-18
1.83762e-05
2.61516e-18
3.7871e-08
9.71081e-18
1.89291e-06
3.73866e-17
7.79601e-05
1.20781e-17
2.69177e-17
2.04859e-05
4.09005e-06
2.05218e-06
4.77961e-06
7.9971e-06
2.49445e-05
1.12841e-18
2.89564e-05
7.56569e-06
2.19038e-18
9.53736e-11
4.66349e-05
1.75183e-05
1.51002e-17
5.10637e-06
7.71302e-06
1.96333e-06
1.32703e-06
2.81432e-13
1.63336e-05
1.39598e-06
1.67775e-07
2.91674e-05
1.64946e-05
8.07817e-07
4.21961e-18
3.85438e-12
0.000775389
1.44376e-17
4.38947e-07
2.40549e-18
1.04695e-17
8.8125e-06
3.54168e-06
2.45085e-10
1.69342e-08
2.75348e-17
2.01259e-05
1.32734e-05
5.36039e-18
1.28729e-13
2.45164e-06
9.23491e-18
6.90576e-19
2.3575e-19
3.38488e-18
1.62459e-05
8.29898e-19
6.19477e-17
1.0745e-05
2.4178e-06
3.2213e-17
1.25473e-05
7.58339e-18
1.0189e-05
6.60378e-18
6.9098e-18
6.44001e-05
1.35438e-18
6.85787e-18
2.82699e-17
5.37833e-06
5.29618e-17
3.5622e-05
7.50589e-06
4.23242e-18
0.000101523
2.98952e-06
3.36934e-05
3.30859e-05
6.58109e-07
9.69078e-08
1.78229e-19
6.56173e-05
5.46044e-05
5.29671e-18
3.79913e-07
4.78238e-05
9.01117e-06
1.75239e-06
3.27749e-05
3.10005e-05
3.07812e-17
1.28097e-05
6.12464e-09
4.02148e-18
4.08675e-05
3.1628e-07
3.39782e-17
1.30923e-05
4.79182e-05
1.66123e-06
2.50012e-05
2.29835e-05
8.44427e-06
3.54864e-17
1.20383e-05
3.95192e-07
1.58984e-14
2.00229e-05
2.0752e-05
4.29202e-05
2.38626e-18
2.29552e-06
2.87333e-17
1.37226e-18
4.51188e-19
3.07415e-18
1.74266e-08
3.21388e-18
3.00123e-13
3.06288e-17
5.8547e-18
8.68577e-08
5.13731e-05
1.20844e-17
3.9202e-05
2.88123e-17
4.86897e-17
2.11122e-17
4.68624e-05
5.04321e-07
8.46778e-18
1.26434e-16
1.72976e-18
6.16622e-20
0.000256986
8.2721e-05
6.51761e-18
2.30955e-06
2.80861e-09
8.4415e-19
4.42542e-05
9.58348e-06
1.4759e-05
3.6194e-19
8.23055e-19
5.03455e-07
1.29081e-06
2.52709e-18
2.16049e-18
1.59189e-17
8.66804e-06
2.04803e-18
1.92554e-17
1.26602e-18
4.93784e-05
2.33917e-06
8.40515e-19
0.00472832
0.000352783
1.23208e-05
4.0742e-18
2.1732e-17
6.64077e-05
4.70291e-07
1.44318e-18
7.66873e-09
0.00014759
3.04499e-06
1.36741e-05
3.00018e-17
6.46675e-05
2.16893e-06
1.04693e-17
8.05864e-18
3.91709e-18
5.05468e-18
1.93139e-18
3.00001e-18
2.58064e-05
9.83224e-18
4.11112e-18
3.82427e-18
1.39805e-05
2.79413e-05
5.42552e-18
8.04026e-18
0.000127006
1.69513e-05
1.13236e-05
2.62899e-17
2.89905e-18
4.3966e-05
7.54063e-18
2.17532e-06
3.09162e-06
4.54494e-06
6.0951e-18
3.7954e-18
1.70627e-18
1.40034e-19
1.81011e-05
1.90523e-19
9.04676e-18
1.16887e-06
1.35471e-17
2.7073e-05
2.12992e-06
3.68593e-18
4.42809e-05
0.000482743
2.99336e-06
3.49546e-05
1.80799e-07
5.38567e-05
1.55932e-13
1.02541e-17
2.78051e-05
8.44116e-05
7.30974e-06
5.36832e-18
8.67784e-13
0.000859484
1.20312e-05
2.87875e-19
3.09098e-06
3.19388e-06
1.47283e-06
1.77531e-17
1.97994e-17
7.21628e-17
1.56813e-05
9.23e-17
3.03692e-06
5.65661e-18
1.53381e-06
1.64591e-06
4.33409e-05
6.72374e-07
5.06425e-19
1.06784e-18
1.56336e-18
2.45029e-05
2.21225e-19
3.17468e-17
7.48474e-08
1.97711e-18
5.11771e-20
3.09056e-18
1.63684e-19
1.16849e-05
2.85844e-17
8.77945e-19
5.48302e-13
2.52793e-18
1.89642e-17
1.49292e-16
8.84763e-18
3.52783e-09
1.91331e-06
1.55002e-17
4.63655e-06
8.77401e-09
3.63327e-10
7.47036e-08
4.9522e-06
1.431e-18
1.11515e-08
1.17076e-05
4.69411e-07
1.67417e-18
2.40865e-12
9.8235e-07
1.33856e-17
1.14242e-05
2.30595e-07
2.03584e-09
2.84966e-05
1.1011e-05
2.69233e-06
6.13171e-06
2.40601e-06
6.80103e-20
2.72088e-18
3.86259e-05
3.0895e-05
1.03363e-17
9.83245e-06
6.46216e-05
3.39228e-05
4.02113e-18
1.58231e-06
5.13881e-18
1.23643e-05
1.6569e-05
8.16367e-18
1.84629e-06
5.55761e-07
1.47614e-09
5.77097e-06
3.67979e-18
5.8209e-05
1.82707e-08
1.86821e-06
3.95728e-08
1.47867e-08
1.45857e-18
1.39426e-18
8.66033e-06
8.06881e-19
1.3751e-07
3.14976e-07
2.91884e-07
5.91215e-11
8.19734e-11
6.31363e-10
5.53249e-19
4.88997e-17
2.75146e-05
5.88221e-17
2.07569e-07
2.48299e-06
3.42515e-18
8.69085e-18
6.72756e-10
1.03357e-12
4.65202e-19
5.54869e-09
1.56212e-18
3.09093e-18
4.14706e-17
1.78591e-17
6.4487e-18
5.24678e-17
3.44557e-07
3.28322e-18
1.17776e-17
1.13028e-17
7.43703e-09
6.47085e-08
2.16994e-06
1.1098e-05
3.01393e-18
1.4307e-18
2.10952e-07
5.4733e-19
2.49535e-18
1.3202e-16
2.23752e-05
5.04928e-05
1.55273e-18
9.48717e-18
6.14147e-18
4.25064e-18
8.0684e-19
3.46919e-18
8.57564e-06
8.80541e-19
5.74864e-11
3.19943e-05
4.76912e-19
1.76111e-17
7.88311e-18
3.01092e-08
9.28607e-18
4.91689e-18
1.28727e-18
1.02985e-08
6.25002e-19
5.37193e-06
1.16522e-09
6.31135e-12
3.69632e-19
8.09248e-08
2.51225e-06
5.29262e-05
3.24227e-18
8.96181e-09
6.93676e-06
1.13919e-17
1.33079e-18
2.55927e-17
1.82004e-17
9.89127e-06
2.06612e-06
4.03831e-06
2.04403e-10
2.0313e-19
2.66695e-05
7.56722e-18
1.11769e-17
2.34961e-17
2.22264e-18
3.12188e-05
7.02506e-18
1.70902e-17
2.18916e-09
6.08228e-05
4.34827e-18
2.96705e-06
1.84585e-17
1.05021e-06
5.54541e-18
3.01248e-18
8.99058e-19
1.97528e-18
2.9799e-06
7.39993e-07
0.00037413
3.2533e-18
8.248e-18
2.48363e-06
3.95187e-18
1.95001e-17
1.23051e-17
4.49493e-05
1.03046e-08
3.7706e-05
1.02612e-17
1.16064e-08
5.41091e-08
2.73108e-17
1.35351e-07
4.03077e-18
1.54147e-06
3.07223e-05
2.42687e-05
1.50978e-06
2.95143e-07
1.50091e-18
5.33239e-19
4.25829e-18
2.42837e-08
6.92392e-18
8.44617e-06
1.85391e-17
0.000211444
1.44481e-18
4.9459e-05
3.78489e-06
1.04627e-17
1.65198e-18
7.25953e-17
1.69615e-18
4.7169e-05
3.55726e-17
3.32796e-17
1.44012e-05
7.91501e-06
1.13551e-17
1.85066e-17
4.67519e-17
8.56532e-18
4.17569e-18
2.15947e-19
2.9744e-05
5.11907e-07
1.02739e-17
3.63774e-19
5.65386e-10
5.41826e-17
1.87355e-06
1.31866e-07
3.54245e-18
3.98459e-06
9.0769e-18
4.37208e-07
1.19789e-18
1.2584e-06
6.25911e-18
9.70435e-11
2.50358e-09
7.93041e-07
2.08075e-05
3.92296e-05
1.3912e-09
2.13692e-19
5.75196e-07
2.83405e-18
5.38257e-06
2.16557e-18
6.63703e-18
6.2883e-18
5.68543e-18
1.78571e-18
1.47544e-18
8.26675e-06
9.2451e-06
4.70871e-18
9.12427e-18
6.97807e-17
8.57898e-07
1.64972e-08
1.17228e-17
2.18248e-05
2.23061e-07
2.08402e-17
2.77593e-05
9.80441e-06
4.17885e-06
1.417e-05
2.2795e-18
3.47409e-18
1.75954e-18
1.70007e-17
4.39168e-05
1.23254e-18
0.000134235
1.94506e-18
3.50563e-07
8.70205e-07
2.27304e-19
1.07141e-06
9.2943e-19
8.64778e-19
3.47805e-06
2.76281e-11
1.0516e-05
8.75786e-19
8.79854e-18
5.7147e-19
9.53699e-07
1.51589e-17
5.41152e-17
4.4516e-18
3.77066e-10
7.01359e-19
8.99137e-09
3.85946e-17
1.44533e-17
1.55549e-18
2.17111e-05
1.17768e-05
2.18318e-05
4.28055e-05
7.66189e-17
1.73176e-08
3.15738e-18
9.7159e-18
1.19682e-05
3.99544e-18
2.7199e-09
4.01109e-07
7.83983e-06
4.03907e-07
1.28701e-12
2.37305e-06
2.12551e-18
1.28646e-12
6.26303e-13
1.41295e-07
1.00221e-06
1.74625e-05
7.76332e-11
9.73914e-18
3.65519e-05
4.38097e-18
1.62946e-18
1.86936e-08
8.9488e-05
7.48826e-11
2.69296e-18
1.06782e-18
3.96479e-10
7.87172e-18
1.02781e-17
1.93633e-08
1.29471e-17
1.23616e-17
4.80696e-05
2.46407e-07
1.92508e-07
2.71127e-05
8.67724e-06
2.89172e-18
1.39918e-18
1.70566e-08
4.89883e-06
1.40411e-18
1.68106e-17
1.18665e-05
9.00052e-18
5.4892e-19
1.31925e-17
3.11726e-18
4.92984e-16
0.00308486
5.00886e-18
2.51276e-07
5.432e-18
2.40655e-05
6.83459e-19
1.79594e-15
1.32606e-17
7.20265e-18
2.0083e-18
2.01586e-18
3.53305e-06
9.04231e-19
1.57756e-18
5.80969e-18
8.94493e-18
3.59259e-19
7.12571e-19
1.16831e-05
7.94099e-19
1.32439e-05
3.49815e-06
2.10065e-19
1.93349e-06
2.40108e-18
5.67201e-07
2.29534e-09
4.64695e-06
1.61375e-05
1.67972e-18
1.08671e-07
9.58997e-06
9.80471e-09
6.6608e-18
2.64167e-09
2.20396e-05
5.64733e-06
1.35139e-17
3.12527e-05
1.50915e-17
7.88628e-18
9.67499e-19
4.00114e-19
9.77477e-06
4.15317e-18
1.05632e-18
9.81383e-06
2.77515e-10
3.20753e-06
1.37954e-18
1.01376e-16
7.92274e-07
1.10146e-18
9.21555e-08
7.66688e-18
2.74458e-05
1.81845e-18
3.63658e-18
6.64247e-08
5.94781e-18
1.56818e-07
2.62599e-17
3.51394e-18
5.84152e-06
5.0077e-07
5.75315e-06
1.88571e-05
0.000263724
2.4201e-05
1.3302e-19
6.4346e-17
3.39049e-06
8.0482e-06
4.332e-05
1.3368e-05
2.57594e-18
1.43637e-05
1.3108e-19
1.85501e-17
1.05125e-05
1.28785e-05
3.27057e-18
1.55657e-05
5.17966e-18
3.29147e-06
1.04325e-05
3.14224e-18
1.24641e-18
5.78325e-19
3.23671e-06
9.80794e-19
2.97798e-18
4.83419e-06
2.50641e-05
4.42583e-09
8.97477e-06
1.95599e-18
2.25599e-19
9.36476e-08
8.88988e-07
2.42703e-18
1.21155e-05
2.73231e-17
3.08637e-06
6.69115e-19
8.61271e-18
1.44008e-05
1.11056e-18
4.73926e-08
4.15501e-06
1.07291e-17
9.79902e-19
5.06515e-06
6.01783e-14
6.29058e-05
1.72041e-18
0.000312497
1.62461e-17
2.37824e-17
2.34445e-18
8.66564e-06
1.55041e-17
3.73437e-18
6.5134e-06
3.62982e-18
2.79756e-07
1.40152e-17
9.83165e-18
6.63078e-18
1.37433e-10
9.05212e-07
3.61999e-19
9.14208e-19
4.20935e-05
1.09868e-06
1.47079e-18
5.3208e-07
7.02354e-18
1.99858e-18
1.85139e-09
3.25485e-06
1.51451e-06
1.79355e-18
6.40294e-18
1.73989e-18
1.20264e-18
7.90791e-18
1.32408e-18
7.07294e-18
6.99667e-19
4.99158e-18
6.04979e-19
6.70915e-19
4.08096e-18
2.95818e-18
9.2811e-19
3.56797e-19
9.38816e-18
1.50483e-18
2.71066e-18
1.82096e-19
1.4767e-18
1.25772e-17
2.10762e-05
3.29067e-19
1.52554e-18
8.06037e-18
7.71213e-06
2.02583e-17
5.89075e-18
0.000323628
1.17681e-17
6.59812e-18
2.72835e-05
2.0215e-16
4.08897e-19
8.34224e-06
2.88005e-05
1.03643e-18
2.85749e-06
4.37991e-06
1.88133e-17
1.53817e-05
4.66208e-05
2.08835e-05
3.87811e-06
1.26274e-05
2.35658e-17
2.30929e-18
3.46286e-06
1.25065e-05
3.6808e-06
2.98034e-18
7.53926e-06
2.02519e-06
2.47321e-05
1.23352e-05
7.9362e-07
1.80446e-05
1.26795e-06
1.16598e-05
6.69934e-17
3.00647e-05
9.87447e-06
2.00078e-06
1.53527e-06
5.3115e-19
2.1299e-18
3.53503e-18
5.67214e-18
4.20898e-19
1.0962e-05
1.59656e-05
1.89365e-19
8.84938e-19
2.12174e-18
3.17186e-18
2.04933e-18
9.99044e-18
1.38005e-19
2.82483e-17
5.33568e-06
1.91792e-07
2.53817e-05
7.66369e-08
3.16228e-18
9.492e-18
3.71052e-05
7.30435e-09
7.88997e-19
2.82356e-18
8.53457e-06
4.18199e-17
2.70832e-19
4.73968e-09
9.2091e-06
1.58988e-05
3.89192e-05
3.89147e-05
1.04204e-18
1.67017e-05
3.78876e-07
1.339e-18
7.42247e-18
1.3592e-05
1.26962e-17
2.06382e-18
2.14264e-05
0.00123383
2.01053e-07
1.52482e-17
5.58095e-17
1.98595e-05
2.45398e-05
2.04631e-05
6.66162e-06
4.37832e-06
5.37727e-18
1.21027e-09
3.07712e-12
2.26236e-16
8.79789e-19
2.03257e-05
4.03678e-18
2.34141e-06
2.99424e-05
2.01521e-05
1.36489e-05
3.9369e-18
6.94771e-06
6.6933e-19
7.55008e-18
6.53656e-18
2.02693e-18
2.91372e-06
0.00101113
4.28312e-19
1.85865e-18
5.54103e-09
2.7293e-05
1.17443e-06
8.01934e-06
3.85418e-05
5.53942e-06
2.3453e-05
2.56087e-18
9.97556e-18
4.96467e-18
3.57512e-05
6.60951e-06
2.91407e-11
2.61567e-18
4.23021e-18
3.64695e-18
2.56549e-05
3.24824e-06
2.10554e-18
5.62151e-06
6.64179e-05
8.01359e-06
7.06972e-06
1.10329e-17
1.93926e-17
8.01793e-06
2.65219e-05
7.17007e-19
3.74802e-07
1.67042e-05
1.14832e-06
1.07546e-05
5.34785e-06
9.34247e-06
2.9087e-17
3.94477e-06
2.38507e-05
4.27761e-05
5.57648e-13
2.66022e-05
7.65444e-17
1.91157e-05
1.77372e-07
1.60977e-17
2.96596e-06
8.52202e-06
4.22039e-07
1.31426e-05
1.10128e-09
1.63539e-07
1.83199e-08
4.39518e-05
4.12989e-06
4.35817e-18
4.49741e-05
1.44476e-06
5.17181e-19
7.6585e-19
4.64294e-11
1.06961e-08
1.1803e-06
0.00127465
4.02969e-05
1.30544e-05
2.47863e-10
5.03334e-05
3.07051e-18
2.72968e-17
4.63396e-06
1.54648e-17
2.45603e-06
5.19886e-06
2.43362e-06
5.35379e-06
7.75453e-19
2.40612e-07
0.000124807
8.91157e-18
2.72343e-05
8.48069e-06
1.67909e-17
4.51727e-06
1.88398e-07
3.81521e-18
7.73941e-12
1.07431e-07
1.44738e-17
4.67611e-18
6.85999e-18
5.02821e-06
5.30969e-06
1.63071e-05
4.61271e-17
5.79786e-06
3.7651e-05
6.05124e-18
9.07123e-06
1.40196e-05
2.81542e-05
1.73179e-06
1.43235e-18
6.83654e-07
1.08223e-05
1.18328e-05
1.012e-05
4.334e-05
0.000187504
3.86315e-06
9.54376e-18
8.04983e-09
5.86065e-05
5.32495e-19
4.73437e-07
1.05939e-17
1.97885e-18
1.7415e-18
1.74612e-17
1.13221e-18
3.67179e-06
8.10386e-19
8.01524e-06
1.39179e-06
6.62279e-18
4.51648e-06
3.4462e-17
1.627e-05
1.41437e-18
2.19179e-08
4.07656e-18
2.49766e-05
1.72048e-07
2.53669e-09
4.65517e-06
3.29364e-05
1.93237e-05
4.4142e-06
3.0469e-05
5.8866e-15
2.52361e-05
6.1782e-05
1.0483e-05
6.80944e-17
1.30709e-06
3.13973e-07
6.27417e-06
1.21832e-05
7.099e-07
1.2256e-17
3.49351e-18
2.71248e-18
4.19971e-06
5.31723e-18
2.22122e-07
2.52106e-07
1.48715e-06
3.18618e-07
4.1797e-19
2.36199e-17
1.52634e-18
9.69265e-06
2.44544e-05
1.44008e-06
1.01615e-08
2.15285e-06
7.7205e-06
2.25429e-06
9.46319e-07
7.86675e-06
6.6852e-06
2.9268e-06
1.50123e-18
7.82302e-19
7.25142e-17
1.52833e-05
1.22599e-05
3.41962e-18
2.6926e-19
4.29614e-17
9.2976e-06
2.16112e-05
2.15645e-17
2.4031e-06
1.13032e-17
6.72987e-10
5.49893e-06
9.91174e-05
9.28077e-19
8.2341e-19
4.22458e-06
5.6837e-18
7.18437e-08
1.33574e-05
9.224e-18
1.21053e-05
3.72185e-05
2.06829e-05
6.46714e-19
1.40675e-06
8.39161e-18
9.24358e-08
5.54006e-05
2.04402e-17
1.28211e-17
1.2446e-05
1.45083e-16
2.62737e-18
4.73393e-08
1.13491e-06
1.60783e-17
4.84667e-18
3.26792e-17
6.61727e-08
1.41879e-06
3.60797e-06
2.8187e-05
1.04817e-05
6.52524e-18
7.74679e-10
7.14022e-07
7.84156e-18
6.73904e-19
7.46225e-18
7.5495e-18
5.18051e-18
4.30254e-18
1.8688e-18
5.32053e-18
1.62178e-18
1.54826e-17
3.32757e-12
3.1513e-18
4.00299e-07
7.00361e-18
2.31476e-07
1.4482e-17
6.4447e-08
2.44322e-17
3.11284e-18
3.1014e-05
1.02948e-05
5.19772e-18
0.00010138
6.13099e-12
2.75126e-13
1.39372e-18
1.454e-06
6.16291e-15
3.00475e-06
6.86492e-09
1.00761e-06
9.19822e-18
1.0055e-17
9.71323e-07
3.22088e-11
1.27132e-18
9.26919e-17
4.39176e-05
7.34265e-18
4.17981e-05
1.20011e-17
1.20564e-18
1.83083e-09
3.15843e-05
9.22427e-06
8.2074e-18
3.68644e-07
1.87693e-17
3.00247e-06
1.95677e-08
2.06638e-06
1.00526e-06
1.25261e-18
2.29213e-05
1.28438e-06
5.80931e-06
6.30538e-19
4.39919e-18
4.04958e-18
1.78114e-05
4.47779e-06
5.77469e-05
1.40154e-17
4.75418e-10
1.44328e-18
1.09554e-18
3.45555e-17
1.04828e-18
3.52497e-06
2.3391e-06
3.25182e-06
0.000356623
1.81758e-16
3.13423e-05
4.00776e-05
1.97248e-05
1.83084e-06
9.45564e-18
6.09032e-06
4.87518e-06
5.50528e-06
4.4484e-10
1.14141e-05
8.98742e-18
1.78505e-06
1.34535e-06
3.67481e-05
1.23077e-09
3.61489e-06
5.21433e-18
2.08613e-05
8.91566e-19
3.00275e-17
1.85148e-06
2.32001e-17
7.19933e-06
1.55309e-17
3.1364e-18
1.83963e-17
3.68006e-18
5.61902e-17
8.65312e-07
1.7544e-17
6.41139e-07
9.67945e-18
5.24774e-19
2.05923e-05
6.19723e-06
8.76123e-06
8.64112e-06
1.94441e-18
0.000657562
1.26004e-17
7.87266e-05
2.3517e-18
2.03495e-05
2.58489e-05
2.58387e-06
6.4105e-05
5.80473e-17
6.40946e-17
1.80924e-18
2.44162e-06
2.01906e-18
4.94844e-19
1.99486e-05
7.00996e-18
4.5468e-18
5.83243e-06
2.46756e-17
1.43854e-05
7.85859e-11
2.57026e-17
4.65019e-18
2.31317e-17
1.81359e-06
7.53053e-06
2.43187e-18
2.56491e-05
3.68395e-07
2.26768e-17
0.000116269
1.74287e-17
1.78521e-05
2.02909e-05
3.8599e-06
1.68033e-17
2.01186e-05
1.07966e-05
9.26907e-07
5.81943e-06
1.40792e-05
9.55004e-18
1.26418e-17
1.97833e-09
1.99365e-18
1.6119e-18
1.3495e-18
2.2136e-05
4.97879e-05
4.96575e-06
2.35962e-06
8.28248e-18
5.5489e-05
5.16573e-05
4.79224e-06
2.82471e-06
1.03405e-05
2.36601e-05
2.93224e-06
3.77554e-18
1.19672e-18
7.83834e-19
7.56865e-06
3.81068e-19
2.82632e-05
6.83991e-18
8.41913e-07
5.74044e-10
2.93159e-06
2.51292e-05
2.33426e-18
1.21185e-17
2.74629e-06
4.03835e-07
1.2474e-17
2.45394e-17
1.60312e-17
3.69727e-08
3.43525e-07
1.58005e-07
9.06439e-07
1.12047e-05
9.88553e-05
1.42248e-17
3.20403e-17
3.84348e-18
4.27914e-06
2.07474e-05
2.26918e-05
3.92423e-05
2.09238e-06
3.19539e-06
1.98252e-18
1.97198e-17
2.80293e-16
6.75461e-20
1.07947e-05
2.53069e-05
1.47424e-18
2.47751e-17
1.6316e-17
1.45139e-16
2.58477e-17
5.6794e-18
1.52113e-05
2.29836e-17
1.15468e-06
0.000448314
9.08041e-18
1.65534e-08
2.57893e-05
7.96714e-07
1.02148e-17
1.7314e-18
5.42537e-06
4.58706e-18
1.58883e-05
1.23941e-09
2.7432e-05
4.03378e-18
1.73043e-15
4.60163e-18
1.95359e-18
4.08635e-18
8.29743e-17
0.000220933
6.36365e-18
6.49394e-06
1.36693e-06
2.47328e-17
2.60317e-17
2.16642e-06
2.31391e-17
1.35495e-18
1.5304e-05
1.25841e-07
3.11075e-18
2.20727e-17
6.10821e-19
1.88501e-05
9.37805e-19
5.88738e-18
4.41796e-07
2.88249e-06
3.38944e-06
3.84571e-18
6.57527e-18
1.83776e-18
4.19759e-06
2.03724e-06
1.44294e-05
4.10952e-06
9.62637e-19
8.90504e-07
1.38944e-05
7.28003e-06
6.72196e-19
1.76069e-18
3.11317e-18
3.83238e-17
5.69103e-18
3.52156e-05
6.25629e-06
6.02415e-06
2.06509e-17
8.09209e-18
8.85216e-18
2.07434e-18
2.18602e-18
1.04781e-09
2.82892e-07
2.60358e-06
1.663e-18
2.13539e-17
8.16833e-17
2.88174e-12
3.87306e-05
0.000128638
2.67232e-18
1.20782e-12
1.81333e-14
9.04332e-18
6.80255e-18
4.3121e-06
7.65105e-06
1.1131e-18
1.62775e-17
3.26694e-06
1.68532e-17
7.98127e-07
1.27243e-06
0.00242515
9.38488e-18
6.35644e-18
1.39805e-05
5.76792e-07
1.14975e-18
0.000765488
6.63777e-07
7.51082e-06
1.26479e-17
1.62821e-17
1.57519e-16
5.93175e-18
8.98894e-06
1.09983e-07
2.82849e-17
2.85404e-05
2.14767e-05
0.00100397
1.87544e-18
3.78875e-18
2.62131e-18
2.02935e-18
7.28547e-06
7.06162e-11
7.81779e-18
2.70021e-17
2.12901e-05
1.08545e-06
5.72136e-06
6.35441e-18
5.59108e-17
3.27543e-05
1.83884e-18
4.35467e-18
1.39418e-18
1.22597e-17
2.54025e-05
3.70892e-18
2.12359e-18
3.21516e-18
2.89174e-05
1.42309e-05
8.15711e-19
3.04417e-18
6.79615e-19
1.74886e-05
1.89471e-10
8.32908e-18
2.94295e-18
7.41715e-18
1.72889e-17
2.72222e-06
1.21995e-05
1.44334e-17
2.3601e-06
1.22029e-06
5.2734e-06
6.30349e-16
1.0261e-16
1.94039e-18
8.91198e-17
4.65047e-19
2.31028e-05
2.39181e-17
1.70218e-05
2.45345e-18
1.68747e-06
5.22331e-17
2.59747e-06
1.48171e-18
3.56419e-18
1.23359e-05
0.000201458
5.36889e-18
3.90745e-06
1.43843e-17
4.2307e-07
7.79864e-18
2.26977e-17
1.76945e-17
2.35137e-10
3.00051e-18
3.71633e-07
1.06622e-18
4.03175e-05
1.40946e-18
1.32927e-17
2.03091e-18
3.14181e-18
8.98112e-09
1.50184e-07
3.65828e-19
6.06608e-06
2.347e-18
3.33102e-06
2.16585e-05
1.37618e-06
6.97418e-18
5.05037e-09
4.76398e-07
2.29218e-09
5.10392e-06
3.84916e-10
1.81008e-06
1.37483e-17
1.57679e-18
4.67048e-10
6.31452e-06
2.58271e-07
6.77564e-18
6.3762e-18
4.61765e-18
0.000636742
4.97331e-17
1.49251e-18
4.0053e-18
1.34999e-17
3.11078e-18
4.37463e-08
1.93348e-07
1.12337e-06
7.32436e-08
7.54422e-16
1.59088e-06
1.14078e-19
6.54665e-06
2.14505e-18
2.45959e-17
3.77371e-18
2.01953e-17
2.23998e-08
1.34048e-18
3.61264e-17
2.91075e-17
1.66805e-05
1.71063e-17
2.36093e-18
1.24557e-05
1.39445e-17
7.49177e-05
0.000132571
0.000615193
3.70661e-17
0.000231549
0.0013605
0.00145547
0.000758003
4.6614e-18
5.95517e-19
5.51825e-06
5.37357e-06
1.26331e-18
8.91199e-06
2.06798e-18
3.63685e-05
1.13407e-17
3.35411e-18
7.54967e-07
1.95237e-17
1.60603e-17
1.11282e-08
4.30468e-08
1.35263e-17
1.15027e-18
2.74351e-09
1.06292e-18
1.03964e-17
2.30972e-08
9.27053e-06
1.62755e-06
8.74529e-18
8.48519e-06
5.03023e-17
3.94597e-06
4.49698e-10
7.96708e-06
2.7375e-18
1.46769e-11
6.17927e-06
2.17483e-17
1.60657e-12
4.99651e-18
3.65306e-05
1.51754e-18
1.11177e-05
4.75762e-18
1.99129e-10
3.7436e-18
6.9698e-18
4.77605e-18
7.13078e-13
4.3837e-13
4.49951e-17
1.37385e-05
9.77738e-06
6.0511e-17
4.46534e-18
3.71576e-05
1.99285e-05
0.000208366
5.37184e-17
7.3189e-08
2.80729e-05
5.19196e-05
6.75891e-11
2.17676e-17
6.46579e-05
5.8187e-18
0.000254764
8.58167e-18
3.87393e-11
3.92256e-11
5.95665e-19
5.67896e-08
7.91686e-18
2.38114e-05
1.44544e-18
5.56389e-18
1.16276e-17
2.1135e-17
4.60828e-18
1.65701e-17
3.37651e-07
2.05378e-06
0.00015261
4.40908e-17
1.61136e-18
4.61e-05
7.98971e-18
1.21069e-18
9.18856e-18
3.99283e-17
3.4152e-17
6.39129e-06
1.5101e-18
7.01067e-18
2.3741e-19
3.56319e-06
2.42918e-17
1.26866e-18
1.13907e-17
3.49564e-06
7.44498e-19
6.60921e-06
0.000255673
5.59531e-06
5.84448e-06
2.89934e-05
1.80724e-18
1.83418e-17
1.52018e-18
3.31913e-06
1.98232e-06
6.63994e-19
3.14998e-17
6.33319e-07
4.95136e-17
1.28318e-17
0.000370932
1.03029e-17
2.46198e-05
1.10796e-17
2.57767e-06
3.78687e-06
6.43923e-17
3.16136e-19
5.37651e-18
1.3312e-17
1.66085e-17
2.11196e-05
4.66844e-17
4.9789e-06
7.98381e-18
4.05143e-18
7.3427e-06
1.17461e-18
1.44553e-05
5.72003e-18
4.351e-18
2.62589e-06
8.66042e-08
0.000154981
7.43479e-17
8.95492e-18
1.22631e-17
4.06521e-06
0.000198645
3.55769e-18
7.07928e-19
6.36714e-18
1.63211e-06
2.17136e-17
2.22249e-05
3.38733e-05
1.34564e-17
9.85293e-20
7.71144e-06
1.14402e-17
1.87485e-17
1.45425e-19
3.52003e-18
4.3712e-18
7.45917e-05
6.49707e-18
9.84692e-18
1.52162e-18
2.88335e-18
3.24487e-18
3.48663e-18
1.05621e-17
1.7631e-17
2.89128e-18
8.63768e-06
4.70311e-18
8.89248e-06
3.09209e-17
4.68684e-19
0.000643998
2.8745e-06
4.37995e-18
1.93675e-17
2.0572e-18
2.54303e-06
3.55112e-19
1.96339e-17
1.51801e-17
1.01054e-17
7.65023e-06
1.22262e-21
5.21051e-06
7.23165e-18
1.08824e-05
9.30038e-19
6.3279e-05
6.96392e-18
1.3659e-17
2.28029e-05
2.82555e-18
3.7045e-18
2.99621e-05
3.11032e-07
2.34552e-17
1.00831e-17
4.13286e-05
1.14742e-05
6.84106e-06
8.72634e-07
1.90813e-06
1.88731e-05
1.03012e-06
5.5718e-06
6.89098e-18
3.07181e-05
3.16036e-17
3.57606e-17
4.4327e-19
1.85817e-17
4.53165e-17
1.09237e-05
1.42477e-16
1.44306e-17
3.55438e-17
2.44373e-09
1.08793e-08
2.12651e-17
2.65214e-06
2.42505e-17
4.63447e-06
3.00688e-20
1.23852e-09
3.99825e-06
1.97046e-16
4.93469e-05
4.12599e-19
1.1983e-18
2.47128e-18
3.13632e-06
1.47139e-06
5.6483e-18
8.07932e-20
2.65984e-06
3.36509e-17
0.000726935
2.66612e-18
0.000111035
8.19813e-18
3.20756e-18
2.81357e-18
9.26387e-18
1.06997e-05
5.41842e-18
4.53631e-08
3.98462e-19
1.07348e-05
1.8215e-17
4.31744e-18
7.3293e-15
1.77487e-16
3.8654e-17
6.68819e-17
1.24589e-17
1.85434e-18
4.77835e-06
0.000216166
5.18366e-18
1.05157e-17
4.17032e-07
2.93252e-18
6.55369e-18
1.42512e-09
1.90103e-05
1.68575e-07
1.75667e-18
7.19038e-07
3.77806e-06
5.57516e-06
9.33198e-06
9.33638e-18
8.28729e-18
9.75632e-17
3.68204e-18
1.68123e-18
3.75036e-18
5.56093e-18
3.46679e-18
1.18371e-17
2.81362e-19
1.67325e-18
8.19825e-19
8.32231e-05
3.37864e-18
2.14608e-18
5.99721e-13
2.92693e-18
3.0487e-18
0.00122295
2.4458e-18
7.84868e-19
2.074e-06
1.69624e-12
1.76609e-18
6.09507e-17
1.28523e-18
2.49174e-05
1.03482e-17
2.02792e-17
5.39548e-11
1.80597e-19
7.27129e-18
3.5162e-18
3.4686e-18
0.000125855
8.89556e-19
1.98792e-07
1.37874e-18
1.03827e-17
3.21928e-18
9.58189e-18
2.03759e-18
2.41204e-11
4.58324e-11
1.30501e-07
7.67125e-18
4.42781e-18
8.62112e-17
1.12395e-10
1.74766e-17
3.25511e-10
1.44524e-11
1.45143e-18
1.27882e-18
2.17974e-17
6.64835e-12
5.64365e-18
4.42108e-19
2.38301e-12
4.65438e-17
3.52564e-05
6.41797e-19
7.58465e-06
2.7755e-17
2.5553e-09
3.70453e-18
1.6733e-06
1.89593e-18
4.77545e-06
2.74864e-05
2.349e-17
2.89199e-06
1.45271e-08
8.35657e-18
1.14607e-05
4.91336e-18
1.04841e-18
1.33579e-17
7.6419e-18
3.05803e-18
5.06471e-19
1.90063e-17
8.44376e-18
0.000313879
1.23598e-17
3.19464e-18
1.36045e-18
1.14836e-18
1.2778e-18
3.56542e-05
0.000927415
3.35056e-09
1.35964e-08
5.68896e-18
2.24285e-06
1.52803e-06
5.01912e-18
7.35591e-18
4.97968e-18
8.81103e-19
3.77145e-18
1.44454e-17
1.13154e-17
3.69904e-18
4.56817e-07
3.3883e-17
4.44983e-17
2.2234e-07
3.52392e-09
1.36542e-17
3e-05
2.93412e-19
4.10588e-18
7.45218e-18
0.000196924
1.93801e-16
5.1426e-19
2.85564e-05
9.73053e-19
8.92599e-18
1.4413e-18
1.63096e-16
6.16267e-05
2.51157e-18
1.06597e-17
2.06348e-18
2.28885e-18
7.0259e-06