/*--------------------------------*- C++ -*----------------------------------*\
  =========                 |
  \\      /  F ield         | OpenFOAM: The Open Source CFD Toolbox
   \\    /   O peration     | Website:  https://openfoam.org
    \\  /    A nd           | Version:  10
     \\/     M anipulation  |
\*---------------------------------------------------------------------------*/
FoamFile
{
    format      ascii;
    class       volScalarField;
    location    "55";
    object      SgT;
}
// * * * * * * * * * * * * * * * * * * * * * * * * * * * * * * * * * * * * * //

dimensions      [1 -1 -3 -1 0 0 0];

internalField   nonuniform List<scalar> 
111485
(
4.95567e-16
0.00902066
0.0210451
1.29876e-18
0.0449866
2.94325e-16
0.0416387
0.00586996
0.0184125
0.00112832
0.0418211
0.00915708
0.004241
0.000835407
0.00593393
0.0316453
0.00129448
1.99772
0.0100424
4.95825e-16
3.78357e-17
8.80859e-17
0.0233977
0.0355064
0.00846589
1.41543e-16
0.0401074
0.0017387
0.0159379
5.72687e-18
0.0436217
0.0173621
1.20604e-16
4.55482e-17
0.00966971
7.10851e-18
0.0105422
0.00388675
6.44698e-08
0.0215908
3.89781e-18
0.0720087
0.0144288
0.000997419
3.68456e-05
8.21621e-19
0.0328326
0.000720403
0.0475662
3.53352e-16
1.40811e-15
7.23567e-15
2.20956e-15
0.0444696
4.53452e-15
0.0430305
0.00355601
3.41582e-18
2.70489e-05
0.00449203
0.0149342
2.20369e-16
0.00402005
0.0883516
9.60791e-16
0.00359216
0.301009
0.0972784
0.000922847
0.00512611
6.61946e-06
0.00547571
9.36197e-15
0.00244719
9.03222e-17
0.000638047
7.64823e-16
0.0425216
6.3685e-16
1.29377e-15
5.16427e-05
0.0316081
6.55393e-16
7.78248e-17
0.00812226
0.00442657
5.79794e-10
0.0225425
4.65282e-05
0.00678475
0.000867611
0.0411035
0.0103376
6.14002e-05
0.0559803
6.16276e-17
1.11804e-17
0.00145293
8.98911e-09
0.00147942
2.95026e-15
0.0195233
1.80525e-17
0.0214681
0.00483048
6.6579e-15
4.63311e-19
0.00748246
0.00318761
1.50003e-07
0.00563662
0.00507054
0.00313796
0.00264453
4.55359e-17
3.04791e-05
3.42159e-16
3.77331e-19
0.0113648
4.83268e-17
2.67461e-16
1.66708e-15
2.46063e-17
1.00058e-19
0.0023389
2.32974e-06
2.99262e-15
0.00149831
5.64412e-18
0.000173214
0.000989316
0.0280697
6.31237e-17
1.62343e-15
6.62512e-15
0.049163
2.23905e-16
0.0409712
0.0225468
0.00255142
0.000171958
0.00186906
0.0204575
0.00310512
0.00380416
0.0122024
6.23903e-17
5.58011e-17
7.6519e-18
0.0262415
0.0018297
1.29182e-17
1.33075e-07
0.00502802
4.78985e-07
0.0106132
0.0154945
0.00942277
1.68644e-07
9.42935e-18
5.3672e-17
0.0526713
0.0252305
5.15758e-06
2.31925e-07
0.00518617
0.00369299
3.90098e-18
9.9656e-06
6.58644e-05
1.84618e-18
5.74567e-17
0.00014839
1.35076e-17
0.00613726
0.00226965
2.29374e-16
1.94372e-15
1.61108e-15
1.39116e-15
3.5154e-16
1.97107e-17
0.00134083
0.006716
0.0277184
0.00415913
0.00641814
0.00356633
9.48075e-05
9.35305e-17
0.00425077
8.58092e-16
1.75948e-17
0.00582269
0.0110726
0.0227944
0.0103128
0.00463023
5.24977e-17
0.00604602
0.000573016
4.52226e-05
0.0111843
0.00230487
7.17856e-17
0.00325615
0.0275332
3.0624e-15
0.000230363
0.00651168
0.00227984
0.000309126
7.75621e-15
1.43969e-16
0.00728268
6.99877e-12
0.123851
2.23034e-17
0.00601035
0.0190217
0.121881
5.33692e-18
0.00267024
0.0120009
1.83209e-13
1.85041e-17
1.03812e-18
0.166634
4.18864e-07
1.38462e-15
3.76345e-16
0.00914103
0.00847235
0.0160047
4.47874e-15
3.39368e-17
9.33399e-06
1.14818e-17
0.00272552
0.00832834
0.0149849
0.0107788
0.00917466
2.08257e-18
3.21985e-07
0.000565408
1.9314e-18
1.64331e-16
0.030701
0.0214618
4.38682e-15
0.00559703
0.00978705
1.21305e-19
3.88201e-15
0.000153153
2.51351e-16
6.53702e-16
3.91789e-05
3.86227e-17
0.0156195
0.0117248
0.00335946
4.11895e-19
0.0109577
8.03357e-19
5.94057e-18
6.88441e-18
3.72217e-08
0.0225786
0.00553097
0.00466785
0.0369631
0.0109779
0.00149611
0.00059113
0.0340492
0.00941723
1.25572e-16
6.36773e-17
3.36834e-07
0.0220553
0.0215176
0.0128314
1.0299e-17
0.00632931
0.00194929
0.00276453
6.19815e-06
4.40545e-06
0.0122025
0.00212172
0.00186311
7.09784e-18
0.000778809
2.29112e-17
5.28398e-07
3.01751e-13
0.266569
0.0682746
0.0138376
2.83737e-16
7.67382e-18
0.00830994
0.00190252
7.74344e-17
3.49585e-17
9.0121e-16
0.000416021
0.0622615
0.00334109
0.0154435
0.018287
4.93243e-15
2.71755e-18
2.29391e-18
0.0035097
2.97231e-13
0.00132686
0.187169
5.8242e-07
1.97927e-17
7.54718e-17
5.77197e-17
4.51475e-15
0.0574248
0.0123209
3.95994e-18
0.00486424
3.7126e-16
2.20192e-15
0.0671246
0.00538583
0.0107213
0.00854663
1.51092e-15
1.05013e-14
7.80414e-18
0.00872581
0.0189431
0.00470399
1.04599e-15
1.9836e-10
0.00022519
0.00178052
0.00734134
6.34479e-05
0.0284754
8.32249e-17
0.0370366
0.00315867
0.00786473
0.0230716
0.0147325
9.39804e-17
3.37701e-16
1.36754e-17
3.13675e-17
0.032105
0.00856037
0.0370911
0.0669752
2.95951e-17
0.0201494
3.10068e-19
8.20938e-16
0.0161301
1.26905e-15
0.0400166
9.86409e-18
2.9055e-18
0.0237367
1.36059e-19
0.0141055
0.000335138
1.29866e-16
0.00112386
0.0150707
2.57406e-15
0.00798097
0.0106744
0.00738846
0.000434074
0.00291863
0.00613957
2.68627e-15
5.61005e-17
0.00136477
8.60886e-18
0.00500592
0.112097
1.14435e-16
2.7351e-18
0.0256132
0.000127315
0.00759015
0.022464
2.78818e-16
0.0390076
0.0197454
9.47961e-17
0.000696262
0.00281844
1.97519e-17
1.02186e-16
0.0118103
0.00487465
4.79782e-19
1.0265e-16
1.07771e-08
3.47262e-17
0.0105716
6.41167e-17
1.18188e-17
0.0177241
2.4751e-06
0.0146304
0.0266803
1.0429e-16
1.55543e-14
0.00108336
3.4522e-15
0.000107682
0.0108191
0.121684
0.905604
4.73393e-15
0.00260188
0.000234654
8.70489e-17
0.0350431
0.0330971
3.60007e-17
1.14134e-08
0.00010859
3.12093e-16
0.0256971
0.0268951
0.012739
1.97145e-15
0.000590193
0.0206541
0.0212147
6.0565e-07
4.83392e-16
9.77123e-11
2.44261e-17
2.07715e-05
0.0318513
9.3942e-19
0.00957767
6.80719e-05
8.80203e-16
6.22248e-19
9.15347e-15
4.48961e-17
0.00429161
0.00951705
0.00711179
0.00244131
0.00338892
2.81304e-16
0.00228439
1.81195e-16
0.0356515
1.2654e-15
7.21302e-17
4.12633e-17
0.0317893
1.10888e-16
2.78264e-17
3.36763e-07
4.58841e-17
9.45385e-18
0.00087592
2.45908e-19
4.70656e-14
2.61016e-17
6.04853e-17
1.90885e-15
3.2183e-17
1.62882e-16
0.00815637
4.18336e-17
0.000392771
0.00165706
0.00266917
1.17401e-15
0.000624446
3.07013e-17
1.39982e-17
0.00310688
0.00205161
0.0293976
0.0222601
8.29135e-16
0.00186957
0.0726691
0.0084301
0.00110945
0.0036586
8.68519e-17
0.0223905
4.74371e-15
0.00428128
2.39763e-16
0.0691396
9.09633e-16
0.0210629
0.00032245
7.59699e-08
8.29577e-17
0.00233366
8.55991e-17
0.0759191
0.0443286
6.28363e-19
2.50377e-17
7.7502e-15
7.44684e-18
1.8026e-10
0.0545888
1.09906e-16
1.59917e-18
0.00287959
1.42424e-16
0.0304221
5.40668e-17
0.000351074
1.37536e-16
0.000586152
7.47535e-07
0.0011212
0.012456
1.64335e-16
0.000366219
7.37994e-16
3.6462e-18
0.0162818
1.93501e-16
3.57125e-05
1.42886e-15
0.00147718
8.17878e-17
0.0661489
1.87085e-17
1.64935e-14
0.0121248
0.0038791
0.00150482
0.004308
0.00590991
0.0208894
1.81202e-17
0.020747
0.00708495
6.83969e-18
5.70723e-08
0.031492
0.0125531
4.36401e-15
0.00550264
0.00544019
0.00127842
0.00139348
1.50695e-10
0.0137986
0.000982633
0.000166798
0.0267813
0.0141783
0.00109287
3.16716e-16
3.16275e-09
0.619572
1.3989e-16
0.000417854
2.63022e-19
8.7653e-16
0.00729775
0.0036369
1.26537e-07
8.47322e-06
1.40878e-15
0.0185103
0.00994144
3.13457e-16
8.67497e-12
0.00204049
2.92314e-16
4.62963e-16
6.71044e-17
9.41251e-17
0.0152578
1.7558e-18
6.31866e-18
0.00987592
0.00233932
1.08666e-13
0.00937337
4.0678e-15
0.00859389
4.27555e-16
1.90585e-17
0.0571498
4.67775e-17
7.40598e-16
1.1536e-14
0.0049032
8.43848e-15
0.0328242
0.00638725
4.82783e-17
0.072711
0.0028325
0.0261327
0.0235718
0.000929028
9.17357e-05
8.46302e-18
0.0569056
0.0415946
8.57923e-18
0.000308642
0.0361855
0.00708448
0.00155653
0.024438
0.0237747
4.50295e-17
0.0104612
3.67315e-06
8.64508e-15
0.0320036
0.000299425
3.4812e-14
0.010916
0.0388205
0.00158784
0.0185281
0.0168404
0.00706212
3.89565e-15
0.00915567
0.000400311
7.26383e-12
0.0144645
0.0149025
0.0347875
8.24353e-17
0.00211314
1.64285e-17
7.06268e-17
6.08411e-17
1.48631e-15
1.68457e-05
7.39258e-15
1.25343e-10
1.49049e-16
1.66209e-15
5.15183e-05
0.0396416
1.93997e-16
0.0365934
1.36322e-16
5.46798e-17
1.10108e-15
0.03963
0.00049613
2.10113e-15
1.94573e-17
3.48826e-17
1.33525e-17
0.238545
0.0684296
1.50716e-15
0.0017699
4.67913e-06
3.05853e-18
0.0349022
0.00649384
0.01293
3.19191e-17
1.82695e-16
0.000392729
0.0010695
8.90606e-15
2.53976e-18
6.46005e-15
0.00706254
8.89753e-18
2.73504e-16
1.43282e-16
0.0385038
0.00161314
1.28478e-16
4.12141
0.142791
0.0108988
2.12849e-18
1.93818e-15
0.0567366
0.000304722
8.99146e-15
7.58145e-06
0.170069
0.00291183
0.0119164
9.30708e-16
0.0577949
0.00152108
1.87772e-18
3.10942e-15
8.0469e-17
1.15551e-17
1.33625e-17
2.62119e-16
0.0193375
1.52744e-16
5.1897e-17
4.41492e-15
0.0119162
0.0234259
1.12605e-15
9.23353e-16
0.105666
0.0133282
0.008777
9.8703e-16
9.65548e-17
0.0345882
5.91826e-18
0.00227547
0.00240154
0.00353526
4.22037e-15
5.55703e-17
1.94451e-17
3.0995e-17
0.0158544
5.93386e-17
2.85023e-16
0.000817306
3.47146e-17
0.0211488
0.00140604
1.00713e-16
0.0358199
0.600917
0.00232193
0.0294353
0.000200067
0.0480083
2.42167e-10
4.22614e-15
0.0218663
0.0766285
0.00620235
4.50744e-15
1.32257e-09
0.51785
0.00988862
5.10331e-18
0.00291446
0.00313573
0.00143409
2.13604e-15
6.51148e-17
1.66332e-17
0.0126403
1.29548e-14
0.0023281
1.78247e-15
0.00145654
0.00127653
0.0343275
0.000535235
1.16487e-16
2.69389e-16
2.4384e-15
0.0197186
2.43647e-17
3.07816e-15
4.30323e-05
2.18665e-18
5.01631e-20
9.39226e-17
1.94444e-17
0.00896898
2.76432e-15
5.76198e-17
7.14295e-10
4.88118e-16
1.02135e-18
2.41822e-14
6.5899e-17
3.2632e-06
0.00151681
2.27326e-16
0.00333496
1.22922e-05
2.77734e-07
8.5314e-05
0.0043914
2.41809e-17
1.0034e-05
0.00924424
0.000372182
7.59143e-18
1.10128e-08
0.00075229
1.30149e-15
0.00888223
0.00029973
2.0103e-06
0.0253087
0.00866896
0.00215948
0.00553673
0.00197581
2.89798e-17
1.10235e-15
0.0301184
0.0243834
1.49088e-18
0.00775615
0.0536679
0.0277324
2.48628e-15
0.00166213
1.70693e-17
0.0102768
0.0134811
1.12237e-15
0.00144062
0.000475462
1.50115e-06
0.00451103
7.14221e-16
0.0471625
1.9345e-05
0.0018606
4.02158e-05
1.37672e-05
4.15274e-17
3.22501e-17
0.00833257
2.34438e-17
8.96619e-05
0.000328552
1.06873e-05
6.44945e-08
6.15826e-08
1.22998e-06
1.38051e-17
6.05125e-15
0.0216285
9.40253e-17
0.00115803
0.00235177
1.11856e-15
1.2435e-15
6.41832e-07
1.47462e-10
3.52528e-17
3.32554e-06
8.84259e-17
6.08959e-17
6.15428e-18
4.89169e-17
1.03948e-14
6.97823e-17
0.000330552
1.09243e-15
2.16822e-17
1.61962e-17
4.72638e-06
7.05806e-05
0.00204253
0.00916453
2.38031e-16
3.10677e-16
0.000232544
1.68399e-16
1.1497e-15
5.31834e-14
0.0194492
0.0407377
4.00076e-16
2.34405e-16
2.67031e-15
6.98863e-16
6.03886e-19
1.54368e-16
0.00845447
2.10372e-16
7.90932e-08
0.0269349
7.90597e-18
3.05742e-18
6.43427e-16
1.51867e-05
1.42562e-15
2.17541e-17
4.07015e-17
5.90089e-06
1.14328e-17
0.00530202
1.06995e-06
4.34355e-09
4.30006e-16
4.68339e-05
0.00260518
0.0434671
6.13741e-16
5.49522e-06
0.00721913
8.57744e-16
2.07515e-16
3.58803e-14
2.21853e-15
0.00787373
0.00175126
0.00396357
1.59403e-07
1.26422e-18
0.0222893
1.2847e-16
2.85434e-15
1.7303e-13
5.22309e-18
0.0253029
1.98487e-16
7.20021e-15
2.63489e-06
0.0487983
3.1676e-16
0.00300193
2.15783e-17
0.00112367
1.67246e-15
5.32321e-18
4.51011e-17
4.08798e-17
0.00264501
0.000683053
0.338727
7.09037e-17
1.01282e-15
0.00204952
1.0223e-16
2.03868e-15
4.73909e-17
0.0422429
5.59702e-06
0.0286715
6.34587e-16
6.48318e-06
2.96859e-05
5.00096e-14
6.93738e-05
1.71667e-15
0.001826
0.0276323
0.0200151
0.00164771
0.000326366
6.3029e-17
1.58293e-17
3.40525e-17
1.40182e-05
2.46093e-18
0.00543848
1.96751e-19
0.176003
4.18797e-17
0.0417288
0.00354336
1.96662e-15
6.23779e-17
7.08736e-15
6.44759e-19
0.0313017
1.9223e-14
3.08515e-13
0.012991
0.00535961
3.90858e-15
1.23468e-14
5.90898e-15
3.69267e-15
3.20903e-16
3.76572e-18
0.0203834
0.000519816
7.2068e-17
1.76244e-16
2.78163e-07
1.52721e-16
0.00133108
0.000115913
8.70725e-16
0.00271119
1.82754e-17
0.000331859
6.96475e-17
0.000889856
8.4133e-16
1.27344e-07
1.80324e-06
0.000876223
0.0143969
0.0274186
1.01315e-06
1.23636e-16
0.000446468
1.54087e-16
0.00437059
2.59686e-16
2.13865e-17
7.79923e-14
3.03283e-17
3.3283e-17
1.2654e-17
0.00569854
0.00627659
7.98693e-18
1.77223e-13
3.44281e-16
0.000535388
1.76272e-05
7.9727e-18
0.0184314
0.000212991
4.7341e-15
0.022479
0.00812036
0.00332857
0.0134606
2.8192e-17
1.3492e-16
7.55586e-18
5.23726e-16
0.0362688
1.37289e-17
0.103816
3.21608e-17
0.000216903
0.00072906
3.85082e-17
0.000670734
4.1484e-18
9.99755e-17
0.00227065
2.58811e-08
0.00590135
1.14477e-16
4.76133e-15
4.16475e-16
0.000695097
2.48936e-15
9.24608e-19
3.09153e-16
5.10539e-07
1.55228e-15
1.19039e-05
6.77741e-15
2.83013e-15
6.35336e-16
0.0178303
0.0095969
0.0176909
0.0342734
4.25677e-18
9.67771e-06
8.17908e-18
1.06288e-18
0.010739
5.1006e-16
3.10202e-06
0.000255406
0.00628675
0.000240443
9.65988e-11
0.00242406
1.58482e-18
1.68532e-10
9.84911e-10
9.33043e-05
0.00123738
0.0134861
6.59762e-08
2.13089e-16
0.0311679
5.48075e-16
5.62661e-16
2.96645e-05
0.0745176
1.01116e-07
2.18359e-17
1.11843e-16
6.04652e-07
4.75439e-16
8.53633e-16
1.0152e-05
1.16122e-14
7.90867e-15
0.0419892
0.000141173
0.000105824
0.023452
0.00717223
4.11206e-16
2.22011e-16
3.74906e-06
0.00420009
1.40954e-17
1.10275e-14
0.011239
1.7395e-15
5.57318e-14
8.59222e-16
2.14606e-15
4.11482e-13
2.5221
9.17444e-17
0.000184278
1.72038e-15
0.0153263
6.6163e-17
3.71332e-12
1.79856e-15
1.13992e-15
1.50352e-17
1.22443e-16
0.00336439
3.21225e-17
4.46634e-17
1.28007e-15
2.90981e-16
2.61317e-17
1.44437e-16
0.00996527
8.99634e-17
0.0110332
0.00233563
2.40385e-16
0.00172877
1.30165e-15
0.000399329
1.4962e-06
0.00406645
0.0141705
2.48703e-16
8.95409e-05
0.00934132
4.49051e-06
6.92494e-18
1.08355e-06
0.0169468
0.00476208
1.18171e-15
0.0267146
1.37147e-15
2.39677e-17
8.67243e-16
1.45577e-16
0.00827341
1.18284e-16
5.84397e-16
0.00805296
1.09777e-07
0.00278618
4.73902e-18
8.04357e-14
0.00067575
2.57964e-18
0.000147222
2.53125e-15
0.0217502
3.37069e-16
6.43955e-16
5.54121e-05
3.44956e-16
0.000101534
9.176e-17
4.17691e-16
0.00534481
0.000391657
0.00488709
0.0174777
0.21737
0.0197419
1.70377e-16
2.31285e-15
0.00237003
0.00669199
0.0351829
0.0133345
6.38983e-17
0.0112905
1.1712e-16
6.46869e-17
0.00763738
0.00959555
5.74392e-16
0.0124347
1.91163e-17
0.00284058
0.00827119
2.32339e-15
1.09097e-16
7.25517e-18
0.00232412
1.21762e-16
2.91134e-17
0.00354767
0.0199342
3.99446e-06
0.00767597
1.04671e-15
4.52324e-17
5.48314e-05
0.000656632
1.19547e-16
0.00924088
3.60944e-15
0.00243652
8.23914e-16
2.0846e-15
0.0111195
2.46613e-18
4.50438e-05
0.00296573
2.62178e-15
3.302e-16
0.00365044
2.59325e-11
0.0539414
6.64224e-17
0.285238
6.82144e-17
2.26557e-14
2.96017e-14
0.00641924
1.5117e-14
6.0541e-15
0.00501287
6.20425e-15
0.000161601
1.41151e-15
2.20856e-15
2.16102e-15
1.5629e-07
0.000775333
6.01005e-17
2.00372e-17
0.035979
0.000942485
1.19615e-16
0.000596263
6.65066e-16
2.05449e-16
1.20385e-06
0.00369079
0.00117275
7.25589e-16
2.20249e-17
4.29086e-17
2.39662e-17
5.61357e-16
2.68928e-15
3.25942e-18
1.83059e-16
6.13192e-16
1.1324e-15
6.70368e-17
4.20697e-16
2.20804e-16
1.62455e-16
1.58412e-16
6.81202e-15
6.14251e-17
3.12878e-16
1.80369e-16
1.73277e-17
1.2919e-17
0.0183561
8.46302e-17
4.87822e-16
4.09913e-18
0.00619558
7.29298e-19
3.54321e-16
0.194542
3.76069e-16
3.56915e-16
0.0219111
3.56069e-12
4.28202e-16
0.00437174
0.0232764
2.19129e-16
0.0012769
0.00217058
3.01671e-15
0.0111051
0.0373698
0.0165254
0.00287586
0.00975603
7.8258e-16
2.73955e-16
0.00275669
0.0101752
0.00268542
3.50616e-17
0.00559565
0.00135233
0.0186402
0.0107016
0.000640655
0.0135956
0.00107038
0.00843371
4.07189e-17
0.0265789
0.0075599
0.00181919
0.00117327
4.17131e-17
2.89224e-17
1.33538e-17
2.60478e-18
1.90779e-17
0.00874203
0.0121961
1.98014e-17
7.36943e-18
3.06893e-15
1.82258e-15
2.7432e-16
8.30962e-16
2.8285e-16
2.75022e-16
0.00409623
8.64366e-05
0.0194754
4.91696e-05
3.75059e-16
3.67022e-15
0.0331298
2.84281e-06
1.27464e-17
2.40878e-16
0.00700247
2.83112e-18
3.46821e-17
3.65387e-06
0.00701266
0.0122313
0.029347
0.0270251
5.39399e-16
0.0139827
0.000261341
8.15949e-15
2.88669e-16
0.0101981
1.08437e-16
1.08988e-16
0.0277069
0.994072
0.000149421
1.01022e-14
2.27433e-18
0.0162273
0.0222147
0.0162109
0.00576711
0.0019861
8.59099e-17
6.82119e-07
2.2842e-09
8.48561e-17
1.43451e-15
0.0169753
1.32332e-16
0.00193921
0.0258704
0.0155132
0.0119761
2.74231e-18
0.00523293
8.9192e-18
1.39575e-15
2.83369e-17
8.70511e-17
0.00250859
0.709883
1.23533e-16
7.59683e-17
4.36873e-06
0.022478
0.00046563
0.00616979
0.0312091
0.00456331
0.0197032
3.11846e-15
1.3626e-15
1.8828e-15
0.0306336
0.00510975
2.71122e-08
1.61743e-15
4.04733e-18
4.77862e-14
0.0186995
0.0026895
8.04217e-18
0.00431948
0.0450118
0.00817758
0.00544051
2.32838e-16
1.70744e-13
0.00613107
0.0214951
1.48005e-18
0.000238179
0.0120334
0.000856547
0.00884933
0.00411477
0.00747912
1.23216e-14
0.00346493
0.0186855
0.0364849
1.27114e-09
0.02301
7.11232e-15
0.0159218
0.000146749
9.7706e-18
0.00249416
0.00634372
0.000312455
0.0106717
2.17769e-07
0.00019204
1.72646e-05
0.0245863
0.00311597
6.80804e-16
0.0377521
0.00105537
1.72745e-16
3.09846e-17
2.55704e-08
4.97752e-06
0.000897986
1.01324
0.0325344
0.00776002
2.56933e-07
0.0371584
2.39282e-15
1.28362e-16
0.00383394
6.76968e-15
0.002315
0.00615324
0.00180597
0.00445559
2.50556e-16
0.000238347
0.102137
2.80655e-17
0.0596304
0.00653256
1.37747e-17
0.0034177
0.000180791
6.73144e-17
2.10422e-09
9.47735e-05
7.83035e-16
1.01458e-16
1.3617e-17
0.00427123
0.00448507
0.013247
1.18688e-17
0.00560894
0.029685
6.92064e-16
0.00701921
0.0108716
0.0240679
0.00130265
5.09634e-16
0.000616748
0.00894762
0.00917085
0.00780276
0.0368946
0.146434
0.00324788
4.9822e-17
5.94725e-06
0.050272
1.73282e-17
0.000374996
3.86984e-18
1.33764e-17
1.41833e-17
1.47222e-18
2.42743e-17
0.00265831
2.61095e-17
0.00612832
0.00144146
9.24895e-18
0.00408458
1.04358e-14
0.0139135
5.09079e-16
6.96329e-06
7.52114e-16
0.0206402
0.000111182
1.26702e-06
0.00357248
0.0277592
0.0165536
0.00363913
0.0239625
2.20845e-12
0.0196809
0.0497044
0.00819408
1.22015e-17
0.00118926
0.000357762
0.00479177
0.0113098
0.000757304
4.56919e-17
4.10743e-15
1.2067e-15
0.00404672
1.39423e-16
4.76332e-05
0.000227636
0.00053155
0.000271607
5.22375e-16
1.47924e-18
7.45995e-17
0.00737914
0.0199927
0.00127545
7.32363e-06
0.00185363
0.00613237
0.00196786
0.00071953
0.00628237
0.00530611
0.00231879
6.48001e-16
3.53338e-18
1.55884e-18
0.0138025
0.0102466
2.13149e-16
3.97128e-17
2.26884e-13
0.0070803
0.0185978
3.40477e-16
0.00189142
4.48396e-17
3.75067e-07
0.00525016
0.0740984
7.71476e-17
3.51776e-18
0.0034193
2.6257e-16
8.47464e-05
0.0109817
1.26728e-15
0.00938879
0.0313558
0.0160311
6.50788e-17
0.000661433
2.31385e-16
5.70502e-05
0.0454442
5.43315e-17
1.09953e-16
0.0107311
4.66597e-13
1.94459e-17
3.51389e-05
0.00107333
2.2199e-16
4.16199e-17
8.65546e-15
4.68128e-05
0.0012505
0.00305454
0.0201832
0.00947011
1.63515e-16
3.26517e-07
0.000421303
8.56823e-17
1.11764e-17
3.14715e-17
4.33841e-17
1.41942e-15
1.34214e-15
2.18946e-15
4.88419e-17
7.32574e-15
1.06694e-15
1.38145e-09
2.31323e-15
0.000410277
3.37931e-15
8.68075e-05
3.99719e-14
6.33279e-05
2.70962e-14
3.56701e-17
0.022004
0.00804369
9.09235e-15
0.0866562
1.42768e-09
3.26271e-11
1.25698e-15
0.00104522
1.30744e-13
0.00218851
4.75069e-06
0.000972851
3.51982e-15
7.50316e-16
0.00063433
5.83845e-08
3.64685e-16
6.69966e-18
0.0368858
8.62368e-16
0.0339052
4.70006e-16
5.91585e-18
1.10092e-06
0.0266679
0.0084415
9.74029e-17
0.000400165
1.34548e-15
0.00103101
1.22111e-05
0.00186616
0.000646024
2.40225e-18
0.0190168
0.000761048
0.00480181
7.02034e-17
3.73152e-16
1.20841e-16
0.00525684
0.00398507
0.0440079
1.44651e-16
2.35334e-07
7.39338e-17
5.63778e-16
1.16065e-15
2.00781e-16
0.00237622
0.0015619
0.00236586
0.279336
6.95391e-18
0.0287013
0.0329512
0.0174883
0.00122256
5.14841e-18
0.00544179
0.00326035
0.00476915
8.40579e-07
0.00960323
8.06348e-16
0.00172273
0.000890135
0.0303812
7.99963e-07
0.00241141
9.35867e-16
0.0166138
9.45966e-16
5.87319e-17
0.00142616
1.03972e-17
0.00695264
2.13993e-17
1.75423e-15
4.17201e-15
2.92144e-17
2.60275e-17
0.000591101
1.40798e-15
0.000599371
1.24571e-15
4.10477e-17
0.0187864
0.00593157
0.0072602
0.00808628
2.40631e-17
0.556597
3.06884e-18
0.0666466
2.45548e-15
0.018548
0.0180521
0.00183401
0.0533774
1.03043e-14
8.31372e-14
3.81289e-17
0.0020584
1.52192e-18
1.22635e-16
0.0167578
1.32144e-15
6.65042e-16
0.00404196
6.71167e-16
0.0125676
1.11094e-07
6.32511e-15
3.24567e-15
2.29535e-14
0.0014348
0.00574684
5.8376e-17
0.0207038
0.000242281
4.53373e-15
0.0941521
1.01066e-16
0.0153806
0.0170126
0.00295891
9.13676e-17
0.0154893
0.00824762
0.00059904
0.00410225
0.0110874
3.82854e-16
4.1344e-16
1.49273e-06
9.9252e-17
1.39918e-16
1.41169e-17
0.0182905
0.0359149
0.00400686
0.00175301
7.6615e-15
0.0416351
0.0429964
0.00365634
0.00300127
0.00796188
0.0200984
0.00204038
4.02724e-18
9.39247e-17
2.39755e-16
0.00504652
1.54363e-18
0.024162
1.41949e-15
0.000631194
2.93477e-07
0.00238545
0.0208708
7.38047e-17
2.72814e-17
0.00197942
0.000278506
7.13588e-17
1.89799e-16
2.61548e-18
2.71162e-05
0.000257728
0.000105864
0.000634727
0.00876733
0.0836387
7.34904e-16
6.65909e-18
1.05192e-16
0.00354567
0.0188298
0.0186797
0.0309944
0.00191446
0.00211216
4.56823e-16
6.65153e-17
2.89591e-13
3.73195e-16
0.00934444
0.0190616
1.37845e-16
5.76938e-16
9.68408e-16
3.2276e-17
4.39432e-18
2.08647e-15
0.0109355
3.44638e-17
0.0010856
0.291714
3.87289e-15
1.55241e-05
0.0208903
0.000616617
1.69182e-17
4.95461e-15
0.00367999
1.09186e-16
0.0115984
1.45748e-06
0.021813
6.2613e-15
1.30715e-12
8.20808e-17
1.02381e-16
8.4576e-16
8.30013e-15
0.173293
1.2547e-16
0.00440939
0.00105728
9.76313e-17
3.14161e-16
0.0014624
2.74815e-17
1.76857e-16
0.0141814
5.06432e-05
7.7114e-16
2.11956e-16
8.98712e-16
0.0148028
8.19106e-18
5.74556e-17
0.000244457
0.00196782
0.002247
1.59946e-16
1.74448e-15
2.03986e-15
0.00295144
0.00140538
0.0103544
0.00295169
1.32394e-16
0.000685057
0.012362
0.00582445
2.07476e-18
2.86441e-17
4.41755e-17
6.60485e-18
1.02231e-17
0.0282026
0.00716273
0.0042564
1.14865e-17
1.1912e-17
1.04078e-18
4.60439e-18
4.09571e-16
6.33162e-07
0.000291392
0.002301
2.97334e-17
1.24642e-17
1.57955e-18
3.81255e-09
0.0275267
0.0947719
5.66144e-17
5.47952e-11
5.42366e-13
5.49411e-16
1.19434e-16
0.00326817
0.00676365
3.30733e-16
8.74825e-16
0.00243321
3.86017e-16
0.000680498
0.00115137
2.0087
5.71907e-17
6.58438e-16
0.0119987
0.000361646
4.25424e-16
0.634552
0.000510121
0.0067249
5.1947e-16
1.30009e-16
7.57994e-18
1.84755e-16
0.00696236
9.02936e-05
1.21512e-16
0.0217149
0.0159725
0.838379
1.9964e-17
2.41217e-17
6.53655e-16
8.66758e-17
0.00536083
2.82769e-08
1.09596e-16
4.81273e-16
0.0167576
0.00106294
0.00481266
1.35474e-16
6.06604e-17
0.0256196
4.20693e-15
4.36447e-17
1.961e-16
4.34462e-16
0.0227105
1.32686e-15
1.16358e-16
4.554e-16
0.0228769
0.0126251
2.67147e-17
9.07043e-18
3.53107e-17
0.013383
7.42231e-08
3.43513e-15
1.56951e-16
4.76164e-18
5.6702e-17
0.00217188
0.00864985
4.61427e-18
0.00205587
0.000863672
0.00392706
2.67756e-18
5.74472e-17
2.69026e-16
6.09559e-18
8.46086e-17
0.0214008
4.06271e-16
0.0155199
8.4878e-16
0.00115263
4.8694e-14
0.00170036
1.27604e-16
8.63291e-18
0.0101718
0.261275
2.50598e-15
0.00259215
9.21388e-17
0.000285568
5.14115e-15
3.38754e-16
5.36203e-16
1.66584e-07
1.88273e-16
0.00035856
3.84258e-16
0.0334915
7.67759e-17
1.40254e-15
1.62932e-17
2.32664e-16
7.13588e-06
0.000110997
7.95874e-17
0.00376269
3.99543e-19
0.00351836
0.0195754
0.000889411
1.27768e-18
2.9714e-06
0.000305428
1.37553e-06
0.00490602
4.91607e-07
0.0011947
1.95772e-15
2.15485e-16
3.2686e-07
0.00471315
0.000168996
2.19415e-15
6.71512e-16
1.7923e-15
0.431076
1.75366e-17
1.29784e-15
1.1255e-16
3.67771e-17
1.10471e-17
8.5409e-05
0.000121475
0.000752236
5.21569e-05
5.84735e-13
0.000911895
9.01479e-18
0.00632647
4.82491e-16
3.18935e-18
1.17521e-16
6.76752e-15
2.3951e-05
1.0265e-15
2.91101e-18
8.8859e-16
0.0145084
7.62708e-16
4.71801e-17
0.0106272
6.11769e-15
0.0363685
0.0654087
0.384675
1.95397e-16
0.204791
1.27518
1.80651
0.668955
5.2381e-16
5.51014e-17
0.00473313
0.00523615
5.77583e-16
0.00294858
2.26675e-16
0.0310443
7.80111e-16
2.46434e-15
0.00046971
9.25491e-17
4.65596e-17
6.80794e-06
2.79153e-05
1.88737e-19
2.40991e-16
1.33611e-06
2.32796e-14
2.98027e-15
2.02115e-05
0.00737984
0.0011303
7.28328e-15
0.00605145
6.53171e-17
0.00337628
3.90739e-07
0.00512016
5.38583e-16
1.08371e-09
0.00465275
1.24975e-14
2.23043e-10
1.59266e-17
0.031758
2.74643e-15
0.0101939
2.94907e-16
9.55489e-08
3.59783e-16
3.25695e-15
5.56444e-18
8.88197e-11
7.97499e-10
7.00861e-17
0.0119536
0.00671682
3.15908e-18
1.32668e-16
0.0327209
0.0177082
0.173817
8.98789e-18
4.71578e-05
0.0240866
0.0455428
3.01406e-09
1.27187e-18
0.0647343
2.64572e-16
0.213363
5.17164e-17
1.08279e-08
6.82915e-09
4.88399e-17
3.73889e-05
9.94206e-16
0.0198529
2.50133e-16
4.04871e-17
1.73262e-16
4.87274e-17
1.00368e-16
3.10305e-16
0.000366198
0.00147697
0.137644
8.66513e-16
2.70792e-15
0.0407766
3.79947e-16
9.89588e-18
4.92619e-16
2.84786e-18
8.22256e-16
0.00497313
3.56642e-17
4.61185e-17
6.10129e-18
0.00278231
1.57963e-15
1.47395e-16
2.51366e-15
0.00270447
1.89112e-19
0.00512799
0.196041
0.00380882
0.00449297
0.0226558
5.10643e-17
9.45824e-16
2.3556e-16
0.00255721
0.00167131
1.49276e-16
4.83052e-14
0.00048446
1.52998e-16
8.9272e-17
0.311778
1.11667e-16
0.0215589
2.8531e-16
0.00205835
0.00365662
3.05885e-16
3.71371e-16
5.98731e-16
1.90264e-18
1.46854e-17
0.0200166
1.23684e-15
0.00382112
9.33212e-16
1.32126e-16
0.00569068
4.07975e-17
0.013778
7.33066e-15
1.597e-17
0.00220408
7.77189e-05
0.12356
2.77282e-16
5.31539e-17
1.82535e-15
0.00357654
0.170959
9.59445e-16
1.65602e-16
3.1983e-15
0.00124672
3.18101e-16
0.0212833
0.0233532
1.42429e-15
4.04802e-17
0.00583355
2.41017e-17
2.67697e-15
4.10143e-18
1.13774e-15
2.34726e-17
0.0601864
1.23943e-13
1.02386e-15
6.35973e-18
3.31436e-14
2.40191e-16
1.08455e-13
6.96082e-16
3.57664e-16
4.90808e-15
0.00753953
3.82871e-15
0.00674952
1.70625e-14
1.10266e-16
0.542373
0.00216273
1.83169e-15
1.22986e-14
6.79529e-17
0.00193583
1.43166e-15
1.4972e-16
9.95675e-16
1.57834e-16
0.00573814
1.2123e-16
0.0029247
2.14339e-18
0.0100139
2.51316e-14
0.0550873
3.13448e-15
3.47369e-17
0.0170786
1.5168e-14
4.24131e-18
0.0259846
0.000268908
2.29079e-18
2.11917e-17
0.0385744
0.0118452
0.00526992
0.000651504
0.00145294
0.0156357
0.000769647
0.00543615
5.91848e-15
0.0199396
6.07021e-15
3.97731e-15
3.25357e-17
6.12515e-15
2.06355e-16
0.00827838
5.88584e-17
7.09617e-20
5.10765e-18
5.09655e-07
1.41862e-05
6.78724e-15
0.00280744
1.0471e-16
0.004085
3.17949e-16
6.98884e-07
0.00310573
1.87921e-13
0.0398819
1.2465e-16
3.11752e-16
1.43142e-16
0.00235948
0.00142216
3.79481e-17
9.36663e-17
0.00201472
1.1572e-17
0.622359
4.0072e-17
0.0800511
2.37506e-17
8.63979e-17
2.41963e-17
1.10801e-16
0.00835633
1.81513e-16
6.05962e-05
2.82468e-17
0.00932664
4.19679e-17
2.24659e-17
7.87987e-12
1.85454e-13
9.72557e-17
8.73219e-18
1.52314e-16
2.51682e-17
0.00435521
0.227749
2.39122e-14
4.45288e-18
0.000395568
1.73504e-16
1.86929e-17
1.84368e-06
0.0165678
0.000170107
2.5575e-16
0.000545786
0.00367643
0.00442641
0.00842065
1.33058e-16
5.24521e-19
1.54181e-17
1.56172e-16
8.14762e-17
2.16229e-16
1.26387e-16
2.02275e-15
3.37591e-16
1.81541e-16
1.95625e-17
4.10974e-17
0.0705199
9.38915e-17
1.01387e-17
3.9094e-09
5.3138e-17
1.12943e-16
1.05495
7.1705e-17
1.13237e-16
0.00139629
2.3634e-10
1.34006e-16
4.5522e-18
7.3488e-18
0.0206893
1.12841e-17
7.07045e-17
3.45725e-08
2.08592e-17
6.32471e-17
6.81011e-17
2.67681e-17
0.10148
2.55908e-17
0.000248813
4.59261e-18
1.52307e-16
3.41997e-17
1.68294e-16
3.40836e-17
4.33516e-08
6.53548e-08
0.000126733
7.59202e-18
8.00565e-16
6.90275e-17
1.14003e-07
8.88095e-17
2.43965e-07
3.13124e-08
2.21058e-16
2.85251e-16
2.60731e-15
1.28631e-08
5.97302e-16
1.09967e-16
1.1733e-09
6.63379e-15
0.0302512
4.09152e-17
0.00545871
1.98094e-15
1.74773e-06
1.17317e-16
0.0015615
1.61659e-16
0.00448514
0.0192991
7.38229e-16
0.00264388
8.95852e-06
2.45626e-16
0.00819932
2.32515e-16
2.25677e-16
2.07316e-16
1.59058e-16
1.35768e-14
2.44649e-17
5.87342e-16
1.82878e-17
0.239316
1.59571e-15
7.73167e-17
7.96143e-17
4.43668e-17
6.71858e-17
0.0293183
0.779327
1.94162e-06
1.66695e-05
8.69174e-17
0.00156603
0.00104556
1.97623e-17
5.73511e-16
2.83753e-16
2.76682e-16
2.5318e-16
1.12794e-15
4.16763e-15
1.37875e-16
0.000411742
1.69788e-16
7.79134e-18
9.50013e-05
1.5347e-06
5.4474e-16
0.0263832
2.34784e-15
2.49365e-16
6.09114e-17
0.165397
6.63865e-17
1.85681e-17
0.0215709
3.66019e-18
3.65349e-18
3.57952e-15
2.73147e-18
0.0481619
1.77345e-16
3.73026e-16
2.6231e-16
7.90832e-16
0.0064521
0.230628
0.0268369
0.0452057
0.00265988
0.000154094
1.62551e-17
1.24523e-15
0.105623
0.0015688
2.24115e-15
4.67773e-08
1.01631e-17
1.55432e-09
3.20662e-16
0.210774
6.30861e-16
4.54824e-16
0.000165475
6.19563e-11
3.36591e-16
0.0116443
2.04317e-17
2.56828e-17
0.202059
0.0280714
2.74048e-17
3.00073e-17
5.41782e-16
4.57249e-17
5.11169e-17
5.05004e-14
9.2576e-18
1.87729e-17
0.00343926
2.35218e-17
5.98625e-17
1.65044e-16
1.01253e-05
5.7384e-17
1.0045e-14
9.93288e-17
2.27057e-16
2.24438e-15
5.62622e-16
0.00242062
4.88941e-16
1.10555e-16
0.00418537
2.10268e-17
0.000415776
0.00509954
5.85508e-17
0.00277041
4.86395e-17
2.61874e-15
3.94056e-17
2.05231e-15
2.94856e-17
2.43848e-17
1.08364e-17
2.55478e-18
0.00183615
2.70805e-16
7.80917e-18
1.28426e-17
4.29787e-15
8.35214e-17
2.76084e-15
0.040257
4.30489e-17
1.898e-18
0.32416
1.99377e-17
7.14493e-17
1.06835e-18
0.00095598
1.41288e-16
3.15364e-06
2.43378e-15
5.07305e-05
0.00854431
7.47615e-17
1.8222e-15
0.0375813
2.53021e-15
5.94184e-17
8.7848e-05
3.74301e-07
0.0097072
1.30266e-06
3.77884e-07
7.87264e-08
1.47844e-18
2.20256e-15
0.00074327
0.000217692
0.0206113
0.0106464
3.55486e-05
1.33842e-17
0.00536653
0.00412283
0.0159495
7.46689e-18
0.0108059
0.0157515
0.0023946
0.00111594
0.000408611
0.00451979
0.0180394
0.0356792
0.00748645
0.0109608
0.00716594
2.96757e-14
0.00254628
0.00341446
0.000571629
0.00309734
0.0135413
0.0121392
0.0204329
1.56166e-14
0.00732624
1.08511e-13
0.00443033