/*--------------------------------*- C++ -*----------------------------------*\
  =========                 |
  \\      /  F ield         | OpenFOAM: The Open Source CFD Toolbox
   \\    /   O peration     | Website:  https://openfoam.org
    \\  /    A nd           | Version:  10
     \\/     M anipulation  |
\*---------------------------------------------------------------------------*/
FoamFile
{
    format      ascii;
    class       volScalarField;
    location    "50";
    object      SgT;
}
// * * * * * * * * * * * * * * * * * * * * * * * * * * * * * * * * * * * * * //

dimensions      [1 -1 -3 -1 0 0 0];

internalField   nonuniform List<scalar> 
59698
(
0.0130867
2.5068e-16
1.20846e-06
7.27337e-17
0.0303248
4.32457e-18
0.00213304
8.15326e-16
3.14526e-16
9.55103e-18
2.68847e-16
4.07002e-06
4.44083e-17
0.000432248
0.000357915
2.23881e-17
6.98864e-06
1.2286e-06
1.75563e-06
0.000252402
0.00136668
0.0141247
1.20266e-07
2.54129e-18
0.0423151
1.02211e-06
0.000964181
0.00759536
0.00681509
0.0074462
0.00478322
1.54442e-17
7.63175e-17
0.0125289
0.00241255
1.51827e-06
0.0187232
0.0204846
1.6274e-15
0.0227126
0.00866001
5.07415e-19
0.00374301
0.000638645
1.99148e-17
0.032262
3.85824e-06
0.000729069
0.000248536
1.67198e-05
0.00151985
9.55051e-07
0.000316793
5.4707e-06
0.00927775
1.35401e-06
0.00132957
0.000211842
0.000809131
0.00282615
0.00344234
0.000502585
0.122639
9.83749e-07
0.0126206
0.00160031
9.38183e-17
4.49395e-06
5.08169e-06
1.38377e-16
7.88857e-10
0.000253303
3.30716e-06
0.0412863
2.46681e-18
0.039389
0.000115917
0.00924485
0.000355226
0.00613799
0.00886852
0.000475532
1.13021e-17
3.20571e-06
0.00849022
0.000551867
3.60891e-06
1.61168e-15
0.0634528
0.000136505
6.25646e-17
0.00206401
0.0147879
0.000358018
0.000175669
0.000433672
0.00533246
3.53568e-17
0.000270538
3.08286e-18
0.0731754
0.00179146
0.0162219
0.0121353
1.07936e-10
1.33782e-16
2.74391e-06
4.60271e-11
1.575e-16
5.74148e-17
3.28092e-10
8.76995e-11
0.0379946
1.17555e-18
3.89953e-15
1.86666e-16
2.57458e-15
1.67362e-15
2.00764e-15
1.25094e-17
2.71462e-16
0.000704913
1.1774e-15
7.14068e-17
1.35879e-15
1.53007e-15
0.0107994
6.49773e-18
9.15483e-16
1.47676e-16
0.041336
2.13308e-16
5.29532e-18
0.10019
0.00427891
0.00439132
1.19913e-15
2.60386e-17
1.19908e-06
0.000130414
3.92631e-06
0.00037352
0.000179317
0.0026579
2.58902e-16
0.000691498
2.20501e-16
2.61204e-15
6.51448e-16
0.0293256
4.22972e-05
1.78081e-16
0.00151438
6.25819e-16
0.000162074
0.000336493
2.32532e-06
4.2854e-16
0.0123826
4.1798e-16
0.000855779
8.48242e-16
0.0164802
0.00164936
0.00341126
0.0323153
3.17077e-06
0.0709865
0.000487415
0.000413612
0.0120469
2.34013e-08
0.0108102
0.0148102
0.0794422
0.000723634
3.15531e-17
5.06364e-05
1.27841e-15
0.00632151
0.00943716
0.0181652
0.0147322
7.42029e-17
0.04581
0.000237466
0.0114375
0.000104415
1.89809e-16
0.0011826
0.000396283
0.000688883
0.00269459
0.0388369
0.00403767
1.17481e-09
0.00981248
0.0550702
1.40606e-05
0.00768372
3.29139e-15
0.0063086
0.021085
0.000278979
0.00683243
0.000324358
0.00613733
0.000804183
0.00512225
0.00790635
0.000355464
2.36181e-05
0.000162213
3.65681e-18
0.00407089
6.29281e-16
7.83672e-17
3.65091e-05
0.0127467
0.00661481
0.00561067
0.000514955
1.69352e-09
0.0663102
0.000813465
0.0236888
0.00733883
0.00323605
0.00687182
0.15927
2.5784e-16
0.00472987
0.00292184
0.0032108
8.80667e-16
0.009661
0.0829262
3.05538e-05
6.00725e-16
0.000449163
3.62893e-16
0.00146746
0.0135381
6.19023e-18
0.0061137
2.11177e-16
0.00378689
0.229733
0.00122326
2.78802e-06
0.000699024
0.00163147
0.000628121
3.8038e-16
2.86326e-06
0.000690189
0.00599021
0.0012862
1.43527e-07
7.92064e-16
6.8963e-06
4.49154e-17
0.000392186
0.00321693
0.00116919
0.047435
1.08955e-09
1.42186e-15
4.99335e-06
1.68399e-15
1.13155e-06
0.0438851
0.000152568
6.34354e-16
0.0180313
0.0002071
4.47385e-16
0.000510572
0.00206411
9.42456e-17
2.34196e-16
2.92389e-15
2.487e-06
0.104631
0.0455255
0.0203073
0.000135786
3.40091e-10
0.0729956
0.000448117
0.0908357
1.60503e-05
2.87281e-06
8.29937e-07
0.000319662
3.14119e-15
0.0003585
0.00080399
0.00423057
7.12393e-11
0.0027219
7.37489e-18
7.70026e-18
0.000455322
2.84514e-06
4.9641e-06
0.0521736
0.00102151
2.02691e-06
2.15544e-06
3.11591e-15
3.38324e-15
6.58703e-14
4.11677e-18
0.000153229
0.00514433
7.64055e-18
0.000391053
1.35572e-18
0.000803437
0.000339799
0.323178
0.000320211
9.3533e-18
0.0485704
0.0106
0.000327427
0.000352181
0.000443525
8.0677e-17
0.00661407
0.0041555
0.0203569
0.204789
1.51163e-16
1.90028e-05
0.000437571
0.000664437
0.00908029
0.0032596
0.0102252
3.75799e-06
5.39522e-08
0.00148187
9.68086e-05
1.9017e-16
0.000102522
0.0396636
0.000462053
1.46419e-05
0.0079781
1.73157e-16
0.0399931
6.12737e-19
0.24457
0.000255293
0.0140144
9.74671e-16
4.27071e-05
2.90762e-17
4.8272e-17
1.26535e-05
2.55332e-15
0.000895424
1.30106e-17
1.58721e-18
5.62084e-07
1.39019e-05
2.00395e-07
0.00165524
0.00190263
1.24618e-15
4.76431e-16
1.89378e-17
0.00618824
3.39818e-17
1.04407e-07
1.55949e-15
1.71897e-16
6.17184e-16
7.04275e-19
7.91879e-09
4.77869e-07
0.000528967
2.39465e-07
1.29829e-05
0.000264346
1.19144e-17
3.27228e-17
4.27024e-07
9.61269e-05
1.19678e-17
0.00127143
0.0026543
0.00128546
0.000484206
0.0480014
2.33093e-16
1.28087e-10
9.52892e-11
0.000411059
2.15651e-05
8.20399e-11
2.82267e-16
1.3455e-16
2.09744e-16
0.0814039
0.0255018
2.323e-05
0.00539687
0.031421
2.52934e-16
0.000145317
5.14458e-16
6.26238e-17
0.0591338
4.07274e-16
0.0103731
0.000504002
8.40276e-05
0.000111886
5.0944e-16
3.55061e-05
0.309148
8.35051e-16
1.26049e-15
1.53721e-16
0.000213895
1.08229e-15
2.72149e-16
0.000264371
0.000187202
0.0152189
0.00302962
0.0021098
1.34797e-16
2.95699e-16
0.21166
8.33117e-16
0.00105838
1.48472e-18
1.66818e-05
1.1262e-16
5.81177e-06
8.72535e-17
0.0023865
0.0700948
1.32875e-17
1.09706e-06
0.00908755
9.8094e-11
1.94687e-06
5.90356e-05
0.0326957
0.000284205
2.78647e-06
0.108668
1.69928e-18
0.00980953
1.04055e-15
0.0543373
1.1199e-15
0.0127583
0.0133307
3.64606e-17
0.00097491
0.000443973
0.0084847
3.31407e-05
0.00806585
0.000451967
1.38028e-16
5.12479e-16
2.16629e-16
0.000386343
0.000812818
0.00111752
0.0688899
0.00322091
0.000258015
1.38262e-15
0.000499621
0.000166421
5.84626e-17
0.00534423
0.000217088
0.000169502
0.000125956
0.0656888
0.00179537
0.0229483
0.0659719
0.00111416
0.000181765
0.0548374
0.000208126
7.68863e-14
0.000154876
0.00948738
3.32945e-17
2.04313e-17
0.0639394
0.00718199
0.0046007
2.84294e-17
3.20917e-17
1.77428e-15
9.52363e-17
6.93295e-16
0.00314819
0.000583572
0.0747904
0.00731109
9.24277e-19
0.00911268
1.26252e-15
4.37649e-17
1.07525e-15
2.69353e-17
9.47474e-18
0.00543431
0.003784
3.41137e-16
6.3651e-17
1.08431e-17
0.00127683
0.00953237
6.92788e-07
0.00733805
0.000198538
1.33324e-15
0.0385266
6.05035e-18
7.78359e-05
1.79907e-14
3.35935e-16
3.25878e-19
6.61732e-05
4.90518e-05
1.04457e-16
0.00976308
2.41309e-05
1.55492e-16
0.0672546
0.0081845
0.0135255
0.00996949
6.30826e-06
0.0117025
3.80649e-07
2.93112e-16
7.64035e-17
9.22912e-16
7.67637e-17
2.40782e-09
3.12661e-16
4.91541e-16
0.00117169
0.0068927
0.000449336
1.12974e-16
9.0318e-16
2.19183e-16
8.24056e-05
6.0441e-17
2.72642e-18
0.0744011
3.0311e-16
0.00551361
1.72327e-15
0.00287652
5.28735e-06
8.45807e-16
0.00259601
0.00286947
0.0033788
6.65158e-16
0.00400938
0.000113157
1.43909e-17
7.01911e-19
1.25021e-13
0.00196649
6.88332e-07
0.00405583
2.38518e-17
0.00243628
1.50943e-06
0.00412414
0.00268634
0.00216123
0.000159803
1.66682e-06
5.17169e-07
2.49891e-17
7.86201e-16
1.24643e-12
0.00168109
3.0499e-19
8.31745e-17
0.00514843
3.36454e-05
2.85505e-16
6.10047e-16
0.00148153
0.00216519
1.7726e-06
2.28416e-18
7.56954e-05
1.29822e-15
2.25982e-16
0.000548549
8.59645e-16
0.00434488
0.00141342
0.00279328
3.54171e-16
0.225756
1.87769
6.83078e-17
3.95202e-16
0.000599962
0.00214148
0.000916919
6.04857e-05
4.62389e-05
0.00445977
0.00247003
0.0031884
0.00156314
7.41776e-05
7.79393e-17
1.15247e-06
0.00114363
1.76269e-06
0.00132784
0.000235835
2.91601e-16
2.86462e-16
0.106616
0.000221926
0.000627254
6.79717e-16
1.52158e-16
0.00243095
0.00380875
6.38647e-11
0.000349181
3.01769e-06
7.21639e-17
4.39649e-16
4.97007e-06
0.00829999
0.000803244
0.000585116
6.87641e-07
6.37325e-16
2.81246e-07
0.000325165
0.000208406
0.000318571
0.000811218
0.00088409
0.0198061
0.0903041
0.00136626
0.00054186
0.000417174
8.76396e-05
0.0415829
3.53634e-16
0.000165356
3.21516e-06
0.000147028
1.42815e-06
0.00167197
1.61025e-18
0.00822767
0.047344
1.57258e-06
0.000421549
0.000131166
1.50249e-18
6.43502e-18
1.10723e-05
6.30088e-17
0.00215205
1.7917e-06
0.000191225
0.00859438
0.00441141
0.0361785
0.000807021
7.03048e-05
1.94599e-05
0.000191332
0.000324944
0.00117722
8.34861e-17
3.84831e-06
3.21955e-17
1.50787e-16
0.00660971
0.0008243
4.83912e-06
1.56302e-16
0.00639892
1.41217e-16
4.5186e-06
2.25406e-18
0.00156495
9.19109e-20
0.000502107
1.36741e-16
1.68833e-15
0.00195573
0.00915302
2.38112e-17
8.9732e-16
1.89899e-16
0.0602484
0.000809174
6.44905e-17
0.00095055
0.00144799
0.0257941
0.00684265
1.14691e-16
0.0557563
2.6569e-17
0.00256567
6.25592e-17
0.00770816
6.39959e-05
1.01605e-17
0.0111607
0.000205922
2.18089e-15
0.00308476
0.0606807
1.19841e-07
0.000188015
0.244251
6.14745e-06
0.000744531
0.00239822
0.00190186
0.00168287
1.38279e-05
0.0134737
3.21654e-15
0.0600101
0.00317457
0.0224522
6.48904e-17
0.000159193
0.105166
0.235721
7.25881e-16
1.72068e-16
0.0498522
1.29509e-17
0.00225037
0.0051797
0.000262605
0.00608149
0.00406991
1.21387e-15
3.38477e-16
0.0019869
0.0142143
4.64518e-17
8.15714e-17
0.000282132
8.80877e-16
0.00432563
3.6349e-16
0.000377259
0.00607913
0.00524094
1.23328
4.14317e-17
0.0244824
0.00971422
0.0210452
0.00107059
0.00478893
4.48492e-18
0.00094682
0.00161278
1.12376e-16
0.00660138
0.0111389
0.105412
0.000316865
0.00547952
3.8427e-16
1.32533e-15
5.48522e-16
0.000180307
0.000132781
5.24372e-16
4.77354e-06
1.02921e-15
0.00945462
0.000146479
0.000719179
2.84117e-06
1.06211e-16
0.00684735
4.4571e-16
1.34602e-16
2.91462e-06
8.24918e-11
6.34015e-05
0.0137235
4.08378e-17
1.84809e-06
0.0200351
0.210393
2.12581e-06
0.00863479
3.36099e-16
0.000643632
5.35454e-16
5.28922e-16
0.00166916
0.00084357
0.00743585
9.34255e-17
0.00626952
3.63579e-10
1.00696e-09
3.52008e-17
4.58574e-10
9.05485e-10
3.91941e-06
1.26292e-15
6.91325e-05
0.000206836
4.16291e-16
9.0533e-16
1.25091e-15
4.56731e-16
3.77502e-16
0.0020411
3.57321e-15
0.00153492
1.0199e-16
0.00406382
6.92691e-14
2.81552e-17
0.0156019
1.18838e-17
2.85737e-13
7.59504e-17
0.0356767
0.00488454
0.000883091
5.03368e-07
1.98264e-16
0.0106324
2.47383e-18
0.009841
9.88262e-17
1.59677e-15
0.000482197
7.9999e-07
2.24917e-06
2.83744e-16
9.90782e-05
1.55481e-17
0.008805
3.71557e-18
0.00206077
8.35757e-18
5.48965e-06
6.54506e-05
0.00165216
0.000597083
0.000178685
1.13868e-17
0.00202492
1.32648e-17
3.50735e-17
6.52302e-17
3.16038e-06
4.86734e-16
5.44158e-05
4.33487e-17
0.000267384
0.00372346
0.0182889
5.55675e-17
0.00105364
0.00299544
8.31531e-16
0.00281102
1.97424e-16
3.6709e-17
0.00448879
0.000148901
9.56975e-18
2.05578e-15
0.00161578
4.21658e-17
0.00262246
6.13814e-15
3.88594e-16
0.0653176
2.70992e-17
9.64346e-16
8.36934e-16
7.44093e-18
1.56402e-17
2.52187e-16
2.53647e-16
5.57488e-16
0.0202848
0.0039924
5.3775e-07
0.0411092
9.44678e-05
0.00132959
0.115657
3.51914e-06
0.00457985
0.00451273
0.0326436
0.0587677
2.397e-16
8.98376e-07
2.99445e-17
0.024673
0.00026896
0.000348921
0.0014193
7.21654e-17
2.38378e-17
0.00243784
0.000581155
1.62265e-05
0.00683362
0.00280855
1.45863e-15
8.45224e-05
0.0250532
0.000748942
1.63028e-06
9.02706e-16
6.74007e-14
4.74848e-05
9.72642e-05
0.0010626
1.49899e-16
2.2023e-06
5.25472e-16
2.39989e-16
8.75108e-07
0.000122072
0.00540967
1.22388e-16
4.45249e-05
0.00960211
0.00191213
0.000293629
0.00041358
0.000264537
0.000126556
0.000423208
1.51305e-16
2.16147e-16
6.08562e-17
0.000149156
3.17156e-18
0.000397223
0.0109776
0.016429
0.017828
0.000271502
8.55939e-06
0.00294881
0.00117629
0.00276802
0.00396276
0.000396522
6.56456e-17
0.000178721
4.3379e-05
0.0111038
0.0566554
0.00200777
6.97339e-16
2.95406e-15
3.70881e-17
8.53286e-05
0.00114598
0.000301046
0.00235265
1.17578e-15
2.56133e-16
0.000145875
0.00237105
0.00236403
0.00077457
2.62362e-15
0.0471392
8.64964e-18
1.60211e-05
3.33256e-16
0.0201461
6.44583e-18
0.000398407
1.46771e-05
0.00107586
0.000377225
0.00160344
0.00114566
8.31681e-17
5.65402e-16
5.07669e-05
1.26143e-15
0.00551033
0.00952463
0.0100831
0.00817606
0.0052128
0.00588393
7.56855e-16
0.000152272
1.27585e-17
0.00599914
0.00474511
0.00221041
3.30724e-17
0.000119371
0.00388999
5.36708e-07
0.00160981
1.09184e-16
0.014671
1.22374e-06
0.0406187
8.16282e-05
0.740382
9.17694e-07
1.72378e-16
1.36084e-05
2.20677e-05
1.23934e-16
2.35453e-10
0.00399973
0.00702062
0.0017493
0.000632041
0.00358583
2.02042e-17
4.19232e-18
0.0197135
2.01389e-16
0.000925959
0.00116372
0.000176003
0.000323132
0.00112138
1.17791e-16
4.49041e-16
0.00821047
0.000780657
0.0923703
3.11501e-16
0.000664389
0.0815914
1.94987e-17
0.00879253
0.002768
0.0251642
1.57332e-05
0.00363215
4.2784e-06
1.29567e-16
0.0013254
5.69052e-19
0.00123858
4.21705e-05
4.28014e-15
1.55642e-06
1.26794e-16
1.00889e-18
0.00323203
0.00970226
1.35446e-17
0.00230907
0.000526502
0.000556707
0.0361835
0.0544095
0.00502604
0.000373599
0.00325513
0.455984
0.0240751
0.0262786
3.63182e-06
4.99894e-18
0.102571
0.000513074
2.69365e-18
1.96363e-06
0.0142898
2.07382e-06
0.0017068
0.000324707
0.00174694
1.47441e-18
0.00245881
0.00902923
0.00287783
0.000649446
0.000739734
2.61057e-17
4.9391e-18
2.92821e-06
0.00364865
1.08054e-17
0.00115563
0.000589826
0.00778521
1.54722e-06
0.112914
2.00983e-06
0.00118707
4.03468e-16
0.00566414
3.28846e-06
0.00110724
0.00256667
1.37299e-17
7.70297e-16
3.13273e-19
1.11582e-16
1.39244e-05
1.17227e-16
0.0185977
0.0101697
2.90051e-16
0.00150233
0.083894
0.00110905
0.00400066
1.48581e-06
8.03949e-17
0.00374424
0.0363158
0.00897437
0.00264533
0.000180727
0.00192404
0.00336615
0.00298395
0.00374029
0.00536977
2.55795e-18
0.116969
0.0502007
0.000489147
0.000450303
0.000165266
0.000485402
0.00017707
0.0261688
0.00113025
3.75894e-16
0.00230774
0.000371838
7.30393e-17
0.00355417
2.80631e-17
0.00268724
2.09555e-06
0.00147928
0.00375585
5.34402e-07
0.0197637
6.58773e-07
3.20632e-17
0.00364738
0.00018582
0.000396238
0.00209742
0.0118513
3.60389e-18
7.91288e-18
0.000375476
0.000263578
3.46171e-10
1.69905e-17
1.28035e-06
0.000582365
9.6722e-05
2.27764e-17
7.76021e-17
0.000849672
2.39797e-15
3.59524e-16
1.89796e-16
0.000310546
5.34919e-08
1.55485e-16
4.43593e-05
7.72652e-16
6.18151e-15
4.56226e-15
4.35772e-06
5.7609e-16
0.00391531
0.103441
1.7694e-06
0.00478656
0.00166822
0.00171925
4.70804e-17
2.49743e-15
7.45082e-16
0.00836598
0.0198854
0.00283002
2.32213e-15
1.72462e-16
1.29841e-14
3.8523e-17
0.00474448
0.00941728
2.21856e-17
0.00209777
0.00280688
0.00107083
0.00357152
1.74914e-05
0.0145841
0.00187591
0.00254466
9.13173e-05
1.06644e-18
1.38713e-16
5.29634e-05
0.00562881
8.3545e-06
8.51796e-18
1.10433e-15
0.00502852
0.000210923
0.00100761
0.00101444
6.03642e-05
3.32058e-07
1.21259e-06
0.0039005
1.12824e-13
8.9015e-05
0.0285544
0.00213241
0.000838885
1.37689e-06
7.50111e-19
0.00101909
1.1811e-18
0.0146861
6.9136e-17
1.34622e-15
0.00124337
1.53341e-16
0.000882558
3.5798e-06
4.36303e-12
3.54143e-19
0.000216252
2.48342e-06
2.98681e-17
0.00219676
6.95299e-06
2.26383e-06
0.000559957
2.34e-05
2.60165e-17
0.00557544
0.000203877
8.02563e-17
0.047069
6.58865e-05
1.84689e-16
0.000264948
1.17337e-18
1.70213e-16
8.81453e-17
5.71949e-17
9.24098e-17
1.03959e-16
0.000944767
0.000334441
0.00275247
0.00427615
0.00128906
4.23682e-16
0.0628593
0.000128088
3.88267e-14
0.0021457
0.000790678
0.00339062
1.17637e-05
5.70144e-15
0.350913
1.81819e-17
2.86314e-16
6.52489e-17
0.0231041
0.00307848
5.12306e-16
1.81009e-16
5.46001e-17
0.000596301
0.0362089
0.00217744
0.00868307
0.0118467
1.41573e-17
1.54852e-16
5.81555e-17
3.71178e-05
0.00832669
8.55739e-16
0.0750762
1.52932e-16
0.00049216
9.35017e-17
5.2703e-16
3.24715e-16
0.000377802
0.00866308
0.0181381
1.76839e-16
0.00184196
0.00450704
1.25451e-16
0.000235242
0.000994839
0.00199928
0.000396558
0.00078864
0.00749556
0.0106671
0.000591435
0.00160614
0.00266115
3.70226e-05
2.64028e-18
2.19426e-17
0.0137395
0.0116746
0.0035092
0.0477079
0.00270161
2.81652e-16
0.00525284
0.000462483
4.6565e-15
0.00106969
0.0222615
0.000282095
0.0204942
0.0116317
0.0343239
1.06713e-18
0.101822
0.00883924
0.0017147
0.00458816
0.0647515
0.000399798
0.00280738
5.64859e-06
2.05828e-06
0.00813433
0.00112219
1.77503e-15
6.17325e-16
0.000104417
0.0249183
0.29581
0.000243199
0.0090273
0.000290702
0.000143002
2.33663e-16
0.187935
0.000623826
0.286355
0.777125
3.28993e-06
1.17363e-16
6.15746e-16
0.00018183
0.0106348
0.0056539
0.0101942
0.0631222
0.0344425
0.00185514
1.37657e-05
0.0103898
0.011342
1.90234e-16
0.000512404
1.04596e-17
0.000240645
0.000427747
3.79457e-18
0.138551
0.000201485
2.13904e-15
2.12553e-16
0.00026233
0.0001812
6.00655e-18
4.08028e-16
0.477371
0.0314576
0.185141
0.147247
0.00216962
3.09622e-17
0.00665543
0.00124897
3.4833e-17
5.81492e-18
0.0856013
1.12479e-17
3.27246e-06
1.4439e-16
8.63231e-19
0.0165826
1.1852e-16
0.00854697
1.79496e-16
9.95168e-17
3.38974e-16
0.000641435
0.00113568
0.0130045
3.28155e-06
0.00113036
5.82776e-17
0.0150784
1.22292e-17
8.78285e-17
2.03209e-16
0.0135149
0.000152335
0.000165523
2.3019e-05
0.0314824
0.000499418
0.000184218
3.31043e-16
4.53346e-17
9.13986e-16
0.00303297
9.15553e-18
3.08248e-05
5.4795e-16
3.86716e-15
0.00012805
1.11751e-15
1.82489e-16
0.000214779
6.0955e-17
0.0106984
7.1241e-17
2.14202e-16
0.00191258
0.00171672
0.00954045
0.000577427
0.0103188
0.000306261
1.3481e-16
2.41923e-17
3.79971e-19
3.63259e-16
1.47282e-16
5.23794e-05
1.20307e-17
1.49917e-05
0.00947877
0.00172378
2.41752e-15
0.0176778
4.34916e-05
0.00021223
0.0145075
0.0062888
0.0122732
0.0130708
0.00334318
6.62765e-18
0.322494
0.0620186
0.000810467
6.97546e-18
0.0146694
0.00091052
0.0242141
0.000102015
1.24504e-16
0.0121433
4.94056e-16
0.00678847
3.49369e-17
5.07792e-16
0.00757714
3.33561e-18
0.0312355
0.355465
0.00115081
0.0551467
1.19398e-15
1.65292e-15
1.6125e-05
1.61822e-06
0.101402
1.30474e-05
0.00155384
0.00043448
6.8596e-17
0.00162364
1.7327e-05
5.75683e-18
1.09552e-16
0.0262498
2.79958e-18
5.80384e-05
0.0619724
1.08347e-13
0.00272998
1.75203e-18
6.46494e-16
0.00105849
0.000247629
1.17365e-16
3.4142e-06
1.68552e-15
0.00249445
0.000521926
1.17194e-15
6.01251e-17
0.000853281
5.52402e-06
0.00279696
4.66468e-17
3.57421e-06
0.000518276
9.29861e-05
5.05207e-05
0.0316851
2.00746e-19
5.67259e-05
2.34328e-16
0.00162071
0.0338067
4.71875e-16
3.65031e-14
1.14838e-16
0.000168594
1.13335e-15
0.00197349
0.296542
1.15857e-16
2.67813e-06
4.20447e-05
4.3121e-17
5.49956e-16
2.31844e-16
0.00017567
1.93135e-16
0.000848749
6.35856e-17
0.00010561
0.00019996
5.28746e-16
0.0114542
1.83022e-16
9.70981e-19
0.00148209
0.000106032
0.00138913
0.0443922
1.08913e-15
0.000164265
0.000123215
8.53365e-05
0.000115565
2.60787e-05
1.77048e-16
5.65532e-16
4.25394e-05
1.46684e-15
7.41698e-17
4.29013e-15
3.9458e-16
0.00010096
0.0227205
1.96985e-16
0.00611892
0.000126822
0.0155656
1.89623e-17
0.000119139
1.8161e-05
0.00435106
2.98843e-16
0.00408579
0.0193024
2.16022e-05
6.71996e-05
8.73836e-17
0.000148485
0.000855851
0.000347543
0.000105352
0.0164538
7.29297e-05
0.0104827
7.53209e-17
0.878643
0.439457
7.45944e-05
0.0411151
8.5104e-05
0.000288126
0.00940863
8.92099e-10
0.603542
0.0441663
0.00455153
0.000498429
0.0283227
0.392861
5.21327e-05
0.0248419
0.00439004
0.00218972
0.12545
0.0440016
0.000472875
0.000959815
0.0259813
0.0486204
0.0041358
0.000311411
0.0313841
0.000218032
0.014001
2.77901e-16
7.18682e-17
0.00658352
0.000386692
9.38954e-07
0.00391264
2.60545e-08
0.000129209
0.00021926
6.23184e-17
0.00782305
0.00604237
6.85105e-17
0.000454252
0.00172476
1.42783e-15
0.00402414
4.2586e-15
0.0115353
0.0634635
7.28438e-05
0.0329207
0.000139664
0.00115269
7.28587e-05
0.0004546
0.0300435
0.00415643
0.000895138
0.0273982
0.000304246
0.000234526
0.000365736
5.10852e-16
6.5135e-16
0.00536679
0.0258983
0.0147171
0.00517234
0.00551304
0.00104383
2.42554e-16
3.2284e-07
0.000179542
0.000196843
1.32212e-08
0.00174703
1.68661e-09
7.98729e-06
4.72372e-06
1.11944e-06
1.72483e-06
1.38478e-14
0.0103278
5.96078e-06
9.95442e-10
0.00341806
0.000276294
1.28529e-16
4.37936e-16
0.00683567
1.24156e-09
0.00509656
0.000448562
0.0043164
1.50484e-09
1.96758e-12
1.10408e-05
1.09157e-15
8.76654e-14
0.00153478
6.22721e-16
5.79852e-16
6.64765e-12
0.0345562
0.000166448
0.00427795
1.44052e-05
2.35156e-14
0.000314685
0.00834942
1.89552e-07
5.08872e-16
0.00361951
0.000669239
3.11476e-14
0.00189614
2.93446e-10
4.04206e-05
0.00299989
3.81439e-14
0.00600683
0.0290515
3.9745e-05
7.18557e-09
0.00298477
0.00033209
0.00426296
7.46868e-05
0.00617009
0.000348409
0.0027928
3.3677e-15
0.000731036
0.00092633
0.00721206
1.58347e-16
0.0201221
0.00609967
3.81208e-15
0.00138453
0.00158516
0.000249635
4.72278e-17
0.0024891
0.0218426
1.09439e-15
0.0376621
0.000203499
6.81149e-16
6.49336e-16
0.00188611
7.49979e-14
0.000870865
0.0137062
0.0213957
0.00207006
0.00962814
1.0405e-15
3.59258e-16
0.004407
0.0144022
0.000439602
1.07922e-14
2.70114e-16
0.0824747
0.0418147
1.32207e-13
2.29833e-15
1.60007e-16
5.34506e-17
7.58916e-17
0.0337731
0.00863625
0.015873
1.91776e-16
0.00100348
8.72254e-17
0.0193268
1.1789e-17
0.00337588
9.0819e-16
0.00106693
0.0203168
7.33354e-10
0.000398614
2.60268e-15
2.7992e-17
1.65184e-15
3.98189e-17
0.0235507
0.000205038
1.79486e-16
0.0199748
2.05007e-05
1.08352e-16
0.000440215
0.000363985
1.85478e-05
0.013429
0.000465187
1.27978e-18
5.25978e-05
1.08503e-05
8.50658e-16
2.32865e-16
3.18767e-16
1.32911e-16
1.65411e-16
3.05636e-05
0.0116304
0.00288807
0.000371516
1.00227e-09
0.000290542
0.0601341
6.78721e-16
9.87553e-18
0.0181122
0.00280194
2.1816e-05
0.00331933
5.10049e-15
9.60674e-19
0.0183173
0.00211884
0.0229722
0.000780342
0.0499457
0.014201
0.000124224
0.025816
1.55823e-05
0.0892133
0.00326626
8.1605e-16
9.27072e-05
0.256381
0.00486369
0.000992986
0.00310783
0.000161714
0.00330983
0.0308498
0.00856912
0.00291996
0.144582
0.00373571
1.53729e-19
0.0178841
0.0640299
0.0349087
0.00132611
6.79314e-16
0.000367989
6.22092e-10
0.000679996
0.0190912
0.0196898
5.60445e-09
0.0523708
0.0230671
0.000616849
1.61851e-16
0.0136929
0.00325537
0.000721639
0.0506291
0.00053597
0.000110852
0.0108088
0.0108203
0.0217217
1.50662e-16
5.19356e-07
0.00159489
0.0163276
6.42568e-16
8.9377e-05
0.173063
0.00255855
0.00123666
0.00071807
4.35524e-05
0.00433782
4.48098e-17
0.0185463
1.53301e-10
0.014069
2.45291e-15
0.00563847
2.59567e-17
0.0164921
2.01552e-11
4.21823e-15
0.00871824
4.89068e-15
0.00659132
0.0077307
9.42074e-16
0.0158018
0.000134244
0.015637
0.00668095
0.00930952
0.0562736
0.00557909
0.029073
0.0345219
0.0169399
4.35201e-05
0.00453895
0.000172227
0.000975834
0.00092126
0.00126769
0.002209
0.000646475
1.72841e-15
2.65644e-16
2.79032e-06
0.00134243
0.00128539
0.0521927
0.00324319
4.16489e-16
2.20519e-15
2.33508e-05
0.000245796
8.99857e-16
0.00107393
0.0298549
0.00253997
0.00193154
2.20152e-15
0.0170228
4.58911e-07
1.05341e-15
5.06978e-15
0.000215342
0.0347345
0.00670525
0.000520031
0.0007241
0.0044767
0.000219658
4.4932e-15
0.00489766
8.42453e-16
1.9241e-15
3.54008e-15
7.56401e-16
4.66178e-05
4.65507e-05
0.0010445
0.00865996
0.101339
0.000250767
5.33027e-16
6.67237e-06
2.43943e-08
0.00836692
0.00240802
3.20412e-16
9.51884e-16
0.00319008
1.77408e-15
0.0100996
0.0745726
0.0451474
0.000172084
0.000525309
8.80154e-16
9.33954e-15
6.5762e-05
0.00392597
0.000450968
0.000762062
0.0142738
0.00192475
0.000277545
2.18894e-05
0.000414672
0.0297259
3.57487e-16
1.41179e-18
0.0110158
6.11768e-06
0.000563482
0.00470102
2.01128e-09
0.000373457
0.000509888
4.43119e-05
0.0226508
5.92206e-16
0.000159149
0.000332147
0.00511647
0.000649437
0.000695916
3.2041e-15
0.00127737
0.00956761
3.61165e-05
0.028588
6.79656e-17
0.000141774
0.0024019
7.47326e-05
0.000447216
0.00347122
0.00119065
1.10487e-15
7.26359e-16
0.00181624
2.45094e-16
8.3001e-16
6.76676e-05
0.00329648
2.89996e-09
0.301518
4.71474e-15
0.000942614
1.85186e-15
3.07558e-05
0.000283598
0.000247714
0.00373087
5.00447e-05
0.000571759
7.22623e-05
0.000907416
0.014034
0.0027857
0.111953
0.000870863
0.0100751
0.0103295
0.0123972
0.00125986
1.35747e-15
2.00631e-15
5.14609e-15
0.000419435
4.1324e-17
0.000257529
0.0116549
1.43272e-16
7.94456e-18
0.00374522
5.63756e-15
9.35042e-17
0.0150174
4.47895e-15
3.15297e-16
0.00191196
0.000184696
1.17901e-16
0.00158605
4.84371e-15
0.0242241
0.0134767
0.010186
0.00190853
0.000139255
0.00158665
3.12438e-16
5.83938e-06
4.30174e-17
1.86102e-18
4.25288e-16
0.0110357
0.00698442
1.39101e-16
1.16267e-16
3.81436e-16
0.000261872
1.59198e-06
0.000341369
0.00412491
2.05128e-15
3.37446e-12
7.15022e-16
1.62724e-15
0.00277351
6.72507e-05
0.000333538
0.00227636
6.94004e-16
1.22797e-11
6.91561e-16
1.51589e-18
0.0534377
0.000481505
0.000672422
5.90232e-12
1.81517e-10
0.00221528
7.54473e-16
0.00343578
3.99553e-05
9.27133e-19
1.07215e-18
2.78794e-05
0.0194757
0.00321302
0.0242234
0.00160656
0.051255
6.52489e-12
6.88843e-12
8.63886e-12
4.85381e-19
0.00089124
1.774e-07
3.05964e-12
0.000104163
1.45757e-07
0.0192939
0.000447259
0.00232782
0.00589372
7.25991e-05
0.0107895
0.00359146
5.09671e-05
0.00093841
0.00316168
0.0296452
0.000300091
1.77173e-17
0.0632538
0.00891104
0.00641987
4.11054e-05
0.0620675
0.000275649
0.0150346
3.20104e-05
0.0172774
2.92628e-07
5.00446e-08
1.60195e-15
0.000742743
1.17176e-15
0.0402794
0.0144841
0.0145737
3.81627e-16
0.00232148
1.24479e-06
4.18595e-15
0.000931938
4.16691e-16
1.0871e-15
6.16101e-16
2.41812e-16
7.75547e-05
3.13152e-07
0.035938
0.0030894
0.000347538
1.42623e-15
1.58477e-16
0.00168962
0.000455437
0.00153238
0.000738282
1.31012e-06
0.0141094
0.000248895
0.00066164
0.0020553
0.00125521
0.000125416
0.000228583
0.000177088
4.47009e-05
4.59567e-15
2.93836e-16
0.000107318
0.000668646
8.05448e-05
5.50565e-07
0.0167817
6.56713e-05
0.000590762
1.39585e-05
5.65802e-05
0.000490585
0.00694774
0.00289998
0.000583874
0.000480863
2.84388e-07
0.000294983
0.00438431
0.00069576
0.00747548
0.000299375
2.49347e-05
0.00187983
0.0954086
3.18744e-16
5.79284e-05
1.22946e-07
2.99993e-16
3.90392e-05
2.57769e-16
0.000325878
0.000188073
0.00138461
0.00374573
0.000584768
6.86666e-05
1.21623e-15
0.000409487
0.00954377
5.75845e-07
0.000487717
4.89807e-06
4.50968e-16
0.000739848
0.000865388
2.45047e-15
0.000110228
1.20332e-16
3.61669e-16
6.82799e-13
3.59207e-18
0.000213026
0.120472
7.34627e-06
0.000562677
2.51077e-05
8.98174e-05
0.0117913
0.000164253
0.00274734
4.54604e-05
7.5455e-05
0.000517596
1.90071e-05
0.00062482
1.78148e-06
0.000905436
4.16637e-05
0.000258858
0.0185384
0.000603009
0.000237077
0.000355381
3.39868e-06
7.06796e-05
0.000542052
0.00264386
6.8202e-16
3.96623e-17
2.89929e-16
0.0011659
0.00094644
0.0123783
0.000669322
2.00117e-15
0.000302009
0.000114097
0.083928
0.000372597
6.76386e-06
9.9156e-19
2.13681e-18
0.000207823
0.000429293
0.0266015
0.00875112
1.14039e-15
1.3553e-08
0.0375842
0.0399838
4.99084e-18
0.0179301
0.00590342
0.000392931
1.91713e-16
9.81498e-17
7.36742e-18
0.000222138
7.66736e-16
0.00441476
5.64128e-16
0.000163224
2.64964e-05
5.6938e-05
0.00604758
8.65103e-05
3.98782e-05
1.1635e-15
2.07111e-18
0.000193983
2.3418e-18
3.04635e-16
1.00281
0.000186282
0.0193765
0.00305194
6.69021e-17
9.1223e-17
0.0155427
0.00188721
1.44808e-15
1.61906e-05
0.00331684
5.07753e-16
2.72726e-17
0.000971832
2.9663e-16
0.00222838
0.000336787
0.00049185
0.000239394
3.9716e-06
7.21674e-05
0.0199105
0.00283516
0.000563305
5.02409e-17
0.00355942
9.5588e-05
8.4951e-05
0.000248687
0.00924151
0.0125957
0.00410495
0.0007553
0.000135314
0.00252445
0.00191779
0.00204129
0.000470651
0.000228832
2.93012e-18
0.00367401
0.00168858
0.000126263
0.00010778
0.000751562
0.00158128
8.11891e-17
1.95331e-16
0.0227432
2.30117e-16
0.000898682
0.000299975
0.00330263
0.00978827
3.37682e-07
1.95924e-09
0.00551299
2.64682e-16
0.000123138
2.98179e-14
1.20916e-15
6.14594e-16
8.2611e-16
0.00362277
0.0128707
8.15858e-19
0.00605941
0.00161117
0.151565
0.000167717
0.00139446
3.02774e-05
0.00909211
5.59031e-16
8.50817e-05
1.72701e-15
0.0199351
4.04596e-15
0.000512672
0.000693767
1.9421e-05
0.00676361
6.31386e-05
0.00219262
0.0168357
0.00691601
8.6542e-16
1.96082e-15
0.0122465
3.94849e-16
6.3699e-17
0.00189829
0.000769822
0.00188973
0.000657579
9.01034e-14
0.00465955
0.00325963
6.35932e-05
3.61658e-05
0.000258167
0.00191209
7.08563e-18
7.59359e-05
3.4886e-17
0.000921779
0.0150687
0.00285273
0.00155026
0.00337156
0.000487716
0.0313652
0.00131612
0.0074381
0.000251948
2.42706e-16
0.000236247
3.73482e-17
0.000447575
1.56765e-17
4.27065e-17
0.00119676
1.06607e-16
0.0371622
0.000766695
0.00789284
5.31303e-05
0.00737636
0.000330881
0.0148495
0.0174814
0.00141437
0.00978111
1.04749e-05
0.000531422
2.83365e-06
0.000604222
8.71073e-06
0.000348944
2.40374e-16
0.000527348
9.97585e-05
0.00264819
1.5719e-16
5.56258e-05
6.58922e-06
7.4769e-17
0.0265683
0.000162238
6.15928e-06
2.25881e-16
0.00012148
2.57212e-05
0.00541201
2.7032e-15
4.72472e-06
9.26171e-16
0.00159262
0.00312132
1.10222e-05
0.0157066
0.0133454
2.35068e-17
0.000189463
0.000161347
9.79422e-05
0.000288872
0.000469462
0.000447369
1.80566e-05
0.000934349
0.000449508
0.00534553
8.78958e-17
0.00116988
0.000536755
0.00838965
0.0052547
0.00879075
2.58282e-16
0.0539912
0.021877
0.0973192
2.05522e-05
0.000145403
6.23794e-16
0.000282424
0.00675118
0.0102667
0.0299914
0.0246815
4.76381e-17
0.000779032
0.00781834
0.000404436
0.0173102
0.301144
0.0173681
0.000344161
0.00044886
0.016079
0.00161259
1.18725e-14
0.000725289
0.162554
1.38174
7.06869e-05
3.17833e-15
6.90452e-17
0.00346508
0.00104643
0.00186641
0.00269829
0.00197318
0.00212412
0.000882555
4.4229e-06
1.03623e-16
2.35456e-07
9.85459e-15
6.12845e-05
0.000469532
4.16749e-16
6.64103e-15
0.00322548
0.0107925
0.00403923
5.62078e-15
1.6444e-15
3.09607e-05
1.91144e-16
0.00036821
3.72091e-15
0.00879642
3.376e-17
0.0314671
0.000125172
0.0488849
0.0149836
0.000244902
0.00214394
9.99438e-06
0.00234103
3.54607e-07
0.000873691
0.0839519
2.81753e-06
3.21737e-18
5.797e-10
4.39456e-05
0.0034294