/*--------------------------------*- C++ -*----------------------------------*\
  =========                 |
  \\      /  F ield         | OpenFOAM: The Open Source CFD Toolbox
   \\    /   O peration     | Website:  https://openfoam.org
    \\  /    A nd           | Version:  10
     \\/     M anipulation  |
\*---------------------------------------------------------------------------*/
FoamFile
{
    format      ascii;
    class       volScalarField;
    location    "50";
    object      T;
}
// * * * * * * * * * * * * * * * * * * * * * * * * * * * * * * * * * * * * * //

dimensions      [0 0 0 1 0 0 0];

internalField   nonuniform List<scalar> 
59698
(
286.606
283.15
283.201
283.15
299.946
283.15
292.528
283.15
303.15
303.15
303.15
283.304
283.15
291.051
300.126
303.15
294.065
283.238
283.244
293.817
303.281
302.128
303.149
303.15
295.701
283.225
291.27
298.345
295.719
295.328
300.29
303.15
303.15
298.81
302.375
283.23
283.381
283.465
283.15
297.55
296.218
283.15
296.561
293.849
283.15
296.583
283.242
295.259
294.641
283.497
293.058
283.227
286.453
294.537
294.4
283.23
294.28
302.176
294.243
282.976
291.241
294.298
299.611
283.227
286.798
294.464
303.15
283.253
283.274
303.15
283.15
293.777
283.135
298.519
283.15
297.737
294.537
287.694
291.646
294.161
299.96
292.58
303.15
283.279
303.704
294.504
294.182
283.15
298.886
293.835
303.15
294.736
298.988
286.207
286.821
287.235
299.065
283.15
298.913
283.15
299.118
283.127
285.91
284.489
283.15
283.15
283.24
283.15
303.15
283.15
283.151
283.151
298.871
283.15
283.15
283.15
283.15
283.15
283.15
303.15
283.15
292.838
283.15
283.15
283.15
283.15
295.48
303.15
283.15
283.15
287.517
283.15
303.15
292.78
290.241
291.656
283.15
303.15
283.243
293.465
283.3
286.955
290.853
292.118
283.15
293.581
283.15
283.15
283.15
301.183
283.138
303.15
288.083
283.15
294.052
293.367
283.227
283.15
296.959
283.15
289.676
283.15
290.762
299.554
297.805
296.687
283.239
280.919
299.359
292.198
300.359
283.151
300.929
300.995
285.536
292.81
303.15
283.237
303.15
298.924
302.767
300.413
298.639
283.15
298.719
300.856
300.766
293.847
283.15
294.721
294.356
290.355
296.593
297.454
299.39
283.152
293.938
296.603
303.155
299.382
283.15
284.154
292.445
292.059
299.299
290.949
297.336
295.414
293.587
298.039
290.317
293.708
299.133
303.15
294.872
283.15
283.15
294.062
297.846
296.007
282.051
296.316
283.152
299.279
295.278
299.332
295.835
291.353
295.64
284.983
283.15
296.165
295.175
295.839
283.15
294.821
295.981
293.415
283.15
295.001
283.15
293.993
289.915
303.15
294.64
283.15
282.926
285.597
293.629
283.248
293.828
294.944
295.147
303.15
283.232
294.751
294.119
295.308
283.176
283.15
303.12
283.15
294.457
294.336
294.822
295.306
283.152
303.15
283.28
283.15
283.222
286.64
303.101
283.15
287.325
293.708
283.15
293.632
293.989
303.15
303.15
283.15
283.257
289.095
295.091
290.717
292.951
303.15
286.027
294.609
301.409
291.292
283.266
283.227
294.888
283.15
292.715
293.62
295.099
283.15
291.441
283.15
283.15
291.856
283.274
283.287
287.833
293.654
294.629
283.278
283.15
283.15
283.15
283.15
291.675
292.679
283.15
293.725
283.15
293.589
293.874
293.375
293.999
303.15
298.295
286.257
294.106
293.713
292.436
283.15
300.169
290.666
298.868
281.564
303.15
293.811
290.536
292.557
298.464
293.829
295.137
295.542
283.164
294.984
298.947
283.15
295.607
301.428
290.005
289.168
292.833
283.15
301.357
303.15
284.204
300.76
302.089
283.15
283.759
303.15
283.15
293.827
303.15
295.008
283.15
283.15
283.201
290.469
283.174
282.757
292.666
283.15
283.15
283.15
296.426
303.15
283.177
283.15
283.15
303.15
283.15
283.153
283.187
293.513
283.181
283.148
293.368
283.15
283.15
283.194
293.786
303.15
294.6
290.738
303.133
301.992
301.786
283.15
283.15
283.15
288.505
295.725
283.15
283.15
283.15
283.15
295.951
293.268
295.678
302.253
297.895
303.15
295.277
303.15
283.15
289.792
283.15
283.576
302.291
302.828
294.381
283.15
290.793
281.978
283.15
283.15
303.15
294.391
283.15
283.15
295.497
302.788
285.309
291.841
287.585
303.15
303.15
298.666
283.15
291.946
283.15
292.095
303.15
283.302
283.15
302.914
294.89
283.15
283.243
299.205
283.15
283.248
294.105
286.309
294.009
283.275
290.673
303.15
284.312
283.15
290.086
283.15
283.969
293.898
303.15
293.569
293.407
291.887
294.113
294.992
295.105
283.15
283.15
283.15
294.051
293.142
302.759
292.15
293.705
294.015
283.15
293.599
284.615
283.15
300.941
284.77
284.693
284.566
291.962
292.881
299.066
290.515
291.397
284.901
292.083
284.762
283.15
284.748
289.585
283.15
283.15
295.178
299.052
294.676
283.15
303.15
283.15
303.15
283.15
290.274
294.703
290.699
283.156
283.15
291.621
283.15
283.15
283.15
283.15
283.15
289.551
293.957
283.15
283.15
283.15
302.995
294.93
283.193
289.855
288.756
283.15
301.489
303.15
283.907
283.15
283.15
283.15
286.368
283.932
303.15
290.017
283.732
283.15
281.273
289.38
291.847
282.233
283.132
290.841
283.147
283.15
303.15
283.15
303.15
283.152
283.15
283.15
295.584
291.514
291.828
283.15
303.15
283.15
283.123
283.15
303.15
286.384
283.15
291.206
303.15
292.068
283.261
283.15
291.901
290.957
293.526
283.15
292.282
295.523
303.15
283.15
283.15
285.277
283.212
292.361
283.15
292.431
283.223
289.719
291.647
291.955
296.412
283.234
283.219
283.15
283.15
303.15
282.783
283.15
283.15
290.922
290.974
283.15
283.15
291.044
291.62
283.221
283.15
291.078
283.15
283.15
292.536
283.15
292.111
291.112
291.143
283.15
297.835
285.633
283.15
283.15
291.152
291.925
302.955
295.263
293.729
290.904
292.233
292.023
292.083
295.6
283.15
283.25
291.364
283.257
292.143
292.075
283.15
283.15
286.925
293.483
289.224
283.15
303.15
292.039
294.04
283.15
293.704
283.281
283.15
283.15
283.265
288.569
291.78
292.001
283.224
283.15
303.147
293.587
292.388
293.65
293.39
291.003
283.793
301.826
291.639
288.793
288.772
291.804
288.921
283.15
292.548
283.226
292.406
283.215
291.68
283.15
295.316
293.207
283.229
292.429
292.394
283.15
283.15
291.896
283.15
291.901
283.255
291.992
295.768
290.796
297.194
293.964
291.729
290.813
292.776
292.843
292.59
283.15
283.263
283.15
283.15
292.548
291.773
283.295
303.15
296.525
283.15
292.09
283.15
293.669
283.15
293.752
283.15
283.15
297.641
289.339
283.15
303.15
283.15
297.851
297.945
283.15
292.062
295.612
297.203
295.527
283.15
296.189
283.15
282.864
283.15
290.538
300.327
283.15
291.089
292.758
303.15
297.637
287.934
283.168
292.842
283.256
297.043
294.59
294.531
283.595
283.447
292.13
286.012
283.15
296.895
293.732
298.137
283.15
292.568
290.263
295.037
303.15
283.15
296.885
283.15
298.216
295.935
289.851
293.843
296.738
283.15
283.15
294.925
294.548
283.15
283.15
289.003
283.15
289.439
283.15
288.107
294.525
294.542
297.4
283.15
293.667
290.462
294.87
295.29
295.317
283.15
284.363
298.839
283.15
288.64
297.665
301.105
293.495
302.766
283.15
283.15
283.15
285.27
284.864
283.15
283.31
283.15
298.051
283.164
292.522
291.711
283.15
282.349
283.15
283.15
283.277
283.15
303.102
298.489
303.15
283.257
284.559
288.623
283.236
282.179
283.15
283.227
283.15
283.15
291.27
294.726
296.691
283.15
295.804
283.151
283.151
283.15
283.151
283.152
283.162
283.15
283.132
283.173
303.15
283.15
283.15
283.15
283.15
291.182
283.15
291.046
283.15
294.64
283.15
283.15
285.387
283.15
283.15
283.15
299.441
295.181
291.977
283.212
283.15
295.877
303.15
295.881
283.15
283.15
292.597
283.149
283.23
283.15
292.049
283.15
284.109
283.15
290.383
283.15
283.296
291.775
294.913
292.688
291.905
283.15
292.101
283.15
283.15
283.15
283.247
283.15
283.964
283.15
294.322
296.329
296.017
283.15
294.115
295.071
283.15
296.745
303.15
283.15
295.89
292.368
283.15
283.15
293.415
283.15
295.885
283.15
283.15
293.573
283.15
283.15
283.15
283.15
303.15
283.15
283.15
283.15
295.887
297.652
293.999
296.679
290.214
294.985
295.608
283.226
291.431
290.74
286.591
292.106
283.15
289.764
283.15
296.553
295.753
291.921
290.3
283.15
283.15
297.548
291.278
290.054
296.118
296.763
283.15
295.394
285.339
294.014
283.241
283.15
283.15
293.359
284.324
293.239
283.15
283.264
283.15
303.15
283.213
284.265
294.486
303.15
283.921
296.668
294.189
293.515
293.855
294.462
295.682
292.889
303.15
303.15
283.15
295.554
283.15
293.573
291.47
302.703
298.554
285.638
295.02
302.154
297.862
294.928
295.849
293.715
283.15
295.688
293.88
290.675
287.773
294.105
283.15
283.15
303.15
283.168
294.722
300.404
294.704
303.15
303.15
284.398
293.394
294.905
292.728
283.15
292.632
283.15
293.738
283.15
298.351
283.15
294.558
295.251
302.799
292.303
293.702
302.797
283.15
283.15
302.805
283.15
294.567
295.184
296.451
295.375
296.001
295.188
283.15
292.901
303.15
295.49
296.54
293.254
283.15
293.209
297.709
283.204
293.632
283.15
295.347
283.226
287.741
294.504
291.011
283.201
303.15
293.573
288.106
283.15
303.15
294.045
294.204
295.982
294.326
289.336
303.15
303.15
293.11
283.15
295.023
294.444
294.315
294.43
293.95
303.15
303.15
284.11
294.318
295.122
303.15
294.084
296.152
303.15
282.446
292.917
283.567
291.988
294.359
283.257
283.15
294.108
303.15
293.781
291.731
283.15
283.248
283.15
283.15
294.39
301.06
303.15
297.235
302.911
288.185
301.674
287.1
291.09
295.27
297.733
297.143
289.462
289.167
283.242
283.15
288.104
290.481
303.15
283.239
300.987
283.259
294.508
294.323
294.94
283.15
302.397
289.608
294.815
294.647
292.523
283.15
303.15
283.262
286.772
283.15
292.942
292.981
294.666
283.273
304.929
283.266
295.046
283.15
295.298
283.298
287.087
294.944
303.15
283.15
283.15
283.15
290.193
283.15
300.814
301.118
283.15
295.894
299.11
302.605
293.685
283.235
283.15
302.574
287.723
300.253
291.913
292.137
295.94
295.795
295.398
293.307
295.261
303.15
286.073
298.844
295.796
284.809
284.887
297.237
284.574
299
293.771
283.15
293.659
293.574
303.15
293.359
303.15
292.583
283.227
294.04
292.086
283.205
285.411
283.208
303.15
294.48
291.961
288.947
292.438
293.38
303.15
303.15
293.554
293.425
283.15
303.15
283.222
290.536
294.143
283.15
303.15
292.816
283.15
283.15
283.15
285.255
283.164
283.15
284.957
303.15
283.15
283.15
303.143
303.15
297.274
290.53
283.244
297.361
296.699
292.336
303.15
283.15
283.15
296.914
282.325
296.661
283.15
303.15
283.15
303.15
296.783
284.579
283.15
291.179
297.604
293.495
302.758
297.492
295.758
297.458
291.413
297.626
283.15
283.15
297.491
297.424
294.316
303.15
283.15
291.919
293.735
293.666
294.08
294.362
294.16
283.225
291.255
283.15
300.61
285.611
297.022
303.023
283.228
303.15
294.74
283.15
299.948
303.15
303.15
293.493
283.15
300.652
283.296
283.15
303.15
292.055
283.276
303.15
293.493
291.789
283.274
293.612
302.96
303.15
297.48
293.756
283.15
289.043
292.018
283.15
283.097
303.15
283.15
303.15
283.15
303.15
283.15
297.88
297.779
296.962
297.554
294.29
283.15
286.81
284.477
283.15
292.025
298.047
294.834
296.659
283.15
301.147
283.15
303.15
283.15
297.018
296.289
303.15
303.15
283.15
288.94
287.346
294.314
289.22
289.625
303.15
303.15
283.15
292.114
287.799
303.15
299.757
303.15
287.573
303.15
303.15
303.15
291.698
290.749
299.278
303.15
292.59
292.929
303.15
291.92
287.302
282.682
293.723
283.729
295.842
291.698
292.134
283.312
293.658
292.229
303.15
303.15
285.171
288.657
292.707
283.573
283.282
283.15
289.886
286.591
283.15
295.285
291.703
294.637
287.705
285.227
293.94
303.15
292.226
284.068
290.956
294.014
300.929
291.981
292.39
283.307
283.247
298.085
292.206
283.15
283.15
283.901
286.789
283.778
289.995
284.856
292.868
284.219
303.15
294.032
290.564
288.477
292.574
303.112
303.15
283.15
284.408
294.781
300.634
284.98
285.126
298.413
294.55
284.947
282.312
294.006
303.15
287.369
283.15
283.13
285.156
303.15
297.633
283.151
283.15
303.15
284.929
300.027
303.15
283.15
289.266
295.107
296.47
297.824
283.515
303.15
285.254
291.854
283.15
283.15
293.926
283.15
303.125
283.15
303.15
294.337
283.15
292.613
283.15
283.15
283.15
300.145
298.995
285.916
283.138
299.318
283.15
299.428
303.15
283.15
283.15
296.3
285.771
292.94
283.764
288.103
293.753
293.559
283.15
283.15
283.15
296.753
303.15
293.683
283.15
303.15
288.566
283.15
283.15
288.195
303.15
296.127
283.15
303.15
296.85
302.68
290.225
292.505
286.9
288.13
303.15
283.15
303.15
283.15
283.15
294.163
283.15
283.141
291.908
283.207
303.15
288.309
288.773
287.967
294.279
288.267
294.9
289.063
286.223
303.15
287.404
291.752
292.992
303.15
300.566
292.907
289.591
303.228
303.15
299.149
283.15
290.463
303.15
283.15
290.515
283.15
297.733
297.164
290.171
295.058
303.15
303.15
290.274
290.297
283.916
295.157
283.151
283.571
303.15
283.794
290.228
303.15
283.15
283.003
283.15
290.353
299.827
303.15
290.328
303.15
303.15
283.663
292.375
283.15
283.149
303.15
293.266
292.425
303.15
303.15
291.365
283.127
290.959
303.15
283.139
293.424
290.992
290.993
300.718
283.15
290.996
303.15
294.74
294.245
303.15
303.15
303.15
292.525
283.15
291.127
291.873
303.15
283.14
291.298
303.15
303.15
303.15
292.419
283.15
293.581
283.15
293.787
291.63
283.15
296.139
303.15
283.15
291.549
291.43
291.412
294.091
283.15
293.455
291.778
291.823
293.845
283.14
283.15
303.15
283.15
283.15
283.15
283.15
303.15
293.602
294.243
303.15
285.302
293.645
293.202
283.15
292.945
283.545
297.2
283.15
296.725
295.918
292.529
293.461
283.15
292.19
292.278
293.468
292.181
298.953
293.634
287.292
283.15
304.951
284.007
291.992
300.346
283.134
292.963
291.739
303.15
294.365
296.495
295.226
292.394
301.437
296.208
292.013
298.96
293.109
302.822
297.642
300.378
292.129
285.248
294.215
289.312
294.344
295.91
297.454
292.471
296.66
283.15
283.15
294.76
290.68
283.143
299.555
283.16
288.105
290.008
283.15
297.893
293.721
283.15
293.601
292.493
283.15
295.067
283.15
293.106
298.421
283.811
300.336
292.88
294.444
284.004
293.616
298.456
291.698
286.513
284.622
293.488
285.532
293.361
283.15
303.15
292.489
297.127
298.077
301.561
283.46
292.499
283.15
283.182
285.01
284.838
303.151
291.676
283.152
283.411
283.139
283.225
283.252
283.15
301.984
293.886
283.152
303.187
293.702
283.15
283.15
299.001
283.152
302.099
302.824
294.665
283.151
283.15
292.056
283.15
283.15
293.537
283.15
283.15
283.15
295.148
302.943
293.045
288.185
283.15
298.911
293.005
283.158
283.15
292.337
288.698
283.15
295.255
283.151
302.927
293.269
283.15
291.267
298.232
302.944
283.155
292.723
292.742
298.506
294.068
294.315
288.188
289.742
283.15
294.459
289.08
294.119
283.15
289.336
302.814
283.15
293.355
289.428
293.38
283.15
294.023
299.711
283.15
294.614
292.219
283.15
283.15
293.133
283.15
295.05
287.184
298.566
299.526
289.331
283.15
283.15
294.782
295.973
291.917
283.15
283.15
298.696
285.522
283.15
283.15
283.15
283.15
283.15
296.219
287.996
296.579
283.15
292.864
283.15
299.575
303.15
293.411
283.15
292.987
296.955
283.151
299.694
283.15
283.15
283.15
283.15
299.655
293.618
283.15
301.302
292.079
283.15
293.153
294.341
292.004
289.339
293.415
303.15
294.296
301.437
283.15
283.15
283.15
283.15
283.15
301.37
287.257
290.349
292.987
283.15
283.227
295.955
283.15
283.15
298.925
291.965
290.401
290.569
283.15
303.15
298.524
293.428
294.397
295.704
295.022
301.377
293.368
301.18
295.291
293.026
292.087
303.15
292.5
300.056
295.448
295.692
291.923
302.834
286.646
295.646
293.89
292.403
296.205
295.415
283.15
291.137
292.615
295.754
294.106
283.15
293.356
283.151
296.432
296.072
295.226
296.197
294.302
295.77
294.788
283.15
291.985
295.611
295.812
296.771
300.254
297.339
297.453
297.95
301.246
283.15
303.146
283.146
290.489
283.15
283.807
301.796
303.552
295.261
303.01
303.129
291.142
283.15
292.094
283.151
290.858
283.15
300.596
283.15
291.103
303.15
283.15
293.475
283.15
301.074
295.237
283.15
302.015
294.057
289.234
302.273
286.674
295.407
291.733
292.617
294.642
300.556
302.961
293.23
289.819
289.041
294.069
295.288
294.647
295.879
283.15
283.15
283.289
294.208
294.247
295.778
291.134
283.15
283.15
293.773
291.952
283.15
290.954
294.082
292.896
292.179
283.15
293.394
294.7
283.15
283.15
293.549
286.565
302.176
291.961
299.934
296.661
294.709
283.15
295.973
303.15
283.15
283.15
283.15
295.298
296.776
295.483
294.343
298.699
288.437
283.15
283.142
283.159
291.352
291.607
283.15
283.15
292.661
283.15
296.163
297.871
300.89
295.599
294.84
283.15
283.15
293.823
295.389
293.747
295.507
294.7
289.676
293.414
295.693
300.951
296.722
283.15
303.15
292.594
295.699
293.366
294.723
283.15
292.641
287.78
283.874
290.613
283.15
292.642
292.495
292.913
287.467
295.199
283.15
295.386
290.861
292.435
293.633
283.15
292.639
292.24
293.738
292.282
295.104
295.185
283.15
283.15
295.479
283.15
283.15
296.655
296.187
283.151
297.935
283.15
293.908
283.15
293.696
293.668
292.316
296.018
293.075
296.426
295.43
294.964
299.988
292.9
296.143
295.109
296.786
295.665
293.661
292.868
283.15
283.15
283.15
290.763
303.15
294.004
289.371
283.15
283.15
292.521
283.15
283.15
299.296
283.15
283.15
293.55
285.324
283.15
292.618
283.15
300.852
286.361
287.365
293.278
293.891
293.73
283.15
294.221
283.15
283.15
283.15
291.726
295.914
283.15
283.15
283.15
284.189
288.497
292.319
294.621
283.15
283.15
303.15
283.15
293.606
293.774
293.252
292.014
283.15
283.15
283.15
303.15
287.156
291.361
293.442
283.15
283.151
292.02
283.15
291.374
290.509
283.15
283.15
294.589
293.417
291.664
294.156
293.505
291.591
283.15
283.15
283.15
303.15
283.411
283.172
283.15
290.626
283.174
295.848
292.975
292.073
285.214
292.974
289.292
295.573
291.023
293.905
302.026
294.38
293.606
283.15
294.284
293.193
296.903
293.817
300.508
291.966
301.264
292.648
297.607
283.185
294.609
283.15
289.931
283.15
293.939
295.03
292.924
283.15
293.359
283.223
283.15
292.194
283.15
283.15
283.15
283.15
284.147
292.071
299.358
293.972
293.883
283.15
283.15
291.124
292.776
294.356
294.573
294.046
291.627
292.199
293.621
292.327
294.097
289.769
289.16
292.179
292.134
283.15
283.15
293.605
290.942
283.937
302.659
290.514
292.494
296.794
283.409
285.562
293.403
298.654
303.387
296.195
287.285
283.183
286.442
298.421
289.419
290.07
292.184
293.94
286.385
285.97
283.15
283.913
283.169
283.15
294.029
283.15
285.233
284.352
293.556
293.057
294.731
294.951
283.15
292.208
292.254
293.063
287.114
283.355
283.15
289.805
287.747
283.15
284.401
283.15
283.15
303.15
303.15
287.334
291.985
295.685
293.268
283.51
284.432
296.998
285.639
291.969
284.142
284.075
291.25
290.809
287.282
290.872
287.757
284.06
291.805
295.395
295.466
284.751
294.523
294.506
284.211
287.492
303.241
283.15
303.15
283.15
291.766
287.502
296.094
287.454
283.15
287.33
292.585
291.138
294.379
294.509
283.15
303.15
282.892
291.985
301.986
284.048
303.15
283.157
300.873
294.264
283.15
291.754
293.052
292.881
283.15
303.15
303.15
292.743
283.15
296.668
283.15
295.555
294.346
294.942
293.891
291.759
296.774
283.15
283.15
300.786
303.15
303.15
297.768
293.859
294.85
294.738
283.15
283.15
300.966
292.103
283.15
291.234
291.796
303.15
283.15
288.005
283.15
291.014
291.838
300.84
291.77
292.624
292.613
294.453
292.201
292.637
283.15
292.167
293.717
292.649
296.694
301.949
302.709
293.577
295.794
293.548
293.214
291.446
292.105
300.574
293.039
283.15
291.818
290.468
290.343
290.516
291.802
290.476
283.15
303.15
297.114
283.15
292.499
295.103
291.545
297.955
283.146
283.152
283.663
283.15
293.466
283.15
283.15
283.15
283.15
292.172
294.961
303.15
295.671
284.94
292.875
297.801
298.036
293.772
292.08
283.15
298.074
283.15
296.188
283.15
292.439
298.678
292.776
294.562
298.113
294.13
296.549
293.869
283.15
283.15
297.001
283.15
283.15
291.94
292.563
293.078
290.447
283.15
291.938
291.512
291.253
283.748
295.873
292.069
283.15
292.535
283.15
291.862
299.675
291.872
294.103
286.321
291.134
290.765
292.059
293.871
292.782
283.15
292.376
283.15
292.747
283.15
283.15
290.841
283.15
296.846
292.613
296.329
294.092
295.976
297.512
295.575
287.433
297.249
294.023
295.387
288.229
294.175
297.508
283.445
292.607
283.15
289.088
290.558
294.816
283.15
293.841
283.376
283.15
290.084
292.473
283.354
283.15
284.536
283.415
292.31
283.15
283.32
283.15
295.599
298.739
283.414
302.765
301.077
303.15
293.779
294.234
293.388
295.414
293.445
295.136
293.694
293.672
292.107
302.511
283.15
298.126
290.027
294.4
292.766
300.316
283.15
288.361
300.867
287.193
290.686
290.299
283.15
283.116
291.997
289.939
282.401
293.564
283.15
287.528
296.767
292.318
284.899
291.401
302.414
292.657
292.301
297.397
303.181
283.15
291.648
294.845
290.914
292.728
283.15
283.15
284.326
293.242
294.575
293.103
293.172
291.426
293.448
293.814
283.15
283.18
283.15
300.294
293.138
283.15
283.15
294.648
300.432
290.232
283.15
283.15
298.928
283.15
289.813
283.15
283.221
283.15
297.2
293.218
285.064
297.045
283.144
291.98
292.089
298.595
283.191
292.454
290.649
283.276
283.15
283.149
292.385
293.211
282.637
291.9
292.1
292.439
303.151
293.612
283.15
293.639
286.005
293.092
292.387
292.094
297.343
285.991
283.742
293.364
284.418
283.289
290.941
283.543
293.795
292.317
284.348
293.852
283.15
289.458
297.409
287.182
291.301
291.967
283.551
295.701
283.15
296.339
293.139
283.15
293.363
296.752
292.72
303.15
287.454
294.991
285.591
293.841
285.809
292.046
296.629
287.982
293.063
303.15
286.249
292.078
288.242
285.272
285.173
290.775
285.471
288.579
291.917
294.518
295.582
283.412
289.256
294.609
294.001
293.049
294.637
293.006
293.068
293.931
288.527
299.564
288.968
288.381
287.417
292.955
286.464
302.41
291.905
295.18
292.981
283.15
294.822
291.006
291.246
283.534
283.15
295.848
283.15
292.507
291.782
292.526
283.15
283.15
302.592
296.428
286.887
293.379
293.619
294.452
293.907
303.103
283.15
292.353
283.15
294.408
292.478
292.737
283.15
292.135
284.087
299.065
291.816
293.563
291.556
293.925
290.922
293.935
300.083
292.616
299.6
291.841
299.154
299.212
302.347
302.078
299.49
299.692
299.54
289.05
293.377
292.459
291.829
292.88
288.849
293.548
294.175
290.625
292.548
285.598
292.296
292.619
291.582
290.001
293.515
291.23
301.029
293.611
299.961
301.461
289.117
283.15
289.878
291.981
290.282
299.031
290.778
292.415
293.637
292.127
283.15
292.031
292.1
293.181
293.883
283.15
292.122
290.844
292.78
290.854
292.18
293.898
293.114
292.829
292.121
297.39
293.441
291.744
283.159
283.177
292.187
295.915
283.15
292.868
283.771
292.132
283.327
290.965
283.15
292.846
293.01
301.886
302.251
294.632
293.484
301.123
304.621
291.001
302.215
302.158
283.15
292.381
283.15
288.648
302.351
294.175
283.15
283.15
302.349
283.15
283.163
288.407
287.979
283.15
294.116
283.15
303.08
283.15
296.173
285.608
284.81
284.916
284.978
293.107
284.989
290.513
284.896
293.148
283.15
283.15
294.122
293.049
299.267
283.151
283.151
283.15
287.044
301.441
283.15
301.098
291.179
300.519
283.15
301.539
283.15
298.686
283.15
290.914
290.411
296.689
298.68
297.846
294.215
283.15
293.562
300.203
283.15
291.799
298.933
283.15
283.151
283.15
284.22
299.028
287.901
299.045
291.661
293.106
293.782
295.782
289.129
283.257
283.151
296.741
289.171
295.194
283.15
297.33
283.15
283.15
298.129
297.066
291.265
291.813
297.136
290.287
287.442
297.544
298.822
303.15
292.2
285.563
293.554
304.283
291.266
287.605
296.073
283.15
296.479
283.15
291.653
294.753
297.504
283.15
292.297
293.637
292.17
292.243
293.895
294.095
301.816
283.15
296.483
286.149
297.294
283.153
294.448
283.153
301.918
294.082
295.02
294.899
288.693
295.593
300.13
283.154
283.154
283.15
293.612
299.362
296.616
283.346
283.409
290.752
283.15
294.54
294.232
303.144
295.581
295.688
290.652
299.166
290.291
293.488
303.15
293.36
283.15
283.15
283.15
286.939
294.922
292.374
293.182
291.916
291.099
283.15
293.514
287.957
292.795
294.368
291.293
292.796
289.748
283.15
298.278
295.801
300.58
291.771
283.15
293.02
294.07
284.603
296.429
297.117
292.197
296.636
293.731
296.617
297.109
300.247
295.155
294.378
290.567
283.15
283.15
303.109
303.15
283.15
295.389
290.327
283.15
283.15
303.15
303.15
293.952
294.789
283.15
295.099
295.229
287.262
295.087
294.703
295.176
295.231
295.833
289.759
291.715
292.535
298.646
293.485
293.981
293.035
283.15
302.511
290.592
293.623
283.387
294.041
283.15
283.15
283.17
292.347
283.15
293.997
291.652
283.15
302.711
283.15
283.15
298.262
295.64
303.15
288.104
297.62
300.899
283.218
291.357
295.836
295.993
293.491
294.073
292.942
294.741
292.658
283.15
291.695
296.366
292.355
293.718
297.256
293.399
297.04
293.492
292.41
283.15
283.151
283.15
294.053
295.574
295.031
293.487
300.799
295.226
292.178
292.248
283.15
293.376
293.268
293.099
292.35
289.492
293.209
291.996
303.15
283.15
293.551
294.254
294.706
283.15
283.15
302.493
295.149
297.413
289.874
289.779
283.15
283.15
292.73
293.517
294.153
290.418
283.15
293.284
293.335
292.911
293.001
283.15
293.349
283.15
294.293
295.604
285.179
291.737
291.994
294.496
294.383
283.15
295.974
295.664
295.903
295.668
295.005
295.663
293.423
295.394
295.333
290.227
292.12
291.503
295.213
283.15
294.78
283.15
302.967
294.655
295.684
296.837
285.48
295.171
290.262
285.425
283.15
290.287
293.749
292.035
282.851
283.15
295.01
287.981
292.891
300.07
297.306
283.146
297.868
287.207
300.963
290.295
293.526
283.15
293.574
301.327
296.122
293.603
291.783
295.246
293.153
283.15
294.646
292.585
293.589
293.078
295.603
292.571
283.15
292.314
283.15
293.67
291.942
294.998
292.791
290.907
283.15
283.15
291.116
284.073
290.434
289.49
292.982
296.968
283.269
297.623
286.664
283.15
299.373
290.215
283.15
303.198
283.15
283.15
283.15
294.594
283.15
283.15
289.773
283.15
293.143
294.365
292.62
290.819
291.368
287.296
290.07
297.476
295.796
292.331
297.28
283.596
292.642
288.677
303.15
297.598
293.006
292.281
292.772
294.25
293.113
294.304
291.742
298.15
290.157
303.15
290.136
289.597
287.539
289.974
289.548
291.992
286.331
303.15
292.123
289.703
286.596
289.026
283.15
292.438
293.042
289.993
296.718
292.981
283.15
292.801
292.004
292.079
301.587
283.724
288.678
283.15
293.5
296.618
292.572
294.98
292.767
300.898
285.144
292.816
294.087
283.588
293.876
286.246
295.422
293.77
295.899
283.15
293.823
283.162
302.456
283.15
283.259
295.439
303.115
283.15
294.446
283.15
293.836
296.743
289.413
283.15
291.565
283.154
295.7
283.15
293.882
295.704
294.576
296.588
283.15
293.733
283.15
283.155
303.15
285.59
283.15
283.404
291.969
293.722
285.542
283.15
292.631
287.487
283.188
283.85
293.899
283.15
293.67
290.31
294.44
283.177
293.453
283.15
283.15
283.15
283.15
283.15
283.15
287.16
294.285
283.15
283.15
293.127
294.405
292.365
298.826
290.609
285.753
296.538
283.154
285.575
296.892
297.078
296.91
283.15
291.533
291.795
292.28
283.155
283.153
297.198
287.572
301.628
285.766
292.282
293.767
293.101
287.619
291.729
291.547
283.15
291.696
292.293
293.606
287.043
294.357
288.5
295.192
283.15
291.996
285.749
283.15
283.15
283.15
283.15
292.89
290.046
296.738
283.15
283.15
283.15
293.002
283.15
290.987
296.132
293.564
291.727
283.15
293.707
293.594
291.637
290.988
286.737
287.816
288.536
291.266
291.327
297.694
294.16
294.193
294.44
300.988
285.016
295.932
294.453
285.042
284.924
293.023
293.196
290.698
291.433
296.451
291.026
283.15
291.203
293.431
297.494
285.01
283.164
291.134
295.808
296.934
289.216
292.232
293.931
300.241
293.38
301.693
294.03
292.72
292.561
293.831
283.15
294.119
291.095
283.332
284.098
291.123
293.633
292.665
294.006
283.15
283.15
293.334
283.15
283.243
292.343
293.036
283.718
292.129
293.159
293.938
283.766
284.776
292.069
283.15
283.15
293.385
294.179
294.104
283.15
283.15
293.738
293.202
286.749
301.233
283.57
292.095
288.401
283.15
283.15
288.449
283.15
283.15
293.865
283.15
283.15
283.15
283.15
283.15
293.906
283.306
283.15
283.15
293.818
286.956
293.967
283.15
293.377
283.15
283.15
293.96
283.303
294.097
283.15
283.15
283.15
283.15
293.237
294.245
293.174
293.876
293.722
286.992
293.673
283.151
294.578
294.162
294.014
294.104
294.468
293.449
290.615
294.082
293.621
292.17
294.136
293.772
294.198
283.15
302.496
294.503
295.203
297.199
283.15
295.382
283.15
286.047
283.15
293.666
293.186
295.678
283.15
291.748
296.676
283.194
290.916
298.883
292.075
291.795
290.551
290.807
294.232
283.15
283.181
283.15
283.15
283.15
283.15
283.227
283.216
283.202
284.134
283.15
284.852
286.735
283.15
293.659
292.753
283.15
283.15
293.16
291.939
292.816
283.15
292.424
292.483
283.15
283.15
283.15
295.011
283.15
283.198
294.624
294.113
287.173
294.373
283.187
286.328
286.616
286.525
283.15
284.887
286.65
291.343
283.15
283.15
283.729
283.15
293.32
283.215
284.921
283.15
293.405
293.448
283.745
293.164
293.119
283.15
284.998
290.099
283.15
283.15
292.741
293.799
294.093
294.196
294.093
294.111
294.163
283.15
283.15
283.15
285.295
283.15
289.576
285.497
285.34
290.975
293.993
293.648
283.15
294.11
294.046
294.462
283.15
290.266
283.15
293.586
283.154
291.618
294.138
293.393
283.156
294.299
293.888
283.157
283.154
294.033
283.15
291.42
283.156
291.668
293.834
294.354
292.939
293.596
283.15
292.531
283.15
283.15
283.15
290.621
293.969
291.277
289.994
283.15
283.154
283.15
283.151
288.735
291.64
289.235
301.694
295.527
289.025
283.15
283.15
296.052
283.15
292.966
290.267
283.15
289.021
283.15
291.685
293.28
296.337
288.938
303.15
284.565
283.151
294.051
288.74
295.603
291.084
288.506
290.807
290.978
300.445
283.209
290.838
295.203
284.227
288.497
284.906
290.597
294.372
286.346
293.098
288.854
291.43
292.695
289.672
292
293.983
283.15
284.912
289.144
291.543
292.206
291.372
283.155
283.162
283.174
283.15
285.768
287.995
292.159
293.678
292.837
294.261
303.15
283.171
293.657
296.866
303.15
288.249
292.255
294.026
283.15
290.432
291.74
283.158
288.97
294.027
283.163
285.25
295.335
283.15
288.594
293.239
288.691
292.471
293.564
294.198
292.059
293.766
292.027
293.876
299.046
292.588
292.031
292.15
294.899
292.166
283.15
286.516
292.791
294.085
292.204
303.15
293.617
288.323
283.194
292.203
283.15
293.516
291.238
283.15
283.15
283.15
293.833
283.15
294.736
283.15
292.665
291.902
293.308
291.784
283.15
293.561
288.3
283.15
294.365
283.15
293.965
283.15
294.05
293.951
294.059
293.044
283.15
293.213
292.318
293.729
283.15
288.341
298.832
293.88
293.98
283.15
293.804
283.15
283.15
293.12
295.292
293.836
293.206
294.074
294.111
292.749
283.204
283.15
283.15
283.15
289.498
283.15
293.382
293.074
283.15
283.15
283.168
293.228
294.031
293.523
302.567
293.955
293.887
293.367
294.637
293.855
294.059
283.15
293.85
294.241
294.129
294.111
283.453
294.353
283.49
283.151
283.248
293.88
283.15
291.668
294.544
293.642
293.602
283.166
294.75
293.876
283.15
283.163
290.495
290.558
294.354
283.15
293.25