/*--------------------------------*- C++ -*----------------------------------*\
  =========                 |
  \\      /  F ield         | OpenFOAM: The Open Source CFD Toolbox
   \\    /   O peration     | Website:  https://openfoam.org
    \\  /    A nd           | Version:  10
     \\/     M anipulation  |
\*---------------------------------------------------------------------------*/
FoamFile
{
    format      ascii;
    class       volScalarField;
    location    "78";
    object      SgP;
}
// * * * * * * * * * * * * * * * * * * * * * * * * * * * * * * * * * * * * * //

dimensions      [1 -1 -3 -1 0 0 0];

internalField   nonuniform List<scalar> 
59698
(
0.00309509
0.00183544
0.00231272
0.00271399
1.14777e-06
0.00145199
0.00249692
1.07675e-07
1.98769e-09
3.92786e-09
0.000586477
1.79441e-09
1.59072e-09
0.00228613
2.77219e-08
4.27992e-07
9.40741e-09
3.80333e-09
1.61669e-09
5.98252e-10
0.000366034
1.56275e-06
0.000499826
8.81901e-08
2.00692e-07
1.19316e-09
1.17358e-09
0.00248143
0.00239366
2.10285e-09
1.35317e-07
0.000600624
6.68185e-08
0.00403498
1.11286e-06
3.78785e-09
0.000465299
5.07218e-07
1.7307e-08
0.00245358
2.94911e-08
2.30471e-07
2.30366e-08
2.46495e-08
0.000402107
1.04686e-07
2.69149e-09
4.88248e-08
0.00290845
3.14466e-08
2.97605e-10
2.35243e-09
0.00172825
0.00272943
0.00216782
2.05891e-09
8.45901e-08
1.5587e-08
1.76929e-08
2.76177e-05
0.00178295
6.29152e-08
1.99193e-07
1.5634e-09
4.96862e-07
4.17049e-08
1.75165e-09
3.24505e-09
4.195e-09
6.7722e-09
6.25873e-07
2.79994e-08
0.000360057
1.5998e-06
0.000411949
1.07717e-06
2.1517e-08
2.19508e-08
6.40672e-09
9.64979e-09
4.80073e-07
9.85842e-10
4.00139e-09
8.02503e-09
1.69287e-05
3.13729e-08
9.13695e-09
2.22809e-07
2.33743e-06
2.32419e-08
4.51183e-09
6.35974e-08
1.68135e-07
6.613e-09
6.03892e-08
0.00359104
1.35768e-07
6.19925e-08
4.99335e-08
8.60707e-10
0.00353686
2.07625e-05
2.95225e-07
0.00329383
5.31009e-08
0.000564779
2.32532e-09
2.27054e-09
2.68741e-09
4.39702e-10
3.62959e-08
2.6412e-06
1.35719e-06
1.56282e-07
9.76122e-08
3.45664e-08
3.49061e-07
0.00353378
2.9263e-07
1.15313e-08
2.27325e-09
2.99065e-07
2.25717e-07
3.40378e-09
1.62043e-09
7.64531e-09
8.36803e-09
7.21297e-09
1.29934e-08
3.86447e-07
0.00335574
3.86439e-09
1.10164e-09
1.85348e-07
6.36323e-08
3.23665e-09
4.91658e-07
2.56625e-10
1.72637e-09
5.65461e-09
2.08349e-08
0.0023172
0.00252085
1.58123e-09
1.90733e-07
7.93921e-10
5.34998e-07
3.78868e-07
0.00448818
7.03834e-07
0.000257432
0.000434378
2.79293e-08
2.54837e-07
9.15574e-09
1.04625e-07
7.39628e-09
0.00162891
6.71698e-08
6.05852e-10
3.11231e-09
7.7158e-09
2.22435e-08
9.70898e-08
1.88827e-08
0.00222844
1.06427e-09
0.000567502
0.00152526
6.91826e-09
2.55817e-07
1.49981e-06
2.17444e-07
9.24529e-07
5.77494e-07
0.00121903
4.40799e-09
0.00139547
0.000326014
0.0029318
2.25691e-06
7.41071e-07
3.997e-07
1.12297e-08
2.49234e-07
6.80522e-08
3.71001e-07
0.0023806
1.3662e-10
1.81465e-08
6.43078e-09
7.07099e-09
2.29976e-08
6.05839e-07
1.21875e-07
0.00416745
1.7476e-06
0.00294377
1.2658e-05
9.10265e-08
0.000227099
6.75088e-07
1.55327e-09
2.58318e-09
0.00356716
0.00244692
3.60925e-08
0.00205807
0.00270769
0.00350244
0.00242679
6.10954e-09
0.00262738
1.56776e-08
2.3459e-09
0.0033671
9.86061e-09
4.5467e-08
1.55136e-07
4.66316e-09
1.3692e-05
0.00217431
1.7253e-09
5.0929e-07
8.89043e-09
0.0027467
2.11631e-08
5.48254e-09
4.88455e-08
6.82801e-07
7.57939e-09
1.8708e-08
7.43353e-09
1.13652e-08
9.50762e-09
8.99709e-09
3.07464e-07
1.95703e-08
1.76465e-07
8.19121e-09
0.0026137
1.19034e-07
3.42768e-08
0.000664542
8.69269e-09
2.15064e-07
2.29728e-05
3.45926e-06
5.28789e-09
4.94897e-09
6.12266e-08
6.15807e-09
3.09451e-08
0.000233555
1.92534e-08
0.00169891
1.10255e-07
5.41098e-08
0.00314721
2.88474e-09
7.00157e-06
1.81608e-09
7.82716e-09
0.00270865
0.00357795
8.56013e-07
1.08844e-09
1.07281e-07
1.97588e-08
6.03067e-10
3.12271e-09
1.53996e-06
6.89838e-05
6.64434e-10
1.25364e-07
5.01455e-08
0.00146581
3.97933e-08
2.93558e-09
1.21862e-09
0.000574131
1.78536e-09
1.66613e-09
4.71561e-07
0.00334918
1.02054e-07
5.28516e-09
0.000647108
3.82719e-07
1.00867e-07
2.70527e-06
0.00232503
9.22654e-09
1.35065e-09
7.03658e-07
0.0027323
4.70583e-10
1.52542e-07
1.44976e-08
6.43317e-07
3.08077e-09
2.33153e-09
6.86644e-08
5.78524e-10
1.0645e-09
1.14617e-09
3.61013e-07
2.19366e-08
5.35859e-09
5.27072e-10
0.0019012
4.19987e-08
3.68469e-09
2.37976e-08
0.00191497
5.62225e-09
0.000403389
8.30452e-09
0.000829308
8.51922e-08
9.52891e-08
3.0464e-07
1.67365e-08
2.9799e-09
1.41423e-06
2.55726e-07
1.60698e-08
8.69829e-09
4.3683e-10
0.000361923
0.00289934
4.02378e-08
3.57866e-07
2.42548e-06
0.000430954
1.0342e-08
7.75951e-09
4.2894e-09
1.39743e-07
0.00122087
2.13428e-08
0.00206206
0.00250594
4.94832e-09
1.00234e-07
1.36101e-09
2.62509e-10
1.24566e-06
1.34548e-09
0.0020339
9.27545e-10
1.31622e-08
1.25588e-06
7.94425e-10
9.63935e-07
0.0019159
2.68323e-06
1.43923e-08
3.29561e-08
1.82177e-09
2.10004e-08
1.08372e-08
1.10658e-07
3.59445e-09
1.3515e-10
1.04124e-07
0.00279685
0.00201716
2.81987e-08
9.74594e-07
1.13112e-07
0.00053399
0.00366892
0.000651124
2.08548e-08
2.97675e-09
3.6293e-08
2.04481e-09
0.000460543
2.49307e-09
0.000347123
4.4614e-08
4.34606e-08
5.15489e-08
8.53747e-10
6.76889e-06
1.09257e-08
0.000544828
7.99006e-10
3.38925e-08
2.09816e-08
0.0004575
0.00330058
3.24332e-09
5.38297e-05
0.00179782
3.64524e-06
0.00182709
0.00269777
8.14635e-08
0.00243867
0.00236492
0.00257382
5.4172e-09
0.00148345
0.00417843
0.00383882
0.00276238
5.96955e-09
8.27985e-07
1.88373e-07
0.0004043
0.00163745
0.000434529
4.69604e-10
2.06355e-07
2.02255e-09
2.28581e-06
0.00189679
0.00175577
0.00292205
0.00218232
0.00249159
0.00166569
7.81864e-09
2.04364e-09
7.79548e-09
1.58848e-08
0.00138448
5.69649e-10
7.78948e-09
0.00195989
0.00116516
2.34719e-08
3.70703e-08
1.41163e-08
1.39002e-08
0.00126085
3.3367e-09
0.00211842
1.92326e-07
0.00321067
5.01407e-09
4.39935e-08
1.86324e-07
2.03504e-06
8.66625e-08
4.50505e-10
2.13488e-09
1.2874e-07
0.00254331
6.62145e-09
7.30905e-08
1.96895e-06
6.12046e-07
1.15122e-07
3.39779e-07
1.40373e-09
1.1518e-06
1.65053e-07
6.11599e-08
4.61555e-09
0.00320859
6.49315e-09
2.19349e-09
2.02365e-07
3.50855e-07
9.27476e-09
4.43231e-08
6.16677e-09
0.00247477
4.40783e-09
2.00799e-10
6.87467e-09
6.30948e-08
2.03709e-06
8.21139e-07
2.21004e-09
0.00300906
0.00194624
2.34339e-08
2.14631e-07
1.59316e-08
1.94059e-08
2.52491e-07
4.12361e-08
4.44549e-08
1.973e-08
1.60066e-09
1.65101e-09
2.50151e-07
4.06482e-07
3.86162e-10
4.2355e-08
0.00402074
2.12692e-07
1.53292e-08
0.00236657
3.71558e-08
0.000365618
9.68627e-10
1.18667e-07
2.04041e-07
1.21034e-08
1.71063e-08
1.11962e-09
8.16991e-08
2.16059e-09
5.25218e-09
8.26163e-09
5.75508e-09
7.82926e-09
1.3516e-06
5.41924e-08
1.60432e-08
2.67931e-09
6.88759e-09
1.00215e-08
7.03425e-08
2.48384e-08
1.71565e-08
3.47039e-09
5.07414e-09
3.8774e-09
2.18219e-09
6.32055e-06
3.30059e-08
2.81524e-09
0.00339749
0.0037081
2.90605e-09
0.00385156
1.82766e-08
5.48601e-09
0.00145128
3.56369e-10
1.35536e-08
0.00178828
1.87829e-09
0.000384882
4.31287e-08
2.58081e-09
4.50306e-08
2.9901e-06
1.48558e-08
5.18371e-09
8.91924e-06
0.00016707
1.87663e-08
7.48229e-06
1.83439e-08
2.28591e-09
3.09056e-08
1.91817e-09
5.04652e-09
1.45606e-08
1.91663e-08
1.62009e-08
2.58468e-09
2.22891e-09
0.000768507
1.735e-09
1.65812e-08
1.0209e-05
1.51089e-08
1.80914e-09
1.21319e-06
2.25371e-08
8.55906e-09
0.000539255
7.78425e-10
7.60458e-09
2.04759e-07
1.57866e-09
4.39839e-08
1.30956e-09
3.20518e-10
4.31637e-10
0.00200343
2.30969e-09
0.000732637
3.89842e-08
0.0032071
1.49204e-08
3.26949e-09
0.000313361
1.15316e-09
1.35763e-08
1.78713e-08
1.63891e-08
1.98968e-09
0.00316744
8.11865e-09
1.67631e-08
8.5267e-10
4.14133e-08
9.2521e-07
0.00264909
0.000349775
7.25388e-09
7.93339e-09
1.6539e-09
2.88676e-09
0.00337491
1.35314e-08
4.42764e-09
2.49772e-09
0.00108751
0.00385601
1.53402e-08
1.26199e-08
1.56652e-09
1.14327e-08
4.29677e-09
4.12412e-09
5.14731e-09
4.92024e-09
3.64287e-08
7.83195e-05
7.32022e-09
5.03947e-09
7.84844e-09
1.81589e-08
2.53663e-05
0.00241929
1.09575e-08
0.00266351
1.63155e-09
8.78714e-09
4.33006e-09
0.00269466
0.000211202
9.55075e-10
8.42615e-09
6.8211e-10
2.8611e-08
6.31251e-09
2.85503e-09
0.00151549
0.00323686
1.30337e-07
1.62957e-07
0.000607892
1.45072e-09
5.10648e-09
1.60166e-09
4.11839e-07
0.00210705
3.38511e-08
1.74455e-09
0.000439477
7.664e-09
3.18406e-08
3.33312e-09
2.38147e-09
4.3473e-09
9.35132e-10
7.63111e-06
1.0209e-09
0.00182038
5.06494e-08
1.12014e-07
6.83856e-09
1.56365e-06
3.49056e-06
5.37567e-09
2.0803e-08
0.00230809
0.00311019
7.33614e-08
3.86153e-09
7.5865e-07
1.5623e-09
0.00343742
3.10015e-10
1.96005e-08
0.000428463
0.00255397
4.41991e-09
1.5923e-09
1.96509e-07
5.90033e-07
3.53428e-07
0.000378101
0.00139637
1.12795e-10
6.62156e-09
7.87475e-10
4.63897e-09
0.0027747
2.71893e-08
0.00302973
1.00806e-08
0.00131533
0.00209607
0.0023644
6.17789e-08
4.11159e-09
0.000650634
1.27138e-09
2.28979e-10
9.16672e-10
4.34971e-09
1.81548e-08
4.51106e-09
1.48515e-09
9.21619e-08
6.73169e-08
7.61886e-09
2.7255e-09
0.00186394
4.18037e-08
3.53059e-08
0.000362122
1.01447e-08
3.48306e-08
3.82046e-08
1.94096e-09
1.36652e-09
0.000646938
0.00196289
0.00241489
3.87217e-09
1.11366e-08
6.46789e-09
1.63421e-07
0.00194547
1.33158e-09
5.68774e-07
2.58821e-08
1.32079e-05
0.000344566
0.00169868
2.25379e-07
1.48133e-07
2.23299e-08
0.00430842
0.00053217
1.89383e-08
8.92086e-07
3.52541e-09
6.81919e-08
3.44513e-06
0.00231956
2.45261e-08
1.20652e-07
1.01744e-07
1.59379e-05
2.48176e-08
0.00185632
2.48346e-09
5.15964e-08
1.16321e-08
0.00213043
6.84885e-10
6.36944e-09
2.05621e-07
4.45799e-06
0.000599772
1.0926e-07
7.00954e-08
0.000383645
4.15581e-08
2.53366e-09
0.00190612
0.00219654
5.51079e-09
7.55408e-09
0.000401567
1.01909e-08
1.74485e-08
0.000373922
3.50928e-10
0.00265408
2.54578e-09
1.93439e-08
1.81558e-07
3.97745e-09
3.95793e-08
3.57686e-08
5.0017e-05
3.75369e-09
6.11988e-09
7.11036e-09
1.17064e-08
9.7069e-08
1.52226e-08
0.00032609
7.03998e-09
2.05188e-08
0.00140035
5.72813e-08
9.84766e-08
9.28341e-06
0.00187026
2.39211e-06
0.000541341
6.96963e-09
0.00038314
1.58908e-08
4.19961e-09
1.57271e-09
0.00314075
3.78712e-07
3.24243e-08
7.11446e-05
6.43334e-08
0.00157968
1.67956e-07
9.81398e-06
3.49181e-09
0.00100438
3.15981e-09
0.0013049
5.37116e-05
2.43801e-07
0.000651795
0.00179453
1.204e-06
1.10668e-05
4.12085e-09
1.1346e-06
2.51596e-08
4.09105e-05
0.000444809
0.000428761
0.00211175
3.52618e-08
3.18917e-08
0.000561236
4.57259e-08
0.0022771
6.87106e-10
0.000401156
2.28008e-09
2.66833e-09
2.93895e-05
0.000503638
0.000206156
0.000108615
7.69247e-09
5.1089e-09
1.99365e-09
0.000487223
2.19923e-09
0.00350803
0.00473705
2.49534e-09
0.000499693
2.08071e-09
9.70143e-10
2.93458e-09
3.18653e-06
0.000469634
2.88334e-09
1.2841e-09
1.05385e-06
4.44085e-09
1.12229e-07
3.79521e-09
2.97606e-09
8.81213e-08
2.63824e-07
3.11307e-08
1.04099e-08
0.000532568
8.17699e-10
0.000127642
2.68262e-10
2.5016e-09
0.00124248
1.52194e-09
7.7738e-06
8.98234e-08
7.42333e-09
0.00010882
1.25035e-08
0.00157161
2.72462e-08
4.57607e-10
0.00174582
5.65719e-09
1.13437e-08
0.00030714
1.24328e-09
0.00205967
1.68944e-08
1.4186e-09
0.00422999
3.05995e-09
5.12333e-09
1.49634e-08
1.63999e-08
0.000319936
7.794e-09
5.59379e-09
1.65027e-07
0.00180903
0.000633465
0.000584053
2.24396e-08
1.77855e-09
0.000379941
0.00237001
6.83727e-09
8.5784e-09
5.5722e-08
1.16389e-08
2.82887e-09
2.54521e-08
0.000412257
0.00144848
0.00262294
1.49179e-07
2.04039e-09
0.00267082
0.00400969
0.00520957
5.05855e-08
1.80249e-08
1.53833e-07
4.38529e-07
1.80862e-08
2.83526e-08
7.871e-07
2.81426e-08
7.51789e-09
8.17289e-09
1.3564e-06
7.15051e-08
7.35711e-09
0.00254234
1.69778e-09
6.03793e-08
1.87587e-08
2.81899e-08
6.48086e-09
3.91437e-10
0.000761135
1.88247e-08
3.10987e-09
0.00193673
1.91339e-08
2.39569e-08
0.00316677
2.93659e-08
3.34665e-07
5.68229e-09
2.00153e-08
2.4342e-08
0.000825856
3.06966e-08
0.00220051
1.82761e-07
1.98683e-07
3.67355e-08
0.00533112
0.000295018
4.57183e-09
5.44871e-09
9.9224e-07
1.43915e-09
1.11817e-08
8.49343e-09
0.00167349
1.17207e-09
2.28698e-09
8.14088e-09
2.46982e-09
3.57553e-08
2.36371e-08
7.51493e-09
0.000429218
0.00219285
0.000466221
6.30257e-08
0.00314135
0.00256323
5.59342e-08
1.75461e-09
0.00183297
6.43818e-06
0.00154629
0.00208224
0.00203135
3.32419e-09
5.88629e-08
0.00237838
1.94811e-07
3.36631e-08
1.88155e-07
2.64491e-08
0.000443768
2.08555e-08
0.00053842
1.68701e-05
2.57501e-08
0.00196161
2.00278e-08
0.000608733
6.88354e-09
1.73309e-08
1.17337e-09
4.00004e-08
0.00153624
0.00364924
1.29171e-09
0.000395621
0.00188714
0.00135368
0.00278153
5.65704e-10
1.01221e-08
1.1782e-09
0.00355337
7.74095e-10
1.2964e-07
0.00355948
5.33675e-09
0.00346985
0.0035146
0.00366744
1.55595e-08
5.72347e-08
4.6341e-08
8.7962e-09
1.11041e-08
6.1348e-08
1.26669e-08
5.09761e-09
0.000475228
4.11401e-09
3.7111e-08
2.75943e-07
5.2738e-10
0.00162323
2.92278e-08
4.60268e-09
6.66997e-08
2.68959e-10
6.99372e-08
3.90389e-09
2.03351e-07
0.00306614
3.15779e-05
8.92649e-10
1.5651e-08
0.00210094
0.00314933
1.78232e-07
0.000760317
1.01024e-08
7.81862e-09
0.00257371
2.20895e-08
0.00322076
0.000542244
1.04746e-09
7.40048e-08
0.000765798
1.71328e-08
2.49738e-08
0.00250178
6.32273e-09
1.36943e-08
3.11668e-09
0.000534603
3.15206e-06
0.00193135
1.82967e-07
9.36152e-09
0.00175018
1.29963e-07
2.56697e-10
5.94251e-06
2.1916e-09
7.23174e-07
0.00129386
2.75835e-09
9.51247e-10
1.13559e-08
5.8585e-09
1.54757e-08
5.82959e-09
1.26087e-08
1.0002e-06
9.47867e-10
1.24806e-09
0.00169855
4.65624e-09
5.47741e-06
2.92961e-08
4.76521e-06
1.32511e-06
1.16943e-06
5.34812e-06
1.25704e-06
5.35109e-09
1.65806e-08
0.00100309
2.59148e-06
2.48857e-08
2.25624e-08
2.4881e-08
0.00044909
1.37008e-06
7.90652e-08
2.28914e-07
3.43543e-09
0.00226252
4.73465e-09
1.22701e-08
2.08676e-08
1.18557e-08
2.9918e-08
0.00212627
5.59048e-08
2.40614e-08
1.86703e-08
4.77252e-09
0.000477735
2.2721e-09
5.19462e-09
3.33498e-08
2.5806e-10
1.42516e-09
6.14503e-09
9.36118e-09
1.37663e-08
0.000333497
1.14169e-08
1.31691e-08
2.50623e-09
2.0098e-08
1.24575e-08
1.00954e-08
5.84645e-08
0.000380629
0.00242468
1.54364e-08
7.86426e-09
0.00284483
1.66224e-09
4.30265e-05
0.00203003
4.95929e-09
7.11308e-07
1.53016e-06
0.00186516
2.20538e-08
3.18594e-08
2.17555e-07
1.73929e-05
8.68449e-07
2.14335e-07
1.40134e-09
3.72283e-09
4.2735e-07
1.09075e-07
5.97662e-09
1.54975e-09
1.28367e-08
7.55879e-09
3.02264e-06
0.0012939
6.41159e-08
3.55752e-08
5.1066e-08
0.00264619
0.00244622
9.34362e-07
1.51421e-08
3.28375e-08
4.01519e-08
4.4775e-09
2.8935e-09
1.81489e-07
4.22076e-09
3.45792e-08
2.01468e-09
1.28174e-08
2.26791e-08
3.32577e-09
4.14261e-07
2.80645e-09
0.00043443
9.50369e-08
0.003948
0.00165205
1.12392e-07
2.13943e-08
0.0005797
0.000345168
2.77986e-08
2.34294e-08
9.31249e-06
2.31457e-09
1.88067e-09
2.35123e-08
1.73795e-08
0.000781456
0.000646987
9.57398e-09
1.18128e-08
7.69352e-09
3.33322e-07
5.06328e-08
0.00267067
0.000496404
1.5455e-08
0.000238787
7.02651e-09
0.000315461
0.000227691
0.00022358
2.82182e-08
1.06185e-07
1.75799e-09
1.01732e-07
2.53914e-08
0.00240354
4.88234e-09
4.13115e-08
6.83416e-09
7.70381e-08
2.2738e-05
0.00194489
0.00227797
2.24996e-08
2.97598e-08
0.000377616
3.99668e-08
1.04041e-06
1.05055e-08
0.00304784
4.07048e-08
2.25939e-08
8.53071e-06
0.00262292
6.84249e-08
2.2796e-08
0.00131291
2.01332e-08
4.65163e-10
1.39338e-09
4.45188e-09
3.17014e-08
1.32774e-08
6.14548e-10
2.24027e-08
3.6978e-08
1.13469e-08
6.06385e-08
1.79856e-08
5.51967e-07
0.00191144
2.84632e-09
1.57744e-08
5.63894e-08
0.0020006
8.70213e-07
2.01187e-08
0.00037493
2.87902e-09
2.25159e-07
1.46437e-07
0.000983776
3.59339e-07
3.21618e-10
1.22098e-07
1.40331e-08
1.22671e-07
5.05787e-08
2.93483e-09
1.49321e-07
6.88379e-09
8.69923e-08
8.28111e-10
0.000584269
5.01428e-08
0.00207399
1.32719e-09
6.32535e-08
2.14906e-06
1.07372e-08
4.34458e-06
4.788e-09
6.51424e-10
2.46562e-07
4.18436e-08
4.85093e-09
1.74303e-05
6.10896e-08
7.41887e-08
0.000547248
2.9926e-09
0.000563698
3.16041e-08
2.26163e-09
7.75177e-09
5.78617e-09
1.98451e-08
3.9026e-07
3.13485e-07
1.50199e-07
0.00237867
2.18168e-07
0.00393252
0.00209534
0.00329154
8.49927e-08
2.2031e-07
0.00143512
3.83074e-09
2.49015e-08
2.97919e-08
0.00237
9.80143e-09
0.000635586
0.000492206
2.77248e-09
0.00262586
5.0544e-06
0.00263981
1.88952e-08
0.00249641
5.59416e-08
0.000340254
1.66671e-09
3.90632e-09
4.27073e-08
0.000746734
7.79943e-07
4.15309e-10
2.69079e-08
6.35407e-10
0.000532964
0.00031361
5.70163e-08
0.00190923
4.56443e-07
0.000544715
3.19258e-08
5.58697e-10
6.36587e-09
2.60857e-09
8.93841e-08
2.03768e-05
5.68766e-09
1.3386e-06
4.44366e-08
4.21287e-08
4.66118e-09
9.87657e-05
2.24325e-07
1.86563e-09
6.45194e-09
0.000432447
1.10299e-06
7.71463e-08
0.00152076
1.7721e-06
1.48667e-06
7.42249e-09
8.42261e-09
3.91175e-09
0.000681596
2.67834e-08
5.44255e-09
1.49444e-08
3.64192e-07
9.96349e-07
2.0546e-07
1.82119e-09
3.2197e-06
6.7253e-07
7.46627e-09
5.97354e-09
5.51588e-06
2.52081e-09
5.1425e-09
0.0023871
0.00220924
6.16989e-08
4.51201e-09
1.15139e-09
3.33737e-08
0.00192941
2.59319e-07
1.3609e-06
5.49406e-10
5.50424e-07
3.25871e-08
0.00112028
0.000444876
6.58756e-07
2.36529e-08
3.45376e-06
5.27074e-07
0.000100657
2.23168e-09
1.83191e-08
0.00118821
2.55402e-08
7.79193e-07
5.89359e-07
2.01812e-06
1.22203e-06
1.17001e-08
0.00162261
1.30903e-05
2.47178e-09
1.20933e-08
4.67653e-09
0.000427675
0.000113577
1.87475e-08
0.000637651
1.22892e-07
7.26359e-05
0.00282734
0.000398953
0.00281974
0.00183705
0.00221777
4.51955e-10
2.77816e-06
8.39803e-08
3.47741e-06
1.5009e-05
2.212e-06
2.02082e-09
3.97454e-07
1.47904e-08
3.20257e-07
0.000761567
2.86364e-07
8.98071e-10
0.00178454
1.39269e-07
0.000207825
1.83413e-07
4.11125e-07
4.74508e-09
3.87596e-07
2.12127e-07
0.00151227
2.09598e-07
3.56446e-08
1.50272e-07
2.60214e-05
0.00129741
0.0013139
0.00294032
4.94754e-09
0.000502804
0.00149669
0.00175309
0.00149451
2.32954e-07
0.0021739
2.68507e-07
4.71087e-09
5.36549e-09
6.43364e-09
0.00147151
0.0017686
5.58379e-09
1.46855e-08
8.38061e-09
4.08781e-07
0.000298094
0.00368257
0.00135432
8.22011e-08
0.00247918
8.26386e-10
3.61935e-08
0.00108921
0.000804553
5.33183e-09
2.79284e-06
1.21676e-08
6.34861e-09
0.00351987
6.36472e-09
0.000423313
1.16754e-09
0.00037871
0.000405411
0.000581334
0.00190933
3.24529e-07
0.00161662
1.2676e-08
1.1772e-05
0.000460523
0.00124703
0.00220781
0.00109664
7.5414e-09
0.00124441
9.02717e-09
1.59598e-08
0.00292733
1.64012e-07
6.67786e-06
5.66456e-08
5.22048e-08
0.000573393
1.43528e-06
3.32525e-09
1.49282e-07
4.3827e-07
0.000403272
0.00219852
2.72745e-07
7.60404e-09
0.000614678
1.86485e-08
1.56907e-08
5.11605e-08
6.04193e-07
0.00214197
3.88433e-09
0.00241703
8.43599e-10
0.00025611
0.00433602
8.69319e-09
3.02635e-06
0.00242905
4.99405e-05
5.17076e-06
2.46978e-09
0.00177882
0.0027788
5.08205e-10
0.000489118
8.26909e-07
0.000618779
1.49052e-08
8.4963e-07
5.11724e-07
3.52542e-08
7.70159e-11
0.000345769
0.00131389
6.41576e-09
1.16511e-09
0.00218166
1.11161e-08
2.20608e-09
3.73834e-08
1.87679e-09
7.8738e-08
0.00354115
0.0020941
2.6601e-08
5.44972e-10
0.00221161
1.99035e-07
0.00270357
2.79221e-09
1.91342e-06
4.58424e-08
7.43e-09
2.75209e-09
1.0775e-08
0.00333617
5.03235e-09
2.80061e-07
0.000274719
0.00237605
0.000453094
1.37878e-08
1.17364e-06
2.56834e-09
0.00022919
0.00228074
8.70272e-10
3.74421e-09
3.97943e-08
3.30973e-08
0.00050253
2.61969e-07
0.000529725
1.92192e-07
6.70953e-09
5.88106e-11
4.98279e-08
0.000221078
0.000394062
5.42545e-09
0.00384294
0.00245682
8.92963e-09
3.09846e-10
3.795e-09
7.35013e-09
3.80795e-09
1.53954e-08
0.002752
0.000620086
0.00051408
7.76247e-05
0.000348263
0.00038168
2.74992e-09
4.27162e-08
1.48831e-09
3.08252e-08
1.89295e-08
0.00234572
1.07509e-08
4.93884e-09
0.00111863
1.90295e-08
7.64124e-08
8.81813e-08
1.65174e-09
8.41423e-08
3.46504e-08
0.00219889
5.16827e-09
1.44405e-08
4.18052e-09
1.58358e-08
2.10461e-08
0.00375556
4.52677e-07
1.1265e-07
7.32107e-08
1.05795e-09
4.51514e-05
1.24479e-06
3.24524e-09
5.78383e-07
1.26488e-05
1.01721e-08
1.12525e-08
1.03065e-05
3.15321e-06
2.50358e-07
0.00304088
3.86746e-09
3.96721e-07
1.47594e-06
0.00282688
2.24524e-07
4.34663e-10
1.92121e-06
1.57054e-05
3.42221e-07
1.00265e-08
1.70654e-07
4.57187e-08
6.62411e-08
1.99285e-08
3.31499e-08
0.0018415
2.14535e-09
1.18159e-08
1.10076e-08
6.94617e-10
4.61048e-09
9.38506e-10
0.00421526
1.25578e-07
1.94074e-09
3.31127e-09
3.07552e-09
1.08766e-09
4.98605e-08
5.12708e-09
2.81334e-09
5.38496e-08
1.33825e-08
0.00220949
3.06511e-09
0.000384421
3.48215e-08
1.1713e-07
1.79181e-08
1.2132e-06
1.01845e-09
0.0031576
9.46399e-09
0.00178984
2.97979e-07
4.01739e-08
1.34698e-08
1.83113e-06
2.74686e-09
3.62496e-09
2.93736e-09
0.000259145
0.000626649
0.00213651
1.00931e-07
1.58012e-07
0.00227911
1.72255e-06
3.3754e-09
1.37559e-08
2.87362e-07
1.03297e-08
0.00411986
2.81171e-06
0.00307947
2.7038e-08
7.6727e-09
0.00158913
0.00144431
0.00174765
1.66298e-08
1.47576e-06
0.00186865
1.6744e-09
1.22926e-05
1.51512e-07
0.00177478
0.000459342
1.81422e-07
0.00230819
2.04363e-05
6.19137e-07
0.00205363
0.00216972
1.91861e-08
0.00237783
0.00300976
0.00180855
2.49394e-08
4.43832e-09
6.11794e-09
7.9677e-10
2.82585e-09
0.00162993
0.00275212
0.00182472
2.58134e-09
0.00303312
2.73474e-09
0.00228099
0.00249136
5.76585e-09
3.67628e-08
0.00165396
2.45884e-08
1.3379e-08
3.22142e-07
4.56689e-10
0.00256032
0.00199029
8.28425e-07
0.00163453
3.95489e-09
3.04282e-09
7.10439e-09
3.32516e-08
6.7065e-08
3.13266e-07
1.22316e-09
5.582e-09
1.41912e-08
8.11081e-09
6.19963e-09
1.0441e-07
3.7232e-10
2.30508e-08
2.11124e-06
1.15486e-08
3.44083e-08
2.75113e-09
1.19568e-07
1.56532e-09
5.17671e-09
2.22286e-07
1.55853e-09
3.02987e-09
0.00188087
3.4582e-08
5.19571e-09
6.52792e-07
3.12599e-09
1.47355e-08
4.81252e-08
0.00185708
9.28137e-08
0.00220808
0.00148587
1.74257e-08
2.07121e-08
5.79094e-08
6.58596e-09
0.00157706
4.94639e-08
2.23987e-07
3.66245e-07
2.9057e-08
0.00235741
0.00149677
1.88202e-09
3.12441e-09
6.98404e-09
6.37755e-08
5.89999e-08
7.42565e-09
4.16163e-07
5.30965e-09
1.49214e-06
2.4916e-09
1.5398e-09
6.29616e-09
1.55506e-08
2.33074e-07
7.91688e-09
1.88954e-08
0.00429573
0.00144844
0.00257012
0.00155371
1.48955e-06
1.21102e-08
0.00201318
6.94832e-07
6.75047e-09
0.000410058
1.32191e-09
1.44581e-07
0.00235102
4.41412e-08
1.24468e-07
2.30307e-08
4.28788e-08
0.0013999
8.21808e-09
9.37481e-10
2.03722e-07
2.5928e-09
4.68567e-07
5.96117e-06
6.68049e-08
0.00211102
4.18904e-08
0.000460426
2.54293e-07
0.0020989
3.86829e-10
4.99461e-09
2.6795e-07
3.92853e-09
0.00183881
3.83336e-07
0.000518466
1.49303e-07
1.8329e-07
1.33891e-07
2.65656e-08
8.53278e-09
4.94134e-08
3.01123e-06
4.00805e-08
2.5931e-06
0.00324754
5.30414e-08
0.00421534
5.63195e-09
2.44924e-09
4.59601e-06
0.00186432
1.40905e-08
1.31915e-09
9.01165e-07
5.66473e-08
3.36621e-08
0.00233965
1.34644e-08
6.13114e-07
0.00262082
1.35868e-09
8.14057e-09
4.18063e-07
9.71562e-10
8.15697e-09
0.00253087
5.31637e-09
0.00276767
2.31514e-08
2.15641e-07
3.93244e-08
0.000894194
5.99281e-08
2.79996e-08
1.48702e-07
0.00253483
1.58855e-06
1.25981e-08
9.27335e-09
1.24808e-07
0.00207275
3.44838e-09
5.19705e-08
6.30867e-08
1.59977e-06
0.00252798
0.000270107
0.00119084
1.74806e-08
0.000358055
1.31528e-08
8.9441e-07
0.000789176
1.15997e-08
0.000880364
3.2936e-06
4.85827e-09
2.63802e-09
1.20827e-08
0.00253347
1.52125e-08
2.43538e-09
2.59505e-07
1.12232e-08
5.63155e-09
0.000301418
2.74333e-09
4.48285e-08
0.00242972
1.26689e-06
4.52233e-09
0.00203793
3.25919e-06
6.51958e-09
1.38645e-08
1.20155e-05
4.31005e-08
2.23587e-07
1.67795e-08
4.14683e-08
6.09349e-08
4.75114e-06
0.00109764
4.84116e-08
0.00248239
1.51297e-08
3.80067e-08
0.00271655
3.04101e-08
7.83803e-08
9.53628e-09
1.29794e-07
0.00237011
3.00527e-08
2.12888e-08
0.00163501
5.79898e-09
0.00266886
1.40171e-09
7.97895e-09
1.03131e-09
1.00886e-08
0.00151679
5.41213e-08
1.40689e-09
2.5736e-09
1.43593e-08
5.28559e-08
0.0025505
4.77704e-09
4.62013e-09
1.89266e-09
1.54865e-07
5.30684e-06
5.03008e-09
0.00156986
3.50855e-08
9.86433e-09
6.28343e-09
5.11912e-08
0.000429641
6.49676e-07
1.62425e-10
1.00374e-09
0.00182618
0.0021701
6.14563e-08
3.88202e-09
0.00183575
1.62074e-08
9.04325e-10
0.00356051
9.0675e-09
0.00275319
2.89713e-07
1.75063e-08
2.01549e-08
9.7732e-09
9.53771e-09
4.44834e-09
3.04106e-05
7.4609e-07
2.27049e-09
3.98482e-08
5.5517e-08
5.32679e-09
0.00257877
8.70033e-09
1.33303e-08
0.00197404
2.62609e-08
3.59263e-08
2.96095e-10
0.00228712
2.82653e-08
1.34218e-07
3.28479e-09
3.70035e-08
4.05048e-09
0.00233763
5.92154e-09
7.14321e-09
0.000613793
1.07516e-08
7.11003e-09
0.00233157
6.53573e-08
3.85667e-10
3.15127e-08
5.93012e-09
0.00188361
4.41638e-07
6.0115e-08
3.46323e-09
4.02525e-07
1.41547e-07
8.67622e-09
1.35303e-09
1.03155e-09
3.40913e-08
1.05125e-08
8.68546e-10
7.74447e-09
7.18406e-09
1.14425e-08
0.00231615
6.96418e-07
1.47778e-08
2.04705e-09
9.40509e-10
0.00219977
1.94285e-08
0.00327815
9.3379e-07
0.00158579
7.65141e-10
0.00215253
0.00292639
8.43145e-09
9.41821e-09
8.97114e-08
0.00210512
0.00251636
3.06931e-07
7.94021e-09
2.49506e-07
1.05263e-09
2.2107e-07
8.80863e-09
9.43567e-08
1.66802e-08
1.46526e-09
3.83216e-09
8.49846e-10
6.19488e-09
9.1855e-09
3.7945e-09
5.08043e-09
1.52609e-08
9.02326e-08
2.63207e-11
3.36379e-09
7.4756e-10
5.67531e-09
1.51673e-09
1.7337e-07
0.00189959
0.00279693
4.52119e-09
0.0022257
1.39815e-08
3.0685e-09
4.48881e-09
1.64726e-06
1.79949e-07
7.17549e-08
9.9436e-10
1.10423e-08
2.14391e-09
7.92777e-09
1.60044e-09
1.28384e-08
1.41417e-07
0.00158848
2.44517e-09
2.12191e-08
0.00140353
0.00178429
0.00219801
0.00206378
0.00176514
4.65291e-08
3.77806e-08
2.8829e-09
7.90016e-09
7.60958e-09
1.34113e-06
3.93756e-09
2.92156e-08
3.41206e-08
7.18221e-09
2.22086e-09
2.6669e-09
7.43494e-07
3.15506e-06
3.98225e-07
5.97533e-09
1.67219e-09
3.25197e-09
0.00284198
2.53552e-09
0.0018527
1.09143e-07
8.78231e-09
7.52635e-07
0.00105424
6.75799e-08
4.02519e-10
3.76254e-09
3.2054e-08
1.50577e-09
2.36311e-08
8.23103e-10
0.00110406
3.4528e-10
4.18227e-08
0.00284407
2.92858e-09
0.0013304
5.86773e-08
0.00216661
1.00652e-07
0.00121969
3.55316e-10
0.00289515
0.00232083
2.75795e-08
4.26398e-09
0.00158366
1.95843e-08
0.00186935
1.68216e-08
7.78788e-09
5.09878e-10
1.6696e-08
2.04547e-08
1.50058e-08
6.36753e-07
0.00292307
0.00166185
1.226e-06
3.73706e-09
3.46905e-07
0.00305629
0.00136142
0.00236577
0.00234394
5.31545e-09
6.07598e-08
2.74303e-08
1.24991e-08
0.00303577
6.53871e-09
0.00148776
0.00321501
5.50401e-09
3.1179e-09
0.00160518
0.00302785
2.82234e-08
9.13734e-10
0.00169036
8.92837e-08
2.54615e-09
4.67515e-07
9.58494e-08
0.000406673
7.14196e-08
5.65775e-08
2.47214e-07
2.69313e-07
9.07611e-08
3.91752e-09
4.85359e-09
1.06277e-08
2.03205e-09
2.05233e-08
8.6846e-09
1.76595e-10
2.27856e-09
0.00200649
0.00284307
3.41784e-10
2.54309e-08
6.66298e-09
2.77564e-09
4.81847e-07
1.94758e-08
2.36858e-09
0.00270668
0.00150584
0.00144878
0.00162326
4.88968e-08
0.00136161
2.54911e-07
0.00376671
7.33197e-10
0.00227616
2.72628e-08
3.63707e-08
1.55414e-07
6.05972e-10
0.00294106
1.85593e-07
0.00423632
5.92468e-09
9.40347e-10
9.0833e-09
8.9678e-09
0.00133979
0.00286832
1.38896e-10
3.42863e-09
2.43804e-08
0.00167429
4.15189e-09
0.00280299
3.40415e-07
1.91238e-09
5.75717e-09
0.00241512
3.5175e-08
0.00213601
8.20902e-08
0.0038302
0.00319964
7.75315e-08
3.69829e-09
0.00352897
8.63468e-09
8.5228e-07
0.000344637
1.56942e-08
1.38722e-07
2.29358e-08
8.85577e-09
0.00300984
3.9272e-09
7.38397e-08
3.87963e-10
7.03661e-08
4.20648e-09
5.34029e-09
1.51511e-08
1.00824e-08
1.7157e-08
0.00294981
2.13461e-08
2.76928e-08
4.73655e-09
1.42849e-08
8.91803e-09
9.52047e-09
1.16092e-08
0.00217428
8.62848e-09
0.00293678
0.00189544
4.90857e-09
0.000360671
2.94785e-09
3.31823e-09
2.61582e-08
3.47412e-08
3.01426e-08
0.00152604
0.00202692
1.10318e-07
1.03624e-07
8.27539e-08
0.0030549
0.00110991
4.82123e-08
0.00216303
0.00439088
1.26772e-06
0.00258994
0.000410464
6.3972e-09
7.8081e-07
2.51587e-08
0.000563894
6.76163e-10
0.00252477
3.31045e-10
2.31551e-09
0.000636468
0.000341711
1.93213e-08
0.000460465
4.24973e-08
1.04526e-07
2.58085e-08
2.67228e-09
3.95221e-07
2.8644e-09
4.86765e-09
0.0024308
1.32442e-08
1.3885e-08
4.19218e-09
1.22005e-07
1.65819e-09
4.58978e-05
2.97824e-08
2.03214e-08
7.92124e-08
1.64092e-07
0.00029709
0.00227202
4.17897e-08
6.9082e-09
0.00236628
0.00234075
3.70048e-08
2.28436e-08
1.24671e-08
3.15283e-09
3.06235e-08
1.10402e-08
0.00200157
0.00433465
6.11066e-09
2.05055e-09
3.83117e-09
6.05822e-09
0.00246894
0.000394483
1.73774e-09
1.80952e-08
1.53296e-08
0.00211932
1.05172e-05
1.09007e-06
0.00194328
2.4961e-08
2.50571e-08
4.86926e-09
4.11812e-08
2.52938e-08
0.00220472
5.2776e-08
0.000310629
5.52319e-09
6.26553e-09
0.00320553
0.00260272
7.56268e-09
0.00306982
1.07911e-09
1.47334e-09
4.53008e-07
4.971e-09
3.57477e-09
0.00179301
2.66945e-08
1.23906e-07
0.00385199
1.39468e-08
0.00155101
0.00300651
1.56492e-08
0.00319274
1.44002e-08
1.27571e-08
1.78715e-08
1.87107e-07
9.88277e-09
4.63673e-08
5.97148e-09
2.45064e-08
4.79689e-07
1.95922e-08
0.00232322
6.34881e-09
0.00301319
8.46684e-10
1.14742e-08
5.33139e-09
0.00231036
8.47848e-09
0.00223805
0.00192338
0.00309697
1.57122e-08
0.00209381
1.44613e-07
2.15389e-08
3.14194e-09
7.89794e-09
1.27175e-08
7.62944e-08
1.42177e-07
2.84727e-07
3.42361e-09
0.00282192
3.1981e-08
1.17019e-09
8.91913e-10
4.49985e-09
7.04747e-10
0.00200403
3.5783e-08
0.00294228
2.70008e-08
0.00062495
3.59899e-09
3.6408e-09
0.00176861
0.00346532
6.65843e-08
3.73526e-09
0.00375553
1.56905e-08
1.03126e-09
3.32681e-09
1.32487e-08
6.40594e-10
1.37407e-08
1.47786e-09
1.40858e-08
2.85174e-09
5.93749e-08
2.70187e-08
0.00246201
5.49239e-07
1.01873e-07
1.12177e-08
4.63804e-09
0.00208834
1.39783e-08
0.00298226
4.1355e-08
2.81023e-08
6.63858e-09
6.23453e-09
7.95729e-08
7.41734e-07
0.00129733
0.00121776
7.99066e-09
0.00369085
2.41588e-08
0.00276898
9.04371e-09
1.31346e-08
2.94635e-09
0.00259958
0.00127754
0.000427409
4.44649e-08
2.03047e-09
0.0012897
5.29292e-09
3.3269e-09
9.00215e-09
5.34018e-09
0.00237149
0.00202096
1.78848e-08
3.15075e-08
5.16017e-08
3.89612e-09
3.24316e-06
1.80921e-06
6.21023e-09
2.43716e-08
0.00157766
8.76007e-09
3.11665e-08
1.09093e-09
2.99987e-08
4.49064e-09
0.00226811
4.55806e-09