/*--------------------------------*- C++ -*----------------------------------*\
  =========                 |
  \\      /  F ield         | OpenFOAM: The Open Source CFD Toolbox
   \\    /   O peration     | Website:  https://openfoam.org
    \\  /    A nd           | Version:  10
     \\/     M anipulation  |
\*---------------------------------------------------------------------------*/
FoamFile
{
    format      ascii;
    class       volScalarField;
    location    "78";
    object      T;
}
// * * * * * * * * * * * * * * * * * * * * * * * * * * * * * * * * * * * * * //

dimensions      [0 0 0 1 0 0 0];

internalField   nonuniform List<scalar> 
59698
(
286.604
292.868
293.306
293.543
299.957
283.15
292.537
293.495
303.15
303.15
303.15
293.178
283.15
293.767
300.137
303.15
294.065
293.448
293.175
293.808
303.28
302.131
303.148
303.15
295.686
293.447
293.103
298.353
295.705
295.346
300.29
303.15
303.15
298.826
302.373
293.265
283.379
283.463
293.444
297.535
296.221
283.15
296.563
293.85
283.15
296.589
293.303
295.263
294.648
293.577
293.061
293.34
292.348
294.54
294.392
293.195
294.279
302.176
294.241
282.978
291.241
294.297
299.616
293.203
286.797
294.462
303.15
293.177
293.175
303.15
283.15
293.777
283.135
298.531
283.15
297.775
294.54
287.694
291.646
294.15
299.955
292.577
303.15
293.441
303.701
294.508
294.185
293.555
298.875
293.881
303.15
294.739
298.98
293.541
293.77
293.513
299.055
293.521
298.903
283.15
299.106
283.127
285.916
284.498
293.37
283.15
293.469
293.133
303.15
283.15
293.402
293.656
298.86
283.15
293.421
293.235
293.409
293.421
293.441
303.15
293.252
292.837
293.44
293.294
293.377
293.246
295.479
303.15
293.382
292.888
287.508
292.983
303.15
292.764
290.222
291.66
292.896
303.15
293.123
293.464
293.464
293.766
290.848
292.125
292.907
293.58
293.38
293.386
293.45
301.183
283.138
303.15
288.085
293.269
294.056
293.369
293.308
293.475
296.967
283.15
289.679
293.438
290.763
299.553
297.821
296.703
292.906
280.913
299.359
292.194
300.375
283.151
300.943
301.009
285.529
292.809
303.15
283.236
303.15
298.941
302.766
300.418
298.651
293.24
298.702
300.856
300.767
293.859
292.993
294.718
294.358
293.667
296.592
297.453
299.393
293.591
293.928
296.597
303.155
299.388
283.15
284.147
292.454
292.8
299.302
290.943
297.346
295.414
293.594
298.046
293.134
293.707
299.128
303.15
294.872
293.455
293.279
294.061
297.846
296.019
282.052
296.327
292.639
299.29
295.269
299.343
295.826
291.351
295.659
284.998
283.15
296.156
295.169
295.83
293.43
294.815
295.994
293.74
293.565
295.002
293.236
293.986
289.94
303.15
294.636
293.582
282.927
285.584
293.628
293.301
293.828
294.944
295.147
303.15
293.591
294.753
294.119
295.306
292.851
293.302
303.12
283.15
294.454
294.34
294.822
295.342
292.667
303.15
293.473
293.291
293.325
286.645
303.101
293.308
287.32
293.709
292.904
293.633
293.968
303.15
303.15
292.903
293.335
289.066
295.127
290.7
292.95
303.15
286.005
294.61
301.404
291.293
293.397
293.415
294.888
293.604
292.717
293.624
295.101
292.673
291.441
283.15
283.15
292.613
293.236
293.2
287.833
293.657
294.631
293.058
293.117
293.317
293.371
283.15
293.714
292.677
283.15
293.724
283.15
293.587
293.873
293.4
293.999
303.15
298.3
286.252
294.105
293.712
292.433
283.15
300.179
290.667
298.879
281.565
303.15
293.803
293.695
292.555
298.463
293.845
295.129
295.547
292.633
294.982
298.952
293.306
295.603
301.428
293.729
289.167
292.819
293.044
301.358
303.15
284.193
300.752
302.091
293.327
293.637
303.15
293.301
293.849
303.15
295.006
283.15
283.15
293.552
290.469
293.543
282.756
292.667
283.15
292.739
283.15
296.426
303.15
293.54
292.914
283.15
303.15
283.15
292.713
293.304
293.512
293.506
283.148
293.503
283.15
283.15
293.409
293.818
303.15
294.605
290.722
303.133
301.991
301.778
293.519
292.671
292.794
288.504
295.721
292.732
293.362
293.549
293.484
295.966
293.292
295.673
302.255
297.903
303.15
295.279
303.15
293.441
289.808
292.981
283.575
302.298
302.832
294.384
293.422
290.792
282.002
293.368
293.327
303.15
294.394
293.273
283.15
295.498
302.787
285.305
291.841
287.575
303.15
303.15
298.663
292.866
291.934
283.15
292.19
303.15
293.651
293.149
302.914
294.864
283.15
293.463
299.203
292.737
293.296
294.104
286.321
294.008
293.625
290.661
303.15
284.309
293.324
290.073
293.389
283.965
293.92
303.15
293.569
293.406
291.899
294.113
294.985
295.101
283.15
283.15
283.15
294.051
293.141
302.758
292.139
293.7
294.019
293.381
293.598
293.38
283.15
300.937
293.368
293.505
293.384
291.949
292.87
299.059
290.509
291.376
293.475
292.087
293.489
293.436
293.507
289.593
283.15
283.15
295.188
299.056
294.676
283.15
303.15
293.342
303.15
293.358
290.287
294.702
290.695
283.15
283.15
291.633
293.352
283.15
293.388
283.15
283.15
289.563
293.96
293.395
283.15
283.15
302.994
294.941
292.607
289.847
288.755
293.263
301.441
303.15
293.427
293.559
283.15
283.15
286.365
293.393
303.15
290.009
292.983
293.115
281.269
289.378
291.838
282.233
283.132
290.837
283.147
293.352
303.15
293.475
303.15
292.889
293.312
283.15
295.584
291.513
291.835
283.15
303.15
293.499
283.123
293.321
303.15
286.365
293.342
291.21
303.15
292.075
293.455
283.15
291.906
290.96
293.528
293.093
292.276
295.524
303.15
283.15
293.565
285.259
293.206
292.367
283.15
292.431
293.184
289.715
291.653
291.959
296.413
293.078
293.122
283.15
293.37
303.15
282.782
283.15
283.15
290.93
290.973
283.15
293.46
291.042
291.616
292.895
283.15
291.077
293.318
293.296
292.536
293.302
292.113
291.114
291.145
293.267
297.85
285.618
293.263
283.15
291.152
291.923
302.959
295.262
293.734
290.923
292.23
292.02
292.079
295.601
283.15
293.222
291.362
293.063
292.148
292.08
293.252
293.2
286.956
293.495
292.773
283.15
303.15
292.039
294.05
292.803
293.72
293.658
283.15
283.15
293.17
288.568
291.778
291.998
293.251
293.018
303.147
293.601
292.388
293.668
293.391
290.992
283.798
301.814
291.643
293.688
293.772
291.801
288.92
283.15
293.522
292.812
293.535
292.862
291.679
283.15
295.324
293.214
292.88
292.428
293.517
283.15
283.15
291.898
293.009
291.899
292.953
291.992
295.75
290.798
297.169
293.963
291.727
290.813
293.62
293.625
292.59
283.15
292.869
283.15
283.15
292.548
291.772
293.24
303.15
296.515
293.124
292.092
283.15
293.672
283.15
293.754
283.15
293.442
297.639
289.342
293.162
303.15
283.15
297.877
297.944
293.191
292.059
295.604
297.213
295.559
283.15
296.215
293.304
282.862
283.15
290.524
300.328
283.15
291.117
292.814
303.15
297.634
287.95
293.091
293.823
283.266
297.043
294.591
294.531
283.595
283.448
292.466
286.007
293.061
296.884
293.74
298.109
283.15
292.92
290.279
295.065
303.15
293.417
296.891
283.15
298.221
295.934
292.317
293.862
296.739
293.148
283.15
294.931
294.561
283.15
283.15
292.343
283.15
289.443
293.559
292.409
294.533
294.551
297.449
283.15
293.684
290.455
294.876
295.289
295.321
283.15
284.362
298.846
293.573
288.637
297.669
301.061
293.496
302.766
283.15
283.15
283.15
292.667
292.765
283.15
292.553
293.574
298.051
283.164
292.523
291.712
283.15
282.348
283.15
283.15
292.575
283.15
303.103
298.494
303.15
292.55
284.568
288.619
292.545
282.178
293.472
283.227
283.15
283.15
291.275
294.729
296.694
283.15
295.8
292.658
292.671
283.15
292.656
292.684
283.162
283.15
283.132
283.173
303.15
283.15
283.15
283.15
283.15
291.191
292.951
291.046
283.15
294.639
293.275
283.15
285.384
283.15
292.754
283.15
299.431
295.184
291.976
292.586
292.759
295.886
303.15
295.877
292.893
283.15
292.6
283.149
293.311
283.15
292.046
283.15
284.113
283.15
290.386
283.15
293.503
291.774
294.916
292.689
291.904
292.716
292.103
283.15
283.15
292.71
293.545
293.046
293.216
283.15
294.324
296.327
296.013
283.15
294.118
295.069
293.418
296.75
303.15
283.15
295.896
292.367
283.15
292.945
293.416
283.15
295.892
292.792
293.138
293.585
283.15
293.261
293.339
283.15
303.15
293.039
292.954
292.888
295.899
297.65
294.002
296.683
290.214
294.988
295.615
293.564
291.429
290.736
286.604
292.124
283.15
289.768
283.15
296.569
295.752
291.92
290.298
283.15
283.15
297.546
291.278
290.051
296.13
296.761
293.397
295.393
285.342
294.019
293.186
293.36
283.15
293.379
292.94
293.24
293.064
293.291
293.395
303.15
293.34
293.499
294.491
303.15
293.563
296.663
294.178
293.519
293.859
294.466
295.682
292.888
303.15
303.15
283.15
295.552
283.15
293.572
291.471
302.708
298.555
293.047
295.018
302.159
297.86
294.93
295.85
293.719
293.132
295.691
293.882
290.648
287.763
294.116
283.15
293.135
303.15
283.168
294.721
300.401
294.706
303.15
303.15
292.73
293.395
294.907
292.727
293.006
292.626
283.15
293.741
293.22
298.379
283.15
294.56
295.253
302.804
293.053
293.698
302.8
293.208
293.537
302.808
292.739
294.562
295.188
296.449
295.369
296.001
295.215
293.479
292.908
303.15
295.49
296.54
293.256
283.15
293.209
297.706
293.095
293.63
293.127
295.362
292.794
287.745
294.508
290.988
292.827
303.15
293.571
288.107
283.15
303.15
294.047
294.205
295.991
294.326
289.343
303.15
303.15
293.1
283.15
295.023
294.444
294.315
294.431
293.951
303.15
303.15
284.108
294.32
295.125
303.15
294.082
296.144
303.15
282.445
292.914
283.567
291.985
294.359
292.922
293.209
294.107
303.15
293.776
291.731
293.102
292.933
293
293.566
294.39
301.058
303.15
297.209
302.914
293.024
301.675
287.117
291.095
295.277
297.73
297.112
289.464
289.152
293.328
283.15
288.114
292.878
303.15
293.336
300.983
293.128
294.508
294.323
294.939
283.15
302.393
289.604
294.813
294.647
292.52
283.15
303.15
293.513
286.77
283.15
292.945
292.984
294.665
293.474
304.939
293.336
295.045
292.736
295.3
293.402
287.086
294.943
303.15
292.729
292.91
292.917
290.192
293.282
300.81
301.126
293.371
295.893
299.14
302.602
293.683
293.371
293.055
302.573
287.717
300.263
291.917
292.139
295.94
295.793
295.388
293.304
295.257
303.15
286.072
298.86
295.793
293.753
292.991
297.238
293.72
298.994
293.77
293.133
293.661
293.572
303.15
293.358
303.15
292.582
292.864
294.043
292.086
293.174
285.407
292.805
303.15
294.481
291.97
288.947
292.439
293.372
303.15
303.15
293.554
293.425
283.15
303.15
293.132
293.509
294.143
283.15
303.15
292.819
293.319
293.285
292.955
285.237
292.618
283.15
284.971
303.15
293.431
283.15
303.143
303.15
297.274
290.544
293.22
297.349
296.7
292.321
303.15
293.341
293.347
296.903
282.328
296.657
293.036
303.15
293.387
303.15
296.783
284.587
283.15
291.185
297.605
293.496
302.761
297.496
295.76
297.462
291.403
297.626
283.15
283.15
297.493
297.426
294.317
303.15
292.809
291.912
293.735
293.666
294.079
294.361
294.159
293.332
291.255
293.251
300.614
285.604
297.023
303.023
293.203
303.15
294.743
283.15
299.955
303.15
303.15
293.503
283.15
300.656
293.197
283.15
303.15
292.054
292.898
303.15
293.493
291.791
293.094
293.673
302.96
303.15
297.47
293.753
283.15
289.034
292.017
293.171
283.097
303.15
293.122
303.15
293.204
303.15
293.152
297.882
297.779
296.96
297.554
294.282
293.144
286.812
293.75
283.15
292.019
298.047
294.842
296.661
283.15
301.153
293.203
303.15
293.316
297.002
296.293
303.15
303.15
293.283
288.943
287.345
294.32
289.22
289.611
303.15
303.15
283.15
292.115
287.793
303.15
299.772
303.15
287.57
303.15
303.15
303.15
291.701
290.75
299.279
303.15
292.601
292.928
303.15
291.919
287.298
282.68
293.721
283.728
295.844
291.706
292.134
283.313
293.655
292.23
303.15
303.15
285.188
288.653
292.715
283.577
283.285
292.914
289.887
293.125
283.15
295.282
291.708
294.634
287.69
285.21
293.931
303.15
292.242
284.061
290.957
294.008
300.94
291.98
292.385
292.555
293.508
298.091
292.207
292.922
293.495
283.899
286.79
283.777
292.978
284.863
292.868
284.222
303.15
294.044
290.561
288.492
292.611
303.112
303.15
293.394
284.407
294.788
300.623
284.978
285.122
298.424
294.55
284.945
282.31
294.006
303.15
287.371
283.15
283.13
285.152
303.15
297.594
283.151
292.996
303.15
284.927
300.028
303.15
283.15
289.266
295.118
296.502
297.836
283.513
303.15
285.246
291.855
293.362
283.15
293.9
283.15
303.125
293.454
303.15
294.346
293.464
292.612
293.424
293.425
293.574
300.122
298.994
285.916
283.138
299.322
293.6
299.417
303.15
283.15
293.377
296.295
285.769
292.942
292.789
288.097
293.752
293.563
293.153
293.548
293.54
296.753
303.15
293.695
293.546
303.15
288.563
293.573
283.15
288.197
303.15
296.127
293.572
303.15
296.85
302.676
290.226
292.505
286.9
288.13
303.15
283.15
303.15
283.15
283.15
294.162
293.577
283.14
291.909
283.208
303.15
288.307
288.774
287.967
294.285
288.263
294.901
289.064
286.218
303.15
287.425
291.766
292.992
303.15
300.563
292.908
289.594
303.228
303.15
299.147
293.498
290.461
303.15
293.431
290.512
293.502
297.733
297.131
290.168
295.02
303.15
303.15
290.273
290.296
283.926
295.154
283.154
283.573
303.15
283.794
290.227
303.15
283.15
283.005
283.15
290.353
299.839
303.15
290.328
303.15
303.15
283.671
293.805
283.15
283.149
303.15
293.274
292.423
303.15
303.15
291.362
283.127
290.959
303.15
283.139
293.464
290.992
290.992
300.719
283.15
290.995
303.15
294.703
294.212
303.15
303.15
303.15
292.523
283.15
291.127
291.884
303.15
283.14
291.297
303.15
303.15
303.15
292.416
283.15
293.58
283.15
293.787
291.63
283.15
296.145
303.15
283.15
291.55
291.432
291.414
294.059
283.15
293.468
291.775
291.821
293.855
283.14
283.15
303.15
283.15
283.15
283.15
292.969
303.15
293.616
294.229
303.15
285.302
293.661
293.206
293.484
292.945
293.561
297.219
292.993
296.723
295.911
292.534
293.473
292.957
292.191
292.281
293.479
292.185
298.952
293.639
287.281
293.245
304.956
284.018
292.369
300.338
283.134
293.555
291.74
303.15
294.379
296.508
295.239
292.63
301.434
296.222
292.198
298.947
293.107
302.825
297.642
300.385
292.317
285.249
294.209
289.315
294.343
295.909
297.446
292.779
296.647
283.15
293.223
294.765
292.783
283.143
299.572
293.016
288.105
293.086
283.15
297.889
293.734
283.15
293.604
292.505
292.974
295.061
283.15
293.101
298.398
293.737
300.333
292.876
294.442
292.872
293.602
298.443
291.702
292.485
284.618
293.488
292.677
293.366
283.15
303.15
292.509
297.143
298.059
301.567
283.456
292.505
292.851
293.564
292.407
292.4
303.151
291.673
293.654
292.541
283.139
292.589
292.568
292.803
301.987
293.901
292.685
303.187
293.705
293.172
283.15
299.01
292.84
302.103
302.828
294.672
292.77
293.238
292.054
293.428
292.682
293.535
283.15
293.224
292.676
295.154
302.942
293.041
288.184
293
298.907
293.009
283.158
293.133
292.343
293.463
292.697
295.254
293.325
302.927
293.273
292.682
291.266
298.248
302.944
293.281
292.711
292.74
298.522
294.069
294.316
288.188
289.743
293.351
294.464
289.065
294.118
292.92
289.322
302.813
292.836
293.353
289.436
293.385
293.299
294.026
299.713
292.778
294.616
292.217
293.466
292.812
293.138
292.792
295.053
287.184
298.58
299.534
289.319
293.073
293.176
294.785
295.986
293.358
292.772
293.336
298.674
285.527
293.077
292.928
292.82
292.811
292.819
296.224
287.989
296.566
293.337
292.864
293.168
299.581
303.15
293.416
292.859
292.991
296.971
293.404
299.697
292.873
293.41
292.856
292.86
299.658
293.624
292.894
301.303
292.077
283.15
293.154
294.34
292.002
289.327
293.416
303.15
294.295
301.438
293.457
293.19
292.889
283.15
293.295
301.372
287.262
290.355
292.985
283.15
283.23
295.968
293.133
283.15
298.927
291.965
290.403
290.57
283.15
303.15
298.528
293.43
294.394
295.7
295.008
301.377
293.37
301.193
295.296
292.996
292.1
303.15
293.613
300.073
295.447
295.687
291.92
302.833
286.645
295.636
293.871
292.387
296.209
295.421
283.15
291.141
292.619
295.757
294.103
293.069
293.356
292.66
296.434
296.078
295.198
296.198
294.291
295.794
294.784
292.94
291.977
295.615
295.816
296.781
300.264
297.341
297.454
297.951
301.244
293.07
303.146
283.149
290.488
283.15
292.64
301.801
303.551
295.266
303.01
303.129
291.145
283.15
292.091
292.667
290.84
293.137
300.602
283.15
291.098
303.15
293.066
293.485
293.615
301.069
295.239
293.166
302.014
294.058
289.215
302.271
286.672
295.417
291.732
292.614
294.642
300.551
302.96
293.229
289.818
289.043
294.067
295.287
294.648
295.879
292.848
293.225
292.548
294.207
294.246
295.797
291.135
292.941
292.973
293.774
292.976
293.432
290.953
294.096
292.894
292.176
293.345
293.392
294.699
293.337
293.348
293.553
286.564
302.178
291.969
299.927
296.663
294.709
292.825
295.981
303.15
293.175
293.139
292.954
295.299
296.777
295.481
294.321
298.711
288.436
293.319
283.142
292.922
291.341
291.611
293.349
293.349
292.662
293.355
296.163
297.932
300.886
295.601
294.843
293.511
292.831
293.844
295.388
293.748
295.507
294.703
289.673
293.418
295.691
300.952
296.728
293.435
303.15
292.585
295.697
293.367
294.699
283.15
293.638
292.378
293.479
290.626
292.994
293.64
293.603
292.923
293.276
295.198
293.161
295.383
290.844
292.432
293.602
283.15
293.637
292.248
293.74
293.57
295.098
295.178
293.165
293.158
295.479
293.016
292.991
296.656
296.185
293.434
297.942
292.878
293.912
293.363
293.694
293.667
292.313
296.018
293.075
296.423
295.426
294.964
299.986
292.906
296.164
295.109
296.779
295.666
293.659
292.868
293.027
292.971
292.815
293.411
303.15
294.007
289.369
283.15
283.15
292.523
292.941
293.223
299.294
292.976
292.9
293.549
293.788
292.916
292.618
292.831
300.857
286.353
287.365
293.275
293.892
293.729
292.938
294.224
292.822
283.15
292.97
291.718
295.918
293.281
293.195
292.71
284.191
288.496
292.318
294.62
293.442
293.312
303.15
293.168
293.61
293.774
293.252
292.014
292.972
293.164
293.493
303.15
287.15
291.368
293.44
293.291
293.653
292.017
293.512
291.373
290.507
283.15
283.15
294.586
293.428
291.659
294.159
293.511
291.592
293.116
293.614
293.098
303.15
283.411
292.813
293.59
290.627
292.72
295.834
293.207
292.075
285.208
292.975
289.29
295.575
291.022
293.908
302.029
294.378
293.606
283.15
294.252
293.216
296.883
293.816
300.5
291.972
301.26
292.647
297.618
292.808
294.61
293.398
293.749
293.437
293.904
295.039
292.925
293.411
293.356
292.99
293.457
292.162
292.986
293.458
293.454
293.46
292.771
292.068
299.359
293.972
293.879
283.15
283.15
291.123
292.776
294.357
294.573
294.045
291.644
292.2
293.62
292.326
294.095
289.773
292.797
292.178
292.133
292.796
292.992
293.603
290.944
293.093
302.663
290.509
292.685
296.799
293.348
285.565
293.405
298.65
303.387
296.196
293.645
293.175
293.119
298.424
293.781
290.076
292.882
293.94
286.382
285.945
292.733
292.756
293.283
292.94
294.028
293.385
292.774
293.743
293.556
293.061
294.727
294.951
293.373
292.259
292.25
293.063
293.691
293.71
293.383
292.728
292.941
293.27
293.266
293.393
292.94
303.15
303.15
292.775
292.016
295.68
293.266
292.88
293.105
296.999
293.32
291.967
293.54
293.51
291.255
290.81
292.799
290.875
292.732
293.681
292.616
295.395
295.464
293.31
294.526
294.51
293.762
292.727
303.243
293.154
303.15
292.833
291.766
292.737
296.086
292.964
293.375
293.15
292.605
291.155
294.381
294.513
283.15
303.15
282.891
292.775
301.982
284.044
303.15
293.365
300.869
294.267
283.15
291.749
293.053
292.88
293.047
303.15
303.15
293.356
283.15
296.676
293.319
295.554
294.342
294.943
293.892
292.698
296.773
293.281
283.15
300.788
303.15
303.15
297.802
293.856
294.85
294.735
293.014
283.15
300.976
292.102
293.208
291.232
291.808
303.15
293.164
292.948
293.21
291.014
292.794
300.84
292.805
292.665
292.654
294.434
292.2
292.682
283.15
292.166
293.717
292.684
296.682
301.946
302.709
293.562
295.793
293.649
293.212
291.447
292.103
300.578
293.042
283.15
291.82
290.47
290.345
290.517
291.799
290.475
283.15
303.15
297.113
293.293
292.502
295.105
291.545
297.951
283.146
293.499
283.671
293.458
293.466
292.986
293.295
293.358
293.35
292.18
294.948
303.15
295.683
284.938
292.876
297.802
298.037
293.774
292.084
293.352
298.077
293.375
296.171
293.419
292.437
298.682
292.773
294.559
298.114
294.137
296.559
293.85
293.349
293.352
297.009
293.302
293.053
291.94
292.561
293.074
293.299
292.748
291.937
291.517
291.253
293.717
295.88
292.069
283.15
292.534
293.419
291.864
299.656
291.872
294.106
286.317
291.134
290.735
292.062
293.863
292.8
293.494
292.375
293.395
292.749
293.201
283.15
290.852
293.397
296.817
292.617
296.33
294.099
295.971
297.51
295.567
287.43
297.25
294.018
295.386
293.199
294.176
297.509
292.758
292.612
293.418
292.772
290.558
294.818
293.356
293.842
293.57
283.15
290.11
292.473
293.605
293.402
293.171
293.275
292.31
293.097
293.71
293.275
295.596
298.737
292.843
302.766
301.085
303.15
293.802
294.233
293.4
295.412
293.445
295.139
293.734
293.674
292.107
302.512
283.15
298.123
290.024
294.394
292.774
300.303
292.959
288.357
300.868
287.19
290.685
290.299
292.992
283.116
291.994
289.935
282.401
293.562
293.486
293.611
296.773
292.315
284.913
291.406
302.408
292.655
292.302
297.405
303.181
293.035
291.646
294.824
290.938
292.733
293.496
293.226
284.32
293.239
294.576
293.106
293.175
291.428
293.445
293.84
293.038
292.964
293.587
300.294
293.148
293.539
293.596
294.646
300.452
290.229
293.588
292.965
298.924
293.377
292.401
293.478
283.222
283.15
297.215
293.223
285.063
297.045
283.144
291.988
292.091
298.6
293.577
292.453
290.647
293.316
283.15
283.149
292.389
293.213
282.638
291.895
292.099
292.444
303.151
293.613
293.217
293.639
286.009
293.096
292.388
292.099
297.337
286.004
283.743
293.36
284.421
283.288
293.773
293.674
293.798
292.313
284.347
293.854
293.377
289.459
297.391
287.155
291.299
291.971
293.57
295.708
292.822
296.338
293.141
293.341
293.341
296.753
292.711
303.15
287.445
294.976
285.608
293.847
285.812
292.046
296.631
287.968
293.034
303.15
286.259
292.078
288.231
285.271
285.173
290.776
285.466
288.556
291.918
294.504
295.589
292.599
289.249
294.61
294.002
293.045
294.638
293.01
293.072
293.932
288.529
299.556
288.964
288.38
287.413
292.961
286.463
302.409
291.908
295.184
292.968
293.451
294.824
291.008
291.248
293.36
293.455
295.856
283.15
292.504
291.786
293.251
283.15
283.15
302.589
296.431
286.896
293.385
293.621
294.451
293.924
303.101
283.15
292.357
293.454
294.41
292.482
292.757
293.442
292.132
284.081
299.072
291.818
293.566
291.558
293.92
290.921
293.932
300.076
292.615
299.603
291.844
299.155
299.184
302.339
302.084
299.49
299.693
299.54
289.06
293.38
292.465
291.827
292.883
288.848
293.567
294.172
290.627
292.546
285.598
292.29
292.827
291.579
289.982
293.517
291.23
301.038
293.608
299.975
301.471
289.118
293.457
293.753
291.98
290.28
299.043
290.779
292.413
293.636
292.125
283.15
292.029
292.098
293.182
293.887
292.967
292.121
290.843
292.78
290.854
292.179
293.902
293.117
292.826
292.127
297.391
293.439
291.749
293.32
292.636
292.187
295.922
283.15
292.869
293.088
292.132
293.625
290.964
293.086
292.852
293.01
301.894
302.257
294.634
293.484
301.124
304.618
292.446
302.214
302.157
293.471
292.457
292.988
293.157
302.351
294.173
292.907
293.122
302.348
293.524
293.691
292.607
292.478
292.78
294.119
293.206
303.08
293.484
296.169
292.788
292.506
292.552
292.545
293.109
292.498
290.506
292.512
293.142
293.047
293.035
294.125
293.049
299.248
292.822
292.671
293.219
287.054
301.439
293.435
301.092
291.198
300.509
293.207
301.53
283.15
298.68
293.282
290.92
290.445
296.677
298.691
297.845
294.202
292.807
293.566
300.202
292.813
291.799
298.93
292.834
283.151
292.943
284.222
299.024
287.913
299.04
291.657
293.106
293.783
295.767
293.196
293.251
292.675
296.74
289.165
295.187
292.977
297.32
292.859
292.882
298.134
297.056
291.267
291.812
297.13
290.318
287.454
297.548
298.819
303.15
292.207
285.557
293.552
304.28
291.266
287.619
296.081
283.15
296.477
283.15
291.651
294.763
297.509
293.027
292.298
293.74
292.175
292.238
293.891
294.098
301.826
283.15
296.49
286.156
297.301
292.654
294.45
292.661
301.926
294.083
295.024
294.916
288.686
295.609
300.128
292.676
292.648
293.462
293.612
299.362
296.609
292.564
292.556
290.753
292.793
294.538
294.235
303.144
295.583
295.691
290.646
299.166
290.289
293.485
303.15
293.359
283.15
293.308
293.316
286.953
294.898
292.375
293.18
292.326
291.092
283.15
293.514
287.956
292.8
294.351
291.285
292.804
289.739
293.407
298.282
295.801
300.58
291.777
293.401
293.026
294.061
284.599
296.421
297.131
292.196
296.644
293.736
296.628
297.122
300.245
295.155
294.376
290.56
292.72
292.736
303.109
303.15
292.878
295.386
290.32
293.448
292.979
303.15
303.15
293.95
294.789
293.441
295.101
295.229
287.264
295.086
294.703
295.174
295.23
295.844
289.751
291.714
292.532
298.631
293.486
293.978
293.044
292.968
302.505
290.589
293.624
292.56
294.039
292.965
283.15
292.828
292.347
292.965
293.996
291.642
293.244
302.704
293.251
293.245
298.269
295.65
303.15
288.105
297.619
300.901
293.643
292.391
295.846
296.002
293.489
294.074
293.256
294.753
292.659
292.948
291.696
296.361
292.355
293.725
297.254
293.4
297.036
293.493
292.416
293.086
293.108
293.45
294.053
295.574
295.032
293.489
300.814
295.227
292.183
292.245
293.245
293.369
293.266
293.102
292.347
289.491
293.281
291.995
303.15
293.492
293.55
294.256
294.709
292.804
293.26
302.5
295.149
297.406
289.862
289.762
293.275
293.466
293.79
293.7
294.147
290.41
293.449
293.288
293.338
292.914
293.003
293.459
293.35
292.959
294.271
295.596
285.18
291.723
291.994
294.5
294.386
293.147
295.972
295.66
295.901
295.664
294.999
295.659
293.428
295.382
295.331
290.232
292.113
291.504
295.209
293.124
294.779
293.029
302.969
294.66
295.679
296.858
285.485
295.17
290.261
285.429
293.312
290.285
293.758
292.035
282.849
293.297
294.991
292.763
292.902
300.07
297.292
283.146
297.864
292.749
300.967
290.296
293.524
293.245
293.564
301.324
296.122
293.602
291.783
295.245
293.154
283.15
294.644
292.584
293.591
293.07
295.584
292.573
293.195
292.31
293.256
293.662
291.947
294.992
292.782
290.915
293.238
293.395
291.117
293.484
290.436
289.493
292.984
296.962
293.22
297.623
286.676
293.321
299.376
290.227
293.371
303.201
293.393
292.771
293.292
294.591
293.04
283.15
289.776
293.35
293.144
294.368
292.621
290.823
291.372
287.294
290.085
297.476
295.796
293.54
297.284
283.603
292.693
288.683
303.15
297.598
293.005
292.289
292.77
294.252
293.118
294.307
292.828
298.145
290.163
303.15
290.135
289.596
287.531
289.976
289.547
291.988
286.328
303.15
292.124
289.704
286.594
292.771
292.838
292.436
293.039
289.995
296.716
293.365
293.245
292.806
293.842
293.766
301.588
292.632
288.682
292.759
293.499
296.617
292.574
294.978
293.394
300.899
292.989
292.824
294.084
293.362
293.878
286.245
295.42
293.768
295.89
293.476
293.823
293.606
302.453
293.042
293.369
295.44
303.114
293.145
294.44
283.15
293.824
296.742
289.414
293.299
291.566
293.659
295.699
293.553
293.879
295.702
294.579
296.6
293.323
293.734
292.998
293.656
303.15
293.606
293.345
293.566
292.849
293.726
293.284
292.979
292.642
287.478
283.187
292.539
293.899
293.071
293.66
290.308
294.443
293.666
293.454
292.829
293.313
293.212
293.27
292.975
292.974
292.976
294.287
293.332
293.402
293.118
294.408
292.386
298.831
290.611
293.751
296.532
293.659
293.78
296.887
297.075
296.905
293.345
292.75
291.794
292.277
293.661
292.911
297.213
287.571
301.62
293.573
292.279
293.763
293.106
292.925
291.729
291.547
293.336
291.696
292.811
293.595
287.045
294.357
288.495
295.192
292.987
291.966
293.544
293.204
293.024
283.15
283.15
292.893
290.044
296.741
293.079
293.183
293.037
293.008
293.207
290.987
296.136
293.568
291.735
283.15
293.706
293.591
291.631
290.995
286.734
287.812
288.536
291.265
291.324
297.691
294.161
294.195
294.443
300.989
285.011
295.939
294.455
285.042
284.924
293.026
293.195
290.692
291.433
296.453
293.16
283.15
291.202
293.43
297.485
285.009
293.646
291.136
295.806
296.926
289.186
292.231
293.921
300.248
293.381
301.696
294.022
292.717
292.559
293.834
293.449
294.115
291.094
293.666
284.098
291.122
293.634
292.665
294.003
293.471
293.004
293.336
293.483
293.716
292.341
293.037
283.719
292.13
293.16
293.938
293.629
284.775
292.07
293.45
283.15
293.384
294.179
294.103
293.484
293.377
293.737
293.201
293.67
301.233
283.571
292.911
288.407
283.15
293.534
288.447
293.534
293.433
293.867
283.15
293.07
293.245
293.301
283.15
293.906
293.234
293.438
292.895
293.819
286.956
293.969
293.467
293.376
293.32
292.785
293.964
292.786
294.102
283.15
293.356
292.96
293.418
293.238
294.246
293.174
293.876
293.722
287.003
293.673
293.444
294.58
294.164
294.016
294.106
294.468
293.459
290.612
294.084
293.622
292.17
294.141
293.774
294.202
293.399
302.49
294.506
295.198
297.192
293.364
295.382
293.392
292.841
283.15
293.667
293.344
295.681
293.321
291.757
296.68
293.528
290.913
298.885
292.075
291.784
290.552
290.806
294.234
292.681
292.626
293.45
283.15
293.318
292.677
292.59
292.605
292.605
292.52
293.394
293.641
293.766
293.341
293.657
293.749
293.476
293.339
293.161
292.221
292.814
293.473
292.424
292.487
293.465
293.088
293.383
295.012
292.966
292.639
294.618
294.113
293.609
294.376
292.638
293.646
293.576
293.721
293.449
284.894
293.721
292.789
292.966
292.901
283.729
293.207
293.321
283.215
284.928
283.15
293.406
293.45
283.748
293.165
293.121
283.15
284.994
290.097
293.366
293.455
292.744
293.801
294.096
294.199
294.096
294.114
294.162
293.27
293.417
293.35
285.297
293.469
289.573
285.502
285.343
290.978
293.993
293.648
293.29
294.119
294.045
294.464
292.974
290.265
293.523
293.585
293.665
291.615
294.135
293.402
293.611
294.301
293.888
293.503
293.627
294.03
293.477
291.421
293.594
293.366
293.834
294.351
293.05
293.593
283.15
292.662
293.152
293.342
293.491
290.619
293.965
292.308
289.994
293.416
293.608
293.167
292.671
288.736
291.638
289.236
301.692
295.532
289.024
293.263
292.796
296.054
293.459
292.964
290.267
293.126
289.021
293.441
291.687
293.281
296.324
288.94
303.15
293.524
293.386
294.052
288.741
295.597
291.084
293.786
290.81
290.982
300.426
283.21
290.838
295.204
293.575
293.783
293.526
290.602
294.37
293.775
293.099
293.618
291.43
293.565
289.67
291.999
293.978
283.15
284.928
289.141
291.542
293.796
291.372
292.735
292.617
292.634
293.57
285.766
287.997
292.51
293.681
293.703
294.261
303.15
292.61
293.655
296.849
303.15
288.245
293.288
294.027
293.276
290.421
291.749
292.653
288.963
294.028
292.687
285.25
295.33
283.15
293.665
293.242
293.584
293.445
293.553
294.195
293.548
293.762
293.143
293.871
299.046
292.57
292.026
292.148
294.897
292.314
292.774
286.515
293.018
294.086
292.392
303.15
293.621
293.61
283.194
292.351
293.229
293.518
291.233
293.421
293.101
293.056
293.841
293.439
294.735
293.441
292.665
291.9
293.307
291.782
293.435
293.563
293.59
293.421
294.362
293.426
293.969
293.314
294.05
293.951
294.06
293.123
293.079
293.213
292.313
293.726
293.461
288.342