/*--------------------------------*- C++ -*----------------------------------*\
  =========                 |
  \\      /  F ield         | OpenFOAM: The Open Source CFD Toolbox
   \\    /   O peration     | Website:  https://openfoam.org
    \\  /    A nd           | Version:  10
     \\/     M anipulation  |
\*---------------------------------------------------------------------------*/
FoamFile
{
    format      ascii;
    class       volVectorField;
    location    "78";
    object      U;
}
// * * * * * * * * * * * * * * * * * * * * * * * * * * * * * * * * * * * * * //

dimensions      [0 1 -1 0 0 0 0];

internalField   nonuniform List<vector> 
59698
(
(0.584685 0.00602729 -0.001747)
(0.564786 -0.00115022 -0.000858789)
(0.566518 -0.00068551 0.00170087)
(0.578799 -0.00342622 -0.00127413)
(0.562917 0.000726043 -0.0028996)
(0.197724 0.198053 -0.00634605)
(0.566925 0.000232248 0.000405398)
(0.564019 0.000854688 -0.000295151)
(0.199878 -0.199527 -0.000424746)
(0.201228 -0.200786 -1.36137e-05)
(0.200369 -0.198721 -0.000624405)
(0.567011 -0.000303407 -0.000407008)
(0.199802 0.200489 -0.000577192)
(0.561609 -0.000762354 -0.000193101)
(0.561992 0.00106448 -0.00253476)
(0.203974 -0.197104 0.0018261)
(0.564676 0.000134688 0.000201275)
(0.566068 -0.00125868 0.000385392)
(0.567632 -0.000514043 0.000301846)
(0.567343 -0.000378918 -8.02759e-05)
(0.142933 -0.100046 -0.0250618)
(0.536059 -0.00147609 -0.00273195)
(0.265143 -0.172513 -0.00739139)
(0.198824 -0.199921 -0.00136795)
(0.570314 0.000585634 0.00108225)
(0.566221 -0.0011561 0.000432125)
(0.566467 -0.000340983 -0.000426284)
(0.557258 -0.000206986 -0.00120269)
(0.570276 0.0013701 0.000871782)
(0.572434 -0.000452486 0.000449452)
(0.548144 -0.000336873 -0.000399691)
(0.198521 -0.198565 -0.000181352)
(0.201153 -0.197944 0.00228665)
(0.559768 0.00125024 -0.00086022)
(0.549133 0.0114027 -0.00743297)
(0.56673 -0.000913997 -0.000385175)
(0.275059 0.0659405 -0.0384668)
(0.539399 0.000755414 0.000199595)
(0.561695 0.000131578 0.000561306)
(0.568198 0.00154402 -0.00278274)
(0.563918 0.00043121 -0.000108715)
(0.1949 0.197809 -0.00173705)
(0.562418 0.000595136 -0.00063047)
(0.563703 0.000447804 0.000105279)
(0.196728 0.199571 -0.00025263)
(0.560924 0.00367508 0.00514064)
(0.567063 -0.00086268 0.000369038)
(0.561581 -0.000323655 0.00148735)
(0.562937 0.0003273 0.000880478)
(0.565359 -0.00069885 0.000233263)
(0.567928 0.000159481 -0.000170151)
(0.566895 -0.000871833 0.000346313)
(0.566566 -8.48268e-05 -0.000778545)
(0.560449 -0.000166037 0.0004532)
(0.572375 0.00287288 0.00102496)
(0.567403 -0.000516976 -0.000142397)
(0.562746 -0.000988854 0.00060273)
(0.524732 -0.0018923 -0.000240786)
(0.564641 -0.000794291 -0.000383199)
(0.26837 0.121415 -0.0193447)
(0.559161 0.00459973 -0.00253061)
(0.5646 0.00135018 0.000526355)
(0.577836 0.0147673 0.00652536)
(0.567579 -0.000559223 0.00037766)
(0.561883 0.000221003 0.000736456)
(0.5614 0.000193957 0.00206349)
(0.199519 -0.199945 -1.32055e-05)
(0.567123 -0.000560389 -0.000629138)
(0.566977 -0.000464329 -0.000634229)
(0.199516 -0.19921 -7.83267e-05)
(0.209511 0.182805 -0.00794728)
(0.565286 -0.000726566 1.32067e-05)
(0.166425 0.118584 -0.0344339)
(0.592881 -0.0118815 0.0197931)
(0.202915 0.203538 -0.000369096)
(0.590015 -0.0250046 0.0215267)
(0.561148 0.000254721 0.000993532)
(0.561047 0.000234317 -0.00162755)
(0.56686 0.000817941 -0.000636143)
(0.571461 0.00152927 0.00012465)
(0.552676 -0.00183996 5.11529e-06)
(0.56792 0.000243344 -0.00012155)
(0.20125 -0.200757 -6.10009e-05)
(0.565106 -0.000731975 0.000600737)
(0.399838 -0.103771 0.0151744)
(0.562806 0.000191354 -9.09044e-05)
(0.563144 -0.00123002 0.00162785)
(0.557672 0.000483407 0.00715019)
(0.561986 0.00140189 0.0010188)
(0.560496 -0.000177786 0.0015888)
(0.199536 -0.199174 -0.000163338)
(0.560434 0.000896258 0.000571959)
(0.560849 -0.000490983 0.00168927)
(0.565878 -0.000354334 0.000409626)
(0.561542 0.00116559 0.00100136)
(0.563532 -0.00368575 0.00128636)
(0.558614 0.000715416 0.00126623)
(0.562339 0.000542042 0.000558354)
(0.559229 0.000678863 0.00126927)
(0.199679 0.200038 -3.24937e-06)
(0.556375 0.00156416 0.000881759)
(0.567464 0.00519297 0.00626544)
(0.563081 -3.27153e-05 0.000172656)
(0.563117 -0.00163008 -0.00442896)
(0.567136 -0.000576262 0.000832542)
(0.198839 0.198574 0.000130693)
(0.565439 -0.000999331 0.000608422)
(0.567253 -0.000359281 -0.000415594)
(0.200742 -0.20089 -6.23565e-05)
(0.199793 0.199689 -0.000370919)
(0.56632 -0.000785836 -0.000374786)
(0.570423 -0.0104242 -7.99421e-05)
(0.561763 0.0014419 0.00160311)
(0.200896 0.198779 -0.000337552)
(0.561058 -0.000134926 0.000250355)
(0.567443 -4.3441e-05 0.000154737)
(0.567175 0.00135316 -0.00137133)
(0.565191 0.00306431 0.000776494)
(0.563748 -0.000836239 0.00205177)
(0.200903 -0.200445 0.000442424)
(0.56565 -7.06967e-05 -2.41202e-05)
(0.55825 -0.00636211 -0.0037709)
(0.563152 -0.00497522 0.00572198)
(0.564555 -6.91219e-05 0.000121367)
(0.564028 0.00012259 0.000197618)
(0.566041 -0.000314938 -0.000133098)
(0.565938 -7.35658e-05 -0.000516024)
(0.199563 -0.199512 0.000487035)
(0.562049 -0.000612583 -0.000198362)
(0.56754 0.000318246 -0.00199316)
(0.567302 0.000378965 0.000593455)
(0.567218 -0.000177699 -0.0010768)
(0.201403 -0.200544 -1.3584e-05)
(0.579338 0.00689883 0.000568132)
(0.572766 -0.000120573 0.000172442)
(0.568496 -0.000183985 -0.000184038)
(0.5698 0.0038341 -0.00108863)
(0.201037 -0.200694 0.000301656)
(0.567411 -0.000353797 -0.000269149)
(0.568541 -1.90815e-05 -0.000363766)
(0.565297 -0.000271266 0.000881957)
(0.562619 0.0031718 -0.00101063)
(0.566082 -0.000851446 -0.000466775)
(0.5674 -0.000331025 -0.000307475)
(0.566012 0.00220294 -0.000450088)
(0.567418 -0.00027288 2.13941e-05)
(0.563623 -0.00395078 0.000302988)
(0.566471 -0.00372089 -0.000532538)
(0.562339 0.000382037 0.000899139)
(0.552194 -0.000243472 2.37307e-05)
(0.408589 0.144214 0.0730994)
(0.2002 -0.199654 0.00011887)
(0.562158 -0.000110359 5.54334e-05)
(0.556583 -0.00217854 -0.00379693)
(0.56304 -0.000224878 -0.000134742)
(0.560677 0.000200833 -0.000466168)
(0.56647 -0.00105268 -0.000264659)
(0.558782 -0.000967006 0.00305331)
(0.56353 -0.000299589 -0.000336191)
(0.199707 0.19954 -0.000112093)
(0.564908 9.28992e-05 0.000163008)
(0.562822 -0.0003758 0.000242477)
(0.567879 -0.000586056 -0.000251306)
(0.554689 0.00186087 -0.00110776)
(0.562797 -0.000549968 -0.000186303)
(0.56678 -6.41609e-05 -0.00022336)
(0.56703 -0.000202787 -0.000690198)
(0.412452 0.0870941 0.0062984)
(0.554753 -0.000544688 -0.000365843)
(0.567031 -0.000131218 -0.000503596)
(0.559286 0.00178452 -0.00253728)
(0.211053 0.173772 0.000664961)
(0.553103 0.0013984 -0.00216664)
(0.55261 0.00128815 -0.00206692)
(0.578286 0.00141392 -0.00550333)
(0.562497 0.000278888 0.000353502)
(0.199574 -0.198906 0.00079685)
(0.538357 0.00494653 0.00302648)
(0.198957 -0.197823 -0.00579166)
(0.561906 0.000559526 -0.000457518)
(0.510451 -0.00192547 0.00519827)
(0.548323 -0.000555417 -0.000470603)
(0.562595 0.000352387 -0.00095761)
(0.5654 9.65629e-06 -0.000263572)
(0.564701 0.000618953 -0.000850304)
(0.543597 -0.000315683 -0.000313148)
(0.54347 5.25348e-05 -0.000852378)
(0.55958 0.00374094 0.00124137)
(0.566672 -5.21239e-05 0.000162787)
(0.563912 0.00151559 0.000727481)
(0.561585 0.000225549 0.000716799)
(0.562577 -0.000322516 0.000625237)
(0.562863 0.000570271 0.000518344)
(0.561911 -0.00034713 -0.000480382)
(0.554531 0.000256408 -0.000415718)
(0.557252 0.00327582 0.00080521)
(0.576601 0.00580089 -0.0135782)
(0.57575 0.003685 -0.0021619)
(0.152096 -0.144034 -0.0194394)
(0.55417 -0.000546045 0.000132794)
(0.203037 0.205888 0.00271983)
(0.545929 0.000582248 0.000915085)
(0.573217 0.000295097 0.000276821)
(0.566608 -0.000365622 -0.000488446)
(0.552812 0.00093695 0.0011571)
(0.566784 0.000156968 0.000159033)
(0.563879 0.000362991 -0.000732332)
(0.557126 -0.00209003 0.00126328)
(0.554551 0.0114903 0.000466753)
(0.56227 0.000282517 -0.000162212)
(0.566006 0.000184189 0.000209294)
(0.564891 0.000213968 0.000469664)
(0.554739 0.00045393 0.00224061)
(0.199003 -0.197043 -0.0011023)
(0.565299 -0.000270935 -0.000188402)
(0.560063 0.000616557 -0.000141197)
(0.566178 -0.000788403 4.9454e-05)
(0.560982 -0.00061957 -0.0018571)
(0.561504 -0.00068456 -0.000146589)
(0.564915 0.000498416 -0.000588386)
(0.582034 0.0245721 0.0227207)
(0.563812 -0.000273907 0.00036016)
(0.565027 4.38862e-05 0.000104456)
(0.556945 0.000912908 0.00283775)
(0.565113 -0.000389753 -0.000241483)
(0.553629 0.00258228 0.00290557)
(0.564373 5.84689e-05 -7.90786e-05)
(0.566047 0.000581752 -0.00049133)
(0.577955 0.00277133 -0.000861302)
(0.593314 0.0123028 0.00980454)
(0.199024 0.1986 -0.000393623)
(0.563349 1.72641e-05 0.000449744)
(0.565725 0.000398786 8.8155e-05)
(0.564475 0.000129733 -0.000365263)
(0.563562 -0.000542524 0.000476073)
(0.567921 -0.000493778 -1.94423e-05)
(0.564979 0.00158458 0.00150773)
(0.564061 0.000331132 0.000184389)
(0.558515 0.00137048 0.00348754)
(0.562146 -0.000907514 0.000488247)
(0.564871 -0.000210746 -8.13025e-05)
(0.563774 -0.00121205 -0.000491862)
(0.570481 6.13252e-05 -6.3394e-05)
(0.197427 -0.19788 0.0033443)
(0.566671 -0.000290882 -6.15386e-05)
(0.564051 0.000202587 0.0039)
(0.582508 0.00526894 0.0162882)
(0.591272 -0.00723051 0.0127803)
(0.56626 3.01204e-05 0.000156214)
(0.567017 -0.00081983 0.000425968)
(0.561348 0.00106035 0.00401268)
(0.562567 -0.000473247 0.000453469)
(0.563389 0.0010179 0.000865053)
(0.198218 -0.193516 0.00312041)
(0.566483 -0.00138669 -9.73281e-05)
(0.563346 0.000351096 0.00041598)
(0.560513 0.00209547 0.000601894)
(0.561262 -0.000666582 0.000611285)
(0.566138 -0.000480732 -0.000124387)
(0.565002 -0.000164363 -3.40749e-05)
(0.198829 -0.109263 -0.00127205)
(0.200414 0.20004 0.000143131)
(0.563535 -0.000937997 0.000582464)
(0.559884 0.000576746 -0.00116157)
(0.558102 -0.00148712 0.00230272)
(0.586929 0.00745408 0.00247148)
(0.565414 4.22404e-05 -5.03297e-05)
(0.196925 -0.198438 -0.00164506)
(0.565463 -0.00117295 0.000417117)
(0.564885 -0.000182258 -0.000149088)
(0.566641 -0.000981241 -9.53465e-05)
(0.563133 -0.00121016 -0.000682536)
(0.545976 -0.118236 0.0772564)
(0.564759 -0.000126886 -0.00023861)
(0.564976 -0.000237624 8.00876e-05)
(0.5576 0.000378267 0.00141061)
(0.564908 -0.00164657 -0.00373781)
(0.564271 -0.000618751 0.00150114)
(0.570073 0.000271082 0.00019424)
(0.200809 -0.200142 0.000133832)
(0.195989 -0.195354 0.00168561)
(0.567553 2.66077e-06 -2.96192e-05)
(0.567038 -0.000893337 0.000491496)
(0.581551 0.00211893 0.00128947)
(0.587027 0.00643101 0.000910349)
(0.577918 -0.00120491 0.00144463)
(0.566051 -0.000289963 -0.000687857)
(0.299189 -0.213249 -0.0187941)
(0.574267 0.00147497 0.000570545)
(0.56345 0.00228589 0.00299977)
(0.586253 0.0175808 0.000933633)
(0.567504 0.000349525 0.000313196)
(0.565281 -0.000872656 0.000551289)
(0.567004 -0.00100323 0.000161828)
(0.569847 -0.00107735 0.000821473)
(0.560537 -0.00148846 0.000699571)
(0.568317 -0.000257578 -0.000623975)
(0.568035 0.00156792 -0.000601504)
(0.565024 -4.54502e-06 -0.000134604)
(0.562978 0.0011935 0.00366906)
(0.566216 0.00163782 -6.31678e-05)
(0.19872 0.198923 -0.000102555)
(0.195968 0.197806 0.00149926)
(0.567159 -0.000163445 -0.00040216)
(0.567241 -0.00047741 -0.000157207)
(0.567046 -0.000208709 -0.000280502)
(0.569088 0.000270858 -0.00144798)
(0.560491 -0.00111342 -0.000318214)
(0.562293 -0.000377662 0.000267373)
(0.567293 -0.000129787 -0.000250293)
(0.5653 7.38788e-05 0.000153673)
(0.563436 -0.00201001 0.000542332)
(0.566029 0.000305463 0.00021152)
(0.200736 0.200934 0.00131615)
(0.56146 -0.00328522 0.00169938)
(0.566937 0.000688079 -0.000104528)
(0.202035 0.202597 -0.000457678)
(0.566736 -0.000207761 0.000182755)
(0.195214 0.197029 -0.00207408)
(0.565268 0.00249336 -0.00204106)
(0.562537 0.0030365 -0.00304863)
(0.594284 -0.00996441 0.0180199)
(0.564558 -0.000555452 8.38326e-05)
(0.199744 -0.199403 0.00063234)
(0.600406 -0.0114366 0.0168878)
(0.555737 -0.000172054 0.00066899)
(0.564242 -6.43046e-06 -0.000330482)
(0.566686 -0.000327866 0.00045526)
(0.567177 0.000543046 -0.000202291)
(0.199172 0.199228 -0.000186719)
(0.548351 -0.000144315 -0.00206497)
(0.564061 -0.000933288 0.000318675)
(0.558922 0.000241081 -0.000675282)
(0.582498 -0.0106717 0.016765)
(0.199616 -0.199995 -0.000182758)
(0.567465 0.000535417 0.000619285)
(0.562772 -0.000630322 0.000174796)
(0.566411 -6.61329e-05 0.000227203)
(0.557069 -0.00123622 -0.000441123)
(0.567952 0.000257067 -0.000134205)
(0.563849 0.0012481 0.000966177)
(0.566782 0.00258757 -0.00169089)
(0.564947 -0.000398244 0.000206891)
(0.565441 6.9026e-05 3.12839e-05)
(0.557793 0.000822847 -0.00117173)
(0.564926 -0.000176613 -0.000124758)
(0.56437 0.000208315 -7.22909e-05)
(0.541008 0.00128409 -0.00110074)
(0.562783 4.90074e-05 -0.000216234)
(0.562779 0.000132461 0.000268255)
(0.567644 0.000158018 0.00011757)
(0.56197 -0.00104362 0.000627788)
(0.569819 -0.00320439 -0.000938536)
(0.199482 -0.199202 -0.000145736)
(0.590234 0.00283472 0.00628313)
(0.546889 0.000621561 -0.000830767)
(0.554115 0.00261878 -0.00702049)
(0.564792 -0.000164034 0.000111156)
(0.56226 0.000380652 0.000734084)
(0.199412 -0.199035 3.07411e-05)
(0.566508 0.00105946 -0.000580663)
(0.559162 -0.000279798 0.00066456)
(0.203243 -0.194648 0.000343833)
(0.565666 -5.85386e-05 0.000274813)
(0.199989 0.200038 -4.85588e-05)
(0.196477 0.201286 0.00051919)
(0.563241 -5.59964e-05 9.02065e-05)
(0.564626 -0.000682153 0.00118866)
(0.564544 -0.000409365 0.000185485)
(0.491011 -0.00572085 0.00282377)
(0.56783 0.000248361 0.000292191)
(0.19799 0.198556 0.000298591)
(0.566114 0.00019426 -0.000315611)
(0.197306 0.199022 0.00130012)
(0.562924 0.000101566 -0.000550413)
(0.200085 -0.200251 -1.43784e-05)
(0.56437 -0.000396815 0.000386275)
(0.565345 0.000225895 2.34238e-05)
(0.1989 0.198363 -1.23796e-05)
(0.19902 -0.199213 0.000129579)
(0.201361 0.198084 -0.00338412)
(0.563062 -7.60576e-05 -0.000269056)
(0.565887 0.00135329 0.000400713)
(0.560206 0.000769055 -0.000373438)
(0.566708 -0.000264834 7.39235e-06)
(0.277651 0.142113 -0.00512286)
(0.563275 -0.000402624 0.000952967)
(0.199302 0.199502 3.01081e-05)
(0.199581 0.200002 -5.14579e-05)
(0.56498 0.00258301 0.000936739)
(0.56007 -0.00046047 5.56797e-05)
(0.199363 -0.196652 0.000739499)
(0.563765 0.000312905 0.00117022)
(0.574314 0.000301765 6.48196e-06)
(0.379517 -0.147357 0.0156429)
(0.526844 -0.00158836 -0.000325306)
(0.551619 0.0161984 -0.0117683)
(0.562556 0.00272855 0.00160807)
(0.561086 -0.000268544 -0.00249526)
(0.563485 -0.00168407 0.00130252)
(0.562485 0.000485083 -0.000509471)
(0.563749 0.000123621 -0.000178215)
(0.565002 -2.09343e-05 -0.000431279)
(0.564701 -0.000549538 -0.000504473)
(0.553117 -0.00291093 -0.000644671)
(0.560737 0.00442832 0.000772111)
(0.575912 0.00417323 -0.00282882)
(0.581584 0.00296237 -0.000779889)
(0.564388 0.000360149 -0.00136351)
(0.530695 0.000403659 -0.00296741)
(0.571574 0.00234937 -0.00161753)
(0.19892 -0.19913 9.54957e-07)
(0.560189 0.000616663 -0.00129571)
(0.199603 -0.199555 0.000196776)
(0.56137 -4.50059e-05 0.000207241)
(0.584031 0.00161665 0.00227839)
(0.56717 1.47143e-05 -0.000120574)
(0.567441 -0.0275462 0.0127833)
(0.53277 -0.00249756 0.000826776)
(0.535109 -4.14701e-08 -0.00641654)
(0.561619 -0.000530907 0.000222809)
(0.563034 -0.000245925 0.000699399)
(0.563948 0.00123512 0.00237164)
(0.588057 0.0137581 0.0122207)
(0.563707 -3.57806e-05 8.01083e-05)
(0.563969 -0.000241758 0.000174571)
(0.200003 -0.199861 0.000343565)
(0.561601 -9.05249e-05 -0.000222688)
(0.558017 -0.00162819 2.23017e-05)
(0.199438 0.19921 -3.64735e-05)
(0.5643 -0.00147011 0.000768343)
(0.575587 0.0179172 0.00845749)
(0.572315 -0.00468728 0.00669203)
(0.565002 7.98413e-05 -0.00135483)
(0.561276 -0.000247301 0.00149037)
(0.20048 -0.200421 -0.000922263)
(0.205314 -0.202251 0.000309712)
(0.574075 0.00508539 -0.00184709)
(0.565975 -0.000364166 -0.000491617)
(0.563244 -0.00102743 -0.00402388)
(0.202961 0.200382 -0.00178364)
(0.565223 -0.000608285 -0.00040701)
(0.200614 -0.199905 0.000297391)
(0.562044 -0.000430028 -0.000189124)
(0.563664 -0.000813354 -0.00101027)
(0.516553 -0.00739829 -0.00330168)
(0.580707 -0.00168448 0.00290527)
(0.200021 0.199741 -4.27369e-05)
(0.565385 -0.0010466 0.000624069)
(0.554071 -0.000109165 0.000309903)
(0.562407 -9.57511e-05 -0.00191176)
(0.566115 -0.000701688 -0.000174322)
(0.56395 0.0010124 -0.000949273)
(0.565166 -0.00124415 -0.000141887)
(0.562705 0.00164248 0.000103551)
(0.562262 0.000232715 -1.02399e-06)
(0.580692 0.0013351 0.00229587)
(0.199644 -0.199553 0.000248427)
(0.547019 0.000401275 -0.000333013)
(0.561538 -0.000220394 0.00109046)
(0.577643 -0.00120062 0.00146052)
(0.564681 -0.000135653 -5.75466e-05)
(0.55518 -0.00148855 0.0015214)
(0.576988 9.21796e-05 0.000613671)
(0.200502 -0.199438 -0.000183184)
(0.560193 0.00513056 0.00195956)
(0.559696 0.00733804 0.00687028)
(0.56751 -0.000221657 -0.000148179)
(0.563804 0.000657368 -0.000624579)
(0.565747 0.000159387 4.18244e-06)
(0.560569 -0.0050831 -5.47477e-05)
(0.198389 0.198592 -0.000307526)
(0.199867 0.199795 2.24297e-06)
(0.198964 0.199801 2.56059e-05)
(0.563807 0.00214227 0.00286357)
(0.554091 -0.00312142 -0.0080061)
(0.504331 -0.00180155 0.00088394)
(0.577119 0.000980368 0.000559309)
(0.566688 -0.00295847 0.00095822)
(0.562935 -0.000509106 0.00067715)
(0.563137 0.000692429 -6.88397e-05)
(0.560059 0.000127118 0.000583715)
(0.563471 -0.00014459 0.000180616)
(0.20296 0.1989 -0.000344322)
(0.555888 -0.00675352 4.68097e-05)
(0.562451 -0.000568094 -0.0001016)
(0.560001 0.00088726 0.00130387)
(0.562511 -0.000574423 0.000592781)
(0.571974 0.000471123 0.000480291)
(0.567418 0.000773285 9.77611e-05)
(0.560653 0.000708146 -0.000868977)
(0.590317 -0.00145666 0.0068252)
(0.574149 0.000890208 0.000241743)
(0.559858 -0.000551253 -0.0013018)
(0.571353 0.000364097 -0.00010576)
(0.559641 0.000802293 0.00146343)
(0.562084 -1.44138e-05 -0.000152698)
(0.556082 0.00348991 0.00266918)
(0.566581 -0.000224914 -0.000476604)
(0.197298 0.196543 0.000418875)
(0.198803 0.19875 -9.20712e-05)
(0.573646 -0.00181966 0.000793019)
(0.557055 0.000341418 0.000319788)
(0.566085 7.53078e-05 0.000486613)
(0.199188 0.200507 0.000238534)
(0.20001 -0.199958 -0.000256112)
(0.562747 -0.00077188 -0.000139171)
(0.200482 -0.200704 -9.92974e-06)
(0.564087 0.000273732 -2.85786e-06)
(0.567293 -2.6e-05 -2.78172e-05)
(0.565729 -0.000246791 0.000111036)
(0.570644 0.000194736 0.000266198)
(0.561094 -0.004166 -0.00124495)
(0.197936 0.200093 0.00148552)
(0.568063 -0.000719803 5.12237e-05)
(0.564781 -0.000202954 -5.03392e-06)
(0.198155 0.198359 0.000185121)
(0.563494 0.000301816 0.000467435)
(0.198279 0.2002 0.000328499)
(0.197312 0.196193 9.44556e-05)
(0.566835 0.000220344 -0.000507232)
(0.56747 0.000662764 -0.000130442)
(0.564249 -6.67627e-05 4.87291e-05)
(0.199167 0.1989 -0.00063834)
(0.199053 0.199097 0.000120552)
(0.486601 -0.000395198 -0.000847709)
(0.565741 -0.000499803 0.000992862)
(0.566211 0.000112241 -0.000247064)
(0.567091 -0.000414448 -0.000368697)
(0.564113 0.000503038 -0.000738645)
(0.565968 0.000244091 -0.000458503)
(0.563815 0.0217033 -0.014623)
(0.199761 -0.200313 -0.000235327)
(0.564142 -0.000508187 1.87227e-05)
(0.560833 2.18349e-05 0.000176769)
(0.199429 0.199453 -4.00991e-05)
(0.200328 0.19868 -0.000271652)
(0.557004 -0.000215373 0.000172111)
(0.563701 -0.000376828 5.71237e-05)
(0.198437 -0.198836 0.000601597)
(0.566642 -0.000285888 -8.88841e-05)
(0.56493 0.000195733 -0.000182063)
(0.564932 -3.70249e-05 -0.00108202)
(0.590585 0.0429196 -0.0159177)
(0.563166 0.000475762 8.94436e-05)
(0.568912 -0.000431984 -1.9423e-05)
(0.559171 0.0242274 -0.00299204)
(0.637554 0.129753 -0.0577623)
(0.566475 1.47724e-05 0.000120596)
(0.255673 0.159994 -0.00752719)
(0.561679 0.000569728 -0.000146103)
(0.200368 -0.199998 -6.84697e-06)
(0.558103 9.38464e-05 0.000962838)
(0.199712 -0.19953 0.000628655)
(0.565534 0.000150282 -0.000476693)
(0.563664 0.000439534 -0.000422543)
(0.199503 0.20029 -0.000236231)
(0.560794 0.000598148 0.000716317)
(0.565815 -0.000616688 -0.000277444)
(0.568219 -0.000303497 -0.000269175)
(0.19942 0.199114 4.73047e-05)
(0.198756 -0.199013 -0.000229637)
(0.56169 -0.000551911 0.000768028)
(0.163029 0.115964 0.0438699)
(0.567008 -0.00122606 -0.000653723)
(0.20042 -0.199736 0.000194011)
(0.582339 -0.000875967 0.00727308)
(0.561719 0.000463381 -0.000121571)
(0.567173 9.04637e-05 -0.000293644)
(0.200404 -0.198004 -0.00141019)
(0.568144 -0.000300693 -0.000173179)
(0.565509 -0.000985078 0.000598968)
(0.207135 0.196099 -0.00114891)
(0.56837 0.000177429 -0.000724915)
(0.56634 0.000267248 -0.00121535)
(0.567655 0.000312508 7.23624e-05)
(0.566567 -0.000303857 -9.59634e-05)
(0.568046 -5.98239e-05 -0.000194416)
(0.566133 -0.000430676 -0.000483063)
(0.200167 -0.20066 -0.000272271)
(0.192469 0.193549 0.000609892)
(0.560475 0.000417499 0.000977549)
(0.56542 0.000877488 0.00226025)
(0.564721 -6.16006e-05 -0.000358387)
(0.568098 9.89438e-05 -0.000357999)
(0.199526 0.199454 2.15644e-05)
(0.56606 -0.000202799 -4.03097e-05)
(0.565358 0.000118825 -0.00100597)
(0.570962 -0.000265843 0.000419784)
(0.566703 0.00020678 -0.000272129)
(0.568434 -5.03321e-05 -0.000365143)
(0.56042 0.000815804 0.000752148)
(0.565346 0.00052087 -0.00111267)
(0.565023 0.000515219 -0.000807544)
(0.198827 0.198663 -0.000342193)
(0.558652 0.000466856 -0.000119787)
(0.227803 -0.191978 -0.00759695)
(0.553907 -0.00345389 0.000667141)
(0.196659 0.191302 -0.00190574)
(0.1983 0.198713 -5.09222e-05)
(0.565706 -2.62866e-05 0.000144521)
(0.564826 1.17382e-05 0.000234353)
(0.19925 0.198902 -6.93934e-05)
(0.55587 -0.000476182 0.000469246)
(0.565505 -0.000626034 4.65967e-05)
(0.566354 -0.000483343 -0.0001253)
(0.566304 1.80617e-05 -0.00053917)
(0.199205 0.198398 0.000738546)
(0.564951 0.000280733 6.85279e-05)
(0.559947 -4.77199e-05 0.000667178)
(0.560551 4.16245e-05 0.000583375)
(0.567148 0.000213072 -0.000307487)
(0.562431 2.6437e-05 0.000395036)
(0.567028 -0.000102501 -0.000376264)
(0.565626 5.11501e-06 -0.000124916)
(0.565848 0.000168826 -0.00011605)
(0.562374 -8.69283e-05 0.000276763)
(0.573723 -0.000836801 0.000501896)
(0.157182 0.0630139 -0.0718086)
(0.562825 -3.44168e-05 0.000370744)
(0.198255 0.198719 0.000268529)
(0.565512 0.000174791 0.000905911)
(0.566688 -0.000176096 -0.000689738)
(0.562728 0.00235029 -0.000478911)
(0.55805 -0.00216558 0.0038909)
(0.56443 -0.00101229 0.00210268)
(0.568215 0.000388806 5.99496e-05)
(0.567416 -9.7318e-05 -0.000810273)
(0.5669 -0.000262366 -0.000270656)
(0.567042 -0.000809946 -0.000894753)
(0.561141 -0.00110563 0.000853672)
(0.197994 0.199504 -0.00289423)
(0.566704 -0.000239492 0.000235145)
(0.565991 0.000338989 0.000332476)
(0.567891 -0.000309621 9.58989e-05)
(0.56602 -0.00010141 -0.000395865)
(0.566385 -0.000737594 -0.000627438)
(0.562662 -8.14488e-05 0.000386012)
(0.556432 0.00647486 -0.00109336)
(0.572348 0.000731957 0.000620097)
(0.558278 0.00181858 -0.000923849)
(0.562508 0.000319502 -0.000888707)
(0.199324 0.199329 8.42117e-05)
(0.20051 -0.199734 -1.64204e-06)
(0.566787 0.000168434 0.000196054)
(0.567759 0.000428272 0.000321673)
(0.562602 -0.000525589 0.000429882)
(0.558836 0.000715783 -0.00209774)
(0.561465 -0.000865926 5.80016e-05)
(0.198847 0.19907 -0.00032401)
(0.199095 0.199301 -0.000156799)
(0.566904 -0.000824419 -0.000890966)
(0.564122 -0.000437964 0.000151111)
(0.5656 -0.000280976 -0.000327083)
(0.565727 -1.79871e-05 -0.000197266)
(0.565004 -0.000128085 -0.000732051)
(0.566435 -0.000371402 -0.00019681)
(0.220587 -0.153338 -0.0145881)
(0.568006 0.000175063 -2.80922e-05)
(0.561832 -0.00114584 0.000861545)
(0.559951 0.00052093 -0.000828034)
(0.556672 3.65555e-05 -0.00177776)
(0.568202 -0.000144154 -0.000102448)
(0.541754 0.00352475 -0.0125986)
(0.556835 0.0161488 -0.0108573)
(0.568007 0.000104214 3.12807e-05)
(0.562176 -0.000831588 0.000830633)
(0.560595 -0.000278833 0.000384588)
(0.563115 -0.000624579 0.000636971)
(0.573237 0.000297804 -0.00100728)
(0.199322 0.19935 4.05415e-06)
(0.55652 0.00231476 -0.00216387)
(0.56725 -5.63314e-05 -5.94623e-06)
(0.550594 -0.00212251 -0.00585297)
(0.56615 0.000118021 -0.000586458)
(0.566916 7.97008e-05 -0.000594214)
(0.19973 0.197602 -0.000812237)
(0.563202 -0.000963795 0.00411691)
(0.573328 -0.000435169 0.000109208)
(0.567119 -1.1313e-05 -0.000598266)
(0.561141 0.000314477 0.000992366)
(0.553631 -0.000181758 -0.00167888)
(0.199309 0.20511 -0.00187075)
(0.197819 0.195524 -0.00103404)
(0.566089 0.000347738 0.000183312)
(0.566563 -0.000220656 -0.000160016)
(0.566539 -0.000107314 4.42679e-05)
(0.567786 -5.73159e-05 3.82159e-05)
(0.566364 0.00015209 1.0429e-06)
(0.56547 0.000568965 0.000453175)
(0.562489 -0.000647061 0.000812748)
(0.566532 0.00157934 -0.0027384)
(0.565631 -0.000215206 -0.000856782)
(0.566167 0.000865638 -0.000279855)
(0.564124 -0.00127577 0.00227469)
(0.561242 0.00117443 -0.000714257)
(0.562856 -0.000651935 0.000143394)
(0.566445 0.000200381 -0.000406656)
(0.198621 0.198615 0.000123457)
(0.566929 4.68437e-05 -0.000302742)
(0.200423 0.200587 -0.000121446)
(0.199593 0.199155 5.88593e-06)
(0.565826 0.000952589 -0.000462204)
(0.562746 8.51799e-05 0.000181858)
(0.566946 -0.000829479 0.000529552)
(0.200416 -0.200246 -3.51483e-05)
(0.564537 1.00716e-05 0.000447279)
(0.560786 0.00106813 -0.00172001)
(0.567618 0.000532633 -0.00108418)
(0.199547 0.199645 9.28611e-05)
(0.565103 -0.000316198 -0.000198967)
(0.197084 0.198847 -0.00060664)
(0.563453 -0.000330913 0.00334358)
(0.198067 0.196978 -0.000145502)
(0.561765 -0.000294253 0.00104479)
(0.558421 -0.000236023 0.00108094)
(0.563695 -0.000145888 2.32152e-05)
(0.565584 0.000776632 -2.96186e-05)
(0.200337 -0.200252 0.000101801)
(0.198375 0.198349 -0.000170878)
(0.566781 0.00263904 -0.00299137)
(0.555286 -0.000243112 0.00188455)
(0.56747 8.3916e-05 -0.000854541)
(0.566227 7.38125e-05 -0.000355346)
(0.565183 2.49582e-05 -0.000759894)
(0.563983 0.00117978 -0.000346883)
(0.574557 0.00318501 -0.00126191)
(0.19974 0.199932 -0.000265333)
(0.581985 0.00713066 -0.00090874)
(0.565134 -0.000521149 -0.000743289)
(0.541745 0.0634235 -0.0393277)
(0.198089 0.196662 0.000529537)
(0.567619 0.00129928 -0.00162566)
(0.546549 0.000441329 0.0014703)
(0.199411 0.19782 0.00170424)
(0.581614 0.002247 0.00103165)
(0.567739 -0.000247821 -0.000529)
(0.199676 -0.199565 -7.21126e-05)
(0.558469 6.49338e-06 0.00130344)
(0.596173 0.00823609 0.00140951)
(0.566721 -0.000489004 -0.000170883)
(0.561978 -0.00146115 0.00245277)
(0.576368 0.00509555 0.0273825)
(0.560346 0.000805244 -0.000479451)
(0.563966 -0.000142407 -0.000401106)
(0.560373 0.000105858 -0.00196457)
(0.539746 -0.000102134 3.96065e-05)
(0.566997 -0.0230489 0.025951)
(0.564221 0.000322791 0.000793394)
(0.55546 -0.00110072 -0.00017458)
(0.566447 1.19683e-05 -0.000165025)
(0.575441 -0.00145494 0.000972033)
(0.567317 -3.66777e-05 7.80966e-05)
(0.567672 0.00220217 -0.00159622)
(0.199415 0.199488 1.83633e-05)
(0.566562 0.000740483 -0.000301288)
(0.580712 0.000380379 0.00146205)
(0.591027 0.00552406 0.00798443)
(0.199737 -0.199759 -7.50428e-05)
(0.562162 -0.00107973 0.00108696)
(0.569029 0.000433494 -0.00019236)
(0.197201 0.195145 0.000401343)
(0.557967 0.000400631 -5.62602e-05)
(0.562277 0.000173344 -0.000469414)
(0.566142 0.000405175 -0.000615805)
(0.568921 0.000356997 9.40115e-05)
(0.562032 -0.000543501 -0.000340852)
(0.565471 -0.000237465 0.000201217)
(0.198912 0.199229 -0.000229959)
(0.56229 -0.000281977 -0.00176763)
(0.57068 7.91101e-05 -0.000295236)
(0.198981 0.198968 0.000236712)
(0.200023 0.199453 -0.000105627)
(0.565791 0.000428045 0.000318471)
(0.199435 0.199788 -0.000108742)
(0.564457 -0.00018712 0.0003918)
(0.56018 -0.00405322 -0.000332005)
(0.566237 0.000269135 -0.00030804)
(0.562371 -0.00060764 -0.00229171)
(0.562333 -6.36132e-06 -0.00182341)
(0.284068 -0.0199262 0.0421583)
(0.199424 0.19967 0.000193221)
(0.571489 0.000342981 -1.5739e-05)
(0.566129 5.69252e-05 0.000160209)
(0.56296 0.000574309 -0.000470531)
(0.560644 0.00272966 -0.00192422)
(0.563193 -0.000150599 -0.000787023)
(0.199139 0.199303 -0.000233532)
(0.544422 -2.82445e-05 -0.000739127)
(0.560661 -0.000221066 -0.000880312)
(0.555989 0.00165605 0.0041776)
(0.56707 -0.000217795 0.00109728)
(0.563765 -0.00105054 -0.000322309)
(0.556124 0.0189454 -0.0215948)
(0.566524 -0.00166873 5.51872e-05)
(0.551039 0.00584088 -0.0110534)
(0.198603 0.195249 -0.00115898)
(0.199669 0.199602 0.000176832)
(0.199126 0.199158 1.3015e-05)
(0.56695 0.000297987 -0.000111647)
(0.56595 -0.000501852 -0.000509657)
(0.199145 0.198572 -0.000110213)
(0.564227 -0.00011732 0.000813548)
(0.55759 0.00376958 0.00295658)
(0.557152 -0.000754619 -0.000609612)
(0.501235 0.0707158 -0.04053)
(0.559332 -0.000792712 -0.000491207)
(0.565778 0.00020175 0.00012409)
(0.199859 0.2043 0.000348762)
(0.55693 0.0130287 -0.0207738)
(0.199879 0.199836 0.000187288)
(0.198918 0.198379 0.000351036)
(0.566183 -0.000224975 -2.77338e-05)
(0.318045 0.243324 0.0366939)
(0.290006 -0.118149 -0.00400877)
(0.562655 -0.00131244 -0.000137474)
(0.194325 -0.197747 0.000260241)
(0.566255 0.000125721 -7.24776e-05)
(0.560793 -0.00252384 -0.00509805)
(0.56996 0.0195692 -0.0138142)
(0.565768 -0.000194527 0.00036026)
(0.575639 0.0109871 -0.00364071)
(0.563835 0.000345534 0.000188024)
(0.570656 -0.0364518 -0.0106432)
(0.199029 0.198994 4.73896e-05)
(0.198878 0.198034 0.00020524)
(0.564641 -0.000985642 -5.00955e-05)
(0.563574 -0.000706844 0.00107706)
(0.566984 -0.000407584 0.000193099)
(0.195871 0.198987 -0.00154603)
(0.560184 0.0011503 1.06939e-05)
(0.565588 -0.00041683 0.000100698)
(0.56589 -6.89416e-05 -0.00026505)
(0.199254 0.19948 0.000837983)
(0.565649 0.000220317 -0.000592658)
(0.565824 -0.000244261 -0.000262554)
(0.510967 0.0571332 0.0378624)
(0.199118 0.199149 -0.000148241)
(0.645299 0.172829 -0.00638698)
(0.522309 0.073591 -0.0535052)
(0.2002 -0.199484 4.36485e-05)
(0.199814 0.199092 0.00033402)
(0.19892 0.198523 5.15652e-05)
(0.20049 0.199832 0.000428082)
(0.199978 0.199683 -0.000783726)
(0.565856 0.000578697 -0.000109478)
(0.566381 -0.000145123 0.000214603)
(0.564941 0.00050986 0.000160158)
(0.199451 0.198442 0.000167179)
(0.565029 -0.000324413 -0.000139305)
(0.567502 2.54956e-05 0.000429227)
(0.199646 0.198941 0.000263725)
(0.57928 -0.00405627 0.00953296)