/*--------------------------------*- C++ -*----------------------------------*\
  =========                 |
  \\      /  F ield         | OpenFOAM: The Open Source CFD Toolbox
   \\    /   O peration     | Website:  https://openfoam.org
    \\  /    A nd           | Version:  10
     \\/     M anipulation  |
\*---------------------------------------------------------------------------*/
FoamFile
{
    format      ascii;
    class       volScalarField;
    location    "8";
    object      p;
}
// * * * * * * * * * * * * * * * * * * * * * * * * * * * * * * * * * * * * * //

dimensions      [0 2 -2 0 0 0 0];

internalField   nonuniform List<scalar> 
111485
(
8.06691
0.533229
0.617042
8.04997
0.631694
7.87834
0.538448
0.476334
0.543442
0.780888
0.531792
0.679932
0.546431
0.513765
0.546577
0.575548
0.192309
8.78743
0.545166
8.04322
8.03933
7.89824
0.544757
0.558488
0.627923
7.98753
0.762653
0.33125
0.615031
8.07831
0.964196
0.134697
8.05576
7.94739
8.62045
7.95186
0.975252
0.0720133
1.14044
0.567443
8.00862
0.77907
0.56788
0.880361
0.922699
8.12945
0.836806
0.554888
0.773107
8.04224
8.04085
7.609
8.04777
0.8846
8.05177
0.352335
0.548071
7.99358
0.78135
0.564354
0.566051
8.0666
0.442953
0.945286
7.8691
0.395807
5.59675
0.501379
0.437249
0.476028
0.978657
0.413269
7.85938
0.434442
8.10416
0.246329
7.91049
0.747051
7.89738
8.20937
0.958337
0.853729
7.92314
8.09447
0.443975
0.575921
2.7653
0.885388
0.983981
0.182132
0.972438
0.581008
0.445081
0.0979749
0.778871
8.0932
8.06837
0.89631
0.511262
1.02148
8.06088
0.756652
7.96172
0.731897
0.511115
8.08552
7.96202
0.152833
0.589742
0.856591
0.122889
0.41208
0.582228
0.703415
7.98519
0.232681
8.00456
7.98786
0.436404
8.045
7.98646
7.00061
7.92548
7.99427
0.812752
8.92203
6.97101
0.179272
8.10669
1.53455
0.941538
0.894069
8.10304
6.86835
7.12029
0.52968
7.91454
0.248062
0.476889
0.501278
0.759635
0.485872
0.492151
0.609706
0.81344
0.0462584
7.9138
8.08965
7.97987
0.51552
0.608994
8.03779
0.975469
0.00977904
0.617911
0.515372
0.508105
0.537386
0.738246
8.11941
8.05039
0.512179
0.604286
0.773671
0.674022
0.214317
0.936862
8.01391
0.80781
0.836123
7.97602
8.08644
0.653435
7.94149
0.0591591
0.0175476
7.89324
7.83957
8.00327
8.00571
7.8156
8.04903
0.520724
0.52199
0.515393
0.0635809
0.749047
0.292918
0.98432
8.05919
0.244884
7.83717
8.06055
0.299457
0.772253
0.94483
0.382679
0.0441004
8.10479
0.520425
0.603599
5.80606
0.858965
0.174445
8.10453
0.297609
0.713461
7.83439
0.93476
0.831583
0.605183
0.280708
7.80795
8.07218
0.294355
5.52603
0.895477
7.93887
0.297545
0.261971
0.791534
8.11717
0.316417
0.915155
6.41728
7.94077
7.97758
1.00542
0.679627
7.92578
7.47653
0.263885
0.0788071
0.315199
7.92294
7.93292
0.949934
8.10567
0.509638
0.256004
0.258591
0.24812
0.255368
7.9808
0.972808
0.201692
7.98836
7.92224
0.883642
0.412067
7.97352
0.133528
0.195972
8.08853
6.73794
0.846402
8.01827
8.11129
7.38503
8.02595
0.223165
0.246852
0.0118902
8.12195
0.198126
8.05219
8.06421
8.11064
0.956231
0.745293
0.430441
0.425952
0.6991
0.425193
0.431121
0.992641
0.0706012
0.0778294
7.81445
8.08676
0.995969
0.157225
0.713925
0.0955932
8.04711
0.435589
0.517539
0.423318
0.727336
0.974423
0.415015
0.426913
0.855253
7.99189
0.733797
7.94212
8.77814
8.16935
0.998762
0.699056
0.554892
8.01382
8.04217
0.339496
0.123405
8.03584
8.07287
8.05675
0.24629
0.087659
0.512103
0.538367
0.569004
7.49322
7.96775
8.09791
0.339686
3.95365
0.544279
0.981119
0.934028
7.9229
8.06459
8.06763
7.11391
0.364911
0.629999
7.98481
0.362609
7.96786
7.99957
0.918267
0.363532
0.696801
0.359243
8.14592
7.0844
7.97523
0.361615
0.0321703
0.971278
7.88741
1.65215
0.920813
0.640179
0.327626
2.31197
0.573016
7.90645
0.568841
0.371713
0.981408
0.909018
0.638095
7.95491
8.09894
7.9685
8.05338
0.508478
0.314282
0.686052
0.577716
7.96292
0.671873
7.96615
8.07378
0.574112
8.22059
7.19063
8.15294
7.95183
0.518911
7.99372
0.0296366
0.665922
7.89763
0.4588
0.380671
8.03447
0.372766
0.673329
0.381185
0.944801
0.0612778
0.0867904
8.15299
8.08971
0.885635
8.00102
0.689345
0.917968
7.88579
7.98433
0.355149
0.689485
0.0568945
0.673063
7.91161
0.962614
0.672657
7.87036
0.877039
0.673473
8.07131
8.04624
0.03287
0.626648
7.96912
8.00879
6.22339
8.0596
0.64915
7.93964
8.05739
0.675652
0.951324
0.822888
0.63713
7.88148
7.128
0.896745
7.21672
0.876352
0.907918
0.775383
5.75084
7.28123
-0.304511
0.878287
8.07626
0.902192
0.663833
8.11626
0.775299
0.788614
7.24866
0.699407
0.675685
0.0639037
7.8885
0.256181
0.712101
0.0708445
1.00069
6.95252
0.62195
8.09803
0.993273
-0.115254
7.97482
0.692969
0.855598
6.79429
8.12008
7.63072
8.03814
0.636763
0.0956483
0.694324
0.701433
0.931222
7.94179
0.664936
8.07758
0.64283
7.85674
8.07516
8.09877
0.694676
8.09263
8.0719
8.44154
8.06725
7.98768
0.851918
7.99342
7.64985
7.96307
8.06317
7.87297
8.10449
7.90275
0.697544
7.96256
0.855652
0.715993
1.08519
7.87183
0.858293
7.97022
8.0656
0.68746
0.677254
0.732131
0.97352
7.57542
0.785244
0.780493
0.0620594
0.0706502
0.713009
8.08555
0.0409605
6.8035
0.823421
7.94549
0.803629
6.99775
0.108787
0.696555
8.34057
8.01965
0.059409
8.03234
0.788735
0.781698
7.98894
7.97892
8.09159
7.97097
0.30436
0.786762
7.84698
7.99402
0.632321
7.89885
0.779856
7.90695
0.829947
8.06713
0.790064
0.805417
0.388914
0.10383
7.84065
-0.0958897
7.85878
7.94734
0.738117
7.94786
0.785548
8.09818
0.812193
8.08138
0.753049
8.03747
7.25789
1.05864
0.708009
0.782675
0.747768
0.76773
0.674839
7.97774
0.776223
0.72158
7.93433
1.04693
0.949966
0.793172
7.90507
8.15255
0.644434
0.79046
4.39436
7.84466
0.741897
0.635047
0.752061
0.752886
0.213585
3.39285
7.17609
0.534725
3.90105
8.05286
0.802067
8.00199
7.2863
0.186916
3.3473
0.524862
2.39204
7.17646
0.74711
0.634029
7.87568
7.66473
0.637493
8.02513
7.89652
7.90393
7.86678
0.757138
7.96484
8.07036
0.768318
0.259984
6.35913
0.594527
7.56104
0.254644
8.04636
7.97931
0.757004
7.94443
7.87308
7.25752
0.0533794
5.25388
0.761049
0.187235
8.02872
0.959278
0.732879
0.648398
0.972705
1.40382
0.62964
7.95109
0.772498
0.64803
8.11124
0.382467
0.863728
0.667241
0.0466484
0.669651
0.667192
8.10948
0.796331
0.934794
7.23705
0.669908
0.81191
5.42533
0.188988
0.668294
0.807717
0.700903
0.713871
0.188613
7.96424
0.708246
0.787688
8.28988
0.743456
0.740096
0.196057
7.95045
0.0567487
8.1269
7.9175
7.96627
7.8653
0.652781
7.33683
0.245726
8.0679
7.83179
0.749151
0.748281
8.03086
0.792243
8.06461
8.10669
8.0502
0.816736
0.803085
7.28184
8.0733
7.94579
7.95294
0.953922
0.188801
7.12477
0.734554
0.81296
7.98525
0.739936
0.838448
0.159079
7.89079
7.93881
0.39806
0.193217
7.22519
7.97473
7.83756
0.292957
8.09036
8.01458
7.93719
0.73007
0.591161
7.89945
8.52593
8.28831
0.217451
7.9911
7.87439
0.803915
0.951176
7.21034
6.35668
2.16841
0.831885
0.00433652
7.81619
0.604225
0.862185
7.99132
8.04498
7.91577
7.94183
7.96924
7.90341
0.745913
8.06502
7.91583
7.90006
0.741439
0.186446
8.0104
8.05653
0.826798
0.189445
0.202862
8.01927
7.91817
0.193074
8.09146
0.727996
0.188978
0.201597
7.98989
8.06026
8.05999
7.95582
0.651155
7.92278
7.90815
0.895673
8.05832
0.320248
0.867944
7.8616
0.19518
7.97952
0.312496
0.76245
0.772443
0.823595
0.101436
7.49217
0.308757
0.830827
0.00511146
7.97717
-0.617771
7.36411
0.0668783
7.96089
0.848245
0.842191
0.843706
8.15972
8.06285
8.12083
0.191606
7.56128
0.0969464
7.68624
0.580355
0.0694294
0.127928
0.191754
7.90351
7.87693
7.86917
0.195768
7.87098
7.49316
0.999957
7.98879
7.99343
8.06032
7.91741
0.132571
7.82723
7.93874
-0.126102
7.5446
8.00678
7.27508
7.93385
0.839619
0.131962
8.03879
0.64087
2.09457
0.842839
0.854909
0.168565
7.97315
0.76345
0.972042
0.845468
8.09592
-1.02205
0.130914
6.83434
0.103556
0.982632
1.0316
0.461667
0.104072
0.979571
0.0521816
0.129351
7.93885
7.87164
0.0910342
0.0817361
7.98226
0.0939719
0.690256
0.123815
7.85045
1.00796
7.95784
0.126668
0.116386
7.8863
-0.00223181
0.126717
0.979853
0.0102698
7.81156
0.505286
0.987216
1.09753
0.974192
0.91301
7.94242
7.96627
0.906097
7.91566
0.726051
0.894172
7.0136
0.748085
0.439305
0.895264
7.91756
6.75961
0.272503
8.10604
9.36382
0.90261
7.86024
7.87921
0.528533
0.401082
7.91655
1.01376
7.94122
7.94396
8.10967
8.06673
8.07189
8.08936
0.931099
7.86165
7.9764
7.98878
-0.099372
0.9562
0.583381
0.267686
7.90195
7.86849
0.946644
7.93122
7.88194
6.25946
0.919895
0.348226
7.89307
7.87294
7.87319
7.87442
7.92499
7.86913
0.919669
7.87286
0.945079
0.573498
7.95176
8.07214
8.05303
1.01115
8.04681
8.05117
7.96695
0.942227
7.96031
0.922863
0.961851
0.953463
7.8985
5.73988
0.94805
0.551443
7.81223
0.949826
0.802414
8.0254
7.81867
7.12909
7.87335
0.270125
0.500184
0.948934
0.839684
7.88886
0.270401
7.79927
7.147
7.09203
7.97758
0.461136
7.93529
8.06088
0.983149
0.352095
8.05872
0.792228
7.57626
0.935154
8.14414
7.94618
7.94314
8.057
0.137503
0.5009
1.48643
7.89307
7.88956
0.130193
7.91673
7.3606
8.06846
0.722745
0.834204
0.659455
8.00915
0.990893
0.995098
8.36293
0.998415
7.86913
0.876319
0.79819
0.484201
0.973337
0.900346
7.92383
7.94254
7.94303
0.987613
8.05185
0.969691
8.11406
1.81098
8.0137
0.563055
0.579067
8.06312
7.91009
8.07614
7.99274
0.966169
8.08207
7.13611
0.121577
0.971858
8.08166
7.33101
7.893
7.34966
7.86424
7.92618
0.980098
0.825205
8.0493
8.00032
0.610213
8.07397
0.980302
0.14031
7.91469
0.897273
8.0587
0.0909791
7.86294
0.615522
7.88411
0.682235
0.864123
0.970678
0.89561
0.892788
5.27814
7.78068
0.910119
8.04312
0.455447
8.02524
7.98819
7.76265
7.97274
7.99884
7.98119
0.884552
0.875341
8.0592
6.91491
8.02297
0.900101
1.00768
8.07204
0.466528
0.982009
8.05367
0.178284
0.129349
0.437125
0.974341
7.91603
7.93315
7.97575
7.906
0.463584
7.90741
0.919565
7.92772
0.91933
0.620634
7.96295
0.907828
7.96976
7.91339
0.920401
0.940543
3.0263
7.92803
8.06992
7.86846
0.477457
7.73497
8.15439
7.76502
1.97185
7.05741
0.722029
7.32412
7.73323
7.90378
0.148416
0.122094
0.691829
0.521654
8.09826
0.926443
7.94768
7.98163
0.129981
7.83904
0.635582
0.918539
0.102494
0.928578
0.319695
0.671826
7.97281
-0.0915871
-1.34951
0.817028
0.951477
0.357448
6.00968
8.06205
0.653132
8.02373
7.877
0.964503
0.76929
0.260025
7.93412
7.8031
0.97559
8.05308
7.86012
0.927949
8.06751
8.0598
0.490419
0.932326
0.92114
0.434702
0.222819
7.87088
7.92271
0.918987
0.414018
7.90369
8.06306
0.720657
7.8719
6.87723
7.0897
7.12249
5.01406
6.9105
7.90516
0.677232
7.86377
0.929672
7.88544
4.2134
7.89989
7.87488
7.97459
7.91571
0.636105
7.91689
7.91544
7.22678
7.8755
7.97277
7.94223
0.393072
7.93345
0.355654
0.931095
7.87626
0.703582
7.89589
0.820135
0.942093
0.103368
0.111106
7.98642
0.116728
0.634435
0.96363
8.10709
0.931999
0.315006
0.0649338
7.58927
0.0707602
7.90798
7.97147
7.88322
7.90044
0.0728502
7.94101
7.8741
0.0615531
0.909441
0.0508996
7.98953
5.93447
0.693709
7.96166
0.867777
8.05077
0.105573
7.85154
7.86098
0.660451
7.88184
1.00128
8.07214
7.88488
0.313857
0.833468
0.232697
0.491659
1.00878
0.391155
7.88672
8.17663
0.580267
0.247472
0.392194
0.940741
7.91644
0.359143
7.91109
7.95812
0.580583
0.969041
7.87424
0.246282
7.9617
0.23107
0.225679
7.84981
7.90127
7.95584
0.579929
7.93929
7.93993
0.587014
0.227109
0.942727
0.069179
7.90409
7.97558
0.73869
0.59927
7.89214
0.582693
7.92065
0.576727
7.89694
7.88982
0.565463
7.91789
0.802524
0.548515
7.87215
7.90142
0.529381
6.82487
0.663139
8.06538
0.941005
8.07745
6.93756
6.74392
0.552236
7.26629
7.19603
0.497619
7.16437
4.84645
6.7159
7.89537
8.0242
0.940306
0.658223
7.97127
7.94616
0.631996
0.64458
7.87467
0.585926
7.90452
8.02734
0.736944
0.693628
0.120254
7.89431
7.94927
7.94185
7.91558
7.85961
7.86352
7.94469
7.86739
7.87365
7.90089
7.94187
8.02539
7.92864
7.892
7.87649
7.98006
7.89032
7.90176
7.92107
7.95612
8.0559
0.660786
7.9347
7.89181
7.98743
0.46076
7.99647
8.02691
3.73285
7.83736
7.75492
0.45852
8.3557
7.79449
4.1899
0.457222
7.92721
7.01666
7.45224
7.87838
0.878639
0.459424
0.459128
0.437429
0.292561
8.04224
7.877
0.344586
0.366532
0.433592
7.90834
0.412842
0.860988
0.447952
0.0852665
0.0971163
0.437755
0.160058
0.439354
8.11813
0.502232
0.413118
0.61542
0.408628
7.95574
7.94384
7.9684
8.059
7.95245
0.367303
0.418284
7.95563
7.8752
7.86935
8.00605
7.8836
8.02785
7.8552
8.02568
0.416517
0.929353
0.416939
0.686876
7.83646
7.84313
0.865731
0.924101
7.90002
7.91562
0.660283
8.12234
7.93571
0.442406
0.395167
0.407027
0.652331
0.862467
8.04432
0.0169856
0.492416
7.13791
8.02478
0.478331
8.03736
7.86835
3.25403
2.2782
0.660942
7.96363
8.09089
0.97397
0.497802
0.0328543
0.369584
4.11221
8.06044
0.928462
8.2944
8.11246
7.79056
0.614126
7.88215
0.365476
0.022254
0.471518
0.488833
8.09076
0.326827
8.09668
7.70105
8.08867
8.00708
0.129716
5.06744
7.91757
8.04724
8.40351
0.368289
7.09887
0.321579
0.363081
0.123994
0.365583
8.01007
7.99169
6.97634
0.630493
0.286482
0.355647
8.04544
8.0659
7.06459
0.880161
0.647206
7.91557
0.235929
3.33856
0.493031
0.278998
8.05377
6.90673
0.274601
0.366569
7.94648
0.784276
0.759612
0.665584
0.3008
0.289442
0.309678
7.14045
0.12537
0.300021
0.257756
8.11588
0.47502
7.21596
0.621011
0.308315
8.12061
0.0883654
0.291508
0.317826
0.38479
8.7782
2.99555
0.952521
4.88225
0.294454
7.78498
0.103331
0.293392
8.01468
7.92179
0.846217
0.999231
0.422221
8.742
0.686383
0.953921
0.203145
0.949022
8.00799
8.12762
0.364319
8.39532
0.329471
0.930909
0.29593
0.110319
8.04102
0.825787
0.359924
8.01839
7.20182
0.243541
8.09818
0.23933
0.227991
8.06888
8.77648
0.49942
8.02927
7.89178
7.99409
0.108938
1.19124
0.634268
8.15666
0.614744
0.172211
7.88677
0.170915
0.186378
0.114206
0.993486
7.90529
0.321093
0.106143
0.191372
0.172611
0.116027
0.9512
0.576562
8.06499
-0.023732
0.122629
8.05348
0.18685
7.98473
7.93777
8.10055
7.99699
8.04675
0.89798
7.96758
0.169798
0.715484
8.11112
0.713398
7.99955
0.122419
8.0233
0.934748
7.79836
0.590773
0.934138
0.967783
0.19271
0.123385
0.611916
0.115316
0.192803
3.55092
0.187742
0.390215
0.198345
8.10921
0.375233
1.009
0.194368
0.555214
0.969654
8.10683
7.09404
8.01357
0.623418
8.04311
6.50615
0.123999
8.43219
0.763339
8.0111
8.07556
7.91659
0.39508
0.665145
0.197523
0.919828
0.106948
0.340974
0.336305
0.397775
0.134466
0.332789
0.33737
8.06014
7.92593
8.11355
0.498766
0.360471
7.87708
7.9162
6.61185
0.348573
0.140658
8.03731
0.339207
8.07101
0.808302
0.628528
0.937899
8.05346
8.06725
0.392549
8.05845
0.81051
0.188324
7.69158
0.447943
0.551059
0.0875204
8.01103
0.933943
7.27784
0.761815
0.632167
8.057
8.11146
0.177685
6.01861
8.11581
0.23155
0.104522
8.06443
7.9983
7.23335
0.323809
6.6047
0.500188
0.865857
0.767935
8.06685
7.25036
0.854201
8.06743
7.94706
8.08382
8.045
7.34691
7.8566
7.72366
8.0185
8.00158
7.56345
8.43407
7.78333
0.818252
7.79005
7.01193
6.68757
8.87987
7.12727
8.0676
0.869842
7.56815
7.84201
0.892985
8.27065
8.5886
7.9669
0.867665
8.4095
0.873348
0.924126
0.776368
7.44321
8.03919
0.879224
0.786759
7.9693
8.10267
0.499843
7.37217
0.49717
7.30604
7.93365
7.90221
0.494374
0.493049
8.07675
0.700502
8.07465
7.56438
0.9169
0.282297
0.87362
7.98084
0.499387
7.42387
0.733474
7.90526
8.01343
7.89077
7.21388
0.27577
0.324491
8.0941
0.486914
8.02451
8.03248
8.02347
8.04562
0.82565
0.815681
0.332177
1.14581
8.08451
0.623439
0.499373
0.263534
0.820211
8.02258
0.262124
0.840999
0.434273
0.812703
0.474316
8.05097
0.571554
0.83818
0.504566
0.843438
0.86434
8.03386
0.877611
7.91449
8.07274
0.414495
8.09808
0.63377
8.07949
8.06009
7.78024
8.01886
8.10101
0.822422
8.01399
0.700455
7.46723
7.95657
0.614986
0.824804
0.346832
0.677581
8.11283
1.77797
8.09425
0.73962
8.06091
0.60908
0.81902
0.842229
0.758706
8.08376
8.08993
8.00425
0.284095
7.96602
8.01406
0.280535
7.84568
7.88194
0.853398
8.08299
0.475902
0.797
7.42695
7.65737
7.60259
0.318398
0.530895
8.04345
0.0163445
0.723486
7.2911
0.855379
8.08459
0.281365
0.616735
0.254922
8.03992
0.648885
0.348737
0.877207
0.833267
0.713214
8.05692
8.06225
1.00518
8.0204
7.9034
8.07386
0.281572
0.858891
0.369831
0.519021
7.1809
0.636451
0.499851
0.531186
0.579453
0.654676
0.787694
0.710988
7.91552
7.91371
7.91429
0.725452
7.95488
0.714759
5.77842
0.704371
0.670171
0.276737
0.141795
7.88328
8.0783
0.706267
0.703397
8.08199
7.9191
8.11525
0.304984
0.706383
0.729955
0.731934
0.0935704
0.498978
8.02491
8.09627
8.06531
0.0910302
0.474317
0.00895692
0.547233
0.327757
0.737603
7.97174
8.06516
6.71902
7.88776
0.0982863
0.648278
8.05641
8.0363
8.04889
8.11023
8.08428
7.84595
0.754676
8.0367
0.890796
1.0618
7.87892
0.742869
0.0430348
0.298561
8.12473
7.89406
0.751446
8.05787
0.753746
0.171965
0.323924
7.80682
6.30911
7.90734
8.03806
8.0224
7.75118
2.99315
8.02163
0.770589
0.375968
8.06851
8.06424
0.770308
8.02806
7.93839
0.439368
0.919774
8.00823
8.00653
7.82323
0.18793
8.05914
8.06079
2.17827
0.760987
0.770907
8.04007
7.87743
7.40047
0.769092
0.764495
0.76843
0.556133
7.8957
0.173449
0.0354091
0.0410436
7.93455
8.09679
8.06562
8.06514
8.05937
0.445134
0.449365
0.355845
8.12459
8.08373
8.05766
8.07551
7.89409
0.915546
0.141663
0.0279987
7.86535
8.05474
8.15688
0.328222
0.851201
0.963797
7.94236
-0.55831
8.31333
7.97978
8.06083
0.442232
0.494123
8.02179
8.0308
0.585863
8.06345
0.321422
0.410716
3.53475
8.01695
7.89435
0.32967
0.906187
8.01831
3.36517
0.0881566
0.649446
8.03671
8.02573
8.11548
8.07266
0.10492
0.235928
8.0266
0.915371
0.813155
1.34683
8.04394
8.0242
8.02169
8.02683
0.647486
8.42527
8.0461
7.90871
0.164646
0.712974
0.20104
7.97265
8.1012
0.811166
7.7707
8.06312
8.02793
8.03661
0.467088
7.83612
7.87083
7.88629
0.197524
0.487903
8.0213
8.09128
7.9972
0.55844
8.22352
8.01057
7.99972
8.09485
8.08599
0.975717
0.648987
8.15544
0.517792
0.644011
0.452961
8.11733
8.10713
8.0547
8.07364
7.88113
0.622595
8.04453
7.55267
7.58476
0.810105
7.78633
0.800702
8.05979
7.95552
0.967978
1.42418
7.33027
0.822334
8.04425
0.816653
8.26152
8.02669
8.06536
9.05171
8.02397
0.911108
8.01775
0.539852
7.96342
7.23839
8.09168
8.02032
0.180439
0.782548
7.91214
3.46968
7.98827
0.778163
0.906667
0.76114
7.99492
0.838286
0.735118
0.906436
0.658803
0.649678
0.741259
7.81455
7.88862
0.553388
0.285422
0.755925
8.03619
7.74327
6.75226
4.00214
8.11512
7.87052
8.09302
8.10889
8.12042
8.35689
0.76061
0.938289
0.36856
7.19051
0.97651
8.09278
0.613949
8.06615
8.12197
7.93305
7.83828
0.911751
7.83504
7.98687
8.04248
0.532053
8.04559
8.07776
0.939409
8.0148
6.15465
5.44822
5.15982
8.11118
5.34826
5.20347
5.30507
5.90763
7.89171
7.89199
0.523624
0.775444
7.25965
7.34751
7.89711
0.524614
8.26213
7.92325
0.905737
8.02938
8.05691
0.810453
0.935754
8.08577
7.87423
1.03726
7.24866
7.84761
0.831094
0.568757
0.583261
7.94155
0.571615
8.10116
0.355333
0.801206
0.563852
8.04656
0.805294
0.569659
8.06845
0.253721
8.00371
0.533091
7.68495
0.545219
7.93608
0.900935
8.01451
7.81037
7.96188
-0.134166
-0.128062
8.11149
0.573008
0.949263
8.15968
8.04542
0.422917
0.0311263
1.03569
8.11665
0.59475
0.585588
0.947834
0.419102
8.11983
0.997433
7.89244
0.973063
8.06655
-0.343166
-0.580061
7.99401
0.376844
7.89892
0.9373
7.91252
7.99728
8.02959
8.0833
8.00491
8.05329
0.780627
0.454689
0.965224
8.02369
6.64891
0.973074
8.02674
8.08093
8.03346
8.10531
8.03904
0.03505
8.04682
8.09823
7.8874
0.0279627
8.00282
7.9198
7.69804
0.10768
7.93239
0.0887736
0.487271
0.725413
0.109697
0.0733049
8.28925
8.02476
8.04951
0.140343
0.204461
7.78267
6.61724
0.100521
8.07604
8.10233
0.980314
8.00193
0.584737
8.01942
0.0811825
0.928216
8.02721
7.88995
8.02299
8.09426
8.07312
0.957429
8.01903
0.103595
8.06301
8.03977
0.223872
7.95864
0.613524
7.90639
8.07716
0.785322
0.386114
0.999795
8.09328
8.09537
8.05243
0.383839
0.985074
8.06633
7.91925
7.78784
0.230644
8.01319
0.623632
0.986527
8.03579
8.02263
0.234377
8.06016
7.78616
7.93234
8.06214
7.94643
0.968993
6.53564
7.87577
8.08661
6.67894
8.0237
6.872
7.98392
8.00979
7.93188
0.375827
7.98246
0.23495
7.97351
8.01809
1.1085
0.226383
8.01001
8.01226
8.02546
0.237617
7.04308
8.04577
7.8733
8.02104
0.257752
8.01104
0.961198
8.11566
0.732019
7.2252
0.867253
8.01893
8.07187
0.70656
6.90206
8.02334
0.201699
0.719398
8.12338
8.0934
0.778685
0.863573
0.240091
0.233228
0.224252
0.789335
0.239143
0.89204
8.06311
0.950105
6.64908
6.55181
8.04157
7.99711
8.06955
0.243148
8.11133
8.11332
8.10805
0.941425
0.883455
6.38055
0.803659
8.0994
0.836398
7.84637
0.954323
0.279882
6.71158
0.727695
7.997
7.98567
7.91369
0.282844
0.735644
8.05152
7.94022
0.270412
8.09269
1.01897
8.10372
0.997407
8.06227
7.9136
8.08626
7.91133
0.21193
7.91125
1.42558
7.9636
0.759888
8.0411
8.02537
4.97175
4.6946
8.03989
8.02857
8.0657
8.09896
0.721271
1.00549
5.74716
8.09123
0.741123
7.89756
7.96164
0.782007
0.573846
0.980429
7.91586
0.15419
0.774405
0.401912
0.604982
8.06864
8.11969
8.12344
8.09721
7.91777
7.91152
7.91194
7.97503
7.91592
7.91203
8.05896
7.90999
0.978591
7.91341
8.02375
8.67926
8.09611
8.04215
3.54152
7.89617
8.03108
0.593512
1.02615
7.98711
8.09651
8.05786
0.534783
8.01423
8.05506
1.00412
7.93734
8.0201
8.07174
8.08825
0.960216
7.92785
0.996072
8.08999
8.06258
8.03235
8.04245
8.02504
1.01157
0.987599
0.304587
8.09764
7.86092
8.13249
1.00631
8.01813
0.982982
1.04073
7.93209
8.02112
6.37514
0.790339
7.9945
7.30982
0.800203
6.44779
0.803621
7.98409
0.906751
6.41754
6.01531
8.05949
0.714274
7.93993
0.711268
0.945755
8.01836
0.725267
0.880159
8.06186
0.943831
7.8834
7.99998
8.01594
7.9941
7.98712
7.90488
8.01762
8.10843
0.980031
7.38808
8.04771
8.072
8.01174
8.00961
0.535504
4.68624
1.00831
0.927039
8.01892
0.692238
0.688476
8.05232
7.2935
7.98219
7.99225
8.02406
8.07462
6.80236
7.43207
0.837594
8.03821
8.1151
6.44353
6.90479
7.92017
0.706811
8.00027
7.87601
8.094
0.974428
8.10975
7.89751
0.790607
7.93064
7.95564
7.95603
8.15736
0.796296
8.04049
8.03483
8.02747
8.02432
0.838378
0.990345
0.997453
0.712652
0.882616
0.879786
7.94134
6.9009
1.00689
0.86123
6.89321
1.0106
8.08453
0.220921
7.87733
0.974171
8.05035
7.87431
0.8876
-0.0509451
8.01515
0.859641
8.04819
8.07139
0.968744
0.95386
8.09563
7.90563
8.04266
7.91595
8.02388
7.09687
8.09754
8.06743
0.854735
8.09888
8.05779
8.04125
0.89553
8.02928
7.13302
7.9256
7.90934
7.56024
7.22185
0.894499
7.86749
7.23416
0.53763
8.08729
0.850697
0.856485
8.02747
0.551141
8.0626
7.69888
8.13454
7.11525
7.96696
8.09423
8.11336
8.11622
0.559094
8.10327
8.07929
8.10035
7.93534
8.04577
7.97612
0.971054
8.05997
8.09242
0.941997
8.05255
7.92048
7.99212
0.565369
8.0371
0.909456
7.03823
0.825449
0.0793096
7.91271
6.89762
0.538115
6.66348
7.91401
0.958848
0.815361
-0.00120711
0.912742
0.93454
0.143437
7.99215
7.86235
0.673471
0.990961
0.97119
0.658733
0.838069
7.95712
0.133903
0.66246
0.667514
7.99569
0.666839
0.118042
0.39851
0.632482
0.970944
0.698529
0.176843
0.613087
0.021635
0.300255
0.639658
7.14553
0.0963719
0.0104533
0.713096
0.81827
0.0538571
0.639522
0.035279
7.28477
0.999942
7.2392
0.364526
0.675297
0.809366
0.503798
7.23059
7.91647
0.624181
0.516849
0.974144
0.993933
0.191502
0.668705
5.35257
0.675335
8.05994
1.16356
0.989676
0.916314
0.405925
0.973925
0.961581
0.768144
0.478943
0.466502
0.369992
0.671956
0.141429
6.51649
5.82277
0.675191
8.02701
8.05918
0.640167
0.664042
0.0711668
8.03097
0.910527
0.955796
0.476338
6.00766
8.05944
0.917445
0.0218179
0.987153
8.12003
0.187994
8.07441
0.50465
0.756345
0.889187
0.898824
8.02732
8.06463
0.980842
0.65903
0.672269
8.05859
0.526387
0.660699
0.812797
7.93781
0.485775
0.0589262
7.22486
0.399889
-0.0719487
0.94599
7.82785
0.937243
1.06636
8.0627
0.806537
0.0878873
2.42962
0.80639
0.825405
0.167079
0.73719
0.799233
0.0708772
0.900873
0.953803
0.76801
0.152489
0.676874
0.972412
0.518328
0.807432
0.325092
0.644656
0.983078
0.181609
8.068
0.817223
0.807075
0.9734
0.2262
0.918848
7.87916
0.813892
0.399444
8.06693
0.909906
0.0154121
0.816437
0.790526
0.11291
-0.022491
0.716415
0.777721
0.933871
8.06983
8.05756
0.942911
7.98093
0.94621
0.955192
7.84595
0.115637
0.822633
0.488373
8.10022
0.401908
0.444542
0.917018
0.966951
0.44305
0.204409
0.536204
0.879353
8.05903
7.99818
0.981317
0.859359
0.920061
0.570328
7.99783
0.859652
0.774724
7.84479
0.522005
0.680533
-0.0219003
0.96571
0.890819
0.734741
0.188975
0.582248
7.98655
0.822861
0.422738
0.776902
0.975911
7.99954
0.904845
8.11588
8.05123
0.45116
0.752027
0.483438
1.28605
0.908354
2.42964
7.92518
0.74106
0.787801
0.553434
0.495225
8.02414
7.99498
7.98359
0.496632
0.499771
0.955115
0.396376
7.77413
8.00453
0.486606
0.5517
0.907312
0.499233
0.493607
0.609908
0.868398
4.93406
7.89164
0.744077
0.0713729
8.0032
0.68857
0.599863
1.10122
0.751707
0.589535
0.944424
8.0038
0.517785
0.609323
7.9759
7.79055
0.0605515
0.116439
0.214331
0.102199
0.597801
0.597688
0.17317
0.400751
0.558095
0.0971495
7.99732
7.98824
0.0102423
0.120058
0.590709
1.04182
0.581545
0.549988
0.769596
0.493054
0.575865
7.90628
7.98147
1.02372
7.9938
7.10125
0.620902
0.403387
0.595262
1.01427
7.43119
0.897451
1.05963
7.54984
1.04471
0.95598
0.577427
0.583229
0.0543923
0.670353
0.958512
0.115385
8.0541
7.50062
0.961997
0.204105
0.473888
0.210489
0.880742
0.850247
0.97389
7.52404
0.618323
0.180041
0.530876
1.02618
0.890288
0.95926
0.958191
0.602418
0.15759
7.42908
0.842356
0.596218
3.61052
7.1114
6.63333
0.54892
6.97658
0.0396549
0.533463
0.494887
0.671515
0.920735
5.55131
3.82056
8.20245
6.99236
0.941791
7.91313
7.91301
0.101025
8.05418
0.401941
0.519522
0.492297
0.372387
0.394269
0.672701
6.63905
0.200438
0.0995783
0.842951
0.644096
0.379829
0.604859
7.91967
0.961132
0.370275
0.7062
7.9143
0.797611
0.618428
7.91269
8.01402
0.897478
0.362147
8.11056
0.711754
0.642903
0.896755
8.08805
7.91106
0.0737757
0.946993
0.678419
7.91586
7.95428
7.91271
0.76395
3.38984
3.1746
0.239773
0.819103
8.12026
0.259587
0.836136
0.550454
0.0841344
0.0681639
0.274668
0.765512
0.0832918
8.03382
0.279356
0.171644
0.0356216
0.449016
0.115639
0.123448
0.117734
0.130624
0.0491774
0.944589
0.852225
0.600616
0.910929
0.974444
0.785317
0.115041
0.86189
0.126853
0.0438981
0.331798
0.22302
0.921627
0.216813
0.866422
0.24007
7.7014
0.610802
4.48725
0.457901
0.663416
7.97688
0.807513
7.70258
0.694236
7.72812
8.01723
0.503787
0.822824
7.1539
0.201845
0.502232
0.82422
8.00562
8.09413
0.992164
0.26675
0.96674
0.454466
0.173433
0.801995
0.996132
0.775033
0.812062
6.78867
0.60466
7.92269
8.00504
0.358772
0.266146
1.02056
0.347881
0.238741
0.820448
0.835656
7.91808
0.970041
0.216992
0.80067
7.92705
8.11142
0.605988
0.700111
6.48596
0.92148
0.0439249
0.720584
-0.0585134
0.200243
0.465496
8.015
5.13769
0.374851
0.969705
8.0489
0.367029
0.918139
0.745349
1.08655
0.369551
1.05627
0.605865
0.961488
5.41406
0.976211
8.03954
0.692206
0.820776
0.186024
0.0182213
6.92328
0.0240339
0.967279
0.782547
0.913455
7.61114
7.91227
0.397733
0.960244
0.791618
0.687812
0.915781
0.286839
0.0693645
0.523955
0.0935332
0.058434
0.920493
7.31801
0.995252
0.766323
0.00438981
0.902899
7.48414
7.88621
-0.836059
0.995837
8.28678
0.976486
0.848981
7.54508
5.55713
5.88237
0.813838
0.365165
1.31973
6.22164
0.888598
0.420066
7.75887
0.277636
7.12327
0.742706
0.290625
7.98013
0.053955
0.919642
0.916269
0.264252
7.89885
0.912064
0.867205
0.943411
0.923109
0.962612
0.965494
0.848397
0.99967
0.864467
0.16116
0.371103
8.01196
6.81228
6.83693
7.85851
0.785372
0.428128
0.385879
0.889811
0.223862
0.386998
0.717072
0.826344
0.792211
0.281975
0.856865
0.873523
0.761033
0.217564
8.04396
0.901075
0.883079
0.810287
0.863975
7.75605
0.493522
0.499004
0.7062
0.682413
0.554566
7.87035
0.559011
0.552623
7.11251
0.569494
0.769464
7.85631
0.547056
7.84565
7.99096
0.482429
0.79394
0.777379
0.552383
7.88447
0.113292
0.8399
7.99343
0.466931
0.571425
0.47661
0.786895
7.87875
0.81913
0.821073
0.754448
7.90227
0.424704
0.165382
0.752845
0.353417
0.428844
8.12315
7.7024
7.34594
0.0508457
7.46177
0.400224
0.323023
0.122049
8.02575
0.132273
7.86217
8.04485
7.99375
0.485099
0.000668979
0.959241
0.755375
0.432217
7.67359
7.12189
0.915995
0.898197
0.343248
0.942395
0.427
0.813192
8.0436
6.1312
6.24237
7.90171
6.30361
0.030758
8.05779
0.407531
0.705677
0.428857
0.0915105
0.50171
6.70135
0.32176
0.71
0.821321
0.948158
6.73866
8.03796
0.849358
0.331819
0.919369
0.712332
0.979942
0.98088
0.912961
0.969771
0.287184
0.0643489
0.278134
0.457734
0.257716
0.72048
0.764149
0.183204
0.258566
0.970437
0.656069
0.72123
0.325024
0.0574435
0.169915
0.948341
7.99233
0.234363
-0.590225
0.115071
0.0742008
0.0201482
0.721271
0.567846
-0.755179
0.07842
1.00338
8.04945
0.404763
0.516631
0.58991
8.02409
0.438575
0.249508
0.0808132
0.538423
8.11713
8.04318
0.774195
0.158046
0.167351
0.0340779
7.95962
8.07006
7.94446
0.597678
0.716335
0.150413
8.07065
0.400986
8.04588
8.06261
0.085042
0.0625572
7.86696
0.154382
0.164247
0.00558834
7.98401
8.09085
0.267602
0.723669
8.05302
0.134873
0.162734
0.0672714
8.09682
8.10208
8.07528
0.0623313
0.134149
0.921512
0.159964
7.97273
0.122328
0.675405
0.920032
0.857263
7.8203
8.03393
0.159921
0.958315
0.935862
0.511121
7.81899
0.96435
7.92186
0.186388
0.986152
0.68152
7.86713
7.34898
0.959807
1.01737
7.22165
7.26254
7.92592
0.481448
7.70966
6.95494
0.703925
0.693349
7.92499
7.1202
0.611641
0.163453
0.147042
0.481702
0.407767
7.22356
0.724932
6.71449
6.57076
8.02197
0.497139
0.795942
0.133994
6.60688
8.49595
0.704266
0.985109
0.75127
0.802626
0.632196
0.568509
0.631177
0.170571
6.50277
0.671826
0.498429
0.165951
0.478918
0.78619
4.99109
0.457126
0.462456
0.462638
0.461894
0.175133
6.32468
7.4076
0.533823
7.45633
7.53377
0.634732
7.47052
0.400098
7.32267
7.3989
7.88317
7.14301
0.512588
0.183187
0.51119
7.30313
0.264988
0.487572
0.65697
7.40822
8.06795
0.519655
0.540799
0.995123
0.517433
7.11343
0.00407442
0.149898
0.104422
7.88375
7.92097
0.315469
0.264825
7.94717
7.43223
0.891177
0.0113583
7.29049
0.97319
0.879679
0.888587
0.565853
7.36017
0.634615
2.05414
0.0891058
0.0958026
0.911003
0.87434
0.833564
0.35825
0.655101
7.21454
0.724
0.652245
0.961853
0.947688
0.892767
7.3884
0.444536
0.665501
0.386706
0.552599
0.657035
0.949276
0.157916
0.917871
0.842224
0.902066
0.276927
0.903058
0.95852
0.643908
0.787868
8.05962
0.783775
8.11571
0.643317
0.666632
0.902039
0.930975
0.907308
0.648356
0.655417
0.950244
0.511954
0.192436
7.87029
6.23826
0.935329
0.945103
0.759513
0.952685
0.995908
0.942276
1.00152
1.07621
6.46716
0.1788
1.09489
-0.444284
6.69755
0.0362295
6.28125
0.497628
0.637452
0.866546
0.474387
7.99233
0.631129
0.954916
-0.184165
7.9156
0.980758
0.162617
0.840127
0.978592
0.990848
6.31911
7.90901
0.467334