/*--------------------------------*- C++ -*----------------------------------*\
  =========                 |
  \\      /  F ield         | OpenFOAM: The Open Source CFD Toolbox
   \\    /   O peration     | Website:  https://openfoam.org
    \\  /    A nd           | Version:  10
     \\/     M anipulation  |
\*---------------------------------------------------------------------------*/
FoamFile
{
    format      ascii;
    class       volVectorField;
    location    "8";
    object      U;
}
// * * * * * * * * * * * * * * * * * * * * * * * * * * * * * * * * * * * * * //

dimensions      [0 1 -1 0 0 0 0];

internalField   nonuniform List<vector> 
111485
(
(1.37145 -1.37113 0.000531089)
(3.96843 -0.00845864 -0.0212017)
(3.91177 0.0101701 0.0118523)
(1.37074 -1.37121 6.16413e-05)
(4.05734 0.018419 0.00102238)
(1.41403 1.413 -0.00020104)
(3.98788 0.0109605 0.00336445)
(4.10062 -0.00992086 0.00563862)
(3.98924 -0.00291791 0.0025938)
(4.08593 -0.041704 -0.0166727)
(3.93392 0.0090266 0.0107883)
(4.10945 -0.00895432 0.0182824)
(3.87773 0.00312196 0.0102972)
(3.91977 -0.00836156 -0.0266503)
(3.96719 0.0153001 0.00869046)
(4.05312 -0.0266731 -0.0175973)
(4.00864 -0.000803476 0.00481267)
(1.41402 -0.120336 0.215531)
(4.06047 0.0110197 -0.00827807)
(1.36806 -1.36648 -9.0603e-05)
(1.36923 -1.36891 -0.00134144)
(1.41523 1.41513 0.000135063)
(4.02005 0.0125854 0.000416534)
(4.08988 -0.0244301 -0.0082167)
(4.02448 0.0160845 -0.00275726)
(1.38072 -1.37571 -0.00159205)
(4.12575 -0.0166104 0.019318)
(3.92907 -0.00473178 -0.000464116)
(4.07592 0.00532132 -0.00980504)
(1.36914 -1.36927 0.000235338)
(4.12783 0.0667215 -0.0174707)
(4.06308 -0.00505456 0.00118751)
(1.36486 -1.3674 0.00190621)
(1.41505 1.41779 -0.00313009)
(1.42449 0.584211 0.227773)
(1.42362 1.43333 -0.0209629)
(4.10648 0.0657104 -0.0269398)
(3.96192 0.00705802 0.0342991)
(4.07158 1.23192 0.0695455)
(4.06919 0.0186599 0.0022266)
(1.39854 1.41142 -0.0107092)
(4.10681 0.00742208 -0.0241323)
(4.06913 0.0198211 0.00720358)
(3.92081 -0.022427 0.000686159)
(4.10572 -0.0718361 -0.0380121)
(1.372 -1.36089 0.0046018)
(4.10699 -0.0190345 0.0182592)
(4.0837 -0.0234125 -0.00703106)
(4.10812 0.000602919 -0.0195115)
(1.3619 -1.34472 0.00687634)
(1.36013 -1.347 0.00823373)
(1.60996 1.352 0.0243926)
(1.35438 -1.34994 0.00462586)
(4.1051 0.0188741 -0.0324536)
(1.35129 -1.34646 0.000867848)
(4.04761 0.00930396 -0.00399938)
(4.05379 -0.0159654 -0.0083654)
(1.416 1.4139 0.00102979)
(3.71316 -0.00832703 -0.0625315)
(4.07383 0.0170663 -0.00162272)
(4.07263 0.0183277 -0.000423479)
(1.36714 -1.36991 0.00160941)
(3.80441 0.0037116 0.0235842)
(4.12866 -0.0106457 0.0316995)
(1.46559 1.3275 0.00321862)
(3.74825 0.00698685 -0.00723046)
(2.87191 -0.238832 0.101971)
(4.08205 -0.0125975 0.00490095)
(3.70977 9.68633e-05 0.0139809)
(3.53832 -0.00643594 0.00145131)
(3.94704 0.0362501 -0.0172868)
(3.6769 -0.00988841 0.0176878)
(1.48191 -1.33749 -0.0301618)
(3.7643 0.00599606 0.0275721)
(1.3707 -1.37018 -0.000251802)
(4.06555 -0.00689896 0.00961378)
(1.41506 1.41522 -0.000489392)
(4.10174 -0.00841334 0.0206361)
(1.41473 1.41412 7.38014e-05)
(1.28091 1.25038 -0.0421305)
(3.96504 -0.058723 0.038946)
(4.10048 0.0166833 0.0024231)
(1.41285 1.4117 0.000203895)
(1.37082 -1.37063 0.000520263)
(3.85666 -0.00103744 0.00769107)
(3.71581 0.00968035 -0.0153118)
(3.16527 2.05168 -0.552607)
(4.05454 0.0484881 0.00516714)
(3.90971 0.100257 0.0849269)
(3.9586 0.00726869 0.00702056)
(4.1787 0.0797053 -0.0519709)
(4.05373 -0.00712607 0.00615807)
(3.81356 -0.0068015 0.010493)
(3.90862 -0.000606907 0.00240027)
(4.10909 0.0117059 -0.0219723)
(1.37099 -1.37022 -0.000186402)
(1.37019 -1.36992 0.000703285)
(4.0523 0.0452935 0.0150299)
(4.1865 -0.82781 0.0572206)
(3.80365 0.0126598 0.0233409)
(1.37109 -1.37075 0.000805587)
(4.06582 -0.0208527 0.00176971)
(1.42244 1.42521 0.00775241)
(4.03578 0.000326941 -0.00332809)
(4.0073 -0.0174303 -0.0222794)
(1.38785 1.24069 -0.0291663)
(1.4152 1.41494 -0.00024011)
(4.06816 -0.00798075 -0.000959547)
(3.77541 -0.0203451 0.00369491)
(3.61217 -0.106435 -0.110802)
(3.86123 7.69087e-05 0.00304333)
(4.04222 0.00563596 -0.00241387)
(3.78341 -0.00261056 0.0138249)
(3.72671 -0.0180293 0.00730306)
(1.38273 -1.37576 0.000796004)
(3.62751 -0.00243962 0.00880761)
(1.37597 -1.37163 -0.00168038)
(1.42259 1.41668 0.00581659)
(3.98184 0.013556 0.0112391)
(1.37082 -1.37007 0.000476844)
(1.38097 -1.37535 -0.00124454)
(1.86699 1.46678 0.089629)
(1.40524 1.41208 -0.00230533)
(1.41938 1.41586 -0.00328435)
(3.89381 -0.00841627 0.0170076)
(1.10264 -0.782013 -0.202715)
(1.78029 1.53022 0.0540013)
(3.65707 -0.000886706 0.0134269)
(1.37087 -1.37007 -0.000666025)
(4.08724 0.299489 -0.110567)
(4.0905 0.0754372 -0.0412302)
(4.04466 0.0464975 0.0159408)
(1.36705 -1.36298 -0.00650342)
(1.8276 1.59017 0.161783)
(1.70693 1.52265 0.0720857)
(4.07326 0.0118405 -0.00709437)
(1.41608 1.41598 -0.000443167)
(4.04648 0.00773127 0.000644293)
(4.02781 0.0115356 0.00956832)
(3.96698 0.0166099 0.0175529)
(3.14636 0.000473045 0.0128532)
(4.06411 0.020979 0.00459315)
(4.03112 0.0222346 0.0144895)
(3.84581 0.0019964 -0.0151695)
(4.01207 -0.00754427 0.00303561)
(3.9547 -0.00450221 0.0061416)
(1.41582 1.41654 -0.000406841)
(1.37057 -1.37084 0.000270965)
(1.41304 1.41371 0.00263517)
(4.05384 0.0173385 0.00147102)
(3.84894 0.00452507 -0.0140153)
(1.36951 -1.36854 0.000244408)
(2.66992 -0.0140917 0.0257573)
(3.96582 0.0151381 0.0106317)
(4.33862 0.167351 0.0771366)
(4.07383 0.0111259 -0.00777457)
(4.05305 0.0124384 -0.00277508)
(3.79008 0.00189911 -0.00610452)
(4.37319 0.208024 0.0521434)
(1.36369 -1.37628 0.00560811)
(1.36874 -1.37019 0.00115122)
(4.06429 0.010954 -0.00893494)
(3.98722 -0.0129224 -0.0141478)
(4.40092 0.235568 0.0565243)
(4.3387 0.206525 0.0780187)
(3.79802 0.00514968 0.0170961)
(4.06411 0.0472104 -0.0178586)
(1.39872 1.41048 0.000310311)
(4.45519 0.291451 0.069762)
(4.24588 0.20574 0.0633358)
(1.41484 1.41513 0.000734379)
(1.36905 -1.36897 0.000280708)
(3.31432 0.004987 -0.0245289)
(1.41564 1.41633 0.000218541)
(4.02718 -0.00579589 -0.000401975)
(3.89844 0.00123698 -0.00669232)
(1.41567 1.38224 -0.00729967)
(1.4785 -1.3592 0.0126544)
(1.37369 -1.3671 -0.00222606)
(1.393 1.31475 -0.0131759)
(1.48866 -1.37194 0.0235876)
(1.36833 -1.36986 0.00114857)
(4.04916 0.0146374 0.00396126)
(4.04567 0.00939918 -0.00734306)
(4.03373 0.0107209 -0.00434764)
(3.99525 -0.0179261 0.0159543)
(3.85242 -0.00895 0.00383054)
(3.86325 0.00598626 0.0112766)
(3.44748 0.039361 -0.00106703)
(1.37015 -1.36516 5.14058e-05)
(3.76255 -0.000384551 0.00341492)
(1.47614 -1.3705 0.0137304)
(1.38201 -1.38439 -0.000463293)
(3.89722 0.00712912 0.011665)
(4.08778 -0.0470958 -0.0166864)
(4.05102 0.00890896 -0.0179529)
(3.90573 -0.00246991 0.0036102)
(3.948 0.00062847 0.00481906)
(1.36819 -1.36538 0.00328225)
(3.89258 -0.0149877 0.00687251)
(3.88023 -0.0049873 -0.0214494)
(2.7038 0.851516 0.114193)
(3.97181 -0.0303281 0.00318423)
(4.02348 -0.00357997 0.00286716)
(1.37549 -1.36854 -0.00227982)
(3.88208 0.00923506 0.0116895)
(4.0613 0.00907799 -0.000821417)
(1.4995 -1.35591 0.0049095)
(3.90653 0.00929463 0.0134281)
(4.09671 -0.00712537 0.0175852)
(3.84586 0.00211034 -0.0158519)
(3.87223 0.00848604 0.0155729)
(1.48648 -1.37616 0.0181448)
(1.36978 -1.37006 -0.000501803)
(3.87288 0.00848074 0.0160347)
(2.52852 1.58184 -0.156583)
(4.14035 0.0175624 -0.0380957)
(1.41514 1.41567 -0.00108434)
(3.89488 0.00593866 0.0135888)
(3.88111 0.00300937 0.0032664)
(4.116 -0.0124336 0.0254948)
(1.3722 -1.37131 0.000831036)
(3.67385 -0.000137669 0.0078929)
(4.08049 0.057577 0.0287139)
(2.2327 1.49515 -0.163845)
(1.41591 1.41559 -0.000718525)
(1.41485 1.41517 0.000540063)
(4.16991 -0.0229996 0.0379273)
(3.89469 0.0889099 -0.00960019)
(1.49079 1.25709 -0.0285863)
(1.69866 -1.31871 0.0509856)
(3.89761 0.002279 0.00648477)
(4.01329 0.00710189 0.000976349)
(4.07494 0.00978271 0.00284079)
(1.47118 1.28021 -0.0368652)
(1.44994 -1.33839 -0.00541686)
(3.92916 0.0457093 -0.0530223)
(1.37065 -1.37041 0.000887377)
(3.73727 0.00366769 -0.0215114)
(3.85779 0.00219558 0.0132602)
(3.89583 0.00143024 0.0104137)
(3.9046 0.00689952 0.00915827)
(3.91781 0.00614591 0.00894528)
(1.41147 1.41155 0.00491714)
(2.98216 -0.00860126 -0.111485)
(3.97088 0.00811895 0.0133026)
(1.4088 1.41186 -0.00249329)
(1.41456 1.41551 -0.000411222)
(4.13987 -0.0468128 -0.00411335)
(4.04146 0.0171423 -0.0062552)
(1.45106 1.23693 -0.0387781)
(3.73026 -0.00497504 0.00459256)
(3.95724 0.00904132 0.00894623)
(1.37094 -1.37044 -0.000508738)
(1.79515 1.69113 -0.0113557)
(4.07994 0.0370406 -0.0165088)
(1.37443 -1.35746 8.61288e-05)
(1.5172 -1.08248 -0.0262732)
(2.0893 -0.738668 -0.0729714)
(1.37155 -1.36797 -0.000360346)
(3.97463 -0.00535593 -0.00538111)
(3.87464 -0.00758389 -0.00654454)
(4.0257 0.00384686 -0.0103501)
(1.37009 -1.37021 -0.000255418)
(3.98967 0.0103883 0.00792348)
(1.37109 -1.37131 -0.000211343)
(1.3708 -1.37195 0.000400262)
(1.36857 -1.36356 0.00239192)
(2.77066 0.00954078 -0.0395393)
(4.09603 -0.0183487 0.0216765)
(3.914 0.0136243 0.0182992)
(3.97562 0.0118419 0.00971033)
(4.12399 -0.0225427 -0.00111967)
(3.95508 0.00880238 0.00878488)
(4.05676 0.0143858 0.00533106)
(4.08822 0.065611 -0.00634258)
(3.98922 0.00549736 -0.000910797)
(4.02178 0.00628179 0.000956993)
(1.43861 1.41476 -0.00123338)
(1.36874 -1.36888 -0.00140453)
(2.53719 0.0143744 -0.0603894)
(4.0422 -0.00681034 0.00222649)
(4.09946 0.0314209 0.0352496)
(3.8677 -0.00399444 -0.00365129)
(1.37087 -1.37016 0.000848985)
(4.03848 0.0122083 0.00750826)
(4.0617 0.0201764 0.00935106)
(3.96649 0.00643758 0.00637752)
(3.52493 -0.00276806 -0.0174946)
(3.67122 -0.0415718 -0.0893318)
(4.02362 0.0127182 0.00213166)
(3.95898 0.00964206 0.00860373)
(4.04673 0.0309814 -0.0189669)
(1.41608 1.41667 0.00110788)
(3.72302 0.0180362 -0.000557033)
(1.41479 1.4154 -0.000455771)
(1.15218 0.876266 -0.184688)
(1.54104 -0.992931 -0.0988192)
(4.19494 -0.0374345 0.0536286)
(4.1246 -0.0222274 -0.000900654)
(4.02595 -0.00136979 -0.000319218)
(1.37269 -1.36943 -0.000885483)
(1.41087 1.41873 0.0111853)
(4.03 0.012415 0.00725233)
(3.88845 0.00452108 -0.00432084)
(1.37026 -1.36933 -0.000306987)
(1.37149 -1.37041 0.00130912)
(1.34239 -1.34961 0.00974258)
(3.8619 0.0040447 -0.00140508)
(4.00823 0.00136118 -0.0044445)
(3.83972 0.00057158 0.0126724)
(3.72283 0.00451973 -0.0160933)
(4.08667 0.0095643 -0.00870432)
(1.62377 1.39462 0.0369088)
(1.41267 1.41597 0.00271362)
(1.37092 -1.36889 -0.000542596)
(4.01795 0.0132325 0.00969929)
(2.62023 -2.21944 -0.157868)
(3.84466 -0.00379318 0.00366473)
(4.16852 -0.0287629 0.0881879)
(3.37388 0.00240237 -0.0667012)
(1.41493 1.41594 -5.14374e-07)
(1.36965 -1.37068 0.000778332)
(1.3704 -1.37116 -0.000630586)
(1.78793 1.49891 0.0924112)
(4.05969 0.0119327 -0.000378433)
(4.10053 -0.021507 0.00321331)
(1.41882 1.4224 0.000503994)
(4.02804 0.00929916 -0.0011901)
(1.49629 1.2099 0.0862363)
(1.37802 -1.36178 -0.00152193)
(4.13821 -0.0134434 0.0330845)
(4.02181 0.0126505 0.00620927)
(4.12067 -0.00454681 0.0104915)
(4.03081 0.00979785 -0.00193589)
(1.36516 1.21057 0.0740027)
(1.77032 1.52173 0.0983128)
(1.41302 1.41452 -0.00231491)
(4.02481 0.0121992 0.00553756)
(4.01881 0.00838915 0.000499508)
(4.11291 0.0721373 -0.0243741)
(1.40359 1.40003 0.00327476)
(2.81024 2.48879 -0.59623)
(3.85258 0.0361802 0.0319055)
(4.09773 -0.0177653 0.00955949)
(4.03925 0.0141602 0.00894403)
(3.83878 0.388242 -0.0312673)
(4.08438 0.00932129 -0.00993994)
(1.41295 1.41253 0.000211095)
(4.08783 0.0108455 -0.006706)
(3.93063 0.00406853 0.00704796)
(4.1438 -0.0932971 0.0004082)
(4.14948 -0.0241971 0.048428)
(4.01499 -0.0292686 -0.0253999)
(1.41063 1.41725 -0.00532173)
(1.36864 -1.36976 -0.00220586)
(1.41857 1.41044 0.0053556)
(1.36236 -1.36603 -0.00050856)
(4.09339 -0.0181478 0.000580673)
(4.07063 -0.00442049 0.00148286)
(4.05446 0.0164943 -0.0134745)
(4.08163 0.0107873 -0.0120429)
(1.40655 1.40818 -0.00579267)
(4.04589 -0.0255556 -0.00820507)
(1.41398 1.41457 0.00118383)
(1.36528 -1.3693 -0.000253171)
(4.08356 0.0111458 -0.00879579)
(1.26658 -1.26796 0.018493)
(2.25805 -0.415765 -0.0302089)
(1.35569 -1.35062 0.000935739)
(1.42808 1.4094 0.0113102)
(4.04041 0.00610672 -0.00484611)
(1.41526 1.41452 0.0005905)
(4.00052 0.00685881 -0.00197167)
(3.81789 0.0016393 -0.0162229)
(1.41666 1.41649 -0.000353624)
(3.69656 -0.0017007 -0.0169148)
(3.97632 0.00554663 0.00593057)
(1.42516 1.24918 -0.0470617)
(3.96996 0.0183918 0.018224)
(3.76869 0.0171088 -0.00255323)
(3.98984 0.0187155 0.0063524)
(3.72337 0.0145929 0.0464256)
(4.02175 0.00900328 0.00224031)
(3.85631 0.0014072 -0.00481973)
(1.3954 1.19189 -0.00531533)
(1.36806 -1.36515 0.0076747)
(3.46478 0.00792005 0.0813614)
(1.40645 1.41084 -0.00802833)
(3.98948 0.0191913 0.0194072)
(4.14123 -0.0204041 0.0394681)
(1.42657 1.36334 0.0115353)
(1.41255 1.41845 -0.000769191)
(4.08248 -0.00593486 0.00310136)
(3.93495 -0.0175247 -0.033175)
(3.94486 0.0185122 -3.87469e-05)
(4.10341 0.0103874 -0.00255566)
(1.41539 1.41396 -0.000166298)
(4.15941 -0.0109843 0.0642996)
(4.08935 -0.0121917 0.0187407)
(1.41827 1.41561 -8.02551e-05)
(4.0222 0.061479 0.0500885)
(3.83625 -0.0147839 -0.0366763)
(1.37014 -1.369 -0.00037611)
(1.36996 -1.36931 -0.000343278)
(3.99609 0.00913987 -0.00318444)
(4.01758 0.00359008 -0.00525564)
(1.42191 1.42204 -0.00188039)
(1.37249 -1.36943 -0.00170237)
(2.40916 -1.30462 0.293883)
(1.37056 -1.37126 0.000470001)
(4.02113 -0.00342156 0.00958401)
(1.4077 1.41278 0.00289669)
(1.37069 -1.37133 0.000162726)
(4.12163 -0.00393362 0.0133967)
(3.73893 -0.0438371 -0.104838)
(4.07814 -0.0201946 0.00406797)
(3.93615 -0.000768632 0.00721858)
(1.41722 1.41579 0.000228203)
(1.83997 1.41741 0.0695726)
(3.94115 0.0492528 0.0764711)
(1.72411 1.52132 0.0810363)
(3.92631 0.0176271 0.0298207)
(3.90848 -0.0291955 0.00298876)
(4.0727 -0.0126236 -0.00961973)
(2.84202 0.0800029 0.101702)
(1.69385 1.45876 0.0727643)
(4.07151 0.00447655 -0.0385668)
(4.13517 0.126148 -0.0391208)
(1.36924 -1.37138 0.00222776)
(4.11217 0.0103856 -0.0383449)
(4.11414 -0.0187163 0.0142029)
(1.3726 -1.37213 0.00162195)
(3.97038 0.219576 -0.122479)
(3.49827 -0.00056556 -0.0458025)
(1.78963 1.40487 0.0586634)
(4.09195 -0.00732368 0.0142285)
(4.0474 0.00579573 -0.00573726)
(4.0235 0.0081957 -0.00238644)
(1.41563 1.41347 -0.000492611)
(4.01272 -0.00921175 0.0272653)
(4.1155 -0.00114099 0.0121892)
(3.99679 0.0358568 -0.00443154)
(2.52523 -0.0349919 0.0410289)
(1.72474 1.62714 -0.0342179)
(2.37872 -0.0604744 0.08042)
(1.36953 -1.37123 0.00112696)
(3.71644 -0.120075 -0.116771)
(4.01419 -0.00982074 -0.0266865)
(1.416 1.41537 0.00174857)
(3.82781 0.00802001 -0.0270925)
(3.17273 -0.00782495 0.0556745)
(1.83932 1.62534 -0.0167889)
(1.37082 -1.36999 0.000327054)
(1.60324 -1.36264 0.0426746)
(1.37045 -1.36984 0.000319858)
(4.00883 0.0281953 -0.000553511)
(4.02428 0.0180506 -0.00653162)
(3.98479 -0.0112819 -0.0104169)
(3.76086 0.00789255 -0.0183029)
(4.0831 -0.0806687 -0.0155109)
(1.41485 1.40928 -0.00285776)
(3.96462 -0.000300967 -0.00710203)
(1.37426 -1.36395 0.000144403)
(3.92274 0.0141405 0.00940686)
(1.41963 1.41954 -0.000500524)
(1.37005 -1.36924 -8.00584e-05)
(1.35945 -1.36337 -0.00200891)
(3.86203 -0.0233923 0.00551122)
(1.36726 -1.36852 -0.000590463)
(1.37129 -1.37122 0.000625767)
(1.39586 0.922547 -0.0605813)
(1.37109 -1.37192 0.000370844)
(1.40134 1.42081 0.0130923)
(3.95223 -0.0139564 -0.006117)
(1.41626 1.41416 0.00021143)
(1.67815 1.23839 0.00132702)
(1.41693 1.41653 0.00155864)
(1.36901 -1.36495 -0.000786047)
(1.41626 1.41253 -0.00109897)
(1.36693 -1.35968 -0.00689941)
(1.41127 1.41205 0.0001214)
(3.62045 -0.00264214 -0.0272669)
(1.41857 1.41141 0.00592098)
(3.7037 0.0513533 0.0729942)
(4.03887 0.00503353 -0.000476789)
(4.16737 -0.163923 -0.0272454)
(1.41613 1.41079 -8.63965e-05)
(3.52779 0.0108192 0.0558545)
(1.4185 1.4136 0.00169656)
(1.37092 -1.37158 -0.000704914)
(3.98733 -0.0375303 -0.0407718)
(3.98745 -0.0307091 -0.0311563)
(3.98716 -0.00717212 -0.0109187)
(4.17343 0.0106111 -0.068114)
(1.62863 1.36732 -0.0441674)
(4.07859 0.00284923 -0.0204079)
(4.07824 0.0030684 -0.0184889)
(4.02735 0.00552921 0.000166615)
(3.98201 0.00323102 0.000298613)
(4.04811 -0.039981 -0.0251741)
(1.36801 -1.36847 -0.0005249)
(4.03283 0.00443238 -0.00065641)
(1.85519 1.61417 -0.0114871)
(4.02226 0.0121626 -0.0034174)
(1.41539 1.4147 -0.000182292)
(4.09524 0.0108563 -0.0210656)
(1.83429 1.52125 0.0141662)
(4.0325 0.00167373 -0.00571298)
(4.05093 -0.0179612 0.0142972)
(1.57918 -0.801764 -0.00706145)
(1.41764 1.41936 0.0153269)
(3.98637 0.00533651 0.00730199)
(1.37044 -1.36951 -5.15927e-05)
(4.11263 0.0161437 -0.0240743)
(4.08395 0.0168999 -0.0177034)
(1.415 1.41157 -0.0116987)
(1.41328 1.41304 0.00321147)
(1.3866 1.23908 -0.0357419)
(1.41464 1.41604 0.000596631)
(2.85616 -0.152445 0.0791368)
(4.11372 0.0141074 -0.0237143)
(1.43377 1.39967 -0.00155159)
(1.41325 1.41544 0.00140695)
(3.55669 0.00262947 -0.00966976)
(1.41538 1.41587 -0.000325935)
(4.05379 0.0136406 -0.0132089)
(1.41526 1.41497 0.000718865)
(4.01295 -0.0238172 -0.0149552)
(1.3713 -1.37109 0.000524611)
(3.7778 -0.018889 -0.053639)
(3.15514 -0.0113411 0.00300947)
(3.79837 0.00930964 -0.00798106)
(4.03363 0.00311968 -0.00699854)
(1.42458 1.41322 -0.00395278)
(3.71702 0.00447337 -0.00429396)
(1.41856 1.41329 0.00118225)
(1.41602 1.41638 -0.00376441)
(3.99286 -0.013091 -0.00621902)
(1.41584 1.41477 -0.000439777)
(3.43704 -0.000199012 -0.0337224)
(1.37015 1.25997 -0.0394464)
(4.05686 0.013419 -0.011862)
(1.37008 -1.36987 -0.00014811)
(4.08634 0.00764853 -0.00880926)
(1.37115 -1.37001 -0.000164132)
(1.68128 1.4873 0.0424761)
(4.15132 0.146989 -0.0106331)
(3.98066 -0.0321049 -0.040194)
(4.03416 0.0160566 0.00136535)
(4.07136 -0.0444524 -0.02903)
(4.01841 0.00817406 -0.00278349)
(4.11732 -0.0246165 -0.00435185)
(1.40683 1.41795 -0.00655121)
(4.03142 0.0223354 0.0109211)
(3.99702 -0.0350065 -0.038027)
(1.41527 1.41581 -0.000904028)
(3.40206 -0.0438381 -0.1438)
(4.12803 -0.0287726 -0.0202851)
(3.96367 0.0152829 0.0156245)
(1.40293 1.38311 -0.00819568)
(1.75228 0.34052 -0.278222)
(3.88286 0.0102303 0.0119314)
(3.20421 -0.0132289 0.0314545)
(3.28757 0.839467 -0.00501643)
(1.77213 -0.908785 -0.072997)
(4.10097 -0.0460769 -0.00948114)
(3.86346 0.0145689 0.0269806)
(3.98086 -0.0364255 -0.0388931)
(4.04681 -0.0218218 -0.00914625)
(3.99173 0.0225689 0.0107093)
(3.53385 0.449084 -0.0235308)
(1.75231 1.48501 0.0119488)
(3.60104 -0.136092 0.0311518)
(3.48747 -0.313398 0.0680199)
(1.36897 -1.36964 0.000454197)
(3.57302 0.0227404 -0.010646)
(1.42313 1.39677 -0.00708824)
(1.66409 1.51153 0.0141475)
(4.00502 0.00604689 -0.000665856)
(3.56046 0.593741 -0.0198444)
(4.29795 -0.366577 -0.0689398)
(3.87705 -0.673035 0.0134349)
(1.66007 1.57737 -0.116131)
(4.08035 -0.023632 -0.00745647)
(4.03994 0.0229872 0.0178519)
(1.41259 1.40865 -0.000215391)
(1.82458 1.00596 -0.0416798)
(4.04178 0.0291635 0.0178688)
(1.36959 -1.36516 0.000928707)
(1.41514 1.41483 -5.83644e-05)
(1.41387 1.41357 0.000315493)
(1.41664 1.40865 0.00132573)
(4.08212 -0.0403355 -0.0175942)
(1.41555 1.41532 0.000772133)
(1.3764 -1.3762 0.00717021)
(4.00992 -0.024099 -0.0194939)
(3.73734 0.000438222 -0.00907207)
(2.01325 -1.7644 -0.0924655)
(4.04238 0.0284325 0.0171314)
(1.64702 1.328 0.0302429)
(4.04937 -0.0124334 -0.00708726)
(1.34826 -1.34781 -0.00613886)
(1.41264 1.41543 -0.000749637)
(4.0692 -0.0245933 -0.00755678)
(1.41599 1.40799 -0.0053368)
(1.41504 1.41188 0.000587397)
(1.62427 1.55576 0.0460097)
(3.86618 -0.00299107 4.61112e-05)
(2.34015 1.9592 -0.259502)
(4.013 -0.0163931 -0.00765413)
(4.00368 0.00585778 -0.00199966)
(1.3607 -1.35183 -0.0107498)
(4.17605 -0.0136108 0.12961)
(3.82601 -0.0222233 -0.0541858)
(3.99565 0.000741207 -0.00238064)
(4.06305 0.0721278 0.00968853)
(4.07177 0.0390025 -0.0861012)
(3.54177 0.000492157 -0.0311269)
(1.41412 1.41358 0.000903075)
(4.07464 0.00203024 0.0113232)
(4.04522 0.0162954 0.000579308)
(1.35838 -1.3761 0.00245981)
(3.80677 -0.00108454 -0.00177454)
(4.09297 0.0258761 -0.00618605)
(4.08074 0.0186248 -0.0058781)
(3.75627 -0.0168452 -0.03367)
(4.07902 0.0199863 -0.00434422)
(4.0826 0.0205224 -0.003101)
(1.37461 -1.35663 0.00822742)
(4.08403 -0.00830392 0.0190393)
(3.40034 -0.0204919 -0.00570595)
(1.71057 1.48479 0.0932551)
(4.07693 0.0162381 -0.00890056)
(3.90335 0.00316549 -0.0087928)
(2.27774 1.8532 -0.279829)
(4.00394 0.00498726 -0.00109139)
(4.0792 0.0134389 -0.011973)
(3.90507 0.000353461 -0.0153475)
(4.05132 0.0208215 0.000222743)
(4.00654 0.0414511 0.0150682)
(4.00746 0.00375482 -0.000409646)
(1.38456 1.35352 0.00133896)
(4.04994 0.0216005 0.00154638)
(3.81171 -0.0242924 -0.0488128)
(1.53073 -0.923778 0.0353459)
(4.033 0.0350884 0.0237168)
(3.99043 0.0362215 0.0351064)
(4.02983 0.00784038 -0.000362146)
(1.41457 1.41127 0.00149534)
(3.93568 0.0214905 -0.0357216)
(1.37119 -1.36497 0.00387607)
(1.41548 1.41551 -0.000636528)
(1.41086 1.39988 3.27611e-05)
(1.41757 1.41008 0.00139862)
(3.44651 0.00182725 -0.0159969)
(1.68724 1.45267 0.0587997)
(3.07212 -0.216956 0.252564)
(1.36701 -1.36711 0.000137489)
(1.41452 1.43218 -0.000111677)
(4.04965 0.0383108 0.0225294)
(4.0553 0.00985413 -0.0166025)
(1.37128 -1.3712 0.000121262)
(4.06362 -0.0240759 -0.003904)
(1.37098 -1.36952 0.00432423)
(1.37168 -1.37068 -0.00061474)
(1.35007 -1.35109 0.00415737)
(4.12864 -0.031524 -0.00752228)
(3.47062 0.017813 -0.00961157)
(1.67018 1.50385 0.0179026)
(1.38506 -1.36968 0.00351615)
(1.4135 1.41797 -0.00192973)
(1.41488 1.41583 -0.000449059)
(4.14978 0.00823837 -0.0441679)
(4.01769 0.00603359 6.11807e-05)
(1.68677 1.58589 0.0740447)
(4.10058 0.0124152 -0.0215903)
(3.82722 -0.0537063 -0.154656)
(1.41303 1.41388 -0.00029453)
(4.08956 0.0108334 -0.0183961)
(3.76149 0.00283123 0.0200527)
(3.99541 0.019189 -0.0233187)
(1.41606 1.41547 9.59156e-06)
(1.41432 1.41342 -4.78125e-05)
(3.96565 0.0163911 0.0206454)
(4.03447 0.00708124 -0.00104247)
(1.67547 1.52252 0.0238217)
(1.41067 1.41105 0.000242981)
(1.43794 1.39305 -0.00525038)
(4.00744 -0.00919412 0.00258744)
(1.36958 -1.36961 -0.00182574)
(1.37116 -1.36606 0.000996118)
(1.41112 1.41201 0.00106677)
(4.08815 0.0121869 -0.0155048)
(3.61141 -0.0166846 0.00620187)
(1.41589 1.41596 7.21482e-05)
(1.5802 0.304616 0.280099)
(1.73724 -0.19877 -0.0596655)
(3.97668 0.0190292 0.000173575)
(1.4135 1.41646 -0.000760102)
(1.41559 1.41308 -0.000496563)
(4.11529 -0.038118 -0.00999437)
(3.94217 0.0662192 0.0594491)
(1.69992 1.51821 0.0716803)
(2.48181 0.800258 0.0586642)
(3.88194 0.0806132 0.110786)
(3.72785 0.0100129 -0.0260965)
(3.94606 0.00208683 -0.00152279)
(1.46944 1.37812 -0.00189476)
(3.92823 0.0114549 -0.00102755)
(4.06778 -0.0263147 0.0270378)
(1.41876 1.41497 -0.00187744)
(1.36224 -1.34022 0.00160713)
(1.41165 1.41233 -0.00031535)
(1.41396 1.41435 -0.000452925)
(1.41568 1.418 -0.00157953)
(1.41644 1.4164 -0.00019308)
(4.09695 0.0127569 -0.016926)
(1.36968 -1.36953 0.00119877)
(1.41391 1.41422 4.31819e-05)
(1.40787 1.38892 -0.00045285)
(4.09988 0.0130558 -0.021942)
(4.03048 0.0062039 -0.000275931)
(1.37646 -1.35862 -0.000375979)
(1.35507 -1.34175 0.00183809)
(4.13142 -0.0183013 0.0337291)
(3.92696 0.00171494 0.00467421)
(3.9217 0.00320023 0.00601894)
(1.3714 -1.36769 -0.000664067)
(1.41314 1.41448 0.000486046)
(3.92495 0.00211945 0.00539228)
(1.37111 -1.36999 9.18977e-05)
(3.88817 0.00980031 0.000542359)
(3.97193 0.00869405 0.0120452)
(3.98335 0.0077091 0.0060503)
(1.37948 -1.36957 0.00393285)
(1.37028 -1.37118 0.000704036)
(1.3703 -1.3711 0.000458519)
(1.41562 1.41628 0.000428562)
(4.02413 -0.0159391 -0.00995017)
(1.41426 1.41535 0.000655352)
(1.41317 1.41335 0.000363422)
(4.01291 0.0120053 -0.0153438)
(1.37031 -1.37088 0.000777134)
(3.94332 -0.00139368 0.00465405)
(3.61813 -0.0296622 0.0114278)
(1.42773 1.38127 0.00681502)
(4.02618 0.00746035 -0.00202395)
(1.90535 0.27576 -0.0447801)
(3.97779 0.00304037 0.00221827)
(4.12673 -0.0135126 0.00846978)
(3.65793 0.013254 0.00344903)
(4.11639 -0.00184025 0.0256325)
(2.989 0.0603721 -0.114466)
(1.68684 1.34863 0.0280263)
(3.96957 0.000754399 0.00155488)
(4.13048 0.0299449 0.00573801)
(4.02269 -0.00685394 -0.00336337)
(1.44968 1.26024 -0.0439261)
(1.82907 0.17644 -0.0952524)
(2.16442 -0.163555 0.0746592)
(3.9679 0.00325872 0.000186852)
(1.41341 1.41531 0.00185537)
(3.90867 -0.00957415 -0.0274927)
(3.99023 -0.00512595 -0.0071052)
(3.87595 -0.0323932 -0.0593901)
(1.49669 -1.0628 -0.0788927)
(1.37082 -1.3712 0.000685636)
(1.37028 -1.37048 -0.000142966)
(4.04677 -0.0104592 -0.000469767)
(1.64969 1.36564 -0.0174356)
(3.85399 0.0106552 0.00579146)
(1.53549 1.39862 0.0186496)
(3.84023 -0.00734363 -0.0236643)
(3.9467 -0.00536413 0.00204363)
(3.89743 -0.000914902 0.00768928)
(4.03097 0.007511 -0.0023772)
(1.41428 1.41351 -0.000498815)
(1.40893 1.40436 -0.00277604)
(1.46907 -1.33896 0.00707606)
(4.0256 0.00880365 0.000269106)
(1.41636 1.41274 -0.000264115)
(1.63347 1.40561 -0.0619419)
(4.13584 0.0747394 -0.0639438)
(1.42109 1.4193 -0.000999305)
(1.40947 1.41593 0.004369)
(1.36767 -1.36249 -0.00348967)
(1.41572 1.41631 0.000687019)
(3.86112 -0.00203128 0.0106963)
(1.45072 1.37397 0.00426887)
(1.41578 1.41419 0.000222518)
(3.28681 0.46395 -0.331439)
(1.65612 1.3368 -0.0180236)
(1.41015 1.41092 -0.0115519)
(1.96786 -1.17108 0.0697373)
(1.41557 1.41343 -0.00127664)
(3.19933 0.0110585 -0.0267274)
(3.94736 -0.00407568 0.00521303)
(1.36987 -1.36932 -0.000339961)
(3.87762 0.00510323 -0.0104167)
(3.89912 0.624111 -0.085265)
(3.84969 -0.0361995 -0.0592966)
(4.22285 0.150755 0.000960053)
(3.82427 0.00248806 -0.00459049)
(1.41554 1.40592 0.00408123)
(3.99341 -0.0365694 -0.040579)
(4.14228 -0.0121846 0.00898164)
(3.84875 -0.0364218 -0.0595408)
(1.3704 -1.36993 -0.000721456)
(4.18881 1.10043 0.292696)
(3.85067 0.00507762 0.00639408)
(1.88893 1.50576 -0.0892442)
(3.83101 -0.000487167 0.0030416)
(4.16911 0.0493199 -0.0391066)
(3.98883 0.076748 0.00381946)
(3.94888 -0.0121962 -0.0151922)
(3.94272 0.0118267 -0.000472763)
(4.20226 0.0577309 -0.0220342)
(4.04358 -0.00287385 -0.0057366)
(4.02671 -0.00320129 0.00310566)
(1.4061 1.41074 0.0056279)
(1.41163 1.405 0.00443507)
(3.87614 0.00904182 0.00272312)
(3.82087 0.00461594 0.00367585)
(1.41261 1.41607 -0.0004047)
(3.92246 0.00376421 -9.88425e-05)
(4.12155 -0.0158576 0.00375568)
(4.04388 -0.00609393 0.00264376)
(1.41978 1.40551 -1.95658e-05)
(3.97332 0.0774138 0.0172179)
(1.41374 1.41248 0.000210938)
(4.03015 -0.00267516 0.00257093)
(4.04785 -0.00307475 0.00197595)
(1.41445 1.41364 -0.000322851)
(3.85637 0.0150441 -0.016743)
(4.03993 -0.000976319 0.000360991)
(3.95882 0.0714526 0.0056832)
(3.89322 0.000143299 0.0104408)
(1.44271 1.41488 -0.00213397)
(4.05456 -0.0100153 0.0124627)
(3.97184 0.0876052 0.000642944)
(4.19059 -0.102371 0.0242886)
(3.53778 0.0432356 0.0135965)
(3.17527 0.00910085 -0.0435985)
(1.41739 1.40287 -0.00250094)
(1.41252 1.41139 0.00183271)
(3.90801 0.0499221 0.00608022)
(1.41544 1.41615 -0.000207834)
(3.44409 -0.00932584 -0.0129081)
(3.91768 -0.0199972 -0.0287188)
(2.3843 0.324368 -0.0869986)
(4.34979 -0.279324 0.102112)
(3.83764 -0.174275 0.0468295)
(4.27318 -0.156605 0.0397251)
(1.41545 1.41629 -4.97849e-05)
(1.92527 1.63256 0.0137925)
(4.04212 0.00870298 -0.00464637)
(1.36503 -1.36998 -0.00455709)
(0.765496 -0.537692 0.220431)
(4.01806 -0.0746455 -0.0578259)
(1.41561 1.41197 -0.00268685)
(1.41635 1.41406 -0.000265644)
(3.59047 -0.0731627 -0.0060317)
(2.92894 -0.189598 0.0410216)
(1.41575 1.41598 2.77988e-05)
(3.63297 -0.0663111 0.00963582)
(1.41449 1.41285 0.000661359)
(1.41492 1.41688 -0.00249225)
(1.37007 -1.37061 0.000128279)
(1.37216 -1.36859 0.00288384)
(1.34567 -1.33559 0.00426471)
(1.37001 -1.36769 0.000122387)
(3.6375 0.0271389 -0.0136297)
(1.41325 1.40557 -0.000602789)
(1.41478 1.41504 0.000526597)
(1.40759 1.41535 0.00251334)
(3.37924 -0.752328 -0.199497)
(3.82404 -0.0301463 -0.0671619)
(3.71802 -0.00111874 -0.0343223)
(4.04259 0.00760676 -0.004652)
(1.41018 1.40097 -3.90463e-05)
(1.41906 1.41355 -7.78947e-05)
(3.88489 -0.0648267 -0.0777585)
(1.41541 1.41595 -0.00154274)
(1.41507 1.41355 0.000384605)
(2.26004 1.29198 0.0474235)
(4.13725 -0.0533168 -0.00396783)
(4.03173 0.00855443 -0.00215483)
(1.41407 1.41367 -0.000445596)
(1.41582 1.41268 0.0018414)
(1.41255 1.40807 -0.00238481)
(1.41428 1.41147 -0.000138369)
(1.41768 1.41706 -0.00136933)
(1.41785 1.41433 0.000554221)
(4.0528 -0.0903425 -0.056188)
(1.41612 1.41204 -0.000415575)
(2.81169 0.0395863 0.0928071)
(4.07124 -0.00946007 0.0106915)
(1.4144 1.41675 -0.000463217)
(1.36182 -1.36772 -0.00356084)
(1.3532 -1.33999 0.00104303)
(3.42824 0.0399738 0.18474)
(1.34617 -1.34487 -0.00537239)
(1.36876 -1.36979 0.000920539)
(1.40856 1.41027 -0.00903299)
(3.6757 -0.0549947 0.000548124)
(1.41266 1.41309 -0.000752897)
(4.02211 -0.0504717 -0.0316705)
(3.23825 0.0461412 -0.0182327)
(2.64928 0.00340759 0.105757)
(1.41229 1.41374 0.000479167)
(2.76497 -0.716304 0.0579731)
(4.05439 -0.00856433 0.00163764)
(4.07545 0.00972756 -0.00957252)
(1.46806 -1.40116 -0.0172081)
(3.93444 -0.0665422 -0.0100555)
(4.00912 -0.00728808 -0.005856)
(1.3705 -1.36094 0.00120726)
(1.46179 1.38482 0.00618538)
(1.92947 -1.48922 -0.121098)
(1.41059 1.41078 -0.000324089)
(4.05115 0.00658719 -0.00146318)
(4.04187 -0.00412321 0.00707428)
(4.11956 -0.0482577 0.0201771)
(2.71316 -0.00263368 0.147379)
(1.4158 1.41518 -0.000209846)
(4.0531 0.00716679 -0.00209381)
(1.45785 1.38597 -0.00141457)
(1.77098 1.4964 -0.00754032)
(1.83721 -1.43199 -0.0575417)
(1.41508 1.41512 0.000558223)
(4.05823 0.0110332 -0.0022545)
(1.41219 1.40996 0.000713877)
(1.357 -1.3344 0.000215301)
(3.71642 -0.0500932 -0.0908107)
(3.9785 -0.0079465 0.0038239)
(1.35687 -1.33508 -0.00391645)
(3.99748 0.0063324 -0.00307615)
(1.50991 1.47548 -0.00961758)
(4.0592 -0.0339437 -0.0165001)
(1.33347 1.27369 0.0146111)
(1.41592 1.41598 -0.000334753)
(1.42358 1.4189 0.00504931)
(1.37082 -1.37133 0.00057747)
(3.95495 0.00559736 -0.00543169)
(3.57104 0.00538875 -0.0141664)
(4.08833 -0.00775448 0.0739181)
(1.41138 1.41186 0.000733277)
(1.41137 1.38409 0.00881866)
(3.93998 0.00609288 -0.00353093)
(1.41621 1.41627 -0.000475441)
(1.6428 1.48764 0.0192494)
(1.37062 -1.36928 0.000280029)
(3.89426 0.0228512 -0.00261662)