/*--------------------------------*- C++ -*----------------------------------*\
  =========                 |
  \\      /  F ield         | OpenFOAM: The Open Source CFD Toolbox
   \\    /   O peration     | Website:  https://openfoam.org
    \\  /    A nd           | Version:  10
     \\/     M anipulation  |
\*---------------------------------------------------------------------------*/
FoamFile
{
    format      ascii;
    class       volScalarField;
    location    "4.8";
    object      p;
}
// * * * * * * * * * * * * * * * * * * * * * * * * * * * * * * * * * * * * * //

dimensions      [0 2 -2 0 0 0 0];

internalField   nonuniform List<scalar> 
111485
(
32.0669
1.65575
1.94389
32.0152
1.99117
31.3066
1.69716
1.50789
1.71098
2.43727
1.67073
2.12154
1.72222
1.59061
1.72352
1.79793
0.620765
35.1405
1.72002
31.9962
31.9847
31.3772
1.71101
1.78412
1.96408
31.7999
2.36184
1.09222
1.93769
32.1042
2.9344
0.439129
32.0383
31.5275
34.4577
31.509
2.99516
0.288752
3.47967
1.78743
31.7615
2.4195
1.79215
2.72239
2.65499
32.2702
2.59579
1.7678
2.42401
32.0332
32.0223
30.2527
32.0533
2.73815
32.0738
1.11813
1.72817
31.6797
2.35629
1.77508
1.78255
32.0678
1.40854
2.90068
31.3246
1.25442
21.9716
1.56753
1.36384
1.49168
2.95497
1.26764
31.2923
1.3543
32.1867
0.782633
31.4142
2.33329
31.3704
32.7342
2.89851
2.63031
31.4579
32.1538
1.40701
1.81495
10.2016
2.73208
2.9807
0.572456
2.84266
1.8251
1.41393
0.354541
2.41095
32.1507
32.0696
2.77005
0.929946
3.2529
32.0473
2.37877
31.5644
2.27532
1.59882
32.2238
31.5794
0.510432
1.85876
2.38016
0.367131
1.30682
1.83966
2.19706
31.7931
0.757738
31.8659
31.6555
1.35026
32.0015
31.7975
27.7339
31.4612
31.6829
2.53042
35.6888
27.5979
0.576671
32.1917
5.14914
2.85315
2.76385
32.1858
27.1895
28.2245
1.66171
31.4273
0.800185
1.50824
1.58666
2.3377
1.54101
1.55377
1.9283
2.51989
0.181409
31.4251
32.1384
31.642
1.61383
1.92119
31.9768
2.99157
0.0394005
1.35624
1.6202
1.59595
1.67867
1.85964
32.236
32.0175
1.60793
1.8834
2.00268
1.58897
0.662723
2.86914
31.7661
2.14164
2.26248
31.6247
32.1286
2.04289
31.5132
0.217818
0.0733265
31.408
31.2152
31.8662
31.8881
31.1189
32.0118
1.6319
1.64281
1.62424
0.246714
2.35035
0.936254
3.03825
32.0427
0.786121
31.2062
32.0372
0.964279
2.40704
2.90447
1.22357
0.147433
32.1904
1.65821
1.93569
22.7928
2.66683
0.56692
32.1795
0.95967
2.22603
31.1938
2.87376
2.58971
1.89798
0.901105
31.0879
32.0836
0.932075
21.6335
2.76813
31.5048
0.951816
0.826475
2.47036
32.2204
1.01044
2.8006
25.3179
31.5113
31.6296
3.03463
1.61634
31.5694
29.7233
0.845834
0.302099
0.902292
31.555
31.5987
2.91107
32.1896
1.58691
0.814866
0.836637
0.785948
0.829347
31.6405
2.96244
0.627934
31.6708
31.4498
2.71769
1.30422
31.7574
0.42687
0.637373
32.135
26.6328
2.62584
31.9349
32.3442
29.3462
31.9435
0.747852
0.768857
0.0339279
32.2385
0.651845
32.0222
32.0563
32.2066
2.92579
2.32847
1.36434
1.29868
2.19019
1.33788
1.34769
3.03137
0.261639
0.2879
31.0748
32.1278
3.04039
0.490011
2.12169
0.322641
32.0087
1.38355
1.64057
1.34546
2.28723
2.96247
1.34225
1.28289
2.64751
31.6709
2.27946
31.5158
35.0963
32.5862
3.00566
2.17628
1.74037
31.8982
31.8865
1.09807
0.399909
31.9707
32.0832
32.0902
0.779897
0.31541
1.61861
1.69802
1.7847
29.7662
31.6009
32.1641
1.07779
15.1477
1.70024
2.97292
2.84232
31.4535
32.0592
32.07
28.2031
1.14949
1.98019
31.6424
1.14202
31.7388
31.8487
2.83892
1.15163
2.1842
1.13842
32.4713
28.0793
31.616
1.13764
0.112383
2.95959
31.3744
5.58882
2.73335
2.01392
1.05953
8.357
1.79507
31.3996
1.79517
1.17376
2.97936
2.80666
1.99611
31.5534
32.1698
31.598
32.0269
1.59436
1.00721
2.13598
1.81593
31.5952
2.09279
31.594
32.0952
1.80567
32.7879
28.5609
32.3727
31.5058
1.63191
31.6795
0.103078
2.08711
31.3737
1.44171
1.20943
32.0131
1.17129
2.11091
1.22406
2.90334
0.222319
0.278502
32.5112
32.1394
2.74288
31.7177
2.17365
2.82704
31.3823
31.6495
1.12438
2.09024
0.179426
2.12144
31.4188
2.93943
2.09909
31.2848
2.71021
2.08214
32.0812
32.0035
0.123682
1.96585
31.5845
31.8771
24.5396
32.0438
2.02784
31.5067
32.0382
2.11438
2.88438
2.56202
2.0053
31.3224
28.2651
2.78891
28.6256
2.7097
2.83881
2.43032
22.597
28.9002
-1.35719
2.46349
32.0911
2.77381
2.09069
32.2161
1.98428
2.46177
28.7586
2.19012
2.10419
0.233464
31.3481
1.03071
2.21976
0.261679
3.01654
27.5287
1.40474
32.1614
3.06115
-0.505907
31.6217
2.16889
2.66844
26.8721
32.2318
30.3615
31.9793
1.99104
0.365158
2.16351
2.20237
2.86316
31.5155
2.06774
32.1106
2.0302
31.2331
32.0993
32.1791
2.1753
32.1484
32.0814
33.716
32.0671
31.6682
2.64603
31.6774
30.4271
31.5798
32.0433
31.2867
32.1903
31.3919
2.18718
31.5761
2.65912
2.22322
3.3326
31.2996
2.67068
31.6082
32.0625
2.18987
2.22128
2.31642
2.95049
30.1119
2.46546
2.45468
0.219746
0.197563
2.23552
32.1272
0.132827
26.9171
2.59562
31.5198
2.51545
27.7202
0.359545
2.1885
33.3044
31.813
0.151264
31.9601
2.46043
2.44497
31.6668
31.6465
32.2563
31.6083
0.0835508
2.449
31.2105
31.6837
1.98493
31.3787
2.438
31.404
2.58595
32.0673
2.47152
2.52501
1.26258
0.340106
31.1773
-0.381208
31.246
31.531
2.25782
31.5328
2.46189
32.2823
2.54121
32.1121
2.38444
31.978
28.8002
3.21615
2.21443
2.42498
2.3366
2.37718
2.11477
31.6363
2.40309
2.28351
31.492
3.17982
2.91208
2.46924
31.4553
32.5173
2.04986
2.43414
16.9852
31.253
2.25647
2.00379
2.3575
2.35464
0.806091
12.8339
28.4645
1.04898
14.9385
32.0257
2.50947
31.7172
28.9097
0.606105
12.6464
0.99783
8.71817
28.4544
2.32682
1.99367
31.3186
30.4903
1.99815
31.9437
31.371
31.3934
31.2811
2.37114
31.588
32.0373
2.41237
0.830645
25.1008
1.84784
30.0546
0.809847
32.0472
31.636
2.36104
31.5202
31.3056
28.7895
0.222766
20.5061
2.35073
0.602743
31.9632
2.8089
2.22463
2.02849
3.03745
4.61949
1.97625
31.5404
2.40699
2.03302
32.2063
1.21331
2.67174
2.09507
0.189211
2.08095
2.0842
32.211
2.48381
2.88087
28.7057
2.08039
2.55105
21.2167
0.598593
2.09461
2.53292
2.23903
2.23069
0.596701
31.7113
2.22343
2.45565
33.0866
2.33267
2.30749
0.636366
31.5419
0.219682
32.2704
31.4369
31.5963
31.2764
2.05575
29.1184
-0.176572
32.0689
31.0925
2.35044
2.33692
31.9557
2.46614
32.0606
32.1902
32.0598
2.47547
2.51422
28.8929
32.0405
31.5271
31.5444
2.9208
0.607422
28.2419
2.29507
2.18654
31.6552
2.31986
2.60309
0.557792
31.3527
31.5044
1.26136
0.63109
28.6599
31.6206
31.1818
0.931371
32.1442
31.9067
31.4999
2.27426
1.86573
31.3803
34.0473
33.0828
0.774917
31.6733
31.2996
2.52962
2.90616
28.6019
25.0927
7.71162
2.59044
0.0292331
31.0923
1.88331
2.68742
31.6708
32.0436
31.4305
31.5144
31.6035
31.3917
2.32688
32.0608
31.4318
31.4362
2.31599
0.615494
31.8981
32.096
2.56232
0.621194
0.67199
31.9184
31.4414
0.636849
32.1445
2.27124
0.613017
0.678405
31.8097
32.0472
32.0461
31.5586
2.05598
31.4516
31.3974
2.77075
32.0411
1.0296
2.72102
31.2802
0.62926
31.8177
1.00524
2.39268
2.39531
2.55719
-0.781144
29.7708
0.990236
2.5808
0.0301867
31.7717
-3.75306
29.284
0.23099
31.5816
2.6287
2.6063
2.61208
32.5513
32.0553
32.2335
0.616907
30.0498
0.271648
30.5675
1.8253
0.250017
0.412043
0.627231
31.3975
31.3299
31.3678
0.636683
31.2924
29.7647
2.98812
31.6646
31.685
32.0496
31.4364
0.436948
31.1342
31.5052
-1.7659
29.9827
31.7393
28.9064
31.4912
2.59296
0.410885
31.9818
2.00843
7.44192
2.6058
2.34331
0.557067
31.6176
2.3691
3.01288
2.60925
32.1571
-5.42613
0.403373
27.0441
0.332231
2.96514
3.13799
1.4523
0.352641
2.93974
0.19103
0.409029
31.4914
31.3042
0.28919
0.244554
31.6464
0.305905
2.17349
0.403796
31.2289
3.04838
31.5643
0.403142
0.372761
31.3391
-0.0910837
0.420271
2.92616
0.0255229
31.0675
1.61631
2.95363
3.35611
2.91241
2.80697
31.5066
31.5995
2.81442
31.431
2.29173
2.72727
27.8237
1.89208
0.63408
2.52963
31.4369
26.7381
0.87903
32.1888
37.4982
2.78596
31.2517
31.3154
1.00548
0.484
31.4341
3.06992
31.5129
31.5203
32.2017
32.0669
32.1602
32.1382
2.88728
31.2666
31.6258
31.6706
-1.58876
2.99909
1.85135
0.862585
31.4025
31.2811
2.91193
31.4807
31.3252
24.6738
2.84225
1.0979
31.3589
31.2901
31.3129
31.3009
31.4165
31.2825
2.81884
31.3001
2.77774
1.80756
31.5465
32.0943
32.0812
3.0478
32.0518
32.0203
31.6083
2.75739
31.5711
2.82597
2.94427
2.81892
31.3772
22.5528
2.92618
1.73232
31.07
2.80982
2.48698
31.9473
31.1057
28.2964
31.2942
0.873335
1.57729
2.91153
2.31963
31.3473
0.866847
30.9853
28.3425
28.1384
31.6296
1.47386
31.4976
32.1163
3.0284
1.08999
32.1062
2.46989
30.1065
2.84897
32.4575
31.5278
31.4953
32.0374
0.464593
1.58996
5.05332
31.36
31.3942
0.420338
31.4332
29.2044
32.0723
2.25445
2.28652
2.10289
31.8796
3.03265
3.05695
33.3811
3.06897
31.2913
2.70555
2.48084
1.49474
2.96738
2.67041
31.4557
31.5169
31.5163
3.02152
31.9215
2.93229
32.2155
6.24576
31.9037
1.77077
1.83272
32.1241
31.4156
32.1785
31.69
2.91501
32.2031
28.3209
0.398793
2.9364
32.213
29.0805
31.4404
29.1533
31.2687
31.4644
2.9686
2.60411
32.0136
31.8579
1.35305
32.0952
2.96742
0.461811
31.4979
2.77887
32.0419
0.260625
31.2724
1.93784
31.3301
1.63155
2.43374
2.90452
2.76831
2.75649
20.6107
30.9467
2.82005
32.0397
1.45751
31.9373
31.6847
30.9035
31.6206
31.7233
31.6428
2.71574
2.67314
32.0437
27.4087
31.9382
2.7641
3.04821
32.0802
1.47795
2.94025
32.0818
0.575208
0.412273
1.40589
2.91586
31.431
31.4861
31.6464
31.4017
1.4573
31.346
2.84637
31.4703
2.83934
1.95978
31.5831
2.79801
31.5964
31.4233
2.83418
2.86188
11.3235
31.4728
32.1553
31.2747
1.50626
30.7707
32.384
30.8785
6.93531
27.9723
1.80286
29.0608
30.7502
31.4669
0.478774
0.365719
2.17477
1.64021
32.1515
2.84391
31.5351
31.6422
0.417419
31.169
1.43508
2.83134
0.37435
2.86417
0.146993
2.09349
31.6135
-1.54906
-6.79192
2.53946
2.94519
1.13341
23.6062
32.0505
2.05218
31.9378
31.3101
2.80541
2.37293
-0.124384
31.4757
30.9307
2.98247
32.0794
31.2584
2.85201
32.1443
32.109
1.59581
2.87052
2.79562
1.40781
0.719109
31.2943
31.4509
2.62494
1.3161
31.3921
32.1247
2.27964
31.3048
27.2542
28.0913
28.2343
19.5128
27.3861
31.3972
2.12286
31.2589
2.83941
31.3369
16.1979
31.4298
31.3247
31.6198
31.4321
2.0213
31.4352
31.4309
28.6669
31.2984
31.6138
31.5122
1.24603
31.4999
1.11964
2.84026
31.3341
2.24803
31.3695
2.53996
2.84366
0.339815
0.370296
31.7966
0.383664
2.00311
2.88811
32.1933
2.82686
1.00417
0.229734
30.1581
0.237987
31.4702
31.6084
31.3343
31.3812
0.251214
31.5126
31.2895
0.207394
2.74032
0.139437
31.6745
23.3201
2.1892
31.5805
2.39239
32.0701
0.338928
31.2275
31.2577
2.08225
31.32
3.11623
32.0861
31.3358
1.00156
2.56603
0.751712
1.5563
3.04745
1.24143
31.341
32.5967
1.84614
0.772504
1.25319
2.85502
31.4343
1.13814
31.4163
31.6633
1.81332
2.96455
31.3119
0.780489
31.567
0.757963
0.710108
31.2542
31.3849
31.5587
1.83287
31.5066
31.5101
1.84667
0.757478
2.91484
0.244596
31.4098
31.6282
2.34077
1.9026
31.3608
1.82375
31.525
1.80919
31.3732
31.3527
1.74789
31.4375
2.49628
1.7359
31.2999
31.3871
1.65784
27.0149
2.082
32.0617
2.88816
32.1104
27.503
26.6986
1.75431
28.8234
28.5395
1.56634
28.4053
18.8581
26.5666
31.4303
31.9403
2.78047
2.05779
31.6426
31.5265
1.94989
2.02027
31.3115
1.85444
31.3951
31.9554
2.30577
2.20516
0.464385
31.3636
31.5391
31.512
31.4309
31.252
31.2656
31.5162
31.2728
31.2983
31.3806
31.5136
31.9442
31.4716
31.3531
31.3091
31.7818
31.3517
31.3872
31.4479
31.5789
31.9902
2.08591
31.4916
31.3551
31.6641
1.45893
31.6922
31.9537
14.2521
31.1756
30.8405
1.4462
33.3495
31.0083
16.142
1.43765
31.4686
27.8375
29.6275
31.3136
2.72038
1.43353
1.44455
1.3577
0.918792
32.0185
31.3008
1.09585
1.16107
1.34765
31.4038
1.29904
2.67707
1.41096
0.284919
0.326146
1.35959
0.519516
1.39043
32.2316
1.58505
1.33808
1.93686
1.30699
31.5577
31.5199
31.5976
32.043
31.5452
1.1509
1.31337
31.5518
31.3033
31.2852
31.8928
31.3305
31.9492
31.2484
31.9443
1.29924
3.01683
1.30954
2.19102
31.1594
31.2164
2.67936
2.6631
31.3811
31.4322
2.00808
32.2497
31.4945
1.42884
1.25145
1.29139
2.06998
2.67525
32.0248
0.0761863
1.55526
28.3298
31.9417
1.49761
31.9997
31.294
12.2609
8.22984
2.12807
31.7113
32.1162
3.00755
1.57059
0.129881
1.15777
15.8047
32.0449
2.89275
33.0979
32.2101
30.9845
1.96738
31.3233
1.15576
0.0758378
1.47775
1.54536
32.146
1.02574
32.1616
30.6186
32.1354
31.8785
0.425058
19.771
31.4331
32.0066
33.5593
1.16706
28.1719
1.03322
1.1465
0.406654
1.15612
31.9141
31.8293
27.6274
1.97459
0.911732
0.29012
32.0442
32.0628
28.0232
2.74182
2.01277
31.4288
0.750184
12.6203
1.5644
0.879594
32.024
27.3766
0.878131
1.15149
31.5287
2.45813
2.38053
2.07766
0.941128
0.911421
0.99564
28.3393
0.43229
0.942733
0.8348
32.3796
1.49549
28.6463
1.96807
0.986588
32.2327
0.303115
0.943623
0.986833
1.24298
35.1081
11.1847
2.93185
19.0061
0.941266
30.9936
0.344019
0.950789
31.9122
31.4499
2.29768
3.01521
1.36641
34.9549
2.15764
2.80085
-0.388277
2.87443
31.8975
32.2728
1.14064
33.5128
1.0489
2.71613
0.952361
0.374014
31.9878
2.57468
1.1331
31.9168
28.5989
0.773356
32.1774
0.766914
0.740255
32.0742
35.0968
1.57398
31.9517
31.3559
31.6784
0.357106
3.74353
1.98823
32.3936
1.93193
0.554397
31.3919
0.547908
0.611645
0.377848
2.95175
31.3989
1.0146
0.382578
0.629161
0.551894
0.382878
2.83216
1.82685
32.0607
-0.110409
0.403563
32.0269
0.615629
31.6526
31.5011
32.1731
31.696
32.0076
2.79914
31.5971
0.544706
2.22152
32.2063
2.25817
31.8539
0.402746
31.9387
2.7707
31.0602
1.86362
2.92185
2.86921
0.663132
0.400312
1.93632
0.383757
0.691432
13.4573
0.631565
1.22849
0.689192
32.1984
1.19981
3.00237
0.655175
1.73892
2.88319
32.1921
28.1243
31.9059
1.96239
31.9927
25.7228
0.401535
33.6809
2.41492
31.888
32.0651
31.4345
1.27199
2.16622
0.663199
2.84147
0.363883
1.06526
1.07568
1.2658
0.436493
1.05421
1.07572
32.1178
31.4249
32.2043
1.57281
1.16793
31.3459
31.4326
26.1593
1.13061
0.45013
31.9781
1.07558
32.0814
2.15581
1.98048
2.87965
32.027
32.0675
1.23029
32.0419
2.51857
0.609056
30.5864
1.42022
1.74343
0.297801
31.8946
2.81756
28.8829
2.35522
1.98175
32.0362
32.2169
0.583842
23.67
32.2453
0.770396
0.349494
32.0609
31.8391
28.6998
1.02259
26.1342
1.5576
2.6708
2.41472
32.0662
28.7966
2.63973
32.0659
31.5348
32.1199
32.0069
29.1724
31.2886
30.7322
31.9193
31.8788
30.0515
33.6846
30.9876
2.54632
31.0183
27.8168
26.4719
35.5188
28.2778
32.0688
2.6857
30.1079
31.2304
2.75643
33.009
34.3214
31.7274
2.67599
33.583
2.70581
2.83148
2.43624
29.5588
31.9851
2.72958
2.13139
31.736
32.1716
1.55872
29.2662
1.54202
28.9984
31.4666
31.4838
1.55055
1.556
32.0957
2.1774
32.1819
30.0704
2.69084
0.924441
2.69592
31.6348
1.5473
29.5148
2.28692
31.3956
31.9023
31.352
28.6471
0.896313
1.04292
32.1516
0.847318
31.9454
31.983
31.9414
32.0029
2.55617
2.51165
1.04839
3.56373
32.086
1.96147
1.59605
0.842232
2.53506
31.8099
0.855194
2.63459
1.34585
2.25901
1.49647
32.0615
1.78277
2.59136
1.55413
2.62659
2.65944
31.9961
2.71531
31.5038
32.0898
1.31774
32.1693
1.99638
32.1034
32.1134
30.9463
31.9257
32.1728
2.5325
31.9088
2.17671
29.6623
31.5656
1.89656
2.57832
1.11485
2.10145
32.2258
6.19899
32.1531
2.3204
32.1168
1.88086
2.53411
2.62012
2.36692
32.211
32.2363
31.8855
0.91396
31.6035
31.8979
0.907017
31.2033
31.3245
2.67011
32.2087
1.43219
2.23299
29.4909
30.4601
30.2387
1.00382
1.66887
31.9945
0.0487119
2.26733
28.9234
2.65528
32.1214
0.909201
1.95629
0.873393
31.9887
2.04328
1.10974
2.71427
2.58942
2.24144
32.0379
32.0496
3.06412
31.919
31.392
32.0858
0.897027
2.66204
1.17302
1.63186
28.4769
2.00217
1.56306
1.67322
1.74538
2.05968
2.44847
2.2219
31.4326
31.4258
31.4252
2.28742
31.5557
2.20872
22.6761
2.19374
1.60518
0.887719
0.475205
31.3285
32.1012
2.2037
2.18619
32.1279
31.437
32.217
0.974657
2.17736
2.28924
2.29953
0.304978
1.56217
31.9406
32.1586
32.0635
0.344806
1.48782
0.0507815
1.73337
1.04799
2.30005
31.7466
32.0608
26.5729
31.3818
0.325538
2.03123
32.0286
32.004
32.0649
32.2048
32.0866
31.2556
2.35205
31.976
2.74346
3.21785
31.321
2.32182
0.164057
0.938666
32.286
31.4299
2.34038
32.0392
2.34784
-0.500214
1.02863
31.0744
24.898
31.4045
31.9808
31.9255
30.846
11.2005
31.9452
2.42671
1.1528
32.0755
32.0596
2.39707
31.9537
31.5047
1.37691
2.81514
31.8778
31.8712
31.1333
0.583436
32.0436
32.0476
7.82479
2.35475
2.40619
31.9849
31.3155
29.4027
2.38923
2.37935
2.38358
1.75019
31.3677
0.57682
0.1268
0.156444
31.4456
32.1571
32.0616
32.0177
32.0444
1.39042
1.42405
1.14428
32.2653
32.1208
32.0388
32.0905
31.4216
2.82974
0.535358
0.105078
31.2736
32.0305
32.396
0.153822
2.62366
2.95737
31.5117
-3.48926
33.1866
31.7683
32.0484
1.39497
1.57377
31.9287
31.9882
1.84534
32.0571
1.01685
1.30325
13.4221
31.9113
31.4078
1.04911
2.77722
31.9545
12.7267
0.334567
2.04312
31.975
31.9446
32.2277
32.0956
0.352516
0.760898
31.9479
2.82041
2.51282
4.38905
31.9971
31.9351
31.9257
31.9488
2.05756
33.6509
32.0024
31.4941
0.5304
2.19912
0.651015
31.7544
32.1705
2.53788
30.9315
32.0589
31.9523
31.976
1.48104
31.1978
31.2873
31.3411
0.641355
1.55776
31.9239
32.1439
31.8383
1.7581
32.8122
31.9013
31.8472
32.1548
32.129
2.86583
2.04568
32.3789
1.63751
2.02394
1.42784
32.2277
32.1934
32.0369
32.0509
31.3223
1.89715
32.0012
30.063
30.1516
2.51974
31.0034
2.47653
32.0459
31.5579
3.00412
4.70914
29.085
2.56136
31.9979
2.54613
32.9725
31.965
32.1102
36.2263
31.9419
2.81825
31.9075
1.67918
31.5845
28.7177
32.1486
31.9168
0.592152
2.48484
31.4185
13.1394
31.6581
2.36647
2.79611
2.39355
31.6821
2.30231
2.2728
2.79044
2.08083
1.49178
2.29632
31.0944
31.3455
1.08336
0.900632
2.3549
32.0015
30.803
26.7037
15.3722
32.2171
31.291
32.1496
32.1991
32.2349
33.3614
2.40641
2.86807
1.17494
28.5455
2.97236
32.1485
1.93164
32.0641
32.2447
31.489
31.2367
2.75933
31.173
31.6509
31.9952
1.67449
31.9983
32.1004
2.90415
31.934
24.2749
21.3498
20.1573
32.2061
20.9392
20.3491
20.762
23.2542
31.3548
31.3566
1.6467
2.41696
28.8043
29.1938
31.3803
1.64487
32.9641
31.5443
2.74277
31.9562
32.037
2.50224
2.85611
32.0931
31.3014
3.21664
28.7672
31.2089
2.25187
1.78319
1.86391
31.628
1.81276
32.1749
1.11569
2.14815
1.77763
32.0042
2.16199
1.80686
32.1641
-0.125505
31.8661
1.68259
30.5791
1.74802
31.6062
2.76941
31.9083
31.0661
31.5767
-1.72333
-1.69628
32.2175
1.81234
2.97515
32.3968
32.0009
1.31295
0.14349
3.13364
32.2281
1.89844
1.85227
2.9258
0.568619
32.2331
2.96971
31.3709
2.91234
32.0652
-2.60781
-3.58178
31.828
1.19833
31.4413
2.89317
31.4191
31.8372
31.9653
32.1355
31.8571
32.0144
2.4201
1.44213
2.88159
31.94
26.3039
2.91138
31.9508
32.0722
31.9937
32.1809
32.0154
0.130219
32.0059
32.166
31.3421
0.107465
31.8599
31.4479
30.6269
0.378012
31.4849
0.263921
0.836027
2.21785
0.364119
0.197842
33.0731
31.9401
32.0127
0.48323
0.670758
30.9514
26.1668
0.320519
32.0955
32.1787
2.93616
31.8602
1.84024
31.9244
0.234046
2.85324
31.9508
31.3496
31.9294
32.1533
32.082
2.97551
31.9176
0.328563
32.1245
31.9855
0.695496
31.5615
1.92373
31.4819
32.098
2.44717
1.20887
3.02902
32.1508
32.1569
32.0243
1.2215
3.00223
32.1414
31.4421
31.0078
0.771501
31.8963
1.96126
2.96533
31.9735
31.9269
0.770497
32.04
31.0031
31.484
32.1342
31.5299
2.90413
25.844
31.3286
32.1284
26.4409
31.9303
27.2383
31.7856
31.888
31.5774
1.1886
31.7931
0.722877
31.762
31.912
3.41171
0.783993
31.881
31.9207
31.9402
0.714559
27.9055
32.0028
31.3367
31.9252
0.830215
31.8874
2.86016
32.2192
2.27778
28.6479
2.68688
31.9362
32.0813
2.21082
27.3049
31.9387
0.661166
2.24338
32.2601
32.1512
2.41998
2.65868
0.767449
0.721799
0.724403
2.45342
0.78024
2.7588
32.1269
2.82485
26.2784
25.8765
31.9893
31.8528
32.0752
0.762299
32.206
32.2047
32.196
2.83034
2.72874
25.1731
2.48075
32.17
2.61467
31.2135
2.94201
0.864041
26.5376
2.27771
31.8479
31.7875
31.425
0.827228
2.29037
32.0214
31.5095
0.809888
32.1465
3.07559
32.2211
3.04758
32.0533
31.4236
32.1089
31.4158
0.702357
31.415
4.71191
31.5843
2.36864
31.9852
31.935
19.3404
18.1895
32.006
31.947
32.0634
32.1668
2.26778
3.01789
22.5519
32.1459
2.32099
31.3728
31.5831
2.05863
1.76754
3.00274
31.432
0.506058
2.4008
1.27046
1.89092
32.0722
32.2322
32.2478
32.1637
31.4379
31.4173
31.4194
31.7676
31.4321
31.42
32.0425
31.411
2.96902
31.4223
31.934
34.6878
32.1589
31.993
13.4451
31.3698
31.9565
1.84819
3.10711
31.8008
32.1393
32.0408
1.68753
31.7718
32.02
3.04294
31.5004
31.9227
32.0805
32.1333
2.95164
31.4694
2.96366
32.1435
32.0419
31.9601
31.9912
31.9354
3.05232
2.96832
0.971123
32.1636
31.2825
32.3041
3.03291
31.9151
2.98967
3.1606
31.4806
31.9515
25.145
2.09268
31.8246
29.0086
2.13634
25.4423
2.51695
31.6748
2.79435
25.318
23.6976
32.0441
2.24127
31.5096
2.21503
2.90734
31.9267
2.26599
2.50823
32.0495
2.88245
31.3304
31.8462
31.9039
31.8241
31.8167
31.4044
31.9139
32.194
2.92774
29.3318
32.0083
32.0803
31.8964
31.8948
1.68747
18.2066
3.04785
2.63666
31.919
2.18937
2.14524
32.0242
28.9411
31.7856
31.8294
31.9617
32.173
26.9107
29.5219
2.56128
31.9834
32.2206
25.4673
27.3652
31.4457
2.2034
31.87
31.3195
32.152
2.96057
32.2044
31.3737
2.45374
31.4799
31.5242
31.6889
32.3909
2.47601
31.9876
31.9682
31.9474
31.9692
2.61446
3.02558
3.0571
2.22365
2.73679
2.71331
31.5119
27.3162
3.01287
2.67392
27.2789
3.01508
32.1176
-0.26465
31.3285
2.96031
32.0162
31.3039
2.74494
-1.42395
31.9117
2.66443
32.0128
32.0834
2.94147
2.93768
32.1553
31.4002
32.0342
31.4316
31.9325
28.1468
32.1623
32.0683
2.64318
32.1665
32.0354
31.9865
2.77552
31.9635
28.2891
31.4615
31.3872
30.0433
28.6526
2.77254
31.2839
28.6977
1.68038
32.1257
2.62065
2.66872
31.9478
1.73047
32.0514
30.6099
32.3348
28.2059
31.5933
32.1327
32.2041
32.2216
1.76265
32.1817
32.1059
32.1689
31.5955
32.0004
31.7672
2.93677
32.0458
32.1513
2.88354
32.0239
31.4487
31.6732
1.80016
31.9782
2.66736
27.8877
2.24468
0.262963
31.4207
27.2967
1.69299
26.3278
31.4275
2.82729
2.2124
0.0177119
2.80038
2.688
-0.59335
31.6945
31.2687
2.10482
3.01197
2.95993
2.06693
2.28497
31.5618
0.439423
2.05247
2.07625
31.6847
2.08819
0.385563
1.25916
1.9919
2.92322
2.07012
0.598287
1.91316
0.0689851
0.960143
2.00654
28.3377
0.379791
0.04465
2.22485
2.52286
0.181936
2.00302
0.120744
28.9305
3.00984
28.7457
1.194
2.11728
2.4875
1.57473
28.6961
31.4315
1.95897
1.61942
2.91165
3.03688
0.613941
2.07949
20.9564
2.12672
32.0459
3.63795
2.99891
2.82205
1.28534
2.91782
2.85538
2.39688
1.50583
1.42426
1.18878
2.09972
0.544647
25.753
22.8942
2.10068
31.9477
32.0432
1.99981
2.09248
0.250631
31.9582
2.78714
2.93436
1.4971
23.6715
32.0406
2.68265
0.0656007
2.9799
32.2339
0.63003
32.0882
1.59025
2.36426
2.74055
2.77109
31.9429
32.0618
3.03161
2.07574
2.12064
32.0369
1.67429
2.12088
2.52004
31.505
1.51776
0.180671
28.6932
1.26216
-1.51999
2.86476
31.1257
2.87426
3.24616
32.0548
2.51763
0.285634
8.82288
2.48392
2.57337
0.525246
2.30026
2.46696
0.147934
2.60273
2.84643
2.4059
0.486554
2.10613
2.8955
1.63144
2.54026
1.04208
2.01974
2.93512
0.605327
32.0706
2.54489
2.50145
2.93725
0.742289
2.83608
31.3398
2.52282
1.27319
32.0607
2.76794
0.0109184
2.53064
2.4744
0.369413
-0.103449
2.24388
2.41222
2.86854
32.0757
32.0392
2.91281
31.6395
2.93018
2.97636
31.2371
0.378894
2.57623
1.48701
32.1687
1.27948
1.4247
2.81326
2.89843
1.37852
0.660873
1.67949
2.7238
32.0431
31.8399
2.98732
2.64314
2.81999
1.80124
31.8385
2.67465
2.43707
31.233
1.6349
2.12041
-0.142598
2.82783
2.75943
2.26029
0.622588
1.89485
31.666
2.57832
1.32272
2.42209
2.88115
31.8444
2.8093
32.3494
32.0187
1.42358
2.33319
1.53263
4.12775
2.73796
8.85187
31.4641
2.27482
2.48817
1.80311
1.56189
31.9422
31.6817
31.639
1.56602
1.5876
2.79065
1.25905
30.9647
31.8628
1.53397
1.72299
2.79555
1.58559
1.55835
1.96201
2.68509
19.2412
31.3572
2.33735
0.229121
31.8571
2.13187
1.89916
3.38704
2.35217
1.84451
2.92799
31.8593
1.62612
1.89726
31.621
31.0259
0.231558
0.427899
0.698211
0.32805
1.88998
1.96319
0.598961
1.28423
1.78182
0.312993
31.8377
31.8053
0.0437582
0.39892
1.86905
3.17088
1.83766
1.74083
2.41107
1.54599
1.81556
31.4009
31.6499
3.12597
31.8262
28.1576
1.9464
1.26864
1.84704
3.08366
29.5171
2.77986
3.2477
30.0086
3.17888
2.80969
1.82273
1.84346
0.186507
2.11753
2.86693
0.365709
32.0284
29.8079
2.93659
0.659
1.54876
0.666035
2.66028
2.62155
2.9439
29.9005
1.96179
0.597286
1.66666
3.09623
2.7548
2.91615
2.81823
1.89673
0.508541
29.5101
2.62802
1.88091
13.757
28.1966
26.2317
1.74929
27.6387
0.121836
1.69918
1.55325
2.12359
2.78456
21.7793
14.6232
32.7106
27.7432
2.90352
31.4213
31.4217
-0.789441
32.025
1.27873
1.60799
1.39355
1.18707
1.25226
2.11095
26.2606
0.637914
0.317074
2.59376
1.9845
1.19695
1.90166
31.4441
2.81787
1.18514
2.10863
31.4269
2.47302
1.93005
31.4233
31.895
2.73979
1.15447
32.2421
2.22521
2.02787
2.73014
32.1332
31.4167
0.257841
2.78853
2.1267
31.4316
31.5406
31.4228
2.38303
12.8217
11.9426
0.756857
2.22489
32.2403
0.831638
2.30424
1.7434
0.275644
0.20483
0.877912
1.96914
0.303385
31.8467
0.847316
0.577925
0.119305
1.42998
0.369144
0.424108
0.356408
0.400779
0.182026
2.90677
2.3316
1.89473
2.7659
2.92429
2.0664
0.363137
2.38275
0.400145
0.164262
1.07174
0.731239
2.83316
0.700779
2.38985
0.755208
30.6336
1.92048
17.3742
1.43622
2.06408
31.6269
2.51028
30.6384
2.15737
30.7416
31.9425
1.6381
2.52906
28.3724
0.633927
1.6085
2.55997
31.8675
32.1523
3.11784
0.865576
2.94767
1.43564
0.56864
2.48817
3.05443
2.40916
2.53286
26.8894
1.90298
31.4526
31.8848
1.14434
0.850455
3.10797
1.11163
0.754602
2.56146
2.60145
31.5281
2.93642
0.725888
2.51778
31.5604
32.214
1.90128
2.18239
25.6355
2.85011
0.165231
2.25749
-0.301436
0.654592
1.47739
31.9
20.0469
1.2003
2.96461
31.9087
1.17726
2.82945
2.3216
3.29134
1.15418
3.17175
1.89866
2.97017
21.1779
3.01373
31.9836
2.16302
2.55262
0.619524
0.0868264
27.4129
0.0882966
2.95082
2.44936
2.75605
30.2853
31.4251
1.26625
2.95849
2.47719
2.15219
2.83199
0.900645
0.18039
1.64444
0.331147
0.198315
2.83359
29.0477
2.97523
2.3817
0.0283898
2.78512
29.7419
31.3382
-4.67117
3.01343
33.0663
2.93533
2.63035
29.997
21.7674
23.1463
2.50104
1.1611
4.26323
24.5511
2.70344
1.33713
30.8824
1.09703
28.2693
2.30728
0.911138
31.6605
0.134896
2.85255
2.83895
0.857588
31.377
2.62419
2.67712
2.87895
2.87016
2.99923
3.00951
2.64132
2.98522
2.67929
0.502657
1.17436
31.8991
26.9579
27.087
31.2916
2.42829
1.35776
1.222
2.72793
0.714043
1.2384
2.24437
2.56546
2.46158
0.903364
2.65641
2.66013
2.37341
0.695623
31.998
2.77959
2.70675
2.52084
2.70576
30.8668
1.55077
1.56425
2.26166
2.13798
1.74563
31.3062
1.76695
1.72802
28.2081
1.78829
2.38969
31.283
1.69847
31.2327
31.6668
1.52978
2.42669
2.41577
1.74006
31.3333
0.382323
2.59072
31.6775
1.49051
1.79899
1.5051
2.44349
31.3818
2.54119
2.54102
2.34318
31.4493
1.34997
0.534043
2.34881
1.11595
1.34952
32.2666
30.6226
29.1652
0.185975
29.6679
1.27337
1.03473
0.394875
31.9603
0.432019
31.3003
31.9984
31.8394
1.52104
-0.0189952
2.8208
2.36887
1.37845
30.5272
28.268
2.83504
2.75892
1.1059
2.805
1.3522
2.19546
31.9999
24.1724
24.6381
31.3844
24.8968
0.113559
32.0395
1.31355
2.20889
1.38391
0.273963
1.56784
26.4902
0.995265
2.22989
2.56944
2.92959
26.6441
31.9809
2.59896
1.04922
2.62755
1.75455
2.97064
2.89529
2.60431
2.85491
0.886951
0.201161
0.860363
0.720932
0.844391
2.2488
2.37826
0.620398
0.824317
2.9314
1.50754
1.79973
0.164056
-0.925847
0.611458
2.91449
31.6756
-0.210077
-3.62085
0.384309
0.25208
0.0859533
2.24969
1.813
-4.30266
0.26649
3.02999
32.048
1.29224
1.74807
1.84279
31.9404
1.35585
0.813129
0.286888
1.67842
32.2282
32.0372
2.40767
0.567656
0.52135
0.111645
31.7095
32.0763
31.5237
1.88414
2.25586
0.492056
32.0795
1.2548
32.0459
32.1248
0.303882
0.220934
31.2785
0.49766
0.520175
0.0154385
31.6409
32.1394
0.862284
2.25132
32.0775
0.436829
0.548251
0.175634
32.266
32.2892
32.1731
0.167823
0.434378
2.85341
0.551389
31.5993
0.400385
2.09393
2.84862
2.66178
31.1312
31.9648
0.570523
2.94824
2.87517
1.60797
31.1308
2.84865
31.4516
0.606216
2.98546
2.11357
31.318
29.1827
2.93009
3.12818
28.674
28.8383
31.4635
1.5365
30.6829
27.5588
2.1961
2.15886
31.4614
28.2606
1.91177
0.562916
0.463063
1.51619
1.29023
28.6914
2.2749
26.5819
25.9908
31.9928
1.56809
2.51306
0.424585
26.1373
33.9356
2.22221
2.99504
2.36602
2.5064
1.99675
1.7822
1.96374
0.62958
25.6983
2.10643
1.53356
0.61235
1.51578
2.44279
19.4504
1.36811
1.4586
1.46404
1.45575
0.563381
24.9806
29.414
1.68906
29.6188
29.966
2.01901
29.6798
1.27427
29.0463
29.3759
31.3617
28.3248
1.6128
0.589424
1.58304
28.9831
0.838
1.53156
2.02966
29.4168
32.0693
1.62562
1.71526
2.89099
1.62862
28.1974
0.0534767
0.489715
0.352153
31.3304
31.5394
1.02139
0.836518
31.6455
29.5447
2.74776
0.0482351
28.9335
2.98534
2.69752
2.73598
1.78966
29.2208
1.98434
7.27913
0.315968
0.381775
2.82625
2.68438
2.58743
1.10878
2.07423
28.621
2.26998
2.06716
2.86147
2.89153
2.75589
29.3403
1.38685
2.09755
1.22347
1.75013
2.062
2.83296
0.619422
2.80159
2.61679
2.792
0.911658
2.7957
2.97459
2.02283
2.47086
32.1137
2.07553
32.2159
1.99454
2.09332
2.78239
2.8525
2.80677
2.00919
2.02942
2.87684
1.61142
0.62691
31.2859
24.5811
2.87501
2.91854
2.37362
2.94676
3.00582
2.8582
3.03067
3.34204
25.5245
0.581136
3.4183
-3.08733
26.5051
0.195521
24.7812
1.56168
1.97923
2.4123
1.48234
31.6751
1.98278
2.84151
-0.843257
31.4302
2.94625
0.527346
2.64115
2.94561
2.98262
24.9728
31.4088
1.47602
2.14377
1.19914
2.14793
1.93842
2.13097
3.1053
27.3608
0.297192
26.4651
2.28037
0.570876
2.30065
32.1259
22.8572
2.87233
2.17282
1.61032
2.2698
31.4258
2.32001
2.28929
0.271405
2.27037
13.6716
8.27091
2.39115
32.0066
31.3645
1.44816
13.3033
2.81709
32.1504
1.11262
31.9403
0.42606
31.6152
0.725827
2.83732
2.31071
2.26638
2.40807
2.08389
2.647
2.8643
0.270587
2.41003
1.35748
2.39799
30.5959
0.837098
31.3019
2.43655
2.45674
1.94762
1.76142
2.38269
0.511143
1.55259
2.30148
2.34439
2.42407
2.70248
2.99039
32.4571
2.32414
0.630122
0.786617
0.571834
2.36416
0.558266
0.835658
3.05076
2.15076
0.969061
2.14765
1.39558
2.43292
1.98181
31.3499
31.3335
2.06482
2.15938
2.60754
31.4735
-0.317746
0.299246
2.07464
1.56761
1.02238
1.67317
1.41419
2.16848
0.066066
1.30233
2.69593
1.09288
1.84225
1.68947
1.5452
2.72398
2.40427
1.07366
2.83137
2.26169
1.86037
0.901335
2.48942
0.902705
1.24164
0.66426
1.63159
2.1205
1.07602
0.835741
31.2451
2.46192
1.51217
1.83147
12.9557
2.46553
26.6666
1.47916
2.38017
0.356735
2.59679
31.8352
2.40952
2.63569
-0.62657
2.53915
0.342669
2.67368
31.4191
1.70826
0.435678
2.7088
2.79283
1.45432
31.2023
31.4389
6.11341
29.6275
2.70579
31.9312
2.7696
6.18616
29.6062
29.8113
0.371098
30.3025
32.0459
2.6822
1.63085
32.2908
1.97294
1.44823
1.97454
-2.38483
32.0453
2.96542
2.66423
2.61921
4.03482
32.0421
3.08352
2.64895
2.85578
31.4119
1.66001
2.64493
31.8414
1.44725
32.0058
32.1597
2.88597
2.62709
32.1091
3.44406
3.02738
3.04406
2.9877
2.35338