/*--------------------------------*- C++ -*----------------------------------*\
  =========                 |
  \\      /  F ield         | OpenFOAM: The Open Source CFD Toolbox
   \\    /   O peration     | Website:  https://openfoam.org
    \\  /    A nd           | Version:  10
     \\/     M anipulation  |
\*---------------------------------------------------------------------------*/
FoamFile
{
    format      ascii;
    class       volScalarField;
    location    "4.8";
    object      T;
}
// * * * * * * * * * * * * * * * * * * * * * * * * * * * * * * * * * * * * * //

dimensions      [0 0 0 1 0 0 0];

internalField   nonuniform List<scalar> 
111485
(
303.15
285.16
301.077
303.15
298.566
283.15
299.078
293.462
296.515
286.314
300.633
296.308
300.331
284.611
300.105
286.81
299.287
298.952
294.264
303.15
303.15
283.15
297.419
288.766
301.566
303.15
293.314
300.652
289.021
303.15
300.786
294.312
303.15
283.15
283.469
283.15
302.313
297.876
283.149
296.739
283.15
289.757
297.151
302.899
303.188
303.15
287.501
288.623
289.799
303.15
303.15
283.15
303.15
299.088
303.15
293.722
287.97
283.15
283.328
295.608
296.011
303.15
302.119
300.377
283.15
284.622
300.692
291.641
302.166
302.558
303.168
301.956
303.15
302.167
303.15
295.394
283.15
293.625
283.15
283.15
283.245
293.464
283.15
303.15
300.433
284.267
283.15
301.629
303.128
299.286
283.393
289.735
300.968
300.37
289.973
303.15
303.15
301.629
303.149
283.43
303.15
286.757
283.15
285.261
285.783
283.15
283.15
293.062
301.514
283.146
298.999
288.201
301.371
301.756
303.15
302.034
303.15
283.15
300.254
303.15
303.15
283.15
283.15
283.15
283.412
303.153
283.15
301.88
303.15
283.18
303.083
302.023
303.15
283.15
283.15
292.693
283.15
294.441
298.929
301.187
303.138
296.962
299.104
284.834
302.31
298.075
283.15
303.15
283.15
297.301
285.006
303.15
303.145
287.54
283.156
293.908
295.808
302.542
283.154
303.15
303.15
292.382
286.325
283.153
283.157
301.293
283.708
283.15
283.153
283.153
283.15
303.15
283.21
283.15
291.52
287.269
283.15
303.15
303.15
283.15
303.15
303.15
297.799
293.704
295.985
290.088
301.456
300.55
283.192
303.15
301.537
303.15
303.15
300.293
286.342
301.499
301.352
295.958
303.15
300.933
284.648
283.161
300.869
297.07
303.15
300.542
288.378
303.15
283.234
300.253
284.874
300.808
303.15
303.15
300.821
283.15
293.007
283.15
300.729
298.868
290.502
303.15
301.798
300.6
283.15
283.15
283.15
289.645
283.158
283.15
303.15
298.808
291.69
290.062
283.15
303.15
303.11
303.15
284.373
300.221
299.412
299.661
299.535
283.15
283.143
299.043
283.15
283.15
288.848
288.517
283.15
301.244
299.071
303.15
283.15
301.054
303.15
303.15
303.123
303.15
288.332
285.897
291.151
303.15
298.534
303.15
303.15
303.15
283.148
298.205
301.076
299.559
291.287
299.616
296.39
283.215
290.586
291.929
283.15
303.15
283.149
292.475
298.831
286.519
303.15
298.139
297.393
299.038
302.97
283.165
297.27
299.499
302.028
283.15
283.638
283.15
283.149
303.15
283.956
290.344
286.4
303.15
283.15
297.755
285.381
303.15
303.15
303.15
284.668
290.536
301.154
284.465
293.171
283.15
283.15
303.15
298.512
303.15
283.854
289.743
283.152
283.15
303.15
303.15
283.15
294.517
290.038
283.15
295.907
283.15
303.15
301.159
297.473
294.066
296.012
283.15
283.15
283.15
296.794
291.367
302.392
283.15
283.15
283.149
290.167
297.116
283.221
290.633
283.15
292.942
299.692
284.234
298.823
285.306
283.15
303.15
283.15
303.15
290.736
296.655
288.102
292.142
283.15
286.418
283.15
303.15
293.972
303.15
301.945
303.15
283.15
292.15
283.15
289.081
284.682
283.15
284.015
298.192
283.15
300.274
284.745
298.995
303.033
291.416
286.036
283.15
303.15
303.145
283.15
301.073
300.941
283.15
283.15
294.736
284.403
298.43
296.86
283.15
295.321
296.236
283.15
302.102
283.921
303.15
303.15
288.533
298.735
283.15
303.15
303.15
303.15
300.78
283.15
303.15
294.031
283.171
287.032
300.086
283.15
283.15
302.649
283.15
302.502
301.515
298.032
289.536
283.15
294.184
303.386
303.15
298.798
292.405
303.15
283.15
283.312
283.15
290.198
286.204
291.981
283.15
293.197
296.67
293.375
303.147
283.15
303.15
303.15
283.169
293.073
283.15
284.367
303.135
283.15
303.15
303.15
303.15
301.836
290.836
286.082
284.234
284.355
283.15
285.785
303.15
300.835
283.15
303.15
303.15
300.746
303.15
303.15
283.151
303.15
283.15
300.775
283.15
283.15
283.15
303.15
283.15
303.15
283.15
283.688
283.15
303.129
301.874
283.778
283.15
303.09
283.15
303.15
284.748
284.711
286.2
297.732
283.15
297.662
297.769
292.576
287.007
285.309
303.15
292.059
283.15
299.988
283.15
296.966
283.15
292.355
298.697
303.151
283.15
286.985
303.15
295.693
299.227
283.15
283.15
283.15
283.15
303.15
293.854
283.15
283.15
283.244
283.15
299.944
283.15
284.857
303.15
283.443
303.123
284.711
292.19
283.15
301.553
283.15
283.15
285.769
283.15
283.261
283.15
299.8
303.15
290.857
303.15
283.15
302.427
284.504
300.204
285.712
300.202
289.541
283.15
300.731
284.589
283.15
283.14
300.479
301.663
283.15
282.381
301.149
303.068
283.117
303.15
287.637
302.223
284.439
285.454
288.438
282.484
283.15
303.15
300.871
303.15
283.569
283.15
283.15
291.999
282.656
303.15
303.121
283.15
286.361
299.695
283.15
283.15
299.705
303.15
283.15
283.15
283.15
286.234
283.15
303.15
284.876
284.281
303.15
299.793
283.15
289.274
303.15
283.15
286.237
283.15
283.15
283.15
285.524
283.15
285.519
292.19
303.15
300.483
283.458
298.851
301.002
283.364
283.47
283.15
289.125
298.587
303.15
302.278
296.124
297.02
284.742
297.583
297.316
303.15
300.318
303.137
283.15
297.3
284.898
283.15
292.604
295.898
284.914
298.908
300.723
292.568
283.15
299.034
283.478
303.15
300.682
302.022
294.33
283.15
286.709
303.15
283.15
283.15
283.15
283.31
283.15
303.15
303.15
283.15
300.495
299.397
303.15
285.698
303.15
303.15
303.15
290.117
283.431
283.15
303.15
283.15
283.15
286.974
292.613
283.15
295.327
283.135
283.15
295.5
302.267
288
283.15
283.15
300.368
292.333
283.15
283.15
283.15
294.132
303.15
303.15
283.15
296.415
302.411
283.15
282.558
301.973
286.715
283.15
283.15
287.524
302.985
283.15
283.16
287.603
283.785
288.962
283.15
285.783
300.396
283.15
303.15
283.15
283.15
283.15
283.15
295.856
303.15
283.15
283.15
295.469
292.051
303.15
303.15
290.003
298.6
298.494
303.15
283.15
298.172
303.15
283.868
299.017
298.538
303.15
303.15
303.15
283.15
286.124
283.15
283.15
302.722
303.15
297.981
302.315
283.15
294.296
283.256
296.624
292.07
283.435
289.948
283.15
283.15
297.068
288.227
290.82
283.15
283.15
298.318
295.194
283.15
283.936
284.651
283.484
303.15
303.15
303.15
290.766
283.15
300.2
283.15
284.407
297.645
298.692
292.506
283.15
283.15
303.15
295.606
283.15
283.15
303.106
283.15
283.15
303.15
283.15
299.475
283.15
283.15
283.15
283.15
283.15
303.15
283.15
283.173
298.802
303.15
302.552
283.129
283.408
283.093
285.622
283.15
284.487
290.653
283.409
303.15
283.149
299.888
283.15
300.388
283.16
283.143
286.283
297.7
283.22
291.81
297.962
283.15
283.15
299.232
299.93
283.15
297.533
291.366
297.514
283.15
283.248
283.15
297.838
296.951
283.15
300.256
297.599
283.149
299.973
283.15
295.759
283.144
303.118
283.162
283.16
283.15
283.15
284.481
283.15
302.979
283.612
283.081
303.148
303.149
303.147
283.15
283.15
294.015
303.15
303.136
283.895
283.15
283.15
303.155
303.15
283.15
303.164
283.15
283.15
303.15
303.15
303.15
303.15
283.374
283.15
283.15
283.15
303.159
283.312
283.913
293.669
283.15
283.15
283.345
283.15
283.15
283.15
287.321
293.808
283.15
283.15
283.15
283.15
283.15
283.15
284.037
283.15
303.151
291.71
283.15
303.15
303.15
303.153
303.15
303.15
283.15
303.169
283.15
283.722
283.144
303.152
283.15
303.066
284.46
292.276
303.15
303.13
284.507
303.15
283.15
303.15
283.15
294.259
293.631
284.71
303.148
283.15
293.459
283.15
283.15
303.15
283.15
295.025
283.15
303.15
283.163
298.233
303.15
284.439
283.15
283.604
283.15
283.15
283.15
303.15
286.002
283.487
284.481
283.15
283.15
285.783
283.15
283.15
303.15
284.393
303.163
298.712
303.15
303.129
303.13
283.15
303.133
283.15
283.46
289.301
301.023
283.84
283.168
283.15
283.15
283.15
303.181
283.15
302.927
303.15
293.183
303.15
288.778
283.852
303.15
283.15
303.15
283.15
301.875
303.15
303.15
286.579
300.684
283.15
283.15
283.15
283.15
283.15
283.15
300.936
283.595
303.15
303.15
303.157
303.15
300.329
284.452
283.15
302.168
303.15
301.694
283.15
302.605
283.15
283.148
303.152
283.323
302.179
300.36
283.147
283.15
289.456
303.15
293.586
303.15
283.15
303.15
283.15
283.15
283.15
300.924
302.112
303.15
303.15
303.15
302.92
283.149
303.15
293.096
283.082
303.15
297.498
298.288
296.663
283.386
283.15
283.15
283.15
283.15
294.8
283.15
295.062
283.15
303.067
289.913
283.15
302.881
283.15
283.15
302.772
283.148
302.922
283.15
303.15
283.15
302.436
283.15
303.15
283.15
283.147
283.15
283.173
283.15
283.15
303.15
292.981
301.109
296.271
297.193
303.15
303.12
283.15
283.15
285.843
283.15
283.158
302.868
298.771
302.96
303.15
283.374
283.15
303.15
283.15
303.003
283.34
298.315
283.15
303.15
288.192
303.15
283.15
283.122
295.244
283.147
283.15
283.15
283.148
303.15
283.15
303.143
303.15
303.15
290.092
302.999
303.016
289.164
293.495
283.15
283.15
303.099
289.236
283.15
303.15
284.796
283.15
303.15
283.15
283.15
283.15
297.874
283.15
302.951
283.15
300.631
283.15
283.15
283.15
283.15
283.15
283.15
285.105
283.15
283.15
283.15
283.15
283.15
283.15
292.192
283.15
298.381
302.958
283.15
302.341
283.15
302.556
303.145
292.271
288.796
303.15
292.14
284.851
303.114
303.15
303.139
295.087
288.71
283.15
287.947
283.15
283.15
283.15
283.15
287.602
283.15
283.15
291.608
303.137
285.338
283.15
283.15
302.536
283.15
283.189
303.15
299.89
283.15
283.15
302.834
283.15
303.178
303.15
283.15
289.167
298.029
292.733
285.77
292.77
294.251
283.15
283.15
302.334
290.628
292.961
284.467
283.15
294.399
283.15
303.15
300.832
298.82
283.15
297.438
283.15
292.81
297.427
303.15
283.15
283.15
301.844
283.15
283.15
300.615
296.164
283.198
291.211
283.15
283.15
302.819
300.633
283.15
300.749
283.15
300.609
283.15
283.15
300.907
283.15
283.23
301.676
283.15
283.15
302.477
283.15
287.992
303.15
290.608
303.15
303.15
303.15
301.044
283.15
283.15
299.675
283.15
302.997
283.15
283.15
303.15
283.151
288.278
283.15
283.15
288.138
288.319
283.15
283.707
283.15
303.15
302.461
283.758
301.67
283.15
283.15
283.15
283.15
283.15
283.15
283.15
283.15
283.15
283.15
283.15
303.15
283.15
283.15
283.15
283.15
283.15
283.15
283.15
283.15
303.15
287.026
283.15
283.15
283.15
294.905
283.15
303.15
303.01
283.15
283.15
294.917
283.15
283.15
301.983
295.39
283.15
303.576
303.573
283.15
301.581
294.162
297.724
301.557
298.316
303.15
283.15
296.392
291.946
301.503
283.15
302.204
302.442
300.974
288.06
287.311
301.155
301.801
301.855
303.15
285.963
297.709
285.619
297.418
283.15
283.15
283.15
303.15
283.15
292.174
298.066
283.15
283.15
283.15
283.15
283.15
303.15
283.15
303.15
292.183
303.133
299.169
302.852
283.15
283.15
285.465
283.168
283.15
283.15
301.717
303.15
283.15
298.304
299.645
297.678
298.808
300.91
303.15
290.999
302.615
303.15
303.15
300.436
303.15
283.15
282.916
295.737
302.959
283.15
303.15
289.793
286.265
297.07
292.373
302.497
303.15
303.138
303.15
303.15
283.15
298.98
283.15
291.977
290.55
299.832
284.809
303.15
301.996
303.15
283.15
303.15
303.15
291.563
299.954
283.15
303.15
303.135
291.955
303.047
299.498
293.037
288.346
293.116
283.15
303.15
283.15
291.461
298.484
303.151
303.15
303.15
303.15
297.63
302.573
283.15
300.117
301.233
284.947
299.672
303.15
303.15
298.857
293.163
283.15
302.917
299.852
302.625
292.157
297.498
298.426
303.15
287.009
298.188
291.554
283.15
289.253
303.15
288.463
301.162
303.15
288.748
301.371
300.207
293.365
283.148
283.16
283.244
301.834
301.025
303.15
288.808
301.559
303.15
283.15
303.15
303.208
298.917
291.268
296.878
303.245
283.149
297.758
303.15
303.15
293.008
303.15
300.353
283.316
301.407
291.502
303.15
283.679
293.436
303.15
283.028
298.863
303.15
300.824
286.321
303.15
303.15
284.023
303.15
283.15
283.15
285.911
299.503
291.398
303.15
285.301
297.684
283.15
299.048
299.078
288.997
303.116
283.15
301.522
299.544
299.047
300.235
288.657
290.979
302.499
303.15
301.643
288.757
303.15
299.057
283.15
283.15
303.15
283.15
303.15
297.546
283.15
300.67
283.661
303.15
283.831
283.15
289.88
303.15
303.146
303.15
294.299
303.004
303.123
300.008
290.409
289.523
290.57
298.623
303.15
299.563
292.353
299.101
303.15
283.901
283.473
299.426
287.277
283.529
303.15
283.15
303.15
285.411
303.15
303.298
284.719
303.292
302.965
303.15
303.15
283.15
300.668
300.665
285.617
303.093
287.001
295.871
301.899
292.691
288.369
302.104
296.294
283.15
283.15
303.15
285.89
289.782
283.15
283.15
303.15
302.014
288.896
303.15
296.572
303.15
283.156
285.268
301.123
303.15
303.15
292.475
303.15
283.312
290.634
283.15
297.309
294.746
296.048
303.15
302.741
283.15
302.697
293.631
303.15
303.15
288.812
283.15
303.15
301.876
284.515
303.15
303.15
283.15
302.382
303.409
289.64
299.844
298.095
303.15
303.158
302.635
303.15
283.15
303.15
303.15
303.15
303.15
303.15
303.15
303.15
283.15
303.15
303.15
283.355
303.15
303.307
303.15
303.161
303.15
303.15
301.045
303.674
303.15
292.222
303.15
303.15
283.15
302.594
303.15
302.18
303.117
283.296
283.15
303.15
302.941
283.149
303.15
303.15
291.544
283.15
292.768
283.15
283.15
283.153
291.397
284.883
303.15
296.764
283.15
303.642
303.134
284.352
302.628
283.15
292.345
303.086
301.737
283.15
303.15
283.15
303.959
284.866
296.93
303.15
303.15
303.15
303.15
303.15
303.15
302.401
302.832
297.723
292.299
303.15
287.29
292.815
285.03
303.204
283.15
286.98
302.779
284.818
283.147
287.531
303.15
283.397
302.935
292.712
302.866
301.965
303.15
302.255
303.15
303.15
298.095
303.15
284.539
303.15
303.15
283.15
303.15
303.15
302.866
303.15
283.304
283.15
283.15
285.931
284.951
300.925
286.221
303.15
295.143
303.15
290.58
303.15
287.296
300.791
301.565
293.505
303.15
303.15
303.15
289.844
283.15
303.15
289.596
283.15
283.15
301.895
303.15
286.234
283.148
283.15
303.15
303.15
300.707
298.354
303.15
293.753
303.045
283.15
298.644
303.15
286.443
288.312
302.173
303.15
296.424
296.78
302.966
301.949
301.706
303.15
303.15
303.147
303.15
283.15
303.15
289.605
300.111
294.432
302.184
283.15
300.476
291.575
298.371
283.625
298.485
289.803
302.215
283.15
283.15
283.15
302.258
283.15
290.614
283.15
301.349
303.16
289.759
298.065
283.15
303.15
301.337
301.315
303.15
283.15
303.15
286.45
301.529
302.989
302.387
298.057
288.488
303.15
303.15
303.15
294.56
286.087
290.037
296.076
283.99
302.97
303.15
303.15
283.15
283.15
285.434
299.702
303.15
303.15
283.15
303.15
303.15
303.15
300.384
303.15
285.447
292.982
283.15
283.253
293.522
285.726
303.15
303.15
301.957
303.15
299.367
283.146
297.672
303.15
303.15
283.15
303.15
303.15
303.15
305.417
303.15
301.909
301.147
303.15
303.15
301.696
303.15
283.15
287.327
303.118
303.15
303.15
303.15
298.157
303.15
303.15
302.568
302.529
301.852
303.15
283.15
303.15
302.104
302.55
301.604
302.573
283.15
300.811
287.707
297.481
283.15
303.15
303.15
303.15
303.15
294.536
287.614
299.691
303.15
303.15
303.15
303.15
283.15
303.148
284.898
285.174
283.15
303.15
303.15
283.147
299.716
295.188
283.15
303.15
303.15
303.15
303.15
289.664
289.838
303.15
303.15
302.417
303.15
301.465
283.983
292.055
303.15
283.15
301.184
303.127
303.15
303.314
301.418
286.991
303.15
303.15
303.15
303.15
293.329
284.21
303.15
302.726
298.259
290.035
303.15
303.15
303.15
303.15
299.659
303.151
303.15
303.15
298.483
302.601
288.545
303.15
303.15
297.951
303.15
303.15
303.15
303.15
288.915
303.15
283.15
283.15
296.182
291.262
303.15
303.15
303.15
297.137
303.147
303.15
303.15
303.15
303.15
303.444
300.977
303.15
287.447
302.676
299.54
303.15
303.15
303.15
303.15
283.15
285.775
303.15
302.833
283.15
302.232
303.15
303.137
303.15
283.15
301.956
286.073
283.15
302.852
303.15
302.46
283.15
303.15
303.15
303.151
303.15
283.277
303.15
290.941
283.15
283.15
303.15
303.15
299.038
302.418
283.15
302.485
283.15
284.156
288.144
302.727
283.15
303.154
302.998
303.136
284.462
283.156
302.995
283.15
283.15
283.156
302.147
302.342
303.15
283.15
283.15
295.969
303.15
283.15
303.15
303.15
303.15
303.104
303.054
302.952
302.487
303.15
302.929
303.15
284.881
303.15
303.15
283.15
303.15
303.112
303.15
283.15
303.15
288.383
303.15
303.15
303.185
283.15
303.125
302.412
297.392
303.15
290.194
295.612
284.069
290.748
283.15
283.15
287.269
284.378
283.15
303.71
283.15
286.463
303.15
283.15
303.155
303.15
303.15
303.021
303.155
303.15
283.15
303.14
303.15
283.15
283.103
298.889
302.73
303.15
301.905
303.15
285.737
303.151
301.266
303.15
303.15
301.129
303.15
303.15
303.15
287.766
303.15
285.199
303.15
303.147
303.15
283.15
283.15
303.15
303.15
303.15
288.819
302.588
303.15
303.15
288.775
286.578
291.587
303.15
302.728
287.743
287.631
303.15
303.15
288.015
283.15
292.152
303.15
303.153
303.149
303.15
300.647
283.15
302.336
283.15
303.15
303.15
303.15
303.15
303.15
284.386
302.283
291.299
303.15
303.15
290.825
303.15
303.15
303.15
303.15
303.15
300.33
303.15
303.15
283.15
299.664
303.15
283.15
303.15
301.459
283.15
300.118
290.821
302.707
300.178
299.625
303.15
303.15
303.15
300.995
288.683
283.15
303.15
300.453
303.15
303.15
292.239
303.15
287.593
303.15
298.055
284.382
303.15
283.15
303.15
303.15
303.15
285.357
303.15
300.609
303.15
303.15
299.853
283.15
284.808
303.15
303.15
288.279
301.557
296.663
303.15
303.15
303.15
301.574
292.437
303.15
283.15
303.15
300.798
303.15
284.832
296.548
303.15
303.15
301.24
303.15
303.15
283.15
303.15
283.15
294.861
303.15
283.15
303.15
303.15
303.15
303.15
303.15
303.15
283.15
301.522
283.15
302.131
303.15
303.15
296.256
300.601
303.15
283.15
303.15
300.993
283.15
303.15
303.15
303.15
300.782
303.15
297.888
303.15
285.949
283.15
286.812
303.15
303.15
298.633
283.15
303.15
288.042
283.25
303.15
303.15
285.163
283.89
300.955
301.803
301.281
293.265
301.804
283.877
303.15
297.956
283.15
283.15
303.15
303.15
303.15
301.31
303.15
303.15
303.15
303.132
283.17
283.15
283.579
303.15
302.064
283.15
303.143
296.301
283.15
294.743
303.15
303.15
283.15
300.022
283.956
303.15
283.15
300.05
303.15
297.862
303.15
295.479
303.15
283.15
303.15
283.15
299.498
283.15
283.235
283.15
286.269
303.15
303.15
283.15
283.15
303.15
303.15
303.15
303.15
284.923
284.893
283.15
303.15
283.236
283.15
283.15
303.155
290.067
283.557
283.15
301.588
284.948
300.512
288.35
303.15
303.15
303.15
303.15
283.15
283.15
283.15
303.15
283.15
283.15
303.15
283.15
297.377
283.15
303.15
283.15
303.15
303.15
283.483
283.15
303.15
302.005
303.149
303.15
303.15
303.15
288.796
283.15
303.15
303.149
283.15
303.15
303.15
303.15
295.353
283.15
283.189
303.15
303.15
303.15
303.15
303.15
303.15
303.147
284.15
303.15
283.15
303.15
303.15
303.15
303.148
303.149
283.15
283.15
283.15
303.15
303.15
283.15
303.15
283.15
287.783
283.15
301.878
283.15
303.154
303.15
284.647
283.15
284.489
297.563
303.15
284.731
303.171
303.15
297.573
283.15
303.15
303.15
303.15
303.15
283.15
303.15
303.15
299.308
283.15
303.15
303.15
303.15
303.15
292.393
291.025
303.169
283.167
303.15
301.881
302.363
303.15
283.15
283.15
303.15
303.15
303.15
283.15
283.15
283.841
303.15
303.15
303.192
303.151
283.15
289.036
303.15
283.15
303.15
288.218
303.15
283.15
302.165
283.15
283.15
283.15
303.15
299.781
303.15
303.15
303.15
283.15
284.543
293.755
295.423
289.74
303.125
303.028
283.15
283.15
301.137
283.712
283.15
303.149
303.15
303.15
283.15
294.725
303.15
283.15
302.991
303.15
303.15
283.823
303.15
303.15
288.564
289.758
303.15
283.15
303.15
283.15
303.15
303.15
303.15
303.15
283.97
303.15
303.15
303.15
302.945
303.15
303.15
283.15
283.15
283.15
283.15
302.957
283.15
283.15
301.053
303.15
284.812
284.975
303.15
301.214
303.15
283.15
303.15
283.15
283.15
303.15
303.15
303.15
302.695
303.15
303.15
303.15
283.15
303.15
283.15
286.459
303.15
303.15
291.765
303.15
283.15
283.15
302.46
303.15
303.148
283.15
303.198
286.766
283.15
283.15
299.335
283.15
283.15
303.057
303.16
293.339
303.166
303.151
303.152
283.15
283.15
302.671
283.475
285.951
300.943
283.16
283.15
291.063
301.64
301.546
283.15
300.321
290.678
300.187
302.257
302.804
284.754
295.744
299.354
286.242
293.535
300.211
303.15
297.899
297.865
302.807
283.686
292.66
301.231
287.333
303.15
301.151
303.15
300.763
301.569
283.656
285.062
303.15
283.15
302.299
301.752
283.145
303.172
288.576
302.706
301.95
300.921
303.15
303.223
301.235
295.275
300.458
289.224
302.938
301.663
302.206
302.325
284.265
302.536
301.676
283.181
303.15
302.91
303.15
303.15
302.147
302.058
294.456
303.15
284.741
292.438
292.406
301.182
303.15
284.065
285.231
284.423
303.15
298.983
303.15
296.419
295.519
300.843
303.143
303.15
303.15
302.016
301.341
302.805
303.15
292.707
302.77
290.173
283.15
298.396
294.062
303.15
300.538
283.15
283.206
283.15
302.615
303.108
303.15
302.989
298.563
283.148
300.591
302.27
295.366
283.555
296.017
297.222
283.483
303.134
284.816
296.295
283.326
297.093
300.598
300.367
300.483
302.044
290.202
301.654
303.15
302.748
302.682
302.676
296.483
302.9
283.15
302.075
293.488
303.15
283.445
286.808
301.279
302.623
290.557
284.848
287.807
302.649
296.529
303.15
303.15
295.151
283.15
292.807
283.443
303.15
290.558
290.399
283.94
303.15
297.378
298.523
284.279
301.348
294.238
290.197
300.586
303.111
303.15
303.15
283.573
302.649
283.358
285.901
303.15
303.026
303.045
303.15
285.471
300.828
298.11
283.259
299.674
302.41
300.588
287.054
283.15
303.109
301.866
283.773
283.144
303.15
303.08
303.15
303.15
284.23
302.568
296.411
283.048
283.152
303.15
283.15
302.965
303.051
302.543
301.494
303.15
283.15
283.15
301.889
301.944
283.227
295.897
303.15
303.15
301.697
285.599
283.265
301.757
301.852
301.794
284.443
303.15
283.15
298.524
297.832
303.15
302.729
302.132
284.929
285.054
302.165
303.057
303.15
298.289
284.471
283.15
303.15
300.573
301.343
302.073
289.748
302.126
285.765
300.314
300.287
290.412
297.781
303.15
303.15
301.042
284.54
302.143
283.151
300.617
301.773
283.648
288.351
302.458
283.15
283.15
283.027
303.15
303.15
300.064
299.001
302.326
283.147
283.15
283.981
283.15
283.15
283.152
303.084
301.023
299.313
296.137
283.38
303.105
300.277
303.15
283.15
302.598
289.288
300.892
292.716
283.524
303.066
283.148
283.15
302.852
301.32
302.642
283.157
291.474
284.943
303.15
284.306
301.09
283.15
283.315
285.025
284.398
283.15
283.15
301.714
283.15
289.564
302.565
302.729
301.815
283.497
298.889
290.499
283.15
303.307
292.234
283.15
283.15
283.15
303.15
301.231
302.456
299.255
301.537
299.959
289.026
283.155
291.023
290.146
303.065
291.314
300.131
292.154
283.15
286.378
301.161
301.609
283.15
284.028
299.756
283.15
303.15
283.191
301.347
303.15
284.047
302.284
303.029
303.15
283.15
292.866
303.153
301.764
283.15
283.15
283.15
302.238
297.78
303.142
302.225
303.165
303.15
288.572
303.165
290.514
300.342
300.303
296.798
283.158
301.772
283.15
290.679
301.511
289.676
290.562
299.135
300.851
301.681
287.211
291.106
285.112
283.175
302.262
286.198
283.149
283.145
300.313
283.077
300.427
287.173
296.106
299.597
289.4
299.447
283.121
299.136
283.15
290.136
289.758
298.759
283.341
283.15
300.667
283.15
302.816
283.15
303.15
286.529
286.557
283.15
299.167
298.606
287.164
303.15
303.15
301.798
289.829
303.03
283.758
301.659
287.253
303.147
284.245
288.34
303.15
301.508
283.15
283.15
287.642
287.189
283.145
285.34
301.582
286.35
301.214
303.15
285.249
301.819
291.313
303.15
303.15
301.695
302.1
303.15
293.149
294.269
283.709
296.695
286.969
290.177
303.15
302.899
297.207
285.115
283.15
287.803
291.987
299.77
283.167
283.783
282.916
302.01
303.128
283.15
303.136
303.15
300.633
293.234
299.024
294.099
283.15
291.907
296.199
285.673
283.213
292.548
283.15
300.282
303.164
292.753
284.137
303.145
291.915
298.777
288.41
300.347
291.292
287.477
283.15
303.142
285.396
290.148
293.653
283.15
283.15
283.15
303.141
283.15
283.136
286.528
303.15
283.15
303.165
283.173
291.144
289.487
303.399
302.928
290.045
303.15
297.252
303.172
302.065
287.414
283.15
293.227
303.146
303.098
286.329
283.15
283.15
283.486
286.15
303.062
303.145
287.611
289.588
283.509
283.162
289.909
293.28
303.15
283.15
303.105
303.15
302.377
285.059
302.357
303.098
284.104
283.808
284.089
302.864
302.226
297.436
294.087
303.078
291.441
291.061
303.15
303.102
302.625
285.522
283.394
303.15
286.022
283.398
302.946
301.691
302.226
283.15
300.45
301.918
303.15
302.204
285.459
303.15
298.062
303.15
283.15
300.794
302.707
286.427
302.53
283.15
285.268
303.019
283.15
302.344
285.413
295.004
284.379
303.15
303.025
302.884
286.573
283.15
287.221
284.304
289.911
285.85
302.303
303.15
283.15
283.15
293.093
283.15
301.082
302.218
290.358
283.15
294.046
283.15
303.15
283.15
300.08
298.825
283.151
285.351
301.743
303.097
303.156
292.112
294.437
301.296
283.23
301.819
283.145
303.15
303.147
299.515
283.15
301.626
295.037
303.15
300.981
287.394
301.963
284.922
288.342
283.15
302.275
287.838
298.553
303.081
283.15
303.15
291.758
302.218
283.076
283.147
286.924
298.514
303.149
284.618
301.12
301.086
301.335
303.152
300.029
287.757
284.982
301.673
300.023
283.761
283.097
303.159
303.149
303.15
297.572
283.162
283.15
303.15
303.149
289.991
298.907
300.267
287.884
302.818
303.15
286.426
301.604
303.15
300.991
283.822
301.537
303.15
284.612
301.398
295.471
302.778
303.15
303.15
285.246
295.295
296.608
287.552
303.15
303.15
283.15
287.306
302.437
296.394
303.15
285.652
303.15
303.15
300.426
288.764
283.15
295.77
296.106
299.028
283.15
303.15
292.727
287.303
303.15
298.162
300.66
300.564
303.15
303.15
303.15
300.38
298.536
302.818
300.048
283.15
292.862
287.784
290.823
300.675
303.15
303.15
300.899
303.103
286.674
296.285
303.15
303.148
283.15
286.499
299.083
285.648
303.15
303.15
283.354
303.126
303.15
303.15
283.15
290.571
303.15
303.15
284.644
299.338
283.15
303.15
284.658
301.421
300.294
287.081
294.96
303.15
283.511
303.15
303.15
283.3
300.639
290.485
300.511
303.15
303.133
302.214
292.953
299.89
301.423
284.484
283.472
300.864
298.594
303.15
302.774
284.181
299.911
301.456
287.833
303.15
297.48
301.483
301.567
301.606
292.884
303.15
283.15
299.263
283.15
283.15
287.809
283.15
284.036
283.15
283.15
283.15
283.15
302.774
288.129
302.725
283.15
295.885
290.983
284.79
283.15
303.15
302.701
301.775
303.179
302.661
283.15
295.046
300.392
290.171
283.15
283.15
299.892
285.949
283.15
283.15
303.149
290.646
283.15
287.252
303.15
303.152
284.343
283.15
288.36
293.104
300.78
294.511
302.967
285.719
302.535
295.34
286.344
283.15
283.555
291.759
303.091
289.282
302.678
283.15
292.413
287.806
301.049
301.268
284.973
303.113
285.013
297.232
302.991
303.148
285.155
303.146
303.013
293.416
302.686
283.15
303.15
303.15
294.9
291.205
283.155
301.185
284.717
284.179
284.666
303.145
288.406
300.577
283.15
283.15
302.535
303.15
294.685
302.914
303.18
299.934
303.216
302.903
283.15
301.391
302.898
283.15
303.15
301.314
303.15
284.363
298.901
283.165
291.65
283.15
287.635
303.026
299.924
283.15
303.034
290.895
301.261
303.132
303.082
283.15
283.15
301.946
302.048
283.823
302.832
302.449
302.413
303.141
283.15
294.028
283.15
302.81
287.914
302.996
303.15
283.15
302.848
285.2
291.519
302.097
283.15
302.609
302.046
301.643
302.514
303.055
303.203
303.018
303.15
283.15
301.544
297.966
303.091
303.15
290.071
285.111
303.15
283.15
285.4
303.183
303.164
302.929
301.204
284.308
303.101
290.773
294.183
303.148
289.16
303.162
283.15
289.998
283.15
300.065
298.284
284.836
288.292
299.709
296.578
295.368
299.275
293.878
303.153
293.906
296.547
283.157
299.481
293.851
303.15
299.085
299.247
303.15
291.385
303.171
301.724
303.15
286.979
286.043
302.815
289.716
283.15
283.15
300.422
301.147
283.751
283.15
303.15
300.29
302.357
300.718
299.986
302.803
292.625
289.687
286.674
292.52
284.334
290.536
283.312
295.729
290.465
294.002
287.218
284.312
303.162
283.277
303.147
285.682
300.79
283.151
300.383
298.3
288.786
302.119
285.453
299.178
283.15
302.962
283.155
283.112
287.945
299.754
303.15
300.368
303.027
299.961
302.778
303.15
301.331
284.991
295.234
302.089
303.149
283.72
283.15
290.468
285.239
285.801
303.145
303.149
283.15
283.15
283.177
303.15
293.508
303.15
303.154
294.946
303.434
303.15
300.393
303.15
303.15
293.71
290.672
303.15
289.879
302.105
289.603
303.15
303.15
286.085
283.343
290.409
303.218
303.15
303.146
285.519
283.265
283.15
289.079
287.703
303.15
284.336
303.15
303.15
303.132
287.382
303.15
303.147
283.286
303.152
302.684
287.962
283.151
283.628
297.371
290.836
303.15
285.972
284.499
301.394
287.15
302.247
290.562
293.956
303.15
303.15
284.033
303.151
302.96
295.871
302.956
302.758
287.213
283.15
285.42
283.222
297.348
302.618
285.46
303.15
283.829
286.759
303.128
283.176
303.15
286.508
283.15
300.079
303.15
299.816
300.024
283.314
283.371
302.351
291.157
301.349
303.15
301.455
301.797
303.15
303.15
298.419
293.602
283.15
288.924
303.15
295.207
283.371
303.15
296.983
298.817
289.044
303.15
302.774
294.434
295.506
284.493
303.161
298.877
296.289
284.009
303.127
302.816
287.48
298.579
289.77
290.804
289.782
283.15
302.962
303.151
303.15
303.17
293.284
296.472
302.983
301.35
303.15
284.469
303.15
303.05
302.87
303.15
293.719
296.282
303.15
285.445
303.099
303.15
303.097
303.156
286.136
293.469
291.185
288.447
293.339
303.15
301.305
291.624
295.467
293.493
303.141
303.15
300.607
303.187
284.289
303.187
303.15
303.15
303.143
303.15
285.005
303.15
284.274
303.146
303.15
290.361
303.145
292.584
295.618
303.135
295.477
285.998
283.441
303.128
302.943
284.735
283.15
297.147
303.15
285.569
302.925
302.089
303.024
298.45
287.149
303.15
298.676
289.951
299.436
283.15
283.637
303.15
303.145
303.189
294.035
303.15
292.519
289.413
303.193
303.15
284.863
298.963
293.364
299.734
302.508
301.595
300.494
303.15
284.748
296.949
302.384
285.68
298.324
292.354
284.514
291.814
303.15
286.793
291.966
290.109
299.551
303.15
286.475
284.101
303.15
302.465
288.185
302.113
283.15
303.15
299.935
301.748
289.234
302.033
301.927
301.873
303.15
289.488
285.176
302.005
302.273
297.256
303.15
283.203
303.15
302.033
303.15
302.84
303.15
291.798
303.15
296.702
283.15
289.665
303.15
283.15
292.085
301.52
300.511
289.261
300.59
303.15
302.519
303.15
302.379
285.297
303.15
300.497
290.483
303.15
300.89
303.15
303.15
293.194
283.15
285.596
293.321
301.002
303.15
291.407
294.027
288.359
289.681
288.138
299.259