/*--------------------------------*- C++ -*----------------------------------*\
  =========                 |
  \\      /  F ield         | OpenFOAM: The Open Source CFD Toolbox
   \\    /   O peration     | Website:  https://openfoam.org
    \\  /    A nd           | Version:  10
     \\/     M anipulation  |
\*---------------------------------------------------------------------------*/
FoamFile
{
    format      ascii;
    class       volVectorField;
    location    "4.8";
    object      U;
}
// * * * * * * * * * * * * * * * * * * * * * * * * * * * * * * * * * * * * * //

dimensions      [0 1 -1 0 0 0 0];

internalField   nonuniform List<vector> 
111485
(
(2.78979 -2.78966 0.00138286)
(8.07359 -0.018126 -0.0403787)
(7.96304 0.0189866 0.0247619)
(2.79036 -2.79139 0.000143726)
(8.26689 0.0349948 -0.00228843)
(2.87893 2.87667 0.00121759)
(8.12717 0.0219901 0.0055388)
(8.33729 -0.02075 0.0125056)
(8.13873 -0.00642646 0.004244)
(8.31263 -0.086721 -0.0370433)
(8.01073 0.0191556 0.0223858)
(8.37455 -0.0186758 0.0379378)
(7.89748 0.00517876 0.0188491)
(7.9576 -0.0154949 -0.0541275)
(8.07775 0.0303182 0.0182851)
(8.23424 -0.0536418 -0.0410842)
(8.12103 -0.00553097 0.0106652)
(2.86296 -0.24861 0.443189)
(8.28346 0.0227508 -0.0174913)
(2.77037 -2.76636 -0.00164013)
(2.77475 -2.77466 -0.00305893)
(2.88546 2.88468 0.000158389)
(8.19586 0.0221952 -0.00276519)
(8.31555 -0.0531071 -0.0158181)
(8.16188 0.0353573 -0.0100108)
(2.81187 -2.79973 -0.00232867)
(8.41239 -0.0391748 0.0432365)
(7.98062 -0.00808117 0.000232026)
(8.30748 0.0116082 -0.0188682)
(2.78109 -2.78095 0.000191912)
(8.38692 0.141002 -0.0374802)
(8.26215 -0.0155069 0.0028664)
(2.76846 -2.77407 0.00419196)
(2.88225 2.88774 -0.00677944)
(2.89803 1.18574 0.467574)
(2.89981 2.91906 -0.0427491)
(8.34644 0.139241 -0.0567804)
(8.05352 0.0286922 0.0688252)
(8.29358 2.51092 0.141092)
(8.27407 0.0403363 0.00443387)
(2.8463 2.8721 -0.0210613)
(8.37014 0.00980186 -0.0481107)
(8.2671 0.0430893 0.0152842)
(7.98724 -0.047356 -0.000701084)
(8.35654 -0.148884 -0.0759092)
(2.8009 -2.77961 0.0138559)
(8.37152 -0.0394107 0.0397727)
(8.30402 -0.0490628 -0.014944)
(8.37023 0.00331185 -0.0376465)
(2.7744 -2.74253 0.0153182)
(2.75963 -2.73342 0.0174084)
(3.28129 2.75616 0.0474082)
(2.75157 -2.74065 0.0093028)
(8.36216 0.0373825 -0.0688549)
(2.74546 -2.73323 0.00265792)
(8.25432 0.0207846 -0.00760004)
(8.25688 -0.0332425 -0.0154158)
(2.88466 2.88003 0.00180594)
(7.54826 -0.0179881 -0.129817)
(8.29883 0.0353019 -0.00426791)
(8.29713 0.0385367 -0.00330809)
(2.7814 -2.78677 0.00334686)
(7.70395 0.00949207 0.0493286)
(8.40679 -0.0193845 0.0637845)
(2.97578 2.69467 0.00428272)
(7.61347 0.0156943 -0.0137176)
(5.8389 -0.485411 0.211249)
(8.32087 -0.0292467 0.0109584)
(7.52886 0.00142365 0.0265636)
(7.15981 -0.0145461 0.00299715)
(8.04434 0.0529449 -0.0436634)
(7.4828 -0.00922414 0.0179904)
(3.00888 -2.71182 -0.062037)
(7.62352 0.0140192 0.0567881)
(2.78693 -2.78624 -0.000260466)
(8.27832 -0.0164025 0.00811508)
(2.8851 2.88466 -0.000952495)
(8.36345 -0.0184087 0.0436335)
(2.88361 2.88215 -4.74292e-05)
(2.59427 2.52859 -0.08762)
(8.06297 -0.12315 0.0831488)
(8.32113 0.033223 0.00584657)
(2.87392 2.8676 -0.000405716)
(2.7874 -2.78717 0.00148519)
(7.85314 -0.00378701 0.0136183)
(7.54825 0.0207233 -0.0291773)
(6.44302 4.17543 -1.12654)
(8.25296 0.0971412 0.00972476)
(7.95178 0.206752 0.177171)
(8.05194 0.0172092 0.0142098)
(8.50778 0.166183 -0.108759)
(8.2754 -0.013816 0.0138968)
(7.76114 -0.01383 0.021274)
(7.90321 -0.00619977 0.00609277)
(8.38133 0.02408 -0.0497459)
(2.78758 -2.78651 -0.000689608)
(2.78165 -2.78171 0.00165685)
(8.24975 0.0909774 0.0288923)
(8.52013 -1.68933 0.119665)
(7.741 0.0279391 0.0485927)
(2.78761 -2.78783 0.00109417)
(8.28812 -0.0435644 0.00478501)
(2.89702 2.90216 0.0157383)
(8.22169 -0.000227887 -0.0047152)
(8.14029 -0.0363795 -0.0462699)
(2.82916 2.52617 -0.0605601)
(2.88464 2.88313 -0.000691804)
(8.26726 -0.0192945 -0.00188227)
(7.6775 -0.0417672 0.00840735)
(7.3473 -0.218609 -0.231463)
(7.86473 -0.00391513 0.0117999)
(8.22078 0.0119502 -0.00423329)
(7.68987 -0.00651726 0.0299282)
(7.57846 -0.0396104 0.0154026)
(2.81434 -2.79944 0.00243531)
(7.32614 -0.00634964 0.0192608)
(2.79818 -2.78994 -0.00389808)
(2.8972 2.88489 0.01208)
(8.09167 0.0280968 0.0224375)
(2.79009 -2.78872 0.000948363)
(2.81278 -2.7987 -0.00105684)
(3.80328 2.98614 0.179311)
(2.85244 2.86639 -0.00489166)
(2.89042 2.88342 -0.006898)
(7.91251 -0.0190624 0.0367044)
(2.22938 -1.58288 -0.407548)
(3.62451 3.11436 0.110286)
(7.39308 -0.00235292 0.0310937)
(2.78748 -2.78616 -0.0013591)
(8.32418 0.613618 -0.226075)
(8.32029 0.163085 -0.0862045)
(8.23455 0.0931835 0.0282913)
(2.77467 -2.76677 -0.0135317)
(3.7227 3.23504 0.336621)
(3.47233 3.09606 0.146799)
(8.30446 0.0239998 -0.0159005)
(2.88668 2.88673 -0.00095556)
(8.23316 0.0174841 0.00177107)
(8.19133 0.0372215 0.0222543)
(8.05675 0.0340335 0.0337623)
(6.35559 0.000838863 0.0249906)
(8.25466 0.0413872 0.00947475)
(8.18641 0.0418382 0.0256332)
(7.82381 0.00646186 -0.0300812)
(8.17216 -0.014978 0.00653055)
(8.06324 -0.00743803 0.014893)
(2.88668 2.88766 -0.000699962)
(2.78766 -2.78913 0.000417137)
(2.87912 2.8807 0.00599236)
(8.2614 0.0371385 0.0050798)
(7.82901 0.0115231 -0.0274455)
(2.77646 -2.77557 0.000689173)
(5.40031 -0.0303184 0.0531947)
(8.06671 0.0346138 0.020618)
(8.82971 0.346905 0.154902)
(8.30364 0.0234586 -0.0160887)
(8.26784 0.025772 -0.00589624)
(7.69558 0.00427866 -0.0166145)
(8.90432 0.42796 0.104965)
(2.77204 -2.79801 0.0110251)
(2.78537 -2.788 0.00302295)
(8.29094 0.0222422 -0.0164301)
(8.12628 -0.0269787 -0.0282326)
(8.96214 0.48402 0.114459)
(8.83755 0.423642 0.158136)
(7.70459 0.00727321 0.037489)
(8.27904 0.100106 -0.0367449)
(2.84841 2.87215 0.000733062)
(9.06955 0.598467 0.141474)
(8.65159 0.427069 0.13006)
(2.88254 2.8836 0.00130091)
(2.78177 -2.78124 2.39269e-05)
(6.6705 0.00800598 -0.0553134)
(2.88578 2.88713 0.000524121)
(8.21925 -0.0159384 -0.00173718)
(7.94344 0.00498938 -0.016229)
(2.88398 2.81421 -0.0164375)
(3.01271 -2.76779 0.0303268)
(2.78061 -2.76546 -0.00474325)
(2.84318 2.6823 -0.0285295)
(3.02674 -2.79073 0.0476723)
(2.7846 -2.7865 0.00282681)
(8.24521 0.02831 0.00574257)
(8.2569 0.0187735 -0.0150709)
(8.22863 0.0218019 -0.0101104)
(8.11346 -0.0320096 0.0309029)
(7.84032 -0.0197562 0.00635664)
(7.86551 0.0102727 0.0232653)
(7.00241 0.0846896 -0.000699126)
(2.78322 -2.77329 -6.66538e-05)
(7.62887 0.000513216 0.0101552)
(3.00561 -2.78897 0.0294928)
(2.80757 -2.81218 -0.00108066)
(7.92626 0.0110762 0.0264374)
(8.31653 -0.0963666 -0.0338372)
(8.25137 0.0162892 -0.0369158)
(7.93958 -0.00556747 0.00594685)
(8.06557 0.00559895 0.00758259)
(2.78188 -2.77743 0.00730299)
(7.92655 -0.0319575 0.0091173)
(7.89076 -0.00789606 -0.0461203)
(5.51393 1.74433 0.229562)
(8.08673 -0.0650598 0.00524919)
(8.19672 -0.0106539 0.00689083)
(2.79534 -2.78042 -0.00486991)
(7.89403 0.0152224 0.0264741)
(8.28198 0.0194066 -0.0016088)
(3.05609 -2.7555 0.0113052)
(7.95409 0.019067 0.0300051)
(8.34844 -0.00727053 0.0383482)
(7.82352 0.00726693 -0.0310007)
(7.87102 0.0189292 0.0347696)
(3.02445 -2.79989 0.0389191)
(2.77986 -2.78069 -0.00120865)
(7.86833 0.0192456 0.0389057)
(5.14884 3.22379 -0.319306)
(8.43911 0.0357704 -0.0811949)
(2.88396 2.8844 -0.00120806)
(7.91647 0.0143286 0.0319918)
(7.92878 0.0056103 0.003847)
(8.39034 -0.0252081 0.0518067)
(2.78952 -2.78796 0.00145447)
(7.44218 -0.003428 0.0152316)
(8.29727 0.120646 0.0633374)
(4.54744 3.04619 -0.33394)
(2.88599 2.88576 -0.00149157)
(2.88247 2.88352 0.00100528)
(8.48024 -0.0466963 0.0822145)
(7.92162 0.182856 -0.023613)
(3.03411 2.55839 -0.0600399)
(3.45075 -2.67862 0.107622)
(7.95379 0.00652957 0.0131401)
(8.1881 0.0188907 0.000810785)
(8.27182 0.0178502 0.00832853)
(2.98991 2.59758 -0.0759716)
(2.93984 -2.70667 -0.0103758)
(7.98652 0.0971033 -0.115429)
(2.7866 -2.7867 0.00183371)
(7.5958 0.0067019 -0.0458362)
(7.86552 0.0049638 0.0314286)
(7.94854 0.00264694 0.0177291)
(7.95553 0.0154298 0.0193464)
(7.98593 0.00763475 0.0264724)
(2.87462 2.87521 0.0094518)
(6.0468 -0.0174113 -0.230134)
(8.07471 0.0241216 0.0224944)
(2.86993 2.87628 -0.00374388)
(2.88483 2.88581 -0.000178875)
(8.41647 -0.100165 -0.00659877)
(8.21705 0.0376 -0.0113379)
(2.95444 2.51358 -0.0798792)
(7.55778 -0.00948882 0.0169214)
(8.05683 0.0170404 0.019055)
(2.78865 -2.78792 -0.00085398)
(3.63818 3.45587 -0.0196385)
(8.28991 0.0793946 -0.0352363)
(2.79963 -2.76375 0.0007974)
(3.09332 -2.2053 -0.0530968)
(4.24052 -1.49205 -0.146932)
(2.79178 -2.78435 -0.00162484)
(8.10511 -0.0118245 -0.0164716)
(7.89327 -0.0146035 -0.0127284)
(8.19733 0.0109361 -0.0208236)
(2.78548 -2.78577 -0.000447669)
(8.1065 0.0232014 0.0186084)
(2.79062 -2.79137 -0.000306909)
(2.78956 -2.79144 0.00124198)
(2.78196 -2.77129 0.00463866)
(5.59961 0.0201448 -0.0807967)
(8.34653 -0.0398053 0.0445308)
(7.94583 0.0296686 0.0397822)
(8.09421 0.0262533 0.0129824)
(8.37148 -0.0455208 -0.00121373)
(8.05987 0.0118397 0.0133291)
(8.2506 0.0293728 0.0104915)
(8.32444 0.138902 -0.0126081)
(8.13599 0.0120962 -0.00517707)
(8.20133 0.0169448 0.00324809)
(2.93504 2.88809 -0.0016252)
(2.77822 -2.77835 -0.00361278)
(5.13156 0.030746 -0.124189)
(8.24728 -0.0158693 0.00268475)
(8.32632 0.0639225 0.0689211)
(7.87972 -0.0113451 -0.0126032)
(2.79033 -2.78884 0.00137246)
(8.20859 0.0262094 0.0146915)
(8.24341 0.0420688 0.0195827)
(8.08353 0.0163316 0.010635)
(7.14699 -0.0057557 -0.0386067)
(7.4655 -0.0875059 -0.184472)
(8.19825 0.0246863 0.00953262)
(8.07323 0.0215529 0.0148112)
(8.22811 0.0660035 -0.0417247)
(2.88459 2.8855 0.00168694)
(7.57151 0.0405668 -0.00204521)
(2.88361 2.8842 -0.000928589)
(2.33637 1.76849 -0.376804)
(3.13658 -2.0202 -0.202563)
(8.54457 -0.0764153 0.112049)
(8.37403 -0.0451833 -0.000852587)
(8.17381 -0.00379252 0.000558751)
(2.79128 -2.7844 -0.00123195)
(2.87205 2.88878 0.023373)
(8.19069 0.0277719 0.0169546)
(7.88086 0.0130606 -0.00994847)
(2.7788 -2.77757 -4.40978e-05)
(2.79018 -2.78796 0.00266804)
(2.72495 -2.74249 0.0195031)
(7.81797 0.00877728 -0.00419576)
(8.17258 0.00769067 -0.0081181)
(7.81291 0.00126293 0.0262315)
(7.5805 0.00897053 -0.0347496)
(8.32715 0.0211114 -0.0186379)
(3.3064 2.83807 0.0769161)
(2.87867 2.8855 0.0051045)
(2.78691 -2.78327 -0.00095378)
(8.16564 0.026471 0.0176272)
(5.31852 -4.51012 -0.321008)
(7.80014 -0.00790707 0.0115203)
(8.48592 -0.0586499 0.186681)
(6.85838 0.00569191 -0.139081)
(2.8851 2.88646 0.000146167)
(2.78572 -2.78824 0.00194676)
(2.78871 -2.79006 -0.00113342)
(3.64198 3.05093 0.189773)
(8.26647 0.0237511 -0.00276146)
(8.33911 -0.0457613 0.0109781)
(2.88957 2.89708 0.000990396)
(8.21667 0.0207189 -0.00164319)
(3.04782 2.46356 0.176032)
(2.79341 -2.75866 -0.00311782)
(8.43007 -0.0272836 0.067408)
(8.19347 0.0280122 0.0147059)
(8.37593 -0.00895509 0.0192885)
(8.21919 0.0225811 -0.00190116)
(2.7718 2.45213 0.151389)
(3.6052 3.09922 0.20012)
(2.87812 2.88122 -0.00427776)
(8.20619 0.0269462 0.0108282)
(8.19217 0.0227733 0.00122075)
(8.36198 0.153092 -0.0529646)
(2.85193 2.84474 0.00517212)
(5.7209 5.06089 -1.21671)
(7.84226 0.0769643 0.0708072)
(8.34785 -0.0371841 0.0204032)
(8.20898 0.029424 0.0180977)
(7.81865 0.79731 -0.0647921)
(8.3265 0.0196732 -0.0225944)
(2.8745 2.87315 0.0016197)
(8.32739 0.0213977 -0.0142382)
(8.01242 0.0104624 0.0158139)
(8.43073 -0.194881 -0.00103581)
(8.4555 -0.0504429 0.102765)
(8.15711 -0.0634614 -0.0581166)
(2.87076 2.88495 -0.0102074)
(2.78271 -2.78638 -0.0046454)
(2.88992 2.87239 0.0112577)
(2.76611 -2.77401 -0.000668454)
(8.32479 -0.0369198 0.000628013)
(8.2523 -0.00931064 0.00231301)
(8.26755 0.0368652 -0.0313456)
(8.32314 0.0214121 -0.0251244)
(2.86041 2.86365 -0.0121816)
(8.23733 -0.0581481 -0.0204945)
(2.88165 2.88197 0.00199551)
(2.7777 -2.78533 -0.000160746)
(8.32293 0.0235934 -0.0173804)
(2.56683 -2.56962 0.0367017)
(4.5908 -0.852711 -0.0636484)
(2.75471 -2.74446 0.00193025)
(2.90833 2.87009 0.0230868)
(8.24682 0.0124282 -0.0100134)
(2.88305 2.88138 0.00119414)
(8.14347 0.0179061 -0.00753381)
(7.76939 0.00405548 -0.0332951)
(2.88901 2.88921 -0.000646103)
(7.49396 -0.00410618 -0.034793)
(8.11024 0.0132346 0.0107974)
(2.90602 2.54674 -0.0951847)
(8.07017 0.0378831 0.0422908)
(7.66647 0.0379289 -0.00318658)
(8.12329 0.0342932 0.0121789)
(7.5817 0.0280626 0.0959332)
(8.18707 0.0203334 0.00430076)
(7.85333 0.00313026 -0.0116896)
(2.85207 2.43371 -0.0122309)
(2.77781 -2.77229 0.0163714)
(7.03099 0.011325 0.164378)
(2.86432 2.87354 -0.0161222)
(8.11282 0.0388255 0.0401696)
(8.43734 -0.0418267 0.0831505)
(2.89756 2.76834 0.0237036)
(2.87749 2.88969 -0.00187165)
(8.30097 -0.0129597 0.00514151)
(8.00777 -0.0368661 -0.0787638)
(8.02901 0.0381722 0.00329406)
(8.32402 0.0227274 -0.00951713)
(2.88464 2.88099 -0.000601729)
(8.47079 -0.0223984 0.135857)
(8.3417 -0.0272564 0.0397736)
(2.89323 2.88857 2.17515e-05)
(8.16914 0.127947 0.104736)
(7.80466 -0.0305251 -0.0822161)
(2.783 -2.78319 -0.00021587)
(2.77927 -2.77916 0.000336882)
(8.12804 0.0197525 -0.00791013)
(8.18945 0.00685861 -0.0118574)
(2.89558 2.89558 -0.00382704)
(2.78547 -2.77947 -0.00407465)
(4.89811 -2.64467 0.600358)
(2.78908 -2.79123 0.000606324)
(8.1931 -0.0022705 0.0132438)
(2.86487 2.87526 0.00639109)
(2.78991 -2.79117 0.000294618)
(8.38055 -0.0080625 0.0269556)
(7.6072 -0.0880545 -0.217407)
(8.28853 -0.0464745 0.0101161)
(8.0195 -0.002316 0.0150304)
(2.89112 2.88861 0.000380241)
(3.74703 2.88501 0.146164)
(8.01665 0.106111 0.156917)
(3.5104 3.09231 0.165087)
(7.99295 0.0346721 0.0609759)
(7.95545 -0.0630651 0.00642676)
(8.30387 -0.0251652 -0.0213833)
(5.78113 0.161532 0.218991)
(3.44702 2.96736 0.151729)
(8.27443 0.0110183 -0.0792142)
(8.41544 0.26374 -0.0830476)
(2.78527 -2.79014 0.00551779)
(8.37827 0.0207921 -0.081053)
(8.3806 -0.0360861 0.0312139)
(2.79039 -2.78959 0.00309977)
(8.08388 0.450253 -0.243617)
(7.09566 -0.000909796 -0.0940324)
(3.64495 2.86347 0.122336)
(8.34842 -0.0154007 0.0313501)
(8.24925 0.0120027 -0.00933498)
(8.1889 0.0190429 -0.0067358)
(2.88437 2.88094 -0.000590726)
(8.15006 -0.015861 0.0560347)
(8.383 -0.000621022 0.0259851)
(8.11947 0.0760369 -0.0085581)
(5.11961 -0.0713147 0.0841371)
(3.51 3.3114 -0.0687551)
(4.83029 -0.122985 0.163311)
(2.78469 -2.78865 0.00217813)
(7.53888 -0.255286 -0.245513)
(8.15236 -0.0173543 -0.0541028)
(2.88527 2.88319 0.00403824)
(7.78798 0.0170533 -0.0562013)
(6.42519 -0.0164408 0.116464)
(3.74547 3.31196 -0.0360147)
(2.78722 -2.7852 0.000475244)
(3.26227 -2.7725 0.0890964)
(2.78945 -2.78841 -7.68125e-05)
(8.11727 0.0511027 -0.00548458)
(8.17934 0.0410483 -0.0131231)
(8.12341 -0.0210062 -0.0207587)
(7.64612 0.0189368 -0.0377623)
(8.31265 -0.164508 -0.0345197)
(2.88251 2.87022 -0.00533068)
(8.07407 -0.00125079 -0.0145999)
(2.79581 -2.77456 1.22952e-05)
(7.98822 0.0284347 0.0197248)
(2.89351 2.89458 -0.00033392)
(2.78792 -2.78562 -6.73176e-05)
(2.75873 -2.76573 -0.0036545)
(7.86013 -0.0488368 0.0105108)
(2.77646 -2.77845 -0.00205757)
(2.78884 -2.78937 0.00134731)
(2.84794 1.88518 -0.119297)
(2.78987 -2.79141 0.00100617)
(2.85296 2.89257 0.0270593)
(8.04734 -0.0306833 -0.0125168)
(2.8851 2.88092 0.000470132)
(3.42113 2.52503 0.00332346)
(2.88618 2.88716 0.00359539)
(2.77859 -2.7691 -0.000930643)
(2.88521 2.87443 -0.00467134)
(2.77758 -2.76331 -0.0138535)
(2.86757 2.86998 -0.000136192)
(7.34772 -0.00576498 -0.0549599)
(2.88925 2.87513 0.0117216)
(7.51477 0.110218 0.151961)
(8.22163 0.0138921 -0.00531068)
(8.46977 -0.34293 -0.0561294)
(2.89011 2.87889 -0.000523408)
(7.16213 0.0203097 0.117671)
(2.8894 2.87983 0.00288587)
(2.7898 -2.79102 -0.00134989)
(8.08497 -0.0758999 -0.0820787)
(8.09986 -0.0612931 -0.0737635)
(8.12663 -0.0163464 -0.0202481)
(8.49608 0.0204589 -0.141366)
(3.31977 2.78929 -0.0917014)
(8.31855 0.008313 -0.0443485)
(8.31335 0.0127074 -0.0406721)
(8.20173 0.0125078 -0.000588735)
(8.08467 0.00779043 0.00305518)
(8.21877 -0.0812229 -0.0552482)
(2.77786 -2.77853 -0.000756763)
(8.21108 0.0102204 -0.00171437)
(3.78105 3.29113 -0.0252779)
(8.19868 0.020693 -0.0107668)
(2.88105 2.87859 -0.00243829)
(8.34507 0.0261854 -0.0370903)
(3.73871 3.1029 0.028784)
(8.21868 0.00399693 -0.0119962)
(8.25923 -0.0381155 0.0302831)
(3.21425 -1.63354 -0.0171112)
(2.88543 2.88759 0.0318278)
(8.09394 0.0125412 0.0157253)
(2.78658 -2.78546 0.000269076)
(8.37963 0.0330687 -0.0541841)
(8.3188 0.0323048 -0.0336709)
(2.88244 2.87435 -0.0229905)
(2.87619 2.87569 0.00684058)
(2.82143 2.52701 -0.056629)
(2.88255 2.8851 0.00120121)
(5.80852 -0.314189 0.161458)
(8.38392 0.0289154 -0.0508851)
(2.92644 2.85701 -0.00235233)
(2.87921 2.88278 0.00252578)
(7.20127 0.00963915 -0.0162248)
(2.88693 2.88738 -0.000480745)
(8.25757 0.0228919 -0.0281943)
(2.88495 2.88429 0.00120515)
(8.17266 -0.0474927 -0.0349785)
(2.7901 -2.79035 0.000880175)
(7.67583 -0.0384973 -0.11244)
(6.37638 -0.024981 0.0047574)
(7.71869 0.0211738 -0.0151133)
(8.22073 0.00601986 -0.0136787)
(2.89628 2.87416 -0.00897327)
(7.51613 0.0081661 -0.00525886)
(2.89066 2.87997 0.00276143)
(2.88587 2.88674 -0.00801603)
(8.14165 -0.0208705 -0.0105096)
(2.88288 2.8792 -0.00273276)
(6.96287 -0.00435573 -0.0724289)
(2.78234 2.55949 -0.0848111)
(8.26773 0.0217232 -0.0250988)
(2.78059 -2.78113 4.64467e-05)
(8.33516 0.0161107 -0.0192585)
(2.79165 -2.78942 -0.000295045)
(3.43006 3.03123 0.0889237)
(8.44285 0.306629 -0.0247153)
(8.09261 -0.0686438 -0.0843086)
(8.22394 0.0344115 0.000347236)
(8.28011 -0.0900776 -0.0589001)
(8.18883 0.0151337 -0.00893531)
(8.36281 -0.0555854 -0.00498094)
(2.86455 2.88697 -0.0131934)
(8.21775 0.0470732 0.0259493)
(8.12584 -0.0804578 -0.080449)
(2.88471 2.88517 -0.00134529)
(6.92626 -0.103223 -0.261778)
(8.4086 -0.0629097 -0.0415795)
(8.07366 0.0337318 0.0314541)
(2.85183 2.81365 -0.0163455)
(3.55516 0.688496 -0.572141)
(7.90376 0.019564 0.0259891)
(6.48524 -0.0263928 0.0650839)
(6.69247 1.70998 -0.0123403)
(3.6046 -1.84342 -0.146714)
(8.34614 -0.0928019 -0.0194218)
(7.84728 0.0290021 0.0577979)
(8.08538 -0.0746439 -0.0818187)
(8.24491 -0.0448306 -0.0172698)
(8.10383 0.0456234 0.0203864)
(7.1974 0.91837 -0.042452)
(3.5716 3.02573 0.0250093)
(7.33034 -0.283411 0.0699105)
(7.08675 -0.628639 0.143649)
(2.78397 -2.78585 0.00125799)
(7.25657 0.0491322 -0.0215937)
(2.89986 2.84582 -0.0154868)
(3.38726 3.0782 0.0292327)
(8.18115 0.014829 -0.00257983)
(7.25005 1.21675 -0.0412744)
(8.74226 -0.753179 -0.139181)
(7.88995 -1.37288 0.028614)
(3.3789 3.2097 -0.239525)
(8.31397 -0.0495112 -0.0160862)
(8.20905 0.0469468 0.037431)
(2.87906 2.87021 -0.000740729)
(3.72051 2.05717 -0.0863273)
(8.20806 0.0615974 0.0394523)
(2.78782 -2.77778 0.00234858)
(2.88332 2.88224 -0.00043787)
(2.87533 2.87453 8.73159e-05)
(2.88849 2.87234 0.00332593)
(8.30974 -0.0834071 -0.0368211)
(2.88498 2.88404 0.00161744)
(2.79708 -2.79674 0.014483)
(8.16611 -0.048448 -0.0387515)
(7.56496 0.000520146 -0.0201322)
(4.08955 -3.58378 -0.188457)
(8.20852 0.0601956 0.0379053)
(3.36203 2.71217 0.0617881)
(8.23575 -0.0296463 -0.0162535)
(2.7332 -2.7316 -0.0122837)
(2.87831 2.88395 -0.0025159)
(8.29292 -0.051049 -0.0148221)
(2.88354 2.86728 -0.0110294)
(2.88485 2.87847 0.0016428)
(3.30818 3.16512 0.0915181)
(7.83272 -0.00653432 -0.00327001)
(4.76236 3.98521 -0.530884)
(8.17629 -0.0330896 -0.0151609)
(8.1775 0.0139055 -0.00371123)
(2.76228 -2.74443 -0.0225286)
(8.4962 -0.0260915 0.269816)
(7.77611 -0.0465314 -0.113789)
(8.14701 0.000653894 -0.00446671)
(8.25166 0.14983 0.0155978)
(8.28739 0.0790992 -0.177912)
(7.16518 0.0019792 -0.0643577)
(2.87966 2.8766 0.0022911)
(8.30871 0.00714299 0.0239465)
(8.24379 0.0349346 -0.006537)
(2.7605 -2.79679 0.0049641)
(7.7045 -0.0028451 -0.00495606)
(8.3184 0.0529553 -0.0110891)
(8.31726 0.0374988 -0.0130828)
(7.59951 -0.0334521 -0.0720523)
(8.3155 0.0361442 -0.0143446)
(8.31857 0.0439934 -0.00399976)
(2.79226 -2.7554 0.0170852)
(8.32507 -0.0155887 0.0399304)
(6.89566 -0.0431323 -0.0142876)
(3.47841 3.02028 0.191183)
(8.3137 0.0300393 -0.019016)
(7.94736 0.00810323 -0.018385)
(4.63772 3.77132 -0.572656)
(8.18125 0.0117034 -0.00201277)
(8.31865 0.0240033 -0.0256635)
(7.94998 0.00203619 -0.0325147)
(8.25367 0.0346947 0.00303501)
(8.15832 0.0849922 0.0394823)
(8.19064 0.0104837 -0.000561108)
(2.82123 2.75685 0.00378166)
(8.25286 0.0429984 0.00230177)
(7.75124 -0.0501644 -0.102723)
(3.11816 -1.88383 0.0717391)
(8.2119 0.0759324 0.0472909)
(8.10888 0.073714 0.0720643)
(8.21869 0.0193218 -0.00089056)
(2.88031 2.87312 0.00270624)
(7.98036 0.0438944 -0.07356)
(2.78753 -2.77514 0.00735722)
(2.88401 2.88467 -0.00145311)
(2.86893 2.84912 -0.0012551)
(2.89062 2.87336 0.00100956)
(6.96455 0.00399313 -0.0294529)
(3.44167 2.9586 0.121431)
(6.20556 -0.446412 0.514018)
(2.77236 -2.77415 -0.000595869)
(2.87797 2.91741 -0.00476028)
(8.223 0.0787886 0.0439859)
(8.27187 0.0202884 -0.037222)
(2.78954 -2.78855 0.000340047)
(8.2781 -0.0497842 -0.00553086)
(2.78762 -2.78555 0.008206)
(2.78925 -2.78751 -0.000994668)
(2.7434 -2.74411 0.00865972)
(8.39877 -0.0647593 -0.0090629)
(7.04299 0.0402164 -0.0195867)
(3.40604 3.0654 0.0369536)
(2.81522 -2.78403 0.00731666)
(2.88093 2.89047 -0.00372832)
(2.8828 2.88636 -0.0015698)
(8.45574 0.0174308 -0.0935163)
(8.20111 0.0143652 0.000400747)
(3.43089 3.22495 0.149277)
(8.36111 0.0245144 -0.044704)
(7.78595 -0.109891 -0.322818)
(2.87862 2.88061 -0.000564764)
(8.33982 0.021334 -0.0392098)
(7.65643 0.00466962 0.0409998)
(8.10704 0.0407901 -0.047645)
(2.88872 2.88756 -0.000324661)
(2.88083 2.87802 2.84538e-05)
(8.06622 0.0379827 0.0460905)
(8.22766 0.0167194 -0.00193821)
(3.41337 3.10194 0.0484279)
(2.87199 2.87309 -0.000230482)
(2.91892 2.82675 -0.0111395)
(8.18681 -0.0177375 0.00624521)
(2.78535 -2.78523 -0.00333732)
(2.78035 -2.77013 0.00178474)
(2.86881 2.86817 0.00288545)
(8.33747 0.0243581 -0.0345916)
(7.32663 -0.0361108 0.0124145)
(2.88769 2.88803 0.000104243)
(3.21507 0.620846 0.577925)
(3.52614 -0.398874 -0.131527)
(8.05891 0.0409521 -7.73538e-06)
(2.87936 2.88489 -0.00149303)
(2.88506 2.87993 -0.00201643)
(8.35858 -0.102038 -0.0153736)
(8.02035 0.136074 0.127721)
(3.46162 3.08966 0.147848)
(5.04863 1.62872 0.117644)
(7.90692 0.16411 0.231015)
(7.57976 0.0214592 -0.0516706)
(8.05037 0.00595338 -0.00364217)
(2.98304 2.79888 -0.00690795)
(8.00081 0.0225664 -0.00457536)
(8.29 -0.0548585 0.0580063)
(2.88941 2.88219 -0.00342247)
(2.76744 -2.71838 0.00429374)
(2.86932 2.87048 0.000322354)
(2.87906 2.87884 -0.000435673)
(2.88446 2.88931 -0.00310265)
(2.88881 2.88905 -0.000397634)
(8.35403 0.0229161 -0.0363034)
(2.78697 -2.78649 0.00223041)
(2.87724 2.87746 0.000757951)
(2.868 2.83089 -0.00329055)
(8.36102 0.0251014 -0.0454023)
(8.22436 0.0157008 -0.00227279)
(2.79908 -2.76218 -0.0011366)
(2.75429 -2.72335 0.00598238)
(8.42496 -0.038964 0.0714378)
(8.01108 0.00260495 0.0113302)
(7.9992 0.00747353 0.0143606)
(2.78742 -2.78039 -0.00159907)
(2.87481 2.87653 0.0018932)
(8.00633 0.00544415 0.0135875)
(2.789 -2.78661 0.000375004)
(7.91629 0.0212399 0.00239108)
(8.07579 0.0191998 0.0267368)
(8.09867 0.0186156 0.0168882)
(2.79795 -2.77693 0.00719547)
(2.78851 -2.79012 0.000722295)
(2.78832 -2.79019 9.96977e-06)
(2.88519 2.88628 0.000859911)
(8.19081 -0.0369353 -0.0213683)
(2.88218 2.88655 0.00250466)
(2.87658 2.87324 0.000188932)
(8.16798 0.0242007 -0.0341996)
(2.78872 -2.79002 0.00109359)
(8.0416 0.00219798 0.00967752)
(7.34834 -0.0638972 0.0238874)
(2.90193 2.80317 0.0153102)
(8.21203 0.0158281 -0.00362034)
(3.87034 0.571 -0.0901181)
(8.11656 0.00727509 0.00386263)
(8.38471 -0.0258402 0.0185665)
(7.43312 0.0280986 0.00937577)
(8.3924 -0.00308482 0.054176)
(6.07484 0.12499 -0.235231)
(3.43762 2.74692 0.0572229)
(8.09931 0.00416901 0.00320733)
(8.42246 0.0634774 0.010759)
(8.20769 -0.0169393 -0.00683398)
(2.95497 2.56775 -0.0876347)
(3.71354 0.360106 -0.193258)
(4.3954 -0.332548 0.153777)
(8.10759 0.00964085 0.0020758)
(2.87574 2.87969 0.00377567)
(7.95641 -0.0186185 -0.0570198)
(8.12775 -0.00847704 -0.0150897)
(7.88646 -0.0669791 -0.124173)
(3.0425 -2.15958 -0.160694)
(2.7894 -2.79071 0.00132982)
(2.78607 -2.78636 -0.00023783)
(8.24735 -0.0238194 -0.000818336)
(3.36554 2.78596 -0.0369878)
(7.85906 0.0269101 0.00988515)
(3.12996 2.85261 0.0390072)
(7.81024 -0.0176995 -0.0537976)
(8.04315 -0.0140675 0.00572687)
(7.9456 -0.0162786 0.0197985)
(8.22575 0.017595 -0.00371391)
(2.87607 2.87617 -0.000672426)
(2.8635 2.85592 -0.00551201)
(2.97746 -2.71547 0.0131754)
(8.20897 0.0206784 -0.00104321)
(2.88867 2.88079 -0.00110861)
(3.33402 2.86409 -0.128712)
(8.41312 0.160421 -0.134686)
(2.89367 2.88987 -0.0021081)
(2.87082 2.88421 0.00873253)
(2.77302 -2.76417 -0.00501182)
(2.8868 2.88769 0.00107369)
(7.86776 -0.00368993 0.0183428)
(2.94396 2.79519 0.00521293)
(2.88566 2.88275 0.00106835)
(6.67317 0.939972 -0.669407)
(3.37954 2.73016 -0.0372859)
(2.87135 2.87351 -0.0240785)
(4.00529 -2.36718 0.145062)
(2.88368 2.87994 -0.00354731)
(6.47123 0.0241945 -0.0545509)
(8.02775 -0.011349 0.0187284)
(2.77721 -2.77772 -0.000893994)
(7.89021 0.00948031 -0.0223452)
(7.94131 1.27846 -0.173726)
(7.82874 -0.0740538 -0.124565)
(8.60386 0.315176 0.00429084)
(7.77567 0.00533621 -0.0106248)
(2.8821 2.86271 0.00859712)
(8.1168 -0.0743773 -0.0849121)
(8.41462 -0.0251255 0.0204653)
(7.8252 -0.0746912 -0.124683)
(2.78664 -2.7865 -0.000827971)
(8.52088 2.22891 0.59873)
(7.84808 0.0136529 0.0097323)
(3.84823 3.06582 -0.183134)
(7.79817 8.3602e-05 0.0079474)
(8.49234 0.104396 -0.0808146)
(8.11558 0.162867 0.00824235)
(8.04557 -0.0226363 -0.0305686)
(8.04233 0.027547 -0.000336639)
(8.56152 0.12372 -0.0460022)
(8.23572 -0.0107053 -0.0124636)
(8.17177 -0.00830527 0.00685239)
(2.86038 2.87077 0.0109246)
(2.87112 2.85659 0.00872581)
(7.90001 0.0206162 0.00858274)
(7.77848 0.00910704 0.00925905)
(2.87806 2.88503 -0.00160479)
(8.00549 0.00817999 0.000144686)
(8.37703 -0.0377836 0.00642025)
(8.18628 -0.0159038 0.00601761)
(2.88333 2.85329 -0.00141412)
(8.08658 0.163919 0.0364505)
(2.87662 2.87366 -0.00023152)
(8.1755 -0.00847972 0.0062099)
(8.19509 -0.00881699 0.00481181)
(2.88324 2.8818 -0.000578124)
(7.8379 0.0367002 -0.0324861)
(8.17491 -0.00487613 0.000819968)
(8.05479 0.151564 0.0127183)
(7.91427 0.00130886 0.0303009)
(2.94342 2.88709 -0.00448003)
(8.27008 -0.0204871 0.0235453)
(8.08039 0.185533 0.00144359)
(8.52376 -0.203489 0.0557299)
(7.18632 0.0914793 0.0240761)
(6.43706 0.0204542 -0.0891336)
(2.8851 2.85555 -0.00506958)
(2.87579 2.87307 0.00277335)
(7.95101 0.107104 0.0133492)
(2.88715 2.88761 -0.000969244)
(6.97084 -0.0190627 -0.0222466)
(7.97767 -0.0409954 -0.0594239)
(4.8566 0.6676 -0.179122)
(8.85047 -0.571225 0.21285)
(7.80635 -0.353649 0.102066)
(8.69004 -0.315643 0.0858726)
(2.88607 2.88684 -0.000682837)
(3.92154 3.32739 0.0275608)
(8.24303 0.0181516 -0.00729502)
(2.77478 -2.78542 -0.00974289)
(1.54811 -1.08692 0.446883)
(8.1615 -0.151689 -0.118373)
(2.87366 2.86573 -0.00536023)
(2.88885 2.88467 0.000119081)
(7.30255 -0.144384 -0.0054955)
(5.95628 -0.388087 0.0830396)
(2.88692 2.88779 7.23863e-05)
(7.38379 -0.138277 0.024363)
(2.87479 2.87189 0.00198881)
(2.8834 2.88818 -0.00519184)
(2.78595 -2.78676 -1.60726e-05)
(2.78964 -2.78349 0.00548358)
(2.73426 -2.71073 0.00806336)
(2.78396 -2.77778 -0.00038209)
(7.39179 0.0597088 -0.0277853)
(2.86152 2.8426 -0.00272191)
(2.88231 2.88329 0.000982811)
(2.86636 2.88092 0.00444802)
(6.87467 -1.52336 -0.399064)
(7.77623 -0.0643314 -0.140691)
(7.54573 -8.32314e-05 -0.0746783)
(8.24369 0.0166225 -0.00701669)
(2.86807 2.84933 -0.000225845)
(2.89569 2.88446 -9.96024e-05)
(7.90858 -0.134113 -0.162293)
(2.88368 2.88566 -0.00310837)
(2.88324 2.87983 0.000200218)
(4.6092 2.63612 0.0954966)
(8.41502 -0.111826 -0.00248038)
(8.23067 0.01897 -0.00521896)
(2.88164 2.88041 -0.00045832)
(2.87962 2.8741 0.00480808)
(2.86886 2.85981 -0.00381128)
(2.87355 2.86702 -0.000160994)
(2.88612 2.88439 -0.00286077)
(2.89266 2.88565 0.00131089)
(8.23672 -0.190005 -0.118787)
(2.8896 2.88105 -0.000391836)
(5.71617 0.0818053 0.193054)
(8.31125 -0.0188661 0.022238)
(2.88282 2.88751 -0.00100263)
(2.76677 -2.77872 -0.00745822)
(2.74871 -2.7202 0.00262246)
(6.97419 0.0834393 0.379581)
(2.7286 -2.72582 -0.0106674)
(2.78444 -2.78732 0.00269315)
(2.86683 2.87124 -0.018125)
(7.47081 -0.116535 0.00649961)
(2.87367 2.8728 -0.000321258)
(8.19507 -0.105102 -0.0663865)
(6.5693 0.0990762 -0.0366912)
(5.37742 0.00572445 0.21696)
(2.87454 2.87645 0.000937518)
(5.62568 -1.45347 0.117366)
(8.26013 -0.0153975 0.0037416)
(8.31196 0.0215341 -0.0195081)
(2.99228 -2.85655 -0.032816)
(8.00261 -0.130273 -0.021235)
(8.16397 -0.0154894 -0.00897253)
(2.79022 -2.76978 0.00245055)
(2.98265 2.82679 0.0129898)
(3.92634 -3.02817 -0.254199)
(2.86655 2.86672 0.000408099)
(8.24517 0.0139224 -0.0024041)
(8.24981 -0.0078467 0.0104388)
(8.39005 -0.100785 0.0418705)
(5.51089 -0.00621294 0.303991)
(2.88838 2.88683 -0.000489815)
(8.24709 0.0142832 -0.0033788)
(2.96145 2.81578 -0.00752791)
(3.61061 3.05036 -0.0130909)
(3.74225 -2.91402 -0.120709)
(2.88328 2.88297 0.00108556)
(8.27344 0.0223174 -0.00378922)
(2.87299 2.86717 0.00159694)
(2.75684 -2.70659 0.00112276)
(7.55953 -0.102721 -0.188508)
(8.11384 -0.0169717 0.00650045)
(2.75892 -2.71304 -0.00659475)
(8.14366 0.0133312 -0.00422832)
(3.07253 3.00454 -0.0181489)
(8.26921 -0.0697855 -0.0356853)
(2.70916 2.58855 0.0265146)
(2.88566 2.88675 -0.00077097)
(2.89816 2.88833 0.00964607)
(2.78989 -2.79093 0.000828764)
(8.00805 0.0100372 -0.0117825)
(7.2154 0.0143957 -0.0314935)
(8.29493 -0.0305749 0.179368)
(2.87104 2.87422 0.00131722)
(2.86581 2.81309 0.0194684)
(7.97214 0.0118217 -0.0111727)
(2.88664 2.88704 -0.00112914)
(3.35723 3.03413 0.0408229)
(2.78727 -2.78554 0.00060783)
(7.93108 0.0490678 -0.00540013)
(8.4412 -0.20837 -0.0610518)
(8.25646 0.0198695 -0.00797269)
(2.78235 -2.77764 0.00665534)
(6.54448 -0.0105413 0.182872)
(6.8326 0.00670338 0.17644)
(2.59076 2.28378 0.0162089)
(7.38627 0.095594 0.150418)
(2.88768 2.87215 0.00347934)
(7.81155 0.0709388 -0.00786291)
(8.3714 -0.0143686 0.0488258)
(8.11672 0.00860407 -0.0148031)
(8.38288 -0.104418 0.0131769)
(7.70257 -0.169762 -0.2359)
(2.88618 2.88286 0.00037324)
(2.88577 2.8861 8.93836e-05)
(2.87923 2.8831 -0.000754719)
(6.75732 0.0652992 0.243509)
(2.8576 2.83281 0.00333615)
(8.20096 0.0349816 -0.013528)