/*--------------------------------*- C++ -*----------------------------------*\
  =========                 |
  \\      /  F ield         | OpenFOAM: The Open Source CFD Toolbox
   \\    /   O peration     | Website:  https://openfoam.org
    \\  /    A nd           | Version:  10
     \\/     M anipulation  |
\*---------------------------------------------------------------------------*/
FoamFile
{
    format      ascii;
    class       volScalarField;
    location    "3.1";
    object      p;
}
// * * * * * * * * * * * * * * * * * * * * * * * * * * * * * * * * * * * * * //

dimensions      [0 2 -2 0 0 0 0];

internalField   nonuniform List<scalar> 
111485
(
33.684
5.3222
6.18869
33.4931
6.38603
32.9824
5.42067
4.73207
5.43935
7.94796
5.3694
6.88467
5.46216
5.31038
5.4953
5.58377
1.8199
35.1693
5.436
33.4202
33.3722
33.1596
5.47896
5.54607
6.35458
32.9893
7.64579
3.10346
6.17619
33.8092
10.3526
1.26877
33.5423
33.6568
34.7042
33.9241
10.2889
0.40448
12.1173
5.65786
33.9731
7.9405
5.65613
9.16179
11.0731
34.2694
8.66414
5.53508
7.9283
33.1199
33.1126
31.8086
33.1314
9.31295
33.1415
3.44214
5.49949
34.0509
8.58813
5.64513
5.65742
33.6817
4.42075
10.1314
32.6241
3.87926
25.4815
5.03223
4.41662
4.74535
10.9082
4.01112
32.4303
4.40483
34.0495
2.32047
33.2762
7.63142
33.155
33.6422
10.4856
8.9177
33.4117
33.9677
4.38065
5.82824
17.072
9.37068
10.6872
1.68689
11.2181
5.83879
4.40994
0.723196
7.93856
33.9546
33.6946
9.36143
10.0222
9.99048
33.6165
7.7021
33.8528
7.5175
5.13717
33.2705
33.7549
1.48457
5.94577
10.8565
1.03788
3.98997
5.83459
7.15465
32.9812
2.20521
33.0887
34.0405
4.45243
33.4296
32.983
29.9203
33.4161
34.0581
8.29239
35.5432
29.839
1.70187
34.0978
13.129
10.2405
9.35302
34.0309
29.5185
30.2999
5.29637
33.3153
2.32081
4.84862
4.91982
7.98982
4.90469
4.88835
6.10185
8.41458
0.270879
33.3091
33.9202
33.8939
5.13593
6.12078
33.3734
10.3899
0.041361
10.292
5.12965
5.09054
5.4507
10.647
34.2045
33.4955
5.11853
6.11593
10.7649
10.4814
2.03471
9.95155
34.0944
10.8763
10.9616
33.8846
33.8871
6.63199
33.5684
0.416108
0.0817374
32.7991
32.379
33.0547
33.0684
32.3095
33.4813
5.14481
5.19674
5.07712
0.197561
7.63794
2.7901
10.2933
33.5974
2.41154
32.3766
33.6987
2.81694
7.90947
9.93078
3.69033
0.336606
34.0492
5.21035
6.0459
26.1843
8.89343
1.61468
34.114
2.83169
7.29321
32.361
9.86722
8.61516
6.06292
2.74474
32.2798
33.7445
2.78868
25.4084
9.34464
33.5426
2.82407
2.41231
8.07174
34.2363
3.11257
9.70455
28.1195
33.5608
33.8993
10.9156
10.4767
32.8015
31.1833
2.43926
0.663523
3.72135
32.7851
32.6721
10.1365
34.0817
5.15159
2.41956
2.44255
2.41273
2.43966
33.9242
10.5667
1.92306
33.9829
33.3873
9.33818
4.00837
32.927
1.19261
1.82035
33.907
29.1335
8.79718
33.0549
33.1206
30.8498
33.23
2.14269
2.34373
0.167137
34.2575
1.84854
33.5191
33.6643
34.114
10.1943
7.63516
4.19664
4.2641
7.14849
4.19966
4.27968
10.6184
0.647931
0.693118
32.5859
33.8857
10.6849
1.48462
7.83798
0.806482
33.4567
4.27206
5.20169
4.18098
7.31312
10.6313
4.1427
4.22779
8.84609
34.0563
7.5691
33.5721
35.2771
33.2835
10.9183
7.17114
5.58207
33.1448
34.1808
3.31393
1.08428
33.3521
33.7613
33.1645
2.37545
0.714092
5.08065
5.32226
5.75039
31.4574
33.7889
34.0022
3.30669
20.4863
5.60941
10.7163
10.063
33.3941
33.6637
33.69
30.2736
3.55775
6.34098
34.0284
3.52415
32.8718
33.0072
9.55526
3.54555
7.08724
3.49618
33.412
30.1933
33.9187
3.52981
0.210888
10.4405
32.8327
13.7207
10.3198
6.41272
3.16431
15.5754
5.78541
33.2475
5.79236
3.59942
10.6364
9.51709
6.46207
33.7122
34.0082
33.8245
33.5094
5.02551
3.06479
7.09113
5.79241
33.687
6.74424
33.7902
33.7121
5.78663
33.5326
30.3048
34.3217
33.9475
5.14947
34.0577
0.17591
6.68615
33.1615
4.64072
3.70451
33.1119
3.63741
6.80612
3.6602
9.90709
0.379369
0.731487
33.4586
33.9144
9.14354
34.0306
7.02196
9.65558
32.7339
33.97
3.46596
6.90304
0.598313
6.71989
33.2876
10.319
6.86402
32.916
9.15577
6.92038
33.7468
33.4568
0.181103
6.37156
33.9473
33.1053
27.324
33.6093
6.53013
33.5466
33.577
6.89026
10.2941
8.47279
6.38756
33.0067
30.3136
9.2065
30.6058
9.15206
9.26939
7.8781
25.9533
30.816
-0.0585534
10.96
33.7978
9.5177
6.70369
34.2399
10.9218
8.04615
30.6915
7.09568
6.86257
0.409092
33.068
0.835515
7.24332
0.403893
11.0714
29.793
10.1977
34.0279
10.4078
-0.021179
33.8697
7.07991
8.77594
29.3024
34.2425
31.6801
33.365
6.38873
0.469203
7.0105
7.06261
9.84286
33.5709
7.06992
33.7193
6.40517
32.8368
33.7103
33.9157
7.06282
33.9414
33.7393
34.2654
33.6961
33.9489
8.79921
34.0607
31.8986
33.7915
33.7312
32.9541
34.0296
33.2044
7.11403
33.7989
8.87322
7.29065
11.5679
32.8737
8.87646
33.8165
33.6734
7.08901
7.04771
7.2031
10.7096
31.7025
8.13208
8.13474
0.483925
0.790445
7.29017
33.8728
0.451356
29.3272
8.28235
33.6093
8.21664
29.924
0.944835
7.00731
33.7841
33.9594
0.761829
33.3113
8.12442
8.1474
33.9654
33.8319
33.2879
33.841
9.29501
8.09756
32.6903
34.0314
6.39049
33.1651
8.12939
33.2482
8.53942
33.6877
7.98408
8.16601
3.64663
0.911187
32.7285
-0.149626
32.8144
33.6249
7.4767
33.6243
8.02641
33.3118
8.26157
33.8338
7.55119
33.3531
30.7265
11.5399
7.46803
8.09422
7.50943
8.08783
6.92576
33.878
8.09841
7.50392
33.5034
10.9355
10.102
8.14121
32.8319
33.2791
6.38238
8.30274
21.8962
32.275
7.44507
6.35501
7.65045
7.66785
1.21282
18.8276
30.4819
9.95254
20.3583
33.5225
8.10729
34.0395
30.8257
1.66572
18.721
9.97476
15.736
30.4815
7.70115
6.36637
32.8614
31.8788
6.34946
33.1808
33.1406
33.2074
32.8282
7.72622
33.7844
34.0141
7.80502
2.48423
27.7831
6.26825
31.6483
2.43996
33.124
33.9047
7.75863
33.6007
32.8939
30.7367
0.312359
24.6017
7.90932
1.68393
33.1646
11.2297
7.87658
6.5712
10.0142
12.693
6.39727
33.6478
7.92867
6.562
34.1322
3.76847
8.91812
6.72251
0.283499
6.73763
6.7267
34.0485
8.13896
9.8719
30.6617
6.72904
8.18752
25.1163
1.67821
6.72218
8.21211
7.13741
7.16126
1.69308
32.9814
7.16193
8.04628
33.6589
7.60372
7.6018
1.79748
33.6421
0.289649
34.2059
33.3457
33.7334
32.8257
6.55128
30.9624
9.13574
33.7176
32.8278
7.63731
7.65155
33.3016
8.14783
33.6751
34.105
33.1483
8.32156
8.14245
30.7985
34.1116
33.6021
33.6663
10.1277
1.80128
30.329
7.46546
10.7874
33.9595
7.47856
8.63528
1.06661
33.0912
33.5473
3.90941
1.77467
30.6363
33.8647
32.6297
2.89862
33.9072
33.133
33.521
7.39785
5.89931
33.1738
34.3603
33.6557
1.23134
34.0176
32.9362
8.39483
10.1501
30.5828
27.8684
14.9745
8.53325
0.0526479
32.4825
6.27888
8.81553
34.0598
33.1126
33.3326
33.5707
33.8134
33.2143
7.43151
33.6702
33.327
32.8392
7.44167
1.75139
33.0325
33.1461
8.56126
1.76654
1.82443
33.1832
33.3495
1.78694
33.9362
7.47768
1.7579
1.84259
32.9793
33.6098
33.6077
33.702
6.41471
33.3909
33.2379
9.37102
33.5899
3.05588
8.7979
32.6684
1.70593
32.7962
3.04836
7.76645
8.01441
8.49244
8.87964
31.4375
3.02748
8.58912
0.0549398
32.9415
6.71738
30.8625
0.550648
33.7373
8.84283
8.64908
8.83244
33.275
33.6368
34.2516
1.76836
31.6567
1.10759
32.0918
5.76752
0.520367
1.27048
1.78692
33.2268
32.8329
32.4466
1.80442
32.8874
31.4449
11.188
34.0127
34.0177
33.6043
33.3456
1.29219
32.5301
33.5402
8.13161
31.5963
34.077
30.5614
33.4928
8.79175
1.24476
33.3841
6.43437
14.9474
8.85087
11.0081
1.56892
33.8422
7.82636
10.086
8.852
33.9885
5.72121
1.28796
29.4113
1.18329
10.7354
11.14
4.68978
0.852455
10.8462
0.296101
1.13786
33.6593
32.8158
0.835138
0.824667
33.9388
0.847445
7.00677
1.14142
32.7166
11.0215
33.7304
1.14775
1.11246
33.0472
0.464447
1.1339
10.9564
0.217876
32.5705
5.07797
10.9979
11.7703
10.889
9.53132
33.6346
33.7539
9.37265
33.3279
7.24101
9.57931
29.8395
10.6812
9.75769
11.1469
33.3486
29.1942
2.63157
34.0935
36.9113
9.51396
32.8264
32.9847
10.0327
9.57138
33.3365
11.103
33.5635
33.5986
34.1218
33.6903
33.1714
33.9208
9.67328
32.7888
33.8863
33.9682
8.2105
9.63409
5.95715
2.60282
33.1192
32.8827
9.94256
33.4715
32.9886
27.6333
9.72097
3.38691
33.1117
32.9469
32.8716
32.9361
33.7152
32.8932
9.83262
32.8924
10.9022
5.76308
33.6637
33.6694
33.1324
11.0794
33.1175
33.5029
33.7193
10.9604
33.7591
9.8174
10.2392
10.8383
33.1816
25.8783
9.91193
5.54871
32.3042
10.9412
8.24838
33.1679
32.5329
30.1288
32.9464
2.62694
5.02396
10.0828
10.7552
33.0665
2.60937
32.4258
30.3966
30.0204
33.8994
4.56113
33.5113
33.1474
10.4482
3.38616
33.1442
8.07228
31.7633
10.0533
33.4514
33.6157
33.746
33.5708
1.24414
4.98465
12.9974
33.0988
32.7891
1.23078
33.3368
31.0522
33.7035
7.38564
10.7711
6.45053
33.1201
10.5471
10.5172
34.0795
10.5528
32.8368
9.18878
8.26921
4.84683
10.4581
10.2672
33.4049
33.5769
33.5811
10.5224
34.2315
10.5644
34.168
13.8868
33.108
5.59879
5.77978
33.1581
33.2774
33.1819
34.0146
10.5636
33.1919
30.15
1.20297
10.5865
33.2362
30.9404
32.6126
31.0108
32.8259
33.4268
10.6242
8.31828
33.4876
33.0009
10.2169
33.7175
10.6298
1.26977
32.8361
9.34716
33.5907
0.760574
32.7708
6.19011
33.0265
10.4658
10.7622
10.7957
9.39474
9.37814
24.594
32.4299
9.48395
33.1149
4.54264
33.237
33.8571
32.0698
33.8086
33.928
33.9264
9.35098
9.33169
33.5963
29.4718
33.1623
9.49988
11.0475
33.7529
4.57384
10.9294
33.1349
1.63412
1.14741
4.34534
10.8373
33.33
33.4976
33.7412
33.2315
4.58797
33.6373
9.59353
33.4384
9.61312
6.2126
33.7613
9.56243
33.8985
33.3026
9.6657
10.1104
17.7118
33.4406
33.157
32.9125
4.73846
32.196
34.2824
32.3938
14.5945
30.1157
10.5605
30.945
32.2907
32.6174
1.3956
1.21654
6.96966
5.19615
34.1212
9.64231
33.6259
33.9398
1.21343
32.7198
10.3532
9.60073
0.90676
9.7258
9.36081
6.85425
33.8609
8.13952
4.54794
8.371
9.92224
3.50475
26.8077
33.6666
6.64857
33.1864
32.9655
11.2841
7.93317
9.27729
33.5865
33.2138
10.4103
33.1337
32.787
9.78617
33.1643
33.1527
4.2718
9.7985
9.96514
4.14922
2.1081
32.8734
33.3911
11.1652
4.0469
33.2031
33.1539
7.12901
32.8463
29.3612
30.2093
30.327
23.8648
29.445
33.2088
6.75892
32.8966
9.95046
33.0308
21.4499
32.839
32.7954
33.8749
33.3233
6.29916
33.3383
33.3233
30.6541
32.9628
33.8537
33.5959
3.8489
33.3957
3.49689
10.0037
32.7985
6.9174
33.135
8.52046
10.9375
0.928723
0.982783
32.9792
1.04488
6.30664
10.7648
34.0999
10.1738
3.05357
0.496475
31.7947
0.619222
32.8411
33.8537
32.9971
33.1803
0.623177
33.5643
32.9796
0.49898
10.0828
0.481406
33.9657
26.6566
6.86748
33.7342
11.0479
33.128
1.00779
32.729
32.8044
6.78329
33.0169
10.3365
33.7166
33.0282
3.02366
8.71743
2.22831
4.88376
11.1484
3.89425
33.0436
33.543
5.86502
2.30143
3.81606
10.1635
33.3344
3.52334
33.2835
33.0063
5.87708
10.3159
32.8608
2.36761
33.8309
2.25052
2.08172
32.4151
33.1917
33.7018
5.83791
33.55
33.553
5.87196
2.23595
9.87807
0.575239
33.0954
33.8302
7.30577
5.92064
33.0656
5.85344
32.8765
5.82692
33.1413
33.0782
5.78833
33.3519
8.29365
5.38708
32.8734
33.1974
5.36215
29.3158
6.53964
33.6687
9.95456
33.7278
29.5409
28.9585
5.44354
30.7574
30.5176
5.00148
30.4486
23.189
29.0697
32.8091
33.1818
10.738
6.52577
33.6327
33.6253
6.40406
6.47949
32.875
5.9187
33.2261
33.1827
7.47381
7.11931
0.427839
33.1248
33.6336
33.5644
33.3264
32.823
32.8403
33.6361
32.8876
32.9291
33.1964
33.5785
33.1858
33.4341
33.0946
32.9427
32.9699
33.0897
33.1951
33.3783
33.555
33.9443
6.61213
33.5
33.1005
33.9444
4.50703
34.0794
33.1744
19.821
32.6308
32.3666
4.54919
34.0152
32.4382
21.2134
4.57487
33.4331
29.7563
31.079
32.9767
9.13913
4.58611
4.61275
4.41877
2.74629
33.2162
32.9903
3.41841
3.58087
4.40268
33.2687
4.05707
8.85542
4.3912
0.741177
0.861014
4.44007
1.43158
4.37241
34.1375
4.97423
4.05361
6.18922
4.05988
33.7125
33.6003
33.8329
33.5966
33.6949
3.54677
4.10994
33.6901
32.9404
32.8842
33.0332
33.0134
33.2435
32.7147
33.1882
4.05828
11.053
4.09242
6.81481
32.7032
32.5389
9.02807
11.0313
33.1786
33.3276
6.52587
34.1952
33.5175
4.10375
4.00024
4.05646
6.44564
8.96303
33.2544
0.0787187
4.86406
30.1569
33.1953
4.78845
33.2059
32.7998
18.4202
15.3808
6.83265
32.9209
34.0952
10.1887
4.936
0.135378
3.5727
20.9799
33.6123
9.56729
33.6763
34.1671
32.4245
6.36158
32.9973
3.54819
0.175131
4.7357
4.89683
33.8909
3.10856
33.9842
32.1578
33.9087
33.0862
1.17046
23.8762
33.3422
33.4634
33.9733
3.57015
30.0039
3.1971
3.56213
1.13561
3.56829
33.0406
32.8874
29.867
6.33988
2.70338
9.49673
33.1147
33.6755
29.937
9.09182
6.75352
33.3308
2.59329
18.6375
4.92321
2.67461
33.5375
29.4564
2.68894
3.54454
33.6145
7.95975
7.67713
6.78885
3.10536
2.79569
2.92205
30.1553
1.0778
2.8969
2.46733
33.2621
4.72651
30.3872
6.22267
3.02723
34.2499
0.775884
2.87983
3.14555
3.77644
35.2171
17.6649
10.0317
23.3199
2.90135
32.1411
0.917461
2.87657
33.0607
33.3854
11.0461
10.8959
4.15123
35.055
6.94551
11.0324
9.12049
10.2921
32.9951
34.2029
3.53502
34.0262
3.19072
10.818
2.89301
0.907102
33.3985
8.45143
3.50856
33.1596
30.4027
2.2584
33.9192
2.26699
2.12215
33.7006
35.1432
4.95615
33.2731
33.1028
34.0742
0.886574
11.927
6.38027
34.2826
6.19556
1.57007
32.7073
1.5579
1.63808
0.995533
10.8978
33.2271
3.15909
0.714894
1.60803
1.6109
1.02602
10.6702
5.71665
33.6661
0.0275436
1.11811
33.5409
1.6177
33.9479
33.5311
34.0279
34.0454
33.4486
9.08525
33.8148
1.56075
7.4108
34.1384
7.18568
33.046
1.11297
33.1628
10.5638
32.2609
5.9795
9.47832
11.0516
1.70979
1.11403
6.18219
1.00101
1.74611
19.2685
1.71025
3.96065
1.74756
34.1345
3.57898
10.9575
1.74977
5.52488
10.9214
34.0939
30.2169
33.0665
6.2619
33.4247
28.2111
1.10644
34.0639
7.68748
33.1372
33.996
33.3362
3.90366
6.5521
1.87659
9.65749
0.937105
3.35173
3.20926
4.00331
1.26974
3.18644
3.30479
33.1983
33.6796
34.2314
4.95386
3.48332
32.7532
33.3321
28.5507
3.24191
1.30112
33.3621
3.30714
33.7493
10.839
6.29229
9.97406
33.5287
33.6915
3.92098
33.5896
8.29371
1.72473
32.0608
4.42192
5.54081
0.736461
33.0812
10.2071
30.7695
7.90751
6.37051
33.555
34.0867
1.65653
26.9169
34.0019
2.1872
0.855016
33.6567
33.0541
30.5947
3.21805
28.4789
4.98795
9.09492
7.82599
33.683
30.4734
8.90856
33.6989
33.5981
33.8562
33.4295
30.7888
32.4254
32.0078
33.1509
32.8717
31.7188
34.0677
32.1971
8.31399
32.2079
29.7544
28.7901
35.4404
30.1209
33.6902
9.09401
31.4631
32.3681
9.32867
33.5758
34.5661
32.9229
9.11481
34.0232
9.09761
9.95928
7.83867
31.3246
33.3626
9.10609
10.8369
32.8776
34.1178
4.94627
31.0748
4.91608
30.87
33.597
32.5751
4.90838
4.87455
33.7979
7.09716
33.2517
31.4095
10.5137
2.607
9.08416
33.9661
4.92712
30.9921
7.62611
33.2177
33.1032
33.0907
30.3608
2.58389
3.12531
33.958
9.85929
33.1566
33.1949
33.1513
33.4453
8.56125
8.54384
3.18217
11.812
34.1449
6.30223
5.02748
2.4191
8.54697
34.0714
2.52302
8.58003
4.42937
10.9257
4.67336
33.1518
5.89574
8.68704
4.96379
8.74384
9.1028
33.1185
9.20058
32.6737
33.7206
4.09772
33.9705
6.28617
33.8354
33.1555
32.3678
33.1082
34.0444
8.66839
33.0673
7.23922
31.3769
33.6942
6.1014
8.41782
3.33179
6.99284
34.0574
13.8436
33.9651
7.67065
33.1545
6.11541
8.53471
8.67251
7.753
33.1949
33.212
32.9492
2.7129
33.7239
33.1501
2.71157
32.7033
33.008
8.67362
33.193
4.77237
10.8605
31.2671
31.7614
31.5912
3.17005
5.30539
33.426
0.109948
7.47829
30.8483
8.8292
33.8809
2.76146
6.20434
2.44628
33.3743
6.53758
3.43922
9.10307
8.48264
7.22091
33.5622
33.6325
10.9271
33.2088
33.2164
33.7708
2.79693
8.93187
3.62336
5.63942
30.4814
6.51518
4.98282
5.34224
6.27627
6.53992
8.11805
7.16524
33.3269
33.3065
33.3094
7.20351
33.6966
7.49343
26.1978
7.15902
10.4093
2.79621
1.38232
33.025
33.8003
7.18006
7.14089
33.7472
33.3916
34.1965
3.01808
7.12802
7.37925
7.44546
0.768938
4.98427
33.2223
33.9957
33.6732
0.678828
4.77892
0.0896147
5.44909
3.13921
7.4981
32.7925
33.6646
29.0365
32.8146
0.816025
6.4197
33.6027
33.1187
33.1666
34.1314
34.1172
32.3771
7.73487
33.3371
9.38426
11.5601
32.9331
7.59116
0.266545
2.91136
33.9963
32.5457
7.69029
33.5816
7.72572
9.01459
3.19728
32.2502
27.6126
33.2485
33.3367
33.2238
32.0734
17.5797
33.096
7.80706
3.57735
33.6815
33.6504
7.91115
33.219
33.5387
4.3604
10.9225
33.1168
33.1082
32.3597
1.68363
33.5978
33.6185
15.078
7.89056
7.92279
33.3914
32.9237
30.9733
7.92122
7.85205
7.9081
5.64205
33.1357
1.4232
0.303951
0.36985
33.8162
34.0309
33.6718
33.9886
33.5994
4.36114
4.47674
3.57815
34.1916
33.8633
33.5834
33.7942
32.6962
9.57301
0.780524
0.173067
32.8243
33.5454
34.2855
9.45269
8.9328
10.2358
33.5864
6.80184
33.7248
32.9516
33.6228
4.34795
4.81713
33.1721
33.0512
5.89635
33.6337
3.19939
3.97482
19.1955
33.149
32.8394
3.22306
9.67271
32.8925
18.6913
0.556699
6.39002
33.3433
33.2058
34.1424
33.6928
0.908967
2.24549
33.2119
9.63917
8.32964
12.4674
33.4307
33.2193
33.181
33.2123
6.53794
34.0704
33.4475
32.6616
1.50184
7.32498
1.85143
32.8345
34.0558
8.32706
32.1571
33.6429
33.242
33.3405
4.62718
32.3771
32.9882
33.0292
1.8362
4.79988
33.2065
33.9335
33.0361
5.59607
33.453
33.0334
33.0523
33.9727
33.8794
11.2146
6.45519
34.3528
5.13366
6.45905
4.51036
34.1852
34.1001
33.5439
34.0201
32.996
6.09274
33.4288
31.4123
31.7264
8.34456
32.1223
8.30205
33.6078
33.6935
9.98942
12.7104
30.9734
8.4004
33.4199
8.37297
33.7638
33.1166
33.3185
35.9873
33.1576
9.50071
33.1444
5.403
33.7707
30.6589
33.9012
33.2059
1.72137
7.76283
33.2923
19.0318
34.0362
8.3875
9.48992
7.71191
34.0731
10.7653
7.64861
9.53312
6.56733
10.3794
7.73496
32.4562
33.0657
10.1481
2.73016
7.69666
33.0892
32.2139
29.177
20.6462
34.1915
32.8582
33.949
34.1194
34.2386
33.8471
7.64834
10.0193
3.62749
30.312
10.5475
33.9499
6.18838
33.6792
34.2257
33.489
32.3524
9.95083
32.3682
34.0408
33.4149
5.32369
33.4595
33.7989
9.88863
33.0693
27.1549
25.027
24.1837
34.1326
24.7555
24.2954
24.6455
26.4067
33.0996
33.0993
5.26091
7.99845
30.7274
30.7705
33.1754
5.33257
33.6353
32.8373
9.87106
33.2553
33.5698
8.48364
10.0134
34.1235
32.9209
10.7657
30.4805
32.7114
10.8985
5.72188
5.60766
32.7222
5.68759
34.038
3.54126
10.6738
5.64131
33.4603
10.7014
5.66623
33.0597
9.15396
33.0417
5.34561
31.8517
5.27774
32.7428
9.47568
33.1026
32.5394
33.7594
8.01103
8.04255
34.0771
5.79203
9.61366
34.367
33.4463
4.35065
0.234654
11.3321
34.1686
5.97668
5.8768
9.95596
9.6424
34.2315
11.2264
33.06
10.8617
33.6804
7.42203
6.69974
33.0248
3.6975
32.8189
9.84172
33.3002
33.0375
33.1849
33.7363
33.1567
33.6322
7.97648
4.44202
10.7999
33.1468
28.6367
10.7883
33.1894
34.1327
33.0779
34.1392
33.1632
0.21289
33.4593
34.0083
33.0549
0.186361
33.0805
33.3722
31.9244
0.918181
33.4825
0.868398
9.80483
7.71976
0.907241
0.884883
33.7136
33.1799
33.4991
0.978212
1.88842
32.4481
28.5618
0.938326
33.7774
34.0467
10.7846
33.0343
5.84289
33.148
0.883518
9.80321
33.1791
33.084
33.1596
33.9607
33.7634
9.90679
33.1621
0.951645
33.1562
33.3692
2.11397
33.7712
6.19621
32.5877
33.7939
8.06624
3.70087
10.9353
33.9531
33.9753
33.5226
3.69576
10.6013
33.1403
33.365
32.2211
2.31319
33.1392
6.2587
10.8803
33.348
33.2257
2.34635
33.651
32.1876
33.482
33.0429
33.6235
10.8393
28.3231
32.7995
33.8871
28.7662
33.24
29.3534
32.9477
33.0992
32.8232
3.70685
32.9743
2.26694
32.7475
33.1869
11.7148
2.31902
33.1277
33.0584
33.213
2.24582
30.0984
33.4361
32.5281
33.1946
2.51767
33.1302
10.9309
34.1995
7.52611
30.623
9.00469
33.0422
33.747
7.17257
29.6238
33.1566
1.87507
7.36698
34.1566
33.9512
8.02606
9.15188
2.29061
2.26018
2.29672
8.07461
2.263
9.33666
33.1179
10.9157
28.8212
28.536
33.3975
32.9319
33.7237
2.23237
34.1482
34.2152
34.1101
10.3492
9.27491
27.9982
8.41714
34.0111
8.64931
32.6738
10.0465
2.48045
29.0045
7.39814
32.9602
32.9716
33.3051
2.50887
7.55355
33.5139
33.5587
2.52168
33.9477
11.1951
33.794
10.6646
33.6335
33.3003
34.0313
33.2839
2.02192
33.2815
12.7471
33.77
7.76903
33.3969
33.2503
23.7316
22.906
33.2632
33.2828
33.6717
34.0233
7.36305
11.1215
26.0858
33.9161
7.544
33.1614
33.7096
10.7274
5.72529
10.4109
33.3228
1.40202
8.0014
3.92737
6.09932
33.6985
34.2356
34.2475
33.9868
33.3442
33.2873
33.2862
32.9331
33.3225
33.2867
33.5952
33.261
10.6084
33.3035
33.2086
34.9851
33.9866
33.4082
19.2822
33.1391
33.2933
6.07689
11.0196
32.9663
34.1472
33.579
5.34173
34.0771
33.6364
10.9232
33.5274
33.1642
33.7648
33.8916
10.0186
33.4446
11.2216
33.905
33.7373
33.3114
33.4156
33.2418
10.9599
10.9445
2.97492
34.0028
32.664
34.1411
10.998
33.1482
10.9236
11.079
33.502
33.0438
27.9895
10.6296
33.0062
30.8759
10.6478
28.2506
8.25332
33.7992
9.47954
28.1519
26.7311
33.6025
7.29842
33.5532
7.32372
9.99146
33.0948
7.33938
10.7535
33.6393
10.0225
32.9999
33.0603
33.1726
33.0239
32.84
33.2357
33.1466
34.1339
10.9061
31.1183
33.4695
33.7524
33.0911
33.038
5.38324
22.7192
11.0997
11.2488
33.166
6.97243
6.962
33.5271
30.8507
32.9629
32.9366
33.0349
33.1542
29.3059
31.214
8.63368
33.3585
34.1693
28.0177
29.4066
33.369
7.24162
32.8907
32.8653
33.9641
10.4864
34.1214
33.1524
8.15261
33.4656
33.9272
32.8629
34.3362
8.20207
33.3842
33.3298
33.2594
33.0711
8.70414
10.5134
10.5008
7.26676
9.18646
9.19922
33.5651
29.6338
11.2856
8.98326
29.6059
11.2777
33.8942
9.09398
32.8459
10.5047
33.4783
32.9004
9.22924
8.23451
33.0867
8.95533
33.4557
33.7084
10.5
10.0505
33.9939
33.2309
33.1031
33.3289
33.2337
30.0351
34.0082
33.6904
8.91056
34.0211
33.6108
33.413
9.26486
33.1958
30.1274
33.4164
33.2557
31.6843
30.5731
9.26121
32.8443
30.6385
5.44147
33.9461
8.92449
8.88573
33.2374
5.62947
33.6425
32.136
33.9871
30.3304
33.7945
34.1235
34.2342
34.1945
5.56135
34.0596
33.811
34.0503
32.8281
33.4485
32.9415
10.6216
33.6081
33.9294
10.0193
33.52
33.368
34.0611
5.54703
33.346
10.2614
30.04
10.8666
0.699574
33.3145
29.6218
5.41007
28.9073
33.3059
11.0058
10.6926
0.0408861
9.66474
11.2372
8.87789
33.9197
32.7848
6.80927
10.7188
10.4186
6.59719
10.931
33.7329
1.25438
6.75173
6.75122
34.0748
6.73377
1.06985
3.91543
6.42545
10.6563
7.01093
1.53736
6.26966
0.224972
2.90753
6.44919
30.1536
0.402703
0.0462107
7.27437
8.44314
0.396137
6.42666
0.289111
30.5975
10.8749
30.454
3.51502
6.81822
8.54796
5.10635
30.4271
33.3438
6.31152
5.16325
10.6852
10.509
1.80682
6.8075
24.7442
6.84462
33.6069
11.953
10.7844
9.63415
3.94593
10.7817
10.9038
7.82381
4.83319
4.85438
3.56661
6.8432
0.572312
28.3314
26.1578
6.86268
33.2219
33.5946
6.49962
6.62514
0.583958
33.2793
9.73035
10.0594
4.72407
26.7141
33.6028
10.6439
0.165683
10.7947
34.2377
1.756
33.7661
5.08193
7.73357
9.34618
9.43924
33.2526
33.6442
10.2266
6.63143
6.66593
33.6418
5.33682
6.61384
8.44761
33.5289
4.82195
0.433475
30.397
3.94668
8.37296
10.2818
32.6614
9.92505
11.5519
33.6368
8.1999
0.796889
15.9655
8.29103
8.3356
1.55381
7.31014
8.35569
0.598779
10.5887
10.38
7.88378
1.39343
6.98574
10.9743
5.14373
8.35899
2.94315
6.48913
11.0198
1.62272
33.6965
8.32536
8.27998
10.5494
2.10625
9.60201
32.8238
8.2795
3.92484
33.717
9.6654
0.143574
8.34272
7.98197
1.02475
0.0693005
7.19443
8.03619
9.85384
33.7172
33.5818
9.91271
33.926
9.9384
9.77207
32.4179
1.04067
8.51853
5.22488
34.0492
3.92802
4.46931
9.72998
10.7562
4.37835
1.93158
5.39168
8.98857
33.5971
33.0507
10.6169
8.92904
9.6226
5.66487
33.0504
9.00492
7.78001
32.4048
5.37797
6.86305
0.298159
11.2063
9.24937
7.72663
1.69471
5.97154
33.9392
8.35236
4.29042
7.92791
11.1819
33.0606
9.35154
33.2568
33.5061
4.50939
7.71143
4.92521
12.2665
9.97926
15.864
33.4019
7.68998
7.83793
5.14855
4.99935
33.1664
34.0744
34.0253
4.98509
4.99781
11.1319
3.87902
32.1849
33.0919
4.97354
5.56272
9.50703
5.01285
4.98316
6.03077
9.16413
23.4616
33.0995
7.59715
0.595285
33.0816
7.11235
5.92163
11.6547
7.58997
5.9108
9.87685
33.0859
5.12166
6.16108
33.8896
32.2425
0.409945
0.777125
2.13042
0.911229
5.96651
6.03671
1.54925
3.89964
5.54995
0.884715
33.0419
32.9931
0.054324
1.03508
5.89867
11.2267
5.7855
5.67783
7.87207
4.88093
5.7542
33.2153
33.9046
11.1411
33.0131
30.0649
6.23556
3.96532
6.09684
10.9287
31.216
9.35321
11.2814
31.6177
11.2529
11.0488
5.7579
5.79335
0.431999
6.68905
10.6686
0.987438
33.5408
31.47
10.3013
1.90427
4.99496
1.97604
9.63959
8.84236
10.602
31.5453
6.1377
1.44805
5.32597
11.2003
9.30779
10.3675
11.0546
6.11938
1.44337
31.2519
8.58776
5.90009
19.4571
30.2631
28.8032
5.34136
29.8455
0.323983
5.33329
4.98224
6.67925
10.0562
25.3383
20.0944
33.5397
29.6876
9.88875
33.3006
33.2994
8.86359
33.5579
3.90297
5.15788
4.72023
3.64805
3.86563
6.81462
28.7234
1.88996
0.855057
8.77389
6.44272
3.65836
6.08613
33.3669
11.0956
3.57102
7.77724
33.3116
8.13475
6.33891
33.2977
33.161
9.65296
3.51201
33.9128
7.17053
6.46943
9.70765
33.9028
33.2828
0.615408
10.9539
6.74629
33.3292
33.7808
33.2975
7.75537
18.7726
18.1522
2.44347
10.6757
34.2011
2.47361
10.7188
5.50472
0.670786
0.622136
2.65519
10.7825
0.72402
34.1824
2.77309
1.49052
0.245888
4.4264
1.06524
1.0739
1.10824
1.16924
0.32416
10.0414
10.9968
6.04903
9.79449
10.7354
10.7447
1.11874
11.0063
1.14762
0.301509
3.23908
2.00592
9.71805
1.98234
11.0706
2.29853
32.0714
6.15957
22.1329
4.57275
6.79478
33.8935
8.34307
32.0876
7.10499
32.1723
32.9347
4.86533
8.5084
30.351
1.90783
5.0163
8.48891
33.1007
33.9665
10.0109
2.76002
11.0211
4.54148
1.57894
8.29693
10.5428
7.93552
8.37279
29.0824
6.10356
33.3956
33.0929
3.4531
2.50924
10.9929
3.3055
2.20597
8.38052
8.66891
32.6805
10.5779
2.17917
8.27248
32.6899
34.1111
6.11717
7.13827
28.1653
9.65086
0.255238
7.34098
0.245292
1.81553
4.59083
33.1733
24.1005
3.668
10.3435
34.2284
3.46869
9.65746
7.65581
11.7396
3.66732
11.6262
6.11108
10.0347
25.0517
10.2433
33.376
7.05538
8.4745
1.73456
0.112907
29.673
0.162631
10.3482
8.06388
9.9942
31.636
33.2885
3.86746
10.2362
8.06863
6.96895
9.59716
2.7957
0.595941
5.28989
0.686203
0.463837
9.68483
30.8681
10.966
7.94876
0.0462918
9.46002
31.3635
33.0453
6.08034
10.8693
33.8321
10.84
8.80787
31.4274
25.4856
26.3112
8.62431
3.59097
12.3774
27.3291
9.6428
4.08613
32.0863
1.46743
30.0741
7.65839
2.82078
33.76
0.727283
9.5396
9.52098
2.51806
33.1684
10.9424
9.0917
10.1021
9.54127
9.91773
10.1244
8.70408
11.2578
8.95896
1.47522
3.64827
33.0875
29.3287
29.1995
32.4297
8.17492
4.24317
3.72334
9.46816
2.16659
3.75775
7.32833
8.52661
8.18356
2.72515
8.78872
9.43788
7.74854
2.02764
33.4323
9.44311
9.40482
8.34407
8.83267
32.0945
4.96371
5.06545
6.93806
6.94781
5.56379
32.7886
5.53781
5.5264
30.071
5.62352
7.87666
32.4303
5.5816
32.3617
34.06
4.95788
8.47148
7.92893
5.505
33.0127
0.943953
8.78462
34.0598
4.52772
5.73712
4.72002
8.09848
32.4774
8.55861
8.52457
7.52182
32.7227
3.97654
1.55417
7.67249
3.42355
4.2616
34.0916
32.1802
30.9896
0.352145
31.3824
3.88161
3.2243
1.091
33.1244
1.21299
32.5754
33.4345
32.9757
4.72468
0.0903104
11.0429
7.68418
4.18147
31.7377
30.0779
9.60274
9.43559
3.21732
10.6077
4.17954
10.6947
33.4119
27.0767
27.4473
33.1947
27.6051
0.202476
33.5812
3.90211
7.25861
4.20272
0.830327
4.97577
29.0129
3.28838
7.2819
8.46449
9.95895
29.1361
33.3524
8.72121
3.29008
11.1672
10.5605
10.6516
10.9193
10.9803
11.1138
2.52084
0.576005
2.53164
9.75141
2.45003
7.31567
7.86116
1.70713
2.45367
10.5996
10.417
10.5219
9.3581
8.57573
1.72765
10.0209
34.0272
9.0957
6.66658
0.961589
0.59929
0.212837
7.32992
5.56753
6.17555
0.640006
10.9136
33.2318
3.91175
5.34545
5.98524
33.1615
4.4562
2.50632
0.675033
5.44243
34.1783
33.1412
7.95399
1.59899
1.51467
0.320581
32.7232
33.7263
33.5944
6.00159
7.20747
1.4151
33.7071
3.97754
33.1288
33.1536
0.665749
0.468102
32.8664
1.43983
1.48101
0.227898
34.0237
33.9354
2.60187
7.3275
33.1421
1.27717
1.24615
1.01683
33.2393
33.2477
33.1839
1.03057
1.27569
9.56175
1.24155
33.9442
1.09973
6.89051
9.65636
8.86039
32.3089
33.3285
1.19302
10.1558
9.89783
5.11904
32.3237
11.0546
33.3795
1.75929
10.7163
6.95114
32.4736
30.787
10.2557
10.6562
30.4032
30.5289
33.4224
4.60794
31.9281
29.5996
7.21341
7.07382
33.4121
30.0909
6.16863
1.23457
1.17829
4.74526
4.00101
30.4097
7.34311
28.8558
28.4228
32.9316
5.00321
8.14951
1.19333
28.5528
34.2711
7.09817
10.6607
7.51437
8.21359
6.47578
5.65338
6.41092
1.35396
28.2232
6.93309
5.11988
1.34688
4.6872
8.11199
23.6144
4.59334
4.60592
4.59691
4.58964
1.6139
27.6968
31.2326
5.34995
31.3517
31.6103
6.46992
31.4115
3.88139
30.9423
31.1997
32.6651
30.3334
5.11738
1.71187
5.15575
30.8363
2.47805
4.86833
6.82527
31.1784
33.6951
5.15038
5.43336
10.8859
5.15635
30.3267
0.0645339
1.19122
0.922672
33.0221
32.7812
3.06967
2.57355
32.8713
31.3014
9.36246
0.0887155
30.8286
10.2633
9.31265
9.34921
5.64912
31.0878
6.42124
14.6485
0.640738
0.358008
9.42063
9.25743
8.61915
3.62431
6.56796
30.5423
7.35355
6.57486
10.8451
10.0586
9.34684
31.0867
4.50749
6.71023
3.80881
5.71719
6.62541
10.6181
0.789832
9.82621
8.72939
9.40568
2.68665
9.44714
9.91356
6.52556
7.98501
33.1657
10.6157
34.2246
6.45769
6.74867
9.44137
9.86879
9.19654
6.54217
6.57024
10.3834
5.11711
1.7543
32.9129
27.5896
9.86851
9.8755
7.76912
9.93342
10.8807
10.2054
10.8874
11.0812
28.2784
1.69485
11.1545
7.41397
28.7799
0.169127
27.5276
5.00275
6.55187
10.9212
4.53772
34.042
6.35521
10.7298
0.0437368
33.3254
10.8207
1.5011
8.57255
10.7734
10.83
27.8926
33.2669
4.6522
6.92878
3.66154
6.91934
6.22705
7.01023
11.0382
29.6555
0.334237
29.0095
7.05551
1.69175
7.43782
33.8704
26.3311
10.2077
7.00406
5.07821
7.51169
33.3076
7.46653
7.53834
0.378497
7.52204
19.4346
15.5005
7.54042
33.4001
33.0762
4.50973
19.15
10.0824
33.9579
3.40129
32.854
9.48856
33.8452
2.13661
9.78309
10.758
7.47578
7.86714
6.76758
9.32282
10.9894
0.656938
10.8322
4.22938
10.7692
32.1278
2.47595
32.9686
7.90225
7.98853
6.31375
5.59296
7.83312
0.487037
4.95761
7.75578
7.62553
11.0625
9.18314
10.2826
33.2491
7.76142
1.79924
9.78847
1.70593
7.80631
9.6394
2.48235
10.798
6.98841
9.94158
7.03778
4.30686
7.94037
6.38155
33.0678
33.0201
6.72168
6.90918
8.63338
33.4445
9.01195
0.558731
6.58139
4.98631
3.15188
5.24824
4.46771
6.89543
0.0335735
3.95363
9.11741
3.32398
5.96255
5.359
4.90138
9.12421
7.83934
3.29735
11.328
7.34668
10.6486
2.92271
8.25784
10.0331
3.74333
0.41803
5.24616
6.86597
3.02996
2.50583
32.79
8.1441
10.4481
10.6412
18.8865
8.15946
28.9297
4.56241
8.1072
1.1728
8.70873
33.0314
7.94596
9.09164
-0.241133
8.29286
9.55609
9.07797
33.2947
5.40075
0.833879
8.82643
11.0138
10.4153
32.7595
33.3504
13.9129
31.1228
9.12195
33.2322
11.1501
13.813
31.0638
31.2426
0.723657
31.58
33.5873
9.08555
5.21644
34.0761
6.23914
4.72382
6.46206
7.56202
33.5916
10.3739
9.16427
8.73198
12.275
33.6044
10.9356
8.90954
9.9391
33.272
5.34106
8.87338
33.0116
4.65588
33.4522
33.0359
10.8016
8.77971
33.7291
11.207
10.8141
10.9464
10.7419
7.61269
10.5875
10.4847
7.97157
9.1039
34.1528
4.30037
1.55429
3.24612
0.489175
10.7273
1.47182
4.62402
33.7265
33.2136
7.06397
10.6951
9.09156
4.34851
9.11969
4.89899
0.51515
33.3942
0.0372884
10.6121
1.22442
9.07724
2.94686
33.7333
10.4593
7.99329
10.3587
12.9806
33.7115
4.05131
34.0007
1.67536
34.0966
9.0362
10.3012
8.63939
6.63619
7.9195
0.44708
8.58289
33.7694