/*--------------------------------*- C++ -*----------------------------------*\
  =========                 |
  \\      /  F ield         | OpenFOAM: The Open Source CFD Toolbox
   \\    /   O peration     | Website:  https://openfoam.org
    \\  /    A nd           | Version:  10
     \\/     M anipulation  |
\*---------------------------------------------------------------------------*/
FoamFile
{
    format      ascii;
    class       surfaceScalarField;
    location    "3.1";
    object      phi;
}
// * * * * * * * * * * * * * * * * * * * * * * * * * * * * * * * * * * * * * //

dimensions      [0 3 -1 0 0 0 0];

internalField   nonuniform List<scalar> 
214403
(
-0.00559927
0.0042929
0.00023752
0.00106884
-0.00267558
-0.00904413
0.000738329
0.0109814
-0.00831838
4.37858e-05
-0.000108084
0.00838268
0.00736942
-0.0049504
-0.0123538
0.00993475
0.00996695
-0.0125913
0.00297932
-0.000354974
-0.00432567
0.0045078
-4.62423e-05
-0.00013589
-0.000698053
-0.00132655
-0.00746982
0.00949443
-0.0137088
0.00782251
-0.00206252
0.00794885
-0.0190092
0.0134067
0.0135327
-0.00793025
0.0114784
0.00136439
-0.0128683
2.55034e-05
0.00409882
-0.00811345
0.00168525
0.00232938
-0.00838158
0.00261767
0.00436049
0.00140343
0.000382185
-0.00933987
0.0112694
-0.00231174
-0.00806833
0.00808664
-1.83085e-05
0.00156373
0.00967381
-0.0124153
0.00117773
-0.00968137
0.00808206
0.00243572
-0.000836413
-0.00984156
0.00956955
0.00027201
0.00322941
-4.69321e-05
-0.000742557
-0.00243992
0.0126929
-0.00758367
-0.0168898
0.0117806
-6.34636e-05
-0.00257998
7.5655e-05
0.00256778
0.00531622
-0.00519046
-0.000125766
-0.00993445
-0.00343476
0.00341591
0.0099533
-0.00185144
0.0110582
-0.00890783
-0.000298925
0.00543883
0.000554133
0.00188527
-0.00787824
-0.00832118
-0.00403553
0.0107724
0.00158435
0.0076473
-0.00968203
5.91856e-05
0.00197554
0.00260714
-0.0022637
0.00856554
-0.00890897
0.0062982
0.00821553
-0.00990099
-0.00461274
0.00905842
-0.00567221
-0.00025864
-0.00312757
-0.00487124
0.00496714
-9.59022e-05
0.00195748
-0.00411264
0.0110564
-0.00890129
0.0113155
0.000543132
-0.00195033
-0.00990832
-0.0046706
-0.00479474
0.00490917
0.00455618
-0.000963228
-0.00544145
0.00481821
0.00158647
0.00355198
-0.00236214
-0.00763616
0.00644632
-0.00137292
0.00686496
-0.00247895
-0.00301309
0.0130914
-0.000356067
-0.0127353
-0.00553726
0.0108489
-0.00531165
0.00100235
-0.012002
0.00696738
0.0040323
0.0019791
-0.000797903
0.00487129
-0.00605249
0.00459185
-4.14267e-05
-0.00455043
0.00832254
-0.000186419
0.00147804
-0.00961416
-0.0105072
0.00130948
0.0111769
0.000731514
0.000718812
0.0070558
-0.00850612
-0.00339714
-0.0219698
0.0213388
0.00402812
0.00475328
0.000860181
0.00107275
-0.00668621
0.00343643
0.00260428
-0.00841728
0.00237657
0.0107928
0.00645055
-0.0118045
0.000976264
0.00921206
-0.00186578
0.00151994
-0.00566914
-0.00334588
0.00749508
0.00258143
0.00396347
0.00118214
-0.00772703
0.00149874
-0.00112711
-0.00344649
0.00307486
0.00571105
-0.0103352
0.00720557
0.00968264
-0.00912539
-0.00310387
0.00254662
0.00884949
-0.0016185
-0.00694131
0.00940471
-0.000384458
-0.00207894
0.00714166
-0.00915286
0.000115535
0.00189566
-0.00667183
0.000442983
0.0106602
-0.00443138
-0.0124612
-0.0117915
0.00986001
0.0143927
-0.0066414
0.00667749
0.00130879
-0.00134489
0.00103989
-0.00847919
-0.00712548
-0.000147588
0.00370347
0.0035696
-0.0109429
0.00469543
0.00705797
-0.000810491
0.0128368
-0.0103441
0.00064159
-0.00313422
0.000586553
0.000220861
-0.00833926
0.00753185
0.000456322
-0.00239068
0.0117906
-0.00985623
-0.0287679
0.00315663
0.0031923
0.022419
-0.00258133
0.00766325
-0.00243101
-0.00265091
0.00383507
-0.00200507
-0.00818366
0.00635366
0.000926445
0.00592308
-0.00749742
0.000647898
-0.000114098
0.00696312
0.0023952
-0.00924423
-0.00138312
-0.000223294
-0.00294509
0.00455151
-0.00747879
0.00816956
-0.000307151
-0.000383623
0.000275423
-0.00738326
-0.00528609
0.00468377
0.00142178
-0.00081945
-0.0136225
-0.000862108
0.00662779
0.00785678
-0.00412172
-0.00175509
0.00350337
0.00237344
0.00611516
-0.0205159
0.00283156
0.0115691
-0.00316687
0.00636975
-0.00348024
0.000277367
0.00451795
-0.00351646
0.000448361
-0.00144985
0.000107776
-0.00866662
0.00855884
3.12555e-05
0.00700526
-0.00703652
0.00611163
-0.00119321
0.000806176
-0.0057246
-0.00377739
0.00539111
0.00178677
-0.00340048
-0.00261803
0.0111916
-0.00269229
-0.00588124
0.00534289
-0.00914682
-0.000321111
0.00412504
0.00601005
0.00632747
-0.0123375
0.00886066
-0.00996367
0.00256475
-0.00146174
0.000855017
-0.00159885
0.0115996
-0.0108558
0.000348608
-0.0018517
0.00827131
-0.00676822
0.0020416
0.0174878
0.00498473
-0.0245141
-0.0152075
0.0133605
0.00869148
-0.00684453
0.000699451
0.00543193
-0.00728721
0.00115583
0.00722954
0.00799075
-0.00259235
-0.0126279
0.0132037
-0.00802857
-0.00023982
-0.00493527
0.000588046
-0.00172701
-0.00542419
0.00656315
-0.00548712
3.06276e-05
0.00545649
0.00804134
0.000271803
0.000547514
0.0100377
0.000853995
-0.01532
0.00442823
-0.00809807
0.00176623
0.00142877
0.00490307
-0.00518101
0.00128518
0.000637186
0.00325865
0.00122349
0.000891161
-0.0105318
0.00841717
-0.0021428
-0.0124603
0.00794545
0.0066577
0.00504351
-0.0059793
-0.00389218
0.00482797
0.00811449
-6.13619e-05
-0.0081112
5.80711e-05
0.00617511
-0.00872819
-0.00300353
0.00555662
0.0159964
-0.00484389
-0.00249178
-0.00866077
0.00904145
-1.95772e-05
-0.00828827
-0.000733605
-0.00474437
0.00556531
0.0115537
-0.0123746
0.00996938
-0.00346824
-0.00959489
0.00309375
0.00186322
-0.00275438
0.0119044
-0.0110133
-0.0130195
0.0118458
0.0112564
-0.0100827
0.000599655
-0.0103003
0.00396353
0.00573709
0.0129844
-0.000676948
-0.000295206
-0.0120122
0.0091786
-0.00178346
0.00177633
-0.00917146
-0.010981
-0.0100307
0.0118581
0.00915356
-0.00202052
0.0057957
0.00157292
-0.0053481
-0.00440901
0.000240547
0.00854519
-0.00437673
-0.000978607
0.0111574
-0.0103655
0.000186767
-0.00986912
0.00916447
0.00178221
-0.00107756
-0.000326892
-0.00575246
0.0137267
0.00177582
-0.00588805
-0.00432524
0.00843747
-0.00466394
6.00444e-05
0.0046039
0.00143091
0.00650629
-0.00601899
-0.00191821
0.0105514
-0.0060802
-0.00162438
-0.00284682
0.000109905
-0.0032111
0.00310119
-0.00587246
-0.00158779
0.00221959
0.00524067
0.000644339
0.00354865
-0.00792657
0.00373358
0.0131204
-0.00118567
0.00512466
-0.0170594
0.000918098
-0.00120835
-0.0155729
0.0158631
0.00099026
-0.00449695
-0.00587839
0.00938509
0.000370536
0.0081082
-0.000437391
3.22843e-05
-0.00486355
0.00483126
0.00980346
-0.00365054
-0.00437711
-0.00593588
0.00494749
-0.00488406
0.0108336
-0.00902194
-0.00110871
-0.000702946
0.00108062
-0.00510603
0.00223321
0.0017922
-0.00877795
-0.00267194
0.0017958
0.00965408
0.00736094
-0.0119234
0.00788205
-0.00331958
-0.000310154
0.0108409
-0.010848
0.000317272
-1.16162e-05
0.0102997
-0.0102023
-8.57555e-05
-0.0137155
0.0109601
-0.00879859
0.0115539
0.0114245
-0.0110735
-0.000350963
-0.0106847
0.0142761
-0.00257361
-0.00101779
-0.00949545
0.00230331
-0.000730359
0.00792249
-0.0154491
0.00116615
0.00994712
0.00433584
0.00273344
-0.0037326
0.00207978
-0.00389204
0.00442358
0.00711843
-0.00764998
-0.0040915
-0.00183739
0.00234185
0.00358705
-0.00560541
0.00366159
-0.00702827
0.00897209
0.00168049
0.00013521
-0.0125004
-0.00563854
0.00562514
1.3398e-05
0.00616151
-0.00593692
-0.000224588
-0.00914514
-0.000595697
-0.00240704
0.00225367
-0.0120536
0.0140075
-0.00420758
0.00539736
0.00923931
-0.0117742
-0.00286248
0.0102694
-0.0111737
0.000318512
0.000585788
0.00563938
0.00143937
-0.00580539
-0.00127337
-0.00871776
-0.000467882
0.0114393
0.00510967
-0.000368046
-0.00622904
0.00148741
0.0057591
-0.00492869
0.00567857
-0.00650899
-0.00978039
0.00185623
0.0133215
-0.00334527
-0.00461267
0.0153375
-0.00737957
-0.00475007
-0.00522265
0.00125496
0.00139988
0.00376176
-0.00991171
-0.0067956
-0.000578841
0.0109361
-0.00356168
0.00104237
0.00170635
0.00598515
-0.00873387
-0.00315787
0.00772795
-0.00457008
0.00250659
-0.0121592
0.00442992
0.00721685
0.0050772
-0.0108942
-0.0101125
0.00012381
0.012598
-0.00260924
0.00176361
0.00151263
0.00472725
-0.00800348
0.00718443
-0.00721943
3.49998e-05
0.00256016
-0.000967658
0.00859325
-0.0101857
0.00896981
-0.00282968
0.00430436
-0.0104445
0.0170378
-0.00551285
0.0127033
-0.0242283
0.00270472
0.00503692
-0.00209182
-0.00564982
-0.00772337
0.00317669
0.00404563
0.000501052
0.00553242
-0.00416931
-0.000116261
-0.00124685
-0.00348545
-0.00439931
0.0128315
-0.00494674
-0.00619754
0.00806029
0.0032027
-0.00506545
0.00934481
-0.000509763
-0.00307594
-0.0141483
0.00935836
-0.000815512
-0.0135137
0.0124823
0.00580879
-0.00477735
0.00861544
-0.00972817
-0.00139912
0.00251185
0.00478325
-0.0087017
-0.00452065
-0.0050531
-0.00464071
0.00262404
0.00706977
-0.0072059
0.00224815
0.00713714
-0.00217939
0.00847179
-0.00805973
-0.00556054
0.00514848
5.27914e-05
-7.34062e-05
-0.00795381
0.00797442
0.000203286
-0.00700163
-0.000258457
0.0070568
-0.00200939
-0.0119115
0.001875
-0.0068934
0.00619607
-0.00117766
-0.00460506
-0.00193544
-0.000665412
-0.000115447
0.0114647
0.000129126
-0.027541
0.0193863
0.0140448
-0.00589006
-0.00824127
0.000566939
0.00027616
0.00739817
-0.00164846
0.0258551
-0.030447
0.00624038
0.00131411
0.00202684
-0.00454786
0.00120692
-0.0176437
0.00950421
0.00124592
0.00689353
-0.000194919
-0.0115959
-0.00167605
0.0134669
-0.00472451
0.0174598
-0.0121057
-0.000629572
0.00785885
0.0113863
-0.0105492
-0.00869597
-0.00928722
0.00887053
0.0109808
-0.0105642
0.00369654
0.00516404
-0.00643307
-0.00242751
0.00361349
-0.00242306
-0.00579548
-0.0185714
-0.000740215
0.0151533
0.00415833
0.0055517
0.000866441
-0.00324144
0.00561969
0.00755129
-0.00696138
-0.0062096
-0.00929033
0.00207057
0.0090468
-0.00182704
0.0010841
0.00296386
0.0102282
-0.010793
0.01063
0.0010321
-0.000869075
0.00677869
0.00532722
-0.00479327
-0.000187268
-0.001352
0.00633254
-0.007104
-0.00144085
0.0039755
-0.0136325
0.00578732
0.00386971
0.00040016
0.00739856
-0.0081827
0.000383985
-0.00281328
0.000544958
-0.00261808
0.0048864
0.0114391
-0.00818043
0.000354831
-0.00652277
-0.00511458
0.00687855
0.0047588
0.0244505
-0.0261854
0.00860483
-0.00686992
-0.00480165
0.00596566
0.00240258
-0.0035666
-0.0112397
0.0048487
0.00977167
-0.00338071
-0.00466553
0.00677091
0.0087091
-0.0108145
0.0130099
-0.00499087
-0.00861672
0.000597666
0.000224639
-0.00314205
0.00763953
-0.00472212
-0.00132709
0.00130966
-0.0100951
0.0094162
0.00302692
-0.0100817
-0.00236139
0.0118546
-0.00972229
-0.00260018
0.002439
0.0035969
-0.00855366
0.00251776
-0.00496963
-0.00902345
0.00805204
0.00594104
-0.00148934
-0.00387218
-0.00116126
0.00480195
-0.00509719
0.0109774
-0.0106822
0.00117299
-0.013313
0.01214
0.0044892
-0.00590128
0.00385108
0.00252537
0.00146809
0.00206826
-0.00606172
-0.000279215
-0.0112264
0.0115056
-0.00623171
0.0008274
-0.00202253
0.00742684
-0.000763178
0.00863668
-0.00784748
-2.60308e-05
-0.00579308
-0.00309196
0.00336118
0.00552387
-0.00214133
-0.00514109
-0.00472779
-0.00696198
0.00580571
0.00588406
0.000266513
-0.00713564
0.0121344
-0.00498803
-0.00064642
-0.00649998
0.00665463
-0.000665201
-0.00484637
-0.00114306
-0.00102805
0.00907109
-0.0113295
0.00328646
0.00585054
0.000225915
0.00284806
-0.00892452
-0.000217283
-0.00481071
0.00232521
0.00270278
-0.00339037
0.00440243
0.00845283
-0.00946489
-0.0118466
-0.00305051
-0.0032982
0.0108379
-0.0106952
0.000289306
0.00331883
0.00708702
0.000993749
-0.0036344
-0.00639279
0.00903344
-0.00477981
-0.00933078
0.00235505
0.0117555
-0.00424881
-0.00469548
0.00489005
0.00405425
-0.0110373
0.0106289
0.0112542
-0.0108458
-0.00152412
-0.00267361
-0.00804452
0.0122422
-0.011048
0.00107904
0.0112329
-0.001264
-0.00193018
0.00509474
-0.00316456
-0.00446196
0.00824748
-0.00620828
0.00242276
-0.000172088
0.0144188
-0.00539547
-0.00885129
-0.0052365
-0.00252593
0.0104699
-0.00270742
0.00165423
-0.0043412
0.00981552
-0.00712856
0.000466219
0.00660532
-0.00115713
-2.01766e-05
-0.0105117
0.0105092
2.26753e-05
0.0123612
-0.00219219
-0.0180684
0.00789937
-0.0114179
-0.00111564
0.0142523
-0.00171871
-0.00619326
0.00935852
0.000766132
-0.00393139
0.00556126
-0.00551672
-4.45407e-05
-0.00647285
0.000639966
-0.0055503
0.0113832
-0.00927838
0.012788
-0.0026314
-0.000878194
0.00579044
-0.00241533
-0.00698324
0.00360814
-0.0111938
0.0112654
-7.16155e-05
0.00924126
-0.0134107
0.00106915
0.00310034
-0.0103816
-0.00285157
0.0177811
-0.00454796
0.00777808
-0.000345169
-0.00161674
-0.00581618
-0.00439049
-0.00744127
0.0166337
-0.000764453
-0.0109309
0.00659814
0.0171683
-0.0191484
-0.00182506
0.00380514
0.00474494
0.00226384
-0.00524518
-0.0050767
0.00526857
-0.000191867
-0.0019546
0.0109623
-0.00071475
-0.00829295
-0.0024065
0.00285422
0.00961302
-0.0100607
0.00638145
0.0150328
-0.00872676
-0.0126875
0.0110395
-0.0132403
0.00420995
-0.0020091
0.00974297
0.000114746
-0.00985772
0.000166973
0.00950008
-0.00966706
0.010759
-0.0130017
0.011484
8.92849e-05
-7.68489e-05
0.00870587
-0.0087183
0.000173591
0.0153564
-0.0153131
-0.000216866
-0.00128243
-0.00382759
-0.00778414
0.0128942
-0.00478861
-0.0028317
0.000950837
0.00910799
-0.0157852
0.00572637
-0.00754314
-0.00197598
0.00808579
0.00143334
-0.00920628
0.0101522
-0.00270487
0.00175897
0.00140535
0.00731512
-0.00248911
-0.00623137
-0.00346367
0.000821471
0.00595703
-0.00331483
-1.59229e-05
0.00278049
-0.00352259
0.000758021
-0.00383507
0.00941301
-0.00545787
-0.000120069
0.00277593
-0.00883106
-0.00513864
7.27445e-05
-0.00823707
0.00816432
-0.00313348
-0.00300558
0.00139288
0.00474618
0.00456618
-0.00263398
-0.0019322
0.0114343
-0.0113732
-0.00230788
0.0022468
-0.00106291
-0.00695295
0.006433
0.00158286
-3.02902e-05
3.86907e-05
0.00632526
-0.00633366
0.00315752
-0.00259754
-0.0100395
0.00947954
0.00728561
-0.000186781
-0.00709883
-0.0106038
-0.00687347
0.0102242
0.00725309
0.00609028
0.0094721
-0.0163268
0.00583091
-0.00209175
0.00329063
-0.0070298
-0.00236316
0.00236728
-0.0131306
0.0131264
0.00359378
-0.00709645
-0.00689216
0.0103948
-0.000732409
-0.00162916
0.00764882
-0.00528724
0.00532453
-0.00654253
0.00237137
-0.00115338
0.00300978
-0.00499086
-0.00482392
0.006805
-0.0094374
0.0106178
-0.0028069
0.00162648
0.0109567
0.0140775
-0.0155082
-0.00952603
-0.00847399
0.00844407
2.9918e-05
-0.000990893
0.00993078
-0.0123588
0.00341895
0.000357213
-0.000586305
-0.00961977
0.00984886
0.00924039
0.000387898
-0.0106314
0.00100313
-0.00407522
-0.00688657
0.00866075
0.00230104
-0.00984348
0.0139393
-0.0049372
0.000841391
-0.00392624
-0.00483015
0.00286834
-0.000574162
-0.000108119
-0.00678075
0.00746303
-0.0222005
9.81425e-05
0.00194659
0.0201558
0.000875086
-0.00561816
-0.002908
0.00765107
0.0138666
-0.00114972
-0.00449611
-0.00822078
-0.00243443
-0.00532677
0.00100159
0.00675961
0.00400457
-1.15723e-05
-0.003993
0.00658775
0.00347283
-0.00219417
-0.00786642
0.00506102
-0.00399916
0.00992935
-0.0109912
0.000306377
0.0103915
-0.00342771
-0.00727014
0.00250194
0.00360229
0.00776239
-0.00493184
0.000364464
0.00456738
-0.00643956
0.000925529
0.00170172
0.00107613
-0.00886934
0.00609149
-0.00842211
0.0123334
0.00369865
0.0126654
-0.00266104
-0.013703
-0.00818447
0.00800733
-0.0126881
0.0128653
-0.00120767
-0.00606145
0.00211919
0.00514994
-0.00675024
0.0127603
0.00383881
-0.00445988
0.000996662
-0.000375599
-0.00418483
-0.0132747
0.00414716
0.0133124
0.00867409
-0.0086526
-9.6389e-05
7.49021e-05
0.00707908
-0.00830264
0.00176169
-0.000538132
0.0017946
0.00708587
-0.0126149
0.00373442
3.28785e-05
0.00604591
-0.00607879
0.00394502
-0.01011
0.00795963
-0.00381899
0.0102709
0.0086754
-0.0151274
0.00289549
-0.00299856
-0.0138408
0.0139439
-0.00416994
0.00688969
-0.01389
0.0111702
-0.009905
0.00788016
0.0103097
-0.00828488
-0.00616001
0.00843937
-0.00545372
0.00317436
-0.00133867
0.00583988
0.000950699
-0.00545191
0.00286801
-0.00418422
0.00431453
-0.00299832
0.00558952
0.00207844
0.0018404
-0.00950836
0.0154681
-0.010483
-0.00065904
-0.00432603
1.23164e-05
-0.00749231
0.00748
0.0047347
-0.00692163
-0.0212473
0.0234342
-0.000966191
-0.0102513
-0.00308656
0.014304
-0.000619374
-0.00468049
0.00529986
0.00143958
0.00680828
-0.00110831
-0.00713955
-0.0018867
-0.00682038
0.00550083
0.00320624
0.00544311
-0.00456143
-0.00800717
0.0135179
-0.0105391
0.00306124
0.00324397
-0.00630522
0.0103304
-1.04293e-05
-0.00118815
-0.00913181
-0.0020122
-0.00342447
0.00543667
0.00362878
0.0024121
0.0204874
-0.0246608
-0.00866628
0.0128396
0.00311633
0.00664193
-0.00507883
-0.00467942
-0.00708798
0.0136811
0.0090085
-0.0156016
0.00817265
0.00283363
-0.00108515
-0.00992113
0.0132575
-0.00884337
0.00570219
-0.0101163
-0.00758226
0.00348202
-0.00962749
0.0137277
-0.0122335
0.0218537
-0.00854734
-0.00107285
-0.000343909
-0.0051603
-0.00710958
0.0126138
0.00987123
0.00409291
-0.0115675
-0.0023966
0.00540556
-0.014417
0.00908347
-7.20452e-05
-0.0124496
-0.000469943
0.00812548
0.0047941
-0.00252014
0.00652551
0.00282337
-0.00682874
-0.00156431
0.00627508
0.00507254
-0.00978331
-0.0132841
0.00682535
-0.000597279
0.007056
0.00116477
-0.00350691
0.00697871
-0.00463657
0.00564696
-0.00283949
0.00201549
-0.00482296
0.0053713
0.001048
0.00053155
-0.00695086
-0.0078283
0.00840038
0.00311364
-0.00368572
-0.00187825
0.010012
0.000187559
-0.00832133
0.00811103
-0.00476255
-0.00312603
-0.000222445
0.00692749
4.38754e-05
-0.00697137
0.0050597
0.0039176
-0.000890164
-0.00808714
0.00239103
0.0062676
0.00530384
-0.0139625
3.27899e-05
-0.011326
0.0112932
-0.00592674
0.0228039
-0.00334413
-0.0135331
-8.88445e-05
0.0084934
-0.00840455
-0.000562901
-0.00608482
0.00109258
0.00555515
-0.0111637
0.00568998
0.00435177
0.00112192
0.00229025
0.00186437
-0.0130329
0.00887824
0.00658235
0.0103944
-0.0038839
-0.0130928
0.0100235
-0.00342671
-0.00959259
0.00299577
-0.0124564
0.00713302
0.0191044
-0.0137809
-3.17093e-05
0.00489625
-0.0048967
3.21634e-05
-0.00505971
0.00500861
5.10989e-05
-0.0126174
0.00017789
0.00535156
0.00144699
0.00306084
0.00839778
-0.0129056
0.00656874
-0.00781445
0.00504371
-0.003798
-0.00648891
0.00568391
-0.000215912
0.00102092
-0.00131537
-0.0106404
0.0135614
-0.00160565
-0.00478255
0.00230084
0.00757128
-0.00508957
0.0081581
-0.00314012
0.00118977
-0.00620775
-0.0053363
-0.000929232
0.00624524
2.02931e-05
-0.000946047
-4.97652e-05
0.00898875
-0.00799294
0.00109201
-0.000937484
0.00879182
-0.00894635
-0.00794937
0.0111086
-0.01166
0.00850074
4.3874e-05
-0.00998559
0.00994171
-0.00355823
0.000303621
0.00901031
-0.0057557
-0.006759
0.00790407
-0.0107818
0.00963672
-0.00694815
0.000530666
0.00209224
-0.00323186
0.00878763
0.000495555
-0.00605133
-0.00233418
0.00032483
-0.00392654
-0.00344605
-0.0112478
0.0112979
0.00339594
-0.00500803
-0.000596357
-0.00125857
0.00686296
-0.0171509
0.00578543
0.00172797
0.00963748
-0.00539305
0.0124752
-0.00623544
-0.000846668
0.00374323
0.00148083
-0.00755824
0.00738352
0.00748336
-0.0148669
0.0010494
0.0164045
-0.00379799
-0.0136559
-0.000210685
-0.000298953
-0.0073797
0.00788933
-0.00789647
0.0129508
-0.00521852
0.000164153
0.00744478
-0.00468274
-0.00674866
0.00398663
0.00190199
-0.000255462
0.00232849
0.0115478
0.00319196
-0.0166319
0.00189208
-0.00807988
-0.00101057
0.00263222
0.00645823
0.00296905
-0.00332595
-0.00447324
0.0137867
-0.00927732
0.00723999
-0.0117494
-0.00155261
0.00892094
-0.0154309
0.00806259
0.00526705
-0.00667913
-0.000674058
0.00208614
-0.00587189
-0.00204438
-0.000197264
0.00811354
-0.00436503
-0.00409734
0.00846237
0.00110526
-0.0118583
0.0104975
0.00025563
0.00445847
-0.00433262
-0.00449088
-0.00749813
0.00948738
-0.00179894
-0.000190312
0.0105564
0.00289739
-0.0113546
-0.00209912
-0.00410607
-0.00601387
-0.000704595
0.0108245
0.0068859
-0.0020959
0.00798357
-0.0127736
-0.00755418
-0.000395191
-0.00884271
0.00474537
0.00114735
-0.00997263
0.00319097
0.00563431
0.00294947
-0.010561
0.00578591
0.00182558
0.00160399
0.000398072
-0.00799799
0.00599593
0.00119024
0.0051173
-0.000354658
0.00902697
-0.00178359
-0.00688873
-0.00352727
-0.000387785
-0.00330124
0.0072163
-0.00209646
-0.00282361
0.00539883
-0.000478767
-0.00822502
-9.61614e-05
-0.0136863
0.00492955
0.00719244
0.0197228
-0.000184849
0.00272539
-0.0222633
-0.00877751
0.0135564
0.00277852
-0.00755737
-0.00248998
0.00134189
0.00849887
-0.00735077
0.00101947
0.00289208
-0.00223713
-0.00167441
-0.0148742
-0.00309099
0.0128172
0.00514801
0.000333585
0.00639646
-0.00128694
0.000211756
0.00315278
-0.00990832
0.00654379
-0.00606799
-1.95159e-05
0.00223738
0.00385013
-0.00857632
0.0106009
-0.00169096
0.00483749
-0.00436087
-0.00047662
-0.00708329
0.000981499
-0.00550237
0.0116042
-0.0032253
0.00485529
-0.00374482
0.00211483
-0.00694764
0.00782487
-0.00323282
0.0023556
0.00306523
-0.000507552
-0.00715488
0.0045972
-0.0031089
0.0194813
-0.0262159
-0.00274219
-0.0019137
0.00187396
0.00278194
0.00907533
-0.0141865
-0.00064141
0.00575255
-0.00378775
0.00282593
0.00487311
-0.00391129
-0.00114172
0.00599386
-0.00164275
-0.0032094
-0.0067357
0.00149368
0.00157606
0.00366596
-0.00387061
0.000331061
0.00353955
0.0086627
-0.00412299
-0.00439673
-0.000142985
0.000656865
0.00445813
-0.00676874
0.00165375
-0.00463657
-0.00561732
0.00572924
0.00452465
-0.00249743
0.00637254
-0.00543122
0.00155612
0.00224066
-0.00424043
0.00292207
-0.000922299
0.0082373
0.000209418
-0.00844672
0.00707402
-0.00873889
0.00433628
-0.00267141
-0.0111341
-0.00029911
0.0114332
0.00451775
-0.00374875
0.000877094
-0.00164609
-0.00035052
0.0078861
-0.0086197
0.00108413
-0.00390488
0.00488897
0.00125657
-0.00447089
0.00956729
0.00884288
-0.00743658
0.00734603
9.05555e-05
0.000165993
-0.0117213
0.0115553
0.0159087
0.00189836
-0.00335525
-0.0144518
0.00334577
-0.0130425
-0.0015934
0.0112901
0.00249814
0.00294994
0.00169503
-0.00714311
-0.00447596
-0.00444307
5.58502e-05
0.00886318
-0.00213974
0.00291253
-0.00524875
-0.00968857
0.00177079
0.0127107
-0.00479292
-0.0192236
0.0140818
0.00620042
-0.00105862
0.00848579
3.37432e-05
-0.00851953
-0.00494134
-0.00665447
0.00430258
0.00729323
-0.00481101
-0.00694837
0.00207082
-0.00697389
0.00378821
0.00437592
0.00283782
-0.00371119
-0.00678117
0.00765454
-0.00474176
1.96382e-06
0.0047398
-0.0111609
0.00454356
0.00461975
0.00199757
0.00278681
-0.00748426
-0.00227644
0.00948106
-0.00302534
-0.000222058
-0.00623366
-0.00646575
0.0107279
0.00632418
-0.0105863
-0.00194158
-0.00406262
0.00155312
0.00445108
-0.00269049
-0.00216425
0.00485474
-0.00472903
-0.00993685
-0.00455772
0.0022732
2.98974e-05
0.00458432
-0.00688741
0.00913831
-0.00663914
-0.0096003
0.00710113
-0.00339066
0.00122004
0.00682647
-0.00465585
0.00635686
-0.00447607
-0.00062853
-0.00125227
-0.00728748
0.0011875
0.00569116
0.00040882
-0.0045033
0.0103345
-0.0112445
0.00438633
0.000323429
0.00653478
0.0106725
-0.00854384
-0.0067064
0.0045777
-0.00845464
0.00179068
0.0158023
-0.00814567
-0.00538937
0.00877358
0.00476146
-0.000949774
0.00848784
-0.00322282
-0.00431525
0.000494779
-0.00520273
-0.00344921
0.00815716
0.00966633
-0.00637777
-0.000391628
-0.00289694
0.00301786
0.00223943
-0.00739703
-0.00203341
0.00230262
0.00567078
-0.00593999
-0.00171102
0.00887052
-0.0109438
0.00378427
-0.00544462
0.00131423
0.00131733
0.00281306
-0.0117186
0.0118813
-0.000162682
0.0084227
-0.00832549
-9.7209e-05
0.00336361
-0.0128695
-0.00496052
0.0144664
0.00283656
0.00536872
0.00127578
-0.000133315
0.00472117
-0.00458785
0.00810093
0.00718486
-0.0152858
-0.008411
0.00513518
0.00362932
-0.000353499
-0.00472285
0.00155682
0.00383869
-0.00067265
-0.0142465
0.00666998
0.00781919
-0.000242671
-0.00457345
-0.00510172
0.00493341
0.00747151
-0.00120725
-0.00477556
-0.00148869
-0.00776775
0.00839678
-0.00513232
0.00138826
-0.00883074
-0.000454391
0.00789686
-1.32296e-05
-0.00442104
0.00443427
0.0213084
0.000126662
0.00230817
-0.0237433
-0.000814663
-0.00160585
-0.0117993
0.0142199
0.00367977
-0.0049849
-0.00230577
0.00361091
0.00145837
0.011072
-0.00449118
-0.00803921
0.0119829
-0.0119679
3.93826e-06
-1.89557e-05
-0.00675228
-0.0060864
0.00951416
0.00332452
0.00393628
0.00296955
-0.00781099
0.000905164
4.29161e-05
0.0073173
-0.00746159
0.000101373
-0.0100311
0.00323375
0.00812475
-0.00132736
0.00764387
0.00461953
-0.0077365
-0.00452691
0.000168664
-0.00687803
0.00342741
-0.00176949
0.010325
-0.00550916
-0.000715074
-0.000856902
0.00708114
-0.00932151
0.000442436
0.00887907
0.0136154
0.00585738
-0.00439359
-0.0150792
-0.00887583
0.000178467
0.00886603
-0.000804427
-0.00209047
-0.00533635
0.00823124
-0.00100256
-0.00108553
-0.0028957
0.00498378
0.0022332
-0.0113767
0.00859103
0.000552435
0.00721455
-0.00110317
-0.0070435
0.000932115
-0.00870622
0.00180271
0.000686036
0.00621748
-0.00332385
0.00220116
-0.00459703
0.00571973
0.00189174
0.00123201
-0.0111908
0.00806702
0.000375578
-0.00761833
-0.000507709
0.00775046
0.00751381
0.00101932
-0.000162776
-0.00837035
-0.00900347
0.00208228
0.00814468
-0.00642739
-0.00849715
0.0149245
0.0125141
-0.00636219
0.00271255
-0.00886448
0.000990111
0.00696492
-0.00427526
-0.0101548
0.00187078
0.00360768
0.00467637
0.0125522
-0.0129323
0.00038019
-0.00769867
-0.00261647
0.00539192
0.00492323
-0.0100498
-0.00779924
0.00523479
0.0126142
0.0100969
-0.0105421
-0.00129282
0.00173801
-0.00147322
0.00491521
-0.0038738
0.000431805
-0.0127275
0.00417621
0.00291242
0.00563883
-0.0188717
0.0233713
0.00392469
-0.00842431
0.00846339
-0.018297
-0.000955857
0.0107895
-0.00753417
0.00959921
-0.017734
0.015669
-0.00779859
0.0171537
0.00170433
-0.0110595
0.00069291
0.00817189
-0.00194053
-0.00692427
0.0124032
-0.00931274
-0.000303132
-0.00278732
-0.00216574
-0.00207836
0.00317973
0.00106438
-0.0058453
-0.0121696
0.0104456
0.00756936
-0.00832604
0.0110897
0.00963951
0.00693232
-0.00509862
-0.00635132
0.00451762
0.00248401
-0.00321568
-0.00141892
0.00215059
0.00549814
-0.00544544
-0.00723283
0.00718012
-0.0022282
0.00639213
-0.000462643
-0.00370128
-0.00888214
-0.00145893
0.011034
-0.00668241
-0.00164504
0.0082627
6.47477e-05
0.00281893
-0.00629494
0.00347601
0.00221898
-0.00291993
0.0108512
-0.0101502
0.00880441
-0.012426
0.00184092
0.00178066
0.0055041
-0.00594289
0.000438794
-0.00854201
0.000215974
0.00760455
-0.00291306
-0.00734276
0.00265127
0.00240636
0.00192106
0.00842269
-0.0127501
0.0054019
-0.00586531
0.000463409
-6.3314e-05
0.0066037
-0.00746561
0.000925227
-0.00940166
-0.000884792
0.0125054
-0.00402786
-0.000685214
0.000929936
0.00378314
0.000556616
-0.00459601
0.00339364
0.000645753
0.00755391
-0.00722658
-0.00180055
0.000889083
0.0127987
-0.00809356
-0.0055942
-0.0043272
0.00912287
-0.00479567
-0.0117161
0.00448508
-0.0027228
0.00995381
0.00917458
-0.00830143
-0.0136006
-0.00457969
-0.00548109
0.0188317
-0.00877089
-0.013261
0.00841639
0.0120459
-0.00720121
-0.000246061
-0.0112438
0.0114899
0.017824
4.30171e-05
-0.0102881
-0.00757888
0.0103609
-0.006672
-0.000927762
-0.00276109
-0.00756977
0.00537322
-0.00133532
0.00353187
9.62497e-05
-0.00791646
0.00782021
-0.0056111
0.00577609
-0.000164986
-0.00411467
-0.00435528
-0.0111433
0.0196133
-0.0104712
0.00226636
-0.0011591
0.00936398
0.00248473
0.00403074
0.0110658
-0.0099686
-0.0082474
0.0071502
-0.00298788
-0.00617288
0.00679876
0.002362
-0.00620223
-0.0031469
0.00935655
-7.41795e-06
0.00214061
-0.00121786
-0.0059801
0.00505735
0.00684077
0.000319317
-0.00874077
0.00158069
0.00210203
-0.00146349
0.00231618
-0.00279487
0.00278332
-0.00230464
0.0056451
0.00548737
-0.00562123
-0.00551125
0.00279093
0.00659025
-0.00681459
-0.00256659
0.0058038
0.00251444
-0.00457501
0.00724076
-0.0087522
0.00183077
-0.0096697
0.00677505
0.00364877
-0.000754112
0.0114022
-0.00378064
-0.0119488
-0.00306704
0.00814262
0.004099
0.00795504
-0.00386119
-0.00673192
-0.00186915
-0.00106864
-0.0106779
0.00993765
0.000948305
-0.000208074
-0.000655768
0.0133534
-0.00137324
-0.0113244
-0.00871794
0.00177593
0.00387498
-0.00138904
-0.00875197
0.0024597
0.00768132
0.0079883
0.00110495
-2.76957e-05
-0.00906556
-0.0119755
-5.52817e-05
4.85642e-05
0.0119823
-0.00311821
0.00339748
-0.00558703
0.00530777
-0.00822436
0.0103838
-0.00106005
-0.00109934
0.0107958
-0.0100772
-0.00894302
-0.00792094
0.00713389
-0.00225467
0.00304172
0.00638643
-0.000287037
-0.00200828
-0.00409112
-0.012134
0.0116789
0.00576022
-0.00530514
0.00585778
0.00223097
-0.000744281
-0.00734447
0.00204326
0.00519151
-0.00648966
-0.000745112
-0.00384106
0.00386494
-2.38729e-05
-0.0022514
-0.00574482
0.00576802
0.00907311
-0.00901924
-5.38741e-05
-0.00490447
-0.00392511
0.00384467
-0.000518689
-0.00592489
-0.000675426
0.007119
-0.000685938
-0.00527107
0.00470716
0.00124984
0.00805105
-0.00914903
0.00109798
-0.0103737
0.0106347
0.00974284
-0.0100038
-0.00697847
0.00540542
-0.00367185
0.0052449
-0.00285615
0.00122071
0.00258502
-0.000949573
-0.000278606
0.0126474
-0.000133823
-0.0122349
-0.0065205
0.00316077
0.00321214
0.00372936
0.00474553
-0.00827754
-0.000197339
0.00035804
-0.0102859
-0.000407326
-0.00909532
0.00912046
-2.51484e-05
-0.00630611
0.00319583
-0.00693951
0.00206379
-0.00455651
0.000186944
0.00408927
0.00177592
0.0059793
0.000115428
-0.00511248
-0.000982242
0.00500781
-0.0124972
0.0100179
-0.00252858
0.00208551
-0.00287224
0.0106353
-0.00984852
0.012946
0.00378326
-0.0019894
-0.0147398
-0.0032898
-0.00537928
-0.00174811
0.0104172
0.00391822
0.0163788
-0.0147547
-0.00554231
0.00189348
0.0119399
-0.0115354
-0.002298
-0.00404565
0.000530037
0.00829712
-0.00478151
-0.00145175
0.0116526
-0.00628259
0.00844184
-0.00667908
-0.00259999
0.00083723
0.00276594
0.00714963
-0.00991557
0.00669408
0.00148567
-0.000890762
-0.00728898
-0.00615239
0.004918
0.000493287
0.000741102
-0.000581022
-0.00876509
0.000517352
0.00882876
-0.00641627
-0.00081257
-0.000254347
0.00748319
0.0036892
-0.00816971
8.36861e-05
0.00321016
0.00487586
7.00266e-05
0.00529833
-0.00536835
0.000671358
0.00941168
-0.0240089
0.0139258
0.00270911
-0.00683104
0.00648965
-0.00236773
0.00388654
0.00443522
-0.00307168
-0.00525008
3.4522e-05
-0.00476977
0.00473525
-0.00259778
-0.00186211
0.0105355
-0.00607557
-0.0033467
0.0111606
-0.00960942
0.00179556
0.0116512
-0.00809878
-0.0078139
0.00426148
-0.00479133
0.00327987
0.00149087
2.05967e-05
-0.000717786
0.00379134
-0.00201201
-0.00106154
0.0125754
-0.00980943
0.00582213
-0.000672997
-0.00953259
0.00438345
-0.00265819
0.0024872
0.00297894
-0.00280795