/*--------------------------------*- C++ -*----------------------------------*\
  =========                 |
  \\      /  F ield         | OpenFOAM: The Open Source CFD Toolbox
   \\    /   O peration     | Website:  https://openfoam.org
    \\  /    A nd           | Version:  10
     \\/     M anipulation  |
\*---------------------------------------------------------------------------*/
FoamFile
{
    format      ascii;
    class       volScalarField;
    location    "3.1";
    object      SgT;
}
// * * * * * * * * * * * * * * * * * * * * * * * * * * * * * * * * * * * * * //

dimensions      [1 -1 -3 -1 0 0 0];

internalField   nonuniform List<scalar> 
111485
(
1.20845e-16
4.77551e-07
1.15403e-05
2.35904e-17
6.3409e-05
8.87725e-18
5.72733e-06
1.07094e-07
1.64619e-06
8.74242e-07
4.10491e-06
1.40535e-05
1.95677e-06
5.25136e-08
4.11604e-06
3.1622e-06
2.21202e-16
0.00282531
6.11749e-07
6.93723e-16
2.36214e-16
9.85427e-18
3.77032e-06
3.63722e-06
6.87009e-06
2.64728e-16
4.89359e-05
1.7356e-15
2.14869e-05
1.91679e-17
5.83724e-05
6.76516e-16
1.87909e-15
7.77901e-18
1.0118e-05
3.91475e-17
1.4148e-05
2.90869e-16
8.50623e-11
1.06645e-05
1.2307e-17
8.51031e-05
7.23674e-06
1.45304e-06
3.17321e-08
1.19682e-16
3.31181e-05
4.58802e-07
5.88993e-05
1.32758e-16
3.71724e-16
1.30572e-15
3.33995e-16
4.83881e-05
1.73131e-16
6.99277e-13
1.12593e-06
3.00449e-18
2.29009e-08
1.90019e-06
9.1869e-06
1.77589e-16
1.94275e-08
0.000124518
8.22036e-16
2.60046e-12
0.000361408
3.33953e-06
1.0341e-08
1.85297e-07
1.13407e-08
8.03391e-11
2.76473e-16
8.13398e-09
8.19439e-17
1.76376e-16
1.97902e-17
4.71933e-05
6.98641e-17
5.06087e-15
3.24865e-08
3.39544e-05
4.5995e-17
6.05811e-17
3.75189e-09
9.88186e-07
5.33539e-13
2.53e-05
5.61373e-08
1.29352e-16
1.09966e-06
1.46462e-05
8.67963e-09
4.44837e-17
6.98575e-05
4.35039e-16
1.42661e-16
1.4157e-06
8.59289e-12
2.17276e-06
2.45954e-16
2.22238e-05
8.62296e-18
2.70263e-05
6.32599e-08
6.52628e-16
4.77137e-18
2.66276e-15
3.29266e-06
1.05746e-10
1.29303e-15
2.74084e-11
2.55603e-06
1.09417e-06
9.14255e-17
4.39085e-18
6.06479e-17
1.43522e-17
4.67729e-08
4.57456e-17
2.38489e-16
2.1541e-15
6.8782e-18
9.6536e-19
2.46826e-06
2.17809e-09
8.07241e-18
1.25818e-16
4.12626e-17
1.48274e-07
1.79008e-06
3.14633e-05
3.82937e-18
4.45382e-15
1.47637e-16
4.09166e-06
3.57222e-17
1.68639e-15
4.84439e-07
6.77929e-07
1.89133e-07
3.11131e-07
5.05802e-07
1.13544e-06
5.60823e-06
4.49528e-17
1.07379e-17
1.04198e-17
3.86318e-17
2.64792e-06
1.05688e-06
2.87758e-16
7.38e-11
2.82593e-15
5.96031e-10
7.29748e-07
8.64194e-07
4.21157e-06
1.20261e-10
2.84255e-17
1.12276e-16
1.67525e-06
9.94944e-06
3.25581e-09
3.068e-10
6.39145e-16
5.5174e-06
3.93804e-18
7.58244e-09
6.32315e-08
9.07724e-18
1.09686e-16
5.06939e-08
2.98108e-19
7.50291e-16
4.59301e-16
9.80554e-18
1.3412e-16
3.88749e-16
1.21141e-15
9.1342e-16
2.29812e-16
1.42824e-06
1.08833e-06
6.0007e-07
1.051e-16
8.08076e-06
3.16336e-16
1.30289e-07
1.08488e-16
1.64675e-16
2.26041e-16
6.74253e-17
3.05823e-16
1.01638e-05
2.36e-05
1.52321e-11
1.55286e-16
1.04405e-16
8.39179e-07
3.78318e-07
5.57567e-08
1.39198e-05
3.18962e-16
1.64615e-16
4.26944e-17
2.35384e-05
7.70281e-17
3.27093e-07
9.93283e-06
1.58892e-06
2.68633e-16
2.12589e-16
4.67412e-16
1.24277e-16
7.95545e-15
0.000143711
8.22577e-19
3.89993e-16
1.20414e-15
0.00013936
3.34824e-17
7.79787e-16
1.83998e-05
6.20457e-16
1.78403e-17
1.27116e-18
0.0001854
4.93958e-10
7.63593e-16
2.29076e-16
3.85931e-16
8.39014e-16
9.11108e-11
4.79541e-17
8.9172e-16
1.71888e-08
4.52962e-17
3.31401e-08
9.07374e-16
1.37478e-15
5.68035e-16
5.58454e-16
8.3807e-18
3.18981e-10
2.14736e-16
4.67958e-17
1.00775e-16
3.44854e-05
5.28518e-11
5.27104e-16
8.56574e-16
7.65895e-16
1.59482e-16
3.88675e-15
1.8112e-07
1.42049e-16
1.94329e-15
4.3602e-08
1.69141e-16
1.6092e-15
1.14238e-15
9.15885e-16
1.16414e-17
1.51297e-16
4.27782e-18
1.07184e-16
1.56732e-16
2.32519e-11
3.22777e-05
4.3995e-09
1.67117e-09
4.50333e-05
2.54453e-09
1.86317e-09
8.42947e-07
2.33521e-15
5.40422e-16
1.12816e-16
6.60777e-17
2.78694e-10
2.45198e-15
2.89691e-05
1.35526e-15
2.18268e-17
1.49571e-09
7.617e-07
1.03866e-09
9.52688e-07
4.75325e-09
8.19648e-10
4.36941e-09
2.82725e-06
2.91228e-18
1.14024e-06
4.6144e-18
4.4522e-10
4.66338e-16
0.00029197
8.04172e-05
1.51263e-06
5.29714e-16
1.4486e-17
3.1257e-14
5.4788e-15
4.52485e-16
8.04546e-17
6.47077e-15
2.19897e-16
7.02861e-15
1.41983e-06
6.12875e-07
7.10112e-06
6.42665e-16
6.94875e-18
1.62388e-16
3.87011e-14
6.2074e-16
1.30918e-08
0.00022447
5.59807e-10
6.65434e-19
1.68021e-16
6.55193e-17
3.82552e-15
5.5723e-13
1.00365e-05
6.44374e-19
9.53055e-13
4.45854e-15
5.88942e-16
9.37154e-05
1.25735e-12
1.30802e-05
7.4899e-13
1.24382e-15
2.42691e-15
1.79363e-16
4.57398e-13
5.45965e-16
7.0961e-06
1.37722e-17
3.95049e-13
2.94199e-07
9.19713e-07
2.66062e-15
8.61815e-08
8.9803e-06
1.09135e-17
1.46162e-05
2.28015e-12
7.94642e-06
3.30249e-05
8.04756e-06
3.29648e-17
2.87945e-16
6.92627e-18
7.63708e-17
6.2057e-07
1.81826e-15
4.93505e-05
2.13338e-05
1.2914e-17
1.59564e-05
1.42606e-17
4.61894e-16
7.08815e-06
2.70612e-17
2.506e-05
1.43064e-16
1.82536e-18
1.43479e-06
2.23809e-19
2.18108e-15
9.44026e-07
1.06208e-17
6.42233e-10
6.24038e-12
8.71296e-16
7.69127e-12
1.26699e-05
2.48209e-12
3.79138e-07
1.40271e-16
8.87211e-16
2.89093e-15
6.76192e-17
1.21715e-06
6.73118e-18
6.80719e-06
0.000156345
1.14804e-17
8.39355e-18
2.47825e-13
5.78228e-08
3.68325e-16
2.47382e-05
3.25854e-17
5.37267e-05
3.34039e-05
5.97825e-20
8.49075e-07
2.38496e-06
1.07465e-16
1.04007e-16
2.36915e-15
8.94902e-06
1.12684e-16
1.25392e-17
2.8926e-11
1.99971e-16
1.45064e-05
1.10638e-17
6.30019e-17
2.2222e-05
2.10166e-09
1.69237e-05
2.66908e-06
4.95299e-18
2.02e-15
1.00832e-06
1.34718e-16
1.19903e-07
1.10993e-05
0.000135321
0.00105539
8.12375e-17
4.64108e-16
3.01882e-07
5.09165e-16
3.92901e-05
4.06593e-05
8.12902e-19
1.51832e-11
1.04569e-07
1.86064e-15
2.26798e-05
3.34306e-05
6.34082e-16
3.21302e-17
1.74737e-16
2.70849e-05
2.42073e-16
5.11667e-10
1.08009e-15
9.76901e-14
1.11852e-17
1.27201e-08
9.41103e-16
5.98032e-18
9.62934e-06
7.60702e-08
1.06488e-15
1.11054e-18
1.57545e-15
3.65538e-16
5.04853e-06
1.35815e-15
5.14558e-06
2.8928e-06
3.41783e-06
8.70043e-18
4.06782e-06
3.44981e-16
8.46213e-06
1.73772e-16
1.36711e-16
1.9959e-16
4.0532e-05
1.02727e-17
3.13639e-16
3.66087e-10
6.19452e-17
3.76662e-17
8.7479e-07
1.34916e-18
2.3877e-15
3.65701e-18
3.10356e-17
1.45214e-15
3.66637e-17
3.02631e-17
8.41363e-06
2.12851e-17
3.34337e-07
2.3589e-06
1.29499e-06
2.83909e-16
5.70472e-07
5.7212e-17
1.96522e-17
2.24069e-06
1.33274e-06
2.73565e-05
2.46311e-05
3.76699e-16
2.57211e-06
7.417e-05
4.58403e-16
3.53147e-16
2.86899e-06
3.57771e-17
7.94441e-17
3.93971e-15
3.59226e-06
9.31231e-17
7.57179e-05
3.31867e-15
1.18717e-15
2.51988e-07
6.00263e-12
1.21836e-17
1.88537e-15
1.62515e-17
9.72445e-05
5.07056e-05
2.21397e-17
4.14149e-18
2.07672e-15
1.87556e-18
2.3027e-13
6.63738e-05
1.47273e-17
1.2212e-17
2.31594e-06
7.15019e-18
3.27643e-05
8.51458e-17
4.47986e-07
1.8626e-16
5.85386e-07
1.50995e-09
4.50508e-14
3.56428e-16
2.96322e-17
1.1517e-16
6.27494e-16
8.73682e-18
1.55636e-05
2.10063e-17
3.65872e-08
5.49841e-16
1.59405e-06
4.7747e-16
8.01884e-05
3.59323e-16
1.22995e-15
1.90726e-05
2.73311e-06
1.48877e-06
3.85437e-06
5.38004e-06
2.26567e-05
7.81789e-18
1.94458e-05
6.36337e-06
1.17022e-17
5.54998e-11
3.85582e-05
1.23211e-05
1.63459e-15
6.30979e-06
2.28615e-06
1.25161e-06
1.46116e-06
2.06934e-13
1.52101e-05
3.08976e-05
2.48109e-07
2.67461e-05
2.71389e-15
1.00515e-06
6.44036e-16
1.73894e-12
0.000760349
1.25119e-16
5.79319e-07
8.99514e-18
3.91593e-15
6.79794e-16
3.89201e-06
1.19086e-10
1.22706e-08
5.30691e-15
1.72989e-05
1.82193e-05
3.24808e-17
1.38177e-13
1.01313e-05
9.48945e-16
3.8902e-17
1.23839e-17
2.05101e-16
1.72767e-05
2.18999e-18
2.43393e-17
1.04624e-05
4.77964e-16
2.29705e-16
1.19481e-05
1.03786e-15
3.29964e-16
3.33606e-16
9.87641e-17
6.00353e-05
2.67567e-17
3.86588e-17
7.23787e-15
1.26857e-15
7.27322e-16
3.62555e-05
3.60718e-16
7.69895e-17
9.72144e-05
2.32428e-06
2.96558e-05
3.02707e-05
1.40094e-06
4.05975e-08
3.03816e-17
7.35547e-05
2.2067e-05
1.16667e-16
6.64224e-12
5.17512e-05
5.22032e-06
3.97767e-16
3.18811e-05
3.1784e-05
5.82245e-17
1.71392e-05
2.75173e-09
5.54764e-16
3.40731e-05
2.92052e-07
2.72325e-17
3.58318e-16
4.61237e-05
2.00353e-06
1.76669e-05
2.04891e-05
2.11422e-16
4.84679e-15
9.03505e-06
2.71893e-07
9.51789e-15
1.61058e-05
1.60487e-05
5.52699e-16
2.93098e-17
1.01962e-15
4.11651e-17
8.34067e-17
7.02798e-19
1.23198e-16
6.37527e-09
1.39923e-15
3.55511e-14
2.51609e-16
6.27389e-17
2.81838e-08
4.31174e-05
7.9542e-16
4.20774e-05
2.56627e-17
7.50363e-16
4.05978e-16
4.58971e-05
5.87742e-07
1.95192e-15
1.03582e-17
2.71184e-17
5.95712e-19
0.000309132
1.44363e-15
3.20583e-15
1.8619e-06
3.67949e-09
7.28472e-18
4.0714e-05
6.70181e-06
1.90549e-15
8.5331e-18
2.02022e-17
3.63015e-11
1.28949e-16
2.7467e-15
2.68378e-17
1.18517e-15
2.68093e-16
2.81407e-17
1.00387e-15
6.08673e-18
4.7619e-05
4.01617e-05
3.46169e-17
0.00493847
0.000182948
2.73478e-15
2.10069e-17
4.15874e-16
6.3246e-05
2.59754e-07
3.21458e-16
7.22604e-09
0.000171182
3.66468e-06
5.43543e-16
3.1548e-15
4.77494e-05
1.88398e-06
2.68047e-18
8.65064e-17
1.69627e-17
2.33274e-17
2.36091e-17
4.48321e-17
2.37661e-05
2.64284e-16
7.29322e-17
3.18356e-16
1.03196e-05
9.63828e-16
3.02704e-16
1.69929e-17
0.000127043
5.72791e-16
4.62982e-16
6.99571e-16
5.14366e-17
7.20875e-16
1.11363e-16
2.96347e-06
3.00277e-16
3.74727e-17
4.17628e-17
1.26436e-16
3.66448e-17
6.42562e-19
8.5025e-06
1.53563e-17
8.26077e-18
1.28662e-06
1.52019e-16
3.84292e-15
1.41041e-06
4.32755e-16
5.56605e-16
0.000937611
1.88934e-15
3.49087e-05
3.21532e-07
5.95743e-05
1.58682e-13
7.2108e-15
2.93393e-15
9.44301e-05
2.60514e-16
1.49063e-16
1.00766e-12
0.00079732
6.54858e-18
3.74851e-18
3.75355e-06
3.15546e-06
1.59384e-06
7.40872e-16
4.01697e-16
1.79709e-17
1.49217e-15
3.91692e-15
1.82607e-17
9.6959e-16
1.46076e-07
5.93236e-16
6.59373e-16
2.45123e-17
5.07515e-17
1.32929e-16
2.9003e-16
9.27099e-16
8.20167e-17
2.07209e-16
6.25746e-08
6.47034e-17
8.48713e-18
1.59625e-16
7.07524e-18
3.58231e-16
5.29534e-16
7.9628e-18
8.14878e-13
1.28357e-15
2.98655e-17
3.39797e-15
6.32895e-17
5.55727e-09
6.95165e-16
4.64768e-17
1.46651e-06
1.3696e-08
1.14019e-09
7.90082e-08
9.0102e-16
3.13151e-17
8.523e-09
1.13164e-05
3.4311e-07
2.44243e-16
1.70089e-11
7.2774e-17
1.20164e-15
1.33633e-16
4.95675e-07
2.30935e-09
3.12607e-08
1.60729e-16
2.63788e-06
5.06593e-17
3.68611e-17
1.60051e-17
7.95879e-17
4.73261e-16
5.98006e-16
4.96606e-18
1.13629e-16
6.62605e-05
1.88198e-15
5.53149e-16
2.05265e-06
3.19265e-17
2.71942e-16
1.37292e-15
3.47129e-16
3.89077e-16
4.35604e-16
1.88787e-09
1.62048e-16
3.79696e-16
2.13508e-06
2.61381e-08
2.08768e-06
3.3747e-08
2.0831e-08
4.82871e-18
1.89127e-17
1.126e-05
8.85043e-17
1.7414e-05
3.12037e-07
1.53519e-07
9.17128e-11
5.41846e-11
1.38849e-09
2.81788e-17
3.8366e-15
1.29624e-16
2.90796e-16
5.91979e-07
2.19025e-06
3.18908e-16
3.60552e-16
5.95346e-10
1.33398e-13
6.23799e-18
3.86175e-09
3.27912e-17
4.70422e-18
1.76191e-16
1.27268e-16
2.47112e-16
9.45452e-17
4.53495e-07
2.10322e-16
2.37507e-17
2.69424e-16
7.21859e-09
5.1394e-08
5.28229e-07
8.92269e-16
4.54668e-18
5.56022e-17
1.91167e-07
1.19551e-18
1.23286e-17
4.62097e-16
2.07804e-05
1.10398e-13
1.83762e-16
8.08833e-16
5.8318e-16
8.93704e-17
5.84193e-18
2.7568e-17
7.87899e-06
4.51701e-17
4.84424e-11
9.09465e-06
5.70343e-19
2.50443e-16
1.66292e-17
1.15623e-08
1.56811e-16
2.66414e-16
1.75067e-18
4.89645e-09
3.46978e-18
4.93745e-06
1.28395e-09
6.22323e-12
3.44145e-17
6.01808e-08
2.89801e-06
5.30492e-06
7.98683e-16
5.68148e-09
8.15082e-06
5.51382e-16
1.08176e-16
1.21361e-15
7.30566e-16
1.89014e-15
2.20206e-07
3.75883e-06
1.49555e-10
1.72435e-18
6.09422e-16
4.20879e-16
1.26354e-15
1.09221e-15
2.28828e-18
1.04932e-08
7.01571e-18
2.67645e-16
2.27779e-09
1.6414e-13
8.11174e-17
3.7938e-06
1.82746e-15
1.07435e-06
3.13449e-15
3.39668e-17
1.13079e-17
2.87914e-16
1.21768e-15
3.0682e-09
0.00040013
5.75187e-18
3.40562e-16
2.17169e-15
1.34249e-17
2.0209e-15
7.52018e-17
5.43374e-05
4.20217e-09
8.11796e-06
3.77585e-16
5.08672e-09
2.6611e-08
3.97029e-15
6.01822e-08
4.08034e-17
2.75244e-06
2.86147e-05
2.02289e-07
1.55029e-06
2.79411e-07
6.68415e-17
1.19606e-17
4.0761e-17
1.29086e-08
2.02267e-18
5.04459e-06
1.93217e-17
0.000210568
2.46635e-16
9.62986e-06
2.96743e-07
1.41941e-16
8.57851e-18
2.46532e-16
4.3054e-17
3.24317e-05
5.17198e-16
4.07677e-16
7.38548e-15
6.9815e-06
1.38674e-15
1.59754e-15
2.94157e-15
1.91422e-15
9.22375e-17
7.29026e-18
2.3406e-05
4.30545e-07
2.76927e-16
1.18372e-16
2.53086e-10
2.65132e-16
2.75496e-06
6.64837e-16
4.6495e-16
2.64918e-06
2.54798e-16
1.16407e-17
2.63814e-17
2.75999e-05
3.68446e-16
1.23055e-10
2.21472e-09
1.07017e-06
1.53332e-05
2.98417e-05
1.21882e-09
7.92239e-17
5.55887e-07
1.00382e-15
3.05913e-08
4.22985e-16
4.23526e-18
2.26708e-16
3.1475e-17
1.84431e-17
6.57207e-17
6.17475e-06
6.257e-06
9.44026e-17
1.04601e-15
3.28439e-15
4.40835e-07
1.53862e-08
9.67849e-17
4.16995e-08
1.93378e-07
9.09837e-17
9.51441e-16
8.00953e-17
6.55625e-09
1.45202e-05
8.03214e-19
4.66701e-16
1.32728e-18
5.80134e-17
3.60191e-08
3.929e-17
0.000121648
4.79981e-18
2.08741e-07
9.21256e-07
2.91818e-18
6.22204e-07
4.99636e-18
6.60191e-17
2.31265e-06
3.78498e-11
8.69679e-06
6.15378e-18
8.00368e-17
1.09629e-16
1.26426e-07
6.70812e-16
1.54767e-16
1.084e-15
6.16752e-10
8.08505e-16
1.16942e-08
6.15801e-16
4.71943e-16
2.41183e-17
4.02922e-15
1.25985e-17
2.49194e-05
1.1334e-06
2.1449e-17
6.78265e-09
1.56322e-17
2.02603e-17
6.27207e-15
4.15598e-16
2.96448e-09
2.58584e-07
1.12448e-15
2.19233e-07
1.57498e-13
2.97663e-06
1.38567e-18
1.58245e-13
7.59954e-13
8.0107e-08
1.53532e-06
1.46298e-12
1.04471e-10
7.30391e-17
2.56534e-05
8.03802e-16
3.02787e-16
2.42981e-08
0.000100066
8.4233e-11
9.25247e-18
3.96323e-18
7.48357e-10
3.72555e-16
2.56151e-17
7.60068e-09
8.08384e-17
5.01295e-17
7.16544e-11
1.13229e-07
9.13414e-08
2.45112e-10
7.28316e-16
1.36787e-16
4.43691e-17
1.09077e-08
1.1992e-10
4.68791e-17
4.16499e-16
1.45212e-05
5.07139e-17
2.7253e-16
1.53257e-15
1.81633e-15
1.35936e-15
0.00308512
6.30596e-17
1.50745e-05
1.02576e-15
1.72607e-05
2.17912e-17
6.51872e-16
2.31791e-15
8.94808e-16
1.15393e-17
8.35592e-17
2.98343e-06
2.10165e-17
1.19017e-17
7.02349e-16
3.39927e-16
7.71019e-17
1.22928e-17
2.11784e-11
5.64719e-17
1.26767e-12
2.29412e-06
6.28022e-17
1.82026e-06
3.70518e-17
4.32559e-07
2.15502e-09
5.52087e-17
2.00963e-15
1.48973e-16
6.10097e-16
7.09841e-06
9.11991e-09
7.99212e-17
1.16329e-09
2.34628e-15
7.65081e-16
2.28518e-15
1.7634e-15
6.39122e-16
8.88415e-18
5.28277e-17
1.14969e-16
1.45595e-15
4.65838e-17
7.1797e-17
5.41863e-16
1.32491e-10
3.18414e-15
4.11344e-18
1.3404e-16
7.10449e-07
2.14464e-18
1.24617e-07
3.39347e-16
2.71565e-16
5.43901e-17
1.67114e-16
2.93363e-07
2.03621e-16
1.00136e-07
4.22234e-16
5.94202e-17
4.23234e-16
5.5184e-07
7.12902e-16
1.1178e-07
0.000264964
7.03073e-11
3.8016e-17
9.91599e-15
6.92323e-05
6.33962e-16
2.99092e-11
1.52693e-05
1.61763e-17
6.80755e-13
2.60582e-17
1.55634e-16
1.52458e-05
1.38473e-05
1.18495e-16
2.5114e-16
2.68876e-17
4.59175e-16
9.57669e-17
8.49756e-17
1.90835e-17
7.28814e-19
3.68744e-05
3.33907e-17
1.17113e-17
6.72723e-06
5.38536e-16
5.6281e-09
2.15286e-16
4.42803e-17
5.03656e-18
4.30336e-06
6.85432e-06
2.87272e-16
2.78935e-06
4.3212e-15
4.94468e-06
8.66132e-17
1.76445e-16
8.04289e-06
4.49538e-17
3.87669e-08
1.13234e-05
2.44623e-16
2.58336e-17
2.53501e-05
4.0791e-14
4.1293e-05
9.14464e-17
0.000309824
1.44013e-16
6.30491e-16
8.39239e-17
4.39827e-06
1.56838e-15
3.34547e-17
3.34818e-07
5.3172e-16
2.7818e-07
2.71715e-15
6.02223e-16
2.09691e-16
1.93669e-10
1.15179e-06
4.40596e-19
1.23177e-17
2.62942e-05
9.14239e-07
1.00553e-16
1.26074e-07
9.01477e-18
2.96315e-16
2.76929e-09
5.84869e-06
2.2583e-17
6.33359e-17
2.73538e-18
2.37726e-17
1.61678e-17
2.84108e-17
2.16226e-16
6.96434e-18
2.69558e-17
1.49991e-16
2.793e-17
1.09727e-17
9.23151e-17
2.69361e-17
4.7327e-17
3.06618e-17
8.35418e-17
4.32384e-18
2.67283e-17
5.06673e-17
1.7362e-18
9.16622e-18
1.54144e-05
5.21217e-17
5.63828e-17
1.92715e-17
2.01456e-08
1.19777e-17
8.70188e-16
0.00027794
1.19399e-15
2.20534e-17
1.8264e-08
4.70829e-13
3.34768e-17
6.8572e-06
2.66232e-08
1.15952e-17
1.099e-06
1.8625e-06
1.3885e-15
1.53765e-05
3.44386e-08
2.31012e-08
1.4774e-08
1.36436e-16
2.1929e-15
3.5295e-16
1.11948e-13
1.26402e-12
2.24828e-08
2.94897e-18
6.92167e-11
2.02945e-06
1.00773e-08
5.33614e-16
1.97851e-15
2.4677e-08
6.50677e-15
1.21151e-08
1.22691e-16
3.5753e-07
3.38806e-10
1.96187e-06
2.77004e-10
1.45529e-18
6.06395e-18
2.1375e-18
2.01327e-16
5.54485e-18
4.02584e-13
7.29236e-10
1.44699e-18
2.96912e-17
3.09358e-16
4.61719e-17
9.66015e-17
1.58838e-16
9.56669e-17
1.18583e-15
2.02595e-10
1.63823e-07
3.287e-10
8.41229e-06
1.59963e-16
2.4145e-15
3.29718e-05
3.58002e-09
5.91238e-17
3.42158e-17
8.8631e-06
6.51907e-17
1.17527e-17
1.9739e-10
3.55856e-10
7.11749e-10
9.75094e-06
2.79392e-05
2.43841e-16
4.72192e-16
2.51634e-08
3.3213e-16
3.5917e-17
3.37914e-07
1.24624e-15
8.29889e-17
3.60043e-05
0.00127457
6.50641e-06
1.76662e-15
5.22873e-17
7.37551e-06
3.09184e-07
9.9398e-17
1.15348e-12
3.27899e-06
4.02171e-17
2.21344e-09
2.73698e-12
2.26695e-16
3.2786e-16
3.65367e-05
5.50013e-17
4.35481e-13
3.54402e-15
2.39626e-07
5.38862e-09
2.71242e-16
3.74163e-16
2.2311e-17
8.43289e-16
2.64055e-16
6.85007e-17
3.99995e-16
0.000938993
1.22541e-17
7.64177e-17
1.00766e-08
4.83339e-13
4.11491e-07
8.57113e-15
1.99821e-12
5.98979e-16
2.003e-12
4.92273e-16
8.65265e-16
8.75939e-16
3.65383e-05
2.67906e-16
2.83743e-11
3.2248e-16
6.40586e-17
5.34838e-16
2.21214e-05
2.99055e-07
1.80442e-17
1.44215e-16
6.12751e-05
6.4236e-08
2.82192e-16
1.433e-17
1.24925e-15
3.33043e-16
7.87926e-13
4.1761e-19
2.52467e-07
1.3329e-05
1.22668e-06
3.46665e-15
7.44876e-16
9.27785e-16
1.43075e-15
5.34892e-16
9.11331e-16
1.21607e-15
1.34833e-12
2.81828e-08
3.69987e-16
8.49963e-06
3.21519e-16
1.08924e-18
8.21005e-17
4.76407e-16
5.85417e-15
9.10117e-12
3.90874e-09
2.39466e-07
2.33356e-08
3.56e-05
6.19301e-16
1.60727e-16
3.2606e-15
3.28517e-16
6.33068e-17
6.22039e-18
4.28512e-11
9.04359e-09
1.34245e-09
0.00123439
4.75338e-05
1.29117e-05
2.36176e-10
5.31144e-05
1.48872e-16
3.94302e-16
1.97556e-12
2.20514e-15
8.44589e-15
5.50292e-06
2.13742e-17
4.41345e-16
3.97199e-16
1.43353e-07
4.70421e-13
2.6519e-16
4.09362e-05
2.54737e-16
2.20269e-16
1.4606e-15
2.74799e-17
6.01167e-17
5.59158e-12
1.38939e-10
3.91384e-16
6.64615e-17
3.62924e-18
1.81594e-15
5.04813e-06
1.38173e-05
2.3077e-17
3.69364e-06
6.96893e-16
6.57557e-16
4.41385e-16
5.00739e-16
1.5964e-15
1.81655e-06
1.0094e-17
7.28935e-15
9.45134e-16
4.06401e-16
2.75778e-16
2.81531e-15
0.000169005
1.61348e-06
3.26903e-16
7.65377e-17
2.40836e-15
6.53628e-18
8.62088e-17
4.41218e-17
2.60158e-17
1.11282e-16
2.3047e-17
6.31896e-17
3.77936e-06
1.21137e-17
3.03889e-16
2.21802e-06
1.16392e-16
5.91377e-06
6.06023e-15
2.84303e-15
2.76132e-16
2.20291e-08
1.19557e-15
1.54672e-05
1.86442e-07
2.45604e-09
1.84136e-16
1.02485e-15
1.04638e-05
1.25911e-15
7.79351e-16
2.10831e-15
3.47951e-16
1.41704e-10
1.0626e-16
1.27572e-16
2.20363e-15
3.18458e-07
1.36805e-16
1.9616e-06
1.10518e-06
1.07989e-16
1.66155e-15
2.64154e-17
3.31336e-06
3.14637e-16
1.47235e-07
1.95036e-16
6.17497e-07
3.82911e-07
5.31222e-17
3.51476e-17
2.24235e-17
5.54996e-11
3.61903e-05
1.12721e-16
1.24556e-08
1.08482e-15
8.16608e-14
4.63119e-15
1.01941e-10
6.80972e-16
2.10869e-15
3.41065e-14
2.13969e-16
2.65849e-18
1.43513e-17
1.38414e-07
2.75784e-13
9.02309e-16
4.14671e-17
2.24745e-16
2.83509e-14
3.49873e-15
4.40535e-16
2.60724e-14
1.90525e-16
5.96544e-10
4.43342e-06
0.00010468
2.14597e-17
1.80995e-17
3.40801e-11
3.43586e-18
1.35209e-07
5.59958e-16
1.69418e-16
6.00793e-09
1.31926e-05
1.20777e-15
2.25293e-16
1.33723e-06
4.27228e-16
7.62041e-08
5.18147e-05
3.18788e-16
1.87517e-17
9.37186e-16
2.03617e-15
1.1971e-16
7.70276e-17
2.16483e-16
4.54373e-17
4.20587e-16
1.14063e-15
6.6866e-15
6.95509e-07
6.72843e-08
2.08607e-05
1.23479e-05
6.20966e-17
2.71243e-10
6.49818e-07
7.8006e-17
5.57036e-19
7.7962e-17
1.62545e-16
2.53027e-16
1.51722e-16
9.97869e-16
1.82514e-16
1.5935e-16
1.79368e-15
3.04192e-12
2.03227e-16
5.34216e-07
1.09972e-16
3.37971e-08
3.04043e-17
7.50337e-08
3.42869e-16
7.15522e-17
2.27191e-05
1.05168e-05
8.89217e-16
0.00010179
4.20033e-13
1.69114e-12
3.63214e-17
1.25533e-06
9.66678e-15
2.61554e-06
7.78881e-09
1.35343e-06
1.31049e-16
4.21037e-16
5.80652e-07
7.33755e-11
1.06163e-16
4.53251e-16
2.64024e-07
1.11063e-15
4.89713e-07
3.76157e-16
5.55965e-18
1.30461e-09
2.76908e-07
2.73553e-08
5.56585e-17
5.90108e-07
2.53393e-15
1.43915e-06
1.5591e-08
7.10263e-16
5.91703e-07
8.48454e-18
3.58039e-07
6.01854e-07
7.677e-06
6.38672e-17
4.3114e-16
4.21098e-17
4.3353e-06
1.99232e-15
1.78758e-15
3.50155e-17
2.03078e-10
3.93861e-17
1.93221e-16
2.30844e-15
1.38813e-16
2.38043e-06
1.32116e-06
9.71985e-15
0.000352832
7.2017e-18
2.57507e-05
5.62714e-07
1.74891e-15
1.0313e-06
1.92791e-17
5.25924e-16
3.13281e-06
1.31919e-09
1.04834e-09
1.25292e-08
1.71532e-16
6.15914e-07
8.30971e-07
4.23554e-07
6.69635e-10
3.36291e-06
2.0433e-16
2.4672e-05
3.01094e-16
2.42687e-16
8.80055e-10
2.69016e-16
5.56713e-06
2.3083e-16
5.06673e-17
2.15795e-15
1.28285e-16
2.53963e-16
5.96504e-07
6.8424e-16
7.35484e-07
6.27903e-16
2.93856e-17
1.2651e-05
6.87545e-06
5.83137e-14
1.05042e-05
1.68428e-17
0.000641305
1.38437e-16
7.4545e-05
1.43504e-16
1.34166e-05
1.92845e-05
1.80774e-06
6.6416e-05
4.81216e-16
4.66803e-16
4.47655e-17
6.02323e-17
5.49004e-18
5.08735e-17
9.84587e-16
3.74535e-16
3.5931e-17
4.33348e-06
1.93468e-16
9.99424e-09
1.33862e-10
3.04454e-17
1.26515e-17
3.10351e-16
4.43764e-15
1.11482e-06
5.69198e-17
4.57014e-16
2.92487e-07
8.12842e-16
0.000127213
6.94872e-17
4.4437e-16
8.73432e-06
3.15768e-16
3.45787e-16
2.50328e-05
2.77437e-13
9.76353e-07
4.34147e-06
1.65086e-05
1.73822e-17
4.83392e-17
1.9659e-09
4.30858e-19
3.30822e-17
4.11861e-17
6.20963e-16
5.1126e-05
1.92124e-12
3.4635e-05
1.79402e-16
3.24143e-05
4.2464e-07
2.90547e-06
2.24938e-06
3.69273e-06
2.36108e-05
1.69628e-06
3.99785e-17
1.19186e-17
4.5232e-17
2.087e-06
1.49789e-17
2.90253e-05
1.07607e-15
1.61846e-06
2.29246e-10
4.10342e-16
6.58356e-16
3.36979e-17
4.3004e-16
3.11517e-06
4.24593e-07
1.02997e-16
6.26822e-16
8.4519e-17
8.3434e-16
1.45467e-07
2.16148e-06
4.7481e-07
9.81892e-16
6.65339e-07
4.17999e-16
3.95991e-18
9.27082e-17
4.57962e-16
3.6711e-08
2.50379e-16
1.05767e-06
3.82198e-16
8.38735e-07
1.51801e-16
4.54724e-17
6.30157e-16
7.62992e-17
1.36103e-15
3.25057e-05
8.8097e-17
6.45665e-16
7.47219e-16
3.31168e-16
1.19665e-16
8.4502e-16
1.16451e-05
1.18159e-15
1.5052e-06
0.000411956
5.69976e-16
1.81949e-08
1.39665e-15
3.12087e-16
2.58375e-17
4.49877e-16
4.40147e-06
2.39799e-17
1.43706e-05
1.15967e-09
1.30392e-14
4.51887e-16
7.29907e-15
3.14484e-18
8.6431e-17
2.48245e-17
1.38744e-15
0.000222399
1.15409e-16
4.44233e-06
2.23865e-12
9.11232e-17
1.59852e-16
2.18503e-06
7.17163e-16
1.92964e-18
3.19791e-09
6.76459e-08
6.35207e-17
8.70093e-16
1.44107e-16
4.35897e-16
3.49937e-17
3.54651e-16
3.7407e-07
2.08491e-06
2.69331e-06
3.0336e-16
6.10764e-16
1.31461e-15
2.94909e-06
1.49321e-06
9.81334e-06
2.91505e-05
2.35253e-18
7.54811e-17
1.98777e-15
9.85983e-16
5.04936e-18
2.4959e-16
3.82243e-18
2.0665e-16
1.63061e-16
8.37909e-09
3.22429e-09
5.98552e-12
3.2477e-18
3.79979e-17
1.73946e-16
3.90413e-17
1.84362e-16
1.01358e-09
2.24973e-16
1.26713e-15
2.69466e-17
4.81251e-16
2.06833e-16
3.51849e-12
3.17802e-05
0.000126144
3.66116e-18
2.64727e-14
7.96934e-15
8.4459e-17
1.4462e-16
6.29329e-10
9.45135e-08
1.86047e-16
1.93155e-15
5.8568e-06
1.37783e-16
5.72063e-15
9.53907e-13
0.00245016
1.25326e-16
6.31134e-16
1.51421e-14
3.24968e-07
2.1643e-16
0.000776254
6.17594e-17
5.90914e-06
2.8439e-16
2.68517e-15
5.75957e-17
2.19446e-17
2.19181e-15
4.0069e-17
1.4233e-15
3.2176e-05
1.81698e-05
0.000987267
1.43196e-16
2.23946e-16
5.00856e-16
1.15883e-16
5.99965e-06
6.60556e-11
1.37396e-16
2.7224e-16
9.00632e-16
1.60488e-06
7.15682e-16
1.53139e-16
3.25962e-16
3.04393e-05
3.06894e-16
4.31147e-17
1.87091e-16
7.87731e-16
1.58219e-08
3.63013e-16
5.58555e-17
6.95095e-17
3.53146e-16
2.14445e-07
1.26617e-16
7.88526e-17
2.73617e-17
7.54119e-06
1.31564e-10
5.07832e-16
2.88212e-16
2.39429e-16
7.16052e-16
2.6899e-06
3.78825e-06
5.67058e-19
7.28141e-08
2.2343e-05
4.76762e-08
8.24002e-17
7.25086e-17
2.59596e-17
6.97326e-17
1.37413e-17
1.44288e-05
2.13989e-15
1.79894e-05
8.98579e-17
1.22098e-06
1.15624e-15
1.70606e-06
1.69539e-16
2.38235e-17
1.38052e-05
0.000260142
2.63735e-15
2.49818e-06
1.51856e-16
3.15895e-07
3.7492e-17
1.2864e-15
2.65343e-16
3.99131e-10
1.28319e-16
4.99926e-07
5.39024e-17
3.66853e-06
1.27724e-17
2.65434e-15
4.48017e-18
7.85507e-17
2.27033e-16
2.16962e-07
5.5545e-17
5.35779e-06
5.27489e-18
5.16801e-06
2.01159e-05
6.71175e-07
2.06936e-18
4.05235e-09
4.26824e-07
1.17961e-09
5.24052e-06
4.30538e-10
1.07126e-06
1.81131e-15
4.55685e-17
4.04106e-10
1.31947e-16
2.01389e-07
5.9998e-16
1.3187e-16
6.20491e-16
0.000581776
2.86266e-16
6.39291e-17
2.32796e-17
4.26849e-16
8.4625e-17
8.98519e-08
3.48e-07
7.91048e-07
3.74165e-14
2.92034e-17
1.3468e-06
4.40375e-17
4.07868e-06
3.38537e-16
1.21929e-17
5.75833e-18
5.5892e-17
2.90839e-08
1.13691e-16
2.61691e-18
6.70398e-16
7.58348e-07
5.52885e-16
8.12191e-19
1.49146e-05
1.27854e-15
5.23405e-05
7.57412e-05
0.000390009
2.92307e-17
0.000239644
0.00144421
0.00237789
0.000834112
8.48112e-17
3.10098e-17
1.83298e-07
6.78964e-06
1.86237e-16
3.20203e-06
1.86221e-17
1.02143e-06
1.61093e-15
1.73294e-16
4.42293e-07
3.9478e-16
3.26138e-16
9.95664e-09
2.42799e-08
5.16014e-17
1.41955e-16
3.23771e-09
3.36359e-15
2.09972e-16
2.32682e-08
2.01161e-06
1.1278e-05
1.50129e-15
1.08487e-05
2.56006e-16
2.37257e-14
4.97892e-10
1.00883e-05
1.61075e-16
1.46851e-11
8.1636e-06
1.53844e-16
3.52011e-13
1.17653e-16
2.06724e-06
2.2874e-16
3.23946e-07
3.41576e-17
5.83488e-10
7.41712e-17
1.96729e-16
1.2131e-17
1.92318e-14
4.35102e-13
9.72584e-17
3.21717e-06
6.44699e-06
1.65513e-17
4.00026e-17
8.80316e-09
1.7546e-15
0.000224789
1.83729e-16
2.04503e-06
7.42793e-06
5.10214e-05
2.58387e-12
2.53416e-17
7.25215e-05
1.34525e-16
0.000265322
1.77872e-16
1.26413e-11
1.47345e-11
1.09591e-16
1.78988e-12
8.33642e-16
2.80409e-05
4.78699e-18
5.49421e-16
9.41769e-16
8.74021e-17
1.52232e-16
3.23762e-17
3.07932e-07
9.96834e-09
0.000172408
1.94315e-15
3.39519e-17
5.06486e-05
8.41174e-16
1.07664e-19
3.56151e-16
9.22827e-17
1.5968e-15
3.56991e-16
5.9374e-17
1.45354e-16
4.0525e-18
2.10416e-16
1.70795e-15
4.28031e-17
1.60638e-15
4.27126e-16
5.28168e-18
1.82801e-16
0.000246392
5.23264e-06
1.62041e-16
7.41719e-16
2.39125e-16
9.23745e-16
7.75299e-17
8.68796e-17
1.08574e-16
3.05591e-17
7.94073e-15
6.18493e-17
5.45345e-16
1.17891e-16
0.000369453
2.68008e-16
7.40269e-06
9.92241e-16
7.19981e-17
3.64942e-06
4.97062e-16
4.78911e-19
3.53071e-17
1.36606e-17
2.72898e-16
1.96808e-05
2.76078e-16
1.14481e-17
3.49045e-16
7.03564e-17
3.12649e-16
2.37206e-18
9.03638e-06
5.23986e-16
1.13853e-17
2.11222e-06
6.61964e-12
0.000150163
9.58874e-16
7.97844e-17
1.69354e-16
1.70001e-11
0.000190262
6.02942e-17
2.89605e-17
1.58434e-15
1.04881e-15
6.73672e-16
1.32045e-05
2.87829e-05
5.48754e-16
1.33584e-17
2.40271e-17
2.28012e-16
4.4394e-15
3.93013e-18
4.72742e-16
6.9868e-17
6.62695e-05
3.36774e-16
2.07335e-15
3.47178e-17
7.07491e-17
5.07933e-17
8.4513e-17
7.90334e-17
1.88097e-16
1.20108e-15
5.75986e-12
1.44444e-15
2.22747e-16
2.33245e-15
1.61206e-16
0.00066082
4.83601e-17
7.65181e-17
4.07159e-16
7.3761e-17
1.81422e-17
4.01255e-16
3.92043e-17
9.62164e-16
2.01481e-16
2.73465e-16
9.75892e-17
3.31678e-06
1.96525e-16
1.4707e-05
1.63777e-16
5.89274e-05
9.86179e-17
1.63126e-16
2.00719e-05
2.41358e-16
3.65098e-17
1.67165e-15
3.27457e-07
9.92421e-17
1.52901e-16
4.36572e-05
1.59492e-05
2.07359e-16
4.18662e-16
1.59951e-16
1.84088e-05
1.12565e-16
5.5563e-06
1.22534e-15
2.79735e-05
2.81921e-16
5.44198e-16
7.22398e-17
4.50627e-15
1.6005e-16
9.83585e-17
7.61924e-17
5.55793e-18
2.21147e-16
7.37724e-10
1.81638e-08
3.75843e-15
4.35897e-06
1.56673e-16
6.26502e-06
6.49654e-17
6.07262e-10
5.24518e-16
1.81519e-15
4.98288e-05
4.09961e-17
1.77283e-16
1.8214e-17
2.13097e-16
1.36778e-06
9.6714e-17
4.86003e-18
1.46644e-16
2.89354e-16
0.00074648
1.50522e-16
9.6926e-05
2.75409e-17
1.19807e-16
1.36542e-16
1.08655e-17
7.07601e-16
1.01382e-16
5.27235e-08
7.86982e-18
8.15612e-06
7.97826e-17
1.77574e-17
6.26647e-15
2.42558e-16
3.05932e-16
1.47022e-15
4.5613e-16
1.1547e-16
3.96368e-06
0.000250014
1.70034e-15
2.46203e-17
5.29081e-07
1.74346e-17
9.18667e-18
2.18887e-09
5.85916e-06
2.56296e-07
1.38755e-17
3.59417e-17
4.98758e-06
6.64108e-11
7.19541e-06
1.96728e-16
8.22073e-17
4.51392e-17
1.64757e-17
1.22491e-17
1.68249e-17
4.70704e-17
8.58289e-17
9.34919e-17
7.59545e-17
1.66491e-16
1.73136e-18
8.49947e-05
2.7878e-17
1.53859e-17
2.04057e-12
1.23004e-16
4.76148e-16
0.00125002
1.11394e-16
2.37893e-16
2.37159e-05
8.76538e-13
1.3531e-16
1.7534e-16
1.26184e-17
1.31559e-06
1.14861e-16
1.22532e-16
5.59213e-11
1.16328e-17
6.38883e-16
4.07051e-17
1.02995e-16
0.000125753
2.70466e-17
2.1474e-07
2.08326e-17
1.24037e-18
6.04863e-18
6.15683e-16
1.04146e-16
4.79791e-11
7.44104e-11
4.55936e-17
6.78073e-17
4.37749e-16
2.48574e-16
1.09755e-10
8.10524e-16
3.33457e-10
3.04507e-11
1.49835e-17
2.25361e-17
8.78112e-16
5.39344e-12
6.26027e-17
6.14741e-16
2.56698e-12
6.11566e-15
3.53554e-05
1.71823e-17
8.15626e-06
3.14491e-15
2.36305e-09
3.93034e-17
1.61923e-06
3.53848e-18
3.34048e-06
2.17377e-05
1.30602e-15
2.26023e-06
9.03439e-09
7.5542e-18
9.38232e-06
4.19738e-16
4.13164e-17
8.35742e-16
3.12113e-16
1.17672e-16
7.29039e-18
2.37929e-16
1.95811e-16
0.000317746
2.71813e-17
1.21293e-16
1.50017e-17
1.16884e-16
1.12289e-16
3.18457e-06
0.000941768
1.66257e-09
1.484e-08
1.64502e-16
2.00282e-06
1.73038e-06
2.74343e-17
1.97136e-15
1.65079e-15
5.07307e-17
6.94937e-17
2.50321e-15
9.35711e-16
3.91458e-16
3.40222e-07
1.29717e-15
7.93016e-17
1.27675e-07
1.32837e-09
1.13349e-16
3.21886e-05
1.10631e-16
9.67382e-16
4.09699e-16
0.000178228
5.1176e-17
1.16361e-17
3.12506e-05
1.13413e-17
9.27866e-18
2.06071e-16
7.76666e-17
6.32909e-05
1.46698e-16
9.69596e-17
1.15166e-16
3.74703e-16
5.1525e-06