/*--------------------------------*- C++ -*----------------------------------*\
  =========                 |
  \\      /  F ield         | OpenFOAM: The Open Source CFD Toolbox
   \\    /   O peration     | Website:  https://openfoam.org
    \\  /    A nd           | Version:  10
     \\/     M anipulation  |
\*---------------------------------------------------------------------------*/
FoamFile
{
    format      ascii;
    class       volScalarField;
    location    "3.1";
    object      T;
}
// * * * * * * * * * * * * * * * * * * * * * * * * * * * * * * * * * * * * * //

dimensions      [0 0 0 1 0 0 0];

internalField   nonuniform List<scalar> 
111485
(
303.15
283.386
296.298
303.15
296.801
283.15
287.221
283.491
286.983
285.918
287.374
295.252
287.62
283.272
288.499
283.856
283.15
299.481
286.694
303.15
303.15
283.15
287.786
284.337
298.841
303.15
292.642
283.15
287.425
303.15
300.62
283.15
303.15
283.15
283.479
283.15
302.209
283.15
283.149
289.128
283.15
290.176
289.264
302.903
303.182
303.15
287.283
284.293
290.14
303.15
303.15
283.15
303.15
299.589
303.15
283.151
284.125
283.15
283.307
288.455
288.862
303.15
283.208
300.174
283.15
283.151
301.48
283.845
283.195
283.324
303.165
283.153
303.15
283.206
303.15
283.15
283.15
293.579
283.15
283.15
283.249
293.508
283.15
303.15
283.23
283.605
283.15
301.872
303.152
283.15
283.531
286.436
283.232
283.15
290.684
303.15
303.15
301.872
303.15
283.48
303.15
286.478
283.15
285.551
283.316
283.15
283.15
283.15
292.826
283.146
283.15
283.156
290.57
301.038
303.15
283.15
303.15
283.15
283.36
303.15
303.15
283.15
283.15
283.15
283.448
303.153
283.15
283.15
303.15
283.186
303.056
302.256
303.15
283.15
283.15
285.283
283.15
283.15
284.177
284.343
303.082
284.244
284.372
283.993
302.216
283.15
283.15
303.15
283.15
285.464
284.133
303.15
303.144
283.15
283.156
284.8
284.735
287.369
283.154
303.15
303.15
284.521
284.852
283.153
283.157
283.15
283.791
283.15
283.154
283.154
283.15
303.15
283.197
283.15
283.15
283.15
283.15
303.15
303.15
283.15
303.15
303.15
285.722
285.179
285.074
283.15
301.589
283.15
283.199
303.15
283.15
303.15
303.15
283.15
285.942
301.784
283.152
283.15
303.15
285.789
283.812
283.161
301.156
283.15
303.15
283.15
288.623
303.15
283.255
299.974
283.986
283.15
303.15
303.15
283.15
283.15
293.801
283.15
283.15
283.15
290.178
303.15
283.15
300.735
283.15
283.15
283.15
289.449
283.159
283.15
303.15
283.15
283.15
283.159
283.15
303.15
303.102
303.15
283.25
283.15
283.15
283.15
283.15
283.15
283.144
283.15
283.15
283.15
288.47
283.156
283.15
283.15
283.15
303.15
283.15
300.79
303.15
303.15
303.124
303.15
283.15
283.15
283.15
303.15
283.15
303.15
303.15
303.15
283.148
298.017
283.183
283.212
290.468
283.194
283.228
283.219
283.15
283.15
283.15
303.15
283.149
283.15
299.059
283.15
303.15
283.222
285.463
283.193
302.582
283.166
283.192
283.203
301.888
283.15
283.761
283.15
283.148
303.15
283.918
289.537
284.06
303.15
283.15
283.15
283.15
303.15
303.15
303.15
283.15
283.15
284.616
283.383
287.841
283.15
283.15
303.15
283.15
303.15
283.34
289.607
283.154
283.15
303.15
303.15
283.15
283.151
287.596
283.15
283.151
283.15
303.15
300.976
283.151
293.179
283.151
283.15
283.15
283.15
283.151
283.15
302.318
283.15
283.15
283.147
288.038
283.15
283.242
286.905
283.15
287.884
283.151
284.168
298.613
284.484
283.15
303.15
283.15
303.15
283.697
283.15
288.536
287.921
283.15
285.645
283.15
303.15
288.58
303.15
302.507
303.15
283.15
284.878
283.15
283.15
284.418
283.15
283.161
283.153
283.15
283.152
284.765
283.152
303.072
283.15
283.15
283.15
303.15
303.153
283.15
300.972
300.784
283.15
283.15
283.151
284.134
283.15
295.191
283.15
295.004
295.517
283.15
302.224
283.796
303.15
303.15
283.15
296.647
283.15
303.15
303.15
303.15
299.09
283.15
303.15
292.945
283.169
287.117
297.29
283.15
283.15
302.768
283.15
302.638
301.781
298.576
289.935
283.15
283.15
303.39
303.15
299.328
290.899
303.15
283.15
283.303
283.15
289.776
286.402
283.15
283.15
283.15
295.984
283.15
303.147
283.15
303.15
303.15
283.166
283.15
283.15
284.317
303.142
283.15
303.15
303.15
303.15
298.967
283.15
285.814
284.202
284.255
283.15
285.651
303.15
297.929
283.15
303.15
303.15
300.464
303.15
303.15
283.151
303.15
283.15
301.122
283.15
283.15
283.15
303.15
283.15
303.15
283.15
283.672
283.15
303.144
301.601
283.76
283.15
303.11
283.15
303.15
284.41
284.394
285.93
298.397
283.15
298.341
298.425
283.15
283.15
284.941
303.15
283.15
283.15
300.485
283.15
297.612
283.15
283.15
298.42
303.15
283.15
283.15
303.15
296.352
299.756
283.15
283.15
283.15
283.15
303.15
294.453
283.15
283.15
283.188
283.15
300.42
283.15
284.751
303.15
283.406
303.089
283.15
283.15
283.15
283.15
283.15
283.15
285.582
283.15
283.274
283.15
300.297
303.15
291.346
303.15
283.15
302.418
284.309
300.662
285.376
300.685
288.581
283.15
301.117
284.368
283.15
283.14
300.966
301.918
283.15
282.296
297.483
303.074
283.118
303.15
287.097
298.923
284.243
285.239
283.15
282.453
283.15
303.15
300.97
303.15
283.611
283.15
283.15
283.15
282.659
303.15
303.12
283.15
286.062
297.388
283.15
283.15
297.356
303.15
283.15
283.15
283.15
285.919
283.15
303.15
284.707
283.15
303.15
297.218
283.15
283.15
303.15
283.15
286.003
283.15
283.15
283.15
283.15
283.15
285.389
283.15
303.15
300.459
283.416
297.71
301.111
283.411
283.318
283.15
289.26
297.837
303.15
283.152
296.045
296.625
283.15
297.353
296.745
303.15
300.035
303.14
283.15
297.253
284.932
283.15
283.15
295.862
284.925
299.259
300.834
283.15
283.15
299.37
283.434
303.15
300.99
302.192
283.15
283.15
283.15
303.15
283.15
283.15
283.15
283.253
283.15
303.15
303.15
283.15
300.724
299.966
303.15
285.526
303.15
303.15
303.15
289.598
283.447
283.15
303.15
283.15
283.15
287.531
283.15
283.15
295.984
283.134
283.15
296.15
302.428
283.15
283.15
283.15
283.16
283.15
283.15
283.15
283.15
283.15
303.15
303.15
283.15
296.971
289.922
283.15
282.666
302.144
283.15
283.15
283.15
287.069
303.034
283.15
283.16
287.742
283.835
283.15
283.15
285.015
300.303
283.15
303.15
283.15
283.15
283.15
283.15
296.36
303.15
283.15
283.15
296.019
283.15
303.15
303.15
289.681
283.15
283.15
303.15
283.15
283.15
303.15
284.021
283.15
283.15
303.15
303.15
303.15
283.15
285.029
283.15
283.15
302.663
303.15
283.15
302.441
283.15
283.15
283.068
283.15
291.456
283.499
290.072
283.15
283.15
283.15
288.775
283.15
283.15
283.15
299.222
283.15
283.15
283.922
284.645
283.454
303.15
303.15
303.15
283.15
283.15
283.15
283.15
283.44
283.15
283.15
283.15
283.15
283.15
303.15
283.15
283.15
283.15
303.102
283.15
283.15
303.15
283.15
283.15
283.15
283.15
283.15
283.15
283.15
303.15
283.15
283.176
283.15
303.15
299.708
283.125
283.367
283.092
283.15
283.15
284.299
290.31
283.367
303.15
283.15
283.15
283.15
283.15
283.187
283.141
283.237
283.15
283.248
283.15
283.15
283.15
283.15
283.15
283.15
283.15
283.15
290.373
283.15
283.15
283.258
283.15
283.15
283.15
283.15
283.15
283.15
283.148
283.15
283.15
284.824
283.143
303.118
283.161
283.16
283.15
283.15
284.625
283.15
301.91
283.604
283.095
303.148
303.148
303.15
283.15
283.15
283.15
303.15
303.144
283.809
283.15
283.15
303.154
303.15
283.15
303.16
283.15
283.15
303.15
303.15
303.15
303.15
283.393
283.15
283.15
283.15
303.159
283.302
283.418
283.15
283.15
283.15
283.327
283.15
283.15
283.15
287.047
283.15
283.15
283.15
283.15
283.15
283.15
283.15
283.954
283.15
303.151
287.134
283.15
303.15
303.15
303.15
303.15
303.15
283.15
303.163
283.15
283.689
283.144
303.151
283.15
303.068
284.45
286.528
303.15
303.135
284.709
303.15
283.15
303.15
283.15
283.15
284.461
284.62
303.148
283.15
283.15
283.15
283.15
303.15
283.15
283.395
283.15
303.15
283.163
283.15
303.15
284.664
283.15
283.589
283.15
283.15
283.15
303.15
283.15
283.159
284.564
283.15
283.15
283.15
283.15
283.15
303.15
284.636
303.159
297.409
303.15
303.135
303.138
283.15
303.142
283.15
283.535
289.174
284.214
283.816
283.163
283.15
283.15
283.15
303.175
283.15
302.989
303.15
293.344
303.15
284.189
283.311
303.15
283.15
303.15
283.15
302.148
303.15
303.15
283.15
301.059
283.15
283.15
283.15
283.15
283.15
283.15
301.331
283.558
303.15
303.15
303.155
303.15
300.673
283.15
283.15
302.359
303.15
283.15
283.15
295.119
283.15
283.147
303.152
283.346
302.383
300.769
283.147
283.15
289.061
303.15
283.362
303.15
283.15
303.15
283.15
283.15
283.15
301.287
302.31
303.15
303.15
303.15
302.963
283.149
303.15
283.368
283.091
303.15
283.15
283.15
283.265
283.387
283.15
283.15
283.15
283.15
283.388
283.15
295.101
283.15
303.094
287.058
283.15
302.94
283.15
283.15
302.874
283.148
302.919
283.15
303.15
283.15
283.278
283.15
303.15
283.15
283.147
283.15
283.174
283.15
283.15
303.15
283.15
283.15
295.878
285.349
303.15
303.134
283.15
283.15
283.15
283.15
283.158
302.934
283.15
303.021
303.15
283.407
283.15
303.15
283.15
303.02
283.404
283.151
283.15
303.15
287.18
303.15
283.15
283.12
295.195
283.147
283.15
283.15
283.146
303.15
283.15
303.149
303.15
303.15
283.162
303.047
303.062
283.162
283.15
283.15
283.15
303.097
283.16
283.15
303.15
284.994
283.15
303.15
283.15
283.15
283.15
298.043
283.15
299.185
283.15
300.871
283.15
283.15
283.15
283.15
283.15
283.15
284.736
283.15
283.15
283.15
283.15
283.15
283.15
283.156
283.15
283.151
303.026
283.15
301.812
283.15
302.669
303.145
283.15
283.15
303.15
283.15
284.508
303.112
303.15
303.141
283.15
283.15
283.15
283.15
283.15
283.15
283.15
283.15
283.15
283.15
283.15
283.15
303.141
283.15
283.15
283.15
301.908
283.15
283.191
303.15
283.15
283.15
283.15
301.881
283.15
303.177
303.15
283.15
283.15
297.574
283.15
283.315
292.658
283.161
283.15
283.15
288.852
283.15
283.154
284.508
283.15
283.151
283.15
303.15
291.998
298.562
283.15
283.15
283.15
283.15
283.15
303.15
283.15
283.15
290.358
283.15
283.15
291.951
283.15
283.2
283.15
283.15
283.15
301.352
292.598
283.15
292.593
283.15
292.384
283.15
283.15
292.662
283.15
283.221
286.682
283.15
283.15
285.679
283.15
286.515
303.15
290.373
303.15
303.15
303.15
286.639
283.15
283.15
284.54
283.15
302.97
283.15
283.15
303.15
283.149
286.752
283.15
283.15
286.509
286.728
283.15
283.374
283.15
303.15
302.595
283.799
283.15
283.15
283.15
283.15
283.15
283.15
283.15
283.15
283.15
283.15
283.15
283.15
303.15
283.15
283.15
283.15
283.15
283.15
283.15
283.15
283.15
303.15
285.833
283.15
283.15
283.15
283.38
283.15
303.15
303.03
283.15
283.15
283.414
283.15
283.15
302.04
283.438
283.15
303.431
303.451
283.15
301.605
283.433
283.454
283.235
283.15
303.15
283.15
283.15
283.151
283.238
283.15
283.154
302.377
283.227
283.15
283.15
283.271
283.15
283.201
303.15
283.34
283.171
284.894
283.175
283.15
283.15
283.15
303.15
283.15
283.151
283.186
283.15
283.15
283.15
283.15
283.15
303.15
283.15
303.15
283.164
303.129
283.176
301.919
283.15
283.15
285.199
283.179
283.15
283.15
299.654
303.15
283.15
283.169
283.178
283.177
297.363
301.26
303.15
283.15
283.362
303.15
303.15
283.701
303.15
283.15
282.748
295.987
299.917
283.15
303.15
290.302
283.368
283.15
283.151
302.525
303.15
303.136
303.15
303.15
283.15
295.833
283.15
283.151
283.15
283.623
283.202
303.15
283.15
303.15
283.15
303.15
303.15
283.15
300.109
283.15
303.15
303.143
283.151
303.081
283.15
283.151
283.15
283.151
283.15
303.15
283.15
290.4
283.15
303.15
303.15
303.15
303.15
298.036
301.843
283.15
283.15
301.261
283.268
283.15
303.15
303.15
283.15
283.151
283.15
302.862
300.019
301.837
283.15
283.15
283.15
303.15
283.15
283.15
283.15
283.15
283.427
303.15
286.176
283.15
303.15
283.15
283.15
283.15
283.153
283.146
283.162
283.251
301.897
283.15
303.15
283.15
283.15
303.15
283.15
303.15
303.208
283.183
291.627
295.87
303.243
283.149
297.532
303.15
303.15
283.151
303.15
283.15
283.307
283.15
283.15
303.15
283.615
283.151
303.15
283.014
283.15
303.15
283.15
283.15
303.15
303.15
283.173
303.15
283.15
283.15
283.15
299.52
290.383
303.15
284.641
283.15
283.15
283.15
283.15
283.15
303.087
283.15
283.15
283.15
283.15
283.15
283.15
291.223
291.237
303.15
283.15
283.15
303.15
283.15
283.15
283.15
303.15
283.15
303.15
297.675
283.15
283.15
283.739
303.15
283.959
283.15
283.15
303.15
303.146
303.15
290.212
302.982
303.121
283.15
283.15
286.815
283.15
283.15
303.15
283.15
283.164
283.15
303.15
283.15
283.46
283.15
284.194
283.533
303.15
283.15
303.15
284.825
303.15
303.254
283.15
303.251
302.905
303.15
303.15
283.15
283.155
298.783
283.15
303.083
283.15
283.15
283.15
283.165
283.15
283.15
283.15
283.15
283.15
303.15
283.302
283.15
283.15
283.15
303.15
283.15
283.15
303.15
283.15
303.15
283.156
284.777
300.907
303.15
303.15
283.16
303.15
283.347
283.15
283.15
283.312
287.145
283.15
303.15
302.694
283.15
302.804
292.499
303.15
303.15
283.15
283.15
303.15
283.15
283.15
303.15
303.15
283.15
283.15
303.256
283.661
300.33
297.519
303.15
303.152
302.628
303.15
283.15
303.15
303.15
303.15
303.15
303.15
303.15
303.15
283.15
303.15
303.15
283.406
303.15
303.218
303.15
303.161
303.15
303.15
301.393
303.675
303.15
291.649
303.15
303.15
283.15
302.691
303.15
302.296
303.113
283.311
283.15
303.15
302.996
283.149
303.15
303.15
283.747
283.15
283.794
283.15
283.15
283.152
283.71
283.199
303.15
296.012
283.15
303.54
303.135
283.15
302.745
283.15
283.802
303.104
301.667
283.15
303.15
283.15
303.691
283.15
283.15
303.15
303.15
303.15
303.15
303.15
303.15
302.571
302.909
283.15
292.279
303.15
286.673
284.065
283.15
303.2
283.15
283.15
302.867
283.159
283.147
283.234
303.15
283.241
302.99
283.98
302.936
301.974
303.15
302.143
303.15
303.15
283.184
303.15
284.253
303.15
303.15
283.15
303.15
303.15
302.935
303.15
283.303
283.15
283.15
285.199
285.036
283.15
286.293
303.15
295.239
303.15
289.998
303.15
286.229
301.123
301.835
293.158
303.15
303.15
303.15
283.15
283.15
303.15
283.15
283.15
283.15
302.134
303.15
283.217
283.147
283.15
303.15
303.15
283.15
286.388
303.15
283.15
302.359
283.15
298.22
303.15
283.15
286.054
283.15
303.15
295.127
283.151
302.95
302.163
301.467
303.15
303.15
303.147
303.15
283.15
303.15
283.15
299.72
283.152
287.84
283.15
299.075
283.9
286.945
283.514
297.138
290.539
301.96
283.15
283.15
283.15
302.059
283.15
290.737
283.15
301.316
303.157
283.15
283.15
283.15
303.15
301.342
301.306
303.15
283.15
303.15
283.15
301.601
302.484
302.523
283.15
283.417
303.15
303.15
303.15
283.15
283.303
283.15
286.946
283.15
302.752
303.15
303.15
283.15
283.15
283.15
297.718
303.15
303.15
283.15
303.15
303.15
303.15
300.756
303.15
285.342
293.121
283.15
283.255
283.15
283.15
303.15
303.15
302.164
303.15
299.743
283.146
283.15
303.15
303.15
283.15
303.15
303.15
303.15
305.564
303.15
302.118
283.151
303.15
303.15
301.921
303.15
283.15
283.181
303.188
303.15
303.15
303.15
283.15
303.15
303.15
302.587
302.654
302.077
303.15
283.15
303.15
302.285
302.673
301.847
287.85
283.15
283.15
283.15
283.15
283.15
303.15
303.15
303.15
303.15
283.272
283.196
283.152
303.15
303.15
303.15
303.15
283.15
303.151
283.15
283.15
283.15
303.15
303.15
283.147
299.98
294.952
283.15
303.15
303.15
303.15
303.15
283.187
283.564
303.15
303.15
294.405
303.15
283.15
283.15
292.232
303.15
283.15
283.15
303.139
303.15
303.47
283.15
286.504
303.15
303.15
303.15
303.15
283.15
283.15
303.15
302.612
298.959
290.846
303.15
303.15
303.15
303.15
298.332
303.151
303.15
303.15
283.15
302.477
283.15
303.15
303.15
298.618
303.15
303.15
303.15
303.15
283.279
303.15
283.15
283.15
283.15
283.604
303.15
303.15
303.15
288.432
303.147
303.15
303.15
303.15
303.15
303.439
297.721
303.15
283.647
297.587
283.325
303.15
303.15
303.15
303.15
283.15
285.049
303.15
302.83
283.15
302.408
303.15
303.142
303.15
283.15
301.81
286.632
283.15
302.931
303.15
302.589
283.15
303.15
303.15
303.152
303.15
283.291
303.15
284.727
283.15
283.15
303.15
303.15
283.15
302.402
283.15
302.504
283.15
284.399
287.855
302.613
283.15
303.154
302.665
303.143
284.396
283.156
302.959
283.15
283.15
283.156
283.15
302.48
303.15
283.15
283.15
296.216
303.15
283.15
303.15
303.15
303.15
303.101
302.825
303.008
283.15
303.15
302.968
303.15
284.256
303.15
303.15
283.15
303.15
303.118
303.15
283.15
303.15
283.843
303.15
303.15
303.172
283.15
303.749
303.038
298.982
303.15
292.988
297.702
285.241
293.352
283.15
283.15
283.61
284.565
283.15
303.581
283.15
283.537
303.15
283.15
303.163
303.15
303.15
303.002
303.155
303.15
283.15
303.139
303.15
283.15
283.102
290.346
285.253
303.15
288.254
303.15
283.15
303.152
288.36
303.15
303.15
288.984
303.15
303.15
303.15
283.846
303.15
283.368
303.15
303.146
303.15
283.15
283.15
303.15
303.15
303.15
285.472
302.719
303.15
303.15
283.223
283.15
292.099
303.15
287.441
284.824
287.348
303.15
303.15
288.488
283.15
292.619
303.15
303.151
303.15
303.15
283.151
283.15
302.243
283.15
303.15
303.15
303.15
303.15
303.15
284.546
283.214
291.845
303.15
303.15
291.35
303.15
303.15
303.15
303.15
303.15
283.15
303.15
303.15
283.15
283.15
303.15
283.15
303.15
283.15
283.15
283.15
290.815
302.645
283.15
283.15
303.15
303.15
303.15
283.15
283.15
283.15
303.15
283.15
303.15
303.15
292.83
303.15
285.277
303.15
283.15
284.423
303.15
283.15
303.15
303.15
303.15
285.494
303.15
283.15
303.15
303.15
283.15
283.15
284.227
303.15
303.15
288.413
283.153
297.082
303.15
303.15
303.15
283.152
292.593
303.15
283.15
303.15
283.15
303.15
284.292
296.974
303.15
303.15
283.15
303.15
303.15
283.15
303.15
283.15
295.477
303.15
283.15
303.15
303.15
303.15
303.15
303.15
303.15
283.15
283.153
283.15
283.15
303.15
303.15
296.205
283.15
303.15
283.15
303.15
283.15
283.15
303.15
303.15
303.15
283.15
303.15
298.293
303.15
286.39
283.15
286.475
303.15
303.15
298.962
283.15
303.15
283.15
283.258
303.15
303.15
285.26
284.005
283.15
283.15
283.15
292.671
283.15
283.832
303.15
298.493
283.15
283.15
303.15
303.15
303.15
283.15
303.15
303.15
303.15
303.128
283.175
283.15
283.621
303.15
301.982
283.15
303.147
283.15
283.15
294.46
303.15
303.15
283.15
283.15
283.912
303.15
283.15
283.15
303.15
297.838
303.15
295.654
303.15
283.15
303.15
283.15
283.15
283.15
283.237
283.15
285.894
303.15
303.15
283.15
283.15
303.15
303.15
303.15
303.15
284.646
285.174
283.15
303.15
283.238
283.15
283.15
303.155
286.621
283.63
283.15
283.15
285.037
283.161
287.064
303.15
303.15
303.15
303.15
283.15
283.15
283.15
303.15
283.15
283.15
303.15
283.15
297.434
283.15
303.15
283.15
303.15
303.15
283.527
283.15
303.15
293.432
303.15
303.15
303.15
303.15
283.974
283.15
303.15
303.149
283.15
303.15
303.15
303.15
294.994
283.15
283.189
303.15
303.15
303.15
303.15
303.15
303.15
303.147
283.15
303.15
283.15
303.15
303.15
303.15
303.148
303.15
283.15
283.15
283.15
303.15
303.15
283.15
303.149
283.15
287.287
283.15
301.776
283.15
303.154
303.15
284.397
283.15
284.313
297.907
303.15
284.472
303.166
303.15
297.892
283.15
303.15
303.15
303.15
303.15
283.15
303.15
303.15
299.177
283.15
303.15
303.15
303.15
303.15
284.845
291.313
303.164
283.168
303.15
301.665
302.177
303.15
283.15
283.15
303.15
303.15
303.15
283.15
283.15
283.738
303.15
303.15
303.186
303.151
283.15
289.547
303.15
283.15
303.15
288.543
303.15
283.15
302.146
283.15
283.15
283.15
303.15
299.726
303.15
303.15
303.15
283.15
284.392
293.933
295.781
290.34
303.149
303.066
283.15
283.15
301.129
283.637
283.15
303.149
303.15
303.15
283.15
294.966
303.15
283.15
303.036
303.15
303.15
283.733
303.15
303.15
288.841
290.325
303.15
283.15
303.15
283.15
303.15
303.15
303.15
303.15
283.897
303.15
303.15
303.15
303.006
303.15
303.15
283.15
283.15
283.15
283.15
303.012
283.15
283.15
287.159
303.15
284.63
284.77
303.15
288.961
303.15
283.15
303.15
283.15
283.15
303.15
303.15
303.15
285.909
303.15
303.15
303.15
283.15
303.15
283.15
286.313
303.15
303.15
291.888
303.15
283.15
283.15
285.773
303.15
303.149
283.15
303.204
283.15
283.15
283.15
286.8
283.15
283.15
303.052
303.158
283.15
303.165
303.151
303.151
283.15
283.15
298.72
283.457
285.808
300.169
283.161
283.15
283.15
300.857
301.25
283.15
300.005
283.15
283.161
299.47
302.787
284.935
283.15
296.796
283.15
283.15
299.422
303.15
283.15
283.15
301.917
283.732
283.15
299.53
283.15
303.15
301.266
303.15
283.151
300.766
283.707
283.359
303.15
283.15
298.892
284.423
283.144
303.169
283.15
300.597
301.981
300.224
303.15
303.211
301.076
294.822
283.163
289.625
303.017
301.429
284.096
283.662
283.15
299.559
283.15
283.177
303.15
299.519
303.15
303.15
297.009
297.981
283.15
303.15
284.943
292.441
283.475
301.665
303.15
284.051
283.15
284.496
303.15
283.15
303.15
284.569
295.132
300.728
303.148
303.15
303.15
302.258
299.224
295.424
303.15
284.954
298.492
290.973
283.15
283.997
283.15
303.15
283.165
283.15
283.207
283.15
302.583
303.109
303.15
302.963
283.15
283.147
300.875
302.43
283.15
283.604
296.144
283.15
283.47
303.133
285.145
283.15
283.302
296.967
284.602
300.677
283.15
298.015
290.138
283.15
303.15
302.846
302.815
302.625
283.15
302.857
283.15
302.264
283.158
303.15
283.415
283.15
301.552
302.65
283.15
283.15
287.365
302.695
296.461
303.15
303.15
295.157
283.15
292.821
283.406
303.15
283.15
290.485
283.22
303.15
283.164
283.36
284.43
301.646
283.238
283.15
287.786
303.128
303.15
303.15
283.681
302.762
283.331
284.211
303.15
303.005
302.917
303.15
283.482
299.888
283.15
283.259
299.441
302.468
283.15
285.657
283.15
303.103
283.187
283.91
283.148
303.15
303.107
303.15
303.15
283.162
302.691
283.906
283.053
283.15
303.15
283.15
302.972
302.98
283.597
284.334
303.15
283.15
283.15
284.365
284.218
283.225
283.157
303.15
303.15
284.384
284.018
283.266
284.262
284.216
292.383
284.298
303.15
283.15
297.936
283.15
303.15
301.41
290.521
284.963
285.089
289.677
303.028
303.15
285.407
283.735
283.15
303.15
283.15
283.15
283.15
283.15
291
284.817
283.15
283.16
284.753
283.15
303.15
303.15
283.15
283.15
290.781
283.151
290.05
288.186
283.712
283.354
286.826
283.15
283.15
283.037
303.15
303.15
297.041
283.165
292.676
283.145
283.15
283.98
283.15
283.15
283.151
303.078
289.723
290.612
283.15
283.357
303.102
283.15
303.15
283.15
302.541
283.15
284.835
283.15
283.59
303.064
283.147
283.15
291.011
283.15
284.678
283.156
291.148
285.216
303.15
283.843
283.15
283.15
283.291
284.194
284.503
283.15
283.15
286.295
283.15
283.15
284.125
283.426
300.527
283.466
299.909
290.685
283.15
303.281
292.399
283.15
283.15
283.15
303.15
283.159
283.868
283.877
283.151
283.159
289.181
283.155
283.15
283.15
303.055
290.112
283.152
288.402
283.15
286.325
283.15
301.777
283.15
284.206
297.523
283.15
303.15
283.2
283.15
303.15
283.896
300.1
303.063
303.15
283.15
283.15
303.152
300.601
283.15
283.15
283.15
302.212
297.837
303.141
283.15
303.162
303.15
283.15
303.162
284.684
283.15
283.15
283.15
283.159
283.15
283.15
283.15
283.15
283.15
283.21
283.15
283.15
283.15
283.15
283.15
285.016
283.177
290.683
285.957
283.149
283.145
283.15
283.078
283.15
283.15
283.15
283.15
289.796
283.15
283.122
283.15
283.15
287.795
291.568
283.496
283.343
283.15
300.772
283.15
301.706
283.15
303.15
283.208
286.166
283.15
283.15
284.616
286.951
303.15
303.15
301.855
283.15
303.025
283.155
283.15
287.516
303.147
284.401
288.061
303.15
294.815
283.15
283.15
283.15
283.15
283.144
283.15
283.15
286.275
300.945
303.15
285.586
283.15
290.758
303.15
303.15
294.695
301.707
303.15
293.574
283.15
283.781
283.15
283.15
283.347
303.15
302.946
283.153
285.064
283.15
283.15
292.395
299.954
283.167
283.15
282.903
294.515
303.148
283.15
303.143
303.15
300.186
292.943
283.15
283.15
283.15
283.15
295.907
285.428
283.224
296.141
283.15
283.158
303.165
293.04
284.162
303.15
283.15
283.15
284.273
283.15
283.15
287.759
283.15
303.143
285.1
283.15
293.177
283.15
283.15
283.15
303.142
283.15
283.137
286.248
303.15
283.15
303.165
283.18
283.151
289.647
303.137
302.985
283.175
303.15
283.15
303.165
302.25
283.15
283.15
283.15
303.151
303.115
283.15
283.15
283.15
283.442
286.231
303.091
303.15
287.344
289.116
283.506
283.171
283.15
283.152
303.15
283.15
303.122
303.15
302.507
283.154
283.152
303.114
283.15
283.15
284.181
302.819
302.304
283.15
293.559
303.106
291.222
283.15
303.15
303.117
302.742
285.494
283.449
303.15
283.328
283.16
299.952
301.192
286.899
283.15
288.849
288.432
303.15
286.817
285.152
303.15
289.224
303.15
283.15
284.709
302.697
286.167
286.122
283.15
283.15
303.029
283.15
283.23
283.661
283.639
284.236
303.15
303
302.838
286.142
283.15
283.155
283.15
289.388
283.15
283.166
303.15
283.15
283.15
283.15
283.15
283.157
283.15
283.15
283.15
283.15
283.15
303.15
283.15
283.838
283.15
283.151
285.256
283.185
303.116
303.159
292.893
295.312
283.15
283.26
283.19
283.145
303.15
303.161
300.24
283.15
303.235
283.15
303.15
283.158
286.853
283.186
283.15
283.567
283.15
283.15
287.314
298.949
303.064
283.15
303.15
291.257
283.15
283.08
283.147
287.391
298.388
303.149
284.63
283.15
283.15
283.15
303.151
283.15
287.271
284.81
283.15
283.15
283.724
283.094
303.158
303.15
303.15
283.15
283.161
283.15
303.15
303.15
283.15
283.15
283.15
287.376
285.331
303.15
283.15
301.538
303.15
283.159
283.203
294.286
303.15
283.17
283.15
283.15
287.388
303.15
303.15
285.188
283.15
283.15
283.15
303.15
303.15
283.15
285.071
301.095
283.15
303.15
283.154
303.15
303.15
283.15
283.15
283.15
283.15
283.15
283.15
283.15
303.15
283.15
286.789
303.15
283.15
283.15
283.15
303.15
303.15
303.15
283.15
283.15
302.834
283.15
283.15
283.15
287.358
291.516
301.05
303.15
303.15
283.15
303.105
286.649
284.788
303.15
303.148
283.15
283.15
299.445
285.382
303.15
303.15
283.355
303.123
303.15
303.15
283.15
283.258
303.15
303.15
284.873
298.688
283.15
303.15
283.859
283.15
283.15
283.285
283.164
303.15
283.528
303.15
303.15
282.847
284.481
289.92
283.15
303.15
303.135
301.846
293.828
299.934
301.439
284.015
283.226
298.576
283.15
303.15
301.143
283.263
283.15
283.437
287.966
303.15
283.553
283.397
283.35
283.365
283.15
303.15
283.15
286.903
283.15
283.15
286.283
283.15
283.15
283.15
283.15
283.15
283.15
283.608
283.15
283.701
283.15
283.15
283.502
284.591
283.15
303.15
283.671
287.263
303.164
283.642
283.15
283.15
283.15
283.15
283.15
283.15
283.15
283.15
283.15
283.15
303.148
283.15
283.15
287.01
303.15
303.152
283.386
283.15
287.954
293.377
283.15
283.15
302.97
285.734
302.645
283.152
285.567
283.15
283.578
290.446
303.123
289.064
302.761
283.15
283.288
286.75
283.155
291.851
284.995
303.109
283.15
296.844
302.956
303.151
283.15
303.148
303.049
291.517
302.606
283.15
303.15
303.15
293.317
290.378
283.157
301.308
284.541
283.842
284.294
303.145
283.658
283.15
283.15
283.15
302.628
303.155
294.217
302.936
303.174
300.172
303.201
302.965
283.15
283.15
302.958
283.15
303.15
283.15
303.15
283.23
297.94
283.166
283.281
283.15
285.965
303.064
283.15
283.15
303.065
283.15
301.479
303.148
303.098
283.15
283.15
283.58
301.282
283.15
301.719
291.767
302.27
303.14
283.15
283.15
283.15
301.915
283.15
301.958
303.15
283.15
302.929
285.298
283.859
302.321
283.15
302.21
302.207
283.15
302.283
303.054
303.196
302.284
303.15
283.15
283.31
298.028
303.105
303.15
283.15
285.225
303.15
283.15
283.15
303.185
303.162
302.165
301.422
284.347
303.117
290.645
283.15
303.148
283.175
303.16
283.15
283.15
283.15
300.429
298.834
284.4
284.614
299.943
283.15
284.242
299.609
293.284
303.151
293.414
296.235
283.154
299.754
283.15
303.15
283.15
299.592
303.15
283.15
303.169
300.816
303.15
286.378
283.165
302.767
287.652
283.15
283.15
299.234
300.47
283.88
283.15
303.15
283.15
296.829
284.578
283.15
283.819
283.281
288.545
283.15
283.159
284.193
283.15
283.178
285.58
283.494
293.993
287.817
283.15
303.158
283.284
303.146
283.15
300.905
283.152
283.154
283.15
283.885
301.464
283.15
283.15
283.15
302.966
283.156
283.109
288.059
299.812
303.15
283.423
303.05
283.15
302.844
303.15
301.591
284.805
283.15
302.262
303.15
283.645
283.15
285.288
283.15
285.501
303.189
303.149
283.15
283.15
283.177
303.15
293.57
303.15
303.155
295.19
303.437
303.15
283.15
303.15
303.15
293.756
284.287
303.15
287.139
283.361
287.9
303.15
303.15
285.934
283.358
289.925
303.205
303.15
303.148
285.248
283.315
283.15
284.241
287.301
303.15
283.167
303.15
303.15
303.132
286.982
303.15
303.15
283.276
303.152
302.749
287.388
283.152
283.681
296.802
290.994
303.15
283.161
283.15
283.15
283.15
302.302
283.15
283.492
303.15
303.15
283.884
303.17
303.009
283.23
303.008
283.389
283.15
283.15
283.15
283.221
283.15
302.737
283.15
303.15
283.825
286.312
303.125
283.176
303.15
283.158
283.15
283.15
303.15
300.073
299.888
283.332
283.341
302.275
283.15
301.079
303.15
301.706
302.013
303.15
303.15
283.15
294.369
283.15
283.15
303.15
283.151
283.367
303.15
283.15
298.332
288.444
303.15
302.822
283.15
292.26
284.288
303.162
283.15
296.983
283.15
303.124
302.88
287.199
299.167
283.15
283.15
286.93
283.15
303.012
303.151
303.15
303.164
294.097
297.151
302.902
289.719
303.15
283.15
303.15
303.08
302.187
303.15
283.99
287.089
303.15
285.291
303.114
303.15
303.12
303.155
286.34
285.718
283.295
286.83
283.15
303.15
283.15
292.499
295.011
293.539
303.142
303.15
283.15
303.186
283.153
303.186
303.15
303.15
303.143
303.15
284.898
303.15
284.207
303.148
303.15
290.116
303.145
285.067
288.759
303.141
283.461
283.15
283.42
303.139
302.89
284.171
283.15
283.15
303.15
285.379
302.939
283.406
302.991
297.983
286.922
303.15
283.15
287.635
299.354
283.15
283.686
303.15
303.145
303.186
283.15
303.15
291.849
283.558
303.191
303.15
284.809
283.15
285.598
283.15
302.644
283.161
283.15
303.15
283.232
286.031
301.803
285.818
283.15
283.15
284.494
283.313
303.15
286.734
283.15
283.15
283.15
303.15
283.643
283.15
303.15
283.313
287.389
283.15
283.15
303.15
283.56
283.15
283.15
283.15
301.723
283.15
303.15
283.215
284.92
283.15
283.15
283.15
303.15
283.198
303.15
283.15
303.15
302.945
303.15
288.41
303.15
296.683
283.15
290.435
303.15
283.15
283.15
283.15
283.15
288.469
283.151
303.15
289.258
303.15
283.151
283.15
303.15
283.15
283.15
303.15
283.15
303.15
303.15
283.15
283.15
285.762
283.15
283.15
303.15
283.15
283.15
283.213
283.228
283.444
292.55
283.77
283.15
283.15
286.366
283.15
283.15
303.15
303.15
303.15
283.155
283.391
303.15
302.947
283.15
303.15
301.828
303.15
283.15
301.494
303.15
283.15
303.155
283.15
303.15
283.151
283.444
302.137
300.83
283.15
287.664
284.667
289.034
283.15
303.15
298.817
283.15
283.15
283.175
303.15
299.045
283.15
303.15
283.152
283.15
283.15
283.15
303.15
283.15
301.135
283.151
303.15
298.611
303.15
283.206
283.15
303.15
303.15
302.654
303.149
303.095
290.946
303.15
302.548
288.379
302.848
302.513
296.502
287.667
303.15
303.15
303.15
292.563
301.382