/*--------------------------------*- C++ -*----------------------------------*\
  =========                 |
  \\      /  F ield         | OpenFOAM: The Open Source CFD Toolbox
   \\    /   O peration     | Website:  https://openfoam.org
    \\  /    A nd           | Version:  10
     \\/     M anipulation  |
\*---------------------------------------------------------------------------*/
FoamFile
{
    format      ascii;
    class       volVectorField;
    location    "3.1";
    object      U;
}
// * * * * * * * * * * * * * * * * * * * * * * * * * * * * * * * * * * * * * //

dimensions      [0 1 -1 0 0 0 0];

internalField   nonuniform List<vector> 
111485
(
(2.39886 -2.39844 0.00176607)
(6.80523 -0.0139571 -0.0297372)
(6.75085 0.0110117 0.0170002)
(2.39853 -2.40057 -9.16519e-06)
(6.9869 0.0206099 -0.00170219)
(2.42796 2.42691 0.000545172)
(6.87803 0.0110963 -2.24367e-05)
(7.02534 -0.00432499 0.0113839)
(6.90838 -0.00759699 0.00382441)
(7.02706 -0.0533352 -0.0199739)
(6.79316 0.00644853 0.0156866)
(7.09506 -0.00389721 0.0282601)
(6.72846 5.07591e-05 0.0115706)
(6.7194 -0.0168149 -0.0270671)
(6.83899 0.0177198 0.0136441)
(6.93456 -0.0174359 -0.0247788)
(6.86383 0.0143473 0.00191689)
(2.45479 -0.229915 0.408348)
(7.00206 0.00924972 -0.011078)
(2.38113 -2.37829 -0.0010768)
(2.38355 -2.38285 -0.000984398)
(2.43393 2.43336 0.00149998)
(6.93393 0.00983302 -0.00302422)
(7.00318 -0.032183 -0.00841028)
(6.92347 0.0432966 -0.0164891)
(2.416 -2.40822 -0.00306715)
(7.12137 -0.0130392 0.0343672)
(6.82525 0.00536915 -0.0115835)
(7.02633 -0.000151033 -0.0141469)
(2.3909 -2.39219 0.00223788)
(7.12608 0.134942 -0.0384869)
(6.91204 0.000588938 0.00206971)
(2.37958 -2.38369 0.00331103)
(2.43307 2.43483 -0.00484721)
(2.46006 0.987812 0.405889)
(2.44417 2.46272 -0.0402625)
(7.09426 0.13176 -0.0537256)
(6.78754 0.00665865 0.0537108)
(7.04625 2.12012 0.125811)
(6.98512 0.0236196 0.00817184)
(2.39983 2.42316 -0.0266779)
(7.09292 0.0035491 -0.0392315)
(6.97646 0.0290732 0.012311)
(6.82878 -0.0311347 -0.0124579)
(7.11293 -0.13553 -0.0688577)
(2.41299 -2.3937 0.00841342)
(7.09582 -0.0216812 0.0369931)
(6.9951 -0.0281884 -0.00745397)
(7.09093 -0.00291875 -0.0316791)
(2.38599 -2.36119 0.00962939)
(2.38025 -2.35647 0.0165382)
(2.77272 2.32321 0.0409662)
(2.36707 -2.35685 0.00824936)
(7.09383 0.0225368 -0.0550909)
(2.36188 -2.3526 0.00288886)
(6.95554 0.00776086 -0.00624797)
(6.96586 -0.0190181 -0.00538653)
(2.43126 2.43005 0.00249843)
(6.40109 -0.0207978 -0.0998269)
(7.0057 0.0201025 -0.00203238)
(7.00547 0.0219428 -0.000966595)
(2.39138 -2.39648 0.002747)
(6.51996 0.00837199 0.0318607)
(7.14314 -0.000453694 0.0475019)
(2.51132 2.272 0.0039139)
(6.608 0.00416758 -0.00279578)
(4.98548 -0.449723 0.158131)
(7.01742 -0.0067198 0.00994844)
(6.46002 -0.00139586 0.0130867)
(6.32508 -0.00823587 -0.00938935)
(6.85175 0.05923 -0.0563827)
(6.44798 -0.00751244 0.0159739)
(2.57991 -2.32961 -0.051006)
(6.47445 0.0102541 0.0306615)
(2.39389 -2.39523 -0.000725454)
(6.95599 -0.000972485 0.00466248)
(2.43284 2.43204 -0.00237845)
(7.0886 -0.0122208 0.031316)
(2.43149 2.43179 0.000735941)
(2.18609 2.12217 -0.0741636)
(6.86189 -0.105489 0.0704839)
(7.05225 0.0291598 0.0103086)
(2.42355 2.42071 -0.00100155)
(2.39593 -2.39648 0.000554835)
(6.69623 -0.0057721 0.0075378)
(6.52239 0.0102546 -0.0102728)
(5.47365 3.54093 -0.955392)
(7.00084 0.0671473 0.00529916)
(6.75708 0.173771 0.147438)
(6.78802 0.00349304 0.00793154)
(7.23253 0.116628 -0.0865343)
(7.00507 -0.00643202 0.00916441)
(6.64007 -0.00816518 0.00729559)
(6.7791 0.00721811 -0.00377822)
(7.10365 0.0102636 -0.0349324)
(2.39584 -2.39548 -5.27387e-05)
(2.38951 -2.39036 0.00191451)
(6.99915 0.0666771 0.0201883)
(7.27048 -1.45326 0.0934286)
(6.64139 0.0145873 0.0448159)
(2.3965 -2.39653 0.00358376)
(7.01454 -0.0245485 0.00477609)
(2.44348 2.44946 0.0127371)
(6.97938 -0.0058574 -0.00125568)
(6.86055 -0.0160518 -0.0264655)
(2.38611 2.12148 -0.0522533)
(2.43295 2.43198 -0.00076789)
(6.91223 -0.00291103 -5.049e-05)
(6.62524 -0.0285012 0.000269788)
(6.26015 -0.180888 -0.186306)
(6.79425 0.00430389 0.00259138)
(6.9381 0.00497728 -0.00014406)
(6.5736 -0.00911057 0.0150837)
(6.52448 -0.0258174 0.00177966)
(2.4194 -2.40693 0.00242377)
(6.50824 0.000771409 -0.000240498)
(2.40601 -2.3984 -0.0034251)
(2.44327 2.43303 0.0105515)
(6.82873 0.0135089 0.0116282)
(2.39925 -2.39921 -0.00027654)
(2.41617 -2.40662 -0.00275615)
(3.21897 2.51988 0.154527)
(2.40302 2.41575 -0.00422119)
(2.4377 2.43151 -0.00599806)
(6.74831 -0.02079 0.0327698)
(1.92421 -1.38391 -0.342069)
(3.06784 2.62924 0.0961356)
(6.55079 -0.00309235 0.00890147)
(2.39728 -2.39528 -0.0023552)
(7.08126 0.493791 -0.196405)
(7.07054 0.148356 -0.0849085)
(6.9846 0.0687252 0.0190407)
(2.38361 -2.37551 -0.0114057)
(3.14833 2.73158 0.289206)
(2.934 2.6149 0.126737)
(7.01307 0.00999648 -0.0115078)
(2.43571 2.435 -0.0018001)
(6.91441 0.0101597 -0.00237044)
(6.90876 0.0190454 0.0124566)
(6.80484 0.0169666 0.0201705)
(5.60246 -0.00218511 0.010086)
(6.95933 0.0259955 0.00593309)
(6.90352 0.0225863 0.0154236)
(6.68146 0.00297836 -0.0146428)
(6.96358 -0.00151947 -0.00231813)
(6.81298 -0.0119997 -0.000407179)
(2.43453 2.43592 -0.000824678)
(2.39619 -2.39807 0.00111709)
(2.42792 2.42959 0.00541999)
(6.97729 0.0244162 0.00453492)
(6.6935 0.00721911 -0.012637)
(2.38548 -2.38565 -0.000218375)
(4.66893 -0.0151406 0.0417338)
(6.83883 0.0139736 0.0245728)
(7.50969 0.286999 0.138647)
(7.01099 0.0112884 -0.0100499)
(6.97956 0.0121133 -0.00241126)
(6.64359 0.0109863 -0.0204403)
(7.56606 0.357708 0.0954042)
(2.38333 -2.40509 0.0100082)
(2.39461 -2.39816 0.00193994)
(7.00591 0.00888395 -0.0121462)
(6.87551 -0.0145689 -0.0142108)
(7.61522 0.407732 0.104375)
(7.50731 0.357208 0.142884)
(6.60832 0.00401062 0.0191116)
(7.04588 0.069566 -0.0241607)
(2.40147 2.42219 0.000677844)
(7.70941 0.502797 0.125272)
(7.34739 0.352312 0.123029)
(2.4316 2.43079 0.00263636)
(2.39141 -2.39119 0.00102817)
(5.89406 0.00985384 -0.0280176)
(2.43461 2.4355 0.00115872)
(6.88921 -0.00317429 -0.00270141)
(6.82723 -0.000260838 -0.00284908)
(2.4326 2.37286 -0.0158124)
(2.58446 -2.37858 0.0238751)
(2.38898 -2.37771 -0.00495953)
(2.39824 2.25747 -0.0245544)
(2.59902 -2.40124 0.0418355)
(2.39192 -2.39665 0.00249994)
(6.96497 0.0118393 -0.00701555)
(6.98555 0.00552772 -0.010007)
(6.96034 0.0120505 -0.00285747)
(6.7903 -0.0457623 0.0274408)
(6.67275 -0.0192273 0.00287759)
(6.70691 0.0035519 0.0107365)
(6.04652 0.0602518 0.00609674)
(2.39244 -2.38297 0.00059977)
(6.58029 -0.00580986 0.00112973)
(2.58138 -2.39902 0.0251443)
(2.41271 -2.41558 0.000672979)
(6.73635 0.00371608 0.013717)
(7.03315 -0.0610572 -0.0192232)
(7.0037 0.00243544 -0.0332092)
(6.80775 0.00500651 -0.00710791)
(6.85957 0.00343248 0.00273051)
(2.39113 -2.3859 0.00823434)
(6.80288 -0.0170111 0.00578943)
(6.70483 -0.00530886 -0.0225582)
(4.68051 1.46404 0.205143)
(6.86972 -0.0586143 -0.00291302)
(6.91718 0.00210295 0.000953113)
(2.40256 -2.39189 -0.00502174)
(6.71394 0.00549831 0.0121205)
(7.03386 0.0144291 0.000164876)
(2.61936 -2.37538 0.00828327)
(6.78368 0.00665002 0.0299751)
(7.09118 0.000925965 0.023573)
(6.68144 0.00267299 -0.0145258)
(6.69309 0.00894879 0.0138769)
(2.59674 -2.4085 0.0328317)
(2.38789 -2.38942 -0.00174827)
(6.68945 0.0081264 0.0181909)
(4.36748 2.72618 -0.265428)
(7.15897 0.0179241 -0.0647072)
(2.43218 2.43241 -0.00158482)
(6.71845 0.00387994 0.0198756)
(6.77081 0.00150221 0.00261943)
(7.1115 -0.00689835 0.0417835)
(2.39836 -2.39614 0.00237273)
(6.5478 -0.00245498 -0.00164729)
(7.04244 0.10137 0.0535998)
(3.85181 2.56967 -0.27957)
(2.4346 2.43356 -0.00112474)
(2.4313 2.4316 0.00190966)
(7.20806 -0.0218456 0.0705124)
(6.74863 0.152047 -0.0107223)
(2.55908 2.1523 -0.0522228)
(2.9601 -2.30326 0.0891337)
(6.78286 0.00236208 0.00601121)
(6.89427 4.70281e-05 0.00191721)
(6.96503 0.00825509 0.0100408)
(2.5214 2.18269 -0.0624316)
(2.51884 -2.32805 -0.00859496)
(6.80567 0.0915712 -0.10925)
(2.39481 -2.39534 0.00246011)
(6.53707 0.00158153 -0.0271172)
(6.73009 0.00294208 0.012797)
(6.77476 0.00289685 0.00886592)
(6.76422 0.00404387 0.0111837)
(6.77699 0.0024816 0.0141191)
(2.42434 2.42546 0.00951373)
(5.19888 -0.0153291 -0.17891)
(6.80135 0.014301 0.0133928)
(2.42068 2.42718 -0.00601084)
(2.43234 2.43661 -0.000392697)
(7.13432 -0.0674419 -0.00142507)
(6.93202 0.0263543 -0.00310806)
(2.48986 2.11474 -0.0688341)
(6.68533 -0.0104463 -0.00682813)
(6.79937 0.00757808 0.0131693)
(2.39726 -2.39686 -0.000990619)
(3.08827 2.91145 -0.0175933)
(7.03613 0.0808914 -0.035068)
(2.40656 -2.378 -0.00157605)
(2.65169 -1.90847 -0.0508075)
(3.6207 -1.28728 -0.122912)
(2.40041 -2.39476 -0.0015721)
(6.85116 -0.00365824 -0.00223034)
(6.7364 -0.0190253 -0.00303215)
(6.8658 -0.000186273 -0.0129662)
(2.39443 -2.39451 -0.00114058)
(6.83184 0.00836004 0.0118822)
(2.40023 -2.40062 -0.00172455)
(2.39783 -2.40027 0.00142411)
(2.39127 -2.38232 0.00410145)
(4.87039 0.0212528 -0.0606038)
(7.08719 -0.0156324 0.0301248)
(6.71978 0.0177623 0.019355)
(6.83276 0.014583 0.0122124)
(7.07492 -0.024809 0.00061965)
(6.82051 0.00997344 0.00973251)
(6.9472 0.0169081 0.00698591)
(7.08729 0.10957 0.00094808)
(6.88315 -0.000510744 -0.00152111)
(6.89269 -0.00139371 0.000410774)
(2.47696 2.43593 -0.00232116)
(2.38716 -2.38973 -0.00230968)
(4.44876 0.0253994 -0.0959595)
(6.92174 -0.00215173 0.00131914)
(7.04957 0.0517732 0.0588162)
(6.78863 -0.00203674 -0.00224054)
(2.39839 -2.39828 0.00292154)
(6.90949 0.0145896 0.00609777)
(6.95127 0.0271316 0.0114311)
(6.8429 0.00676392 0.00756095)
(6.24917 0.0045006 -0.042553)
(6.35929 -0.0628722 -0.138531)
(6.92061 0.0129569 0.00125218)
(6.82436 0.00989365 0.0110031)
(6.9982 0.0669709 -0.0430211)
(2.43171 2.43462 0.00472748)
(6.53503 0.0255839 0.00351648)
(2.43284 2.43268 0.00015423)
(1.95934 1.46461 -0.327021)
(2.68998 -1.75409 -0.170478)
(7.26251 -0.0482102 0.108895)
(7.07711 -0.0250566 0.000376298)
(6.91367 -0.00887317 0.00416353)
(2.39709 -2.39345 -0.0014962)
(2.42282 2.43602 0.0183994)
(6.88965 0.0145981 0.00978505)
(6.77843 -0.00283891 -0.00305177)
(2.38888 -2.38767 -0.000781253)
(2.39776 -2.39636 0.00394461)
(2.34512 -2.35931 0.013573)
(6.72878 -0.000103154 0.00232361)
(6.87794 -0.00719891 -0.00371046)
(6.65926 0.000821301 0.0130899)
(6.56813 0.00388123 -0.015092)
(7.03217 0.0143704 -0.0121655)
(2.79366 2.39263 0.0644683)
(2.42841 2.43361 0.00398534)
(2.39589 -2.39266 1.71568e-05)
(6.87291 0.0155711 0.0108085)
(4.5502 -3.86229 -0.278039)
(6.68746 -0.00812369 0.0129543)
(7.21344 -0.031544 0.157119)
(5.85993 0.0074775 -0.100878)
(2.43235 2.43729 0.00054654)
(2.39569 -2.3969 0.00166991)
(2.39667 -2.39799 -0.000925775)
(3.08053 2.57425 0.164669)
(6.95072 0.0120626 0.00145544)
(7.04022 -0.0270496 0.0107211)
(2.43691 2.44362 0.000782732)
(6.93018 0.00786147 -0.00374432)
(2.57422 2.07001 0.151557)
(2.39989 -2.3681 -0.000413292)
(7.15808 -0.00670816 0.0501185)
(6.90321 0.0110921 0.00919639)
(7.08297 0.00376446 0.0164163)
(6.92833 0.0114478 -0.00678681)
(2.33878 2.06348 0.129562)
(3.05075 2.61535 0.17469)
(2.42826 2.42978 -0.00426742)
(6.91668 0.0130104 0.00807732)
(6.87188 0.00653476 0.00184355)
(7.10736 0.142442 -0.0520191)
(2.40558 2.39635 0.00382571)
(4.85597 4.29474 -1.0355)
(6.68989 0.0546091 0.0687099)
(7.05088 -0.0176711 0.0147547)
(6.89926 0.0191542 0.0100152)
(6.64277 0.657201 -0.0524205)
(7.03533 0.00800195 -0.0161056)
(2.42575 2.42293 0.00237034)
(7.03127 0.0111122 -0.00929033)
(6.7915 0.00659418 0.00847976)
(7.15896 -0.149469 0.00568534)
(7.17842 -0.0278166 0.0828811)
(6.8794 -0.0364522 -0.0348023)
(2.42106 2.43362 -0.00833066)
(2.38919 -2.39292 -0.00216152)
(2.43764 2.42108 0.0099613)
(2.37904 -2.38484 -0.000591431)
(7.01194 -0.0180506 0.00467397)
(6.93674 0.00533046 -0.00170465)
(7.02118 0.0177462 -0.0231656)
(7.03559 0.00703243 -0.0172387)
(2.41124 2.41577 -0.00974245)
(6.95516 -0.0325224 -0.0103434)
(2.43072 2.43136 0.00395808)
(2.38884 -2.39487 -0.0009832)
(7.02975 0.0118783 -0.0131457)
(2.21083 -2.21185 0.0303694)
(3.92155 -0.776745 -0.0571426)
(2.36752 -2.35869 0.000246188)
(2.45194 2.42107 0.0196948)
(6.98673 0.00306855 -0.00724163)
(2.43155 2.42943 0.000965049)
(6.85604 0.00397417 -0.00162278)
(6.63456 0.00751835 -0.0159495)
(2.43785 2.43821 -0.000500849)
(6.45412 -0.000925166 -0.0171639)
(6.86525 0.00636548 0.00375306)
(2.45027 2.1434 -0.0805398)
(6.80738 0.0197832 0.0295286)
(6.63216 0.0163328 0.0117224)
(6.85031 0.0142763 0.00925371)
(6.43385 0.0202178 0.0774742)
(6.8481 0.00737317 0.00652169)
(6.75775 -0.000598003 -0.00321187)
(2.40392 2.04508 -0.00710991)
(2.38836 -2.38207 0.0127821)
(5.9829 0.00734855 0.126356)
(2.41582 2.42198 -0.0132438)
(6.86343 0.0225413 0.028687)
(7.16548 -0.0208682 0.0636667)
(2.44579 2.33241 0.0201095)
(2.42586 2.43627 -0.00295072)
(6.97741 0.00218976 0.00387296)
(6.76736 -0.02161 -0.0495508)
(6.78181 0.0249671 -0.00330154)
(7.03322 0.0316195 -0.013014)
(2.43378 2.43143 0.00179258)
(7.20011 -0.000712104 0.109999)
(7.06923 -0.011196 0.0278112)
(2.44141 2.43702 -0.00116716)
(6.92955 0.104683 0.0873169)
(6.62218 -0.0156361 -0.0523521)
(2.39301 -2.39065 -0.000839721)
(2.3887 -2.38629 -0.00235551)
(6.8261 0.00411517 -0.00172795)
(6.93178 -0.00236565 -0.00856481)
(2.44081 2.44162 -0.00418358)
(2.39323 -2.39054 -0.00488011)
(4.17926 -2.27532 0.513138)
(2.39774 -2.39905 0.000834383)
(6.96506 0.00640664 0.00793738)
(2.41667 2.42393 0.00410388)
(2.39737 -2.39967 0.000591534)
(7.08457 0.00525896 0.0208364)
(6.46813 -0.0653352 -0.170977)
(7.02492 -0.0374671 0.00559287)
(6.81278 -0.00995315 0.0070358)
(2.4397 2.43699 0.00118273)
(3.16773 2.43182 0.12454)
(6.80004 0.0812647 0.129059)
(2.96621 2.6102 0.142903)
(6.78345 0.0210035 0.0451221)
(6.75974 -0.0559588 -0.000676488)
(7.03556 -0.0313257 -0.0180478)
(4.91856 0.136086 0.195581)
(2.91387 2.50482 0.131215)
(6.92464 -0.00245472 -0.0685723)
(7.15683 0.226848 -0.0562912)
(2.39549 -2.3977 0.00315884)
(7.10474 0.00883168 -0.0642502)
(7.08398 -0.0184481 0.0240137)
(2.39879 -2.39725 0.00343076)
(6.87647 0.37453 -0.197084)
(6.08715 0.00104377 -0.0639421)
(3.0813 2.41256 0.104279)
(7.0649 -0.00680691 0.0240923)
(7.00257 -0.000239778 -0.00547083)
(6.84474 0.00611038 -0.00603596)
(2.43502 2.429 -0.00019275)
(6.81161 -0.0157169 0.0538441)
(7.09783 0.00961242 0.0178431)
(6.78583 0.0461916 -0.0134438)
(4.38621 -0.0633347 0.0599862)
(2.97127 2.79552 -0.0555552)
(4.11373 -0.104279 0.132891)
(2.39491 -2.39796 0.0029781)
(6.41631 -0.208765 -0.190703)
(6.80597 -0.0184616 -0.0603071)
(2.43441 2.43125 0.00398584)
(6.63144 0.0139351 -0.0345861)
(5.53906 -0.0115228 0.085643)
(3.17077 2.79788 -0.026639)
(2.39524 -2.39416 -0.000205234)
(2.79924 -2.38721 0.0765348)
(2.39816 -2.39759 0.000465885)
(6.88817 0.0571829 -0.0149229)
(6.84055 0.0240074 -0.00706302)
(6.88661 -0.00871806 -0.00909016)
(6.53363 0.00583382 -0.0153931)
(7.04688 -0.120878 -0.0226212)
(2.43114 2.42043 -0.00352516)
(6.85564 0.0037121 -0.00419637)
(2.40448 -2.38338 -0.000162458)
(6.76804 0.01496 0.0139214)
(2.44013 2.44019 0.00104599)
(2.3963 -2.39492 -0.000146199)
(2.36904 -2.3753 -0.00459463)
(6.75092 -0.0304201 0.0076418)
(2.3854 -2.3926 -0.000959013)
(2.39771 -2.39853 0.00187838)
(2.40203 1.56952 -0.10106)
(2.39968 -2.39983 0.00126968)
(2.40448 2.43797 0.0221523)
(6.83408 -0.0343463 -0.0171004)
(2.43168 2.42854 -0.000714926)
(2.89063 2.12386 0.000869072)
(2.43551 2.4342 0.00309521)
(2.388 -2.38022 -0.000379412)
(2.43407 2.42274 -0.00559274)
(2.38772 -2.37439 -0.0113396)
(2.41776 2.42066 -0.000728337)
(6.32515 -0.00926654 -0.0244971)
(2.43777 2.42479 0.00973068)
(6.39631 0.0812534 0.125762)
(6.98432 0.0236711 -0.0105949)
(7.19287 -0.273134 -0.0418607)
(2.435 2.42743 0.000225769)
(6.08964 0.0125511 0.0911302)
(2.43764 2.42884 0.00164307)
(2.39882 -2.39821 -0.000346883)
(6.82194 -0.046845 -0.0543466)
(6.84575 -0.0396491 -0.0534942)
(6.88541 -0.0053736 -0.0116518)
(7.22365 -0.00199108 -0.116221)
(2.80936 2.35223 -0.074393)
(7.0435 -0.00544186 -0.0338877)
(7.03926 -0.0070795 -0.0316774)
(6.86645 0.000490493 0.00111402)
(6.84184 -0.000578094 0.00287477)
(6.93286 -0.052882 -0.0308213)
(2.38827 -2.38946 -0.00031538)
(6.86762 -0.00130048 0.00299692)
(3.2043 2.78695 -0.0197179)
(6.95028 0.00815726 -0.0106169)
(2.42827 2.42643 -0.00218171)
(7.06953 0.000732412 -0.0245769)
(3.16236 2.61997 0.0257032)
(6.89317 -0.00583005 -0.00604717)
(7.01668 -0.0248625 0.0202368)
(2.75611 -1.42853 -0.0149133)
(2.43215 2.43446 0.0260414)
(6.84318 0.00159186 0.0198264)
(2.39529 -2.39435 -0.000559275)
(7.09594 0.0170703 -0.0445532)
(7.04599 0.0185327 -0.0263115)
(2.43001 2.42415 -0.0201993)
(2.42414 2.42588 0.00475609)
(2.38055 2.12143 -0.0516561)
(2.43107 2.43412 -3.01024e-05)
(4.93962 -0.267669 0.134505)
(7.10082 0.0147242 -0.0370029)
(2.46959 2.41139 -0.00203452)
(2.42833 2.43013 0.00146793)
(6.27687 0.000868885 -0.00272008)
(2.434 2.43611 -0.0018987)
(6.99317 0.011133 -0.0215342)
(2.43219 2.43382 0.00279835)
(6.92896 -0.025362 -0.023797)
(2.39838 -2.39799 0.00112415)
(6.50383 -0.0293522 -0.0731754)
(5.62927 -0.0189313 -0.0107227)
(6.68995 0.00724842 -0.00439465)
(6.89146 -0.00262171 -0.00886991)
(2.44377 2.42153 -0.00531677)
(6.68087 0.0104985 -0.0206813)
(2.43871 2.43019 0.00255667)
(2.43567 2.43442 -0.00778982)
(6.89861 -0.00598098 0.00499469)
(2.43101 2.42836 -0.00157592)
(5.99558 5.15969e-05 -0.0462699)
(2.34905 2.16025 -0.067027)
(7.00308 0.0123802 -0.0202858)
(2.38906 -2.38832 0.000651828)
(7.06675 0.00586911 -0.0136308)
(2.40073 -2.397 -0.00130562)
(2.90717 2.55927 0.0774452)
(7.18246 0.270943 -0.0221528)
(6.8433 -0.0476133 -0.0523759)
(6.968 0.0172233 -0.00108466)
(6.99431 -0.0550283 -0.0382057)
(6.9421 0.00230114 -0.00930964)
(7.0687 -0.0287652 -0.00353339)
(2.41588 2.43675 -0.0125942)
(6.96183 0.0329734 0.0257452)
(6.86949 -0.0538715 -0.0483003)
(2.43458 2.43402 -0.00194034)
(5.9154 -0.0869397 -0.194164)
(7.14032 -0.0657153 -0.0377936)
(6.84318 0.0177409 0.022134)
(2.40271 2.37064 -0.013057)
(3.01384 0.557353 -0.490868)
(6.71792 0.00958445 0.018017)
(5.62148 -0.0240414 0.0445766)
(5.68864 1.44725 -0.00731792)
(3.08898 -1.60285 -0.122456)
(7.06085 -0.0610409 -0.0114759)
(6.64916 0.0160771 0.0396268)
(6.83252 -0.0495872 -0.0541777)
(6.97894 -0.0241077 -0.01282)
(6.80855 0.0256367 0.0190414)
(6.12093 0.780842 -0.0238528)
(3.02316 2.55251 0.0227771)
(6.23898 -0.23967 0.0535011)
(6.04018 -0.53601 0.115357)
(2.39304 -2.39548 0.000446662)
(6.27831 0.0326776 -0.00964118)
(2.44404 2.40054 -0.0137985)
(2.85926 2.60161 0.0232332)
(6.90894 0.00254032 0.0022203)
(6.16502 1.01224 -0.0103525)
(7.44704 -0.644837 -0.124346)
(6.72852 -1.17476 0.0125638)
(2.85674 2.71376 -0.206978)
(7.02954 -0.027136 -0.00962672)
(6.93517 0.0350207 0.0296025)
(2.42952 2.42112 -0.00136111)
(3.15197 1.72634 -0.071605)
(6.93528 0.0438404 0.0289807)
(2.39829 -2.38973 0.00213651)
(2.43106 2.42939 -0.000904354)
(2.42493 2.42414 0.000458306)
(2.43641 2.42 0.00226209)
(7.02359 -0.0562748 -0.0206353)
(2.43248 2.43175 0.00108321)
(2.4045 -2.40355 0.0113742)
(6.90708 -0.0270976 -0.0248936)
(6.61555 -0.000443368 -0.00297987)
(3.50198 -3.07271 -0.166536)
(6.93158 0.042302 0.0307688)
(2.84389 2.2829 0.0562121)
(6.89613 -0.0099696 -0.00753404)
(2.34865 -2.34952 -0.0104832)
(2.42708 2.43153 -0.00163324)
(7.01757 -0.0300581 -0.0105667)
(2.43316 2.41851 -0.00728387)
(2.43305 2.42685 0.000483853)
(2.79604 2.67394 0.0744597)
(6.75166 -0.014088 0.00841716)
(4.03818 3.37608 -0.449663)
(6.92427 -0.0161263 -0.00667145)
(6.90832 0.00153612 0.00032527)
(2.3748 -2.35861 -0.0178878)
(7.23184 -0.005882 0.225495)
(6.5832 -0.0293429 -0.078563)
(6.90501 -0.00510531 -0.00639606)
(7.0045 0.12314 0.0153241)
(7.04792 0.0570031 -0.157452)
(6.18109 -0.00414157 -0.0373083)
(2.42815 2.42736 0.00193382)
(7.04439 0.00207221 0.0225138)
(6.97161 0.021363 -0.00693171)
(2.37327 -2.40352 0.00319916)
(6.67264 0.00675181 -0.0147123)
(7.05111 0.0438964 -0.00967114)
(7.03269 0.0231455 -0.00935132)
(6.66975 -0.0287861 -0.0441349)
(7.03153 0.0223127 -0.0118233)
(7.03175 0.0324738 -0.0022992)
(2.39857 -2.36763 0.0150625)
(7.06887 0.00240131 0.028124)
(5.96124 -0.0355802 -0.0225388)
(2.94192 2.54924 0.164032)
(7.03213 0.0138547 -0.0178039)
(6.76651 0.00608973 -0.0065068)
(3.93733 3.19535 -0.486283)
(6.90842 0.00137746 0.0016935)
(7.04023 0.00963267 -0.0207739)
(6.76929 0.00333052 -0.014611)
(6.98123 0.0250929 0.000865294)
(6.89706 0.0651928 0.0298834)
(6.90952 0.00242466 5.46206e-05)
(2.37824 2.32309 0.00288798)
(6.9813 0.0304966 0.00250624)
(6.57365 -0.0360513 -0.0673577)
(2.67576 -1.63041 0.0529448)
(6.94912 0.0587036 0.0343378)
(6.86825 0.0548248 0.0553177)
(6.90287 0.00824284 5.06665e-05)
(2.42871 2.42219 0.00164875)
(6.77217 0.0294935 -0.055386)
(2.39749 -2.38558 0.00800736)
(2.43173 2.43077 -0.00179276)
(2.41943 2.40313 -0.000522144)
(2.43873 2.42535 0.00269131)
(6.08629 0.00109016 -0.0115764)
(2.91389 2.49906 0.106128)
(5.28165 -0.379536 0.424777)
(2.38101 -2.38459 -0.00125952)
(2.42583 2.46233 -0.00507974)
(6.96031 0.0618697 0.0364735)
(7.00039 0.00754009 -0.030138)
(2.39682 -2.39745 0.000953018)
(7.02311 -0.0327637 -0.00169444)
(2.39718 -2.39429 0.00818367)
(2.3976 -2.39605 -0.000396321)
(2.35639 -2.35954 0.00678579)
(7.10622 -0.0390585 -0.0029289)
(6.1162 0.0294983 -0.0059726)
(2.88687 2.58522 0.0344565)
(2.41962 -2.39294 0.00564719)
(2.42928 2.43771 -0.00350751)
(2.43241 2.43479 -0.00138687)
(7.18358 0.00721517 -0.0790282)
(6.91345 0.00365319 0.00100572)
(2.89806 2.72386 0.126153)
(7.07779 0.00974222 -0.0348692)
(6.62629 -0.087362 -0.266103)
(2.42779 2.42937 0.0011386)
(7.06183 0.00690046 -0.0309521)
(6.4969 -0.00279665 0.0291917)
(6.81715 0.0243086 -0.0337539)
(2.43525 2.43542 0.000777347)
(2.42913 2.42498 -0.000289042)
(6.81096 0.0213355 0.0206737)
(6.91643 0.00507698 -0.00164957)
(2.88481 2.61916 0.0384789)
(2.42509 2.42445 0.00194031)
(2.45825 2.38335 -0.0101425)
(6.93582 -0.010199 0.000261532)
(2.39625 -2.39624 -0.00288967)
(2.38874 -2.38174 0.00225042)
(2.41804 2.41805 0.00050673)
(7.05771 0.00954305 -0.0282678)
(6.39619 -0.0264951 -0.000400173)
(2.43529 2.43575 -6.70808e-05)
(2.72869 0.517031 0.50109)
(3.0054 -0.371138 -0.0965652)
(6.79621 0.0247138 0.00580041)
(2.43055 2.4348 -0.000976905)
(2.43445 2.42955 -0.00136184)
(7.07572 -0.0700258 -0.00691678)
(6.81162 0.110585 0.0978526)
(2.92754 2.60975 0.129796)
(4.28731 1.35869 0.0949558)
(6.735 0.145427 0.206502)
(6.46888 0.0211133 -0.023616)
(6.8671 -0.000539675 -0.000338165)
(2.51706 2.36036 -0.00430737)
(6.81072 0.0174098 -0.00140657)
(7.05058 -0.0331454 0.0425167)
(2.43621 2.42948 -0.00380691)
(2.38166 -2.33978 0.0032207)
(2.41902 2.42059 -0.000615365)
(2.42772 2.42808 -0.000397957)
(2.43237 2.43735 -0.00235117)
(2.43736 2.43599 -0.000708761)
(7.07484 0.0101916 -0.026254)
(2.39478 -2.3955 0.00318016)
(2.42573 2.42601 0.00133282)
(2.42045 2.39134 0.00248506)
(7.08111 0.0111871 -0.0325775)
(6.91709 0.00400365 0.000253896)
(2.40623 -2.37584 0.0010782)
(2.3674 -2.34562 0.00310449)
(7.1384 -0.0172771 0.0581109)
(6.81659 0.00272639 0.00642643)
(6.80698 0.00534827 0.00849228)
(2.39501 -2.38891 -0.00126599)
(2.42228 2.42858 0.00100337)
(6.81426 0.00353354 0.00592373)
(2.39798 -2.39524 0.000854527)
(6.77069 0.0101746 0.0078081)
(6.80633 0.0102757 0.017663)
(6.82381 0.0117572 0.0107021)
(2.40413 -2.38572 0.00649542)
(2.39708 -2.39992 0.00254744)
(2.39775 -2.39906 0.000289119)
(2.43369 2.43728 0.00157767)
(6.9196 -0.0166738 -0.00922215)
(2.4329 2.43481 0.00371319)
(2.42646 2.42474 0.00273198)
(6.94873 0.0352593 -0.0307203)
(2.39731 -2.39797 0.00198403)
(6.8324 -0.00387108 0.00619318)
(6.31378 -0.061894 0.0135655)
(2.44858 2.36419 0.0127614)
(6.90308 0.00451127 0.00207588)
(3.2887 0.413205 -0.0376517)
(6.87923 0.00454064 -0.000481165)
(7.09667 -0.00886764 0.0134312)
(6.42043 0.0160346 0.0146897)
(7.11861 0.00203863 0.0438878)
(5.18601 0.0997607 -0.200174)
(2.90502 2.3133 0.0507414)
(6.87109 0.00336647 0.00105846)
(7.14274 0.0417271 0.00855346)
(6.88169 -0.00733996 -0.00357938)
(2.4916 2.16026 -0.075533)
(3.19057 0.302877 -0.163458)
(3.74074 -0.309315 0.114617)
(6.87482 0.000971522 -0.00814163)
(2.42565 2.42775 0.00349893)
(6.75564 -0.00933305 -0.0376033)
(6.90498 -0.00383613 -0.00823834)
(6.68294 -0.0458699 -0.0893809)
(2.60992 -1.86962 -0.135446)
(2.39811 -2.39979 0.00128683)
(2.39441 -2.3952 -0.000992172)
(6.91069 -0.00667834 0.00208063)
(2.84013 2.34592 -0.0318419)
(6.74942 0.0138834 -0.00161873)
(2.64213 2.40737 0.0302704)
(6.63209 -0.0113572 -0.0261542)
(6.86064 0.00246834 -0.0038588)
(6.78677 0.00197868 0.00399928)
(6.92011 0.00592367 -0.00378491)
(2.42251 2.42506 -0.000461055)
(2.41284 2.40701 -0.00371689)
(2.57303 -2.33975 0.010184)
(6.89957 0.00609894 0.00174567)
(2.43745 2.43017 -0.00109622)
(2.81932 2.41813 -0.110404)
(7.15884 0.148437 -0.120855)
(2.44059 2.43674 -0.00303435)
(2.41985 2.43019 0.00831226)
(2.38224 -2.37652 -0.00526625)
(2.43548 2.43558 0.00352182)
(6.76094 0.00046983 0.00916892)
(2.48241 2.35653 0.00187832)
(2.43471 2.43151 9.23654e-05)
(5.69972 0.794768 -0.554209)
(2.85759 2.30221 -0.0274689)
(2.42093 2.42279 -0.0191744)
(3.42638 -2.03606 0.11908)
(2.43262 2.42984 -0.00169489)
(5.66828 0.00982644 -0.029934)
(6.85544 0.000912527 0.0020789)
(2.38648 -2.38572 -0.0016907)
(6.76758 0.0156038 -0.031854)
(6.74574 1.06345 -0.141011)
(6.63561 -0.0505752 -0.0913834)
(7.30831 0.257417 0.0104635)
(6.73422 -0.00267249 -0.000503412)
(2.43044 2.41553 0.00547656)
(6.8612 -0.0467442 -0.0554984)
(7.1383 -0.00709363 0.0152976)
(6.62852 -0.0514143 -0.0902125)
(2.39581 -2.39344 -0.00213559)
(7.23932 1.87993 0.510654)
(6.74834 0.00214859 0.00813256)
(3.26117 2.58794 -0.155625)
(6.72493 -0.00158119 0.00104257)
(7.2185 0.0718239 -0.0583988)
(6.92617 0.127322 0.017564)
(6.82396 -0.0122473 -0.0150514)
(6.83425 0.0200905 -0.00270542)
(7.2768 0.0934387 -0.0240524)
(6.86928 0.000494092 -0.0091102)
(6.87091 0.00305787 0.00299597)
(2.41262 2.42011 0.00985872)
(2.42321 2.40697 0.0070644)
(6.77994 0.0116399 -0.00517326)
(6.74177 0.00192078 0.000898579)
(2.4263 2.43281 -0.00162957)
(6.83393 0.00471988 -0.00118241)
(7.08352 -0.0132929 0.00829157)
(6.86762 0.00285448 -0.0022375)
(2.43136 2.40459 -0.00232943)
(6.89697 0.125894 0.0378695)
(2.42654 2.42375 -2.40211e-05)
(6.88029 0.00473036 0.0024308)
(6.87174 0.00924915 -0.00213979)
(2.43194 2.43035 -0.00115169)
(6.6797 0.0240371 -0.0391389)
(6.85757 0.0076426 -0.00153118)
(6.87283 0.114223 0.0189439)
(6.76655 -0.0115018 0.0162927)
(2.48757 2.43764 -0.00320354)
(7.00283 -0.00332688 0.0133857)
(6.89852 0.147915 0.0119516)
(7.25769 -0.184434 0.0483821)
(6.14506 0.073479 0.0298261)
(5.55849 0.0197914 -0.0684245)
(2.43403 2.40936 -0.00401306)
(2.4265 2.4241 0.00437416)
(6.78563 0.0795281 0.0161799)
(2.43317 2.43713 -0.00125091)
(6.12531 -0.00942276 -0.0416894)
(6.77648 -0.0202879 -0.0344194)
(4.1229 0.54016 -0.127374)
(7.54008 -0.496861 0.177038)
(6.64745 -0.30906 0.0837519)
(7.39902 -0.280902 0.0714923)
(2.43326 2.43509 0.000472251)
(3.31297 2.80949 0.0272502)
(6.93666 0.00865044 -0.00731758)
(2.38461 -2.39268 -0.00918243)
(1.34749 -0.937518 0.392863)
(6.90741 -0.109144 -0.0829686)
(2.42257 2.41526 -0.00523556)
(2.43701 2.43186 -0.00111068)
(6.21779 -0.127545 -0.00985169)
(5.06245 -0.328926 0.0708568)
(2.43376 2.43512 0.0009817)
(6.28875 -0.119642 0.00898048)
(2.42398 2.42073 0.00358837)
(2.43184 2.43701 -0.00487471)
(2.39496 -2.39814 0.000727955)
(2.3985 -2.39332 0.00503548)
(2.35214 -2.33187 0.00511154)
(2.3941 -2.38823 -0.00105804)
(6.32695 0.0487414 -0.00783748)
(2.41158 2.39762 0.0013021)
(2.43198 2.43156 0.00131298)
(2.41684 2.43008 0.00295215)
(5.85383 -1.30769 -0.345799)
(6.59595 -0.0419514 -0.105783)
(6.44446 0.0027757 -0.0395784)
(6.93698 0.00565596 -0.00612727)
(2.41753 2.40161 -0.000688507)
(2.44528 2.43264 -0.000753957)
(6.70488 -0.102471 -0.123273)
(2.43175 2.43302 -0.0033492)
(2.43203 2.42697 -0.00184852)
(3.91232 2.21982 0.0824835)
(7.13713 -0.0796269 0.00240082)
(6.94449 0.010771 -0.00280352)
(2.43015 2.42892 -0.00073233)
(2.43046 2.4236 0.00486478)
(2.41695 2.40915 -0.00482863)
(2.4257 2.41875 0.000395425)
(2.4351 2.4319 -0.00175008)
(2.43952 2.4353 0.0015247)
(6.97479 -0.14398 -0.0878314)
(2.43742 2.42968 -0.00122576)
(4.86433 0.0662897 0.157136)
(7.03074 -0.00815977 0.0178398)
(2.43196 2.43617 -0.00093071)
(2.3783 -2.3904 -0.00537904)
(2.36522 -2.33702 0.00022299)
(5.92884 0.0678409 0.319132)
(2.34524 -2.34391 -0.00885513)
(2.39359 -2.39582 0.000260422)
(2.4188 2.42078 -0.0165056)
(6.36283 -0.0989545 -0.00714187)
(2.42353 2.42335 -0.000748513)
(6.9519 -0.0728825 -0.0454854)
(5.6758 0.0778705 -0.0224631)
(4.59103 0.00289174 0.179488)
(2.42254 2.42558 0.000570395)
(4.80006 -1.26095 0.106227)
(7.01686 -0.00570327 0.0153423)
(7.02421 0.00725481 -0.0134577)
(2.56863 -2.45055 -0.0289278)
(6.8102 -0.121464 -0.0222767)
(6.94107 -0.0177176 -0.00206039)
(2.39757 -2.3789 0.00313726)
(2.52027 2.38533 0.00892687)
(3.35743 -2.595 -0.221043)
(2.41369 2.41954 -0.0018599)
(6.93015 0.00530716 -0.00106918)
(6.98967 -0.00145299 0.00702803)
(7.1208 -0.0729677 0.0384815)
(4.68842 -0.00307706 0.253143)
(2.43653 2.43493 -0.00129384)
(6.9299 0.00515865 -0.000344488)
(2.49943 2.37261 -0.00659359)
(3.05349 2.57656 -0.00932829)
(3.20887 -2.50006 -0.107112)
(2.43233 2.43174 0.00118332)
(6.98141 0.00986681 -0.00478711)
(2.42175 2.41943 -0.00065842)
(2.37159 -2.33125 0.00146634)
(6.43466 -0.0763181 -0.14761)
(6.90574 -0.00373171 -0.00143262)
(2.3717 -2.33366 -0.00505606)
(6.93331 0.00119526 -0.00206745)
(2.59246 2.53485 -0.0135652)
(7.01975 -0.0460468 -0.0207562)
(2.28233 2.17332 0.0249342)
(2.43306 2.4323 -6.13198e-05)
(2.44479 2.43763 0.0100668)
(2.39769 -2.39995 0.00167375)
(6.80595 -0.000557447 -0.00342163)
(6.30458 0.00816963 -0.0123065)
(7.05702 -0.0148303 0.155128)
(2.4233 2.4258 1.51784e-05)
(2.41533 2.36765 0.0150028)
(6.7953 0.000353059 0.0010441)
(2.43628 2.43634 -0.00130269)
(2.84824 2.55765 0.0379262)
(2.39578 -2.39465 0.00246744)
(6.79279 0.028321 -0.000386334)
(7.18555 -0.176393 -0.0548188)
(6.97452 0.00643558 -0.00579246)
(2.39052 -2.38596 0.00722742)
(5.57055 -0.0132932 0.145594)
(5.8085 0.00118918 0.144441)
(2.18737 1.91691 0.016731)
(6.27669 0.0781371 0.122982)
(2.43695 2.42363 0.00430728)
(6.70281 0.0410431 0.00252583)