/*--------------------------------*- C++ -*----------------------------------*\
  =========                 |
  \\      /  F ield         | OpenFOAM: The Open Source CFD Toolbox
   \\    /   O peration     | Website:  https://openfoam.org
    \\  /    A nd           | Version:  10
     \\/     M anipulation  |
\*---------------------------------------------------------------------------*/
FoamFile
{
    format      ascii;
    class       volScalarField;
    location    "12";
    object      p;
}
// * * * * * * * * * * * * * * * * * * * * * * * * * * * * * * * * * * * * * //

dimensions      [0 2 -2 0 0 0 0];

internalField   nonuniform List<scalar> 
111485
(
7.89997
0.125041
0.138738
7.89773
0.136339
7.67511
0.11759
0.111953
0.118173
0.15664
0.115986
0.143889
0.12195
0.100405
0.12005
0.147695
0.0594993
8.79012
0.122967
7.89722
7.89641
7.68145
0.116408
0.134509
0.132353
7.86561
0.166512
0.103713
0.137479
7.90298
0.129076
0.0392206
7.90095
7.68893
8.58645
7.65901
0.150249
0.0553076
0.148032
0.132195
7.73901
0.156476
0.132768
0.153298
-0.0217522
7.92308
0.158675
0.130179
0.150981
7.93126
7.9295
7.42156
7.93767
0.144228
7.94251
0.0909879
0.123995
7.7056
0.0821287
0.129555
0.130929
7.90023
0.10499
0.134937
7.71065
0.0999856
5.20144
0.116476
0.0925115
0.11032
0.0890693
0.108475
7.74299
0.0924536
7.91178
0.074794
7.68408
0.146926
7.68023
8.09683
0.105058
0.146192
7.68676
7.90703
0.108735
0.124054
1.96738
0.137208
0.116044
0.0698191
0.0285649
0.126304
0.108362
0.0551756
0.155426
7.90648
7.90071
0.152864
-0.49626
0.261535
7.89905
0.15689
7.68373
0.140963
0.112741
7.9571
7.69762
0.0420298
0.126669
-0.101013
0.0393457
0.109661
0.131259
0.147953
7.8623
0.0705177
7.87935
7.69834
0.0983168
7.89789
7.86446
6.74066
7.68796
7.70592
0.162656
8.94114
6.70549
0.050928
7.90965
0.627381
0.108505
0.152357
7.91196
6.59167
6.87357
0.115979
7.68485
0.075607
0.102361
0.122941
0.123272
0.10725
0.111238
0.137653
0.147108
0.0355104
7.68472
7.90549
7.70645
0.118857
0.134247
7.89442
0.140535
0.00916307
-0.397825
0.11995
0.114488
0.116368
-0.260062
7.91578
7.89795
0.116909
0.12787
-0.221455
-0.337119
0.063285
0.138947
7.73124
-0.18389
-0.15078
7.70142
7.90447
0.137547
7.69187
0.0341642
0.0171808
7.72347
7.72158
7.88128
7.86069
7.69321
7.89688
0.125945
0.121161
0.127416
0.068079
0.153276
0.0810902
0.158639
7.89946
0.0623006
7.71694
7.88952
0.0890313
0.149607
0.153438
0.102952
0.020738
7.91255
0.122142
0.136932
5.40131
0.156802
0.054618
7.90447
0.085315
0.137015
7.71572
0.147071
0.157196
0.134241
0.0675773
7.68596
7.90094
0.081509
5.08269
0.154374
7.69115
0.0843564
0.0792004
0.15744
7.90855
0.07935
0.135465
6.08588
7.69162
7.70186
0.111805
-0.327258
7.77568
7.3214
0.0775726
0.0352235
-0.00126298
7.77355
7.82143
0.136346
7.90997
0.108865
0.0745553
0.075235
0.0630328
0.0743583
7.70352
0.108473
0.0522609
7.70748
7.68692
0.139404
0.108889
7.83139
0.0532165
0.063956
7.90542
6.44273
0.150056
7.90401
8.03301
7.22066
7.89391
0.0656746
0.0654212
-0.0066926
7.91299
0.0607035
7.89799
7.89878
7.91337
0.131223
0.142013
0.10819
0.100619
0.141199
0.101127
0.100942
0.137677
0.0268577
0.0308119
7.63146
7.90484
0.135498
0.0466171
0.0697318
0.0393644
7.89818
0.109255
0.115337
0.101711
0.161525
0.112298
0.0956063
0.100856
0.153798
7.70255
0.138245
7.6921
8.75312
8.09895
0.105131
0.136669
0.119853
7.88612
7.76348
0.0894548
0.045277
7.8939
7.89911
7.94636
0.064472
0.0395561
0.119633
0.121022
0.125389
7.2899
7.70215
7.90807
0.0921725
3.38601
0.105247
0.108598
0.119853
7.68721
7.89928
7.90054
6.86723
0.0927361
0.143002
7.69511
0.0948381
7.82795
7.88079
0.159445
0.0931664
0.143788
0.0945465
8.02833
6.83292
7.69545
0.0924674
0.0221757
0.129809
7.70875
0.708723
0.0650977
0.144612
0.0892931
1.49036
0.124749
7.68166
0.119653
0.0991183
0.11626
0.152376
0.135916
7.69263
7.90937
7.69795
7.90097
0.123593
0.0830839
0.128568
0.129485
7.70863
0.144577
7.69931
7.90736
0.125878
8.14626
6.99525
7.95132
7.65535
0.119329
7.70458
0.0188789
0.147593
7.68015
0.0969893
0.097572
7.89976
0.0955172
0.144939
0.103203
0.151244
0.0446606
0.0409278
8.0351
7.90589
0.1643
7.72023
0.143918
0.148794
7.72092
7.703
0.0915422
0.148516
0.00996955
0.154396
7.68407
0.1286
0.139256
7.6719
0.15123
0.126987
7.90007
7.89656
0.0260787
0.131309
7.68243
7.88319
5.9204
7.89834
0.139142
7.6913
7.8987
0.136162
0.115827
0.160198
0.144035
7.67669
6.88399
0.176312
6.98065
0.154096
0.182509
0.159554
5.37258
7.05301
-0.452952
-0.0432906
7.90036
0.142486
0.142357
7.90682
-0.239691
0.157462
7.01778
0.145163
0.141257
0.0433718
7.67906
0.265616
0.146623
0.0530149
0.0939956
6.68353
-0.359249
7.90531
0.167271
-0.158563
7.70166
0.134966
0.165596
6.50652
7.91174
7.49279
7.89552
0.139774
0.0812545
0.148808
0.149979
0.144075
7.69208
0.0983988
7.91204
0.148967
7.66186
7.90946
7.91961
0.140133
7.90719
7.90083
8.37189
7.89914
7.71073
0.157266
7.70407
7.47312
7.69431
7.88892
7.66971
7.91436
7.68259
0.139944
7.6931
0.152786
0.145931
0.153319
7.6802
0.157789
7.70186
7.8995
0.133172
0.129884
0.180495
0.0975099
7.38332
0.147934
0.13864
0.0302682
0.00184919
0.143482
7.90516
0.00397677
6.51727
0.164535
7.69273
0.142778
6.73521
0.0397559
0.154023
8.29511
7.75898
-0.0157523
7.89348
0.149226
0.142191
7.70997
7.71344
7.96512
7.70006
-0.720315
0.148473
7.66671
7.70907
0.13495
7.68163
0.147175
7.68275
0.153416
7.89991
0.166704
0.168417
0.119288
0.037697
7.65236
-0.120874
7.66788
7.69299
0.15248
7.69397
0.158402
7.97142
0.131606
7.90393
0.171209
7.89624
7.02607
0.124584
0.104802
0.14509
0.156322
0.134814
0.133381
7.70545
0.139484
0.124324
7.68962
0.171087
0.14249
0.153451
7.73698
8.06175
0.155435
0.12797
3.82902
7.73665
0.15268
0.144771
0.155164
0.152819
0.167111
2.70844
6.93498
-0.458026
3.29245
7.89828
0.169869
7.71967
7.05671
0.0604167
2.66629
-0.472053
1.61197
6.93413
0.139922
0.140338
7.6879
7.49745
0.146855
7.89832
7.68127
7.68351
7.67854
0.151794
7.69784
7.86589
0.15985
0.0737136
6.07288
0.0962737
7.36946
0.0741618
7.93643
7.70393
0.148021
7.69165
7.67983
7.02439
0.0474038
4.77361
0.133979
0.0675978
7.90565
0.0136893
0.0944294
0.134406
0.185526
0.48938
0.127542
7.69559
0.149635
0.136738
7.91189
0.0937616
0.157218
0.145257
0.0383217
0.145738
0.144486
7.91962
0.161154
0.146013
7.00393
0.146562
0.174285
4.96732
0.068712
0.146598
0.16636
0.147298
0.156493
0.0638504
7.80939
0.150661
0.157326
8.23415
0.146746
0.13956
0.0681882
7.69602
0.0502684
7.92671
7.68574
7.70626
7.67668
0.1452
7.11453
-0.791568
7.89766
7.62084
0.153684
0.149102
7.89218
0.150665
7.89804
7.90856
7.93912
0.159823
0.168006
7.05234
7.85898
7.69354
7.69532
0.141341
0.0545233
6.87623
0.150824
-0.161131
7.70579
0.157845
0.156484
0.0965228
7.67936
7.69077
0.0983467
0.0634191
6.98888
7.70178
7.66072
0.0709606
7.90793
7.88899
7.69172
0.153054
0.135736
7.68139
8.49001
8.22625
0.160516
7.7064
7.67557
0.144991
0.133133
6.97323
6.03619
1.34768
0.161267
0.00320007
7.64687
0.107075
0.171303
7.70125
7.93599
7.68467
7.69205
7.70086
7.68176
0.170628
7.89896
7.68532
7.72871
0.162671
0.0485001
7.89449
7.94901
0.148164
0.058286
0.0681472
7.88923
7.68636
0.0591992
7.90613
0.140688
0.0516882
0.0765181
7.86815
7.89901
7.89888
7.69542
0.16002
7.68736
7.68351
0.155702
7.89871
0.0921799
0.181276
7.69206
0.0660265
7.86942
0.0828754
0.15161
0.137758
0.152774
-0.99785
7.29189
0.0802411
0.15387
0.00120497
7.8345
-1.80927
7.18825
0.0304874
7.69845
0.149744
0.154711
0.145812
8.08755
7.8996
7.91203
0.0613796
7.3674
-0.00344114
7.50198
0.137676
0.0385307
0.0331162
0.0572657
7.68147
7.69786
7.76383
0.0606796
7.67745
7.29073
0.0763039
7.70379
7.71018
7.90036
7.68546
0.0341526
7.65725
7.69157
-1.28769
7.34997
7.72294
7.09646
7.69053
0.140851
0.0361515
7.8945
0.142683
1.23328
0.14229
-0.126933
0.0524824
7.70298
0.147301
0.172828
0.14372
7.90675
-2.30386
0.0339905
6.55274
0.0180668
0.106485
0.127856
0.0959471
0.04196
0.0877228
0.0413619
0.0479699
7.67491
7.68837
0.0264377
0.0147956
7.70389
0.0295223
0.144798
0.0420774
7.66952
0.108482
7.69454
0.0409034
0.0339623
7.67857
-0.0542417
0.0469607
0.0726141
-0.0163677
7.6287
0.11543
0.0785615
0.161224
0.073778
0.154
7.68392
7.70477
0.165743
7.68498
0.170778
0.120003
6.78263
-0.227715
-0.573401
-0.0629191
7.68545
6.4679
0.0757056
7.90881
9.4379
0.145647
7.66938
7.67626
-0.474506
-0.611502
7.68546
0.108141
7.69195
7.69149
7.91098
7.89907
7.96891
7.90512
0.168907
7.6765
7.70186
7.70911
-1.17913
0.205121
0.119047
0.075904
7.69304
7.67359
0.153076
7.68943
7.6798
5.90967
0.144384
0.0898806
7.68018
7.67173
7.68459
7.67542
7.64566
7.67341
0.129244
7.67948
0.0291873
0.126515
7.69489
7.9098
7.94559
0.104968
7.938
7.8985
7.71032
0.0200509
7.69449
0.135358
0.139686
0.0492321
7.67946
5.37434
0.159973
0.117131
7.6842
0.0351366
0.151384
7.90037
7.64535
6.93654
7.67245
0.0738642
0.11266
0.141852
-0.107172
7.67979
0.0762225
7.62355
6.90167
6.89442
7.70204
0.111013
7.69022
7.95565
0.147267
0.0950263
7.95284
0.159777
7.37599
0.123175
8.02132
7.69245
7.66977
7.89864
0.0475549
0.119783
0.589537
7.68137
7.71934
0.038094
7.68542
7.13982
7.90034
0.143305
-0.117749
0.169869
7.88209
0.144145
0.153955
8.27527
0.154756
7.68153
0.145741
0.142056
0.105721
0.127927
0.0397494
7.68736
7.69224
7.69194
0.143075
7.77095
0.11031
7.91185
0.947245
7.89048
0.12906
0.134444
7.95743
7.68352
7.97391
7.71038
0.108406
7.98172
6.94429
0.0277455
0.115296
7.95489
7.10643
7.75083
7.12689
7.67476
7.68761
0.1182
0.174616
7.89768
7.88298
-0.376685
7.90651
0.118653
0.046047
7.75124
0.155333
7.89886
0.0313159
7.68111
0.137863
7.67785
-0.32349
-0.0714774
0.0800848
0.150054
0.146213
4.81433
7.601
0.159319
7.93288
0.105322
7.89166
7.72475
7.64282
7.70681
7.73123
7.70375
0.136
0.124973
7.89913
6.69745
7.89764
0.140099
0.106195
7.89842
0.115634
0.0807527
7.94605
0.0562667
0.0471939
0.102027
0.0816161
7.68529
7.68858
7.72121
7.68342
0.109524
7.62927
0.159353
7.68846
0.151372
0.142455
7.69842
0.143405
7.69065
7.6845
0.150721
0.125268
2.31219
7.68886
7.968
7.66924
0.113715
7.56143
7.95805
7.58179
1.09528
6.80257
-0.271697
7.09814
7.54649
7.78597
0.044941
0.0269656
0.150246
0.122334
7.89451
0.163134
7.69408
7.70259
0.0391563
7.65068
-0.378319
0.153216
0.0442434
0.151791
-0.70471
0.134242
7.69998
-1.16579
-2.64264
0.15923
0.165349
0.0884249
5.62528
7.89564
0.133237
7.89603
7.67547
0.00487344
0.155618
-0.818107
7.6775
7.52813
0.13897
7.94555
7.67409
0.147761
7.96356
7.95322
0.188497
0.147915
0.113567
0.126186
0.0660138
7.67858
7.68706
-0.0334566
0.10457
7.68335
7.95805
0.172478
7.68493
6.65557
6.83712
6.87291
4.50445
6.682
7.68492
0.153501
7.66417
0.127207
7.67939
3.60045
7.72846
7.69569
7.70064
7.68574
0.152245
7.68587
7.68522
6.98986
7.67364
7.70073
7.68894
0.0998945
7.70298
0.0895946
0.123603
7.69773
0.176863
7.68128
0.144993
0.025503
0.0339686
0.0426281
7.8643
0.0413209
0.148574
0.0753818
7.91001
0.103234
0.0839619
0.0345282
7.39135
0.0281337
7.74
7.69873
7.68044
7.6816
0.0334619
7.69178
7.66841
0.0284573
0.0777084
0.0159171
7.71123
5.54156
0.165631
7.70001
-0.114953
7.94286
0.0291514
7.6691
7.67297
0.129301
7.67542
0.187775
7.90384
7.67905
0.0859563
0.137559
0.0667901
0.115882
0.0974099
0.0938949
7.67961
8.05995
0.129327
0.0732194
0.104578
0.116373
7.68532
0.0898228
7.68412
7.82035
0.121963
0.142764
7.68578
0.068899
7.68677
0.0614656
0.0706623
7.73017
7.68158
7.69543
0.12822
7.69149
7.69148
0.132631
0.0604983
0.157506
0.0332325
7.69968
7.70815
0.154879
0.14525
7.68446
0.127559
7.75557
0.122937
7.68164
7.67993
0.109109
7.68527
0.145148
0.136467
7.68071
7.68171
0.110988
6.55252
0.16028
7.8997
0.143675
7.91048
6.72259
6.50476
0.134978
7.03487
6.96058
0.110653
6.92154
4.36976
6.41967
7.72913
7.89677
0.050463
0.154049
7.72935
7.69136
0.131176
0.141729
7.68473
0.129022
7.68171
7.90157
0.15124
0.13665
0.123696
7.68008
7.6945
7.69156
7.68506
7.66901
7.6723
7.68716
7.67095
7.67528
7.68021
7.69103
7.89808
7.69077
7.67875
7.67777
7.8348
7.67918
7.68244
7.68641
7.71595
7.85355
0.149237
7.69075
7.6797
7.71068
0.115415
7.70656
7.90125
3.10683
7.65983
7.56947
0.108254
8.2731
7.62188
3.62368
0.104101
7.68854
6.80647
7.29455
7.676
0.155392
0.105416
0.103238
0.0920481
0.0847944
7.92063
7.67167
0.0838738
0.0927158
0.0907715
7.68162
0.101567
0.162987
0.112534
0.0343452
0.037319
0.0929286
0.0524775
0.102149
7.92127
0.120557
0.104412
0.135908
0.0973767
7.69401
7.69103
7.6968
7.89898
7.69139
0.0943913
0.1053
7.69635
7.67584
7.67474
7.86654
7.67902
7.89494
7.67691
7.89831
0.107836
0.0085864
0.105873
0.163937
7.64904
7.68227
0.149483
-0.0217556
7.6814
7.68558
0.13876
7.92101
7.68983
0.141845
0.0798456
0.0946525
0.158497
0.152644
7.91812
0.0148088
0.117845
6.94595
7.89588
0.106581
7.91401
7.68487
2.56389
1.47768
0.127252
7.81575
7.88621
0.163383
0.118985
0.0328818
0.09396
3.53526
7.89903
0.174944
8.24
7.90995
7.61605
0.123834
7.67845
0.0957125
0.0112161
0.10576
0.109907
7.91079
0.097114
7.90847
7.51424
7.90545
7.88417
0.0432633
4.60645
7.68573
7.89714
8.36247
0.0949653
6.89923
0.0741462
0.0897134
0.0420911
0.092208
7.87153
7.88311
6.70993
0.13881
0.0773251
-0.666297
7.9356
7.89977
6.86357
0.161342
0.11123
7.68411
0.0199601
2.66095
0.112606
0.0712762
7.89793
6.68742
0.0638813
0.0940482
7.69311
0.16376
0.157411
0.132988
0.0572411
0.0747314
0.0938959
6.94924
0.0498527
0.0793794
0.0760421
8.00545
0.110354
7.03332
0.155587
0.0800954
7.91178
0.0345242
0.0726294
0.074592
0.0984759
8.7543
2.27279
0.152165
4.40018
0.0748381
7.66557
0.0382444
0.0740267
7.8971
7.68685
-0.126047
0.110346
0.102814
8.73148
0.145231
0.0278355
-0.88323
0.122521
7.89649
7.92797
0.0921625
8.34712
0.0867648
0.0156155
0.0735017
0.0480346
7.89572
0.164608
0.092803
7.89088
6.9914
0.0778295
7.91826
0.0708301
0.072042
7.90161
8.77951
0.121326
7.89365
7.6793
7.70329
0.0445023
0.271798
0.13949
7.96122
0.133323
0.0569403
7.7265
0.0598149
0.0490183
0.0420803
0.0999584
7.68324
0.0809361
0.0640973
0.0600848
0.0499108
0.0437025
0.0675041
0.141366
7.89943
-0.0433809
0.0423153
7.89758
0.055871
7.70605
7.69108
7.90888
7.71178
7.89824
0.183567
7.69805
0.0554233
0.130925
7.91137
0.156744
7.85386
0.0379622
7.89788
0.0563456
7.67259
0.126604
0.192146
0.046001
0.0729978
0.0436076
0.140164
0.0453062
0.0701429
2.92261
0.0656496
0.0821118
0.0726071
7.90888
0.109255
0.101349
0.0681157
0.124353
0.0641176
7.91018
6.84482
7.89512
0.137678
7.89549
6.23128
0.0448529
8.39452
0.16747
7.88338
7.87586
7.68554
0.0949027
0.173035
0.0580352
0.151378
0.0413369
0.0857243
0.0940247
0.087987
0.0391603
0.0920732
0.0852518
7.92675
7.65218
7.90368
0.116394
0.0959198
7.70557
7.68539
6.35878
0.106287
0.0429243
7.89486
0.087224
7.89922
-0.177666
0.141772
0.1373
7.89877
7.89973
0.0888805
7.89869
0.15846
0.0619225
7.51272
0.10789
0.125859
0.038997
7.88959
0.100976
7.05156
0.133993
0.136758
7.90062
7.91829
0.0574609
5.63624
7.93506
0.0744389
0.0455427
7.89995
7.87368
7.00709
0.075961
6.3436
0.114612
0.14792
0.154578
7.89996
7.06934
0.144421
7.899
7.69758
7.90484
7.89929
7.1745
7.74263
7.5918
7.89211
7.90291
7.36185
8.39789
7.65933
0.167793
7.66856
6.80084
6.44199
8.89579
6.93442
7.90013
0.149668
7.42213
7.727
0.15409
8.21393
8.56943
7.82096
0.142237
8.36842
0.152549
0.119496
0.167001
7.23212
7.89773
0.15993
-0.20226
7.85256
7.90131
0.118172
7.15457
0.117599
7.08101
7.67593
7.77131
0.116034
0.119324
7.90083
0.146432
7.94315
7.41967
0.0356889
0.0905599
0.152493
7.69783
0.119141
7.26338
0.130845
7.68349
7.89041
7.67933
7.03106
0.084256
0.0908574
7.90684
-0.515617
7.90011
7.91257
7.89978
7.89729
0.148253
0.135131
0.093505
0.217142
7.87133
0.136205
0.112184
0.0816839
0.142065
7.74798
0.0729812
0.16997
0.0839715
-0.174316
0.114985
7.93964
0.105097
0.151056
0.121062
0.152034
0.137762
7.91916
0.144452
7.79593
7.90463
0.100935
7.91201
0.149137
7.90043
7.95366
7.60798
7.89758
7.90745
0.128842
7.89552
0.133558
7.26136
7.69766
0.142558
0.16493
0.0945682
0.124551
7.92337
0.918024
7.90695
0.132168
7.95473
0.136151
0.141629
0.157937
0.149862
7.98374
7.99056
7.89511
0.0798879
7.70847
7.88536
0.0755981
7.6636
7.67735
0.174776
7.98339
0.105458
-0.185075
7.2138
7.52089
7.46038
0.0739616
0.117447
7.89615
0.00913531
0.139848
7.06063
0.157172
7.90204
0.0720682
0.145185
0.0838078
7.89763
0.141425
0.0875465
0.155928
0.166909
0.151428
7.89989
7.89923
0.119798
7.88825
7.68099
7.8999
0.0685173
0.159966
0.0903756
0.0762796
6.94199
0.126119
0.114838
0.117997
0.0697281
0.147853
0.144498
0.154817
7.68505
7.68501
7.68497
0.174225
7.69494
0.119086
5.36418
0.145074
-0.309946
0.0625109
0.0389098
7.67701
7.90297
0.146374
0.145397
7.91515
7.68139
7.91042
0.0700157
0.147167
0.152555
0.15231
0.0416003
0.113197
7.89346
7.90657
7.89959
0.0495544
0.101609
0.00395224
0.123302
0.0930935
0.150982
7.86368
7.8997
6.4269
7.71325
0.0383401
0.153713
7.89453
7.92242
7.91402
7.91086
7.87417
7.73341
0.147229
7.89676
0.141706
0.121931
7.68295
0.150068
0.0296897
0.0782623
7.94821
7.77944
0.147899
7.89895
0.146508
-0.921957
0.0806998
7.68463
6.00941
7.68309
7.89884
7.88896
7.62404
2.28287
7.90338
0.162842
0.0683121
7.90289
7.90023
0.148721
7.89858
7.6913
0.100609
0.0305144
7.88112
7.88136
7.6961
0.0733393
7.89887
7.89893
1.36719
0.135
0.147858
7.8953
7.68212
7.2373
0.1441
0.146914
0.145991
0.117895
7.68076
0.0774179
0.0171446
0.0152147
7.64666
7.90338
7.89963
7.86133
7.89891
0.109488
0.107504
0.0823686
7.92526
7.90361
7.89836
7.89967
7.73874
0.154816
0.115532
0.0211097
7.67711
7.89855
7.96148
-0.730455
0.138685
0.142209
7.69033
-1.69744
8.26046
7.85688
7.89845
0.108496
0.127761
7.89422
7.92228
0.128508
7.90027
0.0762557
0.104977
2.89737
7.88986
7.71976
0.084952
0.136268
7.92308
2.70956
0.0614534
0.155865
7.89627
7.89652
7.91735
7.90856
0.0412798
0.0688915
7.89684
0.145819
0.154715
0.438285
7.89653
7.89227
7.89294
7.89723
0.138307
8.38574
7.89795
7.78566
0.0516427
0.138266
0.0637341
7.86108
7.90641
0.148479
7.64379
7.90011
7.89543
7.8965
0.111454
7.71467
7.66372
7.68097
0.0558003
0.119526
7.88951
7.90629
7.87406
0.125488
8.16021
7.89498
7.87614
7.90699
7.905
0.0376306
0.150452
7.95119
0.122023
0.141967
0.10817
7.91458
7.90985
7.89948
7.86997
7.67769
0.151916
7.89737
7.41136
7.39444
0.151317
7.66993
0.142948
7.89892
7.69633
0.180773
0.521903
7.1041
0.162757
7.8984
0.157286
8.16153
7.90882
7.94137
9.08873
7.89898
0.15529
7.88999
0.116309
7.69777
7.00672
7.91073
7.88826
0.0472316
0.184576
7.6843
2.81051
7.69957
0.0974342
0.1524
0.162969
7.70459
-0.111181
0.128856
0.144812
0.152259
-0.360589
0.12771
7.64814
7.67934
-0.479395
0.0745769
0.152377
7.92542
7.57162
6.45945
3.40799
7.9109
7.67966
7.907
7.91029
7.91301
8.30962
0.17301
0.1324
0.0994623
7.00508
0.124325
7.90665
0.132853
7.8997
7.91721
7.68987
7.72932
0.100609
7.71165
7.69666
7.89614
0.121273
7.89531
7.90243
0.145219
7.87552
5.82989
5.03127
4.70342
7.91194
4.91669
4.75999
4.86678
5.54822
7.67999
7.68017
0.114632
0.145656
7.02929
7.17795
7.67799
0.110485
8.19632
7.76527
0.10366
7.89577
7.89882
0.135179
0.114906
7.87578
7.67727
0.185805
7.06638
7.66516
-0.147602
0.120972
0.161272
7.82787
0.133588
7.90854
0.0847034
-0.15386
0.127851
7.89724
-0.149164
0.132538
7.97838
-0.776916
7.88249
0.123447
7.55208
0.136261
7.82089
0.144889
7.8921
7.63107
7.69689
-1.21316
-1.20622
7.91942
0.12459
0.202424
7.9557
7.89666
0.0817457
0.0270104
0.111642
7.91594
0.133331
0.125652
0.154427
-0.58718
7.91302
0.0657699
7.68698
0.076794
7.89982
-1.45259
-1.71783
7.87146
0.0941087
7.73064
0.155218
7.68355
7.87577
7.90441
7.91814
7.87169
7.88691
0.156819
0.115089
0.0724717
7.90058
6.39307
0.0845256
7.89977
7.86759
7.92145
7.90271
7.92149
0.0259029
7.89724
7.9078
7.67903
0.0190801
7.87703
7.68628
7.56277
0.0501351
7.68958
0.0249209
-0.521014
0.106064
0.0491416
0.00265984
8.2256
7.89721
7.89643
0.083509
0.0655306
7.60154
6.36047
0.0280638
7.9022
7.90935
0.094908
7.88162
0.131825
7.89393
0.00585839
0.144908
7.90036
7.67903
7.8941
7.9075
7.89975
0.175207
7.89078
0.0292665
7.95785
7.89674
0.0644858
7.69023
0.130962
7.79123
7.9023
0.150088
0.103457
0.108886
7.90643
7.90718
7.89819
0.101623
0.131682
7.96458
7.68535
7.66169
0.0574732
7.88561
0.138265
0.093225
7.8943
7.88916
0.0659538
7.89422
7.66337
7.68959
7.97084
7.69291
0.074083
6.27394
7.69632
7.90475
6.43274
7.88914
6.64855
7.86436
7.88555
7.77982
0.090747
7.83774
0.055429
7.87413
7.88738
0.182832
0.0498206
7.88213
7.87312
7.89474
0.0692486
6.78165
7.89787
7.75189
7.89073
0.067711
7.88345
0.052086
7.91083
0.141297
6.9894
0.155474
7.90573
7.89967
0.148374
6.62754
7.8988
0.0633355
0.139622
7.92727
7.90747
0.144522
0.130772
0.064272
0.0601564
0.0509306
0.153396
0.0662127
0.150702
7.962
0.0427229
6.34739
6.23657
7.8968
7.88712
7.89947
0.0772224
7.91048
7.90519
7.91002
0.0946205
0.145978
6.04672
0.133214
7.90912
0.155402
7.66895
0.14713
0.0691054
6.41864
0.15541
7.88278
7.86411
7.68527
0.0893871
0.140943
7.89807
7.69122
0.0796272
7.90615
0.102469
7.94174
0.137994
7.89923
7.68564
7.88772
7.68421
0.0621667
7.68437
0.510305
7.69789
0.150588
7.8961
7.89018
4.45747
4.14306
7.91078
7.89111
7.89993
7.90675
0.140542
0.0908677
5.33149
7.90846
0.151333
7.68004
7.70357
-0.185985
0.125601
0.146319
7.68617
0.0516236
0.141503
0.101673
0.134831
7.90092
7.91249
7.91664
7.9089
7.68657
7.68426
7.6849
7.85817
7.68648
7.68509
7.8988
7.68441
0.112945
7.68451
7.89289
8.63722
7.90731
7.89651
2.8785
7.68092
7.89358
0.116034
0.13726
7.86674
7.88872
7.8991
0.123137
7.73433
7.88825
0.117718
7.69107
7.89273
7.89814
7.9076
0.157347
7.68779
0.0656516
7.90807
7.88714
7.89338
7.89592
7.89072
0.125074
0.0856762
0.0788866
7.90771
7.69213
7.94263
0.106975
7.89157
0.0840365
0.150755
7.68749
7.88874
6.0384
-0.164786
7.8734
7.08582
-0.152501
6.1167
0.155292
7.72603
0.1537
6.08334
5.68787
7.89872
0.145336
7.6917
0.134309
0.149437
7.89908
0.145893
-0.0474966
7.89761
0.137819
7.6803
7.87548
7.88561
7.87106
7.88203
7.68163
7.89125
7.90766
0.0779724
7.17342
7.8972
7.89931
7.88942
7.89233
0.122057
4.17502
0.100697
-0.0509607
7.89118
0.152005
0.142044
7.89774
7.06489
7.83757
7.87855
7.91506
7.97494
6.5177
7.22871
0.147267
7.89668
7.91368
6.16291
6.68307
7.68639
0.137947
7.8948
7.68769
7.90697
0.137111
7.91146
7.68114
0.148254
7.68893
7.66392
7.81263
7.95608
0.149294
7.89666
7.89464
7.89287
7.88951
0.153071
0.150347
0.158416
0.142635
0.155875
0.14884
7.6917
6.62605
0.0744316
0.14994
6.61688
0.0827744
7.90015
-0.816979
7.69441
0.128299
7.89942
7.68035
0.156515
-1.12197
7.89491
0.149513
7.89988
7.90429
0.122266
0.149286
7.90567
7.68328
7.93282
7.68511
7.89026
6.89874
7.9071
7.89995
0.148306
7.90697
7.89544
7.89479
0.16398
7.90352
6.9397
7.68797
7.68389
7.36208
6.99183
0.162399
7.6783
7.00163
0.113565
7.89908
0.140083
0.155395
7.89495
0.112045
7.89864
7.51411
7.96395
6.86226
7.69882
7.88822
7.90317
7.91225
0.130655
7.90868
7.90324
7.90578
7.78483
7.89616
7.83343
0.103606
7.89899
7.90897
0.136298
7.89843
7.68697
7.70217
0.140251
7.89672
0.0561551
6.78133
-0.136459
0.0280386
7.68218
6.62159
0.115485
6.35907
7.68579
0.0369626
-0.136688
-0.00047236
0.140713
-0.0159086
-0.905442
7.72156
7.67807
0.143507
0.121299
0.130969
0.148011
-0.141744
7.69342
0.0423131
0.133602
0.13967
7.70557
0.141811
0.0411418
0.0988606
0.131783
0.100071
0.154025
0.0689039
0.12087
0.0164219
0.0820982
0.138364
6.95283
0.0922879
0.00755878
0.143937
0.145821
0.028854
0.139869
0.0186921
7.10996
0.112794
7.05972
0.102626
0.145493
0.12363
0.104615
7.04881
7.68419
0.137731
0.117056
0.097156
0.152169
0.0583354
0.135015
4.93228
0.144183
7.89891
0.236338
0.111976
0.148502
0.106259
0.087159
0.0549233
0.153793
0.101695
0.0926896
0.0998393
0.138331
0.128833
6.22084
5.47701
0.138957
7.89653
7.89936
0.130962
0.152012
0.0321663
7.895
0.127718
0.149142
0.111112
5.66833
7.89843
0.0224142
0.0110775
0.106347
7.91272
0.0609571
7.90143
0.108594
0.148779
0.144312
0.147035
7.89285
7.90142
0.169421
0.143516
0.157446
7.89328
0.114805
0.158555
0.143994
7.6961
0.117775
0.0302775
7.04077
0.0985301
-1.19375
0.108219
7.64129
0.140916
0.135372
7.89933
0.16664
0.0291967
1.60984
0.152949
0.174282
0.0514024
0.165414
0.135511
-0.0109016
-0.00123086
0.106444
0.157683
0.0481471
0.125929
0.0611683
0.12231
0.147814
0.115175
0.142031
0.072716
0.0684028
7.90045
0.163784
0.153618
0.114016
0.0785819
0.15504
7.69883
0.161132
0.100854
7.89649
0.126036
-0.00638462
0.161778
0.163173
0.0403116
-0.0400646
0.156412
0.144037
0.147136
7.9004
7.89868
0.152832
7.70324
0.156135
0.1912
7.72397
0.0408351
0.151223
0.0735358
7.90576
0.102131
0.0993116
0.13718
0.0817937
0.107372
0.0814773
0.115222
0.171905
7.89889
7.87396
0.123444
0.150212
0.140693
0.132382
7.87367
0.146341
0.169309
7.72401
0.103593
0.147139
-0.0717517
0.0204471
0.158016
0.118449
0.0687247
0.11349
7.7085
0.169804
0.0883651
0.156604
0.0389197
7.87497
0.16741
8.02514
7.89782
0.102008
0.143781
0.102482
0.363231
0.0913281
1.66003
7.68927
0.128198
0.182079
0.163953
0.107998
7.89847
7.70451
7.69385
0.0983003
0.10277
0.0132765
0.0997338
7.64636
7.87853
0.0906033
0.1151
0.150543
0.112102
0.107022
0.1472
0.131887
4.47966
7.67981
0.14772
0.0284147
7.87788
0.139685
0.14248
0.165845
0.161993
0.127754
0.158714
7.87812
0.127444
0.128615
7.70102
7.66293
0.0356372
0.0863872
0.0546253
0.0368989
0.136174
0.132398
0.0608796
0.105092
0.133108
0.0302156
7.87362
7.86573
0.00927349
0.0486992
0.135001
0.134212
0.135172
0.109073
0.152726
0.118988
0.130816
7.68538
7.70787
0.117945
7.872
6.90034
0.136778
0.0989909
0.120521
0.130676
7.22686
0.155319
0.152585
7.35556
0.132331
0.0270123
0.133736
0.136698
0.0264287
0.154336
0.0800744
0.0384289
7.89828
7.3002
0.132142
0.0632008
0.10435
0.0637292
0.09333
0.146334
0.110731
7.32569
0.146814
0.0767296
0.11954
0.111884
0.151828
0.119742
0.0316903
0.125134
0.0492326
7.21977
0.167929
0.142737
2.96091
6.86488
6.32803
0.142305
6.71362
0.0172937
0.12795
0.106177
0.155307
0.101712
5.14563
3.20325
8.09849
6.77742
0.15411
7.68445
7.68421
-0.999511
7.89629
0.104505
0.114247
0.117218
0.0937884
0.0990467
0.141378
6.35114
0.0597554
0.0401621
0.147589
0.143231
0.105068
0.13386
7.68604
0.0331371
0.0989666
0.0667389
7.68483
0.155092
0.12148
7.68451
7.8843
0.118763
0.088618
7.93777
0.154845
0.14044
0.115828
7.9052
7.6841
0.033425
0.0270112
0.156305
7.68515
7.68219
7.68453
0.157187
2.72007
2.48823
0.0478411
-0.129576
7.91748
0.0737466
-0.107718
0.126257
0.0344119
0.0179267
0.0717587
-0.239007
0.0395778
7.75024
0.0655162
0.0662686
0.0210697
0.107771
0.0331767
0.0529384
0.0364443
0.0324911
0.034046
0.142276
-0.130508
0.131974
0.118068
0.0925884
-0.199373
0.0263298
-0.115503
0.0386435
0.0333969
0.0850437
0.0765438
0.145315
0.0714797
-0.119435
0.0669395
7.52689
0.132463
3.95099
0.104346
0.129955
7.70159
0.1519
7.52676
0.138362
7.55432
7.91747
0.138538
0.146874
6.91827
0.0588959
0.119267
0.148188
7.87948
7.90675
0.213819
0.0546488
0.0523681
0.105687
0.0606341
0.144941
0.152075
0.150265
0.150542
6.5571
0.130742
7.68642
7.85707
0.0974757
0.0774207
0.131123
0.0947983
0.0732241
0.160877
0.152571
7.79879
0.10804
0.0612186
0.15408
7.80966
7.91483
0.131761
0.141146
6.21743
0.153355
0.0335634
0.147481
-0.120901
0.0662626
0.113031
7.88385
4.6849
0.0940699
0.138319
7.76721
0.106252
0.147916
0.140767
0.130375
0.0884694
0.0990417
0.131421
0.164574
4.96002
0.159496
7.89667
0.140529
0.150963
0.0626902
0.0111435
6.65428
0.016659
0.131331
0.147777
0.0999557
7.46276
7.68438
0.104099
0.13744
0.158296
0.142997
0.153103
0.0757149
0.00771692
0.111771
0.0517743
0.0324889
0.147468
7.09986
0.0948154
0.137503
0.000536933
0.151478
7.28895
7.6785
-2.06577
0.110555
8.1901
0.0851042
0.152106
7.39417
5.12065
5.5359
0.130475
0.0933008
0.409296
5.91278
0.119252
0.109845
7.636
0.236481
6.92679
0.139513
0.0763896
7.72559
-0.0124027
0.166875
0.163078
0.0751123
7.68094
-0.0272136
0.144316
0.129825
0.172026
0.180257
0.162709
0.163806
0.0647832
0.157232
0.0491122
0.0937253
7.89047
6.53033
6.60576
7.74394
0.134468
0.108395
0.103632
0.130318
0.0622529
0.10217
0.14048
0.152477
0.148054
0.0757274
0.163556
0.110388
0.156996
0.0638298
7.89668
0.15002
0.131701
0.152352
0.16773
7.62895
0.101016
0.105984
0.172753
0.140872
0.123464
7.69038
0.132495
0.122409
6.91665
0.135336
0.148824
7.73829
0.110076
7.72946
7.70036
0.101543
0.112453
0.152727
0.124473
7.68039
0.0502595
0.13996
7.70425
0.119168
0.126386
0.111592
0.149057
7.76802
0.140982
0.145534
0.158345
7.74702
0.117329
0.0485655
0.152077
0.0931441
0.0975504
7.93449
7.51397
7.12718
0.0326171
7.25341
0.104491
0.0785741
0.0441233
7.88314
0.0431
7.70695
7.89729
7.85519
0.117206
-0.0102535
0.0298076
0.155715
0.11519
7.54257
6.92473
0.15461
0.145918
0.101435
0.0597014
0.105998
-0.154397
7.89894
5.81106
5.9269
7.68124
5.99823
0.0205401
7.89885
0.112967
0.137958
0.108775
0.0295695
0.118509
6.40298
0.0665976
0.149142
0.154263
0.156684
6.4436
7.89701
0.157359
0.0825261
-0.0498798
-0.286365
0.111527
0.077402
-0.0250863
0.0393918
0.0881881
0.0193728
0.079719
-0.546552
0.0729165
0.150317
0.145053
0.065812
0.0717888
0.104674
-0.354453
-0.254666
-0.697778
-0.997039
0.0411899
0.147208
7.70678
-0.800652
-1.72751
0.0477687
0.0347244
0.00776536
0.145785
0.143751
-1.91379
0.0335147
0.11566
7.9282
0.107578
0.102048
0.122971
7.89873
0.0887398
0.0604301
0.036624
0.11879
7.91532
7.93006
0.149412
0.0606909
0.0535445
0.0105263
7.85626
7.90007
7.69271
0.130585
0.139726
0.0423054
7.9024
0.0919299
7.93503
7.95828
0.0429759
0.0335308
7.67449
0.0462294
0.0520309
-0.0174124
7.69464
7.90554
0.071421
0.1509
7.94386
0.0423947
0.0781799
-0.0332352
7.99853
8.00478
7.97245
-0.0423088
0.0427943
0.162145
0.0673222
7.68808
0.0432686
0.133472
0.156574
0.156852
7.70039
7.8936
0.0839826
0.145386
0.143935
0.117407
7.69589
0.0412818
7.68736
0.0527315
0.114943
0.137305
7.74793
7.18147
0.134607
0.169409
7.04
7.08452
7.68729
0.131892
7.58089
6.74003
0.138194
0.13967
7.68803
6.92703
0.132776
0.0877468
0.0570869
0.114492
0.100276
7.04272
0.152094
6.47411
6.31307
7.91753
0.109628
0.159284
0.0431726
6.35144
8.46658
0.153692
0.109259
0.166858
0.159429
0.129684
0.132546
0.133576
0.0822215
6.23538
0.124785
0.0863917
0.0712882
0.119459
0.145346
4.54405
0.102305
0.103421
0.106174
0.104981
0.0552527
6.03662
7.19056
0.119364
7.24848
7.33523
0.130493
7.2617
0.104987
7.0956
7.18051
7.72435
6.90269
0.118967
0.0569671
0.107594
7.08077
0.0808489
0.112396
0.116327
7.1963
7.90029
0.120893
0.120895
0.103279
0.119109
6.85988
-0.00269837
0.0641644
0.039038
7.6776
7.77007
0.0917357
0.0665
7.79763
7.21997
0.145563
0.0100075
7.06332
0.147844
0.133662
0.14295
0.129396
7.13866
0.133954