/*--------------------------------*- C++ -*----------------------------------*\
  =========                 |
  \\      /  F ield         | OpenFOAM: The Open Source CFD Toolbox
   \\    /   O peration     | Website:  https://openfoam.org
    \\  /    A nd           | Version:  10
     \\/     M anipulation  |
\*---------------------------------------------------------------------------*/
FoamFile
{
    format      ascii;
    class       surfaceScalarField;
    location    "60";
    object      phi;
}
// * * * * * * * * * * * * * * * * * * * * * * * * * * * * * * * * * * * * * //

dimensions      [0 3 -1 0 0 0 0];

internalField   nonuniform List<scalar> 
109758
(
-3.1682e-06
0.00121985
-0.00121668
-0.00125267
0.00128851
-3.58412e-05
0.000104112
-0.00114988
0.00104577
-0.00144004
8.78772e-05
0.00135216
0.00146238
-0.000168358
-0.00125786
-3.61646e-05
-0.000405293
0.000396325
8.96734e-06
-0.00110845
-6.47282e-06
0.00111492
0.00202385
-0.000255905
-0.000384873
-0.00138307
-2.3727e-05
0.000849311
1.44662e-05
-0.00084005
0.000466406
-7.21919e-05
0.000596552
-0.000990766
-3.94206e-06
0.000586479
-0.000582537
0.00187436
-0.00152688
-0.00143887
0.00109139
0.000320902
0.00125913
-0.0014378
-0.000142237
0.00118864
-0.00121937
3.07248e-05
-0.000974047
0.0011082
0.00132823
0.000691369
-0.000946075
-0.00068458
0.000939286
0.000819587
-0.00157363
0.00140327
-0.00064923
0.0014843
0.000242368
-0.00110139
-0.000625278
0.00150008
0.00022795
-0.00121148
-0.000516548
-0.00144002
0.000171261
-0.000108862
0.00137762
0.000215556
-0.000290309
7.47524e-05
-2.63426e-05
-0.00119644
0.000285622
0.000937161
-0.000275564
0.000847438
-0.000571874
0.000251248
-0.000301532
0.00102946
0.00116212
0.000420112
-0.000405266
-0.00117697
1.77046e-05
0.000563467
0.000903127
0.0012414
0.00151639
-0.00194186
-0.000815932
-0.00109123
0.00108145
9.78124e-06
3.4271e-05
0.00112785
0.00149194
-0.00102645
0.000795226
-0.00126071
-0.00146095
0.00152968
-8.42975e-05
1.55636e-05
-4.9916e-05
0.000604453
-0.000554537
-1.46225e-05
0.000898714
-3.46785e-05
-0.000849413
-0.000827267
0.000824133
3.13358e-06
-0.000124001
-0.00131745
0.00110483
0.00033662
-0.00115981
0.00212099
-0.000718807
0.000577889
0.000169912
-0.000747801
0.000198042
0.00103985
-0.00147419
0.000236297
-0.000252275
-0.00111668
8.1618e-06
0.00136079
0.00114047
5.06156e-06
-0.00114553
0.00167384
-0.00110248
0.000734926
-0.00130629
-0.000392233
-0.000504918
0.000676484
0.000220667
-3.41901e-05
3.33682e-05
0.00167467
-0.00144721
0.00142462
1.32356e-05
9.35388e-06
0.000796994
-0.00079802
1.0254e-06
0.000330619
-0.00214983
-0.000329144
0.00214835
0.000997935
-0.000282629
-0.000251216
-0.000464091
-0.00111256
0.00138816
-0.000195411
-8.01933e-05
1.65548e-05
0.00102434
-0.0010409
-0.00224762
0.000142317
0.000187779
0.00191753
0.00107968
-0.000522353
0.000520005
-0.00107733
0.00039892
0.00061672
1.43402e-05
0.00140048
-0.00141482
-0.00105836
0.0010619
-3.5378e-06
-0.00122004
0.00125431
-0.000329724
-0.00175407
-0.000430748
0.00251455
-0.00228278
0.00318361
-0.00066743
-0.000233404
-0.00111411
0.000982991
0.00117049
-0.00103936
-0.00180371
0.000708465
-5.92463e-05
0.00115449
-0.000718845
0.00026412
0.000646053
-0.000191327
-0.00149364
0.00142215
7.14897e-05
-0.00323417
0.000189516
0.00163168
0.00141298
-0.000314165
0.0013014
-0.00124955
0.00026231
0.00156927
0.00151342
-0.0018909
-0.00113791
0.00151539
-0.00190108
0.000921711
0.000514732
0.00046464
0.00139261
-0.00153986
-0.000857908
0.00100516
-0.00147634
9.857e-05
0.000349153
0.00102862
-0.00112268
-0.000798875
0.000445208
0.00107496
-7.64981e-05
-9.37182e-05
-0.000904747
0.00100523
-0.000590382
0.000372905
-0.000787755
0.00141975
5.18527e-05
0.000602383
-0.00207398
-0.000520755
0.000192193
0.000328562
-0.00211817
0.00134811
0.0015802
-0.00081015
0.000803011
-0.00075956
-4.34505e-05
-0.000627493
0.000200589
-0.00169126
0.000106491
-0.000881214
-0.000283642
-0.000270511
5.6019e-05
-0.000860674
0.00107517
0.00174248
-0.00158309
-0.000333493
0.000174105
-0.00170481
0.00153668
-0.00105191
0.00119818
-0.000810892
-0.00100332
0.000616029
-0.000650726
0.00269958
-0.00135003
-0.000698829
-0.000152304
8.22861e-05
0.00152946
-0.00145944
3.63973e-05
0.00216824
0.000227609
-0.00243225
0.000866793
-0.00157296
-0.000132719
0.000838888
0.00123806
-0.000233155
-0.000898414
0.000128781
0.00099127
-0.00135852
0.000238473
0.000543398
0.00204818
0.00012956
-0.00272114
0.0009617
-0.00113382
0.000180289
-8.16961e-06
0.000655179
0.000735446
-0.0027636
0.00137297
0.000933333
-0.000103678
6.16107e-05
-0.000891266
0.00199178
-0.00149348
-0.00296906
0.00247077
0.00169119
-0.00190471
0.000845056
-0.000631537
2.05966e-05
-0.00159272
0.00146395
0.000108175
0.0016464
-0.00115281
-0.000363104
-0.000130488
0.000889515
2.08704e-05
-0.000910385
-0.00170007
0.000294028
0.00118688
0.000219163
0.001115
0.000743625
0.00057125
-0.00242987
0.000918759
-0.00165713
0.00114788
0.00249095
-0.00144436
-0.00219448
0.000917213
1.54657e-06
-0.000367447
0.00119338
0.00119922
-0.00202515
0.0010516
0.00030045
-0.000149034
-0.00120302
8.12827e-05
0.00092231
-0.00100359
0.00141395
-0.0001168
5.53733e-05
-0.00135252
-0.000577878
-1.89721e-06
0.000579776
-0.00132411
0.00102149
-0.000798764
-0.000237697
0.0017964
-0.0018891
0.000330397
0.000431877
-0.000362741
-0.00145276
0.00138363
0.000287593
-0.000293291
-0.000681618
0.000687316
-0.000368713
-0.000989368
0.0012368
0.000121277
0.000447832
-0.0012194
0.00126869
-0.000497118
0.000927675
0.000283566
-9.27766e-06
-0.00054947
-9.87641e-05
0.000657512
0.000179575
0.000352956
-0.00203725
0.00150472
-0.00131194
0.00016644
0.00134822
-0.00020272
0.000973619
0.000158179
9.90377e-05
-0.00123084
0.000205013
0.000768606
0.00143165
0.00028844
-0.00156192
-0.000766622
-0.000873103
0.00130307
0.000336654
0.00135802
0.000183636
0.000199574
-0.00174123
-0.001468
0.00125523
-0.000411799
0.000624573
0.00134627
0.000290399
-0.00104608
0.00117846
-0.00108769
0.000955313
0.00146318
-0.000211205
-0.000286435
-0.000965544
4.01788e-05
-0.00160661
0.00174202
-0.000175587
-0.00152932
-3.75946e-05
-0.000422831
0.00198974
0.000938755
0.000505942
-0.00148562
4.09274e-05
-0.00101895
9.45254e-05
0.00089485
2.95753e-05
0.000184213
5.68992e-05
-0.00188305
0.00164194
-0.000930554
-6.17913e-06
0.000936733
0.000193161
0.00133211
-0.00134105
-0.00106141
0.00142124
-0.000773876
0.000414049
-0.00121299
-0.000777851
0.00157835
0.00041249
0.00127433
0.000244357
-0.000722697
-0.000795993
-0.00201021
-2.81285e-05
-0.000282963
0.0023213
-0.00129463
-0.0007776
0.000565876
0.00150635
0.00177651
-0.00174078
-0.000112092
7.63675e-05
-0.000263766
-0.000789097
-0.000701212
0.00146081
0.00108166
0.000271152
-0.00281362
0.00211354
0.000267144
-0.00234429
0.000214719
0.00110499
-0.00131971
3.51853e-05
-0.00108864
0.00105345
-0.00103479
-0.000214746
0.000197582
0.00105195
9.21875e-05
0.00134678
-0.00128486
-0.00015411
-0.00221981
-0.000254856
0.000576585
0.00189808
0.00122521
-0.00129639
0.0011086
-0.00103743
0.000159163
0.000143143
0.000922904
-0.000874116
0.000847538
2.65777e-05
-0.00091967
3.0242e-05
0.00133308
-0.000443647
0.000264632
-0.000672112
-0.000492938
0.000900418
0.000674459
-0.000702073
2.76136e-05
-0.000961829
0.000910022
-0.000218704
-5.08486e-05
-0.00101117
-1.0584e-05
0.0010726
0.0017111
-0.000192186
-0.00108596
-0.000432955
-0.000408178
-0.00186734
0.00250692
-0.000231394
-0.00162342
0.000562176
-0.00135662
0.00151468
-0.000158062
-0.000731696
0.000659209
-0.00102721
0.0010997
0.000547787
-0.000670697
-0.000497625
0.000620534
-0.000920512
-0.00126231
0.00100159
0.00118123
5.03233e-05
0.00141135
-0.000139978
-0.0013217
-0.00035859
0.00170981
-0.00028649
-0.00106473
-0.00159265
0.00134675
-9.6435e-05
0.000342338
-0.0011701
0.000933276
-0.00100756
0.00124438
0.00121554
6.59673e-06
-0.00122214
-0.00180189
0.000389468
0.00176158
-0.000345191
0.00142153
-0.00107634
8.78147e-05
0.0014351
-0.00152292
0.000197942
0.00123674
-0.00189564
0.000460951
-0.000951385
-0.000989152
0.00106165
0.000878883
0.000693879
-0.000200063
0.000511416
-0.00142021
0.0014833
-3.80256e-05
-2.50622e-05
-0.00141773
1.41788e-05
-1.66561e-05
0.000752099
-0.000451137
0.0018499
-0.00215086
-6.86162e-05
0.00180463
-0.00173601
-0.00118324
0.000849671
-6.58957e-06
0.000340157
-0.000902717
-0.00109787
0.00200059
-0.000674702
-0.000253296
0.000927998
0.00100464
1.26041e-05
-0.00101724
-0.0015963
-2.56471e-05
0.00131316
0.000308789
-0.000461719
0.00063865
0.000839074
-0.001016
-0.0017677
0.000484163
0.000821817
0.00172075
-0.00271127
0.000575302
0.000415225
-0.00144928
0.00146268
-3.97441e-05
2.63447e-05
0.00193047
-0.00192979
-1.54506e-05
1.47702e-05
-0.0010905
1.53818e-05
0.000268951
0.000806168
7.65433e-05
-0.0011369
0.00106036
-0.00123426
-0.00175227
0.00118841
0.00179812
0.000148937
0.00161166
-0.000746203
-0.0010144
2.03126e-05
-0.00155705
-2.33011e-05
0.00156004
0.000256088
0.00139847
0.000329891
-0.00198445
0.000203728
0.00139802
-0.0014729
-0.00012885
-7.47759e-05
-0.00109353
0.00137204
-0.000894767
-0.000757661
0.000384937
0.00126749
0.000841591
4.83319e-05
-0.000889923
0.0013596
0.00130329
-0.00157458
-0.00108831
1.71751e-05
-0.00108208
0.00106491
0.000302661
0.000132378
5.94093e-05
-0.000494448
-0.00142046
-2.28026e-05
0.000469956
0.000973303
-0.00104627
-0.000536678
0.00158294
0.000845624
-0.00111029
0.000393708
-0.000129044
-0.0014689
0.000185116
0.00134018
-5.64038e-05
-0.00147999
0.00179847
-0.00141292
0.00109444
-5.94338e-06
-0.000888823
-0.00114273
0.00111069
3.20396e-05
-0.00147878
-0.000770764
0.000146084
0.00210346
-0.000136589
0.00130041
-0.00116382
0.00103752
-0.000815798
-0.000221717
0.00092506
-0.000931003
-0.00111197
-1.81004e-07
0.00111215
0.000508602
0.00138602
-1.33918e-05
-0.00188123
-0.00113549
0.00017297
0.000962519
-0.0012633
-0.000444589
0.00131581
0.000392082
-0.00190957
0.000262471
0.00186421
-0.00021711
0.000944205
-0.000916805
-2.74002e-05
-0.000726223
-0.00101908
0.00390905
-0.00216374
-0.00148232
0.000543017
-0.000373407
0.00131271
-0.00075086
-0.000179473
-0.00117522
0.00210555
-4.25487e-06
2.68322e-06
0.00130693
-0.00130536
0.000708056
-0.00209713
0.00285913
-0.00147006
-0.00121627
0.00121202
0.00155709
0.000401068
-0.00190737
-5.07936e-05
0.00108533
0.000148432
-0.00136325
0.000129485
0.000950322
0.00044536
-0.00159415
0.000198466
0.00090366
0.000181669
-0.000541823
0.0016914
-8.92392e-05
-0.00106034
0.000326675
-0.00148647
0.00190081
-0.00074102
-0.00167247
0.000121761
-4.80086e-07
0.00155119
0.000972175
0.00374461
-0.000593719
-0.00412306
0.000450129
0.000343066
-0.000596688
-0.000196506
0.000310169
0.00112358
-0.000508287
-0.000925463
-0.000905592
0.000884279
-0.00052051
-5.07794e-06
0.0016915
4.97597e-06
0.00133531
-0.00135024
0.000213996
-0.000199064
0.000316189
-0.000105647
0.00080687
-0.00101741
-0.00130103
0.00126667
0.000182794
0.000392558
-0.000768645
-0.000879942
0.00125603
0.000542015
0.00150815
-0.00150676
0.00112911
-0.00147853
0.000199701
0.000149713
0.00111297
2.06383e-07
-0.00111318
0.00242812
-0.0024973
0.00202064
-0.00195146
0.000370267
-0.000955462
-0.000476582
0.00106178
0.000384902
0.000204411
-0.0016341
0.000974018
-0.000580731
0.00124081
-0.00200264
0.000452144
0.0016851
-0.000134599
-0.00156228
-0.000861956
0.00313229
-0.000160304
0.00191851
-0.00063329
-0.00112491
0.00092459
-0.000466556
0.00171247
-0.00217051
0.000184423
-0.000870262
0.000741014
-5.51761e-05
-0.00038273
-0.00125563
0.00144249
0.000195862
0.00108113
-0.000611871
-0.000439656
-2.96003e-05
0.000548076
0.000229698
0.000290577
-0.00106835
-0.000776211
0.000995614
-0.000219402
0.000889424
-0.000828529
0.000123529
3.05163e-05
-0.00135781
0.00132729
0.00104324
-0.00121554
-0.000210428
0.000264642
0.00118146
-0.000265088
-0.00118101
-4.0081e-06
-0.000963839
0.000967847
0.00052487
0.00161287
-0.000883501
-0.00125424
-9.00275e-05
-0.00062821
-0.000429469
0.00114771
-0.000294731
-0.00162192
1.08287e-05
0.00190582
-0.00102994
0.000416979
0.00125933
-0.000646365
7.62008e-05
0.000967038
-0.000857704
0.000933905
0.000926232
0.000247595
9.97776e-05
-0.0012736
-0.00048927
0.00218877
-0.000142405
-8.9134e-05
-0.000621703
0.00056673
0.000144107
-0.000206155
0.0024352
-0.000115507
0.0019759
-0.00102621
-0.000424812
0.00225371
-0.000275421
-0.00120925
0.00180748
-0.000322811
-0.00228014
0.00191516
0.000936973
-0.000571992
5.77194e-05
0.00104785
0.00087033
-0.00100409
-0.00131896
0.00139249
-0.00071649
-0.000988294
0.00190979
-0.000205009
0.000740359
0.00084327
-0.00158363
2.62022e-05
0.000168855
0.00222426
-0.00241932
-0.00117464
0.000992993
0.0014402
-0.00125855
0.00135764
-0.00214586
0.00172482
-0.000936596
0.000449864
-2.28607e-05
-0.000427003
-0.00092393
-0.000517184
0.000171924
0.00126919
-0.000473733
-0.000679157
8.94704e-05
0.00117075
-0.000969036
-0.000291188
0.000984432
-0.00102511
4.06754e-05
0.000109475
-0.00130638
0.00137852
-0.000181617
0.00114614
-0.00282831
0.00139765
0.000284523
0.000655342
-0.000874337
0.000218995
0.000867452
-0.000110753
-0.0008598
0.000103102
-0.000174102
-0.00286964
0.00259051
0.000453233
-0.00113322
0.000195007
0.00132074
-0.000382533
-0.0011863
3.82115e-05
0.00114809
0.00118295
0.000200052
0.000785237
-0.000590195
-4.90251e-05
0.00152864
0.000102739
-0.00168152
0.00140468
-6.39855e-05
0.00116673
-0.00110275
-0.00081694
0.000505914
0.00135504
-0.00104401
-0.000185977
0.00155264
-4.38209e-05
-0.00132284
-0.000187232
0.00144232
-0.000975391
-0.000279698
-0.00100245
-2.22233e-05
0.00118133
-0.000156661
0.00083242
-0.0017401
0.000949972
-4.22936e-05
-0.000891556
0.000696976
-0.000716482
0.000911061
0.000863737
3.41361e-05
-0.000100879
0.000132416
-0.00125904
-0.000303376
0.00143
-0.00025814
-0.00138334
0.000618355
0.00102312
0.000493545
-2.11769e-05
0.00113423
0.000275167
-0.00138822
0.000581749
-0.000410103
0.00117228
-0.00134392
-0.00075139
0.000930907
0.00124243
-0.00142194
0.0020344
0.000510694
-0.00205154
1.60651e-07
-0.00121047
0.00121031
7.48884e-06
-0.00122641
0.00127536
-5.64355e-05
2.39028e-05
0.00131061
-0.00117889
-0.000155623
0.000394341
-0.00198937
-6.49559e-05
0.00165999
-0.00110095
0.00132101
-0.000220063
0.000202256
-9.24189e-05
0.0013259
-0.00143573
-0.00102586
0.000227836
-0.000709005
0.00107355
-0.00143077
0.00106622
-0.000327224
-8.10716e-05
0.000408296
0.00324054
-0.00158162
-0.000703458
-0.000955456
0.00130479
0.00334328
-0.00140753
0.00215998
-0.00199884
0.00018899
0.00110084
-0.000852278
0.00121915
-0.00038651
1.96394e-05
-0.000258389
4.88249e-05
0.00178977
-0.00125104
0.000470943
0.000960692
-0.000180598
-0.00105227
0.00174107
0.000130784
0.00122123
-0.00139806
0.000708614
-0.000531783
0.000181385
0.00245659
-0.00243571
0.000735104
6.38454e-07
-0.000735742
-4.03673e-07
-0.000956638
0.000957042
0.00170507
0.000137889
-0.000381596
-0.00146137
0.00221029
-0.000712145
-0.000935364
-0.000562785
-0.000139797
-0.00280399
0.000846657
-8.61257e-06
-0.000679285
0.000687898
0.00147048
-0.00134927
-0.00133356
0.00121234
0.00106481
0.000444018
-0.00125274
0.000864079
-0.000532508
-0.00131813
0.000986556
-0.00104282
-9.4138e-06
-0.000803492
0.00185572
-0.00159305
-6.81494e-06
0.00159987
0.000993012
9.37481e-05
-0.00105662
-3.0137e-05
-0.00127232
-2.08238e-05
0.00129314
6.42926e-05
0.00107033
-0.00113462
-0.000782629
0.00173422
-0.000125974
-0.000825621
-0.00187849
0.00226242
0.00142708
-0.00181101
0.000901211
0.00076938
-0.000208433
0.00133807
-0.00086501
-0.000264627
-0.000229689
-7.78731e-05
-0.00115526
0.00146282
0.0013045
-0.00114735
0.000912632
-0.00106978
-0.00123774
0.00128822
-5.04831e-05
-0.00151432
0.000253321
0.00130058
-3.95751e-05
-0.00264236
0.000528726
0.00201026
0.000103379
0.000260724
-0.000334618
-0.00130881
0.00138271
0.00190152
0.000181185
-0.00109222
-0.000990484
0.00103451
-0.000786311
-0.00104185
0.000793647
0.00119114
1.19648e-05
-0.00120311
0.000110268
-0.00202617
0.00148232
0.000433584
0.000752766
0.000448909
-0.000300464
0.000273698
-0.000881809
0.00128576
-0.000677651
-0.000545329
0.000529509
-0.000121953
0.000137773
-0.00362618
0.00437318
0.00141028
-0.00215729
0.00181973
-1.19029e-05
-0.00181894
1.11156e-05
9.15935e-06
0.00146347
-0.00157285
0.000100227
-0.00219282
0.00192113
-0.000510937
0.000974439
0.00121974
-0.00110397
-0.0010902
-0.000967718
-6.94973e-05
-0.000105247
0.00114246
0.00101053
5.27186e-05
-0.00106324
0.00128827
-7.10587e-05
-0.00121721
-0.00227759
0.00214628
8.45017e-05
4.68062e-05
7.0623e-05
0.00146773
-7.19589e-05
-0.00146639
0.000909408
0.000458529
-0.00297751
0.00160957
-0.00063063
0.00063064
-1.02679e-08
0.000924175
2.11767e-06
-0.000926292
-4.62229e-07
-0.00055687
0.000557332
-0.000530749
0.00108031
0.000725883
-0.00127544
3.53884e-06
-0.00114344
0.000897095
0.00024281
-0.00128319
-0.000526046
-0.000468353
3.25459e-06
-0.000888555
-0.000132238
0.00101754
-0.00068738
1.28467e-05
0.000674533
0.000235017
0.000729254
-0.0002376
-0.000726671
0.00050284
-0.000895074
0.000392234
-0.000243041
-0.00083308
-0.000310433
0.00138655
0.000709535
0.000940511
0.000138626
-0.00178867
0.00185642
-0.00067519
-0.000601585
-0.00057965
-6.80603e-05
-0.00153316
0.0017869
-0.000185681
0.000735891
0.000387618
0.000212517
-0.00133603
0.0023203
0.00103343
-0.00217624
-0.00117749
-2.84342e-06
0.000587579
-0.000584736
-0.00137318
4.09289e-05
0.000317723
0.00101453
-0.00134582
-0.00014941
0.00153109
-3.58592e-05
0.000374618
-0.000468981
0.00191409
-0.000476425
0.000629239
-0.000152814
0.000937428
2.69446e-05
-0.000964372
0.000194462
0.000122398
-0.00123676
0.000919899
0.0013188
-0.000130071
-0.001227
3.8271e-05
-0.00111336
-7.54458e-07
0.000237534
0.000322003
-0.00146055
0.000901009
-0.00135677
9.78361e-05
0.00125894
-5.32451e-05
-0.000949206
-0.00012377
0.00208952
0.000147245
-0.002113
0.00111649
-0.00118253
6.60383e-05
-0.00119417
0.00118139
1.27833e-05
0.000959584
-0.00108335
0.000262536
0.000876307
0.0010891
-0.00222794
-0.00117263
-0.000640133
0.00181276
-9.07895e-06
0.000836214
-0.000827135
-1.94693e-05
-0.000909683
0.000929153
0.00111464
-0.00110768
-6.95336e-06
-0.0012353
4.73961e-05
0.00124198
-5.40763e-05
0.000302174
-0.00139089
0.00106238
0.000693722
0.000583304
-0.00233834
0.00106132
0.000721229
4.94777e-06
-0.000726177
4.73495e-05
0.00136519
-0.00141254
0.00067203
2.42912e-06
-0.00153957
0.00137049
0.0012989
-0.00112983
-0.000969591
0.000122975
0.00124332
-0.000396705
0.00169645
-0.0024443
0.000590927
0.000156923
-0.00218986
0.000487779
-0.00104603
0.00115612
-0.000110088
2.55885e-05
-0.00115996
0.00113437
-0.00100316
-1.98615e-05
0.00102303
-0.00117457
6.3068e-06
0.00116826
0.00112361
-0.00123202
0.000108409
1.55067e-05
0.00173279
-0.0017483
-0.000256878
-0.000234226
0.00124387
0.00123782
-0.00129279
-0.000883965
0.000938932
-0.000698673
0.000127363
0.0013565
-0.000785194
0.000666978
-0.00156862
-0.000101527
-7.29598e-05
0.00153349
-0.00146053
0.0004549
0.000424172
-0.00058005
-0.000299021
-0.000706415
0.00115821
-0.00139178
0.000939987
-0.00112395
-0.000427144
0.0015511
0.00227609
-0.00140338
-0.000872714
-0.000432103
0.00163506
0.00107133
-0.00227429
-0.00118645
0.00143895
-0.00143579
0.00118328
0.000508902
-0.000382337
-0.000584552
0.000457987
2.12535e-05
-1.36452e-05
-0.00127993
0.00127232
-0.00011932
-0.00180248
0.0019218
0.000404991
5.33155e-05
-0.00152678
0.00106847
-0.00150305
0.00116639
0.000336654
-0.000702811
-0.000351915
0.00101383
4.08975e-05
-0.000991032
0.000985987
5.0452e-06
0.000963421
-0.000814831
0.00120905
-1.03666e-05
-0.00157778
0.00158069
7.45336e-06
0.00304721
-0.000787986
-0.00152944
-0.00072979
-0.000471345
0.00166317
7.91044e-06
-0.00119973
-0.000550138
0.000819081
0.00045739
-0.000726333
-0.00132476
0.00077804
0.00137623
-0.000829505
0.000727342
-0.000868501
-0.000339345
0.00150738
3.97648e-05
-0.0012078
0.000906339
-0.000999652
0.000103577
-0.00213754
2.41019e-05
-2.11595e-05
0.0021346
-0.000297308
-8.38113e-05
-0.000799595
0.00118071
-0.00108434
0.00139479
-0.00110852
0.000798078
-0.00247904
-0.000334654
0.00260754
-0.00160744
2.26721e-05
0.00160912
-2.43486e-05
0.00100648
0.000162804
-0.000678799
-0.000490485
-0.000317217
-0.00123369
0.000655353
0.000895552
0.00106764
-0.000418624
-0.00140719
0.000758179
-0.00138744
-0.000357708
-3.08946e-05
0.00177605
0.00111012
-0.000136196
-0.00101856
4.46333e-05
0.000940127
-0.000944022
3.89415e-06
-0.000745542
0.00242679
-0.00201603
0.000334782
0.000156327
0.00143142
-0.00230349
0.000715752
-0.000945347
-0.000307799
0.000993434
0.000259712
0.000330086
-0.000316869
-0.000958565
0.000822374
3.3164e-05
0.00016105
-0.00101659
-8.81745e-05
0.000615871
-0.00266524
-0.00138856
2.84966e-05
0.00178202
-0.000421955
-0.000995177
0.00116127
-0.000166098
0.000489778
-0.000459339
-0.00064908
0.000618641
-0.000700627
-0.00128678
0.000808948
0.00117845
-0.000577183
0.00179592
-0.000661467
-0.000557271
-0.00148031
1.02935e-05
-0.00129566
0.00161546
-3.91415e-05
3.44957e-05
-0.00128143
0.00128608
0.00123731
0.00132707
-0.00141034
-0.00115404
0.000982114
-0.00101301
3.0892e-05
0.00125367
-7.85651e-06
-0.00124582
0.00106974
-0.00124165
0.000351285
-0.000179379
-0.00031207
-0.000915141
0.00222065
-0.00164466
0.00141175
-0.000212792
0.000445704
0.000547136
-0.000744623
0.00176763
-0.00157014
-0.00157612
-0.00114997
0.00187375
0.000852343
-8.45288e-05
-0.00173662
0.000176487
0.000274846
-0.00144883
-1.18734e-05
0.00118585
0.00133501
0.000351581
0.00180879
-0.00158399
-0.000594424
0.000369627
-0.00133912
0.00132917
0.00108382
-0.00107388
0.00101483
0.000503215
-0.00115205
-0.000365998
0.000508262
-0.0011171
0.000928099
-0.000319264
0.00139177
-0.00114098
-0.00181295
0.00156217
0.00145935
-0.00162443
8.05536e-05
-0.000901081
0.000905031
-3.94985e-06
0.000112619
-0.000102099
0.00151072
-0.00180489
0.00170268
-0.0014085
0.00111973
-0.00100712
0.00113739
-0.00122989
-3.76007e-05
0.000130106
-2.44467e-05
-0.000519486
0.000543933
-0.00012357
-0.00103691
0.00124384
-8.33613e-05
0.00191015
-0.00171909
0.000135732
-0.000326796
0.000204321
-0.00226692
0.000184106
0.00169606
-0.001736
-0.000187503
0.000227444
0.000371551
0.000279054
0.000461245
-0.00111185
-0.000100993
0.00094867
0.00092388
-0.00177156
-8.04599e-05
-0.00117137
-0.000325272
0.0015771
-0.000570276
0.00170887
-0.000464645
-0.000673945
-0.00106834
0.000453081
0.001685
0.00104575
-0.00211859
0.00023225
0.000840582
-0.000305331
7.13934e-05
0.00192999
0.000313041
0.00142701
-0.000488564
-0.00125149
-5.18058e-05
5.40353e-05
-0.00123878
0.00123655
0.00185861
0.00010445
-1.30837e-05
-0.00194998
0.00103639
0.000454097
-0.000412049
-0.00107844
-0.00112278
-0.000479898
0.000534344
9.19223e-05
0.000648198
-0.000657844
-8.22767e-05
0.000189503
1.635e-05
-0.0014475
0.00100858
-0.000527314
-0.000136939
-0.000344327
0.000148167
0.000701588
-9.81243e-05
-0.00075163
-0.00112205
0.000962885
0.00120492
0.000743296
-0.00323127
0.000629977
0.00185799
0.000176843
-2.97671e-05
3.29981e-05
0.00127204
-0.00127527
0.00220461
-0.00070804
-0.000732169
-0.000764405
-0.00107611
1.37191e-05
0.00147782
-0.000415432
-0.000136293
-0.00103831
0.0012523
-7.76896e-05
0.001043
-0.00142212
-0.000694695
0.00107381
-0.00098675
0.00095858
2.81705e-05
-2.95047e-05
0.000952352
-0.000922847
-0.000466134
-0.00109054
-0.000402454
0.00195913
-0.000809177
0.000906297
-9.71207e-05
-0.000152963
-0.00132768
-0.0003346
0.00181524
-0.0023432
0.000863879
-0.00127881
0.00275813
-0.00160392
3.71537e-05
0.00156677
0.000757879
0.000839146
-0.000810993
-0.000786032
0.000976152
-0.00055923
-0.000184669
-0.000232254
0.00130382
2.84164e-05
-0.00133224
0.00124572
-0.00372526
0.000136337
0.000845561
-3.13681e-05
-0.000814193
-0.0014444
-0.000573028
0.00194083
7.66014e-05
-0.000876878
0.00452869
-0.00277262
-0.000879194
-0.00263805
0.00317647
-0.0004652
-7.32212e-05
0.00157637
-0.00090856
0.00219132
-0.000771843
-0.00168097
0.0024829
-3.00889e-05
-4.84109e-06
-0.000121783
-0.000680357
0.000806982
0.00148812
0.00190626
-0.00216825
-0.00122613
-0.00152923
0.00180791
0.000495986
-0.000774662
0.00169576
-0.000310944
-0.000663187
-0.00072163
0.000144885
-0.0010855
-0.000188422
0.00112904
-0.00322224
9.97319e-05
0.00164922
0.00147329
-0.000591304
0.00225044
-0.000872469
-0.000786669
0.000382042
-0.00093751
0.0017866
-0.00123113
-0.000193155
-0.000553016
0.00104584
-0.000299671
-0.000918768
0.000977635
-6.24428e-05
3.57576e-06
0.00160061
-0.00180675
-8.66522e-05
0.000292789
-4.87341e-05
-0.00159583
0.00160844
3.61278e-05
0.000130411
-0.000116282
-0.00152643
0.0015123
0.00220871
-0.000362555
9.40519e-05
-0.00194021
-0.00145324
-0.000305387
0.000372921
0.00138571
0.00049161
-0.000491627
1.62912e-08
0.00108931
-0.000741139
0.000726796
0.000226323
0.0020868
-0.000124773
-0.00218835
-0.000333288
0.000222932
0.000278811
-0.000168455
-0.00162885
-0.00202538
0.002928
-0.00115807
0.00132611
0.00126298
-0.00143103
-6.4911e-05
0.00129217
-0.00163005
0.000402789
-0.00123959
-0.00129808
-8.23584e-05
-0.000334376
0.00171482
-7.02291e-06
-0.000660541
0.000667564
-7.60107e-06
-0.000952221
0.00221978
-0.00125996
0.000650562
0.000916142
0.00163395
-0.000818304
7.66055e-05
-0.000892252
0.000717867
-0.000199439
-0.00119857
0.000680141
0.000901561
4.29114e-05
-0.00137384
0.000429364
-0.000648996
0.000537517
0.00203442
-0.00192294
0.00174325
0.00124581
0.00016317
-0.00315224
-0.00155845
-9.83782e-05
0.000315742
0.00134109
-0.00130656
0.00139166
-8.51052e-05
-9.11247e-05
0.000865384
-0.000129784
-0.000644475
-0.00026796
0.00055118
-0.00028322
0.00109026
0.00154932
-0.000695661
-0.00194392
0.00093323
-0.000934198
9.67893e-07
-0.00264368
0.000617077
0.00147718
0.000549428
0.000107172
-4.72309e-05
0.00128426
-0.0013442
0.00082228
3.40121e-06
-0.000825682
0.0016888
-0.00187529
-0.00120429
0.00139078
-0.00148674
-0.0028719
0.00171496
-0.000290432
0.000187575
0.00119571
-0.00109286
-0.000512314
0.00155843
-0.000164336
-0.000881779
0.000320286
-0.000846602
0.00124418
0.0009739
4.67218e-05
-0.00102062
0.00289245
-0.000699386
0.000171907
-0.00236497
0.00109292
0.000312794
0.000699756
-0.00167179
0.00080347
0.000168561
-0.00175995
4.98473e-05
0.00131961
0.000390493
-0.000328107
-0.000724065
0.000767087
0.000285086
0.00103114
-0.00132808
0.000296938
-0.000365139
-0.000709917
0.00107506
0.000910568
-0.000589651
-0.00103368
0.000712764
-0.000390018
-0.000217003
0.00156008
-0.000953056
-0.000766329
-0.00122496
0.000947755
0.00104353
-0.00150514
0.00137443
-2.51607e-05
0.000155863
-8.77455e-06
-0.000928735
-0.000225008
-0.000820705
0.00103525
1.04656e-05
0.00157
-0.00147643
0.000428707
-0.000522274
0.00238293
-0.00237116
0.00108114
-0.000415455
0.00045606
-4.06042e-05
-0.000870996
0.000859695
1.13016e-05
-7.87314e-05
0.00109041
0.000372518
-0.0013842
-0.000691276
-0.00108915
-0.000429708
0.00221014
-0.000645515
-0.000496051
0.00224166
-0.00110009
0.00110985
0.00029761
-0.00148619
-0.000214391
0.00165447
-0.000752225
-0.00068785
0.000235175
-0.00109262
-0.000478885
0.00133633
-0.000304481
0.000187173
-0.0015233
0.0016406
0.00151748
-0.0010989
-0.000839951
-0.000626557
-0.000186845
0.00165335
0.000453132
-0.000229485
-0.000227229
3.5809e-06
-0.00177939
0.00207583
-0.000211443
-8.50043e-05
0.000581176
0.000641817
-0.000610881
-0.000612112
-0.000244577
0.0012686
2.66715e-05
-0.00105069
0.00141763
6.04583e-05
-0.00126685
-0.000211233
-0.000174822
-0.00174062
-0.00043162
0.00234706
-0.000150268
0.00125955
-0.00110929
0.00152477
0.00129504
-0.00173587
-0.00108393
0.00101107
7.63197e-07
-0.00101184
0.000111315
-0.00133188
-0.000333243
0.00155381
0.00238337
-0.000340061
-0.00112024
-0.000923069
3.39335e-05
0.00239627
-4.68328e-05
0.00117146
-0.00111948
-5.19769e-05
-0.000421837
-0.000821547
0.00124338
0.00217768
-0.000581117
-0.00136861
-0.00101852
-0.000995942
0.0016744
9.48176e-05
0.000402994
-0.00157214
0.00107433
5.65027e-05
-0.00135669
0.000848713
0.000451474
-6.63022e-06
0.00118251
6.8569e-06
-0.00118273
-0.000230258
-3.16469e-05
-0.00111782
-0.000294175
0.00141199
-1.89143e-05
-0.000970212
0.000989126
0.00207625
0.000157698
-0.000133201
-0.00210075
0.000869589
-0.00161068
0.000388197
0.000352899
0.000548517
1.34012e-06
-0.000549857
-0.00158317
0.00025833
-6.39449e-05
0.00138879
0.0005669
4.19079e-05
0.00123644
-0.00184525
-0.000582828
0.000629063
-0.00174775
0.00170151
0.000174465
-0.000229336
-0.00163484
0.00168971
0.00116273
-0.00108619
-0.00249664
0.000284746
0.000736543
-0.000751335
-0.000762018
0.00077681
-0.000672316
0.000675192
-2.87632e-06
-0.00159847
-0.000564539
0.00239532
-0.000343171
-0.00148761
-0.000931587
-0.000283284
0.00126392
-4.90518e-05
0.000268456
0.00151826
-0.0005814
-0.00120532
-0.00300911
-0.00252846
0.000197108
0.00242341
-9.206e-05
0.00017967
0.000129647
-0.00104301
0.000733688
0.00166676
-0.00153988
-0.00171994
0.00121511
0.000348057
-0.00156316
0.00173163
-0.000320199
-0.00123908
-0.000172348
-0.00103542
-5.73684e-05
-0.0006991
0.00179189
0.00170074
-0.0014386
-0.000506292
0.00024415
7.50285e-05
0.000527391
-0.00162506
0.00102264
5.19965e-06
0.0008852
0.000136002
-0.0010264
-0.00082497
0.00105042
0.000296721
-0.000522171
1.23293e-05
0.00145331
-1.14872e-05
-0.00145415
-0.00109796
0.00111029
-0.00102338
-2.28604e-06
0.00102567
-0.00167023
-0.000154175
0.000417794
0.00140661
0.00117465
-0.00114862
0.000687405
-0.000713438
0.000289886
0.00102038
-0.00110175
-0.00020851
-0.00141381
0.00206932
-0.000238199
-0.000417309
0.00082345
-0.000786868
-3.65817e-05
1.60438e-05
0.000652593
0.0017143
-0.00138146
0.00117765
0.000507089
-0.000303286
-0.000340574
0.00075888
-0.000418306
-3.54494e-05
0.00118656
-0.00115111
-0.00185959
0.000705287
0.000361786
0.000792515
-0.00334
0.00243422
0.000921822
0.00247913
-0.000296431
-0.000424102
-0.00175859
0.000991689
0.000121647
0.000634621
-2.9436e-05
-0.000665033
5.98475e-05
0.000686738
-0.000538571
2.67997e-05
-0.00159544
0.00156864
-0.00275521
0.00197
-0.000875209
0.00211123
-0.00142883
0.000192809
0.00144122
-0.00194934
0.000602929
0.0011079
-0.00202365
0.000390125
0.000525625
-0.00102919
0.00123611
-0.000206919
0.0021474
0.00044958
-5.28982e-06
-0.00259169
-0.00103161
0.00104043
-8.81908e-06
0.00280678
-0.0025156
0.000324699
0.00166339
-5.42691e-05
-0.00160912
0.00119367
-0.00121683
2.31628e-05
-0.00119338
0.000134069
0.00105931
-0.000459974
-0.00112922
0.000395813
-0.00244196
0.00160148
0.00043952