/*--------------------------------*- C++ -*----------------------------------*\
  =========                 |
  \\      /  F ield         | OpenFOAM: The Open Source CFD Toolbox
   \\    /   O peration     | Website:  https://openfoam.org
    \\  /    A nd           | Version:  10
     \\/     M anipulation  |
\*---------------------------------------------------------------------------*/
FoamFile
{
    format      ascii;
    class       volScalarField;
    location    "60";
    object      SgRate;
}
// * * * * * * * * * * * * * * * * * * * * * * * * * * * * * * * * * * * * * //

dimensions      [1 -1 -3 -1 0 0 0];

internalField   nonuniform List<scalar> 
59698
(
0.0163212
0.00197492
0.00252263
0.00271599
0.0305486
0.00145199
0.00463408
3.10282e-05
1.98118e-09
3.93007e-09
0.000586478
0.000298754
1.58004e-09
0.00229234
0.000358807
4.27069e-07
6.93782e-06
0.000145832
4.51337e-05
0.000260419
0.00176219
0.0142323
0.000499109
8.81916e-08
0.0422492
6.78201e-05
0.000342618
0.0100998
0.00914612
0.00749473
0.00481587
0.000600638
6.68133e-08
0.0164041
0.00251443
0.000162864
0.0194694
0.0205226
0.00044309
0.0250135
0.00862738
2.30467e-07
0.00368219
0.000641048
0.000402107
0.0322019
7.33057e-05
0.000731598
0.00315682
0.00017354
0.00151767
0.000119125
0.00206427
0.0027344
0.0113731
7.66878e-05
0.00132316
0.000213101
0.000805971
0.00283486
0.00524554
0.000499219
0.122275
7.02881e-05
0.0124476
0.00161116
1.75323e-09
0.000398764
5.55636e-05
6.77377e-09
6.1131e-07
0.000250974
0.000364126
0.0422665
0.000411952
0.0393596
0.000119547
0.00922566
0.000359392
0.00617223
0.00881854
0.000479863
4.05651e-09
1.61905e-05
0.00848558
0.00055268
3.76421e-06
4.24287e-05
0.0631716
0.000129118
4.50286e-09
0.00206485
0.0146851
9.74033e-06
7.32341e-05
0.00375136
0.00527123
6.39698e-05
0.000264302
8.59568e-10
0.076596
0.0018041
0.0162146
0.0152852
0.000120327
0.000564776
4.42866e-05
3.39e-05
2.74543e-09
4.39331e-10
0.00024418
7.35431e-06
0.037936
1.56283e-07
0.000148597
1.09788e-07
0.000120826
0.00387078
0.000122956
1.15618e-08
0.000392981
0.000708457
0.000233313
3.97155e-05
2.39445e-05
3.06486e-05
0.0108177
7.20892e-09
4.35286e-05
4.3909e-07
0.0453206
5.31815e-08
1.10612e-09
0.100074
0.00434278
0.00439133
6.26219e-07
2.54147e-10
0.000254934
0.000131287
0.000109191
0.00231879
0.00269789
0.0026751
2.38959e-07
0.000692388
6.58608e-07
5.00504e-07
0.00480208
0.0292556
0.000299102
0.000434379
0.00145484
2.9307e-07
0.000160978
0.000343096
4.73268e-05
0.00163242
0.0124366
5.78087e-10
0.000862729
0.000481747
0.0163589
0.00162429
0.00342279
0.0345866
0.000237851
0.0721563
0.00200733
0.000411533
0.0119231
1.49739e-06
0.0108157
0.0147477
0.0791231
0.00194674
4.38201e-09
0.00144579
0.000326017
0.00929868
0.00946276
0.0184006
0.0148635
3.11217e-07
0.0455771
0.000234653
0.0114862
0.00248009
0.000851582
0.00118124
0.000404304
6.73686e-05
0.00265892
0.0385562
0.00411364
0.00417133
0.00987491
0.0588735
2.72072e-05
0.00774267
0.000227082
0.00617075
0.0211362
6.62036e-05
0.0105213
0.00277282
0.00613614
0.0028565
0.00781988
0.0115332
0.00256074
2.36422e-05
0.00278961
1.56835e-08
0.00407857
0.00386682
3.81873e-05
3.60823e-05
0.0128215
0.00665516
0.00560799
0.00268309
2.96362e-05
0.066441
0.00082738
0.0264053
0.00731602
0.00323839
0.00692837
0.15858
7.54507e-09
0.00468629
0.00294046
0.00319977
0.000348592
0.00960946
0.0831598
1.91206e-05
9.68035e-07
0.000447372
0.00281633
0.00147806
0.0134785
0.000664542
0.00608948
0.000118921
0.00376783
0.230364
0.0012216
0.00042659
0.000705623
0.00165214
0.000629094
0.000233553
0.000618421
0.00239419
0.00601336
0.00128881
0.00364365
0.000396747
1.46426e-05
1.8138e-09
0.000389549
0.00591965
0.00471591
0.0479475
2.30425e-05
1.07333e-07
0.000164806
0.000278565
0.000141183
0.0440838
0.00022339
0.000367645
0.0179798
0.000206016
0.00151628
0.000511379
0.00210966
1.2291e-09
0.000574133
0.000195475
0.000212412
0.105451
0.0493716
0.020179
0.00013486
0.000647651
0.0732418
0.00044558
0.0910565
0.00234054
0.000187729
0.000164809
0.000321277
0.00273552
0.000356756
0.000804934
0.00420899
1.19064e-05
0.00272271
2.25021e-09
6.8664e-08
0.000824254
6.46987e-05
5.25908e-05
0.0519799
0.00101175
2.02208e-06
0.000267062
0.00220032
0.000324245
4.04718e-05
2.37965e-08
0.00193945
0.00513112
0.000403389
0.000392684
0.000829308
0.00080478
0.000340428
0.323899
0.000320388
2.91377e-09
0.0476255
0.0104027
0.000328067
0.000352923
0.000438696
0.000361922
0.00934497
0.00416615
0.0203056
0.206538
0.000430951
1.88023e-05
9.88129e-06
0.000662981
0.00911329
0.00450312
0.0102593
0.00206615
0.00253476
0.00147643
9.68875e-05
0.000600353
0.000100914
0.0393666
4.78034e-05
0.00204845
0.00800072
8.51423e-05
0.0403035
7.95276e-10
0.244805
0.00216937
0.0142006
0.000320236
3.77486e-05
1.82185e-09
2.75077e-05
8.87044e-06
1.10425e-07
0.000886862
1.18528e-10
1.04126e-07
0.00281313
0.0020304
0.000155938
0.00166716
0.0018886
0.000533991
0.0036734
0.000651119
0.0061977
2.97945e-09
0.000153313
3.50237e-06
0.000460538
2.49215e-09
0.000347124
0.000103051
5.65576e-05
0.000523575
0.000139853
1.95793e-05
0.000211197
0.00054482
7.84353e-10
0.000143236
8.7543e-05
0.000457466
0.00456879
0.00257295
0.0013426
0.00227018
0.04816
0.00184184
0.00272079
0.000145538
0.002847
0.00238735
0.00258634
3.24848e-05
0.00148687
0.0042032
0.0859117
0.0280454
2.23129e-05
0.00542466
0.0317207
0.000404302
0.00178454
0.000434527
0.00062145
0.0594306
0.000121552
0.0103487
0.00240315
0.00183906
0.00303778
0.00244809
0.0025278
0.310221
0.000353749
0.00146458
7.85286e-09
0.000220209
0.0014322
5.40972e-10
0.000258883
0.00214755
0.0163199
0.00303096
0.00213007
1.41491e-08
1.39628e-08
0.213772
0.000124071
0.0031779
1.92328e-07
0.00325752
5.14051e-09
2.15896e-05
4.10168e-05
0.00241129
0.0700512
4.50478e-10
6.46807e-05
0.00906372
0.00256166
0.000125023
5.89694e-05
0.032985
0.000283517
9.69085e-05
0.108434
1.39656e-09
0.00958927
2.54105e-07
0.0543008
5.07413e-06
0.0156796
0.013323
2.19421e-09
0.00097495
0.00044684
0.00846336
3.3379e-05
0.00803959
0.00292228
4.44428e-09
2.06449e-10
6.86408e-09
0.000385444
0.000817198
0.00112318
0.06912
0.0062164
0.00220206
3.38248e-05
0.000498168
3.91615e-05
1.93431e-08
0.00541852
4.55741e-05
5.56967e-05
9.37694e-05
0.0658908
0.00179021
0.0232324
0.0664191
0.00109682
0.000163354
0.0584568
6.15808e-05
5.69286e-07
0.00237022
0.00942921
0.000365618
9.7722e-10
0.0644503
0.00713347
0.00459808
1.71078e-08
1.1187e-09
7.76925e-05
2.1333e-09
5.0088e-05
0.00314884
0.000585604
0.0748187
0.00735186
5.41924e-08
0.00909638
5.63517e-05
6.88835e-09
4.7537e-05
7.0384e-08
2.48489e-08
0.00543538
0.00378174
5.16998e-05
3.83322e-09
2.18751e-09
0.00125022
0.00952316
1.03013e-05
0.0106544
0.00389988
1.66603e-07
0.0427823
1.82748e-08
2.22202e-05
0.00145199
3.54441e-10
1.35532e-08
0.00185641
0.000138496
0.000384875
0.00969248
0.000357001
0.00014648
0.0679735
0.00819592
0.0135465
0.0100705
0.000173379
0.0117262
7.79245e-06
5.07555e-05
2.28836e-09
4.61229e-05
1.91216e-09
0.000276561
4.59058e-06
1.91493e-08
0.00114885
0.00688549
0.000448522
0.000768494
1.73156e-09
3.57258e-05
9.25159e-05
5.4757e-05
1.80846e-09
0.0745241
5.63341e-05
0.00552382
0.000539254
0.00288519
6.42812e-05
1.9443e-07
0.00260091
0.0028714
0.00338487
0.00020091
0.00402786
0.00211904
2.31153e-09
0.000732637
7.59451e-05
0.00521297
5.42645e-05
0.004057
0.000313366
0.00242748
1.76574e-05
0.00420354
0.00268263
0.00216463
0.00332398
0.000371105
0.000167533
8.51968e-10
1.823e-05
9.27684e-07
0.00432951
0.000349776
7.18057e-09
0.00517654
3.36704e-05
2.88201e-09
0.00342236
0.00148056
0.00216156
0.000165066
0.00108756
0.00393029
0.000346516
0.000262353
0.000547594
0.000390097
0.00433986
0.00140993
0.00279237
0.000355704
0.225365
1.87994
0.000268644
5.02341e-09
0.000596453
0.00213648
0.000937641
0.00248069
4.87027e-05
0.00711263
0.00245886
0.00319135
0.00156118
0.00276848
0.000211243
9.20149e-05
0.00114226
0.000107565
0.00133165
0.000238543
0.000444612
0.00154441
0.109299
0.000238166
5.0855e-06
0.000607885
1.45234e-09
0.0024292
0.00381651
4.11872e-05
0.00244436
0.000120676
1.74244e-09
0.000439478
0.000175884
0.00827367
0.000803651
0.00058526
0.00011392
8.70139e-05
7.89362e-06
0.000326494
0.00202963
0.000308805
0.000814858
0.00088394
0.0197295
0.0906722
0.00137043
3.34586e-05
0.00233345
0.00319769
0.0415209
3.85713e-09
2.15827e-05
0.000460122
0.00354657
0.000143835
0.0016895
0.000428464
0.0108076
0.0473006
0.000144894
0.000422224
8.02798e-05
3.5343e-07
0.000378101
0.00140706
0.000224979
0.00215078
0.000194747
0.000191673
0.0114129
0.00440786
0.0393445
0.00080709
0.00138488
0.00211644
0.00244222
0.000242569
0.00117912
0.000650656
0.000158996
2.26394e-10
1.1034e-09
0.00660846
0.000819726
4.50193e-05
1.48337e-09
0.00634633
2.63259e-05
4.40543e-06
2.7258e-09
0.00343205
4.17956e-08
0.000504061
0.000362167
0.000342645
0.00196732
0.00924401
3.4511e-05
1.36912e-09
0.000646946
0.0622394
0.00322563
3.86753e-05
0.000952353
0.00146442
0.0256683
0.00890501
1.32693e-09
0.0556304
5.20631e-05
0.00256446
0.000344565
0.00939407
7.25441e-05
1.48115e-07
0.0112108
0.00449407
0.00053216
0.00308181
0.0594392
0.000584889
6.92343e-05
0.245784
0.00232625
0.000739173
0.00240275
0.00191572
0.00177469
5.27547e-06
0.0151217
0.00101973
0.0599499
0.00317306
0.0246366
7.09747e-10
0.000212248
0.104902
0.239335
0.000599772
6.88569e-05
0.0501079
0.000383648
0.00225894
0.00517337
0.00194297
0.00830159
0.00407246
2.5442e-07
0.000401569
0.00196426
0.0142371
0.000373921
3.49753e-10
0.00269237
2.50834e-09
0.00437391
3.87573e-05
0.000223514
0.00608662
0.0052095
1.23364
3.75045e-09
0.0247352
0.00975059
0.0210559
0.00104423
0.00473145
0.000326088
0.000990534
0.00158865
0.00140188
0.00660502
0.0111197
0.10407
0.00219159
0.00543698
0.000541567
7.07773e-09
0.000383085
0.000365721
0.000232645
1.62929e-09
0.00320309
2.10996e-06
0.00951529
0.000211859
0.000730329
0.00158244
1.69299e-07
0.00686582
3.61557e-09
0.0010044
6.09848e-05
0.0013047
0.000117771
0.0137131
0.000651794
0.00179571
0.019903
0.210145
8.07611e-05
0.00879659
0.000126934
0.000720307
0.000444805
0.000428775
0.00379254
0.000846537
0.00752313
0.000561237
0.00627935
0.00227909
2.10473e-06
0.000401151
7.25375e-05
8.38919e-05
3.33618e-05
0.000503649
0.000274797
0.000318448
7.69573e-09
5.12022e-09
2.09301e-09
0.000487214
2.16829e-09
0.00555554
0.00493091
0.00153204
0.000499713
0.00405992
1.56793e-05
2.92166e-09
0.0159234
0.000469626
0.000155369
1.314e-09
0.0356981
0.00489459
0.000876718
8.92018e-06
2.21039e-05
0.0105788
2.63812e-07
0.00981455
0.000125546
0.000532565
0.000487246
0.000128446
3.30945e-05
2.49842e-09
0.00134171
1.51285e-09
0.00892484
8.98242e-08
0.00205941
0.000108821
7.04942e-05
0.00163656
0.00164784
0.000597988
0.00192311
6.2625e-06
0.00202287
0.000307135
1.25197e-09
0.00206041
6.30112e-05
3.30042e-05
0.00423793
3.05793e-09
0.000267711
0.00372855
0.0182877
0.000319936
0.00105872
0.00296708
9.07852e-05
0.00461908
0.000633463
0.000584036
0.00449138
0.00014898
0.000379941
0.003198
0.00162122
8.57623e-09
0.00263211
0.000375381
5.60388e-05
0.0654608
0.000412235
0.00150303
0.00272116
1.49204e-07
2.03965e-09
0.00280786
0.0041814
0.00540649
0.020212
0.00399469
6.47518e-07
0.0407671
9.26545e-05
0.00133043
0.115099
0.000229739
0.00457822
0.00453397
0.0322507
0.0584841
7.37381e-09
0.00254332
1.65705e-09
0.0247285
0.000271302
0.000345462
0.00141949
3.76754e-10
0.000761135
0.00243636
0.000575269
0.00195204
0.00677879
0.00279676
0.00328126
8.23159e-05
0.0251191
0.000737113
0.00014126
2.45073e-07
0.000825728
5.67355e-05
0.00238112
0.00107183
3.08489e-07
4.83007e-05
0.00552375
0.000295111
0.000163231
0.000106975
0.00544693
1.44562e-09
0.000142206
0.00962819
0.00358309
0.000295206
0.000415268
0.000265497
0.000130525
0.000425234
2.36457e-08
7.52857e-09
0.000429219
0.00234433
0.000466222
0.000396053
0.0140831
0.0186758
0.0177822
7.51105e-06
0.00184147
0.00294072
0.00270998
0.0048127
0.00593817
0.000404915
4.64372e-05
0.00255852
4.41469e-05
0.0110424
0.0565196
0.00198469
0.000443755
0.000194155
0.000538422
0.000106395
0.00115003
0.00228453
0.00233844
0.000608738
6.89352e-09
0.000122791
0.00236862
0.00235827
0.00232026
0.00403131
0.0472973
0.000395618
0.00190293
0.00135669
0.0230118
5.65893e-10
0.000396766
1.42191e-05
0.00462056
0.000453508
0.00160238
0.00470451
0.000207083
0.00348472
0.00356756
0.00366948
0.00546686
0.00950912
0.0100939
0.00816537
0.00528539
0.00581498
2.33065e-06
0.00014831
0.000475256
0.00592503
0.00475019
0.00222997
5.64885e-10
0.00174202
0.00394123
0.000245165
0.00161073
1.44273e-06
0.0149527
0.000126673
0.0407143
0.00314941
0.734049
7.56026e-06
1.56467e-08
0.00211446
0.00317334
1.78415e-07
0.00076061
0.0039921
0.00699568
0.0043341
0.000638276
0.00677327
0.000542246
1.04777e-09
0.0197747
0.000765793
0.000935027
0.00116014
0.00267946
0.000324315
0.00112567
3.11549e-09
0.000534598
0.00812304
0.00271465
0.0922044
9.40625e-09
0.00240933
0.082142
2.58982e-10
0.00874199
0.00277316
0.0251873
0.00130935
0.00362226
3.49636e-05
6.80935e-06
0.00132118
1.54741e-08
0.00123968
4.23129e-05
0.000118217
0.000125646
1.18062e-08
0.00171711
0.00324075
0.00970694
2.93414e-08
0.00218916
0.000523975
0.000161248
0.0365252
0.0543532
0.00500242
0.000370699
0.00427064
0.459119
0.0239407
0.0262493
0.000459009
0.00044909
0.102548
0.00013644
2.28776e-07
1.50056e-06
0.0167237
0.000214524
0.00170545
0.000328359
0.00174814
2.99215e-08
0.00461889
0.00903503
0.00288114
0.00064679
0.00074007
0.000477736
2.27396e-09
0.000130959
0.00363309
2.45049e-10
0.00114596
0.000584529
0.00778013
0.00035453
0.115099
4.50981e-05
0.00118746
1.46154e-06
0.0056508
9.28375e-05
0.00110489
0.002577
0.000380629
0.00242576
8.84832e-06
0.000132724
0.00285792
3.58157e-05
0.0186969
0.0122151
1.06622e-05
0.00150538
0.0840993
0.00295918
0.00399816
0.000114335
3.40502e-07
0.00369086
0.0363062
0.00888531
0.00265113
0.00018361
0.00191388
0.00336479
0.0029792
0.00372901
0.00536967
7.55397e-09
0.115484
0.0514314
0.000486072
1.03072e-06
3.04679e-05
0.00312596
0.00244982
0.0260656
0.0011338
8.56097e-07
0.00229834
0.000372033
2.89533e-09
0.00356278
4.22331e-09
0.00269381
2.67583e-05
0.0014858
0.00377601
9.22129e-05
0.0193765
0.000150582
0.000434431
0.00363407
0.00413101
0.00205373
0.00211501
0.0118758
0.000579701
0.000345167
0.000373878
0.000265423
9.36963e-06
2.29696e-09
0.000189949
7.29646e-05
9.6912e-05
0.000781453
0.000646978
0.000855152
0.000445106
0.000244357
4.89992e-07
0.000321216
0.00267075
0.000496418
4.50167e-05
0.000238789
0.000242565
0.000315418
0.000232199
0.000223593
0.00388581
0.10329
5.30426e-05
0.00478709
0.00168948
0.00413987
4.88306e-09
0.000246822
0.000310216
0.00831608
0.0198225
0.00482158
0.00258613
2.22175e-08
8.51314e-05
0.000377614
0.00477411
0.00941353
1.04628e-08
0.00514901
0.00285515
0.00107653
0.00353373
0.00264074
0.0145371
0.00191978
0.00384818
9.74873e-05
4.63322e-10
1.39578e-09
5.25669e-05
0.00563339
8.22104e-06
6.36674e-10
3.49739e-05
0.00502487
0.000211866
0.00100903
0.00101892
6.04916e-05
0.00191199
4.83602e-05
0.00389212
9.69416e-05
0.00208935
0.0283996
0.0020754
0.00122903
6.12458e-05
2.25163e-07
0.00101881
0.000983776
0.0146206
3.1891e-10
1.21842e-07
0.00120882
1.22676e-07
0.000879946
0.000216736
1.51197e-07
6.88478e-09
0.000215765
0.000283232
0.000584271
0.00219952
0.00208101
0.000277214
0.000574442
2.60521e-05
1.07308e-08
0.00533538
0.000202599
6.6211e-10
0.0476704
6.50892e-05
3.31468e-05
0.000284073
6.10867e-08
1.65034e-05
0.000547246
8.77418e-05
0.000563699
9.69018e-06
0.000953582
0.000349538
0.0027263
0.00429561
0.00128841
1.57568e-05
0.0626125
0.00238291
2.11076e-07
0.00607866
0.00289844
0.00672307
1.08279e-05
2.16087e-07
0.352753
1.59417e-06
2.47855e-08
3.44771e-05
0.0253717
0.0030343
0.000635586
0.00049221
2.09604e-05
0.00321334
0.0363268
0.00481669
0.00869093
0.014244
5.5973e-08
0.000340203
1.66978e-09
3.66649e-05
0.00829179
0.000746792
0.0749402
4.16841e-10
0.000477411
6.34289e-10
0.000532954
0.000313621
0.000377662
0.0105063
0.0180578
0.00054469
0.00185612
0.00451516
6.43781e-09
0.000243735
0.000989366
0.00200984
0.000394361
0.000820669
0.00749132
0.0106698
0.000590476
0.00170247
0.00265995
3.69326e-05
6.42549e-09
0.000432448
0.0137393
0.0115822
0.00502007
0.0471808
0.00263898
0.000163057
0.00523659
0.000185106
0.000681555
0.00106368
0.0223447
0.000285471
0.0206281
0.011619
0.0339519
1.82234e-09
0.100791
0.00884355
0.00174288
0.00465666
0.0650593
0.000403593
0.00282679
0.00239125
0.00228809
0.00799197
0.00112771
0.00022984
2.48261e-05
0.00203417
0.0248801
0.292295
0.000156885
0.00898738
0.000290753
0.00126071
0.000444878
0.19032
0.000616384
0.286992
0.779932
0.00010398
2.24121e-09
2.10014e-05
0.00136647
0.010685
0.00559582
0.0101357
0.0627909
0.0341884
0.00184284
0.00163697
0.0103
0.0113505
1.20924e-08
0.000527184
0.000427672
0.00035868
0.000425428
0.000637652
0.137932
0.000273931
0.00300329
0.000398955
0.00308041
0.00201859
0.00221777
4.49483e-10
0.478621
0.0313719
0.184879
0.149442
0.00219587
2.01567e-09
0.00661989
0.00125131
2.8403e-05
0.000761567
0.0851642
8.84623e-10
0.00178755
6.97245e-05
0.000207822
0.0165061
4.81132e-05
0.00854776
5.36229e-05
6.54711e-05
0.00165046
0.000612895
0.00112367
0.0130061
2.92848e-05
0.00245593
0.00138527
0.0177978
4.91676e-09
0.000502804
0.00160472
0.015194
0.00164618
0.000166042
0.00226586
0.0314442
0.000504115
0.000196655
9.2601e-05
0.00148129
0.00177408
0.0030808
1.46922e-08
3.04649e-05
2.41848e-05
0.000298098
0.00380678
0.00135495
8.20367e-08
0.00268723
8.55721e-10
0.0107468
0.00108923
0.000804583
0.00190209
0.00167404
0.00952133
0.000578166
0.0137809
0.000301156
0.00042329
1.17177e-09
0.00037871
0.0004054
0.000581333
0.00196223
4.55683e-07
0.00163333
0.00947359
0.00173877
0.000460529
0.0187396
0.0022514
0.00130065
0.0145511
0.00744156
0.0123354
0.0131256
0.00627192
1.64006e-07
0.320177
0.0623241
0.000812957
0.000573417
0.0148486
0.000913638
0.0242492
0.000105037
0.000403277
0.0141799
5.5518e-06
0.00677477
0.000614685
0.000132938
0.007561
1.06207e-05
0.0312599
0.357353
0.00113488
0.0573059
8.36593e-10
0.000256105
0.00435153
1.68093e-06
0.103878
0.002442
0.00171642
0.000484874
2.47318e-09
0.00343233
0.00279666
5.12522e-10
0.000489125
0.0267024
0.000618779
5.736e-05
0.0620005
5.13558e-07
0.00269868
7.7903e-11
0.000345768
0.00241754
0.000153478
1.18825e-09
0.00218498
1.11182e-08
0.00249975
0.000524481
1.87744e-09
7.87484e-08
0.0043977
0.00209932
0.00279372
5.45213e-10
0.00221542
0.000626389
0.00279485
5.10659e-05
0.0320699
4.57359e-08
5.53982e-05
2.75161e-09
0.00168621
0.0371281
5.05001e-09
2.79341e-07
0.000274719
0.002546
0.000453102
0.00195222
0.296167
2.56679e-09
0.000232068
0.00232179
8.63761e-10
3.76998e-09
3.98041e-08
0.000176184
0.000502524
0.000846575
0.000529729
0.000105654
0.000200439
5.87718e-11
0.0115187
0.000221052
0.000394062
0.00147893
0.00394937
0.00385371
0.0445322
3.17982e-10
0.000172944
0.000123578
8.53696e-05
0.000106839
0.0027798
0.000620083
0.000514077
0.000120041
0.000348275
0.000381677
0.000129039
4.26879e-08
8.49629e-05
0.0226193
1.88485e-08
0.00857339
0.000123647
0.0155951
0.0011388
0.000118973
4.68131e-05
0.00439335
0.000336797
0.00411056
0.0192566
0.00222085
6.1854e-05
1.39103e-05
0.000150048
0.000856329
0.000348182
0.00386272
0.0162815
7.18044e-05
0.0104023
1.41393e-06
0.875941
0.442517
0.00011
0.0410878
9.41371e-05
0.00039112
0.00938502
1.03909e-05
0.60386
0.0440045
0.00757345
0.000620285
0.0283284
0.39313
0.00291667
0.025043
0.00439853
0.0022177
0.123125
0.0441807
0.000576164
0.000955221
0.0259929
0.0487677
0.00411535
0.000310692
0.0335337
0.000205396
0.0139648
1.09813e-08
0.000264408
0.00661091
0.000214388
0.00421484
0.00391916
0.000125337
0.000127035
0.000294659
1.08929e-09
0.00786552
0.00602799
2.83337e-09
0.000444539
0.00170336
0.00242576
0.00409237
0.000384316
0.0115468
0.0638274
4.3727e-07
0.0333302
0.000140984
0.00431189
0.000143592
0.00223256
0.0303634
0.00414466
0.000222538
0.0272076
0.000303594
7.64004e-05
0.000365549
0.000259139
0.00062665
0.00755083
0.0259335
0.0146652
0.00735556
0.00550111
0.00104638
0.000133869
8.1118e-05
0.000136362
0.00413619
2.77271e-06
0.00483504
3.65111e-07
3.59444e-06
0.00159239
0.00144801
0.00175692
0.000161214
0.0101404
0.00187372
2.31391e-06
0.00338603
0.000275436
0.00183811
0.000459324
0.00681058
0.00231244
0.00505902
0.000441528
0.00632955
0.00228855
4.23729e-05
0.0023888
0.00313455
0.00180932
0.00153196
4.40149e-09
4.9971e-06
9.12387e-05
0.0347034
0.00179572
0.00702291
0.00184217
0.000172541
0.00334283
0.00843166
0.00228075
0.00251208
0.00362478
1.22818e-06
0.00165496
0.00190449
0.000362088
4.1693e-05
0.00299623
0.0026205
0.00798364
0.0290066
0.00167253
8.23147e-05
0.00298606
0.000327838
0.0042675
7.63766e-05
0.00615446
0.000359537
0.00279716
9.30877e-05
0.000731735
0.000920767
0.0072146
6.02454e-05
0.0199733
0.00615381
0.000237793
0.00138653
0.00159583
0.000251795
2.30255e-05
0.00247371
0.0219291
0.000268888
0.0377104
0.0020833
4.75671e-05
0.00015851
0.00188528
0.000690618
0.000882488
0.0138359
0.0231563
0.00207397
0.0117587
0.0017662
3.13308e-05
0.00437332
0.0143879
0.000447669
0.00177839
2.60762e-06
0.0824278
0.0419358
0.000103428
0.00255536
0.00175912
0.000430991
0.000284834
0.0338002
0.00867636
0.0158452
9.52166e-05
0.00100439
3.45465e-05
0.0194558
2.49497e-09
0.00337524
3.51132e-05
0.00104792
0.0202344
7.25712e-05
0.000396032
0.00444524
0.00147544
0.00266447
0.00161369
0.0236972
0.000227212
0.00208445
0.0200049
2.04724e-05
0.000410058
0.000429829
0.000362809
0.00236894
0.0133937
0.000466719
2.30275e-08
5.27069e-05
0.00141212
0.000662924
3.46567e-07
5.1078e-07
2.59132e-09
6.68168e-07
3.8241e-05
0.0116113
0.00500105
0.000369985
0.000460462
0.000294353
0.0622568
5.77946e-07
4.99876e-09
0.0180819
0.00281631
0.0018611
0.00332252
0.000518053
1.49308e-07
0.0181972
0.00217
0.0228764
0.000776957
0.0501185
0.0142706
0.000125479
0.025676
0.00326292
0.0893151
0.00746845
5.61696e-09
3.53328e-05
0.256651
0.00665767
0.00100873
0.00309302
0.000159465
0.00336416
0.0308436
0.0108596
0.00286472
0.144209
0.00637383
1.35816e-09
0.0177398
0.0640926
0.0347418
0.00132695
0.00262057
0.000210958
0.00282754
0.000671349
0.0189389
0.0197547
0.000894213
0.052439
0.023022
0.000625225
0.00262422
0.0136959
0.00324231
0.000708915
0.0503819
0.00260908
0.000113916
0.0107055
0.0108739
0.0218732
0.00261673
0.000270492
0.00277032
0.0162916
0.000357976
9.44636e-05
0.172831
0.0033854
0.00123458
0.00161113
4.70226e-05
0.00435879
2.65075e-09
0.0186653
0.0025352
0.0141088
3.69364e-05
0.00565976
1.12523e-08
0.0164927
0.000301445
7.83445e-05
0.00876156
0.00244252
0.00663822
0.00770822
0.00220804
0.0159461
0.000134179
0.0157014
0.00656617
0.00929562
0.0563706
0.00558907
0.0293921
0.0346534
0.0169853
0.00114193
0.00453254
0.00265628
0.000964579
0.000916057
0.00398203
0.00221931
0.000635294
5.8683e-05
1.6895e-07
0.00237293
0.00133728
0.00127789
0.0538721
0.00324104
0.00296794
0.000539794
2.36727e-05
0.000451988
0.000488065
0.00258423
0.0299857
0.00253817
0.00192922
6.6025e-05
0.0170052
0.00255098
3.73084e-05
7.25386e-05
0.000217579
0.0346005
0.00692008
0.000518042
0.00229413
0.00447856
0.000221223
0.000203089
0.00494013
0.000429641
6.99823e-07
0.00114399
0.000277936
0.00187125
0.00221779
0.00104559
0.00863866
0.103275
0.000243208
4.51275e-06
0.00356666
0.000326852
0.0110977
0.00239968
0.000127692
8.09182e-05
0.00319196
3.75167e-06
0.0101105
0.0749392
0.0447203
0.000175596
0.000526336
1.07958e-05
0.000285695
0.00263412
0.00391689
0.000451137
0.00272543
0.0141762
0.00194366
0.000279882
0.00230993
0.000419987
0.0298827
0.000722091
3.70095e-08
0.0110604
0.00234379
0.000562022
0.00463738
0.000613046
0.000106027
0.000510642
0.00247685
0.0227175
0.000311009
0.000114199
0.000300339
0.00700079
7.83412e-05
0.000699085
0.000122436
0.00128585
0.00954012
3.56774e-05
0.0286034
1.03137e-09
5.10937e-05
0.00239768
7.40267e-05
0.000338292
0.00347583
0.00120074
0.00274075
1.04949e-05
0.00180623
0.000340263
0.000340653
0.00226708
0.00335225
0.00329105
0.300123
0.00204096
0.000954007
0.00254196
0.00295761
0.000283184
0.000244552
0.00370033
0.0021543
0.00309052
7.43184e-05
0.000906469
0.0140282
0.00278752
0.111883
0.000861519
0.0101045
0.0104082
0.0123546
0.00126114
3.84307e-05
3.6547e-05
0.000260356
0.000101423
5.07897e-09
0.000257987
0.011498
2.75978e-11
3.35717e-09
0.00377124
3.30254e-05
4.37094e-05
0.0149749
0.00221273
0.00290619
0.00191041
0.00227781
1.91452e-05
0.0015888
4.24949e-05
0.0243441
0.0131699
0.0102856
0.00190668
0.000139375
0.00158899
0.000287912
5.92657e-06
3.78478e-05
1.41387e-07
0.00169234
0.0109921
0.00688826
0.00145
0.00184755
0.00219806
0.00232085
0.00176652
0.000341867
0.00411413
0.000212726
4.15004e-05
7.59222e-09
0.000164111
0.00276266
6.67187e-05
0.000335199
0.00227739
0.000355318
9.3582e-05
1.18922e-05
3.15501e-06
0.0537585
0.00048221
0.000671027
3.27822e-05
0.00284274
0.00221453
0.00185902
0.00343708
3.91695e-05
7.52555e-07
0.00105424
2.85249e-05
0.0194723
0.00321464
0.0241459
0.00159367
0.0511884
0.000113185
0.0011064
0.000238502
4.18298e-08
0.00372716
7.49788e-05
0.00133673
0.000102745
0.00221672
0.0192644
0.00166072
0.00232356
0.00859582
0.00239322
0.0108705
0.00362079
0.00163493
0.000934404
0.0050803
0.0297324
0.000302351
5.04155e-10
0.063613
0.00886951
0.00644213
4.22615e-05
0.0655494
0.00193095
0.0152908
3.23271e-05
0.0172705
0.00325413
0.00136153
0.00276386
0.00235318
0.00130291
0.0402056
0.0146008
0.0145519
0.00342458
0.00231774
0.00159492
0.00360468
0.000973954
0.00047778
0.00203358
0.0035061
0.000484518
0.000130382
0.00169067
0.0362598
0.00308258
0.000346103
9.76633e-08
0.000406687
0.00168886
0.00045579
0.00151757
0.000734165
1.51087e-06
0.0140778
0.000252287
0.000666272
0.00205044
0.00126006
0.000131944
7.5342e-05
0.000176566
0.00205107
0.00325998
1.21324e-06
0.000108534
0.000668098
0.000102967
1.49254e-06
0.0167933
0.000216224
0.00328335
0.00152989
0.00150381
0.00211415
0.00695593
0.00427634
0.00058912
0.00398104
7.12292e-05
0.00228178
0.00437017
9.25831e-06
0.00753971
0.0003919
0.00296595
0.00188074
0.100012
5.3006e-05
0.000193581
0.000517873
0.000306293
0.00137855
0.0029719
0.000199638
1.60997e-05
0.00138103
0.00539293
0.000583783
0.00287064
4.20236e-07
0.000463125
0.00947373
0.00241571
0.000141113
0.0021448
1.06269e-05
0.00420042
0.00338213
9.501e-08
0.000292694
0.00365653
0.000113824
8.50979e-07
0.000344637
0.000198138
0.120042
8.35601e-06
0.000566236
0.00323613
0.000105329
0.0116871
8.36719e-06
0.00275355
0.000122079
7.93335e-05
0.00051483
1.92238e-05
0.000205406
0.00295164
3.94282e-06
0.000108572
0.000122613
0.0185803
0.000603208
0.000357173
0.00035686
0.00217768
4.46119e-05
0.00311629
0.00454009
1.09167e-07
0.000360671
0.000313499
0.00116539
1.48854e-05
0.0122802
0.000292547
0.00158112
0.00218854
0.000126848
0.0846853
0.000382609
0.00306147
0.00110988
4.80943e-08
0.00237492
0.00498827
0.0264831
0.0111557
0.000410463
3.04916e-05
0.0377962
0.0399571
0.000563895
0.0179471
0.00844835
0.000396804
0.000272045
0.000636524
0.000341711
0.000316623
0.000460462
0.00433885
2.22255e-07
0.00016233
2.60251e-05
5.69229e-05
0.0059988
7.74106e-05
0.00247022
2.23083e-07
1.38936e-08
0.000201979
1.22014e-07
1.66454e-09
0.998699
0.000185666
0.0194074
0.00306784
4.57047e-07
0.00029709
0.0179249
0.00188654
4.86145e-08
0.00238258
0.00563037
3.69956e-08
6.44595e-08
0.00039741
5.90878e-08
0.00222377
0.000556605
0.00247034
0.00486776
5.93138e-06
7.02327e-05
0.0197119
0.00282889
0.00305903
0.000394484
0.00355081
9.60459e-05
9.42744e-05
0.00236221
0.00925847
0.0125516
0.00607578
0.000755573
0.000178783
0.00253251
0.00190501
0.00204637
0.00266722
0.000228962
0.000310614
0.003668
0.00169149
0.00333171
0.00271061
0.000751615
0.00465668
1.07633e-09
1.47316e-09
0.0225796
1.12296e-05
0.000905095
0.00208952
0.00331075
0.00991409
0.00385134
9.07343e-05
0.00708623
0.00315727
0.000125291
0.00326005
6.03229e-06
1.38977e-05
4.51527e-06
0.00361657
0.0129325
4.63613e-08
0.00606347
0.00160762
0.151782
0.000166572
0.00370459
3.06689e-05
0.0120682
0.000636895
8.62118e-05
0.000457457
0.0221368
0.000280894
0.0027511
0.00261601
0.00311663
0.00679908
0.00215967
0.00220552
0.0168501
0.00697019
0.000585613
0.000541097
0.0122269
0.000137526
3.12412e-07
0.0018996
0.00359456
0.0018875
2.10786e-05
0.000113023
0.00463835
0.00326294
0.00206785
2.76069e-05
0.00319991
0.00191341
0.000624959
7.63549e-05
4.27168e-06
0.00269219
0.0183675
0.00284743
0.00155676
0.00712326
0.000488962
0.0314067
0.00132499
0.00739848
0.000250985
1.13105e-05
0.000236558
2.56951e-05
0.000449174
6.3766e-06
2.70358e-08
0.00365938
0.00015171
0.0374063
0.000764927
0.00785289
0.00214246
0.00745969
0.00332539
0.0148182
0.0174407
0.00139597
0.00975106
1.0928e-05
0.000372748
0.00130014
0.00181316
0.00021841
0.00404035
6.36491e-05
0.00307587
9.80836e-05
0.00265584
2.16998e-05
0.00265503
0.00133711
0.000427417
0.0265358
0.000162013
0.00130585
3.63115e-05
3.11619e-05
0.000138202
0.00540784
0.00285038
0.00202131
0.000253858
0.00159443
0.00312398
0.000252727
0.0157454
0.0132971
6.22008e-09
0.000207519
0.0017416
9.99498e-05
0.000293084
0.000472721
0.000449922
2.37914e-05
0.00319936
0.000449978
0.00532909
0.000526617
0.00117646
0.000535152
0.00836489
0.00527113
0.00868283
7.85208e-08
0.0537912
0.0219406
0.0974415
0.00186389
0.000145511
0.000173155
0.000280523
0.00676331
0.0101318
0.0299061
0.0247187
8.2697e-06
1.58058e-05
0.0077568
0.000403773
0.017474
0.302015
0.0174216
0.000342362
0.000448754
0.0161677
0.00157846
0.000240968
0.000728561
0.161193
1.37012
6.95058e-05
3.22125e-05
6.15458e-05
0.00483642
0.00105262
0.00185738
0.00270236
0.00196304
0.00437636
0.000882925
0.00222087
1.46651e-07
0.00255926
0.00263985
0.00255817
0.000442945
3.29026e-05
9.27148e-07
0.00466931
0.014771
0.00402498
0.00249351
0.000135715
0.00160035
0.00138904
6.57156e-05
0.000332761
0.00879338
5.39068e-09
0.0311745
0.000107888
0.0484374
0.0150244
0.000248737
0.00496585
1.0094e-05
0.00234205
0.000136859
0.000872987
0.0838649
1.12165e-05
3.11053e-08
8.24639e-06
0.00388057
0.00347537
0.00151415
0.00100419
0.000982902
0.00124787
0.00104073
0.00182772
6.17957e-05
0.0682392
0.0264988
0.00286289
0.00150217
0.00287677
0.0669644
0.0119463
0.00409952
0.000289244
0.00719656
0.00267838
8.25116e-05
5.17088e-05
0.00480008
0.00681499
0.0172673
0.00527671
0.0003151
0.00450849
0.0371723
0.0242383
0.0032398