/*--------------------------------*- C++ -*----------------------------------*\
  =========                 |
  \\      /  F ield         | OpenFOAM: The Open Source CFD Toolbox
   \\    /   O peration     | Website:  https://openfoam.org
    \\  /    A nd           | Version:  10
     \\/     M anipulation  |
\*---------------------------------------------------------------------------*/
FoamFile
{
    format      ascii;
    class       volScalarField;
    location    "8";
    object      p;
}
// * * * * * * * * * * * * * * * * * * * * * * * * * * * * * * * * * * * * * //

dimensions      [0 2 -2 0 0 0 0];

internalField   nonuniform List<scalar> 
111485
(
31.5452
0.316466
0.36257
31.5446
0.353533
30.6085
0.303575
0.306425
0.30405
0.373711
0.295123
0.350245
0.319058
0.225392
0.313278
0.386375
0.184265
35.1533
0.326063
31.5426
31.5448
30.6305
0.296859
0.372829
0.325064
31.4257
0.3923
0.326672
0.351726
31.5547
0.17088
0.131613
31.5583
30.6399
34.3258
30.5054
0.264721
0.240112
0.173053
0.347322
30.8362
0.363327
0.353084
0.317022
-0.47101
31.6208
0.330631
0.358804
0.378932
31.6956
31.6855
29.6017
31.7188
0.280697
31.7405
0.254645
0.31705
30.6931
0.0458206
0.337748
0.344651
31.5503
0.293233
0.205084
30.7749
0.277227
20.6609
0.298559
0.207112
0.290123
-0.0172178
0.243835
30.9368
0.226184
31.5849
0.209312
30.6363
0.353184
30.6236
32.337
0.0743833
0.282254
30.6415
31.5681
0.292272
0.31842
7.52352
0.260934
0.107441
0.202633
-0.280745
0.327196
0.304579
0.213005
0.365522
31.5683
31.5475
0.31227
-2.38938
0.736621
31.5457
0.386353
30.6114
0.325242
0.285215
31.7722
30.672
0.153163
0.325339
-0.798884
0.127444
0.307472
0.353898
0.363089
31.4175
0.21716
31.4808
30.6635
0.228782
31.5487
31.425
26.8469
30.6449
30.6949
0.381482
35.7749
26.6915
0.155437
31.5752
2.13148
0.0948314
0.310552
31.5889
26.246
27.3808
0.307643
30.6374
0.226532
0.26899
0.343158
0.234759
0.287313
0.306468
0.367845
0.318054
0.141944
30.6368
31.5638
30.7047
0.297734
0.353607
31.5322
0.230195
0.0364319
-2.02643
0.314079
0.299401
0.27617
-1.4661
31.5982
31.5446
0.304916
0.311597
-1.31307
-1.77946
0.176206
0.226811
30.7981
-1.1673
-1.02467
30.683
31.5606
0.331246
30.6567
0.120202
0.0691666
30.8152
30.852
31.4902
31.3835
30.7441
31.54
0.328124
0.318176
0.344592
0.263313
0.374093
0.242319
0.302773
31.5489
0.178346
30.8374
31.5044
0.282858
0.347017
0.283108
0.31556
0.0754502
31.589
0.342405
0.390449
21.4474
0.343007
0.178551
31.5534
0.26848
0.32332
30.8273
0.263033
0.321188
0.34215
0.209938
30.7118
31.5508
0.236072
20.1359
0.311405
30.654
0.256007
0.236312
0.376407
31.5664
0.22942
0.222139
24.1926
30.6556
30.6844
0.0883296
-1.73725
31.049
29.2456
0.250819
0.123487
-0.147247
31.0367
31.264
0.216505
31.5776
0.277814
0.224245
0.23992
0.189174
0.231702
30.6898
0.0865261
0.189902
30.7052
30.6405
0.241169
0.300142
31.2629
0.20741
0.189046
31.5642
25.6335
0.329415
31.585
32.1094
28.8139
31.5377
0.227509
0.170918
-0.0183592
31.5831
0.129205
31.5449
31.5436
31.5892
0.191705
0.336479
0.306682
0.210475
0.348064
0.272464
0.257676
0.195601
0.0964612
0.152812
30.4418
31.5611
0.189546
0.120601
-0.0116117
0.132787
31.5476
0.305218
0.308011
0.290222
0.417086
0.110591
0.296574
0.200718
0.324832
30.6796
0.304372
30.6573
34.9931
32.3739
0.0480395
0.323368
0.307037
31.5059
30.9318
0.241783
0.140849
31.5317
31.5442
31.7579
0.18619
0.173389
0.321176
0.329172
0.300968
29.0613
30.6899
31.5705
0.255501
13.3091
0.247811
0.0915209
0.144779
30.6441
31.5456
31.5498
27.3613
0.256241
0.363638
30.6501
0.259816
31.2542
31.4854
0.326888
0.260755
0.350575
0.266307
32.0621
27.2212
30.6566
0.251603
0.0808034
0.175475
30.7582
2.42766
-0.086473
0.372398
0.264635
5.59258
0.302249
30.6282
0.292057
0.274074
0.116922
0.301068
0.326771
30.6533
31.576
30.6706
31.5552
0.319559
0.248155
0.298511
0.33587
30.7222
0.359504
30.6785
31.578
0.313556
32.5696
27.9225
31.741
30.4902
0.314197
30.6882
0.0735182
0.37657
30.6247
0.242072
0.283204
31.5405
0.251201
0.366961
0.316186
0.280066
0.167023
0.137955
32.0976
31.5672
0.356843
30.7576
0.360959
0.281961
30.8102
30.6857
0.257084
0.296863
0.115996
0.408391
30.6355
0.176104
0.335283
30.5999
0.312698
0.278447
31.5446
31.5418
0.0987995
0.329762
30.6018
31.4901
23.5722
31.5431
0.351936
30.6547
31.5463
0.333093
0.118613
0.362665
0.373306
30.6163
27.4304
0.409357
27.8194
0.327443
0.438072
0.393049
21.3427
28.1348
-1.84621
-0.690565
31.5438
0.260177
0.373018
31.5594
-1.41555
0.374592
27.9702
0.348094
0.332741
0.171202
30.6256
1.06342
0.349748
0.204911
0.012186
26.6055
-1.83844
31.5583
0.321477
-0.645261
30.6858
0.321327
0.386544
25.8888
31.5786
29.9346
31.5395
0.348502
0.322595
0.367273
0.384201
0.254845
30.6592
0.204699
31.596
0.397273
30.5607
31.5848
31.6199
0.347641
31.5697
31.5482
33.4632
31.544
30.7186
0.350726
30.6858
29.8159
30.6583
31.5012
30.5864
31.596
30.6331
0.345457
30.6519
0.334782
0.338024
0.240731
30.6366
0.354826
30.6876
31.5465
0.366707
0.42372
0.512599
0.0497806
29.4501
0.353845
0.339319
0.133742
-0.0216082
0.352754
31.5642
0.0282336
25.9345
0.464006
30.6572
0.387091
26.8178
0.128865
0.39095
33.1711
30.9187
-0.0832033
31.5331
0.346564
0.310984
30.7107
30.7358
31.8114
30.6787
-3.30092
0.342055
30.5886
30.7073
0.341263
30.6306
0.314711
30.6325
0.353809
31.5481
0.428249
0.420541
0.378552
0.117556
30.5265
-0.471371
30.587
30.6569
0.314125
30.6619
0.379285
31.8376
0.403163
31.5539
0.445863
31.5427
28.0042
0.141328
0.243849
0.314767
0.394598
0.24801
0.318772
30.7005
0.281201
0.326489
30.6479
0.291555
0.232554
0.356727
30.8703
32.2013
0.434177
0.245414
15.0908
30.9186
0.289744
0.381363
0.378891
0.366294
0.654107
10.5513
27.6383
-2.23547
12.9274
31.5472
0.419935
30.7534
28.1207
0.226605
10.3524
-2.30012
6.14481
27.6229
0.318031
0.3653
30.6719
29.9127
0.377311
31.5548
30.6295
30.6345
30.6321
0.368851
30.6726
31.3973
0.402097
0.216671
24.1977
0.20236
29.3931
0.203114
31.714
30.6943
0.348605
30.6517
30.6363
27.9889
0.203566
18.8847
0.279616
0.19441
31.5852
-0.331499
0.114292
0.331317
0.43245
1.58742
0.316824
30.6617
0.348907
0.345061
31.5824
0.258988
0.305667
0.369792
0.154976
0.347848
0.355008
31.6173
0.373785
0.268299
27.9134
0.350077
0.442003
19.6691
0.189646
0.36978
0.410521
0.380933
0.393711
0.1424
31.1735
0.374431
0.374693
32.9218
0.350721
0.297994
0.225241
30.6671
0.198256
31.6436
30.64
30.7032
30.6269
0.380938
28.3531
-3.57657
31.5391
30.364
0.388465
0.356424
31.5281
0.354036
31.5426
31.5702
31.7229
0.289453
0.413572
28.104
31.3683
30.6614
30.6659
0.230973
0.182406
27.3904
0.363295
-1.05278
30.698
0.391025
0.349322
0.356055
30.6241
30.6529
0.336813
0.217286
27.8488
30.6846
30.5636
0.206406
31.5746
31.521
30.6601
0.364727
0.363341
30.6291
33.9212
32.8752
0.602767
30.6978
30.6139
0.337896
0.195538
27.7911
24.0079
4.99625
0.367469
0.0117162
30.5068
0.240845
0.410585
30.6774
31.7123
30.6354
30.6568
30.6839
30.6287
0.425122
31.5451
30.6391
30.8419
0.404467
0.208899
31.5459
31.7673
0.310231
0.198323
0.224128
31.5182
30.6434
0.201638
31.5657
0.334162
0.170314
0.228804
31.4475
31.5473
31.5467
30.6647
0.430733
30.6444
30.6237
0.321796
31.5463
0.269318
0.449717
30.6947
0.240075
31.446
0.237402
0.378727
0.295422
0.339923
-4.39866
29.0813
0.224273
0.337667
0.0121209
31.2752
-7.68909
28.7052
0.115146
30.6761
0.313195
0.345097
0.296721
32.3356
31.5481
31.5788
0.196506
29.3817
-0.0362107
29.9274
0.362752
0.159805
0.0855482
0.208124
30.6335
30.6981
31.0244
0.200381
30.6236
29.0678
-0.0587443
30.6881
30.7151
31.5543
30.6389
0.0986513
30.5453
30.6562
-5.50587
29.3122
30.7656
28.3524
30.6548
0.281816
0.106106
31.535
0.364716
4.56287
0.28271
-0.928449
0.184261
30.6912
0.333765
0.36524
0.281624
31.5661
-9.71421
0.0809987
26.0822
0.0390885
0.0695466
0.14696
0.245791
0.150545
-0.0113855
0.156711
0.147176
30.5878
30.6701
0.0778434
0.0279024
30.6925
0.0927913
0.376745
0.13554
30.6016
0.0723632
30.6617
0.118881
0.0999877
30.6226
-0.280674
0.159335
-0.0752815
-0.0557805
30.4349
0.328304
-0.0529217
0.255496
-0.0715754
0.295332
30.6192
30.7027
0.365021
30.6383
0.450287
0.163709
27.0494
-1.33387
-2.71304
-0.640902
30.639
25.7345
0.22252
31.5721
37.7513
0.281228
30.5916
30.615
-2.31212
-2.8529
30.6395
0.0716681
30.6575
30.6534
31.5798
31.5461
31.8468
31.5631
0.364038
30.6263
30.6845
30.7105
-5.14992
0.527591
0.31652
0.210638
30.682
30.6084
0.285789
30.6488
30.6285
23.4901
0.263754
0.247517
30.6242
30.5965
30.6549
30.6137
30.4588
30.6071
0.193163
30.6312
-0.249393
0.329248
30.6645
31.59
31.7523
0.0556431
31.721
31.5473
30.7274
-0.29201
30.6586
0.218987
0.22282
-0.172411
30.6201
21.3571
0.318885
0.301965
30.6898
-0.224904
0.338767
31.5639
30.5039
27.6855
30.6005
0.218051
0.301315
0.235632
-0.810131
30.6261
0.213573
30.3787
27.5018
27.5169
30.685
0.321641
30.6557
31.7928
0.256645
0.231696
31.7819
0.387261
29.4162
0.158461
32.0262
30.6565
30.5578
31.5469
0.163041
0.330633
2.06747
30.6308
30.8038
0.124106
30.6387
28.4458
31.5491
0.339228
-0.860076
0.483531
31.4887
0.225282
0.272322
33.0662
0.275039
30.6427
0.287653
0.307406
0.249931
0.170033
-0.172696
30.6428
30.6574
30.6554
0.222337
30.9598
0.0821765
31.5824
3.39173
31.5267
0.342276
0.352956
31.8014
30.6374
31.8685
30.7176
0.0661536
31.8986
27.7188
0.0990894
0.0875065
31.7699
28.3098
30.9491
28.3897
30.6162
30.6444
0.1131
0.447684
31.5438
31.4988
-1.91181
31.5749
0.111749
0.164313
30.9329
0.322282
31.5469
0.0730486
30.6418
0.357808
30.6203
-1.71431
-0.659668
-0.042753
0.298644
0.28741
19.0496
30.3246
0.329752
31.7045
0.310961
31.5265
30.7807
30.5323
30.7085
30.8056
30.6913
0.238607
0.188996
31.5479
26.7123
31.5537
0.250115
0.0637164
31.5427
0.327089
-0.0448817
31.7536
0.182994
0.143215
0.303751
-0.0397409
30.6386
30.6457
30.7728
30.6355
0.297884
30.3914
0.328814
30.6491
0.303916
0.368321
30.6752
0.270209
30.6389
30.6363
0.285644
0.160869
8.97071
30.6505
31.8454
30.5873
0.300739
30.171
31.7693
30.2452
4.01035
27.1023
-1.4916
28.2845
30.1038
31.1061
0.136348
0.0695997
0.386048
0.320251
31.5134
0.308662
30.663
30.6853
0.10668
30.5172
-1.94413
0.300457
0.184375
0.294117
-3.23871
0.318988
30.678
-5.11122
-11.0606
0.364063
0.340973
0.265548
22.4194
31.5324
0.33825
31.5466
30.6153
-0.388138
0.355595
-3.79067
30.595
29.9818
0.210424
31.7527
30.6152
0.267238
31.8285
31.7849
0.597666
0.274696
0.125408
0.389355
0.199321
30.6283
30.6408
-0.522681
0.29662
30.6333
31.8061
0.472765
30.6572
26.5421
27.2266
27.3798
17.7945
26.6314
30.6392
0.394666
30.5676
0.181872
30.6264
14.1357
30.8332
30.7047
30.6804
30.6411
0.42389
30.6405
30.6384
27.8535
30.6023
30.6811
30.6424
0.276054
30.7082
0.256961
0.16863
30.7154
0.507271
30.6297
0.310198
-0.164315
0.119044
0.13973
31.424
0.136795
0.406524
-0.0565969
31.5766
0.0874898
0.248036
0.128871
29.4747
0.0928193
30.8882
30.6732
30.6361
30.628
0.116606
30.6573
30.5807
0.108708
-0.00870751
0.0357557
30.7206
21.9904
0.442545
30.6825
-0.879342
31.7412
0.0897079
30.5958
30.6087
0.329469
30.6083
0.419961
31.5632
30.6261
0.253279
0.249319
0.203679
0.315681
0.0176924
0.25788
30.6263
32.1851
0.337072
0.209681
0.298816
0.123612
30.6392
0.249392
30.6345
31.2401
0.31099
0.23255
30.6611
0.191628
30.6249
0.204823
0.18934
30.8847
30.6289
30.6653
0.339624
30.6556
30.6567
0.344384
0.20574
0.316602
0.116645
30.7048
30.7112
0.401654
0.395773
30.6454
0.322542
30.9527
0.314784
30.6314
30.6288
0.243689
30.6368
0.328227
0.371689
30.6378
30.629
0.275145
26.0876
0.420633
31.5473
0.251412
31.5912
26.8152
25.9343
0.370812
28.0277
27.7331
0.289027
27.5706
17.2921
25.5566
30.8487
31.5488
-0.169529
0.392614
30.8128
30.6516
0.289131
0.356269
30.6564
0.337519
30.6277
31.5686
0.377326
0.372165
0.482503
30.6259
30.6634
30.6558
30.6383
30.5927
30.6043
30.632
30.5941
30.6132
30.6219
30.6521
31.5554
30.6537
30.6237
30.623
31.2769
30.6237
30.6313
30.6417
30.7501
31.358
0.407468
30.6529
30.6246
30.715
0.318846
30.6987
31.5677
12.178
30.5614
30.1994
0.290955
33.0545
30.409
14.27
0.274546
30.6479
27.1575
29.1224
30.6157
0.327317
0.269623
0.279745
0.206715
0.238005
31.6506
30.5922
0.233326
0.260378
0.212259
30.6234
0.270838
0.366115
0.30285
0.104203
0.149645
0.209552
0.168474
0.279051
31.6151
0.328692
0.317455
0.351744
0.280038
30.6593
30.6513
30.6657
31.547
30.6493
0.260606
0.286721
30.6698
30.6146
30.6126
31.4056
30.6246
31.5418
30.6324
31.5565
0.270154
0.0230845
0.294741
0.467782
30.5114
30.6614
0.306882
-0.469241
30.6286
30.6399
0.336796
31.6192
30.6497
0.397097
0.224144
0.261596
0.436662
0.323418
31.6377
0.0745936
0.3223
27.7281
31.5454
0.273795
31.6214
30.6584
9.97502
5.56519
0.369316
31.1974
31.4751
0.324182
0.321659
0.130571
0.261283
13.9052
31.5434
0.400886
32.9358
31.5762
30.3817
0.333855
30.6217
0.267245
0.0474405
0.268811
0.301224
31.5837
0.303075
31.5739
29.9734
31.564
31.5015
0.143388
18.2467
30.6401
31.5431
33.4372
0.272018
27.5315
0.199858
0.24958
0.130196
0.257908
31.428
31.4993
26.7161
0.354254
0.242189
-3.08684
31.712
31.5465
27.3979
0.366891
0.246201
30.6334
0.058694
10.3834
0.314141
0.207934
31.5404
26.675
0.201063
0.261214
30.6593
0.407222
0.391664
0.318542
0.140838
0.211838
0.286221
27.7298
0.179735
0.223064
0.227349
31.9995
0.291296
28.0649
0.399095
0.227916
31.5779
0.114554
0.201924
0.184593
0.30415
35.0059
8.78901
0.281378
17.4156
0.213291
30.6282
0.121675
0.235837
31.5536
30.6423
-0.887422
0.0813595
0.332512
34.9176
0.368245
-0.253611
-3.97932
0.108472
31.5565
31.6475
0.252659
33.3778
0.266701
-0.310329
0.280024
0.171531
31.5393
0.390395
0.252583
31.5263
27.8886
0.218797
31.6164
0.207033
0.222005
31.5531
35.121
0.330181
31.5321
30.6248
30.6821
0.15569
0.64597
0.35305
31.7821
0.336842
0.189942
30.8359
0.180155
0.135696
0.134773
-0.0235543
30.6357
0.221772
0.240639
0.17779
0.147552
0.147198
-0.091251
0.375
31.5467
-0.164739
0.132329
31.544
0.169404
30.6988
30.6527
31.5739
30.719
31.5523
0.424294
30.6717
0.168499
0.287375
31.5812
0.422799
31.3457
0.113786
31.5545
-0.134944
30.6692
0.326055
0.468058
-0.179839
0.262777
0.136898
0.360821
0.15547
0.273897
11.4516
0.225863
0.213781
0.269219
31.5713
0.3348
0.0581166
0.229558
0.320928
-0.119384
31.5768
27.2738
31.5399
0.37075
31.5366
24.8217
0.138372
33.5617
0.438821
31.4955
31.4404
30.6397
0.286493
0.5096
0.211975
0.298159
0.146126
0.230239
0.280522
0.246388
0.121339
0.270052
0.240709
31.6521
30.4863
31.5463
0.306677
0.307858
30.7518
30.639
25.3421
0.340123
0.13259
31.5391
0.239276
31.5414
-1.12172
0.380792
0.234268
31.5475
31.5471
0.227973
31.5463
0.357834
0.201638
29.969
0.298365
0.324766
0.137232
31.5239
0.0606129
28.1069
0.282752
0.34321
31.553
31.6125
0.183737
22.3759
31.679
0.248452
0.161438
31.5497
31.4585
27.9252
0.205144
25.2849
0.282006
0.307023
0.384087
31.5433
28.223
0.291617
31.5445
30.6741
31.5625
31.5508
28.6496
30.9336
30.3305
31.5322
31.5723
29.3562
33.5854
30.6048
0.392395
30.6408
27.1362
25.6801
35.5827
27.664
31.5462
0.307183
29.6339
30.8747
0.307033
32.8404
34.2746
31.2204
0.279704
33.4661
0.324288
0.169525
0.423568
28.8337
31.5484
0.354395
-1.10962
31.3753
31.5411
0.303612
28.5189
0.294976
28.2238
30.5789
31.0324
0.303815
0.318215
31.5474
0.351834
31.7206
29.6097
-0.222673
0.295875
0.31352
30.6649
0.296654
29.0031
0.298628
30.6305
31.5266
30.6237
28.0589
0.263175
0.271717
31.5713
-2.47186
31.5633
31.6213
31.5618
31.5442
0.316372
0.260641
0.248434
0.473432
31.4176
0.368885
0.316395
0.244863
0.291258
30.8688
0.225866
0.415132
0.192108
-0.996672
0.303744
31.7244
0.234731
0.316255
0.301135
0.347102
0.254688
31.6456
0.293216
31.1397
31.5667
0.28708
31.588
0.390822
31.5463
31.7868
30.3494
31.5551
31.5677
0.242796
31.5492
0.304422
28.9532
30.679
0.327137
0.398745
0.269717
0.270541
31.6342
3.34446
31.5682
0.332181
31.7919
0.309241
0.301279
0.358195
0.354703
31.9081
31.9355
31.5527
0.23981
30.7197
31.502
0.228464
30.5743
30.6189
0.425226
31.9078
0.184764
-0.989344
28.76
30.0442
29.8045
0.214795
0.293941
31.5412
0.0379245
0.315986
28.132
0.345951
31.5546
0.211959
0.37891
0.281697
31.548
0.365989
0.225074
0.327673
0.381295
0.386029
31.5511
31.5448
0.133229
31.5134
30.6261
31.5449
0.196901
0.346702
0.269884
0.157415
27.657
0.320093
0.298235
0.30135
0.0537778
0.384341
0.327883
0.390486
30.6398
30.6392
30.6369
0.464654
30.6641
0.240721
21.2755
0.353642
-1.63862
0.174676
0.136047
30.6168
31.5571
0.359555
0.346699
31.6091
30.6194
31.5757
0.202207
0.348554
0.340251
0.389034
0.133832
0.288814
31.5354
31.566
31.5482
0.201794
0.259095
0.0394079
0.32833
0.272017
0.37806
31.4229
31.5443
25.5755
30.7772
0.150232
0.397567
31.5254
31.6566
31.5937
31.5807
31.4276
30.9032
0.346045
31.5449
0.262735
0.105749
30.6432
0.36645
0.117256
0.206902
31.7353
31.0812
0.34834
31.5469
0.342782
-4.23307
0.21544
30.7061
23.9595
30.6326
31.5494
31.5156
30.4589
8.82412
31.589
0.415732
0.254709
31.5608
31.5504
0.344256
31.5572
30.6561
0.262157
-0.25272
31.4879
31.4816
30.7517
0.18693
31.5462
31.5445
5.14433
0.287252
0.349836
31.5374
30.6397
28.8886
0.326627
0.337208
0.327769
0.302053
30.6276
0.257058
0.0934867
0.0774209
30.4593
31.5511
31.5462
31.3797
31.5472
0.274275
0.288774
0.237984
31.6417
31.5584
31.545
31.5428
30.8816
0.308747
0.467014
0.0920626
30.6229
31.5463
31.7845
-3.38644
0.261716
0.240168
30.6465
-7.24677
33.0336
31.3957
31.5443
0.294484
0.367488
31.5377
31.6578
0.338232
31.5522
0.213764
0.290471
11.2754
31.5221
30.8028
0.249881
0.228888
31.6675
10.5175
0.251937
0.44378
31.5445
31.5493
31.6076
31.5845
0.143904
0.212569
31.5509
0.273462
0.331237
1.36541
31.5421
31.5304
31.531
31.5515
0.382877
33.5339
31.5437
31.1246
0.167995
0.291146
0.206169
31.4183
31.5611
0.361482
30.5417
31.551
31.5438
31.544
0.310151
30.8214
30.5745
30.6336
0.170595
0.348606
31.5202
31.5665
31.4618
0.330561
32.6164
31.5483
31.4687
31.5683
31.5637
-0.236723
0.400889
31.7385
0.334012
0.372266
0.289093
31.5931
31.576
31.557
31.4133
30.6211
0.332601
31.5458
29.5971
29.4963
0.342779
30.6467
0.303212
31.5464
30.6697
0.39903
1.71529
28.3082
0.381773
31.5468
0.367294
32.6166
31.6053
31.7303
36.3614
31.5599
0.315525
31.5153
0.299148
30.6729
27.9262
31.5838
31.5124
0.136551
0.510334
30.6347
10.9655
30.6688
0.118502
0.297612
0.413818
30.6872
-0.832955
0.276707
0.267929
0.406442
-1.87223
0.259768
30.5188
30.6245
-2.35895
0.214541
0.357683
31.667
30.2093
25.7059
13.3996
31.5772
30.6325
31.5689
31.5771
31.5848
33.2151
0.508108
0.200003
0.294415
27.9532
0.145593
31.5674
0.339752
31.5469
31.6032
30.6529
30.8861
0.0771994
30.7921
30.6566
31.5427
0.318593
31.5337
31.5538
0.28803
31.4487
23.1998
19.9642
18.6407
31.5835
19.5106
18.8762
19.3041
22.0647
30.6234
30.627
0.297127
0.333327
28.0131
28.6461
30.6268
0.284534
32.7719
30.9947
0.0833047
31.545
31.5473
0.26814
0.189478
31.435
30.6216
0.398216
28.197
30.5766
-1.00816
0.302957
0.463961
31.2801
0.363051
31.5736
0.224573
-1.00703
0.336428
31.5443
-0.988393
0.360095
31.893
-3.52804
31.4964
0.324822
30.1699
0.392885
31.2508
0.265496
31.5332
30.4465
30.6663
-5.29823
-5.27267
31.6168
0.322044
0.500387
31.7575
31.5414
0.190996
0.0311493
0.0726843
31.5998
0.354466
0.345715
0.296817
-2.77099
31.585
-0.112142
30.6635
-0.0523895
31.5473
-6.27005
-7.33497
31.4522
0.265411
30.8579
0.301488
30.633
31.4573
31.5816
31.6218
31.4483
31.4967
0.378384
0.318345
-0.0702434
31.5644
25.5035
-0.028382
31.5617
31.4033
31.6562
31.5465
31.6572
0.0995784
31.5436
31.5704
30.6238
0.080273
31.4763
30.6438
30.2124
0.180689
30.6489
0.0490599
-2.51238
0.168996
0.166044
-0.0342748
32.8895
31.55
31.5377
0.295103
0.21728
30.3239
25.3606
0.0877608
31.5547
31.5758
0.00908638
31.4918
0.344971
31.5391
-0.00569195
0.25862
31.5649
30.6228
31.5371
31.5706
31.5452
0.38588
31.5272
0.0951456
31.8045
31.542
0.16971
30.6407
0.327853
31.1327
31.5522
0.342644
0.284579
0.0800191
31.569
31.5691
31.5467
0.308641
0.170061
31.8309
30.6384
30.6182
0.198054
31.5035
0.363634
0.0132816
31.5372
31.5164
0.192361
31.5245
30.6285
30.6498
31.8568
30.6576
-0.0549157
24.9954
30.7087
31.5612
25.6483
31.5162
26.5221
31.423
31.5087
31.0496
0.254141
31.2901
0.1531
31.459
31.5079
0.305308
0.21183
31.4876
31.4356
31.5396
0.154377
27.0088
31.5463
30.9622
31.5245
0.1996
31.4964
-0.153664
31.5776
0.32211
27.837
0.328857
31.5894
31.5459
0.360527
26.3653
31.5562
0.207075
0.32573
31.6465
31.5711
0.319712
0.239691
0.198152
0.147267
0.143055
0.364709
0.222425
0.306645
31.8232
-0.198023
25.2518
24.8048
31.5442
31.5178
31.5453
0.210264
31.5773
31.5523
31.5762
0.0217789
0.289361
24.0399
0.261921
31.5749
0.359785
30.5988
0.29322
0.250602
25.54
0.388306
31.4991
31.4187
30.6395
0.246379
0.325989
31.5464
30.6536
0.224631
31.5652
0.0418513
31.7172
0.202867
31.547
30.6388
31.488
30.6347
0.208152
30.6348
1.68262
30.6729
0.351927
31.5377
31.5201
17.6061
16.3308
31.6092
31.525
31.5467
31.5661
0.364056
-0.00473142
21.1453
31.5753
0.368885
30.6231
30.6967
-1.14366
0.296439
0.240129
30.6417
0.165431
0.307024
0.273859
0.327262
31.5511
31.5829
31.5997
31.5752
30.6423
30.6332
30.6397
31.4048
30.6434
30.6414
31.5462
30.6371
0.112121
30.6327
31.5325
34.5281
31.569
31.5432
11.2408
30.6283
31.5332
0.272975
0.169108
31.4391
31.4881
31.5478
0.326338
30.8126
31.5015
0.106081
30.6549
31.5331
31.539
31.5676
0.31435
30.6447
-0.121203
31.5757
31.497
31.5335
31.5393
31.524
0.116425
-0.0104773
0.222487
31.5704
30.6985
31.7105
0.0581942
31.527
0.0164327
0.213363
30.6397
31.4901
24.0015
-1.05619
31.4562
28.2392
-1.00455
24.3168
0.376947
30.7883
0.299773
24.1827
22.6277
31.5454
0.366222
30.657
0.314045
0.263373
31.5616
0.363487
-0.562329
31.5399
0.216342
30.6296
31.4643
31.5038
31.4471
31.4981
30.634
31.5267
31.5653
-0.0757264
28.5935
31.5432
31.5433
31.5237
31.5372
0.311505
16.4986
0.0403672
-0.620043
31.5277
0.406811
0.354265
31.5446
28.1552
31.284
31.4825
31.631
31.8722
25.9381
28.8231
0.257834
31.5496
31.5901
24.5456
26.66
30.6399
0.324735
31.5532
30.6736
31.5677
0.151177
31.583
30.6286
0.329807
30.6493
30.5245
31.186
31.7603
0.335454
31.5431
31.5372
31.5305
31.4967
0.373677
0.220511
0.255998
0.339916
0.334427
0.295504
30.6555
26.377
-0.081126
0.317323
26.3343
-0.0507563
31.545
-3.69504
30.6912
0.14
31.55
30.6325
0.325944
-4.91595
31.5447
0.312643
31.5549
31.5627
0.120344
0.279093
31.5619
30.6346
31.7009
30.6379
31.5218
27.524
31.5678
31.548
0.301742
31.5664
31.5312
31.534
0.354018
31.577
27.6852
30.6441
30.6225
29.3602
27.8649
0.348974
30.6293
27.9003
0.279332
31.5381
0.266947
0.34301
31.5387
0.281507
31.5432
29.9715
31.8012
27.3378
30.6738
31.4872
31.5451
31.5822
0.342362
31.5744
31.5593
31.5606
31.0757
31.5399
31.27
0.0563772
31.5463
31.5789
0.220948
31.5469
30.6416
30.6798
0.395991
31.5454
-0.166721
27.0091
-0.946098
0.093481
30.6295
26.3542
0.289825
25.2972
30.643
-0.219784
-0.932466
-0.00764743
0.243293
-0.456816
-4.0552
30.7665
30.6306
0.355712
0.133137
0.174172
0.373693
-0.978493
30.6572
0.131075
0.3025
0.32792
30.6907
0.349609
0.132966
0.261808
0.339293
0.0423629
0.229288
0.240204
0.287535
0.0107719
0.232226
0.349506
27.7398
0.364291
0.034913
0.340011
0.314585
0.11289
0.352692
0.0706966
28.3746
0.0917973
28.1773
0.317821
0.373747
0.223635
0.25669
28.1237
30.6308
0.337476
0.295312
0.00399902
0.244878
0.176319
0.324691
19.5696
0.375864
31.5464
0.567145
0.0878768
0.277651
0.290292
-0.013051
-0.150352
0.368024
0.265377
0.164011
0.288763
0.332498
0.515772
24.7521
21.7789
0.321133
31.5484
31.547
0.319072
0.405607
0.121688
31.5398
0.194786
0.269478
0.29067
22.5509
31.5401
-0.291363
0.0384536
0.0637942
31.5841
0.217333
31.5504
0.291053
0.361678
0.274067
0.285312
31.5296
31.555
0.346667
0.374514
0.426493
31.5233
0.307024
0.428243
0.309428
30.6708
0.295321
0.09106
28.1114
0.260453
-5.32007
0.089825
30.4803
0.24253
0.159466
31.5469
0.404974
0.102685
6.09553
0.31933
0.425714
0.1591
0.433999
0.273385
-0.0633539
-0.379533
0.0346858
0.508938
0.15113
0.286323
-0.122625
0.320698
0.36369
0.338037
0.363973
-0.0792068
0.235318
31.5491
0.387456
0.345736
0.0882081
0.237518
0.309239
30.7165
0.373441
0.277536
31.5308
0.180257
-0.0126024
0.368669
0.400073
0.134761
-0.165886
0.385217
0.319127
0.263561
31.5482
31.547
0.298785
30.6869
0.310731
0.449086
30.8658
0.134603
0.33366
0.0972774
31.5606
0.287045
0.288246
0.229963
-0.0205725
0.275855
0.258784
0.294562
0.38415
31.5467
31.4597
0.146076
0.29616
0.245591
0.356837
31.4572
0.311266
0.439704
30.8643
0.248969
0.353526
-0.290401
-0.291319
0.330861
0.223408
0.228031
0.35762
30.7099
0.425451
0.222452
0.37899
-0.225924
31.462
0.369556
32.0737
31.5442
0.269751
0.315497
0.278836
1.07444
0.0315523
6.33895
30.6531
0.238226
0.478836
0.53835
0.281893
31.5569
30.6866
30.6462
0.254401
0.276475
-0.328682
0.27842
30.5707
31.4757
0.219128
0.293799
0.291965
0.301432
0.276852
0.413371
0.281869
17.7456
30.6262
0.369611
0.0885019
31.4715
0.322726
0.391659
0.288538
0.383197
0.316843
0.330401
31.4741
0.339027
0.311063
30.6808
30.6327
0.146112
0.323985
0.167989
0.123793
0.361949
0.431125
0.200744
0.302871
0.371568
0.0906103
31.4588
31.4302
0.0461812
0.150359
0.364772
0.161969
0.360129
0.278412
0.372801
0.311307
0.347889
30.6408
30.7124
0.133202
31.4541
27.5278
0.344303
0.261403
0.268432
0.162008
28.8153
0.325025
0.240066
29.339
0.152409
-0.254719
0.351859
0.367295
0.0959578
0.410088
-0.0392209
0.137172
31.5456
29.1161
0.18943
0.185264
0.260198
0.178032
0.0518459
0.294145
0.0878505
29.2165
0.402581
0.276559
0.307389
0.0628949
0.309718
0.130467
-0.244937
0.318243
0.156855
28.7895
0.40046
0.381636
11.5891
27.352
25.1941
0.40394
26.7395
0.0753605
0.352679
0.281174
0.414304
0.0700088
20.4332
12.5737
32.3464
27.0418
0.297911
30.6344
30.6349
-4.41942
31.5356
0.292715
0.270073
0.193729
0.272947
0.274912
0.350296
25.2828
0.167876
0.118917
0.290949
0.321806
0.285522
0.340175
30.6407
-0.257421
0.29067
-0.00460113
30.6368
0.363802
0.290963
30.6361
31.4947
0.162032
0.251568
31.6963
0.392048
0.373475
0.145644
31.5628
30.6352
0.119694
-0.258493
0.400127
30.6386
30.6079
30.6371
0.381581
10.6073
9.69523
0.117417
-0.906325
31.605
0.221978
-0.816405
0.339881
0.118304
0.0453887
0.210316
-1.37914
0.150398
30.8748
0.192788
0.229988
0.0809797
0.302955
0.111063
0.18723
0.107127
0.130562
0.133223
0.244207
-0.939843
0.340026
0.141125
0.0139727
-1.21774
0.019005
-0.869829
0.106695
0.156389
0.259581
0.262141
0.261424
0.235407
-0.8924
0.186178
30.0302
0.329404
15.606
0.277001
0.299838
30.6835
0.346335
30.0301
0.317513
30.1401
31.6388
0.425996
0.296088
27.5673
0.188649
0.334572
0.331064
31.48
31.5669
0.54182
0.142294
-0.0636085
0.287244
0.194821
0.313999
0.253906
0.353923
0.345778
26.144
0.33751
30.6406
31.3716
0.284222
0.230731
0.162767
0.275909
0.212207
0.377537
0.344098
31.1648
0.0869245
0.191752
0.369853
31.2034
31.5984
0.332004
0.339995
24.7685
0.305038
0.135246
0.361173
-0.500667
0.22609
0.312493
31.499
18.5704
0.285242
0.214805
30.9436
0.313462
0.280465
0.322323
0.101904
0.234107
-0.0167791
0.328682
0.333211
19.6451
0.314407
31.5425
0.337657
0.340647
0.218354
0.0723527
26.4934
0.0608404
0.183709
0.352437
0.0656707
29.7947
30.6396
0.292223
0.235641
0.376629
0.354967
0.309587
0.221694
0.0122196
0.28942
0.188318
0.10605
0.275298
28.2991
0.00695491
0.29739
0.0228133
0.296083
29.0704
30.6219
-8.7456
0.0827533
32.7223
-0.0133437
0.331493
29.5353
20.2994
22.0153
0.24222
0.258508
1.24606
23.539
0.157888
0.311114
30.5003
0.956626
27.6423
0.3194
0.199659
30.7854
-0.0829204
0.362326
0.344827
0.232047
30.6274
-0.490583
0.286767
0.187577
0.384118
0.409495
0.348374
0.387139
-0.107521
0.338164
0.159305
0.255101
31.5292
25.9974
26.3464
30.939
0.281439
0.290893
0.311623
0.213624
0.182706
0.295771
0.33783
0.33692
0.33579
0.221453
0.362541
0.130765
0.380905
0.212905
31.5425
0.29342
0.211564
0.344488
0.39492
30.4783
0.242106
0.259965
0.496357
0.347941
0.318474
30.683
0.357578
0.305659
27.5862
0.355254
0.343481
30.9179
0.257254
30.8828
30.6712
0.247765
0.169812
0.357303
0.320496
30.6298
0.182992
0.274622
30.6869
0.351903
0.316167
0.302953
0.335441
31.0423
0.296877
0.305685
0.398959
30.9105
0.30042
0.159986
0.36056
0.259003
0.257256
31.6768
29.9715
28.4143
0.128382
28.9367
0.290318
0.199327
0.140168
31.4619
0.138739
30.7585
31.542
31.3558
0.322499
-0.0483216
-0.261014
0.386028
0.327981
30.1089
27.6378
0.311567
0.274201
0.305547
-0.117381
0.292126
-0.989464
31.5477
23.1273
23.5926
30.6265
23.8863
0.0810162
31.5475
0.32518
0.328633
0.324875
0.0847162
0.298622
25.4732
0.172706
0.370582
0.360835
0.303311
25.6379
31.5475
0.315252
0.226215
-0.590257
-1.57036
0.0977427
-0.0967314
-0.488542
-0.225642
0.282505
0.054076
0.243735
-2.60177
0.230775
0.376347
0.333465
0.227822
0.212418
0.0657568
-1.86375
-1.42179
-3.21475
-4.42306
0.205159
0.262089
30.6988
-3.61794
-7.38262
0.167659
0.121879
0.0446801
0.3789
0.40991
-8.12801
0.125296
0.117608
31.6735
0.301549
0.247336
0.300191
31.558
0.202304
0.159028
0.140807
0.281976
31.5962
31.6922
0.346845
0.156144
0.183849
0.0705793
31.3961
31.5473
30.6571
0.346508
0.343639
0.125722
31.5574
0.234789
31.7094
31.8047
0.163068
0.127884
30.6106
0.141911
0.169303
-0.0611745
30.6494
31.5623
0.209887
0.377535
31.744
0.132082
0.2747
-0.141207
31.9687
31.9952
31.8645
-0.150582
0.135165
0.343458
0.282436
30.6257
0.144174
0.319858
0.317128
0.344144
30.7638
31.534
0.347782
0.257086
0.251858
0.312012
30.7548
-0.206459
30.6454
0.162043
0.102996
0.31744
30.9555
28.6542
0.195985
0.317282
28.103
28.2663
30.6432
0.367886
30.2851
26.8754
0.326833
0.332122
30.6469
27.6417
0.32582
0.313937
0.18157
0.291554
0.277726
28.1156
0.382396
25.8039
25.1565
31.6399
0.28591
0.401999
0.121146
25.309
33.8488
0.406264
0.106249
0.429151
0.379112
0.325708
0.338445
0.314179
0.372269
24.8383
0.303988
0.19446
0.349902
0.335649
0.320078
17.9948
0.282187
0.277321
0.294129
0.283341
0.175012
24.0441
28.6658
0.316554
28.9018
29.2832
0.356434
28.9608
0.296373
28.2666
28.624
30.8055
27.5026
0.30867
0.176536
0.256206
28.2202
0.230059
0.293115
0.243982
28.6872
31.5491
0.31662
0.325985
-0.0647745
0.317743
27.3274
0.0460568
0.215769
0.135595
30.6204
31.0164
0.286836
0.192768
31.1264
28.8069
0.28068
0.0200014
28.1603
0.255161
0.228807
0.269284
0.347875
28.458
0.32932
4.52354
0.198924
0.391878
0.35713
0.229571
0.33558
0.256563
0.39461
27.8325
0.35634
0.38219
-0.117042
0.220572
0.288878
28.6186
0.233695
0.377916
0.259759
0.268172
0.358925
-0.0685421
0.530938
0.178042
0.334253
0.320982
0.235287
0.310564
0.363659
0.34288
0.404551
31.6654
-1.08189
31.564
0.340826
0.357165
0.295712
0.233281
0.426657
0.317571
0.337787
0.0900417
0.308862
0.197511
30.6015
23.3742
0.254049
0.31127
0.358595