/*--------------------------------*- C++ -*----------------------------------*\
  =========                 |
  \\      /  F ield         | OpenFOAM: The Open Source CFD Toolbox
   \\    /   O peration     | Website:  https://openfoam.org
    \\  /    A nd           | Version:  10
     \\/     M anipulation  |
\*---------------------------------------------------------------------------*/
FoamFile
{
    format      ascii;
    class       volScalarField;
    location    "46";
    object      SgP;
}
// * * * * * * * * * * * * * * * * * * * * * * * * * * * * * * * * * * * * * //

dimensions      [1 -1 -3 -1 0 0 0];

internalField   nonuniform List<scalar> 
111485
(
1.69875e-09
1.70291e-06
5.54577e-07
5.64038e-12
1.4086e-07
2.50198e-09
2.70118e-07
1.07349e-08
2.59003e-07
2.46271e-08
5.08591e-07
2.08684e-08
1.31736e-07
0.00517135
1.33251e-07
2.69903e-07
0.00367622
1.60678e-05
1.67878e-08
2.52028e-08
0.000692772
2.3276e-10
5.05077e-08
1.76149e-07
9.08848e-07
2.17634e-09
2.09521e-08
3.15868e-07
4.86599e-08
0.000902597
6.65497e-08
3.13838e-09
6.32176e-09
2.55521e-08
1.34941e-05
1.80201e-06
0.00241765
0.00362989
4.26335e-05
7.00845e-08
0.00072233
1.63073e-08
5.34443e-08
2.0249e-06
2.9052e-07
3.9099e-08
1.22926e-07
1.50938e-08
1.29285e-07
1.45366e-08
2.91006e-08
3.57326e-07
1.03708e-08
1.76839e-07
3.48079e-08
1.17053e-09
2.81873e-08
4.18562e-10
8.70164e-07
8.44138e-09
1.84188e-08
5.81761e-09
1.87541e-06
1.0677e-07
1.4997e-07
5.30419e-07
6.82438e-06
2.62301e-08
1.4247e-06
3.03241e-06
9.57985e-07
2.01356e-06
2.14465e-07
1.76441e-06
5.78066e-09
2.63388e-09
1.10984e-09
1.46761e-08
1.98159e-09
4.92602e-07
0.00496748
0.00922158
9.26554e-10
2.18026e-09
3.33534e-07
7.54842e-07
0.00249498
1.4056e-07
4.40471e-06
1.43855e-07
2.87877e-08
1.28678e-07
9.06618e-07
7.61771e-09
3.99408e-08
4.23945e-10
0.000505092
2.72039e-07
2.88054e-05
8.30239e-06
4.39079e-10
5.63659e-08
3.54573e-08
2.2776e-07
1.30342e-07
2.62712e-07
1.91449e-10
3.7999e-09
2.56118e-07
1.17401e-05
8.67777e-07
2.11286e-08
2.45184e-07
1.36353e-06
5.59843e-09
6.34648e-09
1.55797e-09
1.64877e-07
4.71393e-07
1.5583e-10
1.14228e-09
3.36122e-06
0.00124904
4.51687e-08
8.28892e-07
0.000530885
1.97714e-06
3.07802e-07
1.76089e-11
5.56321e-06
2.82606e-06
3.67057e-07
0.000884789
3.17109e-06
1.47746e-06
3.63751e-09
1.98792e-10
1.19401e-08
2.1641e-07
4.22315e-07
1.37101e-06
3.16139e-09
0.00317025
1.74179e-06
5.98352e-07
5.10041e-08
2.29249e-10
8.39979e-10
2.22152e-09
1.95459e-08
6.01871e-07
0.000530757
0.00197813
2.6473e-07
1.18427e-06
1.52489e-09
7.49716e-08
2.99706e-06
1.61734e-05
1.09077e-07
6.93805e-11
5.20142e-09
7.21632e-07
1.11979e-06
1.34592e-06
9.57757e-07
1.1991e-07
0.000451772
2.74974e-05
2.19907e-06
4.09161e-11
2.1075e-09
0.00347449
2.65672e-11
6.36517e-09
6.60518e-08
7.94118e-09
1.64329e-07
4.09675e-09
1.02202e-07
1.49202e-07
4.99545e-09
2.64855e-08
7.38027e-09
5.03449e-08
4.05678e-07
1.95678e-07
8.24912e-07
6.44587e-06
5.54287e-09
1.12715e-06
9.06351e-08
1.31595e-07
3.90887e-07
1.0989e-07
2.33751e-07
5.43117e-08
2.7705e-08
2.00861e-08
1.54847e-07
3.51391e-08
2.79579e-05
1.44962e-06
1.05925e-08
3.05503e-08
1.01766e-07
2.17827e-07
1.99707e-07
2.90115e-07
7.51172e-08
8.29702e-08
1.45455e-07
1.41784e-07
1.17411e-10
1.57987e-06
5.06293e-06
6.99223e-09
3.04485e-10
2.23162e-07
3.61254e-07
1.88695e-08
1.35317e-09
3.19606e-07
2.65574e-07
5.03559e-06
1.16667e-10
2.22037e-11
6.62011e-07
7.37761e-05
4.09731e-07
1.72528e-06
2.86194e-07
2.19669e-08
0.00255586
6.52178e-07
2.51816e-07
0.00284607
1.38951e-09
1.03626e-06
4.87252e-07
4.59065e-07
5.87334e-07
1.10537e-07
7.49332e-08
3.29748e-05
6.55979e-09
1.44423e-07
1.48679e-09
1.09524e-07
0.00240156
3.57593e-07
3.3773e-07
3.83009e-07
2.52391e-11
3.638e-06
1.54153e-08
5.71208e-09
1.20233e-06
0.0018041
1.55702e-09
1.10176e-07
1.06956e-06
1.98151e-08
6.55606e-11
1.13334e-07
1.61061e-11
9.67299e-10
1.24519e-08
0.0029716
6.62669e-08
5.68089e-07
1.95024e-08
0.00311025
3.69842e-07
1.71896e-08
4.24428e-06
7.43466e-08
2.80847e-08
9.41015e-09
1.83501e-09
0.00203554
1.0295e-08
7.75698e-07
4.33231e-07
2.67909e-11
0.00382588
0.00466933
3.53198e-08
6.15675e-06
5.96432e-07
5.85447e-08
1.49502e-07
2.43881e-07
1.64549e-10
1.32177e-07
3.29802e-10
6.33182e-06
4.93624e-06
2.86841e-07
3.59776e-08
0.00606071
6.03822e-09
0.00144089
1.4493e-08
1.28048e-07
2.28199e-10
2.20261e-09
0.000461977
6.44765e-08
3.27019e-08
1.30091e-07
2.96186e-06
7.13545e-09
4.5784e-07
7.73312e-10
3.91523e-09
8.69995e-08
7.4551e-05
0.00441251
5.87645e-08
1.3859e-05
1.76429e-10
1.02579e-09
4.49012e-10
1.49397e-06
2.73944e-08
1.49143e-08
5.71652e-08
1.32739e-08
1.31878e-06
0.00112863
9.72078e-08
1.00758e-08
5.61187e-08
3.2684e-08
0.00079577
9.27711e-07
1.07583e-08
1.6308e-08
1.48212e-08
2.45837e-07
2.71632e-09
0.00264781
4.35941e-06
8.48111e-09
6.65373e-08
4.85457e-06
1.17805e-08
0.000652045
2.55057e-09
2.12541e-07
1.05547e-07
8.88269e-09
3.60809e-07
1.7563e-07
6.86019e-09
9.12814e-09
2.09574e-08
4.96492e-08
0.00634444
5.44516e-07
1.36348e-09
0.000882312
3.30388e-07
4.19767e-10
8.77247e-09
2.19619e-09
0.000880194
1.23625e-05
0.000856222
0.000824261
6.3195e-09
2.16558e-10
2.93535e-08
5.09786e-08
3.45248e-11
1.84122e-07
4.71192e-08
2.84253e-07
5.0663e-07
2.54417e-06
8.46539e-08
1.25729e-05
2.58841e-08
9.09228e-08
9.0981e-07
1.22965e-08
1.25925e-05
5.51639e-09
2.352e-07
5.8516e-08
0.000503795
1.99467e-09
1.30038e-09
0.00272012
1.21735e-07
0.00538827
7.80756e-09
1.12756e-07
6.1879e-08
1.32095e-10
9.75704e-08
8.28823e-07
1.68232e-09
0.000596818
8.34285e-08
4.94848e-08
1.66371e-08
3.29291e-10
1.31525e-05
3.44304e-10
1.61124e-07
6.68817e-08
1.66492e-12
1.64929e-08
9.09902e-07
0.00433054
2.59796e-06
3.90754e-11
1.44102e-06
1.75675e-06
1.76588e-06
6.66569e-07
1.17866e-05
4.48144e-08
1.94993e-05
9.3442e-07
0.00359
4.1618e-06
3.8052e-09
1.34346e-07
2.61443e-08
1.94483e-09
2.43391e-05
3.89465e-06
1.38888e-06
2.94981e-08
3.1157e-08
2.33889e-07
3.6482e-09
0.00614947
3.83295e-08
6.03385e-07
8.44761e-05
1.68243e-06
2.47598e-05
1.23001e-09
0.00449316
0.0058134
4.13471e-10
6.51633e-07
5.25339e-06
2.0036e-06
6.19399e-11
4.7421e-07
4.31049e-10
0.00501113
1.34615e-06
3.70413e-07
2.08143e-06
5.3836e-07
4.64738e-09
8.49727e-08
1.35135e-08
1.33445e-06
2.93066e-09
1.7944e-08
0.000977565
1.74028e-06
1.7922e-09
2.08009e-09
7.29473e-06
1.54113e-09
3.14535e-08
7.96406e-08
6.74826e-11
1.06198e-06
1.66747e-09
0.00138475
8.48031e-09
4.47087e-08
3.12662e-09
4.2639e-06
8.87442e-09
0.00396957
3.92999e-07
0.00415972
5.05182e-10
1.14305e-06
4.68534e-08
6.03496e-11
0.00646768
0.00251454
5.32076e-07
7.02056e-08
5.65396e-07
1.49931e-08
2.5482e-07
6.07509e-09
6.95076e-07
0.00507387
1.05632e-09
2.0426e-08
1.93481e-06
3.25088e-07
0.000986906
1.04409e-07
2.00264e-06
3.06386e-08
2.79656e-08
1.31815e-05
0.00136538
2.38065e-07
9.68629e-09
2.22296e-08
7.70064e-08
6.03231e-08
2.31073e-08
4.05401e-07
2.10109e-11
3.02632e-05
2.06112e-09
6.51294e-09
4.78983e-09
1.78389e-06
4.99568e-10
1.48022e-07
4.12118e-09
1.64114e-07
1.25058e-09
0.00205236
0.00198833
4.46337e-07
6.93406e-09
0.00108549
0.00142056
5.66105e-09
4.16605e-09
2.70173e-07
3.85461e-09
2.69861e-06
2.94474e-07
2.31012e-07
0.000795455
3.85924e-08
9.24041e-11
8.25115e-07
7.32741e-07
1.13167e-06
2.1792e-08
3.41439e-07
2.60447e-07
2.58681e-08
1.87723e-08
4.11522e-07
6.29596e-07
1.55419e-10
0.00225867
1.3074e-06
8.70658e-07
3.4424e-08
2.07147e-05
6.32011e-07
8.69203e-06
4.06417e-05
6.15409e-06
4.61971e-08
1.69403e-06
2.2859e-07
4.29135e-07
0.00201691
3.52862e-06
1.31539e-06
6.52686e-05
0.00135815
5.8882e-09
1.14795e-06
8.13619e-08
6.17086e-07
1.09757e-08
8.77576e-06
4.90046e-05
9.47684e-06
3.04059e-06
4.66407e-07
1.94704e-08
6.48893e-09
3.44703e-06
2.90024e-08
1.45177e-09
5.36568e-11
9.04747e-09
7.65606e-10
3.91906e-07
3.00635e-11
0.000651099
2.75332e-07
6.17616e-07
0.00181131
0.00561972
1.01718e-06
3.20505e-08
0.000691467
6.91651e-10
3.92538e-07
3.29688e-09
9.88009e-09
8.02666e-07
4.58122e-07
0.00208417
5.17118e-07
4.02467e-09
6.43734e-08
6.02529e-07
0.00253005
1.40818e-07
5.36754e-07
1.04004e-06
0.00345446
0.000696083
5.4116e-08
3.38579e-07
1.31934e-07
4.35654e-08
1.53981e-07
1.60909e-08
6.61976e-07
7.27449e-08
3.49804e-08
2.15249e-08
7.53386e-08
1.27697e-05
5.45571e-07
6.49881e-08
7.47248e-08
1.23133e-05
4.95373e-09
8.9748e-09
2.93675e-07
8.31703e-08
3.00429e-07
2.18155e-08
6.99503e-08
6.89372e-08
5.44188e-07
3.15256e-06
2.86592e-07
5.74993e-07
3.10714e-08
9.51067e-09
8.0109e-07
9.93211e-08
2.13296e-09
0.00129589
6.38307e-10
0.00241365
1.00704e-06
0.000234951
1.31504e-08
0.000492524
8.39965e-08
2.20659e-07
3.28721e-10
1.86368e-07
5.9988e-09
4.13936e-10
2.01144e-08
0.00497966
2.1716e-06
5.64745e-07
0.000762504
2.27301e-09
4.16698e-10
1.13118e-07
2.96276e-08
1.48952e-06
9.76635e-09
2.40108e-06
6.48502e-10
1.32443e-07
2.31256e-06
0.00294917
9.1793e-12
3.68626e-09
2.93606e-08
3.66592e-10
2.2791e-06
9.10579e-09
0.00104526
1.33353e-08
1.12887e-09
4.48125e-09
0.000759283
9.05705e-08
2.8552e-06
1.87025e-11
8.43218e-05
1.55838e-05
0.00318821
2.53221e-10
2.55956e-09
8.28893e-08
4.75567e-07
7.51292e-07
9.57369e-06
6.46547e-06
4.59165e-06
1.08751e-07
0.00105399
5.30254e-07
2.00985e-08
1.45573e-09
2.46712e-08
4.94906e-09
3.79245e-09
1.14109e-09
2.62935e-11
3.4254e-08
1.36193e-09
8.43975e-09
1.89917e-08
3.04194e-09
9.40668e-09
4.70369e-09
1.47978e-08
4.38912e-09
3.1108e-07
3.03661e-07
8.77687e-09
7.23573e-10
4.2607e-07
2.15222e-11
1.5528e-06
3.24136e-08
7.96137e-08
2.96345e-09
8.50197e-11
2.25011e-10
4.54027e-11
3.20929e-07
2.07819e-09
1.18393e-08
3.86717e-07
2.21071e-10
2.80664e-07
1.41976e-06
6.93764e-08
1.46819e-08
9.50844e-06
5.66911e-08
0.0044374
2.00038e-06
2.06274e-07
0.00376566
1.47629e-06
1.56614e-07
5.35096e-07
1.04879e-08
3.4616e-07
0.0016927
1.23354e-05
1.36288e-08
3.9166e-09
2.46105e-07
1.53543e-06
1.77272e-06
1.36693e-06
7.75329e-11
4.73712e-13
1.26786e-08
6.73457e-07
7.17943e-08
6.94001e-08
3.28175e-06
4.65403e-08
5.977e-07
1.54042e-10
2.85897e-09
0.000558345
2.03681e-07
4.80457e-09
2.09574e-09
8.90708e-07
2.25975e-06
3.38361e-08
8.19118e-09
0.000759981
3.60837e-11
5.52161e-07
0.00106067
6.47508e-10
0.00125282
7.65134e-07
0.000617688
8.86578e-06
5.53841e-09
5.17383e-07
3.371e-07
0.000852498
9.93213e-07
2.2646e-05
0.00285745
2.06342e-06
2.64518e-07
2.11227e-08
1.14727e-08
0.00855813
0.00286185
3.18667e-09
0.0041872
2.80979e-07
2.97661e-06
6.38646e-07
3.71137e-07
2.07819e-05
7.05222e-07
2.44063e-07
1.28475e-07
1.33532e-08
2.37078e-08
0.000765769
3.70155e-09
1.0239e-06
6.08332e-07
9.86695e-10
7.60066e-08
0.00383105
9.07396e-08
6.29462e-09
1.06616e-05
8.16302e-10
1.95618e-08
0.00372351
7.82591e-09
0.00312995
0.00598942
2.28774e-05
3.76261e-07
1.87217e-08
6.30088e-08
1.04928e-06
4.62776e-06
2.04253e-05
5.38815e-06
7.88552e-08
0.000762799
1.99133e-06
5.97302e-10
6.37665e-06
5.2022e-06
1.15451e-05
8.37939e-06
1.6107e-05
3.07522e-06
1.05814e-10
1.28527e-06
7.12438e-09
1.38049e-08
2.66351e-05
0.0061415
4.34643e-09
5.61042e-09
5.71735e-05
6.25002e-05
4.21725e-11
1.12086e-05
9.90434e-09
2.28807e-10
3.45967e-10
7.70214e-09
1.06308e-07
8.2376e-09
1.36809e-06
0.000856362
5.60198e-11
1.36584e-08
7.90935e-05
0.00205637
1.44482e-06
1.26755e-09
0.000544609
6.90466e-11
2.46598e-06
5.34298e-10
8.50028e-10
1.07747e-05
0.00229178
3.37571e-08
2.0023e-09
3.26911e-09
0.000593825
8.51952e-09
0.000388429
4.64696e-09
2.15834e-06
1.38823e-10
3.85647e-05
4.40897e-08
4.32604e-11
1.79288e-08
9.81838e-09
2.7312e-05
1.61899e-08
3.59692e-09
3.52936e-08
8.50149e-05
0.000907104
1.33064e-06
1.04779e-05
2.04078e-05
4.0138e-09
2.25024e-05
1.80987e-07
3.52378e-09
4.97102e-08
4.26756e-06
3.77468e-07
4.6124e-09
1.56522e-07
2.78547e-06
4.13865e-09
1.17442e-08
1.61175e-08
3.25648e-07
0.0012564
9.55724e-11
1.53314e-09
0.00101243
2.12168e-06
1.35801e-06
2.91715e-10
2.34514e-08
2.86247e-09
1.95627e-08
4.46162e-07
1.04427e-06
1.77802e-08
4.72911e-07
4.42101e-07
1.46887e-06
3.93556e-07
9.28886e-11
6.24093e-08
8.06544e-11
1.32256e-08
1.62569e-06
3.02671e-06
3.63576e-09
8.60483e-09
1.74232e-08
9.13901e-11
7.80877e-07
9.30379e-09
1.25877e-06
1.52968e-05
1.44483e-06
4.80073e-09
2.68936e-05
2.10314e-06
1.31855e-06
2.79151e-06
8.86459e-10
2.69691e-06
6.32236e-08
0.00206714
6.18509e-07
1.79947e-06
8.95176e-09
1.29213e-11
1.28788e-09
0.00328461
0.00125597
9.88875e-07
8.17004e-12
2.41995e-06
6.46023e-10
0.00304144
3.36573e-06
1.52137e-08
2.53244e-09
4.85399e-08
1.55982e-08
1.69522e-06
4.41241e-08
2.10291e-06
0.00549149
9.21445e-08
1.29703e-06
5.22363e-07
1.33828e-06
9.24879e-07
7.86555e-09
1.16849e-11
8.07023e-08
5.73827e-07
4.74461e-09
3.75737e-09
1.07422e-05
6.84442e-09
5.74073e-08
0.00738034
2.72931e-08
1.22256e-06
1.22039e-11
8.30232e-08
3.7902e-09
0.00584174
3.9012e-10
0.00214938
0.000105643
2.323e-06
3.29483e-07
3.02391e-07
1.78073e-05
4.59874e-08
9.99134e-08
4.83466e-08
8.59102e-09
1.29227e-08
3.82988e-08
1.526e-06
5.64421e-08
0.00118882
4.63502e-09
9.72191e-08
5.78113e-06
9.28463e-11
7.27512e-06
4.58314e-09
8.52447e-07
1.40998e-05
2.34954e-09
4.22313e-09
1.17011e-06
9.7593e-09
1.67934e-07
0.00321136
9.49694e-09
1.82701e-07
1.32151e-10
0.000778553
1.59069e-07
1.22204e-08
1.1266e-08
8.10078e-08
1.3275e-07
1.41434e-09
0.0027047
2.04393e-08
5.05091e-11
2.28346e-06
8.18953e-09
1.34962e-10
8.21456e-07
1.59002e-05
1.4612e-05
4.41e-10
3.41264e-08
8.4121e-10
9.83859e-07
8.68608e-07
0.000643251
1.06261e-07
1.44964e-05
1.25291e-06
2.06214e-05
5.23595e-07
5.39603e-08
2.20382e-08
1.29636e-08
1.30157e-06
3.97698e-08
1.42315e-07
0.000820171
5.23665e-06
0.000801462
4.26966e-11
1.79433e-07
1.79914e-09
1.40682e-06
1.68846e-06
1.13159e-07
8.85583e-07
8.52594e-06
2.69857e-06
1.54316e-11
0.000113514
0.000144157
1.87637e-06
7.71866e-07
1.94522e-08
1.55465e-05
3.69343e-08
7.32421e-08
7.1325e-09
1.18508e-09
4.37795e-06
1.55194e-07
1.6436e-05
1.5173e-08
0.000792905
1.13335e-05
1.60512e-08
1.97353e-08
1.11582e-05
5.88373e-08
0.00104031
0.00493551
2.31061e-06
4.23219e-06
1.119e-07
6.17407e-10
5.22529e-10
2.90472e-09
1.30088e-06
8.5439e-08
0.000582786
0.00102662
5.66432e-07
5.62433e-09
5.66908e-06
0.00070419
4.61826e-07
2.1104e-05
4.41384e-05
0.000739207
0.00215063
0.000859548
2.62616e-06
1.58515e-10
3.59208e-05
3.17083e-08
3.42476e-09
4.58644e-09
5.47818e-09
5.21111e-07
1.30498e-09
3.29606e-09
1.56092e-06
2.33618e-09
2.47112e-10
1.71497e-08
3.35547e-09
0.00100099
1.16258e-07
6.1621e-07
0.00129169
0.00464976
1.99374e-09
0.00333598
3.21602e-06
0.00688118
1.22949e-07
1.3584e-09
1.89891e-09
8.08158e-07
0.00464624
3.76756e-11
2.2849e-05
3.08205e-09
8.70835e-08
2.89616e-07
2.32912e-07
2.75485e-08
5.83669e-09
0.0013117
2.5905e-09
1.41089e-07
4.75243e-09
9.23167e-09
9.9402e-09
8.88059e-06
2.18844e-06
1.98463e-08
6.55706e-06
3.94739e-07
9.8984e-09
2.31423e-06
2.20601e-08
6.52941e-07
3.76903e-09
2.30037e-09
0.00450942
0.000743948
7.86509e-06
6.01259e-09
6.75864e-10
2.98674e-08
0.00344442
6.5782e-09
2.07139e-07
1.51841e-08
4.22384e-08
5.34652e-10
0.00059839
2.4053e-06
3.23211e-09
2.01014e-08
3.21022e-07
3.14968e-09
0.00318086
3.64638e-10
0.000756226
1.47479e-06
9.31806e-08
3.33178e-10
3.90272e-08
2.49543e-08
1.88278e-09
4.77739e-08
7.55619e-08
2.25827e-11
1.21592e-10
1.77467e-06
0.00136757
2.5805e-10
6.75586e-07
9.44379e-08
1.81575e-06
2.78211e-09
0.000821964
3.21231e-08
1.10353e-06
1.06274e-06
7.66416e-09
1.09726e-06
4.91447e-08
3.14073e-07
3.4556e-09
6.4547e-09
2.62439e-07
1.36316e-09
3.28438e-06
8.9713e-07
1.2791e-09
5.76672e-09
2.49245e-06
9.5129e-06
0.00545074
2.49866e-09
1.12206e-07
3.95417e-08
6.64135e-06
3.54491e-06
5.23674e-07
1.5628e-06
0.00135974
7.08809e-08
9.53273e-07
1.41405e-05
0.00115443
1.54409e-08
9.33036e-10
7.36083e-06
2.12245e-08
0.000707508
4.9026e-09
2.09136e-07
2.30314e-08
4.35016e-09
0.00410036
1.18378e-09
1.08722e-08
1.50613e-08
4.67584e-07
0.00540872
0.000971275
8.77128e-09
2.44864e-09
7.39796e-11
1.11198e-08
1.06747e-08
1.74642e-08
2.98764e-09
1.34792e-10
3.90681e-09
1.92681e-10
5.39341e-09
0.00106602
0.000635181
2.14125e-10
2.61105e-07
4.08787e-09
8.40984e-09
2.09851e-09
0.000622969
0.0015455
1.94259e-07
4.36449e-09
1.38182e-09
1.65515e-08
3.4061e-08
8.82731e-08
5.82039e-09
6.4614e-06
5.00886e-09
5.40951e-08
9.0747e-08
3.19343e-06
9.76269e-08
1.37117e-05
4.22752e-08
4.87297e-09
8.35221e-06
7.94986e-06
6.10697e-09
4.86769e-07
6.28426e-08
2.3792e-07
8.18097e-07
1.75032e-07
7.39155e-08
3.46516e-09
0.00583232
2.21204e-08
9.72822e-07
0.00106923
2.43939e-06
2.67959e-07
3.35865e-07
6.02866e-08
1.38058e-08
5.11995e-07
1.52743e-06
1.39176e-06
8.03862e-08
7.93117e-07
7.06434e-08
3.64586e-08
1.41175e-08
1.50094e-10
7.90223e-09
5.61056e-10
9.92449e-12
2.7581e-09
1.65759e-08
1.138e-07
2.37064e-09
3.56043e-11
8.10887e-09
3.10675e-07
6.46344e-09
2.14265e-10
1.47262e-08
4.15429e-08
2.39091e-09
1.87964e-06
1.30294e-07
0.00437929
2.25118e-09
2.04947e-07
3.65532e-07
7.90801e-08
4.04574e-10
1.04751e-08
0.0039645
9.40479e-09
2.90115e-10
6.48617e-08
0.00398099
1.4992e-08
1.13039e-06
1.11949e-06
2.99153e-08
1.7573e-07
2.12691e-07
6.93235e-06
2.67301e-10
8.27176e-07
1.05565e-07
3.61115e-09
5.22704e-06
7.2449e-06
0.0034687
1.35972e-07
3.03671e-08
1.90386e-07
6.97785e-07
3.56185e-07
1.22723e-08
4.38723e-05
3.95421e-09
1.28871e-05
6.88155e-06
0.00113131
1.43036e-07
0.00456715
4.87352e-09
1.90753e-08
1.02653e-07
3.95333e-07
9.94202e-07
7.15814e-08
2.54402e-06
9.62059e-10
1.66079e-07
4.18882e-10
2.18303e-10
2.58161e-08
7.71811e-06
5.47512e-09
3.62181e-10
8.06365e-06
5.44085e-09
9.65069e-06
4.60337e-08
1.52199e-08
3.02822e-08
2.84651e-09
3.67112e-07
9.82429e-08
3.74193e-06
9.16349e-09
1.26538e-07
6.33144e-05
3.10917e-08
3.14352e-10
2.69133e-06
6.53538e-08
6.01942e-07
8.81648e-10
0.00253831
2.29488e-06
9.719e-07
3.66851e-08
6.21871e-09
3.76685e-06
1.00401e-07
2.74519e-09
7.94252e-11
1.25884e-06
1.41247e-06
1.50241e-06
0.00343211
8.50013e-08
1.46689e-07
4.71904e-06
1.45455e-07
1.08939e-07
4.12869e-08
1.23577e-06
4.80418e-08
2.26923e-06
0.00324699
2.74095e-07
3.16247e-13
5.5146e-08
1.0865e-06
2.66557e-07
4.83168e-09
1.13077e-05
1.52184e-05
8.57399e-06
1.73775e-05
3.57908e-07
8.9941e-07
2.34351e-07
3.84736e-07
6.39227e-09
4.2407e-10
0.001873
9.41143e-06
3.92067e-08
2.56748e-05
1.08567e-07
5.21596e-07
8.92828e-06
8.53289e-08
4.97934e-08
5.96297e-08
6.63457e-10
7.82281e-07
6.00306e-07
2.28514e-06
7.24765e-07
6.24521e-09
8.51087e-09
4.19209e-07
1.80804e-08
5.49384e-10
5.98306e-06
8.98931e-08
1.82488e-07
8.22208e-07
6.66707e-08
2.8137e-09
9.7791e-06
0.00242986
1.34455e-08
4.15273e-10
1.02641e-10
0.00253899
0.00438358
7.34812e-09
0.00100116
1.65015e-07
4.18624e-07
1.45781e-07
1.62993e-07
2.49198e-07
3.08139e-07
5.94154e-07
0.00195957
0.00599037
0.00691048
2.16267e-07
5.95193e-07
2.35913e-07
1.45585e-07
0.00635368
6.27447e-10
0.00306234
4.42345e-07
5.97433e-10
6.9976e-09
1.01624e-08
7.34276e-09
1.44815e-09
3.73061e-09
1.20383e-09
0.00242424
1.22921e-09
7.10002e-07
3.64833e-06
4.29695e-10
8.71943e-08
1.26408e-07
1.05471e-07
2.05225e-09
1.08951e-05
1.03882e-07
2.28921e-08
1.49224e-06
1.01703e-07
6.36104e-07
1.22186e-07
2.04354e-08
3.35709e-09
3.8099e-07
5.96344e-05
9.27637e-07
9.03119e-09
3.17439e-07
1.9655e-08
4.8922e-07
2.39179e-06
2.47668e-07
9.87959e-08
8.88141e-08
2.22844e-08
1.05956e-06
8.83447e-09
2.26279e-07
0.000764448
7.35858e-06
0.00577295
1.29723e-05
1.83828e-06
2.68069e-10
0.00114893
7.87242e-10
1.14671e-06
1.27283e-07
2.30419e-07
1.62772e-06
1.31949e-08
5.802e-09
7.5371e-07
1.8699e-08
1.65875e-09
4.78397e-07
1.01432e-08
4.54199e-07
0.00131566
4.52961e-09
6.93131e-07
2.58005e-08
2.18872e-08
2.98452e-10
4.27338e-06
1.76921e-06
8.58296e-08
7.09448e-09
2.23032e-08
0.000831514
3.9413e-06
2.19937e-07
3.19383e-07
6.48898e-11
3.69476e-12
1.30088e-08
3.10217e-10
8.6818e-07
5.61563e-09
3.94436e-07
3.24419e-08
6.24914e-09
9.76494e-08
6.46462e-10
1.09469e-06
1.53349e-06
8.31996e-07
8.62055e-09
2.08535e-09
1.99026e-08
3.26037e-08
9.94007e-06
2.89018e-08
0.00283367
5.01232e-07
3.98625e-09
6.23563e-09
4.11289e-06
2.77636e-07
1.98911e-05
3.18632e-08
1.92001e-06
0.00412945
3.36061e-10
5.75884e-06
3.57618e-07
0.000796129
2.88469e-08
0.000886363
0.00154926
2.18083e-06
1.30713e-07
3.27614e-07
8.05862e-10
2.77401e-07
4.65999e-07
6.43674e-06
3.25453e-07
9.05039e-08
4.4764e-07
7.04333e-06
6.36496e-06
8.21607e-06
2.74719e-06
1.86839e-09
1.7366e-06
1.48169e-05
1.15922e-07
6.26017e-08
4.21337e-06
3.58748e-06
2.8516e-07
3.16373e-07
4.52378e-06
2.77928e-07
7.06143e-06
4.52947e-06
3.86237e-07
6.53912e-10
6.43515e-07
8.06632e-06
0.0012398
4.74053e-08
2.10295e-08
8.00116e-07
2.65259e-08
1.41629e-06
1.51298e-08
6.83481e-06
9.51433e-09
1.62311e-06
4.48024e-09
3.52907e-09
2.34605e-07
1.64598e-05
2.29712e-05
0.005944
2.44595e-07
2.95629e-08
1.91018e-09
7.69882e-06
4.2415e-07
0.000562506
0.00131328
1.85433e-11
1.39959e-05
1.28803e-06
8.8081e-08
1.04486e-08
2.25478e-05
2.02488e-08
0.000799702
4.04955e-09
2.71462e-10
5.27802e-07
2.0223e-08
3.40037e-08
6.78565e-07
0.00073695
3.57952e-07
1.61383e-08
1.6541e-06
0.00388362
0.000719259
1.04173e-07
5.33566e-06
4.59262e-07
1.00731e-05
8.95575e-08
0.000698379
8.65437e-07
3.50411e-06
3.13813e-09
1.04761e-08
8.6336e-08
1.39218e-08
3.82728e-07
3.26385e-08
1.2215e-08
4.46669e-08
8.36006e-08
1.80033e-06
5.54188e-10
1.18865e-08
0.00134084
1.64773e-10
1.63491e-09
8.01484e-07
8.52939e-09
4.44817e-06
6.22735e-07
0.00110274
3.74809e-07
0.00458829
2.84361e-07
3.63421e-07
0.000745019
3.04535e-06
9.30097e-12
1.62363e-08
0.000523471
2.3301e-07
1.57458e-06
3.2275e-07
1.37129e-09
1.32517e-07
1.49809e-07
1.98733e-08
0.00223867
3.55877e-08
2.28822e-08
4.49584e-08
1.23362e-08
1.09599e-09
1.72309e-06
5.95026e-08
0.00480382
1.63132e-06
6.31996e-07
7.89593e-07
1.00222e-06
3.73097e-07
5.73362e-08
1.11728e-10
7.2295e-09
1.74989e-06
3.82339e-07
7.29319e-08
5.63227e-09
2.50489e-07
1.90368e-08
9.32877e-07
6.26064e-09
1.30644e-08
2.88541e-08
5.85137e-07
4.24555e-07
6.23287e-07
4.79357e-09
4.43467e-09
3.24835e-05
7.11273e-09
1.50084e-09
1.60935e-10
1.97652e-08
0.00544406
5.31328e-09
3.24149e-06
1.28945e-06
4.47217e-07
3.2015e-09
1.69697e-08
3.83068e-06
1.45113e-07
4.85144e-09
8.03381e-07
2.21617e-09
1.67606e-09
5.79824e-10
1.58368e-06
4.88508e-09
0.00576641
9.25295e-06
6.93999e-07
3.43248e-05
5.41153e-09
3.07415e-07
9.66783e-10
0.00110659
1.57363e-07
1.11847e-07
3.35489e-08
2.09821e-08
1.25706e-09
0.00839494
3.57913e-07
9.06637e-06
1.25691e-06
2.22286e-08
0.00214821
1.57117e-08
6.42727e-09
1.05854e-08
1.04207e-08
8.32373e-07
1.08868e-08
4.72118e-07
5.44505e-07
1.00764e-05
5.58135e-08
3.27805e-10
3.21124e-06
9.61107e-09
0.00274635
5.14365e-08
5.86631e-09
2.78053e-08
3.55509e-07
0.00114294
0.000558916
3.0823e-07
9.54083e-07
0.00167386
6.08745e-08
5.75984e-07
0.000784305
2.21986e-07
1.07758e-07
0.00303506
0.000348769
1.74457e-07
6.39009e-07
1.68324e-09
7.3858e-07
3.01806e-05
1.8824e-07
1.64304e-07
6.4873e-06
3.37525e-10
0.000430887
2.56101e-09
4.97759e-07
0.00343823
2.6e-09
2.22903e-07
1.16026e-07
9.00594e-09
1.00731e-08
9.9447e-07
1.22254e-08
2.79733e-09
6.19505e-07
2.15374e-07
8.8052e-10
0.000432113
0.000820506
1.83013e-07
7.76014e-12
1.37125e-10
2.65325e-06
2.89555e-07
9.36671e-08
5.21613e-09
9.99353e-09
2.49013e-06
1.3892e-06
8.80119e-07
1.65101e-06
0.00638583
1.21817e-10
0.00246818
3.32445e-07
9.37859e-08
0.000939761
2.85966e-08
9.87217e-10
0.000426421
7.47314e-11
1.2558e-07
1.0709e-07
4.98978e-08
1.72487e-08
6.46559e-09
1.79876e-10
6.39541e-10
3.69106e-07
0.00231369
0.00373115
7.50052e-07
6.75075e-08
5.05133e-12
0.00104275
0.00397842
5.79682e-06
2.43468e-08
6.38049e-09
2.18861e-05
4.03567e-06
3.64832e-09
5.84681e-10
1.74373e-08
1.34745e-07
2.39228e-09
1.75775e-07
1.36454e-06
0.00111283
0.00359468
1.00436e-06
1.2913e-05
2.2644e-10
1.175e-08
5.31513e-07
2.42957e-06
5.29023e-07
7.28512e-06
1.64766e-07
2.57663e-07
2.05565e-09
9.66601e-09
2.76932e-07
0.00108574
6.18149e-09
0.00313139
7.82592e-10
2.06432e-07
4.51599e-08
3.44951e-07
5.84142e-10
3.30232e-11
1.09974e-08
1.17009e-09
4.73924e-08
6.02879e-06
6.60265e-09
0.000690539
3.20835e-07
0.00280918
2.64617e-08
4.62934e-08
3.04559e-08
3.83951e-08
2.02059e-07
2.34438e-10
1.01504e-09
8.54835e-10
6.85859e-08
1.50781e-07
0.000963346
0.000937465
9.84466e-08
1.86997e-08
1.05668e-10
5.38993e-11
4.35149e-10
1.95844e-08
3.62401e-06
7.46771e-09
3.04954e-10
1.04588e-10
0.00040794
7.66666e-07
9.0498e-07
0.000756395
1.4701e-08
0.00547096
1.41765e-07
1.44544e-08
1.7966e-11
4.83911e-09
0.00100054
1.58559e-11
4.69599e-07
9.00815e-10
1.13592e-05
7.72941e-07
1.62311e-06
2.41882e-06
4.95784e-07
6.77506e-10
4.43724e-10
0.0063363
6.92002e-07
6.07203e-07
4.39383e-06
1.62813e-08
1.62715e-06
1.57834e-06
5.14171e-08
9.24165e-08
5.74228e-06
6.28379e-09
1.1953e-05
0.000728445
3.54777e-08
6.96087e-09
1.45667e-06
1.46508e-08
0.000635792
0.00319931
4.42792e-07
7.63957e-10
6.81913e-05
5.82855e-09
2.47857e-07
3.57757e-08
2.2427e-06
4.85221e-11
1.74154e-05
1.62845e-06
2.53104e-06
4.51151e-07
2.12662e-06
5.1255e-07
1.17797e-07
2.68831e-11
3.20598e-06
1.1478e-06
1.10053e-06
2.07769e-08
1.71675e-07
2.10645e-06
7.81855e-06
1.93274e-10
4.46817e-10
1.62051e-09
1.9137e-11
2.18035e-09
0.000395338
8.25513e-06
2.50978e-06
9.64672e-07
3.75726e-06
1.65495e-06
6.39661e-12
3.37758e-07
3.86459e-10
9.48066e-09
1.46873e-09
4.27819e-07
3.80949e-05
4.32099e-07
2.38973e-09
4.74512e-09
2.93784e-08
7.51282e-09
2.61027e-09
0.00259632
1.9503e-07
1.16641e-05
1.77106e-05
1.29782e-05
1.3091e-09
1.00264e-05
1.22106e-05
2.25903e-05
1.24138e-05
6.40475e-10
4.24279e-11
3.06511e-08
2.15162e-07
1.19365e-06
6.32887e-06
0.000705778
4.12856e-07
5.62298e-07
7.32563e-08
1.02182e-05
3.93586e-09
9.93082e-11
2.12633e-06
7.02957e-06
0.000488565
1.99953e-10
0.00207768
2.08819e-06
1.43919e-08
1.50722e-06
1.0751e-07
2.03129e-06
4.92237e-08
1.94685e-06
5.52866e-09
1.47678e-07
3.99402e-05
7.43325e-07
1.45601e-08
3.23785e-05
9.05169e-07
1.83038e-07
5.97567e-05
1.35647e-09
1.97337e-07
9.40396e-07
1.69492e-06
1.25153e-08
0.00338071
2.6952e-09
2.88711e-08
4.13268e-09
0.00209301
0.00207285
4.50692e-08
4.6375e-08
3.06695e-06
0.00102865
1.08457e-08
1.7352e-07
5.6704e-07
2.05402e-07
2.62813e-08
0.00340088
1.94761e-07
3.62223e-07
7.77195e-05
1.50095e-09
1.16162e-07
3.40882e-08
4.43154e-08
5.15622e-10
4.53975e-05
6.55474e-05
1.6683e-09
1.62732e-08
3.1181e-08
1.77507e-06
3.51584e-10
0.000737166
1.08862e-08
2.26053e-07
1.46247e-08
1.37184e-08
4.56963e-08
7.01465e-07
2.97536e-08
9.28677e-08
4.23965e-06
2.33202e-08
2.60811e-08
0.000800092
2.17038e-08
5.55341e-08
5.90311e-08
5.03363e-07
3.37256e-11
4.65076e-10
4.48928e-11
1.98165e-07
1.17862e-08
0.00112138
3.59796e-07
3.83845e-07
8.83376e-10
5.54023e-07
0.00206863
1.66516e-06
2.32355e-07
1.01484e-06
2.05308e-07
6.26422e-09
7.02875e-09
3.35193e-07
3.76725e-08
4.73124e-08
8.81223e-06
2.15538e-07
2.08149e-09
5.66448e-09
2.95094e-08
1.3304e-08
1.24314e-07
9.53606e-10
1.44428e-07
2.80253e-07
5.06318e-09
2.61658e-11
0.000852917
1.4298e-10
1.00316e-10
4.79254e-07
0.00105457
5.59293e-07
3.95981e-08
6.22423e-10
2.38741e-07
1.02613e-07
5.16357e-07
9.46613e-08
1.90686e-09
3.27634e-08
1.51532e-08
1.05503e-07
1.10727e-09
6.68638e-10
8.19567e-09
6.76454e-08
3.72291e-07
2.57374e-08
3.60385e-09
1.27958e-07
1.08191e-06
2.63083e-09
5.70377e-07
9.93127e-09
1.71222e-08
5.74444e-10
9.49008e-07
2.94987e-09
3.673e-07
5.35457e-11
4.54093e-07
5.30038e-10
2.96076e-08
6.06123e-06
2.40005e-09
1.09549e-09
0.00126334
9.71886e-10
0.00104123
9.98819e-09
1.1733e-08
2.00893e-07
4.21033e-07
0.000774552
1.53362e-06
0.00092261
0.00112103
1.79003e-06
1.77389e-07
0.000752145
1.95224e-07
5.07949e-10
6.02798e-07
0.00236739
0.000688208
0.000781283
5.63124e-10
1.7292e-07
1.52901e-10
1.19736e-07
1.79494e-08
1.22215e-07
3.15747e-06
1.56322e-07
1.98396e-08
3.94011e-09
8.05286e-08
5.39744e-06
1.18678e-09
2.13308e-07
6.25372e-07
3.95828e-08
1.26439e-11
1.19868e-06
6.27459e-07
5.55573e-07
4.50445e-07
4.08174e-07
9.44747e-08
2.45468e-07
2.814e-06
1.57836e-07
1.15267e-07
2.22949e-06
8.30226e-06
1.36669e-10
1.77915e-08
3.86272e-09
3.59314e-07
1.86418e-09
4.95833e-08
6.28228e-12
7.39218e-06
0.00693088
0.00150832
2.55947e-06
3.85385e-10
2.02159e-07
0.000918471
0.00179237
2.55549e-08
4.88732e-06
4.89657e-08
1.07547e-08
7.60633e-09
2.40478e-09
2.69042e-07
7.67341e-07
7.46477e-09
8.58089e-10
2.92106e-07
1.05476e-08
0.00311357
0.00100849
2.14706e-07
2.28688e-10
3.06286e-09
0.000786964
4.72721e-10
4.97741e-07
1.00417e-08
1.10423e-05
3.25689e-10
1.27842e-07
8.12991e-09
3.84241e-09
2.00108e-05
0.00268396
0.0012055
2.66804e-08
0.0012792
7.01314e-10
2.56226e-07
2.97541e-08
0.00200929
7.81582e-09
3.06272e-06
4.29717e-10
5.40552e-08
4.93911e-06
2.41248e-08
2.71879e-06
4.85755e-09
2.50566e-07
6.0568e-07
2.94282e-07
6.34451e-08
1.08561e-08
7.12514e-09
6.05366e-08
2.41296e-08
4.18824e-09
2.49381e-09
0.00125144
0.000691143
2.79956e-09
0.00139196
1.85996e-10
5.59929e-09
8.12114e-07
1.18516e-08
1.03021e-10
0.000647822
2.37531e-09
6.93082e-11
1.07522e-05
1.59269e-10
3.06482e-11
1.02863e-06
0.00156578
3.74792e-09
0.000694135
7.7697e-10
3.78956e-08
0.00083276
1.24154e-07
1.67557e-05
2.06873e-11
3.01988e-09
2.30374e-08
3.89212e-09
0.0036953
0.000756759
1.95391e-06
8.6528e-10
0.000864191
1.64013e-10
6.55761e-09
8.54946e-10
0.00174833
3.47971e-05
2.16974e-07
2.4945e-11
1.72578e-08
0.000899341
1.86889e-05
7.58926e-09
4.59701e-06
0.00185341
0.00143098
6.4997e-07
0.00144927
1.81587e-05
0.000795307
7.28221e-07
0.00114093
6.00299e-06
7.77267e-08
3.51836e-08
4.34497e-08
7.83142e-06
1.63738e-05
1.16128e-10
1.05816e-07
1.85282e-09
7.52043e-07
1.58174e-07
2.78378e-08
1.64132e-07
5.40931e-06
4.61438e-09
1.77055e-07
6.88963e-09
4.75315e-10
1.88181e-09
8.89658e-10
8.91419e-08
1.99622e-09
1.33143e-08
2.05996e-09
2.70109e-07
7.63026e-07
7.2663e-11
4.78237e-11
1.06998e-09
2.181e-09
2.30074e-08
2.1077e-05
4.00793e-05
1.91555e-06
1.34712e-10
5.71724e-07
1.46013e-07
0.000861703
5.26272e-07
3.00618e-07
9.42375e-09
1.67711e-08
5.07694e-08
3.89963e-06
2.01076e-06
0.00315658
0.00124966
1.46562e-09
1.42377e-05
5.53132e-06
8.64111e-10
4.5697e-08
9.04632e-08
2.14801e-09
3.88431e-08
7.51697e-08
0.00115008
2.70067e-11
1.56579e-06
3.06516e-09
0.000814037
9.71915e-07
0.000664158
6.27513e-07
8.5068e-10
1.16232e-09
8.84354e-09
4.88085e-07
3.43297e-07
7.11476e-08
1.63082e-07
1.89025e-08
1.44671e-05
5.3653e-06
2.58103e-10
2.01411e-06
9.63572e-07
8.45448e-07
1.70389e-06
5.71272e-05
8.09464e-08
0.00170157