/*--------------------------------*- C++ -*----------------------------------*\
  =========                 |
  \\      /  F ield         | OpenFOAM: The Open Source CFD Toolbox
   \\    /   O peration     | Website:  https://openfoam.org
    \\  /    A nd           | Version:  10
     \\/     M anipulation  |
\*---------------------------------------------------------------------------*/
FoamFile
{
    format      ascii;
    class       volScalarField;
    location    "46";
    object      SgT;
}
// * * * * * * * * * * * * * * * * * * * * * * * * * * * * * * * * * * * * * //

dimensions      [1 -1 -3 -1 0 0 0];

internalField   nonuniform List<scalar> 
111485
(
9.98133e-17
0.00901543
0.0210421
1.23273e-17
0.045
2.22732e-16
0.0416876
0.00587916
0.0184014
0.00113014
0.0418453
0.00914962
0.00424611
0.000837073
0.00593023
0.0316596
0.00129311
1.99809
0.010033
4.03903e-16
2.74522e-16
7.38417e-17
0.0234674
0.0355311
0.00847241
9.72199e-17
0.0401236
0.001746
0.0159391
8.57865e-17
0.0435476
0.0173507
3.41883e-16
7.16999e-17
0.0096705
5.97215e-18
0.0105537
0.00388817
6.46678e-08
0.0215864
7.08839e-18
0.0720026
0.0144362
0.000998816
3.68467e-05
6.44383e-18
0.0328351
0.000720768
0.0475629
3.35163e-16
3.45439e-17
7.99161e-15
2.92334e-15
0.0444969
1.60118e-15
0.0430321
0.00354852
2.1984e-18
2.70501e-05
0.00449503
0.0149386
2.01753e-16
0.00402066
0.0883829
1.17496e-15
0.00359165
0.300993
0.0973242
0.000922764
0.00511947
6.61518e-06
0.00547383
1.21292e-15
0.00244732
2.7054e-17
0.000637572
1.10812e-15
0.0425231
4.00309e-16
1.55385e-15
5.22498e-05
0.0316098
2.04403e-16
2.31641e-17
0.00812554
0.00442603
5.83728e-10
0.0225538
4.64798e-05
0.00678403
0.000866493
0.0411085
0.0103414
6.13805e-05
0.055966
7.14686e-17
1.88253e-17
0.00145469
8.80011e-09
0.00147986
1.39328e-15
0.0195199
6.66318e-18
0.0214697
0.0048284
5.55787e-15
8.94197e-19
0.00747513
0.00318598
1.50037e-07
0.00562307
0.00507106
0.00313932
0.00264613
6.54743e-16
3.04842e-05
2.10343e-16
4.97684e-18
0.0113648
8.65629e-17
8.56028e-16
1.39672e-15
2.83813e-16
4.59981e-19
0.00233775
2.33185e-06
2.01152e-15
0.00149901
1.5851e-18
0.000173355
0.00098813
0.0280845
1.35448e-17
2.17277e-14
8.35916e-16
0.0491697
2.02356e-16
0.0409709
0.0225293
0.00255397
0.000171885
0.00186943
0.0204517
0.00310574
0.00379675
0.0122037
1.15351e-16
7.49312e-17
2.0082e-17
0.0262523
0.00183042
5.78335e-16
1.33174e-07
0.00502761
4.81072e-07
0.0106263
0.015491
0.00943417
1.69087e-07
3.16768e-18
2.00379e-18
0.0526936
0.0252382
5.16652e-06
2.32604e-07
0.0051872
0.00369155
2.02476e-18
9.97092e-06
6.59308e-05
1.02166e-18
1.74113e-18
0.000148449
3.07592e-17
0.00613732
0.00227043
3.79347e-16
5.36432e-15
4.71851e-16
9.00537e-16
2.46664e-15
1.04444e-16
0.0013412
0.00671794
0.0277214
0.00416182
0.00641757
0.00356887
9.48525e-05
2.99929e-17
0.00425137
1.75742e-15
3.06109e-17
0.00582597
0.0110801
0.0228098
0.010323
0.00462892
4.68855e-17
0.00604781
0.000573513
4.52049e-05
0.0111856
0.00230509
8.12624e-17
0.00325844
0.0275259
1.01183e-15
0.000230413
0.00650969
0.00228072
0.000309394
9.3633e-16
1.66779e-17
0.00728742
7.41132e-12
0.12388
1.79713e-17
0.00601118
0.0190202
0.12188
4.68953e-18
0.00267414
0.0120076
1.89247e-13
1.49824e-17
2.00458e-18
0.16663
4.18614e-07
8.92965e-16
1.66176e-15
0.00914245
0.0084665
0.0159975
4.20048e-15
6.82697e-16
9.35383e-06
7.7589e-17
0.00272527
0.0083292
0.0149801
0.0107874
0.00917571
4.98062e-19
3.23e-07
0.00056523
3.0927e-18
2.83466e-16
0.0306839
0.0214553
3.83944e-16
0.00559133
0.00978798
8.69068e-18
1.83051e-14
0.000153181
2.24125e-16
6.20501e-15
3.92553e-05
1.78226e-16
0.0156156
0.011727
0.00335869
4.07198e-17
0.0109658
2.2894e-17
3.94285e-17
4.3044e-18
3.72493e-08
0.0225681
0.00553234
0.00466817
0.0369683
0.0109742
0.00149742
0.000590084
0.0340477
0.00941772
7.22672e-17
4.73876e-17
3.36728e-07
0.0220505
0.0215185
0.012834
9.93683e-17
0.00633307
0.00194786
0.00276233
6.20992e-06
4.40638e-06
0.0122033
0.00211875
0.00186276
1.01661e-18
0.000778965
1.10884e-17
5.26932e-07
3.26372e-13
0.266527
0.0682749
0.0138368
2.05292e-16
8.1609e-18
0.0083104
0.00190193
1.50614e-15
1.37337e-17
2.27212e-15
0.000416281
0.0622496
0.0033411
0.0154372
0.018289
1.49797e-15
2.18786e-18
5.91578e-17
0.00350944
2.14932e-12
0.00132637
0.187002
5.82636e-07
2.61527e-17
1.47905e-16
6.55854e-18
9.49178e-15
0.0574405
0.0123209
2.79892e-18
0.00486533
3.21739e-15
5.73105e-15
0.0672091
0.00538567
0.0107256
0.00854864
8.8428e-15
4.78066e-15
6.11928e-18
0.00872692
0.0189128
0.00469517
6.86362e-16
1.86726e-10
0.000225069
0.00177948
0.00734147
6.34258e-05
0.0284726
2.39069e-16
0.0370365
0.00315776
0.00787156
0.0230721
0.0147394
8.67365e-17
8.45372e-17
1.94453e-17
1.3172e-16
0.0320888
0.00856013
0.0370833
0.066973
6.71904e-17
0.0201518
4.99711e-19
1.05416e-17
0.0161292
5.92356e-16
0.0398619
2.91227e-18
1.48158e-18
0.0237383
1.56602e-19
0.0141015
0.000335013
2.99185e-17
0.00112426
0.0150796
2.09236e-15
0.00798009
0.0106728
0.00738942
0.00043505
0.00291637
0.00613832
6.02993e-15
2.19841e-16
0.00136241
1.41725e-17
0.00500621
0.112104
3.60108e-16
4.0123e-18
0.0256129
0.000127438
0.00759423
0.0224351
5.06823e-16
0.0389904
0.019753
5.04725e-17
0.000696845
0.0028183
1.27455e-16
1.0688e-17
0.011817
0.00487765
7.12289e-19
5.55954e-18
1.07186e-08
3.75999e-16
0.0105553
2.57749e-17
4.13049e-17
0.0177297
2.47546e-06
0.0146274
0.0266998
2.32775e-16
8.34049e-15
0.00108192
2.03322e-15
0.000107769
0.0108136
0.121704
0.905601
4.06465e-16
0.00260329
0.000234634
4.0662e-17
0.0350414
0.0330902
2.39378e-17
1.13882e-08
0.0001086
1.56483e-15
0.025702
0.0268942
0.0127224
8.06806e-16
0.000589904
0.0206026
0.021218
6.0829e-07
7.72111e-15
1.00305e-10
5.38494e-19
2.07763e-05
0.0318539
2.93401e-18
0.00957502
6.81022e-05
1.1592e-14
5.0863e-18
8.02997e-15
1.44657e-16
0.00428823
0.00951819
0.00711284
0.00244032
0.00339033
1.87611e-16
0.00228135
1.75065e-16
0.0356616
2.06587e-16
2.09879e-17
4.70899e-18
0.0317991
2.95572e-17
9.40343e-17
3.36939e-07
3.42606e-17
6.91136e-18
0.000875681
9.16412e-19
1.54359e-14
1.39965e-17
1.1579e-16
1.48218e-15
2.79214e-18
1.66045e-16
0.00815373
4.08719e-17
0.000392255
0.00166216
0.0026616
5.66557e-16
0.00062421
1.45422e-17
2.34427e-17
0.00310777
0.00204944
0.0293978
0.0222528
1.98969e-15
0.0018692
0.0726922
0.00841953
0.00110934
0.00365881
4.70387e-16
0.0223957
9.38982e-15
0.00428133
6.80544e-17
0.0691246
2.16464e-15
0.0210561
0.000324019
8.03424e-08
9.60368e-17
0.00233351
3.46353e-16
0.0759167
0.044322
1.13583e-18
1.3616e-17
1.21616e-14
1.01975e-17
1.94149e-10
0.0545865
2.4242e-15
5.03568e-18
0.0028805
2.29487e-16
0.0304277
2.13683e-16
0.000350918
5.84376e-17
0.000586168
7.49072e-07
0.00112093
0.0124515
1.61527e-15
0.000366044
5.70609e-16
1.92211e-17
0.0162803
1.71475e-16
3.572e-05
4.0527e-15
0.00147685
3.22885e-16
0.0661536
1.60279e-17
9.68744e-15
0.0121558
0.00387841
0.00150526
0.004306
0.00590873
0.0208911
3.64986e-17
0.0207409
0.0070824
3.6939e-17
5.70181e-08
0.0314727
0.0125525
1.14024e-16
0.00549912
0.00543755
0.00127785
0.0013938
1.48699e-10
0.0137797
0.000983792
0.000166587
0.0267542
0.0141786
0.00109426
4.17407e-15
2.98291e-09
0.619793
1.63686e-17
0.000418137
2.47318e-18
9.49187e-15
0.00729624
0.00363807
1.2564e-07
8.43069e-06
2.09198e-15
0.0184987
0.00994385
1.45321e-16
9.58316e-12
0.00204469
2.74999e-15
1.65667e-16
1.31219e-16
6.25914e-16
0.01525
5.18012e-18
2.216e-17
0.00987266
0.00233943
4.68888e-14
0.00937676
1.21632e-15
0.00860087
2.82982e-15
1.41421e-17
0.0571344
9.99507e-18
1.14306e-16
7.79295e-16
0.00490346
3.0073e-14
0.0328244
0.00638809
1.18217e-16
0.0726998
0.00283188
0.0261276
0.0235864
0.00092939
9.17672e-05
2.99011e-17
0.0569139
0.0415974
9.54853e-18
0.000308948
0.0361776
0.00708404
0.00155673
0.0244293
0.0237676
1.39784e-16
0.010457
3.67542e-06
2.37831e-15
0.0319975
0.000299322
3.24814e-14
0.010915
0.0388304
0.00158844
0.0185282
0.0168388
0.00706501
1.91453e-15
0.00915576
0.000400142
7.40735e-12
0.0144616
0.0148996
0.0347913
8.43201e-17
0.00211239
9.83256e-18
1.41412e-16
1.46085e-17
1.69356e-15
1.68516e-05
9.49011e-16
1.41616e-10
2.73704e-16
4.97526e-16
5.12114e-05
0.0396508
1.31607e-15
0.0366164
3.8047e-16
1.48986e-17
2.18108e-15
0.0396486
0.000496256
4.71814e-15
1.50523e-17
8.81356e-17
2.04791e-17
0.238804
0.0684516
3.55092e-15
0.00176977
4.67837e-06
1.82187e-18
0.0349033
0.00649437
0.0129323
9.76463e-17
2.41229e-16
0.000392455
0.00106956
9.28804e-15
4.76635e-18
4.45714e-15
0.00706759
4.79377e-17
2.60251e-16
1.85516e-16
0.0385036
0.00161379
1.24445e-16
4.12142
0.142706
0.0108999
2.57352e-19
3.74931e-15
0.0567672
0.000304478
1.38667e-15
7.59124e-06
0.170145
0.00291177
0.0119096
2.51913e-15
0.057809
0.00152216
4.64501e-19
4.36567e-15
4.20166e-18
2.65859e-17
1.06502e-17
4.20354e-16
0.0193334
1.45912e-16
1.50265e-16
5.37953e-16
0.0119185
0.0234272
2.19144e-15
1.36107e-15
0.105672
0.0133254
0.00877482
5.833e-16
3.01285e-17
0.0345854
6.59506e-18
0.00227556
0.00240227
0.00353719
2.61543e-15
1.27581e-16
9.1709e-17
2.95567e-17
0.0158608
7.60705e-17
3.78027e-16
0.000817071
7.00469e-16
0.0211477
0.00140619
1.47686e-15
0.0358223
0.601641
0.00232373
0.0294247
0.000200133
0.0480044
2.32239e-10
4.15981e-15
0.0218644
0.0766212
0.00620407
3.88691e-15
1.33053e-09
0.517783
0.00988978
1.78097e-17
0.00291345
0.0031357
0.00143385
2.01776e-14
1.66477e-16
3.95017e-18
0.0126389
3.79386e-15
0.00232807
2.55528e-16
0.00145585
0.0012759
0.0343213
0.000534945
1.8053e-16
2.26023e-16
1.13311e-16
0.0197166
2.00712e-16
1.7075e-15
4.30223e-05
5.12065e-18
2.01734e-18
1.26672e-17
4.06786e-17
0.00897239
5.07724e-15
3.94654e-17
7.35898e-10
1.44171e-15
2.19132e-18
3.17527e-14
1.4784e-16
3.26225e-06
0.00151559
3.74427e-16
0.00333254
1.22938e-05
2.79024e-07
8.54954e-05
0.0043906
2.43053e-17
1.00322e-05
0.00930002
0.000372186
9.50441e-18
1.10692e-08
0.000752833
3.55012e-15
0.00888193
0.000299916
2.01308e-06
0.0253211
0.00866891
0.00215969
0.00553531
0.00197584
3.27241e-17
2.23973e-15
0.0301304
0.0243802
4.93463e-18
0.00776154
0.0536806
0.0277326
6.60542e-15
0.00166314
1.90209e-17
0.0102771
0.0134797
1.0094e-15
0.00144213
0.000475673
1.50188e-06
0.00451105
6.50661e-16
0.0471633
1.93557e-05
0.0018605
4.02335e-05
1.37763e-05
3.729e-17
3.60109e-18
0.00833415
5.68672e-17
8.97315e-05
0.000328871
1.08002e-05
6.45989e-08
6.14463e-08
1.23247e-06
4.17463e-17
7.82223e-15
0.0216299
3.0005e-17
0.00115777
0.00235028
4.53384e-16
1.26816e-15
6.39145e-07
1.47835e-10
3.64605e-17
3.33247e-06
7.27315e-17
3.74749e-17
6.7993e-18
1.07897e-16
9.18215e-16
5.69161e-17
0.000330672
4.10404e-15
1.71464e-17
3.29541e-17
4.72665e-06
7.05125e-05
0.0020421
0.00916271
2.33199e-16
6.63843e-16
0.00023266
2.53891e-16
8.91154e-16
8.9375e-14
0.0194535
0.0407362
7.04839e-16
4.17583e-16
1.61749e-15
1.76541e-15
7.0741e-19
6.3724e-16
0.00845561
4.44937e-16
7.90706e-08
0.0269285
2.12395e-17
1.46439e-16
3.54904e-15
1.52229e-05
4.36203e-15
3.98128e-17
2.43535e-17
5.9103e-06
4.00527e-18
0.00530412
1.06918e-06
4.36609e-09
3.69768e-17
4.69317e-05
0.00260425
0.0434749
2.96809e-15
5.50238e-06
0.00722135
8.95098e-16
2.98852e-16
1.51586e-13
4.40276e-17
0.00787431
0.00174849
0.00396475
1.59692e-07
1.71007e-17
0.0222877
1.48426e-15
6.5109e-15
1.31831e-13
2.53687e-18
0.0252922
1.6096e-16
5.67608e-15
2.63534e-06
0.0487875
2.64541e-15
0.00300252
8.90067e-16
0.00112381
2.23736e-15
5.32309e-17
3.83434e-17
5.17019e-16
0.00264487
0.000683216
0.338936
8.74124e-17
1.89195e-15
0.00205048
3.07962e-17
3.44723e-15
1.08055e-16
0.0422371
5.61095e-06
0.0286842
2.06393e-15
6.47896e-06
2.96176e-05
3.34116e-14
6.92581e-05
4.63797e-16
0.00182462
0.0276363
0.0200053
0.00164433
0.000326618
2.45259e-16
2.85629e-18
1.64763e-17
1.39892e-05
2.28263e-18
0.00543779
7.41648e-19
0.175867
7.69406e-17
0.0416817
0.00354238
6.65196e-15
7.38447e-17
2.61023e-14
8.44113e-19
0.031353
6.83981e-15
1.28816e-13
0.0129905
0.00536465
4.98885e-15
2.13211e-14
6.51914e-15
5.13156e-16
1.07915e-14
8.30327e-18
0.0203999
0.00052002
2.80119e-16
6.35095e-17
2.77342e-07
2.75126e-16
0.00132723
0.000115962
2.93469e-16
0.00271307
1.9895e-16
0.000331686
3.88925e-16
0.000890645
6.53234e-16
1.27488e-07
1.80408e-06
0.000876443
0.0143995
0.0274214
1.01192e-06
2.74473e-17
0.000448867
2.02184e-16
0.00436874
4.19073e-16
9.43004e-18
1.28323e-13
6.39877e-17
3.63717e-17
5.88655e-18
0.00569752
0.00627849
6.28501e-17
1.42405e-13
4.2638e-15
0.000536055
1.76294e-05
3.22985e-17
0.0184329
0.000213171
5.41427e-15
0.022485
0.00812177
0.00332196
0.0134652
7.43279e-17
1.32792e-16
8.27687e-18
2.62677e-16
0.0362685
2.14478e-17
0.103835
1.82621e-17
0.000216921
0.000728996
1.67837e-17
0.000670434
3.00411e-18
2.52731e-16
0.00226975
2.58558e-08
0.00590188
1.13038e-16
5.03548e-15
4.21309e-16
0.000694595
1.78663e-15
1.65322e-18
2.07106e-16
5.1055e-07
5.08599e-15
1.19227e-05
4.2291e-15
5.63496e-15
3.40347e-16
0.0178231
0.00958989
0.0176854
0.0342853
1.80453e-17
9.67085e-06
4.6003e-17
2.30365e-18
0.0107387
4.79299e-17
3.1193e-06
0.000255344
0.00628924
0.000240318
9.98573e-11
0.00242451
3.75767e-18
1.68381e-10
9.94431e-10
9.33394e-05
0.00123494
0.0134852
6.58527e-08
7.82834e-16
0.0311773
2.11258e-16
2.45333e-16
2.96454e-05
0.074548
1.01435e-07
5.78184e-17
9.90382e-17
6.03261e-07
1.00861e-15
2.38565e-15
1.01724e-05
3.86401e-15
8.06079e-16
0.0419668
0.000141611
0.000105892
0.0234417
0.00717192
1.88588e-15
1.24388e-16
3.69256e-06
0.00419917
3.1117e-17
2.66566e-15
0.0112368
1.26449e-16
2.19339e-13
4.27669e-15
9.7998e-16
5.27136e-13
2.52175
3.42435e-17
0.000184225
7.50608e-17
0.0153363
4.90497e-16
3.14331e-12
2.39292e-15
2.41027e-15
1.42555e-17
8.88661e-16
0.00336507
1.03668e-17
5.13244e-16
5.99092e-15
1.59385e-16
7.55761e-18
1.41922e-16
0.00996386
3.5069e-16
0.0110324
0.00233891
1.04774e-15
0.00172565
1.01341e-15
0.000399107
1.50101e-06
0.0040685
0.0141736
2.22909e-16
8.955e-05
0.0093396
4.48786e-06
1.68053e-18
1.07343e-06
0.016969
0.00476106
1.00485e-15
0.0267143
2.57371e-17
7.88251e-18
2.72276e-15
2.55011e-16
0.00827258
8.75097e-17
5.17673e-16
0.00805382
1.09383e-07
0.00278524
4.67138e-18
8.22361e-14
0.000675757
4.38976e-18
0.000147208
1.81327e-15
0.0217453
4.06033e-16
2.53629e-16
5.53733e-05
3.10404e-16
0.000101604
9.67487e-17
8.12705e-17
0.0053473
0.000391651
0.00489007
0.0174782
0.21749
0.0197312
3.90502e-16
9.36025e-15
0.00236956
0.00669207
0.0351967
0.0133372
1.07598e-16
0.0112882
8.20138e-17
7.10763e-16
0.00763304
0.00958497
4.33259e-15
0.0124303
1.37616e-17
0.00284059
0.00827563
1.42914e-15
1.76164e-16
1.08267e-17
0.00232445
1.55972e-16
2.3193e-18
0.0035482
0.0199282
3.99411e-06
0.00767384
7.04933e-16
1.71102e-17
5.48985e-05
0.000656303
5.27795e-16
0.00924486
8.60539e-16
0.00243641
1.29781e-16
5.48782e-16
0.0111219
3.26776e-17
4.50535e-05
0.00296553
3.66139e-16
1.29622e-16
0.00364968
2.43147e-11
0.0539494
6.90898e-17
0.285297
2.36352e-17
3.12357e-14
9.03181e-15
0.00642404
1.65997e-14
3.44917e-15
0.00501237
4.42039e-15
0.000161746
9.64844e-15
1.49985e-15
4.56332e-16
1.57308e-07
0.000775758
3.86845e-17
8.07591e-17
0.0359841
0.000942839
1.42874e-15
0.000596024
7.93262e-16
2.49826e-16
1.20407e-06
0.00369006
0.00117276
1.59896e-15
2.34032e-17
1.69341e-17
4.92259e-17
2.28693e-15
8.49732e-15
1.42434e-18
2.36991e-16
3.34362e-16
9.29428e-16
5.25291e-17
5.81242e-17
1.68814e-16
7.51157e-16
2.37872e-17
3.39014e-15
1.7261e-16
3.07541e-16
1.71116e-16
5.23909e-17
1.15961e-18
0.0183579
2.63803e-16
4.03714e-16
3.87492e-18
0.00619151
2.11363e-18
1.28085e-16
0.194655
2.17377e-16
3.29268e-16
0.0219014
3.43896e-12
1.02622e-15
0.00437506
0.0232729
6.54164e-17
0.0012749
0.00216501
2.66092e-15
0.0111015
0.0373673
0.0165153
0.00287697
0.00975591
2.12073e-16
1.60883e-16
0.00275294
0.0101756
0.00268584
2.68236e-16
0.00559443
0.00135239
0.0186443
0.0107004
0.000640935
0.0135965
0.00106994
0.00843903
7.88836e-18
0.02658
0.00756258
0.00181916
0.00117534
7.66828e-17
5.41727e-17
5.32554e-18
5.66823e-18
1.958e-17
0.00874066
0.0122027
2.29184e-17
1.05507e-16
1.011e-14
7.34486e-16
8.37464e-16
6.58976e-16
1.26806e-15
4.56798e-16
0.0041053
8.6472e-05
0.0194793
4.89366e-05
1.61294e-17
7.18861e-15
0.0331243
2.82809e-06
5.01787e-16
2.84707e-16
0.00700713
9.19063e-18
3.30344e-17
3.60427e-06
0.00701771
0.0122267
0.0293569
0.0270138
8.65372e-16
0.0139853
0.000261038
8.31727e-15
1.06625e-15
0.0102047
1.66593e-16
1.10703e-15
0.027695
0.994033
0.000149474
2.58443e-14
1.01274e-18
0.0162697
0.0222146
0.0162148
0.0057677
0.00198823
6.52137e-17
6.81437e-07
2.28339e-09
4.60193e-18
1.55734e-16
0.0169728
3.14229e-16
0.00193959
0.0258581
0.0155141
0.0119777
5.11677e-18
0.00523137
5.57298e-18
8.16322e-16
1.46733e-17
1.86355e-16
0.00250946
0.710045
2.11008e-16
1.29434e-16
4.12706e-06
0.02248
0.000465224
0.00616968
0.0312106
0.00456482
0.0197172
4.01456e-15
1.78041e-15
7.07116e-15
0.0306407
0.00510917
2.70517e-08
1.1677e-15
2.48305e-16
2.20354e-13
0.0186956
0.00268871
2.62921e-17
0.00431969
0.0450296
0.00817556
0.00544105
6.90318e-16
5.31386e-14
0.00613126
0.0214998
3.52425e-18
0.000238126
0.0120325
0.000856934
0.00885091
0.00411552
0.00747789
2.20314e-14
0.00346462
0.0186897
0.0364825
1.26914e-09
0.0230098
1.65809e-14
0.0159177
0.000146858
4.96623e-19
0.00249529
0.00634987
0.000312703
0.0106786
2.17705e-07
0.000191859
1.72709e-05
0.024594
0.00311759
1.71616e-14
0.0377518
0.00105696
3.35736e-16
2.70287e-17
2.55695e-08
5.017e-06
0.000898078
1.01329
0.0325035
0.00777232
2.56835e-07
0.0371003
2.24593e-15
2.00168e-16
0.00383346
4.15685e-15
0.0023052
0.00615321
0.00180717
0.00445517
1.48702e-16
0.000238506
0.102143
5.513e-17
0.059624
0.00653072
1.00405e-16
0.00341932
0.000180793
1.493e-18
2.10812e-09
9.4824e-05
2.08877e-16
9.15906e-17
1.6159e-17
0.00427498
0.00450521
0.0132464
4.09728e-17
0.00560707
0.0296814
7.60214e-17
0.0070188
0.010869
0.024073
0.00130391
6.87146e-16
0.000617482
0.00894407
0.0091663
0.00780303
0.0368986
0.14644
0.00324476
7.45985e-17
5.94e-06
0.0502817
2.04913e-16
0.00037486
3.69081e-18
3.81817e-17
1.34306e-17
6.8043e-19
5.10756e-17
0.00265768
1.96989e-18
0.00612574
0.00144119
1.51774e-18
0.00408275
1.87591e-15
0.0139168
1.32921e-15
6.91576e-06
9.27899e-16
0.020638
0.000111197
1.26946e-06
0.00357302
0.0277646
0.0165589
0.00363896
0.0239597
1.86707e-12
0.0196848
0.0497301
0.00819804
1.4691e-17
0.0011891
0.000357778
0.00479144
0.0112995
0.000757512
8.93708e-18
2.92176e-15
1.34085e-16
0.00404622
5.64797e-18
4.74562e-05
0.00022791
0.000532042
0.000271437
4.28742e-16
3.63285e-17
1.73647e-16
0.00737564
0.0199811
0.00127557
7.32923e-06
0.00185302
0.00613209
0.00196778
0.000720146
0.00628253
0.0053024
0.0023181
1.89582e-15
7.52604e-18
2.68132e-18
0.0138057
0.0102456
2.88552e-15
2.20063e-16
8.92531e-14
0.00707742
0.0185982
8.55925e-17
0.00189066
1.1214e-16
3.78545e-07
0.00524984
0.0740589
5.12271e-17
4.61393e-18
0.00342082
3.42221e-17
8.48109e-05
0.0109737
3.53583e-16
0.00938797
0.0313145
0.0160293
7.87136e-17
0.000660358
4.20275e-16
5.69462e-05
0.0454323
3.24955e-16
3.12675e-17
0.0107274
3.924e-13
9.62409e-17
3.51328e-05
0.00107363
4.89359e-16
2.1225e-16
1.91267e-14
4.65868e-05
0.00125232
0.00305331
0.0201819
0.00945444
2.02934e-16
3.26314e-07
0.000421802
1.58411e-17
1.05709e-17
5.70754e-17
3.41202e-16
1.77443e-15
5.04381e-16
1.92028e-15
6.25001e-17
6.9214e-15
9.90557e-16
1.38607e-09
4.66835e-15
0.000410205
3.74971e-15
8.6537e-05
1.27657e-13
6.33606e-05
1.15917e-13
5.00592e-17
0.0219885
0.00804391
1.07822e-16
0.0867174
1.51761e-09
3.27474e-11
4.24987e-16
0.0010452
1.70893e-13
0.00218801
4.75952e-06
0.000973028
1.91632e-16
2.45197e-16
0.000633303
5.84197e-08
1.92258e-16
1.20282e-17
0.0368911
4.02741e-15
0.0339072
1.3104e-15
1.66838e-18
1.10728e-06
0.0266715
0.00844287
5.37886e-17
0.000398521
2.35345e-15
0.00103
1.22254e-05
0.0018667
0.000644987
7.23776e-19
0.0190173
0.000758603
0.00481131
1.54361e-16
1.25146e-16
4.74001e-16
0.00523959
0.00398575
0.0440528
7.53511e-18
2.34432e-07
1.14002e-16
3.79877e-17
2.00706e-15
1.12669e-16
0.00237739
0.00156319
0.00236638
0.279313
5.20063e-18
0.0286957
0.0329595
0.0174905
0.00122334
6.23643e-18
0.00544377
0.00326277
0.00476906
8.42618e-07
0.00960798
1.94606e-15
0.00172271
0.000889863
0.0303797
8.02729e-07
0.00241379
3.79793e-16
0.0166125
1.15389e-16
1.19314e-16
0.00142548
3.60646e-18
0.00695361
5.07786e-18
3.29948e-15
1.75566e-15
4.03136e-16
2.24026e-18
0.000590526
1.04328e-15
0.000599087
6.40241e-16
6.80617e-18
0.0187885
0.00592967
0.00717583
0.00808075
6.38776e-18
0.555306
8.47372e-18
0.0666704
2.55834e-15
0.0185505
0.018052
0.0018325
0.0533783
1.95173e-14
5.24126e-15
6.77296e-16
0.00205773
2.45441e-17
6.72724e-17
0.0167615
8.06598e-16
1.28244e-16
0.00404009
6.8317e-15
0.0125734
1.11261e-07
1.89887e-15
6.11441e-15
7.59978e-15
0.00143038
0.00574715
1.00489e-16
0.0207037
0.000242435
2.51222e-15
0.0942124
9.1821e-17
0.0153831
0.0170151
0.00295857
2.69177e-16
0.0154888
0.00824545
0.000599097
0.00410414
0.0111089
4.43933e-16
2.89758e-16
1.49487e-06
1.95414e-17
1.90274e-16
2.52517e-17
0.0182906
0.0359191
0.00400633
0.00175236
7.42425e-15
0.0416434
0.043003
0.00365592
0.00300016
0.00796295
0.0200855
0.00204068
1.12461e-16
1.54009e-16
1.83203e-17
0.00504903
2.35302e-17
0.0241665
1.47045e-15
0.000631406
2.92897e-07
0.00238511
0.020871
3.59848e-17
1.87328e-17
0.00198064
0.000278921
7.60273e-17
9.5024e-16
2.33356e-18
2.69423e-05
0.000257404
0.000105815
0.00063464
0.00876449
0.0836605
4.08771e-15
3.00477e-16
7.99434e-16
0.00354827
0.0188317
0.0186779
0.0310328
0.00191444
0.00211203
6.02582e-16
1.70384e-16
3.77955e-13
9.17095e-16
0.00934812
0.0190705
1.71652e-16
7.69664e-16
1.78002e-16
4.48971e-17
2.17093e-18
6.94779e-16
0.0109361
3.6397e-15
0.00108484
0.291414
1.19021e-15
1.55247e-05
0.0208903
0.000616511
2.85638e-17
4.92073e-15
0.00368022
1.52982e-16
0.0116014
1.46059e-06
0.0218163
1.96812e-14
1.66968e-12
3.08118e-16
8.52732e-17
6.99074e-17
4.9833e-16
0.173885
4.78805e-16
0.0044095
0.0010587
5.44819e-16
1.4297e-16
0.00146157
8.70639e-17
1.4723e-16
0.014196
5.04673e-05
5.37243e-16
3.92073e-16
8.69665e-16
0.0148022
6.14559e-17
3.75028e-17
0.000242087
0.00196892
0.002247
6.68876e-16
1.15261e-16
2.75753e-15
0.00295327
0.00140629
0.010369
0.00295232
1.56795e-16
0.000684304
0.0123612
0.00582284
1.43346e-18
1.69807e-17
7.45106e-17
1.71118e-17
1.34658e-16
0.0282091
0.00717014
0.00426362
9.81789e-18
6.79547e-17
5.42099e-18
7.53188e-18
1.0536e-15
6.33516e-07
0.000291173
0.00230029
1.316e-15
7.59397e-17
2.44453e-17
3.83112e-09
0.0275271
0.0947243
3.99606e-17
5.47211e-11
5.01121e-13
6.9181e-16
5.7669e-17
0.00326757
0.00676559
6.50948e-16
2.59579e-15
0.00243568
2.13714e-16
0.000679567
0.001151
2.00837
1.21412e-16
1.0004e-15
0.0119842
0.000361339
8.3287e-16
0.634908
0.000509907
0.00672751
9.757e-16
1.80534e-16
2.31055e-17
2.38954e-16
0.00695927
9.03114e-05
4.78155e-16
0.0217432
0.0159716
0.838328
1.31725e-16
1.47824e-17
4.00446e-16
3.77556e-16
0.00536444
2.81734e-08
7.30864e-16
5.36348e-15
0.0167521
0.00105486
0.00481359
2.0693e-16
2.12623e-18
0.0256046
3.4684e-15
3.26665e-16
3.19851e-16
2.84907e-16
0.0227234
4.19958e-16
4.90387e-16
1.47268e-15
0.0228846
0.0126228
1.18218e-17
2.83775e-17
3.78109e-16
0.0133884
7.42392e-08
2.08923e-15
1.62253e-16
1.13949e-17
7.27377e-18
0.00217005
0.00864441
3.41015e-18
0.00205615
0.000864661
0.00392884
2.20395e-17
3.41851e-17
1.02642e-15
3.90201e-18
6.54692e-17
0.021401
3.57383e-15
0.0155212
5.00267e-16
0.00115232
3.4533e-14
0.0017
3.19366e-16
1.8645e-17
0.0101802
0.261398
8.37364e-15
0.00259242
1.29614e-16
0.000285539
4.10044e-15
1.29731e-15
2.10551e-15
1.66503e-07
6.50349e-16
0.000358619
1.17917e-16
0.033511
7.58558e-17
1.51697e-15
1.08536e-17
1.60453e-17
7.12284e-06
0.000111004
4.75635e-17
0.00376463
3.30379e-19
0.00351779
0.0195731
0.000889342
2.99801e-18
2.97758e-06
0.000305598
1.37635e-06
0.0049073
4.96516e-07
0.00119405
1.47335e-14
4.47847e-17
3.26582e-07
0.00471546
0.000168933
7.48708e-16
9.01253e-16
1.37374e-15
0.431119
4.38517e-18
1.44074e-15
4.3865e-17
2.3046e-18
5.81487e-18
8.54215e-05
0.000121655
0.000753928
5.21536e-05
6.58323e-13
0.000912918
5.23523e-18
0.00632627
8.74306e-16
2.06279e-18
2.96907e-16
1.236e-15
2.40197e-05
8.82204e-16
6.55629e-18
2.10877e-16
0.0145131
2.68282e-15
2.85977e-17
0.0106307
6.34091e-15
0.036464
0.0655504
0.384899
2.93177e-16
0.20465
1.27487
1.80525
0.668691
1.37673e-15
1.45036e-16
0.00473393
0.00523692
4.81038e-16
0.00294359
2.54024e-16
0.0310612
3.98679e-16
4.44963e-16
0.000470651
3.93669e-16
4.38071e-17
6.79425e-06
2.79375e-05
1.91837e-18
6.10187e-17
1.33851e-06
9.92631e-15
3.2723e-16
2.01668e-05
0.00737974
0.00113076
1.57871e-15
0.00605493
2.30832e-17
0.00337748
3.85506e-07
0.00511604
1.19373e-17
1.13473e-09
0.0046567
4.96281e-15
2.20735e-10
3.14359e-16
0.0317499
7.85041e-15
0.0101889
8.93169e-16
9.56003e-08
4.94207e-16
3.65574e-15
5.61501e-18
7.0304e-11
8.00581e-10
2.9891e-17
0.0119442
0.00671564
5.8157e-18
7.43691e-15
0.0327222
0.0177141
0.173783
6.42272e-18
4.72134e-05
0.0240835
0.045575
2.91395e-09
1.44712e-18
0.0647556
4.21131e-16
0.213467
5.61423e-17
1.08797e-08
6.86184e-09
3.35525e-16
3.73994e-05
4.69719e-15
0.0198628
3.89849e-16
1.75236e-16
8.0711e-16
3.87732e-16
1.7311e-16
2.17335e-16
0.000365894
0.00147675
0.137677
3.39482e-15
1.71311e-14
0.0407785
1.13651e-16
3.54137e-18
1.35689e-15
9.32012e-18
1.55963e-15
0.00497321
8.65907e-16
8.95572e-18
1.21554e-17
0.00278169
1.91296e-16
9.34611e-17
2.83429e-16
0.00270424
7.31434e-18
0.00513083
0.195981
0.0038062
0.00448791
0.0226638
2.93841e-15
2.52972e-15
1.56618e-16
0.0025545
0.00167116
8.92903e-17
2.53393e-14
0.000484348
1.62899e-16
3.87043e-17
0.311801
3.67955e-16
0.0215631
5.56535e-16
0.0020585
0.00365625
3.40575e-15
3.17857e-16
2.10784e-15
9.45645e-18
2.17841e-16
0.020024
4.01244e-15
0.00382286
4.28303e-16
5.15843e-16
0.00568775
1.35301e-17
0.0137767
3.98131e-15
5.97668e-17
0.0022039
7.76992e-05
0.123557
1.07607e-16
1.07215e-17
9.24781e-16
0.0035741
0.170958
1.23726e-15
3.71605e-17
9.90252e-16
0.00124847
7.64882e-17
0.0212795
0.0233537
9.51846e-16
2.29573e-16
0.00583108
5.09253e-17
3.92228e-15
2.61326e-18
1.00904e-14
9.11962e-17
0.0601948
8.89233e-14
7.17737e-16
5.54554e-18
9.2185e-14
1.7053e-15
2.08046e-14
3.06514e-16
1.57135e-15
8.91327e-15
0.00753355
1.05833e-15
0.00674781
6.5994e-15
5.4867e-17
0.542199
0.00216193
1.80609e-15
4.26444e-15
4.20284e-16
0.00193503
2.35007e-15
5.53629e-17
1.57753e-15
1.64815e-15
0.00573737
2.08064e-16
0.00291776
6.0522e-19
0.0100159
1.35808e-16
0.0551076
6.28894e-15
4.50136e-17
0.0170836
2.01022e-15
2.82338e-16
0.0259855
0.000268776
5.42963e-18
5.78913e-19
0.0385753
0.0118472
0.00526929
0.000650773
0.00145236
0.0156335
0.000769749
0.0054362
1.67655e-15
0.0199356
1.45143e-14
2.49328e-15
9.05272e-18
4.2343e-15
7.72011e-16
0.00827566
6.11207e-17
3.53426e-18
7.73547e-18
5.1379e-07
1.4195e-05
7.12644e-15
0.00280723
5.72134e-17
0.00408387
1.14666e-15
7.00408e-07
0.00310686
2.00374e-13
0.0398881
5.51719e-16
1.94853e-15
2.04892e-16
0.00236045
0.00142173
9.66931e-17
8.32747e-17
0.00201651
2.38097e-18
0.622377
1.25821e-16
0.0801115
3.82428e-17
3.67001e-17
7.09762e-19
2.01773e-16
0.00835665
1.02077e-15
6.07112e-05
2.99732e-17
0.00933099
5.07186e-16
4.93401e-17
6.89162e-12
4.10494e-13
6.84583e-16
2.93623e-16
7.02254e-16
1.54504e-18
0.00435477
0.227616
2.12955e-14
9.36898e-17
0.00039564
1.71436e-16
4.90229e-17
1.84328e-06
0.0165661
0.000170196
8.14382e-16
0.000546361
0.00367773
0.00442553
0.00842297
2.04887e-17
2.04709e-18
2.3044e-18
1.97716e-17
2.16055e-16
2.25378e-16
3.29434e-16
9.43797e-16
5.19742e-17
3.90209e-17
4.09974e-16
3.75164e-17
0.0706596
5.14864e-17
3.32918e-18
3.90975e-09
2.14965e-17
2.63767e-17
1.05467
4.0812e-16
4.53189e-17
0.00139568
2.36788e-10
1.53404e-15
7.76281e-17
1.53619e-17
0.0207139
4.27909e-18
2.90669e-16
3.47143e-08
1.99614e-17
8.36908e-16
5.44462e-17
1.44026e-17
0.101231
4.57873e-17
0.000248794
5.82394e-18
5.97152e-17
1.08773e-16
1.45048e-16
2.19137e-16
4.34094e-08
6.51511e-08
0.000126736
1.11284e-19
6.05413e-16
5.60754e-17
1.1392e-07
1.65965e-16
2.44037e-07
3.15166e-08
1.31578e-16
2.83913e-15
7.09213e-15
1.30094e-08
9.34585e-16
8.72703e-16
1.18026e-09
9.3289e-15
0.0302476
1.44134e-17
0.00546199
7.71167e-15
1.74929e-06
3.60521e-16
0.00156203
5.02904e-17
0.00448577
0.0193252
7.65797e-17
0.00264337
8.97027e-06
1.97853e-16
0.00820078
6.89374e-16
4.74113e-16
9.72831e-16
2.54053e-16
4.69625e-15
1.37953e-16
1.10505e-15
1.59117e-17
0.239266
7.72404e-16
4.50661e-16
2.51621e-17
5.02014e-17
4.52336e-16
0.0293135
0.779302
1.94639e-06
1.66257e-05
4.85375e-16
0.00156563
0.00104555
4.68042e-16
5.44579e-16
4.54878e-17
3.36641e-16
2.02671e-15
8.9898e-16
5.84706e-15
6.93619e-16
0.000412161
2.85483e-16
3.5239e-18
9.51149e-05
1.53644e-06
1.6496e-15
0.0263792
3.26049e-15
2.42639e-15
7.64145e-17
0.165358
1.25319e-17
6.5995e-17
0.0215553
5.72282e-17
1.26667e-17
1.938e-15
5.50468e-18
0.0481835
2.41303e-16
5.6777e-17
2.63014e-16
2.74359e-16
0.00645672
0.230682
0.0268692
0.0452041
0.00265905
0.000153706
2.3215e-18
6.32831e-16
0.105808
0.0015684
1.65173e-15
4.66804e-08
3.38134e-17
1.60213e-09
2.33741e-15
0.210841
2.8183e-16
4.41742e-16
0.000165724
5.93495e-11
9.35026e-16
0.011645
1.43245e-17
4.47298e-17
0.202186
0.0281294
1.06105e-17
7.50539e-17
4.86961e-16
5.24656e-17
2.6484e-16
9.6888e-15
1.21207e-17
2.62047e-17
0.00344045
5.2396e-18
4.06268e-17
4.20629e-16
1.01272e-05
3.98108e-16
1.044e-13
2.54505e-16
2.61865e-16
9.01772e-16
1.75802e-15
0.00241969
1.8837e-16
1.18972e-15
0.00418939
7.58967e-17
0.000415552
0.00509818
5.07885e-16
0.00277012
7.22639e-17
2.3077e-15
1.75406e-17
8.53539e-16
4.25647e-17
1.34382e-17
2.47155e-18
7.29139e-19
0.00183626
2.23772e-16
1.80646e-16
1.16253e-17
1.13011e-15
1.08618e-16
1.74574e-15
0.0402209
8.05607e-17
1.03292e-17
0.324584
8.15073e-18
3.8096e-17
3.07648e-18
0.000956207
1.69477e-16
3.15632e-06
1.53261e-15
5.07151e-05
0.00854647
4.27527e-17
4.4754e-15
0.0375695
9.86484e-15
1.36404e-16
8.77715e-05
3.74355e-07
0.00971025
1.30269e-06
3.80476e-07
7.7557e-08
3.00363e-17
3.21605e-15
0.000741445
0.000217425
0.0206245
0.0106432
3.55255e-05
7.3937e-18
0.00536708
0.0041205
0.0159424
1.50126e-17
0.010802
0.0157516
0.0023958
0.00111741
0.000408911
0.00452117
0.0180417
0.0356774
0.00748355
0.0109581
0.0071674
2.96141e-14
0.0025463
0.00341439
0.000572374
0.00309743
0.013568
0.0121443
0.0204298
9.94295e-15
0.0073302
3.2429e-14
0.00443387
0.00231835