/*--------------------------------*- C++ -*----------------------------------*\
  =========                 |
  \\      /  F ield         | OpenFOAM: The Open Source CFD Toolbox
   \\    /   O peration     | Website:  https://openfoam.org
    \\  /    A nd           | Version:  10
     \\/     M anipulation  |
\*---------------------------------------------------------------------------*/
FoamFile
{
    format      ascii;
    class       surfaceScalarField;
    location    "7.3";
    object      phi;
}
// * * * * * * * * * * * * * * * * * * * * * * * * * * * * * * * * * * * * * //

dimensions      [0 3 -1 0 0 0 0];

internalField   nonuniform List<scalar> 
214403
(
-0.00676878
0.00519056
0.000285977
0.00129225
-0.0033518
-0.0112688
0.000959343
0.0136613
-0.0102883
6.867e-05
-0.000140285
0.0103599
0.00890928
-0.00599046
-0.0149334
0.0120146
0.0123384
-0.0156015
0.00371661
-0.000453515
-0.00540798
0.00563263
-5.47439e-05
-0.000169911
-0.000855977
-0.00162748
-0.00926469
0.0117481
-0.0170822
0.00971924
-0.00256645
0.00992944
-0.0233965
0.0165142
0.0166702
-0.00978779
0.0142638
0.00169376
-0.0159382
-1.93322e-05
0.0050587
-0.0100206
0.00206105
0.00290084
-0.0103874
0.00326865
0.00538212
0.00173666
0.000478559
-0.0114932
0.0138415
-0.00282689
-0.00999277
0.0100597
-6.69674e-05
0.00192743
0.0119841
-0.0153613
0.00144978
-0.0121076
0.0101232
0.00306789
-0.0010835
-0.0121794
0.0118837
0.000295653
0.00394479
-1.09923e-05
-0.00100374
-0.00293006
0.0157553
-0.00942955
-0.0209487
0.014623
-7.6107e-05
-0.00311992
9.14545e-05
0.00310457
0.00643497
-0.0062841
-0.000150872
-0.0124133
-0.00429424
0.0042699
0.0124377
-0.00229595
0.0137019
-0.0110436
-0.00036231
0.00675822
0.000711123
0.0023584
-0.00982774
-0.0102911
-0.00494195
0.0133214
0.00191159
0.00924263
-0.0117073
6.93504e-05
0.00239535
0.00324353
-0.00283922
0.0106235
-0.0110278
0.00767224
0.0100357
-0.0120882
-0.00561979
0.0112292
-0.00704334
-0.000319603
-0.00386622
-0.00589342
0.0060075
-0.000114075
0.00245123
-0.00510217
0.0136029
-0.010952
0.0142013
0.000673036
-0.0024787
-0.0123957
-0.00565311
-0.0058015
0.00594132
0.00551329
-0.00120582
-0.00680172
0.0060254
0.00198215
0.00444681
-0.00308467
-0.00946789
0.00810575
-0.00172128
0.0085866
-0.0031021
-0.00376322
0.0161071
-0.000393619
-0.0157134
-0.00693358
0.0135232
-0.00658963
0.00125277
-0.0148405
0.00859074
0.00499697
0.00246842
-0.000992144
0.00604172
-0.007518
0.00574044
-6.06395e-05
-0.0056798
0.010294
-0.000221451
0.00182525
-0.0118978
-0.0130583
0.00163984
0.0138869
0.000865484
0.000889152
0.0086669
-0.0104215
-0.00413343
-0.0270176
0.0262006
0.00495049
0.00573434
0.00103533
0.00129619
-0.00806585
0.00426186
0.00322337
-0.0104094
0.00292414
0.0134308
0.00804988
-0.0147225
0.00121514
0.0113934
-0.00231457
0.00183012
-0.0068503
-0.0040329
0.00905308
0.00311763
0.00479307
0.00142574
-0.00933644
0.00186214
-0.00139847
-0.0043097
0.00384603
0.00690142
-0.0124922
0.00870838
0.0119634
-0.0112633
-0.00386436
0.0031643
0.0106878
-0.00195623
-0.00864071
0.0117157
-0.000497985
-0.00257697
0.00889866
-0.0113781
0.00013069
0.00234874
-0.00833855
0.000550967
0.0133251
-0.00553748
-0.0154083
-0.014479
0.0121605
0.0177268
-0.00824008
0.00829016
0.00163086
-0.00168094
0.00129976
-0.010532
-0.00861473
-0.00017937
0.00447818
0.00431592
-0.013484
0.00578956
0.00872401
-0.00102953
0.0158187
-0.0127399
0.000812432
-0.00389128
0.000727392
0.000264892
-0.0104236
0.00943127
0.000522372
-0.00286607
0.0141729
-0.0118292
-0.0350095
0.00364373
0.00389365
0.0274721
-0.00322998
0.00951566
-0.00301697
-0.00326871
0.00467585
-0.00246183
-0.00997533
0.00776131
0.00112156
0.00697044
-0.00886115
0.000769149
-0.00017361
0.00854888
0.00297467
-0.0113499
-0.00169641
-0.000269067
-0.00353442
0.00549989
-0.00905312
0.00989538
-0.000376
-0.000466262
0.000317034
-0.00912522
-0.00639514
0.00566438
0.00171938
-0.000988628
-0.017011
-0.00107419
0.00830227
0.00978295
-0.0051504
-0.00219454
0.00438177
0.00296316
0.00756338
-0.0253655
0.00351671
0.0142854
-0.00395618
0.00796202
-0.00434828
0.000342446
0.00568013
-0.00440946
0.000562095
-0.00183276
0.000129281
-0.0106642
0.010535
3.29532e-05
0.00865757
-0.00869052
0.00764112
-0.00149518
0.00101311
-0.00715905
-0.00456873
0.0065186
0.00216044
-0.00411032
-0.00322522
0.0137394
-0.00330217
-0.00721204
0.00648643
-0.0110533
-0.000421627
0.00498845
0.0074191
0.00784767
-0.0152668
0.0109457
-0.0123008
0.00315192
-0.00179686
0.00106358
-0.00197493
0.0142898
-0.0133785
0.000410661
-0.002311
0.0102918
-0.00839146
0.0024415
0.0215362
0.00620523
-0.0301829
-0.0188337
0.0165687
0.0107421
-0.00847716
0.000865249
0.00663458
-0.00892107
0.00142123
0.00877928
0.00976083
-0.00319607
-0.015344
0.0163274
-0.00991861
-0.000326672
-0.00608216
0.000712853
-0.00208958
-0.00656087
0.0079376
-0.00664003
3.78128e-05
0.00660222
0.0099191
0.000342755
0.000683889
0.0123317
0.00103884
-0.018745
0.00537445
-0.00988381
0.00218245
0.00175652
0.00594484
-0.00626577
0.00155367
0.000770423
0.00394168
0.00153782
0.00109965
-0.0130421
0.0104047
-0.00267591
-0.0155732
0.00992883
0.00832031
0.00623749
-0.00737892
-0.00480824
0.00594967
0.010082
-0.000109312
-0.0100819
0.000109245
0.00772657
-0.0109194
-0.00379058
0.00698339
0.0199941
-0.0060498
-0.00311592
-0.0108283
0.0113309
-1.90552e-05
-0.010422
-0.000889847
-0.00570832
0.00672258
0.0140102
-0.0150244
0.0122413
-0.0042996
-0.011772
0.00383033
0.00225452
-0.00329177
0.0143253
-0.013288
-0.0161786
0.0147457
0.0139782
-0.0125453
0.000728626
-0.0125973
0.00486189
0.00700676
0.015765
-0.000835388
-0.00032071
-0.0146089
0.0111075
-0.00216485
0.00214746
-0.0110901
-0.0128813
-0.011714
0.0138642
0.0107311
-0.002443
0.00700731
0.00189941
-0.00646372
-0.00551181
0.00030043
0.010683
-0.00547165
-0.00122856
0.0138417
-0.0128829
0.000269708
-0.0119263
0.0110761
0.0021564
-0.00130619
-0.000400203
-0.00696
0.0166028
0.00220533
-0.00734849
-0.00537016
0.0105133
-0.00583395
7.66597e-05
0.00575729
0.00178856
0.00813316
-0.00752349
-0.00239822
0.0129645
-0.00747526
-0.00198633
-0.00350292
8.95932e-05
-0.00381417
0.00372458
-0.00731129
-0.00197013
0.00274617
0.00653525
0.000752641
0.00414395
-0.00929847
0.00440188
0.0158567
-0.00143169
0.00619749
-0.0206225
0.00113959
-0.00140051
-0.0192344
0.0194954
0.00124095
-0.00550134
-0.00727483
0.0115352
0.000465551
0.010012
-0.000558468
4.02024e-05
-0.00588579
0.00584558
0.0121978
-0.00452414
-0.00546837
-0.00739454
0.00617671
-0.00609347
0.0134605
-0.0112027
-0.001357
-0.000900781
0.00134927
-0.00638089
0.0027898
0.00224182
-0.0109875
-0.00332642
0.00223307
0.0120809
0.00914312
-0.0148572
0.0097886
-0.0040745
-0.000407859
0.0134169
-0.0134349
0.000425903
-4.33108e-05
0.0122194
-0.0121071
-6.89622e-05
-0.0170752
0.0136271
-0.0109384
0.0143865
0.0142456
-0.0137867
-0.000458952
-0.0130523
0.0174819
-0.00319595
-0.00123363
-0.0116631
0.0028044
-0.000878602
0.0097373
-0.01923
0.00148156
0.0123639
0.00538454
0.00341704
-0.0046664
0.00259864
-0.00470572
0.00535039
0.00860738
-0.00925205
-0.0051155
-0.00229575
0.00292744
0.00448382
-0.00692298
0.00453017
-0.00875108
0.0111439
0.00208322
0.000168177
-0.0153037
-0.00681949
0.00680518
1.43132e-05
0.00746146
-0.00717247
-0.000288988
-0.0112651
-0.000736572
-0.00299817
0.00277995
-0.0148277
0.0172685
-0.00522074
0.00667906
0.0114934
-0.0146163
-0.0035562
0.0127596
-0.013859
0.000372393
0.000727031
0.00679823
0.00176675
-0.00702686
-0.00153812
-0.0107421
-0.000597176
0.0141192
0.00617868
-0.000446708
-0.00753209
0.00180011
0.00696222
-0.0059614
0.00686715
-0.00786797
-0.012149
0.00228178
0.0165463
-0.00410312
-0.00575746
0.0190095
-0.00914891
-0.00585861
-0.00645202
0.00156852
0.00174769
0.00463128
-0.0122376
-0.00828425
-0.000730201
0.0133118
-0.00429731
0.00129174
0.00203794
0.0074034
-0.0107331
-0.00394685
0.00966142
-0.00571457
0.00313156
-0.0149975
0.0054139
0.00893533
0.00624118
-0.0134288
-0.0126378
0.000152104
0.015748
-0.00326235
0.00213511
0.00182929
0.0057175
-0.0096819
0.00849412
-0.00856009
6.59729e-05
0.00319912
-0.00120788
0.0107391
-0.0127303
0.0112516
-0.00356726
0.00541026
-0.0130946
0.0206819
-0.00664977
0.0154328
-0.029465
0.00338402
0.00629663
-0.00261544
-0.00706521
-0.00935038
0.00384748
0.00490293
0.000599972
0.0067008
-0.00504796
-0.000137484
-0.00151536
-0.00434902
-0.00551471
0.0160591
-0.00619533
-0.00750721
0.00974355
0.00388727
-0.00612361
0.0113013
-0.000618034
-0.00372103
-0.0175734
0.0116143
-0.000963871
-0.0167584
0.0154612
0.00718036
-0.00588322
0.01069
-0.0120471
-0.00173819
0.00309535
0.00603374
-0.0109022
-0.00570996
-0.00621936
-0.0057069
0.00322508
0.00870118
-0.00887827
0.00275649
0.00876325
-0.00264147
0.0102587
-0.00975975
-0.00671985
0.00622085
6.4449e-05
-8.92372e-05
-0.00962079
0.00964558
0.000232085
-0.00845111
-0.000320994
0.00854002
-0.00243337
-0.0144242
0.00226555
-0.00833862
0.00750072
-0.00142764
-0.00567771
-0.00239211
-0.000808456
-0.000192433
0.0142543
0.000201977
-0.0340244
0.0239346
0.0172974
-0.00720769
-0.0100543
0.000683935
0.00036492
0.00900546
-0.0020018
0.0318604
-0.0374867
0.00762812
0.0015889
0.00245099
-0.00549986
0.00145997
-0.0215236
0.0115979
0.00149914
0.0084266
-0.000254869
-0.0142924
-0.00203349
0.0165808
-0.00595814
0.0215478
-0.0149087
-0.000680881
0.00966611
0.0140533
-0.012989
-0.0107304
-0.0115373
0.0109875
0.013647
-0.0130972
0.0044704
0.00624672
-0.00778076
-0.00293636
0.00445236
-0.00300278
-0.00712728
-0.0229216
-0.000901068
0.0187266
0.00509608
0.00672577
0.00102847
-0.00390676
0.00691481
0.00925691
-0.00854731
-0.0076244
-0.0114428
0.00254901
0.0111633
-0.00226945
0.00136154
0.00359375
0.0125266
-0.0132836
0.0131167
0.00127173
-0.00110482
0.00820773
0.00643874
-0.00580115
-0.000229785
-0.00163217
0.00766311
-0.00878053
-0.00174656
0.00488401
-0.01693
0.00720085
0.00484519
0.000515444
0.00913322
-0.0101345
0.000485815
-0.00351784
0.00068043
-0.00327094
0.00610835
0.0141324
-0.0101012
0.000421124
-0.00800492
-0.00626224
0.0084239
0.00584326
0.0302555
-0.0323661
0.0105718
-0.00846124
-0.00580608
0.00721441
0.00290613
-0.00431447
-0.0132744
0.00576937
0.0115726
-0.00406759
-0.00575557
0.00835489
0.0107459
-0.0133452
0.0161409
-0.0062429
-0.010684
0.000785926
0.000280817
-0.00392427
0.00954657
-0.00590311
-0.00165944
0.00164571
-0.012624
0.0115896
0.00376698
-0.0124068
-0.0029498
0.0145565
-0.0119405
-0.00321319
0.0030599
0.00452528
-0.0107032
0.00311804
-0.00597866
-0.0109644
0.00973846
0.00720464
-0.00182614
-0.00474127
-0.00143751
0.0059469
-0.00635372
0.0136917
-0.0132849
0.00144088
-0.0165834
0.0151425
0.00564368
-0.00738212
0.00479834
0.00306324
0.00176572
0.00251146
-0.00734042
-0.000310875
-0.0138117
0.0141226
-0.00753586
0.00100104
-0.00244528
0.0089801
-0.000903997
0.0104598
-0.00953358
-2.22608e-05
-0.00710343
-0.00375952
0.00410153
0.00676142
-0.00264851
-0.00628106
-0.00583345
-0.0085745
0.00715182
0.00725613
0.000314794
-0.00879676
0.0151684
-0.00623685
-0.000807503
-0.00812404
0.00804523
-0.000768517
-0.00586974
-0.00140698
-0.00128633
0.0113346
-0.0141538
0.00410555
0.00731235
0.0002813
0.00355975
-0.0111534
-0.000269
-0.00601147
0.00290101
0.00337946
-0.00416205
0.00541574
0.0104683
-0.011722
-0.0147377
-0.00381782
-0.00412073
0.0135822
-0.0126006
0.000296512
0.00395056
0.00835353
0.00121249
-0.00446759
-0.00795715
0.0112123
-0.00577828
-0.0112796
0.0028461
0.0142117
-0.00527327
-0.00584775
0.00608486
0.00503616
-0.013641
0.0131301
0.0138555
-0.0133446
-0.00184872
-0.00322696
-0.00971866
0.0147943
-0.0133087
0.00135344
0.0135459
-0.00159067
-0.00231373
0.006211
-0.00389726
-0.00539224
0.00996742
-0.00750372
0.00292855
-0.000233565
0.0179055
-0.0066474
-0.0110245
-0.00640685
-0.00309571
0.0128583
-0.00335577
0.00206828
-0.00542088
0.0123022
-0.00894961
0.000563355
0.00798851
-0.00139953
-3.69214e-05
-0.0131073
0.0130976
4.66047e-05
0.0149438
-0.00264641
-0.0218421
0.00954469
-0.0138007
-0.00135237
0.0172315
-0.00207842
-0.00749015
0.0113161
0.000928992
-0.00475498
0.00667208
-0.00658957
-8.2511e-05
-0.00798011
0.000770105
-0.00688573
0.0140957
-0.0115165
0.0158707
-0.003309
-0.00104525
0.00717741
-0.00301019
-0.00865453
0.00448732
-0.0138702
0.0139943
-0.000124068
0.0114288
-0.0166195
0.00134424
0.00384647
-0.0129488
-0.00354486
0.0221436
-0.00564991
0.00955367
-0.00039819
-0.00200687
-0.00714861
-0.00544696
-0.00923623
0.0206301
-0.000971022
-0.0136306
0.00824786
0.0214514
-0.0239313
-0.00227126
0.00475119
0.00574111
0.00273714
-0.00634314
-0.00601259
0.00626966
-0.000257075
-0.00245138
0.0136964
-0.000869876
-0.0103752
-0.00298304
0.00353835
0.011899
-0.0124543
0.007773
0.0182444
-0.0106744
-0.0153431
0.01334
-0.0160051
0.00508812
-0.00242302
0.0121298
0.00016988
-0.0122996
0.000225126
0.011805
-0.0120302
0.0133087
-0.0161099
0.0142301
0.000144132
-0.000121989
0.0103577
-0.0103799
0.000272845
0.0188673
-0.0188008
-0.000339343
-0.00161234
-0.00476791
-0.00965026
0.0160305
-0.00590371
-0.0035384
0.00118549
0.01117
-0.0194378
0.0070823
-0.00942958
-0.00247257
0.0101099
0.00179221
-0.0111278
0.0122884
-0.0032827
0.00212217
0.0017546
0.00914086
-0.00310966
-0.0077858
-0.00443295
0.00110157
0.00751958
-0.00418821
-1.22145e-05
0.0033984
-0.00426191
0.000875727
-0.00474355
0.0116044
-0.00669004
-0.000170826
0.00346852
-0.0109454
-0.00639327
7.69864e-05
-0.0102066
0.0101296
-0.00378923
-0.00363598
0.00168625
0.00573897
0.00570528
-0.00329138
-0.0024139
0.0142793
-0.0141807
-0.00289302
0.00279444
-0.00129648
-0.00843595
0.00777929
0.00195314
-3.52862e-05
4.78403e-05
0.00765019
-0.00766274
0.00381617
-0.00313644
-0.0121422
0.0114625
0.00880951
-0.000225275
-0.00858424
-0.0128816
-0.00834147
0.0124309
0.00879217
0.00754976
0.0118298
-0.0203506
0.00716851
-0.00257991
0.00403627
-0.00862487
-0.00287091
0.00284795
-0.0157982
0.0158212
0.00447541
-0.00881293
-0.00857622
0.0129137
-0.00090592
-0.00202557
0.00954292
-0.00661144
0.00665517
-0.00817949
0.00296402
-0.0014397
0.00364129
-0.00603576
-0.00583396
0.00822843
-0.0117407
0.0132203
-0.00352172
0.00204219
0.0133614
0.0171794
-0.018919
-0.0116218
-0.010341
0.0102966
4.44907e-05
-0.00115823
0.0122182
-0.0152615
0.00420154
0.000474089
-0.000775419
-0.0117383
0.0120396
0.0115467
0.000484961
-0.0132864
0.00125477
-0.00492585
-0.00832662
0.0104711
0.00278141
-0.0119037
0.0168652
-0.00597151
0.00100999
-0.00490942
-0.00600109
0.00356202
-0.000729968
-0.000124168
-0.00845368
0.00930782
-0.0276163
0.000112286
0.00247735
0.0250267
0.00109274
-0.00702204
-0.00363442
0.00956372
0.0172468
-0.00141752
-0.00558277
-0.0102465
-0.00307181
-0.00663822
0.00128831
0.00842171
0.00484381
-1.86112e-05
-0.0048252
0.00810171
0.00431754
-0.00268757
-0.00973168
0.00627554
-0.00497004
0.0123795
-0.013685
0.000406671
0.0128779
-0.00425584
-0.00902869
0.00312597
0.0044621
0.00965876
-0.00617062
0.000438986
0.00573163
-0.00801453
0.00113498
0.00212623
0.00134444
-0.0110863
0.00761565
-0.0104871
0.0153451
0.00464877
0.0158486
-0.00335544
-0.0171419
-0.0100695
0.00988761
-0.0156481
0.0158299
-0.00151214
-0.00758307
0.00265249
0.00644272
-0.00836289
0.015782
0.00468746
-0.00545684
0.00122155
-0.000452173
-0.00517067
-0.0164902
0.00516196
0.0164989
0.0108345
-0.0108127
-9.80431e-05
7.62894e-05
0.00875935
-0.0102262
0.002181
-0.000714114
0.00224841
0.0087957
-0.015669
0.00462486
3.76006e-05
0.00755772
-0.00759533
0.00489988
-0.0125567
0.00990525
-0.00473643
0.0127173
0.0107119
-0.0186927
0.00361674
-0.00368055
-0.0171195
0.0171833
-0.00515922
0.00854796
-0.0171457
0.013757
-0.0122898
0.00978553
0.0128311
-0.0103268
-0.00770486
0.0105559
-0.00682014
0.00396907
-0.00162207
0.00706722
0.00114984
-0.00659499
0.00358736
-0.00523057
0.00539406
-0.00375085
0.00675782
0.00251449
0.00222279
-0.0114951
0.019255
-0.0130735
-0.000787243
-0.00539427
-9.7989e-06
-0.00933772
0.00934752
0.00584879
-0.00855249
-0.0262257
0.0289294
-0.00117433
-0.012713
-0.00385409
0.0177414
-0.000772848
-0.005853
0.00662585
0.00178196
0.00845092
-0.00133491
-0.00889797
-0.00236133
-0.00852279
0.00687819
0.00400593
0.00658323
-0.00551352
-0.00968444
0.0168033
-0.0130778
0.00369643
0.00391633
-0.00761276
0.0126821
-0.000317169
-0.00152265
-0.0108422
-0.00243483
-0.00414132
0.00657616
0.00453713
0.00301471
0.0253612
-0.0305022
-0.0107749
0.0159159
0.00389712
0.00830265
-0.00635018
-0.00584959
-0.00887981
0.0169898
0.0113
-0.01941
0.010005
0.00347288
-0.00133925
-0.0121386
0.0165641
-0.0110449
0.00712726
-0.0126465
-0.00927367
0.0042403
-0.0116246
0.016658
-0.0151022
0.0270655
-0.0106082
-0.00135507
-0.000399897
-0.00646847
-0.00891522
0.0157836
0.0122621
0.00506591
-0.0143889
-0.00293907
0.00656093
-0.0174909
0.0110404
-0.000110371
-0.0154684
-0.000589383
0.0101213
0.00593644
-0.00310695
0.00802518
0.00349142
-0.00840965
-0.00196688
0.00788846
0.00634616
-0.0122677
-0.0161152
0.00828979
-0.00078494
0.00861033
0.00147821
-0.00439592
0.00873511
-0.0058174
0.00683072
-0.00343614
0.00243814
-0.00583272
0.00661865
0.0012729
0.000651573
-0.00854312
-0.00978895
0.010503
0.00389017
-0.00460421
-0.00231557
0.0123985
0.000251768
-0.0103347
0.0100023
-0.00587255
-0.00387904
-0.000250735
0.00865633
6.70982e-05
-0.00872343
0.00632811
0.00489977
-0.00111114
-0.0101167
0.00295542
0.00779864
0.00667286
-0.0174269
-1.62994e-05
-0.0140177
0.014034
-0.00731939
0.0283117
-0.00412575
-0.0168666
-0.00013332
0.0105496
-0.0104163
-0.000705551
-0.00760455
0.00136576
0.00694433
-0.0137669
0.00701402
0.0053265
0.00142635
0.00280986
0.00233714
-0.0160971
0.0109501
0.00822379
0.0129909
-0.0048552
-0.0163595
0.0123821
-0.00424251
-0.0118518
0.00371223
-0.0154799
0.00882757
0.0235956
-0.0169433
-3.91731e-05
0.00592013
-0.0059204
3.94441e-05
-0.0061252
0.00606142
6.37824e-05
-0.0157434
0.000242235
0.0066214
0.00175859
0.00380183
0.0104068
-0.0159673
0.00821839
-0.00977493
0.00630458
-0.00474803
-0.007852
0.00687677
-0.000260689
0.00123592
-0.00164321
-0.0129363
0.0165578
-0.00197831
-0.00578259
0.0027846
0.00915561
-0.00615761
0.0100351
-0.00386813
0.00148053
-0.00764748
-0.00667185
-0.00116311
0.00781026
2.46949e-05
-0.00114428
-6.11047e-05
0.0108677
-0.00966235
0.00138693
-0.00116588
0.010897
-0.0111181
-0.00980161
0.0137001
-0.0143555
0.0104571
6.64181e-05
-0.0123555
0.012289
-0.00439935
0.000385766
0.0110912
-0.00707764
-0.00844955
0.00987818
-0.0134713
0.0120427
-0.00865933
0.00065631
0.00263286
-0.00400691
0.0108563
0.000603351
-0.00745272
-0.00289325
0.000403663
-0.00490495
-0.0042731
-0.0138809
0.0139441
0.00420988
-0.00618301
-0.000724612
-0.00155339
0.00846101
-0.0211901
0.00716204
0.00208886
0.0119392
-0.00670979
0.0153655
-0.00763617
-0.0010195
0.00468268
0.00183755
-0.00941348
0.00923272
0.00941478
-0.0186475
0.00124824
0.0202266
-0.00467955
-0.0167953
-0.000257031
-0.000358976
-0.00892219
0.00953819
-0.0097194
0.0160111
-0.00645413
0.000162412
0.00922653
-0.00582663
-0.00836224
0.00496234
0.00230017
-0.000308453
0.00281563
0.0141753
0.00396217
-0.0205078
0.00237033
-0.00981981
-0.00128116
0.00322033
0.00788063
0.00372022
-0.00412776
-0.00559355
0.0170848
-0.0114924
0.0089298
-0.0145221
-0.00188982
0.0110303
-0.0190772
0.00993671
0.00662844
-0.00837708
-0.000848853
0.00259749
-0.00733459
-0.002553
-0.000247861
0.0101355
-0.00546644
-0.00516906
0.0106355
0.00137331
-0.0146673
0.0130081
0.000285875
0.00562559
-0.00542479
-0.00566724
-0.0091709
0.01164
-0.00221973
-0.000249412
0.0131286
0.00361155
-0.0141438
-0.00259634
-0.00507572
-0.00742171
-0.000852172
0.0133496
0.00832341
-0.00253249
0.00965172
-0.0154426
-0.00928005
-0.000521558
-0.0111198
0.0059507
0.0014325
-0.0124638
0.00398798
0.0070433
0.00362019
-0.0129635
0.00714029
0.00220302
0.00193708
0.000509276
-0.00971989
0.00727353
0.00148909
0.00636628
-0.000429542
0.0109172
-0.00215722
-0.00833046
-0.00428323
-0.000438811
-0.00400544
0.00872748
-0.00253446
-0.00341399
0.00652756
-0.00057912
-0.0101472
-0.000143902
-0.0171614
0.00616147
0.00903306
0.0243874
-0.000198876
0.00332468
-0.0275132
-0.0106672
0.0165752
0.00336009
-0.00926807
-0.00304085
0.00166697
0.0104992
-0.00912531
0.00127363
0.00361532
-0.00279698
-0.00209196
-0.018341
-0.00378418
0.0158304
0.00629483
0.000400874
0.00773421
-0.00155185
0.000236641
0.00390097
-0.0122406
0.00810303
-0.00758115
-2.684e-05
0.00279555
0.00481244
-0.0103712
0.0128168
-0.00204473
0.00585236
-0.00527725
-0.000575115
-0.0086467
0.0012461
-0.00671688
0.0141175
-0.0039021
0.00587196
-0.00452588
0.00255602
-0.00839973
0.00945913
-0.00390887
0.00284946
0.00378502
-0.000622633
-0.00898412
0.00582174
-0.00375654
0.0235471
-0.0316943
-0.00342951
-0.00239351
0.0023436
0.00347942
0.0112024
-0.0174878
-0.000793262
0.00707869
-0.00473631
0.00353445
0.00609093
-0.00488907
-0.00140412
0.00748202
-0.00206324
-0.00401467
-0.00841972
0.00186794
0.00196797
0.00458381
-0.00468211
0.000402359
0.00427975
0.010829
-0.00515669
-0.00549425
-0.000178099
0.00079153
0.00539261
-0.00818517
0.00200103
-0.00579759
-0.00702821
0.00716658
0.00565922
-0.00299547
0.00773094
-0.00663044
0.00189497
0.00280052
-0.00530165
0.00365412
-0.00115299
0.0101412
0.000275362
-0.0104165
0.00873336
-0.010753
0.00532129
-0.0033016
-0.0137074
-0.000400665
0.014108
0.00565202
-0.00469093
0.00109589
-0.00205698
-0.000445701
0.00972044
-0.0106093
0.00133454
-0.00487973
0.00610899
0.00157126
-0.00540186
0.0115735
0.0106936
-0.00922082
0.0091405
8.03225e-05
0.000253341
-0.0145757
0.0143223
0.0196905
0.00237962
-0.00420023
-0.0178699
0.00411232
-0.0160429
-0.00198862
0.0139192
0.00312857
0.0036986
0.00207976
-0.00890693
-0.00551827
-0.00552645
7.43545e-05
0.0109704
-0.00263371
0.0036199
-0.00650446
-0.0121422
0.00219243
0.0159399
-0.00599018
-0.0238323
0.0174533
0.00768227
-0.00130335
0.01054
9.10285e-05
-0.0106311
-0.00597768
-0.0080441
0.00520118
0.00882059
-0.00601477
-0.00873436
0.00260693
-0.00866476
0.00470675
0.0054471
0.003516
-0.004572
-0.00839263
0.00944863
-0.00593071
3.94071e-06
0.00592677
-0.0138125
0.00561513
0.00570242
0.00249498
0.00349204
-0.00933766
-0.00281914
0.0118683
-0.00376419
-0.000299609
-0.00780453
-0.00796325
0.0131953
0.00783241
-0.0130645
-0.00233669
-0.0049059
0.00180443
0.00543816
-0.00336517
-0.00270665
0.00607182
-0.00586025
-0.0123182
-0.00565376
0.00274861
3.55715e-05
0.00554605
-0.00833023
0.0112806
-0.00821575
-0.0118809
0.00881606
-0.00418551
0.00149181
0.00845746
-0.00576376
0.00794715
-0.00559474
-0.000787893
-0.00156452
-0.00911292
0.00147938
0.0071182
0.000515347
-0.00564619
0.0129729
-0.014053
0.00547912
0.000406446
0.0081674
0.0131772
-0.0105269
-0.00829073
0.00564041
-0.0104732
0.00218099
0.0195728
-0.0101881
-0.00671769
0.0109654
0.00594036
-0.00119024
0.0106121
-0.00402573
-0.00539613
0.00060215
-0.00623485
-0.00411165
0.00974435
0.0120815
-0.00797024
-0.000490215
-0.00362101
0.00372831
0.00278534
-0.00914736
-0.00253966
0.00287543
0.0070911
-0.00742686
-0.00210528
0.0109935
-0.0135491
0.00466086
-0.00658455
0.00158817
0.00159404
0.00340235
-0.0144555
0.0147044
-0.000248954
0.00994626
-0.00980318
-0.000143076
0.00400274
-0.0154607
-0.00593645
0.0173944
0.00354727
0.0067475
0.00157357
-0.000170288
0.00590504
-0.00573475
0.0094422
0.00846231
-0.0179045
-0.0105108
0.00641664
0.00453549
-0.000441291
-0.00590291
0.00194524
0.00479904
-0.000841381
-0.0176286
0.00822728
0.00966942
-0.000268141
-0.00572093
-0.00637869
0.00616891
0.00904516
-0.00142427
-0.00582992
-0.00179097
-0.00975102
0.0105326
-0.00642773
0.00172022
-0.0109169
-0.000559477
0.00975616
-1.24767e-05
-0.00535107
0.00536354
0.0263576
0.000210883
0.00280253
-0.029371
-0.000989019
-0.00193641
-0.0142627
0.0171881
0.00457686
-0.00619654
-0.00288842
0.00450811
0.00177534
0.0136334
-0.00551
-0.00989876
0.0148693
-0.014878
-3.51861e-05
4.38443e-05
-0.00834108
-0.00752615
0.0117636
0.00410364
0.00486992
0.00372776
-0.00970672
0.00110903
6.90541e-05
0.0090268
-0.00922504
0.000129185
-0.0124257
0.0039795
0.0100705
-0.00162423
0.00955703
0.00577774
-0.00967529
-0.00565948
0.000226223
-0.00849825
0.00431925
-0.00221386
0.0127639
-0.00688188
-0.000896119
-0.00107402
0.00885201
-0.0114626
0.000602008
0.0108606
0.0167934
0.0072568
-0.00544302
-0.0186072
-0.0109671
0.000236306
0.010957
-0.00100511
-0.00261691
-0.00668199
0.010304
-0.00133339
-0.00131686
-0.00352919
0.00617944
0.00276408
-0.0140222
0.0105721
0.000685967
0.00870517
-0.0013585
-0.00847019
0.00112352
-0.0107843
0.00225897
0.000875451
0.00764986
-0.00410035
0.00268348
-0.00553621
0.00695307
0.00236089
0.00149501
-0.0138983
0.0100424
0.000485853
-0.0094177
-0.00065614
0.00958799
0.00934395
0.00122284
-0.000158151
-0.0104086
-0.0111497
0.00259792
0.0100896
-0.00800509
-0.0106296
0.0186347
0.0154546
-0.00787715
0.00332606
-0.0109035
0.00121413
0.00868544
-0.00532271
-0.0124893
0.00229843
0.0044254
0.00576549
0.0154131
-0.0158711
0.000457968
-0.00931355
-0.00316216
0.00651931
0.0059564
-0.0120952
-0.00939584
0.00629872
0.0151923
0.0126234
-0.0131839
-0.00161328
0.00217385
-0.0018356
0.00612685
-0.00482908
0.000537828
-0.0157939
0.00514836
0.00362982
0.00701575
-0.0232608
0.0289419
0.00479753
-0.0104786
0.0103642
-0.022477
-0.00115093
0.0132637
-0.00922697
0.011722
-0.021726
0.0192309
-0.0096948
0.0213603
0.00212269
-0.0137882
0.000851857
0.010125
-0.0023622
-0.00861462
0.0153929
-0.0115454
-0.000388105
-0.00345947
-0.00270649
-0.00259947
0.00397242
0.00133353
-0.00729836
-0.0151723
0.0129333
0.0095374
-0.0103244
0.013753
0.0119643
0.00837788
-0.00615906
-0.0076754
0.00545659
0.00310596
-0.00401902
-0.00177516
0.00268822
0.00687206
-0.00679563
-0.00905708
0.00898065
-0.00278721
0.0079958
-0.000578443
-0.00463015
-0.0110647
-0.00176382
0.0136804
-0.00835457
-0.00205428
0.0103287
8.0186e-05
0.00340765
-0.00761314
0.00420549
0.00272152
-0.00361511
0.0134699
-0.0125763
0.0105079
-0.0147759
0.0021393
0.00212866
0.00669813
-0.00722734
0.00052921
-0.0106067
0.000282302
0.00949922
-0.003618
-0.00916505
0.00328383
0.0029802
0.0024177
0.010602
-0.0159999
0.00653255
-0.00709223
0.000559679
-8.11743e-05
0.00825686
-0.00933448
0.00115879
-0.0116533
-0.00112382
0.0154986
-0.00503497
-0.000860594
0.00116322
0.00473235
0.000695505
-0.00574825
0.00424021
0.000812537
0.00941405
-0.00901083
-0.00223883
0.00107925
0.0155324
-0.00978195
-0.00682966
-0.00534952
0.0113124
-0.00596284
-0.014473
0.00554218
-0.00339621
0.012327
0.0113974
-0.0103285
-0.0168628
-0.00553748
-0.00662635
0.0227736
-0.0106097
-0.0162819
0.0103707
0.0147835
-0.0088723
-0.000364447
-0.0138948
0.0142593
0.0220485
4.47094e-05
-0.0127038
-0.00938936
0.0127787
-0.00823048
-0.00113637
-0.00341187
-0.00932241
0.00661848
-0.00167295
0.00437689
0.000127072
-0.00956514
0.00943807
-0.00701681
0.00722233
-0.000205528
-0.005086
-0.00537476
-0.0137739
0.0242346
-0.0129728
0.00282993
-0.001451
0.0115939
0.0030037
0.00487435
0.0133107
-0.0120113
-0.00993368
0.00863423
-0.00369718
-0.00762099
0.0084076
0.00291057
-0.00767966
-0.00390581
0.0115964
-1.09387e-05
0.00251032
-0.00144596
-0.00710249
0.00603814
0.00847717
0.000375421
-0.0108352
0.00198261
0.00261494
-0.00181742
0.00280241
-0.00338084
0.00336835
-0.00278992
0.00692927
0.00678713
-0.00692993
-0.00678648
0.00340788
0.0079575
-0.00823412
-0.00313126
0.00723392
0.00313668
-0.00568792
0.0089557
-0.0108596
0.00227929
-0.011901
0.00832017
0.00447908
-0.000898222
0.0141547
-0.00468615
-0.0148181
-0.00377451
0.0100987
0.00507323
0.00984684
-0.00479694
-0.00829335
-0.00225937
-0.00134831
-0.0132363
0.012386
0.00116423
-0.000313882
-0.000822902
0.0165413
-0.00171304
-0.0140054
-0.010781
0.00219589
0.00481056
-0.00173442
-0.0109518
0.00307747
0.00960877
0.00988376
0.00136981
-2.06308e-05
-0.0112329
-0.0147609
-0.000125297
0.000102497
0.0147837
-0.00379574
0.00415663
-0.00675066
0.00638977
-0.0101673
0.012859
-0.00132773
-0.001364
0.0133588
-0.0124752
-0.0110509
-0.00988665
0.00891383
-0.00283057
0.00380339
0.0079896
-0.000359997
-0.00251307
-0.00511654
-0.0149458
0.0144143
0.00706244
-0.00653094
0.0070801
0.00269664
-0.000899076
-0.00887766
0.00256122
0.00648993
-0.00811765
-0.000933501
-0.0048038
0.00483209
-2.82916e-05
-0.00281129
-0.00717861
0.00720269
0.0108137
-0.0107204
-9.33588e-05
-0.00611504
-0.00486845
0.00478695
-0.000637908
-0.00732713
-0.000798548
0.00876359
-0.000828944
-0.00638124
0.00570431
0.00150587
0.0100643
-0.0114394
0.00137508
-0.0128298
0.0131749
0.0120486
-0.0123937
-0.00864695
0.00667856
-0.0045499
0.00651829
-0.00345357
0.00147591
0.00312694
-0.00114928
-0.000366756
0.0156127
-0.000135845
-0.0151101
-0.00788291
0.00382172
0.00388182
0.00450972
0.00573933
-0.0100137
-0.000235312
0.000434216
-0.0124379
-0.000488509
-0.0112867
0.0112827
3.98755e-06
-0.00757203
0.00381231
-0.0083355
0.00256963
-0.00568681
0.000228749
0.0049456
0.00214748
0.0074749
0.000145761
-0.00639203
-0.00122863
0.00625774
-0.0156134
0.0125181
-0.00316243
0.00258785
-0.00352601
0.013115
-0.0121768
0.0160704
0.00474248
-0.00247087
-0.018342
-0.00409355
-0.00670929
-0.00217532
0.0129782
0.00486525
0.0202744
-0.0183079
-0.00683176
0.00233633
0.0146846
-0.0141757
-0.00284525
-0.00505962
0.000667672
0.0103701
-0.00597813
-0.00177473
0.0144236
-0.00778365
0.0104305
-0.00823495
-0.00321416
0.00101863
0.00341641
0.00894204
-0.0123585
0.00837026
0.00185722
-0.00111541
-0.00911208
-0.00769629
0.00615038
0.000618869
0.000927046
-0.000750429
-0.0108798
0.000633416
0.0109968
-0.0079898
-0.0010147
-0.000335178
0.00933967
0.00460293
-0.0102074
0.000101403
0.00401255
0.00609346
8.74302e-05
0.00662872
-0.00671615
0.000820282
0.0116259
-0.0297085
0.0172623
0.0032767
-0.0082565
0.00784438
-0.00286458
0.00470279
0.00536845
-0.00371833
-0.00635292
4.85389e-05
-0.00594764
0.0058991
-0.00322076
-0.00228523
0.0130444
-0.00753839
-0.00398042
0.0132952
-0.0114767
0.00216195
0.014566
-0.0101207
-0.00977469
0.00532941
-0.0059838
0.00405274
0.00185411
7.69535e-05
-0.000804611
0.004585
-0.00246
-0.00132039
0.0156463
-0.0122299
0.00727893
-0.000841254
-0.011915
0.00547733
-0.00332352
0.00310765
0.00372335
-0.00350748
0.000189578
0.0149624
-9.40666e-05
-0.0150579
-0.010917
-0.00359624
0.0147995
-0.000286212
-0.00310277
-0.00132696
0.00340733
0.00441363
-0.006494
0.00883229
0.00623202
-0.0132144
-0.00184993
-0.0027196
-0.00177192
-0.0118178
0.0163094
0.0155637
-0.0123104
-0.0216906
0.0184373
-0.00605867
-4.52346e-05
0.00610391
-0.00734143
-0.00387879
-0.00122446
0.0124447