/*--------------------------------*- C++ -*----------------------------------*\
  =========                 |
  \\      /  F ield         | OpenFOAM: The Open Source CFD Toolbox
   \\    /   O peration     | Website:  https://openfoam.org
    \\  /    A nd           | Version:  10
     \\/     M anipulation  |
\*---------------------------------------------------------------------------*/
FoamFile
{
    format      ascii;
    class       volScalarField;
    location    "7.3";
    object      SgT;
}
// * * * * * * * * * * * * * * * * * * * * * * * * * * * * * * * * * * * * * //

dimensions      [1 -1 -3 -1 0 0 0];

internalField   nonuniform List<scalar> 
111485
(
1.24155e-18
9.62561e-06
2.84122e-05
1.16949e-19
5.87823e-05
2.45946e-18
5.49417e-05
7.20848e-06
2.28178e-05
1.43493e-06
5.54287e-05
1.11971e-05
5.68782e-06
1.04177e-06
7.80376e-06
3.65817e-05
1.67316e-06
0.00310372
1.24467e-05
1.64878e-17
1.54162e-18
1.33043e-19
3.13241e-05
4.15774e-05
1.05647e-05
1.26309e-18
4.78666e-05
2.17556e-06
1.82888e-05
2.77019e-18
5.48653e-05
2.25546e-05
2.87532e-18
1.50808e-18
8.26745e-06
2.78016e-17
1.31836e-05
4.98408e-06
4.95489e-11
2.81308e-05
3.30435e-19
8.51694e-05
1.8883e-05
1.70382e-06
7.11213e-08
8.52137e-17
3.64568e-05
8.55191e-07
5.68037e-05
3.31076e-19
7.48121e-19
1.56017e-17
2.49212e-19
6.08008e-05
6.37746e-18
5.23427e-05
3.80712e-06
1.46085e-18
2.61953e-08
5.70482e-06
1.91786e-05
3.9244e-17
5.60985e-06
0.000116136
1.51631e-18
3.8501e-06
0.000378507
0.000113296
1.30002e-06
7.09211e-06
1.60437e-08
7.62093e-06
2.85637e-18
3.40183e-06
3.1667e-17
8.31063e-07
1.91307e-18
5.01439e-05
4.12938e-19
1.19009e-17
3.87138e-09
4.00417e-05
8.32081e-18
4.51613e-18
1.09304e-05
4.7397e-06
5.14287e-13
3.02538e-05
7.00888e-08
8.73413e-06
3.57152e-07
4.92801e-05
1.39501e-05
7.19431e-08
6.31504e-05
1.66312e-17
2.14168e-18
2.10368e-06
3.00163e-11
1.39664e-06
3.19803e-17
2.18334e-05
1.43792e-18
2.20911e-05
5.58696e-06
2.96667e-19
3.88439e-19
9.02777e-06
4.76078e-06
7.94301e-11
6.729e-06
5.76841e-06
4.40198e-06
3.74035e-06
9.6073e-19
3.98416e-08
1.23325e-18
2.60876e-17
1.52274e-05
2.30639e-18
1.59264e-18
6.73754e-18
1.68282e-18
4.24703e-18
2.00789e-06
3.57273e-09
1.47387e-18
1.96891e-06
9.69989e-19
4.31754e-08
1.67161e-06
3.87634e-05
5.32861e-19
3.50112e-17
3.12732e-18
5.82989e-05
1.18571e-18
5.05548e-05
3.00701e-05
3.32178e-06
2.80547e-07
2.39967e-06
2.67537e-05
3.27119e-06
4.76158e-06
1.54645e-05
2.69496e-18
8.28852e-19
3.12898e-18
3.34132e-05
1.89602e-06
3.93824e-18
2.59923e-10
5.77133e-06
5.39058e-10
1.28919e-05
1.96143e-05
1.27475e-05
8.32185e-11
5.8951e-18
9.3762e-19
6.27339e-05
2.80291e-05
2.3161e-09
3.95527e-10
6.92034e-06
4.14689e-06
2.14369e-18
5.67629e-09
5.62226e-08
1.01158e-18
2.75231e-18
1.60705e-07
1.08428e-19
6.7945e-06
2.53304e-06
1.65987e-19
1.52711e-17
2.25319e-18
2.073e-18
8.22449e-19
1.48136e-18
1.75085e-06
8.14351e-06
3.53887e-05
4.98958e-06
8.93967e-06
4.77905e-06
9.44742e-08
6.07087e-18
5.70722e-06
2.51283e-18
7.88454e-18
7.76188e-06
1.26031e-05
3.34311e-05
1.33415e-05
5.94314e-06
3.05149e-17
7.89332e-06
5.97759e-07
5.23205e-08
1.64951e-05
2.78818e-06
1.09779e-17
4.43205e-06
3.11802e-05
4.08619e-17
2.00066e-07
9.21412e-06
2.43099e-06
4.21993e-07
1.03416e-17
4.29792e-18
9.81303e-06
1.17312e-14
0.00014502
2.25942e-18
7.91105e-06
2.43259e-05
0.000144439
2.73785e-17
3.76319e-06
1.6403e-05
2.71961e-16
3.46898e-19
4.1963e-19
0.000182704
3.32422e-10
7.63912e-19
2.64459e-18
1.15756e-05
9.31165e-06
1.8165e-05
1.41845e-18
4.54324e-18
1.61409e-08
2.82216e-18
2.98504e-06
1.09785e-05
1.90824e-05
1.39478e-05
1.1824e-05
6.62839e-19
3.09749e-10
7.39816e-07
4.73423e-18
4.81046e-18
3.65835e-05
2.48463e-05
5.15797e-18
7.54835e-06
1.27058e-05
7.91767e-18
3.25854e-17
1.64816e-07
7.47079e-19
2.22464e-17
5.17191e-08
1.7248e-18
1.79688e-05
1.30823e-05
4.46764e-06
2.56584e-17
1.39408e-05
1.59112e-18
2.25448e-18
9.45034e-18
2.48337e-11
2.74708e-05
7.40074e-06
6.33653e-06
4.39211e-05
1.46296e-05
1.9151e-06
6.68717e-07
3.92356e-05
1.07053e-05
4.82272e-20
3.57692e-18
3.11075e-10
2.68484e-05
2.91093e-05
1.44447e-05
2.68647e-19
8.32679e-06
2.50833e-06
3.60029e-06
4.0962e-09
4.30705e-09
1.61256e-05
2.67985e-06
2.35131e-06
8.73915e-18
7.94389e-07
1.98319e-19
1.68813e-10
3.73667e-16
0.000291709
8.13659e-05
1.45078e-05
2.73646e-18
4.07433e-18
1.0676e-05
1.97759e-06
1.11614e-17
1.78985e-18
6.30498e-19
3.73253e-07
7.02972e-05
4.65611e-06
1.65648e-05
2.27815e-05
1.63919e-18
2.17427e-18
1.363e-17
4.53898e-06
1.40046e-15
1.20945e-06
0.000221951
3.86522e-10
8.55264e-19
4.00236e-18
1.54678e-18
1.99808e-17
7.14241e-05
1.43766e-05
1.44898e-18
6.22368e-06
1.7251e-18
6.77359e-18
8.25604e-05
6.9614e-06
1.33617e-05
1.11076e-05
1.29099e-17
6.74658e-18
3.47556e-18
1.11853e-05
2.22868e-05
6.11774e-06
1.57071e-18
3.96866e-13
1.94016e-07
2.55133e-06
9.50184e-06
4.32431e-08
3.40131e-05
7.31295e-19
4.47499e-05
4.19839e-06
9.31006e-06
2.97612e-05
1.63671e-05
2.28131e-18
3.76245e-17
1.15201e-18
7.74733e-19
3.76368e-05
1.15026e-05
4.00436e-05
8.05727e-05
1.65816e-18
2.25751e-05
7.36662e-20
1.93095e-17
1.98872e-05
1.40766e-18
8.82777e-05
1.96225e-17
2.13623e-18
2.77776e-05
2.12317e-18
1.63653e-05
3.37657e-07
1.26224e-18
1.22087e-06
1.95308e-05
8.3316e-19
1.06077e-05
1.12015e-05
9.68379e-06
7.70685e-07
3.26177e-06
6.77295e-06
6.22197e-18
1.93607e-17
2.18348e-06
4.81342e-18
7.29969e-06
0.000141067
1.1889e-19
8.52579e-18
3.22703e-05
1.38121e-07
9.81402e-06
2.58638e-05
8.28457e-19
5.3626e-05
2.29505e-05
8.3885e-20
9.81223e-07
2.96108e-06
1.13847e-17
5.8116e-19
1.33354e-05
6.28295e-06
1.87773e-18
2.29619e-18
3.77233e-11
4.68929e-18
1.42947e-05
7.25703e-18
1.21308e-18
2.04996e-05
2.08039e-09
1.46792e-05
3.56182e-05
1.31262e-19
5.84119e-18
1.73606e-06
2.52321e-18
1.75449e-07
1.6637e-05
0.000146974
0.00102064
9.16564e-19
3.2876e-06
5.77134e-07
6.16033e-18
4.65569e-05
3.81192e-05
3.16605e-17
8.85672e-12
1.11232e-07
6.01474e-18
2.93021e-05
2.91825e-05
1.70092e-05
2.18431e-18
8.00059e-07
2.19848e-05
2.75146e-05
9.8578e-10
7.54149e-18
7.52612e-13
1.56956e-18
1.59602e-08
3.74364e-05
2.5639e-18
1.02401e-05
1.11479e-07
1.86238e-17
2.29267e-18
2.16692e-17
2.3613e-18
4.78674e-06
1.15277e-05
7.91891e-06
2.53415e-06
3.31077e-06
8.34125e-19
2.37287e-06
3.50686e-17
4.84366e-05
5.84889e-20
2.30416e-18
2.77131e-18
4.32771e-05
5.36113e-17
5.46729e-18
2.19105e-10
2.99743e-19
4.42798e-18
1.2463e-06
9.1051e-18
3.34276e-18
2.08415e-18
1.33427e-18
9.98741e-18
2.68238e-17
5.59649e-19
8.55964e-06
6.29766e-18
6.25358e-07
2.25564e-06
1.17555e-06
2.53399e-18
9.99666e-07
8.51111e-18
1.94776e-18
3.39031e-06
2.19068e-06
3.30497e-05
2.9796e-05
3.1612e-18
2.44156e-06
9.76767e-05
1.02128e-05
1.23061e-06
3.9739e-06
4.95938e-17
2.78646e-05
2.66877e-17
5.93289e-06
1.3888e-17
9.09278e-05
2.91633e-18
2.5766e-05
2.91843e-07
5.75831e-10
2.9537e-18
2.44158e-06
1.16385e-18
9.56172e-05
5.83886e-05
7.25632e-19
3.29967e-18
5.86103e-18
2.83339e-18
1.67715e-12
6.52239e-05
1.15678e-19
2.32296e-18
2.97939e-06
7.60267e-19
4.02716e-05
9.31328e-19
3.78863e-07
4.55645e-18
5.9449e-07
1.2757e-09
1.21408e-06
1.56296e-05
1.84392e-17
4.88302e-07
7.92105e-20
1.51555e-18
1.82376e-05
3.09387e-18
3.71385e-08
1.38985e-18
1.91327e-06
1.28278e-17
7.77737e-05
9.4746e-19
1.007e-18
2.097e-05
4.06537e-06
2.09116e-06
4.76428e-06
8.16834e-06
2.48792e-05
2.62467e-18
2.96624e-05
7.49101e-06
1.07175e-18
9.59015e-11
4.75619e-05
1.79175e-05
1.0804e-18
4.85405e-06
7.87753e-06
2.02724e-06
1.28497e-06
2.08598e-13
1.63007e-05
1.43702e-06
1.6221e-07
2.88836e-05
1.64143e-05
7.73037e-07
6.42281e-18
3.96336e-12
0.000778197
7.15173e-18
4.25982e-07
1.07867e-18
1.84569e-17
8.81099e-06
3.471e-06
2.57133e-10
1.77373e-08
9.56117e-18
1.99472e-05
1.32671e-05
2.67988e-18
1.52932e-13
2.34358e-06
6.15469e-19
1.27215e-18
1.3158e-18
1.25689e-18
1.5974e-05
1.20086e-18
9.79303e-18
1.06337e-05
2.36364e-06
4.84125e-17
1.2656e-05
3.64915e-18
1.01729e-05
9.90329e-19
2.74478e-18
6.4011e-05
7.60306e-19
1.05824e-18
6.3829e-18
5.30186e-06
3.86854e-18
3.51776e-05
7.50091e-06
5.16929e-19
0.000103486
2.96237e-06
3.40095e-05
3.33943e-05
5.96269e-07
9.53465e-08
1.0494e-18
6.52134e-05
5.53334e-05
4.0307e-17
3.84181e-07
4.78094e-05
9.23038e-06
1.72507e-06
3.28388e-05
3.10897e-05
3.5902e-17
1.2797e-05
6.36868e-09
1.50905e-18
4.12159e-05
3.14834e-07
4.63166e-17
1.30527e-05
4.82926e-05
1.64255e-06
2.53147e-05
2.32928e-05
8.49776e-06
2.16967e-18
1.23133e-05
3.91469e-07
6.86327e-15
2.03381e-05
2.11293e-05
4.29938e-05
9.99303e-19
2.26847e-06
5.89566e-19
2.25912e-18
1.07228e-18
9.19383e-19
1.71142e-08
4.38232e-18
3.54499e-13
6.31815e-18
3.82811e-18
9.04048e-08
5.17679e-05
1.41994e-17
3.85745e-05
3.07701e-17
3.00795e-17
1.25307e-18
4.66806e-05
4.9233e-07
1.26025e-17
6.25175e-17
7.17108e-19
3.67513e-19
0.000252664
8.28037e-05
5.01057e-18
2.34387e-06
2.63377e-09
1.45148e-18
4.44712e-05
9.85447e-06
1.45758e-05
3.49127e-19
3.74294e-18
5.07933e-07
1.29583e-06
2.07931e-17
8.30526e-19
2.80975e-18
8.71605e-06
9.18195e-18
1.56278e-18
5.52083e-19
4.97621e-05
2.38362e-06
1.76936e-18
0.0046734
0.000381942
1.21881e-05
2.68341e-19
1.21205e-18
6.6095e-05
4.87282e-07
2.26351e-19
6.85533e-09
0.000142403
2.98469e-06
1.35432e-05
8.28224e-18
6.39824e-05
2.20443e-06
4.06949e-18
5.59358e-18
3.50785e-18
2.83428e-19
7.44379e-19
2.01954e-18
2.61628e-05
1.07866e-17
5.1561e-20
1.44443e-18
1.38144e-05
2.78156e-05
9.2559e-19
1.32751e-18
0.000127051
1.7086e-05
1.13616e-05
4.91743e-19
4.69765e-19
4.42855e-05
1.1087e-17
2.13283e-06
3.08957e-06
4.56168e-06
7.49053e-18
2.98717e-18
7.34813e-21
4.40009e-19
1.80322e-05
1.49471e-18
1.44432e-18
1.18779e-06
1.10917e-18
2.73216e-05
2.19559e-06
1.99722e-19
4.42658e-05
0.00045287
3.02172e-06
3.48657e-05
1.74141e-07
5.34416e-05
1.2911e-13
2.16505e-17
2.80181e-05
8.34949e-05
7.27521e-06
4.28527e-18
7.89977e-13
0.000875783
1.20501e-05
3.76448e-18
3.02014e-06
3.12834e-06
1.43982e-06
2.36506e-17
6.63699e-18
2.60746e-17
1.57707e-05
4.87858e-19
3.06514e-06
2.14949e-18
1.53192e-06
1.66431e-06
4.36585e-05
6.61777e-07
1.59062e-18
8.07819e-19
1.09367e-18
2.46137e-05
3.65443e-20
3.53393e-18
7.89883e-08
1.978e-18
1.15045e-19
1.1681e-18
3.79213e-19
1.18708e-05
7.38394e-18
3.00354e-18
5.47326e-13
3.08687e-18
2.37597e-18
6.66843e-17
5.5487e-19
3.43668e-09
1.91735e-06
8.17704e-20
4.68501e-06
8.19579e-09
3.54546e-10
7.44693e-08
4.89653e-06
6.41689e-18
1.12258e-08
1.1741e-05
4.72345e-07
1.34535e-17
3.35545e-12
1.00077e-06
3.57715e-18
1.15516e-05
2.23109e-07
1.99813e-09
2.83017e-05
1.10963e-05
2.69677e-06
6.0428e-06
2.40423e-06
4.09606e-18
8.16388e-19
3.90922e-05
3.11288e-05
3.89639e-18
9.92657e-06
6.43971e-05
3.3944e-05
1.59854e-19
1.54517e-06
1.00691e-18
1.23565e-05
1.6577e-05
4.3652e-18
1.87183e-06
5.53903e-07
1.4425e-09
5.84167e-06
1.90408e-19
5.82907e-05
1.79187e-08
1.82148e-06
3.90529e-08
1.43037e-08
2.20984e-18
4.01153e-18
8.48217e-06
7.8658e-19
1.3916e-07
3.06441e-07
3.22856e-07
6.18984e-11
8.32495e-11
4.45289e-10
2.51198e-19
9.68506e-18
2.76325e-05
3.95378e-17
1.75333e-07
2.45738e-06
4.92198e-18
7.27917e-19
7.17692e-10
1.06511e-12
7.07219e-19
5.78662e-09
3.62656e-18
1.26167e-18
5.03728e-18
1.20658e-17
1.63612e-17
2.01033e-17
3.35953e-07
4.10674e-20
1.66454e-18
5.47142e-18
7.5205e-09
6.36706e-08
2.1709e-06
1.11604e-05
4.72772e-19
2.75362e-19
2.06066e-07
2.94048e-18
1.19244e-19
1.4492e-16
2.22504e-05
5.04998e-05
1.67197e-18
3.77971e-18
2.72187e-19
3.98969e-18
9.15889e-20
9.09064e-19
8.44816e-06
3.94018e-19
6.15645e-11
3.20169e-05
8.43313e-18
5.77834e-17
2.37641e-18
3.18382e-08
6.04011e-18
2.53548e-18
4.2633e-18
1.07563e-08
2.25879e-18
5.29254e-06
1.13941e-09
7.24599e-12
3.22292e-18
8.65952e-08
2.43676e-06
5.27674e-05
7.72933e-18
9.6594e-09
6.82692e-06
4.49558e-20
4.22647e-20
4.18476e-17
1.83418e-18
9.98654e-06
1.98826e-06
3.97354e-06
2.06617e-10
8.79873e-20
2.63856e-05
8.22565e-18
2.50815e-18
6.13935e-17
5.07795e-19
3.14407e-05
2.13522e-18
1.69161e-17
2.11886e-09
6.11045e-05
1.64863e-18
2.90373e-06
2.25196e-18
1.02046e-06
3.91332e-19
4.36351e-19
2.29542e-18
1.03141e-18
2.94179e-06
7.25684e-07
0.000366517
3.91183e-19
6.60515e-19
2.42744e-06
4.88413e-19
1.73277e-17
3.75819e-18
4.42588e-05
1.09014e-08
3.82488e-05
5.00679e-19
1.21659e-08
5.68808e-08
2.00796e-17
1.43635e-07
6.35718e-20
1.47983e-06
3.05278e-05
2.4321e-05
1.47574e-06
2.88637e-07
1.81822e-18
1.53162e-18
5.8201e-18
2.53458e-08
2.18126e-18
8.72025e-06
1.33811e-17
0.000211095
3.46167e-19
4.93039e-05
3.76661e-06
9.3697e-18
7.27539e-19
7.99597e-18
7.26085e-18
4.84525e-05
3.2547e-17
5.43506e-17
1.42413e-05
8.07233e-06
8.53913e-18
2.46088e-17
1.80406e-17
1.74424e-17
1.45036e-19
3.56577e-19
3.03822e-05
5.04737e-07
1.39455e-18
2.78536e-18
6.00007e-10
6.71809e-17
1.88841e-06
1.30425e-07
3.86844e-19
4.10958e-06
2.79139e-18
4.461e-07
2.75524e-19
1.29296e-06
7.59532e-18
9.24769e-11
2.5268e-09
7.68262e-07
2.13065e-05
4.00808e-05
1.40249e-09
1.77304e-19
5.8877e-07
4.42476e-18
5.44305e-06
1.21464e-18
2.13158e-18
1.23693e-17
1.43589e-17
6.93208e-18
7.49061e-18
8.45874e-06
9.52498e-06
4.24055e-18
3.79244e-17
5.04676e-19
8.90894e-07
1.62943e-08
1.00856e-18
2.17521e-05
2.19894e-07
5.89196e-18
2.78389e-05
9.81272e-06
4.25916e-06
1.39724e-05
1.1687e-18
4.58173e-18
5.91288e-20
3.02647e-18
4.40564e-05
1.1535e-18
0.0001354
2.49388e-19
3.6712e-07
8.71879e-07
3.98579e-18
1.11418e-06
9.95241e-19
1.51355e-18
3.59282e-06
2.67724e-11
1.09798e-05
2.06975e-19
1.13296e-18
5.07652e-19
9.78443e-07
5.34427e-18
1.36361e-19
4.04345e-18
3.50734e-10
3.89806e-18
8.47987e-09
1.12969e-17
5.993e-19
5.12784e-18
2.16628e-05
1.18244e-05
2.18318e-05
4.29997e-05
2.36753e-17
1.85388e-08
4.72131e-18
5.28897e-19
1.18345e-05
7.87273e-20
2.70765e-09
4.17971e-07
7.87445e-06
4.19956e-07
1.34817e-12
2.3089e-06
2.31801e-19
1.36745e-12
5.1241e-13
1.46448e-07
9.67934e-07
1.75815e-05
7.30355e-11
2.314e-17
3.64882e-05
1.31271e-18
8.16202e-19
1.75602e-08
8.94782e-05
7.06473e-11
9.90965e-19
2.18451e-18
3.79245e-10
3.94382e-18
8.54957e-20
2.0574e-08
1.51007e-17
1.81337e-17
4.82843e-05
2.59618e-07
2.04195e-07
2.71086e-05
8.6865e-06
3.7274e-19
7.72916e-18
1.91549e-08
4.8589e-06
6.75621e-19
7.89525e-18
1.16669e-05
4.60291e-18
3.42996e-17
6.40121e-18
1.26174e-17
2.56368e-16
0.00308458
9.43068e-19
2.53856e-07
2.4749e-18
2.47912e-05
5.35552e-21
1.53064e-15
1.18466e-18
5.30295e-19
3.00212e-18
2.28772e-18
3.42231e-06
2.55578e-18
2.13417e-18
5.13029e-18
1.46489e-18
2.69375e-18
3.52516e-18
1.16867e-05
2.68195e-19
1.32587e-05
3.61048e-06
8.27188e-19
1.92884e-06
3.17831e-18
5.7983e-07
2.33157e-09
4.60211e-06
1.58805e-05
6.51992e-19
1.08838e-07
9.4142e-06
1.03576e-08
1.00865e-17
2.96261e-09
2.21468e-05
5.64493e-06
2.73553e-18
3.11366e-05
1.31111e-18
2.3676e-19
2.94097e-18
3.66434e-18
9.75887e-06
1.76037e-18
2.67722e-19
9.82313e-06
3.46169e-10
3.21403e-06
4.99646e-19
9.35565e-17
7.93508e-07
1.41031e-18
8.6335e-08
9.89954e-18
2.76388e-05
2.5448e-19
1.94713e-19
6.65468e-08
2.15418e-18
1.61845e-07
1.19154e-17
2.49507e-19
5.81782e-06
5.04366e-07
5.71227e-06
1.86404e-05
0.000263965
2.42592e-05
1.13421e-19
1.95208e-17
3.48758e-06
8.02924e-06
4.34879e-05
1.30979e-05
7.62087e-19
1.44166e-05
2.13822e-18
2.52322e-18
1.07199e-05
1.29585e-05
1.31886e-18
1.5624e-05
5.11291e-19
3.27101e-06
1.03986e-05
5.86442e-18
2.11835e-18
6.53977e-19
3.29964e-06
4.23457e-18
7.50441e-19
4.92402e-06
2.51706e-05
4.32852e-09
8.91127e-06
9.21573e-19
2.60491e-18
9.70912e-08
8.98589e-07
1.06194e-18
1.22695e-05
5.06421e-18
3.12675e-06
6.28919e-19
4.25963e-18
1.45773e-05
4.12902e-21
4.66329e-08
4.25227e-06
2.18865e-18
2.28764e-18
5.18512e-06
6.46309e-14
6.26801e-05
1.72835e-19
0.000310312
1.18077e-17
1.06732e-17
5.60227e-17
8.83001e-06
2.0808e-18
4.47295e-18
6.58913e-06
7.32975e-18
2.83655e-07
4.38841e-17
1.20767e-19
1.79577e-18
1.29019e-10
9.15798e-07
1.35396e-18
1.12387e-18
4.19474e-05
1.11148e-06
3.81263e-19
5.24148e-07
1.27648e-18
2.52575e-18
1.92134e-09
3.17265e-06
1.54059e-06
1.94448e-18
2.41113e-18
1.25235e-17
3.09242e-19
6.69355e-18
9.82985e-19
4.18657e-18
7.12744e-19
2.61072e-19
3.26721e-18
1.90512e-19
1.72201e-18
8.54232e-18
3.80122e-19
1.54452e-19
1.73634e-19
7.59179e-19
3.66307e-18
1.1309e-18
1.81308e-18
1.6486e-18
2.09156e-05
4.00861e-19
1.70999e-18
1.29503e-18
7.8019e-06
9.44019e-18
8.18873e-19
0.00033454
6.45491e-19
2.05073e-19
2.74139e-05
3.01712e-15
1.18484e-18
8.7299e-06
2.89895e-05
1.25641e-18
3.08734e-06
4.65794e-06
1.14267e-18
1.55685e-05
4.67396e-05
2.10553e-05
3.95686e-06
1.26795e-05
2.79871e-18
1.16204e-19
3.47617e-06
1.23733e-05
3.7575e-06
8.94258e-20
7.68537e-06
2.05774e-06
2.5118e-05
1.22118e-05
8.10075e-07
1.83523e-05
1.26071e-06
1.18927e-05
3.85583e-17
2.96728e-05
9.9499e-06
1.96863e-06
1.5919e-06
8.10035e-20
3.47226e-18
8.20873e-20
1.24746e-18
6.35138e-19
1.08144e-05
1.60409e-05
6.79987e-19
4.75447e-19
1.62365e-17
7.89748e-19
1.19542e-18
7.39011e-20
2.85528e-19
3.68983e-19
5.37559e-06
2.03407e-07
2.56071e-05
7.81802e-08
7.40185e-20
1.24449e-17
3.68065e-05
7.86496e-09
1.95483e-18
5.31804e-18
8.55796e-06
9.59922e-18
2.34478e-18
4.16408e-09
9.25183e-06
1.59406e-05
3.95154e-05
3.98994e-05
8.75108e-19
1.66482e-05
3.87806e-07
2.16036e-17
1.47266e-18
1.38247e-05
1.14284e-18
3.30233e-19
2.03571e-05
0.00123862
2.02688e-07
3.66932e-18
6.54194e-18
2.05688e-05
2.40883e-05
2.05855e-05
6.74433e-06
4.68561e-06
8.08241e-18
1.21746e-09
3.10925e-12
1.43994e-17
3.53191e-18
2.0356e-05
2.79492e-19
2.34831e-06
2.9737e-05
2.05222e-05
1.37007e-05
6.66133e-19
7.0666e-06
9.43348e-19
2.32298e-18
7.23848e-18
7.92216e-20
2.89689e-06
0.00102551
6.51525e-19
1.23733e-19
3.64299e-09
2.72057e-05
1.27459e-06
8.07714e-06
3.85382e-05
5.59881e-06
2.39579e-05
1.41625e-20
1.83685e-18
7.7334e-18
3.54191e-05
6.63592e-06
3.06016e-11
6.02678e-18
3.83017e-18
6.90846e-17
2.58985e-05
3.26007e-06
7.52097e-19
5.68647e-06
6.75048e-05
7.91377e-06
7.1449e-06
5.42057e-18
8.11752e-17
8.07013e-06
2.64395e-05
1.17145e-18
3.88553e-07
1.69763e-05
1.15969e-06
1.07178e-05
5.40544e-06
9.37847e-06
2.92799e-17
3.90658e-06
2.39942e-05
4.25933e-05
5.27607e-13
2.6585e-05
1.22091e-16
1.91023e-05
1.81569e-07
6.33804e-18
2.98252e-06
8.69171e-06
4.34483e-07
1.32778e-05
3.41201e-10
1.55331e-07
1.75764e-08
4.61159e-05
4.19828e-06
5.34282e-18
4.48267e-05
1.48383e-06
1.27098e-18
1.94401e-19
4.72903e-11
1.12207e-08
1.19182e-06
0.00127752
4.04351e-05
1.35203e-05
2.45984e-10
5.10486e-05
1.14886e-17
8.46396e-18
4.57696e-06
3.37731e-18
2.4617e-06
5.01752e-06
2.48637e-06
5.34442e-06
2.57067e-20
2.39734e-07
0.000124896
7.9156e-19
2.47312e-05
8.59042e-06
1.17764e-17
4.59402e-06
1.68317e-07
9.09412e-19
8.45703e-12
1.07027e-07
9.81166e-20
1.1208e-19
6.84606e-18
5.03484e-06
5.43973e-06
1.6327e-05
4.01309e-18
5.76192e-06
3.78848e-05
1.85195e-18
9.16345e-06
1.41656e-05
2.79792e-05
1.75323e-06
1.36238e-18
6.78736e-07
1.08399e-05
1.19298e-05
1.02785e-05
4.30834e-05
0.000188627
3.86295e-06
5.3324e-18
8.38305e-09
5.81137e-05
4.31179e-19
4.86834e-07
1.41145e-18
8.9665e-19
1.15549e-17
1.64699e-18
1.571e-19
3.68408e-06
1.49095e-19
8.14233e-06
1.34782e-06
4.43828e-18
4.40704e-06
1.93547e-17
1.6152e-05
1.25864e-19
2.35518e-08
2.63395e-18
2.50949e-05
1.76345e-07
2.70451e-09
4.75147e-06
3.28546e-05
1.92333e-05
4.41665e-06
3.07449e-05
5.73629e-15
2.56035e-05
6.17748e-05
1.06602e-05
1.76971e-17
1.2895e-06
3.05023e-07
6.34951e-06
1.19083e-05
6.94829e-07
2.86239e-17
4.07137e-18
2.20528e-19
4.13121e-06
1.68466e-18
2.81086e-07
2.5123e-07
1.71808e-06
3.19042e-07
2.95349e-19
6.74884e-18
1.47522e-18
9.84959e-06
2.45309e-05
1.40958e-06
1.05426e-08
2.14823e-06
7.78797e-06
2.24549e-06
9.21529e-07
7.75527e-06
6.7729e-06
2.97916e-06
7.00545e-18
4.95076e-19
3.5411e-17
1.51036e-05
1.22545e-05
1.97403e-19
4.80233e-19
6.37652e-17
9.40582e-06
2.14079e-05
1.08077e-17
2.45171e-06
8.94151e-18
6.94263e-10
5.3941e-06
0.000100072
1.99792e-18
1.38694e-19
4.15569e-06
5.77494e-19
6.86108e-08
1.33777e-05
3.98011e-18
1.21842e-05
3.71236e-05
2.08257e-05
3.8451e-19
1.47332e-06
1.61565e-17
9.55067e-08
5.5377e-05
3.28688e-18
2.29728e-18
1.23382e-05
3.57022e-16
2.53214e-17
4.88999e-08
1.11003e-06
3.14891e-18
2.49013e-18
4.15361e-18
6.82257e-08
1.39103e-06
3.54397e-06
2.87889e-05
1.04524e-05
2.22383e-18
7.93838e-10
7.3207e-07
4.53723e-18
6.57842e-19
6.03023e-18
5.93808e-18
7.22621e-18
3.95071e-18
1.84281e-17
5.33904e-19
1.11549e-17
3.82473e-18
2.91144e-12
3.51264e-18
3.90348e-07
7.175e-17
2.52811e-07
5.51151e-17
6.70667e-08
8.77269e-17
2.60898e-18
3.17372e-05
1.02522e-05
4.73856e-17
0.000101031
1.13672e-11
3.29205e-13
4.8517e-19
1.47371e-06
7.13871e-15
3.04941e-06
7.11341e-09
9.79582e-07
8.99441e-19
3.26013e-19
1.00855e-06
2.92629e-11
4.01071e-18
2.67769e-18
4.38852e-05
3.1206e-18
4.16743e-05
2.14227e-18
7.09491e-18
1.93907e-09
3.16717e-05
9.1115e-06
8.24805e-18
3.64187e-07
5.90508e-18
3.3338e-06
2.01168e-08
2.04927e-06
1.04596e-06
8.96055e-19
2.29394e-05
1.32118e-06
5.78559e-06
8.58254e-19
3.08503e-18
1.60658e-18
2.00672e-05
4.4637e-06
5.81552e-05
1.35434e-18
5.03264e-10
1.11896e-18
2.88307e-18
4.78054e-20
4.0142e-19
3.63103e-06
2.43624e-06
3.31164e-06
0.00035827
5.65862e-17
3.09612e-05
4.01474e-05
1.9618e-05
1.90771e-06
9.26643e-19
5.97696e-06
5.03618e-06
5.5883e-06
4.05421e-10
1.14159e-05
7.34109e-19
1.73965e-06
1.39544e-06
3.67708e-05
1.28895e-09
3.69886e-06
1.45187e-18
2.0979e-05
1.01616e-18
1.4438e-17
1.85139e-06
6.22504e-18
7.01217e-06
9.10974e-18
3.46015e-18
3.61467e-18
3.05575e-19
1.79708e-17
8.91329e-07
1.14001e-18
6.25586e-07
8.63103e-19
1.43204e-18
2.0287e-05
6.16411e-06
8.8441e-06
8.47599e-06
8.98505e-18
0.000660513
6.46452e-18
7.86758e-05
1.58665e-18
2.01165e-05
2.64826e-05
2.65131e-06
6.39427e-05
1.16602e-17
1.01702e-16
2.92414e-18
2.44319e-06
5.46818e-18
2.22515e-18
1.99278e-05
3.57487e-19
3.40984e-18
5.97958e-06
3.3053e-18
1.43916e-05
7.53439e-11
3.2166e-19
3.88223e-18
1.82537e-17
1.82024e-06
7.59155e-06
4.941e-19
2.56865e-05
3.80016e-07
1.0808e-18
0.000116364
7.43553e-18
1.77738e-05
2.03011e-05
3.94488e-06
3.74931e-18
2.00933e-05
1.08865e-05
9.45974e-07
5.96409e-06
1.40946e-05
8.16443e-19
6.54551e-18
2.00212e-09
3.55072e-20
1.71755e-18
2.12262e-18
2.20829e-05
5.03385e-05
4.98648e-06
2.42475e-06
3.02924e-18
5.62368e-05
5.17678e-05
4.78623e-06
2.77269e-06
1.0481e-05
2.36214e-05
3.00857e-06
7.30073e-19
2.75691e-18
5.35446e-18
7.76916e-06
3.40141e-18
2.80209e-05
4.86632e-17
8.42613e-07
6.11657e-10
2.90269e-06
2.51155e-05
3.11099e-18
3.50462e-18
2.78996e-06
4.10782e-07
2.18844e-17
3.36474e-19
1.50806e-17
3.75808e-08
3.56411e-07
1.63652e-07
9.29002e-07
1.13413e-05
9.84467e-05
5.02737e-18
8.28159e-18
8.46351e-18
4.2569e-06
2.03949e-05
2.26915e-05
3.96342e-05
2.04251e-06
3.30017e-06
5.08645e-18
6.19887e-18
1.44288e-16
4.08721e-19
1.07379e-05
2.54396e-05
7.66311e-19
3.08622e-18
3.4058e-19
2.7416e-18
3.61674e-17
4.5169e-17
1.55221e-05
6.6115e-19
1.1258e-06
0.000455671
1.18183e-18
1.618e-08
2.59433e-05
8.35104e-07
8.38536e-18
8.54453e-18
5.55031e-06
1.33284e-18
1.60643e-05
1.22672e-09
2.76133e-05
1.46664e-17
2.831e-15
5.83421e-19
9.41445e-20
1.6785e-18
1.99875e-17
0.000223227
3.78085e-19
6.68601e-06
1.36488e-06
5.67194e-17
1.98886e-17
2.19687e-06
8.65708e-19
2.88077e-18
1.49302e-05
1.39354e-07
1.11564e-18
1.31102e-19
1.07841e-17
1.90983e-05
1.56736e-18
5.33372e-18
4.59564e-07
2.96227e-06
3.47548e-06
9.22781e-19
3.58204e-19
7.01271e-18
4.31119e-06
2.092e-06
1.47606e-05
4.20736e-06
2.16064e-19
9.07506e-07
1.37246e-05
7.35023e-06
5.58277e-20
1.47216e-18
1.67317e-18
3.44919e-18
5.64541e-18
3.55324e-05
6.02497e-06
6.22454e-06
1.39801e-17
1.45893e-18
1.94651e-18
4.99742e-19
5.12597e-19
1.08812e-09
2.80155e-07
2.5868e-06
1.33599e-18
4.49089e-18
1.43914e-17
2.80902e-12
3.93809e-05
0.000129755
1.30545e-18
7.82457e-13
2.28839e-14
1.89171e-18
2.90136e-18
4.38273e-06
7.60031e-06
7.46525e-19
1.64014e-17
3.29114e-06
5.24221e-18
8.0464e-07
1.26958e-06
0.00241377
9.29024e-19
6.45962e-19
1.39666e-05
5.98997e-07
5.00554e-18
0.000764391
6.76036e-07
7.3594e-06
3.31949e-18
4.0733e-19
1.01869e-17
2.97687e-18
9.13483e-06
1.07477e-07
7.31462e-19
2.88016e-05
2.18153e-05
0.00100045
4.81875e-18
3.57512e-19
2.51656e-18
2.10245e-19
7.441e-06
7.40455e-11
4.92925e-18
5.77153e-18
2.14588e-05
1.07793e-06
5.63989e-06
2.09889e-18
1.71298e-17
3.29272e-05
2.18728e-17
2.7336e-18
5.68035e-19
9.58762e-19
2.51245e-05
1.43716e-18
1.53017e-18
6.83552e-19
2.89152e-05
1.40132e-05
1.49337e-18
3.96622e-18
8.04074e-19
1.74991e-05
2.00654e-10
3.64089e-18
2.16292e-18
1.3872e-17
4.06585e-17
2.735e-06
1.24396e-05
3.94183e-18
2.34532e-06
1.25456e-06
5.41469e-06
9.00767e-17
8.38673e-19
5.31826e-18
2.76152e-18
5.95772e-20
2.27342e-05
1.75536e-17
1.67691e-05
2.26078e-18
1.73125e-06
2.47802e-16
2.6829e-06
4.5011e-18
1.65035e-18
1.23279e-05
0.00019588
1.90111e-17
4.03874e-06
1.13713e-18
4.37733e-07
7.08115e-18
2.21026e-19
2.1455e-19
1.86564e-10
2.05662e-18
3.60931e-07
1.71328e-18
4.03242e-05
2.81733e-18
5.10297e-18
4.58232e-18
5.47224e-19
8.91372e-09
1.51678e-07
1.52768e-18
6.27025e-06
1.0238e-18
3.22942e-06
2.14902e-05
1.41862e-06
4.85459e-18
5.19093e-09
4.91901e-07
2.40603e-09
4.9587e-06
3.83949e-10
1.87241e-06
1.10659e-17
4.83413e-19
4.91164e-10
6.43295e-06
2.66672e-07
4.23164e-18
1.69736e-18
7.1493e-18
0.000648596
9.13877e-18
7.89124e-19
2.40106e-18
2.05897e-17
2.74643e-17
3.64803e-08
1.99013e-07
1.1556e-06
7.57922e-08
9.94746e-16
1.64142e-06
1.91385e-18
6.42583e-06
1.93701e-18
5.24011e-19
7.21062e-19
1.21981e-17
2.20918e-08
7.70284e-18
2.10043e-17
6.07257e-19
1.65717e-05
2.36155e-17
4.60882e-18
1.24802e-05
3.6377e-18
7.88325e-05
0.000138684
0.000632089
8.14404e-18
0.000229384
0.00133363
0.00138311
0.000748184
4.353e-19
4.20863e-19
5.4996e-06
5.29247e-06
6.18412e-18
9.90585e-06
7.26147e-19
3.63296e-05
3.33461e-18
1.49125e-18
7.82962e-07
5.734e-19
8.0252e-18
1.13906e-08
4.46501e-08
4.73706e-18
2.70754e-19
2.94274e-09
8.95703e-18
5.86867e-19
2.28681e-08
9.33084e-06
1.66965e-06
3.08941e-18
8.65045e-06
1.61859e-17
3.9586e-06
4.43818e-10
8.11918e-06
1.48173e-18
1.69675e-11
6.27341e-06
8.97661e-18
1.71499e-12
1.25906e-19
3.63319e-05
6.01119e-18
1.09838e-05
1.81776e-18
2.16904e-10
1.3625e-18
2.29826e-18
7.02042e-18
8.47831e-13
5.6328e-13
1.60203e-17
1.36969e-05
1.0093e-05
2.79435e-17
4.65328e-17
3.68796e-05
1.96003e-05
0.000207222
1.06016e-17
7.46463e-08
2.79941e-05
5.16195e-05
6.8917e-11
2.29703e-17
6.43037e-05
8.57475e-19
0.000253762
2.12714e-18
3.94e-11
3.89542e-11
5.89056e-19
5.71183e-08
6.50291e-18
2.38917e-05
7.87681e-19
1.59532e-18
3.28277e-19
1.31977e-17
3.97132e-18
1.3155e-17
3.39085e-07
2.09491e-06
0.00015113
1.25371e-18
2.95137e-18
4.57883e-05
3.75393e-18
7.37165e-19
1.58353e-18
8.52489e-18
2.7274e-18
6.46816e-06
1.01954e-18
2.72958e-17
2.15525e-20
3.61482e-06
1.06976e-19
3.39284e-18
5.0956e-18
3.54395e-06
4.2089e-18
6.71781e-06
0.000257119
5.70348e-06
5.89199e-06
2.93172e-05
2.36133e-18
9.6011e-19
2.49017e-18
3.34563e-06
1.95957e-06
1.02161e-19
3.513e-17
6.45588e-07
2.90743e-17
3.96759e-18
0.000370567
6.63002e-19
2.4501e-05
3.47879e-19
2.58939e-06
3.73776e-06
2.27268e-18
1.1393e-18
2.63182e-20
1.07697e-17
7.73659e-18
2.09334e-05
1.10656e-18
5.05665e-06
2.26183e-18
1.09537e-19
7.42848e-06
6.3862e-19
1.42491e-05
1.91468e-18
3.62462e-18
2.67868e-06
8.61162e-08
0.000155136
3.70379e-17
1.87745e-17
6.87014e-19
4.0613e-06
0.000198343
2.07886e-18
6.62411e-19
5.49619e-18
1.66226e-06
1.91094e-18
2.19284e-05
3.42189e-05
1.20525e-17
1.77602e-20
7.85128e-06
6.72097e-18
1.06451e-17
3.17737e-19
2.08395e-17
7.23045e-18
7.50293e-05
3.49165e-17
3.7834e-19
5.12254e-18
4.9666e-17
2.14719e-18
1.48762e-17
7.64112e-19
4.98083e-18
6.24074e-18
8.61164e-06
4.18161e-18
9.05514e-06
1.05741e-16
2.12188e-18
0.00064041
2.91321e-06
1.22623e-18
1.31043e-18
9.39282e-20
2.58998e-06
8.09203e-18
3.67114e-18
2.57271e-18
1.28504e-18
7.77484e-06
1.83111e-19
5.34162e-06
1.66732e-17
1.06867e-05
5.94078e-18
6.294e-05
3.55083e-18
4.02597e-18
2.31651e-05
5.3596e-19
1.51763e-18
2.96615e-05
3.0476e-07
4.08822e-18
4.01119e-18
4.07867e-05
1.12185e-05
6.92452e-06
8.96317e-07
1.94532e-06
1.88636e-05
1.04981e-06
5.46471e-06
5.73297e-19
3.11202e-05
9.37118e-19
1.72497e-18
1.42723e-18
2.09797e-17
2.34311e-17
1.11178e-05
3.40946e-17
1.07966e-17
4.52109e-18
2.91866e-09
1.03645e-08
5.44385e-17
2.56763e-06
5.37148e-17
4.65831e-06
6.44987e-19
1.32156e-09
3.972e-06
2.68492e-16
4.95586e-05
2.09651e-19
3.16654e-18
1.02735e-17
3.18339e-06
1.45246e-06
2.93306e-18
6.52497e-19
2.70369e-06
8.30497e-18
0.00072552
8.40826e-18
0.000112492
5.06967e-18
1.20477e-18
2.2831e-19
4.28619e-18
1.07899e-05
1.43861e-18
4.41794e-08
1.49546e-18
1.07526e-05
2.57023e-18
6.97289e-19
7.32071e-15
1.32707e-16
1.44395e-18
2.31602e-19
4.269e-18
2.84029e-18
4.751e-06
0.000212129
3.57846e-17
1.12271e-17
4.06041e-07
3.61838e-19
7.9919e-19
1.2979e-09
1.89158e-05
1.64138e-07
1.37748e-18
7.38557e-07
3.68941e-06
5.63701e-06
9.24098e-06
4.27539e-18
3.50582e-17
1.08311e-16
7.57518e-19
2.29998e-19
7.43447e-18
1.53495e-18
3.37833e-18
2.99626e-18
1.70822e-18
9.07107e-18
1.30495e-18
8.29676e-05
8.72553e-19
6.03595e-19
3.29914e-13
2.31465e-17
7.60193e-18
0.00121781
4.32249e-19
2.1678e-20
2.12501e-06
1.72641e-12
1.72463e-18
2.64125e-17
2.95646e-19
2.49493e-05
2.09549e-18
1.81612e-17
5.53562e-11
4.69832e-20
6.3809e-19
1.8345e-18
1.26391e-18
0.00012622
1.68525e-18
1.92393e-07
3.33409e-18
1.76494e-17
7.41998e-19
1.38794e-18
3.21473e-19
2.23921e-11
4.44814e-11
1.27173e-07
2.15611e-18
8.24527e-19
1.52047e-17
1.09187e-10
6.90327e-20
3.33235e-10
1.32398e-11
7.86943e-18
7.58727e-18
3.49792e-17
5.68597e-12
3.61338e-18
6.3601e-18
2.48727e-12
2.10261e-17
3.50749e-05
1.74823e-18
7.67204e-06
4.45757e-18
2.55399e-09
3.43125e-19
1.65581e-06
2.702e-18
4.74989e-06
2.82544e-05
3.90196e-18
2.88526e-06
1.53299e-08
1.49342e-17
1.18095e-05
1.79846e-18
3.06623e-18
8.18833e-19
9.32066e-19
3.22706e-18
1.01374e-19
3.12081e-18
1.18183e-17
0.000317069
1.08395e-17
1.92026e-18
7.42481e-19
1.37849e-19
4.88643e-19
3.561e-05
0.000922992
3.42733e-09
1.33325e-08
2.94991e-19
2.29582e-06
1.56917e-06
7.95465e-18
8.70289e-18
2.0567e-17
1.03627e-19
3.89285e-19
9.57404e-19
4.21309e-18
8.89162e-18
4.5555e-07
9.82405e-18
7.77032e-18
2.32773e-07
3.76296e-09
9.02421e-19
2.9639e-05
1.5558e-17
4.80178e-19
1.39281e-18
0.000197634
1.07782e-17
4.96426e-19
2.88047e-05
1.59315e-18
9.40804e-18
1.53423e-18
6.82668e-17
6.20604e-05
2.67215e-18
4.54149e-18