/*--------------------------------*- C++ -*----------------------------------*\
  =========                 |
  \\      /  F ield         | OpenFOAM: The Open Source CFD Toolbox
   \\    /   O peration     | Website:  https://openfoam.org
    \\  /    A nd           | Version:  10
     \\/     M anipulation  |
\*---------------------------------------------------------------------------*/
FoamFile
{
    format      ascii;
    class       volScalarField;
    location    "7.3";
    object      T;
}
// * * * * * * * * * * * * * * * * * * * * * * * * * * * * * * * * * * * * * //

dimensions      [0 0 0 1 0 0 0];

internalField   nonuniform List<scalar> 
111485
(
303.15
285.118
300.987
303.15
298.428
283.15
298.939
293.4
296.35
286.264
300.528
296.213
300.225
284.579
299.989
286.772
299.303
298.069
294.068
303.15
303.15
283.15
297.26
288.711
301.545
303.15
293.214
300.62
288.878
303.15
300.736
294.315
303.15
283.15
283.452
283.15
302.285
297.618
283.149
296.613
283.15
289.614
297.03
302.884
303.191
303.15
287.397
288.57
289.654
303.15
303.15
283.15
303.15
298.936
303.15
293.522
287.912
283.15
283.323
295.461
295.862
303.15
302.06
300.282
283.15
284.562
300.333
291.545
302.113
302.532
303.163
301.903
303.15
302.111
303.15
295.367
283.15
293.482
283.15
283.15
283.239
293.379
283.15
303.15
300.324
284.217
283.15
301.555
303.119
299.102
283.345
289.6
300.872
300.376
289.795
303.15
303.15
301.555
303.149
283.417
303.15
286.675
283.15
285.18
285.756
283.15
283.15
293.063
301.46
283.146
298.916
288.082
301.299
301.705
303.15
301.983
303.15
283.15
300.137
303.15
303.15
283.15
283.15
283.15
283.401
303.151
283.15
301.818
303.15
283.177
303.085
301.947
303.15
283.15
283.15
292.518
283.15
294.229
298.793
301.095
303.137
296.819
298.972
284.779
302.282
297.814
283.15
303.15
283.15
297.142
284.938
303.15
303.144
287.339
283.156
293.728
295.638
302.525
283.154
303.15
303.15
292.194
286.257
283.153
283.157
301.189
283.689
283.15
283.152
283.152
283.15
303.15
283.206
283.15
291.539
287.187
283.15
303.15
303.15
283.15
303.15
303.15
297.649
293.513
295.798
289.783
301.383
300.429
283.19
303.15
301.451
303.15
303.15
300.163
286.291
301.412
301.327
295.766
303.15
300.885
284.603
283.161
300.783
297.057
303.15
300.421
288.222
303.15
283.226
300.185
284.814
300.691
303.15
303.15
300.705
283.15
292.788
283.15
300.61
298.72
290.384
303.15
301.755
300.536
283.15
283.15
283.15
289.512
283.157
283.15
303.15
298.655
291.393
289.931
283.15
303.15
303.107
303.15
284.337
300.087
299.266
299.514
299.384
283.15
283.144
298.862
283.15
283.15
288.764
288.378
283.15
301.188
298.882
303.15
283.15
301.017
303.15
303.15
303.122
303.15
288.275
285.868
290.804
303.15
298.342
303.15
303.15
303.15
283.148
298.099
300.978
299.423
291.206
299.481
296.24
283.211
290.353
291.6
283.15
303.15
283.149
292.447
298.74
286.469
303.15
297.994
297.256
298.891
302.961
283.166
297.103
299.362
302.001
283.15
283.61
283.15
283.149
303.15
283.897
290.268
286.322
303.15
283.15
297.592
285.256
303.15
303.15
303.15
284.594
290.258
301.065
284.409
293.03
283.15
283.15
303.15
298.352
303.15
283.824
289.524
283.152
283.15
303.15
303.15
283.15
294.355
289.971
283.15
295.716
283.15
303.15
301.077
297.3
293.976
295.824
283.15
283.15
283.15
296.613
291.028
302.364
283.15
283.15
283.15
290.093
296.947
283.214
290.49
283.15
292.8
299.559
284.203
298.692
285.267
283.15
303.15
283.15
303.15
290.676
296.634
287.957
291.957
283.15
286.366
283.15
303.15
293.819
303.15
301.782
303.15
283.15
291.967
283.15
288.799
284.63
283.15
283.987
298.03
283.15
300.149
284.677
298.844
303.024
291.074
286.008
283.15
303.15
303.144
283.15
300.986
300.858
283.15
283.15
294.695
284.371
298.198
296.815
283.15
295.141
296.118
283.15
302.054
283.9
303.15
303.15
288.269
298.591
283.15
303.15
303.15
303.15
300.734
283.15
303.15
293.945
283.171
286.977
299.97
283.15
283.15
302.613
283.15
302.462
301.442
297.863
288.909
283.15
293.926
303.381
303.15
298.643
292.311
303.15
283.15
283.307
283.15
290.047
286.111
291.668
283.15
292.888
296.58
293.081
303.147
283.15
303.15
303.15
283.169
292.746
283.15
284.324
303.133
283.15
303.15
303.15
303.15
301.819
290.539
286.005
284.195
284.319
283.15
285.709
303.15
300.739
283.15
303.15
303.15
300.675
303.15
303.15
283.151
303.15
283.15
300.677
283.15
283.15
283.15
303.15
283.15
303.15
283.15
283.667
283.15
303.126
301.847
283.747
283.15
303.085
283.15
303.15
284.715
284.677
286.128
297.529
283.15
297.489
297.601
292.313
286.827
285.275
303.15
291.778
283.15
299.863
283.15
296.792
283.15
292.099
298.585
303.151
283.15
286.808
303.15
295.509
299.088
283.15
283.15
283.15
283.15
303.15
293.686
283.15
283.15
283.238
283.15
299.817
283.15
284.804
303.15
283.436
303.121
284.644
291.921
283.15
301.461
283.15
283.15
285.702
283.15
283.255
283.15
299.67
303.15
290.679
303.15
283.15
302.381
284.474
300.085
285.665
300.083
289.475
283.15
300.628
284.554
283.15
283.14
300.344
301.59
283.15
282.438
301.065
303.063
283.118
303.15
287.58
302.172
284.41
285.399
288.217
282.545
283.15
303.15
300.621
303.15
283.55
283.15
283.15
291.783
282.672
303.15
303.118
283.15
286.288
299.581
283.15
283.15
299.595
303.15
283.15
283.15
283.15
286.168
283.15
303.15
284.831
284.228
303.15
299.688
283.15
289.251
303.15
283.15
286.165
283.15
283.15
283.15
285.383
283.15
285.455
291.978
303.15
300.371
283.45
298.711
300.94
283.32
283.459
283.15
288.979
298.44
303.15
302.26
296.03
296.876
284.722
297.44
297.19
303.15
300.249
303.136
283.15
297.145
284.836
283.15
292.388
295.724
284.856
298.766
300.627
292.347
283.15
298.904
283.471
303.15
300.585
301.966
294.099
283.15
286.506
303.15
283.15
283.15
283.15
283.302
283.15
303.15
303.15
283.15
300.406
299.249
303.15
285.632
303.15
303.15
303.15
290.03
283.42
283.15
303.15
283.15
283.15
286.825
292.394
283.15
295.14
283.136
283.15
295.316
302.222
287.791
283.15
283.15
300.249
292.101
283.15
283.15
283.15
293.994
303.15
303.15
283.15
296.241
302.38
283.15
282.413
301.777
286.544
283.15
283.15
287.462
302.968
283.15
283.16
287.298
283.758
288.797
283.15
285.7
300.309
283.15
303.15
283.15
283.15
283.15
283.15
295.67
303.15
283.15
283.15
295.286
291.826
303.15
303.15
289.867
298.429
298.327
303.15
283.15
298.002
303.15
283.832
298.83
298.352
303.15
303.15
303.15
283.15
286.066
283.15
283.15
302.704
303.15
297.821
302.278
283.15
294.063
283.256
296.441
291.975
283.42
289.795
283.15
283.15
296.888
288.064
290.835
283.15
283.15
297.877
294.988
283.15
283.911
284.596
283.478
303.15
303.15
303.15
290.739
283.15
300.059
283.15
284.378
297.593
298.519
292.274
283.15
283.15
303.15
295.382
283.15
283.15
303.098
283.15
283.15
303.15
283.15
299.33
283.15
283.15
283.15
283.15
283.15
303.15
283.15
283.172
298.764
303.15
302.532
283.131
283.401
283.095
285.527
283.15
284.457
290.532
283.401
303.15
283.149
299.744
283.15
300.257
283.147
283.143
286.209
297.5
283.207
291.87
297.974
283.15
283.15
299.068
299.806
283.15
297.363
291.276
297.538
283.15
283.244
283.15
297.852
296.973
283.15
300.073
297.62
283.149
299.778
283.15
295.65
283.144
303.124
283.162
283.16
283.15
283.15
284.429
283.15
302.971
283.591
283.064
303.148
303.149
303.147
283.15
283.15
293.804
303.15
303.176
283.874
283.15
283.15
303.154
303.149
283.15
303.165
283.15
283.15
303.15
303.15
303.15
303.15
283.364
283.15
283.15
283.15
303.157
283.306
283.892
293.456
283.15
283.15
283.337
283.15
283.15
283.15
287.246
293.607
283.15
283.15
283.15
283.15
283.15
283.15
284.012
283.15
303.15
291.581
283.15
303.15
303.15
303.153
303.15
303.15
283.15
303.17
283.15
283.699
283.144
303.152
283.15
303.063
284.403
292.094
303.15
303.128
284.454
303.15
283.15
303.15
283.15
294.047
293.487
284.648
303.148
283.15
293.257
283.15
283.15
303.15
283.15
294.853
283.15
303.15
283.163
298.157
303.15
284.383
283.15
283.58
283.15
283.15
283.15
303.15
285.861
283.472
284.283
283.15
283.15
285.648
283.15
283.15
303.15
284.334
303.164
298.561
303.15
303.128
303.128
283.15
303.131
283.15
283.444
289.164
301.007
283.806
283.167
283.15
283.15
283.15
303.183
283.15
302.905
303.15
292.77
303.15
288.731
283.828
303.15
283.15
303.15
283.15
301.798
303.15
303.15
286.423
300.566
283.15
283.15
283.15
283.15
283.15
283.15
300.821
283.582
303.15
303.15
303.157
303.15
300.199
284.424
283.15
302.117
303.15
301.635
283.15
302.572
283.15
283.148
303.152
283.313
302.117
300.239
283.147
283.15
289.362
303.15
293.394
303.15
283.15
303.15
283.15
283.15
283.15
300.818
302.057
303.15
303.15
303.15
302.903
283.15
303.15
292.904
283.084
303.15
297.511
298.295
296.498
283.377
283.15
283.15
283.15
283.15
294.639
283.15
294.894
283.15
303.059
289.851
283.15
302.86
283.15
283.15
302.742
283.148
302.921
283.15
303.15
283.15
302.395
283.15
303.15
283.15
283.148
283.15
283.171
283.15
283.15
303.15
292.986
301.092
296.136
297.033
303.15
303.116
283.15
283.15
285.705
283.15
283.158
302.846
298.775
302.945
303.15
283.361
283.15
303.15
283.15
302.994
283.321
298.289
283.15
303.15
288.108
303.15
283.15
283.125
295.112
283.147
283.15
283.15
283.149
303.15
283.15
303.142
303.15
303.15
289.96
302.989
302.996
289.03
293.271
283.15
283.15
303.09
289.1
283.15
303.15
284.735
283.15
303.15
283.15
283.15
283.15
297.513
283.15
302.942
283.15
300.516
283.15
283.15
283.15
283.15
283.15
283.15
285.023
283.15
283.15
283.15
283.15
283.15
283.15
292.016
283.15
298.356
302.938
283.15
302.325
283.15
302.521
303.145
292.3
288.797
303.15
292.165
284.789
303.11
303.15
303.139
295.052
288.683
283.15
287.904
283.15
283.15
283.15
283.15
287.532
283.15
283.15
291.65
303.136
285.323
283.15
283.15
302.52
283.15
283.184
303.15
299.889
283.15
283.15
302.823
283.15
303.178
303.15
283.15
289.066
297.964
292.711
285.673
292.58
294.139
283.15
283.15
302.294
290.601
292.789
284.415
283.15
294.369
283.15
303.15
300.748
298.728
283.15
297.412
283.15
292.771
297.227
303.15
283.15
283.15
301.785
283.15
283.15
300.516
296.134
283.196
291.231
283.15
283.15
302.8
300.535
283.15
300.653
283.15
300.509
283.15
283.15
300.813
283.15
283.228
301.603
283.15
283.15
302.435
283.15
287.929
303.15
290.437
303.15
303.15
303.15
300.959
283.15
283.15
299.55
283.15
302.993
283.15
283.15
303.15
283.151
288.218
283.15
283.15
288.08
288.26
283.15
283.68
283.15
303.15
302.421
283.729
301.578
283.15
283.15
283.15
283.15
283.15
283.15
283.15
283.15
283.15
283.15
283.15
303.15
283.15
283.15
283.15
283.15
283.15
283.15
283.15
283.15
303.15
286.97
283.15
283.15
283.15
294.72
283.15
303.15
302.913
283.15
283.15
294.727
283.15
283.15
301.841
295.204
283.15
303.644
303.593
283.15
301.515
293.974
297.561
301.479
298.144
303.15
283.15
296.367
291.786
301.423
283.15
302.151
302.417
300.878
288.052
287.326
301.064
301.779
301.788
303.15
285.876
297.55
285.54
297.254
283.15
283.15
283.15
303.15
283.15
292.002
297.92
283.15
283.15
283.15
283.15
283.15
303.15
283.15
303.15
292.136
303.118
299.027
302.842
283.15
283.15
285.419
283.167
283.15
283.15
301.698
303.15
283.15
298.157
299.515
297.528
298.66
300.809
303.15
291.048
302.589
303.15
303.15
300.335
303.15
283.15
282.974
295.565
302.95
283.15
303.15
289.613
286.169
297.131
292.201
302.409
303.15
303.137
303.15
303.15
283.15
298.94
283.15
291.817
290.472
299.7
284.774
303.15
301.93
303.15
283.15
303.15
303.15
291.508
299.607
283.15
303.15
303.133
291.796
303.032
299.355
292.828
288.334
292.929
283.15
303.15
283.15
291.263
298.312
303.151
303.15
303.15
303.15
297.492
302.558
283.15
299.973
301.141
284.871
299.521
303.15
303.15
298.693
292.98
283.15
302.905
299.751
302.609
291.992
297.317
298.261
303.15
286.995
298.165
291.361
283.15
289.078
303.15
288.407
301.069
303.15
288.722
301.289
300.137
293.187
283.149
283.159
283.239
301.666
300.931
303.15
288.827
301.491
303.15
283.15
303.15
303.21
298.77
290.856
296.785
303.252
283.149
297.566
303.15
303.15
292.808
303.15
300.308
283.306
301.328
291.534
303.15
283.665
293.231
303.15
283.048
298.689
303.15
300.702
286.264
303.15
303.15
283.999
303.15
283.15
283.15
285.922
299.268
291.199
303.15
285.231
297.502
283.15
298.856
298.891
288.984
303.1
283.15
301.503
299.617
298.857
300.094
288.668
290.808
302.483
303.15
301.563
288.729
303.15
298.867
283.15
283.15
303.15
283.15
303.15
297.448
283.15
300.535
283.636
303.15
283.796
283.15
289.855
303.15
303.144
303.15
294.176
302.995
303.118
299.887
290.42
289.457
290.596
298.45
303.15
299.417
292.186
298.955
303.15
283.876
283.454
299.275
287.185
283.514
303.15
283.15
303.15
285.337
303.15
303.321
284.696
303.35
302.956
303.15
303.15
283.15
300.562
300.633
285.508
303.087
287.01
295.688
301.878
292.52
288.177
302.083
296.116
283.15
283.15
303.15
285.825
289.714
283.15
283.15
303.15
301.991
288.7
303.15
296.406
303.15
283.156
285.197
301.089
303.15
303.15
292.298
303.15
283.302
290.625
283.15
297.161
294.649
296.083
303.15
302.714
283.15
302.667
293.438
303.15
303.15
288.801
283.15
303.15
301.81
284.448
303.15
303.15
283.15
302.352
303.46
289.512
299.712
298.042
303.15
303.159
302.609
303.15
283.15
303.15
303.15
303.15
303.15
303.15
303.15
303.15
283.15
303.15
303.15
283.342
303.15
303.334
303.15
303.16
303.15
303.15
300.95
303.679
303.15
292.051
303.15
303.15
283.15
302.561
303.15
302.135
303.115
283.29
283.15
303.15
302.926
283.149
303.15
303.15
291.387
283.15
292.609
283.15
283.15
283.153
291.235
284.849
303.15
296.669
283.15
303.727
303.134
284.321
302.596
283.15
292.186
303.084
301.687
283.15
303.15
283.15
304.082
284.829
296.885
303.15
303.15
303.15
303.15
303.15
303.15
302.351
302.81
297.633
292.058
303.15
287.154
292.659
284.986
303.206
283.15
286.927
302.754
284.783
283.148
287.492
303.15
283.384
302.919
292.55
302.846
301.913
303.15
302.229
303.15
303.15
297.948
303.15
284.48
303.15
303.15
283.15
303.15
303.15
302.846
303.15
283.298
283.15
283.15
285.824
284.918
300.903
286.11
303.15
294.762
303.15
290.478
303.15
287.163
300.694
301.491
293.377
303.15
303.15
303.15
289.817
283.15
303.15
289.571
283.15
283.15
301.831
303.15
286.203
283.148
283.15
303.15
303.15
300.661
298.204
303.15
293.457
303.039
283.15
298.577
303.15
286.424
288.249
302.148
303.15
296.301
296.743
302.954
301.888
301.665
303.15
303.15
303.147
303.15
283.15
303.15
289.575
300.07
294.348
302.138
283.15
300.373
291.416
298.236
283.605
298.342
289.623
302.169
283.15
283.15
283.15
302.214
283.15
290.486
283.15
301.273
303.161
289.728
298.052
283.15
303.15
301.261
301.24
303.15
283.15
303.15
286.438
301.45
302.978
302.342
298.022
288.453
303.15
303.15
303.15
294.269
285.98
289.824
295.9
283.962
302.957
303.15
303.15
283.15
283.15
285.431
299.593
303.15
303.15
283.15
303.15
303.15
303.15
300.27
303.15
285.372
292.555
283.15
283.249
293.388
285.705
303.15
303.15
301.894
303.15
299.248
283.146
297.584
303.15
303.15
283.15
303.15
303.15
303.15
305.229
303.15
301.846
301.119
303.15
303.15
301.627
303.15
283.15
287.261
303.106
303.15
303.15
303.15
297.95
303.15
303.15
302.488
302.492
301.786
303.15
283.15
303.15
302.05
302.513
301.534
302.536
283.15
300.667
287.52
297.462
283.15
303.15
303.15
303.15
303.15
294.391
287.58
299.656
303.15
303.15
303.15
303.15
283.15
303.148
284.784
285.157
283.15
303.15
303.15
283.148
299.606
294.98
283.15
303.15
303.15
303.15
303.15
289.623
289.694
303.15
303.15
302.399
303.15
301.446
283.955
291.923
303.15
283.15
301.165
303.124
303.15
303.099
301.333
286.846
303.15
303.15
303.15
303.15
293.301
284.155
303.15
302.7
298.084
289.513
303.15
303.15
303.15
303.15
299.55
303.151
303.15
303.15
298.281
302.587
288.371
303.15
303.15
297.767
303.15
303.15
303.15
303.15
288.83
303.15
283.15
283.15
295.963
291.119
303.15
303.15
303.15
297.013
303.146
303.15
303.15
303.15
303.15
303.414
300.891
303.15
287.355
302.647
299.404
303.15
303.15
303.15
303.15
283.15
285.674
303.15
302.843
283.15
302.184
303.15
303.134
303.15
283.15
301.926
285.749
283.15
302.829
303.15
302.424
283.15
303.15
303.15
303.151
303.15
283.271
303.15
290.868
283.15
283.15
303.15
303.15
298.851
302.385
283.15
302.424
283.15
284.103
288.017
302.708
283.15
303.155
302.989
303.134
284.403
283.156
302.984
283.15
283.15
283.156
302.085
302.297
303.15
283.15
283.15
295.441
303.15
283.15
303.15
303.15
303.15
303.108
303.047
302.932
302.454
303.15
302.907
303.15
284.828
303.15
303.15
283.15
303.15
303.111
303.15
283.15
303.15
288.333
303.15
303.15
303.169
283.15
302.888
302.136
296.767
303.15
289.427
294.649
283.837
290.059
283.15
283.15
287.227
284.327
283.15
303.798
283.15
286.427
303.15
283.15
303.156
303.15
303.15
303.014
303.155
303.15
283.15
303.138
303.15
283.15
283.105
298.762
302.706
303.15
301.855
303.15
285.716
303.152
301.195
303.15
303.15
301.059
303.15
303.15
303.15
287.71
303.15
285.157
303.15
303.147
303.15
283.15
283.15
303.15
303.15
303.15
288.732
302.554
303.15
303.15
288.612
286.522
291.293
303.15
302.705
287.69
287.55
303.15
303.15
287.738
283.15
291.928
303.15
303.152
303.149
303.15
300.539
283.15
302.307
283.15
303.15
303.15
303.15
303.15
303.15
284.338
302.255
291.069
303.15
303.15
290.602
303.15
303.15
303.15
303.15
303.15
300.171
303.15
303.15
283.15
299.478
303.15
283.15
303.15
301.383
283.15
299.979
290.766
302.689
300.041
299.459
303.15
303.15
303.15
300.846
288.504
283.15
303.15
300.335
303.15
303.15
291.996
303.15
287.502
303.15
297.851
284.325
303.15
283.15
303.15
303.15
303.15
285.263
303.15
300.505
303.15
303.15
299.719
283.15
284.758
303.15
303.15
288.133
301.537
296.439
303.15
303.15
303.15
301.554
292.295
303.15
283.15
303.15
300.683
303.15
284.78
296.32
303.15
303.15
301.15
303.15
303.15
283.15
303.15
283.15
294.588
303.15
283.15
303.15
303.15
303.15
303.15
303.15
303.15
283.15
301.503
283.15
302.086
303.15
303.15
296.085
300.491
303.15
283.15
303.15
300.895
283.15
303.15
303.15
303.15
300.738
303.15
297.696
303.15
285.846
283.15
286.746
303.15
303.15
298.511
283.15
303.15
287.876
283.246
303.15
303.15
285.089
283.852
300.865
301.741
301.197
293.168
301.746
283.851
303.15
297.733
283.15
283.15
303.15
303.15
303.15
301.22
303.15
303.15
303.15
303.13
283.169
283.15
283.56
303.15
302.023
283.15
303.142
296.124
283.15
294.602
303.15
303.15
283.15
299.902
283.931
303.15
283.15
299.928
303.15
297.67
303.15
295.328
303.15
283.15
303.15
283.15
299.431
283.15
283.227
283.15
286.213
303.15
303.15
283.15
283.15
303.15
303.15
303.15
303.15
284.886
284.759
283.15
303.15
283.233
283.15
283.15
303.154
289.888
283.539
283.15
301.51
284.882
300.468
288.194
303.15
303.15
303.15
303.15
283.15
283.15
283.15
303.15
283.15
283.15
303.15
283.15
297.297
283.15
303.15
283.15
303.15
303.15
283.335
283.15
303.15
301.952
303.149
303.15
303.15
303.15
288.736
283.15
303.15
303.149
283.15
303.15
303.15
303.15
295.247
283.15
283.182
303.15
303.15
303.15
303.15
303.15
303.149
303.147
284.107
303.15
283.15
303.15
303.149
303.15
303.148
303.149
283.15
283.15
283.15
303.15
303.15
283.15
303.149
283.15
287.719
283.15
301.822
283.15
303.154
303.15
284.614
283.15
284.456
297.398
303.15
284.698
303.173
303.15
297.405
283.15
303.15
303.15
303.15
303.15
283.15
303.15
303.15
299.171
283.15
303.15
303.15
303.15
303.15
292.329
290.453
303.17
283.165
303.15
301.818
302.319
303.15
283.15
283.15
303.15
303.15
303.15
283.15
283.15
283.825
303.15
303.15
303.196
303.151
283.15
288.874
303.15
283.15
303.15
288.088
303.15
283.15
302.123
283.15
283.15
283.15
303.15
299.691
303.15
303.15
303.15
283.15
284.51
293.614
295.235
289.564
303.121
303.019
283.15
283.15
301.034
283.695
283.15
303.149
303.15
303.15
283.15
294.567
303.15
283.15
302.98
303.15
303.15
283.798
303.15
303.15
288.421
289.568
303.15
283.15
303.15
283.15
303.15
303.15
303.15
303.15
283.95
303.15
303.15
303.15
302.929
303.15
303.15
283.15
283.15
283.15
283.15
302.943
283.15
283.15
300.974
303.15
284.776
284.937
303.15
301.132
303.15
283.15
303.15
283.15
283.15
303.15
303.15
303.15
302.665
303.15
303.15
303.15
283.15
303.15
283.15
286.379
303.15
303.15
291.626
303.15
283.15
283.15
302.422
303.15
303.148
283.15
303.194
286.673
283.15
283.15
299.216
283.15
283.15
303.048
303.161
293.337
303.166
303.151
303.152
283.15
283.15
302.647
283.456
285.846
300.85
283.158
283.15
291.052
301.571
301.469
283.15
300.222
290.701
300.145
302.208
302.751
284.691
295.502
299.22
286.263
293.325
300.109
303.15
297.952
297.589
302.79
283.662
292.381
301.148
287.34
303.15
301.063
303.15
300.721
301.5
283.636
284.986
303.15
283.15
302.279
301.693
283.146
303.173
288.558
302.679
301.85
300.832
303.15
303.23
301.137
295.1
300.425
288.984
302.913
301.633
302.189
302.276
284.218
302.504
301.6
283.179
303.15
302.896
303.15
303.15
302.1
302.007
294.296
303.15
284.675
292.31
292.343
300.948
303.15
284.017
285.199
284.393
303.15
298.792
303.15
296.373
295.396
300.761
303.142
303.15
303.15
301.949
301.267
302.786
303.15
292.626
302.746
289.978
283.15
298.35
294.008
303.15
300.507
283.15
283.203
283.15
302.578
303.099
303.15
302.981
298.405
283.148
300.508
302.225
295.331
283.538
295.871
297.086
283.463
303.133
284.744
296.316
283.32
296.892
300.512
300.257
300.365
302.006
289.865
301.582
303.15
302.72
302.651
302.652
296.494
302.885
283.15
302.018
293.435
303.15
283.435
286.845
301.201
302.6
290.535
284.828
287.718
302.625
296.395
303.15
303.15
295.024
283.15
292.692
283.433
303.15
290.571
290.326
283.915
303.15
297.298
298.491
284.231
301.245
294.181
290.182
300.54
303.107
303.15
303.15
283.534
302.614
283.35
285.804
303.15
303.019
303.037
303.15
285.424
300.795
297.867
283.246
299.58
302.375
300.519
286.915
283.15
303.106
301.824
283.74
283.139
303.15
303.073
303.15
303.15
284.183
302.531
296.374
283.035
283.153
303.15
283.15
302.95
303.044
302.505
301.415
303.15
283.15
283.15
301.823
301.879
283.215
295.872
303.15
303.15
301.622
285.502
283.259
301.685
301.785
301.733
284.412
303.15
283.15
298.466
297.771
303.15
302.704
302.086
284.739
284.981
302.117
303.054
303.15
298.148
284.438
283.15
303.15
300.581
301.227
302.022
289.635
302.079
285.668
300.156
300.27
290.351
297.554
303.15
303.15
300.946
284.47
302.097
283.151
300.516
301.715
283.626
288.312
302.425
283.15
283.15
283.029
303.15
303.15
299.948
298.947
302.291
283.147
283.15
283.94
283.151
283.15
283.152
303.076
300.94
299.19
295.91
283.369
303.098
300.152
303.15
283.15
302.562
289.24
300.79
292.706
283.506
303.061
283.148
283.15
302.838
301.218
302.617
283.156
291.317
284.88
303.15
284.264
301.046
283.15
283.31
284.948
284.197
283.15
283.15
301.642
283.15
289.402
302.532
302.707
301.782
283.483
298.401
290.094
283.15
303.338
292.108
283.15
283.15
283.15
303.15
301.204
302.419
299.182
301.475
299.922
288.875
283.155
291
290.169
303.06
291.117
300
292.08
283.15
286.301
301.092
301.548
283.15
283.983
299.647
283.15
303.15
283.188
301.287
303.15
284.023
302.261
303.021
303.15
283.15
292.815
303.153
301.699
283.15
283.15
283.15
302.201
297.597
303.143
302.198
303.166
303.15
288.402
303.166
290.453
300.242
300.202
296.612
283.156
301.709
283.15
290.607
301.423
289.487
290.501
299
300.709
301.607
287.188
291.151
285.034
283.172
302.222
286.14
283.149
283.144
300.222
283.078
300.316
287.02
296.062
299.452
289.231
299.295
283.121
299.136
283.15
290.015
289.164
298.677
283.331
283.15
300.583
283.15
302.802
283.15
303.15
286.498
286.501
283.15
299.011
298.564
287.067
303.15
303.15
301.739
289.8
303.003
283.73
301.587
287.113
303.147
284.199
288.227
303.15
301.435
283.15
283.15
287.576
287.048
283.145
285.261
301.507
286.26
301.179
303.15
285.127
301.755
291.215
303.15
303.15
301.627
302.051
303.15
293.055
294.292
283.684
296.422
286.813
290.044
303.15
302.797
297.033
285.032
283.15
287.736
291.938
299.666
283.164
283.753
282.939
301.956
303.118
283.151
303.134
303.15
300.577
293.097
298.835
293.874
283.15
291.95
296.023
285.61
283.211
291.727
283.15
300.264
303.164
292.578
284.104
303.144
291.868
298.635
288.263
300.353
291.337
287.347
283.15
303.142
285.357
289.926
293.508
283.15
283.15
283.15
303.141
283.15
283.137
286.449
303.15
283.15
303.166
283.172
291.117
289.059
303.508
302.913
289.89
303.15
297.003
303.175
302.008
287.286
283.15
292.947
303.145
303.094
286.207
283.15
283.15
283.476
286.041
303.055
303.144
287.528
289.497
283.484
283.162
289.869
293.225
303.15
283.15
303.097
303.15
302.335
285.024
302.339
303.094
284.063
283.776
284.042
302.853
302.186
297.399
293.998
303.071
291.306
291.041
303.15
303.098
302.588
285.45
283.38
303.15
285.955
283.387
302.932
301.669
302.181
283.15
300.343
301.856
303.15
302.16
285.419
303.15
297.915
303.15
283.15
300.689
302.687
286.351
302.493
283.15
285.18
303.011
283.15
302.312
285.382
294.896
284.347
303.15
303.018
302.874
286.52
283.15
287.138
284.259
289.807
285.746
302.256
303.15
283.15
283.15
293.135
283.15
301.049
302.167
290.37
283.15
294.032
283.15
303.15
283.15
300.057
298.581
283.151
285.286
301.723
303.078
303.156
291.872
294.219
301.212
283.212
301.798
283.145
303.15
303.142
299.141
283.15
300.98
294.794
303.15
300.948
287.325
301.948
284.905
288.215
283.15
302.226
287.749
298.427
303.076
283.15
303.15
291.657
302.167
283.076
283.147
286.763
298.358
303.149
284.507
301.037
301.008
301.261
303.153
299.9
287.663
284.933
301.59
299.903
283.73
283.103
303.16
303.149
303.15
297.361
283.163
283.15
303.15
303.149
289.923
298.908
300.276
287.797
302.802
303.15
286.434
301.555
303.15
300.955
283.8
301.461
303.15
284.547
301.38
295.504
302.766
303.15
303.15
285.182
295.076
296.382
287.4
303.15
303.15
283.15
287.223
302.403
296.171
303.15
285.562
303.15
303.15
300.446
288.726
283.15
295.557
295.883
299.062
283.15
303.15
292.673
287.232
303.15
297.957
300.506
300.412
303.15
303.15
303.15
300.221
298.328
302.801
299.889
283.15
292.875
287.681
290.608
300.572
303.15
303.15
300.757
303.097
286.569
296.106
303.15
303.147
283.15
286.442
298.924
285.585
303.15
303.15
283.343
303.123
303.15
303.15
283.15
290.518
303.15
303.15
284.58
299.277
283.15
303.15
284.623
301.327
300.169
286.994
294.925
303.15
283.495
303.15
303.15
283.31
300.531
290.397
300.398
303.15
303.13
302.179
292.669
299.795
301.358
284.452
283.455
300.832
298.39
303.15
302.75
284.134
299.73
301.375
287.699
303.15
297.411
301.403
301.49
301.53
292.877
303.15
283.15
299.183
283.15
283.15
287.752
283.15
284.007
283.15
283.15
283.15
283.15
302.755
288.134
302.702
283.15
295.685
290.931
284.735
283.15
303.15
302.677
301.736
303.165
302.636
283.15
294.811
300.264
290.162
283.15
283.15
299.813
285.932
283.15
283.15
303.149
290.573
283.15
287.146
303.149
303.152
284.314
283.15
288.201
292.527
300.783
294.575
302.958
285.628
302.5
295.239
286.271
283.15
283.537
291.623
303.075
289.132
302.654
283.15
292.358
287.748
301.015
301.247
284.892
303.107
284.907
297.064
302.983
303.147
285.129
303.145
303.004
293.3
302.673
283.15
303.15
303.15
294.759
291.043
283.155
301.098
284.682
284.151
284.616
303.145
288.346
300.457
283.15
283.15
302.504
303.15
294.561
302.9
303.182
299.811
303.221
302.883
283.15
301.286
302.878
283.15
303.15
301.304
303.15
284.308
298.761
283.164
291.522
283.15
287.577
303.013
299.747
283.15
303.024
290.891
301.19
303.126
303.078
283.15
283.15
301.926
301.995
283.798
302.81
302.415
302.37
303.141
283.15
293.711
283.15
302.786
287.86
302.987
303.15
283.15
302.821
285.115
291.465
302.04
283.15
302.581
301.988
301.563
302.482
303.047
303.209
303.01
303.15
283.15
301.508
297.807
303.087
303.15
289.918
284.915
303.15
283.15
285.307
303.184
303.165
302.917
301.13
284.261
303.097
290.64
294.197
303.148
289.037
303.164
283.15
289.826
283.15
299.951
298.119
284.773
288.171
299.606
296.629
295.272
299.159
293.756
303.153
293.808
296.379
283.16
299.37
293.829
303.15
298.896
299.126
303.15
291.174
303.172
301.67
303.15
286.917
285.984
302.799
289.654
283.15
283.15
300.346
301.12
283.719
283.15
303.15
300.217
302.317
300.606
299.856
302.784
292.556
289.622
286.631
292.464
284.304
290.388
283.304
295.671
290.411
293.906
287.08
284.281
303.163
283.272
303.147
285.597
300.71
283.151
300.369
298.359
288.726
302.092
285.396
299.064
283.15
302.952
283.154
283.115
287.687
299.65
303.15
300.332
303.018
299.909
302.759
303.15
301.25
284.952
294.911
302.042
303.149
283.707
283.15
290.29
285.236
285.751
303.131
303.149
283.15
283.15
283.176
303.15
293.432
303.15
303.15
294.367
303.433
303.15
300.401
303.15
303.15
293.636
290.59
303.15
289.815
302.053
289.542
303.15
303.15
285.951
283.334
290.307
303.224
303.15
303.145
285.469
283.248
283.15
288.97
287.594
303.15
284.303
303.15
303.15
303.132
287.322
303.15
303.147
283.277
303.152
302.661
287.903
283.152
283.599
297.305
290.713
303.15
285.906
284.428
301.319
287.103
302.209
290.56
293.839
303.15
303.15
284.009
303.148
302.945
295.836
302.941
302.739
287.164
283.15
285.316
283.218
297.114
302.584
285.373
303.15
283.795
286.708
303.125
283.176
303.15
286.384
283.15
300.095
303.15
299.711
299.89
283.305
283.359
302.322
290.831
301.317
303.15
301.387
301.737
303.15
303.15
298.32
293.404
283.15
288.77
303.15
295.181
283.358
303.15
296.88
298.69
288.972
303.15
302.756
294.196
295.347
284.463
303.161
298.664
296.1
283.979
303.124
302.799
287.367
298.413
289.796
290.781
289.721
283.15
302.944
303.152
303.15
303.173
293.066
296.286
302.975
301.283
303.15
284.445
303.15
303.041
302.856
303.15
293.535
296.204
303.15
285.376
303.095
303.15
303.09
303.157
286.058
293.308
291.095
288.389
293.37
303.15
301.201
291.406
295.342
293.413
303.141
303.15
300.545
303.189
284.241
303.189
303.15
303.15
303.143
303.15
284.94
303.15
284.224
303.146
303.15
290.216
303.144
292.446
295.494
303.134
295.301
285.98
283.446
303.125
302.934
284.676
283.15
297.086
303.15
285.502
302.912
302.033
303.018
298.391
287.055
303.15
298.664
289.885
299.336
283.15
283.614
303.15
303.145
303.19
294.032
303.15
292.415
289.325
303.195
303.15
284.792
298.743
293.199
299.569
302.471
301.575
300.371
303.15
284.714
296.91
302.361
285.584
298.309
292.262
284.466
291.627
303.15
286.651
291.803
290.104
299.423
303.15
286.441
284.086
303.15
302.424
288.127
302.094
283.15
303.15
299.814
301.688
288.988
301.979
301.902
301.805
303.15
289.311
285.128
301.956
302.231
297.127
303.15
283.201
303.15
301.979
303.15
302.8
303.15
291.652
303.15
296.487
283.15
289.437
303.15
283.15
292.159
301.433
300.397
289.184
300.477
303.15
302.49
303.15
302.362
285.206
303.15
300.384
290.381
303.15
300.788
303.15
303.15
293.154
283.15
285.544
293.21
300.906
303.15
291.154
293.843
288.162
289.637
288.096
299.197
300.236
300.778
287.367
287.092
301.244
283.15
303.15