/*--------------------------------*- C++ -*----------------------------------*\
  =========                 |
  \\      /  F ield         | OpenFOAM: The Open Source CFD Toolbox
   \\    /   O peration     | Website:  https://openfoam.org
    \\  /    A nd           | Version:  10
     \\/     M anipulation  |
\*---------------------------------------------------------------------------*/
FoamFile
{
    format      ascii;
    class       volVectorField;
    location    "7.3";
    object      U;
}
// * * * * * * * * * * * * * * * * * * * * * * * * * * * * * * * * * * * * * //

dimensions      [0 1 -1 0 0 0 0];

internalField   nonuniform List<vector> 
111485
(
(2.89918 -2.90024 0.00352316)
(8.46092 -0.0218358 -0.049599)
(8.33954 0.0199543 0.0259472)
(2.90042 -2.90115 0.000176983)
(8.66387 0.0380861 -0.00316201)
(3.03423 3.03256 0.000235687)
(8.51566 0.0250475 0.00187034)
(8.74653 -0.0243281 0.0122263)
(8.51927 -0.00512556 0.00612699)
(8.71881 -0.0943833 -0.0410668)
(8.38929 0.0203937 0.024835)
(8.77678 -0.021551 0.0409006)
(8.26713 0.00683987 0.0185413)
(8.34916 -0.0180764 -0.0615346)
(8.46403 0.0333835 0.0176482)
(8.64155 -0.0578444 -0.0466703)
(8.50878 -0.00886411 0.0123874)
(2.98987 -0.227426 0.447027)
(8.6864 0.0248456 -0.0191847)
(2.87965 -2.87574 -0.00147747)
(2.88474 -2.88442 -0.00333624)
(3.04176 3.0408 -0.0002125)
(8.59146 0.0296481 -0.00916396)
(8.72511 -0.0582928 -0.0172475)
(8.54929 0.0337034 -0.0102237)
(2.92313 -2.91008 -0.00289094)
(8.81711 -0.0423703 0.0458252)
(8.34635 -0.0124583 0.00289476)
(8.71188 0.0151191 -0.0198462)
(2.88998 -2.89141 0.000226461)
(8.78158 0.143871 -0.0377231)
(8.67348 -0.0188123 0.00245977)
(2.87776 -2.88398 0.00425884)
(3.0382 3.04437 -0.00744456)
(3.04681 1.27056 0.487043)
(3.05711 3.07753 -0.044716)
(8.73935 0.143727 -0.0579945)
(8.45302 0.030836 0.0739276)
(8.70188 2.63447 0.147372)
(8.67715 0.0421591 0.00355391)
(3.00085 3.02809 -0.0212138)
(8.77265 0.010408 -0.05032)
(8.66789 0.044044 0.0151278)
(8.36133 -0.0510641 0.00129346)
(8.74507 -0.153747 -0.0790431)
(2.90807 -2.88656 0.0151627)
(8.77228 -0.0415182 0.0416874)
(8.71275 -0.0540039 -0.0165001)
(8.77319 0.00423847 -0.0381162)
(2.88348 -2.84927 0.0163556)
(2.86805 -2.8418 0.0182323)
(3.45493 2.90672 0.0501104)
(2.85924 -2.84796 0.00948756)
(8.75912 0.0395888 -0.0734264)
(2.8517 -2.83997 0.000764353)
(8.65811 0.0230242 -0.00780875)
(8.66118 -0.0367524 -0.0176354)
(3.04167 3.03586 0.00174563)
(7.89959 -0.0178296 -0.138781)
(8.70128 0.0355094 -0.00507113)
(8.69983 0.039382 -0.00353756)
(2.89089 -2.89649 0.00369033)
(8.06631 0.00862706 0.0529014)
(8.80203 -0.0227853 0.0679627)
(3.13639 2.84274 0.00465575)
(7.94072 0.0179901 -0.0152074)
(6.10537 -0.488761 0.215294)
(8.72819 -0.0325345 0.0123169)
(7.87269 0.00341463 0.0231836)
(7.44968 -0.0150535 0.0047627)
(8.4216 0.0510476 -0.0429943)
(7.81104 -0.00891427 0.0245872)
(3.13 -2.81867 -0.065042)
(7.97906 0.0148556 0.0619568)
(2.89699 -2.896 -7.53443e-05)
(8.68579 -0.0202351 0.00928418)
(3.04099 3.04096 -0.000577366)
(8.76301 -0.0189085 0.046292)
(3.04 3.03823 -0.000434257)
(2.73748 2.6708 -0.0910131)
(8.44568 -0.1298 0.0878788)
(8.7218 0.0350371 0.00697684)
(3.02972 3.02248 -0.00021215)
(2.89743 -2.89753 0.00167341)
(8.21434 -0.00181488 0.0159718)
(7.87555 0.0218266 -0.0320335)
(6.76111 4.38816 -1.17866)
(8.64302 0.102133 0.00948382)
(8.32685 0.214903 0.183924)
(8.43064 0.0104262 0.0253801)
(8.91684 0.177904 -0.113387)
(8.67229 -0.0150086 0.0143319)
(8.11245 -0.0133202 0.0321974)
(8.25026 -0.00929433 0.00806397)
(8.78334 0.0268552 -0.0547384)
(2.8974 -2.89697 -0.000705882)
(2.89247 -2.8913 0.00155761)
(8.63973 0.0953765 0.0298067)
(8.90449 -1.76194 0.125522)
(8.09413 0.0298398 0.0527044)
(2.89722 -2.89771 0.00148428)
(8.68784 -0.0470251 0.00491105)
(3.05401 3.05913 0.0167417)
(8.6169 0.000505763 -0.00488507)
(8.53984 -0.0445743 -0.0547039)
(2.98333 2.66839 -0.063035)
(3.04072 3.03966 -0.000552283)
(8.68011 -0.0231374 -0.00231048)
(8.02224 -0.0442704 0.0100554)
(7.68883 -0.22858 -0.243518)
(8.21299 -0.00730938 0.0177291)
(8.62426 0.0123248 -0.00472944)
(8.04525 -0.00535595 0.0322711)
(7.9202 -0.0415153 0.0176107)
(2.92507 -2.90935 0.00261745)
(7.6192 -0.00705657 0.0229991)
(2.9087 -2.89955 -0.00345872)
(3.05439 3.04141 0.0126304)
(8.47749 0.0328331 0.0244862)
(2.89975 -2.89759 0.000989726)
(2.92441 -2.90886 -0.00140244)
(3.9997 3.14663 0.186914)
(3.00898 3.02183 -0.00563951)
(3.04721 3.03992 -0.00722788)
(8.2859 -0.0206336 0.0401591)
(2.3092 -1.62668 -0.434377)
(3.81258 3.27959 0.115643)
(7.69473 -0.00217941 0.0371399)
(2.89705 -2.89586 -0.00102277)
(8.72418 0.654867 -0.237051)
(8.71111 0.16931 -0.0873627)
(8.62394 0.0978635 0.0292873)
(2.88428 -2.87698 -0.0141759)
(3.91697 3.40614 0.351734)
(3.65432 3.26115 0.153834)
(8.70881 0.0261 -0.0160099)
(3.04303 3.04281 -0.000881818)
(8.643 0.0202623 0.00134773)
(8.58795 0.0400816 0.0234631)
(8.44258 0.0383007 0.0365333)
(6.61791 0.000711878 0.0275127)
(8.65647 0.0448408 0.0105396)
(8.58336 0.0444502 0.0280634)
(8.18289 0.00835676 -0.0340473)
(8.55378 -0.0164476 0.00805095)
(8.45724 -0.00466886 0.0210846)
(3.04366 3.04396 -0.000618021)
(2.89728 -2.8986 0.000281151)
(3.03522 3.03692 0.00631577)
(8.66073 0.0384393 0.0071646)
(8.18711 0.0138788 -0.0309196)
(2.88676 -2.88539 0.00168202)
(5.65317 -0.0331092 0.0573306)
(8.44437 0.0399183 0.0192412)
(9.24981 0.371961 0.162549)
(8.70752 0.0257664 -0.0167668)
(8.66796 0.0266026 -0.00651965)
(8.03585 0.00290344 -0.0159811)
(9.3348 0.455484 0.112192)
(2.88125 -2.90842 0.0112362)
(2.89534 -2.89803 0.00291351)
(8.6926 0.0248146 -0.0164978)
(8.51617 -0.0301671 -0.0312894)
(9.39627 0.513532 0.122166)
(9.26755 0.449529 0.168364)
(8.06058 0.0113859 0.0411001)
(8.6738 0.107659 -0.0393541)
(3.00292 3.02804 0.000508188)
(9.50747 0.635693 0.150822)
(9.0691 0.457107 0.139682)
(3.0387 3.04057 0.00093695)
(2.89195 -2.89132 0.000250489)
(6.92397 0.0069186 -0.0573564)
(3.04194 3.04329 0.000415535)
(8.62785 -0.0186086 -0.00349732)
(8.305 0.00431953 -0.0191066)
(3.04119 2.96821 -0.0167879)
(3.13345 -2.876 0.0314916)
(2.891 -2.87654 -0.00459691)
(2.99732 2.83051 -0.0294148)
(3.14907 -2.90064 0.0498014)
(2.89494 -2.89675 0.00270427)
(8.63959 0.0335671 0.00937734)
(8.65469 0.020394 -0.0162995)
(8.62359 0.0262998 -0.00893821)
(8.51296 -0.0258146 0.0304258)
(8.20658 -0.020442 0.00687465)
(8.2348 0.0138157 0.0255759)
(7.3075 0.0946931 0.00977073)
(2.89193 -2.88274 -0.00117695)
(7.97468 0.00114343 0.00994577)
(3.1256 -2.89937 0.0317375)
(2.91844 -2.9235 -0.00145271)
(8.30293 0.0157362 0.0290888)
(8.72278 -0.105027 -0.0389485)
(8.64055 0.0167163 -0.0397049)
(8.29746 -0.00935261 0.0106022)
(8.44707 -0.00596502 0.00974139)
(2.89184 -2.88719 0.007219)
(8.28658 -0.0361707 0.00815362)
(8.26108 -0.00840664 -0.0517593)
(5.78589 1.84709 0.235707)
(8.4686 -0.0684802 0.00576034)
(8.58919 -0.0139709 0.00796406)
(2.90574 -2.88948 -0.00469862)
(8.26783 0.0207121 0.0292783)
(8.67923 0.020311 -0.00709225)
(3.17893 -2.8646 0.0146152)
(8.32886 0.0208244 0.0318566)
(8.74306 -0.00742339 0.045081)
(8.18258 0.00905589 -0.03531)
(8.24367 0.0227022 0.0390015)
(3.14595 -2.90969 0.0407175)
(2.89026 -2.89048 -0.000828177)
(8.24133 0.024175 0.0418929)
(5.40673 3.39503 -0.335098)
(8.8424 0.0386563 -0.0862918)
(3.04046 3.04143 -0.00184722)
(8.29316 0.016795 0.0332367)
(8.30004 0.00595821 0.00449702)
(8.79333 -0.0280233 0.054861)
(2.89942 -2.89808 0.00116288)
(7.74592 -0.00310866 0.0201827)
(8.68915 0.12537 0.065503)
(4.77878 3.21111 -0.350575)
(3.04205 3.04251 -0.00221666)
(3.03883 3.04047 0.000899051)
(8.88365 -0.0558961 0.0852735)
(8.29388 0.196159 -0.0243736)
(3.19595 2.69973 -0.0629738)
(3.59406 -2.78392 0.113707)
(8.32515 0.00824764 0.0146574)
(8.5952 0.0144062 -0.000976402)
(8.68001 0.0191614 0.00815515)
(3.15003 2.74213 -0.0807264)
(3.05796 -2.81377 -0.0100935)
(8.35949 0.10038 -0.119587)
(2.8966 -2.89648 0.00172408)
(7.92848 0.0103359 -0.0502531)
(8.23228 0.0052428 0.0345912)
(8.32185 0.00393057 0.0188166)
(8.33217 0.0168952 0.0214247)
(8.36562 0.00944717 0.0283874)
(3.03048 3.0311 0.00944077)
(6.3025 -0.0179291 -0.242704)
(8.46492 0.0189182 0.0328927)
(3.02579 3.03102 -0.00376956)
(3.04082 3.04268 0.000249612)
(8.82181 -0.106847 -0.00996185)
(8.62045 0.0390372 -0.012892)
(3.11351 2.65271 -0.0829703)
(7.85417 -0.00305057 0.0214387)
(8.44795 0.0240107 0.0223539)
(2.89897 -2.89757 -0.000885712)
(3.84418 3.62289 -0.0236211)
(8.68164 0.0801699 -0.0353996)
(2.91019 -2.87237 0.0015477)
(3.21965 -2.28423 -0.0544695)
(4.42785 -1.54529 -0.156214)
(2.90211 -2.89379 -0.00147394)
(8.49731 -0.0147878 -0.0166989)
(8.26146 -0.0133862 -0.0160632)
(8.60374 0.0142868 -0.0233104)
(2.89535 -2.89578 -0.000237285)
(8.51558 0.0238849 0.0200852)
(2.90037 -2.90111 0.000162439)
(2.89962 -2.90064 0.000765245)
(2.89176 -2.88049 0.00477433)
(5.81685 0.0223816 -0.0903017)
(8.74647 -0.0420864 0.0489037)
(8.32457 0.0308964 0.0429598)
(8.48327 0.0283946 0.0137474)
(8.7775 -0.0501466 -0.00200282)
(8.44373 0.0128336 0.0145465)
(8.6547 0.0315378 0.0109903)
(8.71817 0.148412 -0.0142996)
(8.53206 0.0116835 -0.00374943)
(8.60477 0.0149434 -0.00450189)
(3.0934 3.0439 -0.00150259)
(2.88798 -2.88817 -0.00375392)
(5.31664 0.0348497 -0.130746)
(8.65337 -0.0192705 0.00239031)
(8.7242 0.0664703 0.0710904)
(8.23791 -0.0110897 -0.0133431)
(2.89998 -2.89834 0.000823028)
(8.60894 0.0275503 0.0160408)
(8.64463 0.0442649 0.0213429)
(8.47024 0.0194141 0.0109013)
(7.45011 -0.00762182 -0.0402058)
(7.80855 -0.0899957 -0.195242)
(8.59509 0.0267069 0.00992882)
(8.45951 0.0239177 0.0152391)
(8.6151 0.066917 -0.0423511)
(3.04104 3.04139 0.00052146)
(7.9053 0.0440913 -0.00278444)
(3.03995 3.04027 -0.00100181)
(2.46782 1.87866 -0.393905)
(3.26654 -2.09015 -0.212962)
(8.95451 -0.0810427 0.116805)
(8.78007 -0.0501964 -0.00163592)
(8.57145 -0.00308842 0.00136014)
(2.90191 -2.8944 -0.000983658)
(3.02783 3.04556 0.0250372)
(8.59858 0.0297637 0.0146667)
(8.23329 0.0179817 -0.0114743)
(2.88848 -2.88777 0.000625661)
(2.90012 -2.89795 0.00240623)
(2.83101 -2.84703 0.0212664)
(8.16879 0.0111634 -0.00444362)
(8.56635 0.00920595 -0.00892516)
(8.17606 0.00184858 0.0302516)
(7.91291 0.0135688 -0.0423914)
(8.73278 0.0203233 -0.0207301)
(3.48239 2.98957 0.0836075)
(3.03454 3.04184 0.00551095)
(2.89674 -2.89313 -0.00131185)
(8.56478 0.0329572 0.022944)
(5.54971 -4.70172 -0.334557)
(8.1594 -0.00957819 0.0120678)
(8.88976 -0.0622162 0.1958)
(7.16023 0.0054859 -0.148549)
(3.04207 3.04175 -6.6591e-05)
(2.8951 -2.89821 0.0021651)
(2.89981 -2.90099 -0.00143084)
(3.8317 3.21435 0.197505)
(8.67339 0.0262717 -0.00328675)
(8.74857 -0.0501447 0.00697801)
(3.04627 3.05409 0.000985499)
(8.61629 0.0237701 -0.00178367)
(3.21153 2.60262 0.183683)
(2.90262 -2.86915 -0.00685005)
(8.82898 -0.0300798 0.0721331)
(8.59359 0.0318302 0.0157945)
(8.78198 -0.0114806 0.0210791)
(8.61979 0.0244291 0.000138645)
(2.92317 2.59143 0.157717)
(3.79276 3.2647 0.208353)
(3.03405 3.03784 -0.00438412)
(8.60611 0.0301146 0.0114705)
(8.59365 0.0270228 -0.000578933)
(8.75413 0.156848 -0.0529932)
(3.00653 2.99954 0.00550565)
(6.00592 5.31664 -1.27312)
(8.20756 0.0814509 0.0745661)
(8.75418 -0.0412604 0.0208785)
(8.61485 0.0315529 0.0196512)
(8.19834 0.852913 -0.0687513)
(8.73225 0.0195719 -0.0248001)
(3.02925 3.02903 0.00137856)
(8.73391 0.021507 -0.0135936)
(8.39144 0.0117204 0.0174521)
(8.83471 -0.208035 -0.0016532)
(8.85633 -0.05345 0.10841)
(8.55733 -0.0688912 -0.0628831)
(3.02747 3.04086 -0.0113352)
(2.89346 -2.89673 -0.00541303)
(3.04649 3.02864 0.0115793)
(2.87518 -2.88347 -0.000575802)
(8.73482 -0.0407133 2.00784e-05)
(8.65701 -0.0122071 0.00313584)
(8.66108 0.0413339 -0.0333055)
(8.72656 0.0243755 -0.0272861)
(3.016 3.01915 -0.0129977)
(8.63831 -0.0636083 -0.0232084)
(3.03758 3.03844 0.00117885)
(2.88671 -2.89492 0.000120027)
(8.72763 0.0250682 -0.0178668)
(2.66609 -2.66903 0.0383502)
(4.79717 -0.855448 -0.065672)
(2.86349 -2.85279 0.00237214)
(3.06639 3.02564 0.0242602)
(8.64493 0.0153035 -0.0120336)
(3.03999 3.03823 0.00113722)
(8.53821 0.0225726 -0.00686817)
(8.12328 0.00449266 -0.0374956)
(3.04536 3.04555 -0.000796155)
(7.82247 -0.0035908 -0.0372352)
(8.49841 0.0150127 0.0120885)
(3.06336 2.68843 -0.0987624)
(8.46135 0.0380331 0.0424585)
(8.00393 0.0424044 -0.00367208)
(8.51566 0.0401578 0.0120857)
(7.93743 0.0321956 0.101161)
(8.59244 0.024423 0.00424466)
(8.2096 0.00217495 -0.0154883)
(3.00698 2.57144 -0.0129926)
(2.88737 -2.88198 0.0172966)
(7.35562 0.0115839 0.172866)
(3.01935 3.0298 -0.0171906)
(8.5011 0.0465675 0.0411941)
(8.83543 -0.0451564 0.0885302)
(3.05402 2.9202 0.0245862)
(3.03342 3.04629 -0.000908942)
(8.71058 -0.0169528 0.00659447)
(8.39496 -0.0394677 -0.0860698)
(8.41768 0.0447661 0.00131758)
(8.72611 0.0212917 -0.00800687)
(3.04063 3.03636 -0.00139538)
(8.87327 -0.025011 0.143759)
(8.73968 -0.0297215 0.0436221)
(3.04973 3.04459 -3.43102e-05)
(8.55464 0.133336 0.108808)
(8.16833 -0.032992 -0.0882588)
(2.89273 -2.89232 -0.000669556)
(2.88942 -2.88935 0.000822125)
(8.52779 0.026353 -0.00744376)
(8.58062 0.00749502 -0.0128255)
(3.0528 3.05289 -0.00387639)
(2.89537 -2.88939 -0.00462167)
(5.11193 -2.75099 0.627923)
(2.89915 -2.90112 0.000578101)
(8.57919 -0.00295732 0.015882)
(3.02026 3.03166 0.0069305)
(2.90006 -2.901 0.000157326)
(8.78611 -0.0120229 0.0286318)
(7.96214 -0.0927862 -0.229821)
(8.68976 -0.0514253 0.0115724)
(8.39691 -0.00112732 0.0161854)
(3.0475 3.04526 0.000271164)
(3.94255 3.04074 0.152347)
(8.39523 0.112509 0.16082)
(3.69445 3.25935 0.172438)
(8.36911 0.0357861 0.0658687)
(8.33413 -0.0711232 0.00708589)
(8.70063 -0.0255477 -0.0232027)
(6.05562 0.191705 0.226098)
(3.62569 3.12625 0.156898)
(8.68792 0.0139207 -0.0823437)
(8.80345 0.272971 -0.0881272)
(2.89501 -2.90021 0.00541534)
(8.77605 0.0225701 -0.0866042)
(8.7866 -0.0387987 0.0324444)
(2.90045 -2.89982 0.00299825)
(8.46529 0.484835 -0.259504)
(7.40639 4.5664e-05 -0.101603)
(3.83547 3.01811 0.127224)
(8.75197 -0.0215666 0.0358321)
(8.64568 0.0137828 -0.00974326)
(8.59687 0.023114 -0.00636401)
(3.04005 3.03747 -0.000766653)
(8.55874 -0.0130651 0.0593222)
(8.78447 -0.00335297 0.0282559)
(8.52709 0.0833572 -0.00848424)
(5.37468 -0.0731339 0.0907811)
(3.69431 3.48452 -0.0718711)
(5.07394 -0.130043 0.171048)
(2.89433 -2.89826 0.00214393)
(7.89092 -0.267914 -0.260578)
(8.56061 -0.0146649 -0.0563985)
(3.04148 3.03936 0.00473824)
(8.14659 0.0203965 -0.0623031)
(6.7111 -0.0175424 0.122921)
(3.93773 3.4842 -0.0363132)
(2.89719 -2.89524 0.000196667)
(3.39496 -2.88132 0.0935219)
(2.8994 -2.89818 -0.000147377)
(8.50094 0.0485158 -0.00645213)
(8.58492 0.0459382 -0.0148193)
(8.50973 -0.0243901 -0.0244399)
(7.995 0.0218313 -0.0444245)
(8.71276 -0.177152 -0.0365109)
(3.03884 3.02573 -0.00582993)
(8.45287 3.84101e-05 -0.0209259)
(2.90584 -2.88444 0.000374205)
(8.36688 0.0311759 0.0202968)
(3.05077 3.05112 -0.00132251)
(2.89732 -2.89476 7.0298e-05)
(2.86768 -2.87574 -0.0039272)
(8.22201 -0.0549533 0.0117926)
(2.88663 -2.8879 -0.00246241)
(2.89883 -2.89909 0.00122572)
(2.99932 2.0007 -0.123743)
(2.89944 -2.90115 0.00108199)
(3.0083 3.04995 0.0286519)
(8.42658 -0.0313053 -0.0130772)
(3.042 3.03777 0.00104838)
(3.60259 2.66393 0.0051215)
(3.04244 3.04418 0.00366286)
(2.88826 -2.87856 -0.00103544)
(3.04152 3.03041 -0.00428981)
(2.88724 -2.87258 -0.0146885)
(3.0235 3.02585 7.15038e-05)
(7.67132 0.0017874 -0.0652874)
(3.04608 3.02996 0.0121154)
(7.86623 0.116923 0.159689)
(8.60869 0.0117874 -0.0037972)
(8.87491 -0.363074 -0.0629599)
(3.04883 3.03314 -0.000634913)
(7.49318 0.0217038 0.125016)
(3.04613 3.0355 0.00293055)
(2.89993 -2.90112 -0.00130317)
(8.48097 -0.0802729 -0.0866184)
(8.49342 -0.0653415 -0.0785753)
(8.51381 -0.0188472 -0.0227651)
(8.89528 0.0225396 -0.150428)
(3.49383 2.94124 -0.0967879)
(8.7161 0.0104251 -0.0458939)
(8.71235 0.0158071 -0.0414192)
(8.60853 0.0155365 -0.000380607)
(8.46939 0.00951674 0.00294136)
(8.62218 -0.0877432 -0.0604881)
(2.8869 -2.88804 -0.000890075)
(8.61616 0.0118019 5.72388e-05)
(3.97716 3.46509 -0.0251716)
(8.5871 0.0223969 -0.0115521)
(3.03719 3.03392 -0.00106318)
(8.74479 0.0279487 -0.0388999)
(3.93432 3.26862 0.0299684)
(8.62477 0.00751721 -0.0126126)
(8.65204 -0.0412536 0.0314983)
(3.34642 -1.68418 -0.0200029)
(3.04236 3.04455 0.0338241)
(8.48127 0.0150896 0.0151438)
(2.89654 -2.89535 0.000505229)
(8.78181 0.0362225 -0.0570953)
(8.71719 0.0343539 -0.0368856)
(3.03917 3.03016 -0.0242698)
(3.03261 3.03153 0.00744288)
(2.97495 2.66874 -0.0595797)
(3.03893 3.04126 0.0014407)
(6.0919 -0.326772 0.168635)
(8.78649 0.030545 -0.0546921)
(3.08449 3.01199 -0.00238648)
(3.03524 3.03942 0.00294469)
(7.49834 0.00953031 -0.018057)
(3.0438 3.04358 4.29917e-05)
(8.65111 0.0245344 -0.0309945)
(3.04164 3.04091 0.000374234)
(8.5658 -0.050582 -0.036805)
(2.90045 -2.89999 0.000729687)
(8.03633 -0.0404997 -0.121933)
(6.63864 -0.026706 0.00693416)
(8.05434 0.0250836 -0.0172739)
(8.62771 0.00971129 -0.0135898)
(3.05309 3.03046 -0.00996659)
(7.8256 0.0083335 -0.00190709)
(3.04695 3.03616 0.00278127)
(3.04231 3.04315 -0.00825042)
(8.52969 -0.022655 -0.0130916)
(3.03845 3.03493 -0.00136832)
(7.26153 0.00151421 -0.0737473)
(2.93349 2.70023 -0.0897154)
(8.66183 0.0228594 -0.0273239)
(2.89049 -2.8924 0.000110573)
(8.73492 0.0211279 -0.0191294)
(2.90146 -2.89891 0.000327264)
(3.60912 3.19413 0.0930599)
(8.83717 0.319422 -0.022892)
(8.48543 -0.0727778 -0.0910481)
(8.61449 0.0364285 0.000377755)
(8.68512 -0.098256 -0.0640808)
(8.57611 0.017213 -0.00832732)
(8.77097 -0.0616235 -0.00597481)
(3.01989 3.04308 -0.0135652)
(8.6096 0.049253 0.0261055)
(8.52025 -0.0855773 -0.087709)
(3.04085 3.04262 -0.00177609)
(7.23429 -0.106124 -0.279712)
(8.80458 -0.0635453 -0.0442332)
(8.45535 0.0364645 0.0327859)
(3.00836 2.96726 -0.0170603)
(3.74691 0.751495 -0.591334)
(8.27466 0.0208833 0.0273056)
(6.76895 -0.0267677 0.0686836)
(7.01863 1.80718 -0.0141981)
(3.75716 -1.90586 -0.155357)
(8.75449 -0.100392 -0.0228796)
(8.21683 0.0314526 0.061048)
(8.47925 -0.0799138 -0.087837)
(8.64312 -0.0485325 -0.0182471)
(8.5001 0.0497874 0.021025)
(7.54944 0.980653 -0.0433908)
(3.75804 3.18904 0.0265638)
(7.67477 -0.293656 0.069578)
(7.41338 -0.646098 0.155193)
(2.894 -2.8955 0.00142844)
(7.56631 0.0528425 -0.0223982)
(3.05678 2.9994 -0.0157782)
(3.5664 3.24321 0.0306148)
(8.57405 0.0185537 -0.00476352)
(7.59922 1.28614 -0.0429907)
(9.14411 -0.782244 -0.144074)
(8.24633 -1.42323 0.0315787)
(3.55685 3.38033 -0.249142)
(8.71788 -0.0539744 -0.0170616)
(8.60325 0.0503113 0.0390931)
(3.03437 3.02592 -0.00146348)
(3.91319 2.17736 -0.0901396)
(8.60299 0.0647983 0.0405231)
(2.89752 -2.88658 0.00313094)
(3.04065 3.03936 -0.000658811)
(3.0313 3.03024 -0.00022303)
(3.04457 3.02861 0.00352059)
(8.71494 -0.089785 -0.0411434)
(3.04156 3.04075 0.00186392)
(2.90738 -2.9072 0.0153382)
(8.55954 -0.0528907 -0.0426888)
(7.87765 -0.00292172 -0.0239449)
(4.26292 -3.73214 -0.19728)
(8.6035 0.0633158 0.0390899)
(3.53876 2.86103 0.064333)
(8.64714 -0.0342791 -0.0190074)
(2.84091 -2.83877 -0.0131584)
(3.0341 3.04014 -0.00226239)
(8.6935 -0.0553441 -0.0158299)
(3.04049 3.02321 -0.0117461)
(3.04214 3.03502 0.00173044)
(3.48358 3.33389 0.0963886)
(8.17662 -0.00618752 -0.00585805)
(5.00422 4.19105 -0.555639)
(8.56716 -0.0358174 -0.0171863)
(8.57106 0.0179295 -0.00609261)
(2.87192 -2.85321 -0.0228866)
(8.89195 -0.0261534 0.281432)
(8.14524 -0.0499363 -0.122131)
(8.53579 0.00123326 -0.00423521)
(8.64115 0.156498 0.0156778)
(8.68459 0.0868181 -0.186015)
(7.46995 0.00356958 -0.0699567)
(3.03588 3.03288 0.00178833)
(8.70467 0.00921245 0.0242119)
(8.6389 0.0372088 -0.00757792)
(2.8693 -2.90726 0.00569833)
(8.03948 -0.00546021 -0.0027744)
(8.71999 0.0489833 -0.0171454)
(8.71796 0.0400905 -0.0144003)
(7.92073 -0.0349616 -0.0779157)
(8.71515 0.0383369 -0.0157744)
(8.71961 0.0458307 -0.00515344)
(2.90288 -2.86438 0.0176779)
(8.71957 -0.0176456 0.0430095)
(7.21155 -0.0452723 -0.0137322)
(3.66218 3.18147 0.201471)
(8.71395 0.032945 -0.0212046)
(8.31662 0.00955581 -0.0194886)
(4.87054 3.96702 -0.598594)
(8.5719 0.0165425 -0.00476961)
(8.71785 0.0270556 -0.0265033)
(8.31965 0.00272392 -0.0345336)
(8.64745 0.0390198 0.0021305)
(8.54796 0.0846373 0.0372787)
(8.59042 0.0065199 0.00630836)
(2.97482 2.90739 0.00444313)
(8.64564 0.0462204 0.00681031)
(8.11561 -0.0534291 -0.11025)
(3.2453 -1.94818 0.0757873)
(8.60563 0.0744804 0.0459093)
(8.49536 0.0705212 0.0697022)
(8.62121 0.0253032 0.00130804)
(3.03622 3.02906 0.00266075)
(8.35691 0.0484342 -0.0795402)
(2.89708 -2.88448 0.00724646)
(3.04158 3.04174 -0.00213496)
(3.02524 3.00458 -0.00130755)
(3.0464 3.02867 0.000684186)
(7.24251 0.00379417 -0.0313149)
(3.62167 3.11901 0.126599)
(6.52309 -0.460878 0.540429)
(2.88237 -2.8835 -0.00027417)
(3.0346 3.07536 -0.00463498)
(8.61473 0.0857288 0.0444101)
(8.66704 0.0222247 -0.0395589)
(2.89927 -2.89912 -0.000175536)
(8.67682 -0.0548053 -0.00488155)
(2.89734 -2.89537 0.00841031)
(2.89931 -2.89732 -0.001114)
(2.85068 -2.85088 0.00883915)
(8.80444 -0.070726 -0.00930308)
(7.3366 0.0420176 -0.0200599)
(3.58479 3.22985 0.0399932)
(2.92642 -2.89395 0.00778325)
(3.03702 3.04694 -0.00391445)
(3.03862 3.04048 -0.000737935)
(8.86027 0.0179608 -0.0977043)
(8.60076 0.0179506 -0.00117829)
(3.61178 3.39622 0.156341)
(8.76317 0.0274775 -0.0476982)
(8.15201 -0.11414 -0.33877)
(3.03506 3.03653 -0.0014393)
(8.74038 0.023737 -0.0415657)
(8.01361 0.00612721 0.0429816)
(8.50483 0.0450251 -0.0512193)
(3.04595 3.04443 -0.000138472)
(3.03704 3.03446 0.000305165)
(8.44587 0.0510806 0.0517189)
(8.63115 0.0205402 -0.00335665)
(3.59244 3.26778 0.0508495)
(3.02723 3.02833 0.000242203)
(3.07857 2.98455 -0.0117066)
(8.57782 -0.0167214 0.0072655)
(2.89486 -2.89479 -0.00321525)
(2.89043 -2.87946 0.00221635)
(3.02331 3.02385 0.000127823)
(8.73764 0.0266428 -0.0366615)
(7.64001 -0.0381923 0.0135976)
(3.04445 3.04464 -8.8292e-06)
(3.37795 0.679695 0.596647)
(3.67424 -0.392397 -0.146307)
(8.44918 0.0455958 -0.00249054)
(3.03542 3.04049 -0.00137068)
(3.04141 3.03594 -0.00235573)
(8.76551 -0.110123 -0.0164895)
(8.39817 0.142855 0.134912)
(3.64319 3.25559 0.154003)
(5.29986 1.72207 0.125914)
(8.27756 0.187642 0.239827)
(7.92441 0.0242365 -0.0555438)
(8.42412 0.00583083 -0.00688031)
(3.14285 2.9513 -0.00745746)
(8.37501 0.0244273 -0.00401655)
(8.68048 -0.0588518 0.0620183)
(3.04638 3.03887 -0.0032923)
(2.87525 -2.82659 0.00493104)
(3.02516 3.02681 0.000457692)
(3.03546 3.03512 -0.000606255)
(3.04107 3.04597 -0.00360048)
(3.04523 3.0462 -0.000714826)
(8.75517 0.025517 -0.0387083)
(2.89712 -2.89649 0.00192259)
(3.03338 3.03394 0.000460926)
(3.02378 2.9841 -0.00397375)
(8.76292 0.0275408 -0.0487868)
(8.62563 0.0201334 -0.000255503)
(2.91019 -2.86933 -0.00133412)
(2.8624 -2.83273 0.00397048)
(8.83127 -0.0426083 0.0762189)
(8.39122 0.00231827 0.00859455)
(8.37897 0.00623057 0.0127299)
(2.89827 -2.89054 -0.00155581)
(3.03137 3.03174 0.00206312)
(8.38551 0.00423967 0.0119523)
(2.89912 -2.89674 0.000433769)
(8.28518 0.0229434 0.00219167)
(8.47392 0.0142466 0.0302799)
(8.49566 0.0294201 0.00996258)
(2.90657 -2.88499 0.00810307)
(2.89851 -2.90002 0.000598806)
(2.898 -2.89996 0.000177774)
(3.04156 3.04214 0.000901404)
(8.58934 -0.0411558 -0.023854)
(3.03816 3.04148 0.0015255)
(3.03251 3.0299 -0.000103201)
(8.55076 0.0234719 -0.0344869)
(2.89871 -2.8997 0.00120047)
(8.42305 0.00194875 0.00980888)
(7.68516 -0.0666975 0.0265501)
(3.05896 2.95597 0.0160374)
(8.61541 0.0225095 -0.00467391)
(4.06047 0.619026 -0.106793)
(8.50432 0.0089387 0.00448234)
(8.79168 -0.0306178 0.0221414)
(7.75929 0.0317599 0.0107392)
(8.79306 -0.00200541 0.0575265)
(6.34987 0.138354 -0.241809)
(3.61827 2.89547 0.05864)
(8.48509 0.00538551 0.00309886)
(8.82744 0.0693384 0.010847)
(8.61755 -0.0204706 -0.0086057)
(3.11439 2.71015 -0.0912069)
(3.86383 0.380794 -0.197605)
(4.59683 -0.32088 0.155867)
(8.49532 0.0118678 0.00633297)
(3.03281 3.03726 0.00404706)
(8.33096 -0.0191696 -0.0610069)
(8.50942 -0.00781295 -0.017209)
(8.2599 -0.0725637 -0.133065)
(3.16548 -2.2386 -0.169486)
(2.89921 -2.90043 0.00139606)
(2.89617 -2.89621 -7.29421e-05)
(8.65774 -0.0277508 -0.00298482)
(3.5448 2.93863 -0.0381264)
(8.21999 0.0283329 0.012701)
(3.29795 3.00499 0.0418932)
(8.17634 -0.0177731 -0.0589513)
(8.4092 -0.0172062 0.00819215)
(8.32004 -0.0102655 0.0292397)
(8.62802 0.0213343 -0.00481343)
(3.03252 3.03251 -0.00100861)
(3.01927 3.01003 -0.00554327)
(3.09554 -2.82068 0.0143534)
(8.61383 0.0262752 0.00393304)
(3.04514 3.03645 -0.000667875)
(3.50968 3.01928 -0.13359)
(8.80464 0.164838 -0.139396)
(3.05052 3.04676 -0.0018407)
(3.02661 3.04152 0.00918968)
(2.88235 -2.87325 -0.00472263)
(3.043 3.04394 0.000962899)
(8.23018 -0.00345406 0.0276806)
(3.10299 2.94722 0.00591497)
(3.04193 3.03884 0.00101956)
(6.98935 0.987687 -0.722097)
(3.55768 2.87969 -0.0395049)
(3.0272 3.02877 -0.0251618)
(4.17522 -2.45845 0.152905)
(3.03955 3.03591 -0.00329888)
(6.72257 0.0266419 -0.0591018)
(8.39322 -0.0143156 0.021636)
(2.88756 -2.88793 -0.000222315)
(8.24904 0.00855557 -0.0220955)
(8.33383 1.35383 -0.18659)
(8.1995 -0.0794734 -0.132293)
(9.01962 0.337714 0.00785475)
(8.11255 0.00685305 -0.0129767)
(3.03856 3.01774 0.00955027)
(8.51034 -0.0816594 -0.0916251)
(8.81498 -0.0301817 0.0200925)
(8.19713 -0.0800347 -0.132511)
(2.89654 -2.8972 -0.000426452)
(8.9367 2.3457 0.626415)
(8.2106 0.0117179 0.0123838)
(4.04575 3.23185 -0.191529)
(8.15396 0.00441694 0.00919453)
(8.89973 0.11199 -0.0844322)
(8.4944 0.172039 0.00912854)
(8.42569 -0.024863 -0.0328141)
(8.42935 0.0281332 0.00103136)
(8.97043 0.13234 -0.049518)
(8.64853 -0.0146913 -0.0137713)
(8.56568 -0.0115719 0.00872688)
(3.01528 3.02678 0.0113985)
(3.02635 3.0114 0.00934324)
(8.26893 0.0223036 0.0115681)
(8.1304 0.00951518 0.0105295)
(3.03423 3.04147 -0.00128714)
(8.38496 0.00816275 0.000248909)
(8.7826 -0.0410716 0.00549418)
(8.58723 -0.0204474 0.00742892)
(3.03965 3.00837 -0.00111762)
(8.46506 0.171644 0.037951)
(3.03205 3.02956 0.000216828)
(8.57005 -0.0114107 0.00758294)
(8.59712 -0.0129378 0.00566392)
(3.03953 3.0381 -0.000397624)
(8.21578 0.0444408 -0.021502)
(8.57439 -0.00923371 0.00126263)
(8.4306 0.160421 0.0138393)
(8.29456 0.00188309 0.0337217)
(3.10153 3.04289 -0.00478254)
(8.66752 -0.0232904 0.0253834)
(8.45659 0.195796 0.0021356)
(8.91625 -0.206618 0.0576764)
(7.50592 0.0982517 0.0257389)
(6.70193 0.0210597 -0.0946151)
(3.04139 3.01013 -0.00541478)
(3.03137 3.02858 0.00226783)
(8.31789 0.114442 0.0149151)
(3.04335 3.04364 -0.000912026)
(7.26106 -0.0206914 -0.0186168)
(8.35494 -0.044767 -0.0652451)
(5.09759 0.715529 -0.186499)
(9.25447 -0.592285 0.223975)
(8.16657 -0.365194 0.108538)
(9.09035 -0.324114 0.089856)
(3.04265 3.04296 -0.000838781)
(4.12467 3.50342 0.029295)
(8.64801 0.0212386 -0.00689851)
(2.88451 -2.89608 -0.00984779)
(1.59305 -1.11421 0.472056)
(8.55696 -0.163819 -0.127465)
(3.02934 3.02189 -0.00600886)
(3.04481 3.04122 0.00027696)
(7.64157 -0.148103 -0.0032868)
(6.24855 -0.406396 0.0852751)
(3.04375 3.04401 -0.00044018)
(7.73357 -0.144168 0.0253972)
(3.03068 3.02809 0.00140473)
(3.03944 3.04429 -0.00498639)
(2.89583 -2.89613 -0.000519804)
(2.89954 -2.89311 0.00586946)
(2.842 -2.81727 0.009544)
(2.89363 -2.88791 -0.000339011)
(7.72263 0.0639728 -0.029046)
(3.0182 2.99792 -0.00361195)
(3.03842 3.0398 0.00105186)
(3.02216 3.03806 0.00529178)
(7.1922 -1.58668 -0.413234)
(8.14475 -0.0676444 -0.149074)
(7.88621 -3.51705e-05 -0.0817502)
(8.64879 0.0197769 -0.00758329)
(3.02405 3.00453 -2.00769e-05)
(3.05201 3.04083 0.000165138)
(8.28513 -0.142048 -0.173046)
(3.04175 3.04269 -0.00359849)
(3.03918 3.03606 0.000809647)
(4.83683 2.78467 0.101071)
(8.82011 -0.120414 -0.00814661)
(8.63169 0.0208122 -0.00662886)
(3.03782 3.037 -0.00031314)
(3.03574 3.03043 0.0045114)
(3.02422 3.01584 -0.00379742)
(3.02911 3.02269 -0.000380581)
(3.04247 3.04118 -0.00328196)
(3.04939 3.04081 0.00178666)
(8.63695 -0.201611 -0.127185)
(3.04618 3.03739 -0.000119764)
(5.99398 0.0868021 0.202298)
(8.71163 -0.020189 0.0230963)
(3.03918 3.04357 -0.000825347)
(2.87624 -2.8879 -0.00787705)
(2.85629 -2.82688 0.00323046)
(7.30471 0.0866368 0.396368)
(2.83624 -2.83293 -0.0114389)
(2.89458 -2.89695 0.00299107)
(3.02218 3.02723 -0.0190372)
(7.82378 -0.122498 0.00747531)
(3.02963 3.02861 0.000209838)
(8.58573 -0.112476 -0.0707358)
(6.84368 0.112079 -0.0352748)
(5.63961 0.00707788 0.226751)
(3.03077 3.03305 0.000935502)
(5.87834 -1.50387 0.120031)
(8.65318 -0.0160445 0.00290761)
(8.71673 0.0218985 -0.0224158)
(3.11154 -2.97003 -0.0336369)
(8.37843 -0.135731 -0.0220797)
(8.55425 -0.0162137 -0.00920803)
(2.89964 -2.87932 0.00277939)
(3.14108 2.98024 0.014481)
(4.09367 -3.15359 -0.264773)
(3.02317 3.0223 0.000999009)
(8.65244 0.0168968 -0.00247211)
(8.64563 -0.010895 0.0103499)
(8.79181 -0.10615 0.0441506)
(5.78272 -0.00661154 0.317815)
(3.04497 3.04325 -0.000357131)
(8.65526 0.0170391 -0.00391723)
(3.12029 2.96982 -0.00745559)
(3.79904 3.21449 -0.0131527)
(3.89742 -3.0322 -0.126136)
(3.03913 3.03952 0.00115235)
(8.67563 0.0251472 -0.00546841)
(3.0297 3.02282 0.00193054)
(2.86533 -2.81454 0.00152971)
(7.91013 -0.108783 -0.198473)
(8.49275 -0.0186487 0.0102928)
(2.8678 -2.82053 -0.00806514)
(8.53072 0.0151854 -0.00389163)
(3.23771 3.16617 -0.0187934)
(8.66381 -0.0741977 -0.0382615)
(2.85883 2.73506 0.0271865)
(3.04236 3.04403 -0.00127659)
(3.05495 3.04465 0.00998202)
(2.90001 -2.90065 0.000794597)
(8.38594 0.0131181 -0.0133954)
(7.50886 0.0160258 -0.0343557)
(8.69299 -0.031718 0.180326)
(3.02658 3.0294 0.00194252)
(3.02197 2.96754 0.0204868)
(8.33944 0.0159182 -0.0145612)
(3.04284 3.04297 -0.00113097)
(3.53237 3.19708 0.0438115)
(2.8971 -2.89518 0.000207325)
(8.29834 0.053143 -0.00551779)
(8.83377 -0.218021 -0.0645286)
(8.65331 0.0215787 -0.00906187)
(2.89288 -2.8871 0.00674877)
(6.85302 -0.0101846 0.191864)
(7.15405 0.00716153 0.184372)
(2.73314 2.41409 0.0168948)
(7.73487 0.0994862 0.156133)
(3.04372 3.02783 0.00309882)
(8.16962 0.0764511 -0.00794785)
(8.77319 -0.0150869 0.0511431)
(8.49904 0.00603619 -0.0149462)
(8.78349 -0.111134 0.0133602)
(8.06854 -0.177378 -0.249811)
(3.04214 3.03889 0.000716614)
(3.04252 3.04233 -0.000172765)
(3.03526 3.03947 -0.000133109)
(7.07592 0.0699614 0.255621)
(3.01327 2.98647 0.00332908)
(8.58577 0.0365087 -0.015612)