/*--------------------------------*- C++ -*----------------------------------*\
  =========                 |
  \\      /  F ield         | OpenFOAM: The Open Source CFD Toolbox
   \\    /   O peration     | Website:  https://openfoam.org
    \\  /    A nd           | Version:  10
     \\/     M anipulation  |
\*---------------------------------------------------------------------------*/
FoamFile
{
    format      ascii;
    class       volScalarField;
    location    "4.9";
    object      p;
}
// * * * * * * * * * * * * * * * * * * * * * * * * * * * * * * * * * * * * * //

dimensions      [0 2 -2 0 0 0 0];

internalField   nonuniform List<scalar> 
111485
(
32.0218
1.54411
1.81307
31.9744
1.85708
31.2523
1.58351
1.40845
1.59745
2.2699
1.55803
1.97764
1.60835
1.47673
1.60929
1.68754
0.58413
35.1396
1.60644
31.9571
31.947
31.3194
1.59604
1.66558
1.8288
31.7676
2.20003
1.03047
1.80266
32.0564
2.70745
0.41325
31.9967
31.459
34.4395
31.4319
2.77192
0.283913
3.21693
1.66933
31.6905
2.25444
1.67421
2.52666
2.40374
32.2132
2.41207
1.65007
2.26027
32.0034
31.9924
30.2034
32.0237
2.53827
32.044
1.04755
1.61132
31.6039
2.16747
1.6565
1.6643
32.023
1.31683
2.68968
31.2817
1.17459
21.8642
1.46582
1.26958
1.39331
2.71566
1.17969
31.2621
1.2614
32.1341
0.73578
31.354
2.17172
31.3125
32.7042
2.6683
2.43859
31.3948
32.1025
1.31548
1.69217
9.991
2.53121
2.74819
0.536435
2.59518
1.70349
1.3223
0.342767
2.2448
32.0998
32.0243
2.56999
0.649404
3.04922
32.0038
2.215
31.4912
2.11833
1.49115
32.1899
31.5095
0.481186
1.73379
2.12347
0.345715
1.22459
1.71937
2.04662
31.7606
0.714656
31.8328
31.5794
1.25484
31.9625
31.7655
27.6628
31.3981
31.607
2.35639
35.6866
27.5256
0.541329
32.1377
4.9105
2.62879
2.56325
32.1335
27.1148
28.1575
1.55064
31.3661
0.753355
1.40605
1.48486
2.16681
1.43654
1.44997
1.80083
2.33937
0.177363
31.3641
32.0882
31.57
1.50561
1.79301
31.9385
2.7674
0.039788
1.08504
1.5126
1.49076
1.56296
1.59353
32.18
31.9764
1.50062
1.75455
1.73701
1.31871
0.621029
2.65467
31.6916
1.87627
1.99914
31.5525
32.0791
1.90348
31.4471
0.208713
0.0720921
31.3618
31.1858
31.8335
31.8496
31.0895
31.9712
1.52392
1.53406
1.51687
0.247889
2.19058
0.878938
2.81798
31.9998
0.737091
31.1754
31.9909
0.907327
2.23627
2.69142
1.15111
0.141347
32.1378
1.55014
1.8096
22.6628
2.48075
0.53491
32.1246
0.901969
2.07199
31.1639
2.66256
2.4062
1.77086
0.843847
31.0579
32.0372
0.874555
21.512
2.56764
31.4393
0.894517
0.778536
2.30147
32.163
0.945765
2.59219
25.2281
31.4453
31.557
2.79595
1.34789
31.5299
29.6828
0.797173
0.289853
0.816316
31.5166
31.5667
2.6924
32.136
1.4786
0.76619
0.787878
0.736383
0.78004
31.5674
2.70174
0.587935
31.595
31.3873
2.51665
1.22164
31.7228
0.40515
0.598723
32.0851
26.5549
2.43885
31.9045
32.3244
29.2999
31.9087
0.703937
0.717919
0.0276164
32.181
0.612866
31.9809
32.0116
32.1525
2.70497
2.16489
1.2766
1.20919
2.03943
1.25019
1.25799
2.79961
0.248969
0.274812
31.0255
32.0783
2.81602
0.458837
1.95086
0.304246
31.9689
1.295
1.53113
1.25714
2.13316
2.73991
1.25461
1.1935
2.45902
31.5948
2.11795
31.4499
35.0927
32.5689
2.77473
2.02462
1.62223
31.8646
31.8132
1.02989
0.377325
31.9323
32.0362
32.0585
0.733753
0.303622
1.51285
1.58394
1.67292
29.7163
31.5308
32.1122
1.00968
15.018
1.58194
2.73787
2.62398
31.3909
32.0146
32.0249
28.1341
1.07647
1.84981
31.5661
1.06981
31.7008
31.8182
2.63519
1.0791
2.03549
1.0671
32.4406
28.0086
31.5423
1.06508
0.107721
2.73503
31.3265
5.33976
2.50309
1.88194
0.995169
8.13243
1.68239
31.34
1.6889
1.10143
2.74358
2.6034
1.86073
31.4842
32.1179
31.5268
31.9861
1.48912
0.944545
1.9864
1.69648
31.5278
1.95118
31.5236
32.0502
1.6902
32.7677
28.506
32.3172
31.428
1.52603
31.6034
0.0996671
1.94782
31.3157
1.34212
1.13464
31.9787
1.09803
1.96879
1.15208
2.68992
0.218803
0.267579
32.4797
32.0893
2.55101
31.6437
2.02596
2.62056
31.3377
31.5754
1.05251
1.94342
0.165961
1.98207
31.3582
2.71611
1.95535
31.2317
2.51648
1.93323
32.0345
31.9637
0.12073
1.83191
31.5091
31.8444
24.466
32.0005
1.88732
31.441
31.9956
1.9692
2.65793
2.38341
1.8709
31.2677
28.1993
2.59645
28.5521
2.51587
2.64443
2.26422
22.4976
28.8065
-1.39771
2.22109
32.0435
2.57193
1.95169
32.1585
1.72153
2.29137
28.6927
2.04119
1.95996
0.225882
31.2919
1.03276
2.06675
0.255951
2.77409
27.4541
1.14262
32.1086
2.83779
-0.517862
31.5498
2.01934
2.4839
26.7917
32.1744
30.3262
31.9414
1.85483
0.361951
2.01669
2.05874
2.65241
31.4496
1.91596
32.0659
1.89624
31.1808
32.0545
32.1302
2.02662
32.0978
32.0352
33.6971
32.0218
31.5952
2.45977
31.6012
30.38
31.509
31.9963
31.2325
32.1382
31.3332
2.03322
31.505
2.47414
2.06948
3.07206
31.2482
2.48257
31.5375
32.0177
2.04138
2.07461
2.16875
2.71562
30.0601
2.29966
2.29292
0.207528
0.177638
2.08172
32.0782
0.1219
26.8382
2.43173
31.4528
2.35093
27.6473
0.340094
2.04202
33.2933
31.7443
0.130304
31.9234
2.29253
2.27762
31.5933
31.5765
32.223
31.537
-0.188355
2.28046
31.162
31.6086
1.85079
31.3208
2.27529
31.3443
2.40512
32.0221
2.30407
2.35354
1.18971
0.321471
31.1265
-0.388209
31.1948
31.4637
2.09892
31.4656
2.29127
32.2491
2.37473
32.0635
2.22594
31.9406
28.7363
2.98452
2.05349
2.25784
2.17899
2.21163
1.9672
31.5646
2.23718
2.12376
31.4272
2.9457
2.69441
2.30258
31.4102
32.4915
1.91664
2.25618
16.8337
31.222
2.10253
1.87054
2.19551
2.19136
0.792732
12.6525
28.3982
0.785232
14.776
31.9843
2.33986
31.6431
28.8488
0.577887
12.5008
0.732903
8.50645
28.3893
2.16193
1.86021
31.2683
30.4462
1.86538
31.9103
31.3136
31.3347
31.2307
2.20697
31.5177
31.9814
2.24766
0.7809
25.028
1.71313
30.0027
0.760925
32.0186
31.5639
2.19646
31.4535
31.2537
28.7279
0.220893
20.3778
2.18193
0.56779
31.9311
2.55261
2.05208
1.89103
2.82659
4.3772
1.84022
31.4726
2.23757
1.89562
32.1515
1.13632
2.47782
1.95518
0.181068
1.94022
1.94349
32.159
2.31049
2.66844
28.6379
1.94027
2.37955
21.0936
0.563053
1.9551
2.36023
2.08831
2.08078
0.560197
31.6698
2.0732
2.28536
33.0713
2.17246
2.14639
0.5972
31.4746
0.216655
32.2155
31.3752
31.5252
31.2259
1.9189
29.0567
-0.450728
32.0229
31.0361
2.19017
2.17538
31.9191
2.29227
32.0156
32.1357
32.0302
2.2976
2.34318
28.8354
31.9816
31.4605
31.4764
2.70227
0.567647
28.1767
2.13808
1.92575
31.5822
2.16311
2.42339
0.538499
31.2962
31.4387
1.17892
0.594417
28.5979
31.5486
31.1335
0.871037
32.0946
31.8733
31.4349
2.11906
1.74316
31.3221
34.0391
33.0561
0.757921
31.5984
31.2463
2.35144
2.68815
28.532
25.0055
7.49367
2.41106
0.0274795
31.0476
1.7497
2.50472
31.5946
32.0139
31.3691
31.4483
31.5327
31.3325
2.17322
32.016
31.3706
31.3901
2.16133
0.579999
31.8676
32.0665
2.37919
0.58421
0.634442
31.8841
31.3794
0.598682
32.094
2.11771
0.576481
0.639767
31.779
32.0039
32.0028
31.4899
1.92381
31.3892
31.3378
2.57225
31.9983
0.967748
2.53721
31.2345
0.593371
31.7907
0.942863
2.22831
2.22474
2.37695
-1.07482
29.7173
0.928312
2.39801
0.0293066
31.736
-4.07341
29.2345
0.218701
31.5125
2.44038
2.42035
2.42348
32.5339
32.0114
32.1759
0.581161
29.9975
0.246349
30.5165
1.71265
0.243729
0.387901
0.589489
31.3381
31.2807
31.3357
0.59671
31.2404
29.71
2.73877
31.5896
31.6104
32.0067
31.3747
0.410775
31.0868
31.4398
-2.07249
29.9303
31.6638
28.8579
31.4267
2.40454
0.385583
31.9434
1.87116
7.20591
2.41688
2.07977
0.527014
31.5465
2.20188
2.80047
2.42029
32.1054
-5.763
0.378428
26.9679
0.303035
2.72982
2.8961
1.35284
0.333306
2.7003
0.18872
0.387033
31.4219
31.255
0.269225
0.224064
31.5732
0.285528
2.03032
0.381109
31.1799
2.80739
31.4949
0.378474
0.34953
31.2836
-0.1065
0.398268
2.68343
0.0183143
31.0182
1.51066
2.71035
3.10971
2.67163
2.60287
31.4386
31.5304
2.61438
31.3696
2.1408
2.51932
27.7606
1.6377
0.368913
2.27982
31.3752
26.6588
0.82488
32.1346
37.5177
2.58291
31.2005
31.2611
0.742573
0.215198
31.3727
2.82873
31.447
31.4535
32.1472
32.0218
32.1314
32.087
2.6828
31.2167
31.5537
31.5972
-1.87745
2.80014
1.72548
0.809583
31.3467
31.2289
2.6987
31.4167
31.2711
24.5726
2.63273
1.02867
31.302
31.2366
31.2621
31.2476
31.343
31.2302
2.6069
31.2481
2.53405
1.6862
31.4785
32.0506
32.0518
2.80706
32.0236
31.9793
31.5405
2.51089
31.501
2.61521
2.72288
2.57952
31.3184
22.4521
2.7149
1.61519
31.0376
2.56559
2.31359
31.9145
31.0587
28.244
31.2405
0.819859
1.47235
2.69524
2.06843
31.2914
0.813658
30.9394
28.2759
28.0909
31.5571
1.37789
31.4327
32.0875
2.80136
1.02058
32.0775
2.30092
30.0522
2.63101
32.4242
31.4606
31.4233
31.995
0.440096
1.48631
4.81345
31.3035
31.3483
0.395398
31.3717
29.1442
32.0269
2.09861
2.03386
1.97028
31.8461
2.8049
2.8312
33.3575
2.84238
31.2409
2.50846
2.30231
1.39275
2.7395
2.43323
31.3929
31.4507
31.4499
2.79444
31.8476
2.70106
32.16
6.00581
31.8713
1.6535
1.70723
32.0949
31.3558
32.1503
31.6157
2.68406
32.1753
28.2696
0.374607
2.70545
32.1787
29.025
31.3981
29.1014
31.218
31.401
2.73748
2.4299
31.9731
31.827
1.09136
32.0501
2.73663
0.43733
31.4539
2.57959
31.999
0.245005
31.2233
1.80664
31.275
1.36304
2.18484
2.66556
2.56855
2.55668
20.4877
30.8981
2.6186
32.0036
1.36272
31.902
31.6152
30.8728
31.5505
31.6528
31.57
2.51531
2.47209
32.0007
27.351
31.9046
2.56177
2.80812
32.0334
1.3833
2.69923
32.0524
0.543041
0.389001
1.31491
2.67594
31.3696
31.4213
31.5796
31.3424
1.36107
31.2727
2.64232
31.4068
2.63491
1.82753
31.5134
2.59421
31.5229
31.3624
2.62825
2.64241
11.1325
31.4092
32.1275
31.2214
1.40642
30.7239
32.3302
30.8288
6.70513
27.9018
1.53792
29.0016
30.699
31.4364
0.450263
0.342885
2.02922
1.5314
32.0956
2.6387
31.468
31.5687
0.392443
31.1184
1.16367
2.62702
0.357809
2.6569
-0.127027
1.94908
31.5418
-1.84176
-7.13608
2.36188
2.73449
1.06398
23.4763
32.0056
1.91296
31.9052
31.2562
2.54893
2.20415
-0.411796
31.4082
30.8577
2.75698
32.0506
31.2085
2.64339
32.1159
32.0803
1.51282
2.66023
2.57926
1.32378
0.677035
31.2426
31.3884
2.38464
1.23205
31.3333
32.0958
2.13378
31.2545
27.1928
28.0232
28.1693
19.3758
27.3247
31.3385
1.98252
31.2053
2.62241
31.2818
16.035
31.3835
31.2765
31.5477
31.3712
1.89243
31.3741
31.37
28.6034
31.2446
31.5422
31.4451
1.16665
31.4386
1.05186
2.62343
31.2859
2.1074
31.3123
2.35765
2.57939
0.320961
0.350764
31.7647
0.362818
1.87224
2.64891
32.1393
2.60443
0.941964
0.218887
30.1047
0.226931
31.4247
31.5366
31.28
31.3229
0.240007
31.4468
31.2345
0.197779
2.51686
0.127139
31.6012
23.2135
2.04789
31.5115
2.1285
32.041
0.31707
31.1783
31.207
1.93897
31.2648
2.89764
32.0407
31.2808
0.940444
2.37609
0.707088
1.45433
2.80088
1.16023
31.2857
32.5659
1.72269
0.727173
1.17532
2.63367
31.373
1.06572
31.3558
31.6272
1.6929
2.73942
31.2613
0.732459
31.4947
0.712471
0.667396
31.2231
31.3264
31.4899
1.71169
31.4403
31.4444
1.72248
0.712247
2.70444
0.231212
31.3552
31.5578
2.18751
1.7773
31.3053
1.70068
31.4804
1.68693
31.3157
31.2967
1.62437
31.3756
2.32042
1.62468
31.2486
31.3282
1.54565
26.9425
1.94546
32.017
2.67455
32.0653
27.4456
26.6347
1.64158
28.7685
28.4781
1.46118
28.3444
18.7279
26.4858
31.3858
31.9066
2.53955
1.92083
31.5785
31.4592
1.81477
1.88432
31.2605
1.73031
31.336
31.9222
2.14925
2.05632
0.462235
31.3065
31.472
31.4461
31.3696
31.2009
31.2143
31.4483
31.2203
31.2452
31.3218
31.4471
31.9127
31.4088
31.2964
31.2558
31.7441
31.2953
31.3286
31.3856
31.5152
31.9348
1.94936
31.4269
31.2985
31.5912
1.36472
31.616
31.9211
14.0839
31.1278
30.7908
1.35087
33.3293
30.9615
15.9898
1.34137
31.4053
27.7793
29.5952
31.2595
2.52555
1.33636
1.34702
1.26302
0.862612
32.0024
31.2457
1.02564
1.08726
1.25369
31.3435
1.2104
2.48917
1.31977
0.268784
0.306945
1.26383
0.489143
1.29877
32.1775
1.48138
1.25283
1.80714
1.22164
31.4887
31.4534
31.5261
32
31.4765
1.07821
1.22899
31.4832
31.25
31.233
31.8573
31.2757
31.9143
31.2006
31.9145
1.21401
2.77078
1.22608
2.05031
31.109
31.1734
2.48665
2.41082
31.3228
31.3709
1.86885
32.1944
31.4294
1.34601
1.16405
1.20646
1.93699
2.48675
31.9919
0.0760347
1.45084
28.279
31.908
1.39551
31.97
31.2447
12.0856
8.01691
1.98556
31.6729
32.0599
2.7887
1.46754
0.129922
1.08424
15.6484
32.0015
2.69068
33.0836
32.1545
30.938
1.83193
31.2689
1.08315
0.0757612
1.37695
1.44004
32.0969
0.962907
32.1102
30.5681
32.0854
31.8462
0.402672
19.6489
31.3715
31.9666
33.5483
1.09394
28.1181
0.966982
1.07295
0.383663
1.08295
31.8788
31.7998
27.5554
1.84152
0.855729
0.0220303
32.0155
32.018
27.9776
2.5485
1.8696
31.3673
0.692924
12.44
1.462
0.823532
31.9821
27.3218
0.821235
1.07914
31.4617
2.29137
2.21783
1.93518
0.875811
0.853286
0.936644
28.2873
0.413344
0.883277
0.785346
32.3182
1.39382
28.5958
1.83869
0.92503
32.1751
0.284999
0.883384
0.921336
1.16589
35.101
11.0234
2.71725
18.8773
0.881108
30.9626
0.325578
0.892404
31.8813
31.3876
2.04096
2.77808
1.27997
34.9506
2.01194
2.546
-0.675034
2.65068
31.8678
32.218
1.0676
33.5007
0.982722
2.46795
0.893824
0.356412
31.9492
2.39691
1.06095
31.8836
28.5434
0.727923
32.1284
0.721616
0.69759
32.029
35.0978
1.47067
31.9158
31.2993
31.6019
0.333171
3.4668
1.85436
32.3399
1.80146
0.524197
31.3485
0.516219
0.577985
0.35792
2.71692
31.3396
0.945625
0.370515
0.596788
0.51819
0.362365
2.59697
1.70689
32.0161
-0.112764
0.381182
31.9854
0.582793
31.5794
31.4359
32.1207
31.621
31.9682
2.61863
31.526
0.512537
2.06431
32.1515
2.10911
31.8153
0.379805
31.9059
2.53537
31.0284
1.73639
2.71987
2.61923
0.628991
0.377916
1.80644
0.36486
0.656007
13.3139
0.597362
1.14458
0.65301
32.1433
1.13009
2.76333
0.618488
1.62058
2.64057
32.1381
28.0554
31.8747
1.83192
31.9534
25.6484
0.378939
33.67
2.25364
31.8545
32.0104
31.3733
1.19347
2.02928
0.625781
2.63503
0.344329
0.996196
1.00955
1.18155
0.407227
0.988965
1.00799
32.0818
31.3529
32.1465
1.46817
1.09523
31.2997
31.3714
26.0919
1.06451
0.421657
31.9402
1.00764
32.0346
1.89291
1.8497
2.66643
31.9856
32.0222
1.14781
31.999
2.3437
0.574745
30.5384
1.32815
1.62762
0.28407
31.8626
2.59331
28.822
2.18831
1.84758
31.9942
32.1639
0.550085
23.5666
32.1958
0.727162
0.334417
32.0166
31.8065
28.6395
0.955286
26.0572
1.45396
2.47737
2.24833
32.0211
28.7475
2.44904
32.0206
31.4685
32.0711
31.968
29.1305
31.2583
30.6991
31.8861
31.85
29.997
33.6731
30.9558
2.3708
30.9861
27.7635
26.4069
35.5227
28.2256
32.0236
2.49256
30.0693
31.2001
2.55835
32.9946
34.3157
31.6887
2.48333
33.5721
2.51626
2.6144
2.27146
29.5
31.9478
2.54082
1.8986
31.7045
32.1163
1.45889
29.2029
1.44474
28.9368
31.3982
31.4479
1.44693
1.45453
32.048
2.03169
32.1471
30.031
2.4548
0.873567
2.50549
31.5603
1.44792
29.476
2.12389
31.3365
31.8696
31.2956
28.6227
0.845449
0.979673
32.1008
0.581903
31.9126
31.9695
31.908
31.9633
2.3736
2.32972
0.983648
3.3146
32.0274
1.82901
1.48635
0.790364
2.3525
31.7376
0.804733
2.45418
1.25131
2.00833
1.39707
32.0329
1.65716
2.40965
1.46171
2.44433
2.46354
31.9657
2.51771
31.4724
32.0443
1.23265
32.1185
1.86557
32.0548
32.0844
30.8991
31.8938
32.1198
2.34964
31.8775
2.02473
29.6065
31.4975
1.76798
2.40268
1.04868
1.95316
32.1739
5.95967
32.1019
2.15686
32.0879
1.75209
2.34328
2.43904
2.2015
32.1836
32.2093
31.8566
0.859513
31.5354
31.8636
0.850988
31.1548
31.2698
2.49127
32.1806
1.3285
1.9936
29.432
30.4254
30.2037
0.937394
1.55816
31.9554
0.0483804
2.11369
28.864
2.46735
32.072
0.850743
1.82605
0.827198
31.951
1.90662
1.03727
2.52052
2.40905
2.09148
31.9958
32.0057
2.81739
31.8843
31.333
32.0386
0.835237
2.47382
1.09815
1.51208
28.4138
1.86521
1.46406
1.56113
1.60779
1.92268
2.27838
2.07239
31.3715
31.365
31.3642
2.13801
31.4871
2.0497
22.5652
2.04364
1.34917
0.82531
0.445589
31.2734
32.054
2.05332
2.0362
32.0828
31.3739
32.1607
0.906923
2.02801
2.1338
2.144
0.28827
1.45692
31.9057
32.1067
32.0189
0.332
1.38713
0.0502011
1.62052
0.985352
2.14189
31.7174
32.0162
26.4927
31.3348
0.314328
1.8977
31.985
31.9736
32.0283
32.15
32.0287
31.2288
2.18902
31.9388
2.5422
2.9518
31.2684
2.1657
0.158671
0.878662
32.2379
31.4005
2.1781
31.9965
2.18411
-0.79017
0.962696
31.0461
24.8221
31.3447
31.9438
31.8903
30.8147
10.9991
31.9142
2.2631
1.11279
32.0309
32.0154
2.23076
31.9209
31.4393
1.28521
2.5683
31.8447
31.8377
31.1018
0.547253
32.0005
32.004
7.60695
2.18812
2.23934
31.9462
31.2631
29.3616
2.22231
2.21403
2.21707
1.63271
31.3104
0.556695
0.118911
0.149995
31.3699
32.104
32.0168
31.9618
32.0013
1.29872
1.3305
1.06463
32.2106
32.0717
31.9961
32.0428
31.3796
2.62564
0.544197
0.102507
31.2231
31.9886
32.3424
-0.12792
2.43185
2.73412
31.4451
-3.79774
33.1725
31.7364
32.0047
1.30392
1.47488
31.8953
31.9594
1.72148
32.0133
0.950862
1.22091
13.2434
31.878
31.3609
0.984823
2.57
31.9292
12.5379
0.328983
1.91075
31.938
31.9119
32.1734
32.0513
0.334049
0.718783
31.9153
2.61369
2.3369
4.14868
31.9583
31.9005
31.8921
31.915
1.9208
33.6401
31.9628
31.463
0.498067
2.04054
0.613995
31.7252
32.1171
2.36194
30.8998
32.0149
31.9184
31.9388
1.38438
31.1672
31.232
31.2862
0.602036
1.45666
31.8893
32.0934
31.8059
1.6424
32.7957
31.8712
31.8146
32.1035
32.0796
2.61517
1.91553
32.3226
1.53032
1.88859
1.33279
32.172
32.1392
31.9954
31.995
31.2679
1.76879
31.9619
30.0247
30.1005
2.34329
30.9758
2.30069
32.0025
31.4894
2.7891
4.47108
29.0267
2.38486
31.9591
2.36915
32.9445
31.9336
32.078
36.2366
31.9091
2.61572
31.8741
1.56683
31.5144
28.6541
32.0993
31.8818
0.555534
2.32318
31.3578
12.9626
31.5822
2.18238
2.59338
2.23213
31.6058
2.05028
2.10903
2.58652
1.94368
1.22224
2.13086
31.0491
31.2897
0.809245
0.844461
2.19264
31.9711
30.7564
26.6254
15.2119
32.1609
31.2397
32.0989
32.1445
32.1778
33.3495
2.24813
2.65102
1.10327
28.4958
2.7423
32.0977
1.80158
32.0193
32.1884
31.4245
31.2077
2.54096
31.1432
31.5746
31.9562
1.56322
31.9581
32.0528
2.68733
31.8986
24.1831
21.2312
20.0263
32.1515
20.8184
20.2283
20.6368
23.1463
31.2981
31.3001
1.53633
2.24767
28.742
29.1569
31.3219
1.5333
32.9462
31.5016
2.5268
31.9209
31.9947
2.31995
2.63894
32.0353
31.249
2.98885
28.709
31.1598
1.99005
1.66138
1.75029
31.596
1.69429
32.1222
1.04242
1.89205
1.65962
31.9648
1.90635
1.68877
32.1401
-0.39903
31.8342
1.57074
30.5444
1.63519
31.576
2.56621
31.8762
31.0181
31.5067
-2.01614
-1.98753
32.1649
1.69028
2.77546
32.3406
31.9612
1.21939
0.134377
2.8895
32.1731
1.77509
1.72799
2.70808
0.289293
32.1761
2.72334
31.316
2.67298
32.0202
-2.90314
-3.88381
31.7959
1.11955
31.3962
2.68488
31.3583
31.8038
31.9338
32.0909
31.8226
31.9695
2.25382
1.3497
2.64252
31.9075
26.2344
2.67302
31.9199
32.0135
31.9645
32.1252
31.9853
0.129277
31.9661
32.1139
31.2864
0.106211
31.8271
31.3858
30.5921
0.362076
31.4205
0.243429
0.56622
2.0508
0.345813
0.176214
33.0543
31.9076
31.9716
0.466643
0.633121
30.9026
26.1001
0.299589
32.0485
32.1257
2.69787
31.8286
1.71721
31.8903
0.213174
2.64322
31.92
31.2933
31.8977
32.1023
32.0353
2.76513
31.8871
0.307877
32.0958
31.9479
0.651844
31.4908
1.79328
31.4512
32.0504
2.27605
1.13634
2.79078
32.1
32.1055
31.9829
1.15076
2.77946
32.1134
31.3799
30.9766
0.724628
31.8622
1.83052
2.72713
31.9359
31.8915
0.723934
31.9953
30.9706
31.4196
32.1096
31.4627
2.66531
25.7731
31.2804
32.0789
26.374
31.8952
27.1764
31.7543
31.8553
31.5376
1.11271
31.7562
0.675438
31.7504
31.8774
3.16641
0.737589
31.8472
31.8855
31.9059
0.669103
27.8388
31.9634
31.3033
31.8909
0.779182
31.8539
2.61887
32.1628
2.11933
28.5954
2.49517
31.9062
32.0347
2.06132
27.2317
31.9059
0.623715
2.08767
32.2062
32.1004
2.25019
2.46136
0.718566
0.674281
0.675628
2.27419
0.734739
2.55946
32.1005
2.58188
26.1972
25.7917
31.951
31.8239
32.0293
0.71694
32.1508
32.1474
32.1416
2.60261
2.53005
25.0827
2.30116
32.118
2.43041
31.1655
2.7262
0.809476
26.4587
2.12233
31.8179
31.7558
31.3643
0.773807
2.12984
31.9812
31.4435
0.759109
32.0957
2.83373
32.1774
2.82184
32.0097
31.3629
32.0545
31.3555
0.661193
31.3545
4.47254
31.5141
2.20241
31.9467
31.8995
19.2022
18.0434
31.9724
31.9107
32.0185
32.1143
2.11208
2.77518
22.4399
32.096
2.16233
31.3148
31.5153
1.80925
1.63961
2.77837
31.3712
0.478307
2.23058
1.18867
1.76281
32.0269
32.1751
32.1908
32.1123
31.3771
31.3566
31.3589
31.7363
31.3712
31.3595
31.9995
31.3513
2.74109
31.3612
31.8999
34.676
32.1073
31.9542
13.2686
31.3124
31.9202
1.71689
2.89531
31.7694
32.0819
31.9977
1.57586
31.6982
31.9751
2.80791
31.4351
31.8902
32.0335
32.084
2.73775
31.4058
2.71418
32.0939
31.9939
31.9233
31.9521
31.9001
2.83731
2.71902
0.910042
32.1117
31.2371
32.2521
2.80293
31.8817
2.70798
2.94513
31.4158
31.9257
25.0539
1.83817
31.7931
28.9483
1.88326
25.3549
2.3403
31.6057
2.59165
25.2297
23.6092
32.0009
2.08771
31.4439
2.05892
2.69329
31.8949
2.1104
2.2598
32.0054
2.66583
31.2761
31.8134
31.8696
31.7917
31.7885
31.3448
31.8804
32.139
2.6739
29.2739
31.9682
32.0336
31.8641
31.8639
1.5732
18.0681
2.80573
2.37607
31.8851
2.04389
1.99893
31.983
28.879
31.7467
31.7996
31.9332
32.1465
26.8331
29.4683
2.37781
31.9457
32.1653
25.3858
27.3084
31.3836
2.05079
31.8422
31.2692
32.1009
2.73365
32.1499
31.316
2.27873
31.4158
31.4475
31.6515
32.3354
2.30109
31.9491
31.9311
31.9117
31.9349
2.4275
2.7968
2.82625
2.07052
2.54164
2.51723
31.4459
27.2422
2.75832
2.48233
27.2038
2.76966
32.0676
-0.539078
31.2789
2.73209
31.976
31.2518
2.54885
-1.6958
31.88
2.47318
31.9732
32.0382
2.71372
2.72188
32.1034
31.3409
32.0053
31.3703
31.8974
28.0959
32.1102
32.023
2.45269
32.1139
31.9915
31.9476
2.5794
31.9303
28.2361
31.3984
31.3281
29.9898
28.5911
2.57625
31.2332
28.635
1.56593
32.0743
2.42919
2.48012
31.9126
1.61175
32.0072
30.5597
32.2885
28.137
31.5224
32.076
32.1463
32.1654
1.64642
32.1286
32.0583
32.1156
31.5576
31.9607
31.7318
2.7101
32.0026
32.1013
2.6672
31.9826
31.3851
31.597
1.68575
31.9413
2.43738
27.8184
1.99292
0.246938
31.3596
27.2222
1.58009
26.2449
31.3667
2.57121
1.95963
0.0172334
2.59373
2.43977
-0.87131
31.6232
31.219
1.96286
2.7795
2.73373
1.92943
2.02217
31.4923
0.413649
1.91027
1.93402
31.6084
1.94702
0.364014
1.17724
1.85701
2.68952
1.917
0.563282
1.77977
0.0611288
0.900472
1.87122
28.2808
0.380788
0.0432411
2.07078
2.34385
0.175438
1.86809
0.116287
28.8811
2.76999
28.6928
1.12685
1.9755
2.30325
1.46663
28.6457
31.3696
1.82514
1.51155
2.67613
2.81028
0.577395
1.93675
20.8435
1.98437
32.0026
3.39446
2.76402
2.61547
1.2036
2.68159
2.61397
2.23113
1.40282
1.3203
1.11258
1.95655
0.542657
25.6724
22.809
1.95688
31.9146
32.0003
1.86332
1.95464
0.238867
31.9221
2.57599
2.71776
1.39629
23.5794
31.9973
2.44048
0.0618663
2.74357
32.1769
0.593812
32.0413
1.48312
2.20039
2.54007
2.56997
31.9074
32.0178
2.81169
1.9372
1.98222
31.9924
1.56267
1.98509
2.33978
31.4399
1.41722
0.177482
28.6441
1.17959
-1.81506
2.63851
31.0753
2.66156
2.99182
32.0107
2.34439
0.264848
8.6025
2.31016
2.40099
0.494047
2.14823
2.28804
0.107347
2.36589
2.61811
2.23845
0.458691
1.95274
2.65825
1.52427
2.36306
0.984712
1.88057
2.69229
0.575118
32.0253
2.37134
2.32836
2.70715
0.700364
2.63091
31.2914
2.35207
1.19093
32.0146
2.5583
0.00283822
2.35649
2.30526
0.349119
-0.111593
2.09461
2.24239
2.65743
32.03
31.9966
2.70108
31.5665
2.71772
2.77221
31.2066
0.357853
2.39893
1.37254
32.1154
1.19826
1.33082
2.60301
2.66321
1.2864
0.621357
1.56627
2.54208
32.0002
31.8072
2.75648
2.45513
2.61116
1.68296
31.8058
2.48318
2.274
31.2022
1.52251
1.9772
-0.156968
2.57656
2.56285
2.09445
0.589405
1.76927
31.5932
2.40427
1.23193
2.2555
2.62923
31.8116
2.61168
32.3244
31.9778
1.32803
2.16972
1.42941
3.88387
2.51873
8.63244
31.4015
2.10999
2.32517
1.69993
1.45715
31.9096
31.6053
31.5627
1.46064
1.48261
2.53798
1.17884
30.9323
31.8294
1.42834
1.60554
2.59342
1.48098
1.45391
1.83852
2.48853
19.1148
31.3007
2.17676
0.214507
31.8238
1.98197
1.77946
3.13135
2.192
1.72762
2.71634
31.8261
1.51881
1.76723
31.5486
30.9937
0.223475
0.420004
0.655301
0.313234
1.76913
1.8378
0.567994
1.20448
1.66597
0.294256
31.8052
31.7729
0.0431976
0.363374
1.7504
2.92853
1.7169
1.62173
2.24355
1.44555
1.69592
31.3418
31.5778
2.88034
31.7941
28.105
1.81457
1.18679
1.71614
2.8461
29.463
2.58018
3.00572
29.9566
2.93475
2.55749
1.703
1.72296
0.176801
1.97863
2.63138
0.346309
31.9867
29.7537
2.71285
0.619214
1.44336
0.624623
2.4483
2.43365
2.71204
29.8469
1.83351
0.570313
1.55492
2.85205
2.55647
2.68964
2.57202
1.76729
0.477799
29.4524
2.44677
1.75793
13.5793
28.1311
26.1497
1.63905
27.5684
0.118122
1.58852
1.45255
1.98557
2.56438
21.6628
14.4555
32.676
27.6777
2.69257
31.3604
31.3609
-1.08279
31.9826
1.19855
1.50057
1.29352
1.11323
1.17279
1.96849
26.1874
0.599097
0.300141
2.40622
1.85025
1.12343
1.77349
31.382
2.57051
1.11199
1.93877
31.3659
2.30236
1.79586
31.3627
31.8607
2.53105
1.08011
32.1952
2.07729
1.88964
2.52002
32.0835
31.3563
0.242546
2.54356
1.98679
31.3701
31.469
31.3622
2.21843
12.6411
11.7602
0.707908
1.97208
32.1845
0.781918
2.05223
1.6276
0.258095
0.185519
0.822641
1.70046
0.289594
31.7721
0.794097
0.550439
0.11497
1.337
0.345788
0.402482
0.331715
0.37741
0.178548
2.69086
2.06874
1.76755
2.55371
2.68648
1.80282
0.339881
2.11816
0.378234
0.158913
1.00537
0.691622
2.62464
0.660612
2.12744
0.709079
30.5867
1.78699
17.2269
1.33976
1.9202
31.5543
2.33292
30.5911
2.00782
30.6946
31.9163
1.51668
2.35127
28.3092
0.594476
1.50391
2.37872
31.8342
32.1011
2.90908
0.800408
2.70046
1.34025
0.537158
2.31128
2.82708
2.24181
2.35506
26.8279
1.77251
31.3899
31.8456
1.07375
0.7987
2.86973
1.04321
0.709764
2.38378
2.41424
31.4969
2.70552
0.681263
2.34016
31.5296
32.1596
1.7708
2.03185
25.5626
2.64207
0.162432
2.10315
-0.318861
0.618488
1.38167
31.8655
19.9276
1.12605
2.74077
31.8346
1.10655
2.6233
2.15799
3.03789
1.07848
2.91718
1.76809
2.75591
21.0511
2.79425
31.9457
2.0132
2.37399
0.583561
0.0908436
27.3399
0.0863661
2.7247
2.27789
2.53639
30.2639
31.3654
1.18673
2.7357
2.30641
2.00478
2.628
0.844118
0.154396
1.53445
0.318949
0.18964
2.62619
28.9893
2.73276
2.21131
0.0286548
2.58405
29.692
31.2826
-4.9967
2.77358
33.0397
2.69664
2.44184
29.9596
21.6453
23.0519
2.3164
1.08551
4.02568
24.4674
2.49611
1.25206
30.8501
1.08447
28.2188
2.14529
0.853241
31.5931
0.116208
2.65093
2.6372
0.804935
31.319
2.37313
2.48272
2.66301
2.66861
2.7901
2.77111
2.45379
2.7356
2.48889
0.47513
1.09915
31.8671
26.8819
27.0261
31.2628
2.25734
1.26864
1.14819
2.52458
0.671111
1.16203
2.08982
2.38366
2.28715
0.847503
2.46904
2.4553
2.21053
0.654746
31.9581
2.57864
2.50527
2.34417
2.5187
30.8342
1.44622
1.45781
2.11803
1.99186
1.62904
31.2576
1.65239
1.6104
28.1529
1.67127
2.2196
31.2528
1.58042
31.2042
31.5904
1.42531
2.24282
2.24958
1.62351
31.2786
0.370491
2.40588
31.6015
1.40106
1.67963
1.40567
2.26986
31.3532
2.35783
2.35859
2.18426
31.4116
1.26557
0.502623
2.18475
1.04567
1.2598
32.215
30.5714
29.1046
0.181281
29.6066
1.19367
0.967964
0.373023
31.9224
0.407314
31.2587
31.959
31.8056
1.42143
-0.0210655
2.57214
2.20703
1.29078
30.4818
28.2147
2.6317
2.55613
1.03976
2.56434
1.26463
1.94044
31.9619
24.088
24.5522
31.3255
24.7991
0.109258
31.997
1.23412
2.0547
1.29625
0.259176
1.46367
26.4103
0.9277
2.07527
2.39023
2.7163
26.5653
31.9441
2.41184
0.981273
2.36151
1.48763
2.73894
2.64881
2.35489
2.60577
0.839239
0.183162
0.811894
0.448346
0.795716
2.09627
2.20936
0.586687
0.77475
2.69696
1.23815
1.54088
-0.108971
-1.21106
0.575104
2.69963
31.6004
-0.487474
-3.92734
0.367697
0.240497
0.07647
2.09625
1.69646
-4.61294
0.255132
2.79499
32.0138
1.2116
1.63737
1.7113
31.9084
1.25998
0.759006
0.2744
1.56299
32.1728
32.0073
2.23966
0.516745
0.494302
0.104256
31.6824
32.0304
31.4573
1.75805
2.10529
0.462361
32.0342
1.17122
32.0168
32.0968
0.292258
0.211517
31.2268
0.471374
0.494799
0.0094348
31.5648
32.0889
0.809479
2.0992
32.0467
0.415918
0.529712
0.15089
32.2381
32.2626
32.1455
0.142179
0.413066
2.65017
0.531262
31.5245
0.37842
1.94586
2.64244
2.47364
31.1032
31.9277
0.549997
2.72925
2.6625
1.50266
31.1022
2.6033
31.3892
0.567595
2.75264
1.96629
31.2867
29.1359
2.70739
2.90127
28.6216
28.7774
31.4003
1.44051
30.65
27.5022
2.04419
2.01158
31.3984
28.2091
1.78216
0.540204
0.443202
1.41532
1.20707
28.6448
2.12124
26.5183
25.922
31.9636
1.46276
2.34488
0.40293
26.069
33.9283
2.07345
2.76334
2.2082
2.33151
1.86045
1.66433
1.82558
0.605398
25.6289
1.95993
1.42306
0.587344
1.41695
2.26693
19.3335
1.27231
1.36032
1.36613
1.35768
0.532207
24.9026
29.3553
1.57703
29.5593
29.9122
1.88159
29.6235
1.1937
28.9916
29.3178
31.3194
28.2601
1.50674
0.555079
1.47422
28.9233
0.788495
1.42837
1.88472
29.3598
32.0241
1.51892
1.60077
2.65511
1.52144
28.1278
0.0513609
0.468105
0.33366
31.2753
31.5013
0.959119
0.784871
31.6076
29.4692
2.54748
0.047653
28.8584
2.75746
2.49725
2.5359
1.67397
29.1608
1.84945
7.05492
0.305579
0.382606
2.62622
2.485
2.40496
1.03248
1.93777
28.5593
2.11538
1.92866
2.62128
2.67947
2.55626
29.2842
1.29078
1.95793
1.14503
1.62795
1.92336
2.59741
0.590771
2.58956
2.43053
2.59177
0.857285
2.59431
2.76303
1.88614
2.30258
32.0845
1.8207
32.1586
1.86821
1.95227
2.58035
2.64007
2.61346
1.87104
1.89136
2.65058
1.50494
0.590466
31.2327
24.4856
2.66136
2.70783
2.20795
2.73524
2.76878
2.63542
2.7947
3.11028
25.4361
0.54568
3.18587
-3.40811
26.4411
0.182308
24.7045
1.45604
1.8293
2.15795
1.3881
31.5994
1.8497
2.60428
-0.871334
31.3688
2.70922
0.498249
2.46069
2.7095
2.74697
24.8804
31.3488
1.37929
1.99824
1.1279
2.00269
1.80514
1.98275
2.8618
27.2883
0.295423
26.385
2.13432
0.540861
2.14351
32.0772
22.7482
2.64929
2.02521
1.50305
2.1102
31.3649
2.16306
2.12882
0.268305
2.10898
13.5004
8.05714
2.2342
31.9686
31.3087
1.35357
13.1291
2.59587
32.0994
1.0433
31.9111
0.155531
31.5438
0.68443
2.62781
2.0587
2.10647
2.24249
1.94181
2.44544
2.62127
0.257351
2.15838
1.26954
2.14767
30.5441
0.789672
31.2477
2.27067
2.28865
1.81448
1.64508
2.2171
0.512114
1.44791
2.13561
2.1829
2.17317
2.50703
2.7692
32.4339
2.15896
0.593984
0.52233
0.536352
2.1987
0.29128
0.786246
2.81698
2.00346
0.705339
1.99944
1.30478
2.26599
1.84876
31.2941
31.2787
1.92458
2.01596
2.42476
31.4098
-0.60162
0.296659
1.93734
1.46323
0.956558
1.5644
1.32181
2.0266
0.0645903
1.21964
2.50139
1.02522
1.7193
1.5784
1.44072
2.52725
2.23881
1.00759
2.58694
2.10651
1.60761
0.838413
2.31286
0.627054
1.16589
0.669472
1.52152
1.977
1.01622
0.784855
31.1945
2.29032
1.24111
1.56439
12.7764
2.29205
26.6028
1.38435
2.20848
0.326638
2.41086
31.803
2.24333
2.43892
-0.637378
2.36476
0.0665342
2.47957
31.3585
1.59476
0.424214
2.51888
2.54765
1.17892
31.1515
31.378
5.87191
29.5884
2.50864
31.8961
2.51572
5.95063
29.56
29.7997
0.359345
30.2529
32.0032
2.48308
1.52162
32.2404
1.83949
1.34989
1.84202
-2.69051
32.0025
2.74337
2.46732
2.43168
3.79699
31.9989
2.84717
2.45831
2.64175
31.3518
1.54411
2.45589
31.8096
1.34642
31.9661
32.1362
2.62751
2.43806
32.064
3.21063
2.79098
2.80826
2.75454
2.19244
2.74504
2.69886
2.24848
2.50773
32.1574
1.34853