/*--------------------------------*- C++ -*----------------------------------*\
  =========                 |
  \\      /  F ield         | OpenFOAM: The Open Source CFD Toolbox
   \\    /   O peration     | Website:  https://openfoam.org
    \\  /    A nd           | Version:  10
     \\/     M anipulation  |
\*---------------------------------------------------------------------------*/
FoamFile
{
    format      ascii;
    class       surfaceScalarField;
    location    "4.9";
    object      phi;
}
// * * * * * * * * * * * * * * * * * * * * * * * * * * * * * * * * * * * * * //

dimensions      [0 3 -1 0 0 0 0];

internalField   nonuniform List<scalar> 
214403
(
-0.00653642
0.00501233
0.00027685
0.00124723
-0.00320943
-0.0107967
0.000917805
0.0130883
-0.00986481
6.54623e-05
-0.00013448
0.00993382
0.00860352
-0.00578373
-0.0144213
0.0116015
0.0118255
-0.0149511
0.00355948
-0.000433849
-0.00515
0.00536585
-5.31243e-05
-0.000162729
-0.000826475
-0.00156029
-0.0088737
0.0112605
-0.0163521
0.00930807
-0.00245745
0.00950147
-0.0224381
0.0158475
0.0159853
-0.00939472
0.0136546
0.00162176
-0.0152639
-1.24118e-05
0.00485093
-0.00960757
0.00197647
0.00278017
-0.00995193
0.00312879
0.00515837
0.00166476
0.000458517
-0.0110255
0.0132809
-0.0027139
-0.0095717
0.00962614
-5.44431e-05
0.00184681
0.0114857
-0.014724
0.00139152
-0.0115897
0.00968728
0.00293504
-0.00103261
-0.0116753
0.0113874
0.000287883
0.00379101
-3.60142e-05
-0.00091609
-0.00283891
0.0150894
-0.00902976
-0.0200634
0.0140037
-7.33985e-05
-0.00301275
8.86019e-05
0.00299754
0.00621296
-0.00606689
-0.000146066
-0.01183
-0.00409271
0.00406921
0.0118535
-0.00219687
0.0131267
-0.010586
-0.000343764
0.00647113
0.000678658
0.00225626
-0.00940604
-0.00986304
-0.00474329
0.0127694
0.00183698
0.00892606
-0.0113042
6.59737e-05
0.00231216
0.00310799
-0.00271578
0.0101745
-0.0105667
0.00737007
0.0096393
-0.0116105
-0.00539888
0.0107551
-0.00674465
-0.000305975
-0.00370443
-0.00569013
0.00580051
-0.000110384
0.00234586
-0.00488864
0.0130487
-0.0105059
0.0135878
0.000644043
-0.0023681
-0.0118637
-0.00545768
-0.00560146
0.00573625
0.00532288
-0.00114918
-0.00648124
0.00574132
0.00188911
0.00423656
-0.002878
-0.0090334
0.00767484
-0.00163995
0.00818175
-0.00295586
-0.00358593
0.0154491
-0.000380902
-0.0150682
-0.00663389
0.0129428
-0.0063089
0.00119703
-0.014199
0.00822229
0.00477967
0.00236452
-0.000950695
0.00578644
-0.00720027
0.00546983
-5.72581e-05
-0.00541258
0.00986343
-0.000212641
0.00174767
-0.0113985
-0.012509
0.00157132
0.0133022
0.000834162
0.000851695
0.00831095
-0.00999681
-0.00397299
-0.0259236
0.0251473
0.00474932
0.00554162
0.00100067
0.0012528
-0.00779509
0.00408336
0.00308846
-0.0099756
0.00280377
0.012858
0.00770408
-0.014091
0.00116428
0.0109165
-0.00221733
0.0017676
-0.00661547
-0.003896
0.00874387
0.00301133
0.00462598
0.00137695
-0.00901426
0.00177833
-0.0013366
-0.00410595
0.00366421
0.006665
-0.0120647
0.00841103
0.0114681
-0.010798
-0.00370317
0.00303307
0.0103205
-0.00188792
-0.00827399
0.0112175
-0.000475205
-0.00246832
0.00851953
-0.0108959
0.000126644
0.00224968
-0.00794606
0.000525812
0.0126974
-0.00527717
-0.0147763
-0.013906
0.0116689
0.0170134
-0.00789147
0.00794205
0.00156061
-0.00161119
0.00124576
-0.0100879
-0.00831879
-0.000173263
0.00432445
0.0041676
-0.0129341
0.00555318
0.00836766
-0.000986735
0.0151707
-0.0122166
0.000775202
-0.00372929
0.000695347
0.000255309
-0.00993347
0.00898281
0.000504855
-0.00276005
0.013641
-0.0113858
-0.0336922
0.00354419
0.003773
0.026375
-0.00309303
0.00911228
-0.00288553
-0.00313372
0.00448726
-0.00235839
-0.00958481
0.00745593
0.00107939
0.00672232
-0.00854304
0.000741331
-0.000162603
0.00820136
0.00284905
-0.0108878
-0.00162713
-0.000259763
-0.00340143
0.00528833
-0.00874044
0.00954989
-0.00036031
-0.000449138
0.00030516
-0.008752
-0.00617519
0.00546989
0.00166002
-0.000954722
-0.0162836
-0.00102912
0.00794337
0.00936931
-0.00490812
-0.00209218
0.00417585
0.00282445
0.00724947
-0.0243109
0.00336943
0.013692
-0.00377024
0.00758706
-0.00414423
0.000327408
0.00540343
-0.00419695
0.000533644
-0.00174012
0.000124842
-0.010224
0.0100992
3.43324e-05
0.00829435
-0.00832868
0.007281
-0.00142324
0.00096406
-0.00682181
-0.00441123
0.00629374
0.00208612
-0.00396862
-0.00309411
0.0131882
-0.00317202
-0.00692206
0.00623751
-0.0106346
-0.000401674
0.00479875
0.0071051
0.00749562
-0.0146007
0.0104952
-0.011795
0.00302204
-0.00172218
0.00102224
-0.00189341
0.0137015
-0.0128303
0.000395765
-0.002205
0.00986277
-0.00805354
0.00234838
0.0206349
0.00594224
-0.0289255
-0.0180452
0.0158739
0.0102935
-0.00812213
0.000827424
0.00637897
-0.00857015
0.00136375
0.00844516
0.00937885
-0.00306906
-0.0147549
0.0156448
-0.0095071
-0.000307844
-0.00582981
0.000688366
-0.00201737
-0.00633504
0.00766404
-0.00641097
3.64546e-05
0.00637452
0.00951061
0.000328241
0.000656303
0.0118366
0.00099589
-0.0180105
0.00517801
-0.00949048
0.00209211
0.0016878
0.00571057
-0.00604947
0.00149997
0.000743632
0.00380587
0.00147201
0.00105376
-0.0124947
0.00996897
-0.00254999
-0.0148403
0.00946151
0.0079288
0.00597565
-0.00707067
-0.00460653
0.00570156
0.0096567
-0.000100236
-0.00965351
9.70458e-05
0.00735858
-0.0104009
-0.00360175
0.00664405
0.0190539
-0.00576769
-0.00296882
-0.0103174
0.010843
-1.92371e-05
-0.00996893
-0.000854805
-0.0054879
0.00646044
0.0134595
-0.014432
0.0117451
-0.00412317
-0.0112981
0.00367617
0.00216921
-0.00316916
0.0137736
-0.0127737
-0.0154888
0.0141158
0.0133831
-0.0120101
0.000699965
-0.0120916
0.00466391
0.00672769
0.0151402
-0.000796793
-0.000311562
-0.0140319
0.0107221
-0.00208778
0.00207445
-0.0107087
-0.0124261
-0.011305
0.0133791
0.0103519
-0.00235832
0.00676678
0.00183434
-0.0062428
-0.00525221
0.000286364
0.0101797
-0.00521387
-0.00117632
0.0132672
-0.0123472
0.000256301
-0.0115183
0.0106963
0.00208233
-0.00126029
-0.000386863
-0.00671873
0.0160317
0.00210693
-0.00700811
-0.00513067
0.0100319
-0.00555805
7.2238e-05
0.00548582
0.00170439
0.00775013
-0.00716925
-0.00228527
0.0124307
-0.00716849
-0.0019066
-0.00335558
9.71764e-05
-0.00370079
0.00360361
-0.0069772
-0.00188309
0.00262521
0.00623507
0.000726926
0.00399852
-0.00896808
0.00424264
0.0153137
-0.00138308
0.00598429
-0.0199149
0.00108681
-0.00136185
-0.018415
0.01869
0.00118821
-0.00528051
-0.00697352
0.0110658
0.000445956
0.00960011
-0.000535454
3.85009e-05
-0.00568271
0.00564421
0.0116439
-0.00432344
-0.00521358
-0.0070571
0.00589018
-0.00581027
0.0128904
-0.0107276
-0.00130308
-0.000859743
0.00128602
-0.00608072
0.0026585
0.00213621
-0.010511
-0.00318631
0.00213839
0.0115589
0.00875881
-0.0142306
0.00937723
-0.00390546
-0.000390751
0.0128614
-0.0128777
0.000407096
-3.90866e-05
0.0117703
-0.0116624
-6.88682e-05
-0.0163516
0.0130508
-0.0104765
0.0137773
0.0136391
-0.0132006
-0.000438561
-0.0125351
0.016783
-0.00306255
-0.00118534
-0.0111885
0.00269153
-0.000844454
0.00934138
-0.018414
0.00141348
0.0118396
0.00516092
0.00325529
-0.00444619
0.00247692
-0.00454492
0.00516671
0.00831241
-0.0089342
-0.00487461
-0.00218754
0.00278949
0.00427266
-0.0066396
0.00434082
-0.00837916
0.0106779
0.00199425
0.000163746
-0.0146931
-0.0065851
0.00657035
1.47492e-05
0.00715618
-0.00688096
-0.000275228
-0.0108075
-0.000706879
-0.00287188
0.00265801
-0.0142196
0.016549
-0.00498737
0.00639799
0.0110063
-0.0139991
-0.00340525
0.0122229
-0.0132753
0.000357468
0.000694932
0.00653799
0.00169589
-0.00675527
-0.00147861
-0.0102968
-0.000569887
0.0135246
0.00596631
-0.000431145
-0.00727318
0.00173802
0.00672207
-0.00575665
0.00663165
-0.00759707
-0.0116379
0.00218816
0.0158477
-0.0039371
-0.0055114
0.0182147
-0.00876624
-0.00560646
-0.00618309
0.00149279
0.00166506
0.00444503
-0.0117166
-0.00795256
-0.00070146
0.0127807
-0.00412668
0.00123832
0.0019585
0.00709262
-0.0102894
-0.00376137
0.00920659
-0.00544522
0.00298208
-0.0143629
0.00519769
0.00855602
0.00597656
-0.0128675
-0.0120434
0.000145877
0.0150064
-0.0031089
0.00206184
0.00176693
0.00551901
-0.00934777
0.00820216
-0.00826547
6.33085e-05
0.00304865
-0.00115146
0.0102343
-0.0121315
0.010766
-0.00340991
0.00517226
-0.0125283
0.0198663
-0.00639575
0.0148243
-0.0282949
0.00322331
0.00599991
-0.00249416
-0.00672907
-0.00902677
0.00371419
0.00472957
0.000583017
0.00646718
-0.0048717
-0.000134352
-0.00146113
-0.00414634
-0.00524921
0.0152959
-0.00590036
-0.00724511
0.00940802
0.00374912
-0.00591203
0.0109136
-0.000596628
-0.00359489
-0.0168355
0.0111298
-0.000933943
-0.016055
0.014814
0.0068805
-0.00563952
0.0102439
-0.0115436
-0.00166666
0.00296633
0.00576887
-0.0104351
-0.00546003
-0.00596637
-0.00547384
0.00309368
0.00834652
-0.00851023
0.00264248
0.0084062
-0.00253845
0.00986372
-0.00938566
-0.00647047
0.00599242
6.06064e-05
-8.65364e-05
-0.00928974
0.00931567
0.000224788
-0.00812295
-0.000307745
0.00820591
-0.00234987
-0.013922
0.00218827
-0.00805188
0.00724182
-0.0013782
-0.00544522
-0.0022929
-0.000772106
-0.000177246
0.0136418
0.000190006
-0.0326238
0.022948
0.0165887
-0.00691281
-0.00965586
0.000657175
0.00034613
0.00865256
-0.00191321
0.030555
-0.0359762
0.00733446
0.00153431
0.00236661
-0.00531066
0.00140974
-0.020664
0.0111332
0.00144123
0.00808961
-0.00024268
-0.013708
-0.00195466
0.0159054
-0.00565608
0.0206351
-0.0142736
-0.000705391
0.0092658
0.0134767
-0.0124554
-0.010287
-0.011056
0.0105327
0.0130758
-0.0125524
0.00431682
0.00603179
-0.00751311
-0.00283551
0.00426729
-0.00287588
-0.00683663
-0.0219695
-0.000870081
0.0179359
0.00490362
0.00648925
0.000998208
-0.00377327
0.00663065
0.00887744
-0.0081964
-0.00731168
-0.0109759
0.00245054
0.0107025
-0.00217709
0.00130078
0.00345472
0.0120275
-0.0127377
0.0125738
0.00122085
-0.00105699
0.00792094
0.00621665
-0.00560103
-0.00022115
-0.00157632
0.00739849
-0.00841774
-0.00167745
0.00468208
-0.0161694
0.00687975
0.00460759
0.000492051
0.00875437
-0.00971134
0.000464918
-0.00335028
0.000648477
-0.00311822
0.00582003
0.0135471
-0.00968453
0.000404748
-0.0076791
-0.00600796
0.00808236
0.0056047
0.0289928
-0.0310157
0.0101312
-0.00810825
-0.0056065
0.00696619
0.00280612
-0.00416581
-0.0128074
0.00555272
0.0111615
-0.00390686
-0.00551603
0.00800836
0.0103026
-0.0127949
0.0154282
-0.00595017
-0.0102078
0.000729733
0.000267269
-0.00374045
0.0090976
-0.00562442
-0.00158124
0.0015665
-0.0120287
0.0111124
0.00360597
-0.0118974
-0.00282093
0.0139647
-0.0114576
-0.00307691
0.00291302
0.00430295
-0.0101982
0.00298224
-0.00578193
-0.0105684
0.00940027
0.00695004
-0.00175262
-0.00454907
-0.00137741
0.00568832
-0.00608564
0.0131016
-0.0127043
0.00137998
-0.015873
0.014493
0.00536848
-0.00703376
0.0045783
0.00295474
0.00170937
0.00242415
-0.00708825
-0.000301614
-0.0132476
0.0135492
-0.00727661
0.000966703
-0.0023616
0.00867151
-0.000869697
0.0100664
-0.00916899
-2.76934e-05
-0.00681388
-0.00360816
0.00393504
0.00648699
-0.00253942
-0.00602707
-0.00559212
-0.00822145
0.00685735
0.00695622
0.000302657
-0.0084342
0.0144544
-0.00594274
-0.000769728
-0.00774193
0.00775222
-0.000743999
-0.00565403
-0.00135419
-0.00125212
0.0108407
-0.0135108
0.00392219
0.00696867
0.00026819
0.0033921
-0.010629
-0.000255167
-0.00572825
0.00276783
0.00321558
-0.00399357
0.00519193
0.0100299
-0.0112283
-0.0141089
-0.00363645
-0.00392894
0.0129339
-0.01216
0.000292961
0.00380279
0.00806423
0.00116963
-0.00428856
-0.00762014
0.0107391
-0.0055801
-0.0108922
0.00274887
0.0137234
-0.005034
-0.00558164
0.00580191
0.00481372
-0.0130776
0.0125873
0.0132912
-0.012801
-0.00178391
-0.00311502
-0.00939298
0.0142919
-0.0128637
0.00128748
0.0130915
-0.00151531
-0.00223991
0.00597921
-0.00373929
-0.00520742
0.00962606
-0.00724607
0.00282744
-0.000215335
0.0171565
-0.00638714
-0.010554
-0.00615375
-0.00297215
0.0123345
-0.00320859
0.00197825
-0.00518997
0.0117736
-0.00856191
0.000544017
0.00771362
-0.00135134
-4.29793e-05
-0.0125358
0.0125306
4.81113e-05
0.0144312
-0.00255669
-0.0210921
0.00921766
-0.0133297
-0.00130025
0.0166367
-0.0020067
-0.00723245
0.0109273
0.000896769
-0.00459167
0.00643993
-0.00636557
-7.43615e-05
-0.00764789
0.000740004
-0.00659936
0.0135072
-0.0110379
0.015212
-0.00316873
-0.00100539
0.00687857
-0.00288373
-0.00829388
0.00429904
-0.0132874
0.0134014
-0.000114058
0.0109561
-0.0159275
0.00128593
0.00368542
-0.0123981
-0.00339406
0.0212025
-0.00541039
0.00916304
-0.00038538
-0.00192359
-0.00685407
-0.00521233
-0.00885504
0.0197557
-0.00093678
-0.013038
0.00788915
0.0204471
-0.0228041
-0.0021719
0.00452893
0.00554372
0.00264289
-0.00612477
-0.00583096
0.00607644
-0.000245477
-0.0023447
0.0131116
-0.000833506
-0.00993343
-0.00285994
0.00339265
0.0114047
-0.0119374
0.00745906
0.0175305
-0.0102449
-0.0147447
0.0128841
-0.0154576
0.00491478
-0.00234131
0.0116163
0.000161055
-0.0117774
0.000214834
0.0113064
-0.0115212
0.0127557
-0.0154372
0.0136376
0.000136159
-0.000114971
0.00997588
-0.00999707
0.00024785
0.0181136
-0.0180446
-0.00031681
-0.00154498
-0.00456575
-0.00924555
0.0153563
-0.00566017
-0.00338871
0.00113513
0.010718
-0.0186414
0.00678826
-0.00898541
-0.00235638
0.00963406
0.00170773
-0.0107006
0.0118158
-0.00315731
0.00204212
0.00167201
0.00871134
-0.00296413
-0.00741922
-0.00419823
0.00103055
0.00714694
-0.00397926
-1.59699e-05
0.00326865
-0.00411361
0.00086093
-0.00454462
0.0111189
-0.0064118
-0.000162441
0.00331881
-0.0104853
-0.00612087
7.47442e-05
-0.00977563
0.00970088
-0.00365878
-0.00351077
0.00162786
0.00554168
0.00543688
-0.00313657
-0.0023003
0.0136598
-0.0135636
-0.00277094
0.0026747
-0.00124743
-0.00810694
0.00747846
0.0018759
-3.47091e-05
4.68367e-05
0.00738612
-0.00739825
0.00368517
-0.00302907
-0.0117247
0.0110686
0.00850727
-0.000216729
-0.00829054
-0.0123738
-0.00801428
0.0119397
0.00844837
0.00723252
0.0113298
-0.0194991
0.00687681
-0.00247461
0.0038735
-0.00827569
-0.00275582
0.00274702
-0.0152171
0.0152259
0.00428666
-0.00844495
-0.00820578
0.0123641
-0.000865083
-0.00193321
0.00910308
-0.00630479
0.00634205
-0.00779395
0.00282421
-0.00137231
0.00351554
-0.00582775
-0.00563342
0.00794564
-0.0112523
0.0126624
-0.00336205
0.001952
0.012863
0.0165317
-0.0182102
-0.0111846
-0.00992622
0.00988297
4.32495e-05
-0.00111111
0.0117122
-0.0146279
0.00402681
0.000452934
-0.000738701
-0.0112864
0.0115722
0.0110035
0.000461457
-0.0126602
0.00119517
-0.00475722
-0.00804029
0.0101112
0.00268626
-0.011492
0.0162833
-0.00576631
0.00097503
-0.0046788
-0.00573127
0.00340196
-0.000697679
-0.000119703
-0.00809316
0.00891055
-0.0264396
0.000102545
0.00236379
0.0239733
0.00104163
-0.00669159
-0.00346362
0.00911358
0.0165157
-0.00135849
-0.00534655
-0.00981061
-0.00291705
-0.00633184
0.00121727
0.00803162
0.00467907
-1.65123e-05
-0.00466256
0.00777079
0.00413775
-0.00257872
-0.00932983
0.00601247
-0.00475922
0.0118521
-0.0131054
0.000386239
0.0123356
-0.00407556
-0.00864628
0.002991
0.00427491
0.00924974
-0.00587696
0.000426357
0.0054506
-0.00764908
0.00108719
0.00202625
0.00128097
-0.0105641
0.00725691
-0.0100423
0.0146963
0.00444895
0.0151793
-0.00321713
-0.0164112
-0.00966115
0.00948156
-0.015006
0.0151856
-0.00144028
-0.00722555
0.00252722
0.00613861
-0.00799038
0.0150955
0.0044993
-0.00523632
0.0011725
-0.000435486
-0.00495494
-0.0157913
0.00494367
0.0158025
0.0103703
-0.0103481
-9.68267e-05
7.46727e-05
0.00837925
-0.00979863
0.002088
-0.000668619
0.00215109
0.00842028
-0.0150055
0.00443408
3.65825e-05
0.00720133
-0.00723791
0.00469265
-0.0120182
0.00947661
-0.00453895
0.0121909
0.0102708
-0.0179227
0.0034586
-0.0035291
-0.0163997
0.0164702
-0.00494448
0.00819289
-0.0164386
0.0131901
-0.0117693
0.00936993
0.0122838
-0.00988448
-0.0073411
0.0100573
-0.00649878
0.00378254
-0.0015663
0.0068231
0.00111134
-0.00636814
0.00341794
-0.00498432
0.00513995
-0.00357357
0.00652537
0.00242812
0.00214638
-0.0110999
0.0184336
-0.0125127
-0.000756967
-0.00516394
-6.40489e-06
-0.00894169
0.0089481
0.00560523
-0.00819771
-0.0251356
0.0277281
-0.00112696
-0.0121758
-0.0036899
0.0169926
-0.000736649
-0.00557681
0.00631345
0.00170814
0.00809356
-0.00128332
-0.00851837
-0.00224931
-0.00812169
0.00655389
0.00381711
0.00635666
-0.00532479
-0.00935066
0.0160884
-0.0125227
0.00357173
0.00378333
-0.00735506
0.0121828
-0.000217918
-0.00145128
-0.0105136
-0.00235082
-0.00399891
0.00634973
0.00432324
0.00287283
0.0242966
-0.029225
-0.010314
0.0152424
0.00371443
0.00790969
-0.00605053
-0.00557359
-0.00849404
0.0162797
0.0108108
-0.0185964
0.00960663
0.00333497
-0.00128374
-0.0116578
0.0157849
-0.0105264
0.00679167
-0.0120502
-0.00891469
0.00407613
-0.0111809
0.0160195
-0.0144771
0.0259351
-0.0101605
-0.00129743
-0.000389076
-0.00615772
-0.00849021
0.015037
0.0117425
0.0048556
-0.0137834
-0.00281477
0.00630919
-0.0168139
0.0106076
-0.000102892
-0.0148225
-0.000562817
0.00969581
0.00568949
-0.00297458
0.00769596
0.00334667
-0.00806805
-0.00188203
0.00754642
0.00607633
-0.0117407
-0.0154804
0.00796131
-0.000745412
0.00826454
0.00140168
-0.0041839
0.0083207
-0.00553848
0.00659543
-0.00331765
0.00235406
-0.00563185
0.00635226
0.001221
0.000625329
-0.00819858
-0.00932919
0.0100078
0.00371006
-0.00438871
-0.00222011
0.0118845
0.000236524
-0.00990091
0.00959177
-0.00563048
-0.00371806
-0.000243229
0.00824903
6.06589e-05
-0.00830969
0.00603057
0.00466829
-0.00105986
-0.00963899
0.00283373
0.00746718
0.00637962
-0.0166805
-1.03655e-05
-0.0134317
0.0134421
-0.00700153
0.0271076
-0.00396063
-0.0161455
-0.000124408
0.0101052
-0.00998074
-0.000671949
-0.00724765
0.00130154
0.00661806
-0.0132003
0.00672712
0.00510898
0.00136418
0.00269528
0.00223729
-0.0154201
0.0104875
0.00783597
0.0123817
-0.00462682
-0.0155908
0.0118736
-0.0040684
-0.0113653
0.00356013
-0.0148358
0.00846431
0.0226357
-0.0162642
-3.86275e-05
0.00571655
-0.00571673
3.88087e-05
-0.00591327
0.00585209
6.11796e-05
-0.0150723
0.000229849
0.00634837
0.00168738
0.00364152
0.00997463
-0.0153035
0.00783053
-0.00931404
0.0060081
-0.00452459
-0.00758169
0.00663968
-0.000251052
0.00119306
-0.00157139
-0.0124604
0.0159277
-0.00189592
-0.00558406
0.00268886
0.00884025
-0.00594505
0.00962643
-0.00371124
0.00141796
-0.00733316
-0.00635697
-0.00110791
0.00744142
2.34594e-05
-0.00110449
-5.96076e-05
0.0104948
-0.0093307
0.00132369
-0.00111713
0.0104401
-0.0106467
-0.00940076
0.0131419
-0.0137738
0.0100327
5.93059e-05
-0.0118338
0.0117745
-0.0042178
0.000368624
0.0106377
-0.00678855
-0.00805054
0.00941234
-0.0128376
0.0114758
-0.0082624
0.00062709
0.00250464
-0.00384283
0.0104099
0.000581628
-0.00714872
-0.00276645
0.000383213
-0.00467386
-0.00409731
-0.0133118
0.0133716
0.00403746
-0.00592984
-0.000691932
-0.00149304
0.00811481
-0.0203105
0.00686258
0.00200485
0.0114431
-0.00639117
0.0147315
-0.00734308
-0.000997296
0.00445975
0.00175475
-0.00898095
0.00883501
0.0090048
-0.0178398
0.00120592
0.0193972
-0.00448735
-0.0161157
-0.00024844
-0.000346438
-0.00861559
0.00921047
-0.00932116
0.0153489
-0.00618868
0.000160983
0.00883823
-0.00557998
-0.00801102
0.00475277
0.00222106
-0.000297895
0.00271877
0.0136114
0.00378088
-0.0196536
0.00226131
-0.00944618
-0.0012249
0.00309423
0.00757685
0.00354405
-0.00394462
-0.0053307
0.0163661
-0.0110166
0.00857491
-0.0139244
-0.00181404
0.0105687
-0.018277
0.00952239
0.00634033
-0.00801713
-0.00081185
0.00248865
-0.00699023
-0.00243299
-0.000236133
0.00965935
-0.00523131
-0.00494156
0.0101729
0.0013157
-0.0140566
0.0124633
0.000277609
0.0053786
-0.00519153
-0.00541838
-0.00877169
0.0111329
-0.00212425
-0.000236946
0.0125322
0.00344505
-0.0134974
-0.00247989
-0.00485475
-0.00708255
-0.000812678
0.01275
0.00803797
-0.00244554
0.00932038
-0.0149128
-0.00890478
-0.00049598
-0.0106368
0.00569525
0.00136505
-0.0118768
0.00380024
0.00671153
0.00347276
-0.012446
0.00685288
0.00212033
0.00186158
0.000487416
-0.00933832
0.00698932
0.00141561
0.00608261
-0.000414957
0.0105409
-0.00208224
-0.00804375
-0.00412902
-0.000431364
-0.00386508
0.00842546
-0.00244744
-0.00329672
0.00630343
-0.000559278
-0.0097274
-0.00013564
-0.0164227
0.00589974
0.00864095
0.0233758
-0.000197313
0.0031941
-0.0263726
-0.0102509
0.0159182
0.00323237
-0.00889967
-0.00291805
0.00159578
0.0100614
-0.00873917
0.00121351
0.00344517
-0.00266505
-0.00199363
-0.0175876
-0.00364443
0.0151772
0.00605482
0.000387993
0.00746792
-0.00149926
0.000228438
0.00374102
-0.0117369
0.0077674
-0.00722483
-2.52721e-05
0.00266291
0.00458719
-0.0100157
0.0123783
-0.00197455
0.00565038
-0.00509477
-0.000555611
-0.00830054
0.00119058
-0.00644661
0.0135566
-0.00376716
0.00566935
-0.00436996
0.00246777
-0.00811126
0.00913423
-0.00377431
0.00275134
0.00362038
-0.000598278
-0.0085478
0.00552569
-0.00362752
0.0227414
-0.0306058
-0.00326764
-0.00228052
0.00223311
0.00331505
0.01074
-0.0167699
-0.000758002
0.00678788
-0.00451286
0.00336711
0.00580456
-0.00465881
-0.00134619
0.00713503
-0.00196437
-0.00382448
-0.00802305
0.00178003
0.00187565
0.00436737
-0.00452077
0.000388322
0.00413245
0.0103188
-0.00491389
-0.00523527
-0.000169653
0.000764783
0.00520701
-0.00790364
0.00193185
-0.00552425
-0.00669484
0.00682748
0.00539161
-0.0028861
0.00743659
-0.00636823
0.00181774
0.00266947
-0.00505162
0.00348118
-0.00109903
0.00972761
0.00026189
-0.0099895
0.00837396
-0.0103146
0.00510611
-0.00316546
-0.0131442
-0.000375911
0.0135201
0.00538562
-0.00446697
0.00104211
-0.00196076
-0.000425286
0.00932546
-0.0101819
0.00128171
-0.00465005
0.00582183
0.00149769
-0.00521549
0.0111742
0.0103245
-0.00883052
0.00875161
7.891e-05
0.000238781
-0.0139576
0.0137188
0.0188672
0.00227169
-0.00400859
-0.0171303
0.00394903
-0.015389
-0.00190771
0.0133476
0.00298164
0.00351939
0.00199441
-0.00849544
-0.00529096
-0.00529466
7.0681e-05
0.0105149
-0.00252474
0.00346814
-0.00623436
-0.0116193
0.00210181
0.0152531
-0.00573562
-0.022837
0.0167254
0.00736174
-0.00125016
0.0100927
8.15326e-05
-0.0101742
-0.00577154
-0.00776815
0.00502233
0.00851736
-0.00575884
-0.00835533
0.00249483
-0.00827164
0.0044888
0.00519846
0.00336958
-0.00438357
-0.0080456
0.00905959
-0.00565027
2.86601e-06
0.0056474
-0.0132345
0.00538055
0.00546552
0.00238843
0.0033267
-0.00890518
-0.00269316
0.0113588
-0.0036071
-0.000283529
-0.00746822
-0.00763647
0.0126524
0.00750666
-0.0125226
-0.00226015
-0.00473639
0.00176469
0.00523185
-0.00320639
-0.00257891
0.00578529
-0.00561477
-0.0118035
-0.00541879
0.00265344
3.44774e-05
0.00535495
-0.00804286
0.0108119
-0.00787327
-0.0113854
0.00844677
-0.00401301
0.00143118
0.00810487
-0.00552304
0.00757285
-0.0053311
-0.000750419
-0.00149133
-0.00868326
0.00141037
0.00678237
0.00049051
-0.00537645
0.012346
-0.013392
0.00522171
0.000386587
0.00778366
0.0126133
-0.0100862
-0.00793581
0.00540866
-0.0100356
0.00209242
0.0187551
-0.0097066
-0.0064045
0.0104489
0.00566217
-0.0011337
0.0101122
-0.00383694
-0.00514155
0.000579697
-0.00601118
-0.00396222
0.0093937
0.0115123
-0.00759513
-0.000467297
-0.00344989
0.00357329
0.00266994
-0.00876796
-0.00242088
0.00274024
0.00675697
-0.00707633
-0.00201869
0.0105329
-0.0129812
0.00446696
-0.00635815
0.0015341
0.00153845
0.0032856
-0.0138659
0.0141036
-0.000237723
0.00958629
-0.0094505
-0.00013579
0.00385666
-0.0148789
-0.00571423
0.0167365
0.0033975
0.00645185
0.0015095
-0.000161792
0.00562612
-0.00546433
0.00910399
0.00815543
-0.0172594
-0.0100167
0.00611515
0.00432232
-0.000420727
-0.0056247
0.00185371
0.00457288
-0.000801894
-0.0168939
0.00788592
0.00926753
-0.000259576
-0.00545051
-0.0060791
0.00587935
0.00870757
-0.00137309
-0.00560345
-0.00173102
-0.00928359
0.010026
-0.00611887
0.00164788
-0.010465
-0.00053499
0.00935207
-1.31435e-05
-0.00516579
0.00517893
0.025259
0.00018744
0.00269691
-0.0281433
-0.000952591
-0.00186935
-0.0137757
0.0165977
0.0043674
-0.0059143
-0.00275232
0.00429923
0.00170688
0.0130748
-0.00528973
-0.00949191
0.0142406
-0.0142472
-2.98667e-05
3.64367e-05
-0.00799545
-0.00721529
0.0112773
0.00393349
0.00466535
0.00356506
-0.0092931
0.00106269
6.58967e-05
0.00865531
-0.00884422
0.000123013
-0.0119013
0.00381453
0.00964444
-0.00155769
0.00910696
0.00550519
-0.00921955
-0.00539261
0.000216797
-0.00814635
0.00413193
-0.00212107
0.0122298
-0.00655817
-0.00085254
-0.00102095
0.00843165
-0.011005
0.000569763
0.0104353
0.0161029
0.00695643
-0.0052166
-0.0178428
-0.0105163
0.000226944
0.0105062
-0.000957813
-0.00249281
-0.00636492
0.00981554
-0.00123386
-0.00126726
-0.00339937
0.0059005
0.00265039
-0.0134485
0.0101404
0.00065776
0.00837127
-0.00130484
-0.00814601
0.00107958
-0.0103042
0.00214774
0.0008199
0.00733651
-0.00393317
0.00258473
-0.00535139
0.00669983
0.00225944
0.00143532
-0.013309
0.00961425
0.000464651
-0.00903131
-0.000627468
0.00919413
0.00894685
0.00117414
-0.000155286
-0.00996571
-0.0106811
0.00248803
0.00966506
-0.00766591
-0.0101739
0.0178399
0.0147905
-0.00751637
0.00319035
-0.0104645
0.00116403
0.00828481
-0.00508144
-0.0119811
0.00219914
0.0042513
0.00553063
0.0147857
-0.0152435
0.000457824
-0.0089929
-0.00305368
0.00629573
0.00575085
-0.011649
-0.0090441
0.00606631
0.0146268
0.0120301
-0.0125637
-0.00153787
0.00207151
-0.0017483
0.00584458
-0.00460719
0.000510907
-0.015133
0.00493665
0.00347514
0.00672125
-0.0222823
0.0277034
0.00461877
-0.0100398
0.00995325
-0.0215747
-0.0011146
0.012736
-0.00884907
0.0112691
-0.0208831
0.0184631
-0.0092576
0.0203815
0.00202719
-0.0131511
0.000817006
0.00969795
-0.00226617
-0.00824878
0.0147493
-0.0110635
-0.000371581
-0.00331421
-0.00257917
-0.00247594
0.00378566
0.00126945
-0.00694895
-0.0144724
0.0123644
0.00905697
-0.00989317
0.0131768
0.0114657
0.00809145
-0.0059487
-0.00741222
0.00526947
0.0029597
-0.00382971
-0.00169102
0.00256103
0.00654868
-0.00647903
-0.00862543
0.00855577
-0.00265524
0.00761828
-0.000551294
-0.00441175
-0.0105914
-0.00169311
0.0131015
-0.00796081
-0.00195735
0.00984165
7.65158e-05
0.00329062
-0.00735127
0.00406065
0.00260974
-0.00346471
0.0129037
-0.0120487
0.0101251
-0.014246
0.00206726
0.00205364
0.00645284
-0.00696134
0.000508501
-0.0101632
0.000269997
0.00905507
-0.00345343
-0.00874111
0.00313948
0.00285602
0.00231196
0.0101364
-0.0153044
0.00630851
-0.0068492
0.000540697
-7.78494e-05
0.00786787
-0.00889403
0.00110401
-0.0111617
-0.00107449
0.014846
-0.00479718
-0.000819566
0.00110822
0.00450852
0.000662841
-0.0054766
0.00404014
0.000773623
0.00898056
-0.00859496
-0.0021339
0.00103854
0.0149269
-0.00940609
-0.00655932
-0.00511954
0.0108096
-0.00569008
-0.0138732
0.00531391
-0.00325307
0.0118124
0.0109239
-0.00989481
-0.0161621
-0.00534953
-0.00639733
0.0219903
-0.0102434
-0.0156177
0.00994797
0.014184
-0.00851434
-0.000343783
-0.0133208
0.0136646
0.0211309
4.22595e-05
-0.0121783
-0.00899486
0.0122533
-0.00789185
-0.00108811
-0.0032733
-0.00893733
0.00633947
-0.00159432
0.00419217
0.000120793
-0.00920993
0.00908913
-0.00668564
0.00688135
-0.000195702
-0.00487488
-0.00515572
-0.0132017
0.0232323
-0.0124326
0.00271049
-0.00138852
0.0111106
0.0029003
0.00470714
0.0128085
-0.0115554
-0.00955715
0.0083041
-0.00354179
-0.00730564
0.00805483
0.0027926
-0.00735786
-0.00374177
0.0111105
-1.08464e-05
0.00241983
-0.00139189
-0.00684046
0.00581253
0.00812084
0.00036244
-0.0103824
0.00189908
0.00250534
-0.00174236
0.00270574
-0.00326436
0.00325215
-0.00269354
0.00664626
0.00650527
-0.00664483
-0.00650671
0.00326959
0.00764111
-0.00790666
-0.00300403
0.00689983
0.00299088
-0.00543096
0.00858195
-0.0104041
0.00218454
-0.0114188
0.00798342
0.0042995
-0.000864118
0.0135189
-0.00448114
-0.0141573
-0.00361475
0.00967745
0.00486118
0.00943547
-0.00459529
-0.00795614
-0.00217138
-0.00129129
-0.0126805
0.0118317
0.00112788
-0.000279106
-0.000791784
0.0158605
-0.00164336
-0.0134253
-0.0103341
0.00210647
0.0046129
-0.001652
-0.0104325
0.00293206
0.0091524
0.00947785
0.00131725
-2.90472e-05
-0.0107661
-0.0141583
-0.000114861
9.36786e-05
0.0141795
-0.0036604
0.00399788
-0.00651877
0.00618129
-0.00974233
0.0123242
-0.00127586
-0.00130603
0.0128046
-0.011957
-0.0105899
-0.0094634
0.00853526
-0.00270668
0.00363483
0.00761401
-0.00034318
-0.00239509
-0.00487574
-0.0143334
0.0138188
0.00677894
-0.00626436
0.0068373
0.00260407
-0.000868243
-0.00857312
0.0024387
0.00618451
-0.00773176
-0.00089145
-0.00457726
0.00460417
-2.69158e-05
-0.00267946
-0.00684032
0.00686455
0.0104346
-0.0103455
-8.90814e-05
-0.00582948
-0.00465222
0.00456739
-0.000618838
-0.00700589
-0.000768879
0.0083936
-0.000800011
-0.00616102
0.00550702
0.00145402
0.00958982
-0.0109
0.00131015
-0.0123001
0.0126246
0.0115543
-0.0118787
-0.00828672
0.0064017
-0.00435982
0.00624484
-0.00333444
0.00142484
0.00301943
-0.00110983
-0.000348904
0.0149619
-0.000132907
-0.0144801
-0.00761224
0.0036903
0.00374869
0.00435473
0.0055421
-0.00966863
-0.000228204
0.000418797
-0.0120132
-0.000470282
-0.0108119
0.0108123
-3.84417e-07
-0.00729598
0.00367321
-0.00802624
0.00245187
-0.0054254
0.000221221
0.00477551
0.00207362
0.00712296
0.000138705
-0.00609122
-0.00117045
0.00596317
-0.0148841
0.0119323
-0.00301137
0.0024785
-0.00337951
0.0125693
-0.0116683
0.0153932
0.00453873
-0.0023693
-0.0175626
-0.0039082
-0.00639916
-0.0020761
0.0123835
0.0046614
0.0194265
-0.0175387
-0.00654918
0.00223824
0.0140864
-0.0135959
-0.00272881
-0.00482116
0.000636811
0.00988112
-0.00569677
-0.00170283
0.0138216
-0.00745736
0.0100049
-0.00790061
-0.00308089
0.000976565
0.00327473
0.00855848
-0.0118332
0.00797437
0.00177049
-0.00106221
-0.00868264
-0.00733273
0.00586035
0.000589429
0.000882955
-0.000715106
-0.0104299
0.000609493
0.0105355
-0.0076525
-0.000971633
-0.000317294
0.00894143
0.00438824
-0.00972828
9.66637e-05
0.00382449
0.00580712
8.27722e-05
0.00631302
-0.00639579
0.000784988
0.0111452
-0.0284716
0.0165414
0.00316337
-0.00797316
0.00757536
-0.00276558
0.00454077
0.00518289
-0.00358944
-0.00613421
4.05823e-05
-0.00568133
0.00564075
-0.00308539
-0.00219159
0.0124993
-0.00722232
-0.00383331
0.012803
-0.0110481
0.00207842
0.0138795
-0.0096445
-0.00931324
0.00507822
-0.00569672
0.00387786
0.00177321
4.56513e-05
-0.000803209
0.00442985
-0.00236313
-0.00126351
0.0149841
-0.0117093
0.00693588
-0.000802678
-0.0113529
0.00521969
-0.0031664
0.0029614
0.00354777
-0.00334277
0.000176321
0.0143287
-8.72607e-05
-0.0144177
-0.0104693
-0.00344718
0.0141904
-0.000273995
-0.00296664
-0.00127905
0.00326276
0.00422178
-0.00620549
0.00846935
0.00595568
-0.0126631
-0.00176191
-0.00260736
-0.00170615
-0.0113557
0.0156692
0.0149359
-0.0118124
-0.020808