/*--------------------------------*- C++ -*----------------------------------*\
  =========                 |
  \\      /  F ield         | OpenFOAM: The Open Source CFD Toolbox
   \\    /   O peration     | Website:  https://openfoam.org
    \\  /    A nd           | Version:  10
     \\/     M anipulation  |
\*---------------------------------------------------------------------------*/
FoamFile
{
    format      ascii;
    class       volScalarField;
    location    "4.9";
    object      SgRate;
}
// * * * * * * * * * * * * * * * * * * * * * * * * * * * * * * * * * * * * * //

dimensions      [1 -1 -3 -1 0 0 0];

internalField   nonuniform List<scalar> 
111485
(
3.02838e-17
1.00751e-05
2.72524e-05
8.28254e-18
5.77255e-05
6.11052e-18
5.31499e-05
7.21206e-06
2.22505e-05
1.38003e-06
5.33734e-05
1.11564e-05
5.4024e-06
9.17833e-07
7.55128e-06
3.72635e-05
1.76564e-06
0.00302103
1.23679e-05
7.39239e-17
2.7132e-17
8.49222e-19
3.02872e-05
4.20478e-05
1.03224e-05
4.63388e-18
4.82774e-05
2.14167e-06
1.92925e-05
1.01271e-18
5.36075e-05
2.20482e-05
7.46813e-17
2.74946e-18
9.28693e-06
9.45956e-18
1.28491e-05
4.76041e-06
5.76058e-11
2.70868e-05
8.61706e-18
8.51213e-05
1.87393e-05
1.57069e-06
5.905e-08
1.4935e-17
3.73284e-05
8.60353e-07
5.68433e-05
2.11058e-18
2.47129e-18
1.19902e-16
1.13704e-17
5.7888e-05
3.94399e-18
5.15379e-05
4.00768e-06
2.01236e-18
2.74889e-08
5.69054e-06
1.91607e-05
6.15173e-18
5.22558e-06
0.00011195
2.30439e-17
4.11575e-06
0.00037448
0.000114174
1.19991e-06
6.7852e-06
1.16875e-08
7.1953e-06
9.80271e-18
3.17376e-06
8.86885e-18
8.25611e-07
1.34158e-17
5.00327e-05
1.18522e-18
1.26007e-16
1.07e-08
3.99555e-05
3.91307e-17
5.42702e-18
1.03949e-05
4.99694e-06
5.09516e-13
2.91003e-05
6.48946e-08
8.42501e-06
4.86895e-07
4.89993e-05
1.32188e-05
7.32314e-08
6.45469e-05
7.41823e-18
1.13255e-17
1.96792e-06
2.31875e-11
1.52629e-06
2.60618e-17
2.26395e-05
3.93383e-18
2.31997e-05
5.647e-06
1.22158e-17
4.57292e-18
9.1547e-06
4.47005e-06
9.93243e-11
7.37415e-06
5.78773e-06
4.15272e-06
3.5722e-06
4.99625e-17
3.87875e-08
7.50424e-18
1.5274e-17
1.44724e-05
2.29048e-17
5.10574e-18
5.20219e-17
3.1184e-17
1.72074e-18
2.13548e-06
3.22319e-09
1.72121e-17
1.91341e-06
5.08978e-19
6.9317e-08
1.47276e-06
3.70278e-05
9.02743e-18
3.19774e-16
7.40626e-17
5.87673e-05
1.05536e-17
5.03529e-05
2.91946e-05
3.12906e-06
2.56452e-07
2.38583e-06
2.6474e-05
3.47599e-06
4.56519e-06
1.49764e-05
7.32349e-18
1.21036e-17
6.60179e-18
3.27926e-05
2.05529e-06
1.12054e-17
2.17615e-10
5.89751e-06
5.67784e-10
1.25661e-05
1.9832e-05
1.23105e-05
1.00499e-10
1.00453e-18
5.11336e-18
6.28674e-05
2.88312e-05
2.89436e-09
3.93825e-10
6.50046e-06
4.35768e-06
1.50871e-18
6.9386e-09
6.15525e-08
1.11472e-18
3.20654e-18
1.67948e-07
3.00476e-19
7.30283e-06
2.63257e-06
2.09379e-18
5.21375e-17
2.06944e-17
5.54502e-17
6.98022e-18
3.7298e-18
1.68638e-06
8.16083e-06
3.46525e-05
5.11233e-06
8.55643e-06
4.4737e-06
1.01755e-07
4.38579e-18
5.3105e-06
1.1893e-18
1.29057e-17
7.33456e-06
1.28276e-05
3.11498e-05
1.29741e-05
5.51504e-06
1.00397e-17
7.63962e-06
6.6393e-07
5.36611e-08
1.54909e-05
2.72072e-06
5.28313e-18
4.21404e-06
3.17404e-05
3.36302e-17
2.25964e-07
8.90346e-06
2.6186e-06
4.0297e-07
3.03133e-17
4.5221e-18
9.16304e-06
9.67403e-15
0.000144975
2.81866e-17
7.53244e-06
2.35408e-05
0.000144809
1.69026e-18
3.48844e-06
1.62661e-05
2.92938e-16
1.08829e-17
1.17597e-18
0.000188925
4.06717e-10
2.53191e-17
2.02196e-17
1.10853e-05
1.00452e-05
1.81083e-05
4.47669e-17
2.37149e-17
1.35019e-08
7.48118e-18
3.08279e-06
1.05676e-05
1.85128e-05
1.32905e-05
1.1452e-05
4.56263e-18
3.40177e-10
7.15238e-07
9.93534e-18
1.03863e-17
3.67417e-05
2.51842e-05
2.46937e-18
7.10926e-06
1.22434e-05
5.37085e-18
1.70391e-16
1.68229e-07
4.4803e-18
1.45862e-17
4.95155e-08
9.7641e-18
1.82947e-05
1.33982e-05
4.06172e-06
4.95242e-19
1.35974e-05
2.07041e-18
7.95442e-18
4.87568e-19
2.92925e-11
2.7149e-05
7.01387e-06
6.0205e-06
4.44395e-05
1.39599e-05
1.97094e-06
6.96916e-07
4.07815e-05
1.13118e-05
4.29866e-18
9.69092e-18
3.39018e-10
2.68873e-05
2.8586e-05
1.48808e-05
6.87216e-19
8.18814e-06
2.5401e-06
3.47232e-06
4.22162e-09
4.50266e-09
1.57107e-05
2.59362e-06
2.25142e-06
8.0636e-18
8.7628e-07
6.11455e-18
1.4261e-10
1.3277e-16
0.000304427
8.22738e-05
1.51117e-05
2.59655e-17
2.32145e-18
1.05394e-05
2.10212e-06
3.73822e-17
1.32076e-17
3.26555e-19
3.95766e-07
7.45935e-05
4.46138e-06
1.75385e-05
2.29158e-05
1.2816e-17
6.22605e-18
1.26015e-17
4.46848e-06
1.19146e-15
1.18852e-06
0.000225856
4.83835e-10
2.89632e-18
5.04944e-18
9.156e-18
3.33017e-16
7.05859e-05
1.45948e-05
2.67912e-18
6.07425e-06
1.11024e-16
1.99149e-18
8.08641e-05
6.77567e-06
1.33046e-05
1.07872e-05
2.49254e-16
1.8661e-16
3.41063e-18
1.09354e-05
2.23158e-05
5.81294e-06
2.1858e-18
2.57684e-13
2.176e-07
2.40012e-06
9.39489e-06
5.20932e-08
3.40797e-05
3.66872e-19
4.49045e-05
4.03882e-06
9.32742e-06
2.90183e-05
1.67395e-05
4.47533e-18
3.48833e-17
1.25215e-17
1.54383e-17
3.82133e-05
1.10848e-05
4.20501e-05
8.07257e-05
1.38618e-18
2.32197e-05
1.254e-18
9.82436e-18
1.92213e-05
2.65717e-17
7.22995e-05
3.28653e-18
8.16422e-20
2.79693e-05
5.40235e-19
1.71269e-05
3.77348e-07
9.0006e-19
1.2793e-06
1.90008e-05
1.83809e-17
1.00916e-05
1.19507e-05
9.37093e-06
6.7841e-07
3.72576e-06
7.30039e-06
1.99411e-16
4.72419e-19
1.95903e-06
1.20128e-17
6.84341e-06
0.000137973
1.46629e-17
5.4272e-18
3.20101e-05
1.39646e-07
9.4331e-06
2.59875e-05
9.62984e-18
5.15675e-05
2.31488e-05
5.04239e-19
9.30608e-07
3.13384e-06
2.15723e-17
1.32582e-17
1.40763e-05
6.16699e-06
1.8391e-17
1.47787e-17
2.77976e-11
1.52398e-17
1.38324e-05
3.39264e-17
1.77487e-17
2.06878e-05
2.32651e-09
1.55587e-05
3.39053e-05
9.83587e-20
8.12555e-17
1.55155e-06
6.70426e-17
1.60539e-07
1.53907e-05
0.000146116
0.00105078
1.1041e-18
3.24725e-06
4.71661e-07
4.12682e-17
4.50081e-05
3.88028e-05
3.99557e-18
1.0334e-11
1.17954e-07
1.04304e-16
2.98497e-05
3.02127e-05
1.51114e-05
5.55954e-18
7.03387e-07
2.24063e-05
2.63488e-05
9.90707e-10
8.94137e-17
6.67271e-13
2.31708e-18
1.79005e-08
3.86242e-05
2.13638e-17
1.07479e-05
1.02748e-07
7.24768e-17
1.23511e-18
3.03796e-17
7.37154e-17
4.74216e-06
1.16497e-05
8.01622e-06
2.731e-06
3.59215e-06
1.38936e-17
2.55004e-06
2.07832e-17
4.61146e-05
1.78023e-19
2.94465e-18
1.56402e-18
4.16233e-05
3.70704e-18
8.09548e-19
2.8913e-10
4.53293e-18
2.94404e-17
1.18334e-06
7.19413e-18
2.64024e-17
1.28612e-18
3.62202e-18
2.38084e-18
1.652e-18
1.4001e-17
9.06492e-06
4.23422e-17
5.54368e-07
2.17736e-06
1.41561e-06
1.93331e-18
9.0276e-07
2.51696e-17
4.80325e-18
3.4228e-06
2.26319e-06
3.36414e-05
2.86823e-05
1.20116e-17
2.42464e-06
9.35829e-05
1.03822e-05
1.28735e-06
4.02568e-06
1.24962e-17
2.78299e-05
1.2125e-16
5.58604e-06
1.65415e-17
8.80109e-05
1.27175e-16
2.56984e-05
2.80112e-07
2.77702e-10
1.69615e-17
2.53817e-06
3.08543e-18
9.5498e-05
5.67833e-05
1.26234e-17
1.96235e-17
5.81876e-17
4.58786e-19
1.6257e-12
6.56699e-05
5.19402e-20
5.22662e-18
3.22947e-06
8.51465e-18
3.88039e-05
1.03861e-17
3.97006e-07
8.27869e-18
6.30686e-07
1.15416e-09
1.30064e-06
1.51873e-05
4.21819e-18
4.39776e-07
2.45649e-18
4.68009e-18
1.87104e-05
9.78695e-18
3.96119e-08
1.65802e-17
1.84318e-06
4.65795e-18
7.80528e-05
3.48561e-18
3.48882e-17
1.91297e-05
4.21893e-06
1.98787e-06
4.85812e-06
7.72558e-06
2.51966e-05
1.5197e-18
2.79066e-05
7.81446e-06
3.61086e-18
9.595e-11
4.46605e-05
1.6821e-05
3.68633e-17
5.44568e-06
7.42912e-06
1.85881e-06
1.4272e-06
2.62091e-13
1.64957e-05
1.30897e-06
1.80741e-07
3.00544e-05
1.68279e-05
8.97292e-07
5.11426e-17
3.76286e-12
0.00076553
2.47997e-17
4.68731e-07
1.15056e-18
2.01356e-16
8.7923e-06
3.71937e-06
2.28307e-10
1.49617e-08
2.3306e-16
2.072e-05
1.31395e-05
7.23372e-18
9.1748e-14
2.48512e-06
5.41017e-18
1.00252e-17
3.82274e-19
1.03357e-17
1.7011e-05
4.69131e-18
7.46337e-19
1.1083e-05
2.54345e-06
6.3518e-17
1.22347e-05
2.21606e-17
1.02333e-05
2.6392e-17
2.27486e-17
6.5723e-05
3.17645e-18
1.31165e-18
2.15259e-16
5.57904e-06
6.86245e-17
3.68478e-05
7.5641e-06
3.07806e-18
9.71099e-05
3.10393e-06
3.30165e-05
3.22313e-05
8.31652e-07
1.01138e-07
2.22274e-17
6.61065e-05
5.3134e-05
8.92606e-19
3.73539e-07
4.78649e-05
8.74531e-06
1.8056e-06
3.241e-05
3.06975e-05
2.54293e-17
1.2583e-05
5.87915e-09
2.73464e-17
4.02374e-05
3.24132e-07
1.44711e-16
1.30999e-05
4.74228e-05
1.71567e-06
2.43473e-05
2.23264e-05
8.61717e-06
9.02289e-17
1.17534e-05
4.12843e-07
2.56973e-14
1.9339e-05
1.99382e-05
4.27776e-05
8.27851e-18
2.40991e-06
4.57514e-18
8.80132e-18
7.5712e-18
2.63767e-18
1.84407e-08
6.63543e-17
2.15527e-13
2.31292e-17
7.8871e-18
8.15339e-08
5.03755e-05
1.30861e-17
4.07487e-05
4.74656e-17
2.60325e-18
7.8571e-18
4.73954e-05
5.34441e-07
6.00768e-17
4.83041e-18
3.33366e-18
2.50708e-18
0.000265295
8.31207e-05
6.21779e-17
2.25968e-06
3.30358e-09
1.99625e-17
4.37608e-05
9.13739e-06
1.52608e-05
1.28046e-18
1.52735e-17
4.75817e-07
1.29008e-06
1.03488e-16
1.26393e-17
8.43126e-18
8.51518e-06
2.5209e-18
7.59807e-17
1.17462e-17
4.86618e-05
2.24893e-06
7.65674e-19
0.00484434
0.000301741
1.2784e-05
1.84284e-19
1.83703e-18
6.74053e-05
4.37158e-07
2.00044e-17
8.66395e-09
0.000160649
3.18153e-06
1.3935e-05
5.98078e-17
6.61327e-05
2.10002e-06
1.43473e-18
7.9584e-18
1.16735e-17
9.79854e-18
2.76805e-18
4.21946e-18
2.52341e-05
4.54924e-18
8.9402e-18
3.13882e-17
1.40217e-05
2.82091e-05
2.72816e-17
9.50673e-18
0.000126932
1.65659e-05
1.10946e-05
9.75304e-17
3.88173e-18
4.30966e-05
2.83251e-18
2.29256e-06
3.00835e-06
4.48142e-06
1.97059e-17
2.68094e-17
5.97533e-17
2.57471e-18
1.83798e-05
2.29153e-18
9.24663e-18
1.11044e-06
2.55249e-18
2.65382e-05
2.0293e-06
2.88079e-17
4.41098e-05
0.000555321
2.9232e-06
3.52714e-05
1.957e-07
5.47707e-05
1.63816e-13
1.25138e-16
2.73e-05
8.60292e-05
7.4247e-06
1.53904e-17
1.08258e-12
0.000820261
1.2244e-05
2.44031e-18
3.31251e-06
3.3474e-06
1.53564e-06
1.36883e-16
1.00721e-17
7.84219e-19
1.54777e-05
5.43881e-17
3.06385e-06
1.76374e-17
1.55841e-06
1.59308e-06
4.25688e-05
6.747e-07
5.97793e-18
2.99678e-19
5.46414e-18
2.43095e-05
1.17125e-18
1.58916e-18
6.57044e-08
8.47615e-18
5.57993e-19
3.61947e-18
1.6884e-18
1.10699e-05
8.5672e-18
6.103e-19
6.28355e-13
4.34618e-17
6.25652e-19
7.54613e-17
5.31627e-18
3.74249e-09
1.92104e-06
2.32152e-18
4.4926e-06
9.45395e-09
3.95141e-10
7.87399e-08
5.05634e-06
2.81741e-18
1.13881e-08
1.16807e-05
4.77531e-07
5.6622e-18
3.17819e-12
9.27537e-07
3.02418e-17
1.12178e-05
2.48446e-07
2.13564e-09
2.90469e-05
1.08503e-05
2.67876e-06
6.49891e-06
2.44155e-06
1.86488e-17
7.79548e-18
3.71662e-05
3.04834e-05
2.6933e-17
9.42077e-06
6.51704e-05
3.40459e-05
2.82004e-17
1.65532e-06
6.0831e-18
1.25192e-05
1.65128e-05
2.72654e-18
1.74632e-06
5.80998e-07
1.53403e-09
5.51939e-06
4.04114e-18
5.77461e-05
1.9189e-08
1.97479e-06
4.17828e-08
1.57606e-08
2.24468e-18
6.7553e-18
9.03283e-06
4.89223e-18
1.31169e-07
3.35636e-07
2.09645e-07
6.02659e-11
9.48257e-11
1.14442e-09
1.54857e-18
1.46937e-16
2.72468e-05
4.63767e-18
4.19034e-07
2.56701e-06
1.91494e-18
1.58493e-18
6.39219e-10
9.68231e-13
1.40564e-18
5.10448e-09
1.17801e-17
1.87087e-17
8.32286e-19
1.7282e-17
3.05158e-17
3.83329e-18
3.64662e-07
1.659e-18
3.96646e-18
6.41964e-18
7.70295e-09
6.806e-08
2.19159e-06
1.10387e-05
2.42418e-19
4.79707e-19
2.26639e-07
4.95005e-18
2.28485e-18
4.89283e-17
2.27312e-05
5.02642e-05
8.05183e-18
3.34721e-18
7.13472e-18
1.86002e-18
1.44572e-19
2.17897e-18
8.998e-06
1.38418e-18
4.89878e-11
3.20872e-05
1.8128e-17
1.84722e-17
9.82375e-18
2.67367e-08
2.17316e-17
4.93251e-18
3.30119e-18
9.43817e-09
2.20516e-17
5.62508e-06
1.23884e-09
5.7523e-12
2.26326e-18
7.36331e-08
2.7062e-06
5.30098e-05
3.57185e-17
7.89751e-09
7.17226e-06
1.16573e-17
3.71647e-18
1.29413e-16
5.66964e-19
9.78247e-06
2.13672e-06
4.23175e-06
2.10573e-10
1.57886e-19
2.71126e-05
1.74929e-17
6.09533e-17
1.04335e-17
2.20265e-18
3.09721e-05
1.22255e-17
8.69615e-18
2.37391e-09
6.08639e-05
1.44653e-18
3.10508e-06
9.12043e-17
1.13674e-06
1.24047e-16
2.01397e-18
1.91349e-17
2.94061e-17
3.08296e-06
7.73101e-07
0.000393508
5.50767e-19
5.83986e-17
2.55607e-06
4.68193e-19
8.99907e-17
3.50173e-17
4.63527e-05
9.10136e-09
3.65193e-05
5.35068e-17
1.05596e-08
4.88817e-08
1.98869e-16
1.20069e-07
3.93469e-19
1.67178e-06
3.13348e-05
2.39926e-05
1.60424e-06
3.15582e-07
5.70678e-18
6.87016e-18
2.04173e-18
2.2211e-08
4.12764e-19
7.92738e-06
1.81584e-18
0.000212306
3.27149e-18
4.98544e-05
3.86875e-06
1.13543e-16
8.36093e-18
5.02945e-17
4.24462e-18
4.4713e-05
3.04382e-17
3.04924e-17
1.48944e-05
7.57294e-06
1.22197e-16
1.16534e-16
6.30214e-17
5.13216e-17
5.42796e-18
1.16837e-18
2.84257e-05
5.4082e-07
4.86736e-18
1.66212e-18
5.18842e-10
4.89682e-18
1.8124e-06
1.32786e-07
5.11497e-18
3.76322e-06
5.24388e-19
4.1696e-07
3.19013e-19
1.18439e-06
1.92549e-17
1.10913e-10
2.45475e-09
8.47006e-07
1.99426e-05
3.77182e-05
1.31761e-09
3.2739e-18
5.47064e-07
5.29631e-18
5.29421e-06
1.39027e-17
3.9194e-18
4.05479e-17
7.45447e-18
3.63648e-18
1.73198e-17
7.90509e-06
8.7329e-06
3.47001e-17
2.4477e-16
1.12417e-17
7.90953e-07
1.74055e-08
1.50983e-17
2.19703e-05
2.34167e-07
5.94128e-18
2.83077e-05
9.76413e-06
4.10059e-06
1.46675e-05
3.04795e-18
3.73612e-18
2.82432e-19
3.11015e-17
4.37922e-05
2.47239e-17
0.000131547
8.1687e-19
3.21432e-07
8.74075e-07
2.92546e-18
9.89913e-07
3.31494e-18
4.48195e-18
3.25654e-06
2.93914e-11
9.31673e-06
2.03889e-19
2.01453e-18
5.74683e-19
9.07963e-07
7.585e-18
1.4921e-18
3.13713e-17
4.14619e-10
8.86546e-17
1.01013e-08
3.58576e-17
1.60651e-17
4.81965e-18
2.1812e-05
1.19225e-05
2.1634e-05
4.22704e-05
1.39753e-17
1.53896e-08
6.786e-18
2.98283e-18
1.23676e-05
5.40913e-19
2.91751e-09
3.71301e-07
7.85998e-06
3.74424e-07
1.14232e-12
2.51795e-06
3.89342e-18
1.19152e-12
7.95909e-13
1.333e-07
1.09478e-06
1.72472e-05
8.23903e-11
9.79555e-17
3.68375e-05
1.47267e-18
1.79082e-18
2.16252e-08
8.87177e-05
8.40358e-11
8.24555e-18
3.40124e-18
4.26176e-10
3.09699e-17
2.03629e-18
1.7481e-08
1.37468e-17
4.61838e-17
4.80739e-05
2.22753e-07
1.721e-07
2.72541e-05
8.71125e-06
8.4916e-19
1.89381e-17
1.29701e-08
4.98093e-06
1.37875e-18
6.62549e-19
1.22785e-05
3.46605e-18
1.55386e-17
7.24739e-17
1.00545e-16
3.54853e-16
0.00308952
2.10544e-18
2.41303e-07
5.40131e-18
2.2644e-05
1.64137e-19
1.59168e-15
5.56687e-17
2.30227e-17
4.8367e-19
4.8144e-18
3.73456e-06
1.33812e-18
3.87919e-18
7.06514e-17
1.09597e-18
1.80316e-18
9.86025e-18
1.17558e-05
1.81761e-18
1.31847e-05
3.29618e-06
4.39858e-18
1.88898e-06
1.1533e-17
5.39771e-07
2.18962e-09
4.83941e-06
1.67254e-05
6.45466e-18
1.08855e-07
9.99227e-06
8.60618e-09
4.80397e-19
2.21788e-09
2.18476e-05
5.39899e-06
5.9909e-17
3.10949e-05
2.79582e-17
3.73948e-18
1.07614e-17
3.22706e-18
9.58648e-06
1.74214e-17
1.49681e-18
9.7551e-06
1.94542e-10
3.0539e-06
2.58215e-18
9.22786e-17
7.72338e-07
9.06596e-19
1.07085e-07
7.31409e-18
2.72334e-05
1.02275e-17
1.62857e-18
6.45784e-08
2.23965e-19
1.47573e-07
1.30416e-17
1.59976e-19
6.2112e-06
4.92182e-07
5.87986e-06
1.94184e-05
0.000263092
2.40538e-05
1.66913e-18
3.17689e-16
3.21257e-06
8.05601e-06
4.30166e-05
1.4013e-05
2.18034e-18
1.42722e-05
3.42996e-18
9.23673e-19
1.01439e-05
1.23544e-05
1.83168e-19
1.5458e-05
5.61721e-18
3.32188e-06
1.02795e-05
4.14485e-17
6.32253e-18
1.4172e-18
3.12118e-06
2.24329e-18
2.72882e-17
4.65988e-06
2.48452e-05
4.62935e-09
9.16372e-06
2.29977e-18
4.27643e-18
8.84331e-08
8.76836e-07
5.18937e-18
1.16948e-05
1.34578e-16
2.97066e-06
4.6739e-18
5.15654e-18
1.40357e-05
3.07793e-18
4.90504e-08
3.96909e-06
2.6116e-18
1.59694e-18
4.82982e-06
4.15558e-14
6.38272e-05
7.15655e-17
0.000319428
4.66808e-18
1.42837e-16
1.48094e-17
8.34672e-06
1.45061e-17
3.63439e-17
6.36275e-06
4.6876e-17
2.65953e-07
1.47585e-16
8.21894e-18
1.65046e-18
1.54112e-10
9.05077e-07
5.60614e-18
5.2328e-18
4.26805e-05
1.10009e-06
5.8698e-19
5.52736e-07
2.25638e-18
2.09589e-17
1.72495e-09
3.44105e-06
1.42698e-06
3.64866e-17
6.45708e-19
3.15231e-17
2.03437e-18
1.87561e-17
1.19479e-17
4.73615e-18
1.23636e-18
1.65396e-18
8.12154e-18
5.01107e-18
1.3718e-17
4.94211e-17
2.12901e-18
1.43846e-18
8.11406e-18
8.11235e-19
7.8362e-18
2.58486e-17
5.76044e-18
3.47158e-18
2.15352e-05
1.27313e-17
3.56103e-19
1.51546e-18
7.56689e-06
3.69494e-19
5.62751e-18
0.000298594
6.12202e-17
3.17796e-18
2.70355e-05
6.21034e-16
3.66775e-18
7.49875e-06
2.85294e-05
1.93943e-18
2.38342e-06
3.82297e-06
6.69277e-18
1.48816e-05
4.64499e-05
2.04847e-05
3.71635e-06
1.23201e-05
9.11906e-17
1.62775e-18
3.45246e-06
1.27351e-05
3.51588e-06
2.21168e-18
7.22172e-06
1.93936e-06
2.39419e-05
1.26507e-05
7.39789e-07
1.74349e-05
1.32136e-06
1.11866e-05
2.68086e-18
3.08477e-05
9.68159e-06
2.07351e-06
1.47798e-06
8.87881e-18
1.84341e-18
1.52753e-17
1.0425e-17
7.20672e-18
1.11713e-05
1.56823e-05
8.09426e-19
5.20451e-20
6.11841e-18
1.51306e-18
2.08621e-18
1.20724e-18
4.44704e-18
4.28298e-17
5.27588e-06
1.64344e-07
2.48468e-05
7.36506e-08
1.33173e-19
1.21681e-16
3.80202e-05
6.32551e-09
3.4044e-18
1.10219e-17
8.39191e-06
4.32936e-18
1.55302e-19
4.82854e-09
9.0128e-06
1.57621e-05
3.77027e-05
3.72468e-05
1.23986e-17
1.68553e-05
3.63311e-07
4.05082e-17
2.95488e-18
1.31647e-05
6.08175e-17
9.30482e-19
2.38426e-05
0.00122759
1.93044e-07
1.19902e-16
1.47253e-20
1.89709e-05
2.53578e-05
2.04316e-05
6.57482e-06
3.73667e-06
1.40312e-17
1.1235e-09
2.98733e-12
2.18165e-18
2.05056e-17
2.00526e-05
4.58916e-18
2.35113e-06
3.02416e-05
1.9595e-05
1.36641e-05
5.29893e-18
6.56041e-06
8.24483e-18
1.07016e-17
1.18755e-17
1.3202e-18
2.95691e-06
0.000974542
3.63692e-18
6.09348e-18
4.39531e-09
2.75423e-05
9.62075e-07
7.85861e-06
3.84974e-05
5.31614e-06
2.27143e-05
2.73116e-17
5.14884e-18
3.62832e-17
3.60862e-05
6.42994e-06
3.03461e-11
1.11256e-17
9.61824e-18
3.78331e-17
2.50768e-05
3.15959e-06
4.74615e-18
5.43947e-06
6.31713e-05
8.3493e-06
6.90944e-06
5.11986e-18
9.36951e-18
7.82581e-06
2.6555e-05
2.89587e-18
3.53649e-07
1.61767e-05
1.10771e-06
1.08951e-05
5.25376e-06
9.17011e-06
7.00075e-17
4.01441e-06
2.35691e-05
4.31994e-05
6.40007e-13
2.67577e-05
9.07162e-17
1.91949e-05
1.62112e-07
4.34523e-19
2.88529e-06
8.06735e-06
4.06334e-07
1.29039e-05
3.48718e-10
1.77198e-07
1.99563e-08
3.92342e-05
3.98751e-06
5.0449e-17
4.49821e-05
1.33139e-06
1.44545e-18
9.73185e-19
4.32398e-11
9.75231e-09
1.1661e-06
0.00126434
3.98377e-05
1.18193e-05
2.59096e-10
4.85812e-05
8.09512e-18
1.06412e-18
4.73585e-06
3.19775e-18
2.4966e-06
5.6685e-06
2.31048e-06
5.40206e-06
5.12803e-18
2.50076e-07
0.000124528
5.08629e-18
3.34533e-05
8.28603e-06
1.09239e-17
4.26425e-06
2.39551e-07
3.3375e-17
5.89874e-12
1.05106e-07
2.41407e-17
1.98871e-18
3.20989e-19
4.86986e-06
4.94648e-06
1.6222e-05
1.03988e-18
5.94298e-06
3.68711e-05
2.98248e-17
8.755e-06
1.35523e-05
2.84004e-05
1.6807e-06
2.33855e-18
6.85388e-07
1.08796e-05
1.14059e-05
9.7799e-06
4.3703e-05
0.000182866
3.79944e-06
4.4021e-17
6.37149e-09
5.94343e-05
3.43354e-17
4.49208e-07
9.44307e-18
5.72054e-18
6.53638e-18
4.17086e-18
1.93354e-18
3.62472e-06
9.12215e-18
7.58713e-06
1.49233e-06
2.41947e-18
4.72697e-06
1.12692e-16
1.64326e-05
2.87499e-19
1.94088e-08
6.61481e-17
2.48819e-05
1.58852e-07
2.17376e-09
4.40586e-06
3.3035e-05
1.952e-05
4.41521e-06
2.9568e-05
5.75754e-15
2.43513e-05
6.13337e-05
1.01541e-05
7.22974e-19
1.35684e-06
3.38546e-07
6.1491e-06
1.27942e-05
7.2933e-07
1.74325e-18
1.24405e-16
5.43532e-19
4.37646e-06
1.16595e-17
1.27306e-07
2.49872e-07
1.14346e-06
3.08749e-07
5.43715e-18
3.26147e-18
4.70792e-18
9.3665e-06
2.40452e-05
1.50948e-06
9.14057e-09
2.15607e-06
7.60963e-06
2.26314e-06
9.64058e-07
8.00779e-06
6.58411e-06
2.86201e-06
2.3639e-17
1.79335e-18
2.49387e-18
1.56958e-05
1.23081e-05
5.81421e-17
1.7226e-18
2.89381e-17
9.10724e-06
2.20273e-05
1.15055e-17
2.35984e-06
3.46297e-18
6.39436e-10
5.75106e-06
9.60144e-05
1.78772e-17
2.77267e-18
4.31795e-06
6.84585e-18
7.87828e-08
1.33856e-05
8.27373e-18
1.19627e-05
3.75402e-05
2.02939e-05
2.13211e-18
1.24313e-06
1.30543e-17
8.91159e-08
5.53203e-05
2.04004e-17
2.51638e-18
1.26297e-05
3.20645e-16
2.89441e-17
4.46672e-08
1.22363e-06
1.17441e-17
9.11521e-18
8.61961e-18
6.77689e-08
1.48582e-06
3.73374e-06
2.70575e-05
1.05293e-05
2.573e-17
6.86764e-10
6.7535e-07
4.54869e-19
4.38007e-18
5.19561e-18
1.28291e-17
2.4809e-17
1.58808e-17
7.30798e-17
8.2221e-18
1.71609e-17
5.27442e-17
2.57307e-12
2.66613e-17
4.20856e-07
5.67135e-17
1.89136e-07
7.03706e-17
6.70587e-08
2.09793e-16
5.82705e-18
2.97258e-05
1.03561e-05
1.37802e-17
0.000102154
5.21445e-12
1.98248e-13
2.01688e-18
1.39235e-06
3.47779e-15
2.89189e-06
6.33909e-09
1.0696e-06
3.13511e-17
2.1572e-17
9.10891e-07
3.99581e-11
5.0132e-18
4.65416e-19
4.41615e-05
6.95686e-17
4.19392e-05
5.37771e-18
7.01745e-18
1.44246e-09
3.16185e-05
9.50994e-06
2.9217e-18
3.73455e-07
8.82136e-17
2.38848e-06
1.82857e-08
2.1027e-06
9.34199e-07
7.93262e-18
2.29508e-05
1.20092e-06
5.7051e-06
2.30856e-19
8.13509e-19
1.57472e-18
1.33493e-05
4.47307e-06
5.67935e-05
3.25992e-18
4.25003e-10
5.09346e-18
6.64463e-18
1.91748e-17
1.58314e-18
3.34966e-06
2.17046e-06
3.11959e-06
0.000351546
4.21717e-18
3.20878e-05
4.00631e-05
1.99047e-05
1.6979e-06
8.97332e-19
6.33578e-06
4.61364e-06
5.43235e-06
5.51298e-10
1.14746e-05
9.15315e-18
1.88371e-06
1.2633e-06
3.68306e-05
1.13944e-09
3.44733e-06
9.56019e-19
2.02622e-05
3.29787e-17
8.27773e-18
1.83761e-06
3.53696e-19
7.53148e-06
8.59185e-18
5.31847e-18
1.29297e-16
1.03477e-18
1.04776e-17
8.1579e-07
3.23229e-18
6.78271e-07
3.01594e-17
1.21822e-17
2.12166e-05
6.28364e-06
8.793e-06
8.97422e-06
5.05847e-18
0.000648657
3.48809e-18
7.90557e-05
3.18081e-18
2.0879e-05
2.47947e-05
2.47789e-06
6.4087e-05
3.68062e-17
8.96204e-18
1.09166e-17
2.46615e-06
9.80557e-18
4.73966e-18
1.99945e-05
3.66781e-18
5.05872e-18
5.58887e-06
1.02437e-17
1.44423e-05
8.74903e-11
3.33722e-18
4.16472e-18
3.37502e-17
1.77609e-06
7.34048e-06
8.24357e-18
2.53461e-05
3.49744e-07
1.70901e-17
0.000114603
1.64512e-17
1.80333e-05
2.03812e-05
3.72866e-06
2.07654e-17
2.00904e-05
1.06382e-05
8.77243e-07
5.57457e-06
1.37657e-05
6.00923e-18
4.2734e-17
1.89355e-09
8.36172e-19
4.03476e-18
7.44093e-18
2.20974e-05
4.92386e-05
4.97079e-06
2.24473e-06
2.91744e-17
5.39215e-05
5.15585e-05
4.77009e-06
2.95849e-06
1.00618e-05
2.37077e-05
2.79574e-06
9.05559e-18
3.96174e-18
1.06027e-17
7.22273e-06
8.55479e-18
2.88461e-05
1.29461e-16
8.42701e-07
5.01502e-10
2.89149e-06
2.53761e-05
2.89846e-18
2.56469e-17
2.67347e-06
3.94877e-07
7.58214e-18
4.9847e-17
8.97342e-19
3.52959e-08
3.17807e-07
1.48258e-07
8.50686e-07
1.08417e-05
9.9829e-05
2.42733e-17
4.74548e-17
7.61926e-17
4.31511e-06
2.14721e-05
2.24084e-05
3.8412e-05
2.20098e-06
3.02219e-06
2.5563e-17
2.58491e-17
2.01393e-16
5.89627e-19
1.0746e-05
2.47009e-05
1.00139e-17
7.67519e-18
3.30576e-17
5.16131e-19
2.12819e-18
2.71486e-17
1.46619e-05
1.40515e-16
1.22112e-06
0.000428597
7.08998e-18
1.74761e-08
2.52784e-05
7.04497e-07
1.80295e-18
1.03586e-17
5.22073e-06
1.15255e-17
1.54891e-05
1.29349e-09
2.70681e-05
7.10146e-17
2.02267e-15
7.90625e-18
7.34013e-18
1.7634e-17
5.08885e-17
0.000219102
7.09382e-18
6.1859e-06
1.32783e-06
1.91127e-17
1.01984e-16
2.12879e-06
6.62481e-18
7.18028e-18
1.60764e-05
1.02487e-07
2.18742e-17
1.2353e-16
6.91233e-18
1.84176e-05
4.2279e-17
5.92845e-18
4.12286e-07
2.75399e-06
3.25927e-06
7.42163e-18
3.24817e-18
3.65821e-18
3.99857e-06
1.93923e-06
1.38151e-05
3.93095e-06
2.15761e-18
8.43243e-07
1.43554e-05
7.19456e-06
1.12422e-19
5.8624e-18
5.66438e-17
1.62766e-18
3.26162e-17
3.45488e-05
7.61995e-06
5.88692e-06
1.14342e-18
8.82456e-18
1.44143e-17
4.08042e-18
4.6451e-18
9.72014e-10
3.04924e-07
2.57605e-06
3.149e-18
5.58939e-17
8.51536e-20
3.39336e-12
3.73728e-05
0.000125906
1.40097e-17
2.15695e-12
3.25776e-15
1.05112e-17
4.49018e-17
4.04919e-06
7.77051e-06
2.05774e-18
3.92159e-17
3.17682e-06
3.35384e-17
8.09015e-07
1.28126e-06
0.00244167
5.00643e-18
9.17976e-18
1.40098e-05
5.39634e-07
5.43317e-18
0.000767445
6.2333e-07
7.72201e-06
2.30494e-17
1.07006e-17
1.26994e-18
2.37571e-17
8.56202e-06
1.14881e-07
3.5445e-17
2.7563e-05
2.08713e-05
0.00100917
4.81899e-18
6.18878e-19
4.62612e-18
1.10128e-18
7.06132e-06
6.61095e-11
3.58819e-17
9.10361e-18
2.07201e-05
1.06846e-06
5.8801e-06
4.9246e-18
2.42704e-17
3.23191e-05
7.001e-18
1.66922e-17
3.20063e-18
4.6013e-18
2.58666e-05
5.7874e-17
1.82531e-18
3.24787e-18
2.85396e-05
1.45499e-05
6.57942e-18
3.12724e-18
1.21498e-18
1.73878e-05
1.61779e-10
1.62266e-17
3.05168e-18
8.91787e-18
3.0322e-17
2.68428e-06
1.17608e-05
4.75051e-19
2.39826e-06
1.14899e-06
5.08534e-06
6.44076e-18
4.19503e-18
7.4771e-19
7.22904e-18
1.85216e-19
2.39026e-05
1.41854e-16
1.75343e-05
6.54909e-18
1.6136e-06
1.57546e-17
2.45811e-06
1.1265e-17
2.70232e-18
1.2077e-05
0.000216645
1.44165e-16
3.69732e-06
2.95204e-17
3.98354e-07
1.36766e-17
2.21324e-17
1.16827e-17
4.79192e-10
9.87221e-18
3.97058e-07
1.02988e-17
4.04051e-05
1.7856e-17
9.95996e-17
1.69892e-18
4.9018e-18
8.51745e-09
1.45922e-07
4.72141e-18
5.62577e-06
2.35232e-18
3.54552e-06
2.21659e-05
1.30683e-06
6.16375e-19
4.69534e-09
4.51191e-07
2.11184e-09
5.41286e-06
4.1576e-10
1.70644e-06
9.15659e-17
1.79766e-18
4.5253e-10
6.04015e-06
2.48797e-07
2.39766e-18
3.08009e-18
2.22165e-17
0.00060741
7.22336e-19
8.26681e-19
1.85851e-18
8.20695e-19
3.79932e-18
6.62859e-08
1.83645e-07
1.06195e-06
6.74183e-08
5.99353e-16
1.47657e-06
1.60243e-18
6.85192e-06
3.76604e-17
2.95554e-18
4.78975e-18
1.56264e-17
2.24611e-08
4.22768e-17
8.36208e-18
4.2952e-18
1.69575e-05
1.0975e-16
5.3651e-18
1.21955e-05
2.28567e-17
6.60431e-05
0.00011877
0.000577521
7.23437e-18
0.000235778
0.00141045
0.00161868
0.000777276
4.5114e-18
4.02183e-19
5.58571e-06
5.56128e-06
4.9792e-18
7.07934e-06
4.58744e-19
3.67569e-05
3.17503e-17
8.47436e-18
7.06403e-07
2.131e-17
3.796e-17
1.05951e-08
4.01165e-08
1.36386e-18
2.62802e-19
2.40119e-09
3.08076e-17
4.09634e-18
2.4166e-08
9.13001e-06
1.55253e-06
4.90072e-18
8.17743e-06
8.55184e-19
3.90511e-06
4.7263e-10
7.66482e-06
5.7883e-18
9.4265e-12
6.0086e-06
8.77601e-18
1.5689e-12
1.47716e-19
3.71575e-05
5.44405e-18
1.14341e-05
9.19918e-18
1.71587e-10
4.85716e-19
1.50267e-18
2.54958e-18
4.90376e-13
2.41389e-13
6.67658e-18
1.38729e-05
9.23831e-06
3.17186e-18
8.36382e-18
3.77688e-05
2.08873e-05
0.000208826
2.16706e-19
7.0618e-08
2.84499e-05
5.29782e-05
6.14123e-11
9.15215e-19
6.5589e-05
5.14453e-18
0.000256743
3.3096e-17
4.33948e-11
4.43862e-11
4.0446e-18
5.83689e-08
2.73927e-17
2.32033e-05
7.21594e-18
6.57707e-18
5.65955e-19
2.13369e-17
3.30848e-17
2.81648e-17
3.40649e-07
1.9836e-06
0.00015562
9.29414e-18
1.2882e-17
4.68224e-05
1.10532e-17
1.51193e-19
1.65433e-18
3.42833e-18
1.4033e-17
6.14444e-06
9.69819e-19
1.4659e-17
6.49531e-19
3.39152e-06
1.15237e-16
8.4143e-19
6.57407e-17
3.37694e-06
1.08931e-17
6.26471e-06
0.000252552
5.38019e-06
5.93093e-06
2.78301e-05
2.18189e-17
2.34474e-17
1.21716e-17
3.35555e-06
2.02921e-06
1.4961e-18
2.846e-16
6.02534e-07
1.31027e-16
3.0113e-18
0.000373487
1.73048e-19
2.49568e-05
1.13461e-17
2.51842e-06
3.94593e-06
5.90506e-18
1.96485e-18
1.00877e-17
3.19605e-18
5.51623e-18
2.1864e-05
2.7149e-17
4.78332e-06
7.09882e-18
1.56016e-17
7.16009e-06
5.43748e-18
1.49966e-05
3.11177e-17
6.5821e-18
2.60912e-06
8.62054e-08
0.000154504
1.90733e-17
3.20748e-18
5.71984e-18
4.06384e-06
0.000198954
1.10987e-17
4.25117e-18
9.52039e-17
1.50899e-06
1.82424e-18
2.30151e-05
3.25222e-05
1.50337e-16
5.40437e-19
7.3155e-06
4.29109e-17
4.34264e-17
5.74321e-18
9.45404e-17
1.034e-17
7.41894e-05
9.81845e-17
3.97795e-17
1.66177e-18
1.8071e-17
4.54728e-18
1.57973e-17
7.17981e-18
6.19062e-19
5.71165e-17
8.63766e-06
1.52333e-17
8.59544e-06
1.07115e-16
1.09261e-17
0.000652789
2.80555e-06
5.85596e-18
1.64773e-17
3.6211e-18
2.44289e-06
4.3831e-17
3.10113e-17
7.928e-17
4.53447e-18
7.41783e-06
9.75658e-18
4.29576e-06
3.14506e-19
1.12773e-05
3.31191e-17
6.44292e-05
1.98557e-17
6.36983e-18
2.21563e-05
4.77282e-17
3.42275e-18
3.06344e-05
3.27451e-07
1.81531e-18
4.20125e-18
4.26608e-05
1.2073e-05
6.70134e-06
8.12528e-07
1.80576e-06
1.89221e-05
9.9616e-07
5.86566e-06
9.83721e-18
2.96383e-05
1.85047e-17
2.03729e-17
4.01548e-19
2.05345e-17
1.67343e-17
1.04938e-05
2.01129e-19
2.47945e-18
6.95423e-19
2.00465e-09
1.20449e-08
1.07126e-16
2.82922e-06
4.01909e-17
4.51698e-06
7.20024e-18
1.11581e-09
4.10177e-06
2.12395e-16
4.86923e-05
1.96607e-18
2.06489e-17
3.50537e-18
3.04696e-06
1.53463e-06
6.5115e-18
1.04471e-18
2.55165e-06
3.20835e-18
0.000732647
3.91999e-17
0.000106693
1.09743e-17
1.2998e-18
2.02006e-18
1.50601e-17
1.05585e-05
5.29721e-18
4.9015e-08
6.4102e-18
1.08075e-05
3.34885e-18
1.87478e-18
6.85244e-15
2.5329e-16
9.30046e-18
8.75026e-17
1.14387e-17
2.45073e-18
4.87697e-06
0.000226005
1.68285e-17
1.89445e-18
4.42843e-07
2.06404e-18
6.32739e-18
1.85944e-09
1.9209e-05
1.76575e-07
1.77097e-18
6.52229e-07
3.96169e-06
5.46329e-06
9.50062e-06
1.52004e-17
6.73402e-18
8.2385e-18
5.44421e-18
8.56372e-19
1.46485e-17
2.42932e-18
1.03671e-17
8.73883e-18
7.12055e-18
1.3749e-17
1.21183e-17
8.3517e-05
1.89122e-18
1.0853e-18
1.21323e-12
2.73424e-18
3.65761e-17
0.00123949
4.31855e-18
4.59174e-19
1.98287e-06
1.83883e-12
1.78232e-17
8.48376e-19
3.97273e-18
2.49733e-05
1.50275e-17
6.70786e-17
4.92969e-11
5.21731e-19
2.67305e-17
1.41957e-18
8.54541e-18
0.000125676
1.89943e-18
2.17659e-07
2.60529e-18
3.49519e-18
7.0939e-18
9.11192e-18
7.81349e-19
2.82384e-11
5.02127e-11
1.38541e-07
1.52221e-18
1.10073e-17
1.53474e-17
1.13879e-10
5.24289e-18
3.11804e-10
1.77731e-11
1.86582e-17
9.2035e-18
2.95435e-17
1.0211e-11
4.58159e-18
3.38665e-17
2.0975e-12
2.23772e-16
3.58278e-05
4.0279e-18
7.31965e-06
9.19645e-17
2.46178e-09
1.06058e-17
1.73082e-06
6.53037e-18
4.9089e-06
2.63157e-05
1.84548e-17
2.93498e-06
1.32248e-08
7.52203e-18
1.09393e-05
5.32437e-18
2.8387e-18
1.14482e-17
1.13236e-17
3.6683e-17
1.34209e-19
4.73051e-18
2.09374e-18
0.000305341
3.97792e-18
1.30995e-17
1.29311e-17
3.23334e-18
4.04048e-18
3.5812e-05
0.000936214
3.18201e-09
1.50615e-08
1.16366e-18
2.1373e-06
1.46636e-06
7.49756e-17
8.32727e-17
8.47353e-17
1.06682e-17
7.00582e-18
4.24291e-17
1.67459e-17
2.37798e-17
4.80292e-07
8.90511e-17
1.49939e-18
1.91282e-07
2.96205e-09
1.55969e-17
3.05574e-05
1.23867e-17
8.07712e-18
7.24611e-18
0.000195614
2.23179e-18
6.53844e-19
2.77375e-05
5.9326e-18
3.7379e-17
1.80796e-17
7.75594e-18
6.03919e-05
2.47687e-18
2.91475e-17
2.09167e-18
7.54965e-18
7.09317e-06
0.000273341
3.33379e-05