/*--------------------------------*- C++ -*----------------------------------*\
  =========                 |
  \\      /  F ield         | OpenFOAM: The Open Source CFD Toolbox
   \\    /   O peration     | Website:  https://openfoam.org
    \\  /    A nd           | Version:  10
     \\/     M anipulation  |
\*---------------------------------------------------------------------------*/
FoamFile
{
    format      ascii;
    class       volScalarField;
    location    "57";
    object      T;
}
// * * * * * * * * * * * * * * * * * * * * * * * * * * * * * * * * * * * * * //

dimensions      [0 0 0 1 0 0 0];

internalField   nonuniform List<scalar> 
111485
(
303.15
285.234
301.178
303.15
298.742
283.15
299.234
293.583
296.714
286.438
300.739
296.447
300.462
284.666
300.214
286.915
299.38
300.895
294.509
303.15
303.15
283.15
297.609
288.888
301.551
303.15
293.482
300.711
289.289
303.15
300.814
294.449
303.15
283.15
283.495
283.15
302.329
297.887
283.149
296.969
283.15
290.082
297.372
302.938
303.181
303.15
287.678
288.744
290.132
303.15
303.15
283.15
303.15
299.322
303.15
293.918
288.089
283.15
283.338
295.86
296.253
303.15
302.155
300.53
283.15
284.662
301.546
291.809
302.213
302.603
303.172
302.023
303.15
302.204
303.15
295.508
283.15
293.872
283.15
283.15
283.255
293.938
283.15
303.15
300.542
284.303
283.15
301.742
303.142
299.338
283.518
289.912
301.068
300.456
290.275
303.15
303.15
301.742
303.15
283.452
303.15
286.904
283.15
285.424
285.873
283.15
283.15
293.202
301.627
283.145
299.117
288.456
301.479
301.865
303.15
302.084
303.15
283.15
300.34
303.15
303.15
283.15
283.15
283.15
283.451
303.153
283.15
301.928
303.15
283.186
303.065
302.137
303.15
283.15
283.15
292.948
283.15
294.6
299.062
301.245
303.142
297.164
299.228
284.891
302.353
298.083
283.15
303.15
283.15
297.484
285.063
303.15
303.145
287.598
283.156
294.16
296.015
302.579
283.153
303.15
303.15
292.623
286.429
283.151
283.156
301.332
283.751
283.15
283.152
283.16
283.15
303.15
283.21
283.15
291.716
287.371
283.15
303.15
303.15
283.15
303.15
303.15
297.974
293.926
296.185
290.146
301.583
300.619
283.195
303.15
301.583
303.15
303.15
300.367
286.465
301.63
301.397
296.06
303.15
300.998
284.705
283.163
301.056
297.206
303.15
300.612
288.58
303.15
283.247
300.351
284.928
300.864
303.15
303.15
300.877
283.15
293.353
283.15
300.786
298.974
290.704
303.15
301.863
300.754
283.15
283.15
283.15
289.956
283.158
283.15
303.15
298.912
291.791
290.345
283.15
303.15
303.112
303.15
284.412
300.304
299.512
299.745
299.623
283.15
283.143
299.105
283.15
283.15
289.007
288.737
283.15
301.32
299.128
303.15
283.15
301.037
303.15
303.15
303.12
303.15
288.463
285.992
291.216
303.15
298.603
303.15
303.15
303.15
283.148
298.41
301.141
299.668
291.416
299.729
296.591
283.217
290.684
292.022
283.15
303.15
283.149
292.647
299.032
286.614
303.15
298.283
297.587
299.161
302.987
283.164
297.432
299.613
302.045
283.15
283.678
283.15
283.148
303.15
284.086
290.475
286.632
303.15
283.15
297.887
285.441
303.15
303.15
303.15
284.753
290.628
301.25
284.509
293.465
283.15
283.15
303.15
298.622
303.15
283.922
290.098
283.151
283.15
303.15
303.15
283.15
294.754
290.168
283.15
296.077
283.15
303.15
301.326
297.615
294.178
296.179
283.15
283.15
283.15
296.949
291.429
302.407
283.15
283.15
283.147
290.305
297.263
283.234
290.918
283.15
293.236
299.788
284.315
299.075
285.392
283.15
303.15
283.15
303.15
290.86
296.687
288.319
292.401
283.15
286.532
283.15
303.15
294.242
303.15
302.197
303.15
283.15
292.367
283.15
289.141
284.734
283.15
284.04
298.323
283.15
300.347
284.797
299.104
303.051
291.476
286.131
283.15
303.15
303.147
283.15
301.179
301.112
283.15
283.15
294.836
284.461
298.455
296.849
283.15
295.622
296.442
283.15
302.167
283.958
303.15
303.15
288.612
298.912
283.15
303.15
303.15
303.15
300.837
283.15
303.15
294.144
283.172
287.426
300.247
283.15
283.15
302.689
283.15
302.557
301.657
298.328
291.039
283.15
294.286
303.393
303.15
299.055
292.571
303.15
283.15
283.317
283.15
290.395
286.417
292.056
283.15
293.261
296.789
293.442
303.147
283.15
303.15
303.15
283.17
293.135
283.15
284.407
303.137
283.15
303.15
303.15
303.15
301.817
290.913
286.183
284.267
284.437
283.15
285.876
303.15
300.966
283.15
303.15
303.15
300.912
303.15
303.15
283.151
303.15
283.15
300.953
283.15
283.15
283.15
303.15
283.15
303.15
283.15
283.699
283.15
303.132
301.874
283.862
283.15
303.095
283.15
303.15
284.824
284.793
286.302
298.065
283.15
297.91
298.01
292.659
287.108
285.409
303.15
292.144
283.15
300.167
283.15
297.223
283.15
292.463
298.921
303.15
283.15
287.087
303.15
296.019
299.437
283.15
283.15
283.15
283.15
303.15
294.191
283.15
283.15
283.249
283.15
300.129
283.15
284.948
303.15
283.461
303.128
284.758
292.305
283.15
301.585
283.15
283.15
285.865
283.15
283.26
283.15
299.99
303.15
291.111
303.15
283.15
302.533
284.575
300.369
285.828
300.374
289.678
283.15
300.871
284.665
283.15
283.138
300.725
301.76
283.15
282.26
301.264
303.078
283.132
303.15
287.778
302.265
284.507
285.564
288.558
282.34
283.15
303.15
301.361
303.15
283.581
283.15
283.15
292.137
282.622
303.15
303.125
283.15
286.501
299.827
283.15
283.15
299.833
303.15
283.15
283.15
283.15
286.367
283.15
303.15
284.963
284.311
303.15
299.912
283.15
289.408
303.15
283.15
286.369
283.15
283.15
283.15
285.563
283.15
285.622
292.329
303.15
300.668
283.482
299.041
301.142
283.414
283.479
283.15
289.335
298.775
303.15
302.318
296.564
297.27
284.8
297.816
297.568
303.15
300.434
303.141
283.15
297.553
284.956
283.15
292.746
296.157
284.972
299.103
300.83
292.713
283.15
299.221
283.501
303.15
300.802
302.071
294.463
283.15
286.767
303.15
283.15
283.15
283.15
283.313
283.15
303.15
303.15
283.15
300.603
299.591
303.15
285.816
303.15
303.15
303.15
290.276
283.432
283.15
303.15
283.15
283.15
287.337
292.759
283.15
295.615
283.13
283.15
295.778
302.338
288.123
283.15
283.15
300.443
292.488
283.15
283.15
283.15
294.322
303.15
303.15
283.15
296.682
302.476
283.15
282.921
301.823
286.829
283.15
283.15
287.665
303.011
283.15
283.161
288.212
283.802
289.051
283.15
285.861
300.569
283.15
303.15
283.15
283.15
283.15
283.15
296.146
303.15
283.15
283.15
295.771
292.203
303.15
303.15
290.244
298.696
298.593
303.15
283.15
298.277
303.15
283.935
299.074
298.614
303.15
303.15
303.15
283.15
286.227
283.15
283.15
302.736
303.15
298.113
302.402
283.15
294.427
283.208
296.776
292.212
283.457
290.19
283.15
283.15
297.213
288.471
291.023
283.15
283.15
299.521
295.304
283.15
283.982
284.724
283.515
303.15
303.15
303.15
290.927
283.15
300.255
283.15
284.457
297.799
298.777
292.659
283.15
283.15
303.15
295.728
283.15
283.15
303.11
283.15
283.15
303.15
283.15
299.552
283.15
283.15
283.15
283.15
283.15
303.15
283.15
283.174
298.93
303.15
302.584
283.125
283.429
283.086
285.674
283.15
284.555
290.869
283.429
303.15
283.15
299.956
283.15
300.446
283.184
283.142
286.377
297.776
283.245
292.005
298.048
283.15
283.15
299.293
299.992
283.15
297.637
291.516
297.613
283.15
283.257
283.15
297.94
297.056
283.15
300.267
297.699
283.148
299.977
283.15
295.976
283.143
303.116
283.163
283.159
283.15
283.15
284.535
283.15
302.997
283.645
283.158
303.147
303.148
303.147
283.15
283.15
294.209
303.15
303.135
283.955
283.15
283.15
303.153
303.15
283.15
303.162
283.15
283.15
303.15
303.15
303.15
303.15
283.381
283.15
283.15
283.15
303.159
283.324
283.942
293.863
283.15
283.15
283.365
283.15
283.15
283.15
287.48
293.987
283.15
283.15
283.15
283.15
283.15
283.15
284.1
283.15
303.151
291.895
283.15
303.15
303.15
303.15
303.15
303.15
283.15
303.166
283.15
283.768
283.143
303.152
283.15
303.071
284.549
292.54
303.15
303.131
284.631
303.15
283.15
303.15
283.15
294.436
293.852
284.827
303.148
283.15
293.639
283.15
283.15
303.15
283.15
295.244
283.15
303.15
283.162
298.359
303.15
284.554
283.15
283.649
283.15
283.15
283.15
303.15
286.106
283.496
285.025
283.15
283.15
285.879
283.15
283.15
303.15
284.476
303.161
298.904
303.15
303.132
303.133
283.15
303.136
283.15
283.489
289.523
301.009
283.915
283.172
283.15
283.15
283.15
303.177
283.15
302.961
303.15
293.857
303.15
288.893
283.873
303.15
283.15
303.15
283.15
302.004
303.15
303.15
286.688
300.892
283.15
283.15
283.15
283.15
283.15
283.15
301.139
283.622
303.15
303.15
303.155
303.15
300.561
284.492
283.15
302.246
303.15
301.748
283.15
302.629
283.15
283.147
303.152
283.346
302.26
300.56
283.147
283.15
289.646
303.15
293.804
303.15
283.15
303.15
283.15
283.15
283.15
301.099
302.188
303.15
303.15
303.15
302.941
283.148
303.15
293.326
283.078
303.15
297.669
298.359
296.843
283.4
283.15
283.15
283.15
283.15
295.047
283.15
295.435
283.15
303.077
290.037
283.15
302.907
283.15
283.15
302.811
283.147
302.896
283.15
303.15
283.15
302.472
283.15
303.15
283.15
283.147
283.15
283.176
283.15
283.15
303.15
293.126
301.183
296.505
297.378
303.15
303.124
283.15
283.15
285.941
283.15
283.159
302.896
298.882
302.986
303.15
283.398
283.15
303.15
283.15
303.018
283.383
298.342
283.15
303.15
288.34
303.15
283.15
283.113
295.497
283.147
283.15
283.15
283.146
303.15
283.15
303.144
303.15
303.15
290.371
303.021
303.03
289.418
293.653
283.15
283.15
303.116
289.489
283.15
303.15
284.935
283.15
303.15
283.15
283.15
283.15
298.446
283.15
302.971
283.15
300.893
283.15
283.15
283.15
283.15
283.15
283.15
285.234
283.15
283.15
283.15
283.15
283.15
283.15
292.433
283.15
298.404
302.989
283.15
302.339
283.15
302.594
303.146
292.438
288.955
303.15
292.304
284.985
303.122
303.15
303.14
295.17
288.866
283.15
288.079
283.15
283.15
283.15
283.15
287.717
283.15
283.15
291.792
303.139
285.422
283.15
283.15
302.547
283.15
283.2
303.15
299.984
283.15
283.15
302.849
283.15
303.175
303.15
283.15
289.31
298.059
292.861
285.926
293.073
294.441
283.15
283.15
302.392
290.77
293.197
284.543
283.15
294.467
283.15
303.15
300.969
298.92
283.15
297.531
283.15
292.948
297.517
303.15
283.15
283.15
301.926
283.15
283.15
300.747
296.277
283.198
291.399
283.15
283.15
302.854
300.764
283.15
300.863
283.15
300.728
283.15
283.15
301.022
283.15
283.233
301.742
283.15
283.15
302.504
283.15
288.112
303.15
290.966
303.15
303.15
303.15
301.154
283.15
283.15
299.806
283.15
303.011
283.15
283.15
303.15
283.149
288.407
283.15
283.15
288.263
288.445
283.15
283.758
283.15
303.15
302.498
283.802
301.695
283.15
283.15
283.15
283.15
283.15
283.15
283.15
283.15
283.15
283.15
283.15
303.15
283.15
283.15
283.15
283.15
283.15
283.15
283.15
283.15
303.15
287.151
283.15
283.15
283.15
295.102
283.15
303.15
303.067
283.15
283.15
295.113
283.15
283.15
302.184
295.582
283.15
303.476
303.521
283.15
301.746
294.375
297.888
301.62
298.416
303.15
283.15
296.416
292.2
301.567
283.15
302.243
302.48
301.054
288.212
287.459
301.232
301.862
301.907
303.15
286.04
297.859
285.798
297.577
283.15
283.15
283.15
303.15
283.15
292.416
298.211
283.15
283.15
283.15
283.15
283.15
303.15
283.15
303.15
292.304
303.157
299.275
302.867
283.15
283.15
285.586
283.172
283.15
283.15
301.698
303.15
283.15
298.437
299.74
297.834
298.998
301.06
303.15
291.21
302.655
303.15
303.15
300.561
303.15
283.15
282.801
296.197
302.978
283.15
303.15
290.262
286.349
297.218
292.613
302.611
303.15
303.141
303.15
303.15
283.15
298.951
283.15
292.23
290.716
299.945
284.871
303.15
302.035
303.15
283.15
303.15
303.15
291.74
300.453
283.15
303.15
303.14
292.21
303.069
299.584
293.238
288.496
293.331
283.15
303.15
283.15
291.727
298.586
303.15
303.15
303.15
303.15
297.938
302.583
283.15
300.175
301.393
285.08
299.743
303.15
303.15
298.95
293.378
283.15
302.942
300.072
302.652
292.398
297.622
298.538
303.15
287.136
298.234
291.702
283.15
289.451
303.15
288.589
301.232
303.15
288.903
301.441
300.319
293.593
283.148
283.158
283.244
302.066
301.104
303.15
288.975
301.626
303.15
283.15
303.15
303.203
299.049
292.303
297.003
303.234
283.149
298.154
303.15
303.15
293.214
303.15
300.425
283.34
301.475
291.676
303.15
283.714
293.637
303.15
282.965
298.95
303.15
300.872
286.413
303.15
303.15
284.049
303.15
283.15
283.15
286.027
299.974
291.665
303.15
285.474
297.792
283.15
299.099
299.133
289.159
303.137
283.15
301.555
299.664
299.099
300.29
288.814
291.507
302.512
303.15
301.679
288.892
303.15
299.11
283.15
283.15
303.15
283.15
303.15
297.867
283.15
300.71
283.681
303.15
283.878
283.15
290.053
303.15
303.147
303.15
294.491
303.012
303.128
300.088
290.585
289.655
290.747
298.713
303.15
299.644
292.604
299.206
303.15
283.922
283.519
299.501
287.402
283.558
303.15
283.15
303.15
285.585
303.15
303.249
284.773
303.265
302.977
303.15
303.15
283.15
300.751
300.656
285.736
303.103
287.14
296.048
301.946
292.929
288.494
302.151
296.462
283.15
283.15
303.15
285.974
289.923
283.15
283.15
303.15
302.063
289.016
303.15
296.74
303.15
283.155
285.433
301.023
303.15
303.15
292.714
303.15
283.335
290.786
283.15
297.482
294.897
296.177
303.15
302.779
283.15
302.723
293.879
303.15
303.15
288.959
283.15
303.15
301.923
284.546
303.15
303.15
283.15
302.426
303.24
289.926
300.063
298.062
303.15
303.157
302.698
303.15
283.15
303.15
303.15
303.15
303.15
303.15
303.15
303.15
283.15
303.15
303.15
283.383
303.15
303.263
303.15
303.162
303.15
303.15
301.226
303.65
303.15
292.497
303.15
303.15
283.15
302.635
303.15
302.24
303.123
283.3
283.15
303.15
302.958
283.149
303.15
303.15
291.816
283.15
293.034
283.15
283.15
283.147
291.657
284.947
303.15
296.902
283.15
303.52
303.136
284.388
302.671
283.15
292.614
303.091
301.844
283.15
303.15
283.15
303.778
284.919
297.018
303.15
303.15
303.15
303.15
303.15
303.15
302.451
302.854
297.878
292.728
303.15
287.459
293.087
285.085
303.201
283.15
287.088
302.804
284.877
283.147
287.642
303.15
283.409
302.951
292.975
302.887
302.103
303.15
302.262
303.15
303.15
298.238
303.15
284.618
303.15
303.15
283.15
303.15
303.15
302.887
303.15
283.307
283.15
283.15
286.068
285.156
300.959
286.32
303.15
295.795
303.15
290.766
303.15
287.484
300.95
301.688
293.724
303.15
303.15
303.15
289.972
283.15
303.15
289.725
283.15
283.15
302.004
303.15
286.334
283.147
283.15
303.15
303.15
300.806
298.52
303.15
293.8
303.058
283.15
298.736
303.15
286.545
288.44
302.224
303.15
296.682
296.846
302.983
302.033
301.779
303.15
303.15
303.147
303.15
283.15
303.15
289.734
300.04
294.603
302.253
283.15
300.595
291.842
298.531
283.678
298.685
290.105
302.279
283.15
283.15
283.15
302.318
283.15
290.957
283.15
301.469
303.158
289.887
298.186
283.15
303.15
301.458
301.44
303.15
283.15
303.15
286.55
301.628
303.001
302.433
298.204
288.6
303.15
303.15
303.15
294.617
286.197
290.132
296.279
284.011
302.98
303.15
303.15
283.15
283.15
285.529
299.832
303.15
303.15
283.15
303.15
303.15
303.15
300.559
303.15
285.572
294.075
283.15
283.254
293.689
285.81
303.15
303.15
302.034
303.15
299.578
283.145
297.824
303.15
303.15
283.15
303.15
303.15
303.15
305.824
303.15
301.991
301.193
303.15
303.15
301.798
303.15
283.15
287.445
303.139
303.15
303.15
303.15
298.224
303.15
303.15
302.738
302.573
301.943
303.15
283.15
303.15
302.172
302.585
301.695
302.597
283.15
300.835
287.79
297.642
283.15
303.15
303.15
303.15
303.15
294.749
287.723
299.721
303.15
303.15
303.15
303.15
283.15
303.149
284.93
285.25
283.15
303.15
303.15
283.147
299.974
295.633
283.15
303.15
303.15
303.15
303.15
289.784
290.008
303.15
303.15
302.43
303.15
301.498
284.006
292.667
303.15
283.15
301.215
303.133
303.15
303.814
301.461
287.141
303.15
303.15
303.15
303.15
293.499
284.253
303.15
302.767
298.524
291.861
303.15
303.15
303.15
303.15
299.794
303.151
303.15
303.15
298.545
302.6
288.675
303.15
303.15
298.214
303.15
303.15
303.15
303.15
289.049
303.15
283.15
283.15
296.291
291.453
303.15
303.15
303.15
297.358
303.148
303.15
303.15
303.15
303.15
303.497
301.11
303.15
287.571
302.697
299.655
303.15
303.15
303.15
303.15
283.15
285.919
303.15
302.818
283.15
302.3
303.15
303.14
303.15
283.15
301.942
287.007
283.15
302.87
303.15
302.514
283.15
303.15
303.15
303.152
303.15
283.28
303.15
291.105
283.15
283.15
303.15
303.15
299.094
302.489
283.15
302.567
283.15
284.262
288.393
302.771
283.15
303.154
303.015
303.138
284.551
283.157
303.006
283.15
283.15
283.155
302.181
302.4
303.15
283.15
283.15
296.868
303.15
283.15
303.15
303.15
303.15
303.1
303.061
302.977
302.531
303.15
302.973
303.15
285.032
303.15
303.15
283.15
303.15
303.114
303.15
283.15
303.15
288.505
303.15
303.15
303.201
283.15
303.417
302.916
298.517
303.15
291.684
297.445
284.596
292.072
283.15
283.15
287.379
284.497
283.15
303.582
283.15
286.565
303.15
283.15
303.159
303.15
303.15
303.03
303.154
303.15
283.15
303.142
303.15
283.15
283.1
299.097
302.763
303.15
302.002
303.15
285.821
303.151
301.47
303.15
303.15
301.258
303.15
303.15
303.15
287.884
303.15
285.274
303.15
303.148
303.15
283.15
283.15
303.15
303.15
303.15
288.964
302.648
303.15
303.15
288.937
286.675
292.614
303.15
302.764
287.858
287.788
303.15
303.15
288.785
283.15
292.714
303.15
303.151
303.15
303.15
300.733
283.15
302.346
283.15
303.15
303.15
303.15
303.15
303.15
284.513
302.34
291.832
303.15
303.15
291.351
303.15
303.15
303.15
303.15
303.15
300.352
303.15
303.15
283.15
299.685
303.15
283.15
303.15
301.512
283.15
300.175
291.132
302.745
300.233
299.675
303.15
303.15
303.15
301.005
288.817
283.15
303.15
300.512
303.15
303.15
292.788
303.15
287.723
303.15
298.12
284.465
303.15
283.15
303.15
303.15
303.15
285.501
303.15
300.667
303.15
303.15
299.934
283.15
284.956
303.15
303.15
288.487
301.585
297.163
303.15
303.15
303.15
301.604
293.025
303.15
283.15
303.15
300.855
303.15
284.98
297.058
303.15
303.15
301.298
303.15
303.15
283.15
303.15
283.15
295.522
303.15
283.15
303.15
303.15
303.15
303.15
303.15
303.15
283.15
301.55
283.15
302.18
303.15
303.15
296.502
300.675
303.15
283.15
303.15
301.056
283.15
303.15
303.15
303.15
300.87
303.15
298.351
303.15
286.138
283.15
286.956
303.15
303.15
298.833
283.15
303.15
288.189
283.251
303.15
303.15
285.239
283.995
301.029
301.857
301.342
293.406
301.859
283.92
303.15
298.406
283.15
283.15
303.15
303.15
303.15
301.366
303.15
303.15
303.15
303.135
283.173
283.15
283.593
303.15
302.137
283.15
303.144
296.453
283.15
294.991
303.15
303.15
283.15
300.12
283.993
303.15
283.15
300.145
303.15
298.225
303.15
296.072
303.15
283.15
303.15
283.15
299.617
283.15
283.257
283.15
286.395
303.15
303.15
283.15
283.15
303.15
303.15
303.15
303.15
285.007
285.228
283.15
303.15
283.237
283.15
283.15
303.155
290.307
283.588
283.15
301.635
285.014
300.567
288.564
303.15
303.15
303.15
303.15
283.15
283.15
283.15
303.15
283.15
283.15
303.15
283.15
297.824
283.15
303.15
283.15
303.15
303.15
283.969
283.15
303.15
302.086
303.15
303.15
303.15
303.15
288.926
283.15
303.15
303.149
283.15
303.15
303.15
303.15
295.501
283.15
283.21
303.15
303.15
303.15
303.15
303.15
303.15
303.146
284.176
303.15
283.15
303.15
303.15
303.15
303.148
303.15
283.15
283.15
283.15
303.15
303.15
283.15
303.15
283.15
287.935
283.15
301.992
283.15
303.154
303.15
284.718
283.15
284.552
297.921
303.15
284.807
303.169
303.15
297.943
283.15
303.15
303.15
303.15
303.15
283.15
303.15
303.15
299.504
283.15
303.15
303.15
303.15
303.15
292.487
292.057
303.166
283.174
303.15
301.952
302.403
303.15
283.15
283.15
303.15
303.15
303.15
283.15
283.15
283.876
303.15
303.15
303.18
303.151
283.15
289.275
303.15
283.15
303.15
288.667
303.15
283.15
302.264
283.15
283.15
283.15
303.15
299.974
303.15
303.15
303.15
283.15
284.62
294.298
295.933
290.015
303.133
303.044
283.15
283.15
301.378
283.74
283.15
303.149
303.15
303.15
283.15
295.26
303.15
283.15
303.011
303.15
303.15
283.863
303.15
303.15
289.015
290.223
303.15
283.15
303.15
283.15
303.15
303.15
303.15
303.15
284.005
303.15
303.15
303.15
302.97
303.15
303.15
283.15
283.15
283.15
283.15
302.983
283.15
283.15
301.19
303.15
284.909
285.081
303.15
301.327
303.15
283.15
303.15
283.15
283.15
303.15
303.15
303.15
302.716
303.15
303.15
303.15
283.15
303.15
283.15
286.605
303.15
303.15
292.216
303.15
283.15
283.15
302.498
303.15
303.148
283.15
303.206
286.853
283.15
283.15
299.495
283.15
283.15
303.068
303.158
293.543
303.164
303.151
303.152
283.15
283.15
302.719
283.523
286.144
301.024
283.164
283.15
291.238
301.722
301.608
283.15
300.444
290.851
300.244
302.298
302.905
284.903
295.839
299.508
286.379
293.727
300.334
303.15
298.014
297.861
302.844
283.702
292.729
301.302
287.483
303.15
301.373
303.15
300.84
301.665
283.674
285.12
303.15
283.15
302.316
301.836
283.146
303.168
288.718
302.73
302.085
301.051
303.15
303.192
301.378
295.607
300.496
289.741
302.971
301.65
302.23
302.355
284.295
302.577
301.714
283.181
303.15
302.929
303.15
303.15
302.225
302.133
294.541
303.15
284.831
292.89
292.54
301.703
303.15
284.153
285.296
284.459
303.15
299.041
303.15
296.45
295.725
301.009
303.145
303.15
303.15
302.126
301.454
302.835
303.15
292.862
302.79
290.504
283.15
298.419
294.243
303.15
300.573
283.15
283.207
283.15
302.685
303.124
303.15
302.998
298.644
283.147
300.72
302.32
295.496
283.602
296.289
297.352
283.527
303.138
284.939
296.398
283.331
297.404
300.733
300.556
300.559
302.125
290.981
301.704
303.15
302.773
302.711
302.696
296.526
302.915
283.15
302.152
293.61
303.15
283.473
286.969
301.378
302.677
290.732
284.911
287.959
302.702
296.902
303.15
303.15
295.569
283.15
293.255
283.474
303.15
290.735
290.843
283.962
303.15
297.521
298.527
284.338
301.523
294.349
290.342
300.59
303.115
303.15
303.15
283.657
302.692
283.382
285.999
303.15
303.033
303.053
303.15
285.548
300.818
298.133
283.293
299.861
302.488
300.679
287.205
283.15
303.115
301.944
283.843
283.168
303.15
303.088
303.15
303.15
284.264
302.602
296.426
283.083
283.151
303.15
283.15
302.974
303.059
302.57
301.566
303.15
283.15
283.15
301.941
301.992
283.259
295.922
303.15
303.15
301.762
285.708
283.268
301.819
301.905
301.883
284.527
303.15
283.15
298.554
297.976
303.15
302.773
302.207
285.283
285.123
302.231
303.052
303.15
298.446
284.532
283.15
303.15
300.669
301.365
302.121
289.892
302.198
285.871
300.349
300.292
290.532
297.833
303.15
303.15
301.084
284.573
302.218
283.152
300.781
301.86
283.668
288.464
302.51
283.15
283.15
283.02
303.15
303.15
300.189
299.103
302.395
283.145
283.15
284.026
283.149
283.15
283.153
303.09
301.154
299.507
296.21
283.411
303.116
300.338
303.15
283.15
302.657
289.443
300.956
292.846
283.548
303.077
283.147
283.15
302.88
301.359
302.688
283.163
291.79
285.045
303.15
284.403
301.17
283.15
283.324
285.123
284.94
283.15
283.15
301.778
283.15
289.681
302.6
302.766
301.869
283.536
300.012
291.25
283.15
303.269
292.677
283.15
283.15
283.15
303.15
301.27
302.499
299.359
301.616
300.01
289.299
283.154
291.169
290.324
303.074
291.51
300.205
292.274
283.15
286.56
301.256
301.668
283.15
284.089
299.883
283.15
303.15
283.197
301.437
303.15
284.093
302.31
303.044
303.15
283.15
293.052
303.152
301.849
283.15
283.15
283.15
302.328
298.051
303.14
302.276
303.162
303.15
288.743
303.162
290.633
300.41
300.371
296.908
283.158
301.82
283.15
290.827
301.554
289.782
290.694
299.222
300.874
301.727
287.338
291.306
285.26
283.184
302.329
286.329
283.145
283.147
300.396
283.076
300.491
287.248
296.197
299.68
289.689
299.524
283.124
299.165
283.15
290.455
291.092
298.904
283.365
283.15
300.847
283.15
302.854
283.15
303.15
286.636
286.691
283.15
299.252
298.622
287.331
303.15
303.15
301.942
289.959
303.075
283.778
301.709
287.426
303.147
284.357
288.536
303.15
301.61
283.15
283.15
287.76
287.346
283.144
285.399
301.637
286.487
301.183
303.15
285.511
301.87
291.485
303.15
303.15
301.792
302.177
303.15
293.938
294.459
283.797
296.73
287.11
290.358
303.15
303.059
297.36
285.285
283.15
287.918
292.977
299.996
283.176
283.804
282.856
302.083
303.135
283.15
303.138
303.15
300.705
293.496
299.083
294.207
283.15
292.111
296.49
285.803
283.218
294.615
283.15
300.286
303.162
293.041
284.169
303.146
292.067
298.858
288.562
300.434
291.48
287.687
283.15
303.143
285.5
290.236
293.902
283.15
283.15
283.15
303.142
283.15
283.135
286.685
303.15
283.15
303.161
283.172
291.244
290.6
303.198
302.953
290.221
303.15
297.296
303.168
302.121
287.513
283.15
293.323
303.147
303.105
286.466
283.15
283.15
283.511
286.334
303.075
303.145
287.803
289.761
283.574
283.162
290.074
293.416
303.15
283.15
303.117
303.15
302.433
285.126
302.396
303.104
284.129
283.832
284.125
302.872
302.312
297.53
294.207
303.09
291.659
291.199
303.15
303.108
302.673
285.618
283.424
303.15
286.11
283.405
302.959
301.686
302.28
283.15
300.555
301.973
303.15
302.235
285.563
303.15
298.251
303.15
283.15
300.86
302.755
286.568
302.562
283.15
285.315
303.039
283.15
302.401
285.497
295.186
284.447
303.15
303.03
302.887
286.701
283.15
287.331
284.334
290.104
285.983
302.344
303.15
283.15
283.15
293.282
283.15
301.134
302.263
290.533
283.15
294.211
283.15
303.15
283.15
300.077
298.819
283.151
285.438
301.773
303.122
303.155
292.521
294.798
301.364
283.3
301.851
283.145
303.15
303.158
300.296
283.15
302.686
295.092
303.15
301.042
287.534
301.987
284.989
288.59
283.15
302.319
287.992
298.812
303.08
283.15
303.15
291.937
302.261
283.093
283.145
287.228
298.756
303.15
284.881
301.19
301.143
301.402
303.151
300.123
287.911
285.076
301.713
300.12
283.836
283.083
303.158
303.15
303.15
297.654
283.161
283.15
303.15
303.15
290.151
299.026
300.374
288.034
302.849
303.15
286.554
301.694
303.15
301.052
283.841
301.625
303.15
284.669
301.452
295.613
302.797
303.15
303.15
285.329
295.422
296.701
287.651
303.15
303.15
283.15
287.433
302.499
296.493
303.15
285.717
303.15
303.15
300.515
288.915
283.15
295.889
296.211
299.148
283.15
303.15
292.87
287.444
303.15
298.232
300.682
300.591
303.15
303.15
303.15
300.409
298.589
302.866
300.089
283.15
293.024
287.936
291.236
300.851
303.15
303.15
300.92
303.116
286.851
296.483
303.15
303.148
283.15
286.595
299.439
285.739
303.15
303.15
283.373
303.13
303.15
303.15
283.15
290.693
303.15
303.15
284.766
299.377
283.15
303.15
284.72
301.462
300.356
287.197
295.022
303.15
283.515
303.15
303.15
283.191
300.735
290.643
300.57
303.15
303.137
302.284
293.476
300.094
301.576
284.54
283.503
300.863
298.647
303.15
302.795
284.235
299.941
301.523
288.02
303.15
297.61
301.548
301.632
301.665
293.024
303.15
283.15
299.402
283.15
283.15
287.935
283.15
284.06
283.15
283.15
283.15
283.15
302.809
288.267
302.76
283.15
296.019
291.101
284.847
283.15
303.15
302.736
301.872
303.201
302.701
283.15
295.092
300.447
290.35
283.15
283.15
300.007
286.043
283.15
283.15
303.149
290.815
283.15
287.464
303.15
303.152
284.389
283.15
288.585
294.592
300.868
294.688
302.992
285.846
302.574
295.518
286.453
283.15
283.564
291.966
303.12
289.617
302.73
283.15
292.533
287.937
301.108
301.239
285.079
303.13
285.049
297.494
302.992
303.149
285.224
303.146
303.027
293.606
302.691
283.15
303.15
303.15
295.118
291.423
283.156
301.391
284.811
284.222
284.717
303.145
288.531
300.638
283.15
283.15
302.609
303.151
294.894
302.954
303.177
300.22
303.206
302.934
283.15
301.425
302.928
283.15
303.15
301.394
303.15
284.412
299.168
283.171
291.98
283.15
287.754
303.044
299.951
283.15
303.049
291.053
301.355
303.137
303.09
283.15
283.15
301.97
302.119
283.84
302.848
302.503
302.451
303.141
283.15
294.066
283.15
302.827
288.042
303.013
303.15
283.15
302.885
285.269
291.635
302.161
283.15
302.663
302.125
301.679
302.572
303.057
303.183
303.032
303.15
283.15
301.617
298.292
303.096
303.15
290.312
285.458
303.15
283.15
285.46
303.181
303.161
302.953
301.347
284.393
303.108
291.029
294.354
303.148
289.318
303.16
283.15
290.252
283.15
300.253
298.558
284.887
288.452
299.928
296.725
295.545
299.481
294.076
303.151
294.016
296.828
283.152
299.698
293.998
303.15
299.138
299.467
303.15
291.554
303.166
301.84
303.15
287.108
286.129
302.855
289.838
283.15
283.15
300.591
301.135
283.817
283.15
303.15
300.378
302.421
300.793
300.078
302.834
292.778
289.825
286.78
292.666
284.418
290.796
283.314
295.768
290.588
294.453
287.431
284.34
303.16
283.278
303.147
285.849
300.962
283.151
300.385
298.437
288.912
302.156
285.516
299.304
283.15
302.982
283.155
283.102
288.407
299.978
303.15
300.407
303.037
300.069
302.816
303.15
301.468
285.084
295.247
302.182
303.15
283.765
283.15
290.711
285.328
285.928
303.165
303.149
283.15
283.15
283.18
303.15
293.979
303.15
303.164
296.409
303.44
303.15
300.481
303.15
303.15
294.191
290.816
303.15
290.005
302.164
289.731
303.15
303.15
286.37
283.349
290.603
303.205
303.15
303.147
285.646
283.322
283.15
289.223
287.907
303.15
284.37
303.15
303.15
303.133
287.523
303.15
303.147
283.312
303.152
302.734
288.098
283.147
283.736
297.396
291.239
303.15
286.051
284.545
301.479
287.266
302.381
290.724
294.169
303.15
303.15
284.077
303.154
302.976
295.899
302.972
302.792
287.33
283.15
285.455
283.229
297.407
302.662
285.597
303.15
283.887
286.889
303.132
283.181
303.15
286.618
283.15
300.149
303.15
300.064
300.314
283.276
283.399
302.407
291.261
301.318
303.15
301.593
301.911
303.15
303.15
298.54
293.901
283.15
289.019
303.15
295.248
283.398
303.15
297.128
298.996
289.191
303.15
302.82
294.559
295.759
284.563
303.161
298.907
296.597
284.03
303.133
302.85
287.674
298.851
289.968
290.997
289.907
283.15
302.987
303.151
303.15
303.165
293.627
296.77
302.996
301.474
303.15
284.513
303.15
303.064
302.9
303.15
293.932
296.417
303.15
285.577
303.106
303.15
303.106
303.154
286.366
293.734
291.359
288.576
293.517
303.15
301.345
291.993
295.675
293.972
303.142
303.15
300.702
303.18
284.379
303.18
303.15
303.15
303.143
303.15
285.127
303.15
284.387
303.146
303.15
290.579
303.145
292.89
295.974
303.136
295.68
286.091
283.48
303.131
302.955
284.784
283.15
297.306
303.15
285.655
302.957
302.138
303.031
298.462
287.309
303.15
298.818
290.081
299.656
283.15
283.655
303.15
303.144
303.184
294.196
303.15
292.705
289.563
303.188
303.15
285.014
298.978
293.626
299.779
302.575
301.623
300.535
303.15
284.806
296.952
302.42
285.77
298.354
292.525
284.629
292.032
303.15
287.089
292.209
290.253
299.621
303.15
286.576
284.131
303.15
302.5
288.324
302.155
283.15
303.15
300.059
301.808
289.33
302.085
301.912
301.919
303.15
289.679
285.269
302.058
302.319
297.382
303.15
283.209
303.15
302.085
303.15
302.874
303.15
292.099
303.15
296.997
283.15
290.096
303.15
283.15
292.291
301.568
300.592
289.407
300.664
303.15
302.571
303.15
302.418
285.408
303.15
300.579
290.635
303.15
300.964
303.15
303.15
293.312
283.15
285.836
293.492
301.077
303.15
291.538
294.173
288.517
289.801
288.252
299.194
300.269
300.957
287.55
287.28