/*--------------------------------*- C++ -*----------------------------------*\
  =========                 |
  \\      /  F ield         | OpenFOAM: The Open Source CFD Toolbox
   \\    /   O peration     | Website:  https://openfoam.org
    \\  /    A nd           | Version:  10
     \\/     M anipulation  |
\*---------------------------------------------------------------------------*/
FoamFile
{
    format      ascii;
    class       volScalarField;
    location    "40";
    object      SgT;
}
// * * * * * * * * * * * * * * * * * * * * * * * * * * * * * * * * * * * * * //

dimensions      [1 -1 -3 -1 0 0 0];

internalField   nonuniform List<scalar> 
59698
(
0.0132476
1.95403e-16
1.08704e-15
1.64004e-15
0.0302909
1.54861e-18
0.00213164
1.21346e-15
2.3716e-16
2.24444e-17
2.18486e-16
1.3241e-15
3.22084e-17
2.63606e-16
0.000353062
3.29487e-17
1.68965e-12
7.97373e-16
2.15959e-15
0.000270243
0.00138961
0.0139573
1.20785e-07
3.66071e-18
0.0422217
9.21205e-16
5.58138e-16
0.00752772
0.00670798
0.00746142
0.00479618
5.00155e-17
6.54166e-17
0.0123444
0.00243747
1.14924e-15
0.0187588
0.0205223
1.78739e-16
0.022534
0.00864859
4.71808e-19
0.00372386
0.000614948
4.62696e-18
0.0321373
1.78206e-15
0.000730223
0.00024638
3.0336e-16
0.00151426
7.55564e-15
2.79639e-17
0.000658209
0.0091786
2.02712e-15
0.00126124
0.000212534
0.000820222
0.00271569
0.00345996
0.000313275
0.122033
4.05556e-15
0.0124954
5.53541e-05
5.70535e-17
2.86474e-16
9.94217e-16
2.51435e-15
7.84891e-10
0.000266004
3.83636e-06
0.0411057
1.12918e-18
0.0391449
0.000695939
0.00925348
0.000358757
0.00617404
0.00890255
0.000439806
2.22805e-16
2.67293e-16
0.00857007
0.000706244
2.26757e-07
1.16522e-16
0.0637889
7.54416e-17
2.11941e-16
0.00205863
0.0148989
1.0868e-15
9.77998e-16
2.7913e-15
0.00541127
1.50725e-15
0.000268627
3.85842e-19
0.073685
0.00178985
0.0162923
0.0121413
1.37844e-15
1.66257e-16
4.52184e-16
1.91394e-16
3.08341e-16
5.35707e-17
2.76502e-16
4.83393e-16
0.0381711
1.97233e-18
3.30487e-15
6.07099e-15
1.83468e-15
5.27705e-16
2.83578e-15
9.42989e-17
1.09899e-15
8.60135e-08
3.00941e-16
1.53971e-15
2.1016e-15
3.23999e-15
0.0108179
4.25273e-17
4.68843e-15
6.87754e-15
0.0414714
9.64827e-15
1.34963e-16
0.100127
0.00427444
0.00441045
2.39916e-14
1.70728e-16
2.4558e-15
2.54528e-14
2.0772e-17
1.85057e-16
0.000174507
0.00265245
6.49712e-15
6.14957e-13
1.23352e-14
9.72943e-15
1.21006e-15
0.0292988
4.20434e-05
1.23699e-15
0.00151229
6.01804e-15
0.000153937
0.000293351
2.68154e-15
7.30774e-16
0.0124544
5.36409e-17
0.000861359
2.61703e-16
0.0163873
0.00163399
0.00336345
0.0322706
3.66585e-15
0.0716181
0.000507192
0.000487394
0.0119387
2.3353e-08
0.010791
0.0146401
0.0793799
7.46861e-16
7.20332e-17
5.05781e-05
3.54125e-16
0.00628362
0.00942646
0.018071
0.0147456
8.46421e-15
0.0460537
0.000236789
0.0114554
3.07631e-17
3.11564e-15
0.00118111
0.000400575
1.49575e-16
0.00266459
0.038702
0.00402893
3.01466e-15
0.00986573
0.0552809
1.43076e-05
0.00773626
2.66e-15
0.00613909
0.021194
7.54719e-16
0.00682249
0.000317391
0.00611456
0.00080924
0.00512342
0.00789129
4.03354e-16
1.29699e-12
0.000166413
1.23407e-17
0.00409247
1.07559e-15
7.16239e-16
2.25439e-13
0.0127666
0.00660242
0.00560469
0.000511336
5.61487e-16
0.0660659
0.000815109
0.0236348
0.00734788
0.00324761
0.00685317
0.159329
1.82062e-16
0.00473571
0.00291244
0.00324566
3.83405e-16
0.00968219
0.0829694
1.03902e-15
2.34856e-16
0.000441024
8.96873e-16
0.00147252
0.0135332
1.63619e-18
0.00613286
6.3805e-16
0.0037504
0.231246
0.00123203
5.72349e-15
0.000723138
0.00164207
0.000629025
8.38369e-16
5.91035e-15
0.000693076
0.00553865
0.00128267
4.34424e-15
1.17144e-15
6.9119e-06
1.15187e-17
0.000393547
0.00282464
0.000896056
0.0475803
4.50502e-16
6.62301e-15
7.07318e-16
2.88152e-16
5.74941e-16
0.0439792
0.000154796
3.47739e-16
0.0179457
0.000302123
8.32796e-15
0.000554601
0.00208736
1.28203e-16
1.09744e-16
9.75124e-16
8.27643e-16
0.104932
0.0456725
0.0201264
0.000124453
3.48135e-10
0.0729681
0.000447236
0.0916568
1.50152e-05
1.11363e-15
2.84562e-15
0.000337572
8.24019e-16
1.6291e-17
0.000751838
0.00424007
1.58816e-15
0.00272435
9.0056e-18
1.87678e-17
7.14874e-15
9.31948e-15
1.91506e-15
0.0519922
0.00073389
0.000810998
5.64789e-16
2.58034e-16
1.38933e-15
4.60261e-16
1.72033e-18
1.09345e-15
0.00513426
1.8139e-17
2.7668e-12
9.72134e-18
1.09508e-13
1.5683e-13
0.323884
7.755e-12
8.51422e-18
0.0483977
0.0104422
1.59587e-12
9.67193e-13
0.000438502
1.04359e-17
0.00642953
0.004169
0.0202708
0.207068
3.61142e-16
1.92661e-05
1.04389e-16
3.65752e-06
0.0091069
0.00327061
0.0102272
3.78952e-06
5.80398e-16
0.00147485
9.66346e-05
6.60796e-17
9.87959e-05
0.0394372
3.73151e-16
1.51355e-05
0.00798903
2.34824e-15
0.0399998
1.94165e-18
0.242986
0.000258218
0.0140528
8.12863e-17
5.08678e-16
7.25371e-17
5.72405e-16
1.53168e-16
1.55788e-15
0.000882999
8.61453e-18
3.82501e-19
4.92071e-16
1.38153e-05
4.15745e-16
0.00165868
0.00190692
6.39345e-17
2.38361e-16
8.5436e-19
0.00618831
2.37518e-17
2.16216e-16
1.80053e-14
9.21448e-18
9.74887e-16
1.96822e-18
3.13696e-15
1.19579e-15
0.000525981
6.60107e-16
1.30157e-05
4.32559e-16
2.68594e-17
3.15245e-16
4.46599e-16
1.71667e-16
7.46447e-17
0.00126353
0.00260192
0.0012953
0.000481382
0.0485909
2.80004e-16
2.16176e-15
3.52839e-16
0.000409704
2.2244e-05
4.66055e-16
4.70525e-16
1.10627e-15
4.32035e-16
0.0813499
0.0253
2.23951e-05
0.00537799
0.0314525
2.07799e-16
0.000147375
7.98437e-16
4.83641e-16
0.0597711
7.47523e-16
0.010361
0.000515949
8.15855e-05
0.000417137
7.57392e-16
3.53928e-05
0.309688
2.36389e-16
8.25719e-16
1.98033e-17
0.000799638
3.60169e-15
4.08238e-16
0.000264797
0.00018668
0.0151352
0.00303119
0.00211885
1.05774e-16
7.63353e-16
0.212331
1.10658e-16
0.00105734
1.31287e-19
2.71779e-17
8.11355e-17
7.1292e-15
8.86494e-16
0.00238729
0.0699034
1.1033e-18
1.52616e-15
0.00908331
1.3201e-15
1.34696e-15
1.49925e-05
0.0331195
1.15076e-05
3.35931e-15
0.108325
5.27747e-17
0.00967741
2.539e-14
0.0541264
2.14523e-15
0.0126466
0.013331
8.35324e-17
5.41105e-06
2.98267e-05
0.00849063
1.907e-05
0.00806665
0.000454099
1.69955e-16
1.86072e-16
1.60117e-16
1.72724e-05
1.04843e-05
0.00113018
0.0690036
0.00320037
0.000417488
6.89417e-16
8.45023e-06
3.6523e-16
1.30106e-16
0.00543769
1.6778e-16
6.59627e-16
5.36748e-16
0.0658529
0.001783
0.0231025
0.0656055
0.00113296
1.20042e-15
0.0547943
1.84185e-15
3.68207e-16
4.22105e-16
0.00952186
4.76734e-17
1.21931e-16
0.0641104
0.00713859
0.00460436
1.34535e-16
5.94364e-17
1.15904e-15
4.63971e-18
8.50155e-16
0.0031655
0.000580618
0.0747792
0.00724741
4.34843e-19
0.00913914
6.27774e-16
2.17782e-17
5.04018e-16
4.68844e-18
1.35283e-17
0.00547755
0.00377795
1.34735e-15
2.09628e-17
2.60182e-17
0.001248
0.00947648
5.83654e-15
0.0072684
0.000193489
4.40259e-15
0.0385851
3.67756e-18
1.94839e-16
5.56624e-16
2.03224e-16
3.34746e-19
6.91302e-05
3.36513e-16
8.62607e-17
0.00967484
7.82799e-16
8.40942e-16
0.0680814
0.00817951
0.0135197
0.0100648
6.32636e-06
0.0116915
3.8674e-07
1.48733e-15
4.52455e-16
1.39976e-15
2.14107e-17
1.13722e-15
2.0589e-16
7.57175e-16
0.00115311
0.00689722
0.000444019
8.91239e-18
4.62951e-16
4.02434e-16
8.41231e-05
8.55308e-16
3.98061e-18
0.0739435
7.31671e-16
0.00553912
5.45289e-16
0.00287702
1.10586e-15
1.82355e-16
0.00259643
0.00287578
0.003377
3.32069e-15
0.00399374
0.000112458
1.86372e-16
3.82818e-19
2.01402e-15
0.00196392
1.07102e-15
0.00407078
5.33228e-16
0.00243364
8.89573e-16
0.00418481
0.00268866
0.00216188
0.000156498
1.3178e-15
1.3517e-15
8.42586e-18
4.62538e-15
1.26856e-12
0.00167072
3.23362e-18
5.13813e-17
0.00518092
3.35303e-05
8.64027e-16
5.83042e-16
0.00145423
0.00216174
1.47156e-15
4.7857e-18
7.42768e-05
1.20284e-15
3.01542e-16
0.00048539
6.26094e-16
0.0043722
0.00138049
0.00281854
6.49266e-16
0.224537
1.8785
6.80083e-16
2.2277e-16
0.000605732
0.00218942
0.000901522
5.95019e-05
6.86869e-17
0.0044737
0.000959639
0.00369956
0.00139534
7.36265e-05
2.17988e-16
1.69304e-15
0.000655898
1.04031e-15
0.00117058
0.00029486
7.87228e-16
4.49817e-17
0.106333
2.18076e-17
8.34958e-15
1.57668e-15
1.51447e-16
0.00242759
0.00382797
2.77521e-15
2.32839e-17
3.57214e-16
2.78419e-16
1.47755e-17
8.74206e-16
0.00828849
1.51534e-05
4.38065e-13
3.89298e-15
7.95223e-16
2.81041e-07
0.000327466
0.00021733
5.93856e-17
0.000838453
0.000897565
0.0197555
0.0912988
0.00136317
2.11346e-15
1.4133e-15
6.38514e-06
0.0415849
1.14258e-17
8.5045e-16
1.3516e-16
2.39325e-16
2.41306e-15
0.000129637
3.40909e-18
0.00825311
0.047312
1.9519e-15
0.000151064
1.89948e-16
1.00935e-19
1.76439e-18
3.91778e-09
1.92941e-15
5.9359e-05
3.15117e-15
1.28143e-08
0.00871258
0.00439638
0.036488
1.13149e-05
4.66678e-05
1.99905e-05
1.89696e-17
9.24423e-17
0.000285019
2.62091e-18
5.0073e-16
1.31721e-17
5.05914e-18
0.00660624
0.000827001
7.42345e-15
2.06766e-15
0.00641422
8.95842e-16
1.14523e-15
1.20247e-17
0.00154354
8.15338e-19
1.12662e-15
3.51807e-16
9.92873e-16
0.00198676
0.00920411
8.1402e-16
2.47153e-17
4.1895e-18
0.0597425
0.000821582
8.75253e-16
1.52271e-13
0.00145523
0.0257413
0.00691019
2.94434e-16
0.0552969
1.21588e-15
0.00255052
8.38507e-18
0.00772252
6.93827e-05
2.28009e-18
0.0112647
1.25783e-17
1.42387e-15
0.00307374
0.0600861
8.68019e-15
7.33154e-16
0.246625
6.69425e-06
0.000729161
0.00238473
0.00192106
0.00175353
2.15633e-15
0.0133
8.224e-16
0.0600621
0.00317043
0.022609
7.53266e-17
1.44079e-15
0.105123
0.238002
3.10194e-15
1.83374e-15
0.0497808
1.23193e-18
0.00224579
0.00521033
2.24654e-17
0.00614883
0.00411947
6.06456e-15
6.11753e-17
0.00195978
0.0141728
3.4385e-17
1.20516e-17
9.9894e-17
2.56101e-16
0.00436622
2.40897e-15
5.96781e-17
0.00609911
0.00521454
1.22954
1.05839e-17
0.0245974
0.00970129
0.0210717
0.00105291
0.0047141
2.75793e-17
0.000976863
0.00163456
8.17673e-16
0.00671742
0.0111251
0.106094
1.11424e-15
0.00552101
3.58974e-16
2.2192e-16
1.61417e-15
9.23466e-15
3.28692e-15
2.45759e-16
7.38294e-18
3.44399e-16
0.00945586
0.000141262
0.00072952
0.000188761
8.28754e-17
0.00685294
3.6593e-17
4.29146e-16
2.48683e-15
8.19522e-11
6.08709e-05
0.0137018
5.83649e-17
1.99798e-15
0.020053
0.21031
4.34968e-16
0.0087841
3.47199e-16
0.000676573
3.21323e-16
2.12632e-16
0.00168062
0.000845434
0.00746902
3.02491e-17
0.00627908
2.02909e-16
2.01239e-17
4.78169e-17
6.3966e-15
4.17077e-16
3.9307e-06
2.76906e-16
6.88379e-05
0.000210081
2.6165e-16
4.10374e-16
2.04127e-16
1.21266e-15
7.15689e-17
0.00207212
1.26936e-15
0.00152493
2.10021e-16
0.00405902
4.68894e-16
1.66343e-16
0.0157064
6.91768e-17
4.74785e-16
1.67505e-17
0.0359525
0.00489826
0.000870246
9.2499e-16
1.56017e-16
0.0105805
1.79949e-17
0.00979801
9.0769e-18
9.77734e-17
0.000428015
7.90245e-07
2.80898e-15
4.483e-16
3.41707e-16
2.72679e-17
0.0088606
3.38757e-19
0.00209462
1.70562e-18
2.17676e-15
6.15366e-05
0.00164869
0.000269699
0.000169397
4.48879e-17
0.000305559
6.7513e-18
7.00224e-17
9.06948e-17
7.91215e-17
2.01756e-16
2.46279e-15
1.61835e-16
0.000259447
0.00373358
0.0183132
2.73564e-17
0.00112487
0.00298969
7.16246e-16
0.00279037
2.97493e-16
6.18642e-18
0.00449545
0.000771032
2.74286e-18
2.64443e-16
0.00160481
1.84671e-18
0.00260795
4.01718e-16
1.02086e-14
0.0652018
2.25688e-17
2.91625e-15
4.49766e-15
1.33329e-17
5.12821e-17
1.00155e-14
7.66297e-16
2.73152e-16
0.0202127
0.00397848
7.13542e-16
0.0407875
9.50919e-05
0.0012914
0.114867
2.83295e-15
0.00459321
0.00450745
0.0325457
0.0583448
1.57749e-16
1.09647e-06
1.19115e-16
0.0247075
0.000271123
0.000190069
0.00141389
2.95782e-17
2.44469e-17
0.00245723
0.000333599
1.62712e-05
0.00677655
0.00283828
9.22362e-15
8.24476e-05
0.0250214
0.000728177
9.07769e-16
1.80689e-14
4.71671e-14
4.67083e-16
9.47518e-16
0.000781681
9.12084e-15
4.50705e-16
1.65448e-14
6.80805e-16
8.34696e-16
1.24854e-15
0.00539997
5.43657e-19
5.77437e-17
0.00958688
0.00155859
0.000940004
0.000984747
0.00057888
0.000127062
2.69581e-11
1.13138e-16
3.55036e-17
2.31126e-17
0.000147394
1.64708e-18
3.87463e-06
0.0110021
0.0163328
0.0177938
3.37337e-15
1.00932e-05
0.00290207
0.00115777
0.00274863
0.00394209
0.000401781
3.8777e-16
0.000181533
3.43722e-08
0.0109812
0.0564368
0.00166792
1.81062e-17
9.02489e-18
3.74471e-17
8.72235e-05
0.0011003
0.000309767
0.00234148
1.72971e-16
1.59036e-15
4.87252e-15
0.00233803
0.00235322
3.01199e-14
3.35446e-16
0.0472598
1.37864e-16
0.000240817
6.21184e-16
0.0199629
3.57537e-18
0.000396373
1.41748e-05
0.00105157
3.50059e-15
0.00169754
0.00112343
7.08568e-16
5.20925e-17
4.96662e-05
1.17015e-15
0.00547816
0.00947695
0.0100924
0.0081755
0.00526528
0.00574855
3.45058e-16
5.49418e-16
4.96341e-17
0.00596343
0.00473774
0.00151572
8.00789e-17
2.05018e-15
0.00393565
2.34536e-15
4.44511e-06
4.62367e-15
0.0146578
2.29389e-15
0.0406054
0.000494096
0.737978
2.34247e-15
7.35224e-17
3.73034e-06
2.35327e-05
4.29873e-15
2.24484e-10
0.00398576
0.00699891
0.00173145
0.00121004
0.00361988
2.28292e-17
1.12681e-17
0.0197859
7.63374e-17
0.000930599
0.00133731
0.000353207
0.000323763
0.000377264
6.1445e-18
7.69404e-16
0.00818915
0.000783177
0.0923665
1.73957e-16
0.000389579
0.0822114
3.73594e-16
0.00878994
0.00182669
0.0252112
1.29035e-13
0.0036181
1.83758e-15
2.50974e-16
0.00132723
2.42787e-18
0.00122022
0.000413574
7.98744e-16
1.06052e-15
1.15628e-15
7.88005e-16
0.00322444
0.00967681
1.80356e-16
0.00232651
0.000524118
1.14927e-15
0.0361895
0.054595
0.00505719
0.000370197
0.00327675
0.455222
0.0240856
0.0262994
1.35823e-15
5.11405e-18
0.102471
2.90187e-15
3.39831e-17
4.53655e-15
0.0143064
1.7967e-16
0.00170417
0.00070904
0.00174635
1.35116e-17
0.00250669
0.00900138
0.00288409
0.000645389
2.90525e-16
2.90331e-18
1.18449e-17
1.46797e-15
0.00365127
9.31662e-17
1.53592e-16
8.69028e-16
0.00777886
5.47457e-16
0.113795
3.11531e-15
0.00118509
7.91723e-17
0.00563549
6.07344e-16
0.0010978
0.00257551
3.4534e-17
1.29844e-15
2.8883e-16
8.13212e-16
1.47265e-05
6.01947e-16
0.0187455
0.0101171
6.17609e-16
0.00150385
0.0836173
0.00112172
0.00400966
4.0668e-16
9.3718e-15
0.0036794
0.0361525
0.00874389
0.00264406
1.02814e-16
0.00193144
0.00336407
0.00300952
0.00371198
0.00537731
1.12571e-17
0.116051
0.0499781
0.000493397
1.50215e-15
1.22429e-15
0.000484279
4.93605e-16
0.0262572
0.00113315
4.99719e-16
0.00229745
3.46438e-06
9.14446e-17
0.00355657
2.72598e-17
0.00268843
1.03374e-15
0.00150117
0.00376179
1.71763e-15
0.0196984
3.29909e-15
7.31575e-17
0.00363721
0.000185486
0.000394082
0.00210769
0.0119392
3.95459e-18
3.22878e-17
1.87173e-06
1.46089e-06
3.37681e-10
3.1493e-16
9.29171e-17
1.28656e-15
1.52466e-06
4.64866e-18
3.29644e-17
7.46619e-10
2.19675e-15
1.10842e-15
9.9959e-15
0.000314853
4.36276e-16
2.8741e-18
4.38251e-05
8.9681e-16
2.08429e-15
4.69523e-15
4.40308e-06
6.34166e-16
0.00391856
0.103559
1.93768e-15
0.0047727
0.00166662
0.00172897
2.34963e-17
1.74991e-15
3.6753e-15
0.0084521
0.019472
0.00286159
3.81631e-16
1.53127e-16
2.90247e-15
4.93562e-16
0.00475464
0.0095708
7.75035e-18
0.00210922
0.00283044
2.8107e-15
0.00347441
1.65464e-05
0.0145393
0.00187245
0.0025206
9.55617e-05
9.86912e-18
6.82233e-18
5.27392e-05
0.00560754
0.000176627
1.75684e-16
9.42447e-16
0.0050234
0.00010118
7.54876e-15
9.61666e-05
7.88522e-05
1.93345e-05
2.23399e-15
0.00379044
2.70121e-15
8.47552e-05
0.0284416
0.00209405
0.000846474
2.65284e-15
3.06788e-18
0.000937232
2.26566e-17
0.0145772
6.1466e-16
1.53391e-15
0.0012663
8.87628e-18
0.00086283
5.8176e-15
4.33964e-12
3.8488e-18
0.000202589
3.18373e-15
2.67192e-16
2.9548e-05
6.40491e-08
2.27556e-15
1.53595e-16
2.28963e-05
1.95293e-17
0.00553955
0.000293565
1.14783e-17
0.0473012
7.66486e-05
5.06362e-16
0.000265682
2.62817e-18
1.97791e-16
2.02517e-17
9.15735e-16
1.66301e-16
3.29996e-17
0.000949246
0.000343949
0.00275734
0.00429442
0.00129652
4.2279e-16
0.0632552
1.32687e-15
2.99519e-14
0.00213384
0.000796486
0.00340025
1.17031e-05
9.41862e-15
0.350356
6.87997e-16
2.71235e-15
1.70483e-15
0.023201
0.00303577
1.11355e-16
1.45548e-16
3.13725e-17
0.000594659
0.0359616
0.00218374
0.00871412
0.0117271
2.06164e-17
1.32017e-16
1.04504e-17
1.3221e-17
0.00829964
1.14682e-15
0.0747108
6.30649e-18
0.000481231
4.33308e-16
5.60199e-16
2.21686e-15
0.00037714
0.0085896
0.0181388
1.05397e-17
0.00183629
0.00448942
1.26192e-17
0.0011585
0.000991073
0.00200799
0.000421447
0.000815954
0.00750343
0.0107048
0.000401764
0.00160543
0.00267015
0.000686083
6.5467e-18
7.44809e-17
0.0138043
0.011581
0.00351963
0.0473787
0.00271822
5.56117e-17
0.00523371
2.39814e-15
3.01077e-15
0.00106519
0.0223005
0.000308013
0.0204265
0.0114887
0.0341914
1.10762e-19
0.101514
0.00876275
0.00174985
0.00464556
0.0646615
2.44731e-11
0.00282553
1.6105e-15
1.24273e-15
0.00802987
0.000325079
2.04188e-15
1.52157e-15
0.000100552
0.0249011
0.294658
1.17332e-16
0.00907996
0.000842725
0.00013394
2.80149e-16
0.188771
0.000617294
0.28686
0.782601
3.31067e-06
2.41954e-16
2.61516e-15
0.000172373
0.0106393
0.00565319
0.0101744
0.0635109
0.0341284
0.00181565
1.58721e-05
0.0104095
0.011364
2.38973e-16
0.000532929
1.067e-17
0.000244394
0.00041847
2.40238e-18
0.138325
0.000200775
1.0901e-15
1.12385e-15
0.00025679
0.000182885
5.35494e-18
1.88452e-16
0.478992
0.0314697
0.184819
0.148689
0.00216958
7.21335e-16
0.00649355
0.000456911
3.25889e-16
8.31838e-19
0.0853148
8.97597e-18
3.3123e-06
6.81867e-16
4.4084e-17
0.016631
4.60424e-16
0.00854236
1.34118e-15
6.26947e-16
8.65733e-16
0.000609891
0.0011353
0.0129648
3.36273e-06
0.00114946
1.53995e-15
0.0150413
1.16141e-16
7.36651e-17
4.04326e-15
0.0134656
0.000154191
7.46648e-17
4.61424e-16
0.0313233
0.000177737
5.01901e-17
6.14524e-16
6.69307e-16
2.71489e-16
0.00304737
6.10652e-17
2.89774e-05
8.54801e-16
5.108e-15
0.00012381
7.31924e-17
8.70448e-16
0.00021289
4.95511e-16
0.0107438
6.52404e-16
3.33753e-15
0.00191581
0.00172271
0.00953393
1.0414e-07
0.010228
0.000304454
7.99324e-17
1.75118e-17
3.05699e-17
3.25788e-17
4.61065e-17
3.40858e-05
3.70961e-16
1.57692e-05
0.00947059
0.00171804
1.07022e-15
0.0175973
4.38332e-05
0.000210816
0.0145429
0.00623152
0.012277
0.0131224
0.00331444
5.2369e-18
0.322164
0.0623519
3.25392e-08
7.21821e-17
0.0148187
9.72877e-08
0.0242437
0.000103674
3.21261e-17
0.0120858
3.02473e-16
0.00677695
1.03499e-16
3.29586e-16
0.00756499
2.89142e-16
0.0312649
0.354154
0.00114123
0.055068
1.6319e-15
2.08978e-15
1.54682e-05
1.69348e-06
0.10434
1.25419e-05
0.00165679
0.000484113
2.87796e-16
0.00162911
1.76139e-05
2.10154e-16
2.07487e-16
0.0262757
7.70306e-20
5.72562e-05
0.0619305
1.01161e-13
0.00272357
1.42354e-17
5.87801e-16
0.00109809
1.01431e-15
5.38473e-16
3.409e-06
1.80052e-15
0.00251208
1.97923e-14
1.49677e-16
4.4434e-17
0.000836299
5.45056e-06
0.00279138
4.05123e-17
3.61768e-06
5.47584e-16
8.9461e-05
5.13072e-05
0.031703
2.36744e-18
5.47678e-05
8.18757e-17
0.00166354
0.033861
6.29503e-16
1.95046e-14
2.42012e-16
8.66049e-15
5.0441e-17
0.00192702
0.295889
1.36246e-15
2.8349e-06
6.25254e-05
2.72629e-17
1.2896e-15
1.78457e-16
9.18936e-15
1.14196e-16
4.0359e-14
3.7978e-17
3.84597e-14
0.000709215
2.53386e-17
0.011432
1.27879e-16
8.31508e-18
0.00107535
0.000685008
0.000330762
0.0445699
6.31801e-16
3.62304e-16
2.35686e-05
1.02802e-05
3.03804e-16
2.69072e-05
5.42157e-16
1.61802e-15
4.25378e-05
2.34914e-17
3.22152e-17
6.88161e-15
3.62382e-16
7.41297e-17
0.0226356
3.33224e-16
0.00617208
1.83313e-16
0.0155173
4.39792e-16
0.000762857
5.53404e-16
0.00433447
4.58362e-15
0.00409857
0.0192768
3.20039e-16
1.29512e-16
8.29467e-16
6.09553e-17
1.17273e-07
3.88538e-16
7.0245e-16
0.0163894
2.41534e-16
0.0103744
7.72326e-15
0.878354
0.442781
2.86406e-15
0.0415052
8.42409e-05
2.3532e-15
0.00938464
8.68973e-10
0.602743
0.0441918
0.00450456
9.80014e-16
0.0283287
0.393801
1.01847e-15
0.0250808
0.00436913
0.00222869
0.125517
0.0440698
1.28491e-15
0.000946973
0.0260716
0.0487258
0.0041341
0.000308751
0.0311092
1.6623e-15
0.0141187
2.06276e-15
2.57677e-15
0.00662353
2.96917e-15
9.32638e-07
0.00392971
2.05527e-15
0.000129613
7.8293e-16
9.88824e-17
0.00783166
0.00605988
3.08161e-16
4.74131e-16
0.00170759
2.15237e-15
0.00407202
1.46663e-16
0.0115768
0.0631563
4.18958e-17
0.0333431
0.000139475
0.00115481
7.21493e-16
0.000444654
0.0303849
0.00412912
1.06749e-15
0.0270508
2.39733e-11
5.12018e-16
0.000647063
7.94427e-16
1.47668e-16
0.00545254
0.0258054
0.0147215
0.00507154
0.00549884
0.00104817
9.86177e-16
5.38568e-16
6.58997e-16
1.58858e-15
1.2968e-08
2.14663e-05
1.20683e-15
3.53912e-15
4.81487e-06
4.93601e-15
5.94229e-16
2.11113e-15
0.0102403
2.88887e-18
3.75819e-16
0.00335159
0.000964754
7.87661e-15
3.708e-16
0.00678834
1.54593e-15
0.00500982
0.000437509
0.00428497
2.98845e-15
3.69748e-15
4.17336e-15
8.21015e-16
9.2949e-17
0.00152063
3.56785e-16
5.99976e-15
3.60606e-15
0.0346916
0.000165552
1.60001e-05
1.60008e-05
1.35932e-15
0.000309737
0.00840317
1.88763e-07
1.63053e-15
0.000503249
1.61441e-16
8.37582e-17
0.00189358
6.96228e-16
4.18891e-05
0.00296486
1.9215e-15
0.00599847
0.0288617
3.65088e-05
1.72139e-15
0.00301237
7.0323e-14
0.00425718
2.93165e-06
0.00599317
0.000351877
0.00278227
2.83097e-16
0.000733124
0.000928925
0.00721463
2.45248e-16
0.0198715
0.00616527
3.79627e-16
1.86281e-14
0.0015921
8.87521e-17
1.05665e-15
0.00247687
0.0219211
1.24932e-15
0.0378352
1.15317e-11
3.88775e-16
1.94273e-15
0.00152706
1.10321e-14
0.000871614
0.013828
0.0211824
0.00208868
0.0095399
3.8041e-16
2.35676e-15
0.00439069
0.0145464
6.81541e-15
3.0987e-15
9.66908e-15
0.0828183
0.0419622
3.54504e-15
1.4228e-15
4.41822e-17
3.75925e-16
2.56793e-16
0.0337625
0.00857494
0.015853
7.75485e-16
0.000606864
3.69899e-16
0.0193063
1.39576e-17
0.00337591
1.42073e-15
6.74769e-16
0.0201743
1.35413e-15
0.000398885
9.07603e-16
2.8744e-16
4.12993e-15
3.8384e-15
0.0234701
6.08368e-17
1.24673e-14
0.0200119
1.46537e-12
6.74984e-18
0.000431643
8.77624e-05
3.15949e-12
0.0134251
7.53824e-05
3.44726e-18
8.31329e-05
1.14615e-05
5.58465e-16
9.90176e-15
1.69045e-14
6.18236e-17
1.69997e-14
3.12911e-05
0.011694
0.00289175
0.000439004
9.40866e-10
0.000296036
0.0601624
2.15767e-14
3.07487e-16
0.0180812
0.00278357
2.15394e-05
0.00331648
1.51159e-14
2.86381e-17
0.0184282
0.00216959
0.0229403
0.000771991
0.0496023
0.0142209
6.07715e-17
0.0256875
1.53142e-05
0.0895487
0.00326572
2.03238e-15
1.0901e-15
0.256581
0.00485058
0.00100042
0.00308823
0.000159783
0.00333264
0.030871
0.00850567
0.002909
0.144178
0.00373275
3.74117e-20
0.0177602
0.063923
0.0346692
0.00132749
8.92024e-15
3.72159e-16
4.87648e-15
0.000669898
0.0189318
0.0197445
2.33295e-08
0.0522025
0.0229582
0.000626111
9.79671e-15
0.0136651
0.00324168
0.000698417
0.0503196
0.000541603
0.000112322
0.0108231
0.0108305
0.0218226
5.52655e-15
4.91048e-07
0.00161264
0.0162941
2.19297e-16
1.38043e-14
0.173084
0.00257468
0.00122715
0.000722221
4.35036e-05
0.00435703
8.75228e-17
0.0186246
1.32102e-15
0.0140891
1.03231e-15
0.00553161
2.98158e-19
0.0164539
1.99878e-11
8.76357e-16
0.00868767
3.48571e-16
0.00669493
0.00771525
2.88849e-16
0.0158623
0.000124604
0.0156314
0.00661105
0.00924034
0.0564655
0.00557621
0.0291475
0.0345103
0.0169837
4.2602e-05
0.0045758
0.00017081
0.000983912
0.000545516
0.00125906
0.00361793
0.000642738
3.81314e-15
7.31625e-15
2.34582e-15
0.00107512
0.00101665
0.0519562
0.0032366
3.50193e-16
1.39093e-15
2.50655e-16
6.05937e-15
6.38153e-16
0.00106733
0.0298431
0.00246336
0.00188758
3.34637e-16
0.0170456
0.000184484
4.51874e-15
3.38172e-15
2.20377e-08
0.0347171
0.00682751
0.000514896
0.000734105
0.00447426
0.000220411
3.12665e-15
0.004891
5.34824e-16
1.11517e-14
4.16143e-16
9.10786e-17
4.63343e-05
4.644e-05
0.00104369
0.00860085
0.100999
0.000240552
6.62244e-15
6.73637e-06
6.51904e-16
0.00834984
0.00240892
3.64703e-16
1.51077e-15
0.00319942
1.6142e-15
0.0101129
0.0734385
0.0452767
0.000172843
0.000490862
6.38638e-16
7.59535e-15
4.1276e-16
0.00392554
0.000451622
0.000756502
0.0142467
0.00194876
6.14461e-08
2.31979e-05
0.000435489
0.0298397
3.07856e-16
1.86269e-18
0.011001
6.02986e-06
0.00116491
0.00460285
2.0242e-09
5.65517e-16
5.24854e-16
3.93758e-15
0.0227118
3.5171e-16
7.01523e-16
1.00044e-15
0.00513972
9.22842e-16
0.0006976
7.23887e-16
0.0012906
0.00964227
6.84343e-14
0.0285787
9.91618e-17
6.51752e-16
0.00236377
3.54019e-07
1.7867e-15
0.0034547
0.00119327
7.7314e-16
2.95701e-15
0.00180701
1.06008e-16
3.82898e-16
6.72734e-05
0.00332877
3.09548e-16
0.299821
1.22657e-15
0.000934619
3.51068e-16
2.98985e-05
9.52666e-05
1.47395e-05
0.00371297
4.27895e-05
0.000575298
7.00168e-05
0.000883862
0.0139796
0.00279126
0.111943
0.000853807
0.010176
0.0102916
0.0124165
8.16343e-08
2.82697e-15
3.2272e-15
2.38189e-15
3.05514e-16
7.26843e-18
0.000245664
0.0116236
1.32337e-16
3.75812e-17
0.00376728
3.17921e-15
9.10063e-16
0.014887
5.31106e-16
4.8399e-17
0.0018982
6.70319e-17
1.78413e-16
0.000826497
1.71721e-16
0.0242152
0.0133568
0.0101746
0.00192688
8.65889e-11
0.00158456
1.1275e-15
4.24137e-08
1.41139e-15
1.86153e-18
1.18165e-15
0.0110523
0.00692357
2.78265e-15
4.14506e-15
1.65542e-15
0.000259369
1.63796e-06
6.74112e-09
0.00411695
4.401e-15
8.71423e-16
3.23601e-16
4.37362e-16
0.00276459
1.12731e-06
2.66102e-11
0.00227231
6.87821e-16
5.12679e-16
9.54861e-16
8.84424e-18
0.0533759
0.000489864
0.000498645
2.09623e-15
3.88224e-16
0.00220933
1.26726e-15
0.00344351
3.83108e-05
1.32749e-18
8.63926e-20
2.76636e-05
0.0194699
0.00321308
0.0241622
0.00158755
0.0511543
1.06526e-15
3.49888e-16
1.54269e-16
2.58343e-18
0.000887324
6.00697e-16
5.93678e-16
0.000103439
6.52626e-16
0.0193148
9.17979e-16
0.00232797
0.00585342
7.22682e-05
0.0108641
0.00359599
5.1783e-05
0.000820107
0.00318364
0.0296715
0.000331177
3.42753e-17
0.0633815
0.00890497
0.00652311
8.86256e-14
0.062443
0.000271218
0.0151967
6.65653e-16
0.0172197
2.24798e-15
0.000125192
2.03542e-16
6.20658e-16
4.49279e-16
0.0403751
0.0145163
0.014582
5.26909e-16
0.00231678
2.12295e-16
4.45285e-16
0.000940163
3.76417e-16
2.21625e-16
2.28792e-15
1.07507e-15
1.77071e-16
3.24946e-14
0.036356
0.00307715
6.43358e-05
1.70876e-15
1.83799e-15
0.00168964
4.46095e-07
0.00079894
0.000587331
6.17787e-13
0.014081
4.40228e-17
4.75173e-13
0.000753562
0.00171745
0.000132455
2.96324e-16
2.64331e-09
5.19288e-09
5.36314e-16
7.32615e-15
1.68927e-13
0.000673061
1.58093e-15
9.52813e-07
0.0167107
1.15676e-15
0.000573816
1.31767e-15
5.54204e-05
0.000128115
0.00695551
0.00289014
0.000593863
2.44677e-15
3.4478e-16
9.31889e-16
0.00433427
4.31728e-16
0.00749997
1.08591e-15
3.32927e-13
0.00187094
0.0957197
4.19596e-16
9.59191e-16
8.37566e-16
5.06447e-16
2.1412e-13
8.54482e-15
1.21434e-16
2.51002e-16
0.00136916
0.0037105
0.000580555
7.33083e-05
9.87147e-15
8.39806e-16
0.00950602
1.25018e-06
1.31845e-15
5.54304e-15
1.3332e-14
8.96539e-16
4.46045e-16
5.38771e-15
5.58653e-16
8.87732e-15
3.70536e-16
7.40429e-13
1.76779e-17
8.21434e-16
0.120239
7.14547e-06
0.00062294
5.26558e-16
4.96094e-16
0.0117816
2.85577e-15
0.00273619
4.08935e-15
7.19428e-16
0.000520339
1.85741e-05
3.56988e-16
1.71326e-06
1.15674e-16
3.03702e-15
4.69736e-16
0.0184967
0.000601627
1.73704e-15
0.000698605
0.00134967
2.07415e-15
1.19458e-16
0.00267497
1.47308e-14
4.50649e-17
2.27277e-15
3.5057e-07
1.80005e-15
0.0124764
1.08162e-16
8.62678e-15
2.88063e-15
2.00024e-16
0.0848359
0.000842089
0.000685817
2.74347e-18
5.11675e-18
0.000207963
3.30057e-15
0.0267272
0.00856992
4.61717e-16
3.30672e-15
0.0381248
0.0398584
9.48089e-18
0.0179848
0.000998296
4.10494e-11
4.06942e-16
7.48896e-17
6.73916e-18
4.83038e-15
4.55462e-16
0.00430089
1.66076e-14
0.000162312
0.000108464
5.68788e-05
0.00602289
1.46192e-16
3.91529e-05
3.0001e-14
2.49969e-18
0.000195503
4.48091e-18
9.0152e-16
1.00066
0.000200623
0.0194099
0.00306401
1.62302e-14
2.47693e-17
0.0154321
0.00187372
1.12431e-14
4.15539e-05
0.00331453
1.53919e-15
6.93427e-15
1.06e-16
8.13133e-15
0.00222051
2.83723e-15
0.000468053
2.24663e-15
2.14972e-16
9.71318e-16
0.0196178
0.00282208
1.04836e-15
2.29924e-17
0.00354604
5.45826e-14
9.36144e-16
0.000251103
0.00931644
0.0126523
0.0041007
0.000757266
2.2673e-16
0.00259436
0.00190404
0.00204031
0.000461384
7.08492e-16
3.21468e-18
0.003667
0.00169197
0.000124431
0.000106191
0.00075181
0.00157715
4.68203e-17
3.45418e-17
0.0226923
4.49438e-15
3.99512e-16
0.000315494
0.00330067
0.00986592
3.55876e-07
1.04776e-15
0.00559321
7.27999e-17
1.91702e-16
8.46889e-16
3.13623e-15
6.1455e-15
2.78717e-15
0.00360829
0.0130025
4.79663e-19
0.00604006
0.0015889
0.150904
0.000167339
0.00140641
7.10359e-16
0.00908824
9.16837e-17
8.49534e-05
5.56056e-16
0.0198127
3.47165e-15
2.2349e-12
0.000683196
3.1016e-12
0.00675488
6.46841e-05
0.00220739
0.0168485
0.00688959
2.8451e-15
1.19412e-15
0.0123063
1.17434e-15
5.54962e-15
0.0018871
1.98845e-08
3.46896e-05
2.40495e-17
2.91541e-16
0.00466809
0.00327027
6.56644e-05
4.35394e-16
0.000257403
0.00189144
2.13794e-18
0.000345531
1.37869e-16
7.27465e-08
0.0151363
0.00286447
0.0015602
0.00331662
0.000492725
0.0314147
0.00132077
0.00744774
2.25933e-16
9.57097e-16
0.000231937
3.0812e-16
6.30979e-07
8.38397e-16
2.46497e-19
0.00119348
2.06092e-16
0.0374656
3.76472e-08
0.00782663
5.22892e-05
0.00746345
0.000335874
0.0149195
0.0174332
0.00140277
0.00972031
1.06072e-05
9.36014e-16
9.3206e-07
0.000601943
2.99097e-15
3.23701e-08
1.02919e-16
1.15895e-15
0.000101383
0.00258022
2.17359e-16
5.83188e-16
2.27475e-15
4.95836e-17
0.0266287
0.000944364
4.93917e-16
1.1798e-16
6.80898e-16
4.72764e-15
0.00122702
7.12651e-16
1.49553e-15
1.91353e-16
0.00159884
0.00312923
6.3754e-15
0.0157017
0.0132414
1.26818e-16
9.49234e-17
4.76921e-06
3.91623e-17
0.00028741
0.00166395
0.000452441
4.61597e-17
0.00102782
1.53617e-15
0.00530555
4.52255e-17
0.00115907
0.000542002
0.00837933
0.00527176
0.00876174
8.67067e-15
0.0540107
0.021981
0.0972062
2.08068e-05
0.000146183
1.06691e-15
0.000287648
3.95494e-05
0.0100217
0.0299955
0.024685
1.05519e-15
1.06122e-15
0.00773993
0.000108509
0.0175036
0.301756
0.0177833
8.4495e-07
3.42927e-08
0.0159687
0.00158613
9.48626e-16
7.79916e-05
0.162118
1.36696
6.42401e-17
2.65595e-16
6.07057e-16
0.00340495
5.79017e-05
0.00168412
0.00170807
0.000369772
0.000555945
0.00138304
2.35538e-16
1.02446e-14
5.24042e-15
7.36713e-16
6.03949e-05
3.87202e-17
5.58349e-16
4.02364e-16
0.00321428
0.0108613
0.00402891
6.46115e-16
8.2263e-16
3.04687e-05
3.35332e-15
1.97911e-16
1.05676e-15
0.00866017
9.58414e-18
0.0311782
5.64011e-17
0.0485354
0.0149758
0.000246595
0.00215521
0.000724142
0.00236473
7.87913e-16
0.00131
0.0836618
3.06433e-16
1.20882e-18