/*--------------------------------*- C++ -*----------------------------------*\
  =========                 |
  \\      /  F ield         | OpenFOAM: The Open Source CFD Toolbox
   \\    /   O peration     | Website:  https://openfoam.org
    \\  /    A nd           | Version:  10
     \\/     M anipulation  |
\*---------------------------------------------------------------------------*/
FoamFile
{
    format      ascii;
    class       surfaceScalarField;
    location    "74";
    object      phi;
}
// * * * * * * * * * * * * * * * * * * * * * * * * * * * * * * * * * * * * * //

dimensions      [0 3 -1 0 0 0 0];

internalField   nonuniform List<scalar> 
109758
(
-3.22599e-06
0.00121987
-0.00121665
-0.00125268
0.00128852
-3.58417e-05
0.00010411
-0.00114987
0.00104576
-0.00144005
8.78675e-05
0.00135218
0.00146236
-0.000168366
-0.00125785
-3.61465e-05
-0.000405293
0.000396326
8.96722e-06
-0.00110845
-6.46916e-06
0.00111492
0.00202379
-0.000255893
-0.00038487
-0.00138302
-2.37269e-05
0.000849311
1.44664e-05
-0.00084005
0.000466446
-7.22024e-05
0.000596521
-0.000990764
-3.9424e-06
0.000586479
-0.000582536
0.00187435
-0.00152687
-0.00143886
0.00109139
0.000320907
0.00125913
-0.0014378
-0.000142234
0.00118863
-0.00121937
3.07326e-05
-0.000974046
0.00110817
0.00132823
0.000691349
-0.000946137
-0.000684527
0.000939315
0.000819588
-0.00157363
0.00140327
-0.00064923
0.00148429
0.00024236
-0.00110138
-0.000625267
0.00150006
0.00022795
-0.00121147
-0.000516545
-0.00144002
0.000171261
-0.000108857
0.00137762
0.000215448
-0.000290314
7.48659e-05
-2.63336e-05
-0.00119645
0.000285606
0.00093718
-0.000275542
0.000847399
-0.000571857
0.000251248
-0.000301532
0.00102946
0.00116207
0.000420133
-0.00040528
-0.00117693
1.77049e-05
0.000563457
0.000903124
0.0012414
0.00151639
-0.00194186
-0.00081593
-0.00109124
0.00108147
9.76881e-06
3.42821e-05
0.00112779
0.00149197
-0.00102647
0.000795218
-0.00126071
-0.001461
0.00152968
-8.42929e-05
1.56114e-05
-4.98617e-05
0.000604445
-0.000554583
-1.44546e-05
0.00089869
-3.48316e-05
-0.000849404
-0.000827296
0.000824199
3.09729e-06
-0.000123801
-0.00131754
0.00110489
0.000336442
-0.00115981
0.00212098
-0.000718805
0.000577772
0.000170312
-0.000748084
0.000198056
0.00103981
-0.00147418
0.000236307
-0.000252273
-0.00111668
8.16468e-06
0.00136078
0.00114049
5.04321e-06
-0.00114553
0.00167384
-0.0011025
0.000734914
-0.00130626
-0.000392233
-0.000504919
0.000676484
0.000220668
-3.41803e-05
3.33402e-05
0.00167468
-0.00144721
0.00142462
1.32369e-05
9.3506e-06
0.000796994
-0.00079802
1.02529e-06
0.000330593
-0.00214986
-0.000329106
0.00214837
0.000997929
-0.000282625
-0.000251216
-0.000464088
-0.00111256
0.00138817
-0.000195414
-8.01929e-05
1.65523e-05
0.00102434
-0.00104089
-0.00224761
0.000142317
0.000187786
0.00191751
0.00107967
-0.00052235
0.000520004
-0.00107733
0.000398918
0.000616716
1.43343e-05
0.00140048
-0.00141482
-0.00105837
0.0010619
-3.53152e-06
-0.00121995
0.00125423
-0.000329721
-0.00175406
-0.000430748
0.00251453
-0.00228278
0.00318357
-0.000667399
-0.000233389
-0.00111407
0.000982959
0.00117051
-0.0010394
-0.00180371
0.000708469
-5.92533e-05
0.0011545
-0.000718837
0.000263789
0.000645906
-0.000190858
-0.00149365
0.00142215
7.14967e-05
-0.00323414
0.00018956
0.00163168
0.00141291
-0.000314088
0.00130139
-0.00124953
0.000262226
0.00156926
0.00151344
-0.00189093
-0.00113788
0.00151537
-0.00190102
0.000921704
0.000514714
0.000464605
0.00139261
-0.00153986
-0.000857905
0.00100516
-0.00147634
9.85669e-05
0.000349153
0.00102862
-0.00112267
-0.000798869
0.000445199
0.00107497
-7.64973e-05
-9.37214e-05
-0.000904747
0.00100529
-0.000590126
0.000372705
-0.000787864
0.00141975
5.18777e-05
0.000602367
-0.00207399
-0.000520354
0.000192061
0.000328293
-0.00211842
0.00134998
0.00158115
-0.000812706
0.000803011
-0.000759557
-4.34531e-05
-0.000628506
0.000202266
-0.00169218
0.000106497
-0.000881221
-0.000283649
-0.00027051
5.60319e-05
-0.000860693
0.00107517
0.00174248
-0.00158309
-0.000333491
0.000174105
-0.00170474
0.00153669
-0.0010519
0.00119812
-0.000810853
-0.00100332
0.000616054
-0.000650737
0.00269959
-0.00135003
-0.000698823
-0.000152306
8.22891e-05
0.00152946
-0.00145944
3.64018e-05
0.00216824
0.000227607
-0.00243224
0.000866665
-0.00157273
-0.000133045
0.000839106
0.00123807
-0.000233156
-0.000898417
0.000128787
0.000991266
-0.00135852
0.000238468
0.000543351
0.0020482
0.000129527
-0.00272108
0.000961839
-0.00113386
0.000180231
-8.21413e-06
0.000655156
0.00073547
-0.00276354
0.00137291
0.000933329
-0.000103676
6.16137e-05
-0.000891267
0.00199178
-0.00149348
-0.00296906
0.00247077
0.00169075
-0.00190363
0.000844371
-0.000631501
2.06016e-05
-0.00159272
0.00146394
0.000108171
0.0016464
-0.00115281
-0.0003631
-0.00013049
0.000889514
2.08692e-05
-0.000910384
-0.00170031
0.000293871
0.00118728
0.000219159
0.00111499
0.000743631
0.000571252
-0.00242988
0.00091882
-0.00165729
0.00114788
0.00249095
-0.00144435
-0.00219448
0.000917344
1.47623e-06
-0.00036739
0.00119347
0.00119909
-0.00202517
0.00105162
0.000300471
-0.000149041
-0.00120305
8.14388e-05
0.000922148
-0.00100359
0.00141394
-0.000116762
5.53058e-05
-0.00135249
-0.000577881
-1.89257e-06
0.000579774
-0.00132411
0.00102149
-0.000798761
-0.000237703
0.00179639
-0.00188908
0.000330385
0.000431875
-0.000362746
-0.00145276
0.00138363
0.000287591
-0.000293291
-0.000681618
0.000687318
-0.000368704
-0.000989331
0.00123682
0.000121215
0.000447833
-0.00121932
0.00126876
-0.000497276
0.000927779
0.000283437
-9.27795e-06
-0.00054947
-9.87637e-05
0.000657512
0.000179578
0.000352956
-0.00203725
0.00150471
-0.00131194
0.00016644
0.00134822
-0.000202721
0.000973616
0.000158179
9.9039e-05
-0.00123083
0.000205011
0.000768605
0.00143164
0.000288441
-0.0015619
-0.000766626
-0.000873115
0.00130306
0.000336679
0.00135803
0.000183634
0.000199572
-0.00174123
-0.00146801
0.00125522
-0.000411806
0.000624598
0.00134626
0.000290392
-0.00104608
0.00117847
-0.00108772
0.000955327
0.00146318
-0.000211199
-0.000286435
-0.000965547
4.01836e-05
-0.00160662
0.00174203
-0.000175598
-0.00152931
-3.75866e-05
-0.000422845
0.00198974
0.000938753
0.000505941
-0.00148564
4.09412e-05
-0.00101895
9.45154e-05
0.000894847
2.95874e-05
0.000184212
5.68999e-05
-0.00188305
0.00164194
-0.000930534
-6.18215e-06
0.000936716
0.000193161
0.0013321
-0.00134105
-0.00106141
0.00142123
-0.000773871
0.00041405
-0.00121267
-0.000777821
0.00157855
0.000411938
0.00127431
0.000244379
-0.000722733
-0.00079596
-0.0020102
-2.81215e-05
-0.00028298
0.0023213
-0.00129462
-0.0007776
0.000565875
0.00150635
0.00177655
-0.00174078
-0.000112076
7.63046e-05
-0.000263762
-0.000789093
-0.000701209
0.00146083
0.00108165
0.000271134
-0.00281361
0.00211354
0.000267155
-0.00234429
0.000214729
0.00110498
-0.00131971
3.51866e-05
-0.00108864
0.00105345
-0.00103479
-0.000214742
0.000197578
0.00105196
9.2185e-05
0.00134678
-0.00128485
-0.000154113
-0.00221981
-0.000254855
0.000576584
0.00189808
0.00122521
-0.00129639
0.00110861
-0.00103743
0.000159162
0.000143143
0.000922907
-0.000874114
0.000847538
2.65762e-05
-0.000919552
3.02077e-05
0.0013331
-0.000443753
0.000264438
-0.00067226
-0.000492698
0.00090052
0.000674458
-0.000702072
2.76139e-05
-0.000961831
0.000910028
-0.000218706
-5.08454e-05
-0.00101117
-1.05856e-05
0.0010726
0.00171104
-0.000192142
-0.0010859
-0.00043299
-0.000408186
-0.00186734
0.00250693
-0.000231407
-0.00162342
0.000562168
-0.00135661
0.00151467
-0.000158062
-0.000731699
0.000659204
-0.00102719
0.00109969
0.000547793
-0.000670689
-0.000497658
0.000620554
-0.000920507
-0.00126231
0.00100159
0.00118123
5.03212e-05
0.00141133
-0.000139964
-0.00132169
-0.000358597
0.00170981
-0.000286488
-0.00106472
-0.00159259
0.0013467
-9.64812e-05
0.000342371
-0.00117011
0.000933289
-0.00100757
0.00124439
0.00121558
6.56541e-06
-0.00122214
-0.00180189
0.000389468
0.00176157
-0.000345423
0.00142169
-0.00107627
8.78036e-05
0.00143509
-0.0015229
0.000197942
0.00123675
-0.00189564
0.000460948
-0.000951444
-0.000989264
0.00106179
0.000878916
0.000693995
-0.000199856
0.000511146
-0.00142031
0.00148347
-3.80763e-05
-2.50811e-05
-0.00141785
1.42559e-05
-1.67167e-05
0.000751954
-0.000451011
0.00184997
-0.00215092
-6.86152e-05
0.00180466
-0.00173604
-0.00118324
0.000849672
-6.58633e-06
0.000340155
-0.000902669
-0.00109793
0.0020006
-0.000674701
-0.0002533
0.000928001
0.00100465
1.26382e-05
-0.00101728
-0.00159628
-2.571e-05
0.00131308
0.000308903
-0.000461735
0.000638668
0.000839079
-0.00101601
-0.0017677
0.000484154
0.000821816
0.00172074
-0.00271127
0.000575302
0.000415231
-0.00144928
0.00146267
-3.97194e-05
2.63255e-05
0.00193039
-0.00192978
-1.53195e-05
1.47062e-05
-0.00109047
1.53627e-05
0.00026896
0.000806149
7.65518e-05
-0.00113685
0.0010603
-0.00123426
-0.00175227
0.00118841
0.00179812
0.000148967
0.00161165
-0.000746219
-0.0010144
2.03114e-05
-0.00155706
-2.33026e-05
0.00156005
0.000256088
0.00139847
0.000329891
-0.00198445
0.000203733
0.00139801
-0.00147293
-0.000128812
-7.47255e-05
-0.00109358
0.00137204
-0.000894747
-0.000757661
0.000384937
0.00126747
0.000841602
4.83144e-05
-0.000889916
0.00135883
0.00130381
-0.00157456
-0.00108808
1.71173e-05
-0.00108201
0.00106489
0.00030272
0.000132534
5.92652e-05
-0.000494519
-0.00142046
-2.28123e-05
0.000469963
0.000973304
-0.00104625
-0.000536678
0.00158293
0.000845667
-0.00111034
0.000393825
-0.000129147
-0.00146892
0.000185124
0.00134016
-5.63645e-05
-0.00147998
0.00179845
-0.0014129
0.00109443
-5.9335e-06
-0.000888814
-0.00114273
0.00111069
3.20402e-05
-0.00147877
-0.000770767
0.000146084
0.00210346
-0.000136589
0.00130041
-0.00116382
0.00103752
-0.0008158
-0.000221719
0.000925051
-0.000930984
-0.00111197
-1.8027e-07
0.00111215
0.000508603
0.00138602
-1.33923e-05
-0.00188123
-0.00113547
0.00017297
0.000962501
-0.0012633
-0.000444592
0.00131581
0.000392086
-0.00190958
0.000262472
0.00186421
-0.000217107
0.000944198
-0.000916798
-2.74003e-05
-0.000726216
-0.0010191
0.00390905
-0.00216374
-0.00148232
0.000543017
-0.000373406
0.00131271
-0.000750872
-0.000179466
-0.00117521
0.00210555
-4.24206e-06
2.67243e-06
0.00130695
-0.00130538
0.000708242
-0.00209652
0.00285866
-0.00147039
-0.00121628
0.00121204
0.00155709
0.00040107
-0.00190737
-5.07939e-05
0.00108536
0.000148435
-0.00136329
0.00012949
0.000950323
0.000445361
-0.00159415
0.000198469
0.000903692
0.000181669
-0.000541818
0.00169139
-8.924e-05
-0.00106033
0.000326676
-0.00148648
0.00190082
-0.000741018
-0.00167239
0.000121655
-5.12976e-07
0.00155125
0.000969649
0.00374475
-0.000593598
-0.0041208
0.000450124
0.000343073
-0.000596687
-0.000196509
0.00031017
0.00112357
-0.000508285
-0.000925459
-0.000905588
0.000884278
-0.000520508
-5.07705e-06
0.00169149
4.97792e-06
0.0013353
-0.00135023
0.000213991
-0.00019906
0.000316213
-0.000105709
0.000806884
-0.00101739
-0.00130104
0.00126667
0.000182804
0.000392565
-0.000768656
-0.000879949
0.00125604
0.00054199
0.00150815
-0.00150679
0.00112911
-0.00147853
0.000199703
0.000149712
0.00111297
2.06722e-07
-0.00111318
0.0024281
-0.00249731
0.00202062
-0.00195141
0.000370287
-0.000955424
-0.000476597
0.00106173
0.000384902
0.000204411
-0.00163412
0.000974065
-0.000580742
0.0012408
-0.00200267
0.000452171
0.00168509
-0.000134596
-0.0015626
-0.000862064
0.00313291
-0.000157034
0.00191683
-0.00063334
-0.00112646
0.000924592
-0.000466558
0.00171247
-0.0021705
0.000184424
-0.000870257
0.000741008
-5.51755e-05
-0.000382714
-0.00125563
0.00144249
0.00019585
0.00108113
-0.000611878
-0.000439652
-2.9597e-05
0.000548064
0.000229698
0.000290575
-0.00106834
-0.000776213
0.000995613
-0.000219401
0.000889416
-0.000828524
0.000123532
3.05211e-05
-0.00135782
0.0013273
0.00104324
-0.00121554
-0.000210413
0.000264644
0.00118146
-0.000265073
-0.00118103
-3.99827e-06
-0.000963846
0.000967845
0.000524869
0.00161287
-0.000883497
-0.00125424
-8.99759e-05
-0.000628452
-0.000429105
0.00114753
-0.000294714
-0.00162196
1.07836e-05
0.00190589
-0.00102994
0.000416981
0.00125933
-0.000646367
7.62159e-05
0.000967026
-0.000857691
0.000933907
0.000926189
0.000247588
9.98299e-05
-0.00127361
-0.000489269
0.00218877
-0.000142404
-8.91126e-05
-0.000621712
0.000566733
0.000144092
-0.000206149
0.0024352
-0.000115513
0.00197589
-0.00102621
-0.00042481
0.00225369
-0.000275404
-0.00120922
0.0018074
-0.000322773
-0.00228003
0.00191502
0.000937225
-0.000572216
5.77208e-05
0.00104784
0.00087033
-0.00100407
-0.00131893
0.00139246
-0.000716495
-0.000988294
0.0019098
-0.000205008
0.00074036
0.000843268
-0.00158363
2.6205e-05
0.000168855
0.00222426
-0.00241932
-0.00117467
0.000993022
0.00144018
-0.00125854
0.00135764
-0.00214586
0.00172481
-0.000936598
0.000449863
-2.28563e-05
-0.000427006
-0.000923923
-0.000517183
0.000171923
0.00126918
-0.000473726
-0.000679156
8.94519e-05
0.00117078
-0.000969128
-0.000291103
0.000984387
-0.00102508
4.06943e-05
0.00010957
-0.0013064
0.00137849
-0.000181658
0.00114615
-0.00282831
0.00139764
0.000284522
0.00065527
-0.000874273
0.000219002
0.000867482
-0.000110665
-0.000859747
0.00010293
-0.000174068
-0.00286967
0.00259052
0.000453214
-0.00113317
0.000194993
0.00132098
-0.000382803
-0.0011863
3.82118e-05
0.00114809
0.00118295
0.000200053
0.000785233
-0.000590189
-4.90274e-05
0.00152863
0.000102792
-0.00168153
0.00140467
-6.40179e-05
0.00116673
-0.00110271
-0.00081696
0.000505885
0.00135507
-0.001044
-0.000186001
0.0015527
-4.38761e-05
-0.00132282
-0.000187232
0.00144232
-0.000975395
-0.000279692
-0.00100248
-2.22554e-05
0.00118143
-0.000156695
0.000832424
-0.0017401
0.000949971
-4.22946e-05
-0.000891563
0.000696983
-0.000716478
0.000911057
0.000863737
3.41366e-05
-0.000100879
0.000132398
-0.00125903
-0.000303374
0.00143001
-0.000258132
-0.00138332
0.000618345
0.00102311
0.000493546
-2.11435e-05
0.00113423
0.000275144
-0.00138823
0.000581748
-0.000410106
0.00117227
-0.00134392
-0.000751398
0.000930911
0.00124242
-0.00142193
0.00203439
0.0005107
-0.00205154
1.47388e-07
-0.00121047
0.00121032
7.49077e-06
-0.00122642
0.00127537
-5.64414e-05
2.39218e-05
0.00131072
-0.00117889
-0.000155749
0.000394341
-0.00198937
-6.49566e-05
0.00165999
-0.00110095
0.00132102
-0.000220061
0.000202258
-9.2422e-05
0.0013259
-0.00143574
-0.00102586
0.000227836
-0.000709005
0.00107355
-0.00143077
0.00106622
-0.000327225
-8.10704e-05
0.000408295
0.00324053
-0.00158162
-0.000703459
-0.000955453
0.00130479
0.00334327
-0.00140753
0.00216259
-0.00199884
0.000188991
0.00110084
-0.000852273
0.00121914
-0.000386522
1.96508e-05
-0.000258678
5.1408e-05
0.00178842
-0.0012511
0.000471009
0.000960748
-0.00018066
-0.00105227
0.00174107
0.000130784
0.00122123
-0.00139806
0.000708613
-0.000531782
0.000181392
0.00245659
-0.00243573
0.000735106
6.38188e-07
-0.000735744
-4.25396e-07
-0.00095669
0.000957115
0.00170507
0.000137882
-0.0003816
-0.00146135
0.00221039
-0.000712144
-0.000935468
-0.000562782
-0.000139679
-0.00280313
0.000846291
-8.61262e-06
-0.000679286
0.000687899
0.00147048
-0.00134926
-0.00133356
0.00121234
0.00106481
0.000444019
-0.00125275
0.000864081
-0.000532503
-0.00131813
0.00098655
-0.00104284
-9.44296e-06
-0.000803472
0.00185576
-0.00159307
-6.79843e-06
0.00159987
0.000993011
9.37519e-05
-0.00105662
-3.01409e-05
-0.00127232
-2.08267e-05
0.00129315
6.42942e-05
0.00107032
-0.00113462
-0.000782622
0.00173422
-0.000125973
-0.000825624
-0.00187855
0.00226246
0.0014271
-0.00181101
0.000901207
0.00076938
-0.000208431
0.00133807
-0.000865004
-0.000264632
-0.000229728
-7.78863e-05
-0.00115527
0.00146289
0.00130449
-0.00114735
0.000912638
-0.00106978
-0.00123774
0.00128821
-5.04714e-05
-0.00151433
0.000253323
0.00130057
-3.95637e-05
-0.002643
0.000528609
0.00201077
0.000103627
0.000260589
-0.000334553
-0.0013087
0.00138266
0.00190152
0.000181185
-0.00109222
-0.000990483
0.00103456
-0.000786382
-0.00104196
0.000793781
0.00119108
1.19052e-05
-0.00120299
0.000110183
-0.00202597
0.00148222
0.000433564
0.000752766
0.000448907
-0.000300465
0.000273719
-0.000881889
0.00128583
-0.00067766
-0.000545327
0.000529507
-0.000121954
0.000137774
-0.00362618
0.00437318
0.00141028
-0.00215729
0.00181965
-1.18436e-05
-0.00181886
1.10478e-05
9.17022e-06
0.00146347
-0.00157287
0.000100227
-0.00219281
0.00192113
-0.000510933
0.000974382
0.00121973
-0.00110389
-0.00109022
-0.000967717
-6.94973e-05
-0.000105247
0.00114246
0.00101053
5.27149e-05
-0.00106325
0.00128827
-7.1059e-05
-0.00121721
-0.00227759
0.00214628
8.45018e-05
4.68119e-05
7.05758e-05
0.0014677
-7.19551e-05
-0.00146632
0.000909414
0.000458535
-0.00297751
0.00160956
-0.000630636
0.000630646
-9.97542e-09
0.000924177
2.11267e-06
-0.00092629
-4.62203e-07
-0.000556871
0.000557333
-0.000530752
0.0010803
0.000725894
-0.00127545
3.54191e-06
-0.00114345
0.000897097
0.000242808
-0.0012832
-0.000526046
-0.000468351
3.25757e-06
-0.000888552
-0.00013224
0.00101753
-0.000687378
1.28537e-05
0.000674525
0.000235017
0.000729253
-0.0002376
-0.00072667
0.00050284
-0.000895074
0.000392233
-0.000243041
-0.000833084
-0.000310436
0.00138656
0.000709488
0.000940639
0.000138599
-0.00178873
0.00185642
-0.000675185
-0.000601584
-0.000579654
-6.8071e-05
-0.00153316
0.0017869
-0.000185671
0.000736019
0.00038767
0.000212734
-0.00133642
0.0023203
0.00103339
-0.00217625
-0.00117744
-2.8418e-06
0.000587579
-0.000584738
-0.00137322
4.09721e-05
0.000317711
0.00101454
-0.00134583
-0.000149412
0.0015311
-3.58641e-05
0.000374547
-0.000468901
0.00191401
-0.000476423
0.000629235
-0.000152812
0.000937422
2.69483e-05
-0.000964371
0.00019447
0.000122401
-0.00123675
0.00091988
0.0013188
-0.000130073
-0.0012271
3.83684e-05
-0.00111339
-6.79639e-07
0.000237676
0.000321801
-0.00146098
0.000901508
-0.00135678
9.78386e-05
0.00125894
-5.32581e-05
-0.000949218
-0.000123767
0.00208953
0.000147245
-0.00211301
0.00111651
-0.00118253
6.6024e-05
-0.00119416
0.00118139
1.27777e-05
0.000959591
-0.00108336
0.000262536
0.000876309
0.0010891
-0.00222794
-0.00117262
-0.000640147
0.00181277
-9.07556e-06
0.00083622
-0.000827144
-1.9444e-05
-0.000909694
0.000929138
0.00111467
-0.00110764
-7.03451e-06
-0.0012353
4.73955e-05
0.00124199
-5.40777e-05
0.000302163
-0.00139088
0.00106239
0.000693684
0.000583287
-0.00233827
0.0010613
0.000721229
4.94811e-06
-0.000726177
4.73521e-05
0.00136519
-0.00141255
0.000672029
2.42885e-06
-0.00153956
0.00137048
0.0012989
-0.00112982
-0.000969634
0.000122984
0.00124336
-0.000396713
0.00169646
-0.00244432
0.000590934
0.000156923
-0.00218955
0.000487263
-0.00104599
0.00115606
-0.000110073
2.56371e-05
-0.00116005
0.00113442
-0.00100329
-1.97159e-05
0.00102301
-0.00117457
6.32974e-06
0.00116824
0.00112364
-0.00123201
0.00010837
1.4038e-05
0.00173449
-0.00174853
-0.000256878
-0.000234224
0.00124387
0.00123783
-0.00129279
-0.000883964
0.00093893
-0.000698676
0.000127293
0.00135656
-0.000785175
0.000667012
-0.00156856
-0.000101748
-7.29212e-05
0.00153349
-0.00146056
0.000454911
0.00042417
-0.000580049
-0.000299032
-0.000706412
0.00115821
-0.00139178
0.000939986
-0.00112419
-0.000426858
0.00155104
0.0022761
-0.00140327
-0.000872834
-0.000432104
0.00163506
0.00107133
-0.00227429
-0.0011865
0.00143899
-0.00143582
0.00118333
0.000508843
-0.000382352
-0.00058454
0.00045805
2.1252e-05
-1.36457e-05
-0.00127992
0.00127232
-0.000121041
-0.00180171
0.00192275
0.000404993
5.33197e-05
-0.00152678
0.00106846
-0.00150305
0.00116637
0.000336675
-0.000702811
-0.000351916
0.00101383
4.08978e-05
-0.000991041
0.000985983
5.05811e-06
0.000963444
-0.000814841
0.00120904
-1.03589e-05
-0.00157776
0.00158067
7.4491e-06
0.00304722
-0.000787984
-0.00152945
-0.000729786
-0.000471409
0.0016632
7.89311e-06
-0.00119969
-0.000550213
0.00081908
0.000457428
-0.000726294
-0.00132476
0.000778043
0.00137623
-0.000829507
0.000727336
-0.000868491
-0.000339355
0.00150739
3.977e-05
-0.00120781
0.000906333
-0.000999646
0.000103566
-0.00213751
2.41256e-05
-2.1132e-05
0.00213451
-0.00029719
-8.3834e-05
-0.000799616
0.00118064
-0.00108439
0.00139483
-0.00110855
0.000798111
-0.00247904
-0.000334651
0.00260754
-0.00160745
2.27466e-05
0.00160912
-2.44131e-05
0.00100649
0.000162801
-0.000678801
-0.000490494
-0.000317391
-0.00123373
0.000655493
0.000895627
0.00106764
-0.000418618
-0.00140721
0.000758181
-0.00138749
-0.000357636
-3.09551e-05
0.00177608
0.00111012
-0.000136198
-0.00101856
4.46344e-05
0.000940161
-0.000944064
3.90309e-06
-0.000745449
0.00242688
-0.00201611
0.000334677
0.000156325
0.00143144
-0.00230353
0.000715768
-0.000945324
-0.000307784
0.000993465
0.000259642
0.000330096
-0.000316895
-0.000958525
0.000822375
3.31691e-05
0.000161045
-0.00101659
-8.80321e-05
0.000615784
-0.00266526
-0.00138856
2.84985e-05
0.00178201
-0.000421946
-0.000995177
0.00116127
-0.000166097
0.000489794
-0.000459339
-0.000649101
0.000618646
-0.000700637
-0.00128678
0.000808946
0.00117847
-0.00057719
0.00179593
-0.000661471
-0.000557272
-0.00148021
1.02896e-05
-0.00129564
0.00161545
-3.90298e-05
3.44156e-05
-0.00128134
0.00128596
0.00123733
0.00132706
-0.00141033
-0.00115406
0.000982116
-0.00101301
3.08896e-05
0.00125367
-7.85553e-06
-0.00124582
0.00106974
-0.00124165
0.000351285
-0.000179378
-0.00031207
-0.00091514
0.00222068
-0.00164466
0.00141175
-0.000212793
0.000445704
0.000547125
-0.000744662
0.00176771
-0.00157018
-0.00157596
-0.00114997
0.00187371
0.000852221
-8.45329e-05
-0.00173661
0.000176485
0.000274845
-0.00144882
-1.18775e-05
0.00118586
0.001335
0.000351589
0.00180881
-0.00158399
-0.000594401
0.000369579
-0.00133912
0.00132917
0.00108383
-0.00107388
0.00101485
0.000503103
-0.00115201
-0.000365939
0.000508295
-0.00111714
0.000928029
-0.000319183
0.00139175
-0.00114096
-0.00181295
0.00156215
0.00145934
-0.00162443
8.05498e-05
-0.000901069
0.00090503
-3.96073e-06
0.000112622
-0.000102104
0.00151071
-0.00180488
0.00170268
-0.00140851
0.00111973
-0.00100711
0.00113739
-0.00122988
-3.75983e-05
0.000130093
-2.44462e-05
-0.000519487
0.000543933
-0.000123572
-0.00103693
0.00124388
-8.33742e-05
0.00191016
-0.00171912
0.000135747
-0.000326791
0.000204326
-0.00226693
0.000184058
0.00169606
-0.001736
-0.000187504
0.000227444
0.000371553
0.000279054
0.000461248
-0.00111185
-0.000100995
0.000948668
0.00092388
-0.00177155
-8.04585e-05
-0.00117136
-0.000325274
0.00157709
-0.000570275
0.00170887
-0.000464644
-0.000673946
-0.00106834
0.000453084
0.001685
0.00104573
-0.00211857
0.000232242
0.0008406
-0.00030533
7.13924e-05
0.00193
0.000313039
0.00142702
-0.000488577
-0.00125149
-5.18895e-05
5.42395e-05
-0.00123891
0.00123656
0.00185861
0.00010445
-1.30837e-05
-0.00194998
0.00103638
0.000454099
-0.000412051
-0.00107843
-0.00112278
-0.000479898
0.000534341
9.19302e-05
0.000648198
-0.000657842
-8.22867e-05
0.000189502
1.63509e-05
-0.0014475
0.00100858
-0.000527318
-0.000136939
-0.000344323
0.000148166
0.000701588
-9.8124e-05
-0.00075163
-0.00112205
0.000962847
0.00120493
0.000743295
-0.00323127
0.000629977
0.001858
0.000176843
-2.97988e-05
3.30004e-05
0.00127207
-0.00127528
0.00220461
-0.000708035
-0.000732167
-0.000764411
-0.001076
1.37254e-05
0.00147781
-0.000415537
-0.000136301
-0.00103832
0.00125231
-7.76835e-05
0.001043
-0.00142211
-0.000694693
0.0010738
-0.000986766
0.000958601
2.81643e-05
-2.94962e-05
0.000952358
-0.000922862
-0.000466133
-0.00109054
-0.000402455
0.00195913
-0.000809932
0.000907313
-9.73809e-05
-0.000152964
-0.00132768
-0.0003346
0.00181524
-0.0023432
0.00086387
-0.00127881
0.00275815
-0.0016039
3.71447e-05
0.00156675
0.000757878
0.000839144
-0.000810991
-0.000786031
0.000976152
-0.00055923
-0.000184669
-0.000232254
0.00130381
2.84603e-05
-0.00133227
0.00124571
-0.00372525
0.000136338
0.000845565
-3.13727e-05
-0.000814192
-0.0014444
-0.000573062
0.00194084
7.66146e-05
-0.000876888
0.00452867
-0.00277259
-0.00087919
-0.00263805
0.00317648
-0.000465197
-7.32293e-05
0.00157637
-0.000908927
0.00219122
-0.000771853
-0.00168097
0.00248292
-3.00923e-05
-4.85403e-06
-0.000121767
-0.000680357
0.000806978
0.00148777
0.00190697
-0.00216842
-0.00122633
-0.00152897
0.00180788
0.000495915
-0.000774819
0.00169577
-0.000310942
-0.000663188
-0.000721635
0.000144999
-0.00108539
-0.000188519
0.00112891
-0.00322221
9.97352e-05
0.00164919
0.00147329
-0.000591303
0.00225044
-0.000872472
-0.000786669
0.000382036
-0.00093751
0.0017866
-0.00123113
-0.000193152
-0.000553023
0.00104584
-0.000299667
-0.000918775
0.000977619
-6.24412e-05
3.59788e-06
0.00160063
-0.00180676
-8.66778e-05
0.000292812
-4.87301e-05
-0.0015958
0.0016084
3.61234e-05
0.000130406
-0.000116277
-0.00152643
0.0015123
0.00220871
-0.000362554
9.40527e-05
-0.00194021
-0.00145324
-0.000305387
0.000372919
0.00138571
0.000491617
-0.000491627
1.04012e-08
0.00108931
-0.000741139
0.000726795
0.000226327
0.0020868
-0.00012477
-0.00218835
-0.000333053
0.000223584
0.000278366
-0.000168897
-0.00162885
-0.00202537
0.002928
-0.00115807
0.00132611
0.00126298
-0.00143103
-6.49221e-05
0.00129235
-0.00163004
0.000402604
-0.00123955
-0.00129808
-8.2359e-05
-0.000334372
0.00171481
-7.02341e-06
-0.000660541
0.000667564
-7.59795e-06
-0.000952222
0.00221978
-0.00125996
0.00065056
0.000916145
0.00163392
-0.000818207
7.67105e-05
-0.000892426
0.000717861
-0.000199439
-0.00119857
0.000680145
0.000901557
4.29151e-05
-0.00137383
0.000429359
-0.000648996
0.000537516
0.00203442
-0.00192294
0.00174325
0.00124582
0.000163173
-0.00315224
-0.00155846
-9.83741e-05
0.000315743
0.00134109
-0.00130656
0.00139167
-8.51088e-05
-9.11244e-05
0.000865386
-0.000129782
-0.00064448
-0.00026796
0.000551179
-0.00028322
0.00109026
0.00154931
-0.000695662
-0.0019439
0.0009332
-0.000934249
1.04832e-06
-0.00264369
0.000617081
0.00147719
0.000549415
0.000107167
-4.72253e-05
0.00128425
-0.0013442
0.000822263
3.41319e-06
-0.000825676
0.0016888
-0.00187529
-0.00120429
0.00139077
-0.00148674
-0.00287191
0.00171496
-0.00029042
0.000187568
0.0011957
-0.00109285
-0.000512311
0.00155843
-0.000164334
-0.000881782
0.000320283
-0.000846604
0.00124418
0.000973893
4.67269e-05
-0.00102062
0.00289246
-0.000699381
0.000171901
-0.00236498
0.00109291
0.000312812
0.000699757
-0.00167179
0.000803469
0.000168561
-0.00175987
4.9845e-05
0.00131952
0.000390506
-0.000328102
-0.000724055
0.000767061
0.000285096
0.00103106
-0.00132809
0.000297021
-0.000365138
-0.000709917
0.00107506
0.000910561
-0.000589654
-0.00103368
0.000712777
-0.000390021
-0.000217
0.00156007
-0.000953052
-0.000766329
-0.00122495
0.000947752
0.00104353
-0.00150508
0.00137442
-2.52825e-05
0.000155939
-8.7897e-06
-0.00092872
-0.000225009
-0.000820709
0.00103525
1.04651e-05
0.00157
-0.00147644
0.000428708
-0.000522274
0.00238292
-0.00237115
0.00108114
-0.000415466
0.000456068
-4.0602e-05
-0.000870996
0.000859692
1.13037e-05
-7.86948e-05
0.00109046
0.000372527
-0.00138429
-0.000691257
-0.00108918
-0.000429709
0.00221015
-0.000645516
-0.000496059
0.00224166
-0.00110008
0.00110986
0.00029761
-0.00148616
-0.000214389
0.00165447
-0.000752232
-0.000687845
0.000235178
-0.00109262
-0.000478887
0.00133633
-0.000304485
0.000187166
-0.00152328
0.0016406
0.00151748
-0.00109888
-0.000839866
-0.000626639
-0.000186842
0.00165335
0.000453115
-0.000229625
-0.000227097
3.60675e-06
-0.00177937
0.00207582
-0.000211442
-8.5004e-05
0.000581186
0.000641815
-0.000610879
-0.000612122
-0.000244572
0.0012686
2.66638e-05
-0.00105069
0.00141763
6.04612e-05
-0.00126686
-0.000211234
-0.000174775
-0.00174021
-0.000431371
0.00234635
-0.000150266
0.00125955
-0.00110928
0.00152481
0.00129502
-0.00173593
-0.0010839
0.00101105
7.89045e-07
-0.00101184
0.000111312
-0.00133188
-0.000333242
0.00155381
0.00238337
-0.000340059
-0.00112024
-0.000923071
3.39315e-05
0.00239627
-4.68283e-05
0.00117146
-0.00111948
-5.19806e-05
-0.000421793
-0.000821546
0.00124334
0.00217767
-0.000581109
-0.00136861
-0.00101852
-0.000995943
0.0016744
9.48101e-05
0.000402993
-0.00157213
0.00107432
5.65031e-05
-0.00135669
0.000848711
0.000451473
-6.62824e-06
0.0011825
6.85575e-06
-0.00118273
-0.000230261
-3.1638e-05
-0.00111782
-0.000294176
0.00141199
-1.88033e-05
-0.00097021
0.000989013
0.00207588
0.0001578
-0.000133173
-0.00210051
0.000869586
-0.00161069
0.000388207
0.0003529
0.00054851
1.34555e-06
-0.000549856
-0.00158318
0.000258332
-6.39458e-05
0.00138879
0.000566994
4.18609e-05
0.00123647
-0.00184532
-0.000582831
0.00062906
-0.00174775
0.00170152
0.000174483
-0.000229339
-0.00163485
0.0016897
0.00116258
-0.00108603
-0.00249664
0.000284755
0.000736537
-0.000751329
-0.000762019
0.000776811
-0.000672315
0.000675194
-2.87902e-06
-0.00159846
-0.000564543
0.00239536
-0.000343203
-0.00148761
-0.00093159
-0.000283282
0.00126393
-4.90558e-05
0.000268457
0.00151826
-0.000581402
-0.00120532
-0.00300912
-0.00252846
0.000197109
0.00242342
-9.2062e-05
0.000179574
0.000129813
-0.00104303
0.000733639
0.00166676
-0.0015399
-0.00171993
0.00121511
0.000348056
-0.00156316
0.00173147
-0.000320208
-0.00123888
-0.000172383
-0.00103542
-5.73668e-05
-0.000699104
0.00179189
0.00170076
-0.00143863
-0.000506281
0.000244156
7.49157e-05
0.000527464
-0.00162493
0.00102255
5.46704e-06
0.000884043
0.000135654
-0.00102516
-0.000824966
0.00105042
0.000296721
-0.000522173
1.23376e-05
0.00145331
-1.1493e-05
-0.00145415
-0.00109795
0.00111029
-0.00102338
-2.28655e-06
0.00102567
-0.00167025
-0.000154155
0.000417781
0.00140662
0.00117466
-0.00114862
0.000687408
-0.000713444
0.000289871
0.00102037
-0.00110174
-0.0002085
-0.00141381
0.00206931
-0.0002382
-0.000417306
0.000823424
-0.000786841
-3.65826e-05
1.60444e-05
0.000652583
0.00171429
-0.00138146
0.00117765
0.000507079
-0.000303271
-0.000340573
0.000758879
-0.000418306
-3.54535e-05
0.00118656
-0.00115111
-0.00185959
0.000705291
0.000361785
0.000792514
-0.00333999
0.00243422
0.000921819
0.00247913
-0.00029643
-0.000424102
-0.00175859
0.000991681
0.000121614
0.000634621
-2.94359e-05
-0.000665033
5.98475e-05
0.000686737
-0.000538571
2.6803e-05
-0.00159544
0.00156864
-0.00275522
0.00197
-0.000875209
0.00211122
-0.00142882
0.00019281
0.00144122
-0.00194933
0.000602926
0.0011079
-0.00202366
0.000390129
0.00052563
-0.00102912
0.00123607
-0.000206947
0.00214741
0.00044958
-5.29813e-06
-0.00259169
-0.00103153
0.0010404
-8.87026e-06
0.00280672
-0.00251562
0.000324683
0.00166339
-5.42765e-05
-0.00160911
0.00119367
-0.00121683
2.31598e-05
-0.00119335
0.00013408
0.00105927
-0.000459947
-0.00112919
0.000395785
-0.00244196