/*--------------------------------*- C++ -*----------------------------------*\
  =========                 |
  \\      /  F ield         | OpenFOAM: The Open Source CFD Toolbox
   \\    /   O peration     | Website:  https://openfoam.org
    \\  /    A nd           | Version:  10
     \\/     M anipulation  |
\*---------------------------------------------------------------------------*/
FoamFile
{
    format      ascii;
    class       volScalarField;
    location    "16.5";
    object      p;
}
// * * * * * * * * * * * * * * * * * * * * * * * * * * * * * * * * * * * * * //

dimensions      [0 2 -2 0 0 0 0];

internalField   nonuniform List<scalar> 
111485
(
7.87312
0.0403941
0.033486
7.87402
0.0272891
7.62197
0.0248933
0.0313903
0.0255548
0.0189618
0.0241546
0.0256847
0.0285994
0.0131606
0.0264203
0.0526543
0.0300055
8.79248
0.0301208
7.87466
7.87484
7.62555
0.0227686
0.0411004
0.0222926
7.84835
0.0334813
0.0536053
0.031897
7.87412
-0.0548301
0.0191197
7.8766
7.6232
8.57745
7.58535
-0.0306716
0.052206
-0.0797463
0.036096
7.67105
0.0200603
0.036764
-0.00677131
-0.227665
7.88774
0.00801136
0.0368798
0.014766
7.91607
7.91422
7.37225
7.92267
-0.0183223
7.92762
0.0332545
0.0302658
7.63324
-0.0709542
0.0334549
0.034672
7.87348
0.0298036
-0.0446032
7.66744
0.0341846
5.11367
0.0305221
0.0166188
0.0284231
-0.109
0.041082
7.72637
0.0163878
7.87944
0.0370855
7.62572
0.0148851
7.62401
8.06478
-0.0826767
-0.00913928
7.62585
7.87574
0.0352312
0.0244062
1.78098
-0.0260998
-0.0744405
0.0420045
-0.179387
0.0264036
0.0338572
0.0471227
0.0201447
7.87543
7.87355
-0.0108509
-0.712965
0.0940394
7.87338
0.024713
7.6136
0.0110229
0.024212
7.92121
7.63059
0.0186661
0.024478
-0.314386
0.0232835
0.0429008
0.0318377
0.0252121
7.84493
0.0351087
7.86139
7.62558
0.02198
7.87555
7.84732
6.67492
7.62695
7.63346
0.0197466
8.95237
6.63828
0.0226141
7.87633
0.4197
-0.0746471
-0.0112694
7.87992
6.52196
6.81055
0.0249066
7.62577
0.0378781
0.0209444
0.0397746
-0.0166698
0.023516
0.029631
0.0332324
0.000353113
0.0331053
7.62573
7.8749
7.63742
0.030633
0.0297428
7.8725
-0.0429143
0.00918898
-0.626662
0.03249
0.0279335
0.0237304
-0.485621
7.88105
7.87431
0.0297466
0.0234833
-0.446621
-0.565461
0.029431
-0.0366661
7.66016
-0.409077
-0.374121
7.63217
7.87438
0.0240854
7.62834
0.0298427
0.0173866
7.67812
7.7052
7.86402
7.82098
7.6764
7.87335
0.0375075
0.0328721
0.0394799
0.0696303
0.0220529
0.0346626
-0.0211931
7.87409
0.0213593
7.7003
7.86185
0.0426843
0.0117546
-0.0200975
0.0411954
0.0164845
7.88028
0.0360041
0.0336531
5.31114
0.00158152
0.028578
7.87054
0.0385704
0.0098232
7.69904
-0.0268428
0.010183
0.0312925
0.0211293
7.66917
7.87312
0.0349543
4.97629
-0.00902346
7.62799
0.037566
0.0394473
0.0177958
7.87279
0.0279347
-0.0358645
6.00426
7.62807
7.63238
-0.0843775
-0.555068
7.73475
7.29879
0.0377146
0.0238971
-0.0714225
7.73274
7.80619
-0.0425528
7.87718
0.0213269
0.0350535
0.0354758
0.0229319
0.0346842
7.63365
-0.0816447
0.0183903
7.6367
7.62603
-0.0266587
0.0419977
7.79217
0.0331386
0.0337931
7.87506
6.36879
-0.00340056
7.88837
8.02362
7.18939
7.87448
0.0298879
0.0248996
-0.0100955
7.87711
0.0343136
7.87385
7.87223
7.87997
-0.049791
0.00881688
0.0364168
0.02775
0.0198492
0.0302219
0.027907
-0.050996
0.010811
0.021702
7.58284
7.87477
-0.053488
0.0233034
-0.0713819
0.0271162
7.87514
0.0370648
0.0264038
0.0303162
0.0363543
-0.0798788
0.0252561
0.0290968
-0.000561782
7.62986
0.00653532
7.62833
8.74203
8.08979
-0.0911609
0.00896993
0.023994
7.86762
7.69339
0.0352464
0.0285335
7.87219
7.87093
7.93116
0.0246402
0.0307189
0.0337295
0.0310864
0.027818
7.23711
7.6349
7.87627
0.0374218
3.26875
0.0101234
-0.0835002
-0.0597192
7.62672
7.87271
7.87347
6.80446
0.0326381
0.034042
7.62231
0.0355389
7.78866
7.86408
-0.00787106
0.0332769
0.02139
0.0357367
7.99289
6.76898
7.62491
0.0328523
0.0200872
-0.0555027
7.66139
0.489673
-0.122155
0.0348477
0.0369088
1.30042
0.0265088
7.62401
0.0217054
0.0389947
-0.0720897
-0.01459
0.0245922
7.62611
7.87763
7.62952
7.87726
0.0387556
0.0323352
0.00544393
0.0310099
7.64365
0.0291126
7.63178
7.88056
0.0276093
8.13874
6.95459
7.9169
7.58089
0.031545
7.63196
0.0173224
0.0342859
7.62383
0.0156919
0.0352836
7.86247
0.0349258
0.0294708
0.0417418
-0.0202726
0.0411604
0.0311305
8.00161
7.87563
0.00488151
7.64956
0.0235612
-0.0210002
7.67647
7.63211
0.0352029
0.0273018
0.000543997
0.0408836
7.62548
-0.0515036
0.021451
7.61977
-0.00945213
0.00699667
7.87213
7.87354
0.0249636
0.0223296
7.61034
7.86529
5.86394
7.87272
0.0283468
7.62813
7.8736
0.0184452
-0.0681087
0.0139378
0.0354233
7.6232
6.82177
0.0178158
6.91997
-0.00490473
0.0221261
0.0255257
5.28766
6.99432
-0.484952
-0.283806
7.87161
-0.0248269
0.0277925
7.87089
-0.476473
0.0193346
6.95855
0.0233583
0.0245474
0.0391479
7.62462
0.26798
0.0224769
0.0495106
-0.105677
6.61559
-0.571636
7.87293
-0.014711
-0.167579
7.63277
0.0131387
0.0134964
6.43433
7.87605
7.47275
7.8738
0.0293537
0.0786105
0.0287117
0.0293402
-0.029595
7.62842
-0.0262853
7.88535
0.0404336
7.61065
7.88271
7.89005
0.0195053
7.87639
7.87315
8.35077
7.87194
7.64089
0.00463707
7.63135
7.42644
7.62633
7.86062
7.6167
7.88252
7.62606
0.0174824
7.62491
0.00173357
0.0198277
-0.0585025
7.63069
0.00418037
7.63396
7.87276
0.0141476
0.0147738
0.0602384
-0.0940977
7.33268
0.00882027
-0.000754381
0.0239735
-0.0123898
0.0167742
7.87548
-0.00316366
6.44548
0.0256439
7.62815
0.00218029
6.66873
0.0245562
0.033709
8.29045
7.69297
-0.0303338
7.8725
0.00938823
0.00208226
7.63974
7.64623
7.92971
7.63145
-0.945374
0.00861091
7.61902
7.63742
0.0253969
7.62553
0.00705463
7.62493
0.00436497
7.87295
0.0293781
0.0282997
0.0601383
0.0232571
7.60265
-0.127739
7.61767
7.62819
0.0232356
7.62931
0.019568
7.93581
-0.011667
7.87472
0.0423379
7.8748
6.96652
-0.0708612
-0.0269756
0.00525613
0.027543
-0.00600898
0.0143346
7.63643
-0.00155873
-0.0064114
7.6272
-0.0219111
-0.035613
0.0131394
7.69203
8.03852
0.0480412
-0.0172335
3.6987
7.7205
0.0239362
0.0368969
0.0238719
0.0205444
0.157231
2.55092
6.87338
-0.669123
3.15838
7.87422
0.0304491
7.64886
6.9976
0.0336016
2.50066
-0.689608
1.44375
6.87207
0.00674931
0.0317109
7.63877
7.45355
0.0387643
7.88013
7.62545
7.62645
7.62905
0.0191727
7.63034
7.83118
0.0258783
0.0321923
6.02112
-0.013358
7.31923
0.0328809
7.92154
7.63449
0.0140213
7.62729
7.62929
6.96455
0.0465008
4.65825
-0.00416522
0.0412325
7.88806
-0.193607
-0.0464361
0.0217914
0.0124862
0.283498
0.0167741
7.6306
0.0131354
0.0245016
7.8781
0.0299735
0.00244801
0.0305649
0.0364535
0.0305484
0.0295522
7.88785
0.0206011
-0.0283494
6.94403
0.0313459
0.0348145
4.85697
0.0423079
0.0317382
0.0258117
0.0258985
0.0343309
0.0364909
7.76726
0.0282294
0.0196408
8.22891
0.0148593
0.000890001
0.0404899
7.63034
0.0495449
7.89266
7.62622
7.64041
7.62713
0.034408
7.05719
-1.01511
7.87006
7.56585
0.0242615
0.0188824
7.87137
0.0113322
7.87125
7.87508
7.9239
0.0153282
0.0282118
6.99325
7.82219
7.62957
7.62992
-0.0372666
0.0243137
6.81287
0.0216395
-0.379843
7.63536
0.0292064
0.00648778
0.0845143
7.62451
7.62746
0.0321384
0.0348889
6.92826
7.63269
7.61446
0.0229612
7.87778
7.87094
7.62909
0.0252191
0.035371
7.62493
8.48143
8.21402
0.150281
7.63481
7.62349
0.000636777
-0.0460813
6.9125
5.95934
1.16184
0.0114016
0.00257868
7.60119
-0.00342075
0.0190521
7.62838
7.92126
7.62527
7.62838
7.63292
7.62444
0.0418742
7.87237
7.62601
7.68281
0.03339
0.0197634
7.87828
7.93451
-0.000568027
0.0289288
0.0389562
7.87029
7.6267
0.0295844
7.87546
0.0117444
0.0227035
0.0475898
7.85102
7.87344
7.8733
7.62923
0.0516655
7.62686
7.62552
-0.00784649
7.87339
0.0419055
0.0299255
7.64661
0.0386284
7.84472
0.0317296
0.014209
-0.00245618
0.00583848
-1.23355
7.23977
0.0296132
0.00445565
0.00108331
7.79536
-2.06939
7.15078
0.0246498
7.63203
-0.00432904
0.00923021
-0.00777414
8.07987
7.87351
7.87621
0.0324805
7.31646
-0.0235277
7.45323
0.040691
0.0348738
0.0124395
0.0279747
7.62409
7.64982
7.74853
0.0308933
7.62656
7.2378
-0.127022
7.63208
7.6389
7.87494
7.62582
0.0130886
7.61177
7.62848
-1.50744
7.29885
7.65153
7.06953
7.6284
-0.0128769
0.0164449
7.8724
0.0333291
1.03592
-0.0124912
-0.349892
0.0274717
7.63467
0.0122814
-0.00185959
-0.0116546
7.87515
-2.59743
0.0131722
6.4819
-0.00129258
-0.0868525
-0.0718107
0.0155473
0.0287215
-0.10872
0.0388081
0.0301568
7.60789
7.63999
0.013061
0.00150848
7.63385
0.0156334
0.0245032
0.0244761
7.62149
-0.0903641
7.62779
0.0221992
0.0160155
7.62441
-0.064809
0.0297547
-0.127883
-0.0211711
7.58008
0.0289881
-0.122066
-0.0454796
-0.125503
-0.0132096
7.61831
7.6384
0.00241558
7.62574
0.047709
-0.0509438
6.72921
-0.442519
-0.79533
-0.273269
7.62574
6.39485
0.0320401
7.87559
9.4579
-0.021193
7.61897
7.6232
-0.694461
-0.829538
7.6259
-0.0911314
7.62835
7.62717
7.87733
7.87203
7.95542
7.87454
0.000585268
7.62775
7.63255
7.63917
-1.41151
0.0399862
0.0163455
0.032922
7.63874
7.62264
-0.0216235
7.62752
7.62692
5.82549
-0.0269462
0.0331442
7.62478
7.61906
7.63509
7.62321
7.57507
7.62202
-0.0450845
7.62839
-0.17146
0.0278156
7.62957
7.88386
7.93117
-0.0931572
7.92335
7.87472
7.64517
-0.180631
7.62682
-0.0382563
-0.0412754
-0.149286
7.62259
5.2985
-0.013671
0.0226859
7.66353
-0.167489
0.00847224
7.88236
7.59887
6.90263
7.61981
0.0305234
0.0272594
-0.036585
-0.316714
7.62536
0.0332093
7.57668
6.83909
6.85981
7.6325
0.0323082
7.62762
7.94171
-0.0366459
0.0381775
7.93881
0.0185886
7.32359
-0.0560061
7.98635
7.6279
7.60065
7.87368
0.0281112
0.0351798
0.387263
7.62645
7.67378
0.0182617
7.62605
7.08278
7.87308
0.0162976
-0.304601
0.0620254
7.86389
-0.0429687
-0.0311877
8.24848
-0.0308784
7.63196
-0.0152269
-0.0024379
0.0239712
-0.058216
-0.148797
7.62668
7.62845
7.62808
-0.0429195
7.70038
-0.0792363
7.87754
0.76587
7.87297
0.0338285
0.0363996
7.94341
7.6252
7.96062
7.63929
-0.081189
7.9687
6.91075
0.00744377
-0.0743247
7.9196
7.04846
7.71278
7.06949
7.62505
7.62656
-0.0726368
0.0296158
7.87406
7.86668
-0.595245
7.87952
-0.0723829
0.0263331
7.70713
-0.00838148
7.87363
0.0194649
7.63282
0.0323931
7.62415
-0.550022
-0.276394
-0.116217
-0.0145023
-0.0177482
4.70402
7.55325
-0.00522273
7.91775
0.0263527
7.87184
7.658
7.62443
7.63947
7.66358
7.63382
-0.0286277
-0.0399747
7.87389
6.6577
7.8797
-0.0270982
-0.0932383
7.87033
0.0375875
-0.118632
7.9316
0.0298622
0.0286805
0.0282884
-0.115622
7.62599
7.62629
7.65667
7.62586
0.0319451
7.55889
-0.00824218
7.62689
-0.017943
0.0373165
7.63125
-0.0259058
7.62022
7.62563
-0.0188322
-0.0547271
2.15717
7.6276
7.95485
7.61704
0.0336418
7.51475
7.92469
7.53316
0.893534
6.73797
-0.493139
7.03982
7.49688
7.76955
0.022584
0.0106719
0.0311701
0.0337205
7.85983
-0.00324602
7.6293
7.63224
0.0195132
7.60075
-0.607251
-0.0140331
0.0341116
-0.0198578
-0.927714
0.0160362
7.63104
-1.38347
-2.92524
0.014643
-0.00792744
0.0316249
5.56261
7.86888
0.0194986
7.87747
7.62291
-0.211372
0.0196078
-1.07769
7.61245
7.45719
-0.0453268
7.93122
7.62487
-0.0259814
7.94999
7.93901
0.122243
-0.0257282
-0.0633718
0.0581697
0.0317579
7.62807
7.62628
-0.241517
0.036438
7.62641
7.94423
0.0521978
7.63556
6.61511
6.77299
6.80932
4.38277
6.63281
7.62793
0.0388848
7.61184
-0.0490402
7.62558
3.45533
7.68237
7.64807
7.63146
7.62662
0.0458851
7.62645
7.6261
6.92909
7.62079
7.63202
7.62453
0.0349755
7.64378
0.0300949
-0.0536047
7.65032
0.0601964
7.62572
-0.00333074
-0.17633
0.0197103
0.0284881
7.84711
0.0255092
0.0416476
-0.119842
7.87669
-0.0784802
0.0330091
0.0272955
7.33936
0.0190873
7.69462
7.62977
7.62753
7.62495
0.0246883
7.62827
7.61482
0.021078
-0.105545
0.00943316
7.64113
5.44615
0.0490555
7.63359
-0.336064
7.92842
0.0150169
7.62062
7.62335
0.0134943
7.62164
0.00879787
7.87669
7.62515
0.0355347
-0.0147245
0.0293876
0.0328273
-0.10481
0.0267228
7.62557
8.02778
0.0296061
0.034386
0.0405458
-0.065356
7.62595
0.0316165
7.62558
7.79992
0.0203594
-0.0402067
7.63633
0.0292127
7.61735
0.0239993
0.0365788
7.71338
7.62483
7.62932
0.028675
7.6281
7.62805
0.0322095
0.024378
-0.0152235
0.0240356
7.64644
7.64042
0.0305717
0.04471
7.63037
0.027084
7.71111
0.0229834
7.62581
7.6252
0.00857785
7.62552
-0.000229319
0.0455651
7.63042
7.62425
0.0190076
6.48488
0.0492611
7.8731
-0.0321988
7.88358
6.68341
6.46163
0.0425563
6.97552
6.90031
0.0254032
6.85954
4.26902
6.34568
7.68476
7.87838
-0.147726
0.0428841
7.66758
7.62654
0.0193993
0.0307608
7.63476
0.0298049
7.62411
7.88337
0.0248262
0.0140914
0.125573
7.62457
7.62949
7.628
7.62583
7.61866
7.62189
7.62175
7.61941
7.62329
7.62326
7.62713
7.87967
7.62977
7.62379
7.62574
7.79499
7.62425
7.62496
7.62621
7.65468
7.81936
0.0373177
7.62849
7.62459
7.64089
0.0391881
7.63374
7.88327
2.96761
7.61264
7.52045
0.0307556
8.24949
7.57584
3.49919
0.0265908
7.62746
6.76489
7.26233
7.62321
-0.00412917
0.0277027
0.0269932
0.0162337
0.0391987
7.90355
7.61825
0.0266995
0.0326655
0.0146518
7.62326
0.0330096
0.0091153
0.0385975
0.0231813
0.024441
0.0160566
0.0296248
0.0275473
7.88794
0.0358865
0.0370764
0.0301734
0.0300262
7.62762
7.62662
7.62815
7.87372
7.62519
0.0346243
0.0358984
7.6305
7.62335
7.62368
7.82802
7.62585
7.8753
7.62958
7.87985
0.0404615
-0.193599
0.0364377
0.049823
7.59947
7.63889
-0.00848073
-0.230711
7.62488
7.62646
0.0276112
7.88674
7.62697
0.0752563
0.00933712
0.0264166
0.0502007
-0.00433037
7.89963
0.014464
0.0358168
6.91249
7.87715
0.0240481
7.89624
7.6365
2.40847
1.29943
0.00966064
7.77543
7.85138
-0.014894
0.0354561
0.0328188
0.0338397
3.41008
7.87336
0.00866473
8.23502
7.87555
7.56863
0.0171503
7.62532
0.0363214
0.00916498
0.024957
0.0268315
7.88105
0.0444886
7.87706
7.4648
7.87509
7.86655
0.0245337
4.50384
7.62613
7.87396
8.35784
0.0354375
6.86127
0.0197208
0.0296491
0.0240384
0.0320277
7.83323
7.86861
6.64253
0.0305763
0.0334188
-0.890333
7.92074
7.87312
6.82844
0.00206621
-0.00602001
7.6247
-0.0264111
2.512
0.0287507
0.0268795
7.87354
6.64789
0.0191435
0.0342642
7.62864
0.0275181
0.0259839
0.0159462
0.00372383
0.0277328
0.0455823
6.91494
0.033749
0.0314745
0.0353808
7.97502
0.0303976
7.00102
0.0508686
0.0286465
7.876
0.0226632
0.0244088
0.0202562
0.0351287
8.74328
2.10639
-0.0242468
4.29375
0.0261389
7.64859
0.0243324
0.0257704
7.88054
7.62644
-0.336203
-0.0849064
0.031531
8.73059
0.0256674
-0.176117
-1.11868
-0.0545835
7.88141
7.89402
0.0326158
8.34468
0.0329802
-0.186547
0.0251822
0.0348944
7.8735
0.0216813
0.0338025
7.87243
6.94015
0.0414615
7.88855
0.0334622
0.0370389
7.87451
8.78583
0.0361502
7.8735
7.62419
7.63026
0.0311923
0.0553516
0.0305797
7.92807
0.0271336
0.0323796
7.68331
0.0352828
0.0236998
0.026763
-0.0977578
7.62578
0.0274275
0.0552697
0.0354819
0.0235833
0.0288715
-0.127742
0.0446123
7.87285
-0.0492955
0.0250905
7.8732
0.0309561
7.63551
7.62819
7.8767
7.64007
7.87531
0.0267212
7.62983
0.0308266
0.0023582
7.87748
0.0340758
7.81403
0.0199542
7.87985
-0.13661
7.6545
0.0239945
0.0287506
-0.156795
0.0459255
0.0263935
0.0355191
0.0309758
0.0440002
2.80392
0.0381695
0.0164375
0.0460467
7.87486
0.0502511
-0.0941931
0.0399558
0.02909
-0.137067
7.87702
6.78154
7.87689
0.0306933
7.87287
6.17343
0.027284
8.38889
0.0370484
7.86484
7.84216
7.62615
0.0285517
0.062599
0.0274726
-0.0183268
0.0268155
0.0322813
0.0412064
0.0203496
0.0185063
0.0393286
0.0296824
7.88878
7.58285
7.86769
0.031482
0.0381406
7.65995
7.62605
6.31125
0.0538104
0.0217182
7.87327
0.0317183
7.87118
-0.399281
0.0345519
-0.038702
7.87443
7.87273
0.0215634
7.87331
0.0152426
0.0337901
7.46494
0.0327018
0.0312067
0.0288456
7.87255
-0.0821363
6.99329
-0.00391926
0.0276967
7.87599
7.88581
0.0305601
5.54328
7.90495
0.0395033
0.0328715
7.87364
7.85604
6.94905
0.0221285
6.28947
0.0294809
-0.00948938
0.0203648
7.87313
7.03748
-0.0111946
7.87187
7.63379
7.87542
7.87674
7.14956
7.7265
7.57358
7.87389
7.88926
7.30896
8.39657
7.64209
0.0248027
7.65151
6.75894
6.39688
8.90382
6.89999
7.87323
-0.0089479
7.39259
7.7109
-0.00855126
8.20783
8.57145
7.78095
-0.0179939
8.36603
-0.00678458
-0.0573665
0.0333375
7.17723
7.87628
0.00156526
-0.428623
7.83626
7.86712
0.0342456
7.09835
0.0339268
7.02299
7.61036
7.73707
0.0325856
0.0362774
7.87203
0.0243648
7.90655
7.39116
-0.157015
0.0499131
-0.00633908
7.62645
0.0353849
7.23278
-0.00403222
7.62616
7.87293
7.62443
6.9925
0.0476523
0.0401059
7.8757
-0.736422
7.88235
7.89147
7.8818
7.87446
-0.00161694
-0.015985
0.0414738
0.0131392
7.83474
0.0284135
0.0267182
0.0412371
-0.00768241
7.67881
0.0339515
0.0232925
0.00816296
-0.396756
0.0353175
7.9244
0.00248626
-0.00036543
0.0364747
0.000287763
-0.0223499
7.90323
-0.0149965
7.78003
7.87742
0.0317385
7.88102
0.0427538
7.87102
7.93937
7.56192
7.88025
7.87487
-0.0232905
7.87889
0.00862735
7.20771
7.63218
0.0387008
0.0200435
0.0390281
0.00341556
7.89166
0.727901
7.87581
0.00138858
7.94066
0.0320248
-0.003583
0.00758066
0.0165865
7.97089
7.97781
7.88053
0.0355815
7.64308
7.86665
0.0312084
7.61554
7.62391
0.0253338
7.97069
0.0219313
-0.406608
7.15843
7.50121
7.43992
0.0199224
0.0273518
7.87356
0.00759454
0.00873739
7.00127
0.00336967
7.872
0.0278216
0.0400931
0.0448027
7.87569
0.0294152
0.0296532
-0.00339097
0.0203718
0.0273502
7.87513
7.87348
-0.073791
7.86897
7.62342
7.87153
0.0215205
0.00618522
0.0286616
-0.0210446
6.88072
0.0143712
0.0298919
0.0265818
-0.0426919
0.0368231
0.00411505
0.0325257
7.62578
7.6261
7.6259
0.0508418
7.62896
-0.0123372
5.26366
0.0223704
-0.525992
0.0153477
0.0167998
7.62335
7.8743
0.0233708
0.0227697
7.88824
7.62038
7.87549
0.0190175
0.0254489
0.0222514
0.0284623
0.031029
0.028222
7.8742
7.87485
7.87297
0.0410504
0.0190864
0.00266822
0.0307306
0.0411027
0.024469
7.84955
7.8732
6.35423
7.66662
0.0259971
0.0447418
7.86878
7.90668
7.87643
7.8771
7.83822
7.71764
0.0149547
7.87556
-0.0237747
-0.0846938
7.6313
0.020184
0.0272889
0.0293278
7.9191
7.76385
0.0154967
7.87385
0.0139754
-1.19228
0.0275166
7.668
5.96116
7.62527
7.87775
7.86937
7.60632
2.12684
7.88691
0.0295496
0.00619511
7.87629
7.8738
0.0123953
7.87969
7.62821
0.0246238
-0.170971
7.86274
7.86324
7.6727
0.0460636
7.87346
7.87317
1.19114
-0.00243328
0.0114187
7.87324
7.63064
7.20981
0.00703861
0.0115595
0.00945795
0.0210807
7.6252
0.0578558
0.0134813
-9.3062e-05
7.57416
7.87078
7.87304
7.82681
7.87358
0.0356742
0.0322507
0.00902391
7.89141
7.87391
7.87318
7.87092
7.69635
-0.0131766
0.110446
0.020122
7.62744
7.87396
7.92832
-0.973179
-0.017073
-0.041511
7.62602
-1.91723
8.2558
7.83981
7.8725
0.0347683
0.0474566
7.87586
7.90747
0.0274225
7.87453
0.0222535
0.0395657
2.75529
7.87152
7.67304
0.0314504
-0.0343186
7.91117
2.55979
0.0547618
0.0485249
7.87497
7.87777
7.88378
7.88227
0.0280339
0.0323188
7.87804
-0.0242011
0.00945259
0.235308
7.87378
7.8728
7.87431
7.87822
0.0267425
8.38225
7.87501
7.7689
0.0278776
0.0124308
0.0337226
7.84622
7.87356
0.00334812
7.62628
7.87401
7.87586
7.87512
0.0328622
7.69688
7.6098
7.62733
0.0246193
0.039264
7.87023
7.87559
7.85649
0.0303205
8.15119
7.87881
7.85852
7.87567
7.87509
-0.168887
0.0407873
7.91621
0.0350189
0.0323423
0.0322009
7.88008
7.87654
7.87517
7.83541
7.62454
0.048482
7.87469
7.38232
7.34412
0.00634958
7.65367
-0.00156038
7.87338
7.63044
0.00641851
0.321442
7.04566
0.0177002
7.87602
0.0131309
8.13302
7.89217
7.92338
9.10252
7.88088
-0.0110019
7.87151
0.0239355
7.63044
6.94727
7.88082
7.8689
0.0186412
0.0548992
7.62564
2.66672
7.62701
-0.0520077
-0.0143912
0.0389299
7.63171
-0.319131
-0.00260685
-0.0233797
0.0402842
-0.588299
-0.00851818
7.60318
7.62486
-0.712529
0.0289984
0.0189459
7.91027
7.52549
6.38615
3.27479
7.87603
7.62916
7.87609
7.87663
7.87751
8.30255
0.0556954
-0.0445153
0.0393732
6.97156
-0.0633259
7.87568
0.0267929
7.87293
7.88223
7.62773
7.71349
-0.0771262
7.69413
7.62373
7.87344
0.0307554
7.87203
7.87364
-0.0284446
7.83703
5.7599
4.93948
4.60335
7.87818
4.82253
4.66151
4.77115
5.47035
7.62481
7.62513
0.0247797
0.00828801
6.97
7.14327
7.62125
0.0201859
8.19028
7.72258
-0.0710876
7.87589
7.87386
-0.0134607
-0.0627382
7.83986
7.62549
-0.00186036
7.03648
7.61678
-0.369341
0.0224837
0.0665049
7.81285
0.0369008
7.87617
0.0248222
-0.363201
0.0314474
7.87395
-0.357586
0.0361393
7.96699
-1.00463
7.86544
0.0342553
7.53249
0.0416491
7.80522
-0.0222583
7.87467
7.58333
7.62962
-1.43135
-1.43958
7.88721
0.0253092
0.0378598
7.92077
7.87362
0.00664008
0.0211844
-0.0902889
7.88183
0.0312946
0.0255234
-0.0205174
-0.812451
7.87764
-0.137957
7.63354
-0.119799
7.87299
-1.69737
-1.97263
7.85395
0.0318501
7.6858
-0.0173734
7.62489
7.85812
7.88643
7.89159
7.85204
7.86019
0.0194475
0.040527
-0.123847
7.88222
6.35384
-0.111837
7.88148
7.83098
7.90632
7.86822
7.9048
0.02301
7.87408
7.87587
7.62472
0.0160917
7.85909
7.62648
7.54264
0.0386079
7.62742
0.0107373
-0.750194
-0.0303651
0.0362374
-0.0130313
8.22054
7.87927
7.87248
0.0713656
0.0351006
7.55357
6.31682
0.0127648
7.87388
7.87704
-0.10167
7.86447
0.0319605
7.87597
-0.0101746
-0.0281655
7.88347
7.62438
7.87949
7.87639
7.87165
0.00268596
7.87255
0.0139497
7.94403
7.87631
0.0293852
7.62231
0.0245591
7.77581
7.87361
0.00981309
0.0409717
-0.0871547
7.87539
7.87579
7.87403
0.039537
-0.0567999
7.95168
7.62533
7.64397
0.0188793
7.86712
0.0312913
-0.103011
7.87299
7.86946
0.0277991
7.86763
7.644
7.62759
7.95923
7.62832
-0.121178
6.22497
7.64865
7.87467
6.38738
7.86914
6.6078
7.84799
7.86819
7.73864
0.0277978
7.79806
0.0164941
7.86108
7.86835
-0.0230505
0.0112479
7.86364
7.83464
7.87547
0.0320012
6.715
7.87525
7.73423
7.87169
0.0256005
7.86504
-0.147803
7.87588
0.010898
6.92875
-0.00155976
7.89008
7.8716
0.0252375
6.55822
7.88087
0.0332083
0.0125724
7.89407
7.87649
0.00434687
-0.0308969
0.0257906
0.0222569
0.0127782
0.0146455
0.0274446
-0.0126494
7.94893
-0.157832
6.27218
6.15832
7.87475
7.87206
7.87194
0.0405259
7.87638
7.86956
7.87653
-0.0917329
-0.0163648
5.9645
-0.0145183
7.87721
0.00653764
7.6216
-0.0285004
0.0289121
6.34539
0.0226232
7.86707
7.84709
7.62642
0.04749
0.00908508
7.87417
7.62768
0.0379846
7.87518
-0.100777
7.91574
-0.051315
7.87316
7.6269
7.8542
7.6257
0.0299574
7.6259
0.30465
7.63056
0.0165867
7.87389
7.87016
4.3347
4.01163
7.89202
7.87059
7.87352
7.87452
0.0124608
-0.110122
5.23085
7.87819
0.0213429
7.6237
7.63786
-0.39804
0.0277432
-0.0373146
7.62709
0.029202
0.00145934
0.0357394
0.0313028
7.87383
7.87703
7.88125
7.8774
7.62699
7.62566
7.62638
7.84163
7.62741
7.62657
7.87339
7.6262
-0.0769937
7.62565
7.87376
8.62156
7.87578
7.87423
2.72984
7.62505
7.873
0.0110815
-0.0592979
7.84981
7.85323
7.874
0.0323581
7.66386
7.86147
-0.0768638
7.62834
7.87441
7.86992
7.87804
-0.0189511
7.62634
-0.141268
7.87794
7.85859
7.87262
7.87348
7.87093
-0.0703328
-0.112009
0.0289661
7.87601
7.64681
7.91074
-0.0916872
7.87348
-0.110779
-0.0462824
7.62506
7.8523
5.95524
-0.372965
7.8565
7.02797
-0.360607
6.03478
0.0125035
7.6605
-0.0127661
6.00082
5.62115
7.87318
0.020082
7.62829
0.00647871
-0.0253949
7.88224
0.0183042
-0.25107
7.87135
-0.0394842
7.62713
7.85771
7.86663
7.85362
7.86831
7.62395
7.87339
7.87357
-0.119805
7.11768
7.87383
7.87127
7.87213
7.87606
0.0332251
4.05926
-0.0995953
-0.271295
7.8725
0.0333711
0.0227644
7.87377
7.00598
7.79671
7.86314
7.9002
7.96289
6.44624
7.17574
-0.00995581
7.87537
7.87944
6.10471
6.6428
7.62588
0.0132317
7.88119
7.63802
7.87579
-0.0493268
7.87794
7.62493
0.00665642
7.62702
7.59056
7.77316
7.92173
0.0074615
7.87476
7.87314
7.87297
7.85231
0.00929078
-0.0356843
-0.0268928
0.0170397
-0.00443974
-0.0125776
7.62809
6.55673
-0.131605
-0.00712008
6.54723
-0.119438
7.86974
-1.05217
7.64585
-0.0587251
7.876
7.629
-0.00491894
-1.35445
7.87794
-0.00739323
7.87703
7.87729
-0.0649242
-0.0270422
7.87392
7.62585
7.91805
7.62579
7.87052
6.86447
7.87521
7.87301
-0.00784405
7.87476
7.86953
7.87228
0.00228716
7.88526
6.90607
7.62696
7.62566
7.31004
6.93286
0.000666659
7.62813
6.94189
0.0197111
7.86769
-0.0169361
-0.000107852
7.87547
0.0153846
7.87243
7.46529
7.93602
6.79761
7.6308
7.85309
7.8671
7.87741
0.0351484
7.87635
7.87448
7.87299
7.74377
7.87316
7.79408
-0.0877128
7.87336
7.87854
-0.0403179
7.87433
7.627
7.62931
0.0466282
7.87556
-0.132066
6.71606
-0.35106
0.0170284
7.623
6.55202
0.0227481
6.28314
7.627
-0.165699
-0.346028
-0.00266604
-0.0299037
-0.226188
-1.13428
7.65321
7.62923
0.0272017
-0.0705128
-0.0538327
0.0353706
-0.361418
7.62661
0.0225458
0.017333
0.0236965
7.63269
0.0261874
0.0246015
0.0331908
0.0218127
-0.0916057
0.034301
0.0456448
0.0126896
0.0133348
0.0338651
0.0278862
6.91963
0.0910797
0.00630125
0.0182296
-0.0010981
0.0242688
0.0300966
0.0157289
7.07968
-0.0826879
7.02857
0.0438855
0.0293441
-0.0268817
0.0172989
7.01728
7.6244
0.0299483
0.0292046
-0.096184
-0.033484
0.0288674
0.018115
4.84045
0.0276181
7.87334
0.0311827
-0.0813219
-0.0209923
0.0404901
-0.10865
-0.143964
0.018417
0.0194012
0.0103711
0.0410706
0.0206731
0.123205
6.14987
5.4106
0.0208786
7.87749
7.87401
0.0192294
0.0399108
0.0244039
7.87475
-0.0449222
-0.0274048
0.0307412
5.59438
7.87284
-0.175751
0.00888221
-0.0879308
7.87721
0.033187
7.8733
0.0218632
0.0161351
-0.0199441
-0.0191521
7.8732
7.87532
-0.00833953
0.0306006
0.0452869
7.86679
0.022074
0.0456259
-0.00295747
7.63452
0.0373058
0.0496164
7.0097
0.0327625
-1.4577
-0.075744
7.59181
-0.034086
-0.0701412
7.87327
0.0257818
0.0194475
1.42418
0.0094782
0.0318098
0.0263067
0.0412613
-0.010682
-0.0217899
-0.19892
-0.0798741
0.0536951
0.0255996
0.00482738
-0.13943
0.0349775
0.0033625
0.0676576
0.0323392
-0.128096
0.0436937
7.8734
0.0206752
0.0106351
-0.0750709
0.0431421
-0.0136003
7.65094
0.0185744
0.0354125
7.86884
-0.0468107
-0.00535939
0.0182815
0.0246237
0.0248025
-0.0436449
0.032513
0.00511389
-0.0252302
7.873
7.87354
-0.021139
7.63327
-0.017883
0.0226874
7.7071
0.0246765
0.0034523
0.0542978
7.87304
0.0362008
0.0238578
-0.0350593
-0.111895
0.0326809
0.0489129
0.0234399
0.0153991
7.8735
7.85629
-0.0655579
-0.00717925
-0.0311067
0.0360765
7.85596
-0.00779364
0.0369458
7.7076
0.0151196
0.0297093
-0.0821221
-0.18212
-0.0046709
-0.0166387
0.0422176
0.0106773
7.63828
0.0264935
0.0149072
0.0218817
-0.169348
7.85716
0.00450668
8.0129
7.87412
0.0254193
0.00909039
0.0184731
0.156029
-0.0887982
1.50842
7.62869
-0.00972285
0.0470643
0.0801092
0.0230036
7.88041
7.63155
7.62102
0.0121696
0.0170039
-0.194867
0.0351788
7.62826
7.86045
0.00438598
0.0193921
-0.015982
0.0272019
0.0221699
0.0456792
-0.0243559
4.38806
7.62462
0.0157294
0.0243731
7.85993
0.015655
0.0412026
-0.0409833
0.0294641
0.0259843
-0.0144605
7.86011
0.0398893
0.0230622
7.63154
7.64476
0.0297357
0.0802692
0.0192247
0.0229991
0.0344904
0.0296125
0.0368767
0.0402728
0.039688
0.0159663
7.85593
7.84835
0.00986696
0.0332685
0.033652
-0.0676346
0.0365932
0.0121051
0.0197965
0.037055
0.0326408
7.62829
7.63946
-0.08147
7.85467
6.86636
0.0301549
0.0311602
0.0168291
-0.0642307
7.17353
-0.00831801
-0.0492433
7.30432
-0.0705796
-0.177246
0.0357829
0.0381659
0.0207455
0.0445376
-0.113328
0.0230557
7.87381
7.2476
-0.0502737
0.0314377
0.0187325
0.0307892
-0.0804735
-0.00806805
-0.0796207
7.27365
0.0422825
0.0559426
0.0290614
-0.0910226
-0.0109379
-0.0646598
-0.170753
0.019931
0.0261441
7.16554
0.0198148
0.0429355
2.81146
6.80193
6.25187
0.0525097
6.64691
0.0142345
0.0380171
0.0205337
0.0415934
-0.0790666
5.05651
3.06419
8.06862
6.73425
-0.0192252
7.62563
7.62533
-1.23852
7.87145
0.0388272
0.0258998
0.0389864
0.0322215
0.0337873
0.0245026
6.28115
0.0284297
0.0272911
-0.00608133
0.0326461
0.0448361
0.0300166
7.62602
-0.172577
0.0392934
-0.0733846
7.62582
0.0140494
0.0121258
7.62571
7.86539
-0.0529081
0.028499
7.90951
0.032534
0.034247
-0.0569625
7.87486
7.62558
0.0217206
-0.176235
0.0415179
7.62591
7.61338
7.62578
0.0183771
2.57209
2.3425
0.00366018
-0.337134
7.88292
0.0328902
-0.314671
0.0334035
0.0250169
0.00851306
0.025071
-0.465904
0.0298792
7.67898
0.0183425
0.0432836
0.0183973
0.0325766
0.0165972
0.0375241
0.0203036
0.0125617
0.030439
-0.0341894
-0.351479
0.0285601
-0.056859
-0.101689
-0.41983
0.0115175
-0.335141
0.0218302
0.030773
0.0308111
0.0439788
-0.0260823
0.0390294
-0.341959
0.0284299
7.48026
0.027128
3.83356
0.0263644
0.0127412
7.63224
0.00720812
7.47985
0.0153342
7.50782
7.90438
0.0564223
-0.00129717
6.85846
0.0269603
0.0337103
0.000401434
7.86127
7.87549
0.0419813
0.00816426
-0.149468
0.0306064
0.0359237
-0.000862859
-0.0343033
0.013927
0.0065049
6.5136
0.0263823
7.62578
7.81618
0.0401351
0.0359929
-0.0652219
0.0389764
0.0369205
0.0140734
0.00228719
7.78233
-0.0812053
0.0264357
0.0107035
7.79422
7.88161
0.0267112
0.0181637
6.16749
-0.0151996
0.0292179
0.0209401
-0.133532
0.0369856
0.0354236
7.86473
4.58761
0.032168
-0.0448423
7.69644
0.0491325
-0.0213966
0.00881086
-0.086624
0.0267185
-0.116856
0.0263825
-0.00982555
4.85235
-0.0194466
7.87478
0.0193377
0.0038273
0.0353072
0.00974697
6.58644
0.0146407
-0.0503981
0.00862271
-0.0798431
7.42754
7.6258
0.0398208
-0.0438109
0.0183815
0.023899
-0.0158458
0.0288738
-0.00117246
0.0226711
0.0430395
0.0270647
-0.023028
7.04363
-0.101918
-0.000758212
-0.000599883
-0.0136546
7.23812
7.62432
-2.33941
-0.0837469
8.16156
-0.111442
0.000123603
7.37227
5.0178
5.46547
-0.0195812
0.0334113
0.204033
5.84746
-0.0502971
0.0427208
7.61778
0.228066
6.89035
0.00800986
0.0292829
7.66081
-0.0264922
0.000365935
-0.00352248
0.0333291
7.6246
-0.236939
-0.0150348
-0.0483525
0.0059471
0.00671045
-0.00869661
0.0142227
-0.141509
0.00186097
0.0255524
0.0328426
7.87318
6.45962
6.56135
7.72789
-0.00783947
0.0371612
0.0411744
-0.0374845
0.0264278
0.0392433
0.0138254
0.00411002
0.006345
0.0303042
0.0105015
-0.0590169
0.0241185
0.0303273
7.87398
-0.0161062
-0.0352051
0.00639781
0.0144729
7.61121
0.0153199
0.018157
0.0546961
0.0218367
0.0277848
7.64261
0.03845
0.027156
6.88205
0.0390927
0.0115327
7.72195
0.0139848
7.71349
7.62734
0.0164275
-0.0374125
0.0152565
0.0292353
7.62716
0.0365314
-0.0138865
7.63163
0.0415795
0.0280563
0.0311216
0.00967735
7.75295
-0.00831165
-0.0030585
0.0290722
7.70496
0.0547135
0.0238666
0.0187706
0.0359158
0.0248884
7.90283
7.46424
7.0708
0.0270858
7.19934
0.0392686
0.0242744
0.0274209
7.84411
0.0241627
7.66497
7.87459
7.81735
0.0360418
-0.0123643
-0.176378
0.0238055
0.0456433
7.51876
6.8873
-0.0140168
-0.0203397
0.0449384
-0.135818
0.0358782
-0.361554
7.87675
5.74484
5.85813
7.62419
5.93321
0.0184033
7.87369
0.0478594
0.0117396
0.0387992
0.0162456
0.0337894
6.32858
0.0113623
0.0241076
0.00621945
-0.0170891
6.36974
7.87557
0.00127788
0.027778
-0.265337
-0.51195
-0.0790541
-0.121828
-0.229475
-0.166177
0.0485692
0.0115061
0.0385286