/*--------------------------------*- C++ -*----------------------------------*\
  =========                 |
  \\      /  F ield         | OpenFOAM: The Open Source CFD Toolbox
   \\    /   O peration     | Website:  https://openfoam.org
    \\  /    A nd           | Version:  10
     \\/     M anipulation  |
\*---------------------------------------------------------------------------*/
FoamFile
{
    format      ascii;
    class       surfaceScalarField;
    location    "16.5";
    object      phi;
}
// * * * * * * * * * * * * * * * * * * * * * * * * * * * * * * * * * * * * * //

dimensions      [0 3 -1 0 0 0 0];

internalField   nonuniform List<scalar> 
214403
(
-0.00340411
0.00261033
0.000144355
0.000649429
-0.00169086
-0.00569593
0.00048348
0.00690331
-0.00519218
3.49902e-05
-7.18029e-05
0.00522899
0.00447766
-0.00301098
-0.00750549
0.00603882
0.00622569
-0.00786974
0.00187644
-0.000232389
-0.00273975
0.0028533
-2.7078e-05
-8.64691e-05
-0.000431498
-0.000820159
-0.00467199
0.00592365
-0.00864678
0.00491644
-0.00129398
0.00502431
-0.0117842
0.00831862
0.00839759
-0.00493198
0.00720848
0.00085488
-0.00805468
-8.67879e-06
0.0025528
-0.00505535
0.00103873
0.00146383
-0.00524142
0.00164964
0.00271443
0.000877353
0.00024197
-0.00579523
0.00697765
-0.0014244
-0.00506128
0.00509564
-3.43599e-05
0.000971505
0.0060506
-0.00775263
0.00073052
-0.00613534
0.00513099
0.00155417
-0.000549824
-0.00617053
0.00602267
0.000147854
0.00199561
4.08412e-07
-0.000529126
-0.00146689
0.0079415
-0.00475364
-0.0105594
0.00737157
-3.84312e-05
-0.00157611
4.56194e-05
0.00156892
0.00324847
-0.00317161
-7.68549e-05
-0.00627904
-0.00217236
0.00216016
0.00629124
-0.00115743
0.0069072
-0.00556807
-0.000181691
0.0034172
0.000360338
0.00119368
-0.00497122
-0.00522063
-0.00249355
0.00675127
0.000962914
0.00464651
-0.00588463
3.64349e-05
0.00120168
0.0016406
-0.00143092
0.00535866
-0.00556833
0.003873
0.00506467
-0.00610286
-0.0028348
0.00566202
-0.00355229
-0.000160466
-0.00194926
-0.00296812
0.00302522
-5.71005e-05
0.00124562
-0.00258442
0.00687267
-0.00553387
0.00718402
0.00033971
-0.00125417
-0.00626956
-0.00285018
-0.00292597
0.00299678
0.00277937
-0.000610829
-0.00344367
0.00305003
0.00100446
0.00226227
-0.00158743
-0.00479017
0.00411534
-0.000871642
0.00434823
-0.00157094
-0.00190564
0.00813516
-0.000190235
-0.00794492
-0.00350757
0.00684143
-0.00333387
0.000635864
-0.00749148
0.0043326
0.00252301
0.00124872
-0.000501612
0.00305261
-0.00379972
0.00290887
-3.08141e-05
-0.00287806
0.00519753
-0.000109902
0.000918637
-0.00600627
-0.00660747
0.000828698
0.00702749
0.000435767
0.000450231
0.00436992
-0.00525592
-0.0020735
-0.0136301
0.0132054
0.00249815
0.00287861
0.000522798
0.000648862
-0.00405027
0.00214522
0.00163177
-0.00524897
0.00147198
0.00679216
0.00407137
-0.00744633
0.000614249
0.0057485
-0.00116522
0.000919075
-0.00343903
-0.00202805
0.004548
0.00157052
0.00241591
0.00071793
-0.00470436
0.000942024
-0.000706798
-0.00218137
0.00194614
0.00347792
-0.00629274
0.00438534
0.00603242
-0.00568018
-0.00194898
0.00159673
0.00538083
-0.000983827
-0.00435862
0.00590839
-0.000250563
-0.00129921
0.0044919
-0.00574344
6.44201e-05
0.00118712
-0.00422132
0.000279112
0.00674575
-0.00280354
-0.00778723
-0.00731431
0.00614389
0.00895766
-0.00415843
0.00418378
0.00082322
-0.000848577
0.000654084
-0.00531412
-0.00433187
-8.95284e-05
0.00225129
0.00217011
-0.00683268
0.00293093
0.00442469
-0.000522945
0.00798124
-0.00642641
0.000409584
-0.00196441
0.000366542
0.000134366
-0.00528901
0.0047881
0.000262377
-0.00144826
0.00715251
-0.00596663
-0.0176498
0.00183185
0.00194409
0.0138738
-0.00162789
0.0047993
-0.00152401
-0.0016474
0.00236403
-0.00124203
-0.00504915
0.00392715
0.00056476
0.00352303
-0.00447892
0.000391128
-9.07064e-05
0.00431354
0.00149552
-0.00571835
-0.00086184
-0.000138369
-0.00177763
0.00277784
-0.00456473
0.00498812
-0.000189082
-0.000234309
0.000159868
-0.00462852
-0.00321755
0.00285003
0.000864657
-0.000497137
-0.00859461
-0.000536839
0.00419206
0.00493939
-0.00260566
-0.00111013
0.0022172
0.00149859
0.00381221
-0.0127855
0.00177237
0.00720096
-0.00200132
0.00402822
-0.00219995
0.000173047
0.00289299
-0.00224487
0.000287592
-0.000935708
6.86554e-05
-0.00538904
0.00532038
1.59067e-05
0.00438253
-0.00439843
0.00387549
-0.000757805
0.000513387
-0.00363107
-0.00229881
0.00327886
0.00108763
-0.00206767
-0.00163004
0.00693036
-0.00166522
-0.00363511
0.00327156
-0.00557618
-0.000213859
0.00251847
0.00374492
0.00397284
-0.00771775
0.0055238
-0.00620898
0.00159121
-0.000906038
0.00053242
-0.000996354
0.00721635
-0.00675241
0.00020917
-0.00117141
0.00520637
-0.00424414
0.00123483
0.0108691
0.003127
-0.0152309
-0.00948982
0.00835162
0.00540988
-0.00427168
0.000437283
0.00334829
-0.00450205
0.000716475
0.00444465
0.00493989
-0.00162014
-0.0077644
0.00823201
-0.00500189
-0.000164584
-0.00306553
0.000359001
-0.00105155
-0.00330125
0.0039938
-0.00334604
1.93788e-05
0.00332666
0.00500534
0.000173229
0.000345237
0.00622185
0.000526496
-0.00944686
0.00269851
-0.00498614
0.00109996
0.000886439
0.00299974
-0.00315265
0.000781645
0.000387379
0.00198362
0.000774921
0.000555677
-0.00657616
0.00524557
-0.0013553
-0.00788553
0.00502713
0.0042137
0.00314778
-0.00372197
-0.00242732
0.00300151
0.00510329
-5.61976e-05
-0.00510295
5.58538e-05
0.00391462
-0.00552149
-0.00192896
0.00353582
0.010117
-0.00306052
-0.00157637
-0.00548015
0.00573494
-6.89438e-06
-0.00527925
-0.000448802
-0.00288131
0.00339239
0.00706853
-0.00757961
0.00617969
-0.00216386
-0.00594522
0.00192939
0.00113677
-0.00165849
0.0072205
-0.00669878
-0.00818108
0.00746047
0.00706495
-0.00634434
0.000368725
-0.0063566
0.00245338
0.00353449
0.00795478
-0.000421886
-0.00016158
-0.00737131
0.00558511
-0.00109009
0.00107996
-0.00557498
-0.00652246
-0.00592843
0.00701845
0.00543245
-0.00122758
0.00352506
0.000955089
-0.00325256
-0.00279064
0.000152036
0.0054099
-0.00277129
-0.00062034
0.00700156
-0.00651769
0.000136473
-0.00599442
0.00556651
0.00108405
-0.000656137
-0.000199356
-0.00349742
0.00834329
0.00111557
-0.00371933
-0.00271328
0.00531704
-0.00296053
3.88722e-05
0.00292166
0.000905526
0.00411883
-0.00380989
-0.00121447
0.00655721
-0.00378116
-0.00100572
-0.00177032
4.33508e-05
-0.00192518
0.00188183
-0.00370186
-0.000995977
0.00138694
0.00331089
0.000380211
0.00209782
-0.00470664
0.00222861
0.00797725
-0.000720211
0.00311829
-0.0103753
0.000578051
-0.000709347
-0.00970828
0.00983958
0.00063104
-0.00277067
-0.00368304
0.00582267
0.000233331
0.0050535
-0.000281497
2.04959e-05
-0.00296557
0.00294507
0.00617523
-0.0022858
-0.00277387
-0.00374493
0.00313131
-0.00308823
0.0067907
-0.00565207
-0.000683551
-0.000455083
0.000682408
-0.00322745
0.00141071
0.00113433
-0.00555457
-0.0016811
0.00112806
0.00610761
0.0046169
-0.00750835
0.00497647
-0.00208501
-0.000203774
0.00678745
-0.00679753
0.00021385
-2.21507e-05
0.00618795
-0.00613374
-3.20616e-05
-0.00864654
0.00689765
-0.00553498
0.00728387
0.00720963
-0.0069732
-0.000236427
-0.00658438
0.00881823
-0.00161456
-0.000619294
-0.00588115
0.00141382
-0.000442479
0.00490981
-0.00970884
0.000742742
0.0062521
0.00271399
0.00172784
-0.00235989
0.00131446
-0.00236625
0.00269062
0.00432942
-0.00465379
-0.00258884
-0.00116167
0.00148089
0.00226961
-0.00349367
0.00228692
-0.00441818
0.00562494
0.0010502
8.64912e-05
-0.00772107
-0.00343975
0.00343234
7.41596e-06
0.00378491
-0.00363913
-0.000145778
-0.00568661
-0.000372389
-0.00151274
0.00140468
-0.00749051
0.00871884
-0.00263302
0.00336822
0.00579775
-0.0073711
-0.00179488
0.00643263
-0.00698706
0.000187123
0.000367302
0.00343433
0.000894837
-0.00355137
-0.000777799
-0.00542356
-0.000299265
0.00712751
0.00310994
-0.000225333
-0.00379068
0.000906075
0.00350077
-0.00299721
0.00345236
-0.00395591
-0.00612381
0.00115019
0.00834184
-0.00207055
-0.00290498
0.00958759
-0.00461206
-0.00295749
-0.00325613
0.000790054
0.000880747
0.00233836
-0.00617659
-0.00420249
-0.0003702
0.00675037
-0.00217768
0.000650719
0.00103087
0.00373331
-0.0054149
-0.00199866
0.00489241
-0.00289376
0.00157919
-0.00757386
0.00273853
0.00450751
0.00314985
-0.00677661
-0.0063963
7.72175e-05
0.00797077
-0.00165169
0.00107577
0.000920003
0.00287926
-0.00487503
0.00430854
-0.00434019
3.16462e-05
0.0016187
-0.00061098
0.00543245
-0.00644017
0.00567573
-0.0017981
0.00272843
-0.00660605
0.0104157
-0.00334448
0.00776932
-0.0148405
0.00171496
0.00318713
-0.00132736
-0.00357474
-0.0046983
0.00193058
0.00246595
0.000301761
0.00338548
-0.00255171
-6.9304e-05
-0.00076447
-0.00219789
-0.00278957
0.00812037
-0.00313291
-0.00377678
0.0048999
0.00195716
-0.00308028
0.00568281
-0.000310372
-0.00187166
-0.00887362
0.00586719
-0.000487244
-0.00844392
0.00778931
0.00361734
-0.00296273
0.00538556
-0.00607141
-0.000875783
0.00156164
0.00305747
-0.00551709
-0.0028961
-0.0031375
-0.00288052
0.00162718
0.00439084
-0.00448628
0.00139357
0.00442524
-0.00133253
0.0051779
-0.00492788
-0.00338968
0.00313965
3.13888e-05
-4.47903e-05
-0.00484533
0.00485873
0.000119053
-0.00428365
-0.000162
0.0043266
-0.0012248
-0.00725028
0.00114028
-0.00419848
0.00377723
-0.000719028
-0.00287049
-0.00121073
-0.000405058
-9.77302e-05
0.00720352
0.000102691
-0.017166
0.0120727
0.00872602
-0.0036327
-0.00507402
0.000345692
0.000186388
0.00454194
-0.00100826
0.0160477
-0.0188822
0.00384273
0.000799288
0.00123263
-0.00276706
0.000735138
-0.0108556
0.005845
0.000755934
0.00425465
-0.000126905
-0.00722016
-0.00102641
0.00837348
-0.00300597
0.0108775
-0.00753557
-0.00033595
0.00487855
0.00709211
-0.00655357
-0.00541709
-0.00581919
0.00554684
0.00688471
-0.00661236
0.0022506
0.00314554
-0.00391769
-0.00147844
0.00225217
-0.00151991
-0.00360275
-0.0115531
-0.000453792
0.00943937
0.00256752
0.00338162
0.000518231
-0.00196927
0.00349028
0.00467129
-0.0043135
-0.00384807
-0.00577321
0.00128737
0.00563154
-0.0011457
0.000685836
0.00181147
0.00632093
-0.00671977
0.0066374
0.000641584
-0.000559214
0.00412618
0.00323967
-0.00292343
-0.000115517
-0.00082247
0.00386142
-0.00444087
-0.000885323
0.00246676
-0.00855894
0.00363831
0.00245386
0.000259109
0.00460588
-0.00511077
0.000245783
-0.00178012
0.000343855
-0.00165485
0.00309112
0.00714867
-0.00511106
0.000214559
-0.00403835
-0.00315354
0.00425001
0.00294188
0.0152518
-0.0163194
0.0053331
-0.00426554
-0.00292176
0.00363061
0.00146228
-0.00217113
-0.00670274
0.00291282
0.00584462
-0.00205469
-0.00290695
0.00422523
0.00542663
-0.0067449
0.00815738
-0.00315903
-0.00540138
0.00040303
0.000141842
-0.00198501
0.0048298
-0.00298664
-0.00083996
0.000833505
-0.00638984
0.00585473
0.0019025
-0.00626947
-0.00148776
0.00735291
-0.00603107
-0.00162111
0.00155118
0.00229314
-0.00542141
0.00157709
-0.00301451
-0.00552544
0.00491322
0.00362673
-0.000920822
-0.00239184
-0.000725687
0.00299554
-0.0032037
0.00689342
-0.00668526
0.000728343
-0.00840049
0.00767215
0.00286743
-0.00374696
0.0024307
0.00154377
0.000898943
0.00126714
-0.00370985
-0.000148005
-0.00698216
0.00713017
-0.00379104
0.000502827
-0.00123028
0.0045185
-0.000455424
0.00527513
-0.00480826
-1.14499e-05
-0.00358239
-0.00189747
0.00207346
0.00340639
-0.00133469
-0.00316852
-0.00294874
-0.00432634
0.00360926
0.00366582
0.000155381
-0.00443881
0.00767942
-0.00315709
-0.000408629
-0.00411371
0.00406459
-0.000388731
-0.00296533
-0.000710525
-0.000656036
0.00573141
-0.00715559
0.00208022
0.0037026
0.000141643
0.00180259
-0.00564684
-0.000135239
-0.00304094
0.00146722
0.00170897
-0.00210224
0.00273793
0.00529079
-0.00592649
-0.00745274
-0.00193576
-0.00208857
0.00689176
-0.00635816
0.000148927
0.0019943
0.00421494
0.000612665
-0.00225578
-0.00402281
0.00566592
-0.00290575
-0.00567302
0.00143098
0.0071478
-0.00266956
-0.00296068
0.00308204
0.0025482
-0.00690107
0.00664197
0.0070005
-0.00674141
-0.000927731
-0.00161962
-0.00489156
0.00743891
-0.00667856
0.00068748
0.006797
-0.000805921
-0.00116971
0.00313726
-0.00196755
-0.0027104
0.00500827
-0.00377229
0.00147441
-0.000116582
0.00903169
-0.00335319
-0.00556191
-0.00323049
-0.00156278
0.00649011
-0.00169684
0.00104659
-0.00274018
0.0062158
-0.00452221
0.000283474
0.00401992
-0.000704244
-2.42702e-05
-0.00662987
0.00662882
2.53174e-05
0.00751105
-0.00132995
-0.0109787
0.00479764
-0.00693911
-0.000679658
0.0086637
-0.00104494
-0.00377027
0.00569574
0.000468078
-0.00239355
0.0033743
-0.00333341
-4.08867e-05
-0.00402313
0.000388587
-0.00347349
0.00710804
-0.00582929
0.00803287
-0.00167526
-0.000528325
0.00362518
-0.00152051
-0.00436943
0.00226476
-0.00702149
0.00708603
-6.45377e-05
0.00576039
-0.00838004
0.000680766
0.00193888
-0.00654719
-0.0017909
0.0111966
-0.00285846
0.00482199
-0.000204352
-0.0010121
-0.00360553
-0.00272897
-0.00466639
0.0103909
-0.00049545
-0.00686592
0.00415766
0.0108401
-0.0120924
-0.00114957
0.00240181
0.00289478
0.00137858
-0.0031976
-0.00304105
0.00316932
-0.000128267
-0.00123665
0.00690769
-0.000437708
-0.00523333
-0.00150753
0.00178812
0.00602099
-0.00630158
0.00391733
0.00919916
-0.00538258
-0.00773391
0.00670503
-0.00804431
0.00255727
-0.00121799
0.00613779
8.47021e-05
-0.00622249
0.000112238
0.00597985
-0.00609209
0.00671178
-0.00812336
0.00717198
7.71541e-05
-6.26975e-05
0.00523058
-0.00524503
0.000133471
0.00952375
-0.00949105
-0.000166171
-0.000811349
-0.0024079
-0.00486446
0.00808371
-0.00297616
-0.0017787
0.000597346
0.00563745
-0.00981989
0.0035851
-0.00477392
-0.00125182
0.00511834
0.000907404
-0.00561194
0.00619601
-0.00165619
0.00107212
0.000887216
0.00462606
-0.00157345
-0.00393983
-0.00227013
0.000573429
0.00383113
-0.00213443
-3.6436e-06
0.00171006
-0.00214301
0.000436586
-0.00239548
0.00585385
-0.00337349
-8.48812e-05
0.00175793
-0.00554199
-0.00323744
3.85119e-05
-0.00516946
0.00513095
-0.00190696
-0.00182917
0.00084926
0.00288686
0.00288969
-0.00166738
-0.00122231
0.00721952
-0.00716874
-0.00146365
0.00141287
-0.000657153
-0.00426475
0.00393095
0.000990952
-1.75337e-05
2.39319e-05
0.00385769
-0.00386409
0.0019206
-0.00157727
-0.00610663
0.0057633
0.00444159
-0.000114093
-0.0043275
-0.00652299
-0.00422165
0.00629342
0.00445122
0.00380269
0.00596812
-0.0102663
0.00361712
-0.00130112
0.00203585
-0.00435185
-0.00144854
0.00143059
-0.00796095
0.0079789
0.00225844
-0.00444756
-0.00432614
0.00651526
-0.00045486
-0.00102504
0.00483452
-0.00335462
0.0033675
-0.00413967
0.00150032
-0.000728142
0.00183193
-0.0030371
-0.00293546
0.00414063
-0.00594027
0.00669229
-0.00178489
0.00103287
0.00673495
0.00867003
-0.00954275
-0.00586223
-0.00523384
0.00520879
2.50537e-05
-0.000580504
0.00616019
-0.00770397
0.00212429
0.000238761
-0.000388979
-0.00592793
0.00607815
0.00584109
0.000245964
-0.00672099
0.000633933
-0.00247799
-0.00418822
0.00526683
0.00139937
-0.00598429
0.00847942
-0.00300339
0.000508252
-0.00248617
-0.00303374
0.00180058
-0.000368693
-6.14679e-05
-0.00427066
0.00470083
-0.0139632
6.02952e-05
0.00125579
0.0126471
0.000553307
-0.0035559
-0.00184016
0.00484275
0.00869719
-0.000715162
-0.00281493
-0.00516709
-0.00155816
-0.00335917
0.000657319
0.00426001
0.00244539
-9.51082e-06
-0.00243588
0.00408548
0.0021774
-0.00135598
-0.00490691
0.00316641
-0.00251113
0.00625312
-0.00690839
0.000206126
0.00651166
-0.00214964
-0.00456815
0.00157772
0.00225012
0.00486935
-0.00313576
0.000219198
0.00291657
-0.00405438
0.000572238
0.00107707
0.000680215
-0.00561304
0.00385576
-0.00529122
0.00774247
0.00234538
0.00800251
-0.00169676
-0.00865113
-0.00508551
0.00499863
-0.00790733
0.00799421
-0.000768401
-0.00384928
0.00134663
0.00327105
-0.00423422
0.00797914
0.0023652
-0.00275424
0.000618094
-0.000229058
-0.00260585
-0.0083307
0.00260663
0.00832992
0.00548142
-0.00547095
-4.8631e-05
3.81629e-05
0.00441713
-0.00516202
0.00110151
-0.000356622
0.00113523
0.00443485
-0.00790656
0.00233647
1.95365e-05
0.00383168
-0.00385122
0.00247007
-0.00633751
0.00500267
-0.00238618
0.00641362
0.00540208
-0.00942952
0.00182388
-0.00185821
-0.00864468
0.00867901
-0.00259844
0.00430866
-0.00864748
0.00693726
-0.00622028
0.00495254
0.00649148
-0.00522374
-0.00390274
0.00534858
-0.00345568
0.00200984
-0.000816709
0.00355796
0.000578315
-0.00331957
0.00181606
-0.00264793
0.00273142
-0.00189955
0.00340319
0.00126719
0.00111905
-0.00578943
0.0097358
-0.0066148
-0.000397116
-0.00272388
-7.03057e-06
-0.00473469
0.00474172
0.00294339
-0.00431136
-0.013215
0.014583
-0.000593213
-0.00640873
-0.00194298
0.00894493
-0.000392387
-0.00296812
0.0033605
0.000901539
0.00426468
-0.000678034
-0.00448819
-0.00119488
-0.00431343
0.0034806
0.00202771
0.00331031
-0.00277189
-0.00487028
0.00847457
-0.00659772
0.00186494
0.00197515
-0.00384009
0.00639588
-0.000187992
-0.000778507
-0.00542938
-0.00122588
-0.00208487
0.00331075
0.00229741
0.0015267
0.0127764
-0.0153639
-0.00542928
0.00801683
0.00197297
0.00420317
-0.00321475
-0.00296139
-0.00448679
0.00857845
0.00570655
-0.00979821
0.005047
0.00175149
-0.000675702
-0.00612278
0.00837514
-0.00558466
0.00360438
-0.00639486
-0.0046929
0.00214357
-0.00587989
0.00842922
-0.00761416
0.0136475
-0.00534639
-0.000686984
-0.000200931
-0.00327497
-0.00450679
0.00798269
0.00620144
0.00256017
-0.00727437
-0.00148725
0.00330882
-0.00881834
0.00556357
-5.404e-05
-0.0078111
-0.000295714
0.00511103
0.00299579
-0.00156855
0.00404978
0.001761
-0.00424223
-0.000994861
0.00398901
0.00320743
-0.00620157
-0.00812781
0.00417939
-0.000397962
0.00434638
0.000750326
-0.00222434
0.00441059
-0.00293657
0.00344312
-0.00172786
0.00122853
-0.00294379
0.00334858
0.0006443
0.000325435
-0.00431832
-0.00495742
0.00531968
0.0019693
-0.00233156
-0.00116807
0.00626287
0.000126879
-0.00522167
0.00504343
-0.00295978
-0.00195562
-0.000128033
0.00439475
3.47878e-05
-0.00442954
0.00320362
0.00248058
-0.00056245
-0.00512175
0.00149313
0.0039446
0.00337628
-0.00881401
-8.08472e-06
-0.00708696
0.00709504
-0.00369443
0.0143101
-0.00208713
-0.00852852
-7.10306e-05
0.00534526
-0.00527423
-0.000356669
-0.00384938
0.000692406
0.00351364
-0.00694563
0.00354069
0.00268569
0.000719258
0.00141495
0.00117727
-0.00811842
0.00552619
0.00415742
0.00656689
-0.00245442
-0.00826989
0.00626068
-0.00214099
-0.00599274
0.00187305
-0.00781504
0.00445464
0.0119212
-0.00856084
-1.96169e-05
0.00298216
-0.00298193
1.93861e-05
-0.00308792
0.00305584
3.20727e-05
-0.00795449
0.000122768
0.00334492
0.000885848
0.00191651
0.00524771
-0.00805007
0.00416235
-0.00495035
0.00319236
-0.00240436
-0.00395988
0.00346853
-0.00013084
0.000622189
-0.000830803
-0.00652577
0.00835284
-0.000996263
-0.00290706
0.00139953
0.00460375
-0.00309622
0.00505945
-0.00195166
0.000748853
-0.00385664
-0.00338143
-0.00059042
0.00396007
1.17759e-05
-0.000575233
-3.06931e-05
0.00546285
-0.00485693
0.000702076
-0.000589058
0.00550727
-0.00562029
-0.00495185
0.00691513
-0.00724355
0.00528027
2.51787e-05
-0.00624535
0.00622017
-0.00221756
0.000196068
0.00559136
-0.00356987
-0.0042711
0.00499332
-0.00680989
0.00608766
-0.00438286
0.000334112
0.00133547
-0.00202011
0.00548056
0.000305873
-0.00376632
-0.00146395
0.000205091
-0.00248607
-0.00215532
-0.00700514
0.00703662
0.00212383
-0.00312131
-0.000364465
-0.00078598
0.00427176
-0.0106804
0.0036064
0.00105147
0.00602251
-0.00340484
0.00776537
-0.00384388
-0.00051665
0.00237647
0.000927437
-0.00476785
0.00467414
0.00476762
-0.00944175
0.000630832
0.0102163
-0.002372
-0.00847512
-0.000128639
-0.000181631
-0.00448744
0.00479771
-0.00490159
0.00807453
-0.00325659
8.36534e-05
0.00465651
-0.00294091
-0.00422061
0.00250501
0.00115763
-0.000155316
0.00141691
0.0071624
0.00199622
-0.010367
0.0012084
-0.00496443
-0.000648133
0.0016269
0.00398566
0.00188596
-0.00208585
-0.00283385
0.00861134
-0.00579369
0.00450362
-0.00732127
-0.00095553
0.00556383
-0.00962198
0.00501368
0.0033526
-0.00423427
-0.000430125
0.00131179
-0.00371156
-0.00129303
-0.000125277
0.00512987
-0.00276988
-0.00261872
0.0053886
0.000691348
-0.00740056
0.00656685
0.000142369
0.00284887
-0.00274824
-0.00287051
-0.00465091
0.00590256
-0.00112237
-0.00012928
0.00664614
0.0018307
-0.00716382
-0.00131302
-0.00256533
-0.00376249
-0.000434354
0.00676218
0.00418841
-0.00127545
0.00485525
-0.0077682
-0.00469307
-0.000258774
-0.00563353
0.00301481
0.000724407
-0.00630807
0.00201866
0.003565
0.00182595
-0.00654228
0.00360349
0.00111284
0.000981348
0.000255382
-0.00491846
0.00368173
0.000752951
0.00322363
-0.000216208
0.00549347
-0.00108538
-0.00419189
-0.00215827
-0.000218182
-0.0020124
0.00438885
-0.00127421
-0.00171583
0.00328093
-0.000290886
-0.00514516
-7.54713e-05
-0.0086888
0.00311983
0.0045741
0.0122992
-0.000101237
0.00167345
-0.0138714
-0.0053867
0.00836716
0.0016986
-0.00467906
-0.00153729
0.000842419
0.00530278
-0.0046079
0.000644379
0.00183093
-0.00141573
-0.00105958
-0.009256
-0.00191648
0.00798392
0.00318856
0.000201044
0.00388957
-0.000780303
0.000118199
0.00196701
-0.00617442
0.0040892
-0.00383462
-1.38467e-05
0.00141345
0.00243502
-0.00521505
0.00644532
-0.00102922
0.00294988
-0.00265993
-0.000289953
-0.00436371
0.000627735
-0.00338572
0.0071217
-0.00196514
0.00295865
-0.0022803
0.00128678
-0.00422464
0.00475728
-0.00196559
0.00143295
0.00190926
-0.000316037
-0.00454486
0.00295163
-0.00188808
0.0118393
-0.0159355
-0.0017374
-0.00121229
0.00118671
0.00176298
0.00565445
-0.00882348
-0.000401532
0.00357056
-0.00239784
0.00178952
0.00308337
-0.00247506
-0.000708528
0.00378394
-0.00104506
-0.00203035
-0.00426142
0.000945813
0.000995319
0.00232029
-0.00236036
0.000203231
0.00215713
0.00548959
-0.00261321
-0.00278738
-8.89988e-05
0.000397757
0.00271473
-0.00412042
0.00100794
-0.00294056
-0.00356668
0.00363655
0.00287069
-0.00151297
0.00390611
-0.00334887
0.000955727
0.00141766
-0.00268412
0.00184976
-0.000583293
0.00512736
0.000135733
-0.00526309
0.00440698
-0.00542406
0.00268389
-0.00166681
-0.00692875
-0.000192637
0.00712139
0.00285732
-0.00236893
0.000553191
-0.00104158
-0.000221327
0.00491126
-0.0053625
0.000672568
-0.00247016
0.00309186
0.000795961
-0.00271531
0.0058189
0.00537583
-0.00467174
0.00463238
3.93599e-05
9.73616e-05
-0.00741244
0.00731507
0.00992813
0.00119847
-0.00211299
-0.00901362
0.0020772
-0.00809543
-0.00100537
0.0070236
0.00157882
0.00187301
0.00105092
-0.00450275
-0.00278444
-0.00278354
3.85099e-05
0.00552948
-0.00132932
0.00182244
-0.00327756
-0.00613661
0.00110601
0.00805524
-0.00302463
-0.0120552
0.00883101
0.00388263
-0.000658438
0.00534274
4.48665e-05
-0.0053876
-0.00301133
-0.00405281
0.00262167
0.00444247
-0.00303863
-0.00441704
0.00131905
-0.00437921
0.00238076
0.0027514
0.00176856
-0.00232013
-0.0042064
0.00475797
-0.00300559
2.88322e-06
0.0030027
-0.00699486
0.00282693
0.00287512
0.00129281
0.00176564
-0.00472173
-0.00142312
0.00599278
-0.00189895
-0.000151347
-0.00394249
-0.00401406
0.00665231
0.00394759
-0.00658584
-0.00117385
-0.00246527
0.000900675
0.00273844
-0.00170499
-0.00137231
0.0030773
-0.00296754
-0.00623218
-0.00285547
0.00138235
1.88494e-05
0.0027896
-0.0041908
0.00569021
-0.00414082
-0.00599777
0.00444838
-0.00211041
0.000751963
0.00426544
-0.00290699
0.00402406
-0.00283317
-0.000399116
-0.000791772
-0.00461762
0.000749193
0.00360744
0.000260992
-0.00287537
0.00658906
-0.00711217
0.00277247
0.000205944
0.00413376
0.00665838
-0.00531667
-0.00418582
0.00284411
-0.00528484
0.00109998
0.00987507
-0.00514839
-0.00339403
0.00554105
0.00300138
-0.000604721
0.00537372
-0.00203719
-0.0027318
0.00030286
-0.00315281
-0.00207524
0.0049252
0.00610933
-0.00403063
-0.000247299
-0.0018314
0.00187985
0.0014047
-0.00461388
-0.00128521
0.0014559
0.0035874
-0.00375809
-0.00106115
0.00554889
-0.00684001
0.00235227
-0.00331106
0.000798343
0.000801861
0.00171086
-0.00730931
0.00743118
-0.000121872
0.00503894
-0.00496504
-7.38963e-05
0.00202
-0.00779993
-0.00299471
0.00877464
0.00179192
0.00340805
0.000792811
-8.6798e-05
0.00299645
-0.00290965
0.00477961
0.00428575
-0.00906536
-0.00531838
0.00324723
0.00229445
-0.000223298
-0.00298667
0.000984255
0.00242839
-0.000425979
-0.00888186
0.00414661
0.00486278
-0.000127533
-0.00290034
-0.00323018
0.00312494
0.00457608
-0.000720553
-0.00294936
-0.000906169
-0.00495668
0.00534806
-0.00326675
0.000858023
-0.00547017
-0.000279528
0.00489168
-6.2104e-06
-0.00269594
0.00270216
0.0132826
0.000107311
0.00141328
-0.0148032
-0.000496747
-0.00097227
-0.00716735
0.00863637
0.00231241
-0.00313191
-0.00146131
0.00228081
0.000890883
0.00688922
-0.00277858
-0.00500153
0.00751807
-0.00752223
-1.7859e-05
2.20184e-05
-0.00420612
-0.00379325
0.00592952
0.00206985
0.0024615
0.00189037
-0.00491028
0.000558404
3.35619e-05
0.00455076
-0.0046512
6.68734e-05
-0.00628878
0.00201246
0.00509594
-0.000819616
0.00483897
0.00292679
-0.00489922
-0.00286653
0.000112242
-0.0042848
0.0021743
-0.00112516
0.00646892
-0.00348154
-0.000453387
-0.000543245
0.00447817
-0.00580216
0.000318544
0.00548361
0.00846984
0.00366522
-0.00274933
-0.00938573
-0.0055345
0.000116806
0.00552994
-0.00050952
-0.00132803
-0.00338705
0.0052246
-0.000689346
-0.000658612
-0.00177855
0.00312651
0.00139643
-0.00707627
0.00533527
0.000344577
0.00440729
-0.00068695
-0.00428777
0.000567434
-0.0054518
0.00114451
0.000447755
0.00385953
-0.0020693
0.00135184
-0.00278426
0.00350171
0.00119253
0.000775438
-0.0070534
0.00508543
0.000245435
-0.00475994
-0.000331376
0.00484588
0.00472915
0.000617892
-8.05945e-05
-0.00526645
-0.00562497
0.00130903
0.00509086
-0.00405269
-0.00538421
0.00943691
0.00780611
-0.00397766
0.00167409
-0.00550253
0.00061163
0.00439241
-0.00269163
-0.00630242
0.00116961
0.00222293
0.00290988
0.00778299
-0.00801605
0.000233053
-0.00468335
-0.00159237
0.00327927
0.00299646
-0.00610442
-0.00474266
0.00318023
0.00766685
0.00639164
-0.00667465
-0.000816898
0.00109991
-0.000930542
0.00310091
-0.00244252
0.000272151
-0.00794806
0.00259432
0.00182505
0.00352869
-0.0117396
0.0146109
0.00242296
-0.0052942
0.00523341
-0.0113506
-0.000571328
0.00668857
-0.00465945
0.00590897
-0.0109522
0.00970269
-0.00490182
0.010816
0.00107058
-0.00698476
0.000430558
0.00510769
-0.00119392
-0.00434433
0.00778641
-0.00584266
-0.000194911
-0.00174884
-0.00136915
-0.00131564
0.00201003
0.000674768
-0.00368956
-0.007661
0.00653124
0.00481931
-0.00522482
0.00696447
0.00604676
0.00421207
-0.00309704
-0.00385755
0.00274252
0.00157228
-0.0020337
-0.000898459
0.00135987
0.00348625
-0.00344916
-0.00458932
0.00455223
-0.0014102
0.00404494
-0.000292528
-0.00234222
-0.00558828
-0.000891742
0.00691058
-0.00422826
-0.00103931
0.00522704
4.05184e-05
0.00171542
-0.00383241
0.00211699
0.001373
-0.00182253
0.00679786
-0.00634833
0.00531791
-0.00747432
0.00108137
0.00107505
0.00337909
-0.00364497
0.000265888
-0.00536725
0.000142436
0.00479679
-0.00182634
-0.00462784
0.00165739
0.00150896
0.00122411
0.0053597
-0.00809277
0.00329603
-0.0035782
0.000282169
-4.03148e-05
0.00417971
-0.0047252
0.000585807
-0.00587914
-0.000565814
0.00781795
-0.00254982
-0.000435727
0.000589467
0.00239608
0.000352213
-0.002908
0.00214417
0.000411616
0.00476759
-0.00456529
-0.00113284
0.000544823
0.00785135
-0.00494507
-0.0034511
-0.00270203
0.00572259
-0.00302056
-0.00729989
0.00279446
-0.00171424
0.00621968
0.00573605
-0.00519358
-0.00849053
-0.00278791
-0.00333962
0.0114709
-0.00534335
-0.00821518
0.0052341
0.00746275
-0.00448167
-0.000180732
-0.00702514
0.00720587
0.011113
2.16711e-05
-0.00640214
-0.00473256
0.00646491
-0.00416774
-0.000576229
-0.00172094
-0.00470542
0.00334326
-0.000848511
0.00221067
6.44422e-05
-0.00484474
0.0047803
-0.00355388
0.00365831
-0.00010443
-0.00256527
-0.00270877
-0.0069404
0.0122144
-0.00654487
0.00142911
-0.00072825
0.00584401
0.00151223
0.00245379
0.00673583
-0.00608102
-0.00502588
0.00437108
-0.00186766
-0.0038522
0.00424928
0.00147058
-0.00387454
-0.00196987
0.0058506
-6.18732e-06
0.00127004
-0.000731249
-0.00359756
0.00305876
0.00427476
0.000190055
-0.00546555
0.00100074
0.00131978
-0.000919556
0.00141077
-0.00170307
0.0016972
-0.00140491
0.00349262
0.00342154
-0.00349352
-0.00342064
0.00172378
0.00402902
-0.00416543
-0.00158737
0.00366535
0.00158818
-0.00287706
0.00451486
-0.00547572
0.00115091
-0.00600227
0.00419579
0.00225943
-0.000452946
0.00716064
-0.00236723
-0.00749545
-0.00191057
0.0050894
0.00255722
0.00496367
-0.00241868
-0.00418311
-0.00113909
-0.000680077
-0.00668072
0.00624723
0.000590185
-0.000156688
-0.000415363
0.00835638
-0.000865487
-0.00707553
-0.00545548
0.00111284
0.00243207
-0.000874299
-0.00554473
0.00155769
0.00486134
0.00498946
0.000694811
-1.70081e-05
-0.00566726
-0.0074561
-6.02544e-05
5.09257e-05
0.00746543
-0.00190819
0.00209362
-0.00338943
0.003204
-0.00513972
0.00649648
-0.000668205
-0.000688553
0.00676185
-0.00630975
-0.00559183
-0.0049842
0.0044985
-0.00142644
0.00191213
0.00404611
-0.000182474
-0.00127143
-0.0025922
-0.00756524
0.00729757
0.0035731
-0.00330543
0.00356317
0.00135726
-0.000452907
-0.00446752
0.00129631
0.00328533
-0.00410868
-0.000472949
-0.00243581
0.00245018
-1.43704e-05
-0.00142263
-0.00363145
0.00364387
0.00547705
-0.00542674
-5.0307e-05
-0.00309513
-0.00245616
0.00241938
-0.000317161
-0.00371821
-0.000401707
0.00443708
-0.000418712
-0.0032189
0.00287949
0.000758119
0.00509719
-0.0057969
0.000699711
-0.00649451
0.00665874
0.00610617
-0.00627041
-0.00436049
0.00336684
-0.00229117
0.00328481
-0.00173714
0.000742212
0.00157293
-0.000578
-0.000182146
0.00787602
-6.88818e-05
-0.00762499
-0.00396527
0.00192242
0.00195333
0.00226852
0.00288757
-0.00503803
-0.000118059
0.000218754
-0.00626612
-0.000245376
-0.00570693
0.00570513
1.79512e-06
-0.00381949
0.0019234
-0.00420833
0.001299
-0.00287452
0.000114207
0.00248935
0.00108073
0.00378187
7.3475e-05
-0.00323449
-0.000620855
0.00316675
-0.00790259
0.00633594
-0.00160009
0.00130562
-0.00177863
0.00661476
-0.00614175
0.00808876
0.00239253
-0.00124376
-0.00923754
-0.00207058
-0.00339981
-0.00110333
0.00657372
0.0024553
0.01022
-0.00922955
-0.00344573
0.00117633
0.00741338
-0.00715761
-0.0014321
-0.00256073
0.000337746
0.00524911
-0.00302613
-0.000894084
0.00727031
-0.00392092
0.00526466
-0.00415537
-0.0016235
0.000514213
0.00172998
0.00453
-0.00625998
0.00423105
0.000939571
-0.00056386
-0.00460676
-0.00389835
0.00311624
0.00031328
0.000468832
-0.000374561
-0.0055021
0.00032209
0.00555457
-0.00403178
-0.00051266
-0.000166663
0.00471111
0.00232933
-0.00516926
5.10705e-05
0.00203156
0.00308663