/*--------------------------------*- C++ -*----------------------------------*\
  =========                 |
  \\      /  F ield         | OpenFOAM: The Open Source CFD Toolbox
   \\    /   O peration     | Website:  https://openfoam.org
    \\  /    A nd           | Version:  10
     \\/     M anipulation  |
\*---------------------------------------------------------------------------*/
FoamFile
{
    format      ascii;
    class       volScalarField;
    location    "16.5";
    object      SgP;
}
// * * * * * * * * * * * * * * * * * * * * * * * * * * * * * * * * * * * * * //

dimensions      [1 -1 -3 -1 0 0 0];

internalField   nonuniform List<scalar> 
111485
(
5.02791e-10
0.000119404
2.79266e-05
6.41716e-11
8.45664e-06
3.1656e-08
1.50661e-05
2.43033e-07
1.06256e-05
2.86086e-06
2.54552e-05
9.01813e-07
6.8156e-06
0.294145
6.65873e-06
1.59293e-05
0.208163
0.00104731
9.05636e-07
4.78859e-08
0.0371858
3.07642e-09
3.15639e-06
1.11889e-05
4.06453e-05
3.48247e-08
5.20125e-07
1.43705e-05
1.06374e-06
0.0481097
4.23416e-06
5.01042e-07
2.17827e-07
1.44637e-06
0.000750863
9.10886e-05
0.136068
0.204877
0.00247604
8.75373e-07
0.0432284
1.22498e-06
2.94019e-06
0.000107704
1.88324e-05
1.58435e-06
6.50512e-06
4.35724e-07
6.20875e-06
4.27016e-07
1.09352e-06
1.72287e-05
4.61966e-07
9.39645e-06
1.5048e-06
1.91449e-07
2.74388e-06
4.34403e-08
4.96454e-05
3.87862e-07
5.71119e-07
2.64733e-07
8.48618e-05
6.98966e-06
6.44509e-06
2.13934e-05
0.000426342
2.34214e-06
7.17666e-05
0.000141443
4.95748e-05
8.69454e-05
1.12228e-05
9.16074e-05
4.61598e-08
1.82337e-06
1.5321e-08
7.22334e-07
2.74753e-08
3.1243e-05
0.279787
0.524077
4.65665e-08
5.20023e-09
1.62345e-05
3.78402e-05
0.142905
9.00481e-06
0.000246612
4.42278e-06
1.32281e-06
6.54796e-06
4.60003e-05
4.83539e-07
2.26697e-06
6.59934e-09
0.0270441
1.13261e-05
0.00152018
0.000573908
1.21876e-09
2.72259e-06
1.95088e-06
1.43404e-05
6.05646e-06
1.64173e-05
6.02074e-09
2.7911e-07
1.50151e-05
0.000724425
4.17906e-05
1.37004e-06
1.32504e-05
7.39988e-05
1.04366e-07
1.79727e-07
2.99169e-08
6.50641e-06
2.28625e-05
4.09794e-09
9.15927e-08
0.000190265
0.0747474
2.25041e-06
5.80206e-05
0.0279319
0.000107181
1.33309e-05
2.82203e-10
0.000320027
0.000137177
1.68927e-05
0.047168
0.000175155
7.83946e-05
8.11451e-07
9.24347e-10
3.13578e-07
9.70143e-06
2.44787e-05
7.09674e-05
3.92389e-07
0.179569
9.78406e-05
4.13411e-05
2.3824e-06
9.97588e-10
8.68288e-10
4.77722e-08
5.06404e-07
3.31571e-05
0.0285267
0.115033
1.39833e-05
3.63725e-05
5.65011e-07
5.63517e-06
0.000153236
0.000818885
5.43331e-06
9.24392e-10
7.40188e-07
3.97631e-05
7.41038e-05
6.44368e-05
3.83303e-05
7.22014e-06
0.0268869
0.00155563
0.000128211
1.5721e-09
1.51223e-08
0.197505
9.7681e-11
2.64887e-07
2.76498e-06
5.29668e-07
9.55535e-06
3.59635e-08
5.79941e-06
9.85803e-06
3.70233e-08
2.65774e-06
5.06531e-07
2.33798e-06
2.05296e-05
9.83254e-06
5.548e-05
0.000385334
1.78427e-07
5.41451e-05
5.68948e-06
7.12848e-06
3.75941e-05
5.05229e-06
1.1935e-05
2.12018e-06
1.38824e-06
8.46262e-07
8.80819e-06
2.95516e-06
0.00165388
8.04225e-05
9.25326e-07
1.82627e-06
4.07687e-06
1.23565e-05
1.17058e-05
1.80413e-05
2.63802e-06
5.5933e-06
9.83235e-06
8.67467e-06
7.47653e-09
6.99714e-05
0.000310939
4.22943e-07
7.09628e-09
1.18905e-05
1.76144e-05
8.65304e-07
8.32283e-08
1.61292e-05
1.64747e-05
0.000277537
6.86815e-09
4.64247e-10
3.11077e-05
0.00414903
2.35453e-05
9.31988e-05
1.38799e-05
2.33728e-06
0.145474
3.86003e-05
2.06462e-05
0.160265
4.64462e-08
6.12302e-05
2.20177e-05
2.69102e-05
3.2768e-05
4.8093e-06
3.8762e-06
0.00193212
1.10128e-06
7.78779e-06
1.05313e-08
5.32607e-06
0.135959
1.83094e-05
1.08882e-05
2.16548e-05
8.03446e-10
0.000191982
4.62548e-07
2.79389e-07
6.63546e-05
0.0994516
1.86205e-08
4.59392e-06
5.39448e-05
2.49326e-06
3.37772e-09
1.1867e-05
6.94029e-11
6.12304e-08
5.09313e-07
0.164825
4.32525e-06
3.23105e-05
1.34989e-06
0.176631
1.97678e-05
1.38716e-06
0.000250276
4.63598e-06
1.18565e-06
4.53042e-07
5.34727e-09
0.111707
4.264e-07
3.99819e-05
2.06265e-05
1.77729e-09
0.216852
0.264813
1.57539e-06
0.000317093
3.48185e-05
3.19523e-06
8.84297e-06
1.19851e-05
2.07878e-08
7.2532e-06
2.37789e-09
0.00035823
0.000275807
1.53515e-05
1.77553e-06
0.345241
1.78806e-08
0.0853904
9.98435e-07
7.6227e-06
3.20651e-09
1.15068e-07
0.0246114
4.70549e-06
1.53163e-06
5.91831e-06
0.000169798
7.49276e-07
3.04129e-05
3.05321e-08
3.51626e-08
5.37648e-06
0.00436034
0.249112
3.37135e-06
0.000780499
1.68174e-09
8.76335e-09
1.38212e-08
8.48098e-05
5.5406e-07
5.72716e-07
2.15652e-06
9.0761e-07
7.13956e-05
0.0607614
5.54181e-06
1.20353e-07
1.91336e-06
2.25547e-06
0.0479128
4.98756e-05
7.33252e-07
7.38222e-07
8.06705e-07
1.35223e-05
6.87921e-08
0.150454
0.000169627
8.39975e-07
3.14745e-06
0.000303346
4.65052e-07
0.0388265
5.27285e-07
1.07001e-05
6.12106e-06
3.95459e-07
1.99755e-05
9.05087e-06
1.96851e-07
5.43585e-07
7.12001e-07
1.75676e-06
0.360629
2.94716e-05
1.73711e-07
0.0525942
1.6345e-05
1.73718e-08
4.08339e-07
3.73712e-07
0.0469064
0.000621141
0.0458656
0.0492921
2.79989e-07
2.44909e-08
2.77404e-06
3.97775e-06
4.24864e-10
7.68593e-06
3.02073e-06
1.57428e-05
2.62872e-05
0.000140347
5.49019e-06
0.00070444
4.74653e-07
8.06421e-06
4.30045e-05
1.16672e-06
0.000670628
3.87222e-07
1.46958e-05
2.78378e-06
0.0301366
1.16283e-07
2.08297e-07
0.154104
4.71911e-06
0.30516
6.74372e-08
4.60204e-06
3.5324e-06
7.34441e-09
5.1966e-06
4.55101e-05
3.8208e-09
0.032018
3.2134e-06
2.84316e-06
4.47466e-07
2.59435e-08
0.000754545
3.79411e-09
1.03029e-05
3.60129e-06
4.10451e-10
1.10015e-06
3.8536e-05
0.245711
0.000134728
1.88929e-09
7.95213e-05
0.000102119
9.84262e-05
3.89732e-05
0.000629198
2.40303e-06
0.0011214
5.46678e-05
0.203928
0.000200609
4.58675e-08
7.1203e-06
1.05288e-06
2.03118e-07
0.0014236
0.000218934
8.33047e-05
1.48807e-06
1.40928e-06
9.56323e-06
3.66832e-08
0.349954
8.45485e-07
3.35251e-05
0.00438806
9.11909e-05
0.00127129
3.56924e-08
0.252496
0.330883
2.6049e-08
3.49594e-05
0.000261691
0.000103274
4.04031e-09
2.99819e-05
3.6696e-09
0.283853
7.20703e-05
2.10466e-05
0.000106754
2.10867e-05
1.8223e-07
1.71339e-06
4.99228e-07
6.91424e-05
1.55392e-07
5.97765e-07
0.052364
9.58147e-05
4.00887e-08
1.38626e-09
0.000383029
8.47547e-08
1.5881e-06
3.6038e-06
2.71296e-08
6.13296e-05
6.67521e-08
0.0741004
6.84776e-08
1.65691e-06
3.70299e-08
0.000237008
4.24907e-07
0.223209
1.94977e-05
0.235892
1.10711e-08
6.59575e-05
2.56736e-06
2.71871e-09
0.368121
0.14257
2.60149e-05
3.04925e-06
3.06018e-05
6.54781e-07
1.19238e-05
7.81421e-07
4.57113e-05
0.288546
2.48631e-08
2.37394e-06
0.000108408
1.7709e-05
0.0586371
5.61978e-06
0.000114726
2.44135e-06
1.3911e-06
0.00077964
0.0813793
1.76704e-05
2.2195e-08
1.31071e-06
3.44329e-06
3.53238e-06
1.13592e-06
1.95699e-05
1.72045e-09
0.00169854
1.625e-07
3.48886e-07
1.79137e-07
9.36742e-05
4.77675e-09
1.00049e-05
2.8047e-08
9.11112e-06
1.53725e-09
0.11581
0.114211
1.96718e-05
1.1735e-06
0.0647883
0.081041
4.84918e-08
2.6449e-07
1.52219e-05
4.32808e-08
0.000172085
1.7783e-05
1.0917e-05
0.0426196
1.66091e-06
2.55786e-09
4.67263e-05
4.17283e-05
6.18811e-05
1.65859e-06
1.57057e-05
1.04289e-05
1.19046e-06
9.69505e-07
2.10536e-05
3.28471e-05
2.57604e-09
0.126116
6.71305e-05
4.31859e-05
1.33891e-06
0.00117777
3.18501e-05
0.000462319
0.00301308
0.000384196
4.2029e-06
8.60324e-05
1.10476e-05
2.14056e-05
0.114523
0.00021082
7.41596e-05
0.00358517
0.0767365
3.19232e-08
6.55712e-05
4.55746e-06
4.06218e-05
3.57272e-07
0.000514674
0.0027463
0.000431758
0.00016644
2.63935e-05
2.33886e-06
5.36873e-08
0.000198573
3.43977e-06
2.90104e-08
6.06305e-10
5.40547e-08
3.23626e-08
9.9157e-06
1.89491e-09
0.0347268
1.27337e-05
2.51022e-05
0.0986684
0.318067
6.03196e-05
2.98851e-06
0.0371255
5.46883e-08
1.86305e-05
1.53259e-07
1.92564e-08
4.76702e-05
2.35482e-05
0.120759
2.62164e-05
1.64783e-07
2.69278e-06
2.8922e-05
0.143215
7.04806e-06
2.74016e-05
7.01109e-05
0.196348
0.041266
2.81003e-06
1.75327e-05
5.95392e-06
2.3929e-06
5.90373e-06
1.08949e-06
3.17399e-05
4.1483e-06
2.14971e-06
1.13828e-06
4.32578e-06
0.000658506
3.2673e-05
4.21631e-06
4.9908e-06
0.000658028
4.06556e-07
5.14817e-07
1.78938e-05
3.05806e-06
1.64457e-05
3.07053e-06
3.25171e-06
3.38696e-06
3.2237e-05
0.000196536
1.25412e-05
1.82901e-05
3.10301e-06
4.65284e-07
4.43442e-05
4.45167e-06
3.94707e-09
0.0772367
1.64615e-08
0.136401
5.8897e-05
0.0117743
8.09626e-08
0.0292923
1.43049e-06
1.12443e-05
1.34921e-09
7.18078e-06
3.00706e-07
1.63419e-08
8.16798e-07
0.281629
0.000129544
2.95616e-05
0.0411553
1.02115e-07
2.58057e-09
3.78353e-06
1.88342e-06
8.34786e-05
5.30322e-07
0.000128011
6.42451e-08
7.31599e-06
0.000124444
0.167535
7.98523e-10
4.70744e-09
3.38758e-06
8.3291e-07
0.000132496
4.53425e-07
0.0626869
1.19709e-06
2.59394e-08
1.22791e-07
0.0452856
6.4935e-06
0.000138891
6.04464e-10
0.0050224
0.00104875
0.181463
1.61053e-08
1.92462e-08
3.61747e-06
2.27649e-05
3.94922e-05
0.000585389
0.000329047
0.000256843
4.94324e-06
0.0631359
2.65172e-05
8.10715e-07
6.78255e-08
1.19772e-06
1.33512e-08
9.55375e-09
7.61439e-08
9.21134e-10
3.29098e-06
7.12879e-08
1.91469e-08
3.34513e-07
1.94047e-07
1.65851e-06
1.0678e-07
5.79308e-07
2.72746e-07
1.4848e-05
1.67338e-05
2.69638e-08
7.15761e-09
2.21243e-05
6.76941e-10
9.05733e-05
2.08617e-06
5.13303e-06
1.25448e-07
1.58687e-10
9.4224e-10
1.5403e-09
1.54881e-05
1.89888e-08
6.56731e-08
2.09493e-05
4.84344e-09
1.39203e-05
8.2236e-05
2.35075e-06
1.71017e-06
0.000526569
4.57931e-06
0.251208
0.000110712
8.25016e-06
0.209051
8.22672e-05
6.07254e-06
2.83776e-05
9.61497e-07
2.0457e-05
0.0887348
0.000702791
6.17151e-07
4.09992e-08
1.27538e-05
7.92591e-05
9.87967e-05
9.20969e-05
1.80762e-09
1.60941e-10
1.29304e-06
3.85705e-05
9.32068e-06
3.90295e-06
0.000207333
3.37826e-06
2.97184e-05
1.47247e-07
1.56014e-08
0.0333315
8.18486e-06
3.75687e-07
2.707e-08
4.97114e-05
0.000131204
1.77193e-06
3.4384e-07
0.0406783
1.54218e-09
2.72531e-05
0.0635346
9.95723e-09
0.0725801
4.29618e-05
0.0369419
0.000607801
9.76844e-08
2.4306e-05
2.20491e-05
0.0458371
5.69712e-05
0.00131865
0.161178
0.000142118
1.13558e-05
9.91223e-07
1.44673e-06
0.484922
0.161526
4.28002e-08
0.24095
1.38538e-05
0.000162135
2.50802e-05
2.19682e-05
0.0012045
3.93506e-05
1.39056e-05
6.85382e-06
1.3488e-07
1.77783e-06
0.0454786
8.06584e-08
5.52981e-05
2.79768e-05
9.70048e-08
3.93433e-06
0.216666
4.38429e-06
2.94175e-07
0.000638477
1.51532e-08
3.97898e-06
0.211707
2.28178e-08
0.177381
0.341412
0.0013428
1.76551e-05
1.09044e-06
3.75428e-06
6.21038e-05
0.000224949
0.00119238
0.000314784
4.2663e-06
0.0451992
0.000110702
8.57081e-10
0.000304201
0.000295766
0.00061205
0.000466319
0.000862318
0.000171086
1.145e-09
6.85158e-05
1.01177e-06
4.11549e-07
0.00168653
0.348489
1.74516e-07
3.22113e-08
0.00323544
0.00330274
2.91196e-09
0.000606009
8.53791e-08
1.57011e-08
1.27036e-08
4.49142e-07
5.03718e-06
1.65388e-07
7.75979e-05
0.0516802
1.54414e-09
5.42036e-07
0.00449754
0.115688
7.41258e-05
7.74919e-07
0.0324692
5.3689e-09
0.000133114
4.24164e-09
2.24566e-09
0.000569511
0.129572
2.52737e-06
5.57279e-09
6.77536e-08
0.0355939
1.81027e-08
0.0230678
4.69436e-08
0.000103589
7.26191e-09
0.00196275
3.14571e-06
2.65582e-09
7.55946e-07
5.58648e-07
0.00140604
6.26683e-07
2.37344e-08
2.07579e-06
0.00444076
0.0539352
7.21237e-05
0.000606438
0.00107187
4.31194e-08
0.00132408
1.02255e-05
3.62575e-07
2.98636e-06
0.000216962
2.2512e-05
1.18589e-07
9.47845e-06
0.00015014
9.99647e-08
1.34501e-06
7.44167e-07
1.62684e-05
0.0730579
1.21922e-09
8.75319e-07
0.060689
0.000121713
7.73177e-05
5.50387e-09
8.39184e-07
2.13518e-08
1.12972e-06
2.70184e-05
5.31227e-05
5.50773e-07
3.00403e-05
2.7539e-05
8.26232e-05
1.6838e-05
7.49383e-09
3.80711e-06
1.65971e-09
4.99131e-07
6.62133e-05
0.000185908
3.11568e-08
5.06779e-07
4.40683e-06
2.30382e-10
4.78422e-05
4.47199e-07
7.24032e-05
0.000839593
7.50494e-05
1.43931e-08
0.00139498
0.000118938
6.31664e-05
0.000158904
4.88345e-08
0.00016304
2.54753e-06
0.116947
3.47508e-05
9.69979e-05
6.13002e-08
6.6421e-10
2.21384e-08
0.186131
0.0745663
4.46467e-05
6.96686e-10
0.000139672
2.96983e-08
0.172891
0.000156998
7.59615e-07
9.07725e-08
3.39537e-06
6.14856e-07
8.96664e-05
2.11409e-06
0.000122982
0.312021
4.14612e-06
7.21306e-05
3.3948e-05
7.07627e-05
5.19211e-05
3.14174e-08
3.80112e-10
2.8138e-06
3.61599e-05
8.2434e-09
2.01435e-07
0.000611715
4.59007e-07
1.41151e-06
0.422351
1.76744e-06
6.81377e-05
4.01029e-10
3.30339e-06
2.65284e-07
0.330617
2.72277e-09
0.118958
0.00554109
0.000136735
1.73299e-05
1.53618e-05
0.000944247
2.5726e-06
4.1411e-06
2.29637e-06
9.88519e-07
6.14239e-08
1.85951e-06
8.549e-05
2.38548e-06
0.0704689
2.74392e-07
4.36886e-06
0.00030708
2.10183e-09
0.000383504
8.58685e-08
3.95399e-05
0.000825175
6.84632e-08
2.09673e-06
6.94664e-05
5.49705e-07
9.3227e-06
0.181847
8.23199e-07
9.81567e-06
1.51909e-10
0.0464854
8.92703e-06
1.9089e-07
1.96375e-07
4.92294e-06
7.25261e-06
8.81443e-09
0.15183
1.51653e-06
2.01596e-09
0.000124918
4.07142e-07
2.60337e-09
4.57948e-05
0.00101474
0.000886576
8.55322e-09
1.11727e-06
4.59947e-08
4.89124e-05
5.05677e-05
0.0343228
6.29294e-06
0.000926712
6.77737e-05
0.00116278
3.08651e-05
3.51128e-06
1.08271e-06
4.71414e-07
5.19756e-05
2.09179e-06
7.34475e-06
0.0440436
0.000251466
0.0478407
8.95709e-10
7.90589e-06
1.17631e-07
6.16257e-05
0.000102017
1.18443e-05
4.9006e-05
0.000541889
0.000150479
9.32153e-10
0.00718741
0.00837552
8.70311e-05
4.71389e-05
8.11775e-07
0.000908465
1.6863e-06
2.85705e-06
1.37207e-07
5.88537e-09
0.000252248
9.85227e-06
0.00100181
6.39276e-07
0.047331
0.000669842
7.17467e-07
1.35163e-07
0.00058029
2.90379e-06
0.055715
0.280794
0.000130969
0.000236504
1.61614e-06
5.1818e-07
2.30685e-08
1.22385e-08
6.24759e-05
4.99484e-06
0.0348538
0.0551378
3.14045e-05
3.06965e-08
0.000322758
0.0416299
2.75981e-05
0.00115425
0.00259801
0.0440229
0.121847
0.0512089
0.000122941
1.23476e-09
0.00203449
6.62401e-07
1.59634e-07
1.92841e-07
7.56583e-09
2.86331e-05
3.84408e-09
2.19907e-09
9.1734e-05
4.92706e-08
6.53934e-09
9.51638e-07
5.5919e-07
0.059832
6.32166e-06
3.0787e-05
0.0772429
0.262487
5.53987e-09
0.187971
0.000162441
0.390557
3.55149e-07
1.10533e-07
6.90938e-08
4.47454e-05
0.262188
1.73733e-09
0.00117998
7.2888e-08
3.91229e-06
1.63461e-05
7.66318e-06
1.08407e-06
2.39707e-07
0.0786318
1.05433e-08
7.05104e-06
1.0759e-07
9.02566e-07
1.72845e-06
0.000459684
0.000120386
1.15806e-06
0.000389501
2.1697e-05
4.21934e-07
0.000141668
7.46665e-07
2.50612e-05
1.43807e-07
1.30235e-07
0.254645
0.0443987
0.00040102
3.3165e-07
6.1592e-09
4.42096e-06
0.194598
2.63132e-07
1.16184e-05
5.98696e-07
2.96608e-06
2.37498e-09
0.0362137
0.000110638
7.44317e-07
5.84916e-07
1.76728e-05
7.83222e-09
0.180297
1.15923e-09
0.0405625
7.92999e-05
5.19807e-06
1.67451e-08
3.3446e-06
1.32334e-06
1.02716e-06
3.62785e-06
5.07099e-06
3.03614e-10
4.68465e-09
9.64272e-05
0.0815507
2.48695e-09
3.42996e-05
5.17722e-06
9.66792e-05
3.89335e-07
0.0489674
2.32457e-06
5.21891e-05
5.56433e-05
6.12393e-08
5.86876e-05
1.97278e-06
1.72569e-05
2.88191e-08
2.6369e-08
1.0667e-05
6.07256e-09
0.000182653
4.00007e-05
3.02964e-08
7.99406e-08
0.000135186
0.000548218
0.305577
1.18258e-07
5.00782e-06
1.84633e-06
0.000369754
0.00017099
2.7185e-05
8.39394e-05
0.0802198
3.49575e-06
5.49336e-05
0.000833767
0.0677646
7.15661e-07
4.96911e-08
0.000426535
2.97435e-06
0.0421548
1.91485e-07
7.00162e-06
3.52012e-06
1.54745e-08
0.231162
9.80043e-09
1.69918e-07
6.28517e-07
2.72843e-05
0.309613
0.0582019
4.87084e-07
2.36908e-08
1.73103e-09
1.11564e-07
1.09337e-07
6.5492e-07
1.20181e-07
5.94066e-09
6.41449e-08
1.14879e-08
1.848e-07
0.0638296
0.0378515
2.85968e-09
1.3809e-05
7.85764e-09
7.73456e-08
1.24942e-08
0.0371024
0.0823749
5.67905e-06
3.6445e-08
1.23986e-08
8.30866e-07
1.30144e-06
4.06087e-06
1.36119e-07
0.000334345
2.72008e-07
3.12519e-06
3.43712e-06
0.000188916
5.33162e-06
0.000803941
1.78758e-06
3.14184e-08
0.000492726
0.000450768
1.78977e-08
2.31587e-05
4.01115e-06
1.36055e-05
4.3462e-05
1.03957e-05
3.64764e-06
1.12316e-07
0.33108
5.00817e-07
3.97066e-05
0.0638578
0.000119764
1.22034e-05
1.49714e-05
1.64983e-06
2.32269e-06
2.34435e-05
6.69426e-05
5.64599e-05
3.37282e-06
4.52195e-05
7.63846e-06
3.91639e-06
2.23879e-06
5.63142e-09
6.36169e-08
4.57477e-08
6.83714e-10
1.77822e-07
3.28227e-08
7.3937e-06
1.95556e-08
2.98375e-09
1.8128e-07
1.7322e-05
4.64287e-09
9.86452e-09
8.35083e-07
1.11724e-06
9.05537e-07
8.72526e-05
6.48904e-06
0.247067
1.23184e-07
1.15609e-05
1.54464e-05
4.13049e-06
4.04529e-09
1.77424e-08
0.224349
5.6122e-07
5.99018e-09
2.3716e-06
0.225511
1.70844e-06
5.88454e-05
5.85081e-05
1.09883e-06
7.64703e-06
9.30824e-06
0.000386738
1.97198e-08
4.39518e-05
4.98295e-06
1.85526e-07
0.000321863
0.00039699
0.196499
6.7706e-06
1.37583e-06
7.48004e-06
3.81067e-05
1.60254e-05
1.99471e-07
0.00260844
1.20668e-08
0.000637874
0.000415076
0.0610584
1.00143e-05
0.258237
3.02907e-08
1.42726e-07
5.09013e-06
2.50971e-05
7.32326e-05
3.26384e-06
0.000116855
3.59006e-08
9.76955e-06
1.10354e-09
1.95734e-08
1.59702e-06
0.000487596
1.00268e-07
5.62361e-09
0.000422637
1.88269e-07
0.000547155
3.43132e-06
1.96864e-06
1.47837e-06
4.62285e-07
2.01127e-05
4.56182e-06
0.000205242
6.39836e-07
8.20489e-06
0.00330943
1.21293e-06
7.21791e-09
0.000157485
2.18382e-06
4.06178e-05
4.74883e-09
0.143836
0.000116939
7.22051e-05
1.76971e-06
7.56507e-09
0.000195805
4.66139e-06
2.34877e-07
8.60488e-10
6.58362e-05
7.24354e-05
8.08554e-05
0.195869
2.91569e-06
5.99706e-06
0.000246224
9.95063e-06
7.05358e-06
2.68756e-06
8.46297e-05
3.57769e-06
0.00011978
0.183344
1.50339e-05
4.23596e-10
1.67547e-06
5.27495e-05
1.50794e-05
2.5211e-07
0.000463758
0.000875378
0.000479414
0.000878297
1.7318e-05
5.2577e-05
7.08664e-06
2.03284e-05
1.32981e-07
1.08453e-08
0.101933
0.000507556
2.82976e-06
0.00166157
5.19975e-06
2.44468e-05
0.00042868
4.42246e-06
2.28045e-06
3.22734e-06
3.97435e-07
4.20244e-05
3.0061e-05
0.000151386
2.8221e-05
5.54779e-07
6.33007e-09
2.7668e-05
9.39743e-07
1.95157e-08
0.000313385
2.97306e-06
8.03847e-06
3.7865e-05
7.38728e-06
4.08192e-08
0.000595227
0.138512
4.75699e-08
5.60208e-09
2.10318e-08
0.144348
0.246335
4.25011e-07
0.0532989
5.40041e-06
2.02733e-05
7.98831e-06
8.32414e-06
1.16501e-05
1.3654e-05
3.05306e-05
0.117425
0.339418
0.391421
1.19585e-05
3.1858e-05
6.52277e-06
7.30296e-06
0.360299
1.37569e-08
0.174796
4.05628e-06
1.08748e-08
7.36878e-07
5.86699e-07
2.89773e-08
3.72901e-08
2.28286e-07
1.83296e-08
0.136695
4.4445e-08
2.88447e-05
0.000196574
2.27262e-08
4.61019e-06
7.32792e-06
6.28865e-06
6.51005e-08
0.000587511
6.43106e-06
8.61553e-07
6.84626e-05
4.26748e-06
3.0186e-05
4.60241e-06
1.18381e-06
5.26852e-07
2.02126e-05
0.00332829
4.78622e-05
8.74495e-07
1.33848e-05
8.34531e-07
2.51313e-05
9.91568e-05
1.17706e-05
2.22925e-06
5.3849e-06
1.15528e-06
5.78724e-05
1.54821e-07
8.15519e-06
0.0411875
0.000423728
0.328086
0.000773771
0.00011035
1.76458e-08
0.0615067
1.16809e-09
4.95369e-05
1.6181e-05
8.21815e-07
8.72503e-05
1.6159e-06
1.01979e-06
4.46359e-05
7.83505e-07
1.88656e-07
1.94751e-05
6.53882e-07
2.24886e-05
0.078412
3.55283e-07
3.73349e-05
1.38218e-06
7.99041e-07
7.28397e-10
0.000260564
9.13139e-05
3.68124e-06
1.38758e-08
7.25245e-07
0.044363
0.000211405
9.83695e-06
1.4869e-05
1.70696e-09
8.81677e-11
9.20893e-07
4.12151e-09
4.88645e-05
3.49773e-07
2.17315e-05
1.60339e-06
2.06799e-07
5.96689e-07
3.02858e-08
4.81727e-05
9.02441e-05
4.41231e-05
5.06414e-07
2.93012e-08
9.8155e-07
2.25077e-06
0.000535595
1.00889e-06
0.16144
2.15924e-05
2.90899e-08
4.11073e-08
0.000230202
1.27721e-05
0.00113994
5.21593e-07
9.85182e-05
0.233462
2.66832e-10
0.000332482
2.68447e-05
0.0425002
1.75044e-06
0.0474643
0.0830176
0.00011918
7.51307e-06
2.0051e-05
1.1253e-08
1.55843e-05
2.69948e-05
0.000374702
1.90926e-05
6.77594e-06
2.59782e-05
0.000427559
0.000344813
0.000507336
0.000129861
1.67468e-08
8.9524e-05
0.000887272
6.30665e-06
3.94987e-06
0.00024754
0.000213706
1.38097e-05
1.86295e-05
0.0002639
1.55082e-05
0.000379555
0.000248087
1.93853e-05
2.44898e-08
3.47033e-05
0.000420096
0.0668188
2.13128e-06
5.29585e-07
4.90101e-05
1.96656e-07
8.50406e-05
8.35725e-07
0.000395405
6.06481e-07
6.93112e-05
2.51263e-08
9.71386e-08
1.10297e-05
0.00091562
0.00120453
0.337953
4.13806e-05
2.03186e-06
1.90252e-07
0.00040609
2.37787e-05
0.0335802
0.0703709
6.32807e-10
0.000783468
6.36578e-05
6.90245e-06
5.70514e-09
0.00114483
5.68669e-07
0.0427171
4.97095e-08
4.78169e-09
2.99312e-05
1.14349e-06
1.30227e-06
3.8184e-05
0.0395199
2.0245e-05
2.28731e-07
8.24573e-05
0.218367
0.0429071
6.64149e-06
0.000282966
2.97643e-05
0.00056881
2.98448e-06
0.0373813
3.82597e-05
0.000185678
2.242e-07
8.8e-07
4.68332e-06
5.19507e-07
2.40746e-05
2.2929e-06
7.69223e-07
2.51981e-06
4.14789e-06
0.000100188
2.48177e-08
3.60374e-07
0.0799923
9.65339e-09
7.65391e-08
4.30703e-05
6.28909e-08
0.000180258
3.55058e-05
0.0653803
2.35147e-05
0.260145
1.27633e-05
2.13888e-05
0.039889
0.000156049
1.97047e-10
2.16767e-06
0.027964
1.59042e-05
7.84574e-05
1.68601e-05
1.56661e-07
7.02394e-06
7.45307e-06
8.51442e-07
0.126976
1.08902e-06
1.02382e-07
1.75147e-06
6.62918e-07
1.6651e-08
8.67958e-05
2.48745e-06
0.273085
8.20807e-05
3.4934e-05
4.61126e-05
5.83991e-05
1.6705e-05
2.93436e-06
1.19459e-10
8.7836e-07
7.41481e-05
2.14804e-05
6.62027e-06
6.92751e-08
1.118e-05
1.23239e-06
4.0187e-05
3.22346e-08
1.38592e-07
1.22514e-06
2.84694e-05
2.18743e-05
3.30743e-05
2.9105e-08
2.23484e-08
0.00166144
2.21034e-08
1.41e-09
3.03139e-09
1.44703e-06
0.307572
8.99888e-07
0.000115481
6.9005e-05
2.0732e-05
1.67235e-07
1.23102e-06
0.000225511
7.3468e-06
3.6267e-07
3.74415e-05
4.02511e-09
2.7754e-09
4.01332e-09
9.85766e-05
1.11684e-07
0.3275
0.000525946
3.53979e-05
0.00183727
6.75112e-07
1.69221e-05
2.47339e-09
0.0592325
8.18235e-06
6.25728e-06
1.55077e-06
4.08887e-07
1.61659e-07
0.479194
1.67658e-05
0.00043684
6.57999e-05
1.36966e-06
0.121892
3.16925e-07
3.20167e-07
5.00137e-07
7.13689e-07
3.58552e-05
4.98254e-07
2.44494e-05
1.78203e-05
0.000501558
3.58573e-06
5.57112e-10
0.000190563
3.79421e-07
0.156204
3.41362e-06
2.39909e-07
1.24892e-06
1.8973e-05
0.0605952
0.0297269
1.82898e-05
4.83713e-05
0.090483
3.51491e-06
2.53584e-05
0.0469802
1.2528e-05
5.89244e-06
0.172471
0.0186282
1.05468e-05
3.31243e-05
1.53423e-08
3.8289e-05
0.00171162
1.03054e-05
1.1352e-05
0.000378162
1.23306e-09
0.0231054
1.02376e-08
2.8579e-05
0.1934
1.20876e-07
1.21923e-05
4.54025e-06
3.74925e-07
4.06044e-08
4.82183e-05
4.17186e-07
1.12785e-07
3.10909e-05
9.69213e-06
1.37064e-08
0.0232595
0.0440519
4.99447e-06
2.61169e-10
1.92142e-09
0.000143336
1.40581e-05
5.35991e-06
3.32996e-09
9.84813e-08
0.00013247
6.94286e-05
4.74034e-05
8.32089e-05
0.36201
1.10155e-09
0.140238
1.75203e-05
6.84022e-06
0.0557923
1.0841e-06
2.12519e-08
0.0227882
7.83114e-10
6.83419e-06
6.32672e-06
7.40459e-06
1.10083e-06
9.36979e-09
4.05668e-09
1.61671e-08
2.0361e-05
0.133306
0.211371
3.123e-05
2.52884e-06
1.77525e-10
0.0556998
0.224485
0.000279625
1.0095e-06
1.42177e-07
0.000963076
0.000245628
2.3978e-07
1.31076e-08
2.14013e-06
7.94211e-06
3.66798e-08
1.10564e-05
6.96436e-05
0.059901
0.203527
5.55422e-05
0.000857272
9.84437e-09
3.7196e-07
3.25774e-05
0.000178852
3.35167e-05
0.000438685
8.18651e-06
1.47497e-05
6.79546e-09
8.65886e-08
1.26429e-05
0.0581964
1.13495e-06
0.177015
1.97975e-08
1.21668e-05
2.3508e-06
1.64028e-05
1.17089e-08
1.33688e-09
1.10448e-07
3.50943e-08
1.21764e-06
0.000324646
1.03026e-08
0.0372751
1.7732e-05
0.158607
1.91561e-06
2.99313e-06
1.64996e-06
1.97697e-06
1.32609e-05
3.13336e-08
2.34578e-08
1.34039e-08
3.25755e-06
9.5541e-06
0.0577781
0.0559298
5.18642e-06
9.88767e-07
5.82024e-09
2.3687e-09
2.47751e-08
1.71422e-06
0.000248947
2.01938e-07
3.57373e-08
3.57877e-09
0.0219143
2.66764e-05
4.41978e-05
0.0403328
8.56732e-07
0.309556
9.88868e-06
4.38641e-07
4.41466e-10
2.59055e-07
0.0534024
8.46048e-10
2.26161e-05
2.23455e-08
0.000700117
4.49047e-05
8.41146e-05
0.000145145
2.89177e-05
4.01805e-09
1.58901e-08
0.357609
3.27823e-05
3.49813e-05
0.000233233
4.22131e-07
8.5656e-05
9.65449e-05
3.00581e-06
3.29718e-06
0.000299862
7.85538e-08
0.000711164
0.0391123
1.40264e-06
2.05457e-07
8.31957e-05
9.05418e-07
0.0340412
0.181299
2.1735e-05
9.15604e-10
0.00409715
3.40581e-07
2.22254e-05
1.54159e-06
0.000124963
1.12629e-08
0.000876781
8.71795e-05
0.000132166
2.1247e-05
0.000122821
3.03055e-05
5.36257e-06
1.15789e-09
0.000156858
4.71454e-05
5.81532e-05
6.60554e-07
9.63106e-06
0.000122371
0.000452223
9.40825e-09
1.94463e-08
3.49622e-08
3.64227e-10
1.27208e-07
0.0215862
0.000404533
0.000143481
4.0464e-05
0.000205154
8.28828e-05
2.72113e-10
1.15867e-05
6.98339e-09
5.38057e-07
6.81059e-09
2.58971e-05
0.00203353
1.53934e-05
1.11346e-07
1.33005e-08
1.4902e-06
1.22737e-07
7.55088e-09
0.145856
9.2202e-06
0.000670378
0.00102011
0.000724374
8.83132e-09
0.000673125
0.000754828
0.00134399
0.000724719
2.32103e-09
3.8128e-10
3.35784e-06
8.57521e-06
6.80794e-05
0.000318828
0.0421472
8.33239e-06
3.27483e-05
4.45959e-06
0.000556131
3.38722e-08
1.25998e-09
0.000113551
0.000371355
0.0260681
7.69088e-09
0.117359
0.000126647
3.35121e-07
9.19985e-05
4.95374e-06
8.95417e-05
2.27105e-06
9.80611e-05
6.63234e-09
9.40068e-06
0.00216465
3.64764e-05
5.74428e-08
0.00175403
4.4586e-05
1.06214e-05
0.00321443
8.59824e-08
7.67815e-06
5.68396e-05
0.000101061
8.62372e-07
0.192307
5.62515e-08
8.4886e-07
2.72927e-08
0.117479
0.120475
2.06654e-06
1.81725e-06
0.000155525
0.0550134
3.34348e-08
1.08983e-05
2.12487e-05
1.3363e-05
1.27828e-06
0.194516
7.17097e-06
1.72843e-05
0.00362344
1.60239e-07
7.17269e-06
1.71263e-06
2.53792e-06
1.83523e-09
0.00240407
0.00396626
1.12942e-07
7.66336e-07
1.27068e-06
0.000101911
7.64568e-09
0.039763
2.90089e-07
9.99442e-06
1.09897e-06
5.29922e-07
4.93882e-06
3.3672e-05
1.28974e-06
4.92e-06
0.000245704
1.58465e-06
1.33452e-06
0.0429611
7.60925e-07
3.37894e-06
2.50051e-06
1.97317e-05
1.99548e-10
4.95176e-09
7.95473e-10
5.91868e-06
5.61722e-08
0.0671542
2.21722e-05
1.20277e-05
3.96718e-09
3.26845e-05
0.116975
7.94303e-05
1.38547e-05
6.15514e-05
1.2449e-05
2.00024e-07
7.90963e-08
2.43601e-05
4.31982e-06
2.74362e-06
0.000543373
9.67536e-06
4.7079e-08
2.94014e-08
2.30814e-06
7.04561e-08
6.92604e-06
4.09256e-08
1.20262e-05
1.62048e-05
1.99618e-07
9.48589e-10
0.0456615
7.27092e-09
2.75338e-09
2.48508e-05
0.0564019
2.04508e-05
2.23473e-06
1.40044e-08
1.00071e-05
5.32186e-06
2.22551e-05
6.05972e-06
8.39236e-09
1.77408e-06
1.57355e-06
5.52415e-06
3.96153e-09
5.14654e-09
4.46714e-09
5.35646e-06
1.69871e-05
9.58931e-07
1.59989e-08
7.55696e-06
5.19464e-05
1.95809e-08
2.48712e-05
4.50079e-07
5.26754e-08
4.45037e-09
3.93099e-05
2.39745e-07
2.08441e-05
1.60687e-09
2.54437e-05
9.18505e-09
1.52333e-06
0.000349336
1.33939e-07
5.55922e-09
0.0686671
3.00123e-08
0.0564767
2.42836e-07
5.12629e-08
9.60018e-06
2.56005e-05
0.0466265
5.86283e-05
0.049877
0.0606041
8.9432e-05
1.14598e-05
0.0403358
1.08341e-05
1.65511e-08
4.32844e-05
0.140151
0.0369787
0.0421657
1.1789e-08
1.03013e-05
1.65991e-08
5.56264e-06
9.88146e-07
7.85497e-06
0.000171418
7.09935e-06
5.2686e-07
1.64295e-08
3.68292e-06
0.000293937
2.42713e-08
1.20471e-05
3.81507e-05
1.97546e-06
8.8875e-10
6.29091e-05
2.6016e-05
2.59647e-05
1.77742e-05
1.64689e-05
2.26016e-06
7.50352e-06
0.000152552
8.70821e-06
6.7682e-06
0.000125761
0.00045696
4.17316e-09
6.27139e-07
2.80035e-08
2.00613e-05
9.04415e-08
2.31155e-06
9.43469e-11
0.000396418
0.390049
0.0884398
0.000148612
4.82687e-09
1.19987e-05
0.0548748
0.102419
2.49828e-06
0.000270833
2.11226e-06
5.55618e-07
1.19103e-07
2.91712e-09
9.25577e-06
4.40889e-05
3.98558e-08
4.34829e-09
1.77355e-05
1.65433e-07
0.175547
0.0538715
1.17838e-05
5.29759e-09
1.13946e-08
0.0420443
4.88238e-09
2.54135e-05
9.91865e-09
0.000611158
2.1749e-08
4.9543e-06
5.12829e-08
6.08348e-09
0.00107827
0.154003
0.0645848
1.4163e-08
0.0689301
4.25456e-08
1.35404e-05
1.64949e-06
0.117279
2.39637e-07
0.000160895
3.76516e-09
1.96178e-06
0.000277892
1.69777e-06
0.000163606
9.68613e-09
1.1602e-05
3.24197e-05
2.08371e-05
5.39703e-06
3.66506e-07
3.31811e-07
3.37971e-06
6.09393e-07
9.83723e-09
3.42829e-09
0.0747644
0.037137
1.40963e-08
0.0838285
3.4178e-10
2.08834e-08
5.25064e-05
5.02687e-09
4.7053e-09
0.0398474
1.86012e-08
7.27167e-10
0.00064339
1.99674e-09
1.25739e-09
5.04596e-05
0.0922819
1.38866e-07
0.0371038
8.5857e-09
4.58404e-06
0.0499724
6.2731e-06
0.000863146
6.15422e-10
7.26142e-08
1.04428e-06
1.84371e-07
0.208854
0.0452785
0.00010888
3.25492e-08
0.0462558
1.01932e-09
1.99552e-08
2.57669e-09
0.102128
0.00177189
8.9016e-06
1.29086e-09
1.29068e-06
0.0481095
0.000911133
3.65671e-07
0.000252453
0.108293
0.0855866
3.55776e-05
0.0847785
0.000924097
0.0426477
4.19424e-05
0.0654363
0.000343329
4.70139e-06
1.46784e-06
2.31598e-06
0.0004573
0.000925874
6.99699e-10
3.83969e-06
7.0504e-08
4.58301e-05
7.33328e-06
9.98168e-07
8.0336e-06
0.000297767
1.74369e-07
8.03816e-06
9.01154e-08
2.66357e-08
2.76863e-08
4.50881e-08
5.05796e-06
4.45836e-08
4.82195e-08
7.42673e-08
1.0605e-05
4.31084e-05
2.41104e-10
1.7682e-09
5.54372e-08
9.90585e-08
1.09227e-06
0.0012846
0.00209285
0.000129807
9.82287e-09
3.21728e-05
5.70802e-06
0.0463226
3.19612e-05
1.28978e-05
5.6406e-07
1.08876e-06
2.44463e-06
0.000222365
0.000116826
0.178669
0.0671325
8.22445e-08
0.000825759
0.000295225
1.36015e-08
2.70706e-06
4.59079e-06
3.91494e-08
1.72755e-06
3.93412e-06
0.0621163
1.56311e-09
8.3424e-05
1.47075e-08
0.0484116
5.11483e-05
0.0354816
3.3221e-05
4.81644e-09
6.54074e-09
2.31513e-08
2.50241e-05
2.41639e-05
4.20943e-06
7.27411e-06
9.70427e-07
0.000762618
0.000288496
8.65656e-10
0.000116358
4.79174e-05
5.22354e-05
9.50948e-05
0.00295446
4.04872e-06
0.0987259
4.65669e-08
5.86272e-06
0.0383339
1.24361e-08
0.000261791
0.00715421
4.04941e-08
0.000102159
1.39196e-08
1.85736e-07
2.56574e-06
3.94212e-06
5.33442e-08
8.27328e-09
6.87995e-07
2.5352e-09
5.9992e-09
0.000126325
2.44413e-08
5.416e-10
2.91245e-05
7.69465e-09
9.79021e-08
2.69476e-07
0.00021496
2.20302e-07
0.000168236
1.05383e-07
4.69603e-08
2.25305e-05
6.59592e-05
0.000230935
0.0428826
8.04684e-05
4.27371e-05
2.29723e-06
0.318472
0.309665
1.246e-07
2.89779e-05
1.75993e-08
0.0455358
0.0380023
0.000403837
0.0897339
0.068452
7.15032e-06
1.2337e-09
0.000115077
1.12861e-08
1.25262e-09
3.96706e-07
1.57945e-05
6.98933e-09
1.73278e-05
3.37907e-05
5.06572e-09