/*--------------------------------*- C++ -*----------------------------------*\
  =========                 |
  \\      /  F ield         | OpenFOAM: The Open Source CFD Toolbox
   \\    /   O peration     | Website:  https://openfoam.org
    \\  /    A nd           | Version:  10
     \\/     M anipulation  |
\*---------------------------------------------------------------------------*/
FoamFile
{
    format      ascii;
    class       volScalarField;
    location    "16.5";
    object      SgRate;
}
// * * * * * * * * * * * * * * * * * * * * * * * * * * * * * * * * * * * * * //

dimensions      [1 -1 -3 -1 0 0 0];

internalField   nonuniform List<scalar> 
111485
(
5.02794e-10
0.00796811
0.0241302
6.41719e-11
0.0489844
3.1656e-08
0.0462686
0.00615569
0.0190265
0.00122961
0.0466671
0.00940845
0.00479426
0.294941
0.00651232
0.0304767
0.209584
2.62124
0.010348
4.78859e-08
0.0371858
3.07642e-09
0.0266769
0.0347034
0.00867096
3.48247e-08
0.0396159
0.00177773
0.0154858
0.0481097
0.044533
0.0194634
2.17827e-07
1.44637e-06
0.00730677
9.10886e-05
0.146673
0.209094
0.00247608
0.0240757
0.0432284
0.0708631
0.0158642
0.00163522
8.09773e-05
1.58435e-06
0.0297727
0.000713414
0.0474806
4.27016e-07
1.09352e-06
1.72287e-05
4.61966e-07
0.0511719
1.5048e-06
0.043669
0.00309033
4.34403e-08
7.0232e-05
0.00479989
0.0160799
2.64733e-07
0.00484519
0.0971783
6.44509e-06
0.00317725
0.315783
0.0944355
0.00117544
0.00621027
6.69178e-05
0.00665719
1.12228e-05
0.00297705
4.61598e-08
0.000712013
1.5321e-08
0.0412341
2.74753e-08
3.1243e-05
0.279788
0.557982
4.65665e-08
5.20023e-09
0.00930882
0.00390528
0.142905
0.0253459
0.000305999
0.00742374
0.00027476
0.0404739
0.0118999
5.80214e-05
0.0522786
6.59934e-09
0.0270441
0.00181918
0.00152021
0.00171538
1.21877e-09
0.0179502
1.95088e-06
0.0181298
0.00462138
1.64173e-05
6.02075e-09
0.00758019
0.00412859
0.000724485
0.00547106
0.00473479
0.0037748
0.00328042
1.04366e-07
3.38863e-05
2.99169e-08
6.50641e-06
0.0128329
4.09794e-09
9.15927e-08
0.000190265
0.0747474
2.25041e-06
0.00159197
0.0279349
0.000107181
0.00171216
2.82203e-10
0.000346019
0.00160735
0.0327511
0.047168
0.000175155
7.83946e-05
0.0483635
9.24354e-10
0.0425365
0.0253458
0.00274071
0.000318206
0.00200276
0.202086
0.00276941
0.00403384
0.0130581
9.97598e-10
8.68293e-10
4.77723e-08
0.0280868
0.00159065
0.0285267
0.115033
0.0047642
3.68199e-05
0.0108163
0.0162612
0.0108271
0.000818948
5.43331e-06
9.24392e-10
0.0522697
0.0228474
7.58302e-05
6.47645e-05
0.00586016
0.00343624
0.0268869
0.00155984
0.000173054
1.57211e-09
1.51223e-08
0.197632
9.76814e-11
0.00550482
0.00208291
5.29668e-07
9.55535e-06
3.59635e-08
5.79941e-06
9.85803e-06
3.70233e-08
0.00150941
0.00678469
0.0297768
0.00414728
0.00762129
0.00406668
0.000464138
1.78427e-07
0.00487687
5.68948e-06
7.12848e-06
0.0065502
0.0104339
0.0283918
0.0113094
0.00504317
8.46262e-07
0.00672142
0.00051429
0.00169584
0.0142977
0.00232607
1.82627e-06
0.00379677
0.025334
1.17058e-05
0.000181153
0.00782363
0.00202901
0.000375247
8.67467e-06
7.47653e-09
0.00835309
0.000310939
0.119625
7.09629e-09
0.00666885
0.0205099
0.119374
8.32283e-08
0.00327433
0.0137357
0.000277537
6.86815e-09
4.64248e-10
0.151558
0.00414928
2.35453e-05
9.31988e-05
0.00946156
0.00779016
0.160342
3.86003e-05
2.06462e-05
0.160278
4.64463e-08
0.0024731
0.00952759
0.0166201
0.0116739
0.00963851
3.8762e-06
0.00193237
0.00062596
7.78779e-06
1.05313e-08
0.0309069
0.15654
1.83094e-05
0.00649087
0.0107556
8.03447e-10
0.000191982
0.000115773
2.79389e-07
6.63546e-05
0.0994964
1.86205e-08
0.0148602
0.010801
0.00367277
3.37772e-09
0.0118664
6.94039e-11
6.12304e-08
5.09313e-07
0.164825
0.0228887
0.00618265
0.0054558
0.213101
0.0123293
0.00157632
0.000818865
0.0324774
0.00880988
4.53042e-07
5.34727e-09
0.111707
0.0226807
0.0245621
0.0119024
1.77729e-09
0.223856
0.26685
0.00301688
0.000319035
3.844e-05
0.0137729
0.00219058
0.00195673
2.07878e-08
0.000660019
2.37789e-09
0.000358421
0.000275807
0.237762
0.0681079
0.357095
1.78806e-08
0.0853904
0.00898617
0.00172425
3.20652e-09
1.15068e-07
0.0246114
0.000299894
0.0571267
0.00398075
0.0136935
0.0192513
3.04129e-05
3.05321e-08
3.51626e-08
0.00379086
0.00436034
0.249955
0.185018
0.000780802
1.68174e-09
8.76335e-09
1.38212e-08
8.48098e-05
0.0599457
0.0118997
2.15652e-06
0.0052499
7.13956e-05
0.0607614
0.0671097
0.00592983
0.0114355
0.00928393
0.0479128
4.98756e-05
7.33252e-07
0.00943987
0.0187621
0.00482235
6.87921e-08
0.150454
0.000329211
0.00222518
0.008043
0.000337023
0.0284519
0.0388265
0.0375259
0.00356257
0.00779558
0.0253775
0.0133447
9.05087e-06
1.96851e-07
5.43585e-07
7.12001e-07
0.0313216
0.370373
0.0330028
0.0672876
0.0525942
0.0185321
1.73718e-08
4.08339e-07
0.0165902
0.0469064
0.0791003
0.0458656
0.0492921
0.0228979
2.44909e-08
0.0135819
0.000291289
4.24865e-10
0.000999783
0.0165391
1.57428e-05
0.00892167
0.00930803
0.00815212
0.00139129
0.00270625
0.00552168
4.30045e-05
1.16672e-06
0.0026433
3.87222e-07
0.0062756
0.117096
0.0301366
1.16283e-07
0.0275662
0.154214
0.00827462
0.325713
6.74372e-08
0.0469454
0.0188008
7.34442e-09
0.000841168
0.00245396
3.8208e-09
0.032018
0.0109546
0.00520549
4.47466e-07
2.59435e-08
0.000754582
3.79412e-09
0.0123197
3.60129e-06
4.10453e-10
0.0168343
4.01453e-05
0.25807
0.0299335
1.8893e-09
7.95213e-05
0.00160925
9.84262e-05
0.000200832
0.014986
0.121844
0.839734
5.46678e-05
0.206684
0.000729326
4.58675e-08
0.0388377
0.0312021
2.03118e-07
0.00142361
0.000307851
8.33047e-05
0.0238856
0.0241159
0.0139231
3.66833e-08
0.350618
0.0169999
0.0229314
0.00438888
9.11909e-05
0.00127129
3.56924e-08
0.252508
0.362185
2.6049e-08
0.00835574
0.000361721
0.000103274
4.04031e-09
2.99819e-05
3.66961e-09
0.28755
0.00966266
0.00640523
0.0021891
0.00267677
1.8223e-07
0.00197898
4.99228e-07
0.0409423
1.55392e-07
5.97765e-07
0.052364
0.0370538
4.00887e-08
1.38627e-09
0.000383186
8.47547e-08
1.5881e-06
0.00106657
2.71296e-08
6.13296e-05
6.67521e-08
0.0741004
6.84776e-08
1.65691e-06
3.70299e-08
0.00718478
4.24907e-07
0.223739
0.00195924
0.236764
1.10712e-08
0.000953979
2.56736e-06
2.71871e-09
0.370877
0.14435
0.0271044
0.0248962
3.06018e-05
0.00203608
0.0818181
0.00848858
0.00106158
0.291775
2.48631e-08
0.0233385
0.000108408
0.00502749
0.0586371
0.0759152
0.000114726
0.021034
0.000245494
0.000780125
0.0813793
0.00202172
2.2195e-08
0.0801317
0.0486719
3.53238e-06
1.13592e-06
1.95699e-05
1.72045e-09
0.00169854
0.0547971
3.48886e-07
1.79137e-07
0.00255559
4.77675e-09
0.0337675
2.8047e-08
0.00032904
1.53726e-09
0.116287
0.114213
0.00102061
0.0126295
0.0647883
0.0814557
4.84918e-08
2.6449e-07
0.0149168
4.32808e-08
0.000201572
1.7783e-05
0.00164639
0.0426196
0.0643758
2.55786e-09
4.67263e-05
0.0173783
0.00330897
0.00173423
0.003905
0.00685851
0.0207741
9.69505e-07
0.0252064
0.00608298
2.57604e-09
0.126116
0.040725
0.0153623
1.33891e-06
0.00494773
0.00684194
0.00223339
0.00401385
0.000384197
0.0136737
0.00130311
0.000136439
0.0233472
0.12826
0.000809998
7.41596e-05
0.00358518
0.725737
3.19232e-08
0.000418483
4.55746e-06
4.06218e-05
0.00732065
0.0032463
0.00274652
0.000448546
0.00016644
0.0162015
0.0110394
5.36873e-08
0.000198573
0.00134432
2.90104e-08
6.06307e-10
5.40547e-08
3.23626e-08
0.0129337
1.89491e-09
0.0347268
0.00863293
0.00193958
0.0986684
0.328588
6.03196e-05
0.00851635
0.0371255
5.46883e-08
0.0524399
1.53259e-07
1.92565e-08
4.76702e-05
0.00424173
0.120759
0.0285849
0.00624484
2.69278e-06
0.0885836
0.145578
0.0285496
0.0279938
0.000509948
0.196423
0.041266
0.0539219
0.0464294
5.95392e-06
0.000317758
0.0405465
0.00794467
0.00143823
0.027603
0.0260637
1.13828e-06
0.0108074
0.000665004
3.2673e-05
0.0347337
0.000257776
0.000658028
0.0109399
0.0404931
0.00134624
0.0214839
0.0195976
0.00720577
3.25171e-06
0.010408
0.000339222
0.000196536
0.0170504
0.0178479
0.0357468
4.65284e-07
0.00188827
4.45167e-06
3.94707e-09
0.0772367
1.64615e-08
0.136415
5.8897e-05
0.0117743
8.09626e-08
0.0292923
8.16743e-05
0.0427504
1.34923e-09
0.0311352
3.00706e-07
1.6342e-08
8.16798e-07
0.320279
0.000531094
2.95616e-05
0.0411553
1.02115e-07
2.58058e-09
0.207543
0.069502
8.34786e-05
0.00197959
0.000130003
6.42451e-08
0.0372443
0.00858304
0.179066
7.98534e-10
4.70745e-09
0.00041494
0.00106582
0.000132496
4.53425e-07
0.0626869
0.00723074
2.59394e-08
1.22791e-07
0.0452856
0.0419394
0.00222326
6.04467e-10
3.85812
0.353895
0.191188
1.61053e-08
1.92462e-08
0.0553304
0.000446385
3.94922e-05
0.000590297
0.113043
0.00268288
0.0112855
0.0631359
0.0525731
0.00188949
6.78255e-08
1.19772e-06
1.33512e-08
9.55375e-09
7.61439e-08
9.21138e-10
0.0222421
7.12879e-08
1.91469e-08
3.34513e-07
0.0113755
0.0236868
1.0678e-07
5.79308e-07
0.105597
0.0142965
0.00988385
2.69639e-08
7.15762e-09
0.0370353
6.76944e-10
0.00179216
0.0026429
0.00395428
1.25448e-07
1.58691e-10
9.42242e-10
1.5403e-09
0.0147834
1.89888e-08
6.56731e-08
0.00105371
4.84344e-09
0.0231197
0.00197581
2.35075e-06
0.0368759
0.353522
0.00252799
0.280311
0.00025361
0.0437863
0.209051
8.22672e-05
0.0235762
0.0682319
0.00599876
2.0457e-05
0.0887348
0.764264
0.00996342
4.09992e-08
0.00248802
0.00255793
0.00125909
9.20969e-05
1.80762e-09
1.60942e-10
0.0134516
3.85705e-05
0.00269256
3.90295e-06
0.00141958
0.00141978
0.0365626
0.000575621
1.56014e-08
0.0333315
8.18486e-06
0.0204959
2.707e-08
4.97114e-05
0.000203329
1.77193e-06
3.4384e-07
0.0406783
1.54218e-09
0.0101039
0.0635346
9.95723e-09
0.0725801
4.29618e-05
0.0369419
0.000607801
9.76844e-08
2.72867e-05
0.00162372
0.0458371
0.00403931
0.00132502
0.161178
0.000201638
0.00401763
9.91223e-07
1.07449e-05
0.494999
0.161917
4.28002e-08
0.24095
0.000864234
0.000162135
0.00987671
0.000211484
0.00120612
0.023253
0.00939146
0.00225063
0.00487189
0.00196946
0.0454786
8.06584e-08
0.0329064
0.0263304
9.70048e-08
0.00842837
0.270863
0.0282675
2.94175e-07
0.00190854
1.51532e-08
0.0101399
0.225593
2.28179e-08
0.178965
0.341857
0.001344
0.00495438
1.09044e-06
0.0484373
7.70028e-05
0.00165929
0.00122266
0.000327095
4.2663e-06
0.0451992
0.0070466
8.57082e-10
0.000424606
0.00054363
0.000912021
0.000466376
0.000862388
0.000171305
1.145e-09
6.85158e-05
0.0226163
4.11549e-07
0.00179623
0.350479
1.74516e-07
3.22113e-08
0.00323609
0.00330274
2.91197e-09
0.000611102
8.53791e-08
1.57011e-08
1.27037e-08
4.49142e-07
5.03718e-06
1.65388e-07
0.000353807
0.0516802
1.54415e-09
5.42037e-07
0.00450407
0.115737
0.00179101
0.00915083
0.0324692
5.36891e-09
0.000293338
4.24165e-09
2.24567e-09
0.000569511
0.148078
0.0421183
5.57279e-09
6.77536e-08
0.0355939
1.81027e-08
0.0230678
4.69437e-08
0.00687251
7.26191e-09
0.0019628
0.0264072
2.65582e-09
7.55946e-07
5.58648e-07
0.00143435
6.26683e-07
2.37344e-08
2.07579e-06
0.00445027
0.0539352
0.00430888
0.000607348
0.00107188
4.31194e-08
0.00140043
0.00195992
0.0440791
2.98636e-06
0.000225434
0.00542149
1.18589e-07
9.47845e-06
0.00015014
9.99648e-08
0.00813375
0.001612
0.00323104
0.0730581
1.21922e-09
0.0231802
0.060689
0.000121713
7.73177e-05
5.50388e-09
0.0263165
2.13518e-08
1.12972e-06
2.86286e-05
0.0516511
5.50773e-07
0.00236306
2.7539e-05
0.000882391
1.6838e-05
7.49384e-09
3.80711e-06
1.65971e-09
0.00248069
0.000658143
0.306563
3.11568e-08
5.06779e-07
0.00212669
2.30384e-10
4.78422e-05
4.47199e-07
0.0362167
0.000849257
0.031897
1.43931e-08
0.00140594
0.000169026
6.31664e-05
0.000288242
4.88345e-08
0.0013701
0.0248066
0.137048
0.00119935
0.000323466
6.13002e-08
6.6421e-10
2.21384e-08
0.186153
0.0745663
0.00756707
6.96686e-10
0.174693
2.96983e-08
0.214119
0.00315154
7.59615e-07
9.07725e-08
3.39537e-06
6.14856e-07
0.0414715
2.11409e-06
0.000122982
0.323713
0.00678318
7.21306e-05
3.3948e-05
7.07627e-05
5.19211e-05
3.14175e-08
3.80115e-10
0.0256714
0.000436648
8.2434e-09
2.01435e-07
0.000612253
4.59007e-07
0.00152455
0.422456
1.76744e-06
0.00357009
4.01031e-10
0.000385935
2.65284e-07
0.331715
2.7228e-09
0.118958
0.00554323
0.000756514
0.0182278
0.0341884
0.000945411
2.5726e-06
0.000550209
2.29637e-06
0.00461287
6.14239e-08
1.85951e-06
8.549e-05
2.38548e-06
0.0704689
2.74392e-07
0.00722916
0.00844372
2.10184e-09
0.000383504
8.58685e-08
0.00083104
0.000837851
6.84632e-08
0.0180455
0.000241973
5.49705e-07
0.0233312
0.189914
0.00368801
0.0112419
1.51914e-10
0.0464854
8.92703e-06
1.9089e-07
0.0369043
4.92294e-06
0.113792
8.81443e-09
0.152148
0.000729779
2.01596e-09
0.00109661
4.07142e-07
2.60338e-09
0.003112
0.00101476
0.0102764
8.55322e-09
1.11727e-06
4.59947e-08
0.000883273
5.05677e-05
0.0343228
6.29294e-06
0.000926989
6.77737e-05
0.00116938
3.08651e-05
3.51128e-06
1.08271e-06
0.0183016
0.00974075
0.0181844
0.0358555
0.0440436
0.000267314
0.0478407
8.95717e-10
0.00959452
1.17631e-07
6.38168e-05
0.000457899
0.00669093
0.000421549
0.00054189
0.0020268
9.32155e-10
0.00718741
0.00837552
0.000214864
0.000820844
0.015148
0.000908525
1.6863e-06
0.0302578
1.37207e-07
5.88537e-09
0.000265277
0.0744977
0.00100186
6.39276e-07
0.047331
0.00067016
7.17467e-07
1.35163e-07
0.000598381
2.90379e-06
0.055715
0.320511
0.000363383
0.000419082
0.0223591
0.00721048
2.30685e-08
1.22385e-08
8.52025e-05
0.00406711
0.0348538
0.0551378
0.00969717
3.06965e-08
0.000322758
0.0416299
2.75981e-05
0.00115425
2.57138
0.0440229
0.122061
0.0512089
0.0214615
1.23476e-09
0.00203449
6.62401e-07
1.59634e-07
1.92841e-07
7.56584e-09
0.002864
3.84409e-09
2.19909e-09
9.1734e-05
4.92706e-08
6.53935e-09
9.51638e-07
0.00969973
0.059832
0.0108544
0.00314846
0.0772429
0.263991
5.53988e-09
0.18848
0.00016449
0.394394
0.0130018
1.10533e-07
9.29893e-05
0.00763458
0.262198
1.73733e-09
0.00118299
0.0190985
0.0046992
1.63461e-05
0.0258774
1.08407e-06
2.39707e-07
0.0786318
1.05433e-08
0.00811994
1.0759e-07
9.02566e-07
0.00830482
0.000460053
0.0027892
1.15806e-06
0.000389501
0.000660828
4.21934e-07
0.000206008
7.46665e-07
0.0232702
1.43807e-07
1.30235e-07
0.254697
0.0443987
0.000539087
3.3165e-07
6.15921e-09
0.00472164
0.195038
0.00468611
0.0151784
0.217916
0.0202238
2.37498e-09
0.0362137
0.00310122
0.00672964
0.0368162
0.0105429
7.83222e-09
0.192745
1.15923e-09
0.0405625
0.00924078
0.0110483
1.67451e-08
0.0132249
1.32334e-06
0.00273208
0.00900806
5.07099e-06
3.03617e-10
4.68465e-09
0.00292933
0.0815507
2.48695e-09
0.00423076
0.0214617
0.000100335
0.0073594
0.0489674
2.32457e-06
0.000139922
0.00083421
6.12393e-08
0.0102904
1.97278e-06
0.00258293
2.88191e-08
2.6369e-08
0.0122296
6.07257e-09
0.000219516
0.00367996
3.02964e-08
7.99406e-08
0.00454842
0.000548218
0.357757
1.18258e-07
0.252014
1.84633e-06
0.000369754
0.00017099
0.00751032
8.39394e-05
0.0802198
0.00556123
5.49336e-05
0.00108371
0.0677646
7.15661e-07
4.96911e-08
0.000426632
0.000782925
0.0421548
1.91485e-07
0.03491
0.000945546
1.54745e-08
0.231566
9.80044e-09
1.69918e-07
2.34979e-06
0.00291813
0.310914
0.0582019
4.87084e-07
2.36908e-08
1.73103e-09
1.11564e-07
1.09338e-07
6.5492e-07
1.20181e-07
5.94068e-09
6.41449e-08
1.14879e-08
1.848e-07
0.0638296
0.0378515
2.85968e-09
1.3809e-05
7.85765e-09
7.73456e-08
1.24942e-08
0.0371024
0.0823749
0.017175
3.6445e-08
1.23986e-08
8.30866e-07
0.00658275
4.06087e-06
1.36119e-07
0.290793
2.72008e-07
3.12519e-06
0.0228876
0.000188916
5.33162e-06
0.00853357
0.0243163
3.14184e-08
0.00330542
0.00465346
1.78978e-08
0.0132865
0.0391022
0.0176671
0.00338902
0.0106337
3.64764e-06
1.12316e-07
0.334065
0.0105701
0.00323104
0.0638578
0.00683738
0.00177631
0.021305
0.0100295
0.000701134
0.0155176
0.00106168
0.01022
3.37282e-06
0.0244138
0.00840171
0.00164046
0.00141109
5.63142e-09
6.36169e-08
4.57477e-08
6.83717e-10
1.77822e-07
0.0092073
0.0134629
1.95556e-08
2.98375e-09
1.8128e-07
1.7322e-05
4.64287e-09
9.86453e-09
8.35083e-07
1.11724e-06
0.00463835
0.000283822
0.021604
0.247138
1.23184e-07
1.15609e-05
0.0301856
1.11913e-05
4.04529e-09
1.77424e-08
0.231399
5.6122e-07
5.99018e-09
4.86826e-06
0.233215
0.0134991
0.0332387
0.0341032
1.09883e-06
0.0139331
0.00034858
0.000386738
1.97199e-08
0.0118072
4.98295e-06
1.85526e-07
0.0163216
1.03813
0.196668
6.7706e-06
1.37583e-06
0.016843
0.0198378
0.0177016
0.00551623
0.00679508
1.20668e-08
0.00063888
0.000415078
0.0610584
1.00143e-05
0.274945
3.02907e-08
0.00197284
0.024761
0.0173995
0.0111891
3.26384e-06
0.00602918
3.59006e-08
9.76955e-06
1.10355e-09
1.95734e-08
0.00245985
0.873678
1.00268e-07
5.62362e-09
0.000426583
0.0229834
0.00171746
0.00679771
0.0322121
0.00469781
0.0200444
2.01127e-05
4.56182e-06
0.000205242
0.029196
0.00554473
0.00330946
1.21293e-06
7.21791e-09
0.000157485
0.0217303
0.00262197
4.74883e-09
0.148624
0.0569027
0.00630335
0.00605458
7.56509e-09
0.000195805
0.00674518
0.0223306
8.6049e-10
0.000408231
0.014599
0.00102899
0.204941
0.00459015
0.00775009
0.000246224
0.00323685
0.0203724
0.0351536
8.46301e-05
0.0219783
0.00011978
0.199317
0.00016539
4.23596e-10
0.00248586
0.00741976
0.000416987
0.011247
0.000463884
0.000999705
0.00049372
0.041099
0.00358894
5.2577e-05
0.0372304
0.00127511
1.32981e-07
1.08453e-08
0.101933
0.000520053
0.00102258
1.06456
0.0342192
0.0116372
0.000428874
0.0436416
2.28045e-06
3.22734e-06
0.00382633
4.20244e-05
0.00198071
0.00405835
0.0021463
0.00450783
6.33008e-09
0.000216373
0.104253
1.95157e-08
0.0156803
0.00730502
8.03847e-06
0.00389147
0.000137483
4.08192e-08
0.000595233
0.138596
4.75699e-08
5.6021e-09
2.10318e-08
0.148517
0.251002
0.0135879
0.0532989
0.00459032
0.0316509
7.98831e-06
0.00774305
0.0119775
0.023109
0.0014847
0.117425
0.339918
0.400211
0.0100683
0.00874851
0.0356636
0.156913
0.363412
1.37569e-08
0.174803
0.0479905
1.08748e-08
0.00040461
5.86699e-07
2.89773e-08
3.72901e-08
2.28286e-07
1.83296e-08
0.139819
4.4445e-08
0.00688821
0.00129821
2.27262e-08
0.0036799
7.32792e-06
0.013362
6.51005e-08
0.000611753
6.43106e-06
0.0207344
0.000217767
6.52337e-06
0.00409035
0.0272783
0.0159035
0.00375472
0.0259844
0.00332829
0.0221316
0.0519895
0.00933106
8.34531e-07
0.0010715
0.000338621
0.00538281
0.00986137
0.000593363
1.15528e-06
5.78724e-05
1.54821e-07
0.00337232
0.0411875
0.000729784
0.328293
0.00241609
0.000355029
1.76458e-08
0.0615067
1.16809e-09
0.0083571
0.0201717
0.00114455
9.61138e-05
0.00178237
0.00656918
0.00177073
0.000803407
0.00639653
0.00588941
0.00255388
2.24886e-05
0.078412
3.55283e-07
0.0124396
0.0103816
7.99041e-07
7.28399e-10
0.000260564
0.00810826
0.0174731
1.38758e-08
0.00211866
0.044363
0.000212016
0.00443296
0.0853006
1.70696e-09
8.81683e-11
0.00349722
4.12152e-09
0.000105478
0.011454
2.17315e-05
0.010305
0.031062
0.018044
3.02858e-08
0.00146279
9.02441e-05
0.000131441
0.0460451
2.93012e-08
9.8155e-07
0.0101787
0.000535595
1.00889e-06
0.161481
0.000927997
2.90899e-08
4.11073e-08
0.000230202
8.18817e-05
0.00230354
0.00299691
0.0243134
0.241668
2.66834e-10
0.000333156
0.000697205
0.0425002
1.75044e-06
0.0474643
0.0830176
0.00011918
7.51307e-06
2.0051e-05
1.1253e-08
1.55843e-05
2.69948e-05
0.000374704
1.90926e-05
0.00032172
2.59782e-05
0.000663681
0.000344813
0.000577916
0.000129861
1.67468e-08
0.027017
0.00949673
6.30665e-06
0.0822031
0.000247549
0.000213706
1.38097e-05
0.00115496
0.0002639
0.00261569
0.000385359
0.00105565
1.93853e-05
2.44898e-08
0.00117052
0.000420118
0.0668188
2.13128e-06
0.0365949
4.90101e-05
0.0350957
8.50406e-05
8.35725e-07
0.000397125
0.0263344
0.00752586
2.51263e-08
0.000296441
1.10297e-05
0.00422364
0.00122257
0.339626
4.59521e-05
2.03186e-06
0.019162
0.00154033
0.00489746
0.0335802
0.0703709
6.32816e-10
0.0194919
0.00370183
0.0494454
5.70514e-09
0.00114528
5.68669e-07
0.0427171
4.97095e-08
4.7817e-09
0.00317832
0.00207834
0.00288597
0.297898
0.0395199
0.0253034
0.0338206
0.0161729
0.219992
0.0429071
0.00492256
0.00462644
0.00466037
0.000569111
0.00953131
0.0373813
0.00145795
0.00139851
0.0307365
1.91124e-06
0.00322836
5.19507e-07
0.0172339
2.2929e-06
7.69223e-07
0.00156805
4.14789e-06
0.00578157
2.48177e-08
3.60374e-07
0.0799923
9.6534e-09
7.65391e-08
0.000826993
6.28909e-08
0.000694331
3.55058e-05
0.0653803
0.0166251
0.26515
0.00744141
0.00696624
0.039889
0.54829
1.97049e-10
0.0645723
0.027964
0.0164255
0.0227217
0.00225293
0.0527059
7.02394e-06
7.45307e-06
8.51442e-07
0.129015
1.08902e-06
1.02382e-07
0.0166722
6.62918e-07
1.6651e-08
0.00522666
2.48745e-06
0.284796
8.21471e-05
3.4934e-05
4.61126e-05
5.83991e-05
0.00143788
0.00635796
1.19463e-10
0.0218095
0.000405908
2.14804e-05
0.0949348
6.92751e-08
0.0146907
0.0169798
0.00354296
3.22346e-08
0.0169453
0.00950768
0.000863073
0.00510421
0.0115551
2.9105e-08
2.23484e-08
0.00166318
2.21034e-08
1.41001e-09
3.03139e-09
0.0185776
0.354015
0.00426198
0.00218165
6.9005e-05
0.0472962
0.0431757
0.00398647
0.00239119
0.00881428
0.0195559
0.00262807
4.02511e-09
2.77541e-09
4.01332e-09
0.00687839
1.11684e-07
0.351004
0.000525946
0.000758073
0.00183781
0.0024921
0.0206318
2.47341e-09
0.0592325
0.00241896
0.000367689
1.55077e-06
4.08887e-07
1.61659e-07
0.47923
0.00030868
0.000578538
0.000861021
0.00963763
0.204038
3.16925e-07
3.20167e-07
5.00137e-07
0.00365074
0.0167253
0.0190179
0.0330994
0.00168865
0.00337487
3.58573e-06
5.57113e-10
0.000190563
3.79421e-07
0.165034
0.0211448
2.39909e-07
1.24892e-06
1.8973e-05
0.0605952
0.0297269
1.82898e-05
0.0131839
0.090483
0.0009249
0.397158
0.0469802
2.57016e-05
0.0216623
0.173188
0.0186282
1.05468e-05
0.00486204
1.53423e-08
0.0137704
0.00171252
0.0232801
1.1352e-05
0.000378162
1.23306e-09
0.0231054
1.02376e-08
2.8579e-05
0.38066
1.20876e-07
0.00579762
0.00118848
3.74925e-07
4.06044e-08
0.00198738
4.17186e-07
1.12785e-07
0.0122314
0.000143061
1.37065e-08
0.0232595
0.0440519
0.0162019
2.61172e-10
1.92143e-09
0.000575101
0.00259093
0.0030435
3.32996e-09
9.84813e-08
0.00013247
0.00377242
0.00186832
0.012556
0.365603
1.10155e-09
0.14099
0.0111778
0.0062052
0.0557923
1.0841e-06
2.12519e-08
0.0227882
7.83123e-10
0.0296055
0.00494775
0.00564463
1.10083e-06
9.3698e-09
4.05669e-09
1.61671e-08
2.0361e-05
0.133307
0.211579
0.00215331
2.52884e-06
1.77529e-10
0.0556998
0.224485
0.0337166
0.110604
1.42177e-07
0.000963077
0.000245628
2.3978e-07
1.31076e-08
0.00366317
0.00623716
3.66798e-08
1.10564e-05
0.00280702
0.059901
0.204191
0.00107575
2.00712
9.84437e-09
3.7196e-07
0.0113175
0.000700535
3.35167e-05
0.637118
0.000584741
0.00607138
6.79547e-09
8.65886e-08
1.26429e-05
0.0581964
0.00814188
0.177104
1.97975e-08
0.024146
0.0183705
0.828689
1.17089e-08
1.33688e-09
1.10448e-07
3.50943e-08
0.0065007
0.000324719
1.03026e-08
0.0372751
0.01794
0.159393
0.00462976
2.99313e-06
1.64996e-06
0.0276091
1.32609e-05
3.13336e-08
2.34578e-08
1.34039e-08
0.0206013
9.5541e-06
0.0577781
0.0559298
0.0247787
0.0115494
5.82025e-09
2.3687e-09
2.47751e-08
0.0146884
0.000249137
2.01938e-07
3.57373e-08
3.57878e-09
0.0219143
0.00233194
0.0107468
0.0403328
0.00192942
0.31062
0.00468488
4.38641e-07
4.41469e-10
2.59055e-07
0.0534024
8.46049e-10
0.0184453
2.23455e-08
0.0145209
4.49047e-05
0.00157701
0.000145145
0.00237986
4.01806e-09
1.58901e-08
0.36741
0.156301
3.49813e-05
0.00373203
4.22131e-07
0.000457794
9.65449e-05
3.00581e-06
3.29718e-06
0.000299936
7.85538e-08
0.0010081
0.0391123
0.0338197
2.05457e-07
8.31957e-05
9.05418e-07
0.0340412
0.181306
0.000151639
9.15605e-10
0.00949078
3.40581e-07
0.0026824
0.0175364
0.00137556
1.12629e-08
0.000881401
0.000522623
0.000134304
0.00413647
0.000123135
0.00166536
5.36257e-06
1.15789e-09
0.000157282
0.00551333
0.000294689
6.60554e-07
9.63106e-06
0.000122371
0.554038
9.40826e-09
1.94463e-08
3.49622e-08
3.64231e-10
1.27208e-07
0.0216125
0.000582087
0.00111178
0.000106148
0.000205154
0.00145741
2.72114e-10
0.0052542
6.98341e-09
5.38057e-07
6.8106e-09
2.58971e-05
0.00204798
1.53934e-05
1.11346e-07
1.33005e-08
0.0137862
1.22737e-07
7.55089e-09
0.155791
9.2202e-06
0.072465
0.119983
0.538575
8.83132e-09
0.193305
1.09081
1.09025
0.61331
2.32105e-09
3.81282e-10
0.00459663
0.00433365
6.80794e-05
0.00993882
0.0421472
0.0302594
3.27483e-05
4.45959e-06
0.00124209
3.38722e-08
1.25999e-09
0.000123661
0.000409543
0.0260681
7.69089e-09
0.117362
0.000126647
3.35121e-07
0.000110189
0.0077718
0.00153657
2.27105e-06
0.00752068
6.63234e-09
0.00328188
0.00216506
0.006983
5.74428e-08
0.00175405
0.00541761
1.06214e-05
0.00321444
8.59824e-08
0.0301368
5.68396e-05
0.00906411
8.62372e-07
0.192307
5.62515e-08
8.4886e-07
2.72927e-08
0.117479
0.120475
2.06654e-06
0.011246
0.00873763
0.0550134
3.34348e-08
0.0302808
0.0160069
0.172676
1.27828e-06
0.194581
0.0233438
0.0428934
0.0036235
1.60239e-07
0.0533312
1.71263e-06
0.211986
1.83523e-09
0.00240411
0.0039663
1.12942e-07
5.45615e-05
1.27068e-06
0.0192209
7.64569e-09
0.039763
2.90089e-07
9.99442e-06
1.09897e-06
5.29922e-07
0.000255702
0.00186039
0.125221
4.92e-06
0.000245704
0.0381238
1.33452e-06
0.0429611
7.60925e-07
3.37894e-06
2.50051e-06
0.00547695
1.99559e-10
4.95176e-09
7.95478e-10
0.00303722
5.61722e-08
0.0671542
2.21722e-05
0.00303757
3.96719e-09
0.00565674
0.334261
0.0050809
0.00516936
0.0246419
1.2449e-05
2.00024e-07
7.90963e-08
0.00294134
0.00161792
2.74362e-06
0.000543373
0.000565638
4.7079e-08
2.94014e-08
0.309685
7.04561e-08
0.0200891
4.09256e-08
0.00218429
0.00302198
1.99618e-07
9.486e-10
0.0456615
7.27093e-09
2.75339e-09
0.0168221
0.0564019
0.00433109
2.23473e-06
1.40044e-08
0.00637753
5.32186e-06
0.0116302
6.05972e-06
8.39237e-09
0.00216555
6.71649e-05
0.129426
3.96156e-09
5.14655e-09
4.46714e-09
0.00310467
0.164132
9.58931e-07
1.59989e-08
7.55696e-06
0.00143195
1.95809e-08
0.0178245
0.0285238
5.26754e-08
4.45037e-09
0.00664504
2.39745e-07
2.08441e-05
1.60688e-09
2.54437e-05
9.18506e-09
0.0628403
0.000349336
1.33939e-07
5.55922e-09
0.0686671
3.00123e-08
0.0564767
2.42836e-07
5.12629e-08
9.60018e-06
0.00688461
0.0466265
0.00790194
0.049877
0.0606041
0.533414
0.00251233
0.0403358
1.08341e-05
1.65511e-08
0.00225588
0.140151
0.0369787
0.0421657
1.1789e-08
0.00677629
1.65991e-08
0.00439896
9.88146e-07
0.00879907
0.000171418
0.0521526
5.2686e-07
1.64295e-08
0.019805
0.000293937
2.42713e-08
0.0245326
0.000292229
1.97546e-06
8.88759e-10
0.0330903
0.00916811
0.00593011
0.000783879
0.00167545
0.0159551
0.000939725
0.00455159
8.70821e-06
0.0263119
0.000125761
0.00045696
4.17316e-09
6.2714e-07
2.80035e-08
0.00954037
9.04415e-08
2.31155e-06
9.43484e-11
0.000400316
0.390057
0.0884398
0.00225765
4.82688e-09
0.00390666
0.0548748
0.10242
0.00286912
0.000270833
0.0412793
5.55618e-07
1.19103e-07
2.91712e-09
0.00271102
0.00120266
3.98558e-08
4.34829e-09
0.00228349
1.65433e-07
0.78488
0.0538715
0.0933953
5.29759e-09
1.13946e-08
0.0420443
4.8824e-09
0.0090983
9.91865e-09
0.000646019
2.1749e-08
0.00895931
5.12829e-08
6.08348e-09
0.00107827
0.154003
0.0645848
1.4163e-08
0.0689301
4.25457e-08
0.00387037
0.172299
0.117279
2.39637e-07
0.000494016
3.76518e-09
1.96178e-06
0.000278913
0.0156454
0.000301402
9.68613e-09
0.000631268
0.00305322
0.00486835
0.00758021
3.66506e-07
3.31811e-07
3.37971e-06
6.09393e-07
9.83723e-09
3.42831e-09
0.0747644
0.037137
1.40963e-08
0.0838285
3.41788e-10
2.08834e-08
0.0689034
5.02687e-09
4.7053e-09
0.0398474
1.86012e-08
7.27168e-10
1.01246
1.99675e-09
1.2574e-09
0.00190558
0.0922819
1.38866e-07
0.0371038
8.58571e-09
0.0210075
0.0499724
6.2731e-06
0.000863194
6.15424e-10
7.26142e-08
1.04428e-06
1.84371e-07
0.318474
0.0452785
0.000261179
3.25492e-08
0.0462558
1.01932e-09
1.99552e-08
2.57669e-09
0.102128
0.00177193
0.000111685
1.29087e-09
1.29068e-06
0.0481095
0.00091122
3.65671e-07
0.000252729
0.108293
0.0855866
3.55776e-05
0.0847785
0.000924102
0.0426477
4.19424e-05
0.0654363
0.000343329
0.0290163
1.46784e-06
0.0066008
0.0004573
0.000928009
6.99699e-10
0.00132953
7.0504e-08
0.00383909
0.0241919
9.98168e-07
0.00236607
0.000311228
1.74369e-07
0.0101178
9.01154e-08
2.66357e-08
2.76863e-08
4.50881e-08
5.05796e-06
4.45836e-08
4.82196e-08
7.42673e-08
0.26552
4.31084e-05
2.41106e-10
1.7682e-09
5.54372e-08
9.90585e-08
0.0299741
0.770073
0.00209581
0.000139974
9.82287e-09
0.0020014
0.00137413
0.0463226
3.19612e-05
1.28978e-05
5.6406e-07
1.08876e-06
2.44463e-06
0.000222365
0.000116826
0.179036
0.0671325
8.22445e-08
0.0010435
0.000298782
1.36015e-08
0.0244258
4.59079e-06
3.91494e-08
1.72755e-06
0.161317
0.0621163
1.56312e-09
0.0247003
1.47075e-08
0.0484116
5.11483e-05
0.0354816
0.0525809
4.81644e-09
6.54075e-09
2.31513e-08
2.50241e-05
0.00568711
0.225301
0.0279284
0.0419848
0.00441348
0.000533485
8.65657e-10
0.000116358
0.136531
0.00130007
9.50948e-05
0.00295454
4.04872e-06
0.0987259
4.65669e-08
0.205946
0.0383339
1.24361e-08
0.000485418
0.00715421
4.04941e-08
0.00983792
1.39196e-08
1.85736e-07
0.197847
0.0296573
5.33442e-08
8.27328e-09
6.87995e-07
2.53521e-09
5.9992e-09
0.000126325
2.44413e-08
5.41602e-10
0.00311768
7.69466e-09
9.79021e-08
2.69476e-07
0.000228599
2.20302e-07
0.000168236
1.05383e-07
4.69603e-08
2.25305e-05
6.59592e-05
0.00352341
0.0428826
8.04684e-05
0.00498706
2.29723e-06
0.318834
0.31418
1.246e-07
0.00340005
1.75993e-08
0.0455358
0.0380023
0.000403837
0.0897339
0.068452
7.15032e-06
1.2337e-09
0.00242935
1.12861e-08
1.25262e-09
3.96706e-07
1.57945e-05
6.98934e-09
1.73278e-05
0.0356657
5.06572e-09
2.43046e-08
0.337603
1.52733e-09
0.0171473
8.23111e-06
0.00130798
9.89972e-09
0.000441474
0.00014538
0.238684
0.00798463
0.0237954
0.000182297
0.0402064
0.000268474
0.0748429
0.000149948
0.000227455
0.00982013
0.0577692
0.000323984
0.00127213
4.28513e-06
1.76302e-07
0.00109198
0.00022795
0.0161747
0.012046
0.000148947
1.88906e-06
0.00549156
0.00517142
0.0184252
2.1035e-09
0.0122507
0.0166534
0.00271718
0.00147753
0.00126127
0.003268
0.0190023
0.0405206
0.00717904
0.011024
0.00797788
9.03904e-05
0.00288194
0.00362879
0.00106246
0.00266071
0.0142081
0.0137164
0.0195232
0.000121598
0.0111374
0.000420551
0.00502837
0.00282292
0.00036381
0.00236653
0.000203007
0.0752245
0.00396943
0.00121497
0.000141346
0.00072783
0.0159797
0.00242513
0.210491
0.00350094
7.27904e-10
0.230825
0.0450342
0.0220633
0.00706695
0.0201646
0.000402628
0.00869311
0.461519
0.00211584
0.0013963
0.00247508
0.174372
0.00119184
0.0742998
7.45902e-05
7.72845e-08
1.30769e-08
0.00220042
0.00610583
0.0118318
0.0708906
0.0069136
0.0611745
0.0549949
0.0681373
2.87842e-08
0.00726211
0.00267146
0.025832
1.05735e-06
0.00632191
9.14469e-08
0.224462
0.0115353
0.00742079
0.220416
5.15328e-09
8.96826e-08
0.0021785
0.000109426
0.000755765
1.55671e-07
0.00656067
0.000958535
0.0788867
9.08663e-07
0.022106
0.00308696
0.000350336
0.000126718
0.00241238
0.00134741
2.38772e-07
0.00183493
5.29802e-05
9.78025e-09
0.268221