/*--------------------------------*- C++ -*----------------------------------*\
  =========                 |
  \\      /  F ield         | OpenFOAM: The Open Source CFD Toolbox
   \\    /   O peration     | Website:  https://openfoam.org
    \\  /    A nd           | Version:  10
     \\/     M anipulation  |
\*---------------------------------------------------------------------------*/
FoamFile
{
    format      ascii;
    class       volScalarField;
    location    "16.5";
    object      SgT;
}
// * * * * * * * * * * * * * * * * * * * * * * * * * * * * * * * * * * * * * //

dimensions      [1 -1 -3 -1 0 0 0];

internalField   nonuniform List<scalar> 
111485
(
3.1863e-15
0.0078487
0.0241023
3.08897e-16
0.048976
3.1788e-16
0.0462535
0.00615545
0.0190158
0.00122675
0.0466417
0.00940755
0.00478745
0.000795541
0.00650566
0.0304608
0.00142076
2.62019
0.0103471
3.49262e-14
8.48011e-16
1.71528e-15
0.0266738
0.0346922
0.00863032
1.48289e-15
0.0396154
0.00176336
0.0154847
2.43048e-15
0.0445288
0.0194629
2.66642e-14
1.36865e-15
0.00655591
8.42159e-15
0.0106047
0.00421699
3.93492e-08
0.0240749
2.06039e-15
0.0708619
0.0158613
0.00152751
6.21449e-05
3.54144e-15
0.0297662
0.000712978
0.0474744
4.97924e-15
2.27684e-15
4.46789e-14
1.35009e-14
0.0511625
8.96076e-15
0.0436688
0.00308759
6.13878e-16
2.05866e-05
0.0047995
0.0160793
8.25272e-15
0.00476033
0.0971713
7.90975e-16
0.00315586
0.315356
0.0944331
0.00110367
0.00606882
1.7343e-05
0.00657025
9.67169e-15
0.00288544
3.21838e-15
0.00071019
1.69016e-14
0.0412334
7.67066e-16
4.59242e-14
1.47428e-06
0.0339054
1.54706e-14
4.69593e-15
0.00929258
0.00386744
3.44384e-10
0.0253369
5.93864e-05
0.00741931
0.000273437
0.0404673
0.0118539
5.75378e-05
0.0522763
5.17542e-15
1.98354e-15
0.00180786
2.87495e-08
0.00114147
1.03505e-14
0.0179475
9.76246e-16
0.0181155
0.00461532
1.79368e-14
4.238e-15
0.00757991
0.00411357
5.91395e-08
0.00542927
0.00473342
0.00376155
0.00320643
8.42477e-15
3.37066e-05
1.43608e-15
1.49165e-14
0.01281
2.48719e-15
5.02447e-15
7.92342e-15
1.0445e-14
2.26482e-15
0.00153395
2.97428e-06
2.83305e-15
0.00169883
5.43995e-16
2.59922e-05
0.00147018
0.0327342
1.07802e-14
1.70837e-14
9.36413e-16
0.0483627
7.46761e-15
0.0425362
0.0253361
0.00271623
0.000247238
0.00200237
0.0225173
0.00267157
0.0039925
0.0130557
9.79004e-15
4.08373e-15
1.70806e-14
0.0280863
0.00155749
2.86501e-15
2.31045e-07
0.00475021
4.47378e-07
0.0108157
0.0162556
0.0106739
6.34976e-08
1.04465e-15
8.9637e-16
0.052269
0.0228076
1.72635e-06
3.27722e-07
0.00582183
0.00342902
8.31048e-16
4.2016e-06
4.48427e-05
2.10233e-15
1.27978e-15
0.000126678
3.6292e-16
0.00550456
0.00208015
3.38605e-16
1.50538e-14
1.04426e-14
2.93523e-14
4.24862e-16
4.74925e-15
0.00150676
0.00678418
0.0297744
0.00412675
0.00761146
0.0040112
7.88031e-05
1.84521e-15
0.00482273
4.23596e-15
3.88212e-16
0.00651261
0.0104288
0.0283799
0.0113072
0.00504178
3.17853e-15
0.00671261
0.000511334
4.19592e-05
0.0142173
0.00232514
2.44201e-15
0.00379269
0.0253216
2.59114e-14
0.000163112
0.007821
0.00202342
0.000365415
1.9948e-15
5.70944e-16
0.00828311
1.0542e-11
0.119625
8.78154e-15
0.00665696
0.0204923
0.119373
1.43953e-15
0.0032582
0.0137192
2.04776e-13
1.18321e-16
4.6052e-16
0.151527
2.56148e-07
8.71756e-15
1.3798e-14
0.00944768
0.00778783
0.0148681
5.91873e-15
4.25351e-14
1.28515e-05
2.19513e-14
0.00241187
0.00950557
0.0165932
0.0116411
0.0096337
4.72981e-15
2.50208e-07
0.000624859
2.84587e-15
1.07389e-14
0.0309015
0.0205806
2.88769e-15
0.00647998
0.010734
1.14729e-15
2.7049e-14
0.00011531
5.13252e-17
6.52727e-15
4.47881e-05
8.25925e-16
0.0148556
0.010747
0.00367028
1.59361e-16
0.0118546
1.04753e-15
9.03505e-15
2.28306e-14
1.84428e-08
0.0228843
0.00615034
0.00545445
0.0364696
0.0123095
0.00157493
0.000568589
0.0324728
0.00880869
6.63059e-15
2.12293e-15
2.43221e-07
0.0226803
0.0245221
0.0118818
1.59633e-15
0.00700368
0.00203653
0.0030153
1.94216e-06
3.6215e-06
0.0137697
0.00218174
0.00194475
3.4264e-15
0.000652766
3.01152e-15
1.90812e-07
4.9827e-13
0.237747
0.0681061
0.011854
2.48419e-15
2.2873e-15
0.00898517
0.00171662
4.60844e-15
7.93281e-16
2.89304e-14
0.000295189
0.0571252
0.00397483
0.0135237
0.0192505
2.21943e-14
1.72387e-15
9.68134e-15
0.00378548
2.19686e-12
0.000843043
0.185015
3.03082e-07
1.32952e-15
1.35899e-15
6.81687e-16
6.61656e-15
0.0599451
0.0118991
8.99853e-16
0.00524899
1.35254e-14
2.2239e-14
0.0671041
0.00592971
0.0114336
0.00928167
1.25853e-14
5.65502e-15
1.24571e-15
0.00943913
0.0187613
0.00480883
4.19211e-15
3.26711e-10
0.000159584
0.00222434
0.00803986
3.36767e-05
0.0284515
3.77704e-16
0.0375254
0.00355187
0.00778946
0.0253771
0.0133247
7.91176e-15
6.30014e-15
1.48721e-15
7.9867e-15
0.0313198
0.00974393
0.0329733
0.0672874
1.38662e-15
0.0185158
6.78443e-16
9.73071e-15
0.0165898
4.19914e-15
0.0784791
9.20139e-16
2.08123e-16
0.0228977
7.96878e-16
0.0135791
0.000287312
6.02783e-16
0.000992097
0.016536
9.02892e-15
0.00889538
0.00916769
0.00814663
0.00068685
0.00270577
0.00551362
3.17349e-14
2.30983e-15
0.00197267
3.94729e-15
0.00626091
0.117093
5.02329e-15
3.61783e-15
0.027566
0.00011031
0.0082699
0.020553
2.83689e-15
0.0469408
0.0187973
7.03077e-15
0.000835972
0.00240845
2.59324e-15
2.63576e-14
0.0109514
0.00520264
6.50551e-15
1.11361e-15
3.65577e-08
5.64867e-15
0.0123094
3.12433e-15
1.69059e-15
0.0168332
1.60926e-06
0.0123592
0.0297988
9.8935e-15
1.91791e-14
0.00150713
1.12152e-15
0.000161859
0.0143568
0.121842
0.838612
1.10156e-14
0.0027561
0.000528718
1.82084e-14
0.0388306
0.031201
3.2838e-16
7.18034e-09
8.89173e-05
5.38521e-15
0.0238841
0.0241145
0.0139135
1.64448e-14
0.000663596
0.0169991
0.0228979
8.23012e-07
1.27044e-14
6.29047e-10
2.54789e-15
1.1743e-05
0.0313015
1.16573e-14
0.00832078
0.000100029
3.06818e-14
5.92666e-16
6.22943e-14
1.16764e-14
0.00369697
0.00959059
0.00638419
0.00208234
0.00265569
1.14123e-14
0.00197726
7.85941e-15
0.0408732
1.14698e-15
9.85997e-16
1.17736e-14
0.036958
8.64085e-16
4.43224e-15
1.56195e-07
1.38085e-15
6.53277e-15
0.00106297
4.19076e-15
2.86587e-15
4.17295e-15
6.13098e-15
5.05355e-14
1.00295e-14
2.41588e-14
0.00694778
5.25519e-15
0.000529978
0.00193974
0.000871168
8.38328e-15
0.000888021
4.22868e-15
7.15765e-16
0.00275603
0.00177999
0.0270784
0.0248931
2.12827e-14
0.00203543
0.0818062
0.0084878
0.00101587
0.00322978
1.17101e-15
0.0233361
1.03301e-14
0.00500978
1.84693e-15
0.0759096
3.57222e-14
0.0210316
0.000244103
4.85399e-07
1.67082e-14
0.00200405
4.40523e-15
0.0801304
0.0486684
1.38592e-15
3.32605e-15
1.84289e-14
1.07698e-15
1.35683e-09
0.0547969
4.96176e-15
5.55485e-15
0.00246192
1.62339e-15
0.0337575
2.23238e-15
0.000319929
3.13189e-15
0.000477254
1.15471e-06
0.00100093
0.0126284
1.63295e-14
0.000414763
1.5927e-14
1.99992e-15
0.0149015
5.96231e-15
2.94865e-05
4.42056e-15
0.00163547
4.65389e-15
0.0643741
1.59509e-15
6.17548e-15
0.0173366
0.00324709
0.00173257
0.0038893
0.00684808
0.0207729
3.29788e-15
0.0251853
0.00605014
2.47245e-15
7.59989e-08
0.0406579
0.0153191
5.29074e-14
0.00376996
0.00681009
0.00177107
0.00100076
2.35573e-10
0.0136695
0.00121708
0.000125391
0.0233258
0.0137365
0.000599178
9.34845e-16
3.14166e-09
0.649001
1.17163e-15
0.000352912
8.66397e-16
4.62883e-14
0.0073203
0.00273163
2.26891e-07
1.67877e-05
6.28774e-14
0.0161751
0.0110371
2.92571e-15
2.00298e-10
0.00134088
9.0501e-15
2.4469e-15
2.20301e-15
3.20316e-15
0.0129238
3.19657e-15
9.63567e-16
0.00862019
0.00191448
2.0637e-14
0.0105219
1.36832e-14
0.00851336
1.04509e-14
6.95539e-15
0.0524213
2.96444e-15
2.1696e-14
4.3562e-14
0.00421818
2.81875e-14
0.0285587
0.00624468
1.70474e-15
0.0885547
0.00236309
0.0285426
0.0279664
0.000439838
7.53705e-05
2.41606e-14
0.0539191
0.0464118
1.1171e-15
0.000315365
0.0405406
0.00794358
0.00140649
0.0275989
0.0260616
7.15865e-15
0.0108031
6.49776e-06
1.03366e-14
0.0347295
0.000252785
3.50002e-14
0.0109395
0.0404926
0.00132835
0.0214808
0.0195811
0.0072027
3.31539e-14
0.0104046
0.000306985
3.29363e-12
0.0170379
0.0178296
0.0357437
4.62214e-15
0.00184393
1.87669e-16
6.77998e-15
1.04444e-14
9.6333e-15
1.36495e-05
9.60223e-16
3.22054e-10
9.91548e-15
2.0469e-15
8.02439e-05
0.0427391
2.37348e-14
0.031128
3.35917e-15
3.25136e-14
2.4547e-14
0.0386509
0.00040155
9.95561e-15
2.00031e-15
2.21718e-15
4.72125e-15
0.207539
0.0695001
8.7001e-15
0.00197906
1.99253e-06
5.01887e-15
0.037237
0.0084586
0.0115315
1.10587e-14
1.42045e-14
0.000411552
0.00106498
2.62658e-14
7.81034e-15
3.88319e-14
0.00722954
1.3932e-14
1.46794e-14
2.06856e-14
0.0419329
0.00208437
2.50369e-15
3.85309
0.352846
0.0097255
3.74422e-16
9.82928e-15
0.0553268
0.00042362
3.19926e-15
4.90823e-06
0.112714
0.00242604
0.0112806
6.10602e-15
0.0525466
0.00188868
1.0146e-15
7.08796e-15
7.98309e-15
3.0379e-15
1.64027e-15
3.99265e-15
0.0222388
2.74521e-15
4.96864e-15
1.95975e-14
0.0113753
0.0236852
2.4018e-15
3.02769e-15
0.105597
0.0142817
0.00986711
2.24832e-14
3.75926e-15
0.0370132
2.45312e-15
0.00170159
0.00264081
0.00394915
5.89355e-15
4.02025e-15
1.92058e-15
5.13562e-15
0.0147679
4.57238e-15
2.70071e-15
0.00103276
2.06996e-15
0.0231058
0.00189357
9.45011e-15
0.0368742
0.352996
0.00252341
0.0291032
0.000142898
0.043778
7.87947e-11
5.97202e-14
0.0235702
0.0682035
0.0059978
1.476e-14
4.92709e-10
0.763561
0.0099628
1.19081e-15
0.00247527
0.00247867
0.00116029
2.87935e-14
3.25528e-15
8.87863e-16
0.0134503
2.72955e-14
0.00268324
4.5967e-15
0.00121225
0.0014164
0.0365329
0.000575473
2.77483e-15
7.29249e-15
6.48251e-15
0.0204956
9.22036e-16
1.01209e-14
7.21255e-05
2.89928e-16
1.29065e-15
2.08336e-15
1.19552e-15
0.0100767
1.89503e-14
1.21576e-15
4.38345e-10
3.72469e-14
1.66766e-15
4.39336e-14
4.60542e-15
2.98065e-06
0.00160167
3.42662e-15
0.00398234
6.36233e-06
2.98519e-07
5.952e-05
0.00400628
2.88174e-15
9.29815e-06
0.0100762
0.000391209
2.15647e-15
4.79166e-09
0.000850381
7.10999e-15
0.00985163
0.000189515
1.62751e-06
0.0232137
0.00937755
0.00224377
0.00487175
0.00196768
1.09233e-14
1.52738e-15
0.0328511
0.0263024
4.48707e-15
0.00842443
0.0541969
0.0282631
3.49968e-14
0.00127006
5.96719e-16
0.0101359
0.0138854
3.8421e-14
0.00158401
0.000445232
1.19488e-06
0.00493673
8.09497e-15
0.0484335
1.4899e-05
0.00143434
3.028e-05
1.23112e-05
9.1747e-15
1.24435e-14
0.0069359
5.70642e-16
0.000120404
0.000247865
0.000299971
5.74949e-08
7.04055e-08
2.19498e-07
1.46644e-15
1.87257e-14
0.0226153
5.0864e-15
0.000109707
0.00199032
2.58321e-14
7.07202e-15
6.56019e-07
8.89808e-10
2.01504e-15
5.0933e-06
8.65527e-15
3.6091e-15
5.40574e-15
1.79417e-15
3.17156e-14
2.21048e-15
0.000276209
2.17823e-14
5.5363e-15
7.85963e-15
6.52188e-06
4.93194e-05
0.00171688
0.00915006
1.41089e-16
8.69048e-15
0.000160224
8.54331e-15
9.70743e-15
9.90443e-14
0.0185058
0.0421158
2.88836e-15
9.16031e-15
1.32873e-14
1.9852e-14
1.4256e-15
1.88822e-14
0.00676892
1.07504e-15
5.31627e-08
0.026404
1.3419e-15
2.28851e-14
5.60794e-15
2.83127e-05
1.58344e-14
4.21813e-15
6.96419e-16
9.50627e-06
8.11928e-15
0.00423676
9.10469e-07
5.94638e-09
5.61043e-15
7.63542e-05
0.00194969
0.0440788
2.46601e-14
8.47272e-06
0.00539897
1.19335e-14
1.05725e-14
8.35942e-14
2.75493e-14
0.00813241
0.00161126
0.00321477
1.78508e-07
5.0675e-16
0.0231794
2.44324e-14
5.51766e-15
4.09135e-14
7.42398e-16
0.0263157
3.64548e-15
3.31979e-14
1.61021e-06
0.051598
7.4123e-15
0.00233302
3.77649e-14
0.000799768
8.03138e-14
4.33084e-15
4.03047e-15
4.36172e-16
0.00248019
0.00059193
0.306377
9.61969e-17
1.57768e-14
0.00212228
2.05456e-15
7.55617e-15
2.53618e-15
0.0361443
9.66344e-06
0.031822
1.04129e-14
1.09592e-05
5.00878e-05
2.90645e-14
0.000129338
1.04066e-14
0.00120706
0.024804
0.0201015
0.0011646
0.000226468
1.22326e-14
6.56278e-18
1.19951e-15
2.2274e-05
4.68697e-16
0.00752242
7.85557e-16
0.174554
1.90851e-15
0.0412275
0.00299454
2.31904e-14
3.68759e-15
3.29503e-14
1.03243e-15
0.0413819
4.19145e-14
7.44917e-14
0.0116919
0.00677904
7.55675e-14
3.68159e-15
6.44474e-15
2.46338e-14
3.88287e-14
2.1626e-15
0.0256685
0.000400488
6.83941e-16
1.20064e-15
5.38104e-07
4.55152e-15
0.00152314
0.000105266
5.08346e-15
0.00350196
2.01749e-15
0.000382631
2.32216e-15
0.00109814
2.50346e-14
7.00845e-08
2.14098e-06
0.000619779
0.0182105
0.0341731
1.16396e-06
1.76626e-14
0.000546068
1.41234e-15
0.00461188
7.40487e-16
6.45727e-15
2.29473e-14
7.09415e-15
6.185e-15
1.52607e-15
0.00722479
0.00813664
7.60489e-15
4.79155e-15
3.6562e-14
0.0007915
1.26759e-05
6.96135e-16
0.0180434
0.000172507
1.55414e-14
0.0233218
0.00806652
0.00368719
0.011232
5.0918e-15
3.46286e-15
1.23542e-16
5.95763e-16
0.0369041
4.10326e-15
0.113785
7.6975e-16
0.000317123
0.000728263
2.83454e-15
0.000971688
8.97443e-16
3.06178e-15
0.0030662
2.26323e-08
0.00938985
2.84687e-15
1.20565e-14
4.6989e-15
0.00083436
3.0509e-15
2.92447e-16
2.43424e-14
2.76378e-07
2.95162e-15
6.59422e-06
5.25627e-14
2.7804e-14
3.18749e-15
0.0183011
0.00968878
0.0181823
0.0358482
5.15909e-15
1.58485e-05
1.80316e-15
8.40335e-15
0.00958661
3.13614e-15
2.1911e-06
0.000355883
0.00667909
0.000372543
1.07296e-09
0.00187632
1.78429e-15
1.27494e-09
3.48298e-10
0.000127833
0.000773705
0.0151472
5.94213e-08
8.25527e-15
0.0302549
3.40986e-15
1.45286e-15
1.303e-05
0.0744879
5.1524e-08
6.09489e-15
2.19175e-15
3.18536e-07
6.52693e-15
1.37957e-14
1.80909e-05
2.48254e-14
7.56073e-15
0.0397175
0.000232414
0.000182578
0.0223575
0.00720996
9.72587e-15
8.3148e-15
2.27266e-05
0.00406211
6.72425e-15
3.63352e-14
0.00966576
2.71792e-14
2.35631e-14
2.40442e-14
1.85262e-14
1.3308e-13
2.56878
2.18841e-16
0.000213787
4.74369e-15
0.0213386
3.4241e-15
6.34697e-13
4.16283e-14
1.30279e-14
2.16009e-15
1.39932e-14
0.00283537
3.87565e-15
1.65295e-14
2.36719e-14
3.10672e-14
2.18074e-15
3.91932e-15
0.00969917
9.67349e-16
0.0108481
0.00311767
1.37724e-15
0.00150409
6.73295e-15
0.000509629
2.04919e-06
0.00383698
0.0130015
2.0392e-15
9.29202e-05
0.00758984
9.65445e-06
2.36767e-15
3.01032e-06
0.0190985
0.00469529
2.97975e-14
0.0258697
1.59085e-14
3.45672e-15
6.6001e-15
7.7541e-15
0.00811289
5.899e-15
2.61479e-15
0.00830309
3.6955e-07
0.00266882
1.21487e-15
1.07742e-13
0.000639131
1.49801e-15
6.43393e-05
1.29747e-14
0.0232451
3.42572e-15
1.14242e-15
5.25119e-05
9.92055e-15
0.000138066
1.27571e-14
9.58613e-15
0.00471722
0.000440523
0.00468585
0.0151668
0.217916
0.0202208
1.66319e-15
2.51737e-14
0.00299058
0.0067289
0.0368156
0.0105252
2.57397e-15
0.0124481
6.40358e-15
4.85103e-15
0.00916148
0.0110431
7.37296e-15
0.0132216
1.58767e-15
0.00273105
0.00900443
7.16179e-15
2.19406e-15
2.30744e-15
0.0028329
1.93446e-15
8.28351e-16
0.00419646
0.0214565
3.65553e-06
0.00735901
1.00048e-14
7.30295e-15
8.77334e-05
0.000778567
2.72964e-14
0.0102317
6.29104e-14
0.00256567
6.62124e-15
2.52464e-15
0.0122189
5.5326e-15
3.6863e-05
0.00363996
5.23575e-15
1.1334e-15
0.00441324
5.42388e-11
0.0521805
2.79527e-15
0.252009
1.10346e-15
2.22427e-14
4.27885e-15
0.00748313
6.46733e-15
6.60128e-15
0.00555774
1.52307e-14
0.000249941
2.14818e-14
1.56354e-14
2.57514e-15
9.75295e-08
0.000779951
6.45317e-15
1.85753e-15
0.034903
0.000942026
6.33651e-15
0.000404072
8.24601e-15
1.72377e-14
1.72127e-06
0.00289085
0.00130118
3.06325e-14
3.81735e-15
2.10646e-15
1.80318e-15
4.45049e-15
1.92414e-14
4.55977e-15
4.11327e-15
1.50112e-14
6.28585e-17
1.59061e-15
3.25307e-16
2.52037e-14
4.098e-15
3.04236e-16
7.01075e-16
1.02821e-14
6.40495e-15
4.19377e-15
1.10484e-14
1.21956e-14
0.0171693
8.03599e-15
3.73934e-15
1.34722e-15
0.00658144
1.97179e-15
9.59725e-15
0.290458
1.49163e-15
4.42122e-15
0.0228841
3.57602e-12
4.03641e-15
0.00772963
0.0243145
8.23224e-16
0.00281269
0.0042027
3.20355e-14
0.0132633
0.0390982
0.0176535
0.00334556
0.0106233
3.1548e-14
1.70634e-14
0.00298589
0.0105696
0.00319133
3.22894e-15
0.00671762
0.00176411
0.02129
0.0100278
0.000698812
0.0154942
0.000994738
0.0101635
9.53318e-16
0.0243686
0.00839408
0.00163655
0.00140885
6.38817e-15
4.06813e-15
4.95247e-15
3.60421e-15
7.7821e-15
0.00920727
0.0134555
2.29498e-16
1.88551e-15
7.88292e-14
5.58439e-17
3.63935e-15
8.35697e-15
3.87244e-15
1.49938e-14
0.00463744
0.000196569
0.0215975
7.10185e-05
4.88958e-15
3.61254e-14
0.0301701
7.06077e-06
4.29159e-15
8.16742e-15
0.00704998
2.2088e-15
2.69653e-15
2.49666e-06
0.00770372
0.0134973
0.0331798
0.0340447
1.34282e-14
0.0139254
0.000339271
2.53798e-15
1.36448e-15
0.0117633
1.29545e-14
6.35203e-15
0.0159998
1.03774
0.000168288
1.96238e-14
1.66e-15
0.0168355
0.0197997
0.0176855
0.00551603
0.00418664
7.18929e-15
1.00599e-06
2.6217e-09
3.11987e-15
8.59752e-15
0.0167074
5.04696e-15
0.0019727
0.0247559
0.0173744
0.0111159
7.87059e-15
0.00591233
7.57838e-15
8.50115e-15
1.64782e-15
1.28479e-15
0.00245825
0.873191
2.54465e-15
6.52487e-15
3.94674e-06
0.0229832
0.0011703
0.00679428
0.0322101
0.00469634
0.0200439
4.31669e-15
4.04362e-14
9.43683e-15
0.0291954
0.00553652
2.89467e-08
1.0911e-15
3.57563e-15
8.71047e-14
0.0217282
0.00258136
2.89621e-15
0.0047887
0.0567857
0.00623115
0.00605281
1.75044e-14
5.57505e-14
0.00674052
0.0223304
2.11551e-15
0.000342395
0.0145266
0.000948138
0.00907193
0.00458723
0.0077441
4.31736e-14
0.0032269
0.0203653
0.0351509
4.12799e-10
0.0219747
3.22341e-13
0.0159725
0.000150356
4.43416e-17
0.00248419
0.00736701
0.000401908
0.0112468
1.25761e-07
0.000124327
1.43058e-05
0.0402207
0.00357162
1.19351e-14
0.0372233
0.00125478
3.18197e-15
3.05286e-15
4.18191e-08
1.24971e-05
0.00101975
1.0629
0.034214
0.0116127
1.93834e-07
0.0436372
5.6024e-15
4.37311e-16
0.00382593
2.9403e-15
0.00195065
0.00390696
0.00211808
0.00450728
5.83005e-15
0.000188705
0.104252
3.12821e-15
0.015367
0.00730205
5.4436e-15
0.0038536
0.000130095
5.11923e-16
5.40295e-09
8.39599e-05
3.1917e-15
2.06449e-14
1.87447e-15
0.00416911
0.00466752
0.0135874
4.81293e-16
0.00458492
0.0316306
2.32811e-15
0.00773473
0.0119658
0.0230953
0.00145417
3.5468e-15
0.000499756
0.00879004
0.0100563
0.00871665
0.0356571
0.156906
0.00311358
5.02348e-15
7.32376e-06
0.0479864
1.3644e-15
0.000403874
3.70221e-15
5.76026e-16
2.46973e-15
6.04779e-15
8.97162e-16
0.00312387
2.88279e-15
0.00685937
0.00110164
5.12747e-15
0.00367529
2.95211e-14
0.0133557
1.74021e-15
2.42417e-05
3.07073e-14
0.0207335
0.000149305
2.25589e-06
0.00406017
0.0272737
0.0159024
0.00375419
0.0259642
6.31352e-12
0.0220838
0.0519886
0.00931767
2.80416e-15
0.00104636
0.000239464
0.00537104
0.00985914
0.000587979
7.86951e-15
3.50575e-15
1.07869e-15
0.00336416
1.53149e-14
0.000306056
0.000206982
0.00164232
0.000244679
5.23528e-15
5.16638e-15
5.89812e-15
0.00830756
0.0201555
0.00114373
8.86349e-06
0.00178076
0.00656817
0.00172609
0.000802623
0.00639634
0.00586994
0.00255323
4.67033e-14
1.04046e-15
8.84295e-16
0.0124023
0.0103802
1.19607e-14
1.408e-15
5.36163e-14
0.00801695
0.0174695
6.87389e-15
0.00211793
2.88637e-15
6.11397e-07
0.00442312
0.0852857
3.90929e-16
5.95164e-16
0.0034963
4.83067e-15
5.66135e-05
0.0114537
1.89912e-14
0.0103034
0.0310618
0.0180434
3.19978e-15
0.00141462
6.7688e-15
8.73179e-05
0.0460446
5.30923e-15
8.42675e-15
0.0101765
3.46358e-13
7.50373e-15
4.14433e-05
0.000906404
2.21518e-15
9.95176e-16
8.78784e-15
6.91096e-05
0.00116359
0.00299639
0.0242149
0.00820635
1.36817e-15
6.74123e-07
0.00067036
1.10082e-15
1.0385e-15
1.53839e-15
2.30667e-15
1.16767e-14
1.44156e-14
2.38865e-14
7.09738e-15
3.46143e-14
2.64681e-14
2.61954e-09
2.4493e-14
0.000314945
3.95022e-14
0.000236122
5.15666e-14
7.05807e-05
5.35642e-14
1.7099e-15
0.0269275
0.00860946
2.82833e-15
0.0821992
9.38999e-09
4.8074e-10
5.57761e-15
0.00113633
1.14996e-11
0.00260018
5.80375e-06
0.000807566
2.23995e-15
3.38934e-15
0.00113581
2.19347e-08
4.00658e-15
1.28367e-16
0.0365944
6.26268e-15
0.0350955
2.54136e-14
1.47992e-15
1.71958e-06
0.0263338
0.00745654
6.86069e-15
0.000296344
4.68729e-14
0.00330802
1.80395e-05
0.00167339
4.57153e-06
3.27122e-15
0.0191618
0.00113424
0.00487368
7.60458e-15
9.0156e-15
9.35588e-15
0.0187084
0.00363817
0.0494385
4.38835e-15
4.48402e-07
2.5856e-15
3.48663e-15
1.42116e-14
7.28371e-15
0.00314839
0.0020772
0.00288466
0.29786
4.75679e-16
0.0252832
0.0338203
0.0160904
0.00162497
2.47867e-16
0.00491592
0.00434348
0.00463061
3.00896e-07
0.00952832
3.76737e-15
0.00141969
0.00121283
0.0307363
1.03124e-06
0.00322368
5.12062e-15
0.0172098
2.39378e-15
1.80654e-15
0.00156553
1.59556e-14
0.00568138
5.56881e-16
3.20684e-15
7.46251e-15
6.84468e-15
2.84814e-14
0.000783923
1.86262e-15
0.000514073
3.19706e-14
1.9293e-14
0.0166016
0.00500436
0.00742864
0.00694485
8.62809e-16
0.548134
1.57009e-15
0.0645701
1.05085e-14
0.0164096
0.0226432
0.00223607
0.0527057
7.02089e-14
8.08711e-14
2.68008e-15
0.00203859
2.08244e-15
2.46149e-15
0.0166705
1.21297e-14
3.49075e-15
0.00513986
3.83179e-14
0.0117117
6.63966e-08
6.71625e-15
2.53232e-14
2.05329e-14
0.00142118
0.00635502
3.56944e-15
0.0218086
0.00033176
4.2061e-15
0.0949282
9.10052e-16
0.0146796
0.0169786
0.00350277
4.67781e-15
0.0169451
0.00950645
0.000834604
0.00508234
0.011522
1.42448e-15
6.1172e-15
1.73512e-06
3.413e-15
1.08715e-14
1.85222e-16
0.0185762
0.046443
0.00426108
0.00206617
8.22159e-15
0.0472755
0.0431756
0.00398524
0.00216568
0.00880693
0.0195556
0.00259063
3.33573e-15
2.50663e-15
3.0512e-15
0.00677981
2.1662e-15
0.0235036
2.29792e-14
0.000722675
5.44874e-07
0.00249143
0.0206149
2.27682e-14
2.17832e-16
0.00241078
0.000361432
6.13088e-15
5.4182e-14
1.6438e-15
3.60271e-05
0.000291914
0.000141698
0.000795221
0.00963626
0.0821463
1.31875e-14
6.08048e-15
6.66434e-15
0.00365003
0.0166894
0.0190174
0.033075
0.00167083
0.00287331
1.7783e-14
1.40379e-15
1.40094e-13
2.10376e-15
0.0088307
0.0211414
7.92369e-16
2.55461e-14
2.04958e-14
1.65811e-14
6.98208e-15
6.27634e-14
0.0131355
5.04866e-14
0.000921385
0.397133
9.65382e-15
1.31736e-05
0.0216564
0.000717305
2.26241e-15
5.80797e-14
0.00482891
2.62078e-15
0.0137321
9.07889e-07
0.0232698
2.92683e-14
2.64107e-12
5.21211e-15
6.75856e-16
8.5448e-15
5.79496e-14
0.18726
9.2267e-15
0.00578543
0.00118394
2.99102e-15
4.54496e-15
0.00193916
2.39226e-15
9.77449e-16
0.0122003
0.000133369
4.5215e-15
1.54911e-14
3.4553e-15
0.0161969
3.16546e-15
6.35537e-15
0.000431765
0.00257687
0.00303814
7.97034e-15
4.1818e-15
1.6886e-15
0.00370299
0.00182092
0.0124728
0.00359247
4.22142e-16
0.00075259
0.0111603
0.00619835
3.3643e-16
1.05033e-15
2.05691e-15
1.33808e-14
8.53141e-15
0.0295986
0.00494142
0.00563722
3.24797e-15
1.41952e-15
5.5745e-15
3.74781e-15
3.28024e-15
1.00175e-06
0.000207909
0.00212208
3.10673e-15
4.09931e-15
4.03195e-15
2.1819e-09
0.0334369
0.110603
4.96048e-15
7.65571e-10
2.53752e-11
7.47664e-15
2.17587e-15
0.00366103
0.00622922
1.94982e-15
4.13345e-14
0.00273738
6.21729e-15
0.000664484
0.00102021
2.00626
3.92233e-15
5.34842e-15
0.0112849
0.000521683
7.63135e-16
0.636679
0.000576555
0.00605663
8.11137e-15
1.28254e-14
1.53101e-15
1.83612e-15
0.00814074
8.9009e-05
1.67559e-14
0.0241338
0.0183681
0.828672
5.17456e-15
6.58995e-16
1.75583e-15
3.50082e-15
0.00649948
7.37246e-08
1.18679e-14
2.15896e-14
0.0179223
0.000786078
0.00462785
1.62939e-14
4.60743e-15
0.0276071
1.80329e-14
1.93399e-15
7.10687e-16
5.11031e-15
0.020598
2.44125e-14
5.86097e-15
1.90415e-14
0.0247735
0.0115484
5.19443e-15
2.73565e-15
1.78466e-15
0.0146867
1.90516e-07
5.9942e-15
6.40031e-16
1.49886e-14
2.06477e-15
0.00230526
0.0107026
2.46234e-16
0.00192857
0.00106424
0.00467499
1.13352e-14
2.43595e-15
1.06533e-15
1.57153e-15
7.55498e-16
0.0184227
4.1735e-14
0.0138208
7.18765e-15
0.0014929
7.09941e-15
0.00235094
1.06617e-14
1.58632e-15
0.00980151
0.156268
4.47354e-14
0.00349879
1.99606e-14
0.000372138
5.55211e-15
1.98062e-14
3.07926e-14
7.35261e-08
6.33046e-15
0.000296932
7.47519e-15
0.0338183
9.99237e-15
1.10925e-14
5.72095e-16
1.58586e-14
7.46071e-06
0.000129904
1.31295e-15
0.00539362
1.05533e-15
0.00266017
0.0175349
0.0012506
1.59876e-15
4.61963e-06
0.000435444
2.13799e-06
0.00411522
3.13464e-07
0.00163505
3.99045e-14
5.74233e-15
4.24165e-07
0.00546618
0.000236536
3.97924e-14
8.29792e-15
3.9353e-15
0.553585
1.36453e-15
6.19949e-15
1.29129e-15
3.23771e-15
7.26758e-15
2.63721e-05
0.000177554
0.000968299
6.56843e-05
1.15633e-12
0.00137453
5.56067e-16
0.00524261
1.76919e-14
9.4573e-16
7.33383e-15
4.67406e-14
1.44505e-05
1.30183e-14
1.36799e-14
7.19694e-15
0.0137847
5.9076e-15
7.46231e-15
0.00993552
1.41853e-14
0.0717947
0.118962
0.53785
1.4541e-15
0.192632
1.09005
1.0889
0.612586
2.42519e-14
1.4396e-15
0.00459328
0.00432508
1.83643e-15
0.00961999
1.36108e-15
0.0302511
1.87691e-15
1.60195e-15
0.000685962
1.53566e-14
2.48689e-15
1.01094e-05
3.81883e-05
3.81109e-15
1.94365e-15
2.61058e-06
2.27085e-14
6.78015e-15
1.81901e-05
0.00776685
0.00144702
2.88835e-14
0.00742261
1.32255e-15
0.00327248
4.15353e-07
0.00694652
1.7231e-14
1.41555e-08
0.00537302
3.70028e-14
1.53399e-09
1.80037e-15
0.0301291
2.54852e-15
0.00896305
1.0391e-14
1.99827e-07
2.55188e-15
1.19662e-15
5.03539e-16
7.93111e-10
4.88355e-10
1.02349e-14
0.0112442
0.00858211
3.68368e-15
2.45988e-14
0.0302699
0.0159857
0.172662
1.51542e-15
6.56564e-05
0.0233366
0.0428761
5.63593e-08
1.40248e-15
0.053324
1.98465e-14
0.211983
7.68796e-16
3.86668e-08
3.53312e-08
3.07964e-15
5.37951e-05
3.98051e-14
0.019119
7.70182e-15
1.80512e-16
1.15244e-14
7.09684e-16
8.55142e-15
1.23957e-14
0.000250763
0.00182672
0.12522
4.48471e-14
4.42305e-14
0.0381222
1.00936e-15
4.36043e-17
2.20227e-14
2.69766e-15
2.26596e-14
0.00545722
1.05879e-14
7.44225e-16
4.58443e-15
0.00303131
4.81708e-14
1.23242e-15
2.42563e-15
0.00302555
1.05787e-14
0.00562405
0.217286
0.00500147
0.00515551
0.0245804
4.27728e-15
1.54121e-14
5.25128e-15
0.00291698
0.0016136
1.54172e-15
2.34194e-13
0.000555963
2.6133e-15
9.54518e-15
0.309683
1.26503e-14
0.0200822
3.94036e-15
0.00217226
0.00300578
1.20337e-14
1.11634e-14
1.87806e-15
3.89452e-15
9.84078e-15
0.0167972
3.10261e-14
0.00431064
3.68343e-15
7.84796e-16
0.00636752
7.11729e-15
0.0116079
5.21818e-14
4.14798e-15
0.00216378
6.55914e-05
0.12942
2.91563e-14
6.73902e-15
3.13496e-15
0.00309931
0.164115
1.41846e-14
7.4163e-15
4.1505e-14
0.00138
3.63437e-15
0.0177996
0.0285234
1.48387e-14
3.69947e-15
0.00660573
1.05565e-14
4.52028e-14
8.84538e-16
3.42223e-14
1.13249e-14
0.0628388
2.32878e-14
1.87936e-14
3.15432e-16
2.77586e-14
6.85554e-15
1.27047e-15
1.96111e-14
1.77369e-14
3.3025e-14
0.00685901
6.29689e-15
0.00784332
1.754e-13
5.20742e-15
0.533324
0.00250087
6.14273e-15
5.504e-15
8.20461e-15
0.0022126
5.563e-16
1.55068e-15
3.27332e-14
1.06735e-14
0.00676599
3.01423e-15
0.0043934
9.13642e-16
0.00879122
1.06013e-15
0.0521455
2.63346e-14
3.50956e-15
0.0198014
5.01572e-15
2.7415e-15
0.0245206
0.000254078
1.17514e-14
9.15924e-15
0.0330274
0.0091421
0.00590415
0.000766105
0.00165898
0.0159528
0.000932222
0.00439904
8.69289e-14
0.0263051
1.29226e-14
5.84333e-15
9.39903e-16
4.63368e-14
2.923e-15
0.00952031
8.63761e-15
1.64094e-15
1.564e-15
3.89829e-06
7.70378e-06
3.16728e-14
0.00210903
8.87952e-15
0.00389466
2.81244e-15
1.18946e-06
0.00286662
1.88581e-13
0.0412772
3.97476e-15
1.49162e-14
1.28029e-15
0.00270177
0.00115857
1.3866e-15
5.14075e-15
0.00226575
8.28175e-15
0.609333
5.72039e-15
0.0933835
3.16274e-16
2.7099e-15
1.81453e-14
1.40101e-14
0.00907289
4.50589e-15
3.48605e-05
1.68822e-15
0.00895436
1.71958e-15
3.51683e-15
4.83087e-12
7.64019e-14
2.03822e-15
4.13563e-14
2.48254e-15
4.16319e-14
0.00385683
0.172298
4.01033e-14
1.81002e-15
0.000333122
1.71208e-14
7.94186e-15
1.02146e-06
0.0156437
0.000137796
2.77863e-15
0.000619666
0.0030208
0.00484752
0.00757482
7.88468e-15
1.04636e-14
1.87251e-16
2.75206e-15
1.71902e-16
1.9538e-14
2.52554e-15
7.06876e-15
5.75768e-15
6.77671e-15
7.72469e-15
8.4271e-15
0.0688509
3.83156e-16
8.27395e-16
9.74965e-11
9.03624e-15
1.01972e-15
1.01182
5.24074e-15
3.07097e-15
0.00185512
2.10143e-09
6.41603e-15
5.89002e-15
2.22374e-15
0.0210029
2.99832e-14
8.89416e-15
4.78935e-08
1.68417e-15
3.44479e-15
2.62574e-15
1.44087e-15
0.10962
2.38808e-15
0.000152299
6.52509e-16
5.38331e-15
1.99191e-15
9.99021e-15
8.45108e-16
1.6245e-08
3.05048e-08
0.000102783
1.0153e-14
5.02632e-15
3.6739e-15
8.74384e-08
2.38879e-15
2.76179e-07
9.15126e-09
1.20257e-14
1.27086e-15
1.52671e-14
4.99824e-09
3.49936e-15
1.69234e-14
2.13637e-09
1.61171e-14
0.0290116
1.29035e-14
0.00659849
1.07573e-14
2.13483e-06
2.23099e-16
0.00132569
2.34749e-15
0.00379326
0.0241845
7.46613e-15
0.00235803
1.34604e-05
1.16024e-14
0.0101098
6.14926e-15
7.30393e-15
5.52512e-15
9.40594e-16
9.2058e-15
1.038e-15
1.5272e-14
2.87768e-15
0.26551
1.70756e-15
1.82412e-15
2.36741e-16
7.98566e-15
2.63219e-16
0.029973
0.768789
2.9605e-06
1.01676e-05
2.91958e-15
0.00196922
0.00136843
3.34239e-16
6.291e-15
7.27674e-14
1.54652e-15
4.56588e-15
2.03321e-14
3.00478e-14
8.82514e-15
0.000366701
1.08658e-14
8.23537e-16
0.000217738
3.55626e-06
2.06076e-14
0.0244231
1.14929e-14
1.21772e-14
4.86763e-15
0.161313
7.46234e-15
8.88054e-16
0.0246169
2.88181e-15
1.84695e-14
2.5309e-15
4.98786e-15
0.0525477
2.24028e-15
3.61307e-15
3.28042e-15
1.29557e-15
0.00566295
0.225297
0.0279211
0.0419839
0.00365086
0.000244989
1.51916e-15
3.2624e-15
0.136483
0.00124783
3.15677e-14
8.67707e-08
4.68165e-16
7.94567e-11
2.79485e-14
0.20594
6.5132e-15
3.67373e-15
0.000223627
2.09048e-10
1.34353e-15
0.00973577
2.1822e-15
2.34967e-15
0.197844
0.0296534
2.99914e-15
1.48266e-15
1.01631e-14
5.75944e-15
1.26128e-15
9.33487e-15
1.07568e-15
1.73167e-15
0.00308855
1.76935e-15
5.12954e-15
1.05374e-14
1.36397e-05
1.18275e-14
3.90944e-14
2.05314e-14
1.93893e-15
3.15788e-14
1.41534e-14
0.00329248
1.81322e-15
7.27265e-15
0.00494433
9.12279e-15
0.000362356
0.00451513
9.09325e-15
0.00337107
2.96717e-15
2.81934e-15
1.3992e-15
8.12296e-15
1.854e-15
4.45598e-15
4.29726e-16
2.25922e-15
0.00231427
4.87322e-15
4.02264e-16
4.43855e-15
8.63465e-15
8.29652e-15
1.62882e-14
0.0356319
5.47379e-15
6.99722e-16
0.337595
6.24691e-15
4.04818e-16
9.16429e-15
0.00123318
1.56691e-15
5.80391e-06
3.28324e-15
5.02738e-05
0.0079739
6.19313e-16
2.72439e-14
0.0401859
1.05341e-14
6.50739e-16
0.000123471
6.90171e-07
0.00981871
2.22957e-06
8.62647e-07
1.25803e-07
1.90652e-15
5.82861e-15
0.000996145
0.000123335
0.0161677
0.0120327
2.95665e-05
2.73127e-14
0.00549015
0.0051535
0.0184251
2.33239e-14
0.0122381
0.0166514
0.00270727
0.00137267
0.00120015
0.00323304
0.0189985
0.0405051
0.00712329
0.0110219
0.00796671
5.85886e-15
0.00287475
0.0036239
0.000834096
0.00260891
0.0142065
0.0137128
0.0195185
8.65156e-15
0.011129
2.93104e-15
0.00500024
0.00280696