/*--------------------------------*- C++ -*----------------------------------*\
  =========                 |
  \\      /  F ield         | OpenFOAM: The Open Source CFD Toolbox
   \\    /   O peration     | Website:  https://openfoam.org
    \\  /    A nd           | Version:  10
     \\/     M anipulation  |
\*---------------------------------------------------------------------------*/
FoamFile
{
    format      ascii;
    class       volVectorField;
    location    "16.5";
    object      U;
}
// * * * * * * * * * * * * * * * * * * * * * * * * * * * * * * * * * * * * * //

dimensions      [0 1 -1 0 0 0 0];

internalField   nonuniform List<vector> 
111485
(
(1.4583 -1.45817 0.000533355)
(4.27533 -0.0102003 -0.0256468)
(4.20835 0.011075 0.0127538)
(1.45778 -1.45804 0.000133199)
(4.37163 0.0207528 0.000306584)
(1.53715 1.53598 -0.000178324)
(4.29436 0.0129762 0.00125888)
(4.42427 -0.0131278 0.00542268)
(4.29139 -0.00214607 0.0035316)
(4.40589 -0.0479391 -0.0197487)
(4.23209 0.0101598 0.0127736)
(4.42767 -0.0121726 0.0203858)
(4.1687 0.00388184 0.00953711)
(4.2304 -0.00902949 -0.0296763)
(4.27084 0.0172907 0.0087875)
(4.37393 -0.0299636 -0.0229009)
(4.31161 -0.00504266 0.00705592)
(1.51143 -0.101441 0.218372)
(4.378 0.0134427 -0.0095051)
(1.45463 -1.45299 6.77781e-05)
(1.45629 -1.45591 -0.00136824)
(1.53857 1.53827 -0.000205037)
(4.33175 0.0164135 -0.0037758)
(4.41316 -0.0290255 -0.00995601)
(4.33143 0.0136816 -0.00328316)
(1.46818 -1.46273 -0.00216916)
(4.44537 -0.0212553 0.0214491)
(4.2143 -0.00797417 0.00170227)
(4.39404 0.00658256 -0.011312)
(1.45615 -1.45608 -8.24033e-05)
(4.43887 0.0688927 -0.0177091)
(4.38828 -0.0098986 0.0012853)
(1.45123 -1.45383 0.00202475)
(1.53794 1.54136 -0.00353704)
(1.54154 0.650354 0.243749)
(1.54771 1.55833 -0.0225516)
(4.41628 0.0688691 -0.0273143)
(4.27955 0.00992912 0.0393796)
(4.38849 1.33696 0.0744576)
(4.38588 0.0211158 0.00124984)
(1.5205 1.53448 -0.0108348)
(4.42501 0.00717297 -0.027353)
(4.38567 0.0217639 0.00742207)
(4.21514 -0.0256797 0.00176773)
(4.41174 -0.0752101 -0.0384416)
(1.45893 -1.44706 0.00533396)
(4.42113 -0.0188515 0.0180666)
(4.40644 -0.0276822 -0.0090202)
(4.4273 0.000822354 -0.0226071)
(1.44801 -1.42918 0.00793482)
(1.4448 -1.4314 0.00834499)
(1.74695 1.47043 0.0265459)
(1.4398 -1.43493 0.00481805)
(4.41716 0.0198606 -0.0356537)
(1.43651 -1.43126 0.00081345)
(4.36646 0.0114642 -0.00513921)
(4.37275 -0.0192696 -0.0104371)
(1.53988 1.53686 0.00096847)
(3.99137 -0.00820666 -0.0699839)
(4.39165 0.0183512 -0.00253173)
(4.38988 0.0202652 -0.000793869)
(1.4534 -1.45653 0.00215046)
(4.09012 0.00417185 0.0266728)
(4.44083 -0.0116166 0.0341627)
(1.59199 1.44388 0.00371245)
(4.00644 0.00918472 -0.00868724)
(3.08273 -0.240925 0.105025)
(4.40313 -0.0158127 0.00606519)
(3.97838 0.00183073 0.015373)
(3.76446 -0.00584306 0.00308282)
(4.24346 0.0356806 -0.0137453)
(3.93702 -0.0107515 0.0214989)
(1.57818 -1.4221 -0.0315795)
(4.04409 0.0065529 0.0313462)
(1.45771 -1.45691 -0.000145416)
(4.38712 -0.0101631 0.0082132)
(1.53834 1.53871 2.39587e-05)
(4.41694 -0.00932834 0.0230117)
(1.53811 1.53704 4.55974e-05)
(1.39392 1.36266 -0.0447944)
(4.26702 -0.0639208 0.0429098)
(4.41611 0.0152708 0.00169299)
(1.53588 1.53326 -0.000153583)
(1.45771 -1.45741 0.000757498)
(4.14339 -0.000464005 0.00920879)
(3.97355 0.0109704 -0.0177076)
(3.41615 2.21991 -0.594117)
(4.36259 0.052351 0.0049376)
(4.20406 0.106478 0.0908743)
(4.26649 0.00646618 0.0144574)
(4.50032 0.0883534 -0.0561779)
(4.36943 -0.00764158 0.00688795)
(4.09339 -0.00672912 0.0142072)
(4.17536 -0.00470556 0.00513159)
(4.42753 0.0144035 -0.0246897)
(1.45788 -1.45741 -0.000260528)
(1.45736 -1.4571 0.000679616)
(4.36015 0.0486999 0.0155097)
(4.48931 -0.883534 0.0635054)
(4.08325 0.0141668 0.0266015)
(1.45795 -1.45768 0.00045385)
(4.38069 -0.0232233 0.00187763)
(1.54634 1.5491 0.00855547)
(4.34765 0.000677675 -0.00247268)
(4.32335 -0.0236508 -0.0285327)
(1.5095 1.35226 -0.0312381)
(1.53858 1.53827 -0.000219869)
(4.39531 -0.0133531 -0.00132108)
(4.04722 -0.0222833 0.00487196)
(3.88174 -0.114699 -0.120381)
(4.13901 -0.00387876 0.00906286)
(4.36026 0.00633985 -0.00273797)
(4.06139 -0.00214838 0.0156081)
(3.99629 -0.0200667 0.00921283)
(1.47122 -1.46372 0.000513675)
(3.85658 -0.00518777 0.0118991)
(1.46315 -1.45825 -0.00219644)
(1.54659 1.54016 0.00625907)
(4.28793 0.0167837 0.0136225)
(1.45737 -1.45647 0.000519886)
(1.46929 -1.46316 -0.00159941)
(2.02221 1.59316 0.0958356)
(1.52873 1.53502 -0.00229091)
(1.54307 1.53931 -0.00354887)
(4.18958 -0.00955981 0.0190629)
(1.16738 -0.818665 -0.22138)
(1.92923 1.661 0.0580467)
(3.89489 -0.00113421 0.018677)
(1.45751 -1.45685 -0.000451473)
(4.40302 0.329928 -0.12034)
(4.39926 0.0806801 -0.0426494)
(4.35218 0.0497664 0.0159747)
(1.45378 -1.45023 -0.00697245)
(1.98085 1.72573 0.173484)
(1.85105 1.65277 0.077532)
(4.39351 0.0139503 -0.0073046)
(1.53907 1.53929 -0.000410629)
(4.36907 0.0108582 0.000878499)
(4.33685 0.0161455 0.00724169)
(4.27217 0.0184911 0.015684)
(3.35367 0.000392717 0.0146109)
(4.38147 0.0228704 0.00453308)
(4.34381 0.0282392 0.0163802)
(4.12808 0.00351365 -0.0176632)
(4.31319 -0.0086338 0.00398136)
(4.26878 -0.000599985 0.00823187)
(1.5393 1.53957 -0.000372472)
(1.45748 -1.45759 0.000112234)
(1.5362 1.53694 0.00285037)
(4.36946 0.0175211 0.00226478)
(4.12999 0.00669094 -0.01628)
(1.45627 -1.45524 0.000541078)
(2.86766 -0.0165782 0.028119)
(4.26265 0.0204217 0.00981945)
(4.67108 0.185895 0.0837207)
(4.39267 0.012614 -0.00879622)
(4.36961 0.013675 -0.00322178)
(4.05788 0.000358162 -0.00553334)
(4.71276 0.229264 0.0575951)
(1.45005 -1.46359 0.00580295)
(1.45573 -1.4571 0.00124352)
(4.38171 0.0124384 -0.00948058)
(4.29531 -0.0148893 -0.0153266)
(4.74326 0.258502 0.0622387)
(4.67742 0.226677 0.0853464)
(4.08642 0.00763028 0.0214857)
(4.37548 0.0533041 -0.0195461)
(1.52082 1.53344 0.000348999)
(4.80056 0.320428 0.0770433)
(4.57604 0.229263 0.0704055)
(1.53806 1.53887 0.000392443)
(1.45605 -1.45578 -0.000204661)
(3.51403 0.00408915 -0.0262964)
(1.53888 1.53964 9.70207e-05)
(4.35006 -0.00968119 -0.00168789)
(4.18221 0.00276418 -0.00995185)
(1.53906 1.50357 -0.00713212)
(1.57365 -1.44403 0.013089)
(1.46102 -1.45334 -0.00240702)
(1.51534 1.43175 -0.0141434)
(1.58451 -1.45841 0.0247412)
(1.4558 -1.45682 0.000951846)
(4.36262 0.0172916 0.00455796)
(4.36003 0.0109097 -0.00820224)
(4.34497 0.0143977 -0.00370231)
(4.31017 -0.010131 0.0156241)
(4.14074 -0.00933696 0.00327901)
(4.15818 0.00875762 0.0139399)
(3.68731 0.0466661 0.0050202)
(1.45687 -1.45167 -0.000140271)
(4.03899 0.000968541 0.00418942)
(1.57023 -1.45783 0.0143375)
(1.46969 -1.47216 -0.000834991)
(4.19793 0.00962608 0.0145137)
(4.40782 -0.0540374 -0.0192451)
(4.35839 0.00942199 -0.0198586)
(4.18832 -0.00416155 0.00657564)
(4.25338 -0.00224262 0.0051985)
(1.45501 -1.45234 0.00322143)
(4.17676 -0.0196615 0.0041353)
(4.17253 -0.00547293 -0.0259245)
(2.9196 0.932998 0.121904)
(4.27355 -0.033054 0.00269366)
(4.33379 -0.00747803 0.0040312)
(1.46282 -1.45474 -0.00218034)
(4.18062 0.0121338 0.0149046)
(4.37503 0.00930545 -0.00339484)
(1.59664 -1.44196 0.00581707)
(4.20356 0.0104324 0.0152318)
(4.40694 -0.00544531 0.0247567)
(4.12817 0.00369898 -0.019089)
(4.17 0.0106748 0.0190101)
(1.58188 -1.46274 0.0195381)
(1.45654 -1.45697 -0.000216642)
(4.17085 0.0106253 0.0189045)
(2.73219 1.71668 -0.169129)
(4.45895 0.0193197 -0.0424296)
(1.5384 1.53919 -0.000880482)
(4.19513 0.00787914 0.0160544)
(4.18613 0.00660567 0.00468668)
(4.43337 -0.0143685 0.0273989)
(1.45909 -1.45837 0.000598472)
(3.91206 -0.000227156 0.0109379)
(4.38982 0.0616794 0.0304871)
(2.41545 1.62527 -0.176691)
(1.53907 1.53915 -0.00118322)
(1.53803 1.53881 0.000382668)
(4.4883 -0.0285203 0.0409604)
(4.18933 0.0989614 -0.0105898)
(1.6197 1.36915 -0.03062)
(1.81126 -1.40218 0.0553505)
(4.20112 0.00318781 0.00559519)
(4.32908 0.0083249 0.000714047)
(4.3976 0.0110965 0.00240509)
(1.59758 1.39364 -0.040371)
(1.54042 -1.42476 -0.00562132)
(4.22421 0.0483377 -0.0561376)
(1.45752 -1.45712 0.000875434)
(3.99875 0.00451043 -0.0239911)
(4.15135 0.00462902 0.0135045)
(4.19834 0.00173592 0.00715788)
(4.20623 0.0106525 0.00888484)
(4.22203 0.00858552 0.0120291)
(1.53441 1.53446 0.00486763)
(3.18543 -0.0100746 -0.122688)
(4.28455 0.0103394 0.0165252)
(1.53155 1.5346 -0.00202045)
(1.53802 1.53878 -0.000209734)
(4.45943 -0.0522381 -0.00604374)
(4.35938 0.0183793 -0.00734979)
(1.57687 1.34702 -0.041212)
(3.96552 -0.00248442 0.0120227)
(4.26807 0.0118754 0.0127832)
(1.45808 -1.45726 -0.000495305)
(1.94604 1.83336 -0.0119651)
(4.39007 0.0381871 -0.016894)
(1.46155 -1.44271 0.000654823)
(1.61728 -1.14475 -0.0274552)
(2.23662 -0.781577 -0.0793479)
(1.45851 -1.45456 -0.000216543)
(4.28613 -0.00766764 -0.00772768)
(4.1694 -0.00759531 -0.0103613)
(4.34829 0.00706241 -0.0126103)
(1.45697 -1.45719 -8.10387e-05)
(4.30698 0.0131852 0.0110502)
(1.45782 -1.45812 0.000147479)
(1.45778 -1.45845 0.00026806)
(1.45538 -1.44995 0.00250517)
(2.94363 0.0107309 -0.0453531)
(4.41114 -0.0206885 0.0245471)
(4.2142 0.0150728 0.0197076)
(4.28195 0.0141095 0.0108035)
(4.44403 -0.0286289 -0.000720354)
(4.25823 0.00964534 0.00975993)
(4.37594 0.0159574 0.00558914)
(4.39898 0.0724935 -0.00713819)
(4.29722 0.00947986 0.000578702)
(4.34008 0.0101742 0.000656009)
(1.56345 1.53802 -0.000856423)
(1.4558 -1.45564 -0.00162524)
(2.68803 0.0167127 -0.0654675)
(4.36305 -0.0101793 0.00139819)
(4.41366 0.0336923 0.0373174)
(4.15193 -0.00517468 -0.00741653)
(1.45757 -1.45669 0.000356343)
(4.35596 0.013343 0.00832737)
(4.37856 0.0215956 0.0104215)
(4.27144 0.00828839 0.00713468)
(3.76451 -0.00386134 -0.0184054)
(3.94296 -0.0437213 -0.0979153)
(4.337 0.0150058 0.00252893)
(4.26274 0.0112039 0.00972032)
(4.35208 0.0322339 -0.019582)
(1.53958 1.53962 0.000180606)
(3.98669 0.0208688 -0.000557742)
(1.53813 1.53861 -0.000567862)
(1.25638 0.962859 -0.196445)
(1.64334 -1.04959 -0.105599)
(4.51733 -0.0414376 0.0559341)
(4.44616 -0.0288372 -0.00088028)
(4.3411 -0.00194182 0.000234921)
(1.45989 -1.45631 -0.000537369)
(1.53374 1.54242 0.0124719)
(4.34728 0.0145148 0.00823437)
(4.16089 0.00789289 -0.00679397)
(1.45694 -1.45597 0.000110845)
(1.45823 -1.45742 0.00131326)
(1.42751 -1.43493 0.0110882)
(4.13587 0.00597949 -0.00320756)
(4.32115 0.00600573 -0.00518785)
(4.12593 0.000740543 0.0147751)
(3.98748 0.00677364 -0.022904)
(4.40612 0.0103638 -0.010209)
(1.7616 1.5161 0.0400379)
(1.53573 1.53934 0.00301775)
(1.45779 -1.45563 -0.000863826)
(4.33256 0.0144672 0.0118914)
(2.80236 -2.37107 -0.166524)
(4.12906 -0.00475331 0.00420638)
(4.48665 -0.0313457 0.0954671)
(3.61365 0.00222268 -0.0739683)
(1.53869 1.53871 -0.000187264)
(1.45623 -1.45761 0.000790108)
(1.45783 -1.45867 -0.000796353)
(1.93799 1.62802 0.0985632)
(4.38157 0.014276 -0.000545999)
(4.42278 -0.0253337 0.00140174)
(1.54253 1.54632 0.000553558)
(4.34414 0.011629 -0.00123439)
(1.62555 1.31981 0.0920558)
(1.46507 -1.44859 -0.00215446)
(4.45346 -0.0156149 0.0361518)
(4.33753 0.0153974 0.00689723)
(4.44046 -0.00678664 0.010862)
(4.34731 0.0120403 -0.000968083)
(1.48496 1.3192 0.0788266)
(1.91882 1.65233 0.104941)
(1.53598 1.53806 -0.00236772)
(4.34082 0.0149702 0.00589376)
(4.33685 0.0130284 -0.000284843)
(4.42216 0.0748871 -0.0244361)
(1.52571 1.52267 0.00337724)
(3.03466 2.69061 -0.640681)
(4.1425 0.0403394 0.0365885)
(4.41982 -0.0209544 0.0106854)
(4.35865 0.0163684 0.0104688)
(4.13755 0.426897 -0.0357613)
(4.40417 0.0105424 -0.0101893)
(1.53569 1.53564 0.000309043)
(4.40752 0.0121968 -0.00860338)
(4.23013 0.00551224 0.00854362)
(4.46212 -0.103666 6.01527e-05)
(4.46632 -0.0264275 0.0530838)
(4.32992 -0.0332851 -0.0298969)
(1.53397 1.54044 -0.00601354)
(1.4563 -1.45812 -0.00273191)
(1.54211 1.53378 0.00563206)
(1.44841 -1.45251 -0.000537955)
(4.41644 -0.0213727 -9.80029e-05)
(4.39053 -0.00794561 0.0027733)
(4.36512 0.0204537 -0.0143753)
(4.40058 0.0123257 -0.0130051)
(1.52943 1.53115 -0.00631911)
(4.36251 -0.028701 -0.00920919)
(1.53715 1.53784 0.000599295)
(1.45138 -1.45572 0.000245787)
(4.40252 0.0125014 -0.00947616)
(1.34491 -1.34665 0.0196396)
(2.42045 -0.423199 -0.0345507)
(1.44169 -1.43628 0.0012826)
(1.55276 1.53211 0.0122313)
(4.35471 0.00832835 -0.00575357)
(1.53898 1.53814 0.000608855)
(4.31266 0.0109375 -0.00316723)
(4.09748 0.00243476 -0.0190241)
(1.53993 1.53981 -0.000346449)
(3.95764 -0.00180185 -0.0195151)
(4.28356 0.00688835 0.00789405)
(1.54908 1.3609 -0.0501935)
(4.2782 0.0188799 0.0193485)
(4.03522 0.0205803 -0.00309359)
(4.30144 0.0240816 0.00634019)
(4.00347 0.0160176 0.049642)
(4.34405 0.0128416 0.00205218)
(4.14104 0.000594676 -0.00942378)
(1.51812 1.30097 -0.00558161)
(1.45678 -1.45134 0.00546848)
(3.71888 0.00824348 0.0880704)
(1.52895 1.5342 -0.00886444)
(4.29339 0.0224809 0.0199016)
(4.45546 -0.0227589 0.0434069)
(1.55026 1.48287 0.0124075)
(1.53579 1.54216 -0.000305909)
(4.40539 -0.00916079 0.00316978)
(4.24083 -0.019409 -0.03911)
(4.25831 0.0223166 0.00244327)
(4.42119 0.00892023 -0.00208321)
(1.53863 1.53696 -0.000448611)
(4.47497 -0.012976 0.0705799)
(4.40338 -0.0150277 0.0219121)
(1.54186 1.53901 1.56826e-05)
(4.32659 0.0656513 0.0534581)
(4.12431 -0.0169789 -0.04275)
(1.45674 -1.45565 -0.000264027)
(1.45669 -1.45649 0.000254345)
(4.30898 0.0139061 -0.00386106)
(4.32621 0.00417547 -0.00603082)
(1.54583 1.54605 -0.00193143)
(1.45993 -1.45528 -0.00152829)
(2.57996 -1.38783 0.315427)
(1.45744 -1.45838 0.000532684)
(4.32734 -0.00269892 0.0091749)
(1.53095 1.53592 0.00364288)
(1.45787 -1.45826 6.94108e-05)
(4.44185 -0.00493789 0.0143349)
(4.01945 -0.0473775 -0.114524)
(4.39482 -0.0244567 0.00635569)
(4.23389 0.000196254 0.00803461)
(1.54042 1.53936 5.13725e-05)
(1.99441 1.54015 0.0746674)
(4.23959 0.0538984 0.0796261)
(1.86995 1.65213 0.0870653)
(4.22323 0.0183432 0.0331024)
(4.20656 -0.0347391 0.003546)
(4.38563 -0.0120391 -0.0105098)
(3.06001 0.102618 0.107379)
(1.83688 1.58411 0.077868)
(4.39915 0.00772537 -0.0413776)
(4.44538 0.134338 -0.045952)
(1.45585 -1.45861 0.00247268)
(4.42628 0.0113074 -0.0428834)
(4.43514 -0.0212807 0.0158534)
(1.45962 -1.45928 0.00153253)
(4.27706 0.240582 -0.133165)
(3.74272 -0.000845211 -0.052637)
(1.94014 1.52736 0.062617)
(4.41026 -0.00859784 0.0186331)
(4.35942 0.00619215 -0.00618946)
(4.3476 0.0119855 -0.00224189)
(1.5382 1.53706 -0.000421727)
(4.33622 -0.006943 0.0298163)
(4.43324 -0.00395927 0.0143751)
(4.31953 0.0417021 -0.00451532)
(2.72665 -0.0364799 0.0464205)
(1.86973 1.76591 -0.0370867)
(2.56936 -0.0651851 0.0846001)
(1.45611 -1.45789 0.00102463)
(3.99284 -0.130003 -0.128831)
(4.33725 -0.00755444 -0.0284878)
(1.53952 1.53833 0.00214525)
(4.11124 0.009679 -0.0309013)
(3.39704 -0.00844447 0.0608814)
(1.99267 1.76327 -0.0184499)
(1.45786 -1.45689 0.000160807)
(1.70855 -1.4485 0.0457972)
(1.45747 -1.45689 0.000112613)
(4.31379 0.0231252 -0.000545246)
(4.3458 0.0226522 -0.00759047)
(4.29031 -0.0131976 -0.0121393)
(4.0353 0.0101448 -0.0227052)
(4.39884 -0.0898346 -0.0180787)
(1.53833 1.53231 -0.00311163)
(4.2663 6.08205e-05 -0.00943483)
(1.46124 -1.4505 0.000499919)
(4.22088 0.0163096 0.00971894)
(1.54352 1.54315 -0.000891653)
(1.45682 -1.45569 -1.49891e-05)
(1.44588 -1.44991 -0.00204656)
(4.1474 -0.0283133 0.0061616)
(1.45437 -1.45489 -0.000959382)
(1.4582 -1.4578 0.000455431)
(1.51581 1.01209 -0.0633429)
(1.45767 -1.45881 0.000465892)
(1.52387 1.54494 0.0143572)
(4.25176 -0.0149215 -0.00650272)
(1.54007 1.53786 0.000627587)
(1.82167 1.34701 0.00225822)
(1.54026 1.54028 0.0016447)
(1.45549 -1.45142 -0.00100289)
(1.53972 1.5359 -0.0010435)
(1.45354 -1.44613 -0.0076176)
(1.53456 1.53438 -0.00022931)
(3.87515 0.000137119 -0.0326194)
(1.54223 1.53387 0.00629897)
(3.97741 0.0553982 0.0782925)
(4.34516 0.00441653 0.000656021)
(4.49002 -0.166617 -0.0238511)
(1.54029 1.53349 -0.000421212)
(3.78725 0.0117552 0.0612585)
(1.54205 1.53648 0.00178627)
(1.45787 -1.45871 -0.000700873)
(4.29983 -0.0414251 -0.0460286)
(4.29697 -0.0346013 -0.0357989)
(4.29379 -0.00933473 -0.0120983)
(4.48879 0.0120012 -0.075044)
(1.76633 1.48733 -0.0480651)
(4.39326 0.00373287 -0.0230118)
(4.39223 0.0018489 -0.0211164)
(4.35112 0.00955761 6.06224e-05)
(4.28336 0.00485963 0.000822305)
(4.36835 -0.044644 -0.0291722)
(1.45463 -1.45489 -0.00054684)
(4.35737 0.00781354 -0.00138773)
(2.00957 1.75037 -0.0117502)
(4.33152 0.00804369 -0.00895946)
(1.53907 1.53789 0.000206928)
(4.41533 0.0156638 -0.0240346)
(1.9881 1.65156 0.0154796)
(4.35493 0.00429435 -0.00601616)
(4.36094 -0.0201822 0.0159091)
(1.68408 -0.84263 -0.00935452)
(1.54144 1.5432 0.0169253)
(4.29029 0.00773584 0.00684001)
(1.45759 -1.45651 0.000162475)
(4.42944 0.018489 -0.0258768)
(4.39478 0.0219591 -0.0179472)
(1.53868 1.53449 -0.0125607)
(1.53673 1.53599 0.00370956)
(1.50697 1.3504 -0.0386185)
(1.53809 1.53913 0.000916537)
(3.08009 -0.163909 0.0823155)
(4.43181 0.016049 -0.0255316)
(1.55845 1.522 -0.00108741)
(1.53629 1.53903 0.00178026)
(3.79312 0.00214881 -0.0110727)
(1.5391 1.53892 -6.54588e-05)
(4.3638 0.0150689 -0.0174361)
(1.53892 1.53816 0.000110812)
(4.32409 -0.0265268 -0.01831)
(1.4584 -1.45811 0.000530061)
(4.06354 -0.0215641 -0.0600852)
(3.36276 -0.0127173 0.00468701)
(4.06231 0.0122972 -0.00968282)
(4.35717 0.00580403 -0.00737223)
(1.54822 1.53669 -0.00463196)
(3.96236 0.00382723 -0.000433078)
(1.54174 1.5364 0.00131985)
(1.53891 1.53996 -0.00368447)
(4.29814 -0.0170897 -0.00996323)
(1.5393 1.53786 -0.000173306)
(3.67225 -9.38576e-05 -0.0378133)
(1.4893 1.37093 -0.0433718)
(4.37479 0.0235832 -0.014112)
(1.45669 -1.45718 -0.000295655)
(4.40228 0.010404 -0.00933152)
(1.45803 -1.4568 0.000185151)
(1.82319 1.61546 0.0458829)
(4.46092 0.158035 -0.00938365)
(4.29448 -0.0353876 -0.0467893)
(4.34196 0.0165124 0.000554838)
(4.39233 -0.0528273 -0.0327942)
(4.32202 0.00908735 -0.00516703)
(4.43833 -0.0300537 -0.00411123)
(1.52921 1.541 -0.00684782)
(4.33967 0.0223098 0.0144638)
(4.30629 -0.0401366 -0.0461591)
(1.53838 1.53904 -0.000672545)
(3.64683 -0.0461604 -0.156918)
(4.44085 -0.0311346 -0.0222519)
(4.26629 0.0193702 0.0159461)
(1.52555 1.50422 -0.00886592)
(1.89711 0.388243 -0.295286)
(4.17505 0.0112657 0.0128497)
(3.42706 -0.0136892 0.0344015)
(3.54452 0.915688 -0.00684005)
(1.89224 -0.958723 -0.0796127)
(4.42313 -0.0473933 -0.00786912)
(4.15402 0.0164114 0.029587)
(4.29102 -0.0416776 -0.0446217)
(4.3603 -0.0244347 -0.00968277)
(4.30449 0.0257623 0.0104516)
(3.81141 0.495972 -0.0249026)
(1.89968 1.61354 0.0131117)
(3.8742 -0.142036 0.0318473)
(3.7446 -0.327339 0.0770577)
(1.45586 -1.45647 0.000858366)
(3.8184 0.0256127 -0.011314)
(1.54766 1.51896 -0.00775378)
(1.80563 1.6418 0.0150739)
(4.31652 0.00507495 -0.00219611)
(3.83804 0.649815 -0.0220364)
(4.61746 -0.389678 -0.0724763)
(4.15919 -0.713493 0.0162844)
(1.80057 1.71193 -0.123885)
(4.39834 -0.0258982 -0.00746579)
(4.35165 0.0249832 0.0188054)
(1.53546 1.53105 -0.00040437)
(1.97602 1.10122 -0.0440734)
(4.35389 0.0316991 0.0186731)
(1.45627 -1.45104 0.000953123)
(1.53875 1.53847 -0.000139796)
(1.53706 1.53663 0.00022418)
(1.54001 1.53205 0.00160984)
(4.40206 -0.0452054 -0.0205796)
(1.53917 1.53891 0.000886482)
(1.46362 -1.46355 0.00785599)
(4.32009 -0.0266932 -0.0223139)
(3.98284 -0.000644533 -0.0125351)
(2.15009 -1.88184 -0.0990048)
(4.35469 0.0310145 0.0181502)
(1.78639 1.44532 0.0322802)
(4.37596 -0.017319 -0.00886493)
(1.43335 -1.43229 -0.00640604)
(1.53586 1.5389 -0.000692147)
(4.38499 -0.0271195 -0.00797162)
(1.53922 1.53069 -0.00583381)
(1.53848 1.53505 0.00102601)
(1.76294 1.68901 0.0494578)
(4.13375 -0.00300639 -0.00295409)
(2.53084 2.12128 -0.279202)
(4.32146 -0.0186862 -0.00930442)
(4.31321 0.00459767 -0.00289642)
(1.44696 -1.43761 -0.0117073)
(4.48766 -0.0138336 0.13998)
(4.11743 -0.0242333 -0.0600203)
(4.3022 0.0013812 -0.00223839)
(4.37035 0.0776318 0.00998019)
(4.38509 0.0443195 -0.0945019)
(3.7836 0.0017974 -0.0359909)
(1.53724 1.53646 0.000581574)
(4.38764 0.00441529 0.0112067)
(4.35729 0.017716 0.000129105)
(1.44443 -1.4634 0.00296416)
(4.06871 -0.00269197 0.000293276)
(4.40665 0.0257299 -0.00848659)
(4.39722 0.0203297 -0.00684619)
(4.0119 -0.0173452 -0.0405451)
(4.39399 0.0215014 -0.00550318)
(4.39921 0.0219255 -0.00415002)
(1.46199 -1.44269 0.00865944)
(4.39482 -0.00939572 0.0215996)
(3.64981 -0.0220694 -0.00552812)
(1.85491 1.61211 0.100207)
(4.39209 0.017804 -0.00931779)
(4.19434 0.00482677 -0.00978088)
(2.46171 2.00737 -0.300557)
(4.31702 0.00591513 -0.00143487)
(4.3947 0.0151952 -0.013241)
(4.19626 0.0012879 -0.01721)
(4.36342 0.0219581 0.00014902)
(4.31458 0.046492 0.0179274)
(4.32331 0.00558622 0.000570633)
(1.50554 1.47265 0.00190102)
(4.36286 0.0225999 -0.000565644)
(4.09888 -0.0256043 -0.0543055)
(1.63114 -0.974783 0.0386389)
(4.34295 0.0340535 0.0224012)
(4.29558 0.0350683 0.0348375)
(4.34836 0.0140814 -0.00234077)
(1.5377 1.53497 0.00165679)
(4.23093 0.0253139 -0.0405183)
(1.4578 -1.45144 0.00377677)
(1.53885 1.5393 -0.000803738)
(1.53424 1.5222 -8.88333e-05)
(1.54062 1.53243 0.000846888)
(3.66624 0.00205568 -0.0177303)
(1.82955 1.57854 0.0628636)
(3.31631 -0.228204 0.273983)
(1.45398 -1.45392 0.000242336)
(1.53814 1.55681 -1.41069e-07)
(4.35816 0.0420594 0.0235108)
(4.36845 0.010534 -0.0170897)
(1.45845 -1.45827 3.20553e-05)
(4.37754 -0.0272964 -0.00383901)
(1.4575 -1.45617 0.00483925)
(1.45868 -1.45755 -0.000740363)
(1.4359 -1.43622 0.00445299)
(4.44954 -0.0370819 -0.00770464)
(3.70298 0.0194122 -0.0105628)
(1.81143 1.63346 0.020226)
(1.47293 -1.45656 0.00389559)
(1.53692 1.54147 -0.00197215)
(1.5378 1.53901 -0.000278622)
(4.46912 0.00882684 -0.048774)
(4.33341 0.00744419 -0.00316868)
(1.82969 1.72113 0.0792924)
(4.41762 0.0142434 -0.0228476)
(4.11608 -0.0576064 -0.167436)
(1.53643 1.53698 -0.000832269)
(4.40576 0.0122537 -0.0198056)
(4.04315 0.00371592 0.0215786)
(4.30842 0.023772 -0.028476)
(1.54003 1.53905 -0.000219481)
(1.53755 1.53694 -3.38813e-05)
(4.27136 0.0190692 0.0227633)
(4.35393 0.00851054 -0.00129675)
(1.81703 1.6537 0.0258222)
(1.53368 1.53363 0.000278169)
(1.56165 1.51597 -0.00308252)
(4.31595 -0.00873438 0.00501996)
(1.45601 -1.45618 -0.00194673)
(1.458 -1.45327 0.00126172)
(1.53431 1.53498 0.000753423)
(4.4036 0.0137208 -0.017041)
(3.85916 -0.0184849 0.00659375)
(1.53948 1.53958 0.000208695)
(1.70717 0.349154 0.29652)
(1.85593 -0.189035 -0.0694213)
(4.28313 0.0226664 -0.00215593)
(1.53655 1.53917 -0.000726544)
(1.53885 1.53602 -0.000791267)
(4.43444 -0.0448937 -0.0100086)
(4.23921 0.071974 0.0652287)
(1.84349 1.64864 0.0768278)
(2.6799 0.87711 0.0634232)
(4.17824 0.0984954 0.118433)
(3.9988 0.0113587 -0.0285724)
(4.24013 0.00348929 -0.0033514)
(1.5961 1.49824 -0.00250359)
(4.2231 0.0110387 0.000376524)
(4.37672 -0.0292516 0.0302698)
(1.54263 1.53862 -0.00178315)
(1.44796 -1.42483 0.0019133)
(1.53453 1.53534 -0.000168986)
(1.53717 1.53753 -0.000530774)
(1.53926 1.54144 -0.00168113)
(1.53989 1.54019 -0.000132925)
(4.41379 0.0146363 -0.0181518)
(1.45662 -1.45652 0.0010639)
(1.53737 1.5377 -4.93899e-05)
(1.52993 1.50987 -0.000202899)
(4.41725 0.0147704 -0.0236763)
(4.34951 0.00965636 -0.00322043)
(1.46377 -1.44461 -0.000528565)
(1.44092 -1.42618 0.00222338)
(4.45262 -0.0212682 0.0379762)
(4.23296 0.00362329 0.00539789)
(4.22613 0.00512198 0.00702791)
(1.45852 -1.45447 -0.000778439)
(1.53653 1.53712 0.000809743)
(4.22978 0.00292092 0.00651402)
(1.45803 -1.45698 4.91043e-05)
(4.17876 0.0112406 0.000909)
(4.28905 0.00712118 0.0148092)
(4.29742 0.0151229 0.00704782)
(1.46748 -1.45683 0.00463631)
(1.45738 -1.45795 0.000450036)
(1.45718 -1.45807 0.000448641)
(1.53899 1.53922 0.000391129)
(4.33867 -0.0188706 -0.0120541)
(1.53732 1.53841 0.000197192)
(1.53636 1.53675 0.000391837)
(4.31544 0.0115401 -0.0156047)
(1.45721 -1.45791 0.000635027)
(4.24555 -0.0016002 0.00529139)
(3.88442 -0.0321154 0.0131013)
(1.5518 1.50182 0.00741404)
(4.34816 0.0140832 -0.00271133)
(2.05452 0.311393 -0.053485)
(4.28451 0.00323438 0.00401467)
(4.44697 -0.0162364 0.0089548)
(3.91582 0.0158139 0.00443049)
(4.43259 -0.000662813 0.028421)
(3.20674 0.0699733 -0.120211)
(1.82957 1.4667 0.0298776)
(4.27496 0.00016972 0.00247396)
(4.44968 0.0344119 0.00575964)
(4.34667 -0.0125189 -0.00517212)
(1.57583 1.37253 -0.0465829)
(1.94865 0.192523 -0.0995087)
(2.32338 -0.152924 0.076057)
(4.27516 0.00673225 0.00382105)
(1.53655 1.5388 0.00206393)
(4.2039 -0.00986863 -0.031072)
(4.29215 -0.00400018 -0.0103889)
(4.17058 -0.0376944 -0.0667134)
(1.59419 -1.12564 -0.0848793)
(1.45779 -1.45794 0.000779391)
(1.45733 -1.45733 -2.12477e-05)
(4.37295 -0.0142774 -0.00264385)
(1.79087 1.48623 -0.0184431)
(4.14587 0.0140828 0.00665671)
(1.66783 1.52039 0.0205268)
(4.13062 -0.00763025 -0.0277277)
(4.23479 -0.00644851 0.00523488)
(4.19512 -0.00350473 0.015504)
(4.35053 0.0109856 -0.00404877)
(1.53789 1.5368 -0.000472578)
(1.52949 1.52524 -0.00227596)
(1.55858 -1.42044 0.00672631)
(4.34549 0.0161953 0.000938199)
(1.53952 1.53537 -0.000202388)
(1.7724 1.52765 -0.0662183)
(4.44543 0.0784586 -0.067777)
(1.54488 1.54307 -0.000788733)
(1.53263 1.53998 0.00451916)
(1.45462 -1.44878 -0.00377293)
(1.5391 1.53969 0.000452607)
(4.14988 -0.00241457 0.0149053)
(1.57646 1.49459 0.00502067)
(1.53911 1.53736 0.000183903)
(3.53711 0.504438 -0.364983)
(1.79657 1.45493 -0.0198121)
(1.53318 1.53403 -0.0127966)
(2.10253 -1.2442 0.0761043)
(1.53868 1.53652 -0.0013201)
(3.40015 0.0129782 -0.0303339)
(4.23206 -0.00537245 0.0118551)
(1.45658 -1.45636 -0.000548349)
(4.16166 0.0049269 -0.00967401)
(4.20744 0.681805 -0.0942969)
(4.14296 -0.0405827 -0.0650472)
(4.55057 0.169015 0.00390078)
(4.08773 0.00477419 -0.00744711)
(1.53903 1.52829 0.00483961)
(4.30457 -0.0405993 -0.045746)
(4.46033 -0.0168709 0.00960565)
(4.14217 -0.0407638 -0.0656399)
(1.45709 -1.45758 -2.90347e-05)
(4.51716 1.19416 0.314645)
(4.14036 0.00572417 0.00800175)
(2.04534 1.63607 -0.0957197)
(4.11357 0.00194419 0.00602068)
(4.49022 0.0554902 -0.0419904)
(4.28748 0.0846406 0.00509878)
(4.25051 -0.0138707 -0.0177387)
(4.25134 0.0136906 0.00104876)
(4.52534 0.0646553 -0.0240555)
(4.37103 -0.00707238 -0.00741582)
(4.33516 -0.0075571 0.00488454)
(1.52877 1.53375 0.00606961)
(1.53459 1.52722 0.00480391)
(4.16917 0.0110297 0.00558828)
(4.10073 0.00428417 0.00578274)
(1.5359 1.53961 -0.000305732)
(4.22522 0.0056489 0.000409984)
(4.44247 -0.0177454 0.00531608)
(4.35865 -0.011956 0.004574)
(1.54324 1.52802 9.10064e-05)
(4.2722 0.0847293 0.0197029)
(1.53678 1.53537 0.000296832)
(4.33877 -0.00668835 0.00355332)
(4.3634 -0.00826401 0.00329313)
(1.53771 1.53698 -0.000197027)
(4.15673 0.018861 -0.0146774)
(4.35354 -0.00592623 0.00136047)
(4.25553 0.0790923 0.00687508)
(4.19842 0.00145095 0.0139581)
(1.56732 1.53789 -0.00232033)
(4.36804 -0.0132336 0.0146143)
(4.26843 0.0962589 0.00149894)
(4.5004 -0.105055 0.0265297)
(3.79226 0.0482613 0.0150045)
(3.38517 0.0100124 -0.0476419)
(1.54067 1.52483 -0.00278146)
(1.53543 1.53416 0.0014866)
(4.1972 0.0561668 0.00737026)
(1.53897 1.53936 -0.000433891)
(3.67368 -0.0105336 -0.0100397)
(4.21538 -0.0215176 -0.0320731)
(2.57367 0.363025 -0.0914496)
(4.66931 -0.296736 0.111774)
(4.12202 -0.183604 0.0523162)
(4.58948 -0.163567 0.0436328)
(1.53899 1.53932 -0.000418263)
(2.08571 1.77132 0.0148292)
(4.36217 0.0125541 -0.00359403)
(1.45163 -1.45684 -0.00442523)
(0.799958 -0.556588 0.241251)
(4.33 -0.0810601 -0.0653629)
(1.53895 1.53492 -0.00286687)
(1.5394 1.53774 -4.55782e-05)
(3.85818 -0.0761526 -0.00450199)
(3.15727 -0.202991 0.0401994)
(1.5395 1.53949 -0.000240405)
(3.90949 -0.0711776 0.0117665)
(1.53779 1.53629 0.000237976)
(1.53802 1.54018 -0.00255019)
(1.45688 -1.45707 -0.00024851)
(1.45877 -1.45517 0.00352912)
(1.4303 -1.41946 0.00518964)
(1.45682 -1.45418 1.07325e-06)
(3.89829 0.0306428 -0.014488)
(1.53654 1.52776 -0.00124806)
(1.53795 1.53852 0.000458818)
(1.53024 1.5391 0.00298225)
(3.62957 -0.802709 -0.210801)
(4.11737 -0.0345751 -0.0756985)
(3.98843 -0.000951227 -0.0398886)
(4.36234 0.0127689 -0.00395462)
(1.53338 1.52334 0.000278156)
(1.54227 1.53694 1.78298e-05)
(4.18291 -0.0709853 -0.0860609)
(1.53874 1.53962 -0.00134092)
(1.53824 1.53694 0.000661737)
(2.44301 1.40576 0.0510602)
(4.4562 -0.0598348 -0.00505252)
(4.34835 0.0106449 -0.00323364)
(1.5371 1.5371 -0.000127668)
(1.53892 1.53587 0.00177498)
(1.53477 1.53082 -0.00204135)
(1.53704 1.53452 -0.000314878)
(1.54098 1.54078 -0.00167241)
(1.54158 1.53749 0.000176158)
(4.36644 -0.100585 -0.0631027)
(1.53975 1.53544 -0.00027409)
(3.02738 0.0438031 0.100066)
(4.38773 -0.0100249 0.0112526)
(1.53775 1.53987 -0.000314667)
(1.44828 -1.4542 -0.00394767)
(1.43832 -1.42485 0.00164937)
(3.68749 0.0427159 0.197644)
(1.43102 -1.4293 -0.00570077)
(1.45568 -1.45666 0.00144468)
(1.53107 1.53335 -0.00963375)
(3.95406 -0.0600476 0.00277233)
(1.53571 1.53573 -0.000459735)
(4.33088 -0.0561449 -0.0355162)
(3.45583 0.0546451 -0.0177977)
(2.85332 0.00411819 0.112832)
(1.53615 1.5365 0.00047884)
(2.96299 -0.756145 0.0600939)
(4.36473 -0.00869262 0.000782327)
(4.39449 0.0101763 -0.011807)
(1.56356 -1.49109 -0.0182156)
(4.23354 -0.067591 -0.011663)
(4.31817 -0.00847982 -0.00682702)
(1.45767 -1.44765 0.00145787)
(1.58692 1.50566 0.00748071)
(2.062 -1.58717 -0.129903)
(1.53422 1.53322 0.00018827)
(4.37315 0.0097304 -0.00195782)
(4.35499 -0.00600201 0.00665073)
(4.43651 -0.0529928 0.0219025)
(2.92589 -0.00182005 0.159075)
(1.5393 1.53865 -0.000190367)
(4.37544 0.00996287 -0.00298085)
(1.58407 1.50728 -0.00215946)
(1.91997 1.62569 -0.00768196)
(1.96105 -1.52417 -0.0616154)
(1.53813 1.5386 0.000617427)
(4.37662 0.0127161 -0.00370097)
(1.5357 1.53257 0.00123462)
(1.44251 -1.41846 0.000384213)
(3.9932 -0.0549278 -0.0985881)
(4.27735 -0.0097571 0.00554992)
(1.44256 -1.41937 -0.00446693)
(4.30316 0.00778617 -0.0024613)
(1.64043 1.60333 -0.0102689)
(4.37036 -0.0372152 -0.0190804)
(1.45108 1.38881 0.0158817)
(1.53944 1.54021 -0.000711904)
(1.54739 1.54215 0.00518906)
(1.45794 -1.45816 0.000445186)
(4.24953 0.00887052 -0.00750103)
(3.80303 0.00630683 -0.0165105)
(4.40524 -0.00341381 0.0802459)
(1.53406 1.53444 0.000939436)
(1.53467 1.50596 0.00983943)
(4.23044 0.00950374 -0.00706309)
(1.5391 1.53944 -0.000529068)
(1.78143 1.61647 0.0221421)
(1.4571 -1.45597 0.000667977)
(4.18399 0.0262827 -0.00267776)
(4.45352 -0.113026 -0.0313145)
(4.36193 0.0115149 -0.00433647)