/*--------------------------------*- C++ -*----------------------------------*\
  =========                 |
  \\      /  F ield         | OpenFOAM: The Open Source CFD Toolbox
   \\    /   O peration     | Website:  https://openfoam.org
    \\  /    A nd           | Version:  10
     \\/     M anipulation  |
\*---------------------------------------------------------------------------*/
FoamFile
{
    format      ascii;
    class       surfaceScalarField;
    location    "10.5";
    object      phi;
}
// * * * * * * * * * * * * * * * * * * * * * * * * * * * * * * * * * * * * * //

dimensions      [0 3 -1 0 0 0 0];

internalField   nonuniform List<scalar> 
214403
(
-0.00334106
0.00256191
0.000141758
0.000637393
-0.00164919
-0.00555542
0.000471666
0.00673295
-0.00506498
3.37858e-05
-6.97476e-05
0.00510094
0.00439457
-0.0029547
-0.00736655
0.00592669
0.0060723
-0.00767505
0.00182946
-0.000226716
-0.00265861
0.00276845
-2.63609e-05
-8.34809e-05
-0.000421374
-0.000800315
-0.00455551
0.0057772
-0.00842759
0.00479353
-0.00126234
0.0048964
-0.0114963
0.00811451
0.00819084
-0.00480905
0.00702572
0.000833487
-0.00785279
-6.41888e-06
0.00249028
-0.00493165
0.00101368
0.00142769
-0.00511119
0.00160732
0.00264807
0.000855794
0.000235427
-0.00565424
0.00680916
-0.00139034
-0.00493187
0.00496442
-3.25517e-05
0.000947625
0.00590173
-0.00756245
0.000713091
-0.00597943
0.00499978
0.00151382
-0.000534167
-0.00602146
0.00587558
0.000145884
0.00195299
-9.08106e-06
-0.000493184
-0.00145073
0.0077431
-0.00463452
-0.0102959
0.00718736
-3.78557e-05
-0.00154692
4.47917e-05
0.00153998
0.00318817
-0.00311258
-7.55949e-05
-0.0060921
-0.00210692
0.00209584
0.00610318
-0.00112833
0.00673512
-0.00542984
-0.00017696
0.00333158
0.000350117
0.00116245
-0.00484414
-0.00509343
-0.00243512
0.00658711
0.000941444
0.00456033
-0.00577523
3.51724e-05
0.00117973
0.00159731
-0.00139338
0.00522593
-0.00542987
0.0037838
0.00494669
-0.00596119
-0.0027693
0.00552024
-0.00346302
-0.000156595
-0.00190063
-0.0029131
0.00296937
-5.62702e-05
0.0012135
-0.00252032
0.00670872
-0.0054019
0.00700108
0.000331446
-0.0012208
-0.00611172
-0.00279735
-0.00287156
0.00294106
0.00272784
-0.000592778
-0.00334132
0.00295932
0.000974782
0.0021946
-0.00151017
-0.00465463
0.0039702
-0.000845699
0.00421889
-0.00152422
-0.00184898
0.00794044
-0.000188019
-0.00775242
-0.00341839
0.00666983
-0.00325144
0.000614411
-0.00729669
0.00422495
0.00245732
0.00121739
-0.000489057
0.00297677
-0.0037051
0.00282244
-2.98303e-05
-0.00279261
0.00506742
-0.000106809
0.00089637
-0.00585698
-0.00644362
0.000808051
0.00685296
0.000426264
0.000439181
0.00426384
-0.00512929
-0.00203443
-0.0133067
0.0128998
0.00244126
0.00282523
0.000513435
0.000636666
-0.00397534
0.00209185
0.0015913
-0.00511918
0.00143603
0.00662042
0.00396734
-0.00725618
0.000599244
0.00560564
-0.00113746
0.000902461
-0.00337594
-0.00199067
0.00446414
0.00154188
0.00237105
0.000704592
-0.00461752
0.000915771
-0.000687363
-0.00211651
0.00188811
0.00341372
-0.00617657
0.00430473
0.00588504
-0.00554151
-0.00190113
0.0015576
0.00528199
-0.000965812
-0.00424874
0.00575937
-0.000243544
-0.00126709
0.00437785
-0.00559886
6.38077e-05
0.0011572
-0.00409596
0.00027107
0.00654526
-0.00272037
-0.00759703
-0.00714268
0.0059963
0.00874341
-0.00405485
0.00407935
0.000802519
-0.000827017
0.000637571
-0.00518147
-0.0042517
-8.77834e-05
0.00220956
0.00212992
-0.00666967
0.00286112
0.0043183
-0.000509751
0.00778786
-0.00626905
0.000397411
-0.00191623
0.000356699
0.000131476
-0.00513372
0.00464555
0.000257413
-0.00141637
0.00699332
-0.00583436
-0.017269
0.0018048
0.00191779
0.0135464
-0.00158613
0.00467867
-0.00148569
-0.00160686
0.00230911
-0.00121236
-0.00493138
0.00383463
0.000552853
0.00344731
-0.00438177
0.000381603
-8.75156e-05
0.00420922
0.00146029
-0.00558199
-0.000841274
-0.000135314
-0.0017368
0.00271339
-0.00448039
0.00489353
-0.000183984
-0.000229157
0.000156756
-0.00451731
-0.0031579
0.00279731
0.000848562
-0.00048798
-0.00837807
-0.000521755
0.00408671
0.00481312
-0.0025284
-0.00107719
0.00215118
0.00145441
0.00371832
-0.0124693
0.00172776
0.00702323
-0.00194198
0.00390816
-0.00213444
0.000168261
0.00280347
-0.00217629
0.000278132
-0.000905309
6.79638e-05
-0.00525742
0.00518946
1.69505e-05
0.00427328
-0.00429023
0.00376016
-0.000736805
0.000498154
-0.00352151
-0.00225623
0.00321809
0.00106739
-0.00202926
-0.0015901
0.00676251
-0.00162521
-0.0035472
0.0031973
-0.00545161
-0.000207756
0.00246207
0.00364976
0.00386243
-0.00751219
0.00539019
-0.00605909
0.00155249
-0.000883594
0.000520888
-0.000972536
0.0070423
-0.00659066
0.000204261
-0.00114149
0.00507638
-0.00413915
0.00120693
0.0105974
0.0030474
-0.0148517
-0.00925275
0.00814185
0.00527612
-0.00416522
0.00042664
0.00326782
-0.00439374
0.000699284
0.00434487
0.00482618
-0.00158282
-0.00758822
0.00802833
-0.00487861
-0.000159894
-0.00298982
0.000352295
-0.00103214
-0.0032398
0.00391964
-0.0032833
1.85651e-05
0.00326473
0.00488387
0.000168961
0.000337365
0.00607657
0.000513003
-0.00923366
0.00264409
-0.00486819
0.00107282
0.000865727
0.00292964
-0.00309413
0.000767212
0.000380127
0.00194679
0.000755316
0.000541549
-0.00641233
0.00511547
-0.00131497
-0.00765144
0.0048778
0.00408861
0.00306976
-0.00362968
-0.00236706
0.00292698
0.00497453
-5.36974e-05
-0.00497381
5.29856e-05
0.00379737
-0.0053561
-0.00186778
0.00342651
0.00981655
-0.00296977
-0.00152949
-0.00531729
0.00558924
-7.06098e-06
-0.00514363
-0.000438554
-0.0028154
0.00331339
0.00690326
-0.00740125
0.00603158
-0.00211107
-0.00580376
0.00188325
0.00111102
-0.00162122
0.00705244
-0.00654224
-0.00797432
0.00727172
0.00688663
-0.00618403
0.000359885
-0.00620458
0.00239447
0.00345022
0.0077664
-0.000408986
-0.000159058
-0.00719836
0.00548134
-0.00106911
0.00105995
-0.00547219
-0.00638413
-0.00580433
0.00687171
0.00531675
-0.00120513
0.00345947
0.000937762
-0.00319211
-0.00270772
0.000147543
0.00524909
-0.00268892
-0.000603829
0.00682869
-0.00635711
0.000132246
-0.00588384
0.00546372
0.00106395
-0.000643821
-0.000196589
-0.00343195
0.00818888
0.00108503
-0.00361171
-0.00263806
0.00516474
-0.0028722
3.75531e-05
0.00283465
0.000878636
0.00399647
-0.00369672
-0.00117839
0.00639659
-0.0036893
-0.000981269
-0.00172602
4.96047e-05
-0.00190144
0.00185183
-0.00359631
-0.000968596
0.00134918
0.00321573
0.000372534
0.00205347
-0.00460603
0.00218003
0.00782993
-0.000707024
0.00306059
-0.0101835
0.000561024
-0.000697446
-0.00945978
0.0095962
0.000614985
-0.0027061
-0.00359222
0.00568333
0.000227062
0.00493162
-0.000274811
2.00928e-05
-0.00291047
0.00289037
0.00600082
-0.00222302
-0.00269276
-0.00363822
0.00304054
-0.00299863
0.00662052
-0.00551074
-0.000666715
-0.000443061
0.000662206
-0.00313167
0.00136899
0.00110047
-0.00541322
-0.00163894
0.00109985
0.00595231
0.00450722
-0.0073193
0.00484123
-0.00202915
-0.000200053
0.00662048
-0.00662973
0.000209304
-2.08246e-05
0.006049
-0.00599618
-3.20034e-05
-0.00843088
0.00672557
-0.00539681
0.00710211
0.00703222
-0.00680167
-0.000230558
-0.00642943
0.00860893
-0.00157399
-0.000605512
-0.00573995
0.00138096
-0.000432814
0.0047918
-0.0094672
0.000723629
0.00609592
0.00264765
0.00167643
-0.00228986
0.00127564
-0.00232255
0.00264064
0.00424931
-0.0045674
-0.00251189
-0.00112709
0.00143684
0.00220214
-0.0034071
0.00222997
-0.00430718
0.0054843
0.00102346
8.50993e-05
-0.00753799
-0.00337589
0.00336861
7.27535e-06
0.00368963
-0.00354736
-0.000142265
-0.0055471
-0.000362918
-0.0014755
0.00136658
-0.00730691
0.00850212
-0.00256179
0.00328435
0.00565231
-0.00718659
-0.00175007
0.00627193
-0.00681283
0.000183136
0.00035776
0.00335785
0.000873364
-0.00347105
-0.000760162
-0.00529006
-0.000291441
0.00694809
0.00305233
-0.000221108
-0.00372049
0.00088927
0.00343586
-0.00294153
0.00338828
-0.00388261
-0.0059703
0.00112228
0.00813237
-0.0020198
-0.00283105
0.00934797
-0.00449712
-0.00288028
-0.00317565
0.00076586
0.000854231
0.00228351
-0.00601802
-0.00410246
-0.000360544
0.0065899
-0.00212689
0.000635241
0.00100673
0.00363971
-0.00528168
-0.00193929
0.00474696
-0.00280767
0.00153129
-0.00738082
0.00267389
0.00439202
0.00306958
-0.00660737
-0.00620674
7.52338e-05
0.00773379
-0.00160229
0.00105555
0.000902939
0.00282602
-0.00478451
0.00422107
-0.00425163
3.05543e-05
0.00157077
-0.000593053
0.0052709
-0.00624862
0.00553083
-0.00175155
0.00265818
-0.00643746
0.010174
-0.00326954
0.00758763
-0.0144921
0.00166327
0.00309271
-0.00128772
-0.00346826
-0.00461034
0.00189508
0.00241824
0.000297023
0.00332272
-0.00250423
-6.79395e-05
-0.000750546
-0.00213293
-0.00270455
0.00787546
-0.00303797
-0.00370369
0.00480915
0.00191842
-0.00302388
0.00557748
-0.000304676
-0.00183694
-0.00865309
0.00572076
-0.000474772
-0.00823313
0.00759484
0.0035277
-0.00288941
0.00525149
-0.00592
-0.000853749
0.00152226
0.00297705
-0.00537719
-0.00282019
-0.00306168
-0.00280977
0.00158758
0.00428387
-0.00437711
0.00136007
0.0043186
-0.00130155
0.0050617
-0.00481667
-0.00331572
0.00307069
3.04004e-05
-4.38206e-05
-0.0047554
0.00476882
0.000116563
-0.00418448
-0.000157901
0.00422582
-0.00120152
-0.0071125
0.00111937
-0.0041207
0.00370733
-0.000705996
-0.00280035
-0.00118105
-0.000395704
-9.31673e-05
0.00702075
9.81423e-05
-0.0167478
0.0117786
0.00851511
-0.00354594
-0.00495584
0.000336215
0.00018147
0.00443815
-0.000983588
0.0156459
-0.0184097
0.00374738
0.000784437
0.0012098
-0.00271572
0.00072149
-0.0105957
0.00570268
0.000737976
0.00415504
-0.000123053
-0.00704427
-0.0010033
0.00817062
-0.00290314
0.0105956
-0.00734656
-0.00034588
0.00475716
0.00691841
-0.00639282
-0.00528276
-0.00567496
0.00541085
0.00671402
-0.00644991
0.0022089
0.00308717
-0.00384519
-0.00145088
0.00219752
-0.00148247
-0.0035154
-0.0112681
-0.000442548
0.00920408
0.00250654
0.00331743
0.000510319
-0.00193267
0.00340489
0.00455756
-0.00420806
-0.0037544
-0.00563737
0.00125636
0.00549559
-0.00111459
0.000667642
0.0017702
0.00617109
-0.00655714
0.00647568
0.000626065
-0.000544601
0.00404793
0.00317945
-0.00286908
-0.000113442
-0.000807267
0.00378979
-0.00433233
-0.000864742
0.0024062
-0.00832056
0.00353808
0.00237629
0.000252422
0.00449222
-0.00498425
0.000239611
-0.00172736
0.000333806
-0.00160571
0.00299926
0.00697424
-0.00498652
0.000209795
-0.00393996
-0.00307699
0.00414668
0.00287027
0.0148741
-0.0159157
0.00520126
-0.00415965
-0.00286764
0.00356331
0.00143514
-0.00213082
-0.00655846
0.00284839
0.00571821
-0.00200813
-0.00283534
0.00412133
0.00529445
-0.00658044
0.00793596
-0.00306729
-0.00525183
0.000383155
0.000137403
-0.00192628
0.00468645
-0.00289758
-0.000815071
0.000808005
-0.00619967
0.00571207
0.00185265
-0.00611659
-0.00144813
0.00717433
-0.00588588
-0.0015799
0.00150405
0.00222078
-0.00525854
0.00153371
-0.00296224
-0.00541437
0.0048198
0.00355681
-0.000898639
-0.00233365
-0.000707672
0.00291735
-0.00312371
0.00672029
-0.00651393
0.000709913
-0.0081876
0.00747768
0.00277806
-0.00363571
0.0023617
0.00151529
0.000881768
0.00124351
-0.00364056
-0.000146437
-0.00681314
0.00695957
-0.00372099
0.000493606
-0.0012076
0.00443499
-0.000445936
0.00515707
-0.00470025
-1.08901e-05
-0.0034954
-0.00185251
0.00202349
0.00332442
-0.00130201
-0.00309202
-0.00287643
-0.00422061
0.00352122
0.00357581
0.000151705
-0.00433015
0.00745151
-0.00306326
-0.000396638
-0.00399162
0.00397972
-0.000382825
-0.00290296
-0.000693937
-0.000640081
0.00558844
-0.006977
0.00202864
0.00359263
0.000137349
0.00174909
-0.00547906
-0.000130171
-0.00295031
0.00142462
0.00165587
-0.00205121
0.00267128
0.00515875
-0.00577881
-0.0072644
-0.00187774
-0.00202771
0.00668351
-0.00621988
0.000147265
0.00194997
0.00412265
0.000597567
-0.00220084
-0.00392224
0.00552552
-0.00285182
-0.00556807
0.0014046
0.00701529
-0.00259502
-0.00287696
0.00299578
0.0024762
-0.00673307
0.00648019
0.00683249
-0.00657961
-0.000910321
-0.00159023
-0.00480058
0.00730113
-0.00656004
0.000665474
0.00667705
-0.000782488
-0.00115153
0.00307141
-0.00191988
-0.00266058
0.00491594
-0.00370237
0.001447
-0.000112722
0.00880467
-0.00327095
-0.00542099
-0.00315541
-0.00152418
0.00633233
-0.00165273
0.0010194
-0.00267037
0.00605708
-0.0044061
0.00027822
0.00394533
-0.000691166
-2.11248e-05
-0.00646407
0.00646141
2.37821e-05
0.00737179
-0.00130559
-0.0107754
0.00470922
-0.00681094
-0.000667142
0.00850353
-0.00102544
-0.00370037
0.00559015
0.000459388
-0.00234916
0.00330875
-0.00326922
-3.95315e-05
-0.00392506
0.00038028
-0.0033866
0.00693138
-0.00568807
0.00783647
-0.00163107
-0.000517327
0.00353591
-0.00148227
-0.00426241
0.00220877
-0.00684792
0.00690932
-6.14045e-05
0.00561855
-0.00817404
0.0006642
0.00189128
-0.00638297
-0.00174615
0.0109158
-0.00278672
0.0047048
-0.000200214
-0.000987463
-0.00351712
-0.0026764
-0.00454055
0.0101343
-0.000482476
-0.00669359
0.00405236
0.0105214
-0.0117327
-0.0011203
0.00233159
0.00284057
0.00135314
-0.00313816
-0.00298931
0.00311415
-0.00012484
-0.00120471
0.00673257
-0.000427607
-0.00510025
-0.00147109
0.00174492
0.00587341
-0.00614724
0.00382358
0.00898215
-0.00525158
-0.00755414
0.00658146
-0.00789588
0.0025103
-0.00119588
0.00598327
8.30191e-05
-0.00606629
0.00010939
0.00583104
-0.00594043
0.0065447
-0.00792203
0.00699588
7.38749e-05
-6.05865e-05
0.00511631
-0.0051296
0.000128291
0.00929816
-0.0092668
-0.000159649
-0.000790343
-0.00234712
-0.0047448
0.00788227
-0.00290338
-0.00173474
0.000582868
0.00550338
-0.00958329
0.00349704
-0.00463197
-0.0012146
0.00496619
0.000880381
-0.00548414
0.00605457
-0.00161905
0.00104862
0.000860382
0.00448887
-0.00152659
-0.00382266
-0.00219143
0.000549199
0.00370964
-0.00206742
-5.30064e-06
0.00167262
-0.00210202
0.000434694
-0.00233776
0.00571061
-0.00328938
-8.34801e-05
0.00171088
-0.00540448
-0.00315432
3.70221e-05
-0.00503919
0.00500217
-0.00187144
-0.0017953
0.000833433
0.0028333
0.00280395
-0.00161789
-0.00118606
0.00703953
-0.00698989
-0.00142688
0.00137724
-0.000641011
-0.00416537
0.00384012
0.000966261
-1.71246e-05
2.38145e-05
0.00378643
-0.00379312
0.00188526
-0.00154821
-0.0059935
0.00565645
0.00435929
-0.000111967
-0.00424732
-0.0063704
-0.00412368
0.00614581
0.00434828
0.00370971
0.00581726
-0.0100095
0.00353
-0.00126963
0.00198659
-0.00424696
-0.00141624
0.00140049
-0.00778512
0.00780087
0.0022014
-0.00433578
-0.00421786
0.00635224
-0.000442948
-0.000996323
0.00469412
-0.00325485
0.00326738
-0.00401636
0.00145558
-0.000706598
0.00179769
-0.00298068
-0.00288101
0.004064
-0.00579347
0.00652306
-0.00173523
0.00100564
0.00659621
0.00848043
-0.00933888
-0.00573775
-0.00510896
0.00508439
2.45677e-05
-0.000566371
0.0060093
-0.00751422
0.00207129
0.000232618
-0.00037811
-0.00579367
0.00593916
0.00566698
0.000238701
-0.00652084
0.00061516
-0.00243216
-0.00411054
0.00516926
0.00137343
-0.00587308
0.00832204
-0.00294745
0.000498497
-0.00241273
-0.00294887
0.00174989
-0.000359155
-6.00984e-05
-0.0041627
0.00458196
-0.0136101
5.89118e-05
0.00122194
0.0123292
0.000536909
-0.00345025
-0.0017855
0.00469884
0.00847916
-0.000697681
-0.00274453
-0.00503694
-0.00150731
-0.00326176
0.000632276
0.0041368
0.00240008
-9.40482e-06
-0.00239068
0.0039868
0.00212373
-0.00132335
-0.00478718
0.00308766
-0.00244827
0.00609639
-0.00673578
0.000199754
0.0063503
-0.00209613
-0.00445392
0.00153765
0.00219438
0.00474713
-0.00304062
0.000214254
0.00282637
-0.00393874
0.00055741
0.00104514
0.00065994
-0.00544625
0.00374118
-0.00515847
0.00754846
0.00228563
0.00779872
-0.00165245
-0.00843191
-0.00496435
0.0048772
-0.00771618
0.00780333
-0.000745834
-0.0037346
0.00130674
0.0031737
-0.00411928
0.00776903
0.00230867
-0.00268835
0.00060388
-0.000224197
-0.00254157
-0.0081203
0.0025407
0.00812116
0.0053437
-0.0053333
-4.77369e-05
3.73292e-05
0.00430295
-0.0050325
0.00107224
-0.000342683
0.00110676
0.00432359
-0.00770794
0.0022776
1.90869e-05
0.00371784
-0.00373692
0.00240803
-0.00617951
0.00487824
-0.00232722
0.00625616
0.00527
-0.00919894
0.00177517
-0.00181335
-0.00842729
0.00846548
-0.0025344
0.00420274
-0.00843601
0.00676766
-0.00606457
0.00482836
0.00632744
-0.00509123
-0.00378643
0.00518925
-0.00335307
0.00195025
-0.000801392
0.00349154
0.00056748
-0.00325762
0.00176193
-0.00256925
0.00265025
-0.00184293
0.00334051
0.00124383
0.00109834
-0.00568268
0.00948981
-0.00644665
-0.000388436
-0.00265472
-5.75516e-06
-0.0046168
0.00462255
0.00287034
-0.00420406
-0.0128899
0.0142236
-0.000578377
-0.00624845
-0.001894
0.00872083
-0.000380389
-0.00287957
0.00325996
0.000879129
0.00415805
-0.00066201
-0.00437517
-0.00115919
-0.00418544
0.0033771
0.00196753
0.00324887
-0.00272062
-0.00477995
0.00826258
-0.00643293
0.00183159
0.00193949
-0.00377108
0.00624704
-0.000143591
-0.00075626
-0.00534718
-0.00120312
-0.00204626
0.00324937
0.00222908
0.00148135
0.0124567
-0.0149808
-0.00529285
0.00781696
0.00191443
0.00407807
-0.0031191
-0.00287341
-0.0043723
0.00836284
0.00556297
-0.00955351
0.00492783
0.0017104
-0.000659036
-0.0059792
0.00812644
-0.00541909
0.00349719
-0.00620455
-0.00457917
0.00209324
-0.00574659
0.00823252
-0.00742682
0.013309
-0.00521247
-0.000669702
-0.000198491
-0.00317484
-0.00437081
0.00774414
0.00604846
0.00249726
-0.00709444
-0.00145128
0.00323485
-0.0086185
0.00543529
-5.16411e-05
-0.00761769
-0.000287666
0.00498409
0.00292127
-0.00152952
0.00395173
0.00171851
-0.00414073
-0.000969504
0.0038864
0.00312593
-0.00604283
-0.00793678
0.00408015
-0.000385956
0.00424259
0.000724742
-0.00215463
0.00427677
-0.00284688
0.00337956
-0.00169616
0.00120556
-0.00288895
0.0032698
0.000628741
0.0003177
-0.00421624
-0.00480987
0.00516152
0.0019108
-0.00226245
-0.00113935
0.00610933
0.000123213
-0.0050932
0.00492126
-0.00288778
-0.00190779
-0.000125695
0.00426431
3.31532e-05
-0.00429746
0.00310847
0.00240658
-0.000545959
-0.00496909
0.00145726
0.00384652
0.00328817
-0.00859194
-4.92154e-06
-0.00691093
0.00691586
-0.00360407
0.0139556
-0.00203608
-0.00831544
-6.75331e-05
0.00521229
-0.00514475
-0.000346192
-0.00373492
0.000671965
0.00340915
-0.00677679
0.00345622
0.00262172
0.000698846
0.00138091
0.00114708
-0.00791729
0.00538929
0.00403357
0.00637185
-0.00238132
-0.00802409
0.00610915
-0.0020897
-0.00584772
0.00182827
-0.00761836
0.00434448
0.0116299
-0.00835606
-1.91118e-05
0.00292696
-0.0029267
1.88505e-05
-0.00303058
0.00299923
3.13524e-05
-0.00775289
0.000118717
0.00326188
0.000865144
0.00186832
0.005118
-0.00785147
0.00403846
-0.00480315
0.00309767
-0.00233298
-0.00388691
0.00340435
-0.000127938
0.000610498
-0.000807485
-0.00639275
0.0081716
-0.000971368
-0.00285318
0.00137362
0.00451827
-0.0030387
0.00493776
-0.00190475
0.000730012
-0.00376302
-0.00328087
-0.000572848
0.00384225
1.14624e-05
-0.000564483
-2.99947e-05
0.00536155
-0.00476708
0.000683651
-0.000575096
0.00537117
-0.00547972
-0.00483162
0.00674802
-0.00706983
0.00515343
2.3185e-05
-0.00608854
0.00606535
-0.00216325
0.000190739
0.00545514
-0.00348262
-0.00414376
0.00484447
-0.00660749
0.00590677
-0.00425745
0.000325386
0.00129401
-0.00197166
0.00534785
0.000300021
-0.00367622
-0.00142383
0.000198646
-0.00241303
-0.0021031
-0.00683492
0.00686529
0.00207274
-0.00304467
-0.000354474
-0.000767845
0.00416699
-0.010418
0.00351861
0.00102839
0.00587104
-0.00330149
0.00757348
-0.00375833
-0.000513656
0.00230635
0.000901299
-0.00463149
0.00455617
0.00464469
-0.00920086
0.000614967
0.00997748
-0.00231778
-0.00827467
-0.000126441
-0.000178223
-0.00440397
0.00470864
-0.00478253
0.00787734
-0.00317735
8.25366e-05
0.00454004
-0.0028666
-0.00411543
0.00244199
0.00113619
-0.00015246
0.00139065
0.00698715
0.00194118
-0.0101037
0.00117542
-0.00485369
-0.000631094
0.00158964
0.00389515
0.00182961
-0.00202821
-0.00275027
0.00839616
-0.00565037
0.00439367
-0.00713946
-0.000931953
0.00542523
-0.00938225
0.00488898
0.00326625
-0.0041255
-0.000419254
0.00127851
-0.00360169
-0.00125471
-0.000121331
0.00497773
-0.00269931
-0.0025511
0.00525041
0.00067416
-0.00721801
0.0064037
0.000140156
0.00277552
-0.0026784
-0.00279643
-0.00452685
0.00574403
-0.00109275
-0.000124432
0.00645749
0.00177818
-0.00695865
-0.00127702
-0.00250033
-0.0036573
-0.000419843
0.00657747
0.00411099
-0.00125187
0.00476543
-0.00762456
-0.00458092
-0.000250695
-0.00548904
0.00293794
0.000702716
-0.00612045
0.00195852
0.00345922
0.00178199
-0.00638699
0.00351579
0.00108921
0.000958101
0.00024956
-0.00480317
0.00359551
0.00072959
0.00313288
-0.000212247
0.00539148
-0.00106507
-0.00411416
-0.00211588
-0.000217166
-0.00197356
0.0043066
-0.0012505
-0.00168408
0.00322001
-0.000285433
-0.0050212
-7.22372e-05
-0.00846686
0.00304071
0.00445665
0.011995
-0.000100002
0.00163307
-0.0135281
-0.00526348
0.00817133
0.00166037
-0.00456822
-0.00150087
0.000820865
0.00517117
-0.00449116
0.000625172
0.00177639
-0.00137349
-0.00102807
-0.00902701
-0.00187051
0.0077867
0.00311081
0.000197296
0.00381755
-0.000765978
0.000116319
0.00191889
-0.00602351
0.00398829
-0.00372092
-1.32575e-05
0.00137146
0.00236272
-0.00511831
0.00632588
-0.00101027
0.00289514
-0.00261054
-0.000284604
-0.00425799
0.000610675
-0.00330472
0.00695203
-0.0019287
0.0029037
-0.00223796
0.00126295
-0.00414643
0.00466957
-0.00192954
0.00140641
0.00185933
-0.000309753
-0.00440423
0.00285465
-0.0018531
0.0116203
-0.0156403
-0.00168571
-0.00117622
0.00115143
0.0017105
0.00551508
-0.00860707
-0.000390635
0.00348262
-0.00232644
0.0017361
0.00299181
-0.00240147
-0.000690316
0.00367398
-0.00101358
-0.00197008
-0.0041347
0.00091769
0.000965793
0.00225122
-0.00231669
0.000199366
0.00211732
0.00532678
-0.00253562
-0.00270459
-8.65722e-05
0.000390507
0.00266436
-0.00404407
0.000989199
-0.00285274
-0.00346059
0.00352789
0.00278544
-0.00147983
0.00381775
-0.00327223
0.000934311
0.00137564
-0.00260421
0.00179461
-0.000566033
0.00500648
0.000132169
-0.00513865
0.00429963
-0.00529379
0.00262028
-0.00162613
-0.00675766
-0.000187966
0.00694563
0.00277155
-0.0022989
0.000536753
-0.00100939
-0.000215762
0.00479436
-0.00523506
0.000656462
-0.00239688
0.00300011
0.000772408
-0.00266498
0.00571103
0.00527598
-0.00455547
0.00451551
3.99583e-05
9.06169e-05
-0.00722651
0.0071359
0.00968087
0.00116772
-0.00205849
-0.0087901
0.00202726
-0.0078998
-0.000980251
0.00685279
0.00153224
0.00181483
0.0010249
-0.00437197
-0.00271653
-0.00271369
3.79167e-05
0.0053923
-0.00129711
0.00177692
-0.00319634
-0.00597978
0.00107851
0.0078488
-0.00294753
-0.0117557
0.0086108
0.00378685
-0.000641906
0.00520456
4.19292e-05
-0.00524649
-0.00295555
-0.0039778
0.0025735
0.00435985
-0.00296113
-0.00430344
0.00128478
-0.00425649
0.00231353
0.00267255
0.00172536
-0.00226398
-0.00410373
0.00464235
-0.00291606
2.73736e-06
0.00291332
-0.00682001
0.00275714
0.00280436
0.00125851
0.00171221
-0.00458445
-0.00138425
0.00583995
-0.00185104
-0.000147122
-0.00384178
-0.00391541
0.00649009
0.00384949
-0.00642416
-0.00115389
-0.00241916
0.000892534
0.00268051
-0.00165425
-0.00133151
0.00298576
-0.00289388
-0.00607756
-0.0027843
0.00135675
1.84879e-05
0.0027378
-0.00411304
0.0055489
-0.00403832
-0.00584941
0.00433883
-0.00205769
0.000733472
0.00415975
-0.00283553
0.00390444
-0.002749
-0.00038711
-0.000768326
-0.00448031
0.000727149
0.00350014
0.000253025
-0.0027882
0.00638708
-0.00690099
0.00269036
0.000199434
0.00401119
0.00648944
-0.00518526
-0.00408256
0.00277837
-0.00515387
0.00107358
0.00962918
-0.00499497
-0.00329483
0.00537729
0.00291251
-0.000586638
0.00521379
-0.00197696
-0.0026502
0.000296186
-0.00308627
-0.00203078
0.00482086
0.00592814
-0.00391091
-0.000239823
-0.0017774
0.00183312
0.00137012
-0.00450036
-0.00124711
0.00141275
0.00348068
-0.00364633
-0.00103682
0.00541034
-0.00666744
0.00229392
-0.00324938
0.00078366
0.000786716
0.00167901
-0.00713196
0.00725005
-0.000118089
0.00492751
-0.00485619
-7.13248e-05
0.00197687
-0.00762666
-0.00292869
0.00857847
0.00174595
0.00332069
0.0007733
-8.4014e-05
0.00290749
-0.00282347
0.00467756
0.00419344
-0.008871
-0.00516068
0.00315112
0.00222629
-0.000216727
-0.00289814
0.000954852
0.00235662
-0.000413328
-0.00866811
0.00404632
0.00475287
-0.00013107
-0.00281394
-0.00313417
0.00303205
0.00447541
-0.000706104
-0.00288236
-0.000886937
-0.00480624
0.00518457
-0.00316653
0.000834366
-0.00533862
-0.000271013
0.00477527
-6.31721e-06
-0.00264574
0.00265206
0.0129515
9.98195e-05
0.00138249
-0.0144338
-0.000487103
-0.000954763
-0.00703471
0.00847658
0.00224612
-0.00304251
-0.00141803
0.00221442
0.000870039
0.00672385
-0.00271344
-0.00488045
0.00732607
-0.0073296
-1.41409e-05
1.76673e-05
-0.00410337
-0.00370008
0.0057845
0.00201894
0.00240096
0.00183712
-0.00478478
0.000546703
3.17197e-05
0.00443966
-0.00453687
6.5491e-05
-0.00613234
0.00196414
0.00496827
-0.000800079
0.00469522
0.00283977
-0.00475367
-0.00278132
0.000108837
-0.00418049
0.00212412
-0.00108873
0.00629068
-0.00337829
-0.000440019
-0.000527025
0.00434533
-0.00566813
0.000309705
0.00535842
0.00826228
0.00357396
-0.0026793
-0.00915695
-0.00539969
0.00011357
0.00539496
-0.000494175
-0.00128813
-0.00328611
0.00506841
-0.000651604
-0.000644129
-0.00174267
0.0030384
0.00136217
-0.00690408
0.00520568
0.000336231
0.00430487
-0.000670391
-0.0041888
0.000554323
-0.00530075
0.00110682
0.000427758
0.00376617
-0.00201925
0.00132309
-0.00273378
0.00342994
0.00116159
0.00075106
-0.00686837
0.00495572
0.000239189
-0.00464501
-0.000322971
0.0047288
0.00460768
0.000605304
-8.07047e-05
-0.00513228
-0.00548485
0.0012764
0.00496377
-0.00395
-0.00524753
0.00919753
0.00760164
-0.00386287
0.00163352
-0.00537229
0.00059609
0.00426556
-0.00261553
-0.00615009
0.00113471
0.00217675
0.00283863
0.00759641
-0.00783186
0.000235454
-0.00459678
-0.00156289
0.00321844
0.00294123
-0.0059721
-0.00463858
0.00311134
0.00749934
0.00620206
-0.0064765
-0.000792812
0.00106726
-0.000902413
0.00301138
-0.00237221
0.000263247
-0.00774962
0.00253021
0.00177936
0.00344005
-0.0114302
0.0142279
0.00236686
-0.0051645
0.00511093
-0.011076
-0.000565359
0.00653044
-0.00454562
0.00577531
-0.0107046
0.00947489
-0.00476502
0.0105067
0.00104131
-0.00678295
0.000419775
0.00498006
-0.0011648
-0.00423503
0.00759485
-0.00569906
-0.000190406
-0.00170538
-0.00132856
-0.00127629
0.0019503
0.000654545
-0.00357563
-0.00744243
0.00635537
0.00466269
-0.00509631
0.00679276
0.0058984
0.00413435
-0.00303975
-0.00378656
0.00269197
0.00152559
-0.00197337
-0.000871667
0.00131945
0.00338302
-0.00334774
-0.00445199
0.00441671
-0.00136844
0.00392422
-0.000283537
-0.00227224
-0.00544614
-0.000870889
0.0067368
-0.00410231
-0.00100835
0.00507143
3.92332e-05
0.00168371
-0.00376142
0.0020777
0.00133901
-0.00177767
0.00662845
-0.00618979
0.0052029
-0.00731468
0.00105989
0.00105189
0.0033099
-0.00356963
0.000259731
-0.00523522
0.000138909
0.00465532
-0.00177418
-0.00449364
0.0016125
0.00147167
0.00119153
0.00522113
-0.00788433
0.00323536
-0.00351252
0.000277155
-3.90403e-05
0.00405538
-0.00458472
0.00056838
-0.0057318
-0.000551428
0.00762224
-0.00247383
-0.000422639
0.000571832
0.00232464
0.000341719
-0.00282099
0.00208047
0.0003988
0.00463
-0.00443342
-0.00109899
0.000532434
0.00766492
-0.00483211
-0.00336524
-0.00263092
0.00556634
-0.00293541
-0.00712073
0.00272587
-0.00167011
0.00606497
0.00559268
-0.00506414
-0.00827816
-0.00273663
-0.00327783
0.0112588
-0.0052443
-0.00801783
0.00510812
0.00728522
-0.00437551
-0.000174945
-0.00685176
0.00702671
0.0108375
2.10673e-05
-0.00624478
-0.00461375
0.00630759
-0.00406617
-0.000561116
-0.00168031
-0.00458974
0.00325545
-0.000822777
0.00215706
6.23231e-05
-0.0047382
0.00467588
-0.00344824
0.00354975
-0.000101517
-0.00250189
-0.00264386
-0.00676794
0.0119137
-0.0063838
0.00139363
-0.000709336
0.00569951
0.00148437
0.00240825
0.00658811
-0.0059465
-0.00491533
0.00427372
-0.00182167
-0.00375875
0.00414401
0.00143641
-0.00377842
-0.00192083
0.00570552
-6.26788e-06
0.00124435
-0.000717368
-0.00351631
0.00298933
0.00416868
0.000185528
-0.00533049
0.000976285
0.00128702
-0.000896767
0.00138463
-0.00167152
0.00166564
-0.00137875
0.00340816
0.00333851
-0.00340924
-0.00333743
0.00168161
0.00393065
-0.00406438
-0.00154788
0.00356025
0.001542
-0.00279589
0.0044031
-0.00533992
0.00112234
-0.00585844
0.0040958
0.00220638
-0.000443734
0.00696173
-0.0023036
-0.00728906
-0.00186307
0.00496234
0.00249341
0.00484079
-0.00235852
-0.00408149
-0.00111403
-0.000662923
-0.00651615
0.00609336
0.000574986
-0.000152197
-0.000405566
0.00815219
-0.000844061
-0.00690256
-0.00531853
0.00108456
0.0023709
-0.000848712
-0.00537738
0.00151178
0.00471432
0.00486729
0.000677713
-1.75506e-05
-0.00552745
-0.00727638
-5.85533e-05
4.88363e-05
0.00728609
-0.00187062
0.00204769
-0.00332683
0.00314976
-0.00500971
0.00633592
-0.000654929
-0.000671274
0.0065947
-0.00615539
-0.00544903
-0.00485965
0.0043848
-0.0013896
0.00186445
0.00392665
-0.000177258
-0.00123491
-0.00251448
-0.00738009
0.00711756
0.0034877
-0.00322517
0.00349737
0.00133218
-0.000444554
-0.00438499
0.00125743
0.00318784
-0.00398653
-0.000458733
-0.00236336
0.00237741
-1.40448e-05
-0.00138077
-0.00352395
0.00353628
0.00536449
-0.00531563
-4.88639e-05
-0.0030045
-0.00238787
0.00234986
-0.000312563
-0.0036191
-0.000393441
0.0043251
-0.000410964
-0.00315903
0.00282585
0.000744149
0.0049454
-0.00562457
0.000679172
-0.00633732
0.0064966
0.00595739
-0.00611666
-0.00425181
0.00328245
-0.00223412
0.00320348
-0.00170483
0.000728416
0.0015437
-0.000567288
-0.000177802
0.00767829
-6.70024e-05
-0.00743349
-0.00389208
0.001887
0.0019173
0.00222657
0.00283413
-0.00494451
-0.000116183
0.00021482
-0.00615065
-0.000240739
-0.00556339
0.00556303
3.57753e-07
-0.00373782
0.00188277
-0.00411704
0.00126175
-0.00279164
0.000111861
0.00244323
0.0010607
0.00366942
7.15951e-05
-0.00313844
-0.00060258
0.00307289
-0.00766822
0.0061482
-0.00155286
0.00127359
-0.00173444
0.00644998
-0.00598913
0.00788752
0.00232982
-0.00121238
-0.00900495
-0.00201224
-0.00330101
-0.00107213
0.00638539
0.00239278
0.00996745
-0.0090006
-0.00335963
0.00114673
0.00723441
-0.00698407
-0.00139708
-0.00248459
0.00032746
0.00509325
-0.00293612
-0.000872583
0.0070891
-0.00382374
0.00513642
-0.00405486
-0.00158297
0.000501405
0.00168735
0.00441519
-0.00610254
0.00410492
0.000911626
-0.000546973
-0.00446957
-0.00378248
0.00302342
0.00030411
0.000454946
-0.000365028
-0.00536694
0.000314454
0.00541751
-0.00393025
-0.000499732
-0.00016143
0.00459141
0.00226088
-0.00501507
4.97868e-05
0.00197057
0.00299471