/*--------------------------------*- C++ -*----------------------------------*\
  =========                 |
  \\      /  F ield         | OpenFOAM: The Open Source CFD Toolbox
   \\    /   O peration     | Website:  https://openfoam.org
    \\  /    A nd           | Version:  10
     \\/     M anipulation  |
\*---------------------------------------------------------------------------*/
FoamFile
{
    format      ascii;
    class       volScalarField;
    location    "10.5";
    object      SgP;
}
// * * * * * * * * * * * * * * * * * * * * * * * * * * * * * * * * * * * * * //

dimensions      [1 -1 -3 -1 0 0 0];

internalField   nonuniform List<scalar> 
111485
(
8.02959e-10
0.000107412
2.55633e-05
2.3656e-10
7.64233e-06
2.8532e-08
1.39439e-05
2.04995e-07
9.89448e-06
2.61559e-06
2.34986e-05
8.36727e-07
6.30368e-06
0.279364
6.08065e-06
1.50829e-05
0.198218
0.000994308
8.47349e-07
4.71179e-08
0.0358172
7.08493e-10
2.94426e-06
1.03558e-05
3.73077e-05
2.8313e-08
4.89381e-07
1.25412e-05
1.02533e-06
0.0463485
3.87754e-06
4.71357e-07
2.15267e-07
1.37701e-06
0.000706595
8.5762e-05
0.129587
0.194658
0.00234549
8.15661e-07
0.040693
1.11773e-06
2.7704e-06
0.000101654
2.07824e-05
1.52611e-06
6.13696e-06
4.21354e-07
5.83704e-06
4.07936e-07
1.10446e-06
1.64045e-05
4.67606e-07
8.70289e-06
1.43585e-06
1.7151e-07
2.5194e-06
3.60366e-08
4.49674e-05
3.57983e-07
5.15419e-07
2.54847e-07
7.86408e-05
6.41867e-06
6.24609e-06
1.89568e-05
0.000398196
2.1673e-06
6.53855e-05
0.000127435
4.71163e-05
7.81501e-05
1.06488e-05
8.39193e-05
3.74085e-08
1.87569e-06
1.49294e-08
6.67798e-07
2.60002e-08
2.99497e-05
0.26624
0.498413
3.9492e-08
4.88999e-09
1.4995e-05
3.42806e-05
0.13554
8.45718e-06
0.000234417
4.14637e-06
1.18828e-06
6.16887e-06
4.23026e-05
4.78633e-07
1.83176e-06
6.21701e-09
0.0260437
1.11826e-05
0.00146019
0.000527893
1.33646e-09
2.6315e-06
1.83334e-06
1.35534e-05
5.65632e-06
1.55654e-05
7.21578e-09
2.8359e-07
1.30377e-05
0.000677248
3.70407e-05
1.26574e-06
1.22086e-05
6.84463e-05
1.03084e-07
1.37207e-07
2.75884e-08
6.13767e-06
2.07343e-05
3.45695e-09
8.72179e-08
0.000181623
0.070366
2.10041e-06
5.34215e-05
0.0271821
0.000102132
1.15933e-05
2.88762e-10
0.000299885
0.000129933
1.63187e-05
0.0454308
0.000167381
7.49901e-05
7.60476e-07
1.7858e-09
2.47165e-07
1.02954e-05
2.26586e-05
6.60748e-05
3.65709e-07
0.170731
8.82908e-05
3.86679e-05
2.17364e-06
6.29897e-09
9.63815e-10
4.62547e-08
4.33304e-07
2.99702e-05
0.0274771
0.109302
1.14459e-05
3.51812e-05
4.94937e-07
5.25708e-06
0.000137625
0.000771465
5.23241e-06
9.21218e-10
6.81582e-07
3.66191e-05
6.99381e-05
6.14265e-05
3.49713e-05
6.32527e-06
0.025313
0.00145936
0.00012277
1.12748e-09
1.13541e-08
0.189558
4.15412e-10
2.26428e-07
2.44828e-06
5.2511e-07
9.13711e-06
3.23056e-08
5.53756e-06
9.33922e-06
3.52684e-08
2.47689e-06
4.75081e-07
2.16185e-06
1.93083e-05
9.1559e-06
4.9569e-05
0.000356594
1.5086e-07
4.82132e-05
5.4951e-06
6.85725e-06
3.38223e-05
4.7318e-06
1.14325e-05
1.69317e-06
1.21248e-06
8.28191e-07
7.40974e-06
2.5015e-06
0.00154952
7.62452e-05
8.34497e-07
1.72407e-06
3.81752e-06
1.1236e-05
1.12175e-05
1.66911e-05
2.4554e-06
4.84969e-06
9.08345e-06
8.0985e-06
8.0307e-09
6.42201e-05
0.000296084
3.78498e-07
8.92499e-09
1.07376e-05
1.59077e-05
8.35473e-07
8.23379e-08
1.41992e-05
1.5616e-05
0.000265073
7.8139e-09
6.43315e-10
2.93871e-05
0.00390909
2.23711e-05
8.85001e-05
1.26356e-05
2.20008e-06
0.138155
3.68465e-05
1.93532e-05
0.152663
4.90013e-08
5.40021e-05
1.99073e-05
2.42642e-05
2.94184e-05
4.35602e-06
3.71815e-06
0.00178694
9.35748e-07
7.32382e-06
1.41939e-08
5.1755e-06
0.129132
1.73654e-05
1.00028e-05
1.9537e-05
6.59745e-10
0.000183307
4.19761e-07
2.62865e-07
6.36177e-05
0.0952139
1.87913e-08
4.08615e-06
4.74501e-05
2.27223e-06
3.814e-09
1.09224e-05
5.54744e-11
6.13117e-08
4.841e-07
0.15847
3.93815e-06
2.87095e-05
1.34821e-06
0.167898
1.82302e-05
1.24738e-06
0.000233091
4.25239e-06
1.22191e-06
4.65871e-07
5.60452e-09
0.107683
3.94965e-07
3.83439e-05
1.78675e-05
1.71484e-09
0.206036
0.251693
1.47674e-06
0.000295663
2.92244e-05
2.88642e-06
8.20264e-06
1.15301e-05
2.9752e-08
6.47815e-06
4.15363e-09
0.000343994
0.000256911
1.24851e-05
1.74088e-06
0.328046
1.75746e-08
0.0803909
8.79061e-07
6.53808e-06
4.02309e-09
1.09253e-07
0.0237065
4.15573e-06
1.46213e-06
5.38345e-06
0.000153275
6.78461e-07
2.88605e-05
2.82905e-08
3.01982e-08
4.73764e-06
0.00414493
0.237336
3.27735e-06
0.000724547
5.2288e-10
9.07523e-09
1.37781e-08
8.09995e-05
5.2098e-07
5.20557e-07
2.0222e-06
8.69585e-07
6.82006e-05
0.0585274
4.92532e-06
1.10404e-07
1.78105e-06
2.05665e-06
0.0450634
4.76742e-05
7.04546e-07
6.77619e-07
6.95268e-07
1.33083e-05
5.54725e-08
0.142675
0.000158375
7.19478e-07
2.91327e-06
0.000285697
4.06982e-07
0.0365618
5.20437e-07
9.75223e-06
6.12287e-06
3.72844e-07
1.90502e-05
8.49902e-06
1.72176e-07
5.27696e-07
6.72763e-07
1.69952e-06
0.342792
2.72932e-05
1.48565e-07
0.0495006
1.52488e-05
1.85158e-08
4.00773e-07
4.03902e-07
0.0452563
0.000587153
0.0441814
0.0464083
2.61854e-07
2.17385e-08
2.34134e-06
3.25289e-06
9.90524e-10
6.53005e-06
2.79105e-06
1.50409e-05
2.43799e-05
0.000127862
4.96667e-06
0.000665979
4.50946e-07
6.84881e-06
4.07289e-05
1.29502e-06
0.000632076
3.69185e-07
1.37756e-05
2.47664e-06
0.0283692
1.09011e-07
1.58766e-07
0.146463
4.30523e-06
0.290264
6.44677e-08
4.55778e-06
3.2866e-06
5.63661e-09
4.76433e-06
4.22042e-05
3.84323e-09
0.0308434
2.61498e-06
2.62472e-06
4.30627e-07
2.24447e-08
0.000717305
5.09936e-09
9.36882e-06
3.30738e-06
2.42668e-10
1.12496e-06
3.63507e-05
0.233543
0.000124976
1.93298e-09
7.60562e-05
9.57138e-05
9.35209e-05
3.61714e-05
0.000593996
2.41594e-06
0.00106622
5.10476e-05
0.193556
0.000195338
4.2164e-08
6.72102e-06
1.0174e-06
1.90847e-07
0.00134812
0.000198722
7.97247e-05
1.39526e-06
1.36366e-06
9.10339e-06
3.51528e-08
0.332066
9.55021e-07
3.17504e-05
0.00420803
8.6754e-05
0.00121557
3.59569e-08
0.240539
0.313963
2.50997e-08
3.17728e-05
0.000248155
9.84221e-05
3.31001e-09
2.85428e-05
4.89811e-09
0.270373
6.82011e-05
1.90391e-05
9.8967e-05
2.02058e-05
1.57889e-07
1.52927e-06
4.90608e-07
6.43511e-05
1.53567e-07
5.81444e-07
0.0504396
8.85966e-05
3.68377e-08
1.11309e-09
0.000365262
8.13267e-08
1.46231e-06
3.41596e-06
2.39737e-08
5.88022e-05
6.33385e-08
0.0713875
6.43829e-08
1.60114e-06
1.59642e-08
0.000215299
3.97459e-07
0.212799
1.79385e-05
0.224327
7.97853e-09
6.10704e-05
2.3899e-06
3.05721e-09
0.349905
0.135511
2.42191e-05
3.08621e-06
2.94524e-05
6.76453e-07
1.07686e-05
7.15719e-07
4.2505e-05
0.274004
2.16652e-08
2.17441e-06
0.000103284
1.73195e-05
0.0552067
5.68548e-06
0.000109944
2.24718e-06
1.28735e-06
0.000731661
0.0766074
1.63035e-05
2.20556e-08
1.16131e-06
3.46959e-06
3.37752e-06
1.07204e-06
1.86309e-05
2.47602e-09
0.00164538
1.28193e-07
3.14997e-07
1.87584e-07
8.43394e-05
2.15149e-09
9.46101e-06
3.00201e-08
8.09002e-06
3.7082e-10
0.110232
0.109222
1.74618e-05
8.8804e-07
0.0610042
0.0775376
4.77498e-08
2.30252e-07
1.3297e-05
4.7926e-08
0.000151092
1.68811e-05
1.02972e-05
0.0410542
1.48368e-06
2.63103e-09
4.45809e-05
4.40524e-05
5.74656e-05
1.41955e-06
1.48007e-05
9.94402e-06
1.02636e-06
9.14565e-07
1.9864e-05
2.85198e-05
1.50795e-09
0.120429
6.4974e-05
4.10505e-05
1.24438e-06
0.00113318
2.95841e-05
0.000433351
0.00285494
0.000366044
5.1789e-06
8.09774e-05
1.24154e-05
1.94138e-05
0.108734
0.000197996
7.0703e-05
0.003442
0.0731173
3.12364e-08
5.98389e-05
4.27505e-06
3.88116e-05
3.13098e-07
0.000496449
0.00265481
0.000414981
0.000158713
2.41993e-05
2.15804e-06
6.3239e-08
0.000189067
3.24361e-06
3.00531e-08
1.58672e-09
4.08428e-08
3.60215e-08
9.19571e-06
4.4018e-09
0.0334535
1.19151e-05
2.22905e-05
0.0946436
0.302526
5.77273e-05
2.84508e-06
0.0357784
5.1999e-08
1.76882e-05
1.61242e-07
1.50835e-08
4.55765e-05
2.45054e-05
0.114274
2.44347e-05
1.26594e-07
2.58771e-06
2.81141e-05
0.1362
6.56914e-06
2.59775e-05
6.5275e-05
0.187816
0.0388507
2.57024e-06
1.6307e-05
5.64861e-06
2.19249e-06
5.77249e-06
1.08521e-06
3.05279e-05
3.83481e-06
1.99907e-06
1.0761e-06
4.23765e-06
0.000626808
3.12508e-05
3.99988e-06
4.41833e-06
0.000628426
3.2992e-07
4.86619e-07
1.57362e-05
2.81117e-06
1.52676e-05
2.60079e-06
3.13347e-06
3.28831e-06
2.91695e-05
0.000185602
1.33561e-05
1.88799e-05
2.51566e-06
4.80398e-07
3.90552e-05
4.30724e-06
3.97854e-09
0.072722
2.64918e-08
0.130838
5.6173e-05
0.0112968
8.04119e-08
0.0275726
1.65299e-06
1.22435e-05
5.02056e-10
7.44568e-06
2.87701e-07
1.70103e-08
8.19037e-07
0.267682
0.00011834
2.82829e-05
0.0396454
9.70741e-08
2.18389e-09
4.06751e-06
1.61314e-06
7.9809e-05
5.5769e-07
0.000121036
5.89021e-08
6.99889e-06
0.000116765
0.159119
2.33913e-09
6.43148e-09
2.94832e-06
7.15499e-07
0.00012679
3.59145e-07
0.0590135
1.02977e-06
2.95111e-08
1.65462e-07
0.0426349
6.04901e-06
0.00013011
7.44391e-10
0.00480558
0.000974478
0.172397
1.94833e-08
1.81718e-08
3.50523e-06
2.17422e-05
3.77992e-05
0.000554136
0.000315448
0.000235471
4.33544e-06
0.0594721
2.44275e-05
7.80294e-07
5.88179e-08
1.16946e-06
1.23124e-08
7.45043e-09
7.01191e-08
8.29688e-10
3.23233e-06
6.36457e-08
1.21071e-08
3.45295e-07
2.20257e-07
1.45093e-06
1.00041e-07
5.67586e-07
2.27101e-07
1.34557e-05
1.48223e-05
2.5356e-08
6.03321e-09
1.92368e-05
5.08884e-10
8.11108e-05
1.73881e-06
4.61948e-06
8.31924e-08
4.26396e-10
1.20345e-09
1.41987e-09
1.43184e-05
2.0798e-08
6.35347e-08
1.97438e-05
7.21228e-09
1.26366e-05
7.86348e-05
2.24326e-06
1.46755e-06
0.000496903
3.97285e-06
0.238785
0.000101506
7.84435e-06
0.199279
7.855e-05
5.32296e-06
2.62239e-05
8.41976e-07
1.92282e-05
0.0849863
0.000663604
5.42978e-07
3.93093e-08
1.18771e-05
7.55997e-05
9.23821e-05
8.75597e-05
1.50842e-09
2.27279e-10
1.21546e-06
3.69512e-05
8.22853e-06
3.73248e-06
0.000185535
1.9681e-06
2.67835e-05
1.55764e-07
1.79495e-08
0.031387
7.73373e-06
1.99817e-07
2.28664e-08
4.76243e-05
0.000125001
1.66708e-06
3.14841e-07
0.039193
7.03035e-10
2.42594e-05
0.0598349
1.33657e-08
0.0689873
4.11187e-05
0.0347793
0.000576786
8.65673e-08
2.2972e-05
2.01248e-05
0.044153
5.21286e-05
0.00125052
0.15337
0.000132152
9.9721e-06
9.23088e-07
1.20074e-06
0.461088
0.153683
3.91411e-08
0.228601
1.22785e-05
0.000155145
2.24791e-05
2.05481e-05
0.00112606
3.55214e-05
1.24896e-05
6.59126e-06
1.70979e-07
1.54877e-06
0.0428146
6.64633e-08
4.92229e-05
2.47368e-05
9.0768e-08
3.35466e-06
0.205918
3.63541e-06
2.84664e-07
0.000593353
1.5631e-08
3.41913e-06
0.201204
2.0554e-08
0.168822
0.324577
0.0012517
1.63867e-05
1.01992e-06
3.05893e-06
5.72382e-05
0.00021809
0.00111697
0.000289018
4.032e-06
0.0425615
0.000102724
8.49986e-10
0.000286486
0.000274793
0.000579935
0.000447861
0.000827623
0.000164978
1.26516e-09
6.54969e-05
9.27707e-07
3.85044e-07
0.00156779
0.331234
1.69501e-07
2.98247e-08
0.00309807
0.00316737
7.47494e-10
0.000580252
8.66836e-08
1.49403e-08
1.38013e-08
4.46092e-07
4.68149e-06
1.62362e-07
7.24309e-05
0.0486595
2.51758e-09
5.04435e-07
0.0042986
0.110114
6.71025e-05
6.71088e-07
0.0305662
3.61144e-09
0.000124789
4.41769e-09
2.20112e-09
0.000549826
0.123178
2.39734e-06
5.21499e-09
6.82345e-08
0.0335212
1.5822e-08
0.0217172
4.03512e-08
9.79889e-05
4.17814e-09
0.00188691
2.95781e-06
3.23386e-09
7.15621e-07
5.53514e-07
0.00134149
5.98863e-07
2.41744e-08
1.95873e-06
0.00425019
0.0507789
6.82592e-05
0.000566701
0.00103144
4.72829e-08
0.00125836
9.59504e-06
3.48877e-07
2.65562e-06
0.000210256
2.05599e-05
1.29672e-07
8.75341e-06
0.000141954
8.9308e-08
1.20619e-06
5.73257e-07
1.52359e-05
0.0693632
1.0321e-09
7.64606e-07
0.0571733
0.000116264
7.32935e-05
7.3729e-09
7.9022e-07
1.99339e-08
1.05498e-06
2.48347e-05
4.67683e-05
5.24292e-07
2.80702e-05
2.61899e-05
7.76242e-05
1.58568e-05
1.3348e-08
3.61082e-06
1.36848e-09
4.64945e-07
5.98673e-05
0.00017359
2.84784e-08
5.82201e-07
3.62835e-06
6.03627e-10
4.5763e-05
4.49882e-07
6.60424e-05
0.000789337
6.99936e-05
1.1793e-08
0.00133917
0.000112722
6.02431e-05
0.000150303
4.2986e-08
0.000149478
2.59731e-06
0.111346
3.25554e-05
9.14542e-05
5.99228e-08
6.74369e-10
1.85702e-08
0.177316
0.070201
4.25301e-05
1.29027e-09
0.0001325
2.69598e-08
0.164225
0.00014456
6.9898e-07
7.04549e-08
3.15543e-06
5.92445e-07
8.34029e-05
2.02549e-06
0.000116295
0.296859
3.82066e-06
6.94832e-05
3.26327e-05
6.71209e-05
4.94565e-05
1.93948e-08
9.95081e-10
2.84605e-06
3.20503e-05
8.83478e-09
1.84047e-07
0.000595434
4.30238e-07
1.22034e-06
0.404275
1.88016e-06
6.41393e-05
4.94928e-10
2.88634e-06
2.03491e-07
0.314877
3.43272e-09
0.113534
0.00532066
0.000126933
1.62903e-05
1.47895e-05
0.000902055
2.48796e-06
4.07057e-06
2.13553e-06
8.51377e-07
5.3005e-08
1.77523e-06
8.10092e-05
2.25108e-06
0.0663416
2.61714e-07
4.20287e-06
0.000291333
2.23709e-09
0.000364536
8.55217e-08
3.70657e-05
0.00077327
6.63275e-08
1.80755e-06
6.45037e-05
5.35162e-07
8.00932e-06
0.173032
7.02004e-07
9.21243e-06
1.54782e-09
0.0437694
8.47845e-06
1.88407e-07
1.94982e-07
4.68715e-06
6.76611e-06
5.95081e-09
0.144681
1.44401e-06
2.01173e-09
0.000119511
3.96884e-07
2.56699e-09
4.32571e-05
0.000930518
0.000853944
9.72004e-09
1.06104e-06
4.5024e-08
4.49639e-05
4.80872e-05
0.0330644
6.10085e-06
0.000873986
6.48224e-05
0.00108341
2.95957e-05
3.28891e-06
9.99132e-07
4.80041e-07
4.31358e-05
1.91218e-06
6.71553e-06
0.0424272
0.000242943
0.045047
5.15669e-10
6.80166e-06
1.16323e-07
6.06704e-05
9.67846e-05
1.02189e-05
4.62247e-05
0.000548052
0.000135915
2.29614e-09
0.00689163
0.00792188
8.16355e-05
4.34402e-05
6.20568e-07
0.000854344
1.66429e-06
2.75235e-06
1.29883e-07
5.38562e-09
0.000238033
9.19419e-06
0.000940398
6.05288e-07
0.0445703
0.000620232
6.93465e-07
1.14301e-07
0.000548888
2.72488e-06
0.0536874
0.266675
0.000124952
0.000223076
1.55197e-06
4.50933e-07
6.47249e-08
7.31706e-09
6.0574e-05
4.57854e-06
0.0328139
0.0531469
2.86635e-05
1.7961e-08
0.000305691
0.0392837
2.64449e-05
0.00110157
0.0024443
0.0414472
0.116572
0.0482135
0.000118706
1.91506e-09
0.00193971
6.35619e-07
1.30339e-07
1.75973e-07
1.03444e-08
2.61649e-05
1.80622e-09
3.13379e-09
8.70376e-05
4.67717e-08
6.15474e-09
9.09823e-07
5.14073e-07
0.0563292
5.49349e-06
2.91336e-05
0.0727128
0.250178
5.21916e-09
0.178997
0.000160161
0.370623
3.35996e-07
1.02758e-07
8.10745e-08
4.08835e-05
0.249662
1.8144e-09
0.00110929
6.28584e-08
3.45569e-06
1.57025e-05
7.43831e-06
1.04779e-06
2.23661e-07
0.074019
1.16606e-08
6.27981e-06
1.04291e-07
6.8114e-07
1.55248e-06
0.000439175
0.000104512
1.09877e-06
0.00037231
1.96488e-05
4.02481e-07
0.00013342
7.17849e-07
2.1111e-05
1.38256e-07
1.24699e-07
0.243083
0.0418073
0.000388288
3.06236e-07
4.93146e-09
3.74172e-06
0.185191
2.82948e-07
1.05048e-05
6.50441e-07
2.57307e-06
1.61935e-09
0.0340406
0.000103683
6.69529e-07
5.4062e-07
1.65268e-05
7.92356e-09
0.171288
2.17646e-09
0.039074
7.36559e-05
4.68762e-06
1.55358e-08
2.89517e-06
1.23642e-06
9.99705e-07
3.35481e-06
4.8377e-06
3.62603e-10
4.30937e-09
8.97733e-05
0.0768021
2.32596e-09
3.1704e-05
4.55829e-06
8.82882e-05
3.17412e-07
0.0460963
2.1954e-06
4.79598e-05
5.17421e-05
6.34691e-08
5.47528e-05
1.90344e-06
1.60924e-05
2.8213e-08
1.63175e-08
9.85328e-06
4.78527e-09
0.000164528
3.73762e-05
2.95281e-08
7.16574e-08
0.000124424
0.000524629
0.290232
1.15513e-07
4.82807e-06
1.78456e-06
0.000351064
0.000161874
2.48708e-05
8.0578e-05
0.0757113
3.22455e-06
5.22084e-05
0.000793734
0.0639907
8.31003e-07
3.76649e-08
0.000394922
3.09168e-06
0.0396894
1.98487e-07
6.77881e-06
3.46992e-06
2.44313e-08
0.220325
1.23062e-08
1.62304e-07
7.36054e-07
2.50457e-05
0.296707
0.0548005
4.41002e-07
2.11244e-08
7.32517e-10
1.10753e-07
1.00636e-07
6.03449e-07
1.09138e-07
4.51657e-09
6.46442e-08
9.75677e-09
1.76841e-07
0.0600758
0.0356361
2.76056e-09
1.3173e-05
6.7334e-09
5.27354e-08
9.44681e-09
0.0349288
0.0793547
5.63485e-06
3.64617e-08
1.43817e-08
7.76531e-07
1.16182e-06
3.83573e-06
1.28145e-07
0.000321127
2.66884e-07
3.04177e-06
2.98111e-06
0.000182836
5.05725e-06
0.000764481
1.64408e-06
3.10128e-08
0.000467632
0.000454841
1.75628e-08
2.24203e-05
3.89709e-06
1.25307e-05
4.00235e-05
9.46361e-06
3.53729e-06
1.12289e-07
0.314629
4.7548e-07
3.7247e-05
0.0601214
0.000108642
1.15107e-05
1.38453e-05
1.464e-06
1.98289e-06
2.17647e-05
6.11527e-05
5.24475e-05
3.28544e-06
4.05645e-05
6.92862e-06
3.44499e-06
1.78041e-06
5.28722e-09
5.77202e-08
3.81402e-08
5.64435e-10
1.72641e-07
3.28058e-08
6.80775e-06
2.07598e-08
4.00113e-09
1.68319e-07
1.65015e-05
1.22307e-08
9.48677e-09
7.92203e-07
1.05418e-06
8.80715e-07
8.39027e-05
5.8442e-06
0.235982
1.24755e-07
1.1001e-05
1.46627e-05
3.72075e-06
3.87493e-09
1.82746e-08
0.213642
5.29759e-07
3.5134e-09
2.3451e-06
0.214339
1.52183e-06
5.48573e-05
5.49086e-05
1.05878e-06
7.32432e-06
1.03645e-05
0.000365742
1.77348e-08
4.03523e-05
4.79826e-06
1.77611e-07
0.000311232
0.000374594
0.187998
6.56231e-06
1.33268e-06
6.88042e-06
3.44262e-05
1.43405e-05
1.83337e-07
0.00248356
1.28164e-08
0.000603985
0.000396525
0.0588208
9.18372e-06
0.245823
3.23137e-08
1.3627e-07
4.48494e-06
2.47381e-05
6.4432e-05
3.14608e-06
0.000106021
3.21028e-08
9.17183e-06
1.30888e-09
1.30435e-08
1.42118e-06
0.000457256
9.1834e-08
4.56434e-09
0.000404325
1.84041e-07
0.000516233
3.33204e-06
1.74688e-06
1.49945e-06
4.29676e-07
1.93047e-05
4.28554e-06
0.000196543
5.70415e-07
7.35955e-06
0.00318494
1.18115e-06
7.83004e-09
0.000149534
2.17675e-06
3.68658e-05
4.2476e-09
0.136768
0.000113094
6.5023e-05
1.64574e-06
6.42949e-09
0.000186256
4.25634e-06
2.16423e-07
1.05025e-09
5.95333e-05
6.63024e-05
7.40227e-05
0.185966
2.59951e-06
5.35086e-06
0.000234701
7.97039e-06
5.95906e-06
2.22835e-06
7.90415e-05
3.20849e-06
0.00011361
0.174165
1.31078e-05
3.22951e-10
1.48423e-06
4.64744e-05
1.44726e-05
2.38314e-07
0.000454795
0.000823757
0.000445055
0.000841161
1.57476e-05
4.9928e-05
6.47059e-06
1.77963e-05
9.44776e-08
1.29713e-08
0.0972221
0.000487989
2.44945e-06
0.00159951
4.79436e-06
2.30349e-05
0.000410645
3.12617e-06
2.18332e-06
3.08313e-06
3.47294e-07
3.98082e-05
2.66728e-05
0.000141947
2.49814e-05
4.86191e-07
6.17799e-09
2.62376e-05
8.10026e-07
1.75356e-08
0.000300929
2.66649e-06
7.77984e-06
3.4764e-05
5.85735e-06
4.8266e-08
0.000558966
0.131714
4.93649e-08
5.7149e-09
1.96891e-08
0.137347
0.234769
4.10329e-07
0.0513435
5.08274e-06
1.81474e-05
7.71543e-06
7.42444e-06
1.05488e-05
1.2285e-05
2.80111e-05
0.110545
0.324045
0.372968
1.07109e-05
2.82435e-05
5.6783e-06
6.96659e-06
0.34368
1.28676e-08
0.167378
4.16135e-06
9.45816e-09
7.33535e-07
5.36293e-07
3.22988e-08
3.52151e-08
2.20485e-07
1.66142e-08
0.130079
5.08853e-08
2.62281e-05
0.000180445
1.95974e-08
4.40176e-06
7.01681e-06
5.66803e-06
6.86767e-08
0.000559679
6.08761e-06
7.51374e-07
6.42525e-05
4.13727e-06
2.69292e-05
4.34607e-06
1.16829e-06
4.34651e-07
1.85126e-05
0.00317882
4.26213e-05
9.77258e-07
1.23731e-05
8.07111e-07
2.21334e-05
9.45862e-05
1.06719e-05
2.11129e-06
5.04318e-06
1.14807e-06
5.52883e-05
1.00135e-07
7.54542e-06
0.0396826
0.00040062
0.313693
0.000725593
0.000100604
1.84741e-08
0.0592494
6.88153e-10
4.42261e-05
1.46539e-05
7.42609e-07
8.19732e-05
1.40468e-06
8.58188e-07
4.01438e-05
7.57956e-07
1.41508e-07
1.70805e-05
6.08709e-07
2.12414e-05
0.073819
3.40819e-07
3.2289e-05
1.25256e-06
7.2745e-07
3.83879e-09
0.000247342
8.28801e-05
3.26886e-06
1.05799e-08
6.52415e-07
0.0427384
0.000198193
9.04038e-06
1.44993e-05
1.70277e-09
1.56872e-10
8.32955e-07
3.09875e-09
4.48303e-05
3.29173e-07
2.0808e-05
1.51757e-06
3.89858e-07
4.91766e-07
3.51778e-08
4.57873e-05
8.64576e-05
4.21072e-05
5.02337e-07
2.87478e-08
9.50801e-07
2.00247e-06
0.000512542
9.44686e-07
0.154438
1.94591e-05
2.94044e-08
3.95318e-08
0.000220259
1.20313e-05
0.00108635
4.39401e-07
8.89933e-05
0.222187
2.0459e-10
0.00031422
2.51035e-05
0.0409414
1.64695e-06
0.0457205
0.0799862
0.000112915
7.11737e-06
1.91254e-05
1.11177e-08
1.51904e-05
2.57268e-05
0.000357828
1.79121e-05
5.83848e-06
2.47547e-05
0.000405213
0.00032743
0.000470664
0.000123184
1.20814e-08
8.25554e-05
0.00084143
6.29557e-06
3.6954e-06
0.000232586
0.000201399
1.31125e-05
1.75834e-05
0.000248091
1.46456e-05
0.000358277
0.000226539
1.84748e-05
1.90359e-08
3.26936e-05
0.0003924
0.0643691
2.0342e-06
4.89732e-07
4.67716e-05
1.73312e-07
8.10098e-05
8.0304e-07
0.000373453
5.65309e-07
6.93539e-05
2.24943e-08
9.33827e-08
1.06655e-05
0.000878518
0.00115083
0.322732
3.8667e-05
1.89013e-06
1.74684e-07
0.000390531
2.14674e-05
0.0316087
0.067787
1.11686e-09
0.000754447
5.59418e-05
5.9602e-06
5.59912e-09
0.00109336
5.51539e-07
0.0411511
4.85234e-08
1.80099e-09
2.79946e-05
8.78666e-07
1.19443e-06
3.82351e-05
0.0380689
1.84812e-05
1.90681e-07
7.13246e-05
0.207954
0.0403944
5.53413e-06
0.000266598
2.67782e-05
0.000534891
2.60034e-06
0.0360171
3.47857e-05
0.000174884
2.09206e-07
8.19846e-07
4.14173e-06
5.00721e-07
2.30308e-05
2.17683e-06
7.86792e-07
2.37997e-06
3.99666e-06
9.05814e-05
2.52084e-08
3.46725e-07
0.0753478
1.00125e-08
6.59001e-08
4.066e-05
6.09964e-08
0.00016713
3.39798e-05
0.0615603
2.1264e-05
0.247304
1.14208e-05
1.9379e-05
0.0384244
0.000149725
2.60913e-10
2.52883e-06
0.0269429
1.45037e-05
7.4213e-05
1.57071e-05
1.39685e-07
6.54536e-06
7.0392e-06
7.83207e-07
0.120519
1.03189e-06
9.42575e-08
1.5913e-06
6.41889e-07
8.08568e-09
8.24704e-05
2.33819e-06
0.259262
7.58143e-05
3.326e-05
4.35661e-05
5.54961e-05
1.4651e-05
2.68397e-06
2.22772e-10
7.01708e-07
6.9246e-05
2.0464e-05
6.21668e-06
6.72403e-08
1.05538e-05
1.20572e-06
3.66658e-05
2.985e-08
1.43632e-07
1.09367e-06
2.68643e-05
2.0508e-05
3.02648e-05
3.05883e-08
2.05499e-08
0.00159573
2.04921e-08
9.17935e-10
2.82957e-09
1.38585e-06
0.292732
8.4385e-07
0.000105465
6.59721e-05
1.93798e-05
1.63466e-07
1.12117e-06
0.00020528
6.85217e-06
3.1902e-07
3.5565e-05
3.82891e-09
1.83938e-09
4.90041e-09
8.93145e-05
1.04351e-07
0.311291
0.000502518
3.29963e-05
0.00175453
6.30336e-07
1.43201e-05
5.51312e-09
0.0570491
7.72562e-06
5.82202e-06
1.49602e-06
3.57518e-07
1.48077e-07
0.45483
1.60386e-05
0.000407513
6.29134e-05
1.16434e-06
0.115744
3.10714e-07
3.08458e-07
5.0911e-07
6.36873e-07
2.95729e-05
4.52838e-07
2.24715e-05
1.65878e-05
0.000469012
3.38933e-06
5.2739e-10
0.000180762
3.74212e-07
0.148693
3.11581e-06
2.19059e-07
1.21318e-06
1.83809e-05
0.0583695
0.0286344
1.74511e-05
4.51044e-05
0.0871463
3.18149e-06
2.46687e-05
0.0442347
1.12413e-05
4.97262e-06
0.163853
0.0179434
1.00529e-05
3.1235e-05
1.29157e-08
3.65156e-05
0.00161234
9.00049e-06
1.06365e-05
0.000359422
2.73482e-09
0.0222598
9.46333e-09
2.70072e-05
0.18453
1.20346e-07
1.11904e-05
3.12975e-06
3.75818e-07
5.25737e-08
4.57365e-05
4.19066e-07
1.02843e-07
2.8303e-05
9.42814e-06
1.28223e-08
0.0224061
0.0424111
4.95548e-06
4.79031e-10
2.03433e-09
0.000137374
1.3093e-05
5.17989e-06
3.88651e-09
8.82032e-08
0.000126063
6.5256e-05
4.47974e-05
7.86065e-05
0.344716
5.17684e-10
0.133531
1.45817e-05
4.74712e-06
0.052529
1.03656e-06
2.25338e-08
0.0219531
9.74579e-10
6.203e-06
5.55939e-06
8.1277e-06
1.05696e-06
8.18949e-09
4.4837e-09
1.51066e-08
1.96579e-05
0.126968
0.202012
2.83713e-05
2.37326e-06
1.55691e-10
0.053651
0.213609
0.000265962
9.39346e-07
1.26126e-07
0.000925551
0.000231507
2.52903e-07
1.31466e-08
1.93791e-06
7.23884e-06
3.11692e-08
1.06228e-05
6.32576e-05
0.0577095
0.194233
4.80315e-05
0.000810281
1.03091e-08
3.36873e-07
2.83639e-05
0.000166939
3.19573e-05
0.000421253
7.31524e-06
1.32392e-05
1.16865e-08
8.3643e-08
1.22179e-05
0.0560588
9.67897e-07
0.16932
1.91327e-08
1.1449e-05
2.16124e-06
1.60748e-05
1.2006e-08
2.22177e-09
1.06609e-07
3.67411e-08
1.13563e-06
0.000305147
7.74246e-09
0.0358944
1.59254e-05
0.151171
1.64213e-06
2.78372e-06
1.58848e-06
1.85494e-06
1.2724e-05
3.6005e-08
1.50308e-08
1.338e-08
2.89821e-06
8.73814e-06
0.0543894
0.0526549
4.63004e-06
8.40852e-07
6.95561e-09
1.73634e-09
2.55949e-08
1.5829e-06
0.000236071
1.93991e-07
3.54551e-08
3.63359e-09
0.0211105
2.64444e-05
4.1401e-05
0.0388522
8.20242e-07
0.294859
9.47704e-06
4.25721e-07
6.7884e-10
2.50913e-07
0.0514427
6.23041e-10
2.05092e-05
1.24357e-08
0.000661718
4.28476e-05
7.8554e-05
0.000137744
2.69748e-05
6.44545e-09
1.2829e-08
0.3406
3.20664e-05
3.33593e-05
0.000219373
4.05534e-07
8.08076e-05
9.22206e-05
2.89803e-06
3.1504e-06
0.000281215
7.98772e-08
0.000659027
0.0376683
1.24333e-06
1.9348e-07
7.95024e-05
8.75171e-07
0.0327982
0.172285
2.06444e-05
1.24347e-09
0.00390985
3.24335e-07
2.06833e-05
1.47658e-06
0.000110699
1.04281e-08
0.000843588
8.17543e-05
0.000125262
1.94214e-05
0.000114661
2.68317e-05
5.23877e-06
1.06741e-09
0.000149982
4.2644e-05
5.44749e-05
6.19688e-07
9.20498e-06
0.000116798
0.000426983
8.33098e-09
3.84438e-08
3.49962e-08
7.88046e-10
1.2443e-07
0.0207551
0.000392452
0.000137034
3.77169e-05
0.000194557
7.94116e-05
3.94905e-10
1.06749e-05
4.29727e-09
5.16279e-07
1.12527e-08
2.45242e-05
0.00193525
1.4726e-05
1.11041e-07
1.34258e-08
1.40498e-06
1.23034e-07
7.44373e-09
0.138915
8.81938e-06
0.000636735
0.000959381
0.000702653
6.74369e-09
0.000638767
0.000702749
0.00126934
0.000693121
1.54034e-09
9.22158e-10
2.98915e-06
8.26196e-06
6.4971e-05
0.000308886
0.0396825
7.67051e-06
3.07726e-05
4.24983e-06
0.000527872
3.03834e-08
1.83849e-09
0.000104728
0.000347832
0.0251121
9.54114e-09
0.111824
0.000120311
3.13502e-07
8.68939e-05
4.59511e-06
8.18001e-05
2.15221e-06
8.95328e-05
4.45706e-09
8.42037e-06
0.0020818
3.41489e-05
5.77483e-08
0.00168623
4.15292e-05
1.00742e-05
0.00308362
7.47504e-08
7.1678e-06
5.38689e-05
8.44931e-05
8.74318e-07
0.183564
5.43625e-08
8.36768e-07
2.49829e-08
0.112043
0.114969
2.00392e-06
1.71511e-06
0.000148727
0.0529911
3.35376e-08
9.68563e-06
1.8846e-05
1.23749e-05
1.23e-06
0.185789
6.76466e-06
1.5593e-05
0.00339564
1.52868e-07
6.62126e-06
1.57251e-06
2.28814e-06
1.52869e-09
0.00233072
0.00382044
1.23896e-07
6.81891e-07
1.23984e-06
9.5794e-05
1.03775e-08
0.0382847
2.67598e-07
9.66437e-06
1.07517e-06
5.14229e-07
4.41934e-06
3.30516e-05
1.23237e-06
4.81807e-06
0.000233414
1.44164e-06
1.26748e-06
0.0413861
7.53445e-07
3.30747e-06
2.4615e-06
1.81461e-05
2.55105e-10
3.091e-09
1.48213e-09
5.40934e-06
5.71602e-08
0.0632204
2.10906e-05
1.08501e-05
3.65232e-09
2.83554e-05
0.111287
7.44568e-05
1.26095e-05
5.54381e-05
1.17765e-05
1.97516e-07
7.8411e-08
2.2941e-05
3.70881e-06
2.56429e-06
0.000516841
8.67382e-06
4.40156e-08
2.38289e-08
1.97e-06
6.04604e-08
6.31502e-06
3.72062e-08
1.08701e-05
1.54632e-05
1.94162e-07
1.92031e-09
0.0439852
5.40126e-09
2.06445e-09
2.31459e-05
0.0543265
1.77243e-05
2.1378e-06
1.99115e-08
8.99688e-06
5.04128e-06
2.05762e-05
5.7907e-06
7.6898e-09
1.60896e-06
1.24792e-06
5.25607e-06
4.49601e-09
6.82372e-09
4.96252e-09
4.45044e-06
1.61089e-05
9.21174e-07
1.53388e-08
7.11213e-06
4.66931e-05
2.15645e-08
2.29886e-05
4.30739e-07
4.21224e-08
1.03398e-08
3.47021e-05
2.57978e-07
1.96715e-05
1.10398e-09
2.41096e-05
6.76242e-09
1.51112e-06
0.000331242
1.31742e-07
5.61348e-09
0.0658985
3.49409e-08
0.0542303
2.53335e-07
3.68838e-08
9.17834e-06
2.24891e-05
0.0438696
5.17699e-05
0.0480353
0.0583848
9.10023e-05
1.02515e-05
0.0388514
1.03958e-05
1.64021e-08
3.76953e-05
0.132237
0.0356293
0.0406042
9.11666e-09
9.35433e-06
1.66881e-08
5.53962e-06
9.50282e-07
7.44215e-06
0.000163412
6.85602e-06
5.04326e-07
1.281e-08
3.72717e-06
0.000280117
2.28513e-08
1.04701e-05
3.44743e-05
1.90612e-06
6.97597e-10
5.8186e-05
2.44253e-05
2.35162e-05
1.62172e-05
1.45167e-05
2.02301e-06
6.75467e-06
0.000142914
8.37081e-06
6.53191e-06
0.000119414
0.0004367
3.26022e-09
6.09401e-07
2.70304e-08
1.75534e-05
8.31447e-08
2.24149e-06
1.45773e-10
0.000375533
0.371627
0.0835747
0.000136313
3.42556e-09
1.13211e-05
0.0516746
0.0974351
2.2377e-06
0.000258175
2.05386e-06
5.31366e-07
1.30354e-07
2.25982e-09
8.60266e-06
3.89833e-05
4.2577e-08
5.01445e-09
1.6057e-05
1.60719e-07
0.167089
0.0519076
1.10822e-05
6.57995e-09
1.22213e-08
0.0404988
4.49214e-09
2.27465e-05
1.33584e-08
0.000584558
1.51024e-08
4.7258e-06
5.10362e-08
6.44192e-09
0.00102888
0.145912
0.0622079
1.37444e-08
0.0664084
4.25412e-08
1.16496e-05
1.5373e-06
0.110937
2.36924e-07
0.000147435
3.98512e-09
1.84407e-06
0.000263619
1.66423e-06
0.000151431
7.92353e-09
9.77169e-06
2.98859e-05
1.90573e-05
4.81225e-06
3.55467e-07
3.15626e-07
3.2151e-06
5.91408e-07
7.74764e-09
2.70315e-09
0.0703789
0.0357662
1.86654e-08
0.0789093
8.21415e-10
1.8554e-08
5.00495e-05
5.61086e-09
3.99515e-09
0.0373092
2.42949e-08
5.36653e-10
0.000600442
4.3027e-09
6.95643e-10
4.68402e-05
0.0875394
1.30926e-07
0.0357387
8.85455e-09
4.28787e-06
0.0470436
6.03298e-06
0.00081787
2.46546e-10
6.7017e-08
1.0048e-06
1.47577e-07
0.198704
0.0426274
0.00010393
2.96524e-08
0.0445588
5.7661e-10
1.57132e-08
3.77143e-09
0.0969999
0.00171598
8.12288e-06
1.30302e-09
1.25986e-06
0.0463456
0.000862884
3.75736e-07
0.000245929
0.102536
0.0805506
3.37936e-05
0.0800918
0.000888594
0.0410927
4.00663e-05
0.0620177
0.000327562
4.62139e-06
1.39183e-06
2.1406e-06
0.000436936
0.00087942
7.19414e-10
3.04347e-06
7.36012e-08
4.13882e-05
6.99922e-06
9.86985e-07
7.82003e-06
0.000280653
1.70126e-07
7.64262e-06
8.10078e-08
2.37382e-08
3.01619e-08
4.3513e-08
4.77051e-06
3.84751e-08
5.08281e-08
6.81049e-08
1.01571e-05
4.11702e-05
3.21714e-10
1.74098e-09
6.1952e-08
1.07247e-07
1.10977e-06
0.00120973
0.00198884
0.000123177
9.65305e-09
3.00833e-05
5.33224e-06
0.044624
3.05931e-05
1.2443e-05
5.32304e-07
1.01644e-06
2.32746e-06
0.000212522
0.000111932
0.169864
0.0646661
7.83166e-08
0.000786032
0.000281482
4.62085e-09
2.45753e-06
4.43422e-06
3.79015e-08
1.64305e-06
3.65233e-06
0.0598418
2.01312e-10
7.92e-05
2.13498e-08
0.0455744
4.93292e-05
0.0341794
3.08273e-05
4.0524e-09
9.88362e-09
2.81967e-08
2.38168e-05
2.27835e-05
4.35721e-06
7.65255e-06
9.28011e-07
0.000721474
0.000271055
7.88767e-10
0.000111146
4.49428e-05
4.83515e-05
9.07416e-05
0.00282144
3.93305e-06
0.09403
5.19342e-08
5.28988e-06
0.0369235
1.07315e-08
0.000248648
0.00691571
3.97227e-08
9.61814e-05
1.86627e-08
1.91803e-07
2.54026e-06
3.47889e-06
5.28052e-08
5.16896e-09
6.32812e-07
3.61642e-09
4.19674e-09
0.000119785
2.2482e-08
6.86517e-10
2.71974e-05
6.84497e-09
9.57894e-08
2.52052e-07
0.000203945
2.05379e-07
0.00015961
1.08109e-07
4.54645e-08
2.15017e-05
6.28121e-05
0.000217132
0.0403637
7.67891e-05
3.95715e-05
2.20809e-06
0.302682
0.294287
1.18426e-07
2.69015e-05
1.41471e-08
0.0428992
0.0366081
0.000383342
0.0844941
0.0659384
6.86544e-06
1.39867e-09
0.000107947
1.78107e-08
2.29166e-09
3.95957e-07
1.51597e-05
6.46767e-09
1.65092e-05