/*--------------------------------*- C++ -*----------------------------------*\
  =========                 |
  \\      /  F ield         | OpenFOAM: The Open Source CFD Toolbox
   \\    /   O peration     | Website:  https://openfoam.org
    \\  /    A nd           | Version:  10
     \\/     M anipulation  |
\*---------------------------------------------------------------------------*/
FoamFile
{
    format      ascii;
    class       volScalarField;
    location    "10.5";
    object      SgRate;
}
// * * * * * * * * * * * * * * * * * * * * * * * * * * * * * * * * * * * * * //

dimensions      [1 -1 -3 -1 0 0 0];

internalField   nonuniform List<scalar> 
111485
(
8.02964e-10
0.00828259
0.0232751
2.3656e-10
0.0485113
2.8532e-08
0.0451414
0.00613707
0.0185182
0.0011723
0.0453685
0.00937751
0.00459609
0.28009
0.00633809
0.0310104
0.199597
2.57302
0.0102168
4.71179e-08
0.0358172
7.08496e-10
0.0260205
0.0350934
0.00848368
2.8313e-08
0.0399949
0.0017676
0.0161325
0.0463485
0.0437623
0.0191379
2.15267e-07
1.37701e-06
0.00802079
8.5762e-05
0.13999
0.198772
0.00234554
0.0233983
0.040693
0.0710675
0.0156874
0.00152623
7.60377e-05
1.52611e-06
0.0305013
0.000718515
0.0476542
4.07936e-07
1.10446e-06
1.64045e-05
4.67606e-07
0.0493932
1.43585e-06
0.0431881
0.00323698
3.60366e-08
6.64839e-05
0.00476865
0.0160085
2.54847e-07
0.00457116
0.094192
6.24609e-06
0.00335183
0.312929
0.0948547
0.00110023
0.00594287
5.95694e-05
0.00633293
1.06488e-05
0.0028112
3.74085e-08
0.000697353
1.49294e-08
0.0412462
2.60002e-08
2.99497e-05
0.266244
0.532287
3.9492e-08
4.89e-09
0.00894232
0.00407377
0.13554
0.0245518
0.000289833
0.00724009
0.000349678
0.0404567
0.0113942
5.86115e-05
0.0532168
6.21702e-09
0.0260437
0.00173283
0.00146021
0.00175083
1.33647e-09
0.0185782
1.83334e-06
0.0188285
0.00467028
1.55654e-05
7.21578e-09
0.00759857
0.00391683
0.000677319
0.00567143
0.00473477
0.00359677
0.00313538
1.03084e-07
3.30287e-05
2.75884e-08
6.13767e-06
0.0123311
3.45696e-09
8.72179e-08
0.000181623
0.070366
2.10041e-06
0.0016652
0.0271849
0.000102132
0.00165402
2.88763e-10
0.00034344
0.00145715
0.0316247
0.0454308
0.000167381
7.49901e-05
0.048687
1.7858e-09
0.0423794
0.0247312
0.00261707
0.000296056
0.00199592
0.193019
0.00290057
0.00386256
0.0128723
6.29898e-09
9.63815e-10
4.62547e-08
0.0276331
0.00169433
0.0274771
0.109302
0.00494125
3.56588e-05
0.0105115
0.0164034
0.0104743
0.000771537
5.23241e-06
9.21219e-10
0.0522622
0.0234511
7.19524e-05
6.17803e-05
0.00558211
0.00355868
0.025313
0.00146434
0.000171649
1.12748e-09
1.13541e-08
0.189688
4.15413e-10
0.00573657
0.00214599
5.2511e-07
9.13711e-06
3.23057e-08
5.53756e-06
9.33922e-06
3.52684e-08
0.00145235
0.00678312
0.0292447
0.00422358
0.00735303
0.00386634
0.00044086
1.5086e-07
0.0046008
5.4951e-06
6.85725e-06
0.00628897
0.0105872
0.0271157
0.0109881
0.00486285
8.28191e-07
0.00652394
0.000560892
0.00159361
0.0135234
0.00230555
1.72407e-06
0.00364546
0.0258084
1.12175e-05
0.000197746
0.00758975
0.00215902
0.000361245
8.0985e-06
8.03071e-09
0.00792332
0.000296084
0.119508
8.92499e-09
0.00643437
0.0199746
0.119928
8.23379e-08
0.0030841
0.0134448
0.000265073
7.8139e-09
6.43316e-10
0.155867
0.0039094
2.23711e-05
8.85001e-05
0.00920207
0.00790404
0.152919
3.68465e-05
1.93532e-05
0.152675
4.90013e-08
0.00251449
0.00920275
0.0161757
0.0112809
0.00942717
3.71815e-06
0.00178721
0.000608013
7.32382e-06
1.41939e-08
0.0309954
0.14992
1.73654e-05
0.00620694
0.0104647
6.59746e-10
0.000183307
0.000119611
2.62865e-07
6.36177e-05
0.0952568
1.87913e-08
0.0150955
0.0110398
0.00371391
3.81401e-09
0.0117137
5.54744e-11
6.13117e-08
4.841e-07
0.15847
0.0225799
0.00596302
0.00520462
0.204797
0.0118717
0.00161876
0.000819346
0.0331732
0.00901506
4.65871e-07
5.60452e-09
0.107683
0.0225574
0.0241155
0.0122247
1.71484e-09
0.212897
0.253774
0.00292613
0.00029755
3.2982e-05
0.0134398
0.00213569
0.0018758
2.9752e-08
0.000714952
4.15363e-09
0.000344113
0.000256911
0.24827
0.0688225
0.34039
1.75746e-08
0.0803909
0.00885939
0.00178779
4.0231e-09
1.09253e-07
0.0237065
0.000312631
0.058387
0.00382678
0.0143352
0.0192786
2.88605e-05
2.82905e-08
3.01982e-08
0.00373509
0.00414493
0.238157
0.187141
0.000724902
5.22881e-10
9.07523e-09
1.37781e-08
8.09995e-05
0.0593701
0.0120465
2.0222e-06
0.00514461
6.82006e-05
0.0585274
0.0663421
0.00578384
0.0113717
0.00906059
0.0450634
4.76742e-05
7.04546e-07
0.00925099
0.0189586
0.00462422
5.54725e-08
0.142675
0.000333035
0.00210886
0.00791013
0.000324841
0.02864
0.0365618
0.0377106
0.00345273
0.00769781
0.0246056
0.0136174
8.49902e-06
1.72176e-07
5.27696e-07
6.72763e-07
0.031778
0.352446
0.0342931
0.0675726
0.0495006
0.0190309
1.85158e-08
4.00773e-07
0.0162828
0.0452563
0.0694111
0.0441814
0.0464083
0.0230389
2.17385e-08
0.0138355
0.000322173
9.90525e-10
0.00103825
0.0161699
1.50409e-05
0.00858726
0.0098183
0.00793211
0.00129263
0.00279408
0.00582935
4.07289e-05
1.29502e-06
0.00244815
3.69185e-07
0.00595828
0.114639
0.0283692
1.09011e-07
0.0272767
0.146574
0.00804945
0.311017
6.44677e-08
0.0449874
0.018949
5.63661e-09
0.000796643
0.00257511
3.84323e-09
0.0308434
0.0112079
0.00515716
4.30627e-07
2.24447e-08
0.000717333
5.09936e-09
0.011922
3.30738e-06
2.42671e-10
0.0169901
3.8128e-05
0.246275
0.0287014
1.93298e-09
7.60562e-05
0.00147086
9.35209e-05
0.000186979
0.0140939
0.121494
0.861973
5.10476e-05
0.196283
0.000639211
4.2164e-08
0.0379364
0.0317096
1.90847e-07
0.00134813
0.000293583
7.97247e-05
0.0242624
0.0249081
0.0141217
3.51528e-08
0.332728
0.0175006
0.0229845
0.00420885
8.6754e-05
0.00121557
3.59569e-08
0.240552
0.345692
2.50997e-08
0.00871969
0.000341423
9.84221e-05
3.31001e-09
2.85428e-05
4.89811e-09
0.274046
0.00980028
0.00649218
0.00231928
0.00289846
1.57889e-07
0.00211477
4.90608e-07
0.0392155
1.53567e-07
5.81444e-07
0.0504396
0.0358049
3.68377e-08
1.1131e-09
0.000365472
8.13267e-08
1.46231e-06
0.00102891
2.39737e-08
5.88022e-05
6.33385e-08
0.0713875
6.43829e-08
1.60114e-06
1.59642e-08
0.0075182
3.97459e-07
0.21328
0.00188557
0.225336
7.97853e-09
0.000881229
2.3899e-06
3.05721e-09
0.352674
0.137339
0.027612
0.0241038
2.94524e-05
0.00201606
0.0792168
0.00850004
0.00109086
0.277252
2.16652e-08
0.023482
0.000103284
0.00481352
0.0552067
0.0740463
0.000109944
0.0211483
0.000237175
0.000731962
0.0766074
0.00203574
2.20556e-08
0.0797443
0.0475977
3.37752e-06
1.07204e-06
1.86309e-05
2.47602e-09
0.00164539
0.0550983
3.14997e-07
1.87584e-07
0.00272717
2.1515e-09
0.032837
3.00201e-08
0.000344305
3.70822e-10
0.110735
0.109223
0.00107916
0.012648
0.0610042
0.077927
4.77498e-08
2.30252e-07
0.0152374
4.7926e-08
0.000182515
1.68811e-05
0.00159246
0.0410542
0.0644145
2.63104e-09
4.45809e-05
0.0162033
0.00343001
0.00166624
0.00395986
0.00658023
0.0209747
9.14565e-07
0.0240945
0.00631905
1.50795e-09
0.120429
0.0385669
0.014619
1.24438e-06
0.00531439
0.00649994
0.00208356
0.00395472
0.000366044
0.013715
0.00121168
0.000154664
0.0243147
0.122715
0.000888638
7.0703e-05
0.00344201
0.71395
3.12364e-08
0.000441623
4.27505e-06
3.88116e-05
0.00731818
0.00345177
0.00265502
0.000428898
0.000158713
0.0167638
0.010961
6.3239e-08
0.000189067
0.00159979
3.00531e-08
1.58673e-09
4.08428e-08
3.60215e-08
0.0137374
4.4018e-09
0.0334535
0.00898187
0.00205452
0.0946436
0.312829
5.77273e-05
0.00854616
0.0357784
5.1999e-08
0.0538898
1.61242e-07
1.50835e-08
4.55765e-05
0.00441646
0.114274
0.029846
0.0062733
2.58771e-06
0.0839051
0.138669
0.0279057
0.0272312
0.000623885
0.187896
0.0388507
0.0544534
0.0449345
5.64861e-06
0.000311017
0.0404629
0.0075561
0.00150699
0.0273419
0.0258004
1.0761e-06
0.0106176
0.000632678
3.12508e-05
0.0340303
0.000263446
0.000628426
0.0110211
0.0398764
0.00139268
0.0207779
0.0188799
0.00726738
3.13347e-06
0.0100866
0.000352889
0.000185602
0.0164391
0.0170839
0.0356008
4.80398e-07
0.00194761
4.30724e-06
3.97854e-09
0.072722
2.64918e-08
0.130852
5.6173e-05
0.0112968
8.04119e-08
0.0275726
7.58784e-05
0.0422272
5.0206e-10
0.0329175
2.87701e-07
1.70103e-08
8.19037e-07
0.306771
0.00054998
2.82829e-05
0.0396454
9.70741e-08
2.18389e-09
0.215582
0.0694599
7.9809e-05
0.00192306
0.000123407
5.89021e-08
0.036676
0.00808288
0.171075
2.33914e-09
6.43148e-09
0.000402074
0.00105817
0.00012679
3.59145e-07
0.0590135
0.0071376
2.95111e-08
1.65462e-07
0.0426349
0.0411065
0.00210606
7.44393e-10
3.97314
0.292868
0.182451
1.94833e-08
1.81718e-08
0.0562462
0.000417968
3.77992e-05
0.000561374
0.126418
0.00280786
0.011575
0.0594721
0.0541182
0.00181238
5.88179e-08
1.16946e-06
1.23124e-08
7.45043e-09
7.01191e-08
8.29689e-10
0.0214727
6.36457e-08
1.21071e-08
3.45295e-07
0.0115032
0.0240019
1.00041e-07
5.67586e-07
0.105595
0.0139648
0.00961877
2.5356e-08
6.03321e-09
0.0362438
5.08886e-10
0.00187616
0.0025826
0.00386435
8.31925e-08
4.26403e-10
1.20345e-09
1.41987e-09
0.0150793
2.0798e-08
6.35348e-08
0.00098844
7.21228e-09
0.0225617
0.00185458
2.24326e-06
0.0367817
0.40668
0.0024706
0.268246
0.000259408
0.0447859
0.199279
7.855e-05
0.0230506
0.070062
0.00609351
1.92282e-05
0.0849863
0.7116
0.00992373
3.93093e-08
0.00270651
0.00272134
0.00132613
8.75597e-05
1.50843e-09
2.2728e-10
0.0132696
3.69512e-05
0.00263282
3.73248e-06
0.00141932
0.0013699
0.035801
0.000590607
1.79495e-08
0.031387
7.73373e-06
0.0203462
2.28664e-08
4.76243e-05
0.000185672
1.66708e-06
3.14841e-07
0.039193
7.03035e-10
0.00962411
0.0598349
1.33657e-08
0.0689873
4.11187e-05
0.0347793
0.000576786
8.65673e-08
2.61581e-05
0.00161233
0.044153
0.00387956
0.00125803
0.15337
0.000195377
0.00414461
9.23088e-07
1.03836e-05
0.471063
0.154075
3.91411e-08
0.228601
0.000821388
0.000155145
0.00956592
0.000223424
0.00112779
0.0237498
0.00918185
0.00223493
0.00505063
0.00197305
0.0428146
6.64633e-08
0.0318364
0.0257269
9.0768e-08
0.00821035
0.260585
0.0281875
2.84664e-07
0.00194069
1.5631e-08
0.010154
0.215034
2.0554e-08
0.170346
0.325027
0.00125296
0.00478079
1.01992e-06
0.0481286
7.27492e-05
0.00175787
0.00114974
0.000302284
4.032e-06
0.0425615
0.00741014
8.49986e-10
0.000399699
0.00054294
0.000848098
0.00044791
0.000827693
0.000165515
1.26516e-09
6.54969e-05
0.0223564
3.85044e-07
0.00172061
0.333299
1.69501e-07
2.98247e-08
0.00309864
0.00316737
7.47495e-10
0.00058486
8.66836e-08
1.49403e-08
1.38013e-08
4.46092e-07
4.68149e-06
1.62362e-07
0.00036891
0.0486595
2.51759e-09
5.04435e-07
0.0043048
0.110166
0.00181593
0.00906249
0.0305662
3.61144e-09
0.000298584
4.41769e-09
2.20112e-09
0.000549826
0.141986
0.0419111
5.215e-09
6.82345e-08
0.0335212
1.5822e-08
0.0217172
4.03512e-08
0.00724156
4.17815e-09
0.00188696
0.026482
3.23386e-09
7.15621e-07
5.53514e-07
0.00136637
5.98863e-07
2.41744e-08
1.95873e-06
0.00425873
0.0507789
0.00455072
0.000567692
0.00103144
4.72829e-08
0.00132618
0.00218248
0.044305
2.65562e-06
0.000217653
0.00565418
1.29672e-07
8.75341e-06
0.000141954
8.9308e-08
0.0079756
0.00173226
0.0034256
0.0693634
1.0321e-09
0.0237997
0.0571733
0.000116264
7.32935e-05
7.3729e-09
0.0259745
1.99339e-08
1.05498e-06
2.66515e-05
0.0510462
5.24292e-07
0.00249082
2.61899e-05
0.000970563
1.58568e-05
1.3348e-08
3.61082e-06
1.36848e-09
0.00256796
0.000684883
0.322986
2.84784e-08
5.82201e-07
0.00224079
6.03628e-10
4.5763e-05
4.49882e-07
0.0376139
0.000797788
0.030793
1.1793e-08
0.00134894
0.000157428
6.02431e-05
0.000263101
4.2986e-08
0.00147595
0.0254647
0.131222
0.00129496
0.000335171
5.99228e-08
6.7437e-10
1.85702e-08
0.177336
0.070201
0.00706105
1.29027e-09
0.175413
2.69598e-08
0.206051
0.00322278
6.9898e-07
7.04549e-08
3.15543e-06
5.92445e-07
0.0391171
2.02549e-06
0.000116295
0.308911
0.00645049
6.94832e-05
3.26327e-05
6.71209e-05
4.94565e-05
1.93948e-08
9.95081e-10
0.0244092
0.000458177
8.83479e-09
1.84047e-07
0.000595898
4.30238e-07
0.00147508
0.404384
1.88016e-06
0.00333851
4.94931e-10
0.000364807
2.03491e-07
0.315899
3.43272e-09
0.113534
0.00532274
0.000800157
0.017338
0.0326485
0.000903203
2.48796e-06
0.000507145
2.13553e-06
0.00454309
5.3005e-08
1.77523e-06
8.10092e-05
2.25108e-06
0.0663416
2.61714e-07
0.00686321
0.00789744
2.23709e-09
0.000364536
8.55217e-08
0.000767228
0.000786945
6.63275e-08
0.018192
0.000249963
5.35162e-07
0.0231603
0.181071
0.00355276
0.0119326
1.54782e-09
0.0437694
8.47845e-06
1.88407e-07
0.0367911
4.68715e-06
0.11084
5.95081e-09
0.144964
0.000729393
2.01173e-09
0.001007
3.96884e-07
2.56699e-09
0.00290156
0.000930542
0.00904308
9.72004e-09
1.06104e-06
4.5024e-08
0.000828561
4.80872e-05
0.0330644
6.10085e-06
0.000874312
6.48224e-05
0.00109129
2.95957e-05
3.28891e-06
9.99132e-07
0.018277
0.00964758
0.0180562
0.0353962
0.0424272
0.000256496
0.045047
5.15675e-10
0.00990087
1.16323e-07
6.30361e-05
0.000418424
0.00659144
0.000388623
0.000548053
0.00215086
2.29614e-09
0.00689163
0.00792188
0.000200358
0.00088963
0.0148139
0.000854404
1.66429e-06
0.0305267
1.29883e-07
5.38562e-09
0.000253798
0.0736351
0.00094046
6.05288e-07
0.0445703
0.000620596
6.93465e-07
1.14301e-07
0.000565159
2.72488e-06
0.0536874
0.306133
0.000331773
0.00038502
0.0224236
0.00722932
6.47249e-08
7.31706e-09
7.61813e-05
0.00415364
0.0328139
0.0531469
0.010115
1.7961e-08
0.000305691
0.0392837
2.64449e-05
0.00110157
2.57297
0.0414472
0.116774
0.0482135
0.0199959
1.91506e-09
0.00193971
6.35619e-07
1.30339e-07
1.75973e-07
1.03444e-08
0.00306531
1.80622e-09
3.1338e-09
8.70376e-05
4.67717e-08
6.15474e-09
9.09823e-07
0.00970751
0.0563292
0.0108489
0.002969
0.0727128
0.251653
5.21917e-09
0.179475
0.000162075
0.374535
0.0134777
1.02758e-07
9.24879e-05
0.00796887
0.24967
1.8144e-09
0.00111168
0.0188676
0.00465367
1.57025e-05
0.0260284
1.04779e-06
2.23661e-07
0.074019
1.16606e-08
0.00810335
1.04291e-07
6.8114e-07
0.00828816
0.000439414
0.00273481
1.09877e-06
0.00037231
0.000640342
4.02481e-07
0.000212188
7.17849e-07
0.0228825
1.38256e-07
1.24699e-07
0.243134
0.0418073
0.000517533
3.06236e-07
4.93146e-09
0.0049133
0.185621
0.00477287
0.0157437
0.217889
0.0200674
1.61936e-09
0.0340406
0.00289586
0.00675281
0.0365244
0.0112869
7.92357e-09
0.183554
2.17647e-09
0.039074
0.00881786
0.0107169
1.55358e-08
0.0130528
1.23642e-06
0.00276173
0.00889207
4.8377e-06
3.62603e-10
4.30937e-09
0.00279115
0.0768021
2.32597e-09
0.00404305
0.0211527
9.21329e-05
0.00748013
0.0460963
2.1954e-06
0.000129255
0.000816786
6.34691e-08
0.0098787
1.90344e-06
0.00246465
2.8213e-08
1.63175e-08
0.0118373
4.78527e-09
0.000203377
0.00347117
2.95281e-08
7.16574e-08
0.00428323
0.000524629
0.343353
1.15513e-07
0.259562
1.78456e-06
0.000351064
0.000161874
0.00716753
8.0578e-05
0.0757113
0.0054075
5.22084e-05
0.00102786
0.0639907
8.31003e-07
3.76649e-08
0.000395032
0.000772462
0.0396894
1.98487e-07
0.0355151
0.000934345
2.44314e-08
0.220748
1.23062e-08
1.62304e-07
2.29955e-06
0.00306694
0.297944
0.0548005
4.41002e-07
2.11244e-08
7.32517e-10
1.10753e-07
1.00636e-07
6.03449e-07
1.09138e-07
4.51657e-09
6.46442e-08
9.75677e-09
1.76841e-07
0.0600758
0.0356361
2.76056e-09
1.3173e-05
6.7334e-09
5.27354e-08
9.44682e-09
0.0349288
0.0793547
0.0177174
3.64617e-08
1.43817e-08
7.76532e-07
0.00643131
3.83573e-06
1.28145e-07
0.264546
2.66884e-07
3.04177e-06
0.0225817
0.000182836
5.05725e-06
0.00754557
0.0239793
3.10128e-08
0.00283085
0.00409007
1.75628e-08
0.0127613
0.0387347
0.0172562
0.00321746
0.010435
3.53729e-06
1.12289e-07
0.317589
0.0108542
0.00305725
0.0601214
0.00649423
0.00169665
0.0205264
0.0103262
0.000669678
0.0148902
0.00108115
0.00973037
3.28544e-06
0.0252529
0.00819164
0.00171589
0.00130292
5.28722e-09
5.77202e-08
3.81402e-08
5.6444e-10
1.72641e-07
0.00948035
0.0131796
2.07598e-08
4.00113e-09
1.68319e-07
1.65015e-05
1.22307e-08
9.48677e-09
7.92203e-07
1.05418e-06
0.00457701
0.000245127
0.0210175
0.236049
1.24755e-07
1.1001e-05
0.0311028
9.3808e-06
3.87493e-09
1.82746e-08
0.220585
5.29759e-07
3.5134e-09
5.55119e-06
0.22187
0.0133715
0.0319746
0.0323587
1.05878e-06
0.0140305
0.000330057
0.000365742
1.77348e-08
0.0113114
4.79826e-06
1.77611e-07
0.0185265
1.02197
0.188158
6.56231e-06
1.33268e-06
0.0158179
0.020727
0.0174667
0.00538618
0.00595157
1.28164e-08
0.000604884
0.000396527
0.0588208
9.18372e-06
0.262351
3.23137e-08
0.0019629
0.0251261
0.0168368
0.0111808
3.14608e-06
0.00568216
3.21028e-08
9.17183e-06
1.30889e-09
1.30435e-08
0.00249451
0.835834
9.1834e-08
4.56435e-09
0.000408338
0.0232154
0.00148905
0.006634
0.032202
0.00461125
0.0193229
1.93047e-05
4.28554e-06
0.000196543
0.0297332
0.00542623
0.00318496
1.18115e-06
7.83004e-09
0.000149534
0.0211437
0.00255103
4.2476e-09
0.141405
0.0539434
0.00657069
0.00589198
6.42949e-09
0.000186256
0.006594
0.0224377
1.05025e-09
0.000377473
0.0139845
0.000984937
0.195174
0.00446508
0.00761996
0.000234701
0.00331631
0.0200557
0.0356013
7.9042e-05
0.0221405
0.00011361
0.190217
0.000150461
3.22951e-10
0.00244918
0.00703271
0.000382759
0.0110739
0.000455487
0.000962613
0.000461313
0.0359555
0.00343327
4.9928e-05
0.0376353
0.00118591
9.44776e-08
1.29713e-08
0.0972221
0.000497689
0.000999765
1.05968
0.0336385
0.0103884
0.000410855
0.041588
2.18332e-06
3.08313e-06
0.00392645
3.98082e-05
0.00199282
0.00449282
0.00202661
0.0045185
6.17799e-09
0.00022284
0.104037
1.75356e-08
0.0225188
0.00708743
7.77984e-06
0.00367819
0.000176672
4.8266e-08
0.000558973
0.131801
4.93649e-08
5.71491e-09
1.96891e-08
0.141465
0.239025
0.013568
0.0513435
0.00470892
0.0309612
7.71543e-06
0.00750444
0.0116197
0.0234477
0.00142759
0.110545
0.324562
0.381777
0.00977268
0.00840154
0.0362074
0.154503
0.346752
1.28676e-08
0.167385
0.0490366
9.45817e-09
0.000392734
5.36293e-07
3.22988e-08
3.52151e-08
2.20485e-07
1.66142e-08
0.133156
5.08853e-08
0.00655664
0.00137717
1.95974e-08
0.00389509
7.01681e-06
0.0135725
6.86767e-08
0.000578311
6.08761e-06
0.0205598
0.000201154
5.93896e-06
0.00387866
0.0275469
0.0161194
0.00374643
0.0252827
0.00317882
0.0213164
0.0519542
0.00898759
8.07111e-07
0.00111306
0.000357687
0.00519783
0.0104668
0.000607503
1.14807e-06
5.52883e-05
1.00135e-07
0.00352782
0.0396826
0.000579611
0.313903
0.00196457
0.000338244
1.84741e-08
0.0592494
6.88158e-10
0.00801844
0.0198875
0.00122408
8.99039e-05
0.00180184
0.00643415
0.00179438
0.000848921
0.00667376
0.00565659
0.00246657
2.12414e-05
0.073819
3.40819e-07
0.0128562
0.0103934
7.2745e-07
3.8388e-09
0.000247342
0.00785131
0.0179377
1.05799e-08
0.00204706
0.0427384
0.000198795
0.00467245
0.0826139
1.70277e-09
1.56873e-10
0.00364087
3.09875e-09
0.000108038
0.0114039
2.0808e-05
0.0101537
0.0312967
0.0176895
3.51778e-08
0.00130074
8.64576e-05
0.000124467
0.0460859
2.87478e-08
9.50801e-07
0.0103837
0.000512542
9.44686e-07
0.154477
0.000981424
2.94044e-08
3.95318e-08
0.000220259
7.61433e-05
0.00228026
0.00317142
0.0231561
0.230432
2.04593e-10
0.000314857
0.000651794
0.0409414
1.64695e-06
0.0457205
0.0799862
0.000112915
7.11737e-06
1.91254e-05
1.11177e-08
1.51904e-05
2.57268e-05
0.000357832
1.79121e-05
0.000338113
2.47547e-05
0.00059765
0.00032743
0.000525057
0.000123184
1.20814e-08
0.0256994
0.00954778
6.29557e-06
0.0834384
0.000232591
0.000201399
1.31125e-05
0.00109264
0.000248091
0.00249781
0.000363316
0.00110164
1.84748e-05
1.90359e-08
0.00108636
0.000392428
0.0643691
2.0342e-06
0.0368515
4.67716e-05
0.0353184
8.10098e-05
8.0304e-07
0.000375021
0.0263834
0.00779273
2.24943e-08
0.000291915
1.06655e-05
0.0034175
0.00116738
0.324449
4.22936e-05
1.89013e-06
0.0192218
0.00145722
0.00476971
0.0316087
0.067787
1.11686e-09
0.0152289
0.00372727
0.0484728
5.59912e-09
0.00109375
5.51539e-07
0.0411511
4.85234e-08
1.801e-09
0.00298055
0.00188851
0.00272462
0.294069
0.0380689
0.0260718
0.033778
0.0164254
0.209429
0.0403944
0.00515445
0.00432012
0.00457481
0.000535284
0.00959672
0.0360171
0.0015528
0.00129571
0.0309177
1.7748e-06
0.00302838
5.00721e-07
0.0167061
2.17683e-06
7.86792e-07
0.00155683
3.99666e-06
0.00612309
2.52084e-08
3.46725e-07
0.0753478
1.00125e-08
6.59001e-08
0.000769952
6.09964e-08
0.000720575
3.39798e-05
0.0615603
0.017266
0.252436
0.0072766
0.00731667
0.0384244
0.541751
2.60918e-10
0.0652257
0.0269429
0.0169646
0.0215593
0.00214707
0.0529437
6.54536e-06
7.0392e-06
7.83207e-07
0.122572
1.03189e-06
9.42575e-08
0.0167352
6.41889e-07
8.08568e-09
0.00494723
2.33819e-06
0.271067
7.58835e-05
3.326e-05
4.35661e-05
5.54961e-05
0.00144916
0.00620269
2.22776e-10
0.0217998
0.00037965
2.0464e-05
0.0940869
6.72403e-08
0.0149329
0.0170334
0.00334453
2.98501e-08
0.0169381
0.00923933
0.000805974
0.00483514
0.0113223
3.05883e-08
2.055e-08
0.00159737
2.04921e-08
9.17936e-10
2.82957e-09
0.0186342
0.338651
0.00420368
0.00203554
6.59721e-05
0.0457615
0.0430665
0.00397703
0.00246476
0.00853614
0.0196599
0.0024793
3.82891e-09
1.83938e-09
4.90041e-09
0.0064653
1.04351e-07
0.335501
0.000502518
0.000746319
0.001755
0.00248763
0.0206626
5.51313e-09
0.0570491
0.00232941
0.000353082
1.49602e-06
3.57518e-07
1.48077e-07
0.454865
0.000283738
0.000537956
0.000800768
0.0093415
0.199008
3.10714e-07
3.08458e-07
5.0911e-07
0.00364348
0.01746
0.0190251
0.0323126
0.001789
0.00314418
3.38933e-06
5.27392e-10
0.000180762
3.74212e-07
0.157616
0.0206296
2.19059e-07
1.21318e-06
1.83809e-05
0.0583695
0.0286344
1.74511e-05
0.0125927
0.0871463
0.00100954
0.373472
0.0442347
2.5397e-05
0.021296
0.164487
0.0179434
1.00529e-05
0.0046181
1.29157e-08
0.0133233
0.00161334
0.0228746
1.06365e-05
0.000359422
2.73482e-09
0.0222598
9.46334e-09
2.70072e-05
0.369754
1.20346e-07
0.00544916
0.00114714
3.75818e-07
5.25737e-08
0.001928
4.19066e-07
1.02843e-07
0.01295
0.000113008
1.28223e-08
0.0224061
0.0424111
0.0158077
4.79034e-10
2.03435e-09
0.000516856
0.00244208
0.00288645
3.88651e-09
8.82032e-08
0.000126063
0.00355522
0.00175647
0.0119173
0.348106
5.17689e-10
0.134245
0.0116176
0.00606576
0.052529
1.03656e-06
2.25338e-08
0.0219531
9.74583e-10
0.0290226
0.00545104
0.00536615
1.05696e-06
8.1895e-09
4.48371e-09
1.51066e-08
1.96579e-05
0.126969
0.202227
0.00217835
2.37326e-06
1.557e-10
0.053651
0.213609
0.032314
0.107245
1.26126e-07
0.000925552
0.000231507
2.52903e-07
1.31466e-08
0.00355214
0.00636378
3.11692e-08
1.06228e-05
0.00271771
0.0577095
0.194889
0.00108668
2.02814
1.03091e-08
3.36873e-07
0.0113233
0.0006479
3.19573e-05
0.640259
0.000551584
0.00632324
1.16865e-08
8.3643e-08
1.22179e-05
0.0560588
0.00762401
0.169414
1.91327e-08
0.0231908
0.0177088
0.838816
1.2006e-08
2.22177e-09
1.06609e-07
3.67411e-08
0.00623286
0.000305205
7.74247e-09
0.0358944
0.0175313
0.151946
0.00481465
2.78372e-06
1.58848e-06
0.0271719
1.2724e-05
3.6005e-08
1.50308e-08
1.338e-08
0.0211537
8.73814e-06
0.0543894
0.0526549
0.0245239
0.0119273
6.95561e-09
1.73635e-09
2.55949e-08
0.0145579
0.000236234
1.93991e-07
3.54551e-08
3.63361e-09
0.0211105
0.00227801
0.0102416
0.0388522
0.00196926
0.295852
0.00444549
4.25721e-07
6.78843e-10
2.50913e-07
0.0514427
6.23041e-10
0.0192492
1.24358e-08
0.0150389
4.28476e-05
0.0014885
0.000137744
0.00221584
6.44546e-09
1.2829e-08
0.350242
0.16903
3.33593e-05
0.00348334
4.05534e-07
0.000426184
9.22206e-05
2.89803e-06
3.1504e-06
0.000281398
7.98772e-08
0.000981431
0.0376683
0.0338536
1.9348e-07
7.95024e-05
8.75171e-07
0.0327982
0.172293
0.000146112
1.24347e-09
0.00879805
3.24335e-07
0.00288039
0.0180025
0.00128053
1.04281e-08
0.00084782
0.000488041
0.000127201
0.00442189
0.000115002
0.00154268
5.23877e-06
1.06741e-09
0.000150391
0.0052445
0.000277857
6.19688e-07
9.20498e-06
0.000116798
0.523219
8.33099e-09
3.84438e-08
3.49962e-08
7.88047e-10
1.2443e-07
0.0207974
0.000558563
0.00108926
9.76341e-05
0.000194557
0.00131439
3.94906e-10
0.00554179
4.29728e-09
5.16279e-07
1.12527e-08
2.45242e-05
0.00195038
1.4726e-05
1.11041e-07
1.34258e-08
0.0140926
1.23034e-07
7.44373e-09
0.148648
8.81938e-06
0.0629433
0.109785
0.504942
6.74369e-09
0.193772
1.13921
1.23337
0.631845
1.54034e-09
9.22158e-10
0.00467059
0.00450607
6.4971e-05
0.00776233
0.0396825
0.0305691
3.07726e-05
4.24983e-06
0.00115711
3.03834e-08
1.8385e-09
0.000114238
0.000383278
0.0251121
9.54114e-09
0.111826
0.000120311
3.13502e-07
0.000106386
0.00763687
0.00144247
2.15221e-06
0.00716183
4.45707e-09
0.00325806
0.00208218
0.00665962
5.77483e-08
0.00168624
0.00520616
1.00742e-05
0.00308362
7.47504e-08
0.0308064
5.38689e-05
0.00936024
8.74318e-07
0.183564
5.43625e-08
8.36768e-07
2.49829e-08
0.112043
0.114969
2.00392e-06
0.011429
0.0082033
0.0529911
3.35376e-08
0.0308588
0.0167926
0.173693
1.23e-06
0.185852
0.023683
0.0438734
0.00339569
1.52868e-07
0.0543092
1.57251e-06
0.213748
1.52869e-09
0.00233075
0.00382047
1.23896e-07
5.53174e-05
1.23984e-06
0.018717
1.03775e-08
0.0382847
2.67598e-07
9.66437e-06
1.07517e-06
5.14229e-07
0.000254852
0.00176777
0.127998
4.81807e-06
0.000233414
0.0387325
1.26748e-06
0.0413861
7.53445e-07
3.30747e-06
2.4615e-06
0.00529178
2.55105e-10
3.091e-09
1.48213e-09
0.00292999
5.71602e-08
0.0632204
2.10906e-05
0.00291052
3.65232e-09
0.0054145
0.324375
0.00481068
0.00503566
0.0238697
1.17765e-05
1.97516e-07
7.8411e-08
0.00286431
0.00167463
2.56429e-06
0.000516841
0.000533088
4.40156e-08
2.38289e-08
0.311121
6.04604e-08
0.0204557
3.72063e-08
0.00214864
0.00319917
1.94162e-07
1.92031e-09
0.0439852
5.40126e-09
2.06445e-09
0.0176918
0.0543265
0.00413784
2.1378e-06
1.99115e-08
0.00617869
5.04128e-06
0.0121354
5.7907e-06
7.6898e-09
0.00213075
6.7638e-05
0.129281
4.49603e-09
6.82373e-09
4.96252e-09
0.00313996
0.165947
9.21174e-07
1.53388e-08
7.11213e-06
0.00133102
2.15645e-08
0.0185535
0.0279336
4.21224e-08
1.03398e-08
0.00632307
2.57978e-07
1.96715e-05
1.10398e-09
2.41096e-05
6.76242e-09
0.0623133
0.000331242
1.31742e-07
5.61348e-09
0.0658985
3.49409e-08
0.0542303
2.53335e-07
3.68838e-08
9.17834e-06
0.00691648
0.0438696
0.00753087
0.0480353
0.0583848
0.542626
0.00242737
0.0388514
1.03958e-05
1.64021e-08
0.00214429
0.132237
0.0356293
0.0406042
9.11666e-09
0.00649197
1.66881e-08
0.00410968
9.50282e-07
0.0092003
0.000163412
0.0532838
5.04326e-07
1.281e-08
0.0190548
0.000280117
2.28513e-08
0.0252472
0.000307322
1.90612e-06
6.97598e-10
0.0345034
0.00974696
0.00574066
0.000728891
0.00158701
0.0160474
0.000893647
0.00485451
8.37081e-06
0.0252155
0.000119414
0.0004367
3.26023e-09
6.09401e-07
2.70304e-08
0.00909604
8.31447e-08
2.24149e-06
1.45775e-10
0.000378153
0.371635
0.0835747
0.00241292
3.42557e-09
0.00376764
0.0516746
0.0974362
0.00295094
0.000258175
0.0406387
5.31366e-07
1.30354e-07
2.25983e-09
0.00260367
0.00125826
4.2577e-08
5.01445e-09
0.00218544
1.60719e-07
0.780493
0.0519076
0.0906896
6.57995e-09
1.22213e-08
0.0404988
4.49215e-09
0.00891716
1.33584e-08
0.000622182
1.51024e-08
0.00898266
5.10362e-08
6.44193e-09
0.00102888
0.145912
0.0622079
1.37445e-08
0.0664084
4.25412e-08
0.00396884
0.182368
0.110937
2.36924e-07
0.000508222
3.98512e-09
1.84407e-06
0.000264797
0.0158803
0.0002966
7.92354e-09
0.000583109
0.0032387
0.00472077
0.00774969
3.55467e-07
3.15626e-07
3.2151e-06
5.91408e-07
7.74765e-09
2.70315e-09
0.0703789
0.0357662
1.86654e-08
0.0789093
8.21416e-10
1.8554e-08
0.0695638
5.61086e-09
3.99515e-09
0.0373092
2.4295e-08
5.36654e-10
1.02654
4.3027e-09
6.95644e-10
0.00179663
0.0875394
1.30926e-07
0.0357387
8.85456e-09
0.0210732
0.0470436
6.03298e-06
0.000817915
2.46546e-10
6.7017e-08
1.0048e-06
1.47577e-07
0.307622
0.0426274
0.000271993
2.96524e-08
0.0445588
5.76611e-10
1.57132e-08
3.77143e-09
0.0969999
0.00171601
0.000118337
1.30303e-09
1.25986e-06
0.0463456
0.000862975
3.75736e-07
0.000246198
0.102536
0.0805506
3.37936e-05
0.0800918
0.0008886
0.0410927
4.00663e-05
0.0620177
0.000327562
0.0295403
1.39183e-06
0.00631583
0.000436936
0.000881553
7.19416e-10
0.00138672
7.36012e-08
0.00394927
0.0228549
9.86985e-07
0.00238563
0.000292698
1.70126e-07
0.00955432
8.10078e-08
2.37382e-08
3.0162e-08
4.3513e-08
4.77051e-06
3.84751e-08
5.08281e-08
6.81049e-08
0.257684
4.11702e-05
3.21716e-10
1.74098e-09
6.1952e-08
1.07247e-07
0.030032
0.778403
0.00199161
0.000134614
9.65305e-09
0.00188795
0.00130072
0.044624
3.05931e-05
1.2443e-05
5.32304e-07
1.01644e-06
2.32746e-06
0.000212522
0.000111932
0.170247
0.0646661
7.83166e-08
0.000971623
0.000284414
4.62087e-09
0.0249917
4.43422e-06
3.79015e-08
1.64305e-06
0.162193
0.0598418
2.01312e-10
0.0237807
2.13498e-08
0.0455744
4.93292e-05
0.0341794
0.0510909
4.0524e-09
9.88363e-09
2.81967e-08
2.38168e-05
0.00572774
0.227436
0.0278597
0.0428796
0.00414103
0.000492606
7.88768e-10
0.000111146
0.128956
0.00136711
9.07416e-05
0.00282152
3.93305e-06
0.09403
5.19342e-08
0.208012
0.0369235
1.07315e-08
0.00046012
0.00691571
3.97227e-08
0.0103346
1.86627e-08
1.91803e-07
0.199236
0.0278444
5.28052e-08
5.16896e-09
6.32812e-07
3.61642e-09
4.19675e-09
0.000119785
2.2482e-08
6.86518e-10
0.00312759
6.84497e-09
9.57894e-08
2.52052e-07
0.000216549
2.05379e-07
0.00015961
1.08109e-07
4.54645e-08
2.15017e-05
6.28121e-05
0.00329603
0.0403637
7.67891e-05
0.00474134
2.20809e-06
0.303051
0.29888
1.18426e-07
0.00322424
1.41471e-08
0.0428992
0.0366081
0.000383342
0.0844941
0.0659384
6.86544e-06
1.39867e-09
0.00228164
1.78107e-08
2.29167e-09
3.95957e-07
1.51597e-05
6.46767e-09
1.65092e-05
0.0372173
4.77573e-09
3.03149e-08
0.338357
1.28937e-09
0.0161428
7.77261e-06
0.00123171
8.51289e-09
0.000418681
0.00013917
0.227155
0.00831229
0.0224008
0.000174096
0.0392867
0.000255754
0.070469
0.000138214
0.000220079
0.00981207
0.0550061
0.000307928
0.00123646
4.03165e-06
1.46797e-07
0.00103382
0.000232286
0.0172977
0.0116822
0.000144672
1.7503e-06
0.00547407
0.00484831
0.017703
1.0286e-09
0.0119376
0.0165204
0.00262453
0.00137708
0.00109801
0.00338309
0.018951
0.039166
0.00730982
0.0110432
0.0078236
8.58892e-05
0.00281856
0.00357662
0.000992524
0.00282448
0.0143637
0.0132509
0.0197853
0.000115708
0.0102055
0.000398548
0.00487
0.00268736
0.000378834
0.00251202
0.00019227
0.0708231
0.00394179
0.00118446
0.000131792
0.000696825
0.0163133
0.00228189
0.191363
0.00332609
1.47664e-09
0.219944
0.0425977
0.0227255
0.00685454
0.0202173
0.000384928
0.00870317
0.440525
0.00197697
0.00148476
0.00231533
0.16712
0.00129358
0.071274
7.09922e-05
6.93754e-08
1.20659e-08
0.00208318
0.00580302
0.0117631
0.0682773
0.00736592
0.059631
0.0551056
0.0573327
2.68371e-08
0.00793443
0.00280839
0.0283756
1.01572e-06
0.00616547
9.20919e-08
0.214334
0.011311
0.00708521
0.210127
9.7853e-09
8.2478e-08
0.00201198
0.000104691
0.00069776
1.45562e-07
0.00652272
0.000899421
0.0810582
8.72387e-07
0.0216685
0.00309478
0.000329761
0.000136723
0.00227178
0.00143649
2.37288e-07
0.00169437
5.07917e-05
9.93548e-09
0.255891
0.00371185
0.00243575