/*--------------------------------*- C++ -*----------------------------------*\
  =========                 |
  \\      /  F ield         | OpenFOAM: The Open Source CFD Toolbox
   \\    /   O peration     | Website:  https://openfoam.org
    \\  /    A nd           | Version:  10
     \\/     M anipulation  |
\*---------------------------------------------------------------------------*/
FoamFile
{
    format      ascii;
    class       volVectorField;
    location    "10.5";
    object      U;
}
// * * * * * * * * * * * * * * * * * * * * * * * * * * * * * * * * * * * * * //

dimensions      [0 1 -1 0 0 0 0];

internalField   nonuniform List<vector> 
111485
(
(1.43132 -1.43111 0.000566098)
(4.16947 -0.00984352 -0.0247645)
(4.10541 0.0106372 0.0124483)
(1.43075 -1.43107 9.44075e-05)
(4.26337 0.0198702 0.000620406)
(1.4917 1.49024 -1.61743e-05)
(4.18815 0.0123655 0.00123364)
(4.31252 -0.0120022 0.00589719)
(4.1855 -0.00241777 0.00326567)
(4.29495 -0.0455826 -0.018547)
(4.12857 0.00940731 0.0123972)
(4.31808 -0.0108695 0.0195087)
(4.06757 0.00358203 0.00924172)
(4.12101 -0.00922743 -0.0295923)
(4.16584 0.0166079 0.00894719)
(4.26233 -0.0281342 -0.0219852)
(4.20691 -0.00401229 0.00646027)
(1.48076 -0.114703 0.22007)
(4.26876 0.01277 -0.00920151)
(1.42764 -1.42616 0.000200453)
(1.42922 -1.42887 -0.0014504)
(1.49281 1.49277 1.23351e-05)
(4.22417 0.0157294 -0.00322441)
(4.30118 -0.0273735 -0.00916472)
(4.22651 0.0146017 -0.00317057)
(1.44093 -1.43569 -0.00192521)
(4.33475 -0.0185115 0.0206597)
(4.11595 -0.0071769 0.000858943)
(4.2839 0.00616668 -0.0109165)
(1.42931 -1.42894 -0.000238001)
(4.33221 0.0687416 -0.0176729)
(4.27657 -0.00869631 0.00124664)
(1.42427 -1.42692 0.00202612)
(1.49242 1.49558 -0.00333562)
(1.49957 0.622885 0.238659)
(1.50171 1.51198 -0.0219564)
(4.30997 0.068035 -0.0272552)
(4.17225 0.00927272 0.0378784)
(4.27796 1.29771 0.0724843)
(4.27678 0.0201219 0.00121118)
(1.47532 1.48888 -0.0106597)
(4.31501 0.00733438 -0.0262622)
(4.27675 0.021156 0.00736543)
(4.11389 -0.0246018 0.00111731)
(4.30681 -0.0748465 -0.0397091)
(1.43194 -1.42023 0.00517195)
(4.31201 -0.0187854 0.0178523)
(4.29468 -0.0259497 -0.00821448)
(4.31705 0.00102773 -0.0216094)
(1.42132 -1.40303 0.00767124)
(1.41862 -1.40523 0.0083479)
(1.69678 1.42648 0.0257645)
(1.41329 -1.40861 0.00476615)
(4.30946 0.0196203 -0.034518)
(1.41007 -1.40503 0.000840627)
(4.25655 0.0106173 -0.00489068)
(4.26227 -0.0179531 -0.00940107)
(1.49398 1.49128 0.000964155)
(3.89534 -0.00813952 -0.0673283)
(4.28189 0.0177136 -0.00234544)
(4.2804 0.0194453 -0.000906245)
(1.4265 -1.4296 0.00211539)
(3.99162 0.00411209 0.0259048)
(4.33314 -0.0111821 0.0324782)
(1.54547 1.40076 0.00361202)
(3.91745 0.00845477 -0.00799697)
(3.01003 -0.242411 0.10614)
(4.292 -0.0144056 0.00575742)
(3.88548 0.0011763 0.0143394)
(3.68402 -0.0065907 0.00257127)
(4.14168 0.0349759 -0.0138999)
(3.84581 -0.0104451 0.0205086)
(1.54784 -1.39611 -0.030822)
(3.94752 0.00618942 0.029959)
(1.43062 -1.43 -0.000183661)
(4.27652 -0.00953568 0.00887537)
(1.49278 1.49299 -0.00028774)
(4.30798 -0.00913541 0.0220804)
(1.49222 1.49139 0.000157638)
(1.35158 1.32048 -0.0439993)
(4.16246 -0.0619619 0.0414491)
(4.30667 0.0158698 0.0014961)
(1.49031 1.48881 0.000474149)
(1.43068 -1.43044 0.000794535)
(4.04317 -0.000680814 0.00885653)
(3.88504 0.010577 -0.0165833)
(3.32731 2.15922 -0.579979)
(4.25742 0.0516948 0.00476982)
(4.10314 0.104563 0.0891885)
(4.15994 0.0055048 0.0134299)
(4.38822 0.0852624 -0.0546961)
(4.26038 -0.00712567 0.00683925)
(3.99526 -0.00662467 0.0137766)
(4.08027 -0.00388111 0.00504452)
(4.31762 0.0131006 -0.0236098)
(1.43081 -1.43024 -0.000228136)
(1.43014 -1.42977 0.000885881)
(4.25472 0.0479946 0.0154943)
(4.3867 -0.866097 0.0617232)
(3.98675 0.0137932 0.0253295)
(1.43102 -1.43068 0.000535476)
(4.27153 -0.0227457 0.00182057)
(1.50045 1.50318 0.00826206)
(4.23974 0.000746485 -0.00267024)
(4.21356 -0.0220539 -0.0269667)
(1.46441 1.31052 -0.0307471)
(1.49287 1.49262 -0.000187671)
(4.28296 -0.0120726 -0.00115742)
(3.95274 -0.0217565 0.00456025)
(3.78884 -0.111779 -0.116928)
(4.04247 -0.00303101 0.00825337)
(4.25011 0.00627488 -0.00262678)
(3.96427 -0.00236202 0.015076)
(3.90226 -0.0193335 0.00862576)
(1.44375 -1.43642 0.000570221)
(3.77535 -0.00490539 0.0109125)
(1.43594 -1.43126 -0.00197873)
(1.50063 1.49439 0.0060941)
(4.18271 0.015461 0.0133167)
(1.43058 -1.42972 0.000543414)
(1.44169 -1.4359 -0.00131726)
(1.9659 1.54653 0.0936292)
(1.48284 1.48947 -0.00228387)
(1.49723 1.49355 -0.00345309)
(4.08725 -0.00915589 0.0183193)
(1.14903 -0.811481 -0.212122)
(1.87496 1.61298 0.0566228)
(3.81123 -0.0012123 0.0172459)
(1.4306 -1.42993 -0.000509075)
(4.29248 0.319214 -0.115949)
(4.29334 0.0791996 -0.0429072)
(4.24698 0.048882 0.0162219)
(1.42678 -1.42315 -0.00676004)
(1.92511 1.67604 0.169465)
(1.79842 1.60497 0.0756741)
(4.28353 0.013514 -0.00709306)
(1.49354 1.49364 -0.000391321)
(4.25811 0.0102704 0.000667481)
(4.22971 0.0127323 0.00810143)
(4.16706 0.0184278 0.0171075)
(3.27961 0.000450322 0.0139552)
(4.2723 0.0222334 0.00449482)
(4.23645 0.0269667 0.015037)
(4.0302 0.00317006 -0.0167769)
(4.20973 -0.00791366 0.00343019)
(4.16283 -0.00129766 0.00758581)
(1.49357 1.49403 -0.000369038)
(1.43049 -1.43067 0.000156568)
(1.49054 1.49128 0.00275498)
(4.26033 0.0169799 0.00228234)
(4.03228 0.00594807 -0.015245)
(1.42926 -1.42824 0.000580583)
(2.79514 -0.0156576 0.0274832)
(4.15772 0.0190477 0.00928579)
(4.5555 0.178569 0.0810306)
(4.28264 0.0120787 -0.00840671)
(4.26045 0.012999 -0.00314588)
(3.96633 0.00101044 -0.00602252)
(4.59395 0.221027 0.0553441)
(1.42322 -1.43647 0.00575946)
(1.42867 -1.43011 0.00120256)
(4.27221 0.011822 -0.00909882)
(4.18832 -0.0139515 -0.014625)
(4.62327 0.249655 0.0599097)
(4.55834 0.218796 0.0824027)
(3.98885 0.00718096 0.0202993)
(4.26744 0.05126 -0.0192237)
(1.47556 1.48786 0.000346024)
(4.67964 0.309172 0.0741327)
(4.45982 0.219043 0.0672112)
(1.49238 1.49301 0.000518741)
(1.42904 -1.42877 -6.61114e-05)
(3.44478 0.0043395 -0.025359)
(1.49314 1.49398 0.000105768)
(4.2399 -0.00848176 -0.00192588)
(4.08393 0.00222521 -0.00920181)
(1.4934 1.45861 -0.00716336)
(1.54366 -1.41727 0.0134131)
(1.43382 -1.42653 -0.0022107)
(1.47008 1.38819 -0.0139039)
(1.55385 -1.43165 0.024282)
(1.42876 -1.42982 0.000987454)
(4.25424 0.0164267 0.00470627)
(4.25126 0.0106454 -0.00797539)
(4.2367 0.0136583 -0.00365617)
(4.20091 -0.0129267 0.0161882)
(4.04 -0.00928538 0.0031722)
(4.05786 0.00813008 0.0130428)
(3.606 0.0451257 0.00450719)
(1.42999 -1.42485 -1.94839e-06)
(3.94467 0.000662242 0.00394755)
(1.54027 -1.43084 0.0141091)
(1.44252 -1.44484 -0.000879333)
(4.09562 0.0090097 0.01373)
(4.29676 -0.0513659 -0.0181214)
(4.25252 0.00857133 -0.0192008)
(4.0915 -0.00382817 0.00540108)
(4.148 -0.00317187 0.00481769)
(1.42799 -1.42534 0.00324079)
(4.0793 -0.0170712 0.00669822)
(4.07113 -0.00516598 -0.0241522)
(2.84351 0.902288 0.118853)
(4.16842 -0.0323843 0.0029653)
(4.22673 -0.00650764 0.00365719)
(1.4357 -1.42797 -0.00230678)
(4.07899 0.0113521 0.0139335)
(4.26709 0.00852162 -0.00296541)
(1.56575 -1.41557 0.00515445)
(4.10106 0.00988654 0.0145263)
(4.3 -0.00389729 0.0237342)
(4.03024 0.00333484 -0.017607)
(4.06876 0.0101445 0.0179283)
(1.55157 -1.43583 0.0192659)
(1.42959 -1.42994 -0.000330137)
(4.06955 0.010033 0.0179715)
(2.65945 1.66709 -0.164665)
(4.34882 0.01867 -0.0411789)
(1.49278 1.49338 -0.00104416)
(4.09287 0.00745079 0.015327)
(4.08425 0.006155 0.00459609)
(4.32386 -0.0135835 0.0264791)
(1.43209 -1.43132 0.000673127)
(3.8275 -0.000167153 0.0102132)
(4.28333 0.0606687 0.0299981)
(2.34984 1.57742 -0.17236)
(1.49337 1.49327 -0.00103405)
(1.49241 1.49301 0.000435879)
(4.37778 -0.0255014 0.0403181)
(4.08704 0.0951145 -0.0105252)
(1.57172 1.32716 -0.030132)
(1.77507 -1.37634 0.0538974)
(4.09844 0.0030222 0.00542421)
(4.22018 0.00970246 0.00108125)
(4.28617 0.0108058 0.00243422)
(1.55081 1.35103 -0.0390256)
(1.51192 -1.39804 -0.00515806)
(4.12267 0.0479096 -0.0555581)
(1.43056 -1.43013 0.000807007)
(3.90908 0.00513476 -0.0237178)
(4.0513 0.004209 0.0130737)
(4.09611 0.00140196 0.00749374)
(4.10345 0.0101367 0.00856965)
(4.11861 0.00819504 0.0114063)
(1.48883 1.48894 0.00486363)
(3.11653 -0.00898522 -0.117331)
(4.17818 0.00995877 0.0157551)
(1.48605 1.4891 -0.00218998)
(1.49226 1.49282 -0.000366203)
(4.34879 -0.049897 -0.00584333)
(4.24929 0.0181366 -0.00697517)
(1.53048 1.30572 -0.0404106)
(3.87955 -0.00221578 0.0104673)
(4.16203 0.0115983 0.0122913)
(1.431 -1.43029 -0.000540174)
(1.8911 1.78141 -0.0118383)
(4.28367 0.0380751 -0.0168742)
(1.43435 -1.41633 0.000590373)
(1.5857 -1.12724 -0.0270079)
(2.1873 -0.769056 -0.0767625)
(1.43152 -1.42776 -0.000314085)
(4.17881 -0.00679285 -0.00720571)
(4.06872 -0.00803548 -0.00876995)
(4.23709 0.00668121 -0.0119533)
(1.42998 -1.43014 -0.000147809)
(4.19918 0.0124082 0.0102944)
(1.43092 -1.43116 -4.66463e-06)
(1.43083 -1.43152 0.000307204)
(1.42841 -1.42309 0.00246887)
(2.88777 0.0104193 -0.0444602)
(4.30256 -0.0196614 0.0234023)
(4.11099 0.0148879 0.0204716)
(4.17671 0.0132131 0.010353)
(4.33385 -0.0252853 -0.00121093)
(4.15367 0.00950463 0.00965238)
(4.26614 0.0156424 0.00562085)
(4.29122 0.0700286 -0.00712704)
(4.19007 0.00875423 -0.000503994)
(4.23036 0.00922047 0.00101419)
(1.51724 1.49235 -0.00109065)
(1.42867 -1.42865 -0.00160502)
(2.63972 0.0158073 -0.0643391)
(4.2523 -0.00914108 0.00155227)
(4.30545 0.033186 0.036888)
(4.0538 -0.0052689 -0.00677908)
(1.43061 -1.42984 0.000582918)
(4.24659 0.0134384 0.0082363)
(4.26957 0.0210928 0.01014)
(4.16609 0.0078007 0.00664938)
(3.68178 -0.00357102 -0.0183672)
(3.84973 -0.0444142 -0.0945744)
(4.22921 0.0141592 0.00213958)
(4.15791 0.0106782 0.00923123)
(4.24735 0.0318756 -0.0196821)
(1.49379 1.49409 0.000523929)
(3.89605 0.0196145 -0.00054794)
(1.49228 1.493 -0.000588544)
(1.21707 0.929136 -0.192171)
(1.60942 -1.03382 -0.103224)
(4.40569 -0.0392354 0.0560525)
(4.33467 -0.025022 -0.00101238)
(4.23189 -0.00153348 -0.000108199)
(1.43278 -1.42922 -0.000647779)
(1.4882 1.49658 0.0120019)
(4.23889 0.0143986 0.00809205)
(4.06335 0.00656968 -0.00641433)
(1.42998 -1.42907 2.5222e-06)
(1.4312 -1.43043 0.00144458)
(1.40098 -1.40829 0.0106993)
(4.03959 0.00535148 -0.0031129)
(4.2127 0.00449442 -0.00493835)
(4.02654 0.000660907 0.0141481)
(3.89745 0.00703587 -0.0211597)
(4.29587 0.00969392 -0.00967469)
(1.71112 1.47108 0.0389291)
(1.49007 1.4936 0.0029194)
(1.43081 -1.42864 -0.000765176)
(4.22547 0.0151487 0.011092)
(2.73985 -2.31918 -0.162778)
(4.03049 -0.00443108 0.00423262)
(4.37651 -0.030482 0.093059)
(3.53203 0.00208027 -0.0715921)
(1.49278 1.49329 -0.000106598)
(1.42932 -1.4306 0.000715303)
(1.43071 -1.43152 -0.000799557)
(1.88336 1.58046 0.0964135)
(4.27074 0.0136861 -0.000399577)
(4.31144 -0.023886 0.00156795)
(1.49668 1.50038 0.000537782)
(4.23526 0.0109452 -0.00126299)
(1.57788 1.27847 0.0901726)
(1.43792 -1.42168 -0.0020774)
(4.34487 -0.0147737 0.0350271)
(4.22908 0.0146338 0.00676069)
(4.33013 -0.00566797 0.0106623)
(4.23848 0.0114399 -0.00125936)
(1.43995 1.27864 0.077495)
(1.86474 1.60428 0.102673)
(1.4904 1.49228 -0.00234564)
(4.23208 0.0142394 0.00586303)
(4.22683 0.0123245 -8.51903e-06)
(4.31587 0.0745143 -0.0246862)
(1.48034 1.47715 0.00350955)
(2.95504 2.61821 -0.625425)
(4.04255 0.0392136 0.0353507)
(4.30863 -0.0197689 0.0103302)
(4.24917 0.0159376 0.0101584)
(4.03241 0.410869 -0.0338085)
(4.29372 0.0101253 -0.0101184)
(1.49036 1.49001 0.000265686)
(4.2975 0.0115894 -0.0078968)
(4.1267 0.00518571 0.00807622)
(4.35146 -0.0993559 0.000144254)
(4.35712 -0.0256091 0.0516025)
(4.22076 -0.0315122 -0.028071)
(1.48801 1.49492 -0.00568822)
(1.42898 -1.43064 -0.0026457)
(1.4963 1.4881 0.00554939)
(1.42173 -1.42576 -0.000518489)
(4.30463 -0.0201717 0.000237304)
(4.2807 -0.00686866 0.00248239)
(4.25795 0.0188969 -0.0140548)
(4.29043 0.0119122 -0.0128767)
(1.48381 1.48536 -0.00616773)
(4.25318 -0.0275915 -0.00871563)
(1.49156 1.49221 0.000824851)
(1.42455 -1.42884 0.000233531)
(4.29254 0.0119355 -0.00939755)
(1.32093 -1.32258 0.0192584)
(2.36536 -0.425822 -0.0323497)
(1.41497 -1.40967 0.00116998)
(1.50658 1.48663 0.0118951)
(4.24582 0.00732235 -0.00574591)
(1.49316 1.49227 0.000658116)
(4.2036 0.0103839 -0.00293614)
(4.00112 0.0022856 -0.0177518)
(1.49422 1.49414 -0.000337459)
(3.86638 -0.00192006 -0.0182927)
(4.17748 0.00650299 0.00715609)
(1.50326 1.31884 -0.0493188)
(4.17249 0.0183122 0.0188573)
(3.94452 0.0189511 -0.00280771)
(4.1945 0.0226854 0.00659569)
(3.90671 0.0150985 0.0488901)
(4.23262 0.0121013 0.00233851)
(4.04322 0.000377002 -0.00802963)
(1.47246 1.25953 -0.00576487)
(1.43026 -1.4243 0.0052024)
(3.63109 0.00818611 0.085969)
(1.48356 1.48849 -0.0085558)
(4.18799 0.0218421 0.0197628)
(4.34748 -0.0217287 0.0421226)
(1.50436 1.43846 0.0121768)
(1.49011 1.49632 -0.000505386)
(4.29431 -0.00782172 0.00294873)
(4.13405 -0.018699 -0.035996)
(4.15258 0.021484 0.00195598)
(4.31214 0.00987741 -0.00231547)
(1.49301 1.49129 -0.000349164)
(4.36617 -0.0115623 0.0675696)
(4.29498 -0.0142288 0.0208804)
(1.49606 1.49334 1.45116e-06)
(4.22173 0.0645149 0.0526201)
(4.02407 -0.0162878 -0.0402255)
(1.42978 -1.42868 -0.000363979)
(1.42977 -1.42944 2.4405e-06)
(4.19944 0.0127096 -0.00414056)
(4.21937 0.00371777 -0.00569584)
(1.49992 1.50009 -0.00192428)
(1.4327 -1.42883 -0.00164101)
(2.52276 -1.36155 0.308168)
(1.43048 -1.43136 0.000485656)
(4.22253 -0.0024734 0.00825571)
(1.48553 1.49016 0.00343646)
(1.43075 -1.43127 -1.02188e-05)
(4.33173 -0.00391582 0.0141414)
(3.92281 -0.046003 -0.110849)
(4.28492 -0.0230348 0.00588301)
(4.13033 -0.000290046 0.00778375)
(1.4948 1.49352 7.44212e-05)
(1.9383 1.49484 0.0727824)
(4.13662 0.0520205 0.0798584)
(1.81669 1.60387 0.0850163)
(4.12083 0.018307 0.0317586)
(4.10144 -0.0321299 0.00307159)
(4.2773 -0.0130587 -0.0105509)
(2.9836 0.0910192 0.105432)
(1.78471 1.53797 0.0760605)
(4.28688 0.00674699 -0.0403783)
(4.3403 0.131596 -0.0457302)
(1.42888 -1.43145 0.00249109)
(4.31826 0.0109258 -0.0416063)
(4.32424 -0.0201295 0.015593)
(1.43259 -1.43221 0.00156441)
(4.1699 0.233155 -0.129694)
(3.65887 -0.000680166 -0.0498289)
(1.88537 1.4821 0.0611631)
(4.30047 -0.00846996 0.0176096)
(4.2513 0.00603467 -0.00582479)
(4.23587 0.0113516 -0.00195518)
(1.49278 1.49124 -0.000384812)
(4.22501 -0.00720969 0.0290368)
(4.32432 -0.00268464 0.0136499)
(4.20873 0.0401647 -0.00437974)
(2.6529 -0.0363926 0.0435336)
(1.81678 1.71496 -0.0360896)
(2.5004 -0.0637178 0.0843971)
(1.42918 -1.431 0.00106464)
(3.89676 -0.126407 -0.124309)
(4.22601 -0.00775788 -0.0277836)
(1.49377 1.49283 0.00203855)
(4.01354 0.00925515 -0.0290792)
(3.31757 -0.00835453 0.0593974)
(1.93693 1.71267 -0.017877)
(1.43081 -1.42985 0.000193582)
(1.67492 -1.42152 0.0445336)
(1.43045 -1.42979 0.000189079)
(4.21014 0.0245607 -0.000576789)
(4.23461 0.0216223 -0.00730106)
(4.18422 -0.0125573 -0.0116173)
(3.94108 0.00970224 -0.0209009)
(4.2893 -0.0862246 -0.016991)
(1.49255 1.48667 -0.00294685)
(4.161 -0.000253146 -0.0084295)
(1.43422 -1.42354 0.000535398)
(4.11745 0.0153308 0.00958241)
(1.49768 1.49733 -0.000777905)
(1.42983 -1.42874 2.80998e-05)
(1.41898 -1.42294 -0.00207788)
(4.04798 -0.0264163 0.00556666)
(1.42735 -1.42798 -0.000936584)
(1.43119 -1.43097 0.000530255)
(1.47137 0.977356 -0.0625717)
(1.43073 -1.43183 0.000517354)
(1.47847 1.49894 0.0138917)
(4.14749 -0.0148368 -0.00621071)
(1.49421 1.49202 0.000446938)
(1.7691 1.30678 0.0017606)
(1.49452 1.49442 0.00165994)
(1.42864 -1.42456 -0.000929653)
(1.49403 1.49024 -0.000943874)
(1.42661 -1.41928 -0.0074269)
(1.48856 1.4894 0.000152865)
(3.7874 0.000494134 -0.0312785)
(1.49641 1.48845 0.00619176)
(3.88484 0.054673 0.0770281)
(4.24034 0.00541831 1.25367e-06)
(4.37849 -0.163167 -0.0260803)
(1.4945 1.4883 -0.000203477)
(3.69735 0.0116069 0.0595255)
(1.49629 1.49093 0.00175894)
(1.43083 -1.43162 -0.000744068)
(4.19159 -0.0395914 -0.0434701)
(4.19005 -0.0326504 -0.0337342)
(4.18737 -0.00854793 -0.0116595)
(4.38029 0.0112623 -0.073254)
(1.71586 1.44274 -0.0468094)
(4.28445 0.00314731 -0.0223376)
(4.28454 0.00111768 -0.0205442)
(4.23969 0.00889637 0.000359019)
(4.17739 0.00486718 0.00055545)
(4.25628 -0.042062 -0.0284886)
(1.42771 -1.42809 -0.000617447)
(4.24554 0.00726444 -0.00102845)
(1.95349 1.70034 -0.0117391)
(4.22517 0.00658415 -0.00933241)
(1.49329 1.4921 8.19993e-05)
(4.30553 0.0155655 -0.0232588)
(1.9321 1.60355 0.0150465)
(4.24393 0.00386023 -0.00593694)
(4.25393 -0.0195611 0.0151723)
(1.65045 -0.832014 -0.00849165)
(1.49556 1.49731 0.0163432)
(4.18355 0.00736959 0.0067626)
(1.43061 -1.42944 0.000134866)
(4.32 0.0178786 -0.0247545)
(4.285 0.0223906 -0.0178486)
(1.49286 1.48894 -0.0122315)
(1.49097 1.49042 0.00352465)
(1.46192 1.30873 -0.0374504)
(1.49232 1.4935 0.000827956)
(3.00035 -0.160321 0.0821696)
(4.32195 0.0156452 -0.0246071)
(1.51228 1.47683 -0.00116517)
(1.49073 1.49327 0.00163146)
(3.71219 0.00233978 -0.0104388)
(1.49306 1.49351 -0.000326351)
(4.25714 0.0143584 -0.0166401)
(1.49303 1.49259 0.000375704)
(4.21629 -0.0264313 -0.0168376)
(1.4312 -1.43103 0.000528067)
(3.96439 -0.0202455 -0.0579058)
(3.28876 -0.0122149 0.00397088)
(3.971 0.0109522 -0.00905436)
(4.2459 0.00548011 -0.00718585)
(1.50245 1.49098 -0.00435155)
(3.87784 0.00313075 -0.000996284)
(1.49618 1.49087 0.00134858)
(1.49353 1.49419 -0.00382998)
(4.1948 -0.0114808 -0.00633137)
(1.49353 1.49219 -0.000220046)
(3.59145 -0.000172211 -0.0360242)
(1.44498 1.3291 -0.0422147)
(4.26703 0.0247776 -0.0135103)
(1.42974 -1.43002 -0.000203406)
(4.29283 0.00908178 -0.00928334)
(1.43108 -1.4298 -3.61273e-05)
(1.77134 1.56821 0.0447018)
(4.35436 0.154531 -0.00953794)
(4.18229 -0.0338229 -0.0437225)
(4.23589 0.0157524 0.00110973)
(4.28068 -0.0473598 -0.0314086)
(4.21614 0.00874546 -0.0050085)
(4.32683 -0.0277646 -0.00453211)
(1.48379 1.49535 -0.00669224)
(4.23344 0.0214466 0.0149475)
(4.19738 -0.039227 -0.0433877)
(1.49261 1.49344 -0.000810663)
(3.56383 -0.0454027 -0.152212)
(4.33268 -0.0313888 -0.0212849)
(4.16226 0.0186699 0.0156018)
(1.48008 1.45919 -0.00863331)
(1.84166 0.364694 -0.291246)
(4.0735 0.0107047 0.0124756)
(3.34783 -0.0136125 0.0332296)
(3.45393 0.886542 -0.00596981)
(1.85299 -0.944449 -0.077113)
(4.31198 -0.0491394 -0.0104881)
(4.05386 0.0157503 0.0287983)
(4.18231 -0.0386488 -0.0419258)
(4.25167 -0.0231345 -0.00892715)
(4.19558 0.0250463 0.0104706)
(3.71357 0.477012 -0.0248357)
(1.84593 1.56615 0.0126675)
(3.77946 -0.14262 0.0324779)
(3.65662 -0.324276 0.0734935)
(1.42889 -1.4296 0.000755253)
(3.73474 0.0245146 -0.0109074)
(1.50177 1.47403 -0.00766654)
(1.75387 1.59375 0.0147784)
(4.20875 0.00501042 -0.00230329)
(3.73939 0.629296 -0.0215499)
(4.50602 -0.38418 -0.0721032)
(4.06297 -0.701456 0.0160219)
(1.74906 1.66241 -0.121165)
(4.28782 -0.0249689 -0.0074099)
(4.2446 0.024389 0.0185968)
(1.4899 1.48564 -0.000331167)
(1.92135 1.06474 -0.0435453)
(4.24674 0.0309901 0.0184898)
(1.42937 -1.42443 0.00101196)
(1.4929 1.49267 -9.29083e-05)
(1.49142 1.4911 0.000282934)
(1.49402 1.48621 0.00163077)
(4.29065 -0.0438566 -0.0199065)
(1.49332 1.49309 0.000800572)
(1.43651 -1.43643 0.0076426)
(4.21249 -0.0260139 -0.0212974)
(3.89701 -0.000135536 -0.0117129)
(2.10528 -1.84379 -0.0966132)
(4.2475 0.0302763 0.0178881)
(1.73541 1.4016 0.0314761)
(4.26353 -0.0157592 -0.00811194)
(1.40694 -1.40614 -0.00631827)
(1.49019 1.49315 -0.000707236)
(4.27521 -0.0263016 -0.00783714)
(1.49343 1.48511 -0.00577851)
(1.49256 1.48907 0.000964101)
(1.71208 1.63997 0.0482506)
(4.03651 -0.00208308 -0.0013913)
(2.46223 2.06255 -0.272314)
(4.21478 -0.0177352 -0.00841205)
(4.20589 0.00455532 -0.00279288)
(1.42027 -1.41104 -0.0115067)
(4.38064 -0.0139474 0.136113)
(4.01634 -0.0238896 -0.0582072)
(4.19582 0.000831107 -0.00210446)
(4.26444 0.0763176 0.0100733)
(4.2753 0.0412831 -0.0904944)
(3.70037 0.00134446 -0.0342914)
(1.49161 1.49086 0.000631011)
(4.27952 0.00334456 0.0110997)
(4.24981 0.0167511 0.000661443)
(1.41772 -1.43625 0.00271884)
(3.9789 -0.00207844 -0.000563225)
(4.29839 0.0262914 -0.00765973)
(4.28814 0.019717 -0.00656445)
(3.92231 -0.0178803 -0.0389948)
(4.28545 0.0209625 -0.0051896)
(4.29013 0.0213908 -0.00389322)
(1.43484 -1.41594 0.00853189)
(4.28844 -0.00933135 0.0210739)
(3.56066 -0.0215473 -0.00566949)
(1.8021 1.56527 0.097613)
(4.28344 0.0170954 -0.00910133)
(4.09421 0.00396686 -0.00900907)
(2.39565 1.95131 -0.293452)
(4.20915 0.00584822 -0.00103968)
(4.28578 0.0147322 -0.012834)
(4.09598 0.000586173 -0.0161559)
(4.25589 0.0211021 0.000402434)
(4.20844 0.0458273 0.0179919)
(4.21494 0.00576954 0.000919928)
(1.46051 1.42814 0.0016303)
(4.2555 0.0215817 -0.00101622)
(3.99989 -0.0260328 -0.0527382)
(1.5992 -0.960635 0.0375124)
(4.23559 0.0369611 0.0244874)
(4.18994 0.0381582 0.0366931)
(4.23921 0.0114741 -0.00152441)
(1.49231 1.48881 0.00149546)
(4.12666 0.0242338 -0.0388541)
(1.43091 -1.4246 0.00379529)
(1.49316 1.49344 -0.000732571)
(1.48867 1.47703 -8.45056e-06)
(1.49498 1.48738 0.00125464)
(3.59107 0.00198825 -0.0170656)
(1.77749 1.53202 0.0614536)
(3.22665 -0.225599 0.266848)
(1.42702 -1.42688 0.000185262)
(1.49229 1.51069 -6.90657e-07)
(4.25236 0.0400967 0.0227725)
(4.25915 0.0111835 -0.0181031)
(1.43133 -1.43122 3.32084e-05)
(4.26762 -0.0266246 -0.00321083)
(1.43061 -1.42933 0.00485114)
(1.43166 -1.43063 -0.000723784)
(1.4092 -1.40985 0.00435929)
(4.33849 -0.0349801 -0.00716616)
(3.62389 0.0186888 -0.0100989)
(1.75981 1.58571 0.0194039)
(1.44563 -1.42957 0.00377765)
(1.49119 1.49574 -0.00196364)
(1.4923 1.49336 -0.000313338)
(4.35834 0.00873702 -0.0472304)
(4.22354 0.00703136 -0.00289445)
(1.77744 1.67148 0.0774729)
(4.30836 0.0136242 -0.0231923)
(4.01626 -0.0564238 -0.162788)
(1.49075 1.49134 -0.000712928)
(4.29622 0.0118653 -0.0197594)
(3.94438 0.00334794 0.0212618)
(4.19956 0.0224796 -0.027014)
(1.49407 1.49321 -0.000297812)
(1.49192 1.49113 -8.93219e-05)
(4.16644 0.0182672 0.0220983)
(4.2434 0.00749286 -0.00114303)
(1.7653 1.60535 0.025098)
(1.48799 1.48822 0.000201737)
(1.51526 1.47096 -0.00302933)
(4.20929 -0.00889803 0.00440428)
(1.42912 -1.42927 -0.00198456)
(1.43101 -1.4259 0.00108596)
(1.48877 1.48938 0.00076745)
(4.29478 0.0131978 -0.0167473)
(3.77224 -0.0180424 0.00676952)
(1.49365 1.49383 7.80112e-05)
(1.663 0.329704 0.291199)
(1.81876 -0.197301 -0.0651987)
(4.17563 0.0218365 -0.00170767)
(1.49088 1.49367 -0.000738599)
(1.49294 1.4903 -0.000647682)
(4.32367 -0.0425292 -0.00969947)
(4.13677 0.070253 0.0641711)
(1.79103 1.60059 0.075063)
(2.60933 0.850329 0.0610669)
(4.07461 0.0899622 0.116325)
(3.90542 0.0104682 -0.027601)
(4.13804 0.00300682 -0.00299019)
(1.54964 1.45378 -0.00253079)
(4.12052 0.0103596 -0.000670261)
(4.27033 -0.0281221 0.0293306)
(1.49673 1.49279 -0.00181928)
(1.4214 -1.39865 0.00180621)
(1.48897 1.48981 -0.000209539)
(1.49159 1.49188 -0.000503064)
(1.49342 1.49571 -0.00162224)
(1.49416 1.49429 -9.46614e-05)
(4.30413 0.013842 -0.0180941)
(1.42952 -1.42955 0.00117762)
(1.4916 1.49194 -4.48915e-05)
(1.48464 1.46486 6.9114e-05)
(4.30757 0.0143533 -0.0237945)
(4.2394 0.00886683 -0.00275062)
(1.43657 -1.41792 -0.000430024)
(1.4143 -1.40006 0.00210427)
(4.34225 -0.02032 0.0369366)
(4.12791 0.00253342 0.00503908)
(4.12173 0.00414066 0.00655715)
(1.43138 -1.42751 -0.000736097)
(1.49085 1.4916 0.000651444)
(4.12516 0.00265468 0.0059758)
(1.43102 -1.42995 -8.32882e-06)
(4.07804 0.0107152 0.000619234)
(4.18217 0.00728037 0.0148053)
(4.1895 0.0143318 0.00628727)
(1.43986 -1.42954 0.00424791)
(1.43034 -1.43102 0.000462918)
(1.43021 -1.43112 0.000346932)
(1.4932 1.49372 0.000368171)
(4.22937 -0.0176327 -0.011463)
(1.49168 1.49273 0.000275307)
(1.49068 1.49102 0.000258977)
(4.21187 0.012204 -0.0159071)
(1.43025 -1.43091 0.000680993)
(4.14195 -0.00121267 0.00499878)
(3.78996 -0.0315702 0.0129099)
(1.50581 1.45718 0.00717644)
(4.23797 0.0129951 -0.0021347)
(2.00245 0.297349 -0.0503732)
(4.1782 0.00303619 0.00379665)
(4.33602 -0.0151295 0.00938012)
(3.82695 0.0147767 0.00401241)
(4.3233 -0.00119489 0.0275512)
(3.13232 0.0662968 -0.118503)
(1.7775 1.42288 0.0291934)
(4.16936 0.000689185 0.0024475)
(4.33914 0.0324275 0.00559399)
(4.23579 -0.0115846 -0.0046679)
(1.52925 1.33073 -0.0457153)
(1.90939 0.186013 -0.0980783)
(2.26837 -0.161732 0.0767087)
(4.17004 0.00634643 0.00272306)
(1.4909 1.49302 0.00195511)
(4.10172 -0.00980549 -0.0298131)
(4.18795 -0.00389954 -0.0091294)
(4.06847 -0.0358903 -0.0641817)
(1.5637 -1.10676 -0.083104)
(1.43074 -1.43111 0.000725106)
(1.43026 -1.43034 -7.19257e-05)
(4.26086 -0.0132069 -0.00191268)
(1.7393 1.44155 -0.0181488)
(4.047 0.0135792 0.00614344)
(1.6192 1.47521 0.0200276)
(4.02945 -0.00723644 -0.0261141)
(4.13291 -0.00682282 0.00421073)
(4.0935 -0.00279384 0.0145928)
(4.24024 0.00983045 -0.0037883)
(1.49203 1.49104 -0.000532526)
(1.48388 1.48023 -0.00209277)
(1.52894 -1.39446 0.00651814)
(4.23572 0.0130604 7.88583e-05)
(1.49391 1.49009 -0.000210747)
(1.7216 1.48245 -0.0648256)
(4.33906 0.0774828 -0.0666004)
(1.499 1.49721 -0.000867007)
(1.48699 1.49401 0.00445483)
(1.42769 -1.42198 -0.00357598)
(1.49325 1.49393 0.000512301)
(4.05024 -0.00185408 0.0145099)
(1.52996 1.44998 0.00468034)
(1.49343 1.49173 0.000300599)
(3.44647 0.488454 -0.350745)
(1.74522 1.41098 -0.0192282)
(1.48757 1.48839 -0.012344)
(2.05846 -1.22192 0.0739138)
(1.49319 1.49085 -0.00125221)
(3.33219 0.0123505 -0.029117)
(4.13204 -0.00484456 0.0105703)
(1.42967 -1.42931 -0.000355442)
(4.06421 0.00514273 -0.0101501)
(4.09741 0.661058 -0.0914806)
(4.04119 -0.0390685 -0.06303)
(4.43582 0.160634 0.0018039)
(3.99607 0.00404505 -0.00652402)
(1.49326 1.48293 0.00457345)
(4.19622 -0.039441 -0.0439339)
(4.34996 -0.0150181 0.00893591)
(4.04042 -0.0392506 -0.0634961)
(1.43012 -1.4303 -0.000336534)
(4.40067 1.16001 0.306528)
(4.04115 0.00579506 0.00660244)
(1.98853 1.58799 -0.0935701)
(4.01712 0.00144613 0.00514464)
(4.37836 0.0534083 -0.041354)
(4.18425 0.0816552 0.00417814)
(4.14667 -0.0139046 -0.0170431)
(4.14668 0.0139462 0.00087678)
(4.41307 0.0616008 -0.0232491)
(4.25892 -0.00608543 -0.00646835)
(4.22834 -0.00669275 0.00442904)
(1.48331 1.48815 0.00589537)
(1.48874 1.48176 0.00450455)
(4.0689 0.0107618 0.00497118)
(4.00477 0.00403931 0.00569685)
(1.49021 1.4939 -0.000400393)
(4.12193 0.00592764 0.000795788)
(4.33153 -0.0169719 0.00560007)
(4.2501 -0.010635 0.00420267)
(1.49743 1.48252 6.98115e-05)
(4.16888 0.0819022 0.0183339)
(1.49107 1.48981 0.000321028)
(4.23177 -0.00583159 0.00321985)
(4.25449 -0.00714088 0.00307048)
(1.49197 1.49125 -0.000219148)
(4.05598 0.0179957 -0.0148204)
(4.24511 -0.00476979 0.00117783)
(4.1529 0.0763424 0.00594658)
(4.09622 0.00124227 0.0130685)
(1.52132 1.49226 -0.00215063)
(4.25955 -0.0120361 0.0136567)
(4.16604 0.0929613 0.000673936)
(4.39475 -0.105291 0.025552)
(3.7058 0.0464751 0.0145107)
(3.31438 0.00969439 -0.046341)
(1.49496 1.47959 -0.00266246)
(1.4899 1.48867 0.0015908)
(4.09741 0.0540725 0.0068798)
(1.49319 1.49378 -0.000334105)
(3.59415 -0.0100475 -0.0111626)
(4.1123 -0.0211734 -0.0308556)
(2.50696 0.347207 -0.0905444)
(4.56066 -0.291629 0.107644)
(4.02477 -0.181411 0.0498206)
(4.48143 -0.162331 0.0418598)
(1.49325 1.49373 -0.000233467)
(2.02752 1.72047 0.0144795)
(4.252 0.0118727 -0.00373855)
(1.42471 -1.42993 -0.00445239)
(0.792926 -0.555563 0.232773)
(4.22145 -0.0795728 -0.062847)
(1.49325 1.48944 -0.00281223)
(1.49381 1.49189 -0.000128172)
(3.76632 -0.0756878 -0.00540393)
(3.07721 -0.19945 0.0414868)
(1.49362 1.49382 -9.46176e-05)
(3.81138 -0.0697192 0.0118721)
(1.49209 1.4906 0.000438941)
(1.49235 1.49446 -0.00257218)
(1.42989 -1.43021 -0.000124362)
(1.43182 -1.42836 0.00350655)
(1.40406 -1.39351 0.00485404)
(1.42988 -1.42724 1.80816e-06)
(3.80916 0.0294692 -0.0143008)
(1.49104 1.48248 -0.00115265)
(1.49224 1.49272 0.000492839)
(1.48485 1.49318 0.00277598)
(3.54415 -0.78618 -0.207284)
(4.01511 -0.0325973 -0.0723852)
(3.89434 -0.000911117 -0.0377423)
(4.25197 0.0118606 -0.00366091)
(1.48772 1.47806 0.000250036)
(1.49669 1.49109 -3.4968e-05)
(4.07973 -0.0687417 -0.0829548)
(1.49295 1.49383 -0.00141507)
(1.49256 1.49115 0.000482802)
(2.37736 1.36303 0.0502296)
(4.34548 -0.0569705 -0.0041268)
(4.23917 0.00998556 -0.00291332)
(1.49145 1.49119 -3.36326e-05)
(1.49314 1.49031 0.00178756)
(1.4896 1.48492 -0.00210743)
(1.49137 1.48878 -0.000262993)
(1.49527 1.49492 -0.001551)
(1.49582 1.49182 0.000248599)
(4.25739 -0.0967743 -0.0605782)
(1.49394 1.48958 -0.000128045)
(2.95222 0.0424846 0.0979265)
(4.27843 -0.00956868 0.0112394)
(1.49206 1.49418 -0.000275116)
(1.4213 -1.42732 -0.00370333)
(1.41193 -1.3986 0.00139981)
(3.59805 0.0421812 0.193303)
(1.40471 -1.40316 -0.00561526)
(1.42851 -1.42975 0.00133781)
(1.4856 1.48774 -0.00940283)
(3.8554 -0.058759 0.00265413)
(1.49005 1.49019 -0.000539484)
(4.22384 -0.0541842 -0.0340603)
(3.38256 0.0527874 -0.0175766)
(2.78054 0.00362695 0.110827)
(1.49036 1.4908 0.000516402)
(2.89638 -0.744881 0.0600298)
(4.25731 -0.00884262 0.00106475)
(4.28465 0.00998044 -0.0111824)
(1.53359 -1.46387 -0.0180109)
(4.1278 -0.0655772 -0.0116104)
(4.21106 -0.00809501 -0.00636891)
(1.43072 -1.42087 0.00139767)
(1.54078 1.46076 0.00686431)
(2.01884 -1.55615 -0.126918)
(1.48839 1.48776 -3.54243e-06)
(4.26243 0.00937511 -0.00148337)
(4.24719 -0.00520522 0.00616321)
(4.32662 -0.0513349 0.0215644)
(2.84993 -0.00308406 0.154675)
(1.49349 1.49291 -0.000194688)
(4.26449 0.00960576 -0.00256681)
(1.53739 1.46242 -0.00190584)
(1.86569 1.57802 -0.00769292)
(1.92078 -1.49521 -0.0603331)
(1.49253 1.49281 0.000552195)
(4.26648 0.0121889 -0.00287435)
(1.49008 1.48684 0.00132955)
(1.41601 -1.39242 0.000367946)
(3.89771 -0.0533071 -0.0955207)
(4.17403 -0.00953148 0.00476706)
(1.41608 -1.39327 -0.00419012)
(4.19713 0.00716246 -0.00272241)
(1.59242 1.55609 -0.00998246)
(4.26246 -0.0361391 -0.0181593)
(1.40686 1.34556 0.015276)
(1.49368 1.49413 -0.000547135)
(1.5015 1.49645 0.00511855)
(1.43089 -1.4312 0.000506156)
(4.14548 0.00831478 -0.00707481)
(3.72349 0.00607634 -0.01583)
(4.29508 -0.00577514 0.0783789)
(1.48867 1.4891 0.000846228)
(1.48901 1.4603 0.00929528)
(4.12757 0.00871948 -0.00636496)
(1.4936 1.49382 -0.000479643)
(1.73054 1.56892 0.0212184)
(1.43009 -1.42922 0.000763497)
(4.08369 0.0248818 -0.00265374)
(4.3511 -0.106289 -0.0330066)
(4.25364 0.0107681 -0.00401996)
(1.43323 -1.4296 0.00218199)