/*--------------------------------*- C++ -*----------------------------------*\
  =========                 |
  \\      /  F ield         | OpenFOAM: The Open Source CFD Toolbox
   \\    /   O peration     | Website:  https://openfoam.org
    \\  /    A nd           | Version:  10
     \\/     M anipulation  |
\*---------------------------------------------------------------------------*/
FoamFile
{
    format      ascii;
    class       volScalarField;
    location    "7";
    object      p;
}
// * * * * * * * * * * * * * * * * * * * * * * * * * * * * * * * * * * * * * //

dimensions      [0 2 -2 0 0 0 0];

internalField   nonuniform List<scalar> 
111485
(
8.16915
0.767745
0.890176
8.14335
0.915077
7.98772
0.778441
0.683813
0.783717
1.13545
0.770308
0.987048
0.788281
0.753281
0.789453
0.810886
0.269106
8.78694
0.786062
8.13325
8.12712
8.01532
0.787353
0.801165
0.909142
8.06269
1.09628
0.464147
0.886959
8.18622
1.44249
0.189322
8.15095
8.08713
8.6382
8.1102
1.44781
0.0804188
1.69935
0.817013
8.15467
1.13489
0.817207
1.29407
1.46439
8.25443
1.22829
0.798917
1.12878
8.1112
8.1099
7.71095
8.11602
1.30779
8.11958
0.502394
0.792379
8.14938
1.18589
0.81299
0.815709
8.16868
0.637265
1.41197
7.95477
0.563347
5.82424
0.72411
0.632699
0.685113
1.49199
0.581315
7.92966
0.630028
8.22188
0.343045
8.03257
1.08723
8.01419
8.26851
1.44621
1.25688
8.05142
8.20905
0.635405
0.83484
3.21213
1.31156
1.48052
0.249915
1.51051
0.840626
0.637907
0.122603
1.13526
8.20731
8.1709
1.32033
1.09927
1.45436
8.15998
1.10128
8.11198
1.06927
0.738127
8.15383
8.10495
0.216358
0.855554
1.40411
0.161949
0.584819
0.841618
1.02193
8.06005
0.325971
8.08204
8.14455
0.632376
8.13521
8.06155
7.14287
8.05359
8.15029
1.18348
8.9116
7.11638
0.252523
8.22717
2.04791
1.41693
1.31731
8.21992
7.01991
7.25536
0.763835
8.0385
0.346305
0.689638
0.715909
1.12371
0.706512
0.709865
0.878112
1.19232
0.0527025
8.03737
8.20224
8.1278
0.742726
0.878097
8.12611
1.45147
0.0104884
1.19509
0.740852
0.731842
0.778577
1.30618
8.24382
8.14383
0.737623
0.87554
1.3398
1.2487
0.300654
1.39233
8.16681
1.37205
1.39755
8.12442
8.19766
0.948913
8.07638
0.0720309
0.0172566
7.98414
7.91296
8.07842
8.08322
7.89093
8.14184
0.748494
0.750443
0.741803
0.0615968
1.0906
0.410902
1.45172
8.15741
0.350132
7.91126
8.16536
0.417883
1.12632
1.39657
0.541674
0.0563877
8.22229
0.75057
0.868564
6.01719
1.26095
0.240995
8.22674
0.417743
1.04019
7.90822
1.38448
1.22113
0.869787
0.398811
7.88339
8.17725
0.412615
5.77152
1.31903
8.07266
0.416844
0.363511
1.15192
8.24456
0.451009
1.36047
6.59977
8.07526
8.12664
1.51241
1.25248
8.00617
7.5695
0.365472
0.107112
0.49422
8.00283
8.00045
1.41434
8.22547
0.737942
0.357673
0.36059
0.352364
0.358146
8.13073
1.46695
0.284332
8.14039
8.04927
1.31052
0.584891
8.04924
0.187759
0.272436
8.20055
6.90007
1.24329
8.08908
8.1603
7.48182
8.10708
0.315984
0.345444
0.0210747
8.24957
0.277928
8.1468
8.1655
8.2312
1.42441
1.08866
0.611559
0.61471
1.01566
0.607915
0.618747
1.47998
0.0981277
0.108081
7.91327
8.19793
1.48756
0.219239
1.08203
0.126911
8.13876
0.621397
0.747323
0.606094
1.05161
1.4681
0.597087
0.61112
1.25515
8.14855
1.07406
8.07713
8.78915
8.21346
1.5087
1.01908
0.801579
8.0925
8.19296
0.483134
0.165976
8.123
8.17902
8.12594
0.345201
0.116344
0.735331
0.766923
0.82524
7.60373
8.11133
8.21401
0.484415
4.29221
0.794972
1.47891
1.39865
8.05017
8.16602
8.16995
7.24882
0.519474
0.908895
8.14153
0.514588
8.04276
8.0732
1.34996
0.517507
1.01274
0.509587
8.20861
7.22182
8.12654
0.51491
0.0388508
1.45429
7.98281
2.18078
1.39757
0.923723
0.463559
2.78027
0.832684
8.0277
0.832396
0.525906
1.47438
1.34021
0.926475
8.09667
8.21507
8.11468
8.14694
0.728419
0.447072
1.00507
0.834756
8.10031
0.968816
8.11033
8.17585
0.83337
8.26777
7.30227
8.27614
8.11226
0.744331
8.15
0.0342073
0.962419
8.01483
0.664548
0.542419
8.10579
0.530685
0.976629
0.541271
1.39508
0.0708298
0.11368
8.2162
8.20207
1.29616
8.15291
1.00268
1.35727
7.97423
8.13657
0.505439
0.997255
0.0829592
0.968438
8.03434
1.43741
0.982223
7.97724
1.29188
0.98442
8.17659
8.13801
0.0362072
0.910122
8.1241
8.08626
6.40125
8.15859
0.93442
8.07328
8.15466
0.983561
1.42795
1.20258
0.919678
7.99189
7.26149
1.30904
7.34565
1.29048
1.32095
1.12579
5.9681
7.40575
-0.220926
1.4272
8.18403
1.33587
0.961135
8.24419
1.35538
1.1495
7.37466
1.01528
0.980996
0.0754364
8.00141
0.250369
1.03973
0.0808281
1.51906
7.09993
1.18787
8.2161
1.46509
-0.0905788
8.12255
1.01139
1.24935
6.95234
8.24714
7.71446
8.12576
0.922201
0.10343
1.00734
1.01526
1.38032
8.0767
0.987209
8.17931
0.924426
7.96168
8.1771
8.20848
1.01081
8.20612
8.17673
8.4769
8.16996
8.1375
1.24887
8.14997
7.74587
8.10836
8.16937
7.98216
8.22074
8.02158
1.01636
8.10851
1.25925
1.03946
1.62085
7.97504
1.26069
8.11517
8.16739
1.00289
0.990096
1.04692
1.47343
7.67951
1.15348
1.15346
0.0802218
0.108035
1.03849
8.196
0.0622486
6.96052
1.19393
8.0826
1.17266
7.1414
0.146794
1.00711
8.37128
8.16058
0.0983973
8.11777
1.15475
1.14537
8.13983
8.12245
8.15885
8.11754
0.896765
1.151
7.94361
8.14821
0.915201
8.01594
1.1488
8.02786
1.21426
8.16957
1.14209
1.16913
0.543773
0.140192
7.94238
-0.0788579
7.96147
8.0847
1.07299
8.08533
1.14624
8.16563
1.1903
8.19024
1.08932
8.12441
7.38422
1.59762
1.04695
1.14823
1.07894
1.13674
0.985475
8.12502
1.14398
1.05964
8.06634
1.53343
1.41254
1.15958
7.99533
8.20432
0.924533
1.16779
4.71448
7.91059
1.07131
0.915383
1.09369
1.09659
0.238314
3.78176
7.30744
1.10815
4.25026
8.14757
1.16164
8.15407
7.41146
0.255073
3.74946
1.10313
2.84315
7.30872
1.09403
0.91549
7.97669
7.75583
0.917777
8.10311
8.01259
8.02283
7.96794
1.10289
8.10902
8.19527
1.11623
0.365251
6.52897
0.879175
7.66509
0.359503
8.11451
8.1281
1.10441
8.08089
7.97775
7.38462
0.0593591
5.52056
1.11774
0.252238
8.10468
1.5027
1.09557
0.941396
1.42209
1.92081
0.916448
8.08891
1.12841
0.941598
8.23291
0.546453
1.26559
0.966077
0.0541061
0.96892
0.966165
8.22568
1.16093
1.38464
7.36433
0.968818
1.17555
5.67934
0.25
0.966632
1.17406
1.01617
1.03178
0.243875
8.04723
1.02667
1.14745
8.3251
1.08471
1.08229
0.269147
8.08779
0.0619675
8.24926
8.04267
8.10637
7.9667
0.942638
7.45829
0.840483
8.17224
7.94527
1.09077
1.09133
8.11601
1.15613
8.1667
8.22776
8.11896
1.19175
1.1657
7.40718
8.204
8.08199
8.09202
1.41753
0.265699
7.26069
1.06889
1.36934
8.1365
1.07387
1.22758
0.191341
8.0048
8.07278
0.568792
0.266974
7.35444
8.12223
7.93303
0.419931
8.20177
8.09211
8.06994
1.05993
0.851797
8.01706
8.54633
8.32597
0.245729
8.14513
7.98164
1.17917
1.41746
7.33961
6.53751
2.63794
1.21489
0.00701898
7.90529
0.890429
1.25708
8.1483
8.11261
8.04057
8.07686
8.11423
8.02299
1.0737
8.16682
8.04019
7.99218
1.07112
0.26258
8.08205
8.12315
1.21315
0.265245
0.279393
8.09933
8.04347
0.269166
8.20473
1.06324
0.26248
0.278136
8.06444
8.15906
8.15874
8.0966
0.930523
8.04998
8.02906
1.3173
8.15635
0.44987
1.25977
7.9525
0.264194
8.04168
0.444384
1.10892
1.13451
1.20441
0.72354
7.60106
0.439392
1.21718
0.00740562
8.05324
0.0562763
7.46558
0.0882635
8.10269
1.24881
1.23326
1.24504
8.20728
8.16279
8.24836
0.264982
7.66637
0.150282
7.78599
0.833965
0.0870852
0.18493
0.267606
8.02346
7.97549
7.93814
0.271795
7.97547
7.60308
1.52784
8.143
8.14665
8.15859
8.04276
0.188035
7.9163
8.07227
0.494097
7.65021
8.16032
7.38069
8.06536
1.23768
0.184674
8.12746
0.924272
2.57786
1.24569
1.41355
0.233888
8.11923
1.11504
1.42804
1.24795
8.21164
-0.293307
0.191558
6.9888
0.151467
1.48241
1.54771
0.669015
0.138613
1.48904
0.0581305
0.17484
8.0816
7.97056
0.127103
0.119218
8.13286
0.13035
1.00274
0.169497
7.9482
1.5211
8.1001
0.174176
0.162609
7.99827
0.0292548
0.171676
1.49736
0.0196133
7.90985
0.728386
1.50586
1.63865
1.48854
1.34529
8.0821
8.10746
1.3235
8.04013
1.04421
1.33597
7.14448
1.31395
1.0269
1.44978
8.0426
6.91977
0.384523
8.22655
9.32254
1.33676
7.96353
7.98862
1.1096
0.98458
8.04139
1.53127
8.07579
8.08037
8.23106
8.16941
8.13606
8.20202
1.36658
7.96141
8.1248
8.13882
0.529998
1.38742
0.848819
0.378386
8.01466
7.97353
1.39883
8.06181
7.9908
6.45114
1.36257
0.495382
8.00788
7.9817
7.97501
7.98173
8.07607
7.97459
1.3705
7.97714
1.46772
0.828922
8.09073
8.1717
8.11955
1.52761
8.11416
8.14484
8.10553
1.47029
8.10392
1.37262
1.43096
1.46928
8.01714
5.95358
1.3977
0.796898
7.88878
1.47428
1.17333
8.10243
7.91193
7.24436
7.98152
0.382245
0.721296
1.41017
1.3825
8.00149
0.381748
7.88317
7.28053
7.21076
8.12655
0.659697
8.06737
8.12616
1.46021
0.497424
8.12425
1.15269
7.68469
1.39855
8.21634
8.08326
8.09093
8.15388
0.187704
0.718221
1.99938
8.00719
7.98106
0.180409
8.04168
7.4815
8.17167
1.0542
1.38056
0.939849
8.08764
1.47509
1.47567
8.40359
1.48059
7.9702
1.29361
1.17217
0.69678
1.45537
1.38972
8.05164
8.07778
8.07807
1.4705
8.20382
1.461
8.23741
2.3039
8.0897
0.808948
0.833931
8.12885
8.03214
8.13973
8.14545
1.45849
8.14478
7.25193
0.172521
1.46392
8.14789
7.45378
7.96963
7.47104
7.96614
8.05496
1.47404
1.1939
8.14235
8.07289
1.18112
8.17652
1.47446
0.191482
8.002
1.3204
8.15656
0.117339
7.96115
0.889079
7.99529
1.25395
1.40054
1.47947
1.32152
1.31846
5.53748
7.87761
1.33737
8.11184
0.652673
8.10747
8.13064
7.83602
8.1164
8.14358
8.13126
1.31117
1.30338
8.15729
7.04602
8.10012
1.33327
1.5233
8.17784
0.664875
1.49692
8.12047
0.244914
0.176038
0.627678
1.48467
8.04058
8.06498
8.11328
8.026
0.664326
8.05795
1.35376
8.0568
1.35926
0.895123
8.10593
1.34284
8.12088
8.03693
1.36006
1.40718
3.43671
8.05723
8.13329
7.97563
0.684479
7.82888
8.27438
7.86399
2.46723
7.19667
1.28699
7.44739
7.83434
7.97647
0.20732
0.176157
1.0006
0.750135
8.22279
1.36045
8.08486
8.1325
0.181549
7.9404
1.21185
1.35597
0.136042
1.37409
0.912703
0.978432
8.12044
0.534892
-0.617918
1.19288
1.40024
0.50981
6.19329
8.16413
0.950469
8.10239
7.98569
1.51254
1.13072
0.871068
8.07259
7.95199
1.45205
8.11966
7.96024
1.37361
8.13197
8.12585
0.663222
1.37752
1.38213
0.610601
0.31184
7.97499
8.0499
1.46707
0.590422
8.02217
8.12824
1.03295
7.9726
7.01148
7.22796
7.25903
5.29729
7.04298
8.02395
0.973728
7.97135
1.38738
7.99643
4.55522
7.99193
7.9713
8.12264
8.03976
0.911497
8.04168
8.03954
7.35606
7.98475
8.11983
8.07911
0.55943
8.05726
0.507262
1.392
7.97211
1.00363
8.01151
1.20483
1.46601
0.14132
0.150511
8.06088
0.158599
0.911189
1.47093
8.22764
1.40413
0.445913
0.0835499
7.69659
0.0923904
7.99799
8.1189
7.99218
8.01836
0.0960191
8.07566
7.98484
0.079384
1.38291
0.0706563
8.14011
6.15159
0.994173
8.10305
1.42693
8.11757
0.150827
7.94998
7.96236
0.963699
7.99294
1.46584
8.17519
7.99585
0.444039
1.23034
0.32794
0.705418
1.53252
0.562669
7.99832
8.23804
0.839626
0.345453
0.557854
1.41056
8.04109
0.512345
8.03343
8.04283
0.845153
1.44238
7.97582
0.345687
8.11037
0.332593
0.311981
7.92333
8.01981
8.09653
0.840368
8.07342
8.07389
0.846296
0.332186
1.39071
0.0899469
8.01419
8.12006
1.06226
0.858133
8.00374
0.842947
8.00943
0.836198
8.01285
8.00313
0.825538
8.04342
1.17557
0.783028
7.97521
8.02021
0.766916
6.97531
0.951531
8.1668
1.39551
8.17969
7.06673
6.88772
0.790115
7.39222
7.32491
0.718322
7.29723
5.12395
6.87878
7.98613
8.10249
1.45448
0.947079
8.10202
8.08373
0.923497
0.932034
7.97694
0.848116
8.02465
8.10484
1.07165
1.01119
0.116248
8.00957
8.08712
8.07569
8.03993
7.9629
7.96655
8.08383
7.97319
7.98051
8.02007
8.07743
8.10381
8.05708
8.00593
7.98358
8.05736
8.00413
8.0203
8.04765
8.0853
8.17959
0.950399
8.0663
8.00604
8.13709
0.656947
8.15331
8.10436
4.09188
7.93283
7.85462
0.657883
8.39879
7.88734
4.51594
0.658547
8.05614
7.14112
7.54525
7.98743
1.29094
0.66104
0.663364
0.632883
0.413621
8.11677
7.9874
0.493797
0.522051
0.629562
8.03067
0.589016
1.25927
0.638233
0.114562
0.129633
0.634695
0.21724
0.631683
8.23855
0.719984
0.587962
0.889368
0.585182
8.09719
8.0808
8.11519
8.15717
8.09356
0.519631
0.598053
8.09577
7.98243
7.97425
8.08012
7.99391
8.10966
7.95114
8.10413
0.590084
1.4514
0.595169
0.984424
7.93738
7.92864
1.27459
1.46448
8.01792
8.04
0.932111
8.24547
8.06848
0.613044
0.574148
0.584384
0.933984
1.26774
8.12185
0.0181691
0.70216
7.25336
8.10397
0.688797
8.11355
7.96712
3.65025
2.74043
0.967988
8.04242
8.21591
1.43754
0.714579
0.0330914
0.521518
4.44377
8.15938
1.35795
8.32952
8.23694
7.88389
0.918419
7.99159
0.519148
0.0292526
0.680867
0.704181
8.20111
0.454469
8.21199
7.80173
8.20075
8.08338
0.176817
5.3319
8.04275
8.13921
8.43038
0.522622
7.217
0.461875
0.517739
0.1704
0.520191
8.08354
8.05838
7.12204
0.909741
0.403817
0.948591
8.11315
8.16783
7.18608
1.29374
0.95361
8.04042
0.35722
3.72603
0.7093
0.395306
8.14913
7.03836
0.392838
0.51906
8.08339
1.13908
1.10202
0.969744
0.440551
0.408112
0.433099
7.25522
0.16895
0.424851
0.363817
8.17428
0.682211
7.3257
0.897015
0.439055
8.24808
0.118928
0.417242
0.456443
0.547472
8.78904
3.41599
1.40917
5.1592
0.420453
7.85756
0.140325
0.419087
8.08764
8.04871
1.40417
1.50545
0.604861
8.74822
0.995211
1.48373
0.813622
1.42503
8.07716
8.24957
0.515944
8.42735
0.467084
1.45305
0.421804
0.144299
8.13026
1.20349
0.51196
8.09685
7.32013
0.336644
8.20831
0.334906
0.315434
8.17167
8.77731
0.71689
8.11261
8.00637
8.15146
0.143633
1.71782
0.916365
8.27607
0.889681
0.235375
7.97246
0.234035
0.253237
0.153731
1.50502
8.02502
0.458297
0.130168
0.25524
0.238948
0.157211
1.45569
0.827423
8.1664
-0.0149798
0.167354
8.14908
0.252648
8.13554
8.07095
8.21784
8.15123
8.13759
1.30608
8.1133
0.233359
1.05006
8.23337
1.03158
8.07731
0.169531
8.10042
1.43611
7.87486
0.857794
1.35676
1.49486
0.262386
0.167938
0.88652
0.154691
0.268415
3.91438
0.259457
0.565552
0.274116
8.23162
0.522673
1.51873
0.267469
0.797709
1.48721
8.22705
7.23033
8.08697
0.899782
8.13375
6.66639
0.169066
8.45854
1.10542
8.09045
8.19762
8.04132
0.567119
0.958024
0.27607
1.35779
0.144595
0.486405
0.471287
0.573575
0.187545
0.468947
0.480997
8.13132
8.07403
8.2417
0.715618
0.512804
7.96945
8.04077
6.76475
0.48467
0.195348
8.12488
0.481944
8.17659
1.36957
0.905857
1.39415
8.14844
8.16991
0.564911
8.15627
1.18226
0.260408
7.78866
0.641593
0.794907
0.116153
8.08594
1.40976
7.4011
1.11986
0.914357
8.15253
8.22961
0.247974
6.22972
8.2268
0.32302
0.136884
8.16526
8.07557
7.35723
0.470168
6.75593
0.719328
1.27916
1.11819
8.16901
7.35736
1.25832
8.17062
8.08255
8.19346
8.13481
7.44935
7.92842
7.80477
8.0963
8.06377
7.6727
8.45837
7.86035
1.18916
7.86541
7.13525
6.83458
8.87309
7.24384
8.17006
1.28192
7.65401
7.91348
1.31517
8.30666
8.60309
8.04456
1.28189
8.43689
1.28478
1.38384
1.12461
7.55798
8.12612
1.28905
1.34704
8.04109
8.22566
0.714378
7.49091
0.710152
7.42864
8.07285
7.9739
0.709366
0.70485
8.18432
1.01749
8.14469
7.64979
1.42037
0.391818
1.28415
8.134
0.71247
7.51875
1.07816
8.02462
8.0891
8.00475
7.32471
0.386091
0.458866
8.20832
1.06754
8.10154
8.11173
8.10007
8.13678
1.21197
1.20422
0.468396
1.67586
8.21467
0.902625
0.723495
0.361396
1.20722
8.17109
0.37078
1.22421
0.631411
1.37112
0.678663
8.11984
0.837472
1.23119
0.717652
1.23874
1.27831
8.1049
1.29585
7.98737
8.1759
0.593056
8.21192
0.909562
8.18896
8.12625
7.87295
8.09364
8.2194
1.21851
8.0869
1.02534
7.57917
8.09651
0.884227
1.20116
0.48918
0.992542
8.22852
2.26889
8.20882
1.0904
8.12707
0.879958
1.20407
1.23304
1.10534
8.14608
8.15181
8.07148
0.400253
8.10525
8.09326
0.397183
7.94397
7.99229
1.24138
8.14537
0.687561
1.3535
7.54288
7.73937
7.68841
0.457234
0.76366
8.1339
0.0189831
1.06335
7.41675
1.25235
8.19587
0.403218
0.891577
0.359724
8.12759
0.938951
0.49917
1.28752
1.21295
1.0344
8.15322
8.16213
1.51107
8.10186
8.02326
8.18027
0.401359
1.25819
0.52681
0.762659
7.31153
0.92911
0.717975
0.766823
0.87031
0.942954
1.1533
1.03085
8.03993
8.03706
8.03787
1.04074
8.09548
1.05514
6.00761
1.02413
1.23796
0.399612
0.201409
7.99446
8.18557
1.02645
1.02263
8.18422
8.0474
8.24034
0.437985
1.025
1.05545
1.06484
0.12272
0.718008
8.1057
8.2123
8.16689
0.114805
0.684591
0.0124309
0.786751
0.461383
1.07399
8.03746
8.16644
6.87877
7.9819
0.130716
0.930803
8.15557
8.10684
8.12208
8.23208
8.21252
7.91619
1.10162
8.12256
1.31714
1.59909
7.98446
1.08165
0.0491577
0.424364
8.2328
7.96455
1.09607
8.15537
1.10023
0.791632
0.463026
7.88074
6.48252
8.02827
8.12433
8.10425
7.8293
3.40441
8.09475
1.11813
0.531655
8.17007
8.1647
1.12491
8.10769
8.07196
0.629707
1.45171
8.0866
8.08445
7.90114
0.253392
8.15741
8.16009
2.64456
1.11789
1.12641
8.12901
7.98275
7.50015
1.12533
1.11708
1.12318
0.807376
8.01162
0.225564
0.0473421
0.0552225
8.09019
8.21535
8.16719
8.18969
8.15766
0.635527
0.645917
0.525119
8.24637
8.19403
8.15527
8.18323
7.97784
1.34945
0.157198
0.030485
7.96691
8.15046
8.27628
0.930114
1.25748
1.43221
8.07824
0.103482
8.34735
8.05446
8.16036
0.631979
0.700096
8.10014
8.09798
0.847687
8.163
0.462859
0.580845
3.90881
8.09509
7.98832
0.469331
1.34478
8.07745
3.75172
0.102825
0.927907
8.12322
8.10517
8.23645
8.1732
0.140508
0.332383
8.10629
1.3539
1.18811
1.86659
8.13456
8.10522
8.10065
8.10648
0.939997
8.45017
8.13713
7.98325
0.22674
1.04289
0.277746
8.04133
8.22041
1.18586
7.84878
8.16325
8.10937
8.12285
0.669071
7.91052
7.98258
7.99699
0.275161
0.695204
8.10233
8.20441
8.07293
0.80523
8.2629
8.08231
8.07591
8.20976
8.19685
1.5128
0.933137
8.28016
0.742413
0.930431
0.649923
8.24101
8.22767
8.14983
8.19809
7.99082
0.890056
8.13479
7.63801
7.68782
1.18547
7.85775
1.17588
8.15862
8.09558
1.4171
1.93937
7.45357
1.19786
8.13381
1.19254
8.31385
8.09912
8.14174
9.03313
8.10101
1.33494
8.0963
0.775125
8.10707
7.36486
8.20249
8.10175
0.25343
1.12349
8.03503
3.84777
8.14453
1.16587
1.3366
1.1042
8.152
1.38262
1.08207
1.34149
0.946294
1.22402
1.0906
7.90402
8.0013
1.13959
0.401231
1.10026
8.10513
7.83617
6.91302
4.34266
8.23995
7.97291
8.2068
8.23031
8.24707
8.38658
1.09934
1.39827
0.526778
7.30218
1.46403
8.20666
0.888483
8.1682
8.24715
8.06429
7.90908
1.37422
7.91097
8.14387
8.13253
0.766064
8.13781
8.18505
1.38879
8.08889
6.34022
5.68505
5.41769
8.233
5.5933
5.46025
5.55478
6.11149
8.00605
8.00624
0.756465
1.13493
7.38528
7.44876
8.01519
0.761201
8.30442
8.00771
1.36382
8.11149
8.15375
1.19542
1.39626
8.21408
7.98031
1.52324
7.35811
7.94605
1.38899
0.821111
0.821868
8.01094
0.82226
8.21884
0.510811
1.35075
0.812376
8.13891
1.35494
0.818486
8.12476
0.850337
8.07801
0.767739
7.7656
0.774034
8.00924
1.33187
8.09002
7.9069
8.10519
0.49486
0.501998
8.22896
0.833484
1.37588
8.2842
8.13666
0.618652
0.0503657
1.56334
8.23928
0.859602
0.847557
1.39946
1.00367
8.24615
1.52867
8.00313
1.48578
8.16862
0.30194
0.0820006
8.06993
0.538966
7.98977
1.38638
8.03582
8.0731
8.1067
8.18446
8.08683
8.15535
1.13793
0.647085
1.47482
8.10028
6.79771
1.47963
8.10474
8.21119
8.10194
8.22911
8.11194
0.0405687
8.13866
8.21473
7.99963
0.0333876
8.08001
8.04619
7.7803
0.144592
8.06332
0.125659
1.06621
1.08042
0.142717
0.114839
8.32964
8.10251
8.14345
0.171479
0.282454
7.88059
6.76943
0.140032
8.18228
8.22037
1.48498
8.07607
0.843627
8.09651
0.122799
1.37516
8.10345
8.00367
8.09709
8.2086
8.17934
1.40379
8.09739
0.143889
8.12821
8.12699
0.313078
8.10373
0.888862
7.97654
8.1843
1.14696
0.546345
1.50972
8.20739
8.21035
8.1471
0.543256
1.47402
8.12942
8.04543
7.86502
0.330707
8.09173
0.899932
1.49664
8.12254
8.10458
0.337638
8.16195
7.86143
8.06341
8.11885
8.08453
1.48156
6.69402
7.97238
8.19782
6.82769
8.10643
7.00686
8.05746
8.08628
8.01277
0.538256
8.05951
0.328837
8.03565
8.09853
1.63709
0.327084
8.0885
8.08633
8.1056
0.33081
7.18597
8.13622
7.9469
8.10137
0.367152
8.08941
1.48149
8.24082
1.07013
7.35388
1.27454
8.08894
8.17723
1.02716
7.05252
8.10026
0.279958
1.04966
8.24333
8.20721
1.13982
1.28213
0.339112
0.328608
0.326028
1.15055
0.338732
1.31811
8.12558
1.4722
6.81502
6.72519
8.13052
8.06566
8.17391
0.337444
8.23402
8.24039
8.22904
1.42506
1.30461
6.56481
1.18554
8.21571
1.22668
7.94231
1.41147
0.384011
6.87263
1.05745
8.06705
8.06118
8.03697
0.38513
1.07356
8.146
8.07477
0.376897
8.2066
1.54293
8.20307
1.48838
8.16218
8.03672
8.20764
8.03384
0.300161
8.03366
1.94346
8.10716
1.10722
8.13008
8.10823
5.25772
5.00169
8.11912
8.113
8.16722
8.21607
1.05087
1.52863
5.97747
8.20305
1.07848
8.01483
8.10136
1.34013
0.827113
1.45538
8.03974
0.209018
1.13488
0.571202
0.876546
8.17135
8.24626
8.24976
8.21252
8.04268
8.03418
8.0346
8.04721
8.03983
8.03461
8.15712
8.03096
1.47179
8.0366
8.10417
8.69886
8.21161
8.13168
3.91935
8.01214
8.11553
0.866453
1.53281
8.06093
8.22359
8.15503
0.769639
8.16569
8.15733
1.51049
8.07039
8.09829
8.17814
8.19909
1.41653
8.05757
1.52891
8.20145
8.16983
8.11778
8.13248
8.10762
1.51765
1.50124
0.434341
8.21391
7.95151
8.24859
1.51798
8.09577
1.49715
1.54782
8.06523
8.0915
6.56073
1.33916
8.06917
7.43191
1.34724
6.63025
1.17448
8.12351
1.33626
6.60164
6.20915
8.15801
1.0391
8.0741
1.04118
1.40061
8.09163
1.05433
1.41122
8.16238
1.40504
7.99271
8.07674
8.09615
8.06993
8.05204
8.02528
8.09551
8.23091
1.49261
7.50493
8.13999
8.1777
8.08716
8.08187
0.772794
4.98001
1.52709
1.48372
8.09777
1.002
0.99798
8.14721
7.41814
8.05912
8.06227
8.09221
8.13644
6.95854
7.54296
1.22556
8.12502
8.23819
6.60828
7.03568
8.04628
1.03194
8.06411
7.97725
8.20851
1.45854
8.23071
8.01407
1.15809
8.06087
8.11349
8.03215
8.28033
1.1654
8.12871
8.12099
8.10996
8.09585
1.23145
1.47332
1.47918
1.03816
1.29688
1.29573
8.07589
7.05149
1.54099
1.26741
7.04469
1.54192
8.19682
0.824
7.97642
1.46003
8.14287
7.97861
1.30323
0.563772
8.0895
1.26521
8.13916
8.17399
1.45525
1.41195
8.21187
8.02578
8.11045
8.04044
8.10607
7.21646
8.21402
8.17
1.25851
8.21609
8.15725
8.13118
1.31162
8.10697
7.24969
8.05379
8.0313
7.66762
7.34767
1.31063
7.9696
7.36103
0.783994
8.20246
1.25689
1.25742
8.1089
0.79996
8.16318
7.79877
8.23908
7.25332
8.11131
8.2201
8.24172
8.24082
0.80321
8.22195
8.18697
8.21928
8.0153
8.13739
8.05221
1.47039
8.15869
8.20482
1.40072
8.14709
8.04638
8.14897
0.808664
8.1237
1.39751
7.1788
1.38101
0.106513
8.03707
7.04896
0.777508
6.8308
8.03734
1.48567
1.36116
0.00202425
1.35362
1.48498
0.752982
8.13849
7.96159
0.978692
1.48658
1.45075
0.949251
1.39637
8.09968
0.185762
0.964855
0.968417
8.15265
0.966407
0.16121
0.566918
0.918684
1.46806
1.01017
0.237153
0.893869
0.0330342
0.42609
0.92619
7.26169
0.0986048
0.0123037
1.0387
1.19819
0.0672483
0.924522
0.0470224
7.38953
1.50591
7.3461
0.51314
0.978958
1.19956
0.73418
7.34042
8.04166
0.905136
0.745547
1.47322
1.47502
0.266142
0.970857
5.59559
0.980306
8.15866
1.69932
1.49081
1.3549
0.574448
1.48071
1.47996
1.11702
0.690533
0.680481
0.526077
0.975343
0.141969
6.6848
6.03098
0.980786
8.10716
8.15735
0.929032
0.955156
0.0934858
8.11462
1.35695
1.41121
0.684159
6.20546
8.15798
1.43168
0.0265395
1.49011
8.24668
0.263204
8.18034
0.729663
1.10328
1.31407
1.32759
8.10996
8.16462
1.44434
0.951517
0.966318
8.15987
0.764397
0.946566
1.19448
8.07029
0.697618
0.0743741
7.33371
0.569449
0.571647
1.42412
7.92852
1.39136
1.60166
8.1627
1.17171
0.119061
2.89022
1.17972
1.19611
0.231718
1.05787
1.17679
0.0906652
1.41533
1.43839
1.12306
0.210074
0.992477
1.49326
0.743963
1.18408
0.443163
0.93239
1.5036
0.24613
8.17082
1.18948
1.17905
1.46329
0.313768
1.35317
7.9762
1.18318
0.567844
8.1715
1.35755
0.0201831
1.19047
1.14584
0.154617
-0.00891886
1.03587
1.1394
1.38299
8.17367
8.15526
1.39394
8.13111
1.3981
1.39
7.92051
0.157413
1.20516
0.729929
8.21908
0.571508
0.640838
1.36179
1.47304
0.633582
0.284286
0.774488
1.28438
8.15733
8.07484
1.47148
1.26445
1.36503
0.818565
8.07454
1.26689
1.12036
7.91894
0.760631
0.986502
0.0062093
1.50533
1.30823
1.08771
0.261284
0.849365
8.13599
1.19343
0.613013
1.13152
1.51187
8.07639
1.32537
8.17328
8.14532
0.649655
1.09942
0.70135
1.80917
1.37386
2.87996
8.05244
1.09002
1.13279
0.772471
0.715271
8.1014
8.15212
8.14035
0.717691
0.71997
1.49381
0.564981
7.85225
8.08225
0.708684
0.799151
1.33983
0.719343
0.712827
0.869086
1.2847
5.2061
8.00581
1.08423
0.0951227
8.08057
1.00372
0.859868
1.63682
1.08972
0.853605
1.39262
8.08138
0.743729
0.883128
8.12443
7.86791
0.0743941
0.129914
0.307073
0.13867
0.860043
0.864323
0.234328
0.568729
0.80179
0.133816
8.07349
8.06314
0.0106185
0.159799
0.850316
1.56091
0.835617
0.795944
1.12252
0.706047
0.829906
8.02552
8.12987
1.53885
8.06868
7.2216
0.897701
0.573879
0.862871
1.52058
7.54252
1.32036
1.57848
7.65517
1.56637
1.48666
0.830861
0.837851
0.0705736
0.965086
1.45952
0.15485
8.14961
7.6094
1.43646
0.28396
0.701395
0.291744
1.32979
1.251
1.46646
7.63165
0.888517
0.233991
0.766096
1.54884
1.31194
1.44022
1.48851
0.87497
0.216592
7.54289
1.22462
0.855909
3.98081
7.24619
6.80089
0.782251
7.12055
0.0513398
0.76586
0.713875
0.965444
1.38838
5.78128
4.17379
8.25719
7.118
1.39144
8.03633
8.03638
0.723535
8.15107
0.570383
0.745785
0.683345
0.530624
0.560514
0.975704
6.80024
0.279144
0.133266
1.24339
0.930283
0.537301
0.874558
8.04568
1.49307
0.524613
1.07133
8.03789
1.16134
0.902004
8.03568
8.09383
1.34179
0.514447
8.21632
1.02913
0.926178
1.34225
8.1999
8.03343
0.0972621
1.47283
0.975386
8.04046
8.10148
8.0357
1.11003
3.77254
3.5716
0.344044
1.36329
8.24422
0.364929
1.37859
0.793498
0.109946
0.0929809
0.388346
1.33542
0.114588
8.18728
0.391512
0.23042
0.0430444
0.642942
0.161048
0.163459
0.162824
0.174142
0.0582737
1.40402
1.41157
0.869567
1.36342
1.47849
1.34642
0.16447
1.41818
0.177671
0.0499183
0.471948
0.3073
1.3645
0.300863
1.42738
0.336863
7.79577
0.883379
4.79162
0.659009
0.968297
8.12571
1.18387
7.79767
1.01169
7.82208
8.08033
0.710614
1.208
7.28308
0.283858
0.724014
1.19983
8.08351
8.2087
1.4355
0.391203
1.48773
0.652752
0.237786
1.17667
1.4789
1.13063
1.18783
6.92813
0.875866
8.05023
8.0844
0.506294
0.37197
1.52718
0.488572
0.331706
1.19543
1.22648
7.99086
1.46156
0.313277
1.17314
7.99808
8.23151
0.87732
1.01691
6.64683
1.35941
0.0500104
1.04835
-0.0231668
0.273912
0.665195
8.09545
5.39553
0.535953
1.44404
8.20128
0.512508
1.35734
1.08988
1.63162
0.532383
1.60137
0.876909
1.41741
5.66566
1.44118
8.12756
1.00725
1.20161
0.259439
0.0219547
7.07069
0.0288263
1.4433
1.14513
1.37919
7.69807
8.03505
0.563765
1.42926
1.15118
0.999211
1.35054
0.404342
0.0901496
0.760163
0.116804
0.0748172
1.36152
7.43707
1.51158
1.12403
0.00626212
1.33214
7.59051
7.99805
-0.141053
1.50168
8.33651
1.48794
1.24707
7.63579
5.79711
6.08568
1.21675
0.522558
1.84203
6.40042
1.32735
0.597273
7.8327
0.301186
7.23908
1.0878
0.413509
8.11776
0.0908491
1.34882
1.34582
0.370602
8.01631
1.44965
1.27944
1.40583
1.35142
1.40826
1.42181
1.2385
1.534
1.26854
0.22119
0.530111
8.08708
6.96715
6.97267
7.93017
1.15631
0.615148
0.545659
1.3232
0.315961
0.549742
1.04608
1.20979
1.16062
0.399429
1.25146
1.30849
1.1069
0.301557
8.1349
1.32942
1.31287
1.18455
1.26111
7.83375
0.712913
0.723381
1.00884
0.99275
0.800119
7.9675
0.802785
0.797686
7.23097
0.818334
1.12285
7.92906
0.796058
7.91647
8.14816
0.705211
1.18295
1.13168
0.796357
7.99451
0.148387
1.23718
8.14992
0.658617
0.827327
0.684364
1.15065
7.94685
1.20838
1.2055
1.08447
7.98463
0.595576
0.231807
1.09586
0.501781
0.617389
8.23853
7.80419
7.46504
0.061136
7.57495
0.567014
0.467261
0.165237
8.10186
0.1822
7.94537
8.13545
8.06761
0.690688
0.00575025
1.4899
1.09757
0.612656
7.75135
7.23739
1.35155
1.32691
0.48184
1.44742
0.608888
1.35543
8.13318
6.31785
6.4233
8.02052
6.47924
0.0393819
8.15525
0.574442
1.03244
0.610684
0.126014
0.718969
6.86517
0.470419
1.03681
1.20168
1.40139
6.90073
8.12481
1.24213
0.476501
1.47084
1.28073
1.47473
1.49574
1.45137
1.5015
0.389189
0.0877583
0.383696
1.03887
0.361585
1.04654
1.11593
0.255921
0.362863
1.46414
1.23112
1.28046
0.916463
0.670845
0.251151
1.40519
8.1468
0.831364
0.0739994
0.152114
0.0968391
0.0312273
1.04852
0.812972
-0.0795582
0.102243
1.5101
8.12434
0.572669
0.754544
0.856349
8.10084
0.639484
0.360207
0.106118
0.78011
8.24036
8.1131
1.12982
0.232706
0.225457
0.0495511
8.0234
8.17431
8.08039
0.861451
1.03966
0.210091
8.17351
0.574129
8.11433
8.12748
0.109066
0.0786425
7.97177
0.214605
0.223254
0.0194279
8.14055
8.20421
0.381658
1.049
8.12092
0.190363
0.210803
0.122926
8.15853
8.16278
8.13956
0.118772
0.188973
1.35427
0.206737
8.12635
0.166666
0.976501
1.3592
1.25733
7.89437
8.12012
0.19718
1.42264
1.38787
0.734042
7.89446
1.4928
8.04843
0.259868
1.48441
0.992923
7.94028
7.44818
1.43108
1.50195
7.3297
7.36647
8.05444
0.681074
7.78851
7.08434
1.02716
1.00891
8.05297
7.23617
0.886406
0.205969
0.199151
0.69114
0.580557
7.33314
1.05062
6.85956
6.72646
8.08045
0.717946
1.16019
0.186326
6.76044
8.51543
1.01871
1.48037
1.08477
1.17106
0.918405
0.817474
0.919128
0.213527
6.66328
0.9861
0.73114
0.21003
0.682491
1.15179
5.25674
0.661481
0.664382
0.663937
0.66369
0.24201
6.49806
7.52561
0.770258
7.56947
7.64134
0.918197
7.58382
0.568068
7.44652
7.51764
7.96765
7.27449
0.737563
0.255667
0.742444
7.42442
0.371581
0.701783
0.966064
7.52346
8.17077
0.745672
0.780913
1.50705
0.747921
7.25172
0.00773543
0.199239
0.141267
7.99474
8.00126
0.445764
0.377227
8.02679
7.54763
1.31633
0.0156538
7.41426
1.43965
1.30498
1.31371
0.813273
7.48078
0.917505
2.52853
0.109813
0.0937936
1.33525
1.29861
1.22184
0.522881
0.94675
7.34052
1.05198
0.943242
1.47559
1.41012
1.3169
7.50315
0.643289
0.962722
0.552624
0.808689
0.950899
1.44948
0.167824
1.37198
1.23632
1.32722
0.395712
1.33071
1.4085
0.934699
1.14111
8.12752
1.33327
8.24289
0.928925
0.967697
1.33005
1.38244
1.31529
0.938355
0.946506
1.43091
0.736995
0.265625
7.97683
6.43433
1.38624
1.39066
1.107
1.40199
1.50264
1.41517
1.50685
1.57429
6.64648
0.250662
1.59286
0.235511
6.84288
0.0341627
6.45643
0.720119
0.931861
1.4152
0.668443
8.14769
0.913698
1.46267
-0.128876
8.04006
1.48759
0.224289
1.22289
1.48178
1.49512
6.51017
8.03083
0.671795
0.991017
0.538001
0.989977
0.89339
0.995409
1.53416
7.06025
0.0783713
6.86158
1.02493
0.242253
1.06505
8.19638
6.04831
1.41522
1.00384
0.732383
1.06984
8.03689
1.07141
1.07559
0.0806467
1.07293
3.95975
2.74532
1.09013
8.13364
8.00323
0.650994
3.88206
1.39546
8.20774
0.497035
8.07093
0.968342
8.1195
0.318585
1.37006
1.38397
1.06716
1.12364
0.968737
1.29724
1.49316
0.103226
1.40887
0.61484
1.39608
7.79401
0.36453
7.98515
1.12998
1.13935
0.901059
0.805971
1.11723
0.129217
0.720119
1.09519
1.09354
1.42732
1.29148
1.44232
8.19298
1.10011
0.269939
1.04982
0.248658
1.11107
1.00382
0.366673
1.49965
0.999878
1.09557
1.01061
0.626107
1.13191
0.920161
8.00251
7.99433
0.958884
0.988864
1.22622
8.05725
0.806671
0.0977742
0.948857
0.718197
0.458293
0.759046
0.645259
0.996021
0.0134591
0.573707
1.28414
0.488421
0.855276
0.772394