/*--------------------------------*- C++ -*----------------------------------*\
  =========                 |
  \\      /  F ield         | OpenFOAM: The Open Source CFD Toolbox
   \\    /   O peration     | Website:  https://openfoam.org
    \\  /    A nd           | Version:  10
     \\/     M anipulation  |
\*---------------------------------------------------------------------------*/
FoamFile
{
    format      ascii;
    class       surfaceScalarField;
    location    "87";
    object      phi;
}
// * * * * * * * * * * * * * * * * * * * * * * * * * * * * * * * * * * * * * //

dimensions      [0 3 -1 0 0 0 0];

internalField   nonuniform List<scalar> 
109758
(
-3.19032e-06
0.00121988
-0.00121669
-0.00125268
0.00128852
-3.58437e-05
0.000104123
-0.00114988
0.00104575
-0.00144006
8.7881e-05
0.00135218
0.00146234
-0.000168325
-0.00125779
-3.62285e-05
-0.000405294
0.000396327
8.96713e-06
-0.00110845
-6.47689e-06
0.00111492
0.00202384
-0.000255889
-0.000384871
-0.00138308
-2.3726e-05
0.000849314
1.44642e-05
-0.000840052
0.000466465
-7.22231e-05
0.000596539
-0.000990781
-3.94189e-06
0.000586479
-0.000582537
0.00187437
-0.00152688
-0.00143888
0.00109139
0.000320904
0.00125913
-0.0014378
-0.000142235
0.00118865
-0.00121938
3.07248e-05
-0.000973993
0.00110819
0.00132814
0.000691426
-0.000946116
-0.000684482
0.000939172
0.000819589
-0.00157362
0.00140326
-0.000649232
0.0014843
0.000242368
-0.00110139
-0.000625278
0.00150007
0.000227955
-0.00121147
-0.000516555
-0.00144003
0.000171263
-0.000108862
0.00137763
0.000215893
-0.000290442
7.4549e-05
-2.63799e-05
-0.00119637
0.000285655
0.000937092
-0.000275504
0.000847613
-0.000572109
0.000251248
-0.000301533
0.00102946
0.00116203
0.000420255
-0.000405334
-0.00117695
1.76998e-05
0.000563468
0.00090313
0.0012414
0.00151639
-0.00194186
-0.000815936
-0.00109122
0.00108142
9.79784e-06
3.4166e-05
0.00112787
0.00149193
-0.00102644
0.00079522
-0.00126071
-0.00146095
0.00152968
-8.43022e-05
1.5565e-05
-4.99006e-05
0.000604483
-0.000554582
-1.45822e-05
0.000898731
-3.47306e-05
-0.000849418
-0.000827253
0.000824102
3.15062e-06
-0.000123991
-0.0013175
0.00110486
0.000336628
-0.00115981
0.00212098
-0.000718802
0.000577915
0.000169879
-0.000747794
0.000198062
0.0010398
-0.00147417
0.000236313
-0.000252275
-0.00111667
8.16263e-06
0.00136078
0.00114047
5.11895e-06
-0.00114559
0.00167383
-0.00110248
0.000734922
-0.00130626
-0.000392233
-0.000504919
0.000676483
0.000220668
-3.41614e-05
3.33055e-05
0.00167468
-0.00144721
0.00142462
1.32347e-05
9.35306e-06
0.000796995
-0.000798021
1.02609e-06
0.000330641
-0.00214982
-0.000329169
0.00214835
0.000997941
-0.00028263
-0.000251215
-0.000464096
-0.00111255
0.00138815
-0.000195407
-8.01921e-05
1.65604e-05
0.00102434
-0.0010409
-0.00224761
0.000142304
0.000187782
0.00191752
0.00107968
-0.000522353
0.000520004
-0.00107733
0.000398924
0.000616717
1.43373e-05
0.00140048
-0.00141482
-0.00105835
0.00106189
-3.54937e-06
-0.00122004
0.00125421
-0.000329721
-0.00175407
-0.00043075
0.00251454
-0.00228281
0.00318365
-0.000667435
-0.0002334
-0.00111418
0.000983052
0.00117052
-0.00103939
-0.00180371
0.000708473
-5.92422e-05
0.00115448
-0.000718949
0.000264339
0.000646371
-0.000191761
-0.00149364
0.00142215
7.14864e-05
-0.00323422
0.000189507
0.00163171
0.001413
-0.000314195
0.0013014
-0.00124957
0.000262363
0.00156927
0.00151346
-0.00189094
-0.00113796
0.00151544
-0.00190108
0.000921694
0.000514723
0.000464659
0.00139261
-0.00153986
-0.000857908
0.00100516
-0.00147634
9.85686e-05
0.00034915
0.00102862
-0.00112268
-0.000798881
0.000445215
0.00107497
-7.64979e-05
-9.37212e-05
-0.000904746
0.00100521
-0.000590632
0.000373159
-0.000787737
0.00141975
5.18402e-05
0.000602383
-0.00207397
-0.000520847
0.000192178
0.000328669
-0.00211816
0.00134784
0.00158089
-0.000810568
0.00080301
-0.000759554
-4.34555e-05
-0.000628262
0.000202422
-0.00169232
0.000106483
-0.000881198
-0.00028363
-0.000270519
5.60051e-05
-0.000860653
0.00107517
0.00174248
-0.00158309
-0.000333494
0.000174103
-0.00170483
0.00153668
-0.00105188
0.00119821
-0.000810942
-0.00100337
0.000616102
-0.000650734
0.00269958
-0.00135002
-0.000698825
-0.000152304
8.22879e-05
0.00152946
-0.00145944
3.63983e-05
0.00216825
0.000227606
-0.00243225
0.000866653
-0.00157356
-0.000131975
0.000838876
0.00123805
-0.000233151
-0.000898418
0.000128777
0.000991277
-0.00135853
0.000238479
0.000543358
0.00204819
0.000129528
-0.00272107
0.000961938
-0.00113406
0.000180274
-8.14815e-06
0.000655168
0.000735456
-0.00276356
0.00137294
0.000933334
-0.00010368
6.16143e-05
-0.000891269
0.00199179
-0.00149349
-0.00296907
0.00247077
0.00169103
-0.00190379
0.000844342
-0.000631583
2.06103e-05
-0.00159274
0.00146395
0.000108184
0.00164641
-0.00115281
-0.000363114
-0.000130485
0.000889511
2.08677e-05
-0.000910378
-0.0017005
0.000294021
0.00118726
0.00021922
0.001115
0.000743629
0.00057125
-0.00242988
0.000919001
-0.00165756
0.00114789
0.00249095
-0.00144436
-0.00219448
0.000917406
1.59533e-06
-0.000367386
0.00119334
0.00119927
-0.00202522
0.00105164
0.000300451
-0.000149006
-0.00120308
8.13068e-05
0.000922293
-0.0010036
0.00141388
-0.000116722
5.53274e-05
-0.00135248
-0.000577877
-1.89754e-06
0.000579774
-0.00132411
0.00102149
-0.000798767
-0.000237698
0.0017964
-0.00188908
0.000330386
0.000431874
-0.00036275
-0.00145275
0.00138363
0.000287593
-0.000293292
-0.000681616
0.000687315
-0.000368711
-0.000989324
0.00123681
0.000121225
0.000447834
-0.00121933
0.00126877
-0.000497278
0.000927853
0.000283575
-9.27802e-06
-0.00054947
-9.87635e-05
0.000657512
0.000179576
0.000352956
-0.00203725
0.00150472
-0.00131194
0.00016644
0.00134822
-0.000202721
0.000973617
0.00015818
9.90364e-05
-0.00123083
0.000205013
0.000768604
0.00143165
0.000288439
-0.00156191
-0.000766615
-0.000873123
0.00130309
0.000336644
0.00135803
0.000183631
0.000199572
-0.00174123
-0.00146799
0.00125522
-0.000411803
0.000624576
0.00134627
0.000290399
-0.00104609
0.00117848
-0.00108772
0.000955325
0.00146318
-0.000211197
-0.000286437
-0.000965544
4.01859e-05
-0.00160661
0.00174201
-0.000175589
-0.00152934
-3.75935e-05
-0.000422812
0.00198974
0.000938756
0.000505932
-0.00148564
4.09529e-05
-0.00101894
9.45149e-05
0.000894838
2.95918e-05
0.000184212
5.69001e-05
-0.00188305
0.00164194
-0.000930535
-6.15706e-06
0.000936692
0.000193161
0.0013321
-0.00134105
-0.00106141
0.00142124
-0.000773875
0.000414049
-0.0012126
-0.000777959
0.00157843
0.000412137
0.00127427
0.000244321
-0.000722732
-0.000795863
-0.00201021
-2.81347e-05
-0.000282965
0.00232131
-0.00129462
-0.000777599
0.000565875
0.00150635
0.00177656
-0.00174069
-0.00011205
7.61726e-05
-0.00026376
-0.000789098
-0.000701209
0.00146079
0.00108167
0.000271161
-0.00281362
0.00211355
0.000267146
-0.00234429
0.000214716
0.00110499
-0.00131971
3.51829e-05
-0.00108863
0.00105345
-0.00103479
-0.000214748
0.000197584
0.00105195
9.21859e-05
0.00134678
-0.00128485
-0.000154113
-0.00221981
-0.000254855
0.000576583
0.00189808
0.00122521
-0.00129638
0.00110861
-0.00103743
0.00015916
0.000143143
0.000922906
-0.000874118
0.00084754
2.65788e-05
-0.000919777
3.027e-05
0.00133308
-0.000443569
0.000264773
-0.000672131
-0.000493036
0.000900394
0.000674461
-0.000702074
2.76124e-05
-0.000961829
0.000910022
-0.000218713
-5.08462e-05
-0.00101117
-1.05864e-05
0.0010726
0.00171122
-0.000192392
-0.00108589
-0.000432932
-0.000408183
-0.00186734
0.00250691
-0.000231384
-0.00162341
0.000562172
-0.00135661
0.00151468
-0.000158063
-0.000731677
0.000659184
-0.00102721
0.00109971
0.000547795
-0.000670696
-0.000497653
0.000620554
-0.000920529
-0.00126231
0.00100161
0.00118123
5.03278e-05
0.00141135
-0.000139986
-0.00132169
-0.000358595
0.00170979
-0.000286493
-0.00106471
-0.00159266
0.00134675
-9.64219e-05
0.000342328
-0.00117005
0.000933227
-0.00100752
0.00124434
0.00121548
6.63239e-06
-0.00122212
-0.0018019
0.000389473
0.00176157
-0.000345175
0.00142177
-0.0010766
8.78463e-05
0.00143508
-0.00152293
0.00019794
0.00123674
-0.00189564
0.000460952
-0.000951332
-0.000989067
0.00106156
0.000878843
0.000694126
-0.000200666
0.00051175
-0.00142011
0.00148315
-3.79832e-05
-2.50546e-05
-0.00141763
1.41176e-05
-1.6597e-05
0.000752256
-0.000451126
0.00184955
-0.00215068
-6.86012e-05
0.00180461
-0.00173601
-0.00118323
0.000849691
-6.6221e-06
0.000340159
-0.000902715
-0.00109784
0.00200056
-0.000674705
-0.00025329
0.000927995
0.0010046
1.25761e-05
-0.00101718
-0.00159618
-2.57912e-05
0.00131306
0.000308911
-0.000461666
0.000638593
0.000839055
-0.00101598
-0.0017676
0.000484136
0.000821797
0.00172074
-0.00271127
0.000575304
0.000415231
-0.00144933
0.00146275
-3.98147e-05
2.63954e-05
0.00193047
-0.0019297
-1.55932e-05
1.48227e-05
-0.0010905
1.53962e-05
0.000268983
0.000806124
7.65137e-05
-0.00113689
0.00106038
-0.00123426
-0.00175227
0.00118841
0.00179812
0.000148951
0.00161167
-0.00074621
-0.00101441
2.0327e-05
-0.00155704
-2.33183e-05
0.00156003
0.000256095
0.00139847
0.000329888
-0.00198445
0.000203743
0.00139802
-0.00147292
-0.000128844
-7.4755e-05
-0.00109357
0.00137207
-0.000894742
-0.000757652
0.000384943
0.00126745
0.000841607
4.83181e-05
-0.000889925
0.00135877
0.00130392
-0.0015745
-0.00108818
1.71676e-05
-0.0010821
0.00106493
0.000302646
0.000132565
5.90787e-05
-0.00049429
-0.00142042
-2.27971e-05
0.000469912
0.000973301
-0.00104621
-0.000536677
0.00158289
0.000845601
-0.00111026
0.000393594
-0.000128936
-0.00146894
0.000185139
0.00134018
-5.63847e-05
-0.00147999
0.00179846
-0.00141291
0.00109444
-5.92766e-06
-0.000888814
-0.00114272
0.00111069
3.20334e-05
-0.00147871
-0.000770749
0.000146057
0.0021034
-0.000136585
0.0013004
-0.00116382
0.00103751
-0.000815786
-0.000221725
0.000925043
-0.00093097
-0.00111196
-1.8884e-07
0.00111215
0.000508602
0.00138602
-1.33914e-05
-0.00188123
-0.00113551
0.00017299
0.000962519
-0.0012633
-0.000444588
0.00131581
0.000392082
-0.00190957
0.00026247
0.00186421
-0.000217112
0.000944199
-0.000916799
-2.74001e-05
-0.000726216
-0.00101909
0.00390905
-0.00216374
-0.00148232
0.000543009
-0.000373399
0.00131271
-0.000750821
-0.000179472
-0.00117523
0.00210553
-4.2692e-06
2.69513e-06
0.00130691
-0.00130534
0.000708122
-0.0020971
0.00285918
-0.00147021
-0.00121626
0.00121199
0.0015571
0.000401072
-0.00190737
-5.07964e-05
0.00108531
0.000148463
-0.00136322
0.000129454
0.000950345
0.000445362
-0.00159416
0.000198457
0.000903615
0.000181691
-0.000541829
0.00169141
-8.92315e-05
-0.00106035
0.000326685
-0.00148646
0.00190081
-0.000741026
-0.00167252
0.000121845
-4.38632e-07
0.00155112
0.000971329
0.00374458
-0.000593686
-0.00412222
0.000450123
0.000343073
-0.000596685
-0.000196511
0.000310163
0.0011236
-0.000508282
-0.000925475
-0.000905613
0.000884293
-0.000520508
-5.06798e-06
0.00169152
4.96583e-06
0.0013353
-0.00135024
0.000213998
-0.000199059
0.000316213
-0.0001057
0.000806878
-0.00101739
-0.00130098
0.00126668
0.000182764
0.000392562
-0.000768645
-0.000879933
0.00125602
0.000542001
0.00150815
-0.00150679
0.00112911
-0.00147853
0.000199698
0.000149716
0.00111297
2.06837e-07
-0.00111318
0.00242812
-0.00249728
0.00202066
-0.0019515
0.000370261
-0.000955482
-0.000476574
0.00106179
0.000384902
0.000204412
-0.00163413
0.000974092
-0.000580766
0.00124081
-0.00200265
0.000452149
0.0016851
-0.000134599
-0.00156231
-0.000862137
0.00313257
-0.000158726
0.0019183
-0.000633177
-0.0011264
0.000924593
-0.000466554
0.00171247
-0.00217051
0.000184426
-0.000870267
0.000741016
-5.51743e-05
-0.000382681
-0.00125566
0.0014425
0.000195848
0.00108111
-0.000611831
-0.000439662
-2.96125e-05
0.000548058
0.000229709
0.000290557
-0.00106833
-0.000776211
0.000995616
-0.000219405
0.000889422
-0.000828531
0.000123535
3.05073e-05
-0.00135781
0.0013273
0.00104323
-0.00121553
-0.000210387
0.000264639
0.00118148
-0.000265101
-0.00118102
-3.99685e-06
-0.00096385
0.000967847
0.000524868
0.00161286
-0.0008835
-0.00125423
-8.90948e-05
-0.000627017
-0.000427904
0.00114402
-0.00029464
-0.00162195
1.07548e-05
0.00190584
-0.00102994
0.000416978
0.00125933
-0.000646364
7.62284e-05
0.000967006
-0.000857673
0.000933902
0.000926281
0.00024759
9.96428e-05
-0.00127351
-0.000489268
0.00218877
-0.000142403
-8.91669e-05
-0.000621696
0.00056673
0.000144133
-0.000206152
0.00243521
-0.000115509
0.00197588
-0.00102621
-0.000424805
0.0022537
-0.000275432
-0.00120927
0.0018075
-0.000322793
-0.00228018
0.00191528
0.000936671
-0.000571769
5.77208e-05
0.00104783
0.000870329
-0.00100404
-0.00131893
0.00139244
-0.000716482
-0.0009883
0.00190979
-0.00020501
0.000740359
0.000843267
-0.00158363
2.61977e-05
0.000168861
0.00222427
-0.00241932
-0.00117463
0.000992977
0.00144023
-0.00125857
0.00135765
-0.00214587
0.00172482
-0.000936603
0.000449864
-2.28575e-05
-0.000427007
-0.000923929
-0.000517181
0.000171919
0.00126919
-0.000473734
-0.000679164
8.94689e-05
0.00117076
-0.000968981
-0.000291245
0.00098441
-0.00102502
4.06055e-05
0.000109461
-0.00130636
0.00137851
-0.000181606
0.00114614
-0.00282831
0.00139764
0.000284528
0.000655432
-0.000874362
0.000218931
0.000867502
-0.000110699
-0.000859766
0.000102963
-0.000174064
-0.00286959
0.00259046
0.000453196
-0.00113325
0.000195156
0.00132079
-0.000382696
-0.00118631
3.82081e-05
0.0011481
0.00118296
0.000200056
0.000785234
-0.000590195
-4.90241e-05
0.00152864
0.000102766
-0.00168147
0.00140464
-6.39951e-05
0.00116676
-0.00110276
-0.000816949
0.000505914
0.00135505
-0.00104402
-0.00018598
0.00155266
-4.38524e-05
-0.00132283
-0.000187238
0.00144232
-0.000975392
-0.00027969
-0.00100245
-2.22209e-05
0.00118133
-0.000156661
0.000832419
-0.0017401
0.000949974
-4.22932e-05
-0.000891555
0.000696966
-0.000716476
0.000911065
0.000863738
3.41357e-05
-0.000100879
0.000132404
-0.00125903
-0.000303375
0.00143
-0.000258143
-0.00138333
0.000618348
0.00102312
0.000493547
-2.11756e-05
0.00113425
0.000275171
-0.00138825
0.000581738
-0.000410089
0.00117228
-0.00134393
-0.000751413
0.000930931
0.00124243
-0.00142195
0.0020344
0.00051069
-0.00205155
1.28347e-07
-0.00121046
0.00121033
7.48629e-06
-0.00122642
0.00127534
-5.64129e-05
2.39059e-05
0.00131062
-0.00117892
-0.00015561
0.000394341
-0.00198937
-6.49563e-05
0.00165999
-0.00110095
0.00132101
-0.000220059
0.000202254
-9.2416e-05
0.0013259
-0.00143574
-0.00102586
0.000227835
-0.000709005
0.00107355
-0.00143077
0.00106622
-0.000327225
-8.10695e-05
0.000408295
0.00324053
-0.00158162
-0.000703462
-0.000955453
0.00130479
0.00334327
-0.00140753
0.00216044
-0.00199883
0.000188986
0.00110084
-0.000852265
0.00121913
-0.000386484
1.96236e-05
-0.000258761
5.12375e-05
0.00178841
-0.001251
0.000470933
0.000960681
-0.000180611
-0.00105226
0.00174107
0.000130785
0.00122123
-0.00139806
0.000708612
-0.000531784
0.000181379
0.00245659
-0.00243571
0.000735104
6.38929e-07
-0.000735742
-3.81136e-07
-0.00095662
0.000957001
0.00170507
0.000137892
-0.000381594
-0.00146137
0.00221023
-0.000712139
-0.000935283
-0.000562806
-0.000139829
-0.00280396
0.000846695
-8.6145e-06
-0.000679284
0.000687899
0.00147048
-0.00134926
-0.00133356
0.00121234
0.00106482
0.000444024
-0.00125275
0.00086408
-0.000532509
-0.00131813
0.000986554
-0.00104281
-9.41957e-06
-0.000803485
0.00185571
-0.00159304
-6.82528e-06
0.00159987
0.000993014
9.37505e-05
-0.00105663
-3.0138e-05
-0.00127232
-2.08186e-05
0.00129313
6.42914e-05
0.00107033
-0.00113462
-0.000782631
0.00173423
-0.000125975
-0.000825622
-0.00187845
0.00226238
0.00142709
-0.00181102
0.000901208
0.000769377
-0.000208426
0.00133807
-0.000865031
-0.000264617
-0.000229721
-7.7898e-05
-0.00115527
0.00146289
0.00130449
-0.00114735
0.000912636
-0.00106978
-0.00123774
0.00128823
-5.0494e-05
-0.00151432
0.00025332
0.00130058
-3.95857e-05
-0.00264271
0.000528684
0.00201071
0.000103315
0.000260877
-0.000334908
-0.00130878
0.00138281
0.00190151
0.000181184
-0.00109221
-0.00099049
0.0010345
-0.000786387
-0.00104199
0.000793879
0.00119116
1.198e-05
-0.00120314
0.000110072
-0.00202638
0.00148278
0.000433526
0.000752763
0.000448908
-0.000300462
0.000273698
-0.000881878
0.00128583
-0.00067765
-0.000545331
0.000529508
-0.000121952
0.000137775
-0.00362618
0.00437318
0.00141028
-0.00215728
0.00181973
-1.19128e-05
-0.00181896
1.11401e-05
9.1309e-06
0.00146348
-0.00157283
0.00010022
-0.00219283
0.00192113
-0.000510936
0.000974384
0.00121973
-0.0011039
-0.00109021
-0.000967717
-6.94978e-05
-0.000105247
0.00114246
0.00101052
5.27205e-05
-0.00106324
0.00128827
-7.10624e-05
-0.00121721
-0.00227759
0.00214629
8.4494e-05
4.68079e-05
7.0649e-05
0.00146789
-7.19278e-05
-0.00146661
0.000909422
0.000458533
-0.00297749
0.00160954
-0.000630632
0.00063064
-7.41275e-09
0.000924179
2.11443e-06
-0.000926294
-4.68779e-07
-0.000556872
0.00055734
-0.000530736
0.00108031
0.000725882
-0.00127546
3.53574e-06
-0.00114346
0.000897119
0.000242805
-0.0012832
-0.000526045
-0.000468349
3.2586e-06
-0.000888553
-0.000132241
0.00101753
-0.000687379
1.28563e-05
0.000674523
0.000235014
0.000729256
-0.000237598
-0.000726672
0.00050284
-0.000895074
0.000392234
-0.000243039
-0.000833083
-0.000310437
0.00138656
0.00070948
0.000940655
0.000138597
-0.00178873
0.00185643
-0.000675193
-0.000601585
-0.000579648
-6.80722e-05
-0.00153316
0.0017869
-0.000185673
0.000735965
0.000387733
0.000212242
-0.00133594
0.0023203
0.00103344
-0.00217624
-0.00117749
-2.8418e-06
0.000587577
-0.000584735
-0.00137317
4.0854e-05
0.000317674
0.00101464
-0.00134584
-0.000149405
0.0015311
-3.58619e-05
0.000374637
-0.000468988
0.00191408
-0.000476429
0.000629258
-0.000152829
0.000937426
2.69503e-05
-0.000964376
0.000194434
0.000122403
-0.00123672
0.000919886
0.00131831
-0.000129744
-0.00122676
3.81893e-05
-0.0011134
-7.84353e-07
0.000237579
0.00032201
-0.00146094
0.00090135
-0.00135677
9.78364e-05
0.00125894
-5.32447e-05
-0.000949206
-0.000123771
0.00208953
0.000147247
-0.002113
0.0011165
-0.00118253
6.60278e-05
-0.00119419
0.0011814
1.27897e-05
0.000959585
-0.00108336
0.000262535
0.000876309
0.0010891
-0.00222795
-0.00117262
-0.000640138
0.00181276
-9.07844e-06
0.000836216
-0.000827138
-1.95274e-05
-0.000909642
0.000929169
0.00111457
-0.0011077
-6.87519e-06
-0.00123532
4.73831e-05
0.001242
-5.40626e-05
0.000302159
-0.0013908
0.00106226
0.000693744
0.000583339
-0.00233834
0.00106125
0.000721231
4.94555e-06
-0.000726177
4.73483e-05
0.00136518
-0.00141253
0.000672031
2.43055e-06
-0.00153955
0.00137048
0.00129889
-0.00112982
-0.000969649
0.000122978
0.00124338
-0.000396714
0.00169646
-0.0024443
0.000590934
0.00015691
-0.00218969
0.000487558
-0.00104565
0.00115585
-0.000110205
2.5471e-05
-0.00115971
0.00113424
-0.0010032
-1.97592e-05
0.00102296
-0.00117457
6.30504e-06
0.00116826
0.00112362
-0.00123202
0.000108404
1.35845e-05
0.00173462
-0.00174821
-0.000256877
-0.000234227
0.00124387
0.00123781
-0.0012928
-0.000883962
0.00093895
-0.000698676
0.0001273
0.00135655
-0.000785179
0.000666916
-0.00156863
-0.00010148
-7.29711e-05
0.00153351
-0.00146054
0.00045491
0.000424167
-0.000580047
-0.00029903
-0.000706417
0.00115822
-0.00139179
0.000939989
-0.001124
-0.000427008
0.00155101
0.00227607
-0.00140342
-0.000872641
-0.000432104
0.00163506
0.00107134
-0.00227429
-0.0011864
0.00143892
-0.00143576
0.00118323
0.000508891
-0.000382322
-0.000584576
0.000458007
2.12525e-05
-1.36382e-05
-0.00127994
0.00127233
-0.000119299
-0.00180377
0.00192307
0.000404993
5.33189e-05
-0.00152678
0.00106847
-0.00150305
0.00116642
0.000336634
-0.000702811
-0.000351916
0.00101383
4.0898e-05
-0.000991032
0.000985992
5.03977e-06
0.000963446
-0.000814843
0.00120905
-1.03723e-05
-0.00157777
0.00158068
7.45805e-06
0.00304721
-0.000787983
-0.00152944
-0.000729785
-0.000471361
0.00166301
7.99804e-06
-0.00119965
-0.000550115
0.000819085
0.000457371
-0.000726341
-0.00132476
0.000778041
0.00137622
-0.000829505
0.000727343
-0.0008685
-0.000339367
0.00150741
3.97586e-05
-0.0012078
0.00090634
-0.000999648
0.000103577
-0.00213752
2.41303e-05
-2.11683e-05
0.00213455
-0.000297294
-8.38211e-05
-0.000799603
0.00118072
-0.00108433
0.0013948
-0.00110857
0.000798103
-0.00247904
-0.000334653
0.00260754
-0.00160744
2.26914e-05
0.00160913
-2.43775e-05
0.00100649
0.000162809
-0.0006788
-0.000490495
-0.000317234
-0.00123363
0.000655373
0.000895492
0.00106765
-0.000418618
-0.00140721
0.000758182
-0.00138743
-0.000357699
-3.09083e-05
0.00177604
0.00111012
-0.000136196
-0.00101856
4.46329e-05
0.000940083
-0.000944042
3.9585e-06
-0.00074555
0.00242683
-0.002016
0.000334718
0.000156314
0.00143146
-0.0023035
0.00071573
-0.00094532
-0.000307826
0.00099339
0.000259756
0.00033011
-0.000316875
-0.000958555
0.000822375
3.316e-05
0.000161054
-0.00101659
-8.82698e-05
0.000615853
-0.0026651
-0.00138856
2.84938e-05
0.00178203
-0.000421964
-0.000995176
0.00116128
-0.000166106
0.00048979
-0.000459338
-0.000649099
0.000618647
-0.000700635
-0.00128678
0.000808942
0.00117847
-0.000577182
0.00179593
-0.00066147
-0.000557274
-0.00148042
1.02528e-05
-0.00129569
0.00161555
-3.92134e-05
3.45926e-05
-0.00128146
0.00128608
0.00123734
0.00132705
-0.00141033
-0.00115406
0.000982106
-0.001013
3.08971e-05
0.00125368
-7.86629e-06
-0.00124582
0.00106973
-0.00124165
0.0003513
-0.000179383
-0.000312074
-0.000915243
0.00222071
-0.00164465
0.00141174
-0.000212791
0.000445704
0.000547145
-0.00074462
0.00176754
-0.00157006
-0.00157603
-0.00114995
0.00187387
0.000852106
-8.45255e-05
-0.00173662
0.00017649
0.000274844
-0.00144882
-1.18853e-05
0.00118587
0.001335
0.000351587
0.00180881
-0.00158397
-0.000594443
0.000369602
-0.00133912
0.00132918
0.00108383
-0.00107388
0.00101471
0.000503322
-0.001152
-0.000366035
0.000508307
-0.00111707
0.000928048
-0.000319281
0.00139175
-0.00114096
-0.0018129
0.00156211
0.00145935
-0.00162443
8.05588e-05
-0.000901073
0.000905035
-3.96173e-06
0.000112616
-0.000102092
0.00151072
-0.00180489
0.00170269
-0.00140851
0.00111973
-0.00100712
0.0011374
-0.00122992
-3.76041e-05
0.000130122
-2.44458e-05
-0.000519487
0.000543933
-0.000123568
-0.00103694
0.00124387
-8.33638e-05
0.00191013
-0.00171908
0.00013574
-0.000326795
0.000204318
-0.0022669
0.000184139
0.00169606
-0.001736
-0.000187502
0.000227441
0.000371553
0.000279053
0.000461247
-0.00111185
-0.000100999
0.000948675
0.000923884
-0.00177156
-8.04547e-05
-0.00117137
-0.00032527
0.00157709
-0.00057028
0.00170888
-0.000464651
-0.000673944
-0.00106834
0.000453079
0.00168499
0.00104578
-0.00211862
0.000232253
0.000840582
-0.000305331
7.13942e-05
0.00193
0.000313011
0.00142701
-0.000488565
-0.00125146
-5.18936e-05
5.40541e-05
-0.00123878
0.00123662
0.00185861
0.00010445
-1.30837e-05
-0.00194998
0.00103639
0.000454095
-0.000412047
-0.00107844
-0.00112278
-0.000479897
0.000534343
9.19169e-05
0.000648198
-0.000657841
-8.22735e-05
0.000189502
1.63491e-05
-0.0014475
0.00100858
-0.00052731
-0.000136938
-0.000344335
0.000148166
0.000701587
-9.81238e-05
-0.000751629
-0.00112207
0.000962915
0.00120493
0.000743301
-0.00323126
0.000629973
0.00185799
0.000176843
-2.97821e-05
3.30021e-05
0.00127206
-0.00127528
0.00220461
-0.000708035
-0.000732171
-0.000764406
-0.00107616
1.36971e-05
0.00147781
-0.000415351
-0.00013629
-0.00103831
0.00125229
-7.76936e-05
0.00104301
-0.00142212
-0.000694697
0.0010738
-0.000986738
0.000958566
2.81714e-05
-2.94985e-05
0.000952356
-0.000922857
-0.000466133
-0.00109054
-0.000402455
0.00195913
-0.000810004
0.000906464
-9.64599e-05
-0.00015296
-0.00132768
-0.000334602
0.00181524
-0.0023432
0.000863885
-0.0012788
0.00275812
-0.00160393
3.71583e-05
0.00156677
0.000757878
0.000839145
-0.000810991
-0.000786031
0.000976152
-0.00055923
-0.000184669
-0.000232254
0.00130379
2.83996e-05
-0.00133219
0.00124571
-0.00372526
0.000136347
0.000845558
-3.13742e-05
-0.000814183
-0.00144439
-0.000572972
0.00194078
7.65791e-05
-0.000876885
0.00452868
-0.00277263
-0.000879164
-0.00263805
0.00317648
-0.000465199
-7.32267e-05
0.00157645
-0.000908637
0.00219137
-0.00077183
-0.00168097
0.00248288
-3.00862e-05
-4.82631e-06
-0.000121823
-0.000680345
0.000806995
0.00148842
0.00190647
-0.00216844
-0.00122645
-0.00152939
0.00180803
0.000496051
-0.000774693
0.00169575
-0.000310945
-0.000663186
-0.000721622
0.000145222
-0.00108547
-0.000188665
0.00112891
-0.00322223
9.97285e-05
0.00164922
0.00147329
-0.00059131
0.00225045
-0.000872466
-0.000786673
0.000382052
-0.000937501
0.00178659
-0.00123114
-0.000193155
-0.000553006
0.00104585
-0.000299684
-0.000918771
0.000977618
-6.24382e-05
3.59156e-06
0.00160058
-0.00180672
-8.66393e-05
0.000292776
-4.87244e-05
-0.0015958
0.00160845
3.60807e-05
0.000130414
-0.000116285
-0.00152643
0.0015123
0.00220871
-0.000362558
9.40486e-05
-0.0019402
-0.00145324
-0.000305387
0.000372923
0.00138571
0.000491614
-0.00049163
1.61491e-08
0.00108931
-0.00074114
0.000726796
0.000226324
0.0020868
-0.000124773
-0.00218835
-0.000333409
0.000222598
0.000278768
-0.000167957
-0.00162885
-0.00202537
0.002928
-0.00115806
0.0013261
0.00126298
-0.00143102
-6.49895e-05
0.0012921
-0.00163011
0.000403005
-0.0012396
-0.00129808
-8.23593e-05
-0.000334378
0.00171482
-7.02302e-06
-0.000660541
0.000667564
-7.60219e-06
-0.000952221
0.00221979
-0.00125996
0.000650561
0.000916146
0.00163412
-0.000818247
7.66311e-05
-0.000892506
0.000717872
-0.000199442
-0.00119857
0.000680142
0.000901564
4.28927e-05
-0.00137383
0.000429375
-0.000648999
0.00053752
0.00203442
-0.00192294
0.00174325
0.00124582
0.000163175
-0.00315224
-0.00155845
-9.83809e-05
0.000315744
0.00134109
-0.00130656
0.00139166
-8.5106e-05
-9.11259e-05
0.000865389
-0.000129784
-0.000644479
-0.00026796
0.000551179
-0.000283219
0.00109026
0.00154933
-0.000695668
-0.00194392
0.000933213
-0.000934123
9.1031e-07
-0.00264369
0.000617078
0.00147718
0.000549432
0.000107172
-4.72274e-05
0.00128426
-0.0013442
0.000822273
3.40536e-06
-0.000825678
0.00168881
-0.00187529
-0.0012043
0.00139079
-0.00148674
-0.00287191
0.00171496
-0.000290455
0.000187587
0.0011957
-0.00109283
-0.000512315
0.00155843
-0.000164335
-0.000881779
0.000320289
-0.000846598
0.00124418
0.000973902
4.67168e-05
-0.00102062
0.00289245
-0.000699386
0.000171905
-0.00236497
0.00109291
0.000312803
0.000699757
-0.00167179
0.00080347
0.000168562
-0.00175997
4.98385e-05
0.00131962
0.000390509
-0.000328066
-0.000724095
0.000767047
0.000285114
0.00103122
-0.0013281
0.000296881
-0.000365138
-0.000709917
0.00107506
0.000910578
-0.000589645
-0.00103368
0.000712745
-0.000390015
-0.000217005
0.00156008
-0.000953061
-0.000766338
-0.00122497
0.000947763
0.00104354
-0.00150507
0.00137425
-2.53368e-05
0.000156154
-8.75697e-06
-0.000928744
-0.000225008
-0.000820704
0.00103525
1.04672e-05
0.00157
-0.00147643
0.000428707
-0.000522275
0.00238293
-0.00237116
0.00108114
-0.000415475
0.000456074
-4.05989e-05
-0.000871003
0.0008597
1.13036e-05
-7.86863e-05
0.00109047
0.000372542
-0.00138432
-0.000691251
-0.00108919
-0.000429707
0.00221015
-0.000645519
-0.000496046
0.00224166
-0.00110009
0.00110986
0.000297608
-0.00148616
-0.000214393
0.00165447
-0.000752227
-0.000687845
0.000235178
-0.00109263
-0.000478887
0.00133634
-0.000304486
0.000187175
-0.0015233
0.00164061
0.00151748
-0.00109887
-0.00084
-0.000626515
-0.000186864
0.00165338
0.00045317
-0.000229537
-0.000227206
3.57351e-06
-0.00177937
0.00207582
-0.000211451
-8.50013e-05
0.000581175
0.000641817
-0.000610885
-0.000612107
-0.000244581
0.0012686
2.66747e-05
-0.00105069
0.00141763
6.04573e-05
-0.00126685
-0.000211233
-0.000174546
-0.00174055
-0.000431693
0.00234679
-0.00015027
0.00125956
-0.00110929
0.00152475
0.00129505
-0.0017359
-0.0010839
0.00101109
7.54113e-07
-0.00101185
0.000111316
-0.00133188
-0.000333243
0.00155381
0.00238337
-0.000340061
-0.00112024
-0.000923068
3.39333e-05
0.00239627
-4.68322e-05
0.00117146
-0.00111949
-5.197e-05
-0.000421894
-0.000821488
0.00124338
0.00217765
-0.000581126
-0.00136857
-0.00101852
-0.000995941
0.0016744
9.48228e-05
0.000403002
-0.00157213
0.00107431
5.65025e-05
-0.00135669
0.000848713
0.000451474
-6.63099e-06
0.00118251
6.85658e-06
-0.00118273
-0.000230251
-3.1641e-05
-0.00111781
-0.000294175
0.00141199
-1.8989e-05
-0.00097021
0.000989199
0.00207619
0.000157745
-0.000133184
-0.00210075
0.000869586
-0.00161068
0.0003882
0.000352897
0.000548526
1.3427e-06
-0.000549869
-0.00158318
0.00025833
-6.39429e-05
0.00138879
0.000566894
4.19134e-05
0.00123644
-0.00184525
-0.000582828
0.000629065
-0.00174775
0.00170151
0.000174462
-0.000229333
-0.00163484
0.00168971
0.0011627
-0.00108619
-0.00249664
0.000284743
0.000736544
-0.000751325
-0.000762017
0.000776798
-0.000672315
0.000675193
-2.87781e-06
-0.00159847
-0.000564544
0.0023953
-0.000343165
-0.00148759
-0.000931586
-0.000283282
0.00126392
-4.90534e-05
0.000268455
0.00151826
-0.000581398
-0.00120532
-0.00300912
-0.00252846
0.000197111
0.00242342
-9.20651e-05
0.000179804
0.000129602
-0.00104311
0.000733702
0.00166677
-0.00153987
-0.00171994
0.0012151
0.00034806
-0.00156316
0.00173163
-0.000320163
-0.00123904
-0.000172431
-0.00103543
-5.73664e-05
-0.0006991
0.0017919
0.00170074
-0.00143858
-0.000506305
0.000244143
7.50431e-05
0.000527246
-0.00162506
0.00102277
5.79122e-06
0.000884595
0.000135548
-0.00102593
-0.000824979
0.00105043
0.000296722
-0.000522169
1.23309e-05
0.00145331
-1.14887e-05
-0.00145416
-0.00109796
0.0011103
-0.00102338
-2.28597e-06
0.00102566
-0.00167018
-0.000154207
0.00041781
0.00140657
0.00117466
-0.00114862
0.000687404
-0.00071344
0.000289873
0.00102038
-0.00110174
-0.000208508
-0.00141381
0.00206931
-0.000238202
-0.000417304
0.000823456
-0.000786858
-3.65981e-05
1.60422e-05
0.000652594
0.00171429
-0.00138145
0.00117765
0.000507079
-0.000303272
-0.000340573
0.000758879
-0.000418306
-3.5444e-05
0.00118655
-0.00115111
-0.00185959
0.000705299
0.000361777
0.000792513
-0.00334001
0.00243423
0.000921821
0.00247912
-0.000296435
-0.000424102
-0.00175859
0.000991692
0.000121637
0.000634621
-2.94359e-05
-0.000665033
5.98475e-05
0.000686736
-0.00053857
2.68009e-05
-0.00159544
0.00156864
-0.00275522
0.00197
-0.000875208
0.00211122
-0.00142882
0.00019281
0.00144123
-0.00194935
0.000602941
0.0011079
-0.00202365
0.000390125
0.000525626
-0.00102912
0.00123608
-0.000206967
0.00214738
0.00044958
-5.27977e-06
-0.00259168
-0.00103168
0.00104048
-8.79776e-06
0.00280676
-0.00251557
0.000324668
0.00166338
-5.42769e-05
-0.00160911
0.00119367
-0.00121683
2.31623e-05
-0.00119337
0.00013407
0.0010593
-0.000459968
-0.00112921
0.000395807
-0.00244196
0.00160148