/*--------------------------------*- C++ -*----------------------------------*\
  =========                 |
  \\      /  F ield         | OpenFOAM: The Open Source CFD Toolbox
   \\    /   O peration     | Website:  https://openfoam.org
    \\  /    A nd           | Version:  10
     \\/     M anipulation  |
\*---------------------------------------------------------------------------*/
FoamFile
{
    format      ascii;
    class       volScalarField;
    location    "12";
    object      SgT;
}
// * * * * * * * * * * * * * * * * * * * * * * * * * * * * * * * * * * * * * //

dimensions      [1 -1 -3 -1 0 0 0];

internalField   nonuniform List<scalar> 
59698
(
0.000830215
1.99834e-14
8.89118e-13
3.28442e-14
5.06615e-13
3.03336e-18
4.06124e-15
3.28641e-14
4.3463e-16
9.28124e-18
9.59718e-15
8.1559e-14
5.19178e-18
2.38075e-15
1.57627e-13
9.25508e-17
7.72867e-14
3.87757e-13
8.08709e-14
2.86245e-15
0.00148508
5.92648e-14
2.12404e-07
1.15774e-17
1.12545e-15
3.1766e-13
4.11487e-13
3.42665e-15
2.65373e-16
1.1351e-15
3.32941e-15
4.54856e-17
2.13491e-16
3.2732e-15
0.0190552
4.32568e-13
0.0243789
2.37266e-07
3.81954e-13
1.49779e-15
2.20256e-15
7.72154e-18
4.5877e-15
7.6272e-14
4.18647e-17
5.23491e-16
2.31525e-13
5.6343e-14
5.76065e-14
1.32452e-13
6.53318e-14
6.94381e-14
1.28375e-13
2.45386e-14
1.8841e-17
1.17449e-13
1.53294e-13
1.99498e-12
1.67772e-13
0.0047285
2.59729e-16
3.42892e-14
0.0996772
1.54776e-13
4.08911e-15
1.25241e-12
6.7303e-17
4.15631e-13
4.623e-13
4.04416e-16
7.58668e-10
9.62224e-14
2.3132e-07
0.0398061
6.39929e-18
0.0439397
4.90807e-14
3.4097e-15
2.78022e-15
4.3269e-17
5.23639e-15
4.83038e-14
2.70639e-16
3.2703e-13
0.0111635
3.38235e-14
2.66746e-14
4.92984e-14
2.27938e-15
9.57644e-14
1.59063e-16
2.32933e-14
1.56131e-14
7.46922e-14
5.69312e-14
1.27764e-13
1.04433e-15
2.62125e-13
1.72974e-15
1.69296e-17
5.43302e-16
0.00101689
8.1022e-16
0.00379156
2.00712e-14
3.99189e-16
2.8674e-13
3.09492e-14
5.11357e-16
9.53913e-17
6.37452e-15
8.16299e-15
7.49621e-15
3.41934e-18
1.77886e-13
1.18983e-15
1.16592e-13
4.45562e-14
4.34818e-14
7.87753e-18
1.85431e-14
1.80274e-13
5.21932e-14
2.11524e-14
7.29964e-14
5.285e-14
4.31229e-15
1.93385e-16
8.2549e-14
1.77514e-14
2.58139e-15
5.48122e-14
1.87715e-14
0.000651684
1.11194e-15
1.07234e-15
3.70747e-15
1.97781e-17
2.60579e-13
4.7554e-15
3.43284e-13
3.22912e-14
6.90696e-14
2.01648e-14
2.81005e-14
1.64155e-14
1.88586e-15
1.33387e-14
6.63862e-15
8.97615e-16
3.24928e-05
1.10931e-13
7.20319e-15
5.04345e-14
2.11886e-13
5.68326e-14
3.51222e-14
9.73056e-15
1.99754e-16
9.34474e-17
2.63997e-16
1.06781e-13
1.6016e-15
1.80816e-15
1.82321e-15
1.81237e-16
1.969e-13
0.0671297
7.73048e-17
3.38817e-13
3.10961e-16
2.23371e-08
4.85914e-16
5.52044e-16
0.00547454
1.13993e-13
3.37252e-18
3.0721e-05
2.87642e-13
8.50997e-16
2.16722e-05
4.84035e-16
1.01807e-15
1.37144e-14
1.26567e-15
2.21152e-17
1.24597e-16
1.16883e-14
2.52197e-13
9.64894e-15
3.27236e-13
1.40373e-13
8.54909e-16
2.28137e-15
3.03163e-16
1.59382e-14
0.00046953
1.19365e-11
6.77687e-06
7.66195e-16
3.15107e-15
2.15941e-11
2.67468e-15
8.33844e-14
8.29327e-16
2.2365e-14
1.01116e-15
5.86974e-15
1.50537e-16
6.93431e-16
5.97468e-14
9.09702e-14
2.78893e-16
1.56349e-17
1.61886e-15
8.83207e-15
2.00304e-13
3.47765e-14
1.18368e-16
2.60404e-15
0.0044611
2.77449e-15
3.6073e-14
4.46722e-15
4.87653e-15
3.88641e-16
6.20293e-15
9.28383e-15
5.93154e-14
0.125749
2.05396e-15
8.19171e-15
2.98043e-15
7.9235e-15
9.0598e-14
2.2658e-14
6.879e-16
4.93346e-14
6.20078e-14
1.37156e-14
5.1583e-14
1.4544e-16
5.07619e-16
1.05419e-17
9.31541e-15
7.46427e-14
0.0031874
0.190237
1.37058e-14
7.86157e-13
5.75325e-14
3.91706e-14
1.69087e-15
2.32648e-15
1.05744e-12
1.28193e-14
2.6628e-13
2.05645e-14
4.94239e-13
1.44138e-13
6.87796e-06
1.80587e-16
2.23105e-14
7.61576e-14
2.88032e-13
0.000222173
2.85252e-14
1.46404e-15
4.413e-13
3.48317e-13
3.91491e-13
1.13774e-06
7.08189e-05
1.08114e-13
4.70613e-15
4.2905e-13
2.01788e-14
5.76117e-13
1.13863e-15
8.65284e-15
2.92179e-16
2.81225e-13
2.87001e-13
7.67577e-08
0.000134505
6.75017e-11
4.21328e-14
3.45103e-08
7.24371e-07
6.33114e-15
0.120254
1.46252e-15
2.7006e-13
4.16663e-13
4.24159e-15
1.97225e-14
5.43035e-14
6.85154e-14
7.57198e-15
9.07513e-14
7.14184e-15
3.30625e-17
1.05885e-16
1.46443e-13
1.18435e-13
3.25835e-13
4.84748e-16
2.18458e-13
6.03525e-13
4.35753e-14
4.32793e-15
5.05992e-14
2.72056e-14
1.01953e-17
1.82006e-14
1.02058e-14
8.08802e-18
2.97479e-13
1.86296e-18
3.85687e-14
3.33273e-14
0.282248
1.2778e-13
5.16976e-18
0.0613128
5.76952e-16
2.00956e-13
1.76153e-13
5.73563e-14
5.7339e-16
8.22314e-15
5.15476e-14
2.81748e-15
0.158844
1.30996e-16
8.70441e-16
1.21888e-15
4.78872e-14
7.6817e-17
3.2543e-15
1.78384e-15
6.8708e-16
2.02473e-15
5.1738e-15
5.30006e-17
9.17759e-14
1.64688e-15
4.74096e-15
8.88762e-15
1.10781e-15
6.81953e-15
2.08527e-14
0.00634585
7.25779e-19
0.142945
1.00335e-15
0.00363522
1.55092e-13
4.88928e-14
2.54609e-16
4.2383e-14
3.7491e-14
2.8678e-10
1.39343e-15
1.80859e-16
3.57868e-18
6.16734e-14
2.36389e-16
5.93537e-13
0.000734042
5.83455e-16
1.12465e-15
7.21289e-14
3.05682e-18
1.77093e-15
2.66417e-17
6.3875e-13
2.27895e-14
3.17382e-16
1.11174e-15
1.35421e-18
5.52694e-14
3.994e-14
6.88617e-15
2.03792e-13
1.26417e-05
1.8602e-13
9.98189e-17
1.20142e-15
4.78402e-13
4.76531e-14
9.46164e-18
1.06951e-13
5.76294e-16
0.0015274
2.73344e-12
0.100691
2.36561e-13
4.29689e-14
1.19461e-13
4.12662e-16
6.30038e-15
7.22346e-14
1.03531e-13
1.31345e-13
5.10234e-13
2.42668e-13
3.44697e-14
2.77852e-15
7.76929e-14
4.04603e-13
9.80995e-16
3.73883e-14
6.60156e-13
5.75966e-16
1.15959e-05
6.67327e-14
0.00853112
1.7081e-08
0.000514443
1.82542e-13
1.86941e-13
1.38612e-14
0.287981
2.87519e-13
1.05117e-13
6.8634e-15
4.69704e-13
1.26749e-13
1.07929e-15
2.80849e-15
8.28848e-05
0.0113887
1.3487e-14
7.08574e-16
8.58309e-17
4.24192e-11
0.242601
6.99887e-14
1.29605e-16
2.1759e-19
6.62344e-13
1.52322e-14
2.77935e-13
3.79129e-14
0.00148633
9.83022e-10
3.66023e-17
1.54314e-13
8.16563e-16
1.14571e-13
6.02763e-13
1.77711e-13
7.51653e-06
3.75353e-13
3.84013e-13
1.10519e-11
4.11995e-17
8.54119e-13
1.2105e-13
2.05508e-11
2.40653e-14
4.49266e-13
4.80613e-16
1.50929e-16
1.60736e-13
4.51444e-13
9.23241e-16
2.86785e-13
5.53688e-16
1.29717e-14
1.20767e-15
1.69157e-15
1.09434e-16
3.33299e-13
1.94348e-13
0.000341491
1.57838e-15
2.47357e-14
2.1885e-13
1.44255e-14
2.11649e-13
1.22186e-13
5.09457e-15
0.00113175
7.19139e-14
3.51764e-14
3.63198e-14
8.72271e-16
4.74419e-16
1.98623e-15
0.0121778
4.43175e-16
7.0136e-15
2.18522e-17
4.42881e-15
1.05736e-14
1.55078e-14
6.69446e-16
2.74256e-16
1.69181e-16
2.40207e-15
6.59446e-17
9.514e-15
2.28404e-16
4.21973e-17
8.04586e-14
3.81321e-17
1.41916e-14
2.28917e-16
6.97753e-15
9.02583e-16
0.00268808
4.13261e-18
6.73856e-15
3.90206e-14
3.61375e-17
3.02938e-14
2.01067e-17
7.31684e-17
1.0988e-15
7.28998e-14
1.26254e-14
1.35326e-16
1.89162e-16
0.00762702
4.32489e-15
1.3446e-13
8.56626e-15
6.24349e-15
3.96667e-15
0.0659378
1.69786e-18
2.908e-13
4.97431e-15
3.93246e-16
4.16778e-18
2.51206e-16
1.38524e-13
6.03716e-16
2.3509e-14
1.06564e-13
3.11922e-14
0.0538628
7.60711e-16
2.16803e-14
0.00758759
3.33976e-06
2.28813e-15
3.50753e-07
5.7938e-14
6.48259e-16
1.52125e-13
1.22631e-17
1.51798e-13
1.35883e-14
4.22157e-16
2.6875e-15
4.36293e-14
1.32304e-15
5.43512e-16
1.036e-15
1.29969e-13
8.15232e-05
6.13824e-14
5.66742e-20
0.0184127
6.89788e-14
2.48405e-15
4.52402e-15
7.30412e-16
2.81941e-13
1.79005e-15
2.38092e-14
1.48719e-14
2.47646e-14
9.01745e-14
7.90274e-15
3.20501e-14
8.87085e-17
7.82454e-19
4.98849e-14
4.95713e-10
1.93362e-13
1.39921e-13
2.74172e-16
1.00781e-13
1.29229e-13
2.10184e-16
1.3007e-14
4.34478e-14
1.13883e-14
2.92526e-13
4.88857e-13
2.17513e-16
1.02381e-13
2.04795e-10
0.00092399
2.26417e-17
1.97066e-16
5.24402e-15
1.32197e-14
6.16169e-16
1.3427e-13
1.51951e-14
3.58344e-14
1.66427e-14
1.19402e-17
2.23458e-14
9.54247e-14
1.05789e-13
3.78847e-14
9.84943e-14
1.48897e-13
1.27073e-13
1.74364e-13
1.2126e-13
3.02087e-15
1.85835
2.30722e-13
7.82209e-16
1.80568e-13
1.07736e-12
0.00434565
2.09958e-14
1.14462e-13
1.57614e-16
1.50671e-13
1.51642e-12
1.22976e-12
1.79055e-14
7.73215e-16
1.87636e-13
5.23272e-13
1.92213e-13
2.75606e-15
3.32394e-14
1.06566e-13
3.46835e-14
3.07471e-15
5.40678e-14
5.41838e-14
6.36472e-15
9.9942e-17
2.48811e-14
1.88624e-14
5.65505e-14
7.305e-14
7.76945e-13
7.0147e-16
3.01463e-16
3.2565e-13
1.21947e-15
3.67836e-15
5.0184e-14
4.80626e-13
2.35706e-14
8.85958e-07
1.00304e-15
1.2399e-13
8.32467e-14
9.91893e-14
9.00612e-15
0.0116774
0.146162
1.02896e-15
2.24392e-14
1.07448e-14
6.55964e-14
1.68794e-12
3.23051e-17
2.55968e-13
6.74457e-14
1.53708e-13
1.37281e-13
8.65302e-13
4.4236e-18
1.26941e-14
8.13439e-16
2.62981e-13
2.16332e-13
3.47853e-13
1.25634e-18
8.98438e-17
1.53348e-13
2.69232e-14
5.72778e-13
8.47549e-14
4.8165e-14
3.77108e-15
6.17489e-16
9.37325e-17
2.44909e-13
2.16985e-13
2.52231e-14
7.45349e-14
1.40443e-13
4.9005e-14
2.34323e-16
4.04061e-13
3.56083e-16
5.91628e-16
6.77248e-15
5.50362e-14
8.9914e-14
7.32972e-16
9.92135e-16
2.39921e-14
1.18027e-14
1.52134e-16
1.62001e-13
8.98937e-19
4.47373e-15
2.72344e-16
7.39657e-14
1.6005e-15
1.24344e-14
1.24863e-13
4.08755e-16
8.21358e-16
4.75093e-15
1.67173e-15
1.28052e-13
1.33178e-14
9.47262e-15
1.07774e-15
3.16943e-15
1.07085e-15
5.19348e-05
1.64192e-13
0.00212101
6.34117e-17
3.3365e-16
6.13886e-15
1.91314e-18
3.67482e-15
9.06017e-14
2.72056e-15
1.29011e-16
0.0448328
6.62114e-13
1.83427e-13
0.210454
1.29761e-15
1.37911e-14
1.93897e-13
2.38976e-10
0.00141907
1.48302e-13
1.53415e-16
1.66953e-13
2.01251e-10
1.37251e-15
9.84257e-10
1.40186e-16
1.66447e-13
4.18237e-14
0.285787
5.92122e-15
3.86002e-14
2.01087e-16
2.82855e-17
8.51672e-17
3.71786e-16
3.6148e-14
1.5598e-15
9.21528e-16
1.41798e-14
1.7299e-15
1.64818e-15
1.11997e-16
1.16689e-16
3.2984e-16
6.22831e-14
9.38702e-17
8.73419e-15
1.14331e-13
3.484e-13
1.30292e-14
5.3596e-15
1.21749
2.51847e-17
1.48413e-16
6.14031e-15
7.27112e-15
5.00666e-15
8.55748e-15
1.47772e-16
2.06101e-13
4.07467e-16
1.53285e-13
8.1079e-16
4.03603e-16
0.164642
2.8628e-14
0.0034772
1.40804e-15
5.84412e-16
1.87967e-15
1.61635e-14
1.69921e-14
1.67588e-15
7.72101e-14
3.21886e-14
8.8102e-16
0.00015266
9.30858e-14
2.35925e-13
3.30368e-16
0.00485697
1.24099e-16
1.1519e-15
6.54925e-14
5.20454e-11
0.00013525
1.12895e-15
2.1915e-17
4.94892e-14
0.00733052
0.199166
1.39831e-13
0.00631612
2.39083e-13
0.000385845
3.32353e-15
1.87586e-15
5.36451e-14
3.52539e-15
2.69726e-15
4.13305e-17
2.50788e-15
1.98827e-14
2.82559e-14
2.31337e-16
1.80001e-13
4.43809e-14
1.85961e-06
3.34059e-15
5.3308e-05
0.00010364
5.98507e-16
1.88232e-15
4.16515e-15
4.10045e-15
8.47774e-16
2.93133e-15
2.06041e-13
4.05795e-14
4.59733e-16
1.60276e-15
1.79024e-14
3.15596e-16
0.0104744
8.82339e-17
8.89552e-14
3.95837e-16
8.20667e-15
1.56117e-15
1.13966e-13
1.08599e-13
3.03152e-14
3.57848e-17
1.44148e-18
8.04217e-16
2.90867e-14
1.37148e-15
2.18608e-13
6.28483e-07
1.28884e-13
9.74657e-15
8.64416e-15
1.24822e-16
0.00305535
2.6023e-18
2.34264e-16
1.42596e-17
3.13609e-13
3.71372e-14
9.72968e-15
2.24382e-13
6.48919e-14
9.48683e-14
1.25925e-13
6.90938e-17
2.29574e-17
2.30449e-14
4.217e-13
1.26605e-13
2.79957e-13
1.71428e-16
9.23322e-14
3.54101e-15
2.80832e-15
5.11584e-17
6.88268e-14
8.20223e-15
8.5176e-14
1.25113e-15
2.93721e-15
7.15627e-17
2.56342e-15
5.05757e-13
7.87202e-18
7.48163e-15
2.04445e-13
1.29568e-17
1.56765e-15
3.28637e-14
5.06462e-14
3.63746e-16
1.3314e-16
2.50618e-14
2.98475e-15
6.89684e-17
1.28889e-17
3.44462e-14
4.81211e-14
3.01444e-14
4.62536e-17
3.66568e-15
1.58404e-14
2.65125e-05
1.18107e-14
1.87691e-13
0.0668333
1.28609e-12
4.69667e-14
9.73304e-15
0.0100456
1.53061e-17
2.16365e-15
7.73567e-15
2.92971e-16
2.17576e-16
1.33933e-14
2.59538e-13
3.06619e-15
1.31424e-16
6.65649e-16
5.84186e-16
6.91836e-14
3.07438e-14
4.95766e-16
3.33757e-15
1.91907e-15
4.2057e-14
3.23535e-15
3.08288e-15
8.11189e-13
4.39243e-16
1.17459e-13
2.10472e-14
1.05118e-13
2.01082e-14
4.35663e-14
5.87594e-13
1.06394e-15
2.39831e-12
7.01251e-13
7.51684e-14
1.43678e-14
7.62053e-17
6.12156e-14
1.59501e-14
9.01094e-15
3.54588e-14
3.06346e-13
3.34477e-13
6.61844e-14
1.01587e-13
3.69312e-18
2.2081e-16
1.91294e-16
9.44191e-15
7.02249e-18
1.36369e-13
9.25816e-16
2.55593e-05
1.08616e-16
3.12081e-14
5.1871e-15
0.010312
2.73228e-15
9.21555e-14
9.34291e-14
6.90095e-14
1.41071e-13
3.3679e-14
7.71748e-15
1.22978e-16
6.12066e-11
2.65554e-14
2.27088e-15
2.5761e-14
5.90647e-17
8.36625e-05
1.78263e-14
3.11611e-15
8.24665e-14
4.69705e-15
4.40635e-15
3.7932e-14
1.48239e-13
3.88341e-14
3.13954e-14
8.26856e-15
2.85186e-15
3.74802e-17
1.59792e-13
8.76608e-15
0.00135297
3.84016e-18
3.81754e-14
8.38383e-14
0.0013057
1.34903e-13
5.73745e-15
0.00147156
1.29107e-13
7.03739e-14
0.00170439
3.3715e-14
1.42797e-15
4.21754e-14
1.36381e-14
2.96183e-15
1.01746e-14
5.39888e-15
2.21525e-14
1.01401e-13
1.60656e-17
7.56339e-15
5.4279e-15
6.33597e-14
5.48066e-16
1.64882e-14
3.48921e-15
2.52292e-13
1.34799e-14
5.29523e-15
2.04627e-15
1.60703e-13
4.64667e-16
3.18559e-13
0.718447
5.42351e-14
2.8622e-17
2.98959e-15
1.4001e-15
2.08796e-15
8.96089e-09
2.6147e-14
1.88365e-15
1.04287e-14
5.73131e-13
4.74488e-15
3.25808e-17
2.44449e-18
0.000146609
4.10818e-16
2.00819e-14
1.86434e-13
1.6874e-13
1.89119e-14
4.27093e-13
1.02778e-16
5.73467e-16
0.00537256
2.93228e-14
0.0807247
3.11379e-13
1.992e-13
2.32646e-05
2.19042e-16
0.00616144
1.82355e-13
2.9607e-07
1.40401e-14
5.05216e-15
2.34337e-13
1.09918e-15
1.45681e-14
1.40651e-18
1.37768e-14
1.61453e-13
7.02697e-14
1.74806e-13
2.20676e-14
1.69313e-13
1.8603e-14
0.0138474
1.52545e-16
0.00157779
0.000637306
1.63781e-14
0.0353306
2.22347e-08
4.81895e-15
1.48665e-15
2.02975e-16
0.398039
1.03997e-15
1.59304e-15
1.62696e-12
2.6625e-17
0.0807091
1.54736e-13
3.35285e-18
5.24174e-14
1.22427e-16
5.35304e-14
9.70072e-15
4.15027e-13
1.27379e-15
2.95851e-17
0.000275067
7.6517e-16
5.62329e-15
5.61122e-15
1.74441e-14
4.62042e-17
2.45738e-17
2.37182e-13
1.08142e-15
3.81401e-16
1.96848e-13
8.87522e-14
3.26391e-15
4.85207e-13
0.108794
1.30911e-13
1.41941e-15
2.13496e-14
1.01472e-16
3.11342e-13
1.11624e-14
3.68101e-15
7.39566e-18
4.6529e-15
9.97515e-15
4.48818e-14
5.46337e-14
4.64787e-14
0.020923
1.43774e-07
5.21972e-14
1.29455e-15
0.00224351
0.00137655
4.63229e-15
6.08061e-13
3.65755e-14
0.0226734
1.37152e-10
3.10155e-15
5.22855e-15
4.11008e-14
5.85769e-15
6.05272e-15
2.89861e-14
1.34954e-14
2.66871e-14
9.51303e-18
0.00117417
1.24523e-09
2.45764e-14
3.758e-14
1.00201e-14
1.51237e-15
1.80397e-14
2.85415e-14
5.41188e-15
2.89948e-14
5.86666e-15
5.22472e-15
2.13546e-17
8.80514e-15
2.06342e-17
9.34718e-15
7.23597e-14
1.16995e-13
4.2498e-15
2.5314e-13
1.1607e-13
1.37592e-13
4.06017e-18
1.95703e-15
9.82897e-15
3.3521e-15
6.12055e-15
3.15899e-16
9.38495e-18
1.61794e-19
2.49967e-13
1.24073e-13
3.27194e-10
6.09357e-16
1.29998e-13
1.1948e-13
5.43112e-14
4.02645e-17
2.24084e-16
9.93782e-14
9.62821e-14
5.82345e-14
1.40802e-14
2.18751e-10
1.76045e-14
2.321e-16
2.96742e-07
1.81463e-13
9.73596e-14
1.74509e-14
1.15196e-05
1.82782e-13
9.94176e-16
9.9325e-16
1.5221e-13
3.10954e-15
3.08223e-16
9.21252e-18
7.02319e-17
2.91948e-14
8.85306e-14
2.82939e-16
0.0256422
9.85327e-15
1.93072e-14
1.08536e-15
2.67976e-14
3.0617e-15
1.34876e-14
3.01261e-10
3.54047e-16
3.37009e-14
1.77816e-14
2.89616e-14
0.0109211
3.97959e-15
2.01064e-17
1.09473e-14
5.17301e-15
1.19334e-14
6.06024e-17
5.79049e-16
7.1035e-15
7.67973e-15
6.31507e-14
1.64595e-17
5.70035e-14
1.69601e-15
4.41709e-14
3.90064e-14
9.27731e-13
2.06597e-13
3.157e-13
3.60299e-14
1.95183e-13
7.73152e-14
6.98741e-16
3.42891e-12
3.73631e-15
0.000892789
9.99693e-14
6.32008e-18
7.2889e-14
2.34588e-17
2.9178e-15
3.6204e-16
4.89855e-11
4.24118e-16
3.31797e-17
7.2602e-16
2.01884e-13
4.15854e-12
1.56952e-18
1.10156e-13
1.8333e-13
6.26638e-17
6.57779e-13
5.35691e-15
1.3942e-13
4.88524e-13
0.00313054
6.59004e-18
0.00519521
4.47073e-13
2.32901e-16
4.84304e-15
8.80893e-14
5.82088e-14
0.000263468
4.31749e-18
1.13697e-14
1.2639e-16
1.45442e-13
1.92138e-17
8.93116e-14
5.85769e-16
2.80429e-15
4.32703e-16
3.13409e-16
6.33013e-15
1.89501e-14
8.51205e-15
3.01465e-14
1.73242e-14
6.39835e-14
5.02141e-16
1.19395e-14
1.0649e-14
4.93285e-14
0.372359
1.27743e-14
8.13016e-13
1.93663e-13
1.93076e-16
1.50715e-14
5.18398e-15
1.65843e-16
9.99188e-14
2.48275e-15
0.0199707
2.63139e-15
2.85083e-15
5.51533e-16
1.91924e-17
1.44125e-16
5.27368e-16
1.19384e-13
1.02645e-15
1.40944e-15
1.40539e-08
2.27298e-16
6.68039e-18
5.13923e-16
1.55579e-15
8.85225e-16
5.60709e-15
1.26627e-14
6.82544e-17
1.36172e-16
1.2941e-15
7.06226e-15
6.13271e-17
1.40548e-13
3.14748e-15
0.00127777
5.78785e-14
8.27286e-05
5.25684e-15
8.04048e-15
4.36243e-14
0.00126196
1.38206e-15
2.74808e-14
5.2554e-17
5.82168e-18
3.96558e-05
2.34009e-14
1.84146e-14
0.000216802
9.95701e-06
5.34701e-14
8.51517e-16
1.38081e-13
6.3107e-15
3.25908e-14
2.72816e-14
1.01782e-13
7.88671e-09
6.46468e-10
0.0345602
2.71662e-20
0.0818102
2.20968e-10
1.55826e-15
2.39615e-14
0.0893973
2.08441e-13
1.03872e-14
1.04022e-13
7.14516e-13
5.25362e-15
3.96574e-13
2.75565e-14
5.84944e-15
4.773e-11
2.81098e-15
0.216251
2.25861e-13
6.76513e-09
2.12212e-13
7.62003e-15
8.54192e-17
0.176913
2.2407e-13
0.253895
0.716485
2.29669e-06
3.58851e-16
3.78564e-14
3.15589e-15
9.3248e-15
4.7481e-16
2.1444e-15
0.0465552
2.79761e-16
9.30714e-14
2.0049e-16
0.00677989
2.13055e-14
6.75936e-17
1.06294e-15
6.89806e-17
0.000196545
2.06161e-15
1.93865e-17
0.152715
0.000171865
1.51805e-14
2.73608e-14
1.76761e-15
1.59215e-16
3.64135e-17
2.32446e-16
0.470316
1.72645e-15
0.20385
0.16179
2.1493e-05
7.67841e-14
1.43446e-16
9.18293e-14
8.08854e-15
3.15284e-18
0.0502573
1.3556e-16
3.02995e-06
1.24905e-13
4.74692e-18
7.80271e-14
2.40169e-14
2.45733e-14
2.73084e-14
2.80307e-14
5.12063e-14
1.19835e-07
1.59649e-15
2.89797e-16
2.32417e-06
1.72326e-15
1.04423e-13
9.63982e-16
2.17251e-17
4.74125e-16
2.84545e-14
2.47247e-16
4.99082e-16
6.12697e-14
1.24277e-13
1.20615e-16
4.68595e-13
1.16363e-13
3.66404e-14
5.50121e-15
9.22561e-14
7.4784e-16
1.05217e-16
5.91948e-17
6.77374e-14
5.67994e-13
1.55549e-14
2.28509e-14
2.66905e-15
2.1484e-15
4.82757e-16
2.68735e-16
2.22337e-14
2.17015e-15
5.34089e-16
0.00895686
1.38817e-15
1.50711e-14
6.93538e-16
4.56649e-15
2.13901e-17
6.2475e-17
4.3865e-18
1.07498e-15
5.60147e-16
6.09937e-13
1.91325e-14
3.84704e-06
4.11986e-15
0.001249
4.98278e-15
2.01523e-15
4.94075e-16
1.86726e-15
9.66302e-16
8.44264e-16
1.05298e-15
1.54994e-15
3.08055e-16
1.62803e-17
0.236834
2.27363e-15
9.50742e-14
5.80926e-17
7.40812e-11
7.83346e-14
6.07728e-16
0.000136139
1.05088e-16
1.17649e-15
6.14332e-14
1.77119e-15
5.27181e-16
2.85498e-13
7.22941e-15
8.06505e-14
5.36934e-16
0.282468
2.59813e-15
1.23452e-08
1.70236e-15
5.85068e-15
1.5177e-15
1.06797e-15
0.087794
5.1153e-15
0.00104078
0.000164515
1.4416e-16
0.00115936
4.93841e-16
3.32274e-16
9.1482e-16
0.0183526
3.48673e-18
5.89948e-15
1.76117e-05
2.55823e-10
7.26928e-15
6.78834e-18
4.8459e-16
0.00072157
3.01716e-13
3.73067e-15
2.41217e-06
7.99002e-15
9.79223e-16
1.14412e-13
3.03595e-14
9.23549e-18
4.05994e-14
4.34559e-06
6.22504e-14
5.54984e-17
1.79845e-06
2.73701e-13
4.72645e-14
9.24328e-15
7.66664e-12
1.85545e-18
6.1824e-14
1.96142e-16
2.57069e-08
1.38612e-15
1.29412e-15
5.59989e-10
8.10602e-16
8.46333e-14
1.6024e-15
3.64355e-14
0.249934
2.19574e-16
2.15071e-06
4.31589e-14
7.54686e-17
3.45896e-15
1.79775e-16
4.18352e-14
8.70989e-16
5.53771e-14
1.03093e-15
4.41768e-14
1.21626e-13
2.76308e-16
1.21827e-14
1.5603e-17
1.31887e-17
2.19235e-15
4.79935e-14
6.06201e-14
5.83584e-16
6.74585e-15
6.01548e-14
5.19367e-14
1.39911e-14
3.61673e-14
1.83832e-05
2.64691e-15
4.24417e-15
3.35435e-05
1.98362e-15
3.18988e-16
2.90614e-14
5.10522e-17
2.85612e-14
5.02117e-15
9.93714e-13
5.63686e-14
3.46667e-14
5.23851e-15
2.68505e-14
1.87495e-13
3.99838e-14
9.71215e-16
3.6391e-14
1.15766e-16
3.16523e-15
1.59714e-14
1.23065e-13
4.1822e-15
1.01778e-13
2.3531e-14
1.63514e-13
1.98349e-14
3.59835e-16
3.3425e-14
1.07861e-06
1.76036e-15
0.871019
0.398566
1.48076e-13
2.72504e-15
8.35151e-05
4.90322e-14
1.41173e-15
2.12645e-08
0.559324
1.1286e-05
3.45304e-15
8.03178e-14
1.85668e-16
0.365569
5.29514e-13
1.50652e-10
5.78574e-15
0.000436043
0.163949
0.0776475
2.43577e-13
1.4102e-16
7.41151e-09
1.11236e-15
3.91826e-14
1.55351e-14
0.0301827
2.61391e-13
7.89505e-16
2.59302e-15
2.64981e-14
1.22322e-14
2.71591e-13
5.62607e-07
6.75057e-14
1.32014e-13
4.35774e-16
2.30909e-13
2.83063e-16
6.76347e-16
5.35883e-16
2.30571e-16
1.18592e-13
1.8584e-15
3.52093e-14
1.45816e-14
1.1577e-14
1.54106e-15
3.64467e-15
4.34881e-14
2.9591e-16
6.53001e-15
4.74308e-15
2.38444e-13
1.99871e-15
7.93903e-16
2.42138e-15
1.60779e-13
0.00289119
4.68641e-14
6.65343e-14
5.04412e-14
3.30397e-15
9.63729e-16
2.37093e-16
3.41639e-16
1.61899e-15
1.58671e-15
2.57345e-06
6.83108e-14
2.08979e-13
7.29797e-13
1.93405e-14
7.66302e-15
6.29028e-07
4.03977e-13
1.18704e-14
6.82266e-14
3.30978e-06
3.20668e-13
1.38872e-13
5.99093e-14
0.0236778
6.98271e-15
3.31171e-14
0.0254457
6.47402e-14
1.11553e-14
5.62834e-16
3.20419e-16
2.11656e-14
0.0255599
0.000328843
4.91125e-16
4.31612e-14
6.62699e-14
6.27613e-15
6.72111e-13
7.22846e-15
6.58378e-14
1.63165e-15
5.68867e-14
8.83416e-15
8.67555e-16
0.000237135
1.3859e-13
2.09748e-16
1.22973e-13
2.36475e-14
1.00481e-15
2.6078e-07
6.52978e-15
1.78482e-14
1.36764e-14
6.92739e-15
1.75226e-14
4.94766e-14
0.000129112
2.55319e-13
5.90711e-14
1.33578e-14
2.0202e-15
0.000171443
3.94944e-13
1.03579e-14
2.68184e-14
9.74628e-17
1.53687e-13
9.76639e-14
1.02692e-15
9.40363e-16
8.44409e-14
4.29977e-15
9.64794e-16
5.43869e-15
2.85729e-14
3.43167e-17
0.000399448
4.32748e-13
1.13505e-13
1.5147e-15
4.53229e-14
1.07916e-14
2.94571e-14
2.59836e-14
2.59091e-15
1.64446e-14
2.60662e-14
1.48519e-14
2.4492e-14
9.41791e-15
3.59996e-13
3.44946e-15
4.32101e-15
1.88312e-15
5.9772e-14
1.13209e-16
1.96249e-13
2.91254e-14
2.57743e-15
6.77581e-17
5.29199e-13
2.50807e-14
1.58548e-14
2.76532e-15
2.71782e-15
1.27306e-14
5.05014e-14
3.18498e-14
4.67882e-14
2.95748e-13
3.84197e-15
6.77645e-16
4.49622e-16
1.2348e-13
2.10109e-13
1.16702e-13
6.27896e-14
8.7777e-18
1.93701e-13
2.31759e-14
7.12056e-13
2.0635e-16
2.24485e-15
3.45124e-14
9.00568e-15
1.4472e-15
2.99273e-14
2.37322e-14
1.63416e-14
5.71348e-14
7.94432e-15
2.9635e-16
3.7452e-15
9.84456e-17
6.85929e-15
5.41196e-13
3.18717e-14
3.43077e-15
8.32621e-13
1.63185e-18
7.73949e-13
3.91424e-16
9.91934e-14
3.54193e-15
3.90622e-14
1.18296e-15
3.87898e-14
1.95099e-16
4.64406e-15
8.06829e-16
6.86431e-14
8.09463e-10
4.99054e-07
7.08619e-12
5.48427e-14
1.30744e-15
1.9577e-16
4.28653e-14
1.24493e-14
1.08103e-14
8.06684e-16
2.15996e-18
5.4855e-16
7.46277e-14
3.13679e-16
2.02301e-15
1.51639e-16
3.55461e-16
9.08358e-14
7.36878e-17
3.87489e-14
5.44667e-09
3.85514e-15
2.0456e-15
2.80087e-13
0.277461
1.5246e-13
8.20883e-16
1.60605e-14
0.00562547
2.30217e-16
2.75522e-15
1.26584e-15
5.98163e-16
0.0419991
4.01687e-15
2.64593e-18
3.13683e-16
1.6718e-06
2.96521e-16
3.99163e-14
5.66763e-15
1.69059e-13
5.78579e-14
1.59805e-13
1.96614e-16
9.29286e-16
1.72648e-14
2.70731e-16
5.72446e-15
6.29465e-14
1.23756e-14
9.80169e-16
1.98261e-14
4.92914e-17
3.04543e-16
3.35244e-15
4.02335e-15
1.0058e-14
2.63115e-15
3.00996e-11
1.74251e-15
2.29961e-07
5.32236e-06
4.96739e-16
1.75786e-15
8.25703e-13
0.181353
0.00294513
4.32947e-14
0.000655237
4.87904e-05
6.68986e-15
7.33185e-17
7.34714e-16
2.36583e-15
3.21027e-16
3.57311e-14
1.92692e-15
1.77964e-18
2.09559e-15
7.30081e-09
8.66284e-14
6.04513e-10
1.37589e-14
1.31515e-09
6.55196e-14
1.0941e-13
0.0027179
3.60187e-15
1.22764e-15
0.0123681
2.69908e-16
1.02991e-10
2.39515e-14
1.17145e-15
7.01179e-16
0.00503351
0.00760049
5.41902e-14
2.72773e-15
1.57938e-16
1.72984e-13
4.05549e-14
1.16276e-13
5.83723e-14
1.55426e-14
2.002e-14
6.21513e-14
2.44103e-13
2.62631e-13
2.8434e-10
3.2734e-14
2.98838e-13
3.5178e-13
3.08865e-14
4.26423e-13
9.87758e-13
6.65498e-15
5.04405e-16
1.10133e-13
4.51274e-14
4.01761e-14
9.58381e-15
5.23617e-14
9.40233e-15
3.99353e-14
7.5403e-14
3.66434e-16
0.00925492
2.71771e-15
1.44741e-16
5.18549e-15
1.26905e-14
3.86998e-14
1.11282e-14
1.23697e-15
1.51478e-13
2.24377e-13
1.52381e-13
2.07378e-15
1.63284e-15
4.92352e-15
9.46717e-17
0.0882851
1.66851e-14
2.56474e-15
4.94753e-06
4.15388e-13
4.0167e-16
2.19117e-15
3.63647e-14
3.39066e-14
2.68507e-14
1.59545e-14
2.41959e-15
0.0756427
5.1313e-15
1.00308e-13
2.39571e-13
1.23296e-14
1.66806e-14
2.64942e-14
1.61347e-15
3.74407e-14
1.62649e-14
2.11952e-16
1.37788e-15
6.9511e-14
1.24332e-14
1.24918e-15
4.01326e-14
1.53677e-14
1.8759e-18
4.18674e-16
2.40064e-15
1.53356e-14
8.97052e-16
2.00063e-09
2.38554e-13
3.18121e-13
1.30852e-13
4.91603e-17
1.75222e-13
2.73861e-13
6.05446e-13
8.09842e-15
9.49034e-15
1.9848e-14
1.6491e-13
3.67933e-15
2.27792e-17
2.5522e-15
6.01321e-16
4.13041e-17
2.11899e-13
2.79956e-16
2.34953e-14
2.83376e-13
1.79937e-14
7.68564e-15
1.11351e-13
2.55031e-14
9.07948e-15
1.69771e-13
3.13454e-13
3.3333e-15
1.40107e-15
4.62117e-14
0.272847
2.59089e-13
9.65148e-14
1.21905e-14
3.3973e-14
5.61341e-13
2.37898e-15
3.37442e-14
6.8071e-15
2.30974e-15
2.23746e-14
3.60213e-13
1.35083e-15
5.46745e-16
2.04007e-10
2.99894e-13
5.18549e-16
1.17899e-15
9.49482e-15
8.70248e-14
3.02666e-14
9.83941e-14
4.79244e-14
1.21207e-13
5.62698e-17
2.38053e-13
2.07402e-15
2.90588e-16
1.99489e-16
4.60054e-15
6.40308e-14
1.89169e-13
8.47403e-06
6.64381e-15
3.93319e-15
3.35216e-14
1.00511e-15
3.34917e-15
5.16626e-14
5.22321e-14
1.87669e-13
2.64803e-16
1.12189e-15
1.04057e-14
4.22433e-14
3.16189e-14
7.39457e-13
1.25968e-14
3.28729e-13
6.46115e-18
7.59122e-14
6.0077e-15
2.0194e-13
1.84754e-14
7.54541e-14
1.1111e-14
9.47608e-17
3.58867e-15
6.29559e-14
3.37516e-14
9.25831e-14
1.0573e-14
1.14396e-12
2.51876e-13
2.15072e-14
5.80311e-14
2.42749e-13
1.67261e-14
3.7857e-14
1.81746e-14
2.84879e-15
1.0054e-17
6.08333e-15
3.28666e-15
3.3972e-13
6.28901e-14
1.10289e-14
7.27704e-14
2.3599e-15
4.71343e-14
8.17115e-16
2.48914e-18
1.95441e-17
4.56063e-14
4.89078e-16
2.61947e-14
1.106e-13
5.78066e-14
7.38192e-16
7.11211e-14
5.98849e-14
3.20077e-14
2.51093e-18
0.000654985
1.02248e-13
4.044e-14
4.83988e-15
2.06205e-14
2.32059e-15
5.06829e-14
6.25355e-15
1.67999e-13
2.52119e-15
1.99862e-14
3.60866e-15
3.6794e-14
5.90513e-14
1.43301e-05
1.09052e-16
2.37151e-14
4.09296e-16
1.25184e-16
6.36983e-15
5.57393e-17
1.54027e-14
7.72353e-11
2.51047e-15
6.70211e-11
2.27081e-14
4.15816e-16
1.26571e-13
5.00996e-14
9.54522e-14
6.18098e-15
6.27165e-15
2.21482e-16
1.72087e-16
2.42045e-16
1.26744e-14
1.29267e-15
7.30426e-15
1.51069e-15
3.61153e-16
2.52479e-14
1.26045e-13
1.15505e-14
1.28062e-13
2.32141e-13
1.93596e-14
2.14452e-05
1.93685e-15
4.64017e-13
3.57677e-16
4.1229e-15
6.30664e-14
1.31271e-13
2.90513e-14
2.15806e-14
8.90201e-14
2.21824e-16
1.92254e-13
1.17204e-13
1.82402e-13
4.3394e-13
2.02343e-14
1.1567e-13
9.27678e-15
8.02701e-15
1.09064e-13
2.77268e-14
1.19967e-13
1.71509e-15
3.16774e-13
3.27507e-05
3.08454e-16
2.68239e-13
1.81165e-14
5.45377e-14
1.00246e-15
2.61842e-14
2.32311e-15
0.00445849
8.01289e-14
1.38723e-14
6.33331e-14
1.70096e-13
8.23422e-15
3.39127e-14
1.81088e-14
9.35537e-14
5.73345e-14
7.06938e-16
4.17662e-07
6.25178e-14
2.17819e-13
1.03989e-12
2.17841e-14
5.20975e-14
4.04265e-15
5.89224e-15
1.32144e-13
8.59884e-15
1.07958e-15
2.88959e-14
1.19289e-13
4.29579e-15
2.10836e-13
5.81983e-15
1.53372e-14
8.24666e-15
4.50862e-13
8.44834e-16
2.79447e-13
1.33016e-14
5.23602e-14
8.89093e-14
1.54596e-14
1.27279e-13
1.03248e-09
2.57328e-18
1.14017e-13
1.35833e-15
4.96597e-15
8.8953e-14
1.22839e-14
6.83973e-14
9.92289e-17
9.33835e-16
5.29523e-14
6.06953e-14
2.08247e-13
2.67e-14
2.30434e-14
2.82818e-14
1.56966e-14
8.48623e-15
5.67687e-14
6.42642e-14
2.64217e-15
7.70559e-14
4.40153e-14
3.42692e-13
8.49896e-13
6.88893e-14
4.59033e-15
0.00286354
2.49252e-14
1.09488e-16
1.50758e-13
4.41672e-14
8.61789e-14
2.92333e-14
5.58584e-14
1.77277e-15
5.52091e-14
1.5794e-14
0.000114641
1.8023e-14
4.01632e-13
2.79447e-17
1.4676e-18
8.18714e-05
2.99304e-13
4.98019e-15
6.98736e-12
9.99725e-16
1.01222e-13
0.0242312
1.04634e-15
1.19491e-18
2.61203e-15
1.93371e-13
1.32116e-13
3.81902e-14
4.35799e-16
2.4014e-17
1.25209e-13
2.16229e-15
2.07445e-15
4.67795e-14
1.05315e-13
2.31372e-14
1.55799e-14
1.7666e-15
1.42363e-13
3.91044e-15
3.85262e-14
1.33361e-17
3.89373e-16
9.20135e-18
5.51645e-16
0.992438
2.11457e-13
3.2739e-15
3.19226e-14
3.14438e-15
1.52595e-16
1.67392e-13
8.92961e-14
7.04332e-14
5.78684e-15
6.0643e-16
6.07116e-15
4.06403e-14
2.10114e-14
7.04507e-15
3.0208e-14
6.19864e-13
1.39691e-16
2.55671e-13
3.28286e-14
3.78579e-14
9.32445e-16
3.57339e-14
4.87993e-14
4.22569e-17
8.82574e-14
9.32028e-15
8.66068e-15
7.57082e-18
0.00354927
0.0122116
6.87883e-15
1.22446e-13
1.41894e-13
8.74077e-14
8.79184e-14
1.16686e-13
1.16401e-14
1.48208e-14
4.3512e-18
2.44229e-15
2.16924e-15
8.28267e-16
7.78852e-15
1.84932e-15
1.31526e-14
8.15315e-17
1.57112e-14
5.51834e-16
1.5805e-15
9.3499e-13
9.95773e-14
1.43752e-14
4.48027e-16
1.8322e-07
8.82473e-14
1.95847e-06
8.00097e-13
5.02332e-14
8.75618e-14
1.00919e-14
6.23676e-15
1.253e-15
8.36283e-15
4.2307e-15
1.48848e-18
9.66555e-16
1.47702e-15
0.125291
1.30717e-15
1.20548e-14
2.71594e-14
5.84963e-13
5.8164e-14
8.13705e-17
8.37625e-14
1.31054e-16
2.48228e-13
1.2592e-13
1.09733e-14
1.52685e-14
7.59148e-15
1.30345e-15
8.85013e-15
1.13218e-15
5.91976e-16
1.25889e-13
2.62261e-13
1.33627e-16
1.08589e-14
6.81315e-14
4.27413e-14
1.02381e-13
2.61899e-13
4.73831e-14
5.43997e-14
3.25878e-14
3.83692e-15
2.91169e-14
2.6251e-14
1.29344e-14
8.69451e-15
2.8679e-18
1.34048e-13
3.46986e-14
4.2708e-14
1.08409e-15
3.92516e-14
3.17895e-14
7.16297e-16
6.59269e-14
5.42056e-16
2.16036e-15
4.38977e-15
2.05095e-13
7.32869e-14
8.8981e-15
1.02405e-13
8.76566e-14
3.51163e-14
8.14286e-17
1.75602e-15
1.82136e-13
3.0431e-16
8.84137e-14
2.35842e-14
7.90255e-14
5.69087e-15
7.50811e-15
1.97178e-15
3.16559e-15
2.13179e-15
1.52014e-15
1.10381e-14
3.52706e-15
4.24286e-14
1.75794e-16
1.29592e-14
1.09579e-13
4.92318e-14
2.77789e-14
1.01274e-15
4.3031e-14
7.27185e-14
3.58081e-14
1.62412e-13
1.35422e-15
2.71316e-16
3.06608e-14
1.73533e-13
7.12804e-14
5.93155e-14
6.38384e-14
2.89682e-13