/*--------------------------------*- C++ -*----------------------------------*\
  =========                 |
  \\      /  F ield         | OpenFOAM: The Open Source CFD Toolbox
   \\    /   O peration     | Website:  https://openfoam.org
    \\  /    A nd           | Version:  10
     \\/     M anipulation  |
\*---------------------------------------------------------------------------*/
FoamFile
{
    format      ascii;
    class       volScalarField;
    location    "27";
    object      SgRate;
}
// * * * * * * * * * * * * * * * * * * * * * * * * * * * * * * * * * * * * * //

dimensions      [1 -1 -3 -1 0 0 0];

internalField   nonuniform List<scalar> 
111485
(
1.74737e-09
0.00901765
0.0210387
5.40054e-12
0.0449884
2.50136e-09
0.0417289
0.00587356
0.0183726
0.00112825
0.0419119
0.00915544
0.00425679
0.00600956
0.0059376
0.0316437
0.00423109
1.99781
0.0100259
2.51687e-08
0.00069277
2.32462e-10
0.0234761
0.0355072
0.0084714
2.18084e-09
0.0400899
0.00165222
0.0159474
0.000902589
0.0434577
0.0156385
6.31091e-09
2.55529e-08
0.00968337
1.80201e-06
0.012954
0.00602498
4.27187e-05
0.0215882
0.000722328
0.0719977
0.0144466
0.00100095
3.70589e-05
3.90995e-08
0.0328437
0.000720707
0.0475681
1.45323e-08
2.92655e-08
3.57798e-07
1.04362e-08
0.0444629
3.48851e-08
0.0432957
0.00355322
4.18568e-10
2.7916e-05
0.0044919
0.0149519
5.81997e-09
0.00402431
0.0885556
1.49994e-07
0.00359289
0.300862
0.0971506
0.000922792
0.00511728
7.59333e-06
0.0055081
2.13979e-07
0.00245065
5.78012e-09
0.000633972
1.11248e-09
0.0425206
1.98194e-09
4.7805e-07
0.00501954
0.0408261
9.26467e-10
2.18117e-09
0.0081352
0.00442686
0.00249484
0.0225376
5.09945e-05
0.00560353
0.000867739
0.0411045
0.0103366
0.00681957
0.0559726
4.24419e-10
0.00050504
0.00145196
2.88354e-05
0.001487
5.41305e-10
0.0195147
3.54574e-08
0.0214664
0.004832
2.53123e-07
1.91704e-10
0.00809694
0.00318557
1.18893e-05
0.010897
0.0049986
0.00313916
0.00264594
5.62482e-09
0.000712736
1.56098e-09
1.64877e-07
0.0113581
1.5922e-10
1.14409e-09
3.36134e-06
0.00124904
4.51687e-08
0.00233639
0.000533279
1.97824e-06
0.00735484
1.75765e-11
0.000178354
0.000990264
0.0280608
0.000884791
3.17005e-06
1.47364e-06
0.0491228
2.01912e-10
0.0411353
0.0225904
0.00254779
0.000173141
0.00187648
0.023708
0.0031079
0.00379598
0.00144492
2.32119e-10
8.24876e-10
2.22206e-09
0.0262233
0.00183068
0.00053077
0.00197814
0.00103865
1.6678e-06
0.010576
0.0155303
0.00943902
1.63445e-05
1.09076e-07
7.8233e-11
0.0526258
0.0252445
6.28994e-06
1.58189e-06
0.000767112
0.00369542
0.000451772
3.7475e-05
6.82169e-05
4.09134e-11
2.10694e-09
0.00362222
2.71664e-11
0.00128044
0.000229401
8.20639e-09
1.6222e-07
4.06592e-09
9.72297e-08
1.49301e-07
4.98687e-09
0.00133762
0.0067116
0.0277079
3.03412e-05
0.00641795
0.00196605
0.000101329
5.52391e-09
0.000838179
9.14541e-08
1.316e-07
0.00415484
0.0110721
0.0227994
0.0105432
0.000688179
2.00859e-08
0.00605174
0.000573233
7.33066e-05
0.0111874
0.0013377
3.05501e-08
0.00276246
0.0275266
2.00746e-07
0.000230574
0.00650874
0.00227983
0.000335141
1.41157e-07
1.18236e-10
0.00440382
5.0536e-06
0.123867
3.22207e-10
0.005868
0.0140397
0.121874
1.35317e-09
0.00196891
0.0120086
5.06443e-06
1.16426e-10
2.22015e-11
0.166673
7.41958e-05
4.09145e-07
1.72433e-06
0.00780619
0.00559305
0.0183276
6.52045e-07
2.08067e-07
0.00285507
1.38549e-09
0.0027252
0.00463852
0.0111573
0.00553584
0.00681026
7.49334e-08
3.3352e-05
0.000716932
1.44422e-07
1.48571e-09
0.0307127
0.0235542
3.5798e-07
0.00899119
0.00543669
2.52846e-11
3.63425e-06
0.000153497
5.70826e-09
1.21131e-06
0.00184359
1.56032e-09
0.0148112
0.0119374
0.00185522
6.55561e-11
0.00684446
1.59906e-11
9.68816e-10
1.24519e-08
0.00297154
0.0225635
0.00553508
0.00467233
0.0400673
0.0109961
0.00150632
0.000594496
0.0144746
0.0097609
9.41792e-09
1.83187e-09
0.00203575
0.0211606
0.0215268
0.00902547
2.71606e-11
0.0101669
0.00664069
0.00276239
1.23607e-05
4.98709e-06
0.0122286
0.00212211
0.00186353
1.64547e-10
0.000779468
3.27351e-10
6.83592e-06
4.94471e-06
0.266658
0.0682721
0.0198875
6.05855e-09
0.00144089
0.00830273
0.00182373
2.28479e-10
2.20326e-09
0.000461979
0.000418059
0.0125749
0.0033393
0.0154422
0.0182812
4.5848e-07
7.73373e-10
3.9143e-09
0.00349126
7.52894e-05
0.00573342
0.186981
1.44311e-05
1.75399e-10
1.02142e-09
4.48298e-10
1.49637e-06
0.0573983
0.0123201
5.71653e-08
0.00486456
1.32218e-06
0.00112862
0.0672542
0.00537112
0.0107205
0.00852312
0.000795683
9.28903e-07
1.07581e-08
0.00869442
0.00268454
0.00468068
2.73055e-09
0.0026477
0.000229531
0.00177791
0.00737839
6.81712e-05
0.0284719
0.000652045
0.0370337
0.00317768
0.0078464
0.0231181
0.0147397
1.75631e-07
6.85692e-09
9.12859e-09
1.87368e-08
0.0321088
0.015273
0.0370929
0.0669661
0.00088231
0.0201523
4.20268e-10
8.7774e-09
0.0161151
0.000880189
0.0398308
0.000856222
0.000824261
0.023738
2.16554e-10
0.00174574
0.000335362
3.44995e-11
0.00112167
0.01523
2.83083e-07
0.00783694
0.0106758
0.00753295
0.000447832
0.000527519
0.00249533
8.87583e-07
1.23025e-08
0.0013764
5.51638e-09
0.00500252
0.112112
0.00050376
1.99465e-09
0.0256625
0.00284817
0.00513408
0.0278501
7.80741e-09
0.0389744
0.0197478
1.32553e-10
0.000696719
0.00281998
1.68099e-09
0.000596821
0.00243387
0.00487478
1.66368e-08
3.19364e-10
1.31685e-05
3.48191e-10
0.0105521
6.6881e-08
1.54875e-12
0.017719
3.38646e-06
0.0189783
0.0266981
3.91333e-11
1.44142e-06
0.00108472
1.7844e-06
0.000108422
0.0108321
0.121704
0.905655
9.81406e-07
0.00649415
0.000238596
3.80817e-09
0.0350372
0.0331286
1.94481e-09
2.43503e-05
0.000112451
1.38778e-06
0.0256972
0.0268906
0.00468701
3.64934e-09
0.00755227
0.0206104
0.00273019
8.50119e-05
1.69165e-06
2.48063e-05
1.23017e-09
0.00451396
0.0107652
4.11462e-10
0.00957872
7.33257e-05
1.99716e-06
6.19365e-11
4.80108e-07
4.34617e-10
0.00930182
0.00397501
0.00711351
0.0024437
0.00339021
4.63659e-09
0.00228348
1.35152e-08
0.0356497
2.93173e-09
1.79448e-08
0.000977568
0.0317939
1.78792e-09
2.11081e-09
7.64246e-06
1.54035e-09
3.1454e-08
0.00087559
6.74815e-11
1.05961e-06
1.66775e-09
0.00138475
8.47463e-09
4.47082e-08
3.12677e-09
0.00816109
8.87448e-09
0.00436209
0.00166254
0.00677546
5.44311e-10
0.000625273
4.68534e-08
6.08252e-11
0.00957671
0.00456191
0.0294029
0.0222443
5.65123e-07
0.00187088
0.0726403
0.0066225
0.000557062
0.00873206
1.05595e-09
0.0059327
1.95775e-06
0.00428206
0.000986903
0.0690982
2.01948e-06
0.0100048
0.000323553
1.30588e-05
0.00136538
0.00107571
9.69579e-09
0.0759449
0.0443092
6.03233e-08
2.31066e-08
4.04343e-07
2.10798e-11
3.03115e-05
0.0545996
6.52355e-09
4.78991e-09
0.00288256
5.00537e-10
0.0304019
4.11998e-09
0.000351245
1.36813e-09
0.00263866
0.00198921
0.00111916
0.00522293
0.00108549
0.00221592
5.68194e-09
4.16617e-09
0.0162736
3.85163e-09
3.83948e-05
2.89691e-07
0.00147636
0.000795451
0.0661522
9.16402e-11
8.22486e-07
0.0121947
0.0038782
0.00150424
0.00430785
0.00591071
0.0208915
1.87763e-08
0.0207322
0.00708315
1.58988e-10
0.00225823
0.0314352
0.0125528
3.43975e-08
0.00552076
0.0054366
0.00128631
0.00143241
6.14922e-06
0.0138002
0.000985701
0.000166995
0.0267619
0.0117175
0.00109545
1.31306e-06
6.52228e-05
0.621482
5.90529e-09
0.000419832
8.13619e-08
6.15437e-07
0.00389724
0.00364685
4.92415e-05
1.80223e-05
2.92029e-06
0.0185024
0.00994679
6.26486e-09
3.48604e-06
0.00203798
1.45158e-09
5.31593e-11
9.04798e-09
7.7578e-10
0.0152484
2.99962e-11
0.000651099
0.00987397
0.00237293
0.00181116
0.0149923
1.01758e-06
0.00853637
0.000691462
6.91669e-10
0.0571366
3.28786e-09
9.90177e-09
8.02473e-07
0.000520166
0.00208425
0.0328347
0.00632081
6.43761e-08
0.0727538
0.0053604
0.0261365
0.0235796
0.000930041
0.00354605
0.000696074
0.0569304
0.0416
1.31935e-07
0.000303108
0.0361933
0.00707633
7.24458e-05
0.0244207
0.0237495
2.15244e-08
0.0104698
1.64434e-05
5.47934e-07
0.031973
0.000299366
1.2278e-05
0.0104676
0.0387781
0.00158843
0.0185276
0.0168413
0.00723999
7.03824e-08
0.00923528
0.000400551
3.14941e-06
0.0144645
0.0149027
0.0322579
9.51085e-09
0.000645159
9.9321e-08
2.13692e-09
0.00129589
6.36186e-10
0.00243035
1.01091e-06
0.000234622
1.31195e-08
0.000492524
5.10083e-05
0.0396716
3.25124e-10
0.0366262
5.99995e-09
4.14004e-10
2.01032e-08
0.0446169
0.00049878
5.6512e-07
0.000762504
2.26875e-09
4.15845e-10
0.238823
0.0648714
1.48914e-06
0.0017711
7.07697e-06
6.48486e-10
0.0349143
0.00649611
0.0136792
9.15919e-12
3.68303e-09
0.000390335
0.000988766
2.27493e-06
9.09295e-09
0.00104538
0.00713889
1.12957e-09
4.48074e-09
0.000759287
0.0385012
0.00161587
1.8664e-11
4.12139
0.142961
0.010687
2.53229e-10
2.55632e-09
0.0567368
0.000304908
7.52285e-07
1.71718e-05
0.170034
0.00291767
0.00207141
0.00105398
0.057806
0.00152129
1.45572e-09
2.47989e-08
4.95077e-09
3.76535e-09
1.14113e-09
2.61678e-11
0.0193338
1.36222e-09
8.44033e-09
1.90709e-08
0.011932
0.023538
4.68552e-09
1.48704e-08
0.105672
0.00521828
0.00270057
8.78057e-09
7.25589e-10
0.0152097
2.14646e-11
0.00227627
0.00108239
0.00261634
2.96256e-09
8.5639e-11
2.24663e-10
4.53445e-11
0.0158618
2.07576e-09
1.18385e-08
0.00081716
2.22575e-10
0.0217993
0.00140752
6.89423e-08
0.0332363
0.599496
0.00233041
0.0338554
0.000202458
0.0480234
0.00376549
1.47946e-06
0.0220826
0.0766423
0.000310375
3.44896e-07
0.00169273
0.517814
0.00105738
3.91416e-09
0.00291699
0.00313822
0.00143636
1.36544e-06
7.84695e-11
4.73783e-13
0.0128525
6.72945e-07
0.00465375
6.95968e-08
0.00146011
0.00168135
0.0038362
0.000654925
2.85913e-09
0.000558341
2.01703e-07
0.0196679
2.09092e-09
8.88909e-07
4.51627e-05
3.38361e-08
8.19114e-09
0.00075997
3.61409e-11
0.00793953
0.00106067
6.46266e-10
0.00125282
7.65097e-07
0.000617688
8.86539e-06
5.53615e-09
3.79058e-06
0.00679408
0.000852491
0.00333342
3.48908e-05
0.00285768
8.7707e-05
0.00395969
2.11217e-08
1.0063e-05
0.0177946
0.00323346
3.18676e-09
0.00418736
0.017168
2.95049e-06
0.0201901
0.000300813
2.27972e-05
0.0252919
0.00750735
0.00216229
0.00133804
0.000923462
0.000765769
3.66491e-09
0.0201429
0.00407651
9.86717e-10
0.0017701
0.0575295
0.0160177
6.26036e-09
0.00167104
8.16319e-10
0.00323081
0.0151323
7.83517e-09
0.00754896
0.00637286
2.43719e-05
0.00738613
1.87542e-08
0.047143
2.03649e-05
0.0018654
6.07041e-05
1.91732e-05
7.88536e-08
0.000762802
0.0083401
6.01937e-10
9.60153e-05
0.000334005
2.2226e-05
8.44248e-06
1.6176e-05
4.30821e-06
1.04651e-10
1.31414e-06
0.0218025
1.38057e-08
0.00118428
0.00848867
4.34473e-09
5.61007e-09
5.78126e-05
6.24556e-05
4.21668e-11
1.45402e-05
9.88479e-09
2.28662e-10
3.46093e-10
7.69971e-09
1.06224e-07
8.23802e-09
0.000332117
0.000856333
5.60332e-11
1.36601e-08
8.38207e-05
0.00212677
0.00204505
0.00909661
0.000544609
7.00021e-11
0.000235163
5.37618e-10
8.51996e-10
1.07709e-05
0.0217826
0.0413002
2.00279e-09
3.26746e-09
0.000593826
8.50455e-09
0.000388429
4.64997e-09
0.00845733
1.38181e-10
3.86237e-05
0.0269362
4.2842e-11
1.79251e-08
9.88296e-09
4.25299e-05
1.61302e-08
3.7288e-09
3.52937e-08
9.09107e-05
0.000907107
0.00530526
1.15486e-05
2.03932e-05
4.0136e-09
6.92125e-05
0.00260551
0.0434565
4.9542e-08
9.76632e-06
0.00721448
4.61263e-09
1.56601e-07
2.78178e-06
4.13818e-09
0.00799839
0.0017471
0.00396112
0.00125665
9.61332e-11
0.0220837
0.00101242
2.12041e-06
1.35476e-06
2.92014e-10
0.0252835
2.85477e-09
1.96033e-08
3.08059e-06
0.0353437
1.77954e-08
0.00300152
4.42217e-07
0.00112567
3.96923e-07
9.24945e-11
6.24089e-08
8.04039e-11
0.00225228
0.000684607
0.338844
3.63776e-09
8.58317e-09
0.00169336
8.52521e-11
7.80757e-07
9.30156e-09
0.0422425
2.08744e-05
0.0286866
4.81682e-09
3.33985e-05
3.17807e-05
1.3263e-06
7.22485e-05
8.84901e-10
0.00182616
0.0276349
0.022074
0.00164721
0.000328525
8.94995e-09
1.27419e-11
1.2926e-09
0.00329829
0.00125597
0.0054429
8.16753e-12
0.175909
6.46164e-10
0.0447786
0.00354664
1.51602e-08
2.53222e-09
4.84936e-08
1.55983e-08
0.0313197
4.40972e-08
2.10326e-06
0.0148839
0.00535602
1.29222e-06
5.27188e-07
1.33895e-06
9.27298e-07
7.87886e-09
1.14899e-11
0.02039
0.000519968
4.74515e-09
3.75774e-09
1.10463e-05
6.84073e-09
0.00132724
0.00746313
2.73168e-08
0.00271186
1.2439e-11
0.00100709
3.77296e-09
0.0067328
3.90696e-10
0.00214951
0.000107388
0.000878535
0.0143924
0.0274093
1.88504e-05
4.59997e-08
0.000448498
4.83121e-08
0.00433451
1.29093e-08
3.82991e-08
1.52556e-06
5.64419e-08
0.00118882
4.63503e-09
0.00569578
0.0062778
9.36044e-11
7.26374e-06
4.58291e-09
0.000534715
3.1746e-05
2.35134e-09
0.0184949
0.000214535
9.80325e-09
0.0111225
0.00385582
0.00331811
0.0134596
1.32621e-10
0.000778552
1.59194e-07
1.22218e-08
0.0359101
8.10087e-08
0.103801
1.41481e-09
0.00292195
0.000728994
5.05262e-11
0.000672375
8.18873e-09
1.35857e-10
0.00227461
1.59506e-05
0.00591921
4.40618e-10
3.41175e-08
8.41392e-10
0.000693828
8.68504e-07
0.000643251
1.06416e-07
1.49313e-05
1.25414e-06
3.25489e-05
5.23488e-07
5.38713e-08
2.20188e-08
0.0155206
0.0151857
0.0176825
0.0343186
0.000820172
1.49445e-05
0.000801464
4.27044e-11
0.00782393
1.79763e-09
4.52313e-06
0.00025762
0.0150393
0.000241516
8.62992e-06
0.00242699
1.54232e-11
0.000113412
0.000144171
9.51711e-05
0.00123651
0.0134997
1.5772e-05
3.6934e-08
0.0311754
7.13291e-09
1.18239e-09
3.40532e-05
0.0745456
1.65592e-05
1.51767e-08
0.000792904
1.19366e-05
1.60581e-08
1.97346e-08
2.13295e-05
5.88087e-08
0.00104031
0.0460253
0.000144036
0.000109997
0.0231086
0.00722668
5.12762e-10
2.904e-09
5.02302e-06
0.00419922
0.000582786
0.00102664
0.0112431
5.79232e-09
5.66233e-06
0.000704152
4.61076e-07
2.11046e-05
2.52259
0.000739218
0.00233497
0.00085955
0.0153232
1.57977e-10
3.59047e-05
3.17654e-08
3.39914e-09
4.58632e-09
5.52275e-09
0.00336518
1.29285e-09
3.3097e-09
1.58726e-06
2.33558e-09
2.47227e-10
1.7151e-08
0.00996943
0.00100099
0.0110341
0.00233764
0.0012917
0.00637789
1.99323e-09
0.00373514
4.82009e-06
0.00958272
0.0134318
1.36501e-09
0.00043343
0.00933589
0.00465019
3.77287e-11
2.39213e-05
0.0170791
0.00216869
2.90097e-07
0.0106293
2.80045e-08
5.8367e-09
0.00131169
2.5909e-09
0.00320561
4.75482e-09
9.23063e-09
0.0035797
8.98808e-06
0.00078492
1.98464e-08
6.55948e-06
0.000676265
9.89847e-09
0.000149628
2.20615e-08
0.00388972
3.7888e-09
2.34178e-09
0.00456495
0.000743948
0.00010944
6.01142e-09
6.76384e-10
0.00522677
0.00383511
0.00504232
0.0174663
0.21752
0.0197148
5.33951e-10
0.000598299
0.00237333
0.00674839
0.0352055
0.0133387
3.15393e-09
0.0144923
3.62878e-10
0.000756226
0.00763337
0.00959414
3.19979e-10
0.0123169
2.49541e-08
0.00271991
0.00698609
7.52958e-08
2.25733e-11
1.2172e-10
0.00232533
0.00136757
2.60266e-10
0.00354791
0.01892
5.80832e-06
0.001817
0.000821964
3.21224e-08
5.59676e-05
0.000656334
7.66236e-09
0.00924941
4.85923e-08
0.00243911
3.46342e-09
6.4545e-09
0.0111237
1.3949e-09
4.82948e-05
0.00296978
1.26678e-09
5.76575e-09
0.00365787
9.50748e-06
0.0593724
2.49792e-09
0.285317
3.95373e-08
6.62373e-06
3.55303e-06
0.00644057
1.56837e-06
0.00135968
0.0050164
9.50603e-07
0.000176029
0.00115441
1.53338e-08
9.33208e-10
7.50447e-06
0.000774549
0.000707507
4.90228e-09
0.0359695
0.00094173
4.34824e-09
0.00469569
1.18394e-09
1.08711e-08
1.22037e-06
0.00370293
0.00641329
0.000971275
8.75894e-09
2.43713e-09
7.4115e-11
1.11171e-08
1.06766e-08
1.7467e-08
2.98719e-09
1.34524e-10
3.90685e-09
1.92611e-10
5.39418e-09
0.00106599
0.000635181
2.05425e-10
2.61417e-07
4.08785e-09
8.4082e-09
2.10138e-09
0.000622969
0.0015455
0.018351
4.36632e-09
1.3825e-09
1.65514e-08
0.00618648
8.82731e-08
5.82e-09
0.194631
4.9911e-09
5.40933e-08
0.0218891
3.17954e-06
9.91903e-08
0.00438761
0.0232812
4.87304e-09
0.00127838
0.00217161
6.11883e-09
0.0111046
0.0374123
0.0165116
0.00287936
0.00959099
7.3915e-08
3.46499e-09
0.00857757
0.0104408
0.00269043
0.00106923
0.00565803
0.00135195
0.0186573
0.00516858
0.000302506
0.0135967
0.0916568
0.00844612
8.03864e-08
0.0265471
0.00756533
0.00181874
0.00117234
1.4883e-10
7.93572e-09
5.61397e-10
1.02175e-11
2.75893e-09
0.00879698
0.0122221
2.37438e-09
3.53746e-11
8.11174e-09
3.09854e-07
6.46318e-09
2.17229e-10
1.46665e-08
4.15443e-08
0.00409408
8.83717e-05
0.0195131
0.00442848
2.25039e-09
2.0498e-07
0.0331498
2.89579e-06
4.04802e-10
1.04697e-08
0.0109701
9.41615e-09
2.91957e-10
3.60086e-06
0.0110018
0.0122598
0.0293586
0.0270209
2.99158e-08
0.00187811
0.000264113
6.92864e-06
2.67209e-10
0.0102058
1.0557e-07
3.57176e-09
0.0276588
0.99389
0.00361833
1.35955e-07
3.03673e-08
0.0162138
0.0221976
0.00151273
0.00573175
0.00203291
3.95111e-09
1.35533e-05
6.88136e-06
0.00113131
1.42841e-07
0.0215378
4.8754e-09
0.00197319
0.00354902
0.0155018
0.0119999
7.15824e-08
0.00405869
9.623e-10
1.66137e-07
4.15871e-10
2.17468e-10
0.00366958
0.709773
5.4749e-09
3.68478e-10
1.24518e-05
0.0228316
0.00047307
0.00616864
0.0311364
0.00447766
0.0198177
3.67083e-07
9.82985e-08
3.74657e-06
0.0306387
0.00492944
6.33444e-05
3.10981e-08
3.1525e-10
2.68788e-06
0.0187051
0.00269099
8.9077e-10
0.00688028
0.0450652
0.00816731
0.00542508
6.18817e-09
3.78449e-06
0.00602072
0.0215943
7.9228e-11
0.000239318
0.0120324
0.000858463
0.0125572
0.00420809
0.00745367
4.71591e-06
0.00269366
0.0185205
0.0369595
1.23928e-06
0.0229198
2.26434e-06
0.0191633
0.000131597
3.1643e-13
0.00230209
0.00280192
0.000377032
0.0107194
1.1526e-05
0.000206739
2.58495e-05
0.0246055
0.00228752
8.99781e-07
0.0340182
0.000227194
6.39206e-09
4.24708e-10
0.00187305
1.45133e-05
0.000893426
1.01331
0.0325045
0.00779934
9.18796e-06
0.0370699
4.97481e-08
5.96396e-08
0.00381876
7.82333e-07
0.00239923
0.00615433
0.000526997
0.000979238
8.50542e-09
0.000238708
0.102049
5.49502e-10
0.059604
0.00552195
1.82485e-07
0.000122677
0.00010797
2.81412e-09
9.77499e-06
0.0025245
1.34337e-08
4.15859e-10
1.02649e-10
0.00610109
0.0088737
0.0132448
0.00100116
0.00560284
0.00770251
1.45483e-07
0.00600321
0.00540186
0.022785
0.00130135
0.00195957
0.00651402
0.0178359
0.00179813
0.00637724
0.0336271
0.146412
0.00960141
6.2851e-10
0.00339361
0.0481046
5.88071e-10
0.00119184
1.01606e-08
7.43102e-09
1.44791e-09
3.73063e-09
1.20133e-09
0.005083
1.22916e-09
0.00784804
0.00144638
4.29668e-10
0.00408475
1.23861e-07
0.0133488
2.05136e-09
1.77891e-05
1.02958e-07
0.0206474
0.000112768
1.37114e-06
0.00185618
0.029104
0.0165537
0.00301467
0.00507943
5.9261e-05
0.00227934
0.0495535
0.000627248
1.9655e-08
0.00117707
0.000360435
0.000586005
0.0113039
0.000755579
2.22857e-08
1.05969e-06
8.84546e-09
0.0040435
0.000764469
5.52935e-05
0.0059894
0.000550075
0.000273546
2.65547e-10
0.00114893
7.83939e-10
0.00726187
0.0199779
0.00181564
8.95407e-06
0.00099522
0.00611469
0.00146538
0.000734234
0.00423562
0.00495119
0.00233266
4.53141e-07
0.00131566
4.52957e-09
0.0137929
0.0101724
2.17761e-08
3.01136e-10
4.28558e-06
0.00637437
0.0145784
7.1026e-09
0.00192372
0.000831516
4.31819e-06
0.0052469
0.074072
6.54515e-11
3.72678e-12
0.00343332
3.0609e-10
8.56596e-05
0.0116055
3.93994e-07
0.00939913
0.0313656
0.0111116
6.46171e-10
0.000659756
1.53033e-06
5.77405e-05
0.045441
2.07964e-09
1.99043e-08
0.0105087
9.91691e-06
2.89085e-08
0.00355366
0.00052774
3.97909e-09
6.22241e-09
4.11714e-06
9.42963e-05
0.00125598
0.00305031
0.0201924
0.0135904
3.31817e-10
6.08856e-06
0.000421659
0.000796129
2.88465e-08
0.000886366
0.00154927
2.18322e-06
1.32167e-07
3.26819e-07
8.06732e-10
2.74049e-07
4.66466e-07
6.40182e-06
3.25549e-07
0.000410052
4.44449e-07
9.32084e-05
6.3442e-06
7.16052e-05
2.73903e-06
1.86094e-09
0.0220081
0.0080566
1.12686e-07
0.08674
4.18266e-06
3.5915e-06
2.85318e-07
0.00104595
4.52397e-06
0.00218969
1.18371e-05
0.000978088
3.84955e-07
6.58623e-10
0.000634562
8.12557e-06
0.00123983
4.73908e-08
0.0367957
8.01676e-07
0.0338679
1.41589e-06
1.51299e-08
7.92155e-06
0.0266063
0.00844048
4.49915e-09
0.000397989
2.39291e-07
0.00104702
3.51893e-05
0.00786355
0.000645894
2.9564e-08
0.0189839
0.000766869
0.00481301
0.000562508
0.00131328
1.85354e-11
0.00522371
0.0041473
0.0441979
1.04509e-08
2.27767e-05
2.0249e-08
0.000799702
4.05014e-09
2.73701e-10
0.00237861
0.0015653
0.00223811
0.279349
0.00073695
0.0286895
0.0328849
0.0179863
0.00510831
0.000719259
0.00532244
0.00327031
0.00565209
1.09208e-05
0.00963396
0.000698374
0.0017237
0.000893378
0.0303264
8.15155e-07
0.00241438
1.39013e-08
0.0166215
3.30334e-08
1.22128e-08
0.00143028
8.35974e-08
0.00695388
5.43225e-10
1.20074e-08
0.00134083
1.64966e-10
1.63479e-09
0.000591342
8.41823e-09
0.00060398
6.2406e-07
0.00110273
0.0187808
0.0105186
0.00720942
0.00808614
0.000745019
0.55544
9.31297e-12
0.0666774
0.000523456
0.0185413
0.0180504
0.0018325
0.0533817
1.32136e-07
1.49554e-07
1.98558e-08
0.004281
3.55879e-08
2.29268e-08
0.0166601
1.23435e-08
1.09947e-09
0.00403921
5.92805e-08
0.0173905
1.74463e-06
6.35109e-07
7.86098e-07
1.00295e-06
0.00135513
0.00576014
1.15145e-10
0.0011805
0.000244054
3.82646e-07
0.0943556
5.62919e-09
0.0153578
0.0170095
0.00282557
6.26279e-09
0.0154758
0.00825553
0.00059915
0.004105
0.0111012
4.76912e-09
3.67012e-09
3.39091e-05
7.01273e-09
1.50177e-09
1.55892e-10
0.0182322
0.0413772
0.00400867
0.00175718
1.2865e-06
0.0416518
0.0428849
0.00367691
0.00300175
0.0079635
0.0200825
0.00204079
2.1977e-09
1.67127e-09
5.78405e-10
0.00505129
4.88573e-09
0.0299322
9.33321e-06
0.000629619
3.46204e-05
0.00236027
0.000926442
9.6629e-10
0.00110659
0.00197934
0.000279113
3.35459e-08
2.09812e-08
1.25705e-09
0.0084226
0.000257541
0.000114923
0.00063583
0.00550798
0.0858233
1.57233e-08
6.41837e-09
1.059e-08
0.00158946
0.0188606
0.000760843
0.0310365
0.00188873
0.00212115
5.59107e-08
3.66685e-10
3.21278e-06
9.65284e-09
0.00777114
0.0190616
5.88745e-09
2.78025e-08
3.57785e-07
0.00114295
0.000558916
3.06219e-07
0.0109363
0.00167383
0.00108738
0.291467
0.000784295
1.57457e-05
0.00131578
0.00370794
0.000348769
1.72415e-07
0.00368068
1.71454e-09
0.0115988
3.16492e-05
0.0222653
1.67344e-07
6.48592e-06
3.37451e-10
0.000430888
2.55671e-09
4.96908e-07
0.176774
2.59966e-09
0.00440937
0.00102235
9.00844e-09
1.00395e-08
0.0014616
1.22248e-08
2.79884e-09
0.0130381
5.0913e-05
8.77517e-10
0.000432106
0.000820517
0.00920806
7.41503e-12
1.37882e-10
0.00024482
0.0019673
0.00224528
5.22031e-09
1.00193e-08
2.49094e-06
0.0029525
0.00140658
0.0103595
0.009342
1.22122e-10
0.00725149
0.00139832
0.00261532
0.000939761
2.85961e-08
9.86914e-10
0.000426421
7.53261e-11
0.0282333
0.00699563
0.00435374
1.72486e-08
6.48989e-09
1.80901e-10
6.28094e-10
3.69215e-07
0.00231433
0.00396847
0.000280659
6.75095e-08
4.77549e-12
0.00104275
0.00397844
0.0275357
0.0947013
6.38584e-09
2.18614e-05
4.05243e-06
3.64114e-09
5.8371e-10
0.00334083
0.00675373
2.39192e-09
1.75812e-07
0.00243549
0.00111282
0.00430659
0.00114819
2.00898
2.26574e-10
1.16773e-08
0.0119791
0.00036355
5.29138e-07
0.634822
0.00240171
0.00672654
2.05579e-09
9.6661e-09
2.76933e-07
0.00108574
0.00728219
0.00321451
7.82536e-10
0.021739
0.0159807
0.838335
5.94923e-10
3.29315e-11
1.09966e-08
1.1707e-09
0.00536883
6.05928e-06
6.60198e-09
0.000690425
0.00518623
0.00386495
0.00496376
4.61508e-08
3.05343e-08
0.02562
2.01481e-07
2.34713e-10
1.01497e-09
8.53086e-10
0.022717
1.52941e-07
0.000963347
0.000937467
0.0167415
0.0126136
1.06974e-10
5.38846e-11
4.36581e-10
0.0134083
3.6956e-06
7.9219e-09
3.04707e-10
1.05116e-10
0.000407933
0.00216868
0.00864111
0.000756395
0.00205522
0.00633634
0.00393554
1.44547e-08
1.7945e-11
4.84514e-09
0.00100054
1.56154e-11
0.0213661
8.98574e-10
0.0155282
7.73125e-07
0.00115483
2.42033e-06
0.00170011
6.71488e-10
4.68183e-10
0.0165375
0.261389
6.08543e-07
0.00259889
1.62783e-08
0.00028771
1.59106e-06
5.14354e-08
9.24215e-08
5.90714e-06
6.28011e-09
0.000370698
0.000728449
0.0334912
6.96056e-09
1.45668e-06
1.46523e-08
0.000635791
0.00323731
0.000111445
7.59615e-10
0.00383506
5.82851e-09
0.00351799
0.0195379
0.000891375
4.85165e-11
2.03939e-05
0.000307077
3.90615e-06
0.00491113
2.62125e-06
0.00119476
1.17815e-07
2.68013e-11
3.53676e-06
0.00274911
0.000170084
2.07989e-08
1.71508e-07
2.10747e-06
0.431237
1.93284e-10
4.30001e-10
1.62304e-09
1.91127e-11
2.18036e-09
0.00048076
0.00012982
0.000755385
5.9459e-05
3.74908e-06
0.0009117
6.40096e-12
0.00632185
3.82566e-10
9.48068e-09
1.46228e-09
4.156e-07
6.21046e-05
4.14505e-07
2.38974e-09
4.74648e-09
0.0145038
7.52053e-09
2.60951e-09
0.0132007
1.93616e-07
0.0364631
0.0655796
0.384361
1.30828e-09
0.204493
1.27437
1.80564
0.668932
6.40269e-10
4.2814e-11
0.00473339
0.0052356
1.18041e-06
0.00293549
0.000705765
0.0310464
5.62639e-07
7.30176e-08
0.000480216
3.92812e-09
9.982e-11
8.9257e-06
3.49558e-05
0.000488565
2.17807e-10
0.0020796
2.08665e-06
1.4396e-08
2.17091e-05
0.00738786
0.00113296
4.91021e-08
0.00605768
5.77366e-09
0.00343008
4.03564e-05
0.0051194
1.46117e-08
3.23855e-05
0.00465754
1.83731e-07
5.99037e-05
1.35595e-09
0.0317581
9.39813e-07
0.0101911
1.25482e-08
0.00338149
2.70017e-09
2.8884e-08
4.13565e-09
0.00209172
0.00207247
4.50692e-08
0.0119493
0.0067094
0.00102865
1.084e-08
0.0326929
0.00297779
0.173667
2.62811e-08
0.00344845
0.0240887
0.0455708
7.76945e-05
1.50095e-09
0.0646982
3.40882e-08
0.213496
5.15379e-10
4.53953e-05
6.55903e-05
1.6645e-09
4.00473e-05
3.10091e-08
0.0198049
3.51694e-10
0.000737182
1.08875e-08
2.26055e-07
1.46282e-08
1.37205e-08
0.000365348
0.0014832
0.137682
9.28631e-08
4.24178e-06
0.0407899
2.60816e-08
0.000800092
2.17129e-08
5.55339e-08
5.90356e-08
0.00113106
3.33182e-11
4.65675e-10
4.50236e-11
0.00122062
1.18078e-08
0.00112138
3.60329e-07
0.00954045
8.88405e-10
0.0202596
0.198131
0.00380685
0.0119602
0.00418252
2.05153e-07
6.26403e-09
7.00689e-09
0.00608739
0.00164954
4.74754e-08
8.81778e-06
0.0106974
2.08108e-09
5.76995e-09
0.311704
1.33094e-08
0.0215568
9.53982e-10
0.0025025
0.00365678
5.06291e-09
2.62719e-11
0.000852917
1.43113e-10
8.73716e-11
0.0200289
0.00105457
0.00817504
3.95997e-08
6.21222e-10
0.00340439
1.02618e-07
0.0137667
9.57559e-08
1.90433e-09
0.00220008
7.62671e-05
0.123616
1.10767e-09
6.67421e-10
8.30568e-09
0.00372807
0.170926
2.56438e-08
3.60338e-09
1.29488e-07
0.000250283
2.559e-09
0.0212622
0.0233441
1.71251e-08
5.66645e-10
0.00150656
2.95041e-09
3.65602e-07
5.38842e-11
4.51881e-07
5.41598e-10
0.0601657
6.08703e-06
2.42755e-09
1.09792e-09
0.00126326
9.72492e-10
0.00104109
9.96565e-09
1.17284e-08
2.0151e-07
0.0075384
0.000774583
0.000774035
0.000922591
0.00112102
0.542982
0.00251759
0.000752149
1.92406e-07
5.08256e-10
0.00467711
0.00236727
0.000688226
0.000781284
5.61436e-10
0.00685585
1.5329e-10
0.00293027
1.79496e-08
0.0100161
3.16459e-06
0.0551195
1.9843e-08
3.89002e-09
0.0170867
5.39749e-06
1.18751e-09
0.0254931
0.000269508
3.95826e-08
1.26081e-11
0.0385901
0.0118398
0.00152919
0.00244729
0.000508028
0.015638
0.000593813
0.00543912
1.5708e-07
0.0199468
2.22325e-06
8.29613e-06
1.38939e-10
1.7962e-08
3.85861e-09
0.00471049
1.86424e-09
4.95834e-08
6.27405e-12
7.91082e-06
0.00694484
0.00150826
0.00280915
3.87749e-10
0.00407993
0.000918465
0.00179381
0.00567596
4.88479e-06
0.0399019
1.07483e-08
7.56692e-09
2.40011e-09
0.00140375
0.00142212
8.3377e-09
8.62077e-10
0.00137745
1.05492e-08
0.625715
0.00100849
0.0800447
2.31581e-10
3.06109e-09
0.000786964
4.76469e-10
0.000583729
1.00839e-08
7.16831e-05
3.261e-10
0.00933573
8.14169e-09
3.85097e-09
1.99995e-05
0.00268442
0.0012055
2.69688e-08
0.00127928
7.01028e-10
0.0043542
0.227496
0.00200997
7.81546e-09
0.000398917
4.29824e-10
5.40541e-08
6.7983e-06
0.0165609
0.000172937
4.84663e-09
0.0136976
0.00368209
0.00443635
0.00843079
1.08535e-08
7.12514e-09
6.05366e-08
2.41302e-08
4.186e-09
2.49106e-09
0.00125142
0.000691122
2.81445e-09
0.00139196
1.70944e-10
5.59863e-09
0.0706117
1.18475e-08
1.03411e-10
0.000647809
2.37504e-09
7.05235e-11
1.05416
1.59083e-10
3.01208e-11
0.00139624
0.00156567
3.73412e-09
0.000694135
7.80696e-10
0.0206941
0.00083276
1.24148e-07
1.67565e-05
2.05895e-11
3.0203e-09
2.30381e-08
3.89339e-09
0.104914
0.000756752
0.000250126
8.64998e-10
0.000864177
1.64515e-10
6.56407e-09
8.54071e-10
0.00174531
3.45057e-05
0.000123378
2.49978e-11
1.72347e-08
0.000899341
1.88622e-05
7.58919e-09
4.77379e-06
0.00185417
0.00143098
6.49079e-07
0.00144913
1.82006e-05
0.000795307
7.25876e-07
0.00114086
6.00372e-06
0.0302647
3.51848e-08
0.00546261
7.82035e-06
1.81226e-05
1.12302e-10
0.00156177
1.85399e-09
0.00448547
0.0193158
2.78401e-08
0.00264322
1.43811e-05
4.61367e-09
0.00818666
6.88231e-09
4.77152e-10
1.86335e-09
8.85282e-10
8.92148e-08
1.99635e-09
1.33296e-08
2.06031e-09
0.23913
7.61341e-07
7.59164e-11
4.81619e-11
1.06906e-09
2.18051e-09
0.0293174
0.779386
4.20583e-05
1.85908e-05
1.34671e-10
0.00156497
0.00104543
0.000861658
5.27739e-07
3.01208e-07
9.39901e-09
1.67831e-08
5.01189e-08
3.92489e-06
2.01158e-06
0.00356834
0.00124968
1.46561e-09
0.000109135
7.05661e-06
8.64068e-10
0.0263852
9.04867e-08
1.89773e-09
3.88432e-08
0.165458
0.00115006
2.69088e-11
0.0215613
3.06736e-09
0.000814037
9.74793e-07
0.000664158
0.0481876
8.56969e-10
1.16008e-09
8.84975e-09
4.86168e-07
0.00645352
0.230607
0.0267997
0.0452138
0.00267483
0.00015928
2.52692e-10
2.01504e-06
0.106073
0.00156914
1.70558e-06
5.72245e-05
8.09676e-08
0.00170125
5.80677e-09
0.210752
0.000713296
7.02889e-10
0.000170694
0.000142919
2.11765e-09
0.0116459
5.5705e-10
4.40775e-09
0.202202
0.0280886
1.60487e-09
2.34662e-09
2.44762e-08
3.06875e-10
1.78691e-09
1.95386e-06
4.40878e-10
1.9278e-11
0.00343905
9.0963e-11
2.55219e-09
3.55766e-09
1.43981e-05
8.90618e-09
3.01814e-06
1.3355e-08
2.10457e-09
3.95705e-07
1.23485e-06
0.00242528
0.000714579
1.38658e-06
0.00419805
4.42588e-08
0.00603734
0.0105597
6.02962e-09
0.0027715
3.86383e-09
0.000768294
0.000710894
6.93131e-06
0.00150372
0.00127909
9.87348e-08
1.74633e-11
0.00183806
3.06669e-09
3.55299e-10
1.30683e-08
2.91592e-07
3.20406e-09
3.42288e-07
0.0402014
1.82356e-10
8.23126e-10
0.324944
6.05111e-11
0.000287446
1.76292e-07
0.000956922
4.39572e-10
1.12107e-05
2.55884e-06
0.0043047
0.00375924
0.000400355
3.40736e-06
0.0375667
4.55027e-06
0.00126105
8.79234e-05
4.75271e-06
0.000892424
0.000989195
5.40819e-06
2.10215e-05
8.55388e-08
2.80894e-09
0.000743462
0.000219397
0.0206445
0.0106423
3.75736e-05
3.39428e-08
0.00463742
0.00412488
0.0159501
2.9102e-12
0.0108012
0.0137091
0.0023888
0.00111949
0.000409654
0.00451789
0.0155863
0.0356705
0.000343756
0.0107322
0.00716285
1.4401e-06
0.00363673
0.00120205
0.000576902
0.00309946
0.00279069
0.0121452
0.00228906
1.90979e-06
0.00734707
7.78531e-06
0.0044239
0.00231818
0.000313724
0.002815
3.24515e-06
0.00126207
0.00450629
0.0010174
6.37639e-06