/*--------------------------------*- C++ -*----------------------------------*\
  =========                 |
  \\      /  F ield         | OpenFOAM: The Open Source CFD Toolbox
   \\    /   O peration     | Website:  https://openfoam.org
    \\  /    A nd           | Version:  10
     \\/     M anipulation  |
\*---------------------------------------------------------------------------*/
FoamFile
{
    format      ascii;
    class       volScalarField;
    location    "27";
    object      T;
}
// * * * * * * * * * * * * * * * * * * * * * * * * * * * * * * * * * * * * * //

dimensions      [0 0 0 1 0 0 0];

internalField   nonuniform List<scalar> 
111485
(
303.15
285.233
301.177
303.15
298.74
283.15
299.231
293.583
296.719
286.437
300.738
296.447
300.461
284.666
300.213
286.915
299.176
300.894
294.507
303.15
303.15
283.15
297.605
288.888
301.551
303.15
293.484
300.69
289.287
303.15
300.819
293.58
303.15
283.15
283.495
283.15
302.329
288.742
283.149
296.965
283.15
290.081
297.368
302.938
303.181
303.15
287.679
288.744
290.132
303.15
303.15
283.15
303.15
299.324
303.15
293.918
288.089
283.15
283.338
295.856
296.249
303.15
302.155
300.528
283.15
284.66
301.547
291.81
302.212
302.602
303.172
302.021
303.15
302.203
303.15
295.552
283.15
293.872
283.15
283.15
283.255
293.937
283.15
303.15
300.541
284.303
283.15
301.743
303.142
298.295
283.519
289.913
301.069
291.467
290.276
303.15
303.15
301.743
303.15
283.452
303.15
286.904
283.15
285.424
285.874
283.15
283.15
293.039
301.628
283.145
291.89
288.45
301.479
301.866
303.15
298.269
303.15
283.15
300.339
303.15
303.15
283.15
283.15
283.15
283.451
303.153
283.15
294.544
303.15
283.186
303.065
302.138
303.15
283.15
283.15
292.946
283.15
294.547
299.059
301.244
303.142
297.156
299.225
284.891
302.353
287.466
283.15
303.15
283.15
297.48
285.063
303.15
303.145
284.027
283.156
294.156
296.011
302.579
283.153
303.15
303.15
292.621
286.43
283.151
283.156
299.795
283.751
283.15
283.152
283.16
283.15
303.15
283.21
283.15
287.345
284.053
283.15
303.15
303.15
283.15
303.15
303.15
297.97
293.925
296.183
284.879
301.584
300.471
283.195
303.15
300.649
303.15
303.15
300.319
286.465
301.629
301.39
286.916
303.15
300.998
284.705
283.163
301.057
296.707
303.15
300.459
288.58
303.15
283.247
300.353
284.928
300.731
303.15
303.15
300.753
283.15
293.353
283.15
300.697
298.625
290.704
303.15
301.618
300.752
283.15
283.15
283.15
289.964
283.158
283.15
303.15
298.621
288.476
290.325
283.15
303.15
303.112
303.15
284.411
299.819
299.29
299.388
299.428
283.15
283.143
298.859
283.15
283.15
289.005
288.734
283.15
291.822
298.334
303.15
283.15
301.036
303.15
303.15
303.12
303.15
288.424
285.999
285.919
303.15
298.209
303.15
303.15
303.15
283.148
298.41
301.139
299.666
291.416
299.728
296.586
283.217
287.57
288.82
283.15
303.15
283.149
292.325
299.031
285.159
303.15
298.282
297.579
299.158
302.987
283.164
297.43
299.61
302.044
283.15
283.678
283.15
283.148
303.15
284.087
290.475
286.63
303.15
283.15
297.891
284.672
303.15
303.15
303.15
284.707
287.597
301.25
284.509
293.464
283.15
283.15
303.15
298.626
303.15
283.922
290.098
283.151
283.15
303.15
303.15
283.15
294.759
290.168
283.15
296.074
283.15
303.15
301.326
297.61
294.179
296.175
283.15
283.15
283.15
296.946
285.99
302.409
283.15
283.15
283.147
290.306
297.264
283.234
290.917
283.15
293.235
299.798
284.314
299.075
285.392
283.15
303.15
283.15
303.15
290.861
296.693
288.32
292.4
283.15
286.533
283.15
303.15
294.24
303.15
302.2
303.15
283.15
292.368
283.15
284.965
284.734
283.15
284.039
298.327
283.15
300.339
284.798
299.102
303.051
286.577
284.592
283.15
303.15
303.147
283.15
301.179
301.111
283.15
283.15
294.833
284.462
291.283
296.847
283.15
295.627
296.443
283.15
302.167
283.958
303.15
303.15
284.631
298.911
283.15
303.15
303.15
303.15
300.837
283.15
303.15
294.145
283.172
287.424
300.248
283.15
283.15
302.689
283.15
302.557
301.656
298.329
291.037
283.15
293.041
303.393
303.15
299.056
292.572
303.15
283.15
283.317
283.15
290.395
286.416
287.459
283.15
287.316
296.789
287.688
303.147
283.15
303.15
303.15
283.17
287.36
283.15
284.407
303.137
283.15
303.15
303.15
303.15
301.817
286.362
286.183
284.267
284.438
283.15
285.876
303.15
300.966
283.15
303.15
303.15
300.913
303.15
303.15
283.151
303.15
283.15
300.953
283.15
283.15
283.15
303.15
283.15
303.15
283.15
283.699
283.15
303.132
301.873
283.86
283.15
303.095
283.15
303.15
284.824
284.793
286.302
298.07
283.15
297.911
298.011
288.256
285.703
285.409
303.15
287.965
283.15
300.167
283.15
297.223
283.15
290.423
298.922
303.15
283.15
285.759
303.15
296.02
299.437
283.15
283.15
283.15
283.15
303.15
294.191
283.15
283.15
283.249
283.15
300.129
283.15
284.949
303.15
283.461
303.128
284.755
290.265
283.15
284.297
283.15
283.15
285.865
283.15
283.26
283.15
299.99
303.15
291.112
303.15
283.15
302.532
284.575
300.369
285.828
300.375
289.678
283.15
300.872
284.665
283.15
283.138
300.725
301.76
283.15
282.26
301.264
303.078
283.132
303.15
287.778
302.265
284.506
285.563
286.97
282.34
283.15
303.15
301.356
303.15
283.581
283.15
283.15
291.725
282.621
303.15
303.125
283.15
286.501
299.826
283.15
283.15
299.832
303.15
283.15
283.15
283.15
286.366
283.15
303.15
284.963
284.284
303.15
299.911
283.15
289.431
303.15
283.15
286.369
283.15
283.15
283.15
283.66
283.15
285.621
291.883
303.15
300.664
283.482
299.042
301.141
283.414
283.479
283.15
289.336
298.774
303.15
302.313
296.563
297.27
283.409
297.815
297.567
303.15
300.433
303.141
283.15
297.552
284.957
283.15
292.271
296.157
284.973
299.1
300.83
292.293
283.15
299.218
283.501
303.15
300.802
302.071
294.13
283.15
284.109
303.15
283.15
283.15
283.15
283.313
283.15
303.15
303.15
283.15
300.602
299.591
303.15
285.816
303.15
303.15
303.15
290.274
283.432
283.15
303.15
283.15
283.15
287.339
292.472
283.15
295.615
283.13
283.15
295.779
302.338
286.658
283.15
283.15
300.443
292.208
283.15
283.15
283.15
294.313
303.15
303.15
283.15
296.682
302.476
283.15
282.921
301.824
285.542
283.15
283.15
287.664
303.011
283.15
283.161
288.213
283.802
284.578
283.15
285.861
300.571
283.15
303.15
283.15
283.15
283.15
283.15
296.147
303.15
283.15
283.15
295.771
291.89
303.15
303.15
290.247
297.402
297.429
303.15
283.15
297.186
303.15
283.936
298.458
298.16
303.15
303.15
303.15
283.15
286.228
283.15
283.15
302.736
303.15
298.099
302.402
283.15
294.005
283.207
296.76
292.213
283.457
290.191
283.15
283.15
297.188
288.472
285.431
283.15
283.15
299.52
288.691
283.15
283.982
284.725
283.515
303.15
303.15
303.15
290.885
283.15
294.842
283.15
284.457
288.898
294.38
292.416
283.15
283.15
303.15
295.388
283.15
283.15
303.11
283.15
283.15
303.15
283.15
294.585
283.15
283.15
283.15
283.15
283.15
303.15
283.15
283.174
295.414
303.15
302.584
283.125
283.429
283.086
285.307
283.15
284.555
290.864
283.429
303.15
283.15
295.256
283.15
294.308
283.184
283.142
286.376
292.461
283.244
286.835
296.243
283.15
283.15
291.368
290.23
283.15
291.528
291.516
296.059
283.15
283.257
283.15
296.395
295.741
283.15
290.268
296.032
283.148
287.791
283.15
295.974
283.143
303.116
283.163
283.159
283.15
283.15
284.535
283.15
302.997
283.645
283.158
303.147
303.148
303.147
283.15
283.15
294.186
303.15
303.135
283.955
283.15
283.15
303.153
303.15
283.15
303.162
283.15
283.15
303.15
303.15
303.15
303.15
283.381
283.15
283.15
283.15
303.159
283.324
283.942
293.839
283.15
283.15
283.365
283.15
283.15
283.15
287.483
293.959
283.15
283.15
283.15
283.15
283.15
283.15
284.1
283.15
303.151
291.896
283.15
303.15
303.15
303.15
303.15
303.15
283.15
303.166
283.15
283.768
283.143
303.152
283.15
303.071
284.549
292.538
303.15
303.131
284.631
303.15
283.15
303.15
283.15
294.411
293.851
284.827
303.148
283.15
293.618
283.15
283.15
303.15
283.15
295.241
283.15
303.15
283.162
298.339
303.15
284.554
283.15
283.649
283.15
283.15
283.15
303.15
285.488
283.496
285.024
283.15
283.15
285.243
283.15
283.15
303.15
284.477
303.161
298.904
303.15
303.132
303.133
283.15
303.135
283.15
283.489
289.523
301.007
283.916
283.172
283.15
283.15
283.15
303.177
283.15
302.961
303.15
293.858
303.15
288.892
283.873
303.15
283.15
303.15
283.15
302.004
303.15
303.15
285.981
300.891
283.15
283.15
283.15
283.15
283.15
283.15
301.139
283.622
303.15
303.15
303.155
303.15
300.561
283.968
283.15
302.247
303.15
286.614
283.15
302.628
283.15
283.147
303.152
283.345
302.261
300.561
283.147
283.15
289.642
303.15
293.802
303.15
283.15
303.15
283.15
283.15
283.15
301.1
302.189
303.15
303.15
303.15
302.941
283.148
303.15
293.327
283.077
303.15
297.006
296.417
296.841
283.4
283.15
283.15
283.15
283.15
295.038
283.15
295.436
283.15
303.077
290.037
283.15
302.907
283.15
283.15
302.812
283.147
302.897
283.15
303.15
283.15
302.472
283.15
303.15
283.15
283.147
283.15
283.176
283.15
283.15
303.15
292.646
294.593
296.506
297.378
303.15
303.124
283.15
283.15
285.313
283.15
283.159
302.896
293.372
302.986
303.15
283.398
283.15
303.15
283.15
303.018
283.382
298.339
283.15
303.15
288.341
303.15
283.15
283.113
295.498
283.147
283.15
283.15
283.146
303.15
283.15
303.144
303.15
303.15
290.353
303.021
303.03
289.411
293.563
283.15
283.15
303.116
289.483
283.15
303.15
284.936
283.15
303.15
283.15
283.15
283.15
298.451
283.15
302.971
283.15
300.893
283.15
283.15
283.15
283.15
283.15
283.15
285.233
283.15
283.15
283.15
283.15
283.15
283.15
292.434
283.15
298.402
302.989
283.15
302.339
283.15
302.594
303.146
290.559
287.645
303.15
291.083
284.984
303.122
303.15
303.14
295.175
285.875
283.15
285.694
283.15
283.15
283.15
283.15
285.52
283.15
283.15
288.002
303.139
283.857
283.15
283.15
302.547
283.15
283.2
303.15
294.303
283.15
283.15
302.849
283.15
303.175
303.15
283.15
289.312
298.055
292.894
285.926
293.068
294.436
283.15
283.15
302.391
290.797
293.198
284.543
283.15
294.466
283.15
303.15
300.969
298.922
283.15
297.538
283.15
292.984
297.405
303.15
283.15
283.15
301.926
283.15
283.15
300.746
296.289
283.198
288.1
283.15
283.15
302.854
300.763
283.15
300.862
283.15
300.727
283.15
283.15
301.021
283.15
283.233
301.741
283.15
283.15
302.504
283.15
288.113
303.15
290.966
303.15
303.15
303.15
301.154
283.15
283.15
299.807
283.15
303.011
283.15
283.15
303.15
283.149
288.407
283.15
283.15
288.264
288.446
283.15
283.758
283.15
303.15
302.498
283.802
283.635
283.15
283.15
283.15
283.15
283.15
283.15
283.15
283.15
283.15
283.15
283.15
303.15
283.15
283.15
283.15
283.15
283.15
283.15
283.15
283.15
303.15
287.151
283.15
283.15
283.15
295.101
283.15
303.15
303.067
283.15
283.15
295.112
283.15
283.15
302.184
295.581
283.15
303.475
303.521
283.15
301.745
294.375
297.886
301.619
298.411
303.15
283.15
296.416
292.197
301.566
283.15
302.241
302.48
301.053
286.267
285.918
301.231
293.999
301.906
303.15
286.038
297.857
285.797
297.576
283.15
283.15
283.15
303.15
283.15
292.416
298.21
283.15
283.15
283.15
283.15
283.15
303.15
283.15
303.15
292.303
303.157
299.275
302.867
283.15
283.15
285.587
283.172
283.15
283.15
301.698
303.15
283.15
298.437
299.739
297.833
298.998
301.06
303.15
285.319
302.655
303.15
303.15
300.561
303.15
283.15
282.801
296.196
302.978
283.15
303.15
290.249
286.348
287.277
292.612
302.61
303.15
303.141
303.15
303.15
283.15
298.951
283.15
292.228
285.366
299.945
284.871
303.15
301.912
303.15
283.15
303.15
303.15
290.629
300.451
283.15
303.15
303.14
292.207
303.069
299.583
293.237
287.591
293.333
283.15
303.15
283.15
291.726
298.57
303.15
303.15
303.15
303.15
297.937
302.582
283.15
300.148
301.393
285.079
299.712
303.15
303.15
298.919
293.38
283.15
302.942
300.072
302.652
292.4
297.614
298.531
303.15
286.154
298.242
291.669
283.15
289.451
303.15
288.589
301.115
303.15
286.814
301.15
300.268
293.594
283.148
283.158
283.244
302.065
300.946
303.15
287.493
301.178
303.15
283.15
303.15
303.203
299.049
292.303
297.002
303.234
283.149
298.157
303.15
303.15
293.215
303.15
300.412
283.34
301.084
289.94
303.15
283.714
293.637
303.15
282.965
298.687
303.15
300.371
286.382
303.15
303.15
284.049
303.15
283.15
283.15
284.832
299.976
291.664
303.15
285.473
296.078
283.15
297.873
298.261
287.848
303.138
283.15
301.552
291.312
298.127
297.568
287.557
291.506
302.512
303.15
283.983
287.818
303.15
298.092
283.15
283.15
303.15
283.15
303.15
297.866
283.15
297.853
283.682
303.15
283.878
283.15
288.946
303.15
303.147
303.15
294.491
303.012
303.128
296.639
289.589
289.655
289.381
297.074
303.15
297.043
292.606
297.399
303.15
283.92
283.519
297.428
287.401
283.558
303.15
283.15
303.15
285.584
303.15
303.249
284.08
303.266
302.977
303.15
303.15
283.15
300.749
300.656
285.574
303.103
285.866
296.049
301.929
292.934
287.751
302.064
296.462
283.15
283.15
303.15
285.974
289.921
283.15
283.15
303.15
301.975
288.371
303.15
296.744
303.15
283.155
285.432
301.021
303.15
303.15
292.716
303.15
283.335
290.717
283.15
297.478
294.896
292.595
303.15
302.779
283.15
302.723
293.878
303.15
303.15
288.81
283.15
303.15
298.222
283.724
303.15
303.15
283.15
302.23
303.24
289.924
300.062
298.063
303.15
303.157
302.698
303.15
283.15
303.15
303.15
303.15
303.15
303.15
303.15
303.15
283.15
303.15
303.15
283.383
303.15
303.263
303.15
303.162
303.15
303.15
301.225
303.65
303.15
292.494
303.15
303.15
283.15
302.635
303.15
302.239
303.123
283.3
283.15
303.15
302.958
283.149
303.15
303.15
291.812
283.15
293.028
283.15
283.15
283.147
291.653
284.947
303.15
296.903
283.15
303.52
303.136
284.373
302.671
283.15
292.609
303.091
301.844
283.15
303.15
283.15
303.777
284.911
297.028
303.15
303.15
303.15
303.15
303.15
303.15
302.45
302.854
297.857
292.727
303.15
287.459
293.081
285.055
303.201
283.15
287.095
302.804
284.865
283.147
287.642
303.15
283.409
302.951
292.97
302.887
302.102
303.15
302.262
303.15
303.15
298.237
303.15
284.618
303.15
303.15
283.15
303.15
303.15
302.887
303.15
283.307
283.15
283.15
286.068
285.155
300.947
286.32
303.15
295.796
303.15
290.767
303.15
287.484
300.949
301.688
293.724
303.15
303.15
303.15
289.984
283.15
303.15
289.739
283.15
283.15
302.004
303.15
286.335
283.147
283.15
303.15
303.15
300.804
298.517
303.15
286.453
303.058
283.15
298.734
303.15
286.564
288.441
300.407
303.15
296.681
296.843
302.983
302.033
301.778
303.15
303.15
303.147
303.15
283.15
303.15
289.745
300.036
294.599
302.253
283.15
300.594
291.839
298.526
283.678
298.686
290.106
302.279
283.15
283.15
283.15
302.318
283.15
290.955
283.15
301.469
303.158
289.897
296.613
283.15
303.15
301.458
301.44
303.15
283.15
303.15
286.565
301.628
303
302.433
291.769
288.601
303.15
303.15
303.15
289.918
286.197
285.069
296.278
284.006
302.98
303.15
303.15
283.15
283.15
284.307
299.831
303.15
303.15
283.15
303.15
303.15
303.15
300.559
303.15
285.572
294.075
283.15
283.254
286.694
285.818
303.15
303.15
302.034
303.15
299.578
283.145
297.796
303.15
303.15
283.15
303.15
303.15
303.15
305.827
303.15
301.991
301.191
303.15
303.15
301.798
303.15
283.15
287.45
303.139
303.15
303.15
303.15
297.419
303.15
303.15
302.738
302.573
301.943
303.15
283.15
303.15
302.173
302.585
301.696
302.597
283.15
297.17
284.714
288.176
283.15
303.15
303.15
303.15
303.15
294.746
287.731
299.717
303.15
303.15
303.15
303.15
283.15
303.149
283.694
283.48
283.15
303.15
303.15
283.147
299.975
295.634
283.15
303.15
303.15
303.15
303.15
289.785
290.006
303.15
303.15
302.43
303.15
301.496
284.005
292.668
303.15
283.15
301.206
303.133
303.15
303.816
285.338
287.141
303.15
303.15
303.15
303.15
291.424
284.207
303.15
302.767
298.523
291.861
303.15
303.15
303.15
303.15
299.793
303.151
303.15
303.15
296.853
302.6
288.473
303.15
303.15
298.213
303.15
303.15
303.15
303.15
289.048
303.15
283.15
283.15
296.036
291.452
303.15
303.15
303.15
297.354
303.148
303.15
303.15
303.15
303.15
303.497
301.11
303.15
287.57
302.697
299.654
303.15
303.15
303.15
303.15
283.15
285.917
303.15
302.818
283.15
302.3
303.15
303.14
303.15
283.15
301.943
287.008
283.15
302.87
303.15
302.514
283.15
303.15
303.15
303.152
303.15
283.28
303.15
291.104
283.15
283.15
303.15
303.15
298.428
302.489
283.15
302.566
283.15
284.262
288.391
302.771
283.15
303.154
303.015
303.138
284.551
283.157
303.006
283.15
283.15
283.155
301.609
302.4
303.15
283.15
283.15
296.867
303.15
283.15
303.15
303.15
303.15
303.1
303.061
302.977
302.482
303.15
302.973
303.15
285.031
303.15
303.15
283.15
303.15
303.114
303.15
283.15
303.15
288.505
303.15
303.15
303.201
283.15
303.42
302.917
298.513
303.15
291.69
297.437
284.599
292.079
283.15
283.15
287.379
284.497
283.15
303.582
283.15
286.565
303.15
283.15
303.159
303.15
303.15
303.031
303.154
303.15
283.15
303.142
303.15
283.15
283.1
299.096
302.763
303.15
302.002
303.15
285.829
303.15
301.471
303.15
303.15
301.258
303.15
303.15
303.15
287.884
303.15
285.274
303.15
303.148
303.15
283.15
283.15
303.15
303.15
303.15
288.965
302.648
303.15
303.15
288.936
284.176
292.613
303.15
302.764
287.86
287.786
303.15
303.15
288.785
283.15
292.712
303.15
303.151
303.15
303.15
300.737
283.15
302.347
283.15
303.15
303.15
303.15
303.15
303.15
284.513
302.339
291.833
303.15
303.15
291.352
303.15
303.15
303.15
303.15
303.15
285.392
303.15
303.15
283.15
285.496
303.15
283.15
303.15
287.905
283.15
291.359
291.133
302.745
290.837
292.377
303.15
303.15
303.15
291.766
288.638
283.15
303.15
290.514
303.15
303.15
292.79
303.15
287.723
303.15
293.15
284.466
303.15
283.15
303.15
303.15
303.15
285.501
303.15
289.869
303.15
303.15
298.698
283.15
284.955
303.15
303.15
288.488
301.581
297.163
303.15
303.15
303.15
301.6
293.027
303.15
283.15
303.15
300.063
303.15
284.979
297.058
303.15
303.15
299.815
303.15
303.15
283.15
303.15
283.15
295.521
303.15
283.15
303.15
303.15
303.15
303.15
303.15
303.15
283.15
301.546
283.15
298.838
303.15
303.15
296.502
299.683
303.15
283.15
303.15
299.579
283.15
303.15
303.15
303.15
300.32
303.15
298.35
303.15
286.138
283.15
286.957
303.15
303.15
298.833
283.15
303.15
288.031
283.251
303.15
303.15
285.24
283.994
299.191
299.157
299.7
293.404
298.918
283.919
303.15
298.404
283.15
283.15
303.15
303.15
303.15
299.969
303.15
303.15
303.15
303.135
283.173
283.15
283.593
303.15
302.138
283.15
303.144
296.378
283.15
294.991
303.15
303.15
283.15
299.605
283.993
303.15
283.15
299.72
303.15
298.221
303.15
296.076
303.15
283.15
303.15
283.15
298.402
283.15
283.257
283.15
286.396
303.15
303.15
283.15
283.15
303.15
303.15
303.15
303.15
285.007
285.227
283.15
303.15
283.237
283.15
283.15
303.155
290.306
283.589
283.15
292.955
285.015
300.562
288.563
303.15
303.15
303.15
303.15
283.15
283.15
283.15
303.15
283.15
283.15
303.15
283.15
297.827
283.15
303.15
283.15
303.15
303.15
283.966
283.15
303.15
302.086
303.15
303.15
303.15
303.15
288.925
283.15
303.15
303.149
283.15
303.15
303.15
303.15
295.489
283.15
283.21
303.15
303.15
303.15
303.15
303.15
303.15
303.146
284.171
303.15
283.15
303.15
303.15
303.15
303.148
303.15
283.15
283.15
283.15
303.15
303.15
283.15
303.15
283.15
287.933
283.15
301.993
283.15
303.154
303.15
284.718
283.15
284.552
297.92
303.15
284.807
303.169
303.15
297.941
283.15
303.15
303.15
303.15
303.15
283.15
303.15
303.15
299.509
283.15
303.15
303.15
303.15
303.15
292.486
292.057
303.166
283.174
303.15
301.953
302.403
303.15
283.15
283.15
303.15
303.15
303.15
283.15
283.15
283.876
303.15
303.15
303.18
303.15
283.15
289.275
303.15
283.15
303.15
288.667
303.15
283.15
302.264
283.15
283.15
283.15
303.15
299.975
303.15
303.15
303.15
283.15
284.62
294.298
295.932
290.016
303.133
303.044
283.15
283.15
301.371
283.74
283.15
303.149
303.15
303.15
283.15
295.26
303.15
283.15
303.011
303.15
303.15
283.863
303.15
303.15
289.014
290.233
303.15
283.15
303.15
283.15
303.15
303.15
303.15
303.15
284.005
303.15
303.15
303.15
302.97
303.15
303.15
283.15
283.15
283.15
283.15
302.983
283.15
283.15
301.191
303.15
284.909
285.081
303.15
301.326
303.15
283.15
303.15
283.15
283.15
303.15
303.15
303.15
302.716
303.15
303.15
303.15
283.15
303.15
283.15
286.602
303.15
303.15
292.22
303.15
283.15
283.15
302.498
303.15
303.148
283.15
303.206
285.193
283.15
283.15
299.496
283.15
283.15
303.068
303.158
286.082
303.164
303.151
303.152
283.15
283.15
302.719
283.522
286.146
301.023
283.164
283.15
290.609
301.722
301.607
283.15
300.443
289.742
300.24
302.298
302.905
284.903
295.034
299.507
283.973
293.723
300.333
303.15
287.941
286.943
302.844
283.702
287.529
301.302
284.738
303.15
301.37
303.15
300.835
301.666
283.675
285.12
303.15
283.15
302.315
301.838
283.146
303.168
288.679
302.73
302.084
301.051
303.15
303.192
301.376
295.608
300.492
289.738
302.971
301.651
302.229
302.355
284.293
302.577
283.915
283.181
303.15
302.929
303.15
303.15
302.225
302.134
289.291
303.15
284.83
292.892
292.54
301.705
303.15
284.152
283.488
284.459
303.15
298.14
303.15
296.449
295.725
301.009
303.145
303.15
303.15
302.127
301.455
302.835
303.15
292.861
302.79
290.502
283.15
298.417
288.367
303.15
300.568
283.15
283.207
283.15
302.684
303.123
303.15
302.998
290.126
283.147
300.719
302.319
295.022
283.602
296.29
288.992
283.527
303.138
284.939
295.784
283.331
297.401
300.735
300.556
300.477
302.125
290.98
294.279
303.15
302.773
302.711
302.695
296.618
302.915
283.15
302.152
293.609
303.15
283.473
284.125
301.377
302.677
289.323
283.43
287.959
302.702
296.9
303.15
303.15
295.567
283.15
293.254
283.474
303.15
289.568
290.841
283.962
303.15
297.516
298.527
284.337
301.523
294.348
290.341
300.588
303.115
303.15
303.15
283.657
302.692
283.382
285.998
303.15
303.033
303.053
303.15
285.548
300.817
290.954
283.292
299.861
302.488
296.304
287.205
283.15
303.115
301.94
283.843
283.168
303.15
303.088
303.15
303.15
284.263
302.602
296.425
283.083
283.151
303.15
283.15
302.974
303.059
302.57
301.566
303.15
283.15
283.15
301.94
301.991
283.259
295.92
303.15
303.15
301.76
285.708
283.268
301.818
301.904
301.882
284.528
303.15
283.15
298.554
289.531
303.15
302.773
302.207
285.284
285.124
302.231
303.053
303.15
298.442
284.532
283.15
303.15
287.076
286.531
297.885
287.9
302.198
285.871
298.225
300.288
290.532
293.062
303.15
303.15
283.905
283.888
302.218
283.152
300.78
301.86
283.668
288.465
302.51
283.15
283.15
283.02
303.15
303.15
300.188
299.098
302.396
283.145
283.15
284.026
283.149
283.15
283.153
303.09
301.153
299.506
288.333
283.411
303.116
291.863
303.15
283.15
302.658
289.386
300.956
292.886
283.548
303.077
283.147
283.15
302.881
293.866
302.688
283.163
291.788
285.046
303.15
284.403
294.879
283.15
283.324
285.123
284.94
283.15
283.15
301.777
283.15
285.675
302.6
302.765
301.869
283.536
300.009
291.25
283.15
303.269
292.676
283.15
283.15
283.15
303.15
301.266
302.499
299.359
301.592
300.006
289.299
283.154
291.169
288.617
303.074
291.511
300.207
292.273
283.15
286.556
301.235
301.668
283.15
284.09
299.882
283.15
303.15
283.197
301.41
303.15
284.093
302.31
303.044
303.15
283.15
289.072
303.152
301.849
283.15
283.15
283.15
302.328
298.049
303.14
300.59
303.162
303.15
288.701
303.162
290.633
287.524
287.535
296.899
283.158
286.248
283.15
290.829
294.461
285.285
290.69
292.719
292.498
289.709
286.534
286.508
285.26
283.184
302.329
286.33
283.145
283.147
291.707
283.076
292.393
284.473
296.202
298.647
289.69
298.622
283.124
299.171
283.15
290.454
291.097
298.904
283.365
283.15
300.847
283.15
302.854
283.15
303.15
286.637
286.692
283.15
298.26
298.621
287.333
303.15
303.15
301.942
289.97
303.075
283.778
294.033
287.427
303.147
284.357
288.536
303.15
301.61
283.15
283.15
287.76
287.338
283.144
285.393
299.443
286.487
301.183
303.15
285.51
298.67
291.483
303.15
303.15
301.792
302.177
303.15
293.938
287.533
283.797
291.509
286.941
290.356
303.15
303.059
297.361
285.286
283.15
287.92
292.976
299.996
283.176
283.802
282.856
302.083
303.134
283.15
303.138
303.15
300.705
293.498
298.099
286.06
283.15
286.285
296.496
285.802
283.218
294.622
283.15
300.282
303.162
293.043
284.169
303.146
292.074
288
288.563
291.073
287.58
287.688
283.15
303.143
285.499
284.952
293.898
283.15
283.15
283.15
303.142
283.15
283.135
286.685
303.15
283.15
303.161
283.172
291.241
290.599
303.198
302.953
290.214
303.15
293.681
303.167
302.121
287.496
283.15
290.825
303.147
303.105
286.47
283.15
283.15
283.511
286.334
303.075
303.145
287.8
289.761
283.573
283.163
289.67
293.413
303.15
283.15
303.117
303.15
302.433
285.119
302.389
303.104
284.063
283.831
284.125
302.872
302.312
297.536
294.203
303.09
291.659
291.242
303.15
303.108
302.674
285.618
283.424
303.15
286.11
283.405
302.959
301.686
302.28
283.15
300.554
301.972
303.15
302.235
285.562
303.15
298.247
303.15
283.15
300.859
302.755
286.567
302.561
283.15
284.349
303.04
283.15
302.4
285.497
295.185
284.446
303.15
303.03
302.888
286.702
283.15
287.329
284.032
290.103
285.972
302.343
303.15
283.15
283.15
287.652
283.15
301.13
302.109
289.544
283.15
293.081
283.15
303.15
283.15
300.075
286.674
283.151
285.438
301.771
303.122
303.155
292.522
294.8
301.355
283.3
301.849
283.145
303.15
303.158
300.296
283.15
302.693
286.779
303.15
301.04
287.534
301.985
283.969
288.588
283.15
302.183
287.992
298.81
303.081
283.15
303.15
291.935
302.133
283.093
283.145
287.229
298.759
303.15
284.881
300.114
286.023
300.249
303.151
299.603
287.911
285.076
296.894
299.457
283.835
283.083
303.158
303.15
303.15
297.021
283.161
283.15
303.15
303.15
288.235
290.48
286.218
288.034
302.849
303.15
284.806
301.695
303.15
301.047
283.841
301.625
303.15
284.668
301.052
291.592
302.797
303.15
303.15
285.329
294.73
295.774
284.716
303.15
303.15
283.15
287.433
302.499
295.544
303.15
285.712
303.15
303.15
289.781
285.726
283.15
294.78
295.307
288.609
283.15
303.15
292.9
287.444
303.15
295.45
295.271
295.667
303.15
303.15
303.15
296.429
296.23
302.866
294.896
283.15
291.837
287.936
291.236
300.852
303.15
303.15
293.6
303.116
286.851
296.484
303.15
303.148
283.15
286.424
299.441
285.739
303.15
303.15
283.373
303.13
303.15
303.15
283.15
290.692
303.15
303.15
284.766
299.377
283.15
303.15
284.72
291.431
292.983
287.195
295.02
303.15
283.515
303.15
303.15
283.192
300.735
290.639
292.216
303.15
303.137
302.284
293.476
300.094
301.575
284.54
283.503
300.862
294.894
303.15
302.795
284.235
295.905
301.522
288.021
303.15
297.609
301.548
301.631
301.665
292.888
303.15
283.15
299.402
283.15
283.15
287.936
283.15
284.057
283.15
283.15
283.15
283.15
302.809
288.171
302.76
283.15
295.993
291.103
284.847
283.15
303.15
302.736
301.871
303.202
302.702
283.15
285.983
292.773
288.724
283.15
283.15
299.908
286.063
283.15
283.15
303.149
285.127
283.15
287.465
303.15
303.152
284.389
283.15
288.585
294.589
290.101
287.368
302.992
285.846
302.573
295.51
286.453
283.15
283.564
291.967
303.12
289.616
302.73
283.15
292.532
287.936
301.104
301.239
285.079
303.13
283.71
297.495
302.991
303.149
285.228
303.146
303.027
293.607
302.691
283.15
303.15
303.15
295.118
291.424
283.156
301.391
284.812
284.222
284.717
303.145
288.531
297.756
283.15
283.15
302.609
303.151
294.894
302.954
303.177
300.222
303.206
302.934
283.15
298.506
302.928
283.15
303.15
285.212
303.15
284.412
299.169
283.171
291.97
283.15
287.755
303.044
292.557
283.15
303.049
290.789
301.354
303.137
303.09
283.15
283.15
301.969
302.119
283.838
302.848
302.503
302.451
303.141
283.15
286.901
283.15
302.827
287.845
303.013
303.15
283.15
302.885
285.27
291.636
302.161
283.15
302.663
302.125
284.105
302.572
303.057
303.183
303.032
303.15
283.15
301.616
298.288
303.096
303.15
290.306
285.458
303.15
283.15
285.372
303.181
303.161
302.952
301.347
284.393
303.108
291.039
290.57
303.148
289.312
303.16
283.15
290.214
283.15
300.253
298.56
284.887
288.452
299.928
288.051
295.546
299.482
294.077
303.151
294.017
296.829
283.152
299.698
293.957
303.15
298.352
299.468
303.15
291.523
303.167
301.841
303.15
287.108
286.157
302.855
289.839
283.15
283.15
300.592
301.135
283.817
283.15
303.15
286.536
302.42
300.792
300.079
302.835
292.776
289.824
283.793
292.665
284.418
290.779
283.314
295.768
290.589
294.452
287.431
284.331
303.16
283.278
303.147
285.689
300.962
283.151
300.381
286.602
288.912
302.155
285.507
298.996
283.15
302.982
283.155
283.102
288.404
299.98
303.15
300.406
303.038
293.807
302.816
303.15
301.469
285.084
287.924
302.183
303.15
283.765
283.15
290.71
284.082
285.928
303.165
303.149
283.15
283.15
283.18
303.15
293.978
303.15
303.164
296.403
303.439
303.15
290.735
303.15
303.15
294.19
290.816
303.15
290.006
302.164
289.731
303.15
303.15
286.372
283.349
290.603
303.205
303.15
303.147
285.646
283.322
283.15
289.223
287.907
303.15
284.369
303.15
303.15
303.133
287.522
303.15
303.147
283.312
303.152
302.734
288.1
283.147
283.737
297.394
291.237
303.15
286.067
284.271
301.386
284.898
302.382
290.435
294.168
303.15
303.15
284.077
303.154
302.976
295.899
302.972
302.792
285.09
283.15
283.431
283.229
295.995
302.662
285.56
303.15
283.887
286.888
303.132
283.181
303.15
286.616
283.15
298.957
303.15
300.063
300.315
283.276
283.399
302.407
287.008
301.318
303.15
301.593
301.911
303.15
303.15
288.486
293.901
283.15
284.488
303.15
295.249
283.398
303.15
291.991
298.994
289.191
303.15
302.82
294.08
295.758
284.563
303.161
293.815
296.598
284.024
303.133
302.85
287.671
298.852
284.861
285.859
289.907
283.15
302.987
303.151
303.15
303.165
293.625
296.771
302.996
301.473
303.15
284.512
303.15
303.064
302.9
303.15
293.932
296.417
303.15
285.576
303.106
303.15
303.106
303.154
286.366
293.729
291.359
288.577
288.308
303.15
295.951
291.992
295.674
293.971
303.142
303.15
297.729
303.179
284.378
303.18
303.15
303.15
303.143
303.15
285.127
303.15
284.387
303.146
303.15
290.58
303.145
292.884
295.974
303.136
295.678
286.11
283.48
303.131
302.955
284.784
283.15
290.627
303.15
285.655
302.956
302.138
303.031
298.461
287.311
303.15
291.143
290.081
299.657
283.15
283.655
303.15
303.144
303.184
292.637
303.15
292.705
289.563
303.188
303.15
285.015
286.01
293.622
289.847
302.575
301.62
284.09
303.15
284.806
296.953
302.419
285.77
298.367
292.511
284.629
292.028
303.15
287.09
292.207
290.246
287.028
303.15
286.576
284.052
303.15
302.5
288.326
302.133
283.15
303.15
300.059
300.644
286.465
300.934
301.911
301.29
303.15
289.677
285.269
300.734
300.81
287.18
303.15
283.209
303.15
300.973
303.15
302.875
303.15
292.098
303.15
297.002
283.15
290.095
303.15
283.15
286.034
301.56
300.595
289.408
300.671
303.15
302.571
303.15
302.408
285.479
303.15
300.58
290.627
303.15
300.938
303.15
303.15
293.319
283.15
285.835
288.41
301.058
303.15
290.564
290.279
288.505
289.8
288.253
299.194
300.268
300.96
285.041
287.281
301.373
283.15
303.15
303.15
303.15