/*--------------------------------*- C++ -*----------------------------------*\
  =========                 |
  \\      /  F ield         | OpenFOAM: The Open Source CFD Toolbox
   \\    /   O peration     | Website:  https://openfoam.org
    \\  /    A nd           | Version:  10
     \\/     M anipulation  |
\*---------------------------------------------------------------------------*/
FoamFile
{
    format      ascii;
    class       surfaceScalarField;
    location    "9";
    object      phi;
}
// * * * * * * * * * * * * * * * * * * * * * * * * * * * * * * * * * * * * * //

dimensions      [0 3 -1 0 0 0 0];

internalField   nonuniform List<scalar> 
214403
(
-0.000467306
0.000358337
1.97874e-05
8.91808e-05
-0.000219768
-0.000748863
5.64768e-05
0.000912154
-0.000691747
5.40385e-06
-9.73397e-06
0.000696078
0.000615832
-0.000414065
-0.00103223
0.000830464
0.000813882
-0.00102687
0.000243809
-3.08252e-05
-0.000355412
0.00037029
-3.68236e-06
-1.11952e-05
-5.6585e-05
-0.00011057
-0.000613313
0.000780468
-0.00109949
0.000627422
-0.000164049
0.000636114
-0.00156466
0.00109794
0.00111952
-0.000652805
0.000951506
0.000113285
-0.00106775
2.96355e-06
0.000342516
-0.000673896
0.000140937
0.000190443
-0.000690582
0.000213862
0.000361465
0.000115255
3.28214e-05
-0.000783525
0.000947605
-0.000196901
-0.000677185
0.000675926
1.25898e-06
0.000130522
0.000798038
-0.00102506
9.65004e-05
-0.000786523
0.000655606
0.000195329
-6.44116e-05
-0.000806087
0.000784961
2.11259e-05
0.000269281
-6.40796e-06
-5.5299e-05
-0.000207574
0.00102495
-0.000612416
-0.0013675
0.000954968
-5.23763e-06
-0.00021454
6.31494e-06
0.000213463
0.00044274
-0.000432372
-1.0368e-05
-0.000816589
-0.000282558
0.000280953
0.000818195
-0.000152732
0.000902436
-0.000725554
-2.4151e-05
0.000439632
4.27092e-05
0.000151393
-0.000633734
-0.000677967
-0.000334891
0.000875617
0.000137242
0.000638602
-0.000808624
4.95482e-06
0.000165068
0.000214913
-0.000186961
0.000711958
-0.00073991
0.000521245
0.000679932
-0.000820316
-0.00038086
0.00073679
-0.000459809
-2.16858e-05
-0.000255294
-0.000406654
0.000414493
-7.83866e-06
0.000162553
-0.000341223
0.000916509
-0.000737839
0.000923613
4.45004e-05
-0.000159738
-0.000808375
-0.000389271
-0.000399378
0.000408982
0.000379667
-7.92969e-05
-0.000447081
0.000396101
0.000130278
0.000289712
-0.000192394
-0.000624701
0.000527383
-0.000113933
0.000564226
-0.000203899
-0.000246393
0.00108603
-2.95855e-05
-0.00105645
-0.000457697
0.000899563
-0.000441866
7.83722e-05
-0.000988537
0.000576925
0.00033324
0.000158356
-6.41136e-05
0.00039327
-0.000487513
0.000375779
-3.9227e-06
-0.000371857
0.000692396
-1.55655e-05
0.000122153
-0.000798984
-0.000846025
0.000103529
0.000900853
6.00697e-05
5.80866e-05
0.000583906
-0.000702062
-0.000279885
-0.00182218
0.00176572
0.000336345
0.00039366
7.13987e-05
8.8981e-05
-0.00055404
0.000284846
0.000216807
-0.000699137
0.000197483
0.000871581
0.000518836
-0.000950786
8.12618e-05
0.000765729
-0.000154594
0.000126358
-0.000473399
-0.000278487
0.000625528
0.000214814
0.000330565
9.86795e-05
-0.000644059
0.00012358
-9.28218e-05
-0.000282943
0.000252185
0.000475802
-0.000861341
0.000600352
0.000804447
-0.000757778
-0.000258744
0.000212075
0.000737023
-0.000134864
-0.00056432
0.000765161
-3.07775e-05
-0.000170063
0.000579446
-0.000743895
1.00481e-05
0.0001544
-0.000548698
3.6205e-05
0.000876721
-0.000364227
-0.00102295
-0.000964455
0.000806898
0.00118051
-0.000536848
0.000539037
0.000105459
-0.000107647
8.27041e-05
-0.000683666
-0.000594882
-1.23663e-05
0.000309307
0.000297941
-0.000947339
0.000405655
0.000607603
-6.59194e-05
0.00106568
-0.000859534
5.40741e-05
-0.000260222
4.80709e-05
1.8097e-05
-0.000685569
0.000619401
4.02695e-05
-0.000205707
0.00100976
-0.00084432
-0.00238751
0.000257098
0.000270764
0.00185965
-0.00020588
0.000618462
-0.000196963
-0.00021562
0.000336044
-0.000174195
-0.000716147
0.000554299
8.15553e-05
0.000529677
-0.000669621
5.83893e-05
-1.09855e-05
0.000573374
0.000200496
-0.000762884
-0.000119912
-1.97917e-05
-0.000256819
0.000396523
-0.00062491
0.000681778
-2.55339e-05
-3.13345e-05
2.65053e-05
-0.000637801
-0.000441288
0.000390665
0.000118765
-6.81417e-05
-0.00110706
-7.00479e-05
0.000538256
0.000638849
-0.000338841
-0.000144347
0.000288229
0.00019496
0.00050739
-0.00170327
0.000235461
0.000960416
-0.00026016
0.000523656
-0.00028596
2.24635e-05
0.000373043
-0.000289649
3.66702e-05
-0.000120065
8.35444e-06
-0.000717853
0.000709499
3.52309e-06
0.000581116
-0.000584639
0.000501788
-9.81909e-05
6.64792e-05
-0.000470076
-0.000315042
0.000449596
0.000148898
-0.000283452
-0.00021886
0.000943293
-0.00022793
-0.000496504
0.000455627
-0.000788722
-2.44426e-05
0.000357537
0.000501539
0.000514979
-0.00101652
0.000736813
-0.000828229
0.000211479
-0.000120063
7.09701e-05
-0.0001315
0.000959623
-0.000899093
3.02151e-05
-0.000153909
0.000686322
-0.000562629
0.000164943
0.00144584
0.000415129
-0.00202591
-0.00123562
0.00108823
0.000703263
-0.000555875
5.93475e-05
0.000463447
-0.000620245
9.74509e-05
0.000599188
0.000663728
-0.000216043
-0.00104687
0.00109785
-0.000667857
-1.87954e-05
-0.000411201
4.91486e-05
-0.000144136
-0.000452544
0.000547531
-0.000457148
2.56389e-06
0.000454584
0.000667055
2.31225e-05
4.66356e-05
0.000835581
6.79437e-05
-0.00127621
0.000372686
-0.000672019
0.000147207
0.000119748
0.000405063
-0.000432062
0.000107163
5.3148e-05
0.00027175
0.000100907
7.33685e-05
-0.000871136
0.000696861
-0.000175976
-0.00102454
0.000653275
0.000547237
0.000418095
-0.000496648
-0.000322252
0.000400805
0.000667772
-2.04124e-06
-0.000667775
2.04501e-06
0.000508671
-0.000719339
-0.00024823
0.000458898
0.00131635
-0.000398265
-0.000205075
-0.000713009
0.000737082
-1.74761e-06
-0.000675799
-5.9535e-05
-0.000404258
0.000476708
0.000981502
-0.00105395
0.00082527
-0.000289956
-0.000793648
0.000258333
0.00015598
-0.000228323
0.00099298
-0.000920638
-0.00105568
0.000959823
0.000913362
-0.000817503
5.38237e-05
-0.000882498
0.000340142
0.000488532
0.00108102
-5.65263e-05
-2.63941e-05
-0.000998097
0.00076681
-0.000149512
0.000147678
-0.000764977
-0.000949678
-0.000867979
0.00102651
0.000791151
-0.000168788
0.000484044
0.000131284
-0.000446539
-0.000362783
1.95507e-05
0.000701529
-0.000358297
-7.93599e-05
0.000922875
-0.00085411
1.05946e-05
-0.000824241
0.000765475
0.000148973
-9.02077e-05
-2.75629e-05
-0.000480753
0.00114692
0.000146212
-0.000484891
-0.000356532
0.000695211
-0.000382768
5.02771e-06
0.00037774
0.000117421
0.000533512
-0.000492976
-0.000157956
0.000873956
-0.000503136
-0.000135091
-0.000235729
8.48389e-06
-0.000266273
0.000257789
-0.000483413
-0.000130338
0.000183108
0.000430642
5.50831e-05
0.000305424
-0.000681123
0.000320616
0.00109542
-9.89632e-05
0.000428085
-0.00142454
7.45351e-05
-9.90865e-05
-0.00128785
0.00131241
8.18901e-05
-0.000372802
-0.000485815
0.000776727
3.12016e-05
0.000674356
-3.8503e-05
2.7188e-06
-0.000406061
0.000403342
0.000806851
-0.000300066
-0.000360573
-0.000488788
0.000406835
-0.000401459
0.000872099
-0.000727461
-8.93574e-05
-5.52809e-05
8.8846e-05
-0.000420047
0.000183675
0.000147526
-0.000714591
-0.000218953
0.000147055
0.000786489
0.000602324
-0.000967789
0.000643878
-0.000278412
-2.05079e-05
0.00090079
-0.000901131
2.08486e-05
-1.91598e-07
0.000841058
-0.000833512
-7.35494e-06
-0.0011069
0.000887544
-0.000713222
0.00093258
0.000929192
-0.00090478
-2.4412e-05
-0.000899041
0.00119762
-0.000215207
-8.33728e-05
-0.000788037
0.000193958
-6.37541e-05
0.000657833
-0.00128034
9.66771e-05
0.000824291
0.000359368
0.000225035
-0.0003073
0.000171111
-0.000324622
0.000369459
0.000593887
-0.000638724
-0.00033658
-0.000151238
0.00019283
0.000294987
-0.000455836
0.000298249
-0.000569662
0.000727248
0.000135981
1.59872e-05
-0.00105101
-0.000469109
0.000468037
1.07172e-06
0.000493105
-0.000475697
-1.74081e-05
-0.000755844
-4.9717e-05
-0.000199328
0.000186485
-0.00100077
0.00116407
-0.000349782
0.000437619
0.000744189
-0.00095017
-0.000231638
0.000832071
-0.000906797
2.76887e-05
4.70365e-05
0.000476617
0.000122607
-0.000492115
-0.000107108
-0.000719305
-4.25717e-05
0.000948362
0.000426545
-3.088e-05
-0.000520084
0.000124419
0.00048059
-0.000411663
0.000474298
-0.000543225
-0.000788433
0.000150624
0.00107543
-0.000273575
-0.00037922
0.00126235
-0.000609554
-0.000389159
-0.000435075
0.000104929
0.000117688
0.00031259
-0.000819437
-0.000579617
-4.63586e-05
0.000932067
-0.000306091
8.64992e-05
0.000141914
0.000496333
-0.000724747
-0.000259106
0.000634647
-0.000375541
0.000207932
-0.00100622
0.000363213
0.000600757
0.000418704
-0.000901773
-0.000831866
9.96585e-06
0.00103663
-0.00021473
0.000147184
0.000126451
0.000394603
-0.000668237
0.000622491
-0.000622225
-2.66186e-07
0.000210634
-7.95507e-05
0.000707093
-0.000838177
0.000737363
-0.000232321
0.000353758
-0.0008588
0.0014148
-0.000455923
0.00105354
-0.00201242
0.000222509
0.000413644
-0.000171934
-0.000464219
-0.00064598
0.000265452
0.000338413
4.21146e-05
0.000460834
-0.000347311
-9.48553e-06
-0.000104037
-0.00028612
-0.00036295
0.00105782
-0.000408754
-0.000518707
0.000673536
0.000266848
-0.000421677
0.000780026
-4.26702e-05
-0.000256767
-0.00114812
0.00075747
-6.51896e-05
-0.00109428
0.00101312
0.000470009
-0.000388851
0.000701524
-0.000790474
-0.000112568
0.000201519
0.000393458
-0.000716404
-0.000371698
-0.000416404
-0.000381825
0.000216544
0.000581685
-0.000605411
0.000190318
0.000601004
-0.000185911
0.000701503
-0.000667412
-0.000460665
0.000426574
4.27227e-06
-6.12609e-06
-0.00066308
0.000664934
1.93753e-05
-0.000603172
-2.1306e-05
0.000605103
-0.000168865
-0.000995821
0.000156647
-0.000574812
0.000516545
-9.838e-05
-0.000385705
-0.000162301
-5.74052e-05
-8.50785e-06
0.000950715
9.29885e-06
-0.00228638
0.0016095
0.00116551
-0.000488632
-0.000684072
4.60692e-05
2.39484e-05
0.000614054
-0.000135982
0.0021363
-0.00251762
0.000517304
0.000109588
0.000168949
-0.000379127
0.00010059
-0.00146706
0.000790328
0.000106646
0.000570087
-1.51355e-05
-0.000970863
-0.000140083
0.00112608
-0.000386218
0.00144648
-0.00100149
-5.87662e-05
0.000648207
0.000943204
-0.000872212
-0.000719199
-0.000761009
0.000725831
0.000899175
-0.000863997
0.000308116
0.000430501
-0.000536103
-0.000202514
0.000304067
-0.000202663
-0.000487109
-0.00153944
-5.97638e-05
0.00125411
0.000345089
0.000464093
7.23476e-05
-0.000270989
0.000466036
0.000625026
-0.000576694
-0.000514368
-0.000774321
0.000171426
0.000753389
-0.000150494
8.76329e-05
0.000248736
0.000861253
-0.000909216
0.000893059
8.61952e-05
-7.00388e-05
0.000566419
0.00044553
-0.000399127
-1.58087e-05
-0.000112227
0.000527162
-0.000595003
-0.000123895
0.000334306
-0.00112614
0.000474401
0.000317431
3.42855e-05
0.00061514
-0.000681028
3.16024e-05
-0.000231234
4.47132e-05
-0.000214978
0.000401499
0.000958487
-0.000685748
3.13276e-05
-0.000544662
-0.000427871
0.000575923
0.00039661
0.00202969
-0.00217574
0.000719153
-0.000573097
-0.000400784
0.000497826
0.000200728
-0.00029777
-0.000969787
0.000418142
0.000842497
-0.000290853
-0.000384744
0.000560239
0.000721307
-0.000896802
0.00107697
-0.000416646
-0.000710903
5.05837e-05
1.85567e-05
-0.000258425
0.000628583
-0.000388715
-0.00010915
0.000108258
-0.000830973
0.000780295
0.000252907
-0.000835475
-0.000197727
0.000974629
-0.000802461
-0.000214739
0.000201122
0.0002942
-0.000702436
0.000207114
-0.000413322
-0.000753809
0.000671698
0.000495434
-0.000124255
-0.000323929
-9.64776e-05
0.000394192
-0.000418587
0.000902259
-0.000877864
9.54204e-05
-0.00107556
0.000980142
0.000367807
-0.000483961
0.000317277
0.000210745
0.000122629
0.000173091
-0.000506465
-2.31963e-05
-0.000927838
0.000951035
-0.000520013
6.9014e-05
-0.000168619
0.000619617
-6.84605e-05
0.000747209
-0.000677172
-1.57584e-06
-0.000485304
-0.000261712
0.000283481
0.000463535
-0.0001778
-0.000431758
-0.000395271
-0.000581128
0.000485337
0.000491062
2.24099e-05
-0.000595482
0.000997806
-0.000410415
-5.31961e-05
-0.000534195
0.000548893
-5.47782e-05
-0.000400353
-9.37617e-05
-8.12805e-05
0.000749125
-0.000939481
0.000271636
0.000479236
1.85226e-05
0.000233405
-0.000731164
-1.77038e-05
-0.000395623
0.000190977
0.00022235
-0.000281689
0.000365902
0.000702499
-0.000786712
-0.000960262
-0.000250423
-0.000271115
0.000889344
-0.000904268
2.37221e-05
0.000281774
0.000598772
8.30302e-05
-0.000303785
-0.000529281
0.000750035
-0.000399192
-0.000779236
0.000196606
0.000981823
-0.00035011
-0.000386811
0.000402341
0.00033458
-0.000916915
0.000883028
0.000935443
-0.000901556
-0.000127678
-0.00022308
-0.000672408
0.00102317
-0.000919678
8.66417e-05
0.000935582
-0.000102546
-0.00016219
0.000424
-0.00026181
-0.000372372
0.000688602
-0.000518335
0.000202105
-1.34324e-05
0.00118978
-0.000446385
-0.000729959
-0.000436808
-0.000215443
0.00087647
-0.00022422
0.000136298
-0.000357457
0.000807849
-0.00058669
3.89265e-05
0.000551825
-9.67259e-05
-2.2131e-07
-0.000866022
0.000866138
1.05356e-07
0.00103296
-0.000182929
-0.0015096
0.000659561
-0.000953733
-9.3032e-05
0.00119024
-0.000143471
-0.000515542
0.000779189
6.4022e-05
-0.000327669
0.000459607
-0.000454688
-4.91826e-06
-0.000539079
5.35085e-05
-0.000459445
0.000945016
-0.000775097
0.00106754
-0.000214576
-7.7866e-05
0.000478359
-0.000198168
-0.000578591
0.0002984
-0.00092602
0.000930035
-4.01446e-06
0.000766959
-0.00111099
8.70267e-05
0.000257
-0.000839156
-0.000232352
0.00144273
-0.000371224
0.00064335
-2.69086e-05
-0.000134448
-0.000481994
-0.000361842
-0.000613363
0.0013694
-6.28986e-05
-0.000897982
0.000542294
0.00141342
-0.00157636
-0.000149691
0.000312624
0.000395591
0.000188661
-0.000437068
-0.000413482
0.000430156
-1.6674e-05
-0.00015986
0.000896671
-5.8482e-05
-0.000678329
-0.000201006
0.000238333
0.000798403
-0.00083573
0.000532181
0.00125446
-0.000725998
-0.00106064
0.000921932
-0.00110613
0.000351583
-0.000167382
0.000794511
5.87745e-06
-0.000800388
1.07287e-05
0.000768743
-0.000779472
0.000888885
-0.00107287
0.00095094
2.25651e-06
-3.72073e-06
0.000732977
-0.000731513
1.62035e-05
0.00127215
-0.00126738
-2.09752e-05
-0.000103758
-0.000311616
-0.000640135
0.00105551
-0.00039926
-0.000233368
7.83662e-05
0.000755683
-0.0013088
0.000474752
-0.000620172
-0.000162464
0.000664766
0.000117871
-0.000764518
0.000839872
-0.000221155
0.000145801
0.000115278
0.000601323
-0.000204459
-0.000512143
-0.000285708
6.85602e-05
0.000491006
-0.000273858
1.82287e-06
0.000232999
-0.00029634
6.15176e-05
-0.000318383
0.00078082
-0.00045089
-1.15483e-05
0.000228159
-0.000730693
-0.000423486
5.48773e-06
-0.000668054
0.000662566
-0.000261473
-0.000250995
0.000116284
0.000396184
0.000375277
-0.000216363
-0.000158914
0.000933743
-0.000931436
-0.000186335
0.000184028
-8.90261e-05
-0.000577966
0.000534768
0.000132224
-2.44063e-06
3.28402e-06
0.000526239
-0.000527083
0.000263798
-0.000216756
-0.00083864
0.000791597
0.000607273
-1.52132e-05
-0.00059206
-0.000884477
-0.000574727
0.000853177
0.000606027
0.000501376
0.000779501
-0.00134378
0.000495286
-0.000176146
0.000279323
-0.000598464
-0.000204573
0.00020227
-0.00113222
0.00113452
0.000288014
-0.000570718
-0.000553345
0.000836049
-6.08285e-05
-0.000133712
0.000629724
-0.000435184
0.000438021
-0.000538362
0.000195043
-9.47019e-05
0.000251345
-0.000416197
-0.000402017
0.000566869
-0.000773825
0.000870118
-0.000228223
0.00013193
0.000913244
0.00116927
-0.00128862
-0.000793892
-0.000709478
0.000706522
2.95638e-06
-7.95994e-05
0.000823722
-0.001027
0.000282875
2.8137e-05
-4.9276e-05
-0.000791615
0.000812753
0.000759846
3.1819e-05
-0.00087421
8.25456e-05
-0.000340042
-0.000574466
0.00072258
0.000191928
-0.00082245
0.00116557
-0.000412623
6.95046e-05
-0.000323704
-0.000397116
0.00023593
-4.56521e-05
-9.87574e-06
-0.000550702
0.00060623
-0.00180769
1.033e-05
0.000158717
0.00163865
7.1667e-05
-0.000460298
-0.000239065
0.000627696
0.00113271
-9.46755e-05
-0.000367572
-0.000670462
-0.000199268
-0.000437241
8.06585e-05
0.000555851
0.000333543
-1.20225e-06
-0.000332341
0.000547442
0.000289792
-0.000182328
-0.000654905
0.000415322
-0.000328603
0.000812292
-0.000899011
2.34641e-05
0.000859453
-0.000283106
-0.000599811
0.000203487
0.000294492
0.00063473
-0.000403118
3.03656e-05
0.000372753
-0.000530271
7.62291e-05
0.000139807
8.82387e-05
-0.000728431
0.000500385
-0.000687392
0.00100804
0.00030444
0.00104275
-0.000219042
-0.00112815
-0.000678807
0.000664041
-0.00105259
0.00106735
-9.93326e-05
-0.000497217
0.000174106
0.000422444
-0.000560448
0.00106199
0.000318177
-0.000373667
8.47796e-05
-2.92896e-05
-0.000339916
-0.00108407
0.000336786
0.0010872
0.000707439
-0.000704721
-1.05997e-05
7.88152e-06
0.00058652
-0.00068544
0.000145473
-4.65531e-05
0.000142797
0.00056967
-0.00101483
0.000302368
2.5579e-06
0.000496474
-0.000499032
0.000318766
-0.000814392
0.000638424
-0.00031876
0.000854733
0.000724687
-0.00126066
0.000240996
-0.000248216
-0.0011492
0.00115642
-0.000347235
0.00057361
-0.0011549
0.00092853
-0.000808042
0.000642683
0.000842545
-0.000677186
-0.00050623
0.000693269
-0.000447939
0.0002609
-0.000111716
0.000486454
7.94478e-05
-0.000454185
0.000235867
-0.000343611
0.000354147
-0.000246404
0.000465593
0.000173335
0.000153306
-0.000792234
0.00124438
-0.000841466
-5.60803e-05
-0.000346838
4.30133e-07
-0.000606109
0.000605679
0.000393328
-0.000571739
-0.00176364
0.00194205
-8.05082e-05
-0.000827836
-0.000248015
0.00115636
-5.07104e-05
-0.000384369
0.000435079
0.000117488
0.000558979
-8.96566e-05
-0.00058681
-0.000155472
-0.000561111
0.00045295
0.000263633
0.000454424
-0.000380811
-0.000668495
0.00108826
-0.000850005
0.000255406
0.000270117
-0.000525523
0.000857727
-2.28616e-06
-9.89035e-05
-0.000756537
-0.00016748
-0.000285189
0.000452669
0.000297622
0.000197135
0.00166333
-0.00200067
-0.000702692
0.00104004
0.00025641
0.000546336
-0.000417887
-0.000384858
-0.000584991
0.00112779
0.000742689
-0.00128549
0.00067721
0.000236117
-8.92158e-05
-0.000824111
0.00109099
-0.000727381
0.000469404
-0.000833017
-0.000657436
0.000300456
-0.000840319
0.0011973
-0.00101132
0.00180042
-0.000701478
-8.763e-05
-2.83542e-05
-0.0004235
-0.000585243
0.0010371
0.000817642
0.000339523
-0.000953493
-0.000203672
0.000450023
-0.00120054
0.000754334
-3.82159e-06
-0.00102516
-3.95436e-05
0.000668768
0.000395941
-0.000207345
0.000538387
0.000233748
-0.00056479
-0.000128833
0.000516355
0.000417764
-0.000805286
-0.00111134
0.000569615
-4.93092e-05
0.000591034
9.65574e-05
-0.000289114
0.000575555
-0.000382999
0.000470382
-0.000236659
0.000167904
-0.000401627
0.00044341
8.44941e-05
4.35923e-05
-0.000571497
-0.000642909
0.00069001
0.000255392
-0.000302492
-0.000153069
0.000825467
1.60391e-05
-0.000688438
0.00067418
-0.000395742
-0.000260575
-1.78633e-05
0.000568245
4.00787e-06
-0.000572253
0.000416158
0.000322308
-7.30664e-05
-0.000665401
0.000193424
0.000504813
0.00042847
-0.00112671
1.22491e-06
-0.000928001
0.000926776
-0.000495504
0.00189312
-0.0002782
-0.00111942
-3.95703e-06
0.000696086
-0.000692129
-4.64373e-05
-0.000500039
8.9755e-05
0.000456722
-0.000928129
0.000472402
0.000362
9.37266e-05
0.000190268
0.000151517
-0.00107726
0.000735476
0.000541719
0.000855817
-0.000319842
-0.00107769
0.000834318
-0.000287006
-0.000798825
0.000251513
-0.00102445
0.00058515
0.00156609
-0.0011268
-2.72822e-06
0.000408566
-0.00040856
2.72207e-06
-0.000421745
0.000417306
4.43899e-06
-0.001041
1.47318e-05
0.000441274
0.000116957
0.000248751
0.000691995
-0.0010577
0.000538063
-0.000639187
0.000412979
-0.000311854
-0.000541291
0.000474021
-1.78827e-05
8.51521e-05
-0.000106111
-0.000884771
0.00112779
-0.000136912
-0.000399568
0.000192416
0.000632493
-0.000425341
0.000674094
-0.000257646
9.41588e-05
-0.000510606
-0.000438582
-7.63554e-05
0.000513373
1.5641e-06
-7.90854e-05
-4.20804e-06
0.000751102
-0.000667808
8.78184e-05
-7.69425e-05
0.000725432
-0.000736308
-0.000658028
0.000921383
-0.000967063
0.000703708
3.95402e-06
-0.000829275
0.000825321
-0.000294214
2.84261e-05
0.000745229
-0.000479441
-0.000556705
0.000650835
-0.000887486
0.000793356
-0.000572107
4.40251e-05
0.000171551
-0.000270523
0.000729776
4.16231e-05
-0.000500876
-0.000193451
2.76162e-05
-0.000322954
-0.000288573
-0.000931486
0.000936933
0.000283127
-0.000413571
-4.93791e-05
-0.000102769
0.000565718
-0.00142261
0.000479161
0.000146409
0.000797041
-0.000439009
0.00103507
-0.000520111
-7.59531e-05
0.000306661
0.00012069
-0.000620802
0.000606271
0.000611708
-0.00121798
8.46098e-05
0.00136184
-0.000315319
-0.00113113
-1.77339e-05
-2.48553e-05
-0.000615925
0.000658514
-0.000656123
0.00107729
-0.000433394
1.22314e-05
0.00061272
-0.000384134
-0.000555134
0.000326548
0.000158488
-2.11915e-05
0.00019423
0.000952544
0.000261814
-0.00137442
0.000160064
-0.000655482
-8.09281e-05
0.000213711
0.000522699
0.000244334
-0.000273591
-0.00036786
0.00113989
-0.000766628
0.000598579
-0.000971839
-0.000130845
0.000735817
-0.00127266
0.000667683
0.000433079
-0.00054967
-5.54944e-05
0.000172085
-0.000482513
-0.000167808
-1.6359e-05
0.00066668
-0.000359925
-0.00033673
0.000696655
9.12031e-05
-0.000983911
0.000869181
2.35265e-05
0.000366537
-0.000357378
-0.000369083
-0.000613827
0.00077848
-0.000149103
-1.55502e-05
0.000869556
0.000238647
-0.000935815
-0.000172388
-0.000337512
-0.000494706
-5.74173e-05
0.000889635
0.000574637
-0.000174604
0.000666218
-0.00106625
-0.00062404
-3.3988e-05
-0.000727477
0.000390747
9.42546e-05
-0.000819803
0.000262141
0.000463407
0.00024171
-0.000869922
0.000476565
0.000151647
0.000128643
3.42241e-05
-0.000646786
0.000483919
9.71846e-05
0.000422261
-2.95931e-05
0.000753992
-0.000149082
-0.000575317
-0.000295564
-3.2143e-05
-0.000276154
0.000603861
-0.00017514
-0.000235877
0.000451058
-4.00416e-05
-0.000675454
-2.51323e-06
-0.00112621
0.000406083
0.000591293
0.00162618
-1.57386e-05
0.000224264
-0.0018347
-0.000724884
0.00112088
0.000229258
-0.000625256
-0.000206176
0.000111153
0.00070493
-0.000609907
8.37728e-05
0.000237666
-0.000183898
-0.00013754
-0.00122436
-0.000253292
0.00105799
0.000419668
2.78361e-05
0.000534048
-0.00010746
1.65261e-05
0.000264157
-0.000821804
0.000541121
-0.000499032
-1.73772e-06
0.000183971
0.000316798
-0.000716531
0.000885266
-0.000140899
0.000403153
-0.00036337
-3.97823e-05
-0.000587164
7.86285e-05
-0.00045764
0.000966175
-0.000269327
0.000405076
-0.000312234
0.000176486
-0.000579628
0.000652229
-0.000269432
0.00019683
0.000251719
-4.20139e-05
-0.000587127
0.000377422
-0.000259399
0.00162705
-0.0021901
-0.000225179
-0.000157302
0.000153983
0.000228498
0.000749735
-0.00117334
-5.21729e-05
0.000475782
-0.000311577
0.000232377
0.00040079
-0.000321591
-9.36186e-05
0.000492045
-0.000134748
-0.000263679
-0.000554037
0.000122989
0.000129534
0.000301514
-0.000322641
2.76901e-05
0.000294951
0.000711133
-0.000338645
-0.000360693
-1.17957e-05
5.45821e-05
0.000371348
-0.000563704
0.000137774
-0.000380684
-0.000461127
0.000470285
0.000371525
-0.000206341
0.000526523
-0.00044836
0.000128178
0.000183979
-0.00034842
0.000240024
-7.55831e-05
0.000680304
1.89617e-05
-0.000699266
0.000584834
-0.000726241
0.000362473
-0.000221066
-0.000921567
-2.61167e-05
0.000947684
0.00037237
-0.000308909
7.19961e-05
-0.000135458
-3.06934e-05
0.000649198
-0.000707771
8.92667e-05
-0.000320785
0.000401605
0.000103159
-0.000373228
0.000799783
0.000739013
-0.000610891
0.000603791
7.10063e-06
1.19161e-05
-0.000966339
0.000954423
0.00131364
0.000156723
-0.000278606
-0.00119176
0.00027625
-0.00108231
-0.00013161
0.000937674
0.000205235
0.000242739
0.000139882
-0.000587856
-0.000371802
-0.000369431
5.50936e-06
0.000735724
-0.000177183
0.000241459
-0.000436078
-0.000797037
0.000145871
0.00104561
-0.000394446
-0.00158548
0.00116089
0.000511691
-8.71039e-05
0.000700319
2.83092e-06
-0.00070315
-0.000411289
-0.000553448
0.000357845
0.000606891
-0.000396106
-0.000570893
0.000169962
-0.000574553
0.000312689
0.000359048
0.000235162
-0.000307684
-0.000561641
0.000634163
-0.000389903
2.84e-07
0.000389619
-0.000928654
0.000377429
0.000384683
0.000166542
0.000229246
-0.000617221
-0.000186578
0.000778443
-0.000249211
-1.7935e-05
-0.000511297
-0.000534107
0.000889157
0.000520572
-0.000875622
-0.000163306
-0.000338067
0.000128827
0.000372546
-0.00022082
-0.000177617
0.000398437
-0.000389889
-0.000820291
-0.000375297
0.000189578
2.44739e-06
0.000382539
-0.000574564
0.000760484
-0.000553301
-0.000797787
0.000590604
-0.00028132
0.000101267
0.000567032
-0.000386979
0.000522655
-0.000367889
-5.19232e-05
-0.000102843
-0.000598827
9.71901e-05
0.000467868
3.37684e-05
-0.000370784
0.0008511
-0.000925153
0.000360783
2.67607e-05
0.000537609
0.000879745
-0.000710114
-0.000549381
0.000379751
-0.000702727
0.000148904
0.00131431
-0.000670866
-0.000443433
0.000722549
0.000391751
-7.88477e-05
0.000698257
-0.000264745
-0.000354664
4.09982e-05
-0.000444807
-0.000299246
0.000703056
0.000795202
-0.000524496
-3.22924e-05
-0.000238413
0.00025076
0.000185661
-0.000613603
-0.000167166
0.000189118
0.000466678
-0.00048863
-0.000141746
0.000734221
-0.000906963
0.000314489
-0.000454681
0.000109664
0.000110034
0.000234983
-0.000956846
0.000968522
-1.16766e-05
0.000687043
-0.00067952
-7.52328e-06
0.000286528
-0.00109274
-0.000421245
0.00122745
0.000232949
0.000440567
0.000104927
-1.11859e-05
0.000387537
-0.000376351
0.000684318
0.00060631
-0.00129063
-0.000691365
0.000422034
0.00029836
-2.90284e-05
-0.000388294
0.000127984
0.000315626
-5.5317e-05
-0.00117544
0.000549729
0.000645533
-1.98171e-05
-0.000375916
-0.000419572
0.000405585
0.000606455
-9.95326e-05
-0.000386475
-0.000120447
-0.000640449
0.00069192
-0.000422255
0.00011543
-0.000733657
-3.68513e-05
0.000655078
-8.47619e-07
-0.000368352
0.0003692
0.00176973
6.76445e-06
0.00019439
-0.00197088
-6.8329e-05
-0.000133921
-0.000985879
0.00118813
0.000302944
-0.000409933
-0.000189573
0.000296561
0.000119419
0.000918099
-0.00037105
-0.000666467
0.000986025
-0.000984762
1.19945e-06
-2.46242e-06
-0.000559925
-0.000504377
0.000788664
0.000275638
0.000325671
0.000244431
-0.000644587
7.44853e-05
3.80847e-06
0.000606063
-0.000618368
8.49688e-06
-0.000827885
0.000268351
0.000670243
-0.000110709
0.000626252
0.00037826
-0.000633785
-0.000370727
1.44012e-05
-0.000570517
0.00028091
-0.000145396
0.000850511
-0.000452566
-5.88741e-05
-7.05708e-05
0.000582011
-0.00077598
4.08958e-05
0.000735084
0.00113092
0.000485684
-0.000365305
-0.00125129
-0.000735676
1.54865e-05
0.000734591
-6.61096e-05
-0.000171566
-0.000438523
0.000676198
-8.00895e-05
-8.82306e-05
-0.000238866
0.000407186
0.000187291
-0.000947104
0.000714369
4.54431e-05
0.000583135
-9.02579e-05
-0.000568275
7.53982e-05
-0.000703375
0.000141177
4.35002e-05
0.000518698
-0.000273676
0.000181961
-0.000383165
0.00047488
0.000156332
0.00010782
-0.000932205
0.000668052
3.35221e-05
-0.000629925
-4.47168e-05
0.00064112
0.000618163
8.41884e-05
-1.37533e-05
-0.000688598
-0.000743807
0.000170868
0.000673846
-0.000528368
-0.000697924
0.00122629
0.00102913
-0.000520996
0.000225437
-0.000733566
8.14775e-05
0.000573681
-0.000352214
-0.000839957
0.000152027
0.000300046
0.000387884
0.00103523
-0.00107325
3.80261e-05
-0.00064301
-0.000217992
0.000449934
0.000411069
-0.000825599
-0.000642293
0.000430387
0.00103751
0.000831226
-0.000868202
-0.000106476
0.000143453
-0.000120246
0.000404463
-0.00031893
3.47137e-05
-0.00104371
0.00034259
0.000238448
0.000462675
-0.00155649
0.00192518
0.00033471
-0.0007034
0.000692176
-0.00150835
-8.52985e-05
0.000901472
-0.000622185
0.000803122
-0.00147448
0.00129354
-0.000646058
0.00141302
0.000143681
-0.00091064
5.7691e-05
0.00067567
-0.000161273
-0.000572088
0.00100915
-0.000757115
-2.56265e-05
-0.000226406
-0.000178092
-0.000170867
0.000261296
8.76633e-05
-0.000476471
-0.00100179
0.000858942
0.000619317
-0.00067579
0.000899439
0.000785497
0.000578437
-0.000425115
-0.000529898
0.000376576
0.000204256
-0.000264332
-0.000116761
0.000176838
0.000451577
-0.000446377
-0.000596
0.0005908
-0.000183456
0.000526328
-3.81427e-05
-0.000304729
-0.000734291
-0.000121516
0.000913498
-0.000549941
-0.000135172
0.000679844
5.26896e-06
0.000234863
-0.000524739
0.000289876
0.000184294
-0.000241837
0.000894622
-0.000837078
0.000752544
-0.00106056
0.000157347
0.000150672
0.000460648
-0.000495964
3.53164e-05
-0.000694921
1.91312e-05
0.000623849
-0.000238224
-0.000602853
0.000217228
0.000197199
0.000156878
0.00068626
-0.00104034
0.000450179
-0.000488644
3.84646e-05
-5.30261e-06
0.000543006
-0.000613849
7.61451e-05
-0.000777881
-7.25792e-05
0.00103475
-0.000330872
-5.66364e-05
7.64605e-05
0.000311048
4.57186e-05
-0.000378325
0.000279175
5.3432e-05
0.000620878
-0.000594289
-0.000146835
7.41264e-05
0.00106324
-0.000671734
-0.00046563
-0.000358723
0.000753701
-0.000394977
-0.000968105
0.00037068
-0.000223981
0.000821406
0.000751877
-0.000680586
-0.001115
-0.000382188
-0.000456603
0.00157015
-0.000731357
-0.00109684
0.000698593
0.000995652
-0.000597405
-1.91251e-05
-0.000923553
0.000942678
0.00147006
1.1852e-06
-0.000846075
-0.000625168
0.000859419
-0.000553664
-7.49509e-05
-0.000230804
-0.000626543
0.000442527
-0.000109802
0.000293817
7.55729e-06
-0.000680722
0.000673164
-0.000461588
0.000475088
-1.34995e-05
-0.000340573
-0.000360681
-0.000926533
0.00162779
-0.000860281
0.000189049
-9.54191e-05
0.000766651
0.000207071
0.000335909
0.000931526
-0.000841901
-0.00069306
0.000603435
-0.000248807
-0.000512803
0.000564078
0.000197531
-0.000507865
-0.000258086
0.000767961
-2.01009e-06
0.000179898
-0.000102033
-0.000502144
0.000424279
0.000560287
2.58059e-05
-0.00071894
0.000132847
0.000173652
-0.00012123
0.000193085
-0.000232892
0.000231922
-0.000192115
0.000471315
0.000455948
-0.000467975
-0.000459288
0.000228571
0.000534549
-0.000553502
-0.000209617
0.000477276
0.000206859
-0.000377473
0.000594514
-0.000721027
0.000152319
-0.000796476
0.000558828
0.000299233
-6.15845e-05
0.000937507
-0.000312054
-0.000984177
-0.000251616
0.000667607
0.000335886
0.000654608
-0.000318179
-0.000555696
-0.000152967
-8.78135e-05
-0.000881984
0.000825733
7.72722e-05
-2.10213e-05
-5.64557e-05
0.0011036
-0.000113849
-0.000933293
-0.000714532
0.000145256
0.000317661
-0.00011336
-0.000721641
0.000202825
0.000632176
0.00065903
9.11718e-05
-3.54883e-07
-0.000749847
-0.000981073
-3.70721e-06
3.19736e-06
0.000981583
-0.000261289
0.000282917
-0.000465819
0.000444191
-0.000679689