/*--------------------------------*- C++ -*----------------------------------*\
  =========                 |
  \\      /  F ield         | OpenFOAM: The Open Source CFD Toolbox
   \\    /   O peration     | Website:  https://openfoam.org
    \\  /    A nd           | Version:  10
     \\/     M anipulation  |
\*---------------------------------------------------------------------------*/
FoamFile
{
    format      ascii;
    class       volVectorField;
    location    "9";
    object      U;
}
// * * * * * * * * * * * * * * * * * * * * * * * * * * * * * * * * * * * * * //

dimensions      [0 1 -1 0 0 0 0];

internalField   nonuniform List<vector> 
111485
(
(0.200165 -0.200195 0.000237675)
(0.563809 6.85409e-05 -5.65863e-05)
(0.560072 0.002061 0.00218601)
(0.200484 -0.200538 9.84952e-06)
(0.569871 0.00269145 0.00109088)
(0.199414 0.199372 3.12129e-05)
(0.56557 0.000307042 0.000115618)
(0.563247 9.63068e-05 -1.7698e-05)
(0.566942 0.000254009 -8.42235e-05)
(0.582943 -0.00423253 -0.00174402)
(0.565043 0.000341719 0.000144153)
(0.58529 0.0009619 0.00217541)
(0.565816 0.00035818 0.000187634)
(0.562964 1.69509e-05 -0.000614949)
(0.564539 0.000472957 0.000206846)
(0.562415 3.59996e-05 -0.000473103)
(0.562784 0.000140326 0.000232841)
(0.206117 -0.0227544 0.0334951)
(0.566275 0.000118129 -0.000132915)
(0.19802 -0.197697 -6.22789e-05)
(0.198467 -0.19846 -0.000270925)
(0.200094 0.200036 6.7777e-06)
(0.565814 0.00043463 -2.89932e-05)
(0.564034 -0.000894356 -0.000151358)
(0.564752 0.0054766 -0.00371585)
(0.201898 -0.201055 -0.00025421)
(0.591345 -0.000145102 0.00300696)
(0.564716 -5.0336e-05 -9.11728e-05)
(0.571482 -0.00131497 -0.0002602)
(0.19942 -0.199535 1.71381e-05)
(0.590867 0.0110273 -0.00312793)
(0.56452 -0.000348142 7.35636e-07)
(0.198133 -0.198603 0.000333576)
(0.199752 0.200123 -0.000504168)
(0.200751 0.0815203 0.0337385)
(0.200691 0.201823 -0.00281324)
(0.588382 0.0110233 -0.00452419)
(0.563167 -0.000511196 0.00394809)
(0.581199 0.174152 0.011342)
(0.562458 0.000585571 0.000241663)
(0.196574 0.198197 -0.00139507)
(0.589622 -4.35703e-05 -0.00328882)
(0.562196 0.000639669 0.000434249)
(0.563771 -0.0035744 -0.00135712)
(0.58951 -0.0104144 -0.00551405)
(0.199676 -0.198557 0.00122373)
(0.589207 -0.00147681 0.0029495)
(0.56392 -0.00060966 -9.83926e-05)
(0.589493 -0.000436537 -0.00256497)
(0.199177 -0.196977 0.00118113)
(0.197813 -0.195901 0.00121937)
(0.227691 0.190589 0.00347102)
(0.197087 -0.196388 0.00066285)
(0.589302 0.00210557 -0.00480602)
(0.196754 -0.19585 0.000215221)
(0.566057 0.000127251 -0.000105242)
(0.565043 -0.000444405 -0.000119876)
(0.200069 0.199794 4.24379e-05)
(0.525126 -0.000331461 -0.00792776)
(0.565261 0.000647189 8.11258e-05)
(0.564976 0.000803795 5.72467e-05)
(0.199653 -0.199985 0.000246821)
(0.560292 1.26734e-05 0.000506999)
(0.593218 -0.000125949 0.00408158)
(0.206266 0.186722 0.000409574)
(0.565552 2.79711e-05 -0.000108677)
(0.41115 -0.0369537 0.0145882)
(0.565825 0.000127557 -0.000102595)
(0.562968 -0.000361512 -0.000281092)
(0.563865 -0.000187311 -0.000222582)
(0.565517 0.00432801 -0.00285686)
(0.563531 -0.000168213 0.000251546)
(0.215616 -0.194691 -0.0042172)
(0.560284 0.000265664 0.000414436)
(0.199885 -0.199761 7.5762e-05)
(0.565041 0.000150158 0.000161699)
(0.200015 0.200079 -5.94175e-05)
(0.588464 -0.000746815 0.00301066)
(0.199851 0.19979 -4.39749e-05)
(0.179569 0.175168 -0.00595766)
(0.568681 -0.00904696 0.00607605)
(0.5856 0.00311006 0.000516338)
(0.198947 0.198549 -5.18169e-06)
(0.199825 -0.199787 9.09885e-05)
(0.565906 -0.000126964 4.899e-05)
(0.563139 -0.00119003 7.05592e-05)
(0.453341 0.289144 -0.0802362)
(0.581879 0.00760922 0.0009935)
(0.559528 0.013988 0.0127593)
(0.563604 -0.000225451 0.000162153)
(0.598796 0.0113843 -0.00706858)
(0.569463 -0.000818037 0.000144751)
(0.565722 -0.000174155 6.04774e-05)
(0.562159 0.000105256 -0.000140588)
(0.590657 0.000426723 -0.00348018)
(0.199881 -0.199862 1.92161e-05)
(0.199162 -0.199089 0.00014315)
(0.581589 0.0070658 0.00254411)
(0.60964 -0.126619 0.00337936)
(0.553677 0.00445703 -0.00129816)
(0.199829 -0.199839 8.66033e-05)
(0.580248 -0.00162758 0.000896151)
(0.200924 0.201225 0.00109943)
(0.57912 -0.00108952 2.14141e-06)
(0.563191 0.000334717 -0.000317358)
(0.196623 0.17497 -0.00438583)
(0.200199 0.200098 -6.8772e-05)
(0.563548 -0.00040434 0.000268914)
(0.56459 0.00130871 -0.0011748)
(0.518216 -0.0152697 -0.0164067)
(0.566536 2.86963e-05 -9.762e-06)
(0.562596 0.000492044 0.000270455)
(0.563762 0.00118086 0.000130718)
(0.54264 -0.00191719 -0.000899776)
(0.201778 -0.200735 7.40651e-05)
(0.562952 1.55775e-05 -0.00017539)
(0.200955 -0.200364 -0.000249332)
(0.20082 0.199604 0.00116242)
(0.563485 -0.000110492 -0.000290829)
(0.200391 -0.200259 5.98198e-05)
(0.202002 -0.200982 -0.000111247)
(0.264483 0.207277 0.0130141)
(0.197208 0.198124 -0.000362834)
(0.199959 0.199459 -0.000716829)
(0.55907 -0.0022352 0.0029517)
(0.160495 -0.114544 -0.0293883)
(0.252565 0.21614 0.00845338)
(0.563051 -3.57199e-05 0.000390522)
(0.200135 -0.20004 -8.23111e-05)
(0.585233 0.0420353 -0.015514)
(0.586628 0.0130286 -0.00674929)
(0.580475 0.00716175 0.00258659)
(0.19897 -0.198495 -0.00113735)
(0.259064 0.224867 0.0234953)
(0.241404 0.214887 0.0107174)
(0.565363 7.46302e-05 -7.50521e-05)
(0.200324 0.200264 -8.48614e-05)
(0.563356 -0.000264306 0.000172671)
(0.563587 -7.43545e-06 4.57925e-05)
(0.562925 -0.000815364 -0.000669035)
(0.457843 -7.07584e-05 0.000635665)
(0.562546 0.000397979 -4.82867e-05)
(0.561597 -0.000490587 -0.000135592)
(0.560897 -0.00164343 -0.00113742)
(0.578186 0.00072333 -0.00114053)
(0.564626 -0.000894394 0.000164639)
(0.200422 0.200449 -2.9582e-05)
(0.200034 -0.200072 1.27404e-05)
(0.19973 0.199947 0.000471385)
(0.564845 8.35398e-05 -1.52053e-06)
(0.562128 -0.00141109 -0.000861037)
(0.198523 -0.198504 0.000111554)
(0.37424 -0.0022196 0.00250798)
(0.565713 0.00146367 0.00209314)
(0.624461 0.024308 0.0107147)
(0.565659 9.36687e-05 -0.000168927)
(0.565728 -3.9476e-05 -0.000136364)
(0.562534 0.000573004 -0.000109668)
(0.626074 0.0337161 0.00601338)
(0.198831 -0.200839 0.0010435)
(0.199944 -0.200081 0.000258251)
(0.565981 9.97565e-06 -0.000245502)
(0.565616 -0.002107 -0.00157845)
(0.630225 0.0341312 0.00663073)
(0.620806 0.030994 0.00863058)
(0.562059 -0.00020334 7.24308e-05)
(0.584722 0.00559824 -0.00218953)
(0.196875 0.198965 -0.00024282)
(0.638877 0.0417383 0.00921449)
(0.608634 0.0308631 0.00898671)
(0.200026 0.200158 5.21385e-05)
(0.199613 -0.199665 1.18252e-05)
(0.51535 0.000491255 0.000244419)
(0.200298 0.200392 2.68243e-05)
(0.566507 1.28993e-05 -0.000257028)
(0.566661 0.000347521 -0.000229223)
(0.199796 0.195125 -0.00103978)
(0.216201 -0.199003 0.00200306)
(0.198894 -0.197929 -0.000449706)
(0.1972 0.186653 -0.00198999)
(0.217047 -0.200597 0.00293932)
(0.199829 -0.199938 0.000210859)
(0.564741 6.13363e-05 2.01115e-05)
(0.5663 -6.55894e-05 -0.000181501)
(0.565897 -2.36552e-05 -0.000149174)
(0.559512 -0.0043955 0.00245732)
(0.549391 -0.00208639 6.82303e-05)
(0.564836 -3.97433e-05 7.10157e-06)
(0.500658 0.0052191 0.000569564)
(0.199301 -0.198557 2.00958e-05)
(0.562726 -0.000115563 -0.0010685)
(0.215467 -0.200464 0.00161804)
(0.201309 -0.201492 -3.92704e-05)
(0.564588 3.65346e-05 -3.26193e-05)
(0.582967 -0.00484241 -0.0017019)
(0.581081 0.000355299 -0.00311393)
(0.564213 -0.000226497 0.000145804)
(0.567001 0.000190898 -0.000198848)
(0.199355 -0.199036 0.000483572)
(0.566278 0.000171756 -0.000214004)
(0.56061 -0.00167242 -0.00157177)
(0.38429 0.118678 0.0152007)
(0.568709 -0.00503552 -4.92498e-05)
(0.566225 -0.00012485 0.000136688)
(0.200418 -0.199165 -0.000505388)
(0.564442 0.000127411 -0.000154359)
(0.582883 0.000283414 0.000278869)
(0.218987 -0.197949 0.000199612)
(0.5619 0.00109144 0.00246841)
(0.589547 0.000967106 0.00278845)
(0.56174 -0.00150292 -0.000778518)
(0.563092 0.000280425 -4.94504e-06)
(0.216912 -0.201154 0.00233346)
(0.198861 -0.198939 -3.18474e-05)
(0.562868 0.00022008 -4.53801e-05)
(0.360414 0.224168 -0.0207421)
(0.595294 0.00202427 -0.00586995)
(0.199878 0.199946 -0.0001631)
(0.563398 -0.00029092 0.00028956)
(0.566372 -2.38116e-05 -6.77188e-05)
(0.590702 -7.44837e-05 0.00359612)
(0.200119 -0.200078 3.04687e-05)
(0.564963 -0.000132662 -2.91096e-05)
(0.584607 0.00932809 0.00470104)
(0.319196 0.213986 -0.0242557)
(0.200293 0.200356 -0.000146847)
(0.200004 0.200154 5.78823e-05)
(0.59786 -0.00321303 0.00574171)
(0.555892 0.0121139 -0.0030291)
(0.210308 0.176872 -0.0045595)
(0.247043 -0.192971 0.00814569)
(0.566262 1.13507e-05 -1.85939e-05)
(0.566528 0.000259528 6.0123e-05)
(0.5626 0.000211603 0.000897049)
(0.207069 0.179531 -0.00570253)
(0.210286 -0.194577 -0.00107964)
(0.562126 0.00754911 -0.00879005)
(0.199868 -0.199806 8.82062e-05)
(0.565079 -0.000248747 -6.61855e-05)
(0.566187 7.09267e-05 4.19701e-05)
(0.566325 3.54451e-05 -2.4407e-05)
(0.565379 -0.000118452 -8.68366e-05)
(0.565513 -5.47837e-05 2.08397e-05)
(0.199301 0.199404 0.000611717)
(0.428788 -0.000759182 -0.0153488)
(0.562844 7.70489e-05 -5.41607e-05)
(0.198214 0.198815 -3.40223e-05)
(0.200149 0.200194 1.98597e-05)
(0.592973 -0.00560431 -0.000291466)
(0.561846 0.00210232 -0.000460789)
(0.204692 0.173311 -0.00574654)
(0.565914 -0.000133615 4.21329e-05)
(0.564268 -3.07626e-05 -1.22536e-05)
(0.200285 -0.200183 -5.23807e-05)
(0.254339 0.240593 -0.00137981)
(0.584584 0.00675182 -0.00294914)
(0.20111 -0.198666 0.000189625)
(0.221098 -0.158873 -0.00363804)
(0.301205 -0.107871 -0.0107348)
(0.200477 -0.199869 -0.000128136)
(0.565454 0.000168803 -0.00013432)
(0.564826 -0.000446945 5.83056e-05)
(0.564893 -0.000287932 -0.00121963)
(0.199978 -0.200056 -4.00028e-05)
(0.563102 -0.000133653 4.11636e-05)
(0.200463 -0.200515 3.13775e-06)
(0.200322 -0.200471 0.000139505)
(0.199169 -0.198303 0.000395218)
(0.402509 0.00220934 -0.0055399)
(0.58868 -0.000223751 0.00249118)
(0.562026 0.000310054 -5.39066e-05)
(0.565027 4.00335e-05 -5.74841e-05)
(0.584631 -0.00108369 0.000306841)
(0.565524 -5.45858e-05 -3.13216e-05)
(0.563573 -0.000230463 0.000168681)
(0.586834 0.010252 -0.000432483)
(0.56647 0.000280168 -0.000253226)
(0.566048 2.90252e-05 -3.83284e-05)
(0.203872 0.20053 -9.92877e-05)
(0.199013 -0.199086 -0.000271173)
(0.363688 0.00224408 -0.00749049)
(0.56614 -0.000176675 -7.08192e-05)
(0.585207 0.00496888 0.00521079)
(0.565833 0.000128072 -0.000160288)
(0.200428 -0.200297 4.60134e-05)
(0.56227 -0.000551545 -4.27016e-05)
(0.561358 0.000250596 -1.6784e-05)
(0.565625 -6.11218e-05 1.12439e-05)
(0.524401 0.00143255 -0.00565068)
(0.52676 -0.00555545 -0.0126381)
(0.565784 3.47914e-05 -1.63889e-05)
(0.565357 4.12355e-06 -5.5452e-06)
(0.580543 0.00613016 -0.00361784)
(0.200001 0.200097 1.01526e-05)
(0.541074 0.00132782 0.00105913)
(0.199905 0.200006 -7.98812e-05)
(0.161984 0.121084 -0.0266387)
(0.225719 -0.145588 -0.0119896)
(0.602205 -0.00608753 0.0098144)
(0.584958 -0.00106883 0.000317383)
(0.560488 -0.000557384 0.000353065)
(0.200295 -0.199772 -8.32314e-05)
(0.199229 0.20034 0.0017271)
(0.563215 -3.04559e-05 9.16759e-06)
(0.56312 -3.07775e-05 -0.000188897)
(0.19866 -0.198633 4.24947e-05)
(0.200234 -0.200113 0.000232024)
(0.195408 -0.196573 0.0012698)
(0.56171 -8.83066e-05 0.000205223)
(0.565902 -0.000504864 -0.000199281)
(0.56576 -0.000125704 -0.000277401)
(0.565538 -0.000147962 -9.87798e-05)
(0.565837 0.000485088 -0.000268338)
(0.229716 0.196837 0.00582495)
(0.199712 0.200194 0.000383133)
(0.19959 -0.199413 -8.4148e-05)
(0.562788 0.000165439 0.000692723)
(0.376984 -0.318771 -0.0173442)
(0.559427 -0.000776117 0.000692176)
(0.598926 -0.0035182 0.0131445)
(0.482295 0.00154742 -0.0090659)
(0.200148 0.200132 -4.92796e-06)
(0.199805 -0.200002 0.000163565)
(0.200385 -0.200497 -8.67972e-05)
(0.253639 0.212167 0.0134583)
(0.564139 0.000121943 -6.87633e-06)
(0.572901 -0.00179927 -4.59534e-05)
(0.199754 0.200765 5.35296e-05)
(0.566088 8.72146e-05 -7.76483e-05)
(0.211338 0.169846 0.0125284)
(0.19974 -0.197369 -0.000303138)
(0.595123 -0.000832508 0.00444885)
(0.564755 0.000159369 0.000156609)
(0.585411 0.0018357 0.00108498)
(0.566186 7.6878e-05 -0.000103381)
(0.191086 0.168573 0.0104022)
(0.251216 0.215547 0.0146331)
(0.199381 0.199641 -0.000382702)
(0.565416 0.000159384 9.3881e-05)
(0.565602 0.000457084 0.000125142)
(0.589508 0.0114679 -0.00431434)
(0.197141 0.196674 0.000390226)
(0.403994 0.354166 -0.0869645)
(0.553081 0.00309722 0.00531242)
(0.575454 -0.00160584 0.000502282)
(0.562789 0.000334509 0.00043115)
(0.549158 0.0556128 -0.00390102)
(0.565923 -0.000130706 -0.000488172)
(0.198968 0.198962 0.00011882)
(0.566066 0.000277129 -0.000271916)
(0.565415 0.000197276 6.07047e-05)
(0.594009 -0.012886 0.00012654)
(0.59687 -0.0026948 0.00711341)
(0.561726 -0.00404495 -0.00370146)
(0.198774 0.199821 -0.000651628)
(0.199228 -0.199677 -0.000439094)
(0.200199 0.198873 0.000768944)
(0.198163 -0.198751 -1.83864e-05)
(0.563786 0.000225578 0.000102002)
(0.561721 8.22687e-07 -7.35172e-05)
(0.58205 0.000568862 -0.00181549)
(0.567786 0.000119146 -0.000342942)
(0.198058 0.198238 -0.000852739)
(0.570576 -0.00307064 -0.00132325)
(0.200003 0.200024 6.19691e-05)
(0.199399 -0.199848 5.87962e-06)
(0.566534 0.000443275 -0.000263211)
(0.184608 -0.184712 0.00271915)
(0.325895 -0.0630468 -0.00346507)
(0.197001 -0.196225 -0.000205975)
(0.200341 0.19666 0.00116487)
(0.566668 -0.000134389 -0.000251406)
(0.200041 0.199901 2.1838e-05)
(0.564999 0.000420403 -5.99978e-05)
(0.550281 -0.000727592 -0.00182976)
(0.200586 0.200595 -4.3494e-05)
(0.563031 3.10876e-05 -4.79036e-05)
(0.565951 0.000149865 -8.50958e-05)
(0.201656 0.176297 -0.006583)
(0.562719 0.0004162 0.000764543)
(0.55294 0.000476795 0.00045622)
(0.564358 0.000355385 1.96171e-05)
(0.531578 0.000926408 0.00690889)
(0.56352 0.000332837 0.000669969)
(0.565657 0.000189949 0.000131872)
(0.198268 0.168864 -0.000658035)
(0.198826 -0.198487 0.00123272)
(0.491958 0.000895304 0.0121909)
(0.198285 0.198926 -0.00117578)
(0.566159 0.00323017 0.00360019)
(0.595674 -0.00241527 0.0053547)
(0.200556 0.191433 0.00169581)
(0.199498 0.200387 -3.28859e-05)
(0.563447 -5.74381e-05 3.63564e-06)
(0.554646 -0.00242625 -0.00441269)
(0.562725 0.00117081 -0.000892582)
(0.577782 0.00453266 -0.00165431)
(0.199969 0.199612 -8.01925e-05)
(0.597704 -8.02918e-05 0.00953178)
(0.583885 2.99204e-05 0.00218272)
(0.200876 0.200573 1.63805e-06)
(0.575904 0.00976682 0.0081901)
(0.541744 -0.00236763 -0.00540256)
(0.199663 -0.199692 -4.27964e-05)
(0.198933 -0.198946 7.56923e-05)
(0.563194 0.000570225 -0.000107212)
(0.568892 0.00105817 0.000827565)
(0.200122 0.200048 -0.000311337)
(0.199606 -0.199194 -0.00030051)
(0.345455 -0.189967 0.0417073)
(0.200317 -0.200472 5.82766e-05)
(0.5729 0.00277282 -0.00201061)
(0.198569 0.199284 0.000422298)
(0.200434 -0.200506 6.90593e-06)
(0.584028 0.0018333 0.00158957)
(0.535747 -0.00593976 -0.014696)
(0.583457 -0.00325318 0.000657645)
(0.564665 0.00106082 0.00148404)
(0.200766 0.200631 2.72894e-05)
(0.260851 0.199956 0.0100831)
(0.564133 0.00749362 0.0123637)
(0.244342 0.214589 0.0122473)
(0.56233 0.00218635 0.00513697)
(0.558224 -0.00552783 0.000308416)
(0.582906 -0.00287119 -0.0021179)
(0.404326 0.0068728 0.0147318)
(0.239832 0.205396 0.0108218)
(0.567186 -0.00112299 -0.00569282)
(0.592559 0.0182908 -0.00605367)
(0.199865 -0.200219 0.00027088)
(0.590664 0.000767589 -0.0061155)
(0.582538 -0.00072512 0.0016332)
(0.200044 -0.199982 0.000182664)
(0.574709 0.0328218 -0.0196828)
(0.493785 0.000217833 -0.00404905)
(0.25334 0.198323 0.00803031)
(0.584238 -0.000367922 0.00199678)
(0.577779 -0.00136379 -0.000253296)
(0.563074 0.000240239 -0.000539694)
(0.199987 0.19988 -5.99603e-05)
(0.560634 -0.00189243 0.00459396)
(0.588011 0.00220313 0.001364)
(0.55858 0.00333106 -0.00120996)
(0.359972 -0.00620531 0.00710106)
(0.244723 0.230211 -0.00514976)
(0.339351 -0.010755 0.0126715)
(0.199753 -0.200051 0.000188556)
(0.529494 -0.0182883 -0.0169825)
(0.559914 -0.0019678 -0.00480855)
(0.200074 0.19998 0.000281748)
(0.546403 0.000404417 -0.00246625)
(0.446401 -0.000904909 0.00851904)
(0.261413 0.22981 -0.00253276)
(0.200057 -0.199932 -3.53644e-05)
(0.233796 -0.199593 0.00607833)
(0.200326 -0.200271 -3.72676e-05)
(0.562528 0.0060725 -0.00414035)
(0.562823 0.00179365 -0.000419166)
(0.567833 -0.00135444 -0.000807262)
(0.539751 0.000445037 -0.00154806)
(0.584739 -0.0101338 -0.00174532)
(0.199811 0.198907 -0.000388566)
(0.564268 -0.000400412 -0.00074938)
(0.200774 -0.199049 -5.51116e-05)
(0.56169 0.00166905 0.00236434)
(0.200791 0.200853 -1.4101e-05)
(0.200165 -0.2 -2.89279e-05)
(0.197397 -0.197983 -0.000313746)
(0.559831 -0.00199053 -0.00107558)
(0.199103 -0.199303 -0.000211526)
(0.199916 -0.19998 4.80353e-05)
(0.197097 0.128711 -0.00854155)
(0.200335 -0.200481 9.32082e-05)
(0.197567 0.200156 0.00186552)
(0.56524 -0.00312802 -0.00109934)
(0.200049 0.199861 -3.12638e-06)
(0.237031 0.174945 0.000475628)
(0.200145 0.200264 0.000284698)
(0.199055 -0.198382 7.61626e-06)
(0.199926 0.199059 -0.000333587)
(0.198845 -0.197787 -0.00105024)
(0.19843 0.198608 1.14445e-05)
(0.522419 -0.000879078 -0.00234601)
(0.200191 0.19904 0.000861879)
(0.527563 0.00763605 0.0111908)
(0.578859 0.00373659 -0.00247456)
(0.596645 -0.0240943 -0.00365089)
(0.200803 0.199864 -2.72011e-05)
(0.50041 0.00137005 0.00907832)
(0.200261 0.199503 0.000110461)
(0.200404 -0.200502 -8.56747e-05)
(0.560148 -0.00361632 -0.00485672)
(0.561968 -0.00307757 -0.00448999)
(0.568192 -0.00137357 -0.000437046)
(0.599959 0.000309626 -0.010903)
(0.230637 0.193376 -0.00622509)
(0.584889 -0.000587636 -0.00338592)
(0.584448 -0.000428578 -0.00305135)
(0.564601 -6.94746e-05 5.65162e-05)
(0.564213 -0.000105326 6.72534e-05)
(0.571087 -0.00415506 -0.00318787)
(0.198628 -0.198703 -0.000127925)
(0.564713 -0.000556861 0.000385307)
(0.263648 0.227983 -0.00107828)
(0.57605 0.000501938 -0.000524335)
(0.199674 0.199414 -6.8214e-05)
(0.58734 0.00068591 -0.00292187)
(0.260675 0.215598 0.00275409)
(0.565774 -0.000807848 -0.00071607)
(0.580052 -0.00125068 0.00112289)
(0.230029 -0.11885 -0.00059203)
(0.199676 0.199854 0.00230161)
(0.564083 0.000190938 0.00156057)
(0.199738 -0.199687 3.49713e-05)
(0.590049 0.00146185 -0.00402584)
(0.585144 0.00149274 -0.00250004)
(0.199863 0.199229 -0.00165246)
(0.199296 0.199312 0.000463883)
(0.196192 0.175054 -0.00395811)
(0.200066 0.200205 7.58229e-05)
(0.409539 -0.0227361 0.00907604)
(0.59048 0.00112314 -0.00369233)
(0.203245 0.19832 -0.000144772)
(0.199551 0.199992 0.000363328)
(0.540446 -0.000934837 0.00295231)
(0.200347 0.200366 2.27821e-05)
(0.580044 0.000826042 -0.00210048)
(0.200208 0.200127 1.65341e-05)
(0.574168 -0.0020643 -0.00132546)
(0.200249 -0.200364 -4.11546e-05)
(0.530347 -0.00147042 -0.00598467)
(0.459761 -0.00163245 -0.000868702)
(0.565979 3.2013e-05 -0.000144259)
(0.565983 -0.000474906 -0.000803666)
(0.200348 0.199033 -0.000627016)
(0.563997 0.00068981 -0.00180953)
(0.200393 0.199659 0.000187298)
(0.200171 0.200177 -0.000537755)
(0.56896 -0.000438703 -0.000197986)
(0.199803 0.199508 -7.10118e-05)
(0.486328 0.000568297 -0.00259847)
(0.192958 0.177771 -0.00574221)
(0.581443 0.000900024 -0.00170982)
(0.198885 -0.199026 4.75593e-06)
(0.586988 -0.000487743 -0.00136471)
(0.200565 -0.200367 1.56644e-05)
(0.239304 0.210885 0.00667022)
(0.595394 0.0211993 -0.00197951)
(0.561994 -0.0034319 -0.00436101)
(0.577584 0.00158292 6.76592e-05)
(0.577391 -0.00437031 -0.00275006)
(0.574828 0.000473579 -0.000525829)
(0.582468 -0.00164472 0.000115256)
(0.197821 0.199279 -0.000902294)
(0.577498 0.00276766 0.00192926)
(0.565354 -0.00399764 -0.00401171)
(0.2 0.200058 -9.8046e-05)
(0.488679 -0.00587784 -0.0185268)
(0.592748 -0.00632689 -0.00387379)
(0.566785 0.00212068 0.00226134)
(0.197408 0.19478 -0.00113569)
(0.246383 0.0442194 -0.0395921)
(0.558828 0.00207569 0.00237447)
(0.453821 -0.00167672 0.00423503)
(0.467641 0.108837 -0.00417608)
(0.255914 -0.134261 -0.00989631)
(0.583426 -0.00360554 -0.000693942)
(0.548772 0.00244598 0.00451053)
(0.56223 -0.00378245 -0.0041007)
(0.576374 -0.00160369 -0.00033955)
(0.559261 0.00162483 0.00187843)
(0.503824 0.0625069 -0.00237239)
(0.248745 0.210345 0.00190288)
(0.51402 -0.022178 0.00519984)
(0.499592 -0.0466769 0.0101202)
(0.199754 -0.199813 0.00012092)
(0.516508 0.00270906 -0.000224014)
(0.201318 0.19744 -0.00105072)
(0.235535 0.213543 0.00195582)
(0.566321 0.000116591 0.00029867)
(0.50862 0.0824101 -0.00176105)
(0.613793 -0.0570264 -0.00837692)
(0.55614 -0.103885 -4.86515e-05)
(0.235301 0.223392 -0.016486)
(0.582528 -0.00162057 -0.000243566)
(0.564192 0.00317895 0.00305021)
(0.199584 0.199042 -2.57074e-05)
(0.258699 0.141358 -0.00562901)
(0.563637 0.00436239 0.00243306)
(0.200048 -0.199286 0.000194356)
(0.199995 0.199891 -4.87809e-05)
(0.199242 0.19915 1.9007e-05)
(0.200451 0.199364 0.000241423)
(0.581785 -0.003819 -0.00160608)
(0.200172 0.200143 0.000117716)
(0.200312 -0.200516 0.00101267)
(0.569814 -0.00205693 -0.00160111)
(0.56388 -4.59866e-05 -0.00012401)
(0.290933 -0.255826 -0.0137684)
(0.563445 0.00424431 0.00280605)
(0.233149 0.187336 0.00438913)
(0.562669 -0.000252774 -0.000243958)
(0.195734 -0.195609 -0.000797295)
(0.1996 0.20002 -7.11924e-05)
(0.580773 -0.00190686 -0.000355399)
(0.199872 0.198704 -0.000797349)
(0.200291 0.199771 9.62308e-05)
(0.230085 0.219617 0.00663546)
(0.56128 -0.00100271 0.000420849)
(0.333106 0.278095 -0.0368586)
(0.571889 -0.000867414 -0.000211763)
(0.566327 9.9584e-05 0.000215412)
(0.197859 -0.196621 -0.00155589)
(0.598984 -0.00152057 0.0189875)
(0.539804 -0.00222825 -0.00586149)
(0.569462 0.000217911 0.000180129)
(0.581782 0.0113105 0.00136718)
(0.583505 0.00445786 -0.0119985)
(0.531231 -0.000710998 -0.0030633)
(0.199802 0.19949 8.63387e-05)
(0.584531 0.000919558 0.00184708)
(0.57218 0.00244535 0.000938043)
(0.197849 -0.200443 0.000289644)
(0.56211 0.00011847 -0.000164247)
(0.58612 0.00428005 -0.000878087)
(0.577259 0.00283544 9.24389e-05)
(0.559792 -0.0024856 -0.00357519)
(0.577652 0.00271774 -0.000231025)
(0.577174 0.00348746 0.000822527)
(0.199878 -0.197237 0.00130757)
(0.58841 0.00121674 0.00192048)
(0.484972 -0.00348279 -0.00158906)
(0.241947 0.209341 0.0133049)
(0.578259 0.00188611 -0.000828635)
(0.557301 0.00151654 -0.000335914)
(0.323538 0.262768 -0.0399408)
(0.566332 0.000110053 0.000262344)
(0.579132 0.00138124 -0.00111119)
(0.558003 0.00120439 -0.00108496)
(0.5771 0.00275384 0.000500935)
(0.57001 0.00605282 0.00332273)
(0.566275 0.000107269 0.000249268)
(0.195629 0.191589 7.1907e-06)
(0.57683 0.00349099 0.000917939)
(0.538546 -0.00273377 -0.00547704)
(0.223047 -0.136621 0.0053273)
(0.576065 0.00557915 0.00408472)
(0.568596 0.00550639 0.00581419)
(0.565431 8.61585e-05 0.000134133)
(0.19936 0.198896 0.000184156)
(0.560189 0.00273324 -0.00476246)
(0.199859 -0.198719 0.000622534)
(0.200043 0.200033 -0.000190646)
(0.198787 0.197435 -0.000117296)
(0.200564 0.199345 1.37564e-05)
(0.526289 -0.00044829 0.00127365)
(0.238846 0.205816 0.00878296)
(0.452531 -0.0289493 0.0296821)
(0.198512 -0.198732 -5.3703e-05)
(0.199421 0.202052 -0.000408163)
(0.576582 0.00655317 0.00367703)
(0.579644 0.000359832 -0.00237795)
(0.199979 -0.199981 6.18524e-06)
(0.581527 -0.00157024 -2.38777e-05)
(0.200016 -0.199817 0.000662488)
(0.200253 -0.200102 -4.25263e-05)
(0.196496 -0.196614 0.00060137)
(0.590802 -0.0032452 -0.000262371)
(0.502234 0.00237082 0.000310177)
(0.238101 0.212647 0.00360447)
(0.199643 -0.197802 0.000816795)
(0.199758 0.200451 -0.000299527)
(0.19962 0.199774 1.97675e-05)
(0.596184 0.000253604 -0.00652452)
(0.566213 8.94331e-05 0.000145914)
(0.238341 0.22403 0.0103347)
(0.586997 0.000589061 -0.00287334)
(0.549745 -0.00939698 -0.0224521)
(0.199669 0.199819 -7.20208e-05)
(0.585445 0.000310943 -0.00264518)
(0.534817 -0.000387028 0.00316906)
(0.560184 0.00192352 -0.00322897)
(0.200626 0.200555 -1.78449e-06)
(0.199339 0.19927 9.80254e-05)
(0.562875 0.000777354 0.00123142)
(0.565387 -1.41803e-05 0.000114498)
(0.237808 0.215404 0.00347555)
(0.199141 0.199062 6.28054e-05)
(0.201996 0.195461 -0.000673782)
(0.566555 -3.83026e-05 2.54665e-05)
(0.199896 -0.199858 -0.000281957)
(0.199024 -0.198302 0.00016937)
(0.198705 0.198598 3.07906e-05)
(0.584673 0.000875662 -0.00243458)
(0.561527 0.00146063 -0.00103739)
(0.200525 0.200547 2.0897e-05)
(0.223906 0.035811 0.0420931)
(0.249571 -0.0329615 -0.00927695)
(0.559837 0.00227398 0.000548522)
(0.19971 0.199998 -7.95566e-05)
(0.200083 0.199727 -0.000164567)
(0.588309 -0.00545775 -0.00080789)
(0.563936 0.00978747 0.0090455)
(0.241002 0.215052 0.0111252)
(0.352855 0.111356 0.00715978)
(0.555366 0.0102752 0.0159455)
(0.529755 0.00165877 -0.00298342)
(0.567309 0.000243193 -0.000151433)
(0.206651 0.193715 -0.000380874)
(0.564018 -0.000993786 -0.000751977)
(0.585869 -0.00271327 0.00380095)
(0.200372 0.199754 -0.000232759)
(0.198288 -0.194939 0.000286155)
(0.198557 0.198662 3.87634e-05)
(0.199247 0.199201 -5.11173e-05)
(0.200133 0.200525 -0.000279091)
(0.200577 0.200647 -2.63589e-05)
(0.586596 0.00129525 -0.00235153)
(0.200107 -0.200014 0.000105552)
(0.199006 0.199021 2.76125e-05)
(0.19893 0.196345 -0.000268406)
(0.587246 0.00108708 -0.00285788)
(0.565912 -0.000143374 0.000186872)
(0.200809 -0.198163 -6.5696e-05)
(0.197375 -0.195265 0.000419645)
(0.593595 -0.00137356 0.00510359)
(0.566352 7.62292e-05 2.93609e-05)
(0.566371 3.13049e-05 5.16368e-05)
(0.1999 -0.199431 -9.17129e-05)
(0.198987 0.198954 0.000115308)
(0.56641 6.67095e-05 4.82294e-05)
(0.200306 -0.200128 1.96695e-05)
(0.561325 -0.000153775 0.000980138)
(0.563138 -7.63335e-05 0.000189606)
(0.563896 -0.000284299 1.28e-05)
(0.199944 -0.19852 0.00049083)
(0.200283 -0.200385 3.15552e-05)
(0.200201 -0.200382 -3.49111e-05)
(0.200241 0.20028 6.45839e-05)
(0.565571 -0.00265427 -0.00181785)
(0.199928 0.20013 7.27893e-05)
(0.198418 0.198646 6.51543e-05)
(0.576691 0.00257092 -0.00341978)
(0.200274 -0.200364 7.93345e-05)
(0.566409 -0.000128046 -6.72106e-06)
(0.514435 -0.00533991 0.00126688)
(0.201039 0.193932 0.00121394)
(0.565254 -5.74064e-05 6.90088e-05)
(0.270882 0.0383684 -0.00548829)
(0.566403 -0.000103401 -5.79014e-05)
(0.589309 0.000157306 0.00146615)
(0.530574 0.00107143 0.0022535)
(0.591582 0.000984629 0.00428045)
(0.430245 0.0113302 -0.016036)
(0.239073 0.189847 0.00412917)
(0.566511 -7.91806e-05 -3.26258e-05)
(0.594807 0.00319729 -0.000323782)
(0.566747 -0.00022537 -0.00058735)
(0.20482 0.177488 -0.00646151)
(0.268516 0.0178971 -0.00811162)
(0.309665 -0.029814 0.0117659)
(0.566706 0.000259052 -0.000247578)
(0.198845 0.199184 0.000254215)
(0.558417 -0.000314093 -0.00322678)
(0.570085 0.000898404 -0.00098805)
(0.552331 -0.00374125 -0.00772487)
(0.214354 -0.156632 -0.0117963)
(0.200339 -0.200471 8.27979e-05)
(0.2 -0.200002 -4.922e-06)
(0.564477 -0.000183418 -2.86621e-05)
(0.234547 0.193532 -0.00220777)
(0.567383 0.00126192 -0.00145362)
(0.217392 0.197364 0.00299343)
(0.561887 -0.000992446 -0.000974112)
(0.566766 -1.99694e-05 -0.000234071)
(0.566579 3.50309e-05 4.25873e-05)
(0.565893 -4.94668e-05 0.000111113)
(0.199023 0.19901 -4.87923e-05)
(0.198032 0.197428 -0.000467066)
(0.213967 -0.195166 0.000690323)
(0.565395 -3.38392e-05 -2.41924e-05)
(0.200387 0.199799 -1.3701e-05)
(0.23195 0.198744 -0.00878053)
(0.59402 0.0112861 -0.00975153)
(0.200118 0.199809 -0.000160045)
(0.198785 0.199721 0.000701747)
(0.198471 -0.197815 -0.000318864)
(0.200417 0.200475 4.77971e-05)
(0.566455 -3.4458e-05 0.000128366)
(0.203873 0.193396 0.000402443)
(0.200131 0.199973 8.60537e-05)
(0.46414 0.0618498 -0.0460795)
(0.235146 0.189049 -0.00217123)
(0.197836 0.19823 -0.0018698)
(0.284269 -0.172239 0.0113736)
(0.199861 0.199635 -0.000260002)
(0.463092 0.0022197 -0.00180422)
(0.566496 -3.30962e-05 0.000123141)
(0.198491 -0.19854 9.62675e-06)
(0.560216 0.00433293 -0.00559837)
(0.553074 0.0888087 -0.00793843)
(0.547856 -0.00431247 -0.00765451)
(0.605865 0.0228978 0.000571354)
(0.565746 8.16673e-06 0.00029283)
(0.19991 0.198204 0.000832632)
(0.565618 -0.00369129 -0.00439139)
(0.592425 -0.000271829 0.00117813)
(0.547489 -0.00442942 -0.00765694)
(0.199999 -0.200214 1.07103e-05)
(0.598006 0.152749 0.0385824)
(0.566482 3.18024e-05 -4.21177e-05)
(0.267781 0.213655 -0.0128913)
(0.566086 -8.99651e-05 -0.000222333)
(0.598145 0.00644651 -0.00496248)
(0.572393 0.0113342 0.000346398)
(0.565865 0.000136254 -3.84724e-05)
(0.566444 0.00101498 -0.000799055)
(0.602615 0.0084414 -0.00275851)
(0.56425 0.000317932 -0.000688756)
(0.562695 -0.000256272 0.000379943)
(0.198235 0.198998 0.000710295)
(0.198921 0.197785 0.000616767)
(0.566283 0.000638683 -0.000941331)
(0.56634 8.9122e-06 -0.000376845)
(0.199533 0.20008 -1.65801e-06)
(0.567041 0.000323901 -0.000232513)
(0.58464 9.82509e-05 0.000765744)
(0.561925 -0.000200964 -0.000205067)
(0.199427 0.197332 -9.36265e-05)
(0.570192 0.0107642 0.00226583)
(0.199232 0.199081 -8.04896e-06)
(0.563658 -0.000383484 0.000345172)
(0.561654 0.000490756 -4.83962e-05)
(0.199897 0.199795 -3.01596e-05)
(0.55867 0.00180654 -0.00478652)
(0.561304 -0.00013504 -0.000150893)
(0.568048 0.0102841 0.000483623)
(0.565371 -0.00139343 0.00044719)
(0.20434 0.20043 -0.000313094)
(0.566821 7.55584e-05 -0.000189017)
(0.570033 0.0126846 -0.000130602)
(0.602467 -0.0164066 0.00297801)
(0.508234 0.00677634 0.000551904)
(0.454348 0.00128999 -0.00554486)
(0.199833 0.197661 -0.000274571)
(0.199467 0.199303 6.70013e-05)
(0.562324 0.00658411 0.00105275)
(0.200426 0.200425 -8.27288e-05)
(0.516633 0.000443421 -0.00466874)
(0.56055 -0.0015995 -0.00281705)
(0.3401 0.0440743 -0.0133385)
(0.625533 -0.0424749 0.016226)
(0.552638 -0.0252113 0.00739904)
(0.614625 -0.023921 0.00539871)
(0.200348 0.200367 -5.24019e-05)
(0.27382 0.232488 0.00149667)
(0.565804 6.34199e-05 -0.000225283)
(0.199285 -0.200195 -0.000805124)
(0.114105 -0.0810483 0.0319102)
(0.573063 -0.00927629 -0.00701418)
(0.198621 0.198165 -0.000443876)
(0.200464 0.200221 1.83281e-05)
(0.517207 -0.0101684 -0.000532541)
(0.418792 -0.0299647 0.000529237)
(0.200466 0.200499 -1.87811e-05)
(0.518797 -0.010255 0.00184999)
(0.198522 0.198274 7.85225e-06)
(0.20003 0.200393 -0.00033362)
(0.200059 -0.200037 -5.12195e-05)
(0.200137 -0.199663 0.000477084)
(0.195989 -0.194313 0.000630793)
(0.199487 -0.199076 -4.41309e-06)
(0.522285 0.00475636 -0.000690537)
(0.197561 0.19604 -0.000136206)
(0.199999 0.200131 8.12296e-05)