/*--------------------------------*- C++ -*----------------------------------*\
  =========                 |
  \\      /  F ield         | OpenFOAM: The Open Source CFD Toolbox
   \\    /   O peration     | Website:  https://openfoam.org
    \\  /    A nd           | Version:  10
     \\/     M anipulation  |
\*---------------------------------------------------------------------------*/
FoamFile
{
    format      ascii;
    class       volScalarField;
    location    "6.2";
    object      p;
}
// * * * * * * * * * * * * * * * * * * * * * * * * * * * * * * * * * * * * * //

dimensions      [0 2 -2 0 0 0 0];

internalField   nonuniform List<scalar> 
111485
(
31.6689
0.692214
0.802963
31.6532
0.809182
30.8202
0.691579
0.64149
0.692527
0.945707
0.680432
0.843912
0.709625
0.606599
0.706896
0.762724
0.304662
35.1456
0.714172
31.6468
31.645
30.8543
0.690819
0.771178
0.78123
31.508
0.938759
0.534197
0.791504
31.6852
0.931866
0.216046
31.6695
30.9025
34.3576
30.8003
1.02839
0.254487
1.10931
0.750385
31.1088
0.935954
0.755801
0.985389
0.392703
31.7787
0.965258
0.751168
0.946632
31.7678
31.7582
29.8028
31.7912
0.963001
31.8127
0.49427
0.709665
30.9829
0.689814
0.739975
0.746344
31.6714
0.606099
0.944686
30.9451
0.549043
21.0255
0.661639
0.522309
0.618227
0.804368
0.530885
31.0146
0.542275
31.7296
0.368982
30.8685
0.904399
30.8475
32.4634
0.854674
0.936421
30.8838
31.7082
0.600647
0.735577
8.28724
0.94628
0.90192
0.315551
0.584105
0.746242
0.616779
0.254439
0.927672
31.7073
31.6706
0.994433
-1.48071
1.43472
31.6626
0.939591
30.8921
0.868313
0.652065
31.9139
30.9403
0.253566
0.752936
0.0816383
0.191833
0.585042
0.767962
0.867595
31.5003
0.369477
31.5662
30.9549
0.544136
31.652
31.5069
27.111
30.8876
30.9852
0.980263
35.7408
26.9621
0.271778
31.7237
2.98286
0.860713
0.991677
31.7321
26.5275
27.6325
0.685671
30.8732
0.387771
0.617106
0.688933
0.819498
0.636776
0.64826
0.802065
0.932517
0.154828
30.872
31.7007
30.9809
0.658117
0.790472
31.6337
0.995479
0.0386729
-1.08381
0.673844
0.661701
0.665388
-0.54093
31.7528
31.6539
0.665317
0.748457
-0.390342
-0.840786
0.303021
0.960815
31.0821
-0.246396
-0.107976
30.9606
31.6963
0.807878
30.9103
0.140558
0.0721968
30.9963
30.929
31.5743
31.5404
30.8233
31.651
0.678854
0.685594
0.679649
0.257769
0.92568
0.437817
1.05431
31.6614
0.344348
30.9162
31.6301
0.47644
0.918104
1.0106
0.571792
0.0973747
31.7335
0.703775
0.821943
21.8492
0.988733
0.287529
31.7046
0.463267
0.872697
30.9062
0.988085
0.965213
0.775114
0.404953
30.7924
31.6764
0.432434
20.5722
0.993198
30.9065
0.451688
0.399703
0.958628
31.7254
0.442798
0.936269
24.5248
30.9094
30.9629
0.911505
-0.804446
31.2096
29.3506
0.41578
0.168035
0.144514
31.1973
31.3363
0.963391
31.7249
0.648767
0.388175
0.404667
0.35474
0.397344
30.9697
0.90295
0.271701
30.9885
30.8817
0.926859
0.579282
31.4178
0.264377
0.324613
31.7002
25.9273
0.967324
31.6588
32.1551
28.9522
31.6287
0.371238
0.334896
-0.00529519
31.7426
0.332141
31.6553
31.6642
31.7381
0.946549
0.889517
0.602665
0.511917
0.860955
0.569867
0.563278
0.981786
0.139523
0.1959
30.6347
31.6955
0.97882
0.221907
0.585272
0.185574
31.6535
0.60447
0.678306
0.583767
0.938444
0.889642
0.587089
0.50153
0.969157
30.9709
0.857574
30.9124
35.038
32.4154
0.873682
0.845804
0.705742
31.5935
31.2123
0.484068
0.212375
31.6308
31.6715
31.827
0.354396
0.215483
0.687803
0.705118
0.719666
29.2816
30.9588
31.7131
0.490327
13.803
0.655974
0.887166
0.895087
30.8846
31.6659
31.6722
27.61
0.504367
0.810659
30.9412
0.504846
31.4063
31.5666
1.02415
0.507432
0.863041
0.508013
32.1972
27.4743
30.939
0.49871
0.0895805
0.951656
30.9464
3.32565
0.694714
0.830548
0.491056
6.36334
0.719077
30.8591
0.713504
0.522272
0.905959
0.997087
0.79157
30.9194
31.7185
30.9442
31.6641
0.673862
0.457987
0.806752
0.750852
30.9806
0.841413
30.9487
31.6994
0.731749
32.6112
28.0964
31.8942
30.7885
0.679183
30.9792
0.0736253
0.852757
30.8493
0.577447
0.541462
31.6896
0.5051
0.85307
0.572474
1.00651
0.184651
0.177392
32.2286
31.7036
1.02037
31.0385
0.864535
0.987658
30.9869
30.9693
0.495306
0.796848
0.0747436
0.887408
30.8697
0.934393
0.826505
30.807
0.976249
0.780594
31.6712
31.6479
0.0974386
0.785527
30.8908
31.5764
23.8164
31.6599
0.816908
30.9076
31.6608
0.829151
0.885292
0.975783
0.827088
30.8292
27.6795
1.06884
28.0502
0.986226
1.10584
0.962388
21.6925
28.3187
-1.71261
0.185312
31.6734
0.958092
0.852928
31.7191
-0.461262
0.955254
28.2014
0.865394
0.826006
0.190328
30.8415
1.05633
0.873912
0.222314
0.843163
26.8825
-0.948654
31.7032
1.08138
-0.60497
30.9614
0.832438
1.02156
26.1797
31.7374
30.0285
31.6397
0.805789
0.33688
0.863605
0.888975
0.977667
30.9134
0.726145
31.7167
0.851912
30.7644
31.7059
31.7531
0.854316
31.708
31.6744
33.549
31.667
30.9982
0.989379
30.9771
30.0024
30.9303
31.6294
30.7979
31.7385
30.8607
0.856946
30.9248
0.981642
0.862721
1.10154
30.8395
0.998485
30.9591
31.6677
0.87452
0.924155
1.00401
0.858642
29.6517
0.948793
0.941482
0.163215
0.0389141
0.883362
31.6982
0.0624349
26.2302
1.06761
30.9148
0.98813
27.0892
0.191745
0.893165
33.194
31.1826
-0.0189668
31.6298
0.939303
0.910669
30.9924
31.0047
31.9512
30.9531
-2.37377
0.93112
30.7787
30.9939
0.798422
30.8549
0.917727
30.8633
0.97441
31.6704
0.998264
1.00591
0.62377
0.178648
30.7245
-0.449645
30.7867
30.9158
0.850103
30.9204
0.955073
31.9769
1.00522
31.6883
0.987749
31.6419
28.2437
1.00479
0.790443
0.906482
0.932929
0.851104
0.819009
30.9764
0.878733
0.869178
30.8983
1.09337
0.975241
0.949558
31.0505
32.2965
0.883545
0.854002
15.6254
30.9906
0.832492
0.833287
0.927995
0.918572
0.69748
11.1955
27.8861
-1.33294
13.4837
31.6579
1.00423
31.0368
28.3609
0.355796
10.9757
-1.39737
6.84783
27.8737
0.876081
0.818695
30.8692
30.0874
0.828721
31.6411
30.8523
30.8617
30.829
0.924646
30.9429
31.552
0.96074
0.387823
24.4135
0.659973
29.594
0.372479
31.7853
30.9724
0.907696
30.9091
30.8396
28.233
0.198781
19.3564
0.854848
0.287317
31.6688
0.537107
0.703003
0.803712
1.1552
2.43053
0.778164
30.9219
0.920123
0.816187
31.7331
0.525244
0.963516
0.85052
0.163651
0.831373
0.836924
31.7598
0.957097
0.993735
28.1406
0.832898
1.03002
20.1198
0.271654
0.851097
1.00228
0.889545
0.903513
0.186983
31.3401
0.886744
0.953952
32.952
0.901787
0.851366
0.338546
30.9262
0.201918
31.7953
30.8776
30.9668
30.8241
0.846515
28.5843
-2.65193
31.6639
30.5836
0.944224
0.908967
31.6251
0.933185
31.6641
31.7198
31.7965
0.897125
0.998165
28.3477
31.5318
30.9177
30.9276
0.977193
0.282519
27.6497
0.902678
-0.15407
30.98
0.930356
0.977519
0.409916
30.843
30.9055
0.606183
0.338731
28.0959
30.9601
30.7493
0.408744
31.7102
31.6065
30.9097
0.897323
0.782825
30.8539
33.9573
32.9305
0.648824
30.9845
30.8211
0.948363
0.951163
28.0284
24.3172
5.74916
0.984301
0.01924
30.6872
0.702195
1.04259
30.9691
31.7842
30.8722
30.911
30.9552
30.8569
0.95552
31.6655
30.8758
31.0239
0.937605
0.340303
31.621
31.8385
0.928105
0.31546
0.356433
31.6078
30.8813
0.325678
31.7036
0.87408
0.273801
0.392841
31.5276
31.6637
31.663
30.9295
0.883056
30.8843
30.8547
1.00164
31.6613
0.48386
1.08309
30.8742
0.374691
31.5538
0.45271
0.937055
0.881619
0.958784
-3.38183
29.2905
0.440289
0.962627
0.0157433
31.43
-6.5841
28.8651
0.14743
30.9418
0.956602
0.981388
0.940718
32.376
31.6669
31.7379
0.314409
29.585
0.0501176
30.1226
0.769281
0.185996
0.175009
0.3311
30.8625
30.89
31.0962
0.320194
30.8261
29.2794
0.776126
30.9752
30.9999
31.6685
30.8767
0.188027
30.7237
30.9083
-4.43092
29.5162
31.0515
28.4764
30.9034
0.924868
0.193969
31.6371
0.820932
5.37743
0.931308
-0.0161744
0.288513
30.9645
0.898392
1.09857
0.93139
31.7078
-8.50223
0.167257
26.369
0.131433
0.870986
0.974323
0.581351
0.208509
0.803076
0.166783
0.220583
30.855
30.8634
0.137196
0.08761
30.9735
0.15104
0.874794
0.210365
30.7924
0.896044
30.9285
0.197998
0.175471
30.8383
-0.212818
0.232196
0.756209
-0.0331634
30.627
0.688294
0.778946
1.11187
0.751862
0.991645
30.8819
30.968
1.04618
30.8748
0.958332
0.875966
27.2713
-0.445715
-1.79008
0.233335
30.877
26.0392
0.405152
31.7206
37.6749
0.976974
30.792
30.8263
-1.39644
-1.94109
30.8755
0.902017
30.9113
30.9106
31.73
31.6684
31.9141
31.7003
1.06516
30.821
30.962
30.994
-4.17076
1.21388
0.74463
0.39132
30.8987
30.8124
1.01366
30.8957
30.8384
23.8414
0.983768
0.484151
30.8446
30.8066
30.8551
30.8212
30.7411
30.8114
0.919831
30.8341
0.588352
0.742808
30.9257
31.7079
31.8244
0.884052
31.7913
31.6564
30.988
0.549012
30.928
0.943147
0.978465
0.657699
30.8466
21.6751
1.04215
0.698259
30.7708
0.614696
0.937627
31.6488
30.6893
27.8325
30.8103
0.400899
0.658907
0.980839
0.0525116
30.8431
0.395119
30.5635
27.7551
27.6679
30.9632
0.643523
30.9056
31.8649
1.02572
0.465647
31.8537
0.96581
29.6259
0.905384
32.1622
30.915
30.8344
31.6603
0.246817
0.681481
2.90592
30.8499
30.9846
0.20632
30.8759
28.6752
31.6722
0.872985
0.00816608
0.934963
31.5763
1.00297
1.04388
33.1691
1.04927
30.8397
0.958642
0.912831
0.594886
0.946128
0.61417
30.8848
30.9125
30.9109
0.997428
31.2424
0.870693
31.7356
4.15271
31.6089
0.739411
0.76271
31.8706
30.8714
31.9342
31.0074
0.851529
31.9634
27.8556
0.182328
0.874109
31.9094
28.5475
31.0956
28.6284
30.8144
30.8885
0.902922
1.05158
31.6521
31.5782
-1.01678
31.6972
0.899218
0.247304
31.1069
1.0051
31.6617
0.127199
30.8343
0.796615
30.834
-0.78521
0.191177
0.773278
0.983443
0.972587
19.5012
30.5148
1.02031
31.7676
0.632255
31.6191
31.0479
30.618
30.9777
31.0764
30.9714
0.925962
0.878672
31.6629
26.8823
31.6387
0.946699
0.887982
31.6696
0.648624
0.779013
31.8244
0.292556
0.218702
0.610921
0.776451
30.875
30.8952
31.0313
30.8647
0.622192
30.673
1.02783
30.8928
1.00719
0.811436
30.9437
0.97093
30.9211
30.8713
0.992631
0.91305
9.61662
30.895
31.9111
30.7951
0.637186
30.3552
31.918
30.4379
4.83612
27.3619
-0.57998
28.5212
30.3007
31.1846
0.231349
0.160577
0.883244
0.68645
31.6679
1.01195
30.9213
30.9669
0.193635
30.7155
-1.00205
1.00211
0.238533
1.00678
-2.31055
0.812482
30.9536
-4.13437
-9.86091
0.96882
1.06421
0.49844
22.8046
31.6539
0.815639
31.6335
30.8254
0.497033
0.92574
-2.78969
30.8559
30.2629
0.980035
31.8225
30.8112
0.984957
31.896
31.8542
0.874576
0.995184
0.865331
0.672218
0.345441
30.8305
30.8822
0.344205
0.579828
30.8605
31.8742
0.976821
30.8539
26.7164
27.4879
27.6402
18.292
26.8373
30.8662
0.874565
30.7756
0.918526
30.8405
14.7289
31.0158
30.894
30.9573
30.8772
0.857847
30.8778
30.8752
28.0993
30.8127
30.9559
30.9002
0.544083
30.9441
0.492233
0.910339
30.9044
0.991277
30.8518
0.930608
0.6538
0.180735
0.203765
31.5061
0.205339
0.846121
0.765455
31.7254
0.848038
0.459193
0.158177
29.683
0.138934
31.067
30.9488
30.8469
30.8538
0.1537
30.9114
30.7942
0.137511
0.753888
0.068599
31.0014
22.3802
0.928088
30.9479
0.0302819
31.8125
0.155547
30.7886
30.8059
0.817949
30.8226
1.16853
31.6862
30.8401
0.461383
0.879663
0.355898
0.66163
0.852439
0.530513
30.8417
32.3154
0.748392
0.36609
0.563234
0.882303
30.8761
0.494579
30.8681
31.335
0.737183
0.993473
30.8588
0.35459
30.9026
0.358708
0.337523
30.9664
30.8553
30.9296
0.755887
30.9085
30.9096
0.760586
0.360171
1.03731
0.152814
30.9171
30.9818
0.997004
0.812771
30.8604
0.741395
31.1283
0.730415
30.854
30.8465
0.661129
30.8755
0.932784
0.754032
30.8397
30.8553
0.663595
26.3625
0.881411
31.6678
0.983809
31.7132
26.9834
26.1204
0.757178
28.2778
27.9764
0.642908
27.8295
17.7177
25.8623
31.0278
31.6356
0.648831
0.855
31.0596
30.9108
0.751277
0.818776
30.8551
0.762436
30.8573
31.6537
0.91878
0.882348
0.473786
30.8474
30.9229
30.9101
30.8748
30.7928
30.8049
30.8938
30.7996
30.8199
30.8489
30.9077
31.642
30.8967
30.8416
30.8299
31.4338
30.8424
30.8572
30.8819
30.9957
31.5104
0.877849
30.9021
30.844
30.9946
0.63607
30.9909
31.6533
12.7532
30.7494
30.3961
0.612266
33.1522
30.5929
14.789
0.597062
30.8914
27.3316
29.2578
30.8264
0.990475
0.594214
0.601938
0.521423
0.429425
31.7328
30.8055
0.473531
0.509923
0.530477
30.857
0.56083
1.00768
0.611484
0.160021
0.189674
0.527971
0.263277
0.587368
31.7639
0.678056
0.600558
0.794739
0.565039
30.9249
30.909
30.9403
31.662
30.9142
0.507372
0.574109
30.9331
30.822
30.8161
31.5582
30.8371
31.6336
30.8211
31.6432
0.556408
0.849339
0.578606
0.946785
30.7085
30.8311
0.966068
0.39722
30.8542
30.8755
0.799948
31.7719
30.9007
0.674771
0.515619
0.547702
0.892867
0.979193
31.7236
0.0746858
0.660114
27.8666
31.6335
0.614697
31.7052
30.8523
10.6093
6.31213
0.860137
31.3569
31.6302
1.06737
0.669321
0.130234
0.509354
14.4303
31.6605
1.09172
32.9675
31.7298
30.5663
0.788212
30.8331
0.513529
0.0586758
0.604129
0.649123
31.7174
0.479139
31.7147
30.1702
31.7006
31.5843
0.22052
18.6718
30.878
31.6498
33.4607
0.520216
27.6929
0.441687
0.498224
0.201522
0.506477
31.5812
31.5694
26.9906
0.804205
0.428031
-2.15712
31.7846
31.6675
27.5444
1.02175
0.738184
30.8706
0.25155
10.9995
0.662253
0.39385
31.6523
26.848
0.38842
0.507886
30.9173
0.978167
0.945167
0.808445
0.368601
0.407088
0.483982
27.8782
0.256746
0.424339
0.396884
32.0861
0.625871
28.2057
0.839054
0.435674
31.7372
0.168155
0.408349
0.40563
0.564812
35.0456
9.45207
1.01772
17.8587
0.418375
30.7073
0.183389
0.436457
31.6395
30.8827
-0.0245414
0.891844
0.619408
34.9238
0.866847
0.58121
-2.97852
0.872288
31.6301
31.7987
0.499053
33.3988
0.492368
0.51884
0.478217
0.226811
31.6418
0.998876
0.49691
31.6133
28.0947
0.37441
31.7499
0.362641
0.365504
31.6755
35.1037
0.679709
31.6267
30.8449
30.9747
0.212059
1.49619
0.808017
31.9298
0.783564
0.294213
31.0071
0.283682
0.255285
0.201532
0.808735
30.8638
0.445456
0.279859
0.288456
0.257354
0.212624
0.720416
0.779925
31.6669
-0.151586
0.206328
31.656
0.278981
30.9786
30.9044
31.718
31.0062
31.6572
1.08789
30.9446
0.274741
0.827342
31.7322
0.932303
31.5035
0.191284
31.6396
0.668769
30.7585
0.754412
1.14897
0.658997
0.373729
0.208562
0.79966
0.219155
0.391432
12.0058
0.337873
0.494989
0.387641
31.7228
0.578668
0.866657
0.350287
0.714644
0.710044
31.7249
27.5277
31.6288
0.809491
31.6412
25.0609
0.20914
33.5881
0.988792
31.5832
31.5909
30.8766
0.55989
0.969214
0.336015
1.00437
0.207887
0.460418
0.502586
0.529096
0.206871
0.491709
0.465924
31.7983
30.7634
31.7064
0.6565
0.550599
30.9341
30.8756
25.5449
0.559548
0.22048
31.6389
0.466908
31.6688
-0.213528
0.82319
0.974438
31.6591
31.6692
0.505952
31.6616
0.959138
0.31647
30.1583
0.612078
0.721715
0.183469
31.6044
0.826207
28.3413
0.860919
0.799332
31.6653
31.7579
0.29501
22.7567
31.8141
0.39267
0.213154
31.6693
31.5429
28.1579
0.429948
25.5091
0.636487
0.959497
0.94942
31.6684
28.3622
0.944831
31.6661
30.9294
31.6941
31.6551
28.7598
31.0078
30.4147
31.6183
31.6378
29.5677
33.5979
30.6863
0.992174
30.7203
27.3122
25.8749
35.5562
27.8126
31.6704
0.964591
29.7603
30.9497
0.986345
32.8719
34.2754
31.3771
0.944232
33.4834
0.986718
0.908947
0.982527
29.0524
31.6473
1.01472
-0.198727
31.4525
31.6935
0.654474
28.7405
0.644554
28.4576
30.8417
31.1684
0.651508
0.661667
31.6772
0.856466
31.8651
29.749
0.582674
0.472217
0.975462
30.9502
0.646978
29.1327
0.849958
30.8603
31.6089
30.8425
28.2092
0.442618
0.486838
31.7098
-1.56095
31.6478
31.7037
31.6454
31.6496
0.939786
0.887765
0.468506
1.33724
31.5802
0.793981
0.670194
0.412118
0.915818
31.1458
0.402839
1.03313
0.517512
-0.0836948
0.633878
31.7975
0.667568
0.950373
0.654223
0.982389
0.9217
31.7235
0.965534
31.2163
31.6897
0.575462
31.727
0.833396
31.6787
31.8571
30.5322
31.6362
31.7132
0.87998
31.6265
0.82765
29.1684
30.9416
0.764618
1.00728
0.498556
0.778793
31.7761
4.13233
31.7082
0.885837
31.8614
0.747185
0.923996
0.988949
0.913516
31.9715
31.9985
31.6207
0.430567
30.9813
31.5904
0.423572
30.7656
30.8317
1.05074
31.9715
0.533071
-0.0876657
28.9806
30.1343
29.8988
0.438795
0.689421
31.6447
0.0459823
0.861213
28.3744
0.984084
31.6893
0.415513
0.818553
0.445416
31.6484
0.833083
0.467123
0.990481
0.997301
0.901809
31.664
31.6638
0.931363
31.6044
30.8559
31.6729
0.39144
0.988688
0.52568
0.565405
27.9041
0.790327
0.651356
0.684811
0.526314
0.852124
0.918826
0.896242
30.8763
30.8741
30.8721
0.956741
30.9278
0.790212
21.6856
0.862706
-0.747096
0.380743
0.22713
30.8316
31.6858
0.869489
0.855247
31.7309
30.8626
31.7313
0.411272
0.852853
0.881286
0.926886
0.181109
0.642112
31.6261
31.7081
31.6688
0.240075
0.601775
0.0546858
0.717803
0.48645
0.921017
31.4906
31.6668
25.8686
30.962
0.201584
0.852419
31.643
31.7332
31.7412
31.7313
31.5876
30.9788
0.905372
31.6429
0.951791
0.966784
30.8485
0.913823
0.128242
0.4112
31.866
31.1546
0.905257
31.6612
0.90012
-3.21386
0.440302
30.7833
24.1767
30.8628
31.6471
31.6076
30.5404
9.48784
31.6656
0.974872
0.564229
31.6812
31.6694
0.916274
31.6458
30.9082
0.571692
0.595733
31.575
31.5686
30.8357
0.303173
31.6622
31.6619
5.88267
0.863613
0.922103
31.6392
30.8443
29.0095
0.901469
0.906429
0.900885
0.706346
30.8497
0.347612
0.182002
0.135826
30.7493
31.6968
31.6669
31.5338
31.6626
0.58463
0.60576
0.585481
31.7925
31.6923
31.6598
31.6724
31.0487
1.00789
0.490906
0.0980844
30.8205
31.6589
31.9323
-2.40142
0.918559
0.992891
30.9028
-6.21124
33.0593
31.4781
31.662
0.600975
0.702702
31.6245
31.7286
0.755034
31.6702
0.439366
0.571919
11.8807
31.6086
30.9877
0.474774
0.937817
31.7259
11.1427
0.278801
0.878908
31.6407
31.6374
31.7573
31.7041
0.201551
0.367965
31.6396
0.981401
0.941908
2.21515
31.6466
31.6211
31.6187
31.6401
0.849494
33.5561
31.6491
31.2062
0.265786
0.822817
0.329411
31.4904
31.7075
0.970292
30.6255
31.6697
31.6355
31.6421
0.636202
30.905
30.7894
30.8468
0.308087
0.689611
31.6105
31.7042
31.5443
0.729015
32.6604
31.6257
31.5519
31.7086
31.6983
0.61728
0.86436
31.8941
0.699805
0.832232
0.6057
31.7467
31.7248
31.6681
31.5674
30.8326
0.769077
31.6501
29.7213
29.6963
0.951492
30.7228
0.909607
31.6626
30.9329
1.1164
2.55306
28.5456
0.990536
31.6499
0.974323
32.7294
31.6853
31.8146
36.3138
31.6442
1.01389
31.6028
0.685191
30.942
28.1611
31.7182
31.6039
0.253934
1.05884
30.8688
11.5656
30.9594
0.744841
0.991596
0.966202
30.9794
0.0294125
0.833686
0.967757
0.869984
-0.936082
0.824748
30.6959
30.8416
-1.4
0.408449
0.914068
31.7394
30.3918
26.0074
13.9483
31.7325
30.8326
31.7078
31.7273
31.7427
33.2492
1.05421
0.940388
0.541945
28.0987
0.928264
31.7062
0.783678
31.6684
31.7588
30.9014
30.9602
0.822188
30.8765
30.9488
31.6461
0.698181
31.6407
31.6825
1.01378
31.6004
23.4932
20.3464
19.0677
31.7341
19.9134
19.2875
19.7176
22.396
30.8431
30.8461
0.671661
0.911048
28.252
28.7875
30.8524
0.658204
32.8069
31.1645
0.822629
31.6373
31.6611
0.888302
0.927164
31.5947
30.8268
1.17932
28.3252
30.7694
-0.102007
0.714759
0.853972
31.3535
0.767296
31.7179
0.473367
-0.141122
0.737915
31.6501
-0.124709
0.762942
31.9491
-2.59517
31.577
0.708998
30.2598
0.76355
31.3279
0.960008
31.6162
30.6363
30.9351
-4.32143
-4.29486
31.7612
0.742982
1.18763
31.9129
31.647
0.501819
0.0618199
0.92374
31.7518
0.791376
0.76676
1.03177
-1.86994
31.7423
0.743338
30.8765
0.767452
31.669
-5.26658
-6.30775
31.5356
0.524431
31.0371
1.02346
30.8671
31.539
31.6668
31.7423
31.5398
31.618
0.953993
0.631648
0.744669
31.6472
25.6856
0.782995
31.6481
31.566
31.7345
31.7
31.7362
0.109964
31.65
31.7137
30.84
0.0895005
31.5618
30.8832
30.3035
0.237505
30.8977
0.107573
-1.58277
0.740174
0.220557
0.0287576
32.9217
31.6367
31.6473
0.34822
0.342775
30.5161
25.5494
0.149218
31.6823
31.7211
0.817757
31.5726
0.759578
31.6241
0.0578798
0.979275
31.6505
30.8413
31.6234
31.71
31.6722
1.10446
31.6146
0.157441
31.8728
31.6415
0.313561
30.9126
0.77382
31.207
31.6808
0.927539
0.544677
0.89517
31.7082
31.7101
31.6572
0.568115
0.956566
31.8971
30.8779
30.7044
0.357942
31.5912
0.807838
0.830925
31.6366
31.6087
0.353995
31.6452
30.7046
30.8979
31.9145
30.9158
0.763061
25.2068
30.8977
31.6962
25.845
31.6093
26.6966
31.5017
31.5922
31.213
0.510514
31.4466
0.313185
31.5342
31.5984
1.16437
0.37106
31.5758
31.5873
31.629
0.310501
27.2838
31.6514
31.0448
31.614
0.376426
31.5833
0.680463
31.7331
0.868018
28.0949
0.983979
31.6656
31.6722
0.87046
26.6503
31.64
0.332665
0.858782
31.7945
31.7098
0.905119
0.911282
0.355919
0.306352
0.303762
0.940435
0.377675
0.987218
31.8863
0.639891
25.5562
25.1222
31.6458
31.5902
31.6701
0.363505
31.7293
31.7108
31.7257
0.800818
0.967791
24.374
0.88063
31.7176
0.982802
30.7871
1.02709
0.414843
25.8363
0.928342
31.5755
31.4991
30.8741
0.418714
0.873316
31.6563
30.9074
0.398102
31.7041
0.882475
31.8354
0.989557
31.6663
30.8732
31.6376
30.8683
0.345182
30.8675
2.52876
30.9421
0.911809
31.6407
31.6134
18.1078
16.8685
31.6977
31.6199
31.6674
31.7103
0.899634
0.832757
21.5566
31.7112
0.913079
30.8478
30.9591
-0.252658
0.704622
1.00547
30.8774
0.2608
0.891822
0.553727
0.7616
31.6735
31.7405
31.7571
31.7162
30.8802
30.868
30.8721
31.4828
30.8784
30.8732
31.6619
30.8688
0.899751
30.8691
31.6223
34.5857
31.7104
31.6464
11.8535
30.8507
31.6293
0.710078
0.988917
31.5159
31.6461
31.6614
0.706845
31.0947
31.623
0.919649
30.9059
31.6198
31.6678
31.7021
1.04345
30.8904
0.732404
31.7112
31.6259
31.6297
31.6429
31.617
0.933976
0.805328
0.431592
31.7125
30.8785
31.8532
0.891186
31.613
0.811347
1.04169
30.8893
31.6414
24.3386
-0.193781
31.5371
28.4717
-0.144253
24.6536
0.975358
31.0502
0.991847
24.5219
22.9127
31.6616
0.888918
30.9102
0.851734
0.997762
31.6418
0.898306
0.285339
31.6588
0.956817
30.8411
31.5488
31.5933
31.5303
31.565
30.864
31.6123
31.7173
0.761468
28.8171
31.6502
31.6701
31.6041
31.6144
0.69492
16.9749
0.873249
0.284918
31.6147
0.903657
0.853519
31.6558
28.3925
31.4404
31.5583
31.7053
31.9331
26.2276
29.0347
0.898214
31.6482
31.7427
24.7854
26.8322
30.8815
0.848367
31.619
30.8711
31.7074
0.927485
31.7333
30.8522
0.917746
30.8961
30.8183
31.3434
31.9133
0.929785
31.6448
31.635
31.6244
31.6461
0.954198
0.998241
1.03553
0.864132
1.00107
0.967188
30.9097
26.6601
0.771598
0.97337
26.6176
0.793165
31.6816
-2.75335
30.8854
0.920906
31.6577
30.8362
0.998229
-3.96009
31.6246
0.967133
31.6602
31.6851
0.900226
1.01747
31.7041
30.8634
31.7753
30.875
31.6144
27.6711
31.7105
31.6701
0.953079
31.7104
31.6485
31.6376
1.0271
31.6625
27.8277
30.8873
30.8533
29.5681
28.1016
1.0228
30.8282
28.1407
0.670855
31.6787
0.921352
0.992789
31.6301
0.684032
31.6618
30.1664
31.9292
27.599
30.9451
31.6436
31.7054
31.7372
0.738701
31.7204
31.6883
31.7071
31.2363
31.6457
31.4255
0.870471
31.6623
31.7155
0.960975
31.657
30.8818
30.9716
0.789024
31.6439
0.618719
27.2722
-0.0624778
0.141366
30.8654
26.6366
0.678671
25.5993
30.877
0.61514
-0.0658881
-0.00464908
0.952027
0.407271
-3.10746
31.04
30.8251
0.843222
0.930521
0.946402
0.844503
-0.0731126
30.9245
0.215308
0.789945
0.81413
30.9826
0.833165
0.203019
0.541612
0.800301
0.839585
0.734389
0.331502
0.740296
0.0225396
0.437689
0.810934
27.8767
0.367164
0.0376283
0.868378
0.930305
0.133102
0.812287
0.0859128
28.5096
0.888522
28.31
0.556497
0.858198
0.855394
0.623307
28.26
30.8691
0.788437
0.666526
0.811468
1.01903
0.298761
0.813507
19.9523
0.863858
31.6628
1.41816
0.899854
0.984657
0.568693
0.796345
0.68175
0.933743
0.609542
0.510906
0.532875
0.826032
0.518998
25.0367
22.0621
0.819184
31.6378
31.6626
0.788175
0.87509
0.159212
31.6339
0.914173
1.01002
0.62663
22.8586
31.6571
0.527193
0.0481815
0.870762
31.742
0.329392
31.6773
0.651135
0.919918
0.957908
0.974688
31.6225
31.6734
1.09098
0.848396
0.899145
31.6433
0.688247
0.901955
0.925968
30.9215
0.636414
0.0932499
28.2482
0.540233
-4.2653
0.858881
30.6764
0.974674
1.00536
31.6653
0.992048
0.153069
6.86702
0.92438
1.02487
0.263149
0.953
0.885362
-0.0138153
0.446306
0.813218
0.954577
0.24428
0.791988
0.720114
0.685131
0.967406
0.534885
0.824341
0.75248
0.33817
31.6717
0.990021
0.947715
0.878727
0.376896
1.01115
30.9064
0.976155
0.554648
31.6555
0.898611
-0.00179168
0.970404
0.976297
0.20014
-0.148392
0.909129
0.902164
0.987299
31.6724
31.6616
1.0242
30.9676
1.03777
1.15132
30.944
0.202321
0.986782
0.482474
31.7068
0.565298
0.606409
0.947386
0.791146
0.577304
0.389131
0.678304
1.03338
31.6623
31.5438
0.931361
0.947686
0.960175
0.759233
31.5417
0.967425
0.996343
30.9404
0.635355
0.844426
-0.258895
0.567703
1.00675
0.790955
0.338559
0.784314
30.9922
1.0245
0.529539
0.93958
0.633144
31.5467
1.04795
32.1307
31.6539
0.590968
0.874987
0.629675
1.92832
0.783501
7.0126
30.8948
0.801006
1.03576
0.89481
0.63753
31.6422
30.9788
30.9379
0.636084
0.658806
0.536628
0.550998
30.6585
31.5615
0.597645
0.690058
0.986993
0.661157
0.635649
0.843334
0.948129
18.1387
30.8465
0.916267
0.117554
31.557
0.792389
0.821186
1.13687
0.938222
0.771075
1.05051
31.5594
0.683646
0.751077
30.9582
30.7214
0.172017
0.358934
0.3153
0.182838
0.800648
0.856276
0.303217
0.57603
0.764302
0.15129
31.5425
31.5128
0.0458122
0.215455
0.79344
0.995273
0.773187
0.685639
0.930249
0.657222
0.758442
30.8689
30.9883
0.956678
31.5348
27.6759
0.789628
0.543383
0.705561
0.970018
29.0282
1.00713
1.07353
29.5432
0.991927
0.585355
0.762989
0.780227
0.122528
0.885651
0.76581
0.197011
31.6574
29.3266
0.952678
0.316899
0.576361
0.316224
0.776547
0.940923
0.877643
29.4245
0.837538
0.364565
0.686272
0.905799
0.986226
0.902267
0.600402
0.756543
0.252651
29.0061
1.01872
0.800093
12.201
27.6047
25.504
0.777875
27.0058
0.104335
0.724975
0.641856
0.890969
0.824005
20.8046
13.1466
32.4616
27.2175
1.02162
30.8697
30.8698
-3.3992
31.6488
0.569698
0.665858
0.538359
0.52647
0.545413
0.839247
25.5669
0.299573
0.175319
0.931238
0.785056
0.538512
0.774954
30.8803
0.588901
0.538491
0.585417
30.8724
0.953385
0.747254
30.8706
31.584
0.87814
0.501605
31.8316
0.904803
0.831735
0.863031
31.6989
30.8687
0.158929
0.585122
0.882095
30.8753
30.883
30.8713
0.935946
11.2203
10.3068
0.297068
-0.0465293
31.7589
0.392129
0.0398658
0.73079
0.160037
0.0875357
0.396398
-0.448017
0.194803
31.1603
0.328766
0.327007
0.0676278
0.617697
0.172901
0.251854
0.161331
0.206086
0.146388
0.982867
-0.0299368
0.776076
0.870939
0.816819
-0.305518
0.171894
0.0321081
0.206177
0.200177
0.486072
0.377491
0.976215
0.34728
0.0214912
0.346262
30.2154
0.770204
16.1036
0.601865
0.791044
30.9611
0.950527
30.2168
0.827168
30.3248
31.7031
0.757607
0.92291
27.8081
0.293827
0.687193
0.954415
31.5663
31.7069
1.25701
0.365672
0.767171
0.60602
0.298103
0.920359
1.02989
0.924491
0.95553
26.332
0.773282
30.8823
31.5302
0.523572
0.403045
0.975403
0.506135
0.362267
0.987313
0.970079
31.2446
0.873465
0.338951
0.968281
31.2837
31.7467
0.769086
0.849021
24.9847
1.01029
0.145224
0.888771
-0.445849
0.344472
0.635853
31.5886
18.9789
0.541838
0.976506
31.2269
0.552628
0.987027
0.878629
0.988395
0.490792
0.870001
0.765266
1.06407
20.0897
1.06386
31.6432
0.845601
0.961016
0.334711
0.0834178
26.7678
0.0696619
0.940527
0.935314
0.816571
29.9306
30.8753
0.562726
0.992185
0.958034
0.853496
1.00932
0.396875
0.0555307
0.664369
0.226983
0.132349
0.985385
28.5247
0.816033
0.87515
0.0236696
0.987676
29.2743
30.838
-7.60305
0.892769
32.8332
0.80071
0.964656
29.636
20.7264
22.3116
0.868299
0.510882
2.07274
23.8089
0.86433
0.595439
30.587
0.996977
27.7991
0.876005
0.396231
31.0443
-0.0218132
1.05367
1.03734
0.405095
30.852
0.373141
0.951448
0.943348
1.07443
1.12875
1.10319
1.01388
0.749434
0.98977
0.257125
0.513848
31.6097
26.283
26.5349
31.0129
0.883753
0.585755
0.568883
0.911217
0.331013
0.556868
0.87076
0.957503
0.925443
0.410834
0.996033
0.832478
0.937727
0.347274
31.647
0.983115
0.903278
0.951881
1.03657
30.5602
0.597855
0.622242
0.98791
0.845722
0.716954
30.8736
0.751823
0.703525
27.7352
0.754918
0.911489
30.9997
0.6562
30.9569
30.9637
0.598869
0.798305
0.927475
0.716506
30.8421
0.239508
0.921001
30.9778
0.679225
0.730817
0.637857
0.923589
31.1125
0.921329
0.927497
0.936509
31.0781
0.582749
0.263605
0.911745
0.496926
0.56046
31.8183
30.17
28.6391
0.143206
29.1647
0.56681
0.441753
0.20941
31.6168
0.219969
30.9272
31.6467
31.5085
0.660024
-0.039075
0.59198
0.938421
0.621375
30.2314
27.797
1.01551
0.965231
0.540159
0.688137
0.588584
-0.103841
31.6506
23.4047
23.8807
30.8538
24.1634
0.0914203
31.662
0.609978
0.857572
0.621449
0.136652
0.651894
25.7775
0.398198
0.89915
0.976608
1.03514
25.9406
31.6446
0.947505
0.452517
0.297831
-0.645998
0.888781
0.73244
0.359753
0.625919
0.44146
0.0898778
0.407233
-1.69826
0.394135
0.90694
0.900601
0.3375
0.3778
0.857478
-0.927243
-0.534652
-2.29106
-3.46365
0.32461
0.998998
30.9849
-2.68882
-6.35151
0.228516
0.155524
0.0335784
0.927083
0.801436
-7.07882
0.167644
0.915777
31.7555
0.582714
0.627692
0.729853
31.6427
0.523081
0.342212
0.181619
0.669856
31.7492
31.7689
0.919999
0.246996
0.283136
0.24917
31.462
31.6719
30.9135
0.77544
0.919378
0.220939
31.68
0.518421
31.783
31.8742
0.201776
0.156812
30.8129
0.23714
0.26452
-0.0409969
30.9408
31.7
0.390918
0.907327
31.8154
0.220379
0.348022
-0.0531428
32.0319
32.0562
31.9312
-0.0604397
0.222958
1.03845
0.356934
30.912
0.215376
0.815062
1.02204
0.988272
30.8414
31.6311
0.410184
1.0037
0.980735
0.675677
30.8341
0.63693
30.8857
0.281597
0.899108
0.81689
31.0324
28.7754
0.955641
1.0964
28.2307
28.4016
30.8869
0.695146
30.376
27.0402
0.846369
0.840529
30.8892
27.7964
0.768103
0.381358
0.265264
0.628986
0.561095
28.2582
0.908455
26.0018
25.3676
31.7421
0.64214
0.98565
0.218083
25.5137
33.8658
0.910318
0.900233
0.970247
0.968724
0.790801
0.742353
0.772218
0.447923
25.0529
0.807218
0.569046
0.426309
0.664096
0.909851
18.3779
0.608794
0.610048
0.620962
0.612133
0.282978
24.2807
28.8928
0.699699
29.1184
29.4911
0.818064
29.1792
0.566015
28.5087
28.8528
30.9774
27.7493
0.672005
0.291745
0.62954
28.4504
0.401183
0.634386
0.741071
28.9086
31.6714
0.68334
0.711557
0.756314
0.684212
27.5891
0.0462572
0.285628
0.195504
30.8342
31.1788
0.498422
0.37113
31.2875
29.0162
0.965245
0.0299029
28.3757
1.01517
0.91413
0.953525
0.751516
28.6892
0.788908
5.28817
0.231457
0.388975
1.04614
0.912762
0.96328
0.519905
0.862473
28.0697
0.883197
0.850249
0.709262
0.965508
0.974412
28.8366
0.555172
0.857027
0.527344
0.668604
0.832377
0.735649
0.551525
0.909757
0.968759
1.00869
0.426699
1.00022
1.08852
0.809914
0.978035
31.8089
-0.214612
31.7223
0.805243
0.840767
0.98493
0.95997
1.08774
0.787597
0.808115
0.862359
0.673411
0.317579
30.8083
23.73
0.982092
1.037
0.917535
1.0629
0.882984
0.878362
0.912335
1.25539
24.7444
0.309475
1.33131
-6.05288
25.9057
0.176843
24.0547
0.635021
0.721632
0.113156
0.660489
30.9793
0.8053
0.714223
-1.07183
30.8736
0.821529
0.269743
1.04663
0.831076
0.869388
24.1661
30.8633
0.621465
0.854558
0.560388
0.852835
0.780559
0.815905
0.960743
26.7067
0.284793
25.7468
1.00066