/*--------------------------------*- C++ -*----------------------------------*\
  =========                 |
  \\      /  F ield         | OpenFOAM: The Open Source CFD Toolbox
   \\    /   O peration     | Website:  https://openfoam.org
    \\  /    A nd           | Version:  10
     \\/     M anipulation  |
\*---------------------------------------------------------------------------*/
FoamFile
{
    format      ascii;
    class       volScalarField;
    location    "6.2";
    object      SgRate;
}
// * * * * * * * * * * * * * * * * * * * * * * * * * * * * * * * * * * * * * //

dimensions      [1 -1 -3 -1 0 0 0];

internalField   nonuniform List<scalar> 
111485
(
1.20166e-17
9.77497e-06
2.79452e-05
2.54866e-18
5.84845e-05
2.17649e-18
5.43164e-05
7.20719e-06
2.25299e-05
1.40992e-06
5.4752e-05
1.11987e-05
5.57892e-06
9.90329e-07
7.73838e-06
3.67781e-05
1.65334e-06
0.003082
1.24036e-05
1.8709e-17
1.22403e-17
1.44995e-18
3.08721e-05
4.1696e-05
1.0533e-05
9.98872e-19
4.79232e-05
2.15581e-06
1.87539e-05
2.71399e-19
5.46346e-05
2.23648e-05
1.7935e-17
8.48839e-19
8.63327e-06
5.68724e-17
1.31003e-05
4.9494e-06
5.23473e-11
2.76199e-05
2.1047e-18
8.51752e-05
1.89e-05
1.65716e-06
6.6993e-08
2.39361e-17
3.6665e-05
8.5658e-07
5.68473e-05
3.47281e-18
1.24233e-18
2.23707e-17
1.84557e-18
5.96902e-05
6.504e-18
5.19418e-05
3.87562e-06
7.2941e-18
2.67233e-08
5.70659e-06
1.9234e-05
5.60513e-18
5.47778e-06
0.000115174
8.34789e-18
3.94293e-06
0.000376918
0.000113571
1.26401e-06
6.97429e-06
1.42583e-08
7.46734e-06
1.14402e-17
3.32277e-06
2.88978e-17
8.24729e-07
9.38714e-18
5.00733e-05
2.38013e-18
2.62227e-17
5.55214e-09
4.00302e-05
4.53065e-18
2.42584e-17
1.07359e-05
4.8296e-06
5.13152e-13
2.98303e-05
6.80425e-08
8.62718e-06
3.94873e-07
4.90591e-05
1.36822e-05
7.18989e-08
6.3714e-05
1.28844e-17
2.27691e-18
2.04673e-06
2.73749e-11
1.44472e-06
4.82843e-18
2.20687e-05
8.85789e-19
2.24999e-05
5.59444e-06
1.9539e-18
2.47367e-19
9.0505e-06
4.64715e-06
8.52511e-11
6.77469e-06
5.76248e-06
4.30285e-06
3.6833e-06
5.44257e-18
3.92701e-08
9.21729e-20
5.37296e-17
1.49601e-05
3.09653e-19
5.96398e-18
2.13517e-17
6.67893e-18
4.0963e-18
2.04563e-06
3.41116e-09
3.25746e-18
1.94259e-06
3.24453e-18
5.15668e-08
1.60789e-06
3.80902e-05
3.3468e-17
7.03811e-17
5.95911e-18
5.84813e-05
2.65455e-18
5.04853e-05
2.98529e-05
3.27513e-06
2.7022e-07
2.3972e-06
2.66935e-05
3.33845e-06
4.7176e-06
1.53766e-05
5.43238e-18
3.07944e-18
1.97294e-17
3.31784e-05
1.95332e-06
2.20619e-18
2.4329e-10
5.84752e-06
5.45743e-10
1.27175e-05
1.97562e-05
1.26155e-05
8.69608e-11
4.52138e-18
3.41977e-18
6.27431e-05
2.82568e-05
2.43198e-09
4.15259e-10
6.79984e-06
4.2393e-06
9.47044e-18
5.9776e-09
5.70131e-08
1.44973e-18
2.87923e-19
1.61515e-07
1.10752e-18
6.89517e-06
2.56398e-06
6.97619e-19
8.28851e-18
7.84638e-18
2.48492e-17
2.09978e-18
1.47479e-18
1.72048e-06
8.14537e-06
3.51079e-05
5.01587e-06
8.77637e-06
4.68474e-06
9.73012e-08
8.30845e-20
5.58203e-06
1.1795e-18
2.17589e-18
7.63377e-06
1.26391e-05
3.25275e-05
1.31913e-05
5.8619e-06
9.03517e-18
7.80046e-06
6.21993e-07
5.30539e-08
1.61304e-05
2.78371e-06
3.40836e-17
4.35284e-06
3.13212e-05
6.53388e-18
2.09523e-07
9.15896e-06
2.50291e-06
4.13622e-07
3.85202e-18
1.75051e-18
9.60899e-06
1.0655e-14
0.000145138
7.21215e-18
7.79818e-06
2.40613e-05
0.00014462
1.75503e-17
3.66358e-06
1.64521e-05
2.78931e-16
1.28573e-18
8.70614e-19
0.000184662
3.5563e-10
7.25693e-18
5.26861e-19
1.14615e-05
9.36236e-06
1.81009e-05
7.75662e-18
2.41103e-17
1.51759e-08
4.71675e-18
3.00799e-06
1.08253e-05
1.88887e-05
1.37899e-05
1.17344e-05
5.77829e-19
3.19253e-10
7.35352e-07
8.27705e-18
9.16703e-18
3.65972e-05
2.49359e-05
1.8105e-18
7.41666e-06
1.25508e-05
6.73326e-18
5.27272e-17
1.66484e-07
2.95284e-18
1.48508e-17
5.16172e-08
2.12983e-18
1.81019e-05
1.32062e-05
4.47506e-06
6.09786e-18
1.39097e-05
8.74139e-19
4.45869e-18
5.6596e-18
2.61889e-11
2.74615e-05
7.29146e-06
6.19923e-06
4.39571e-05
1.43966e-05
1.94772e-06
6.81484e-07
3.95237e-05
1.07978e-05
1.19782e-18
4.02325e-18
3.17372e-10
2.68114e-05
2.8925e-05
1.46045e-05
1.84753e-20
8.30296e-06
2.51778e-06
3.5559e-06
4.40706e-09
4.34117e-09
1.5983e-05
2.65554e-06
2.32898e-06
1.07075e-17
8.25046e-07
6.11743e-18
1.38237e-10
2.09764e-16
0.000296123
8.16599e-05
1.46884e-05
1.94744e-18
1.30918e-18
1.06548e-05
2.0114e-06
2.56758e-17
4.5236e-18
1.36148e-19
3.79501e-07
7.08306e-05
4.58848e-06
1.68538e-05
2.29001e-05
4.99879e-18
3.92113e-18
1.05322e-17
4.54551e-06
1.55421e-15
1.19088e-06
0.000223172
4.16149e-10
6.20982e-19
2.17654e-18
7.87014e-19
4.51811e-17
7.10079e-05
1.4441e-05
2.73513e-18
6.15633e-06
3.64232e-17
4.41781e-18
8.21382e-05
6.86454e-06
1.33486e-05
1.10119e-05
7.29807e-17
1.73739e-17
1.4576e-17
1.10798e-05
2.24278e-05
6.04623e-06
7.1237e-19
3.83586e-13
2.02247e-07
2.47907e-06
9.48022e-06
4.6327e-08
3.39851e-05
1.68249e-18
4.48126e-05
4.14371e-06
9.28574e-06
2.95316e-05
1.6438e-05
1.30579e-17
2.41678e-17
8.44002e-18
2.32701e-18
3.78274e-05
1.13487e-05
4.0831e-05
8.0588e-05
1.30758e-19
2.27297e-05
2.00814e-18
6.84205e-18
1.95394e-05
8.2055e-18
8.23815e-05
7.24458e-17
2.64183e-18
2.78612e-05
7.53009e-19
1.64835e-05
3.54647e-07
1.6365e-18
1.23965e-06
1.93435e-05
1.27935e-17
1.0453e-05
1.14693e-05
9.59023e-06
7.31956e-07
3.27794e-06
6.90052e-06
4.48832e-17
2.25573e-17
2.09231e-06
2.79697e-17
7.11417e-06
0.000140255
1.51241e-18
7.86822e-18
3.21312e-05
1.37404e-07
9.71946e-06
2.59784e-05
6.21795e-18
5.29654e-05
2.32196e-05
1.45905e-19
9.63632e-07
3.01686e-06
1.43777e-17
2.35763e-18
1.34163e-05
6.26386e-06
2.62425e-17
1.22465e-18
3.47611e-11
7.86984e-18
1.41675e-05
2.49352e-18
2.45212e-18
2.05861e-05
2.14983e-09
1.4956e-05
3.49611e-05
3.5006e-19
2.53661e-17
1.66315e-06
1.0121e-17
1.69419e-07
1.6124e-05
0.000146884
0.00103083
1.29014e-18
3.26233e-06
5.43093e-07
2.35374e-17
4.59228e-05
3.83767e-05
7.2529e-18
9.35055e-12
1.13537e-07
2.85302e-17
2.90671e-05
2.96118e-05
1.72931e-05
1.02754e-17
7.98734e-07
2.21659e-05
2.75377e-05
9.878e-10
1.91274e-17
7.1324e-13
1.42668e-17
1.64794e-08
3.75241e-05
5.28389e-18
1.04023e-05
1.07782e-07
6.39919e-17
7.88673e-18
4.28134e-18
8.27892e-18
4.80925e-06
1.15794e-05
7.92769e-06
2.59873e-06
3.39706e-06
1.75121e-17
2.44133e-06
1.05239e-17
4.75329e-05
8.53752e-19
3.52689e-18
1.1516e-17
4.26935e-05
1.76674e-17
1.95845e-18
2.42468e-10
8.23227e-19
7.35498e-18
1.21838e-06
8.1783e-18
3.14678e-17
1.1822e-17
4.73883e-18
4.21247e-18
3.65996e-18
2.25403e-19
8.71449e-06
2.33688e-17
5.98355e-07
2.23666e-06
1.2292e-06
1.41947e-19
9.59445e-07
6.41698e-18
1.34767e-18
3.38698e-06
2.20709e-06
3.33134e-05
2.93855e-05
1.21284e-17
2.45035e-06
9.59966e-05
1.02322e-05
1.2445e-06
3.97881e-06
3.09285e-18
2.79244e-05
1.05267e-17
5.79748e-06
7.90819e-18
8.97868e-05
1.1424e-17
2.58183e-05
2.8717e-07
3.45596e-10
1.7921e-17
2.45427e-06
8.04224e-19
9.56709e-05
5.78053e-05
1.75604e-17
4.31455e-18
2.21496e-17
1.9044e-18
1.68437e-12
6.5464e-05
3.58032e-20
2.48355e-18
3.07147e-06
1.01778e-18
3.96683e-05
1.74767e-18
3.86813e-07
7.19976e-18
6.04342e-07
1.22293e-09
1.24606e-06
1.56474e-05
3.66981e-18
4.77691e-07
2.86932e-19
1.88663e-18
1.84004e-05
3.1253e-18
3.79864e-08
7.34788e-18
1.89279e-06
5.23197e-18
7.79658e-05
5.31022e-19
8.67547e-18
2.04202e-05
4.0952e-06
2.05239e-06
4.78281e-06
7.99793e-06
2.49479e-05
1.29716e-18
2.89117e-05
7.57852e-06
3.76532e-18
9.52092e-11
4.65155e-05
1.74873e-05
1.12945e-17
5.06922e-06
7.69473e-06
1.95576e-06
1.33431e-06
2.76466e-13
1.63281e-05
1.39073e-06
1.68997e-07
2.92357e-05
1.6508e-05
8.12873e-07
2.05495e-17
3.85268e-12
0.000774111
1.95533e-17
4.40252e-07
5.85586e-18
2.66829e-17
8.81348e-06
3.55203e-06
2.43874e-10
1.68544e-08
4.14163e-17
2.01676e-05
1.32582e-05
3.51586e-19
1.28899e-13
2.45976e-06
3.81049e-18
3.91727e-18
7.90085e-19
1.79273e-18
1.62973e-05
7.88012e-19
2.63117e-17
1.07628e-05
2.42569e-06
4.40009e-17
1.2512e-05
4.85342e-18
1.01917e-05
8.519e-18
1.55426e-17
6.44514e-05
1.81272e-18
1.38895e-19
1.16669e-17
5.38372e-06
1.64114e-17
3.56904e-05
7.50786e-06
5.4865e-19
0.000101867
2.99458e-06
3.36536e-05
3.301e-05
6.62314e-07
9.70786e-08
1.33942e-18
6.56429e-05
5.4504e-05
7.35831e-17
3.79604e-07
4.78355e-05
8.99159e-06
1.7535e-06
3.27264e-05
3.09632e-05
2.24717e-17
1.28048e-05
6.05054e-09
1.51805e-17
4.08185e-05
3.16608e-07
1.10964e-16
1.31025e-05
4.78576e-05
1.664e-06
2.49795e-05
2.29737e-05
8.43246e-06
1.81579e-17
1.20363e-05
3.95992e-07
1.72937e-14
1.99608e-05
2.06823e-05
4.29109e-05
1.39691e-17
2.29714e-06
2.63333e-17
3.28062e-19
9.34953e-18
4.14235e-18
1.74487e-08
5.06842e-18
2.88699e-13
1.56523e-17
1.24767e-18
8.65166e-08
5.13098e-05
7.45701e-18
3.92751e-05
7.56287e-18
6.23494e-17
1.27646e-18
4.68727e-05
5.05569e-07
2.38066e-17
1.43595e-17
2.8191e-19
1.03963e-18
0.000257621
8.27288e-05
3.41338e-18
2.30606e-06
2.82616e-09
2.45344e-18
4.42225e-05
9.56297e-06
1.47914e-05
3.19467e-19
7.75961e-18
5.01325e-07
1.28979e-06
2.65384e-17
3.78701e-18
3.63797e-18
8.66176e-06
5.84294e-19
5.80011e-18
4.31928e-18
4.93131e-05
2.332e-06
9.17633e-19
0.00473154
0.00034796
1.23398e-05
8.59126e-18
5.58976e-19
6.64191e-05
4.67593e-07
7.90427e-18
8.24515e-09
0.000148434
3.05331e-06
1.36815e-05
1.34319e-17
6.47715e-05
2.1657e-06
4.62888e-18
4.32161e-18
1.05018e-18
4.34138e-18
4.50489e-18
1.02638e-18
2.57722e-05
8.55996e-18
6.21985e-18
1.04477e-17
1.39857e-05
2.79471e-05
5.80603e-18
1.47046e-18
0.000126993
1.69345e-05
1.1318e-05
2.64663e-18
1.22012e-18
4.39078e-05
2.35492e-18
2.18358e-06
3.09301e-06
4.54814e-06
1.60336e-17
8.22923e-19
7.67821e-18
5.95445e-18
1.81103e-05
4.89427e-19
1.06215e-17
1.1664e-06
2.34002e-18
2.70403e-05
2.12297e-06
8.70133e-18
4.42783e-05
0.000486582
2.98664e-06
3.49479e-05
1.81231e-07
5.38939e-05
1.4229e-13
4.51874e-17
2.7774e-05
8.44899e-05
7.31119e-06
1.46144e-17
8.63817e-13
0.000856785
1.20319e-05
7.6531e-19
3.10007e-06
3.19983e-06
1.47648e-06
4.69235e-17
2.4957e-18
5.17541e-18
1.5672e-05
1.34732e-17
3.03902e-06
5.48295e-18
1.53602e-06
1.6424e-06
4.32888e-05
6.74641e-07
1.46054e-18
5.14614e-20
6.69973e-18
2.44934e-05
1.41752e-19
7.86908e-19
7.42567e-08
1.18556e-17
2.58069e-18
1.53654e-18
3.04336e-19
1.16646e-05
5.32748e-18
4.52929e-18
5.92218e-13
2.20789e-17
2.87899e-17
5.09291e-17
1.48795e-17
3.54158e-09
1.9122e-06
6.90649e-19
4.62897e-06
8.65384e-09
3.65468e-10
7.48223e-08
4.95973e-06
5.50177e-18
1.11787e-08
1.16828e-05
4.67387e-07
2.82253e-17
2.78472e-12
9.80369e-07
4.60953e-18
1.14103e-05
2.31461e-07
2.04564e-09
2.85315e-05
1.10039e-05
2.68928e-06
6.13064e-06
2.40297e-06
1.82177e-17
4.56625e-18
3.85711e-05
3.08722e-05
3.89403e-18
9.82015e-06
6.46512e-05
3.38919e-05
2.37107e-18
1.58867e-06
8.99966e-19
1.23506e-05
1.65547e-05
2.95093e-18
1.8436e-06
5.55004e-07
1.48016e-09
5.76557e-06
2.44498e-18
5.81956e-05
1.83624e-08
1.87065e-06
3.95694e-08
1.48503e-08
1.32528e-18
1.05632e-17
8.68348e-06
1.46648e-18
1.37119e-07
3.1658e-07
2.87997e-07
5.88726e-11
8.30751e-11
6.47545e-10
1.30177e-18
3.90256e-18
2.74963e-05
4.91908e-17
2.11207e-07
2.49035e-06
1.22818e-18
3.09444e-18
6.74297e-10
1.05043e-12
1.70725e-18
5.52677e-09
1.74e-18
3.65887e-18
2.46762e-17
3.30828e-18
2.54839e-17
1.73147e-17
3.45678e-07
1.5194e-18
2.96233e-17
5.96585e-17
7.44257e-09
6.48937e-08
2.17116e-06
1.10991e-05
1.03285e-18
9.79489e-19
2.12081e-07
3.13901e-18
2.39735e-18
1.65822e-16
2.2404e-05
5.0477e-05
3.65862e-18
3.18028e-19
4.56549e-18
2.55131e-18
1.38783e-19
3.15038e-19
8.60648e-06
1.02678e-18
5.66296e-11
3.20066e-05
8.63116e-19
1.36461e-17
6.36506e-18
2.98705e-08
9.71317e-18
1.43308e-18
1.08404e-18
1.02584e-08
1.37026e-17
5.39255e-06
1.16919e-09
6.26764e-12
2.00956e-18
8.19774e-08
2.52584e-06
5.29602e-05
1.79847e-17
8.89151e-09
6.91571e-06
2.1258e-18
9.04951e-19
4.69582e-17
1.0082e-18
9.89372e-06
2.07172e-06
4.04827e-06
2.044e-10
1.13471e-20
2.66748e-05
3.23081e-18
1.11455e-17
7.59747e-18
3.16338e-18
3.11888e-05
3.25857e-18
9.602e-18
2.19662e-09
6.0835e-05
8.02495e-18
2.97339e-06
5.75897e-18
1.05582e-06
6.30818e-17
1.92087e-18
2.60041e-17
3.35249e-18
2.98515e-06
7.42123e-07
0.000374413
8.30789e-19
1.34549e-18
2.48579e-06
2.05048e-18
1.31473e-17
5.65005e-18
4.50441e-05
1.01779e-08
3.76438e-05
4.18877e-18
1.15616e-08
5.37911e-08
2.20253e-17
1.34484e-07
1.69067e-19
1.54827e-06
3.07411e-05
2.4256e-05
1.51192e-06
2.95785e-07
4.11663e-19
2.34828e-18
6.32704e-18
2.41597e-08
2.93024e-18
8.40743e-06
1.03053e-17
0.00021135
1.11338e-18
4.94612e-05
3.79086e-06
3.17545e-17
8.70392e-19
2.7879e-17
7.35629e-18
4.70082e-05
1.30935e-17
4.5608e-18
1.44279e-05
7.89253e-06
2.23545e-17
2.54845e-17
4.94512e-17
1.99514e-17
2.11817e-18
1.23604e-19
2.96546e-05
5.12502e-07
6.00219e-18
8.25471e-19
5.62309e-10
7.54625e-18
1.86914e-06
1.31977e-07
2.17105e-18
3.96964e-06
8.29809e-20
4.36801e-07
1.22542e-19
1.25401e-06
2.92898e-18
9.83671e-11
2.50498e-09
7.97161e-07
2.07469e-05
3.91238e-05
1.3878e-09
6.62078e-19
5.75049e-07
1.28877e-18
5.36912e-06
3.60697e-18
4.63321e-18
2.08769e-17
8.55872e-19
1.03006e-17
5.39309e-18
8.24124e-06
9.20802e-06
1.58151e-18
1.00667e-16
4.5199e-18
8.5063e-07
1.65024e-08
3.55262e-18
2.1827e-05
2.23192e-07
4.40273e-18
2.77425e-05
9.79158e-06
4.17313e-06
1.41871e-05
1.23933e-18
8.60537e-19
5.29646e-18
7.27139e-18
4.3899e-05
2.93184e-17
0.000134053
1.19002e-18
3.4861e-07
8.70176e-07
1.27092e-18
1.06499e-06
1.9115e-18
1.97376e-18
3.45894e-06
2.76884e-11
1.03964e-05
2.87952e-18
4.88119e-18
1.84614e-18
9.51956e-07
6.34802e-18
1.33252e-17
6.71904e-18
3.73449e-10
2.4497e-17
9.06733e-09
2.31179e-17
7.11252e-18
3.88591e-18
2.16942e-05
1.17589e-05
2.18229e-05
4.27767e-05
7.20801e-18
1.71556e-08
1.50039e-18
4.90789e-18
1.19913e-05
1.85364e-18
2.73572e-09
3.99782e-07
7.8344e-06
4.01365e-07
1.24973e-12
2.38351e-06
9.20763e-18
1.3022e-12
6.17249e-13
1.40577e-07
1.01002e-06
1.74356e-05
7.90666e-11
3.3744e-17
3.6546e-05
4.92805e-18
3.40452e-18
1.88323e-08
8.9484e-05
7.46195e-11
3.41427e-19
7.161e-18
3.96304e-10
4.96078e-18
3.72966e-18
1.91423e-08
2.16649e-17
5.20557e-18
4.81188e-05
2.44359e-07
1.91059e-07
2.71212e-05
8.67924e-06
6.53702e-19
4.97188e-19
1.67463e-08
4.90071e-06
1.21097e-18
1.37857e-17
1.18988e-05
1.58518e-19
2.96696e-18
1.48583e-17
2.66902e-17
3.12294e-16
0.00308432
3.4846e-18
2.50905e-07
9.19123e-18
2.39497e-05
7.26731e-19
1.75283e-15
9.60773e-18
5.23525e-18
1.40189e-17
4.76259e-18
3.54583e-06
1.33892e-18
7.35844e-18
1.90878e-17
1.71923e-18
1.87923e-17
2.48522e-18
1.16918e-05
1.919e-18
1.32592e-05
3.48115e-06
4.48259e-19
1.93713e-06
1.79753e-18
5.68452e-07
2.2845e-09
4.64229e-06
1.61253e-05
2.42819e-18
1.08748e-07
9.61711e-06
9.72399e-09
1.98546e-17
2.59847e-09
2.20335e-05
5.65406e-06
1.01385e-17
3.12778e-05
8.69313e-18
1.02795e-17
4.83161e-18
1.67253e-18
9.7824e-06
2.03209e-18
2.46183e-19
9.81631e-06
2.71595e-10
3.21137e-06
4.73988e-18
1.036e-16
7.92401e-07
1.57818e-18
9.27671e-08
6.04803e-18
2.74275e-05
3.69764e-19
1.2963e-18
6.64338e-08
1.26586e-19
1.56121e-07
8.31306e-18
1.90136e-18
5.92953e-06
5.0146e-07
5.76671e-06
1.88885e-05
0.000263826
2.41954e-05
1.14468e-18
5.52565e-17
3.37791e-06
8.04155e-06
4.33318e-05
1.34085e-05
6.56964e-18
1.4344e-05
4.83092e-19
1.52376e-19
1.0483e-05
1.28549e-05
5.60969e-19
1.55601e-05
1.27915e-17
3.29373e-06
1.04273e-05
9.96013e-18
3.00212e-18
2.19295e-18
3.2283e-06
1.52299e-17
1.99576e-18
4.82217e-06
2.50541e-05
4.4386e-09
8.9743e-06
1.36783e-18
4.92023e-18
9.3241e-08
8.85912e-07
1.19479e-18
1.21077e-05
2.06677e-17
3.08634e-06
1.16724e-18
1.53546e-18
1.43844e-05
2.27496e-18
4.74541e-08
4.14229e-06
3.60999e-18
2.45202e-18
5.04974e-06
5.96376e-14
6.29052e-05
1.95327e-17
0.000313152
1.89044e-18
9.91301e-17
1.95748e-17
8.6442e-06
2.4671e-17
7.26836e-18
6.50649e-06
1.35001e-17
2.78976e-07
6.01443e-17
3.57537e-18
2.89477e-18
1.37402e-10
9.042e-07
2.84665e-18
4.32785e-18
4.20947e-05
1.09756e-06
2.73447e-19
5.32027e-07
1.37738e-17
3.18953e-18
1.85288e-09
3.26714e-06
1.51278e-06
3.38085e-18
2.09423e-19
1.94766e-18
1.19884e-19
2.43135e-19
1.28288e-18
4.33703e-18
3.51689e-19
1.68011e-18
1.01864e-17
7.17026e-18
9.02855e-19
4.58156e-18
1.26512e-18
6.4805e-19
1.06795e-18
1.51679e-18
1.78065e-18
1.53045e-18
1.13712e-18
1.32597e-17
2.10884e-05
8.18413e-18
3.02438e-18
1.62159e-17
7.69656e-06
2.54118e-17
1.42662e-18
0.00032243
6.20625e-18
1.04476e-18
2.72754e-05
6.56155e-16
3.53756e-19
8.31377e-06
2.87746e-05
8.12821e-19
2.84332e-06
4.36432e-06
3.25631e-18
1.5357e-05
4.66176e-05
2.08659e-05
3.8735e-06
1.26083e-05
1.58142e-17
9.71173e-19
3.46122e-06
1.25247e-05
3.67449e-06
9.5429e-18
7.52586e-06
2.01949e-06
2.47025e-05
1.23376e-05
7.95864e-07
1.80255e-05
1.26545e-06
1.16418e-05
1.68427e-17
3.01169e-05
9.86766e-06
2.00495e-06
1.53798e-06
6.13919e-18
4.9043e-18
4.66144e-18
1.25219e-18
4.90373e-18
1.09762e-05
1.59564e-05
1.7771e-18
2.82702e-19
2.83721e-17
5.72706e-19
1.12208e-18
1.44049e-18
2.85641e-18
1.65969e-18
5.34511e-06
1.90552e-07
2.53609e-05
7.63978e-08
6.55814e-19
4.42725e-17
3.71362e-05
7.04597e-09
1.11268e-18
3.28634e-18
8.5385e-06
1.4981e-17
4.17094e-18
4.61027e-09
9.1996e-06
1.58695e-05
3.88485e-05
3.88557e-05
8.79145e-19
1.67127e-05
3.77977e-07
1.15641e-17
3.37295e-19
1.35715e-05
1.1889e-17
3.59868e-19
2.15954e-05
0.00123169
2.00781e-07
2.46893e-17
5.92297e-18
2.00192e-05
2.4582e-05
2.04693e-05
6.65734e-06
4.35025e-06
1.193e-18
1.20883e-09
3.05062e-12
3.27811e-17
4.45333e-18
2.03356e-05
4.95137e-19
2.34772e-06
2.99611e-05
2.01444e-05
1.365e-05
2.09192e-17
6.93089e-06
9.74362e-18
2.42391e-18
7.40929e-18
5.02944e-19
2.91535e-06
0.00100964
1.6017e-18
8.24222e-18
4.6817e-09
2.73193e-05
1.16674e-06
8.0171e-06
3.85195e-05
5.54955e-06
2.34182e-05
7.21105e-18
1.4607e-18
1.01383e-17
3.57655e-05
6.59228e-06
2.9043e-11
1.42281e-18
6.74924e-18
1.47112e-17
2.56276e-05
3.25135e-06
2.09902e-18
5.61146e-06
6.60927e-05
8.02844e-06
7.06363e-06
5.22056e-19
2.35265e-18
8.0065e-06
2.65305e-05
1.52751e-18
3.72993e-07
1.6672e-05
1.14665e-06
1.07703e-05
5.34299e-06
9.33142e-06
1.00732e-16
3.9461e-06
2.38364e-05
4.28001e-05
5.65631e-13
2.6599e-05
2.06037e-16
1.91104e-05
1.76504e-07
1.4499e-18
2.97052e-06
8.49773e-06
4.20745e-07
1.31442e-05
1.30929e-09
1.62652e-07
1.84215e-08
4.3747e-05
4.12064e-06
1.60017e-17
4.50162e-05
1.43905e-06
1.19391e-18
9.93462e-19
4.62743e-11
1.06142e-08
1.17946e-06
0.00127415
4.02905e-05
1.29361e-05
2.49768e-10
5.03189e-05
6.04795e-18
5.73882e-17
4.63783e-06
2.37718e-18
2.46114e-06
5.21069e-06
2.42638e-06
5.35366e-06
9.08981e-18
2.40452e-07
0.000124754
5.80134e-19
2.74744e-05
8.47237e-06
4.02337e-18
4.50228e-06
1.90699e-07
7.94238e-19
7.65379e-12
1.07501e-07
8.54128e-19
4.71719e-18
1.89528e-17
5.04577e-06
5.2083e-06
1.62974e-05
3.67376e-18
5.80571e-06
3.76042e-05
7.11362e-18
9.06059e-06
1.39977e-05
2.81737e-05
1.7224e-06
5.52077e-18
6.84728e-07
1.08089e-05
1.18166e-05
1.01053e-05
4.33619e-05
0.000186471
3.8582e-06
4.62876e-18
8.03979e-09
5.86187e-05
4.37894e-18
4.7219e-07
1.71082e-17
1.12977e-18
1.06903e-17
9.7181e-18
2.07801e-18
3.65699e-06
2.12404e-18
7.992e-06
1.3985e-06
1.64345e-17
4.53858e-06
1.93235e-17
1.62733e-05
3.39236e-18
2.17998e-08
9.26796e-18
2.49734e-05
1.70967e-07
2.51249e-09
4.64329e-06
3.2964e-05
1.93333e-05
4.41762e-06
3.0431e-05
5.98284e-15
2.51911e-05
6.18071e-05
1.04627e-05
4.8039e-18
1.30916e-06
3.14782e-07
6.26567e-06
1.22217e-05
7.11813e-07
5.651e-17
7.91001e-18
1.14359e-18
4.21174e-06
2.82104e-18
2.17257e-07
2.52788e-07
1.41755e-06
3.18323e-07
7.64451e-19
1.63017e-17
5.47057e-18
9.68384e-06
2.44631e-05
1.44335e-06
1.00642e-08
2.15353e-06
7.70719e-06
2.25607e-06
9.42022e-07
7.87001e-06
6.679e-06
2.91952e-06
1.83424e-18
2.4651e-18
4.23501e-18
1.53035e-05
1.2259e-05
3.06926e-18
8.83711e-19
1.24489e-17
9.28212e-06
2.16244e-05
2.4944e-18
2.39839e-06
6.44497e-18
6.82352e-10
5.51442e-06
9.90474e-05
1.93106e-18
3.7982e-19
4.22099e-06
3.3413e-19
7.21483e-08
1.33678e-05
1.31456e-17
1.21027e-05
3.7259e-05
2.06751e-05
1.43659e-18
1.39486e-06
3.17269e-18
9.19671e-08
5.53908e-05
6.78097e-18
2.56661e-17
1.24517e-05
3.56714e-16
2.13817e-17
4.71684e-08
1.13654e-06
3.21401e-18
5.35228e-19
9.12238e-19
6.60231e-08
1.42227e-06
3.59492e-06
2.811e-05
1.04857e-05
9.32556e-18
7.69962e-10
7.12533e-07
1.53797e-18
1.2254e-19
4.14241e-18
2.52161e-18
5.16041e-18
8.46315e-18
1.91189e-17
4.64577e-18
1.89952e-17
6.48555e-18
3.26317e-12
2.70001e-17
4.01044e-07
2.91727e-18
2.28332e-07
7.00186e-17
6.44935e-08
7.1057e-17
1.12254e-18
3.09554e-05
1.03049e-05
1.26129e-17
0.00010139
6.28745e-12
2.75924e-13
2.33668e-18
1.44603e-06
6.89197e-15
2.99172e-06
6.83507e-09
1.01045e-06
1.59343e-18
1.02618e-17
9.68252e-07
3.27371e-11
2.152e-18
2.25032e-17
4.39381e-05
2.59069e-17
4.17671e-05
9.89366e-18
3.82862e-19
1.81373e-09
3.15968e-05
9.2394e-06
3.98241e-18
3.69454e-07
2.62986e-17
3.04623e-06
1.9519e-08
2.0693e-06
1.00082e-06
4.69194e-18
2.29163e-05
1.2766e-06
5.80804e-06
1.82013e-18
3.33955e-18
1.0403e-18
1.75796e-05
4.48365e-06
5.76914e-05
4.24224e-18
4.71956e-10
1.10144e-18
3.12732e-18
1.77106e-18
1.75181e-18
3.51513e-06
2.34078e-06
3.24249e-06
0.00035524
9.31712e-18
3.13849e-05
4.00786e-05
1.97498e-05
1.83262e-06
2.29367e-17
6.1019e-06
4.86118e-06
5.50839e-06
4.52386e-10
1.14176e-05
8.16878e-19
1.79146e-06
1.34234e-06
3.67056e-05
1.23081e-09
3.60371e-06
9.29237e-19
2.08367e-05
4.19182e-19
2.3609e-19
1.85032e-06
2.24008e-17
7.21633e-06
7.1113e-18
1.69151e-18
1.95826e-17
9.48063e-19
3.01501e-17
8.64375e-07
2.38294e-19
6.43825e-07
1.19737e-17
3.38969e-18
2.0629e-05
6.18982e-06
8.773e-06
8.67111e-06
1.10413e-17
0.00065892
1.03149e-18
7.87401e-05
3.73989e-18
2.03766e-05
2.58019e-05
2.58214e-06
6.41173e-05
4.72889e-17
3.66998e-17
4.4227e-18
2.44734e-06
3.92585e-18
5.60734e-19
1.99467e-05
2.68886e-18
1.62065e-19
5.82434e-06
8.16217e-18
1.43869e-05
7.96692e-11
6.83627e-18
2.94517e-18
1.33339e-18
1.8111e-06
7.51665e-06
3.34071e-18
2.56416e-05
3.66844e-07
5.7365e-18
0.000116122
7.59934e-18
1.78839e-05
2.02893e-05
3.84887e-06
2.58429e-18
2.00924e-05
1.0783e-05
9.25307e-07
5.81097e-06
1.40776e-05
4.9066e-18
2.093e-18
1.97025e-09
1.19394e-18
2.38822e-18
4.74328e-18
2.20938e-05
4.97625e-05
4.96454e-06
2.35177e-06
1.86569e-17
5.53754e-05
5.16548e-05
4.78773e-06
2.83482e-06
1.03246e-05
2.36466e-05
2.92085e-06
9.22539e-18
2.7887e-18
1.46849e-18
7.5384e-06
8.40098e-19
2.82705e-05
4.34461e-17
8.41181e-07
5.71276e-10
2.90251e-06
2.51064e-05
1.97032e-18
1.49386e-18
2.73961e-06
4.02609e-07
7.54533e-18
2.95954e-17
2.96573e-17
3.66935e-08
3.41576e-07
1.57326e-07
9.03264e-07
1.12004e-05
9.88927e-05
1.83056e-18
3.6876e-18
3.57257e-17
4.27919e-06
2.07867e-05
2.27023e-05
3.92019e-05
2.09805e-06
3.18194e-06
5.87698e-18
3.83252e-18
1.27602e-16
2.96612e-19
1.08162e-05
2.52323e-05
6.19919e-18
1.44452e-18
1.61648e-17
1.72984e-17
6.12971e-17
6.67223e-18
1.51786e-05
2.10086e-17
1.15937e-06
0.000447323
5.7668e-18
1.66067e-08
2.57871e-05
7.91211e-07
1.52306e-18
6.12004e-18
5.41048e-06
2.91481e-18
1.58701e-05
1.22214e-09
2.74177e-05
2.19004e-17
2.05874e-15
9.1931e-18
2.70979e-18
6.35807e-19
8.65072e-18
0.000221447
3.27213e-18
6.4764e-06
1.36184e-06
1.7337e-17
3.86621e-18
2.16063e-06
5.5446e-19
4.99885e-18
1.53304e-05
1.24685e-07
1.95776e-18
1.92844e-17
4.87508e-18
1.88381e-05
3.72133e-18
1.55247e-18
4.43723e-07
2.87513e-06
3.37978e-06
5.49902e-18
2.08958e-18
7.7188e-18
4.1888e-06
2.032e-06
1.44103e-05
4.09903e-06
3.31521e-18
8.87085e-07
1.39006e-05
7.28474e-06
3.71286e-18
2.34815e-17
7.11868e-18
6.15853e-18
2.50522e-18
3.51844e-05
6.28174e-06
6.02453e-06
3.25627e-17
6.92608e-18
1.55667e-18
1.23676e-18
6.00657e-18
1.04091e-09
2.82857e-07
2.60548e-06
2.75002e-19
8.72997e-18
6.55056e-17
3.00855e-12
3.86666e-05
0.000128555
2.17571e-18
1.33739e-12
1.42503e-14
2.02659e-19
6.79095e-18
4.3086e-06
7.6585e-06
4.69019e-19
6.91612e-18
3.25951e-06
2.59581e-18
8.00066e-07
1.27295e-06
0.00242612
4.29615e-20
2.79561e-18
1.39946e-05
5.7324e-07
4.05857e-18
0.00076529
6.63074e-07
7.52532e-06
1.81308e-17
1.31608e-17
1.00487e-17
4.8919e-18
8.99296e-06
1.10284e-07
1.5712e-18
2.84196e-05
2.14704e-05
0.00100399
4.12978e-18
6.18385e-19
1.16453e-17
1.21825e-18
7.27475e-06
7.07627e-11
4.091e-18
5.1142e-19
2.12582e-05
1.08549e-06
5.73163e-06
4.04312e-18
1.83814e-17
3.27583e-05
7.85506e-18
9.56115e-18
1.04993e-18
8.26956e-18
2.54324e-05
2.22509e-18
1.33633e-18
4.38322e-18
2.89256e-05
1.42572e-05
1.02114e-18
5.54565e-18
1.27796e-18
1.75156e-05
1.88207e-10
3.23994e-19
1.43971e-18
1.26574e-18
4.21864e-17
2.71092e-06
1.21725e-05
3.8863e-19
2.36157e-06
1.21585e-06
5.26321e-06
3.60094e-17
7.20474e-19
3.08813e-19
5.78733e-18
3.732e-19
2.31475e-05
1.62845e-17
1.70505e-05
1.36094e-17
1.68311e-06
9.70506e-17
2.58712e-06
3.21524e-18
6.3131e-18
1.23143e-05
0.000201689
1.20051e-17
3.89298e-06
4.6323e-18
4.22156e-07
1.80325e-17
4.46767e-18
1.15948e-18
2.43839e-10
4.65832e-18
3.73025e-07
1.49034e-18
4.03355e-05
1.24174e-17
2.52959e-17
4.68379e-18
1.46365e-18
8.99411e-09
1.49971e-07
2.19832e-18
6.02827e-06
2.34028e-18
3.34062e-06
2.16952e-05
1.37091e-06
6.66606e-18
5.0228e-09
4.74439e-07
2.27723e-09
5.12043e-06
3.86221e-10
1.80259e-06
6.81222e-17
1.93446e-19
4.74315e-10
6.29998e-06
2.57664e-07
3.5986e-18
3.13506e-18
1.12934e-17
0.000635374
7.16306e-17
3.05507e-18
1.05873e-17
6.97082e-17
1.08394e-16
4.49433e-08
1.92585e-07
1.119e-06
7.29068e-08
7.51699e-16
1.57874e-06
4.01378e-18
6.56486e-06
1.11022e-17
6.63223e-18
4.56623e-18
3.93072e-18
2.25286e-08
9.29625e-18
2.77295e-17
5.31021e-18
1.66934e-05
5.50924e-17
3.14669e-18
1.24443e-05
1.06355e-17
7.44297e-05
0.000131614
0.000612334
1.58388e-17
0.000232051
0.00136705
0.0014675
0.000758647
6.9225e-18
7.27887e-19
5.52303e-06
5.38545e-06
2.60281e-18
8.91595e-06
1.5717e-19
3.63943e-05
1.84286e-17
2.25869e-18
7.50511e-07
2.02399e-18
3.59037e-18
1.10999e-08
4.28236e-08
1.99988e-17
6.01068e-19
2.72839e-09
8.65317e-18
6.5212e-19
2.33883e-08
9.26219e-06
1.62241e-06
1.24322e-17
8.46299e-06
7.11447e-17
3.94128e-06
4.4939e-10
7.947e-06
2.21814e-18
1.45626e-11
6.16646e-06
6.58372e-18
1.63363e-12
1.15979e-19
3.65655e-05
7.0845e-19
1.11334e-05
3.05567e-18
1.95385e-10
1.62709e-18
6.04409e-18
2.0426e-19
7.1472e-13
4.40658e-13
3.60185e-17
1.3742e-05
9.73263e-06
2.62788e-17
4.26013e-18
3.71859e-05
1.99383e-05
0.000206956
4.90521e-17
7.29586e-08
2.81087e-05
5.20119e-05
6.66279e-11
1.61361e-17
6.44588e-05
2.75539e-19
0.000255127
1.292e-17
3.88256e-11
3.94859e-11
6.85154e-19
5.65706e-08
1.01257e-17
2.37471e-05
4.77005e-18
2.16615e-18
4.95245e-19
2.06912e-18
3.60476e-19
1.13929e-17
3.39435e-07
2.05084e-06
0.000152797
4.89035e-18
4.1077e-17
4.6183e-05
3.77941e-18
1.36177e-19
3.45725e-18
5.32686e-17
6.7572e-18
6.38378e-06
7.87844e-19
2.14269e-17
7.67753e-20
3.55867e-06
1.80353e-17
2.27331e-18
3.11717e-17
3.49212e-06
4.73117e-19
6.59674e-06
0.000255368
5.5802e-06
5.84732e-06
2.89522e-05
1.31091e-18
4.72288e-18
4.03429e-19
3.32056e-06
1.98549e-06
1.80398e-18
4.61511e-17
6.32286e-07
3.529e-18
4.36773e-17
0.000371613
1.74373e-18
2.46424e-05
1.46782e-18
2.5732e-06
3.80069e-06
1.11511e-18
1.01557e-18
5.41396e-19
5.04838e-18
1.19568e-17
2.11711e-05
2.62563e-18
4.97246e-06
4.06666e-19
8.62264e-19
7.33238e-06
3.87623e-18
1.44909e-05
1.43874e-17
4.41863e-18
2.62323e-06
8.65666e-08
0.00015502
1.54368e-17
8.33542e-19
1.05318e-18
4.0656e-06
0.000198879
3.82696e-18
1.36109e-18
6.88009e-18
1.6243e-06
4.93401e-19
2.22797e-05
3.38537e-05
1.35529e-18
6.86783e-19
7.69198e-06
1.78721e-17
3.18724e-17
1.22734e-19
4.10731e-17
1.6084e-17
7.46777e-05
1.31004e-17
6.3039e-18
1.19819e-18
3.32667e-18
3.4982e-18
3.6008e-18
2.38156e-18
9.9541e-19
2.43027e-17
8.63968e-06
7.6823e-18
8.87137e-06
5.24843e-17
2.51582e-18
0.000644244
2.87017e-06
1.12383e-18
6.64675e-18
3.25977e-20
2.53726e-06
1.89334e-17
2.83274e-18
1.78675e-17
3.71614e-19
7.63328e-06
1.0092e-18
5.1468e-06
4.09582e-17
1.09054e-05
2.54918e-18
6.3334e-05
1.81594e-18
7.44311e-18
2.27353e-05
4.09359e-18
5.22375e-20
2.9999e-05
3.12508e-07
1.50784e-17
1.34014e-17
4.13853e-05
1.1512e-05
6.82973e-06
8.69587e-07
1.90295e-06
1.88671e-05
1.02781e-06
5.58814e-06
4.13839e-18
3.07458e-05
1.58814e-17
1.36836e-17
4.66946e-19
4.04703e-20
2.9554e-17
1.0902e-05
1.58753e-17
4.52699e-18
2.40562e-17
2.41747e-09
1.0973e-08
3.23321e-17
2.66148e-06
6.38204e-18
4.63834e-06
9.52446e-19
1.22655e-09
3.99844e-06
2.43129e-16
4.93109e-05
3.28184e-18
2.59001e-17
7.45886e-18
3.13036e-06
1.47435e-06
5.41246e-18
2.83228e-18
2.65394e-06
1.66761e-17
0.000727255
1.53749e-18
0.000110335
1.68385e-18
2.18886e-18
1.40077e-17
6.10374e-18
1.06859e-05
4.59042e-18
4.54273e-08
2.7006e-18
1.07357e-05
5.09299e-20
1.67864e-19
7.67843e-15
1.51156e-16
3.05172e-19
9.083e-18
3.5663e-18
2.16059e-17
4.78449e-06
0.000217762
1.07235e-17
4.33663e-18
4.18666e-07
2.14168e-18
3.99454e-18
1.42359e-09
1.9005e-05
1.68936e-07
1.19126e-17
7.17304e-07
3.78818e-06
5.56785e-06
9.34475e-06
2.08508e-18
1.1075e-16
4.5492e-18
2.83691e-18
2.73295e-19
4.04764e-18
1.50982e-17
8.03985e-18
5.09071e-18
1.18749e-18
4.12244e-19
5.70367e-19
8.32091e-05
5.71914e-18
8.33812e-19
6.03893e-13
3.64176e-18
1.07517e-17
0.00122478
9.80359e-19
1.80996e-18
2.06695e-06
1.73633e-12
7.93656e-18
6.89373e-17
1.06591e-18
2.49332e-05
3.075e-17
1.09232e-17
5.36263e-11
5.59119e-19
1.01615e-18
3.45596e-18
5.89228e-18
0.000125896
1.92547e-18
1.99121e-07
2.24159e-19
1.68131e-19
4.64989e-20
2.28139e-18
4.16751e-19
2.42236e-11
4.59187e-11
1.30958e-07
3.41869e-18
2.41818e-18
1.14498e-16
1.12425e-10
1.95779e-18
3.25677e-10
1.46278e-11
4.6249e-18
4.03725e-18
1.18583e-17
6.71179e-12
1.4855e-18
1.06779e-17
2.35851e-12
5.27688e-18
3.52767e-05
5.07194e-18
7.56489e-06
1.47248e-17
2.55338e-09
7.12109e-18
1.67679e-06
1.48528e-18
4.78221e-06
2.74703e-05
7.41385e-18
2.89427e-06
1.44648e-08
2.40097e-18
1.14791e-05
1.26763e-19
1.3192e-18
2.35039e-18
2.09056e-18
7.82032e-18
2.13108e-19
1.02875e-18
2.83132e-17
0.000313433
4.48068e-18
5.36367e-18
6.17307e-18
1.00616e-18
3.1749e-18
3.56616e-05
0.000927732
3.33906e-09
1.36762e-08
7.80141e-19
2.23643e-06
1.52162e-06
5.37174e-18
8.55658e-18
1.09261e-17
1.70432e-18
1.78236e-18
2.07373e-17
3.45849e-18
1.1095e-17
4.55751e-07
1.15373e-17
1.34797e-17
2.21105e-07
3.50524e-09
2.39092e-17
3.00574e-05
7.72316e-18
3.27059e-18
3.57153e-17
0.000197309
5.7548e-18
3.52701e-19
2.85304e-05
1.84616e-18
1.02147e-17
8.86853e-18
4.32388e-17
6.15784e-05
2.24624e-18
4.12121e-18
4.20669e-19
6.03411e-18
7.00857e-06
0.000271366