/*--------------------------------*- C++ -*----------------------------------*\
  =========                 |
  \\      /  F ield         | OpenFOAM: The Open Source CFD Toolbox
   \\    /   O peration     | Website:  https://openfoam.org
    \\  /    A nd           | Version:  10
     \\/     M anipulation  |
\*---------------------------------------------------------------------------*/
FoamFile
{
    format      ascii;
    class       volVectorField;
    location    "6.2";
    object      U;
}
// * * * * * * * * * * * * * * * * * * * * * * * * * * * * * * * * * * * * * //

dimensions      [0 1 -1 0 0 0 0];

internalField   nonuniform List<vector> 
111485
(
(2.87798 -2.87765 0.00179251)
(8.37551 -0.0215256 -0.0473177)
(8.25601 0.0194745 0.0258141)
(2.87842 -2.87915 0.000199638)
(8.57663 0.0374091 -0.00286119)
(2.99765 2.99595 0.000194781)
(8.42979 0.0242469 0.00227384)
(8.65649 -0.0230817 0.0122004)
(8.43459 -0.00574991 0.00598974)
(8.62931 -0.0923753 -0.0393913)
(8.30536 0.0198785 0.0247513)
(8.68847 -0.0204471 0.0396312)
(8.18502 0.00643828 0.0186283)
(8.26182 -0.0175013 -0.0588677)
(8.37877 0.0328227 0.0181723)
(8.55348 -0.0567582 -0.0464673)
(8.42415 -0.00797178 0.0119793)
(2.96249 -0.23541 0.447256)
(8.59789 0.0242756 -0.0188092)
(2.85769 -2.85379 -0.00154717)
(2.86258 -2.86252 -0.00325502)
(3.00517 3.00437 -0.000113155)
(8.50436 0.028168 -0.00830271)
(8.63528 -0.0564443 -0.0167514)
(8.46523 0.034495 -0.0102741)
(2.9008 -2.8879 -0.00298755)
(8.72826 -0.0410115 0.0454186)
(8.26719 -0.012433 0.00306124)
(8.62344 0.0145527 -0.0199118)
(2.86804 -2.86964 0.000133316)
(8.69466 0.143893 -0.0383416)
(8.58359 -0.018031 0.00245057)
(2.8559 -2.86204 0.00423566)
(3.00174 3.0077 -0.00722364)
(3.0139 1.24973 0.483225)
(3.02029 3.04043 -0.0442565)
(8.65315 0.143287 -0.0583517)
(8.36549 0.0314046 0.0736193)
(8.61266 2.60363 0.146154)
(8.58727 0.0426702 0.00390138)
(2.96463 2.99158 -0.0210879)
(8.68456 0.00983629 -0.0492971)
(8.57998 0.0445494 0.0155452)
(8.2794 -0.049991 0.000471587)
(8.66006 -0.152969 -0.0786634)
(2.88682 -2.86536 0.0148815)
(8.684 -0.0407563 0.0417599)
(8.62285 -0.0521756 -0.0159285)
(8.68481 0.00373471 -0.037455)
(2.8615 -2.82672 0.0164837)
(2.84562 -2.81963 0.0180202)
(3.41487 2.8708 0.0498224)
(2.8379 -2.82653 0.00942093)
(8.67188 0.0387655 -0.0723388)
(2.83046 -2.81819 0.000982055)
(8.56933 0.022447 -0.00804018)
(8.57242 -0.0355027 -0.0172202)
(3.00492 2.99938 0.0017396)
(7.82179 -0.0179657 -0.136737)
(8.61245 0.0359536 -0.00500506)
(8.61067 0.0397556 -0.00347388)
(2.86899 -2.87456 0.00360653)
(7.98613 0.00913448 0.0526311)
(8.71622 -0.0212096 0.067753)
(3.09895 2.80806 0.00455686)
(7.86911 0.0172144 -0.0148873)
(6.04755 -0.491457 0.215272)
(8.63798 -0.0310178 0.0116999)
(7.79644 0.00320094 0.0231739)
(7.38431 -0.0146815 0.00466045)
(8.33903 0.0519862 -0.0434534)
(7.73829 -0.00925504 0.0244188)
(3.10562 -2.79707 -0.0645033)
(7.90032 0.0144458 0.0611565)
(2.87495 -2.87403 -0.00011413)
(8.59614 -0.0193313 0.00898506)
(3.00469 3.00447 -0.000838236)
(8.67523 -0.0191104 0.0456993)
(3.00349 3.00182 -0.000403568)
(2.70363 2.63726 -0.0903414)
(8.36129 -0.128771 0.0871628)
(8.63371 0.0353732 0.00653686)
(2.99339 2.9862 -0.000235184)
(2.87546 -2.87545 0.00166022)
(8.13308 -0.00257578 0.0159369)
(7.80408 0.0216723 -0.0309439)
(6.68904 4.3399 -1.16729)
(8.5576 0.100985 0.00973381)
(8.24477 0.213109 0.182499)
(8.34637 0.00906568 0.0229452)
(8.82617 0.175567 -0.112858)
(8.58522 -0.0148688 0.0143165)
(8.03314 -0.0134076 0.0307301)
(8.17249 -0.00891907 0.00755031)
(8.69541 0.0252989 -0.0534797)
(2.87535 -2.87473 -0.000807188)
(2.8699 -2.86981 0.00178343)
(8.5543 0.0943504 0.0298593)
(8.81863 -1.74881 0.124506)
(8.01637 0.0292789 0.0517446)
(2.87552 -2.87579 0.00118317)
(8.59947 -0.04613 0.0051511)
(3.01728 3.0224 0.0165143)
(8.52981 0.00065495 -0.00502374)
(8.45111 -0.0431457 -0.053339)
(2.94707 2.63473 -0.0624874)
(3.00407 3.00304 -0.000608253)
(8.58947 -0.0221926 -0.00234005)
(7.94613 -0.0438089 0.00971708)
(7.61401 -0.226371 -0.240663)
(8.1355 -0.00745162 0.0180227)
(8.53542 0.0121611 -0.00457102)
(7.96636 -0.00574928 0.0317094)
(7.845 -0.0402995 0.0163513)
(2.90297 -2.88752 0.00255251)
(7.55328 -0.00672183 0.0223902)
(2.88665 -2.87753 -0.00363252)
(3.01761 3.00477 0.0124929)
(8.39348 0.0319579 0.0246332)
(2.87784 -2.87585 0.000893579)
(2.902 -2.887 -0.00116389)
(3.95444 3.109 0.185401)
(2.97255 2.98495 -0.00506879)
(3.01049 3.00329 -0.00715095)
(8.20337 -0.0203924 0.0393679)
(2.29984 -1.62289 -0.424633)
(3.76929 3.24108 0.114706)
(7.6274 -0.00220587 0.0358479)
(2.87517 -2.87399 -0.001127)
(8.63399 0.647808 -0.232659)
(8.62566 0.169715 -0.0866186)
(8.53861 0.0968195 0.0293655)
(2.86245 -2.85505 -0.0140024)
(3.87156 3.36592 0.348113)
(3.61247 3.22242 0.15232)
(8.62016 0.0252721 -0.015971)
(3.00648 3.00626 -0.000809598)
(8.55255 0.0196502 0.00164702)
(8.5011 0.039191 0.023397)
(8.35763 0.0361432 0.0366068)
(6.55901 0.000740198 0.0265851)
(8.56836 0.0449823 0.0102283)
(8.4974 0.0435543 0.0285649)
(8.10368 0.0077334 -0.0327133)
(8.47091 -0.0158319 0.00737755)
(8.3717 -0.00473294 0.0199318)
(3.00703 3.0074 -0.000690311)
(2.87531 -2.87668 0.000295069)
(2.99864 3.00039 0.00621452)
(8.57426 0.0383802 0.00517608)
(8.10826 0.0132204 -0.0297891)
(2.86484 -2.86347 0.00149528)
(5.59434 -0.0325436 0.0561069)
(8.36095 0.0399493 0.0191221)
(9.15705 0.366139 0.16081)
(8.61924 0.0251051 -0.0163846)
(8.58045 0.0276495 -0.0061021)
(7.96261 0.00337988 -0.0162303)
(9.23958 0.44899 0.110708)
(2.8594 -2.88633 0.0112025)
(2.8732 -2.87583 0.00296179)
(8.60501 0.0241376 -0.0167682)
(8.43006 -0.0293789 -0.0303237)
(9.30034 0.50672 0.120396)
(9.17191 0.443473 0.16579)
(7.98372 0.0106374 0.0421602)
(8.5866 0.105617 -0.0387753)
(2.96698 2.99151 0.000744006)
(9.41072 0.626654 0.14844)
(8.97718 0.450093 0.137086)
(3.00217 3.00376 0.000982989)
(2.86988 -2.86927 -7.43108e-05)
(6.86806 0.00714851 -0.0563163)
(3.00536 3.00683 0.000346509)
(8.53894 -0.0182769 -0.00338974)
(8.22562 0.00326532 -0.0167634)
(3.00426 2.93206 -0.0168203)
(3.10886 -2.85449 0.0312099)
(2.86888 -2.85408 -0.00469993)
(2.96119 2.79571 -0.0292383)
(3.1238 -2.87858 0.0490961)
(2.87309 -2.87416 0.00266798)
(8.55569 0.0312756 0.00515685)
(8.56735 0.0196236 -0.0160446)
(8.53882 0.0242617 -0.0103828)
(8.42452 -0.0256783 0.0303483)
(8.12471 -0.0207423 0.00686772)
(8.15327 0.013281 0.0248659)
(7.24166 0.0935953 0.00987829)
(2.87041 -2.86114 -0.00105166)
(7.89792 0.000977669 0.00978882)
(3.10156 -2.87685 0.0308679)
(2.89627 -2.90123 -0.00134823)
(8.22007 0.0151654 0.0284956)
(8.63313 -0.103019 -0.0377864)
(8.5547 0.0157973 -0.0390731)
(8.21945 -0.00877122 0.0111604)
(8.36275 -0.00397568 0.00962167)
(2.86986 -2.86519 0.00724443)
(8.2083 -0.0345793 0.00908088)
(8.1787 -0.0081761 -0.0500901)
(5.72202 1.82053 0.240837)
(8.38399 -0.0679436 0.00541534)
(8.50285 -0.0131164 0.00741461)
(2.88365 -2.86768 -0.00470163)
(8.18559 0.0199738 0.0284791)
(8.59041 0.0211522 -0.00967063)
(3.15453 -2.8423 0.0130148)
(8.2464 0.0204256 0.0309518)
(8.65642 -0.00672957 0.0438935)
(8.10341 0.0084998 -0.0338723)
(8.16178 0.0222256 0.0382475)
(3.121 -2.88787 0.0400794)
(2.86819 -2.86856 -0.000811377)
(8.15944 0.0236188 0.0413413)
(5.34842 3.35553 -0.331256)
(8.75387 0.0377492 -0.0851509)
(3.00397 3.00474 -0.00208064)
(8.21053 0.0163881 0.0327525)
(8.21799 0.00544351 0.00430818)
(8.70492 -0.0271941 0.0544825)
(2.87743 -2.87604 0.00122622)
(7.67725 -0.00321369 0.019543)
(8.60382 0.124941 0.0654687)
(4.7261 3.17248 -0.34659)
(3.00552 3.00584 -0.00211722)
(3.00216 3.00374 0.000857005)
(8.79458 -0.0537188 0.0842134)
(8.21251 0.193237 -0.0239426)
(3.15901 2.66684 -0.0620129)
(3.56321 -2.76249 0.112739)
(8.24267 0.00782474 0.0143336)
(8.50733 0.0139318 -0.00107761)
(8.59032 0.0188454 0.00813678)
(3.11274 2.70819 -0.0796843)
(3.0337 -2.79272 -0.0108834)
(8.2785 0.0999991 -0.118843)
(2.87466 -2.87453 0.00176912)
(7.85529 0.0100846 -0.0491164)
(8.1511 0.00499629 0.0336843)
(8.23934 0.00355779 0.0182463)
(8.24934 0.016554 0.0210147)
(8.28226 0.00902721 0.0279291)
(2.99399 2.99462 0.00943038)
(6.24462 -0.017856 -0.238612)
(8.38343 0.0281169 0.0261575)
(2.98936 2.9946 -0.00390544)
(3.00446 3.00527 -9.52883e-05)
(8.73357 -0.104646 -0.00952676)
(8.53165 0.0386749 -0.0125618)
(3.07608 2.61991 -0.0821879)
(7.78594 -0.00499003 0.0217796)
(8.36068 0.0183865 0.0222043)
(2.87689 -2.87559 -0.000883191)
(3.79017 3.58647 -0.0198855)
(8.59613 0.0803999 -0.0355293)
(2.88789 -2.85129 0.00217479)
(3.19448 -2.2693 -0.0543163)
(4.38701 -1.53524 -0.15381)
(2.87986 -2.8719 -0.00156581)
(8.41113 -0.0137535 -0.0169795)
(8.18092 -0.0140421 -0.0147922)
(8.51399 0.013539 -0.0222309)
(2.87337 -2.87375 -0.000288281)
(8.41929 0.0264001 0.0200045)
(2.87847 -2.87908 7.02449e-05)
(2.87763 -2.87868 0.000778112)
(2.86978 -2.85863 0.00474807)
(5.77154 0.0221252 -0.0893824)
(8.66014 -0.0412414 0.0481326)
(8.24081 0.0308942 0.0428774)
(8.3979 0.0279015 0.0134444)
(8.6874 -0.0502957 -0.000611205)
(8.35912 0.0126165 0.0140545)
(8.56599 0.0311473 0.0109014)
(8.63167 0.146234 -0.0141059)
(8.44537 0.0111201 -0.00387449)
(8.51635 0.0143207 -0.00460395)
(3.05637 3.00742 -0.00167597)
(2.86622 -2.86618 -0.00364155)
(5.27649 0.032762 -0.127935)
(8.56439 -0.0184927 0.00241005)
(8.63747 0.0659468 0.0706672)
(8.16001 -0.0114269 -0.0132389)
(2.87808 -2.87629 0.00102733)
(8.52138 0.027298 0.0157482)
(8.55702 0.0438128 0.0206847)
(8.38514 0.0187168 0.010974)
(7.38523 -0.00707683 -0.0397744)
(7.73373 -0.0907717 -0.192446)
(8.50816 0.0261796 0.00985914)
(8.37454 0.0234905 0.0151582)
(8.53089 0.0671507 -0.0425067)
(3.00437 3.00492 0.000793577)
(7.83239 0.0427569 -0.00230984)
(3.00327 3.00359 -0.00109032)
(2.4358 1.85096 -0.390753)
(3.23997 -2.07744 -0.210466)
(8.86238 -0.0813496 0.114292)
(8.68968 -0.0502175 -0.000278732)
(8.4838 -0.00339383 0.00129308)
(2.87978 -2.87235 -0.00111098)
(2.99139 3.00887 0.024677)
(8.50753 0.0294304 0.0156606)
(8.15532 0.01744 -0.0112987)
(2.86658 -2.86577 0.000477972)
(2.87812 -2.87597 0.00246777)
(2.81143 -2.82964 0.0186654)
(8.0909 0.0107829 -0.00387785)
(8.47896 0.00853919 -0.00881929)
(8.09483 0.00120072 0.0284197)
(7.84359 0.0126376 -0.042105)
(8.64341 0.0204007 -0.0202464)
(3.44159 2.9564 0.0792336)
(2.99797 3.00523 0.00540741)
(2.87474 -2.87113 -0.00123491)
(8.47659 0.0308399 0.0219114)
(5.50731 -4.66397 -0.333149)
(8.08012 -0.00891377 0.0123366)
(8.80191 -0.0620581 0.193535)
(7.09387 0.00545463 -0.146389)
(3.00543 3.00581 -0.000170296)
(2.87327 -2.87617 0.00216984)
(2.87773 -2.87892 -0.00143908)
(3.78786 3.17653 0.195982)
(8.58379 0.0257235 -0.00316795)
(8.65872 -0.048793 0.00798801)
(3.00968 3.01741 0.00100787)
(8.52846 0.0232782 -0.00197155)
(3.17341 2.57002 0.182033)
(2.88163 -2.8466 -0.00427718)
(8.74164 -0.0291789 0.0710568)
(8.50575 0.0311372 0.0155955)
(8.69275 -0.0107976 0.0198172)
(8.53195 0.0240003 -0.000448304)
(2.88733 2.5599 0.156847)
(3.74973 3.22605 0.206885)
(2.99756 3.00119 -0.00438481)
(8.51831 0.0298821 0.0113466)
(8.50616 0.0240611 -0.000772079)
(8.66734 0.15542 -0.0539651)
(2.97029 2.9633 0.00555925)
(5.94102 5.25824 -1.2605)
(8.12615 0.0806386 0.0738747)
(8.66458 -0.0400137 0.0207749)
(8.52627 0.0315293 0.0195645)
(8.11536 0.84262 -0.065172)
(8.64306 0.0198779 -0.024401)
(2.99327 2.99242 0.00141802)
(8.64474 0.0218734 -0.0141626)
(8.30771 0.011614 0.0168348)
(8.74523 -0.203594 -0.00196285)
(8.76856 -0.0525216 0.107318)
(8.4683 -0.0673082 -0.0613648)
(2.99087 3.00435 -0.0109437)
(2.87134 -2.87463 -0.00526131)
(3.00983 2.99206 0.011511)
(2.8534 -2.86159 -0.000554972)
(8.64462 -0.0393059 0.000709861)
(8.56832 -0.0116663 0.00304708)
(8.57464 0.0400842 -0.0328048)
(8.63795 0.0233279 -0.0268404)
(2.97957 2.9828 -0.0128457)
(8.54941 -0.0623674 -0.0224677)
(3.00107 3.00192 0.00138572)
(2.86488 -2.87302 6.39539e-05)
(8.63877 0.0247112 -0.0181011)
(2.64648 -2.64926 0.0383339)
(4.75282 -0.858881 -0.0650713)
(2.84174 -2.83113 0.00228241)
(3.02938 2.98922 0.0239867)
(8.55779 0.0143873 -0.0117192)
(3.00334 3.0015 0.00117994)
(8.45026 0.0240264 -0.00301727)
(8.04526 0.00448839 -0.0363101)
(3.00879 3.00894 -0.000659183)
(7.74943 -0.00363437 -0.036591)
(8.41292 0.014783 0.0110201)
(3.02668 2.6547 -0.0979017)
(8.3759 0.0375641 0.0421703)
(7.93091 0.0413226 -0.00333364)
(8.42982 0.0382366 0.0123775)
(7.858 0.0289037 0.0993898)
(8.50277 0.0241213 0.00389372)
(8.13201 0.00231791 -0.0143133)
(2.97071 2.53864 -0.0127582)
(2.86548 -2.86006 0.0171203)
(7.28234 0.0114678 0.170897)
(2.98321 2.99329 -0.0169506)
(8.41599 0.0455067 0.0408496)
(8.74841 -0.0439244 0.0872265)
(3.01753 2.88439 0.024323)
(2.99692 3.00958 -0.000994236)
(8.62124 -0.0162676 0.00673202)
(8.30816 -0.0386477 -0.0839224)
(8.33675 0.0414555 0.00471633)
(8.6383 0.0220211 -0.00836885)
(3.00406 2.99997 -0.0014111)
(8.7859 -0.0235497 0.142225)
(8.65277 -0.0292348 0.0421573)
(3.013 3.00822 6.9726e-05)
(8.47075 0.132023 0.108015)
(8.08703 -0.0323905 -0.0863983)
(2.87108 -2.87105 -0.000696214)
(2.86725 -2.86717 0.000766937)
(8.43958 0.0263516 -0.00999466)
(8.49436 0.00709047 -0.0124498)
(3.01601 3.01606 -0.00384803)
(2.87315 -2.86724 -0.00466353)
(5.06708 -2.72717 0.621085)
(2.87714 -2.87918 0.000529459)
(8.49524 -0.00278518 0.0148676)
(2.98392 2.99495 0.00673005)
(2.87801 -2.87901 0.000124381)
(8.69702 -0.0104615 0.0276634)
(7.8842 -0.0914285 -0.226709)
(8.60152 -0.050181 0.0112669)
(8.31334 -0.00166323 0.0161747)
(3.01092 3.00856 0.000272477)
(3.89731 3.00442 0.150756)
(8.31208 0.110893 0.160593)
(3.65202 3.21987 0.170966)
(8.28618 0.035591 0.0644364)
(8.24846 -0.0687387 0.00663792)
(8.61358 -0.0260572 -0.0227101)
(5.99344 0.183265 0.224404)
(3.58635 3.08868 0.157095)
(8.5973 0.0136744 -0.0816699)
(8.71917 0.271629 -0.0863615)
(2.87306 -2.87821 0.00538321)
(8.68877 0.0217731 -0.0853668)
(8.69735 -0.0373872 0.0321789)
(2.87843 -2.87777 0.00302198)
(8.37949 0.478899 -0.256172)
(7.33706 0.000202722 -0.0994549)
(3.79135 2.98229 0.125964)
(8.66251 -0.0185745 0.035643)
(8.55831 0.013402 -0.00974069)
(8.50674 0.0226441 -0.00645776)
(3.00371 3.00109 -0.000730847)
(8.46881 -0.0131185 0.0586373)
(8.69637 -0.00287012 0.028094)
(8.43747 0.0823051 -0.00842252)
(5.31383 -0.0728749 0.0886967)
(3.65043 3.44505 -0.068981)
(5.01591 -0.128787 0.168402)
(2.8724 -2.87635 0.00214852)
(7.81256 -0.264985 -0.256952)
(8.47061 -0.0147457 -0.0558772)
(3.00491 3.00293 0.00460537)
(8.06713 0.0200087 -0.0607375)
(6.64607 -0.0174613 0.121293)
(3.89456 3.44641 -0.035137)
(2.87515 -2.87322 0.000230437)
(3.36779 -2.85935 0.0923964)
(2.87745 -2.87631 -0.000181674)
(8.41789 0.0495824 -0.00630129)
(8.49494 0.0452973 -0.0144542)
(8.42436 -0.0244544 -0.0234429)
(7.91816 0.0209434 -0.0427606)
(8.62453 -0.174701 -0.0364961)
(3.00218 2.98932 -0.00566486)
(8.36909 -0.00138454 -0.0190131)
(2.88385 -2.86248 0.000407194)
(8.28292 0.0302447 0.0202452)
(3.0141 3.01469 -0.00103055)
(2.8753 -2.87271 8.6205e-05)
(2.84589 -2.85379 -0.00401901)
(8.14217 -0.0534443 0.0106071)
(2.86458 -2.86601 -0.00239758)
(2.87693 -2.87699 0.00151934)
(2.96241 1.97284 -0.122449)
(2.87747 -2.87919 0.00110258)
(2.97194 3.01313 0.0282767)
(8.34218 -0.0314502 -0.0129146)
(3.0053 3.00105 0.000859258)
(3.56155 2.63049 0.00430144)
(3.00587 3.0074 0.00364724)
(2.86632 -2.85661 -0.00101967)
(3.00493 2.99388 -0.00436002)
(2.86532 -2.85073 -0.014535)
(2.98704 2.98936 0.00013036)
(7.59993 0.00126797 -0.0636083)
(3.00944 2.99356 0.0120192)
(7.78825 0.11498 0.158135)
(8.5246 0.012423 -0.0041869)
(8.78686 -0.357903 -0.0615925)
(3.01079 2.99817 -0.000847736)
(7.41914 0.0216058 0.123311)
(3.0095 2.99905 0.00291949)
(2.87796 -2.87907 -0.00129932)
(8.39332 -0.0796786 -0.0853257)
(8.4056 -0.0642639 -0.0770107)
(8.42861 -0.0209734 -0.0216306)
(8.80728 0.0213004 -0.148068)
(3.45358 2.90564 -0.0956461)
(8.62903 0.00990378 -0.0455388)
(8.62499 0.0151268 -0.0422223)
(8.51866 0.0149811 -0.000468368)
(8.38398 0.00931599 0.00298426)
(8.53227 -0.0844193 -0.0584129)
(2.86523 -2.8661 -0.00102351)
(8.52626 0.0112867 -5.9599e-05)
(3.93179 3.42359 -0.0268142)
(8.50131 0.0218617 -0.0112442)
(3.00042 2.99731 -0.00113078)
(8.65704 0.0273325 -0.0393696)
(3.88846 3.23109 0.0300772)
(8.53559 0.0070085 -0.0126517)
(8.56609 -0.0402801 0.0312263)
(3.31917 -1.67567 -0.0193397)
(3.00563 3.00783 0.0333534)
(8.39535 0.0147367 0.0153256)
(2.87459 -2.87336 0.00046473)
(8.6937 0.0351276 -0.056484)
(8.62996 0.0337358 -0.0364263)
(3.00255 2.9936 -0.0238421)
(2.99602 2.99504 0.00731443)
(2.93888 2.63527 -0.0588781)
(3.0023 3.00464 0.00141158)
(6.02736 -0.324613 0.166452)
(8.69849 0.0308867 -0.0541149)
(3.04754 2.97549 -0.00201466)
(2.99883 3.00281 0.00288874)
(7.43459 0.00949829 -0.0171305)
(3.0071 3.00713 -0.000143781)
(8.56474 0.0239203 -0.0307216)
(3.00506 3.00423 0.00069814)
(8.47911 -0.0498542 -0.0358489)
(2.87807 -2.87864 0.00091335)
(7.95574 -0.0398541 -0.119682)
(6.58016 -0.0262851 0.00600397)
(7.98081 0.0239744 -0.0168633)
(8.5383 0.00922938 -0.0135809)
(3.01645 2.99382 -0.00980333)
(7.75809 0.00769855 -0.00170832)
(3.01049 2.99957 0.00280799)
(3.00572 3.00653 -0.00819758)
(8.44399 -0.0209868 -0.0109627)
(3.00183 2.99835 -0.00133383)
(7.1952 0.00124862 -0.0728151)
(2.89827 2.66706 -0.0886639)
(8.575 0.0226613 -0.0268572)
(2.86856 -2.87009 0.000151142)
(8.64681 0.019524 -0.0189639)
(2.87947 -2.87697 0.000250646)
(3.56807 3.15585 0.0920121)
(8.74702 0.32149 -0.0211718)
(8.39813 -0.0715121 -0.089096)
(8.52861 0.0359087 0.000141804)
(8.59554 -0.0957468 -0.0625582)
(8.49047 0.0164883 -0.00831234)
(8.68059 -0.059543 -0.0056025)
(2.98357 3.00654 -0.0134717)
(8.52319 0.0486332 0.0261243)
(8.43279 -0.0840312 -0.0855452)
(3.00432 3.00592 -0.00182335)
(7.16665 -0.10518 -0.276639)
(8.71787 -0.0641399 -0.0438137)
(8.3715 0.0357341 0.032474)
(2.9714 2.93134 -0.0167983)
(3.69909 0.7284 -0.589209)
(8.19223 0.0202912 0.0270857)
(6.704 -0.0267064 0.0678051)
(6.9455 1.78508 -0.0137395)
(3.72536 -1.896 -0.153897)
(8.66476 -0.0984102 -0.0225267)
(8.13476 0.0306701 0.0601761)
(8.39185 -0.0782797 -0.0859908)
(8.55491 -0.0476294 -0.0178735)
(8.41229 0.0489914 0.0209272)
(7.47062 0.966149 -0.042254)
(3.71514 3.15073 0.0263724)
(7.59874 -0.292295 0.0702277)
(7.34238 -0.643875 0.152473)
(2.87208 -2.87364 0.00137079)
(7.49854 0.0519581 -0.0220287)
(3.02005 2.96345 -0.0157194)
(3.52503 3.20473 0.0303264)
(8.48523 0.0220446 -0.0045654)
(7.52778 1.27017 -0.0439591)
(9.05732 -0.777246 -0.144064)
(8.1703 -1.41296 0.0304003)
(3.51564 3.34062 -0.24712)
(8.62841 -0.0530313 -0.0166952)
(8.51695 0.049663 0.0388395)
(2.9979 2.98934 -0.00147282)
(3.86942 2.14859 -0.0898998)
(8.51662 0.0641273 0.0403381)
(2.87568 -2.86496 0.00304384)
(3.00385 3.00265 -0.000543698)
(2.99483 2.99385 -7.9723e-05)
(3.00797 2.99208 0.00355935)
(8.62524 -0.0882818 -0.0401039)
(3.00482 3.00407 0.0017636)
(2.88531 -2.88511 0.0151626)
(8.47241 -0.0518962 -0.0417716)
(7.80945 -0.00261023 -0.0231758)
(4.22667 -3.70133 -0.195631)
(8.51712 0.0626667 0.038897)
(3.49778 2.82616 0.0637677)
(8.55668 -0.0330778 -0.0183276)
(2.81921 -2.81754 -0.0130146)
(2.99762 3.00342 -0.00230312)
(8.60485 -0.0543428 -0.0155723)
(3.00371 2.98672 -0.0116449)
(3.00536 2.99822 0.00129867)
(3.44285 3.29452 0.0953029)
(8.10061 -0.00415072 -0.00416326)
(4.94911 4.14354 -0.550755)
(8.48092 -0.0347851 -0.0164973)
(8.48514 0.0216696 -0.00741608)
(2.85016 -2.83152 -0.0227102)
(8.80616 -0.0233956 0.27842)
(8.0629 -0.0490448 -0.119736)
(8.45003 0.000732585 -0.00410258)
(8.55615 0.155427 0.0158245)
(8.59731 0.0858365 -0.18407)
(7.40187 0.00325491 -0.0684668)
(2.99931 2.99634 0.00183865)
(8.61772 0.00859399 0.0245318)
(8.55188 0.0367529 -0.00730327)
(2.84753 -2.88518 0.00559749)
(7.96665 -0.00433219 -0.00321774)
(8.6323 0.0508155 -0.0142404)
(8.62993 0.0394592 -0.0139814)
(7.85086 -0.0349035 -0.0767837)
(8.62745 0.0377979 -0.0153378)
(8.63156 0.0453536 -0.00491464)
(2.88076 -2.84257 0.0175656)
(8.63355 -0.0167367 0.0421707)
(7.14118 -0.0447895 -0.0139939)
(3.61943 3.14351 0.198847)
(8.62595 0.0322378 -0.0207188)
(8.23507 0.0094813 -0.0192242)
(4.81789 3.92175 -0.593063)
(8.48638 0.0199757 -0.00794776)
(8.62991 0.0261251 -0.0259788)
(8.23788 0.00260849 -0.0342115)
(8.56097 0.0382089 0.00472868)
(8.46362 0.0858342 0.038538)
(8.51317 -0.00161238 0.0167423)
(2.93872 2.87193 0.00442777)
(8.56021 0.0443471 0.00441881)
(8.03447 -0.0524619 -0.10828)
(3.21901 -1.9364 0.0748045)
(8.51937 0.0736272 0.0460412)
(8.41076 0.0693825 0.0699895)
(8.53356 0.0241399 -0.00031513)
(2.99972 2.99261 0.0026388)
(8.27323 0.0473394 -0.0784176)
(2.87517 -2.8626 0.00727579)
(3.005 3.00492 -0.00209263)
(2.98875 2.96837 -0.00126582)
(3.00994 2.99231 0.000857011)
(7.1819 0.00376261 -0.0305189)
(3.5803 3.08103 0.125166)
(6.44867 -0.457691 0.533396)
(2.86035 -2.86162 -0.000338463)
(2.99793 3.03837 -0.00469724)
(8.52885 0.0852547 0.0443)
(8.58003 0.0214951 -0.0389339)
(2.87725 -2.8772 -7.96944e-05)
(8.58927 -0.0533746 -0.00673177)
(2.8754 -2.87345 0.00836934)
(2.8773 -2.87537 -0.0011082)
(2.82953 -2.82964 0.00884105)
(8.71504 -0.0687381 -0.00921489)
(7.27226 0.0411525 -0.0200875)
(3.54336 3.19143 0.0393775)
(2.90417 -2.87195 0.00768296)
(3.00082 3.0104 -0.00373654)
(3.00212 3.0039 -0.000744596)
(8.77083 0.0177701 -0.0969211)
(8.51205 0.0161472 0.00291775)
(3.56982 3.35659 0.154978)
(8.67481 0.0266815 -0.0471084)
(8.07146 -0.113176 -0.335111)
(2.99847 2.99999 -0.00125239)
(8.65197 0.0229583 -0.0410242)
(7.93322 0.00571774 0.0422247)
(8.41692 0.0442748 -0.0503796)
(3.0091 3.00785 -0.000207323)
(3.00045 2.99789 0.000262821)
(8.36072 0.0498765 0.0509486)
(8.54084 0.0210695 -0.00282438)
(3.55112 3.22929 0.0503746)
(2.99093 2.99209 0.000232147)
(3.04096 2.94808 -0.0113816)
(8.49138 -0.0166551 0.00706906)
(2.87295 -2.87291 -0.00330392)
(2.86829 -2.85761 0.00211058)
(2.9869 2.98744 5.08077e-05)
(8.64967 0.0260612 -0.0362383)
(7.57104 -0.0376273 0.0146875)
(3.00783 3.00819 0.000152454)
(3.34384 0.666143 0.59104)
(3.64648 -0.398706 -0.141033)
(8.36248 0.0449192 -0.00217144)
(2.99886 3.00406 -0.00139259)
(3.00486 2.99949 -0.00223518)
(8.67606 -0.108216 -0.0159725)
(8.31494 0.141123 0.133433)
(3.60094 3.21652 0.152717)
(5.24162 1.70279 0.123512)
(8.20023 0.17843 0.238229)
(7.84797 0.0238605 -0.0539668)
(8.34296 0.00481002 -0.00616832)
(3.10542 2.91547 -0.00718153)
(8.29231 0.0239695 -0.0046575)
(8.59509 -0.0576487 0.0609957)
(3.00966 3.0022 -0.00332542)
(2.85405 -2.80461 0.00473681)
(2.9888 2.99025 0.00046967)
(2.9989 2.99852 -0.000598741)
(3.00447 3.00943 -0.00332255)
(3.00869 3.00948 -0.000437364)
(8.66704 0.0247053 -0.0380802)
(2.87507 -2.87455 0.00199398)
(2.99682 2.99726 0.000515671)
(2.98736 2.94822 -0.00380232)
(8.67455 0.0268126 -0.0481258)
(8.53177 0.0205806 0.00253037)
(2.88739 -2.84914 -0.00118462)
(2.84105 -2.81112 0.00381613)
(8.74219 -0.0413095 0.0751349)
(8.30722 0.00351459 0.0132264)
(8.29429 0.00839229 0.0155222)
(2.87604 -2.86843 -0.00156734)
(2.99475 2.99538 0.00198512)
(8.30147 0.00590138 0.0151562)
(2.87713 -2.87478 0.000432133)
(8.20342 0.0225768 0.00207683)
(8.38866 0.0144438 0.0301035)
(8.40543 0.0296452 0.0143869)
(2.88452 -2.86307 0.00783133)
(2.87659 -2.8781 0.000620616)
(2.87607 -2.87807 9.75861e-05)
(3.0048 3.00575 0.000941156)
(8.50082 -0.040141 -0.0231368)
(3.00148 3.00567 0.00198614)
(2.99616 2.99326 -0.000128478)
(8.46747 0.0240812 -0.0349383)
(2.87674 -2.87783 0.00112842)
(8.33918 0.00237183 0.00976855)
(7.60915 -0.0665423 0.0255305)
(3.02237 2.91998 0.0157593)
(8.52289 0.0219187 -0.0105591)
(4.01796 0.605697 -0.101772)
(8.41857 0.00854665 0.00418598)
(8.70238 -0.0291607 0.0217671)
(7.68766 0.0308826 0.0101281)
(8.70516 -0.00227131 0.0571635)
(6.29012 0.134489 -0.24054)
(3.57634 2.86084 0.0588354)
(8.39998 0.00507663 0.00287646)
(8.7386 0.0675528 0.0109971)
(8.52791 -0.0198647 -0.00820079)
(3.07681 2.67639 -0.0904694)
(3.83107 0.376643 -0.196049)
(4.55272 -0.326187 0.15575)
(8.41024 0.0113903 0.00547878)
(2.99632 3.00064 0.00401806)
(8.24823 -0.0188536 -0.0598745)
(8.42553 -0.0075938 -0.0174995)
(8.17713 -0.0708739 -0.130849)
(3.14118 -2.22312 -0.168104)
(2.87719 -2.87854 0.00130858)
(2.87414 -2.87423 -0.000111567)
(8.56767 -0.0267062 -0.00238745)
(3.50332 2.90297 -0.037859)
(8.14088 0.0281516 0.0112618)
(3.25861 2.96947 0.0416543)
(8.09425 -0.0172985 -0.0577919)
(8.32837 -0.0183718 0.00915881)
(8.23875 -0.00985232 0.0286048)
(8.53838 0.0208996 -0.00283653)
(2.99594 2.99594 -0.00102078)
(2.98268 2.97434 -0.00543511)
(3.07148 -2.79979 0.0143583)
(8.52647 0.0259675 0.00107511)
(3.00852 2.99998 -0.000780641)
(3.46905 2.98291 -0.132577)
(8.71931 0.164412 -0.138707)
(3.01379 3.01004 -0.00189912)
(2.99038 3.00467 0.00885239)
(2.86067 -2.85141 -0.0048354)
(3.00645 3.00738 0.00100899)
(8.15083 -0.00336925 0.0262746)
(3.0658 2.91121 0.00577162)
(3.00537 3.00221 0.00106724)
(6.91166 0.973958 -0.706244)
(3.51637 2.84455 -0.038909)
(2.99069 2.99224 -0.0247942)
(4.13911 -2.44061 0.152262)
(3.00308 2.99938 -0.00331417)
(6.66787 0.0260504 -0.0581424)
(8.31257 -0.013836 0.0205726)
(2.86551 -2.86584 -0.000228181)
(8.17138 0.00902066 -0.0225124)
(8.24336 1.33436 -0.180659)
(8.11736 -0.0779288 -0.130585)
(8.92611 0.331553 0.00648489)
(8.03944 0.00650674 -0.012476)
(3.00198 2.98141 0.00937054)
(8.42343 -0.0787785 -0.0894948)
(8.72786 -0.0271506 0.018471)
(8.11458 -0.0785081 -0.130571)
(2.87459 -2.87499 -0.000598565)
(8.84265 2.31813 0.620362)
(8.13205 0.0121467 0.0113277)
(4.00073 3.1929 -0.189714)
(8.07577 0.00445319 0.00859221)
(8.80907 0.110251 -0.0843021)
(8.41131 0.169821 0.00869109)
(8.34147 -0.023853 -0.0320889)
(8.34462 0.0277558 0.000841197)
(8.88136 0.130411 -0.0483311)
(8.5579 -0.0139819 -0.0134652)
(8.47911 -0.0108853 0.00834484)
(2.97911 2.99018 0.0112278)
(2.98998 2.97504 0.00917535)
(8.18812 0.021814 0.0109562)
(8.05339 0.00865496 0.0103175)
(2.99768 3.00477 -0.00128314)
(8.30184 0.00823893 0.000134967)
(8.69301 -0.0400381 0.00650282)
(8.49931 -0.0195213 0.00714348)
(3.00313 2.97207 -0.00115545)
(8.38218 0.169247 0.0372922)
(2.99561 2.99306 0.000295848)
(8.48346 -0.0107453 0.00733268)
(8.50894 -0.0120565 0.00546397)
(3.00303 3.00148 -0.000465023)
(8.13255 0.0399251 -0.0314989)
(8.48662 -0.00834748 0.00116668)
(8.34792 0.15835 0.0135011)
(8.21347 0.0014963 0.0331501)
(3.06448 3.0066 -0.0047618)
(8.58023 -0.0227905 0.0247179)
(8.37413 0.193335 0.00175773)
(8.8313 -0.20716 0.0572247)
(7.43596 0.0965171 0.0256575)
(6.64472 0.020853 -0.0931601)
(3.00481 2.97393 -0.00532603)
(2.9949 2.99218 0.00234196)
(8.23777 0.112629 0.0148375)
(3.00675 3.00715 -0.000809524)
(7.19898 -0.0201808 -0.0209388)
(8.27154 -0.043706 -0.0637276)
(5.04196 0.703741 -0.18507)
(9.16721 -0.588815 0.221503)
(8.088 -0.36376 0.106671)
(9.00366 -0.323292 0.0888838)
(3.00598 3.00646 -0.000729322)
(4.07848 3.46211 0.0283169)
(8.55902 0.0206146 -0.00693779)
(2.86255 -2.87391 -0.00981333)
(1.5873 -1.11149 0.466722)
(8.46919 -0.160712 -0.125327)
(2.99285 2.98537 -0.00592386)
(3.00836 3.00452 0.000272347)
(7.56768 -0.148118 -0.00428041)
(6.18128 -0.4018 0.0853568)
(3.0072 3.00795 -0.000198703)
(7.65592 -0.143002 0.025092)
(2.99419 2.99153 0.0015455)
(3.00284 3.00775 -0.00510717)
(2.87383 -2.87424 -0.000439086)
(2.87755 -2.87123 0.00579963)
(2.82014 -2.79594 0.00927433)
(2.87173 -2.86599 -0.000330859)
(7.65057 0.0630351 -0.0286566)
(2.98168 2.96151 -0.00364951)
(3.00179 3.00323 0.000978541)
(2.98559 3.00118 0.00505771)
(7.12295 -1.57369 -0.410784)
(8.06334 -0.0666741 -0.14682)
(7.80998 9.85342e-05 -0.0798568)
(8.55982 0.0191742 -0.00764218)
(2.9875 2.96817 -8.94615e-05)
(3.01526 3.00414 0.000160867)
(8.20212 -0.140066 -0.170338)
(3.00525 3.00606 -0.00363144)
(3.00276 2.99952 0.000718466)
(4.78322 2.75179 0.100065)
(8.73111 -0.118417 -0.00387079)
(8.54291 0.0198861 -0.00517527)
(3.00142 3.00041 -0.000293686)
(2.99903 2.99384 0.00439704)
(2.98779 2.97913 -0.00392684)
(2.99281 2.98625 -0.000286976)
(3.00589 3.00447 -0.00318997)
(3.01253 3.00496 0.00154472)
(8.54836 -0.198524 -0.12489)
(3.00956 3.0006 -0.000113854)
(5.93041 0.0851079 0.20012)
(8.62379 -0.019846 0.0230003)
(3.00255 3.00697 -0.000766089)
(2.85436 -2.86606 -0.00779597)
(2.83489 -2.80609 0.00366172)
(7.23119 0.0858928 0.39264)
(2.81452 -2.81168 -0.0111211)
(2.87266 -2.87498 0.00275748)
(2.98587 2.99078 -0.0186834)
(7.74556 -0.121081 0.00721354)
(2.9931 2.99209 5.82254e-05)
(8.49941 -0.110664 -0.0697534)
(6.78414 0.110607 -0.034806)
(5.57872 0.0065948 0.224346)
(2.99413 2.99646 0.000866753)
(5.82401 -1.49469 0.119844)
(8.56652 -0.0158699 0.0029958)
(8.62819 0.0214723 -0.021862)
(3.08723 -2.94807 -0.0339078)
(8.29576 -0.134458 -0.0221351)
(8.46805 -0.016058 -0.00942975)
(2.87786 -2.85754 0.00281127)
(3.10417 2.94433 0.0138519)
(4.05953 -3.12727 -0.262829)
(2.98658 2.98595 0.000952598)
(8.56303 0.0162905 -0.00237004)
(8.55899 -0.0105219 0.0100402)
(8.70299 -0.10508 0.0435341)
(5.72038 -0.0067468 0.314914)
(3.00824 3.00661 -0.000399078)
(8.56565 0.0164133 -0.00368521)
(3.08302 2.93373 -0.00717815)
(3.75574 3.17631 -0.0131832)
(3.86546 -3.00799 -0.125367)
(3.00261 3.00278 0.00114519)
(8.58702 0.0249377 -0.00527292)
(2.99298 2.98644 0.00181809)
(2.84328 -2.79177 0.00150236)
(7.83304 -0.1072 -0.195694)
(8.41118 -0.0199013 0.00927773)
(2.8458 -2.79881 -0.00698924)
(8.44541 0.0147296 -0.00476064)
(3.19928 3.12848 -0.0186099)
(8.5767 -0.0729374 -0.0376995)
(2.82372 2.70062 0.027235)
(3.00562 3.00721 -0.00111867)
(3.01832 3.00799 0.00988689)
(2.87796 -2.87878 0.000830793)
(8.30207 0.0126789 -0.0131148)
(7.44472 0.0155678 -0.033186)
(8.60221 -0.0253723 0.186165)
(2.99022 2.99297 0.00178863)
(2.98542 2.93126 0.0203272)
(8.25788 0.0152206 -0.0139057)
(3.00637 3.00644 -0.00117068)
(3.49196 3.15959 0.0438269)
(2.87508 -2.87329 0.000313625)
(8.21704 0.0517504 -0.0057537)
(8.74798 -0.216178 -0.0636703)
(8.5661 0.0208855 -0.00868513)
(2.87047 -2.86534 0.00662359)
(6.78341 -0.0103646 0.189498)
(7.08206 0.00690872 0.182345)
(2.69943 2.38289 0.0167899)
(7.65773 0.0985203 0.154596)
(3.0074 2.99142 0.00294974)
(8.09109 0.0752725 -0.0077019)
(8.68488 -0.0146908 0.0510551)
(8.41609 0.0066407 -0.0151715)
(8.69497 -0.109172 0.0139465)
(7.98747 -0.175232 -0.246513)
(3.00568 3.00248 0.000725714)
(3.00569 3.00568 -3.25523e-05)
(2.99876 3.00283 -0.000344641)
(7.00463 0.0687749 0.252739)
(2.97692 2.95055 0.00333951)