/*--------------------------------*- C++ -*----------------------------------*\
  =========                 |
  \\      /  F ield         | OpenFOAM: The Open Source CFD Toolbox
   \\    /   O peration     | Website:  https://openfoam.org
    \\  /    A nd           | Version:  10
     \\/     M anipulation  |
\*---------------------------------------------------------------------------*/
FoamFile
{
    format      ascii;
    class       surfaceScalarField;
    location    "1";
    object      phi;
}
// * * * * * * * * * * * * * * * * * * * * * * * * * * * * * * * * * * * * * //

dimensions      [0 3 -1 0 0 0 0];

internalField   nonuniform List<scalar> 
109758
(
3.65808e-06
0.00117948
-0.00118314
-0.00124056
0.00127854
-3.7974e-05
0.000107034
-0.00114686
0.00103983
-0.00143636
8.71383e-05
0.00134923
0.00147154
-0.000159623
-0.00126581
-4.60997e-05
-0.000405453
0.000396192
9.26087e-06
-0.00111253
-9.67537e-06
0.00112221
0.0020247
-0.000261864
-0.000381544
-0.00138129
-2.96075e-05
0.000854379
3.3171e-05
-0.000857942
0.000484136
-7.54078e-05
0.000590566
-0.000999295
-5.76164e-06
0.000587063
-0.000581301
0.00186755
-0.00152024
-0.0014308
0.0010835
0.000332432
0.00121959
-0.00136914
-0.000182881
0.00119468
-0.00122779
3.31163e-05
-0.000976904
0.00111727
0.00133117
0.0006862
-0.000946192
-0.000677351
0.000937343
0.000823352
-0.00157772
0.00140259
-0.000648219
0.00148247
0.000238796
-0.0011014
-0.000619867
0.0014947
0.000234211
-0.0012099
-0.000519014
-0.00142938
0.000164699
-0.000104073
0.00136875
0.000227745
-0.000294896
6.71511e-05
-3.53225e-05
-0.00125693
0.000303036
0.000989217
-0.000272291
0.000857106
-0.000584816
0.000251416
-0.000301644
0.0010294
0.00114861
0.000415328
-0.000395367
-0.00116857
2.32309e-05
0.000559107
0.000900136
0.00124143
0.00152987
-0.00194777
-0.000823524
-0.00110369
0.00109709
6.60283e-06
4.08334e-05
0.00110778
0.00146418
-0.00100975
0.000781002
-0.00123544
-0.00150072
0.00157096
-8.72594e-05
1.7028e-05
-4.75717e-05
0.000591918
-0.000544346
-1.31167e-05
0.000892949
-3.92947e-05
-0.000840538
-0.000839494
0.000830569
8.92551e-06
-9.06033e-05
-0.00137124
0.00114419
0.000317658
-0.00115302
0.00210419
-0.000712376
0.000587496
0.000161091
-0.000748587
0.000212524
0.00108701
-0.00154617
0.000246639
-0.000241455
-0.00112097
1.84153e-06
0.00136058
0.00113952
1.55982e-06
-0.00114108
0.0016707
-0.00110511
0.000730021
-0.00129561
-0.00039215
-0.000505136
0.000676365
0.000220921
-3.45445e-05
3.59632e-05
0.00166928
-0.00146233
0.00140993
3.09947e-05
2.14005e-05
0.00081186
-0.000811617
-2.43765e-07
0.000330006
-0.00213574
-0.000333221
0.00213896
0.000994106
-0.000282038
-0.000253698
-0.00045837
-0.00111669
0.00139478
-0.000193612
-8.44831e-05
1.12666e-05
0.00101725
-0.00102851
-0.00224501
0.000156026
0.000189581
0.00189941
0.00106584
-0.000515259
0.000524447
-0.00107503
0.000403202
0.000614135
1.05185e-05
0.00139502
-0.00140553
-0.00106847
0.00107418
-5.71704e-06
-0.00119367
0.00123451
-0.000322972
-0.00174213
-0.000431483
0.00249659
-0.00228442
0.00317579
-0.000658602
-0.000232773
-0.00118882
0.00105589
0.0012585
-0.00112557
-0.00179675
0.000705434
-5.43487e-05
0.00114567
-0.000742605
0.000271141
0.000664317
-0.000192852
-0.00149781
0.00142749
7.03228e-05
-0.00323025
0.000198167
0.00163078
0.00140131
-0.000338019
0.00126905
-0.00121129
0.000280261
0.00157493
0.00152737
-0.00189088
-0.00116073
0.00152425
-0.00190923
0.000919775
0.000513272
0.00047618
0.00137834
-0.001527
-0.00084815
0.00099681
-0.00146104
9.78528e-05
0.000338345
0.00102484
-0.00111902
-0.000790133
0.000448115
0.00108175
-6.24892e-05
-0.000107447
-0.000911811
0.00100899
-0.000595407
0.000380134
-0.000793722
0.0014164
4.50512e-05
0.000604389
-0.00206584
-0.000513064
0.000191628
0.000321436
-0.00210885
0.00136387
0.00157035
-0.000825369
0.000795789
-0.000755491
-4.02979e-05
-0.000620101
0.000186819
-0.00167557
0.000106072
-0.00088976
-0.000284778
-0.000275966
5.77966e-05
-0.000866312
0.00108448
0.00172407
-0.00157053
-0.000329307
0.00017577
-0.00167046
0.00151841
-0.00104163
0.00122289
-0.000818526
-0.00103053
0.000626169
-0.000643439
0.0026798
-0.00134106
-0.000695296
-0.000166523
9.07783e-05
0.0015358
-0.00146006
4.6297e-05
0.00216038
0.000227814
-0.00243449
0.000848569
-0.00154521
-0.000128696
0.00082534
0.00124762
-0.00023564
-0.000905911
0.000120387
0.000991388
-0.00136118
0.000249401
0.000550725
0.0020596
0.000125562
-0.00273588
0.000967305
-0.0011462
0.000185552
-6.66077e-06
0.000645112
0.000740228
-0.00277361
0.00138827
0.000942104
-0.000114307
7.17686e-05
-0.000899566
0.00198726
-0.00148423
-0.00296709
0.00246406
0.00171107
-0.00193046
0.000851462
-0.00063207
2.25886e-05
-0.00159285
0.00146098
0.000109282
0.00164382
-0.00115089
-0.000362907
-0.000130026
0.000888798
2.40506e-05
-0.000912848
-0.00171774
0.000293204
0.00119678
0.000227752
0.00110773
0.000743741
0.0005658
-0.00241727
0.000929135
-0.00167957
0.00113788
0.00248271
-0.00142698
-0.00219361
0.000926952
2.18261e-06
-0.000355483
0.00118968
0.00119208
-0.00202628
0.00105935
0.000301171
-0.000147398
-0.00121313
6.9806e-05
0.000930152
-0.000999958
0.0014164
-0.000114088
5.26904e-05
-0.001355
-0.000567819
1.76452e-06
0.000566054
-0.00132654
0.00102293
-0.000797787
-0.00024269
0.00178692
-0.00187695
0.000332714
0.000438535
-0.000366643
-0.00144536
0.00137347
0.000302795
-0.000301453
-0.000689923
0.000688581
-0.000366866
-0.000994209
0.00124406
0.000117017
0.000456659
-0.00124102
0.00128263
-0.000498274
0.000932582
0.000287574
-8.93515e-06
-0.00054983
-9.83479e-05
0.000657113
0.000163371
0.000360954
-0.00203628
0.00151195
-0.00131348
0.000167675
0.00134962
-0.000203815
0.000973566
0.00015653
9.89044e-05
-0.001229
0.000204298
0.000769268
0.0014358
0.000284163
-0.00156343
-0.000764729
-0.000860019
0.00128567
0.000339082
0.00135049
0.000183236
0.000202394
-0.00173612
-0.00147566
0.00126001
-0.00042156
0.000637207
0.00135022
0.00028987
-0.00104628
0.00117762
-0.00108932
0.00095798
0.00145834
-0.000211309
-0.000286332
-0.0009607
4.13421e-05
-0.00159143
0.00172797
-0.000177879
-0.00153604
-3.80691e-05
-0.000409152
0.00198326
0.000952573
0.000504689
-0.00149673
3.94651e-05
-0.00102919
9.62197e-05
0.00090359
2.93835e-05
0.00018253
5.57471e-05
-0.00188403
0.00164575
-0.000924884
-1.18039e-05
0.000936688
0.000193236
0.00132388
-0.00133458
-0.00105033
0.00139018
-0.000749462
0.000409613
-0.0011843
-0.000747044
0.00153982
0.000391526
0.00126284
0.000244637
-0.000719024
-0.000788455
-0.00199935
-2.96166e-05
-0.0002834
0.00231237
-0.00129602
-0.00078034
0.000565184
0.00151118
0.00176231
-0.00174647
-0.000108107
9.22683e-05
-0.000266786
-0.000783005
-0.000692343
0.00145637
0.00108893
0.000268356
-0.00281365
0.00211474
0.000282338
-0.00235078
0.000211471
0.00110535
-0.00131682
3.45034e-05
-0.00108313
0.00104862
-0.00103043
-0.00021
0.000188498
0.00105193
8.67014e-05
0.00134561
-0.00128022
-0.000152097
-0.00221691
-0.000259065
0.000578205
0.00189777
0.00122319
-0.00129272
0.00110519
-0.00103566
0.00016172
0.000144016
0.000917451
-0.000878999
0.000854565
2.44333e-05
-0.000955191
3.25512e-05
0.00138263
-0.000459985
0.000251698
-0.000659151
-0.000493112
0.000900564
0.000692657
-0.000719344
2.66868e-05
-0.000967095
0.000912647
-0.000221518
-5.00142e-05
-0.00101571
-8.72723e-06
0.00107445
0.00172104
-0.000190436
-0.00109221
-0.000438403
-0.00041749
-0.00188469
0.00253647
-0.000234285
-0.00161375
0.00055859
-0.00135882
0.00152442
-0.000165603
-0.000742114
0.000667222
-0.00101566
0.00109055
0.000560328
-0.000678684
-0.000506314
0.00062467
-0.000912527
-0.00125904
0.000994347
0.00117722
5.46108e-05
0.00143785
-0.000150915
-0.00134154
-0.000354427
0.00169001
-0.000282811
-0.00105278
-0.00162796
0.00137598
-9.39386e-05
0.000345921
-0.00115989
0.000928118
-0.00100788
0.00123965
0.00120503
1.16191e-05
-0.00121665
-0.00179173
0.000386571
0.0017435
-0.000326886
0.00141415
-0.00108727
9.18023e-05
0.00146666
-0.00155846
0.000182199
0.00123751
-0.00189151
0.000471799
-0.000962941
-0.000987024
0.00106525
0.000884713
0.000712194
-0.000222578
0.000519379
-0.00144038
0.00149962
-2.98665e-05
-2.93697e-05
-0.00144099
6.77899e-06
-6.16485e-06
0.000712336
-0.000436355
0.00182043
-0.00209641
-7.89735e-05
0.00182469
-0.00174572
-0.00116583
0.000838071
-1.59218e-05
0.000343677
-0.00089279
-0.00109234
0.00198513
-0.000653654
-0.000256188
0.000909842
0.00100606
7.2754e-06
-0.00101334
-0.00175795
-3.11913e-05
0.00144478
0.000344364
-0.00046393
0.000657143
0.000864836
-0.00105805
-0.00176861
0.000486035
0.000818649
0.0016957
-0.00271352
0.000603217
0.00041461
-0.00145909
0.0014709
-3.55805e-05
2.37676e-05
0.00201695
-0.00201383
-1.64448e-05
1.33242e-05
-0.00112698
8.98924e-06
0.000280923
0.000837072
9.06692e-05
-0.00115492
0.00106425
-0.00123081
-0.00175834
0.0012015
0.00178765
0.000142547
0.0016136
-0.000737163
-0.00101898
1.80884e-05
-0.00156015
-2.00325e-05
0.0015621
0.000251298
0.00140925
0.000332474
-0.00199302
0.000197831
0.0014044
-0.00147483
-0.000127404
-8.97431e-05
-0.00109911
0.00138669
-0.000917658
-0.00077445
0.000386142
0.00130597
0.000837966
4.90506e-05
-0.000887016
0.00131912
0.00126008
-0.00153855
-0.00104066
1.04898e-05
-0.00106002
0.00104953
0.000305588
0.000162912
3.53253e-05
-0.000503825
-0.00145859
-2.11035e-05
0.000483535
0.00099616
-0.00105087
-0.000545521
0.00159639
0.000874876
-0.00114267
0.000409492
-0.000141698
-0.00146381
0.000189846
0.00132597
-5.20065e-05
-0.00146638
0.00178253
-0.00139986
0.00108371
-1.05959e-05
-0.000907062
-0.00113652
0.00110781
2.87108e-05
-0.00147498
-0.000775217
0.000150206
0.00209999
-0.000139477
0.00130945
-0.00116998
0.00104187
-0.000817313
-0.00022456
0.000923887
-0.000934483
-0.00110016
-2.04219e-06
0.0011022
0.000511294
0.00138928
-1.80169e-05
-0.00188256
-0.00115174
0.000168694
0.00098305
-0.00126376
-0.00044311
0.00132105
0.000385823
-0.00189785
0.000261909
0.00185415
-0.000218205
0.000946751
-0.000917923
-2.88283e-05
-0.000733176
-0.00101165
0.00390621
-0.00216139
-0.00148026
0.000537714
-0.000368329
0.00131087
-0.00075662
-0.000178998
-0.00117031
0.00210592
-3.7181e-06
1.28891e-06
0.00131068
-0.00130825
0.000704379
-0.00209976
0.00287484
-0.00147946
-0.00121824
0.00121453
0.00155973
0.000399774
-0.00190764
-5.18636e-05
0.00110327
0.000162638
-0.00138675
0.000120832
0.000943379
0.000438113
-0.00158058
0.000199086
0.000910996
0.000192278
-0.000540068
0.00168433
-8.72244e-05
-0.00105704
0.000324436
-0.00148206
0.00189629
-0.000738663
-0.00164218
0.000121376
7.91965e-06
0.00151288
0.000956306
0.00377366
-0.00058631
-0.00414365
0.000457089
0.000346927
-0.000599613
-0.000204403
0.000309633
0.0011176
-0.000506397
-0.000920836
-0.000898764
0.000878083
-0.000519387
-1.82265e-06
0.00168118
4.97392e-06
0.00135022
-0.00137882
0.000221243
-0.000192642
0.000326681
-0.000107312
0.00080486
-0.00102423
-0.00129193
0.00126946
0.000185113
0.000391399
-0.000763029
-0.000880878
0.00125251
0.000549085
0.0015143
-0.00151266
0.00113123
-0.001481
0.000205265
0.000144501
0.00111031
5.87213e-06
-0.00111618
0.00243223
-0.00250747
0.00202548
-0.00195025
0.000369341
-0.000942915
-0.000473688
0.00104726
0.00038524
0.000204074
-0.00163727
0.000968981
-0.000569571
0.00123786
-0.00201077
0.000450946
0.00169886
-0.000139036
-0.00157615
-0.0008593
0.00313983
-0.000148651
0.00191508
-0.000618582
-0.00114785
0.00091384
-0.000466712
0.00170491
-0.00215203
0.000184013
-0.000867292
0.000739921
-5.66412e-05
-0.000385044
-0.00127005
0.00145795
0.000197145
0.00107953
-0.000618184
-0.00043737
-2.39741e-05
0.00054104
0.000237793
0.000293581
-0.00107241
-0.000767749
0.000974576
-0.000206826
0.000890504
-0.000831777
0.000125285
2.83469e-05
-0.00135041
0.00132206
0.0010535
-0.00123103
-0.000207511
0.000266951
0.00118039
-0.000262345
-0.001185
2.50297e-06
-0.000970252
0.000967749
0.000521883
0.00161173
-0.000873539
-0.00126007
-5.57981e-05
-0.000656792
-0.000421466
0.00113406
-0.000290839
-0.00163051
3.06367e-05
0.00189071
-0.00104635
0.000419669
0.00128025
-0.000653564
7.92682e-05
0.000974228
-0.000863827
0.000943095
0.000892239
0.000239378
8.02664e-05
-0.00121188
-0.000489221
0.00218922
-0.000140266
-0.00010304
-0.000625721
0.000567699
0.000161063
-0.000195725
0.00243354
-0.000123077
0.00197301
-0.0010345
-0.000416627
0.00223181
-0.000292313
-0.00121966
0.00182276
-0.00031079
-0.00228032
0.00192851
0.000901713
-0.000549901
5.78292e-05
0.00104002
0.000875162
-0.0010018
-0.00131857
0.00139548
-0.000720345
-0.000986655
0.00192026
-0.000213257
0.000736175
0.000843504
-0.00157968
1.66103e-05
0.000184987
0.00219486
-0.00239646
-0.00115539
0.000975747
0.00142104
-0.0012414
0.00134137
-0.00213426
0.00170468
-0.000911798
0.000452647
-3.0623e-05
-0.000422024
-0.00092516
-0.000509957
0.000167589
0.00126753
-0.000472646
-0.000676684
8.89978e-05
0.0011344
-0.00094312
-0.000280274
0.000944577
-0.000969327
2.47498e-05
0.000106817
-0.00126461
0.00134741
-0.000189618
0.00114737
-0.00282179
0.00138346
0.000290965
0.00066626
-0.000876618
0.000210358
0.000850495
-0.000103426
-0.000844963
9.78941e-05
-0.000180714
-0.00287656
0.00260252
0.000454753
-0.00112464
0.000194239
0.00131075
-0.000380344
-0.00118517
3.24045e-05
0.00115276
0.00118381
0.000189281
0.000787284
-0.000585487
-5.27712e-05
0.00152876
9.72888e-05
-0.00169095
0.00141295
-6.46813e-05
0.00117606
-0.00111138
-0.000817124
0.000509346
0.00134659
-0.00103881
-0.000183933
0.00154384
-3.61243e-05
-0.00132379
-0.000192689
0.00143776
-0.000971046
-0.000274024
-0.00100401
-2.69094e-05
0.00118849
-0.000157578
0.000830542
-0.0017329
0.000944979
-4.26243e-05
-0.000917538
0.000709075
-0.000714791
0.000923254
0.000885949
2.86387e-05
-0.000102728
0.000130041
-0.00125392
-0.000303007
0.00142689
-0.00026164
-0.00137205
0.000619601
0.00101408
0.000486886
-1.38439e-05
0.00113746
0.000263941
-0.00138756
0.00059525
-0.000424674
0.00118072
-0.0013513
-0.000757282
0.000932951
0.00124038
-0.00141605
0.00202115
0.000513616
-0.00204788
-9.95255e-06
-0.00121266
0.00122261
5.50349e-06
-0.00122488
0.00127409
-5.47186e-05
1.89513e-05
0.00130805
-0.00117155
-0.000155454
0.000396503
-0.00200921
-6.92163e-05
0.00168192
-0.00109644
0.00132625
-0.000229815
0.000192515
-8.98847e-05
0.00132626
-0.00142889
-0.00104196
0.000230343
-0.000703369
0.00107464
-0.00143201
0.00106074
-0.000326598
-8.06673e-05
0.000407265
0.00324688
-0.00157499
-0.00070585
-0.000966039
0.0013145
0.00334757
-0.0014152
0.00217152
-0.0019979
0.000192561
0.00110197
-0.000867376
0.00124306
-0.000393322
1.76387e-05
-0.000266682
4.56842e-05
0.00179135
-0.00127372
0.000480724
0.00097643
-0.000183433
-0.00105693
0.00174559
0.000134701
0.00121888
-0.00139592
0.00070273
-0.000525691
0.000168879
0.00244039
-0.00241676
0.000737385
2.3107e-07
-0.000737616
4.37339e-06
-0.000992467
0.000988094
0.00171428
0.000130819
-0.000388373
-0.00145672
0.00223402
-0.000717361
-0.000938932
-0.000577728
-0.000154839
-0.00280096
0.000856032
-1.29871e-05
-0.000686904
0.000699891
0.00148435
-0.00135717
-0.00135199
0.00122481
0.00106708
0.000441129
-0.00125691
0.000867379
-0.000534503
-0.00131552
0.000982642
-0.00104977
-7.32785e-06
-0.000803199
0.0018603
-0.00157255
-1.7316e-05
0.00158986
0.000990291
9.72524e-05
-0.00105804
-2.95081e-05
-0.00127013
-2.42472e-05
0.00129438
6.44144e-05
0.00108162
-0.00114604
-0.000793349
0.00173449
-0.000127198
-0.000813943
-0.00190804
0.0022965
0.00145185
-0.00184031
0.000896254
0.000773305
-0.000214186
0.0013443
-0.000850408
-0.000279707
-0.00023116
-8.30343e-05
-0.00120982
0.00152401
0.00131258
-0.00114916
0.000911824
-0.00107524
-0.00122815
0.0012775
-4.93511e-05
-0.00150631
0.000251922
0.0012827
-2.83094e-05
-0.00264448
0.000530907
0.00201133
0.000102243
0.000251901
-0.000333157
-0.00129379
0.00137505
0.00189731
0.0001708
-0.00107195
-0.000996157
0.00103291
-0.000779724
-0.00104341
0.00079022
0.0012272
1.03683e-05
-0.00123757
0.000102284
-0.00207048
0.00153778
0.00043042
0.000755292
0.000449453
-0.000308491
0.000269108
-0.000886161
0.00129109
-0.000674038
-0.000540252
0.000523055
-0.000118073
0.00013527
-0.00360922
0.00434971
0.00141589
-0.00215638
0.00182664
-1.24288e-06
-0.00183161
6.21253e-06
1.50966e-05
0.0014994
-0.00158237
6.78667e-05
-0.00219187
0.00191096
-0.000512445
0.000968201
0.00120598
-0.00108679
-0.0010874
-0.000952243
-0.000110231
-8.57295e-05
0.0011482
0.00100788
5.47861e-05
-0.00106267
0.00130137
-8.20968e-05
-0.00121927
-0.00229383
0.00215752
9.22644e-05
4.40462e-05
6.30854e-05
0.00148937
-6.30584e-05
-0.00148939
0.000900215
0.000471177
-0.00296542
0.00159403
-0.000628139
0.000633748
-5.60853e-06
0.00092717
-7.43005e-07
-0.000926427
-1.01469e-05
-0.000550962
0.000561109
-0.000533366
0.00108472
0.000725942
-0.00127729
9.92789e-06
-0.001137
0.000888489
0.000238578
-0.00129682
-0.000521971
-0.000475034
-2.80118e-06
-0.00089161
-0.000123141
0.00101755
-0.000705792
1.94011e-05
0.000686391
0.00024172
0.000739345
-0.000256822
-0.000724243
0.000493182
-0.000898995
0.000405814
-0.000240674
-0.000836239
-0.000310403
0.00138732
0.0007178
0.000931611
0.000134812
-0.00178422
0.00187236
-0.000683952
-0.000607544
-0.00058086
-7.08296e-05
-0.00154839
0.00179131
-0.00017209
0.000739865
0.000380782
0.000243098
-0.00136375
0.00232118
0.00104051
-0.00218506
-0.00117664
-1.49075e-06
0.000585116
-0.000583626
-0.00136775
2.84757e-05
0.00031834
0.00102093
-0.00134355
-0.000145865
0.00152851
-3.90911e-05
0.000381687
-0.000482562
0.00192752
-0.000480358
0.000629914
-0.000149556
0.000936657
2.2849e-05
-0.000959506
0.000195454
0.000121202
-0.00121889
0.000902239
0.00130758
-0.000123527
-0.0012304
4.63514e-05
-0.00119598
7.16044e-06
0.000227835
0.000322903
-0.00144795
0.000897214
-0.00135516
0.000100564
0.00125459
-5.4997e-05
-0.000949009
-0.000120972
0.00208894
0.000146143
-0.00211411
0.0011236
-0.0011918
6.82012e-05
-0.00118083
0.00118724
-6.41155e-06
0.000964878
-0.00108585
0.000266602
0.000870741
0.00107855
-0.00221589
-0.00118122
-0.0006355
0.00181672
-1.21867e-05
0.000830289
-0.000818102
-2.53883e-05
-0.000889979
0.000915368
0.00108687
-0.00108122
-5.6526e-06
-0.00122829
5.1877e-05
0.0012369
-6.04879e-05
0.000315631
-0.00147351
0.00112256
0.000701315
0.000574075
-0.00232767
0.00105228
0.000734958
1.71819e-05
-0.00075214
5.76175e-05
0.00136422
-0.00142184
0.000682883
9.77397e-06
-0.0015446
0.00137402
0.00130556
-0.00113498
-0.000937925
0.000123542
0.00119101
-0.000376625
0.00168959
-0.0024391
0.000589375
0.000160134
-0.0022054
0.000474416
-0.00110796
0.00122453
-0.000116568
1.07482e-05
-0.00119897
0.00118822
-0.000999834
-2.3517e-05
0.00102335
-0.00119442
-2.70051e-07
0.00119469
0.00112
-0.00122566
0.000105667
5.41253e-07
0.00174879
-0.00174933
-0.000263003
-0.000228842
0.00124714
0.00123952
-0.00128992
-0.00088279
0.000933182
-0.000713317
0.000134457
0.00136403
-0.000785172
0.000668677
-0.00156465
-0.000103866
-8.57624e-05
0.00155993
-0.00147417
0.000451039
0.000420635
-0.000569293
-0.000302381
-0.00070561
0.00115791
-0.00138489
0.000932587
-0.00111437
-0.000434855
0.00154923
0.00228561
-0.00141492
-0.000870694
-0.000439473
0.00163574
0.00105453
-0.0022508
-0.00119594
0.00145453
-0.00145322
0.00119464
0.000508471
-0.000379972
-0.000585283
0.000456783
2.13934e-05
-2.77528e-05
-0.00126977
0.00127613
-0.000106748
-0.00180755
0.0019143
0.000404019
5.3436e-05
-0.00152714
0.00106969
-0.00149086
0.00115572
0.000335144
-0.000702945
-0.000353015
0.00101458
4.13805e-05
-0.000983094
0.000983802
-7.07473e-07
0.000959851
-0.000825644
0.00120716
-4.92853e-06
-0.00157677
0.0015801
1.60008e-06
0.00304723
-0.000784575
-0.0015351
-0.000727552
-0.000492208
0.00182447
-1.55414e-05
-0.00131672
-0.000533188
0.00079424
0.000439162
-0.000700214
-0.0013068
0.000776367
0.00136118
-0.000830744
0.000722157
-0.000864888
-0.000350145
0.00153105
4.36611e-05
-0.00122456
0.000909881
-0.000992936
0.000101339
-0.00213089
3.02895e-05
-3.72358e-05
0.00213783
-0.000293207
-8.76683e-05
-0.000797607
0.00117848
-0.00108933
0.00139503
-0.00111079
0.000805087
-0.00249085
-0.000338443
0.00263357
-0.00156089
1.98892e-05
0.00157225
-3.12527e-05
0.00100784
0.000165219
-0.000671453
-0.000501611
-0.00032426
-0.00127731
0.000680948
0.000920621
0.00107159
-0.000415528
-0.00141227
0.000756206
-0.00135542
-0.000353272
-1.52368e-05
0.00172393
0.00110993
-0.000135288
-0.00101887
4.42223e-05
0.000941497
-0.000944432
2.93454e-06
-0.000729963
0.00238415
-0.00197577
0.000321586
0.000162681
0.00141131
-0.00228528
0.00071129
-0.000944604
-0.000314326
0.000999834
0.000259096
0.000334975
-0.000314507
-0.000965072
0.000814603
3.51833e-05
0.000157587
-0.00100737
-7.55996e-05
0.00062778
-0.00268307
-0.0013858
3.81107e-05
0.00177242
-0.000424731
-0.000999025
0.00116333
-0.0001643
0.000489146
-0.000453421
-0.000670909
0.000635185
-0.000718608
-0.00129504
0.000810321
0.00120333
-0.000587944
0.0018014
-0.000663003
-0.000550456
-0.00147926
1.48439e-05
-0.00130211
0.00162224
-3.45069e-05
3.97301e-05
-0.00144412
0.0014389
0.00122401
0.00129849
-0.00138305
-0.00113945
0.000982471
-0.00101591
3.34356e-05
0.0012415
-4.52831e-06
-0.00123697
0.00106919
-0.00124032
0.00035271
-0.000181571
-0.000318155
-0.000915545
0.00223353
-0.0016536
0.00141918
-0.000214534
0.000448954
0.000577411
-0.000745794
0.0017682
-0.00159982
-0.00161028
-0.00116838
0.00189627
0.000882393
-8.51789e-05
-0.00174241
0.000173992
0.000278073
-0.00145738
-1.45785e-05
0.00119388
0.00134284
0.000354411
0.00179275
-0.00156493
-0.000590901
0.00036308
-0.00132865
0.00131858
0.00107837
-0.0010683
0.001025
0.000499544
-0.00116376
-0.000360786
0.000499693
-0.00105674
0.000876216
-0.00031917
0.00136589
-0.00111919
-0.00178115
0.00153446
0.00146283
-0.00162569
7.76883e-05
-0.000895217
0.000898193
-2.97589e-06
0.000108313
-0.000102864
0.00152565
-0.0018189
0.00171813
-0.00142488
0.00112081
-0.0010125
0.00112795
-0.00121564
-4.15636e-05
0.000129252
-1.49495e-05
-0.000537615
0.000552565
-0.000134013
-0.00104063
0.00126079
-8.61462e-05
0.00187234
-0.00168825
0.000152194
-0.000336279
0.000200383
-0.00230073
0.000192313
0.00169368
-0.00173036
-0.000196985
0.000233669
0.000375262
0.000276817
0.000454212
-0.00110629
-0.000113698
0.000943219
0.000922633
-0.00175215
-8.40772e-05
-0.00117605
-0.000331028
0.00159115
-0.000567298
0.00169342
-0.00045053
-0.000675588
-0.00106767
0.000451048
0.00168581
0.00104663
-0.0021105
0.000228175
0.000835694
-0.000305032
6.63734e-05
0.00193233
0.000306515
0.00141841
-0.000479009
-0.00124592
-6.51721e-05
6.47697e-05
-0.00122163
0.00122203
0.00186777
0.000102988
-1.95854e-05
-0.00195117
0.00103025
0.000450909
-0.000409429
-0.00107173
-0.00112232
-0.000481686
0.000536333
9.10179e-05
0.000649474
-0.000667622
-7.28694e-05
0.000190153
1.7483e-05
-0.00144796
0.00101451
-0.000523059
-0.000141465
-0.00034999
0.000157317
0.000701562
-0.000106577
-0.000752302
-0.0011172
0.000960368
0.00120346
0.000742037
-0.00319721
0.000618364
0.00183681
0.00017777
-2.87948e-05
4.86609e-05
0.00131285
-0.00133271
0.00218987
-0.000709264
-0.00073723
-0.000743378
-0.00125554
-1.083e-05
0.00171443
-0.000448066
-0.000132739
-0.00103814
0.00124974
-7.88648e-05
0.00103386
-0.00141313
-0.00069583
0.0010751
-0.000990239
0.000954752
3.54866e-05
-3.03626e-05
0.000953935
-0.000923573
-0.000465214
-0.00108085
-0.000405314
0.00195138
-0.000804637
0.000883737
-7.90996e-05
-0.000153297
-0.00132909
-0.00034094
0.00182333
-0.00234326
0.000858285
-0.001267
0.00275198
-0.0016031
4.02914e-05
0.00156281
0.000779151
0.00084385
-0.000835469
-0.000787532
0.000974755
-0.000559099
-0.000183477
-0.000232178
0.00132368
2.74225e-05
-0.00135111
0.00124913
-0.00372556
0.000133164
0.000842429
-2.05074e-05
-0.000821921
-0.00144564
-0.000570907
0.00194289
7.36621e-05
-0.000870938
0.00451755
-0.00277393
-0.000872679
-0.00264142
0.00318328
-0.000472318
-6.95423e-05
0.00158614
-0.00092439
0.00221309
-0.000777284
-0.00167445
0.00248319
-3.145e-05
-4.28663e-06
-0.00011792
-0.000675284
0.000797491
0.00147916
0.00191303
-0.00218498
-0.00120721
-0.00152166
0.00180861
0.000497336
-0.000784285
0.00169155
-0.000314978
-0.000655135
-0.000721441
0.000148768
-0.00107112
-0.000190218
0.00111257
-0.00322746
0.000104605
0.00165761
0.00146525
-0.000600348
0.00224955
-0.000872615
-0.000776589
0.000381244
-0.000946606
0.00180087
-0.0012355
-0.000189668
-0.000560411
0.0010495
-0.000299421
-0.000915082
0.000974981
-6.57972e-05
5.89789e-06
0.00158778
-0.00179436
-6.25266e-05
0.000269114
-5.37484e-05
-0.00160354
0.00161161
4.5682e-05
0.000130906
-0.000111705
-0.00154851
0.00152931
0.00220603
-0.000359283
8.71607e-05
-0.0019339
-0.00145526
-0.000305496
0.000377765
0.00138299
0.000503251
-0.000506166
2.91545e-06
0.00109765
-0.000744587
0.000728684
0.000234202
0.00209672
-0.000126856
-0.00220407
-0.000324933
0.000234032
0.000249338
-0.000158437
-0.00163516
-0.00201905
0.00292103
-0.00115577
0.00130672
0.00126706
-0.00141801
-5.96021e-05
0.00126087
-0.00158683
0.000385563
-0.00125844
-0.00130244
-7.68163e-05
-0.000342272
0.00172153
-2.91489e-06
-0.000658988
0.000661903
-1.24061e-05
-0.000948456
0.00222612
-0.00126526
0.000644107
0.000924549
0.00167418
-0.000845906
5.58031e-05
-0.000884073
0.000713795
-0.000197869
-0.0011937
0.000677774
0.000897232
2.8636e-05
-0.00136015
0.000434282
-0.000652509
0.000541196
0.00201539
-0.00190408
0.00172465
0.00123993
0.000171837
-0.00313641
-0.00155819
-0.000103643
0.000312804
0.00134903
-0.00131059
0.00139582
-8.52287e-05
-9.28027e-05
0.00085014
-0.000124236
-0.000633101
-0.000267947
0.000552054
-0.000284107
0.00109691
0.00154909
-0.000693576
-0.00195243
0.00092958
-0.000933981
4.40143e-06
-0.00262109
0.000614611
0.00146881
0.000537672
0.000111175
-6.06211e-05
0.0012979
-0.00134846
0.00082892
-5.78278e-06
-0.000823137
0.0016846
-0.00186883
-0.00120902
0.00139325
-0.0014681
-0.00285417
0.00170118
-0.000287537
0.000179126
0.00118435
-0.00107594
-0.000513158
0.00155907
-0.000167882
-0.000878035
0.000330591
-0.000850294
0.0012335
0.000974846
5.54047e-05
-0.00103025
0.00287434
-0.000700284
0.00016914
-0.00234319
0.00108396
0.000322272
0.000706201
-0.00166431
0.000787264
0.000170844
-0.00178131
5.20853e-05
0.00133636
0.000392867
-0.000325082
-0.0006969
0.000757689
0.000264293
0.00102752
-0.00133418
0.000306662
-0.000376492
-0.000714392
0.00109088
0.00090629
-0.000602568
-0.00103195
0.000728225
-0.000390454
-0.000218811
0.00156172
-0.000952455
-0.000762348
-0.00120922
0.000934216
0.00103736
-0.00149439
0.0013912
-4.10052e-05
0.0001442
-1.44e-05
-0.000932206
-0.000228313
-0.000821292
0.00103665
1.29587e-05
0.00156908
-0.00147442
0.00043086
-0.000525519
0.00234979
-0.00234077
0.00107494
-0.000415146
0.000468843
-5.36975e-05
-0.000862892
0.00084464
1.82521e-05
-8.26559e-05
0.00110699
0.00037738
-0.00140171
-0.00070439
-0.00110243
-0.000419876
0.0022267
-0.000636858
-0.000490985
0.00222613
-0.00109829
0.00111432
0.000298452
-0.00149542
-0.000206264
0.00163997
-0.000750267
-0.00068344
0.000225957
-0.00109529
-0.000471047
0.00134038
-0.00030726
0.000185051
-0.00151804
0.00164025
0.0015274
-0.00111748
-0.000816539
-0.000620447
-0.000183778
0.00162076
0.000477225
-0.000216668
-0.000209288
-5.1269e-05
-0.00179731
0.00209031
-0.000209803
-8.31965e-05
0.000589093
0.000644618
-0.00060473
-0.000628981
-0.00023703
0.00127481
2.22753e-05
-0.00106006
0.00141591
5.71175e-05
-0.00126534
-0.000207691
-0.000196414
-0.00173197
-0.000405455
0.00233384
-0.000154199
0.00127201
-0.00111781
0.00152618
0.00129884
-0.00174246
-0.00108255
0.00101155
-1.1747e-06
-0.00101037
0.000113473
-0.00133006
-0.000332136
0.00154872
0.00238272
-0.000342226
-0.00111071
-0.000929793
4.07367e-05
0.00239211
-5.01269e-05
0.00117739
-0.00111316
-6.4235e-05
-0.000432649
-0.000816282
0.00124893
0.00217192
-0.000581742
-0.00135596
-0.0010232
-0.000987792
0.00166876
9.75226e-05
0.000406211
-0.00156649
0.00106276
6.02395e-05
-0.0013561
0.00084916
0.0004467
-4.04049e-06
0.00117904
7.76e-06
-0.00118276
-0.000240741
-2.91645e-05
-0.00110992
-0.000296987
0.00140691
-1.93948e-05
-0.000967562
0.000986957
0.0020954
0.000169969
-0.000143966
-0.0021214
0.000875508
-0.00160871
0.000384745
0.000348454
0.000558088
1.72239e-06
-0.000559811
-0.00157848
0.000276864
-8.48305e-05
0.00138644
0.000563746
3.92299e-05
0.00123201
-0.00183499
-0.000581552
0.000629247
-0.00174102
0.00169332
0.000178575
-0.000236115
-0.00163661
0.00169415
0.00118417
-0.0010935
-0.00250891
0.000300396
0.00074066
-0.000752131
-0.000758592
0.000770063
-0.000677259
0.000674172
3.08754e-06
-0.00159379
-0.000557532
0.0024005
-0.000347193
-0.00149577
-0.000932847
-0.000285962
0.00126317
-4.43632e-05
0.000268067
0.0015185
-0.000584217
-0.00120235
-0.00299587
-0.00251602
0.000200739
0.00239961
-8.43288e-05
0.000172747
0.000117924
-0.00105255
0.000761876
0.00165768
-0.00152159
-0.00170864
0.00122801
0.000352487
-0.0015805
0.00175611
-0.00033951
-0.00124229
-0.000174316
-0.00103019
-6.49547e-05
-0.000697701
0.00179285
0.00169109
-0.00142893
-0.000505896
0.000243737
4.32636e-05
0.000554437
-0.00163731
0.00103961
6.6194e-06
0.000864997
0.000131879
-0.0010035
-0.000835404
0.00105594
0.000298485
-0.000519021
1.54783e-05
0.00145748
-1.20727e-05
-0.00146089
-0.00109999
0.00111547
-0.00101869
-5.19241e-06
0.00102388
-0.00164719
-0.000154407
0.000411712
0.00138989
0.00117428
-0.00112696
0.000677788
-0.000725103
0.000287308
0.00102447
-0.00110625
-0.000205526
-0.00140705
0.00207119
-0.000238895
-0.00042524
0.000827344
-0.000787161
-4.01835e-05
8.38026e-06
0.000640339
0.00170107
-0.00139094
0.0011874
0.000508925
-0.00030539
-0.000355157
0.000780474
-0.000425317
-3.49387e-05
0.00118681
-0.00115187
-0.00182503
0.000691064
0.000355305
0.000778661
-0.00331074
0.00240213
0.000916984
0.0024975
-0.000299744
-0.000428265
-0.00176949
0.000997799
0.000116853
0.000643208
-1.72226e-05
-0.000669139
4.31532e-05
0.000689566
-0.000532249
2.71819e-05
-0.00161043
0.00158325
-0.00274086
0.00194949
-0.000876649
0.00210211
-0.00141654
0.000191074
0.00143663
-0.00194865
0.000609543
0.00110757
-0.00202298
0.000388379
0.000527025
-0.00103416
0.00123567
-0.000201514
0.00215697
0.000447842
-6.10373e-06
-0.00259871
-0.0010219
0.00103102
-9.11553e-06
0.00280827
-0.00250688
0.000326394
0.00165253
-4.71262e-05
-0.0016054
0.00119582
-0.00121096
1.51384e-05
-0.00120096
0.000139438
0.00106152
-0.0004593
-0.00113463
0.00039297
-0.00242206