/*--------------------------------*- C++ -*----------------------------------*\
  =========                 |
  \\      /  F ield         | OpenFOAM: The Open Source CFD Toolbox
   \\    /   O peration     | Website:  https://openfoam.org
    \\  /    A nd           | Version:  10
     \\/     M anipulation  |
\*---------------------------------------------------------------------------*/
FoamFile
{
    format      ascii;
    class       volScalarField;
    location    "1";
    object      SgT;
}
// * * * * * * * * * * * * * * * * * * * * * * * * * * * * * * * * * * * * * //

dimensions      [1 -1 -3 -1 0 0 0];

internalField   nonuniform List<scalar> 
59698
(
2.21648e-13
4.39605e-12
2.48805e-12
3.92432e-13
1.58548e-13
1.49712e-17
3.31631e-11
4.22852e-12
2.43489e-13
1.94099e-14
4.4569e-13
5.50528e-14
1.41561e-14
2.13208e-12
1.40016e-14
1.87138e-15
1.29528e-13
3.73766e-14
5.82284e-13
4.97143e-11
8.1313e-14
2.30707e-13
1.46606e-12
4.49444e-07
5.1675e-13
2.51994e-13
2.39764e-11
1.04672e-11
2.70568e-14
3.95041e-13
2.01784e-12
1.48673e-14
3.03215e-15
2.90077e-13
1.90807e-14
7.96042e-15
9.46541e-14
7.13541e-13
6.82369e-13
1.23732e-12
1.1168e-11
3.46415e-18
3.4154e-12
2.2084e-11
1.98416e-15
1.48933e-12
1.73099e-13
1.65821e-10
8.6104e-12
3.24189e-12
1.68514e-12
7.14067e-13
1.54628e-11
2.99564e-11
1.36954e-14
5.65311e-13
2.69138e-12
9.6708e-13
4.47471e-12
1.08387e-13
1.41539e-11
4.79899e-12
3.97207e-13
7.69798e-13
2.89133e-14
1.84749e-11
1.42201e-15
2.75971e-12
4.33032e-14
7.59911e-13
2.96933e-14
2.34314e-12
8.70439e-13
1.67948e-13
1.56535e-16
4.72348e-14
1.1058e-11
7.44274e-13
5.13559e-12
2.10658e-14
1.35582e-13
9.04535e-12
2.0685e-14
7.52188e-15
5.42086e-14
2.49054e-11
1.17392e-11
2.12932e-12
1.07835e-12
3.13476e-12
4.50333e-14
1.81042e-12
2.58258e-13
4.43051e-12
5.41712e-12
4.18504e-13
2.81743e-13
2.0333e-12
1.66704e-13
1.73369e-15
4.26289e-13
3.27759e-14
4.66346e-13
4.28703e-13
3.35576e-12
1.09133e-13
3.45417e-15
3.08221e-12
5.39898e-15
8.93225e-15
7.15726e-12
1.47191e-11
2.47373e-13
1.14073e-16
3.34402e-12
8.98712e-11
6.29784e-13
4.89267e-15
9.63219e-13
5.22456e-14
6.96795e-13
2.79461e-11
4.95558e-14
1.23573e-11
1.20577e-11
1.21615e-10
1.22784e-11
2.37864e-10
1.67317e-11
1.07416e-11
2.33532e-13
1.36422e-10
3.80216e-15
2.2641e-13
2.05447e-13
2.48967e-12
7.83792e-11
4.02914e-14
1.05177e-12
2.80975e-12
1.35259e-12
9.10899e-13
7.2869e-12
8.27864e-11
1.37226e-10
3.08944e-13
1.99228e-11
6.22153e-12
3.75638e-13
3.99074e-12
7.49981e-13
2.11146e-13
1.3355e-11
1.86686e-10
9.47339e-13
1.20238e-12
3.60516e-13
2.49967e-12
4.33251e-14
1.45611e-13
6.94902e-14
8.98543e-13
1.03861e-12
1.54423e-11
5.89565e-13
1.00296e-12
3.2677e-12
3.04924e-14
2.85722e-12
1.98952e-11
2.5011e-13
2.14213e-14
2.41644e-13
1.94666e-13
6.903e-13
7.49947e-12
6.57507e-06
1.72925e-13
1.49714e-12
1.29799e-12
6.35175e-14
1.18627e-12
1.20353e-12
4.61341e-11
2.37904e-12
2.37385e-13
3.39762e-12
1.50999e-12
7.59174e-13
3.53478e-13
1.65252e-11
1.64295e-12
9.40639e-14
1.26593e-12
1.42407e-12
1.86802e-12
7.9513e-14
1.79145e-13
1.05175e-13
1.38517e-12
1.99197e-13
2.39025e-13
2.70447e-12
7.95505e-12
7.78369e-13
1.21721e-13
2.01766e-12
1.5468e-12
4.70114e-12
3.17558e-12
2.30195e-12
1.03885e-12
2.00041e-12
0.0291996
4.57865e-12
3.50814e-13
7.34815e-12
1.46118e-12
9.8346e-13
2.87767e-12
4.94245e-14
3.27355e-12
2.45908e-13
1.84191e-12
1.80326e-11
1.19975e-12
1.75222e-11
5.2663e-12
7.61503e-13
4.35322e-15
2.10157e-13
2.33873e-11
1.6524e-11
2.72626e-11
1.44756e-13
5.13985e-11
6.71827e-12
4.35459e-12
4.72258e-12
2.79695e-11
2.65797e-13
1.37817e-13
2.42538e-12
5.79449e-07
2.07594e-11
5.28464e-12
6.20018e-15
8.99722e-14
5.00009e-12
5.69487e-13
8.82964e-12
2.21433e-11
6.31122e-12
5.05575e-13
1.06568e-12
1.26153e-13
4.69768e-11
1.05712e-11
4.94886e-12
8.77173e-13
5.19309e-14
5.15414e-14
1.86335e-11
1.76064e-11
1.09237e-11
3.02268e-13
2.88473e-13
6.53088e-13
8.10134e-13
8.54987e-13
6.91722e-14
4.51845e-14
1.64709e-13
5.54949e-13
1.82674e-12
4.72355e-12
1.0636e-10
2.79281e-12
2.84949e-12
1.21161e-13
5.93317e-11
5.78903e-12
1.79062e-13
8.017e-13
1.78745e-13
2.33077e-13
3.88854e-12
1.7991e-13
1.73102e-12
1.90814e-11
1.56842e-13
1.13581e-12
1.3759e-14
4.21772e-13
1.15371e-11
9.23427e-12
1.00281e-12
4.24596e-12
3.20293e-12
1.90822e-12
3.8639e-11
7.97457e-16
1.47458e-15
7.052e-12
6.04885e-13
5.58453e-14
8.39678e-14
3.33294e-12
3.21413e-11
8.02698e-13
3.06174e-14
2.14262e-12
5.36132e-11
1.56787e-15
9.84905e-13
1.13704e-11
1.46773e-16
3.39065e-12
2.19429e-17
4.03791e-12
1.81939e-12
2.57224e-14
6.2701e-12
0.00842423
5.25521e-14
1.55872e-13
2.20078e-12
7.21268e-12
1.43791e-11
6.13228e-14
3.38526e-12
8.11496e-12
5.0379e-12
3.93132e-14
5.85792e-15
2.30912e-11
1.45007e-13
1.07608e-11
8.72783e-13
2.26454e-11
7.20888e-12
4.91056e-12
3.3853e-12
7.7018e-11
6.04996e-13
3.37792e-13
1.33049e-10
4.87426e-13
2.75075e-12
4.2021e-11
5.96396e-11
5.27904e-12
5.06551e-14
0.0108265
5.21622e-14
7.53415e-12
1.06226e-13
4.99826e-13
6.64016e-13
2.33228e-13
1.50182e-11
1.62383e-12
4.10287e-14
4.38789e-11
3.95103e-15
4.72761e-15
3.0283e-13
4.31234e-12
4.5705e-13
5.83659e-13
1.71718e-12
1.28035e-13
1.15389e-11
2.63076e-15
1.43793e-11
6.39859e-16
5.755e-12
5.11829e-12
8.49945e-14
7.15411e-13
8.13884e-15
1.75263e-12
3.03344e-12
1.84011e-11
2.96371e-15
1.91616e-13
7.41771e-13
5.47399e-15
4.28713e-15
4.71649e-12
1.90634e-12
0.00432086
4.73637e-11
2.81731e-12
1.92621e-13
1.54658e-12
1.9778e-13
1.44988e-12
4.77296e-12
1.45587e-12
2.28438e-13
9.7972e-12
2.40939e-12
1.35363e-11
2.79657e-11
5.89965e-12
1.14175e-12
2.221e-13
2.80324e-12
6.62094e-14
6.10376e-13
3.29385e-15
1.1785e-11
1.52579e-13
3.21371e-14
1.74262e-13
2.34968e-13
6.05733e-14
3.27981e-14
1.01623e-14
1.5446e-11
1.07986e-12
5.53077e-13
7.19807e-14
1.33683e-12
8.91181e-14
2.24295e-13
6.96232e-12
1.53427e-11
4.74862e-13
5.58579e-12
1.1129e-13
7.82168e-14
1.39607e-10
1.98309e-12
2.40529e-14
1.32334e-13
3.89119e-14
1.01065e-11
2.63623e-14
5.56225e-17
8.46668e-13
1.41815e-13
2.38049e-12
6.85923e-12
2.19663e-13
4.09856e-14
8.8564e-16
3.02306e-14
1.64638e-12
1.03558e-11
1.11807e-12
3.5322e-12
1.46834e-13
7.3281e-12
2.04801e-12
1.35947e-12
2.13488e-14
1.97044e-12
4.57101e-10
6.11177e-14
1.13084e-12
3.41799e-12
3.3984e-13
5.3061e-14
6.18282e-11
3.99104e-11
6.61016e-11
1.32504e-11
5.00797e-12
1.21928e-11
1.45614e-14
2.14807e-13
1.04897e-13
2.94987e-11
4.75498e-11
9.01809e-14
1.39392e-12
6.63821e-12
1.35359e-12
3.80358e-13
6.17471e-11
7.04954e-12
8.27772e-15
2.32613e-13
1.38731e-11
7.20156e-13
1.81518e-12
1.86291e-13
4.11469e-12
1.93849e-11
8.38963e-14
3.86021e-14
3.72825e-11
4.18065e-12
2.20485e-11
2.74708e-12
7.5615e-14
1.77076e-12
5.62378e-14
2.02261e-14
9.4212e-14
1.41048e-12
3.4002e-12
4.71544e-14
6.77213e-15
5.8429e-13
8.22058e-15
9.93268e-13
9.62056e-13
7.18856e-12
7.39077e-14
2.51102e-13
1.64498e-16
2.59764e-10
1.02167e-12
9.44723e-15
6.37468e-13
1.40705e-15
5.82761e-15
3.45754e-13
4.41029e-12
1.71984e-12
1.6356e-14
9.66714e-15
5.40035e-13
2.19371e-11
2.78177e-11
8.55182e-11
3.09908e-11
7.63134e-11
1.27182e-13
3.29212e-06
1.34832e-12
8.11715e-12
1.18399e-13
4.33519e-17
1.22525e-13
1.02057e-12
3.07452e-14
2.28941e-11
3.85355e-12
8.52792e-12
1.4917e-14
1.08745e-10
4.11619e-12
3.29792e-14
9.97491e-16
7.09119e-12
3.21167e-14
4.40988e-12
1.69534e-13
1.16411e-11
1.36574e-06
2.71654e-12
7.08807e-12
2.93719e-13
1.30496e-11
5.56374e-12
1.34441e-10
1.01158e-12
2.95003e-14
9.81607e-12
8.65404e-14
6.18795e-12
0.0289324
2.17401e-13
5.88208e-12
2.2799e-13
1.52955e-12
2.187e-11
2.25903e-13
4.63787e-14
5.17038e-12
6.0099e-11
1.77023e-12
5.85099e-14
1.76324e-11
1.9004e-11
3.55907e-13
2.02658e-17
1.41751e-11
4.92389e-14
1.43286e-12
1.73723e-11
3.77222e-14
7.85154e-12
6.32205e-13
6.93262e-13
5.29734e-12
1.52155e-11
2.77322e-11
3.06666e-12
1.62575e-12
1.39712e-14
1.44594e-11
3.11871e-13
2.07254e-14
1.88266e-15
1.63649e-15
1.46591e-11
6.53984e-12
7.95585e-14
4.26039e-12
7.82341e-11
7.3355e-12
1.5675e-12
2.14289e-14
3.59199e-11
4.32753e-14
2.38909e-13
2.04109e-12
3.70272e-13
2.51389e-13
1.07826e-11
2.13268e-12
2.15891e-13
8.11545e-13
3.78334e-13
3.75959e-13
1.16887e-13
1.73722e-12
1.31315e-11
7.47047e-15
1.39773e-13
4.48186e-12
6.59689e-13
1.98329e-12
1.74126e-11
2.97091e-11
1.08297e-12
6.19543e-14
2.84913e-12
5.80588e-11
2.40479e-13
5.30623e-12
4.66477e-12
5.87457e-13
3.29972e-13
1.75945e-11
4.53737e-12
4.38479e-11
3.9667e-13
3.48011e-14
6.26926e-12
5.66902e-12
1.04959e-11
1.247e-12
1.98043e-12
5.57401e-14
5.97869e-14
4.05194e-15
1.5161e-12
1.066e-11
6.85247e-12
2.69384e-12
9.30122e-14
4.53392e-13
7.33016e-12
2.43546e-12
2.1465e-12
9.68764e-13
2.94202e-12
1.53969e-13
9.1778e-14
1.92442e-11
7.55407e-12
3.06604e-12
1.67787e-11
2.91477e-12
4.55358e-14
1.25093e-13
2.53682e-12
3.38385e-12
2.19305e-12
2.63355e-10
1.70207e-15
2.31337e-12
5.93257e-12
1.28616e-12
4.3573e-12
8.66446e-13
4.49986e-16
5.84578e-15
2.74255e-11
2.35859e-13
7.86918e-11
2.52626e-13
9.6677e-12
1.98512e-12
5.1984e-11
2.34041e-13
3.03563e-11
4.36569e-11
4.63995e-12
1.19877e-11
2.18994e-11
3.40725e-12
1.02271e-15
2.44572e-12
2.82485e-14
8.19994e-15
3.47225e-12
4.5065e-12
8.14838e-13
2.6574e-13
7.26995e-13
4.96334e-12
1.03177e-11
9.91206e-15
9.74889e-12
3.43299e-16
1.11692e-12
2.9344e-13
1.69319e-12
3.91064e-12
9.77644e-13
1.68526e-12
1.15353e-12
1.92476e-13
1.13664e-13
1.16793e-12
2.35309e-12
1.17143e-11
1.45182e-11
6.8402e-12
8.95091e-14
1.06553e-14
2.6753e-14
1.01681e-11
1.72784e-13
3.93019e-15
1.37581e-12
3.12362e-12
1.87107e-15
2.40357e-12
2.39507e-15
4.06771e-14
1.09691e-13
2.6895e-14
8.93054e-12
2.07439e-12
3.38818e-14
1.89777e-13
8.27216e-13
8.30953e-12
2.64568e-13
2.92764e-14
2.77381e-12
3.37566e-13
5.69475e-13
6.43865e-14
7.84424e-12
7.26472e-14
2.13848e-14
1.43413e-12
2.00297e-12
6.98544e-14
3.92475e-13
1.23171e-11
2.59695e-12
9.85566e-15
7.45081e-12
4.44134e-13
1.23183e-10
1.02034e-11
2.86271e-13
7.52565e-11
1.34752e-13
4.00694e-13
2.43382e-12
1.21536e-13
2.54258e-14
1.8397e-12
1.38225e-13
1.312e-11
2.32283e-11
8.3593e-12
6.84086e-13
1.0988e-12
8.209e-13
3.29996e-14
6.19841e-14
2.71677e-11
6.15726e-12
2.15712e-11
1.81303e-12
1.47352e-14
5.19233e-12
8.486e-13
4.03667e-12
1.62468e-12
3.00096e-12
4.04122e-13
1.03816e-11
1.55166e-14
2.5e-14
1.19722e-13
1.37046e-13
1.18251e-11
1.43102e-12
2.69539e-13
3.32036e-12
7.93814e-12
2.50443e-12
5.76022e-14
2.03313e-11
4.2123e-12
6.14252e-14
1.20431e-14
4.63408e-14
1.31395e-13
7.50309e-13
5.40501e-14
4.90176e-14
8.02684e-13
4.94996e-08
3.3815e-13
2.76676e-13
1.11314e-14
1.17222e-11
1.98216e-14
2.58945e-11
8.35134e-14
4.28074e-13
7.56581e-14
9.08078e-11
6.36246e-14
2.28932e-12
3.85402e-16
5.51137e-11
8.15614e-13
1.35947e-12
1.33933e-13
2.85123e-12
2.57773e-12
1.21701e-13
1.89159e-13
1.78398e-13
4.88939e-14
9.00914e-13
1.52106e-13
1.48039e-14
9.0585e-14
1.06059e-13
7.60394e-11
1.94707e-11
2.91376e-11
2.39568e-14
7.69606e-12
3.86853e-13
5.91176e-15
8.15472e-15
4.92345e-14
1.73583e-11
1.58389e-14
2.16797e-13
3.53822e-12
4.83327e-11
3.46423e-12
1.55918e-12
3.54097e-12
2.277e-06
8.06535e-13
1.124e-11
1.4711e-13
9.29472e-12
8.86547e-15
4.3714e-13
2.3517e-13
1.59648e-11
2.26674e-14
2.02575e-13
1.45569e-15
1.2453e-10
1.30817e-15
7.91738e-13
1.14992e-12
1.46298e-11
7.81361e-14
1.06186e-12
1.20541e-11
1.26808e-11
2.2904e-15
4.64981e-14
5.96596e-12
1.84976e-12
5.64033e-13
4.3395e-13
7.945e-14
6.42746e-12
2.38505e-12
7.13212e-12
7.08657e-16
1.47058e-11
1.10962e-11
9.83694e-12
2.96051e-11
1.16902e-13
1.47268e-15
6.30299e-11
5.33936e-11
2.09315e-15
2.64365e-14
1.53056e-11
3.50064e-15
2.51351e-11
1.09782e-13
1.77418e-11
1.38045e-12
7.46763e-14
3.79767e-11
6.90089e-12
1.20999e-14
1.46613e-05
3.65113e-12
9.28069e-12
1.94427e-11
6.94032e-13
1.63413e-10
2.30047e-11
4.21e-14
1.23451e-11
1.75425e-11
8.37291e-13
2.23453e-12
1.23928e-11
1.59588e-11
1.55182e-12
1.24875e-12
2.31654e-14
3.89014e-11
8.42175e-15
8.65708e-14
2.47778e-12
2.20585e-12
1.01847e-11
9.65688e-15
8.2541e-15
4.67089e-11
2.66037e-12
7.05715e-13
1.53536e-12
8.72966e-12
8.85727e-12
1.75836e-11
5.75819e-13
4.21148e-12
6.6882e-13
2.16783e-10
3.68218e-14
4.76671e-13
1.82143e-13
7.00763e-13
1.85232e-11
1.21275e-13
3.38782e-11
5.38375e-13
8.02871e-13
6.16012e-12
1.04469e-11
1.56744e-08
3.79601e-12
9.89169e-12
1.75336e-11
2.33631e-13
2.31617e-12
3.02569e-12
2.53594e-11
8.3817e-12
6.70999e-05
3.0716e-14
9.96542e-15
2.81454e-11
6.21881e-16
5.38059e-12
1.69335e-12
2.84544e-13
9.54325e-14
6.97838e-12
1.2517e-12
7.38574e-14
6.89675e-13
3.48259e-12
2.74935e-12
2.44095e-11
4.42568e-13
4.76119e-11
3.47065e-12
3.72838e-13
7.4183e-14
7.04972e-11
3.05428e-13
6.5568e-12
0.270865
9.65168e-14
2.19395e-11
3.90634e-12
6.82492e-12
3.10641e-14
2.20263e-13
2.56406e-12
5.80203e-12
1.77696e-11
4.85436e-13
1.01986e-14
1.28241e-12
1.60106e-14
3.20057e-12
2.47298e-12
9.80139e-15
9.05513e-15
7.38043e-12
2.0094e-11
6.71766e-14
1.3309e-11
1.07606e-11
6.05141e-14
5.09905e-13
3.40561e-12
5.38384e-15
1.99399e-12
1.01075e-10
7.37463e-13
8.75511e-12
8.3425e-12
5.71295e-11
8.70865e-13
5.06216e-12
3.01066e-12
0.0824812
1.30895e-11
1.57605e-11
1.52382e-11
3.12967e-14
1.1644e-12
4.12959e-11
3.29915e-12
8.81468e-14
1.18952e-11
2.04714e-12
3.03287e-13
2.5385e-12
5.31008e-12
1.89576e-13
8.62409e-13
4.40156e-14
1.15167e-13
1.47777e-11
1.24996e-14
1.01779e-13
1.3922e-12
1.2686e-11
4.69018e-11
2.16278e-11
3.4522e-12
0.195613
0.00195191
1.28196e-13
8.62614e-13
1.31379e-11
1.27687e-10
2.06514e-11
1.99111e-12
8.51556e-12
2.0697e-14
3.29125e-14
1.20678e-14
1.39905e-13
2.44078e-14
1.9152e-13
7.54364e-13
9.19014e-14
5.45688e-14
7.56978e-14
3.07028e-11
8.97989e-14
1.15321e-11
3.05115e-12
1.14374e-12
1.78591e-12
9.3092e-12
0.000174436
6.54521e-11
6.55147e-13
1.55277e-12
1.1612e-12
1.26414e-10
1.1398e-11
1.37884e-12
5.54775e-14
2.17372e-15
3.49222e-13
3.80783e-14
5.08553e-12
1.1231e-14
4.77578e-13
1.52073e-10
3.79285e-12
1.97277e-13
8.64963e-14
2.41804e-13
4.2617e-12
3.00521e-12
1.53074e-16
1.07966e-12
2.57427e-11
0.00180907
4.22853e-13
7.90777e-12
1.21259e-12
2.71141e-12
1.6039e-12
1.72522e-11
2.95872e-15
8.04924e-14
1.07199e-12
2.80419e-11
6.84633e-12
1.77003e-12
5.58985e-16
1.68618e-05
5.44466e-14
8.58547e-13
4.73529e-14
6.5871e-13
4.19148e-13
1.12329e-11
1.37658e-12
2.39205e-13
4.10166e-13
7.27028e-12
6.21382e-13
4.56261e-13
5.90708e-14
3.88148e-12
9.59101e-12
0.00204318
4.04477e-12
1.09475e-13
7.49433e-12
1.55135e-11
2.72214e-12
7.59421e-13
7.62262e-13
3.22311e-12
1.98461e-11
2.42417e-14
4.41652e-14
5.52468e-12
5.55749e-13
2.03931e-11
2.30092e-13
4.17993e-13
8.20821e-13
4.57473e-12
8.80492e-12
3.22413e-11
3.82069e-12
1.11359e-11
6.01105e-12
3.5406e-12
0.28728
5.67786e-14
9.60076e-14
1.74685e-11
1.21185e-11
1.97271e-11
4.63085e-13
7.17642e-12
1.17557e-12
2.86911e-13
4.14937e-13
2.16412e-11
1.87535e-13
7.25377e-14
2.36754e-11
0.241806
1.39362e-10
5.15529e-12
2.88371e-11
1.17086e-10
2.17198e-12
1.78282e-13
3.04033e-12
0.0112208
1.58295e-12
1.06461e-12
1.4737e-12
3.98472e-11
1.8637e-13
0.000718873
3.45364e-05
7.30111e-12
3.57759e-12
4.28676e-13
2.90349e-13
1.35834e-12
5.87317e-11
1.17413e-11
4.61385e-15
4.04191e-13
8.97395e-11
1.43821e-12
1.47343e-12
5.59667e-11
9.39875e-14
1.30385e-13
2.55056e-15
1.16616e-13
1.85425e-13
2.83326e-12
4.07246e-14
1.10187e-13
7.80955e-14
5.21576e-13
4.57694e-13
2.76817e-12
1.86298e-13
6.22376e-12
6.91192e-13
1.15942e-14
1.23736e-12
2.87257e-12
8.05188e-11
2.26083e-13
2.61279e-11
4.85869e-13
2.29876e-14
3.8941e-13
4.49879e-13
2.98355e-11
2.79128e-13
3.90376e-15
1.28199e-11
2.54953e-11
1.67988e-11
3.19074e-13
2.09165e-11
4.01174e-13
9.93363e-11
1.51636e-11
1.1654e-11
9.04143e-15
1.88264e-14
4.09091e-11
3.16969e-11
5.91953e-12
1.55068e-14
7.46307e-12
2.29009e-12
1.13944e-11
6.89083e-13
9.9323e-11
4.24514e-12
1.00531e-12
4.99581e-13
2.36681e-12
1.39484e-11
9.19605e-13
2.36755e-12
6.77523e-12
2.1837e-13
2.60755e-12
1.99116e-06
5.94299e-12
2.50202e-17
3.70464e-12
3.18628e-14
2.19474e-13
2.05558e-13
1.06038e-15
9.04732e-13
1.44831e-12
1.48058e-13
0.000121403
8.18118e-12
7.43396e-14
0.00280541
2.45038e-10
2.27572e-11
3.79715e-13
9.38169e-12
9.02097e-13
1.66567e-06
1.56111e-13
3.07408e-11
6.78664e-14
1.08492e-12
1.77386e-11
1.6758e-12
5.42608e-14
0.000121498
3.85288e-12
1.04116e-14
4.88003e-13
0.0151055
3.63357e-12
1.84964e-13
1.06394e-11
1.11051e-11
4.90005e-12
9.55636e-13
4.26423e-12
2.93427e-13
5.31571e-12
8.53309e-14
1.09614e-11
2.15621e-11
3.56958e-11
7.14988e-13
6.34569e-13
1.36105e-14
2.07574e-12
3.93699e-12
1.24252e-11
7.90985e-12
7.63245e-13
2.10336e-12
4.01679e-14
6.89085e-12
3.6016e-12
1.43763e-13
1.52194e-12
3.06337e-11
2.14315e-13
0.0726511
1.93463e-13
1.9807e-14
6.6731e-12
2.6987e-12
5.68185e-14
1.80219e-13
8.98991e-15
2.44029e-13
3.01922e-14
1.32955e-12
9.69747e-14
1.32201e-11
1.0236e-13
5.15222e-12
5.40334e-14
7.48582e-12
2.10551e-11
3.57966e-14
1.29468e-11
1.75684e-12
8.76789e-14
7.81085e-12
2.57269e-13
5.4825e-13
4.56298e-12
5.48375e-13
2.73092e-13
3.43449e-12
3.90146e-13
4.31071e-06
0.00127109
1.50445e-13
1.11545e-11
2.06502e-12
2.26953e-14
1.17942e-13
6.61577e-13
2.62244e-11
2.36253e-11
1.47456e-13
2.58425e-12
5.54707e-13
1.9043e-11
1.19019e-13
4.59856e-13
2.57435e-13
4.0008e-05
2.05831e-14
3.47987e-13
1.22844e-12
2.11976e-13
2.06419e-14
1.05721e-11
1.60858e-11
7.10549e-13
1.60446e-12
5.98491e-12
2.80926e-13
1.84409e-13
6.68157e-14
1.41571e-12
2.61857e-12
4.5441e-14
1.12511e-11
1.74769e-12
1.10644e-12
4.09971e-13
0.00558769
5.4239e-15
1.26953e-11
3.66152e-15
2.40733e-14
5.91289e-13
1.74911e-14
5.13896e-11
4.86113e-13
6.99955e-11
2.03175e-12
1.59652e-13
6.23835e-15
3.40164e-13
2.58342e-11
4.14782e-14
9.72951e-14
7.57372e-14
6.6206e-14
1.61804e-11
6.64643e-15
1.33647e-13
4.45283e-13
5.2622e-07
4.98322e-13
1.31715e-13
4.53913e-13
2.54121e-14
2.66854e-13
7.28529e-15
4.98334e-07
1.00782e-12
4.13068e-14
1.28228e-13
6.09544e-15
1.72931e-14
1.61752e-13
1.11797e-12
2.29302e-13
4.52571e-13
3.81815e-12
4.73749e-16
1.80135e-13
1.79131e-14
4.9482e-13
2.84238e-11
0.00149277
2.25205e-12
8.53255e-12
7.1018e-12
2.72176e-12
1.11688e-11
6.57396e-12
8.8631e-13
4.23177e-12
1.96087e-12
1.9298e-13
1.17506e-11
2.14185e-11
1.51893e-12
2.35828e-11
7.75675e-14
5.02071e-13
3.82658e-14
4.22971e-13
3.7016e-12
1.73316e-11
4.44741e-12
4.13071e-12
1.38904e-12
9.00405e-12
4.64883e-12
1.75993e-11
7.68867e-12
1.0416e-13
1.91884e-13
7.45246e-13
2.0275e-13
5.35134e-11
2.93886e-12
1.66341e-13
6.37312e-13
3.35062e-14
3.25899e-12
4.04273e-12
3.03926e-14
9.49876e-13
5.82248e-13
4.97848e-14
5.62633e-12
8.4948e-13
3.04815e-12
2.35069e-14
1.40563e-15
0.00170756
1.25448e-13
2.09495e-14
1.80806e-13
2.72131e-12
1.23056e-13
6.16583e-13
3.95753e-14
8.27778e-14
4.31597e-12
1.99305e-13
1.26138e-12
8.44541e-13
1.06876e-11
2.35966e-11
4.08935e-11
4.81811e-13
1.15475e-07
1.83961e-14
2.00878e-13
1.24895e-13
0.000305065
1.56401e-13
1.2484e-11
1.56862e-12
1.73535e-13
1.43496e-07
1.01345e-11
4.81882e-12
1.40554e-11
2.58006e-14
3.22813e-12
4.91637e-12
9.52766e-12
3.65053e-12
2.23502e-13
9.11992e-12
5.37884e-13
4.34695e-14
2.21007e-13
8.1404e-12
2.12262e-12
8.97375e-14
2.35633e-11
2.33722e-13
1.01992e-13
6.87615e-15
4.15922e-14
1.22505e-11
8.79772e-15
1.29836e-14
5.78219e-14
1.41163e-16
2.75295e-12
6.00036e-14
6.39956e-14
4.0446e-11
2.17882e-07
1.58673e-12
4.80565e-14
7.27932e-12
1.64195e-13
8.26841e-14
2.26779e-13
2.64806e-11
2.59289e-11
1.76527e-13
0.00165849
7.82454e-11
1.00112e-13
1.66484e-11
2.17729e-14
8.60843e-14
1.32127e-13
5.1203e-11
1.36425e-11
4.60312e-13
7.80396e-16
4.84192e-11
1.51456e-14
1.76327e-14
5.76101e-13
1.10836e-12
9.95847e-13
3.30194e-15
4.96561e-12
2.30041e-13
5.82887e-11
7.2514e-13
1.12304e-13
5.94128e-14
4.37892e-13
3.22399e-15
1.38861e-13
1.29669e-11
1.13278e-11
1.05313e-13
1.31722e-12
1.32673e-14
1.63094e-12
5.66127e-12
6.30922e-14
2.58284e-12
8.75329e-10
2.30747e-15
1.61278e-11
6.98047e-13
3.882e-11
2.13569e-12
4.99736e-13
1.51639e-12
5.54294e-12
2.17643e-12
3.06876e-13
9.90782e-14
8.37792e-14
4.41378e-12
6.45128e-15
4.56431e-13
1.54342e-14
2.28646e-12
4.6781e-14
1.97488e-12
8.04894e-13
1.1436e-13
6.6791e-13
3.41064e-13
1.01359e-11
1.71685e-11
5.758e-13
9.76945e-13
7.99796e-13
5.27638e-13
3.56468e-11
3.01842e-13
2.96594e-13
7.362e-12
4.7545e-12
8.45795e-12
4.91588e-12
1.10314e-11
6.92077e-12
1.60301e-12
8.80304e-12
1.96232e-14
2.27931e-11
1.52517e-12
2.72791e-14
3.79518e-11
3.8239e-12
4.91275e-14
7.94022e-12
1.43533e-11
1.45509e-13
3.46784e-13
9.91856e-15
3.80208e-12
3.96346e-12
1.00135e-13
1.03094e-13
8.23852e-12
6.12667e-14
6.69799e-12
1.96404e-12
1.14101e-12
6.25973e-15
2.90316e-12
5.01336e-13
4.12848e-13
7.43264e-13
1.76169e-11
9.03797e-12
7.8133e-14
1.67118e-11
2.23856e-11
6.49533e-15
8.74273e-13
2.21647e-12
2.65367e-11
8.16658e-16
2.67132e-14
3.78665e-13
3.14102e-12
7.30564e-12
3.75973e-14
2.59531e-13
1.01333e-13
1.29789e-14
2.51618e-12
1.80174e-11
6.38207e-13
2.89464e-12
2.10622e-13
2.45254e-12
3.02351e-12
1.23441e-11
6.0449e-13
1.54418e-12
1.00385e-11
5.86831e-12
2.78013e-11
7.10571e-13
1.26728e-11
3.69488e-11
8.51879e-13
5.04153e-13
3.89154e-12
6.62884e-13
7.21613e-15
6.55284e-15
1.19161e-13
5.7461e-12
9.35776e-13
2.10081e-13
1.83031e-13
1.06759e-12
6.31399e-13
1.41899e-13
3.40384e-12
7.39902e-13
3.70825e-13
9.59604e-11
2.29273e-13
1.46487e-11
3.17746e-13
6.50261e-12
1.88084e-12
1.95291e-12
6.40552e-13
1.58806e-12
2.41351e-13
1.31656e-13
4.08277e-12
1.18569e-10
1.83342e-13
1.6119e-12
1.27023e-13
3.19129e-13
2.74252e-13
1.95112e-12
1.11729e-11
8.19537e-13
3.07842e-11
1.70128e-12
1.80561e-12
7.15671e-12
3.69362e-13
1.89427e-10
2.61089e-12
2.27883e-12
2.24003e-14
1.49233e-12
1.11851e-11
3.5882e-12
2.13507e-12
2.98429e-12
2.71947e-14
8.51839e-12
2.58697e-12
1.84836e-11
3.63727e-12
5.62538e-12
1.77603e-12
1.55797e-13
1.18892e-11
1.11156e-12
7.85803e-11
8.99547e-13
2.90733e-13
4.23869e-13
1.19275e-13
3.34487e-12
9.11323e-13
1.15761e-11
1.15148e-11
1.80908e-11
5.59644e-12
1.712e-12
6.52121e-13
5.05396e-13
1.1714e-11
2.09095e-14
9.89029e-14
2.10128e-13
3.55474e-11
1.32199e-12
5.85448e-12
2.95582e-12
3.04266e-12
3.26425e-13
4.44736e-13
9.33455e-15
2.4944e-14
1.60506e-11
7.55041e-13
8.54903e-13
7.01595e-12
1.03972e-12
4.2471e-11
1.54376e-12
8.43595e-13
7.61902e-14
6.39205e-13
1.25155e-12
4.6868e-12
2.03727e-11
1.82234e-13
2.45244e-12
8.29398e-13
9.53127e-11
1.43135e-13
1.971e-12
1.74175e-12
1.03978e-12
1.69459e-12
5.21245e-14
2.80979e-12
9.41912e-14
4.49809e-12
4.38461e-13
2.30841e-12
7.36947e-13
1.76227e-12
1.23465e-13
0.0996843
4.35948e-12
1.78626e-11
4.89534e-12
7.82641e-13
1.58755e-12
2.1809e-13
1.89247e-11
3.44621e-12
1.10708e-10
8.18961e-12
7.23604e-14
4.814e-13
4.07436e-12
9.47831e-13
2.60644e-12
3.20055e-14
1.51933e-11
2.08939e-11
7.56483e-13
4.27338e-12
1.36457e-11
3.37052e-07
3.11603e-12
4.22142e-13
6.82853e-13
2.19662e-11
1.17235e-10
8.13784e-13
8.12553e-11
1.6609e-13
9.31806e-12
1.32803e-12
1.77513e-11
2.99613e-14
2.83087e-14
2.51705e-11
1.58142e-10
2.37464e-13
5.63336e-13
2.49922e-11
9.14985e-12
2.59187e-11
3.88075e-14
2.98794e-06
3.68362e-14
4.24976e-11
1.7561e-13
2.34096e-11
6.51673e-13
4.25466e-13
2.00889e-12
1.16848e-12
1.60414e-10
5.46375e-13
6.81201e-12
1.29137e-13
1.19804e-11
6.93853e-15
3.80849e-11
2.57739e-12
9.8764e-12
1.22486e-13
2.61472e-12
1.52393e-11
9.02267e-12
1.95891e-13
5.63081e-14
2.32539e-11
5.47123e-18
2.28431e-13
2.05845e-13
2.83409e-14
5.31936e-12
1.09448e-10
1.047e-12
1.98624e-13
1.17076e-11
2.1411e-13
3.66439e-13
1.61496e-11
1.86642e-13
6.71359e-13
2.35816e-12
1.31799e-11
1.1561e-12
3.37348e-12
1.26578e-13
2.17001e-12
1.0966e-12
2.79214e-11
2.20822e-12
2.60773e-11
3.72134e-13
1.44494e-11
1.75311e-13
8.3487e-14
6.67725e-11
5.06613e-14
2.35665e-12
1.37097e-15
1.00022e-13
1.53435e-10
3.48746e-13
7.64911e-14
5.58919e-12
2.68636e-14
1.44136e-12
2.41077e-11
9.56656e-13
5.60309e-12
2.47347e-12
2.81025e-15
2.30155e-11
1.36414e-12
7.57358e-12
1.70426e-12
6.97763e-13
1.5659e-12
1.46054e-11
2.43788e-12
1.73172e-13
3.23643e-13
3.38897e-12
1.21677e-13
4.86869e-12
9.96304e-13
1.26149e-11
1.75098e-13
1.14617e-11
1.10528e-13
5.55098e-13
9.27009e-12
2.46771e-12
1.92781e-12
2.09641e-12
7.64374e-12
2.51425e-12
2.62982e-12
1.47663e-12
3.19442e-10
6.09037e-12
2.678e-12
3.00219e-12
1.00931e-12
2.29288e-11
9.77884e-15
1.31337e-13
3.19947e-12
9.78465e-12
3.39225e-13
2.34535e-11
1.2189e-13
2.20706e-12
5.24731e-13
6.83047e-13
1.11604e-10
1.75317e-12
1.5999e-12
4.38362e-13
1.54369e-12
2.09049e-12
5.52206e-15
1.3964e-12
1.00012e-13
1.62667e-11
6.90891e-13
2.72745e-12
8.56577e-11
4.76577e-14
7.30938e-11
3.74481e-13
3.32416e-13
6.53602e-12
1.10762e-12
7.73495e-11
1.52117e-13
1.38922e-12
2.94685e-11
3.75677e-11
5.4064e-13
5.91546e-12
1.13949e-11
4.9593e-13
9.79265e-13
9.20434e-13
4.93812e-11
1.25045e-10
1.58383e-13
5.77806e-13
4.64867e-12
1.51204e-11
3.38485e-11
7.91446e-13
3.54845e-13
3.37229e-13
2.10258e-12
3.21462e-13
1.88747e-11
2.49609e-12
3.76022e-11
1.47639e-11
2.64684e-10
1.0598e-12
5.16818e-13
1.3399e-13
0.000228716
7.82199e-14
1.58413e-11
1.40944e-14
2.081e-13
2.54203e-13
4.56728e-12
5.34718e-11
2.6489e-13
4.1192e-12
8.8577e-13
1.6351e-11
1.00136e-11
5.23002e-13
3.41937e-11
1.04588e-12
1.99796e-12
4.85806e-12
5.87686e-12
8.84366e-13
2.05354e-12
2.58751e-14
7.82766e-12
2.7894e-13
8.11216e-12
1.61965e-11
3.55858e-11
1.22546e-11
1.67599e-14
1.0931e-11
8.20072e-12
4.50102e-13
9.20355e-14
4.77067e-12
1.58033e-12
4.61582e-12
3.88141e-13
2.828e-13
1.7281e-12
7.35354e-13
9.36833e-12
1.14193e-11
5.78835e-13
2.62702e-11
1.29717e-11
1.01762e-10
8.52574e-13
2.66219e-11
4.98481e-13
1.27544e-11
2.07946e-12
4.58964e-11
1.84764e-13
1.5197e-13
8.80757e-13
2.01269e-12
1.82408e-12
3.22964e-12
1.76242e-11
2.12893e-11
7.54789e-15
1.04504e-12
1.36186e-11
5.46247e-13
2.76305e-14
1.07744e-11
1.76366e-12
1.6082e-12
8.55238e-14
6.1251e-14
3.08592e-11
1.66226e-12
1.11679e-11
3.78718e-12
3.20553e-12
5.85285e-12
3.43726e-13
3.23557e-14
1.65958e-11
2.29507e-12
9.997e-13
3.92191e-12
1.0914e-11
6.69019e-13
2.4572e-12
5.00756e-18
4.4279e-12
3.01497e-11
6.89345e-11
1.06769e-11
8.95824e-11
8.11418e-12
3.5124e-14
5.55485e-12
1.3014e-11
1.01107e-11
1.01232e-12
5.93715e-13
3.2701e-13
1.12134e-13
2.11512e-12
6.70081e-12
1.39728e-11
8.58423e-12
6.35705e-14
2.46563e-12
1.22198e-12
2.93066e-06
8.89588e-12
2.01382e-12
4.43474e-11
1.22462e-12
3.12091e-12
2.70671e-12
9.93004e-13
2.23299e-11
5.56812e-13
7.32128e-17
5.5138e-16
8.01796e-12
3.22974e-12
6.87136e-12
6.53444e-12
4.53494e-12
3.45025e-14
6.73283e-12
1.66285e-12
2.81669e-12
8.77411e-07
4.59972e-13
2.57547e-12
4.39615e-12
7.61029e-11
3.9245e-13
5.51298e-13
4.5369e-12
7.02488e-12
2.63588e-12
5.5383e-12
1.38997e-11
6.24491e-12
1.68739e-11
1.35912e-11
6.30047e-15
1.70195e-12
1.86081e-12
1.53322e-14
1.05525e-12
1.61742e-12
2.00959e-13
4.68432e-12
2.77941e-14
8.7931e-12
4.0268e-13
4.88279e-13
1.16866e-12
5.20827e-13
1.45915e-13
1.12003e-12
4.84697e-12
1.96979e-12
7.46902e-13
1.89013e-12
2.42902e-12
3.72087e-13
1.50844e-11
5.057e-12
2.39365e-13
9.8886e-14
1.98842e-13
4.3953e-13
6.96235e-13
1.5016e-13
2.25914e-12
2.56546e-11
1.13711e-13
7.59002e-13
2.61326e-11
3.8314e-14
5.62066e-14
1.95166e-11
1.08421e-11
1.16725e-11
1.97981e-12
2.23657e-12
2.38909e-13
6.02751e-11
4.29081e-12
7.79141e-11
6.13945e-11
1.66379e-11
9.16033e-13
1.59106e-11
2.6227e-11
1.25656e-13
2.81114e-11
3.6904e-12
2.94272e-13
7.51862e-12
2.39094e-14
8.02511e-12
7.01423e-13
1.2887e-12
8.70825e-12
1.15247e-13
1.78819e-11
1.39045e-12
2.3049e-13
1.10059e-11
5.40908e-11
1.80342e-13
3.20558e-11
1.53217e-12
1.97192e-11
5.12689e-13
1.44439e-12
2.36631e-12
1.49738e-12
6.27856e-13
1.85691e-12
3.63554e-12
4.76708e-12
3.72864e-13
1.15425e-12
1.063e-10
1.37056e-11
1.37637e-11
1.01045e-11
5.61576e-12
1.85611e-12
8.90854e-12
1.51541e-10
5.3694e-12
8.46733e-12
2.22346e-11
5.17842e-12
3.48284e-13
1.91619e-10
4.32537e-11
2.08184e-13
1.53659e-10
9.94618e-13
2.29654e-11
6.58532e-13
2.95164e-13
0.000126613
4.1387e-12
4.92985e-12
1.45735e-12
5.33399e-12
1.12612e-14
1.01027e-11
1.7551e-11
1.18816e-11
3.11813e-11
1.09586e-11
5.06003e-13
4.91843e-11
3.72878e-11
8.67739e-13
7.83244e-12
1.99038e-12
4.26565e-12
8.54858e-12
4.43888e-12
1.3254e-11
2.38279e-11
2.17977e-11
1.50846e-12
1.25684e-11
1.9266e-13
6.10006e-15
1.32187e-10
3.79754e-14
1.77907e-14
5.33496e-12
5.35283e-13
3.21405e-11
9.54093e-13
1.1243e-10
3.23302e-12
1.38463e-12
2.47277e-13
5.14904e-11
1.24423e-11
2.93187e-14
0.0137321
5.65432e-15
8.18993e-12
5.52726e-13
1.42242e-12
7.70461e-13
6.52882e-13
1.21353e-12
8.1926e-12
4.77966e-16
3.26021e-12
3.20802e-12
6.91261e-12
9.48478e-13
8.68803e-15
9.61921e-15
1.08786e-12
4.06285e-13
2.18873e-12
1.22253e-10
9.55716e-12
5.71734e-11
5.29052e-11
5.11409e-12
6.43896e-12
1.76895e-11
1.56325e-10
8.85725e-15
9.90474e-14
7.08221e-07
1.82513e-14
4.13734e-13
1.4231e-12
2.80575e-12
8.0638e-13
2.50412e-11
4.35069e-15
5.70883e-14
3.33192e-11
4.70014e-11
2.77086e-12
5.23385e-12
1.8829e-12
1.32581e-10
1.89189e-12
1.52378e-10
5.40196e-11
4.74801e-12
1.1585e-12
4.19946e-13
3.84288e-12
9.76876e-12
1.26845e-13
2.79516e-12
3.73239e-12
1.68231e-14
1.54474e-12
8.06439e-13
1.18416e-12
3.54922e-12
1.43119e-13
2.30356e-12
2.07339e-11
2.58818e-12
7.67762e-13
2.33172e-11
3.50525e-11
2.30734e-11
4.83131e-12
2.95002e-11
1.48228e-16
1.019e-12
5.66672e-12
2.62886e-12
6.11337e-12
6.33766e-12
4.42799e-12
4.55108e-14
2.71008e-13
4.52825e-12
9.5829e-12
5.10702e-12
1.23934e-10
7.51593e-12
5.82325e-12
6.98667e-15
7.90664e-12
1.8711e-13
3.18867e-12
1.17497e-11
3.69353e-12
2.28017e-11
2.36559e-11
5.30966e-11
5.41921e-13
3.32842e-11
3.86807e-05
7.11678e-13
2.34319e-13
4.0776e-14
1.58164e-12
1.2902e-11
5.48497e-12
9.98565e-11
3.78927e-14
1.4146e-13
4.97226e-13
9.13328e-13
5.31528e-13
4.18543e-12
9.07965e-13
5.92017e-13
2.52081e-12
6.14643e-12
1.04759e-12
1.70156e-12
1.04903e-11
5.56516e-13
5.01927e-13
1.68536e-12
9.32643e-13
9.70454e-10
1.57846e-11
1.08265e-11
3.96879e-12
2.35465e-12
2.14244e-11
2.88546e-11
5.289e-12
4.96791e-12
1.67098e-11
5.65895e-12
9.74204e-13
3.77201e-15
1.07136e-11
3.13654e-12
6.21542e-13
8.43367e-13
7.61013e-12
4.99902e-13
2.52638e-12
2.82622e-11
2.66051e-13
2.79437e-12
2.66775e-11
4.38405e-12
5.26452e-12
1.50914e-12
1.27061e-12
2.61957e-12
7.21475e-13
1.27561e-15
8.26082e-12
8.42379e-12
7.01305e-13
4.63669e-13
1.60449e-10
2.25424e-11
6.28093e-11
5.76543e-12
8.07328e-13
8.7696e-13
9.16382e-12
4.37927e-13
9.18604e-12
2.36565e-11