/*--------------------------------*- C++ -*----------------------------------*\
  =========                 |
  \\      /  F ield         | OpenFOAM: The Open Source CFD Toolbox
   \\    /   O peration     | Website:  https://openfoam.org
    \\  /    A nd           | Version:  10
     \\/     M anipulation  |
\*---------------------------------------------------------------------------*/
FoamFile
{
    format      ascii;
    class       volScalarField;
    location    "24";
    object      SgP;
}
// * * * * * * * * * * * * * * * * * * * * * * * * * * * * * * * * * * * * * //

dimensions      [1 -1 -3 -1 0 0 0];

internalField   nonuniform List<scalar> 
111485
(
1.6146e-09
1.67443e-06
5.52267e-07
5.87052e-12
1.41049e-07
2.50239e-09
2.69358e-07
1.04342e-08
2.57005e-07
2.44492e-08
5.07666e-07
2.08245e-08
1.33508e-07
0.00517185
1.3288e-07
2.68616e-07
0.00386363
1.6073e-05
1.67605e-08
2.51708e-08
0.000692782
2.32223e-10
5.04459e-08
1.75269e-07
9.07637e-07
2.1699e-09
2.06703e-08
3.20647e-07
4.8968e-08
0.000902614
6.61358e-08
3.55229e-09
6.33272e-09
2.5552e-08
1.34961e-05
1.80201e-06
0.00241776
0.00379943
4.25933e-05
7.02479e-08
0.000722329
1.62596e-08
5.38938e-08
2.02649e-06
2.89875e-07
3.90989e-08
1.22801e-07
1.51668e-08
1.29177e-07
1.45521e-08
2.8865e-08
3.58164e-07
1.0271e-08
1.77069e-07
3.4805e-08
1.17827e-09
2.80437e-08
4.18562e-10
8.74021e-07
8.59679e-09
1.88383e-08
5.82187e-09
1.82654e-06
1.08077e-07
1.50058e-07
5.48315e-07
6.81444e-06
2.31466e-08
1.40562e-06
3.05091e-06
9.56493e-07
2.08743e-06
2.161e-07
1.72713e-06
5.78076e-09
2.82481e-09
1.11469e-09
1.46866e-08
1.98146e-09
5.24467e-07
0.00496752
0.00922214
9.26221e-10
2.17912e-09
3.23234e-07
7.47866e-07
0.00249489
1.40615e-07
4.3949e-06
1.51066e-07
2.89555e-08
1.30136e-07
9.01432e-07
8.29267e-09
3.99082e-08
4.24165e-10
0.000505051
2.71365e-07
2.86506e-05
8.28275e-06
6.95986e-10
5.62174e-08
3.54574e-08
2.27882e-07
1.29406e-07
2.62175e-07
1.91509e-10
3.39979e-09
2.55589e-07
1.17406e-05
9.28396e-07
2.11329e-08
2.44307e-07
1.3658e-06
5.61939e-09
6.90475e-09
1.56222e-09
1.64877e-07
4.54044e-07
1.57017e-10
1.14414e-09
3.36044e-06
0.00124904
4.51687e-08
8.27166e-07
0.00053096
1.97688e-06
3.27946e-07
1.75843e-11
5.56499e-06
2.82805e-06
3.67174e-07
0.000884791
3.1702e-06
1.4786e-06
3.55438e-09
1.98271e-10
1.22091e-08
2.13376e-07
4.17353e-07
1.37094e-06
3.27343e-09
0.00317053
1.74392e-06
5.96855e-07
6.14022e-08
2.29656e-10
8.35126e-10
2.22216e-09
1.97826e-08
6.01272e-07
0.000530829
0.0019784
2.3796e-07
1.18492e-06
1.52854e-09
7.49994e-08
2.98872e-06
1.61697e-05
1.09077e-07
7.85675e-11
5.29375e-09
7.24516e-07
1.12089e-06
1.3443e-06
1.02148e-06
1.19786e-07
0.000451772
2.75012e-05
2.19862e-06
4.09121e-11
2.10792e-09
0.00347382
2.78581e-11
5.43023e-09
7.78524e-08
8.01035e-09
1.63475e-07
4.10205e-09
9.99635e-08
1.4826e-07
4.98343e-09
2.64737e-08
7.28673e-09
4.98612e-08
4.08059e-07
1.95807e-07
8.36263e-07
6.43349e-06
5.52426e-09
1.19752e-06
9.08022e-08
1.31593e-07
4.02624e-07
1.10226e-07
2.3348e-07
6.25713e-08
2.46558e-08
2.00859e-08
1.54274e-07
3.48522e-08
2.79677e-05
1.45005e-06
1.10241e-08
3.05502e-08
1.11923e-07
2.17854e-07
2.01673e-07
2.89721e-07
7.10936e-08
8.25118e-08
1.46585e-07
1.41226e-07
1.19932e-10
1.67402e-06
5.06384e-06
7.10107e-09
3.13258e-10
2.3757e-07
3.86092e-07
1.84884e-08
1.35315e-09
3.427e-07
2.66204e-07
5.03908e-06
1.16126e-10
2.21862e-11
6.62415e-07
7.3778e-05
4.10525e-07
1.72644e-06
3.00853e-07
1.75795e-08
0.00255738
6.5277e-07
2.23686e-07
0.00284593
1.38594e-09
1.06376e-06
5.09998e-07
4.72404e-07
6.26342e-07
1.17582e-07
7.49332e-08
3.31489e-05
7.48925e-09
1.44422e-07
1.48457e-09
1.09339e-07
0.00240182
3.5799e-07
4.16321e-07
4.01634e-07
2.51623e-11
3.63974e-06
1.53805e-08
5.71073e-09
1.21268e-06
0.0018045
1.5534e-09
1.07035e-07
1.06327e-06
1.83133e-08
6.55651e-11
1.24032e-07
1.51261e-11
9.67753e-10
1.24521e-08
0.00296841
6.60951e-08
5.49496e-07
2.03886e-08
0.00311014
3.59076e-07
1.70069e-08
4.24304e-06
6.34188e-08
2.20953e-08
9.40883e-09
1.83763e-09
0.00203332
7.08976e-09
7.7618e-07
4.26479e-07
2.70393e-11
0.00382765
0.00466912
3.44278e-08
6.15602e-06
5.90173e-07
5.79724e-08
1.50573e-07
2.43803e-07
1.64548e-10
1.32464e-07
3.20403e-10
6.31599e-06
4.94334e-06
2.85999e-07
3.6119e-08
0.00605995
6.04276e-09
0.00144089
1.4307e-08
1.20739e-07
2.25095e-10
2.20144e-09
0.000461978
6.41769e-08
2.89636e-08
1.27654e-07
2.94564e-06
7.10777e-09
4.57836e-07
7.73341e-10
3.91569e-09
8.85766e-08
7.59411e-05
0.0044119
5.89583e-08
1.39829e-05
1.75249e-10
1.02052e-09
4.48518e-10
1.49392e-06
2.61625e-08
1.50064e-08
5.71653e-08
1.29229e-08
1.32055e-06
0.00112862
9.74386e-08
1.03298e-08
5.6541e-08
3.04376e-08
0.000795746
9.2793e-07
1.07582e-08
1.66806e-08
8.51697e-09
2.46308e-07
2.6846e-09
0.00264758
4.35114e-06
8.66976e-09
7.01465e-08
4.8515e-06
1.17669e-08
0.000652047
2.56394e-09
2.11682e-07
1.05866e-07
8.81331e-09
3.5989e-07
1.7563e-07
6.86252e-09
9.12858e-09
2.18188e-08
5.51666e-08
0.00639204
5.44473e-07
1.3422e-09
0.000882312
3.22562e-07
4.19978e-10
8.77425e-09
2.20366e-09
0.000880199
1.23678e-05
0.000856222
0.000824261
6.38671e-09
2.16557e-10
2.64986e-08
5.11415e-08
3.45322e-11
1.81874e-07
4.43517e-08
2.8324e-07
5.01448e-07
2.54467e-06
8.0796e-08
1.25793e-05
2.18842e-08
7.92949e-08
8.86569e-07
1.23007e-08
1.25819e-05
5.51638e-09
2.34019e-07
5.82179e-08
0.000503811
1.99465e-09
1.3533e-09
0.00272059
1.41994e-07
0.00538822
7.80711e-09
1.13314e-07
6.17832e-08
1.32591e-10
9.76559e-08
8.28726e-07
1.68786e-09
0.000596757
7.48291e-08
4.9444e-08
1.66372e-08
3.30908e-10
1.31581e-05
3.50261e-10
1.59677e-07
6.68831e-08
1.4349e-12
1.79269e-08
9.08554e-07
0.00433043
2.60196e-06
3.90386e-11
1.43992e-06
1.75439e-06
1.76447e-06
6.62372e-07
1.17804e-05
4.47538e-08
1.94896e-05
9.26332e-07
0.00372733
4.17979e-06
3.7969e-09
1.34647e-07
2.62178e-08
1.94482e-09
2.4345e-05
3.90708e-06
1.39138e-06
2.95692e-08
3.11668e-08
2.42165e-07
3.65032e-09
0.00636073
3.644e-08
6.17793e-07
8.45071e-05
1.68924e-06
2.48042e-05
1.23024e-09
0.0044933
0.0060138
4.11837e-10
6.51542e-07
5.24804e-06
1.9969e-06
6.19476e-11
4.8045e-07
4.33312e-10
0.00501148
1.37127e-06
3.70945e-07
2.08313e-06
5.38241e-07
4.64441e-09
8.49947e-08
1.35142e-08
1.33644e-06
2.93078e-09
1.79445e-08
0.000977565
1.7399e-06
1.79275e-09
2.0794e-09
7.27737e-06
1.54071e-09
3.14538e-08
7.96544e-08
6.74824e-11
1.06071e-06
1.66737e-09
0.0013848
8.49257e-09
4.4708e-08
3.12711e-09
4.26519e-06
8.87437e-09
0.00396982
3.95529e-07
0.00416035
5.48587e-10
1.13918e-06
4.68536e-08
6.06177e-11
0.0064676
0.0025151
5.3179e-07
6.97059e-08
5.65348e-07
1.49573e-08
2.54362e-07
6.79834e-09
6.91641e-07
0.00507381
1.05608e-09
2.29654e-08
1.93677e-06
3.25175e-07
0.000986909
1.04539e-07
2.00713e-06
3.0234e-08
2.79436e-08
1.30042e-05
0.00136538
2.36187e-07
9.63549e-09
2.21565e-08
7.73143e-08
6.03231e-08
2.31132e-08
4.0091e-07
2.10346e-11
3.03604e-05
2.05406e-09
6.51564e-09
4.78985e-09
1.78741e-06
5.00128e-10
1.47787e-07
4.12103e-09
1.64108e-07
1.3203e-09
0.00205258
0.00198849
4.43024e-07
6.24317e-09
0.00108549
0.00150905
5.61976e-09
4.16243e-09
2.69814e-07
3.85433e-09
2.70372e-06
2.88587e-07
2.31005e-07
0.000795452
3.85296e-08
9.12592e-11
8.21755e-07
8.14218e-07
1.13131e-06
2.19226e-08
3.41043e-07
2.60578e-07
2.67351e-08
1.87751e-08
4.11811e-07
6.29696e-07
1.48722e-10
0.00225784
1.30851e-06
8.71136e-07
3.42233e-08
2.07343e-05
6.30521e-07
8.69697e-06
4.06506e-05
6.15238e-06
4.56557e-08
1.68657e-06
2.27899e-07
4.27806e-07
0.00205729
3.5246e-06
1.31362e-06
6.51979e-05
0.00135801
5.90075e-09
1.1477e-06
8.13618e-08
6.15104e-07
1.13998e-08
8.74676e-06
4.91116e-05
9.66072e-06
2.98882e-06
4.66222e-07
2.04559e-08
6.24722e-09
3.45362e-06
2.70625e-08
1.4515e-09
5.38009e-11
9.0511e-09
7.94218e-10
3.96563e-07
3.00541e-11
0.000651099
2.74854e-07
6.31944e-07
0.00181073
0.00561852
1.01854e-06
3.17885e-08
0.00069147
6.91654e-10
3.92413e-07
3.2944e-09
9.87013e-09
8.02219e-07
4.38596e-07
0.00208407
5.17029e-07
3.92804e-09
6.43736e-08
6.03254e-07
0.0025301
1.41522e-07
5.37416e-07
1.04172e-06
0.00345378
0.000696082
5.42008e-08
3.3675e-07
1.31935e-07
4.63753e-08
1.528e-07
1.69823e-08
6.37182e-07
7.32419e-08
3.52936e-08
2.15238e-08
7.68637e-08
1.27503e-05
5.44939e-07
6.46672e-08
7.47478e-08
1.22975e-05
4.31776e-09
9.41722e-09
2.93537e-07
8.64457e-08
3.01874e-07
2.108e-08
6.90515e-08
4.05271e-08
5.42122e-07
3.1482e-06
2.87539e-07
5.76188e-07
3.19128e-08
9.50786e-09
7.62986e-07
9.93212e-08
2.16255e-09
0.00129589
6.24317e-10
0.00241335
1.01208e-06
0.000235602
1.31392e-08
0.000492524
8.30315e-08
2.20542e-07
3.24814e-10
1.86149e-07
6.00056e-09
4.14004e-10
2.01168e-08
0.00497953
2.17156e-06
5.65316e-07
0.000762504
2.27154e-09
4.14067e-10
1.13455e-07
3.18508e-08
1.49041e-06
9.77636e-09
2.40155e-06
6.48496e-10
1.32312e-07
2.30953e-06
0.00300382
9.07675e-12
3.6805e-09
2.81714e-08
4.07941e-10
2.27545e-06
9.09595e-09
0.00104532
1.35465e-08
1.12917e-09
4.47595e-09
0.000759289
9.0359e-08
2.84669e-06
1.86952e-11
8.43224e-05
1.55661e-05
0.00323412
2.53223e-10
2.562e-09
8.3293e-08
4.74577e-07
7.52288e-07
9.56893e-06
6.51807e-06
4.59385e-06
1.03274e-07
0.00105399
5.30548e-07
2.00874e-08
1.45573e-09
2.4499e-08
4.95185e-09
3.75973e-09
1.14115e-09
2.621e-11
3.43131e-08
1.36267e-09
8.44655e-09
1.89679e-08
3.06609e-09
9.25283e-09
4.66596e-09
1.48e-08
4.55656e-09
3.25046e-07
3.34297e-07
8.77099e-09
7.27213e-10
4.61434e-07
2.14528e-11
1.55227e-06
3.48115e-08
8.66456e-08
2.98486e-09
8.41293e-11
2.18288e-10
4.53334e-11
3.21235e-07
2.07256e-09
1.18401e-08
3.87554e-07
2.20435e-10
2.8553e-07
1.4186e-06
6.95471e-08
1.45194e-08
9.45516e-06
5.22394e-08
0.00443661
2.0002e-06
2.05938e-07
0.00376583
1.47758e-06
1.6237e-07
5.34625e-07
1.03283e-08
3.45566e-07
0.00169275
1.23239e-05
1.65006e-08
3.91638e-09
2.46313e-07
1.53513e-06
1.76453e-06
1.36604e-06
7.70175e-11
4.74209e-13
1.24223e-08
6.72915e-07
5.6284e-08
6.95804e-08
3.29077e-06
4.34096e-08
6.21202e-07
1.41078e-10
2.85865e-09
0.000558345
2.01445e-07
5.29773e-09
2.09243e-09
8.89237e-07
2.2579e-06
3.38361e-08
8.19116e-09
0.000759968
3.61524e-11
5.8796e-07
0.00106067
6.46645e-10
0.00125279
7.65023e-07
0.000617688
8.8572e-06
5.53932e-09
5.23759e-07
3.40074e-07
0.000852497
9.91329e-07
2.26702e-05
0.0028575
2.06851e-06
2.59307e-07
2.11223e-08
1.14327e-08
0.0085566
0.00286183
3.18653e-09
0.00418729
2.93779e-07
2.98099e-06
7.42478e-07
3.71834e-07
2.0789e-05
6.92839e-07
2.64546e-07
1.28337e-07
1.5293e-08
2.26733e-08
0.000765769
3.39147e-09
1.10787e-06
6.8679e-07
9.86702e-10
8.4598e-08
0.00383108
9.342e-08
6.27012e-09
1.06558e-05
8.16365e-10
1.97387e-08
0.00390386
7.82573e-09
0.00328897
0.00629392
2.29008e-05
4.19178e-07
1.87351e-08
6.2568e-08
1.04989e-06
4.62413e-06
2.04378e-05
5.40589e-06
7.88527e-08
0.000762799
1.98222e-06
6.0613e-10
6.40588e-06
5.19819e-06
1.15473e-05
8.38351e-06
1.61158e-05
3.07384e-06
1.03594e-10
1.28445e-06
7.48316e-09
1.3805e-08
2.66192e-05
0.00614116
4.34363e-09
5.61137e-09
5.71738e-05
6.252e-05
4.24083e-11
1.1187e-05
9.8824e-09
2.28914e-10
3.46024e-10
7.70127e-09
1.06332e-07
8.23734e-09
1.36745e-06
0.000856335
5.60321e-11
1.36611e-08
7.90845e-05
0.00205623
1.44455e-06
1.08439e-09
0.000544609
7.0187e-11
2.46669e-06
5.40541e-10
8.52196e-10
1.07839e-05
0.00229199
3.0617e-08
2.00282e-09
3.2688e-09
0.000593828
8.51004e-09
0.000388429
4.64486e-09
2.1598e-06
1.38099e-10
3.85872e-05
4.36258e-08
4.33032e-11
1.79255e-08
9.73832e-09
2.73381e-05
1.62588e-08
3.73141e-09
3.52936e-08
8.50335e-05
0.000907106
1.32973e-06
1.0531e-05
2.03894e-05
4.01406e-09
2.25258e-05
1.80774e-07
3.55981e-09
4.95656e-08
4.25799e-06
3.77966e-07
4.61291e-09
1.56608e-07
2.77533e-06
4.13755e-09
1.17947e-08
1.62248e-08
3.24688e-07
0.00125634
9.63661e-11
1.57593e-09
0.00101243
2.12285e-06
1.35897e-06
2.91837e-10
2.24099e-08
2.86081e-09
1.95011e-08
4.46311e-07
1.05046e-06
1.77786e-08
4.72069e-07
4.42239e-07
1.46785e-06
3.96766e-07
9.25348e-11
6.2409e-08
7.98305e-11
1.19477e-08
1.63735e-06
3.02224e-06
3.63737e-09
8.65449e-09
1.82719e-08
8.11067e-11
7.81702e-07
9.30541e-09
1.25804e-06
1.52809e-05
1.44477e-06
4.72897e-09
2.68973e-05
2.10218e-06
1.30912e-06
2.788e-06
8.77142e-10
2.69274e-06
6.32347e-08
0.00206612
6.17325e-07
1.80027e-06
8.94872e-09
1.28138e-11
1.29916e-09
0.00328472
0.00125597
9.89185e-07
8.16816e-12
2.41179e-06
6.45165e-10
0.00304126
3.3358e-06
1.52731e-08
2.53201e-09
4.8489e-08
1.55983e-08
1.68716e-06
4.40985e-08
2.10212e-06
0.00557016
9.18619e-08
1.29137e-06
5.2539e-07
1.33763e-06
9.22829e-07
7.90688e-09
1.17142e-11
8.07664e-08
5.70207e-07
4.76488e-09
3.76032e-09
1.07651e-05
6.84302e-09
5.77428e-08
0.00743269
2.74266e-08
1.20876e-06
1.27417e-11
6.69299e-08
3.74654e-09
0.00584201
3.90472e-10
0.00214949
0.000105525
2.33471e-06
3.31265e-07
3.02899e-07
1.78067e-05
4.5996e-08
1.04027e-07
4.83324e-08
8.61064e-09
1.29086e-08
3.82989e-08
1.52461e-06
5.64433e-08
0.00118882
4.63501e-09
9.71055e-08
5.78723e-06
9.28731e-11
7.25713e-06
4.58166e-09
8.51868e-07
1.41039e-05
2.34963e-09
4.3062e-09
1.16861e-06
9.75826e-09
1.80712e-07
0.00338258
9.52493e-09
1.82716e-07
1.29369e-10
0.000778552
1.59098e-07
1.22191e-08
1.12071e-08
8.10076e-08
1.32471e-07
1.41519e-09
0.00270476
2.04325e-08
5.04444e-11
2.2824e-06
8.18922e-09
1.35785e-10
8.20745e-07
1.58742e-05
1.46407e-05
4.40176e-10
3.40344e-08
8.41205e-10
9.63611e-07
8.68601e-07
0.000643251
1.06278e-07
1.4555e-05
1.25409e-06
2.06173e-05
5.22798e-07
5.3926e-08
2.19997e-08
1.31644e-08
1.29123e-06
3.98184e-08
1.41021e-07
0.000820171
5.25874e-06
0.000801462
4.2708e-11
1.71684e-07
1.79731e-09
1.40673e-06
1.68974e-06
1.13636e-07
8.83532e-07
8.63816e-06
2.69756e-06
1.54331e-11
0.000113674
0.000144141
1.87564e-06
7.71419e-07
2.0772e-08
1.53158e-05
3.69381e-08
7.26557e-08
7.13128e-09
1.18373e-09
4.38354e-06
1.53469e-07
1.63552e-05
1.51725e-08
0.000792904
1.13387e-05
1.60452e-08
1.97479e-08
1.11765e-05
5.88672e-08
0.00104032
0.00493716
2.31188e-06
4.22095e-06
1.09362e-07
7.12294e-10
4.87021e-10
2.9029e-09
1.31349e-06
8.59037e-08
0.000582785
0.00102662
5.66028e-07
4.80312e-09
5.65737e-06
0.000704185
4.61567e-07
2.11182e-05
4.41586e-05
0.000739203
0.00215082
0.000859546
2.62248e-06
1.57824e-10
3.58985e-05
3.17942e-08
3.43922e-09
4.5864e-09
5.51185e-09
5.20701e-07
1.29845e-09
3.29704e-09
1.57742e-06
2.33728e-09
2.47135e-10
1.71498e-08
3.34155e-09
0.00100099
1.2626e-07
6.17715e-07
0.0012917
0.00465002
1.99246e-09
0.00333604
3.26494e-06
0.00710169
1.37731e-07
1.36047e-09
1.86937e-09
8.08484e-07
0.00464637
3.77005e-11
2.28387e-05
3.17319e-09
9.83618e-08
2.89849e-07
2.43022e-07
2.68794e-08
5.83674e-09
0.00131168
2.59037e-09
1.35276e-07
4.75425e-09
9.23078e-09
1.15403e-08
8.87707e-06
2.11405e-06
1.98464e-08
6.54917e-06
3.94403e-07
9.8974e-09
2.30744e-06
2.20381e-08
6.4117e-07
3.80305e-09
2.33837e-09
0.00450944
0.000743948
7.85975e-06
6.01261e-09
6.7688e-10
3.11137e-08
0.00344446
6.5872e-09
2.08545e-07
1.49323e-08
4.2463e-08
5.32799e-10
0.0005985
2.35788e-06
3.2657e-09
2.01943e-08
3.20993e-07
3.17534e-09
0.00318332
3.65951e-10
0.000756227
1.47204e-06
9.36465e-08
3.12214e-10
3.90273e-08
2.49542e-08
2.12593e-09
5.07895e-08
7.53451e-08
2.2628e-11
1.21608e-10
1.76586e-06
0.00136758
2.60524e-10
6.7544e-07
1.02736e-07
1.81632e-06
3.61189e-09
0.000821964
3.21236e-08
1.12921e-06
1.06947e-06
7.66265e-09
1.09746e-06
5.03081e-08
3.14392e-07
3.45577e-09
6.45271e-09
2.63081e-07
1.39083e-09
3.29362e-06
8.85911e-07
1.25641e-09
5.76515e-09
2.46219e-06
9.51141e-06
0.00545051
2.49831e-09
1.12221e-07
3.95424e-08
6.61516e-06
3.5603e-06
5.23922e-07
1.56243e-06
0.00135973
7.04527e-08
9.53009e-07
1.41202e-05
0.00115442
1.53587e-08
9.32671e-10
7.35288e-06
2.07514e-08
0.000707508
4.90291e-09
2.07704e-07
2.29052e-08
4.34063e-09
0.00410004
1.18445e-09
1.08681e-08
1.51797e-08
4.67701e-07
0.00575557
0.000971275
8.76649e-09
2.45579e-09
7.46395e-11
1.11089e-08
1.0679e-08
1.74659e-08
2.98624e-09
1.34079e-10
3.90654e-09
1.92365e-10
5.39279e-09
0.00106599
0.000635179
2.06556e-10
2.61762e-07
4.0872e-09
8.40688e-09
2.1016e-09
0.000622969
0.0015455
1.94795e-07
4.364e-09
1.38205e-09
1.65515e-08
3.19524e-08
8.82731e-08
5.81908e-09
6.4603e-06
4.99637e-09
5.40645e-08
8.43129e-08
3.20625e-06
9.71247e-08
1.3719e-05
3.96833e-08
4.87337e-09
8.33844e-06
7.93785e-06
6.11686e-09
4.8738e-07
5.96271e-08
2.33694e-07
8.04745e-07
1.83164e-07
7.39174e-08
3.4658e-09
0.00584507
2.2406e-08
9.46036e-07
0.00106923
2.39915e-06
2.67859e-07
3.35317e-07
6.87302e-08
1.23504e-08
5.00832e-07
1.63529e-06
1.35722e-06
8.03862e-08
8.19815e-07
6.75284e-08
3.66529e-08
1.37568e-08
1.49885e-10
7.91592e-09
5.61241e-10
1.0186e-11
2.75869e-09
1.67044e-08
1.106e-07
2.37458e-09
3.53863e-11
8.11645e-09
3.11081e-07
6.46179e-09
2.16685e-10
1.47118e-08
4.15398e-08
2.32475e-09
1.89059e-06
1.27457e-07
0.00437932
2.24862e-09
2.0512e-07
3.68125e-07
7.88216e-08
4.04725e-10
1.04516e-08
0.00396474
9.40627e-09
2.91657e-10
6.50475e-08
0.00398566
1.48201e-08
1.12872e-06
1.11958e-06
2.99166e-08
1.9511e-07
1.9111e-07
6.92099e-06
2.67286e-10
8.13328e-07
1.05567e-07
3.57376e-09
5.23026e-06
7.25679e-06
0.00346901
1.36174e-07
3.03672e-08
1.90541e-07
7.47552e-07
3.4256e-07
1.20192e-08
4.38824e-05
3.93144e-09
1.28793e-05
6.8808e-06
0.00113131
1.43004e-07
0.00456744
4.87409e-09
1.92153e-08
1.1139e-07
3.93516e-07
9.79477e-07
7.15805e-08
2.67228e-06
9.6247e-10
1.66095e-07
4.18126e-10
2.18252e-10
2.66865e-08
7.71879e-06
5.47455e-09
3.7878e-10
8.12367e-06
5.14316e-09
9.66163e-06
4.64831e-08
1.35168e-08
3.24494e-08
2.67552e-09
3.65832e-07
9.80992e-08
3.74548e-06
9.19254e-09
1.34174e-07
6.3328e-05
3.11091e-08
3.13908e-10
2.68819e-06
6.4963e-08
6.0122e-07
9.10026e-10
0.00260784
2.29107e-06
9.85929e-07
3.97577e-08
5.91397e-09
3.78079e-06
1.07872e-07
2.72141e-09
7.97213e-11
1.25886e-06
1.41222e-06
1.50319e-06
0.00345148
8.94069e-08
1.53577e-07
4.71073e-06
1.33334e-07
1.11384e-07
3.88165e-08
1.23626e-06
5.3044e-08
2.25925e-06
0.00324634
2.77137e-07
3.1678e-13
5.26234e-08
1.13797e-06
2.45974e-07
4.94143e-09
1.13032e-05
1.52078e-05
8.58794e-06
1.73771e-05
3.73209e-07
8.99772e-07
2.39615e-07
4.10781e-07
6.36895e-09
4.25439e-10
0.00187251
9.40694e-06
4.01583e-08
2.56775e-05
1.07938e-07
5.18852e-07
8.92564e-06
8.59152e-08
4.97541e-08
5.96299e-08
7.10573e-10
7.82291e-07
5.93127e-07
2.28552e-06
7.78452e-07
6.20643e-09
8.51049e-09
4.1828e-07
1.52688e-08
5.49687e-10
5.98446e-06
9.66023e-08
1.82475e-07
8.69435e-07
6.28773e-08
2.8147e-09
9.77147e-06
0.00243083
1.34396e-08
4.15623e-10
1.02643e-10
0.00255565
0.0043831
7.40108e-09
0.00100116
1.64997e-07
4.58291e-07
1.46023e-07
1.80384e-07
2.73101e-07
3.25907e-07
5.95906e-07
0.00195957
0.00607183
0.00733687
2.39551e-07
6.47838e-07
2.54267e-07
1.44785e-07
0.00635419
6.28006e-10
0.00326032
4.74918e-07
5.46107e-10
7.22574e-09
1.01674e-08
7.42496e-09
1.44839e-09
3.73061e-09
1.20384e-09
0.00242413
1.22925e-09
7.95561e-07
3.65008e-06
4.29693e-10
8.71035e-08
1.25438e-07
1.07816e-07
2.05174e-09
1.08598e-05
1.03835e-07
2.33916e-08
1.4907e-06
1.02082e-07
6.89295e-07
1.29686e-07
1.96341e-08
3.58792e-09
4.13802e-07
5.79683e-05
9.96759e-07
9.0011e-09
3.49292e-07
1.96551e-08
5.10515e-07
2.39368e-06
2.6249e-07
9.88887e-08
8.851e-08
2.22852e-08
1.05917e-06
8.81853e-09
2.2645e-07
0.000764448
7.35641e-06
0.00581566
1.29841e-05
1.83063e-06
2.69056e-10
0.00114893
7.89692e-10
1.14119e-06
1.27792e-07
2.3644e-07
1.6291e-06
1.21877e-08
5.87165e-09
7.65862e-07
1.87446e-08
1.40321e-09
5.17434e-07
1.05349e-08
4.56124e-07
0.00131566
4.52959e-09
6.9177e-07
2.39632e-08
2.19368e-08
2.99169e-10
4.29312e-06
1.76239e-06
7.94457e-08
7.09643e-09
2.46724e-08
0.000831517
3.94199e-06
2.20099e-07
3.14926e-07
6.45817e-11
3.65051e-12
1.31209e-08
3.05854e-10
8.67178e-07
6.54692e-09
3.94338e-07
3.22291e-08
6.1469e-09
9.88667e-08
6.46162e-10
1.09391e-06
1.53449e-06
8.31831e-07
8.68611e-09
2.07439e-09
1.99028e-08
3.12267e-08
9.94142e-06
2.88961e-08
0.00301268
4.95378e-07
3.97822e-09
6.22102e-09
4.10958e-06
2.96626e-07
1.98691e-05
3.19143e-08
1.92404e-06
0.00412941
2.79796e-10
5.76349e-06
3.57664e-07
0.000796134
2.88457e-08
0.000886361
0.00154927
2.18004e-06
1.33668e-07
3.26136e-07
8.06391e-10
2.81861e-07
4.65912e-07
6.34682e-06
3.27174e-07
8.97616e-08
4.44133e-07
7.04179e-06
6.3308e-06
8.21488e-06
2.7319e-06
1.86666e-09
1.73885e-06
1.48268e-05
1.1186e-07
6.21912e-08
4.20204e-06
3.58406e-06
2.86861e-07
3.17276e-07
4.52513e-06
2.75088e-07
7.06128e-06
4.53059e-06
3.83594e-07
6.56023e-10
6.41802e-07
8.06202e-06
0.00123979
4.74025e-08
2.13873e-08
8.04296e-07
2.71577e-08
1.41444e-06
1.51303e-08
6.84158e-06
9.46068e-09
1.6242e-06
4.49864e-09
3.42296e-09
2.37374e-07
1.64645e-05
2.29641e-05
0.00597015
2.44733e-07
2.9564e-08
2.18165e-09
7.71447e-06
4.22978e-07
0.000562507
0.00131328
1.85094e-11
1.39881e-05
1.27914e-06
9.59376e-08
1.0447e-08
2.25522e-05
2.02489e-08
0.000799703
4.0491e-09
2.72777e-10
5.27712e-07
2.01254e-08
3.36721e-08
6.8438e-07
0.00073695
3.58943e-07
1.61242e-08
1.59766e-06
0.00388377
0.000719259
1.03445e-07
5.32586e-06
4.49718e-07
1.00715e-05
7.602e-08
0.000698384
8.67707e-07
3.50355e-06
3.37529e-09
8.37144e-09
8.68064e-08
1.39485e-08
3.81668e-07
3.25e-08
1.22155e-08
4.46259e-08
8.35976e-08
1.80018e-06
5.57918e-10
1.19046e-08
0.00134083
1.64759e-10
1.63483e-09
8.05959e-07
8.44649e-09
4.45715e-06
6.23901e-07
0.00110274
3.76872e-07
0.00458782
3.03656e-07
3.63553e-07
0.000745019
3.05782e-06
9.2814e-12
1.61772e-08
0.000523479
2.37293e-07
1.57344e-06
3.24061e-07
1.27413e-09
1.32559e-07
1.49823e-07
1.98347e-08
0.00226213
3.5591e-08
2.28874e-08
4.66301e-08
1.23164e-08
1.09138e-09
1.72263e-06
5.94768e-08
0.00480728
1.63227e-06
6.3639e-07
7.84703e-07
1.00444e-06
4.0001e-07
5.69331e-08
1.14166e-10
8.04504e-09
1.68467e-06
3.82357e-07
7.30794e-08
5.63029e-09
2.51621e-07
1.89989e-08
9.99613e-07
6.26247e-09
1.29555e-08
3.03372e-08
5.84571e-07
4.24023e-07
6.22179e-07
4.73193e-09
4.29022e-09
3.24644e-05
6.99962e-09
1.5015e-09
1.61479e-10
2.54268e-08
0.00544398
5.71817e-09
3.25182e-06
1.28977e-06
4.44608e-07
3.2693e-09
1.70575e-08
3.82906e-06
1.45559e-07
4.90559e-09
7.92522e-07
2.18978e-09
1.68321e-09
5.79134e-10
1.57978e-06
4.88499e-09
0.00576635
9.24044e-06
6.87882e-07
3.43192e-05
3.8748e-09
3.21605e-07
9.65847e-10
0.00110659
1.60068e-07
1.08975e-07
3.3547e-08
2.09811e-08
1.25706e-09
0.00843581
3.38065e-07
8.90893e-06
1.25506e-06
2.07757e-08
0.00214835
1.57047e-08
6.42724e-09
1.05889e-08
1.06229e-08
5.01581e-07
7.76424e-09
4.6901e-07
5.35688e-07
9.94655e-06
5.58359e-08
3.8372e-10
3.21081e-06
9.63133e-09
0.00276468
5.15761e-08
5.92124e-09
2.78092e-08
3.56705e-07
0.00114294
0.000558916
3.11068e-07
9.53941e-07
0.00167383
6.06116e-08
5.73042e-07
0.000784297
2.21986e-07
1.01767e-07
0.00304957
0.000348768
1.71604e-07
6.39593e-07
1.72575e-09
7.38812e-07
3.02308e-05
1.87882e-07
1.6845e-07
6.48301e-06
3.3757e-10
0.000430888
2.5284e-09
4.9446e-07
0.00343554
2.59919e-09
2.23022e-07
1.16389e-07
9.00903e-09
1.00164e-08
9.93634e-07
1.22248e-08
2.79715e-09
6.07977e-07
2.14671e-07
8.79535e-10
0.000432169
0.000820489
1.9657e-07
7.61178e-12
1.37878e-10
2.64056e-06
2.8948e-07
9.37712e-08
5.21749e-09
1.00149e-08
2.48971e-06
1.38984e-06
8.79951e-07
1.65032e-06
0.00638695
1.22159e-10
0.00260823
2.48253e-07
8.08551e-08
0.000939761
2.85961e-08
9.87298e-10
0.000426421
7.45485e-11
1.23966e-07
1.04713e-07
5.7521e-08
1.72485e-08
6.45732e-09
1.80046e-10
6.37299e-10
3.69378e-07
0.00231351
0.00378777
6.69853e-07
6.75033e-08
4.77548e-12
0.00104275
0.00397837
5.80312e-06
2.4473e-08
6.38259e-09
2.18913e-05
4.04324e-06
3.64289e-09
5.84307e-10
1.6997e-08
1.29115e-07
2.39215e-09
1.75729e-07
1.35851e-06
0.00111282
0.00363667
1.02897e-06
1.42522e-05
2.26255e-10
1.17525e-08
5.56572e-07
2.43983e-06
5.2897e-07
8.63766e-06
2.03052e-07
2.57693e-07
2.05747e-09
9.66445e-09
2.76933e-07
0.00108573
6.02541e-09
0.00314583
7.82619e-10
2.05714e-07
4.50377e-08
3.45424e-07
5.95794e-10
3.28566e-11
1.1002e-08
1.17022e-09
4.74848e-08
6.03126e-06
6.58501e-09
0.000690381
3.47527e-07
0.00280928
2.60327e-08
4.62989e-08
3.04803e-08
3.83596e-08
2.02935e-07
2.31349e-10
1.01504e-09
8.55461e-10
6.96577e-08
1.52202e-07
0.000963347
0.000937468
1.07812e-07
1.66075e-08
1.0666e-10
5.39683e-11
4.37349e-10
1.94766e-08
3.62099e-06
7.89412e-09
3.0439e-10
1.04799e-10
0.000407943
7.6829e-07
8.99612e-07
0.000756395
1.48505e-08
0.00547227
1.39665e-07
1.44546e-08
1.79648e-11
4.84244e-09
0.00100054
1.55542e-11
4.40746e-07
9.03761e-10
1.13634e-05
7.72869e-07
1.62247e-06
2.41203e-06
4.95679e-07
6.75658e-10
4.49775e-10
0.00633653
6.93036e-07
6.08178e-07
4.39122e-06
1.62777e-08
1.628e-06
1.58316e-06
5.14286e-08
9.24186e-08
5.74191e-06
6.2808e-09
1.20031e-05
0.000728447
3.58623e-08
6.9609e-09
1.45693e-06
1.46527e-08
0.000635788
0.00336611
4.43291e-07
7.60938e-10
6.82492e-05
5.82853e-09
2.47112e-07
3.56152e-08
2.24567e-06
4.85205e-11
1.74708e-05
1.63598e-06
2.53232e-06
4.51196e-07
2.12798e-06
5.12257e-07
1.17875e-07
2.67712e-11
3.20592e-06
1.21525e-06
1.10068e-06
2.07661e-08
1.71649e-07
2.10661e-06
7.82155e-06
1.93304e-10
4.14788e-10
1.61795e-09
1.9119e-11
2.18036e-09
0.000395322
8.20848e-06
2.51087e-06
9.43599e-07
3.744e-06
1.65124e-06
6.36116e-12
3.3727e-07
3.76228e-10
9.48066e-09
1.46105e-09
4.10379e-07
3.80805e-05
3.92763e-07
2.38973e-09
4.76483e-09
2.92146e-08
7.51728e-09
2.60242e-09
0.00259631
1.95558e-07
1.1665e-05
1.77116e-05
1.29809e-05
1.30866e-09
1.00384e-05
1.22149e-05
2.26021e-05
1.24398e-05
6.40154e-10
4.29728e-11
3.07609e-08
2.15206e-07
1.1974e-06
6.35406e-06
0.000705781
4.1175e-07
5.62496e-07
7.25278e-08
1.02132e-05
3.93624e-09
9.77199e-11
2.13002e-06
7.02354e-06
0.000488565
2.17804e-10
0.00207848
2.08414e-06
1.44057e-08
1.50925e-06
1.07724e-07
2.01742e-06
4.92441e-08
1.94086e-06
5.71167e-09
1.44164e-07
4.00742e-05
7.36013e-07
1.46244e-08
3.24293e-05
9.02171e-07
1.79705e-07
5.994e-05
1.35556e-09
1.96212e-07
9.40067e-07
1.68892e-06
1.25075e-08
0.00338125
2.69562e-09
2.88782e-08
4.13513e-09
0.00209135
0.002072
4.50691e-08
4.7822e-08
3.0652e-06
0.00102865
1.07732e-08
1.73991e-07
5.26768e-07
2.0545e-07
2.62812e-08
0.00340416
1.96212e-07
3.60158e-07
7.76329e-05
1.50094e-09
1.16256e-07
3.40896e-08
4.38471e-08
5.14196e-10
4.53953e-05
6.55867e-05
1.66312e-09
1.62918e-08
3.15145e-08
1.77698e-06
3.51496e-10
0.000737174
1.08866e-08
2.26059e-07
1.4627e-08
1.3718e-08
4.5369e-08
6.56319e-07
2.96486e-08
9.28688e-08
4.24541e-06
2.31184e-08
2.6079e-08
0.000800092
2.16995e-08
5.55336e-08
5.90266e-08
5.52848e-07
3.38033e-11
4.5619e-10
4.51233e-11
2.2114e-07
1.16038e-08
0.00112138
3.60284e-07
4.2565e-07
8.85986e-10
5.9932e-07
0.00206867
1.66504e-06
2.40497e-07
1.11005e-06
2.05051e-07
6.26325e-09
6.99374e-09
3.60733e-07
3.69616e-08
4.73341e-08
8.80735e-06
2.0853e-07
2.08673e-09
5.80589e-09
2.97878e-08
1.32749e-08
1.23463e-07
9.54554e-10
1.55045e-07
2.80183e-07
5.0634e-09
2.61463e-11
0.000852918
1.42903e-10
1.20864e-10
4.78731e-07
0.00105457
6.29729e-07
3.95707e-08
6.2259e-10
2.53121e-07
1.02613e-07
5.16842e-07
9.56668e-08
1.90474e-09
3.27946e-08
1.53166e-08
1.04151e-07
1.107e-09
6.69097e-10
8.31453e-09
7.58275e-08
3.47585e-07
2.57222e-08
3.60425e-09
1.29762e-07
1.13513e-06
2.64037e-09
5.70679e-07
1.0063e-08
1.71118e-08
5.85499e-10
1.01175e-06
2.94968e-09
3.65465e-07
5.37718e-11
4.53654e-07
5.29295e-10
2.94801e-08
6.09895e-06
2.51349e-09
1.09473e-09
0.00126338
9.74527e-10
0.00104101
1.00681e-08
1.17224e-08
2.01696e-07
4.42801e-07
0.000774535
1.66547e-06
0.000922604
0.00112102
1.83883e-06
1.8858e-07
0.000752148
1.92543e-07
5.08271e-10
6.20062e-07
0.0023673
0.000688226
0.000781299
5.63648e-10
1.79073e-07
1.53325e-10
1.20449e-07
1.79493e-08
1.2246e-07
3.15164e-06
1.56668e-07
1.9864e-08
3.97992e-09
6.89078e-08
5.39774e-06
1.18701e-09
2.12205e-07
6.25392e-07
3.95826e-08
1.26355e-11
1.19806e-06
6.27368e-07
5.97947e-07
4.88218e-07
4.37082e-07
9.42909e-08
2.66212e-07
2.81301e-06
1.5789e-07
1.15362e-07
2.23759e-06
8.3179e-06
1.37475e-10
1.7808e-08
3.87745e-09
3.62773e-07
1.8642e-09
4.95833e-08
6.28008e-12
7.39624e-06
0.00693083
0.00150825
2.5591e-06
3.8543e-10
2.04285e-07
0.000918462
0.00179309
2.43347e-08
4.88763e-06
4.8934e-08
1.07454e-08
7.61111e-09
2.4019e-09
2.85454e-07
7.6591e-07
8.28215e-09
8.62508e-10
3.03503e-07
1.05487e-08
0.00311361
0.00100849
2.14458e-07
2.3219e-10
3.06363e-09
0.000786964
4.78253e-10
5.29535e-07
1.01429e-08
1.09848e-05
3.25809e-10
1.29904e-07
8.14036e-09
3.83819e-09
2.00095e-05
0.00268394
0.0012055
2.51684e-08
0.00127919
7.01325e-10
2.55956e-07
2.96248e-08
0.00200966
7.81567e-09
3.06579e-06
4.2937e-10
5.4056e-08
4.94229e-06
2.45395e-08
2.72222e-06
4.82186e-09
2.44724e-07
6.05692e-07
3.01935e-07
7.39058e-08
1.08779e-08
7.12518e-09
6.05366e-08
2.41314e-08
4.17131e-09
2.4893e-09
0.00125138
0.000691136
2.8089e-09
0.00139195
1.80077e-10
5.59796e-09
7.54578e-07
1.18606e-08
1.03302e-10
0.000647826
2.37397e-09
6.89104e-11
1.07663e-05
1.59082e-10
3.04116e-11
1.02486e-06
0.0015655
3.74346e-09
0.000694135
7.79347e-10
3.7857e-08
0.00083276
1.24152e-07
1.67438e-05
2.01694e-11
3.01935e-09
2.30414e-08
3.89345e-09
0.00369623
0.000756752
1.95481e-06
8.6558e-10
0.000864204
1.65249e-10
6.54754e-09
8.53783e-10
0.00174888
3.4853e-05
2.17105e-07
2.50189e-11
1.72016e-08
0.000899341
1.87491e-05
7.58833e-09
4.61418e-06
0.00185403
0.00143098
6.50072e-07
0.0014492
1.82025e-05
0.000795299
7.25411e-07
0.00113903
6.00424e-06
7.78988e-08
3.51841e-08
4.36102e-08
7.84166e-06
1.63729e-05
1.03801e-10
1.05783e-07
1.85278e-09
7.51744e-07
1.58314e-07
2.78316e-08
1.64049e-07
5.40469e-06
4.61248e-09
1.77498e-07
6.88443e-09
4.765e-10
1.90452e-09
8.86948e-10
8.91564e-08
1.99674e-09
1.33381e-08
2.05996e-09
2.69319e-07
7.63745e-07
7.49264e-11
4.78577e-11
1.06796e-09
2.18095e-09
2.29895e-08
2.10828e-05
4.01468e-05
1.92043e-06
1.34946e-10
5.73051e-07
1.47502e-07
0.000861558
5.27441e-07
2.99579e-07
9.39858e-09
1.67856e-08
5.0768e-08
3.90853e-06
2.01093e-06
0.00315661
0.00124968
1.46563e-09
1.42281e-05
5.52729e-06
8.64644e-10
4.56029e-08
9.03145e-08
1.93627e-09
3.8844e-08
7.70712e-08
0.00115008
2.69628e-11
1.5625e-06
3.07017e-09
0.000814037
9.74901e-07
0.000664158
6.27622e-07
8.48468e-10
1.16039e-09
8.85414e-09
4.84556e-07
3.43049e-07
7.23004e-08
1.6141e-07
1.88904e-08
1.44724e-05
5.35507e-06
2.54792e-10
2.01352e-06
9.61641e-07
8.46077e-07
1.70493e-06
5.72225e-05
8.09615e-08
0.0017011
5.73803e-09
1.1292e-07
0.000713289