/*--------------------------------*- C++ -*----------------------------------*\
  =========                 |
  \\      /  F ield         | OpenFOAM: The Open Source CFD Toolbox
   \\    /   O peration     | Website:  https://openfoam.org
    \\  /    A nd           | Version:  10
     \\/     M anipulation  |
\*---------------------------------------------------------------------------*/
FoamFile
{
    format      ascii;
    class       volScalarField;
    location    "24";
    object      T;
}
// * * * * * * * * * * * * * * * * * * * * * * * * * * * * * * * * * * * * * //

dimensions      [0 0 0 1 0 0 0];

internalField   nonuniform List<scalar> 
111485
(
303.15
285.231
301.171
303.15
298.736
283.15
299.227
293.602
296.718
286.438
300.738
296.447
300.461
284.665
300.215
286.915
284.404
300.895
294.503
303.15
303.15
283.15
297.605
288.888
301.551
303.15
293.484
295.26
289.287
303.15
300.818
283.276
303.15
283.15
283.495
283.15
302.329
283.15
283.149
296.971
283.15
290.08
297.375
302.938
303.181
303.15
287.679
288.743
290.131
303.15
303.15
283.15
303.15
299.324
303.15
293.02
288.087
283.15
283.338
295.859
296.253
303.15
301.696
300.528
283.15
284.506
301.546
291.809
301.4
301.704
303.172
298.252
303.15
301.738
303.15
287.359
283.15
293.871
283.15
283.15
283.255
293.944
283.15
303.15
300.167
284.301
283.15
301.743
303.142
283.706
283.519
289.906
300.611
283.152
290.274
303.15
303.15
301.743
303.15
283.452
303.15
286.904
283.15
285.424
285.877
283.15
283.15
283.431
301.623
283.145
283.162
288.278
301.479
301.866
303.15
283.6
303.15
283.15
300.297
303.15
303.15
283.15
283.15
283.15
283.451
303.153
283.15
283.209
303.15
283.186
303.065
302.138
303.15
283.15
283.15
292.948
283.15
286.62
299.058
301.241
303.141
297.166
299.229
284.889
302.353
283.15
283.15
303.15
283.15
297.486
285.06
303.15
303.145
283.15
283.156
294.16
296.016
302.574
283.153
303.15
303.15
292.622
286.427
283.151
283.156
283.983
283.751
283.15
283.152
283.16
283.15
303.15
283.21
283.15
283.151
283.15
283.15
303.15
303.15
283.15
303.15
303.15
297.977
293.921
296.179
283.15
301.583
290.464
283.195
303.15
285.512
303.15
303.15
291.507
286.465
301.63
299.878
283.15
303.15
300.987
284.703
283.163
301.057
283.717
303.15
291.319
288.58
303.15
283.247
300.352
284.926
290.612
303.15
303.15
290.862
283.15
293.354
283.15
291.715
286.459
290.705
303.15
289.758
300.753
283.15
283.15
283.15
289.966
283.158
283.15
303.15
286.815
283.153
290.111
283.15
303.15
303.112
303.15
284.405
286.789
287.155
287.32
287.429
283.15
283.143
284.759
283.15
283.15
289.003
288.585
283.15
283.161
284.102
303.15
283.15
301.035
303.15
303.15
303.12
303.15
284.158
283.834
283.15
303.15
284.519
303.15
303.15
303.15
283.148
298.41
300.923
299.607
291.416
299.603
296.527
283.217
283.152
283.154
283.15
303.15
283.149
283.437
299.031
283.152
303.15
298.221
297.593
299.039
302.987
283.164
297.261
299.51
302.044
283.15
283.678
283.15
283.148
303.15
284.087
290.475
286.627
303.15
283.15
296.115
283.154
303.15
303.15
303.15
283.469
283.153
301.25
284.505
293.465
283.15
283.15
303.15
296.864
303.15
283.921
290.098
283.151
283.15
303.15
303.15
283.15
294.044
290.167
283.15
294.962
283.15
303.15
301.325
296.76
294.179
294.962
283.15
283.15
283.15
295.951
283.15
302.408
283.15
283.15
283.147
290.304
294.802
283.234
290.915
283.15
293.234
298.028
284.314
299.074
285.391
283.15
303.15
283.15
303.15
290.87
294.293
288.32
292.401
283.15
286.533
283.15
303.15
294.241
303.15
302.199
303.15
283.15
292.352
283.15
283.15
284.733
283.15
284.036
297.268
283.15
299.398
284.797
298.264
303.051
283.15
283.151
283.15
303.15
303.147
283.15
301.179
301.111
283.15
283.15
294.263
284.461
283.152
296.848
283.15
295.626
296.443
283.15
302.167
283.958
303.15
303.15
283.15
298.926
283.15
303.15
303.15
303.15
300.836
283.15
303.15
294.146
283.172
287.423
300.222
283.15
283.15
302.689
283.15
302.557
301.656
298.327
291.035
283.15
283.24
303.393
303.15
299.057
292.572
303.15
283.15
283.317
283.15
290.395
286.416
283.15
283.15
283.15
296.789
283.15
303.147
283.15
303.15
303.15
283.17
283.15
283.15
284.407
303.137
283.15
303.15
303.15
303.15
301.816
283.15
286.183
284.267
284.437
283.15
285.876
303.15
300.948
283.15
303.15
303.15
300.913
303.15
303.15
283.151
303.15
283.15
300.953
283.15
283.15
283.15
303.15
283.15
303.15
283.15
283.699
283.15
303.132
301.873
283.859
283.15
303.095
283.15
303.15
284.824
284.794
286.302
298.068
283.15
297.91
298.01
283.151
283.153
285.409
303.15
283.151
283.15
300.167
283.15
297.222
283.15
283.169
298.922
303.15
283.15
283.154
303.15
296.019
299.436
283.15
283.15
283.15
283.15
303.15
294.191
283.15
283.15
283.249
283.15
300.128
283.15
284.948
303.15
283.461
303.128
284.47
283.166
283.15
283.15
283.15
283.15
285.865
283.15
283.26
283.15
299.989
303.15
291.111
303.15
283.15
302.533
284.575
300.369
285.829
300.374
289.681
283.15
300.871
284.665
283.15
283.138
300.725
301.76
283.15
282.26
301.256
303.078
283.132
303.15
287.778
302.265
284.507
285.564
283.156
282.34
283.15
303.15
301.356
303.15
283.581
283.15
283.15
283.552
282.621
303.15
303.125
283.15
286.501
299.826
283.15
283.15
299.832
303.15
283.15
283.15
283.15
286.367
283.15
303.15
284.964
283.362
303.15
299.913
283.15
285.391
303.15
283.15
286.369
283.15
283.15
283.15
283.15
283.15
285.622
283.62
303.15
300.663
283.482
299.046
301.141
283.414
283.478
283.15
289.336
298.772
303.15
300.116
296.567
297.263
283.15
297.809
297.559
303.15
300.434
303.141
283.15
297.548
284.956
283.15
283.605
296.156
284.972
299.1
300.831
283.601
283.15
299.217
283.501
303.15
300.802
302.072
283.957
283.15
283.15
303.15
283.15
283.15
283.15
283.313
283.15
303.15
303.15
283.15
300.602
299.59
303.15
285.816
303.15
303.15
303.15
290.276
283.432
283.15
303.15
283.15
283.15
287.338
283.82
283.15
295.612
283.13
283.15
295.776
302.338
283.157
283.15
283.15
300.149
283.807
283.15
283.15
283.15
290.647
303.15
303.15
283.15
296.68
302.473
283.15
282.921
301.822
283.154
283.15
283.15
287.666
303.011
283.15
283.161
288.215
283.802
283.15
283.15
285.86
300.57
283.15
303.15
283.15
283.15
283.15
283.15
296.144
303.15
283.15
283.15
295.766
283.764
303.15
303.15
290.246
283.765
283.835
303.15
283.15
283.757
303.15
283.936
284.034
284.175
303.15
303.15
303.15
283.15
286.226
283.15
283.15
302.736
303.15
293.454
302.402
283.15
283.775
283.207
292.673
292.213
283.457
290.191
283.15
283.15
293.093
288.471
283.15
283.15
283.15
299.519
283.151
283.15
283.982
284.724
283.515
303.15
303.15
303.15
283.767
283.15
283.186
283.15
284.455
283.151
283.198
283.931
283.15
283.15
303.15
284.16
283.15
283.15
303.11
283.15
283.15
303.15
283.15
283.202
283.15
283.15
283.15
283.15
283.15
303.15
283.15
283.174
283.229
303.15
302.583
283.125
283.429
283.086
283.193
283.15
284.555
290.863
283.429
303.15
283.15
283.201
283.15
283.178
283.184
283.142
286.374
283.16
283.244
283.15
283.218
283.15
283.15
283.155
283.154
283.15
283.158
291.518
283.214
283.15
283.257
283.15
283.237
283.224
283.15
283.151
283.205
283.148
283.15
283.15
295.97
283.143
303.116
283.163
283.159
283.15
283.15
284.535
283.15
302.997
283.645
283.158
303.147
303.148
303.147
283.15
283.15
289.142
303.15
303.135
283.955
283.15
283.15
303.153
303.15
283.15
303.162
283.15
283.15
303.15
303.15
303.15
303.15
283.381
283.15
283.15
283.15
303.159
283.324
283.941
288.722
283.15
283.15
283.365
283.15
283.15
283.15
287.482
292.767
283.15
283.15
283.15
283.15
283.15
283.15
284.1
283.15
303.151
291.89
283.15
303.15
303.15
303.15
303.15
303.15
283.15
303.166
283.15
283.768
283.143
303.152
283.15
303.071
284.549
292.539
303.15
303.131
284.631
303.15
283.15
303.15
283.15
288.856
293.839
284.827
303.148
283.15
288.226
283.15
283.15
303.15
283.15
295.22
283.15
303.15
283.162
296.127
303.15
284.554
283.15
283.649
283.15
283.15
283.15
303.15
283.169
283.494
285.024
283.15
283.15
283.165
283.15
283.15
303.15
284.476
303.161
298.87
303.15
303.132
303.133
283.15
303.135
283.15
283.489
289.523
301.024
283.915
283.172
283.15
283.15
283.15
303.177
283.15
302.961
303.15
293.86
303.15
288.894
283.871
303.15
283.15
303.15
283.15
302.004
303.15
303.15
283.171
300.892
283.15
283.15
283.15
283.15
283.15
283.15
301.139
283.622
303.15
303.15
303.155
303.15
300.561
283.153
283.15
302.247
303.15
283.15
283.15
302.628
283.15
283.147
303.152
283.345
302.261
300.561
283.147
283.15
289.642
303.15
293.777
303.15
283.15
303.15
283.15
283.15
283.15
301.1
302.189
303.15
303.15
303.15
302.941
283.148
303.15
293.307
283.077
303.15
283.701
283.221
296.777
283.4
283.15
283.15
283.15
283.15
295.022
283.15
295.435
283.15
303.077
290.035
283.15
302.907
283.15
283.15
302.812
283.147
302.896
283.15
303.15
283.15
302.002
283.15
303.15
283.15
283.147
283.15
283.176
283.15
283.15
303.15
283.343
283.186
296.506
297.372
303.15
303.124
283.15
283.15
283.166
283.15
283.159
302.897
283.163
302.986
303.15
283.398
283.15
303.15
283.15
303.018
283.382
297.807
283.15
303.15
288.339
303.15
283.15
283.113
295.498
283.147
283.15
283.15
283.146
303.15
283.15
303.144
303.15
303.15
290.212
303.021
303.03
289.281
285.193
283.15
283.15
303.116
289.342
283.15
303.15
284.937
283.15
303.15
283.15
283.15
283.15
298.453
283.15
302.97
283.15
300.894
283.15
283.15
283.15
283.15
283.15
283.15
285.233
283.15
283.15
283.15
283.15
283.15
283.15
292.167
283.15
297.959
302.989
283.15
302.339
283.15
302.594
303.146
283.171
283.163
303.15
283.19
284.982
303.122
303.15
303.14
293.016
283.151
283.15
283.151
283.15
283.15
283.15
283.15
283.151
283.15
283.15
283.151
303.139
283.15
283.15
283.15
302.547
283.15
283.2
303.15
283.17
283.15
283.15
302.849
283.15
303.175
303.15
283.15
287.54
298.056
285.852
285.921
293.069
294.255
283.15
283.15
302.389
285.508
292.895
284.543
283.15
294.176
283.15
303.15
300.972
298.922
283.15
288.243
283.15
286.289
285.61
303.15
283.15
283.15
301.929
283.15
283.15
300.745
286.911
283.198
283.152
283.15
283.15
302.854
300.762
283.15
300.862
283.15
300.727
283.15
283.15
301.021
283.15
283.233
301.742
283.15
283.15
302.504
283.15
288.111
303.15
290.965
303.15
303.15
303.15
301.153
283.15
283.15
299.797
283.15
303.011
283.15
283.15
303.15
283.149
288.407
283.15
283.15
288.263
288.445
283.15
283.758
283.15
303.15
302.499
283.799
283.15
283.15
283.15
283.15
283.15
283.15
283.15
283.15
283.15
283.15
283.15
283.15
303.15
283.15
283.15
283.15
283.15
283.15
283.15
283.15
283.15
303.15
287.151
283.15
283.15
283.15
295.036
283.15
303.15
303.067
283.15
283.15
295.062
283.15
283.15
302.183
295.535
283.15
303.475
303.521
283.15
301.746
294.351
297.803
301.337
292.379
303.15
283.15
295.632
291.574
301.4
283.15
299.539
302.48
300.828
283.153
283.154
301.089
283.193
301.374
303.15
286.031
297.624
285.795
297.369
283.15
283.15
283.15
303.15
283.15
291.703
298.106
283.15
283.15
283.15
283.15
283.15
303.15
283.15
303.15
292.341
303.157
299.092
302.867
283.15
283.15
285.587
283.172
283.15
283.15
301.698
303.15
283.15
298.282
299.583
297.652
298.963
301.059
303.15
283.15
301.93
303.15
303.15
300.479
303.15
283.15
282.801
296.196
302.977
283.15
303.15
290.252
286.339
283.15
291.925
302.61
303.15
303.141
303.15
303.15
283.15
298.95
283.15
291.507
283.15
299.917
284.872
303.15
292.003
303.15
283.15
303.15
303.15
283.207
300.45
283.15
303.15
303.14
291.475
303.069
296.785
292.676
283.18
292.731
283.15
303.15
283.15
291.724
291.408
303.15
303.15
303.15
303.15
297.937
302.582
283.15
291.894
301.393
285.078
291.68
303.15
303.15
291.452
292.728
283.15
302.942
300.071
302.652
290.744
292.211
292.4
303.15
283.162
294.296
286.246
283.15
289.433
303.15
288.587
291.286
303.15
283.154
288.971
293.746
293.246
283.148
283.158
283.244
302.064
289.434
303.15
283.16
287.982
303.15
283.15
303.15
303.203
298.716
292.303
297.003
303.234
283.149
298.157
303.15
303.15
292.594
303.15
295.701
283.34
288.255
283.166
303.15
283.714
292.972
303.15
282.965
286.269
303.15
285.546
283.63
303.15
303.15
284.048
303.15
283.15
283.15
283.152
299.975
291.662
303.15
285.47
283.41
283.15
283.491
283.6
283.165
303.138
283.15
296.699
283.152
283.531
283.378
283.165
291.504
302.513
303.15
283.15
283.17
303.15
283.575
283.15
283.15
303.15
283.15
303.15
297.864
283.15
283.327
283.681
303.15
283.878
283.15
283.183
303.15
303.147
303.15
294.485
303.012
303.128
283.406
283.19
289.653
283.172
283.603
303.15
283.499
292.432
283.606
303.15
283.66
283.519
283.611
287.395
283.558
303.15
283.15
303.15
285.581
303.15
303.249
283.152
303.266
302.977
303.15
303.15
283.15
298.736
300.655
283.314
303.103
283.155
294.764
295.651
292.786
283.2
295.157
294.885
283.15
283.15
303.15
285.97
289.415
283.15
283.15
303.15
295.164
283.216
303.15
295.157
303.15
283.155
285.43
301.02
303.15
303.15
292.51
303.15
283.335
283.646
283.15
297.443
294.891
283.158
303.15
302.779
283.15
302.723
293.887
303.15
303.15
283.413
283.15
303.15
283.569
283.15
303.15
303.15
283.15
290.106
303.24
289.919
300.063
298.066
303.15
303.157
302.698
303.15
283.15
303.15
303.15
303.15
303.15
303.15
303.15
303.15
283.15
303.15
303.15
283.384
303.15
303.263
303.15
303.162
303.15
303.15
301.225
303.65
303.15
292.496
303.15
303.15
283.15
302.635
303.15
302.24
303.123
283.3
283.15
303.15
302.958
283.149
303.15
303.15
291.812
283.15
293.031
283.15
283.15
283.147
291.652
284.951
303.15
296.903
283.15
303.52
303.136
283.4
302.671
283.15
292.61
303.091
301.843
283.15
303.15
283.15
303.777
283.608
294.651
303.15
303.15
303.15
303.15
303.15
303.15
302.45
302.854
294.33
292.725
303.15
287.458
293.087
283.48
303.201
283.15
284.678
302.804
284.862
283.147
287.659
303.15
283.408
302.951
292.973
302.887
302.103
303.15
302.263
303.15
303.15
298.127
303.15
284.617
303.15
303.15
283.15
303.15
303.15
302.887
303.15
283.307
283.15
283.15
286.068
285.154
298.341
286.32
303.15
295.796
303.15
290.767
303.15
287.484
300.949
301.688
293.724
303.15
303.15
303.15
287.001
283.15
303.15
286.702
283.15
283.15
302.004
303.15
286.348
283.147
283.15
303.15
303.15
294.98
298.516
303.15
283.15
303.058
283.15
298.734
303.15
284.719
288.438
285.029
303.15
296.676
296.177
302.984
302.033
301.778
303.15
303.15
303.147
303.15
283.15
303.15
287.21
300.037
294.26
302.245
283.15
300.592
291.838
298.536
283.677
298.709
290.105
302.279
283.15
283.15
283.15
302.318
283.15
290.955
283.15
301.469
303.158
287.316
283.328
283.15
303.15
301.458
301.439
303.15
283.15
303.15
285.277
301.629
303
302.433
283.155
288.614
303.15
303.15
303.15
283.153
286.186
283.15
296.264
283.533
302.98
303.15
303.15
283.15
283.15
283.151
299.83
303.15
303.15
283.15
303.15
303.15
303.15
300.559
303.15
285.572
294.078
283.15
283.254
283.15
284.54
303.15
303.15
302.034
303.15
299.577
283.145
294.397
303.15
303.15
283.15
303.15
303.15
303.15
305.827
303.15
301.991
299.729
303.15
303.15
301.797
303.15
283.15
287.459
303.139
303.15
303.15
303.15
283.736
303.15
303.15
302.738
302.573
301.943
303.15
283.15
303.15
302.172
302.585
301.695
302.601
283.15
283.217
283.15
283.15
283.15
303.15
303.15
303.15
303.15
294.666
287.775
299.164
303.15
303.15
303.15
303.15
283.15
303.149
283.15
283.15
283.15
303.15
303.15
283.147
299.975
295.634
283.15
303.15
303.15
303.15
303.15
289.832
289.991
303.15
303.15
302.428
303.15
297.151
283.913
292.671
303.15
283.15
297.362
303.133
303.15
303.817
283.15
287.14
303.15
303.15
303.15
303.15
283.17
283.268
303.15
302.767
298.523
291.86
303.15
303.15
303.15
303.15
299.792
303.151
303.15
303.15
283.426
302.6
283.63
303.15
303.15
298.213
303.15
303.15
303.15
303.15
289.047
303.15
283.15
283.15
284.426
291.44
303.15
303.15
303.15
297.363
303.148
303.15
303.15
303.15
303.15
303.497
301.119
303.15
287.562
302.697
299.628
303.15
303.15
303.15
303.15
283.15
285.919
303.15
302.818
283.15
302.3
303.15
303.14
303.15
283.15
301.943
287.006
283.15
302.869
303.15
302.514
283.15
303.15
303.15
303.152
303.15
283.28
303.15
291.103
283.15
283.15
303.15
303.15
283.956
302.489
283.15
302.566
283.15
284.262
288.391
302.771
283.15
303.154
303.015
303.138
284.551
283.157
303.006
283.15
283.15
283.155
287.001
302.4
303.15
283.15
283.15
296.863
303.15
283.15
303.15
303.15
303.15
303.1
303.061
302.977
292.758
303.15
302.972
303.15
285.028
303.15
303.15
283.15
303.15
303.114
303.15
283.15
303.15
288.507
303.15
303.15
303.201
283.15
303.42
302.918
298.515
303.15
291.69
297.44
284.599
292.079
283.15
283.15
287.381
284.497
283.15
303.582
283.15
286.567
303.15
283.15
303.159
303.15
303.15
303.031
303.154
303.15
283.15
303.142
303.15
283.15
283.1
299.094
302.736
303.15
301.994
303.15
285.422
303.15
301.472
303.15
303.15
301.252
303.15
303.15
303.15
287.884
303.15
285.272
303.15
303.148
303.15
283.15
283.15
303.15
303.15
303.15
288.96
302.648
303.15
303.15
288.857
283.15
292.612
303.15
302.758
287.857
287.786
303.15
303.15
288.784
283.15
292.713
303.15
303.151
303.15
303.15
298.757
283.15
302.347
283.15
303.15
303.15
303.15
303.15
303.15
284.512
301.196
291.832
303.15
303.15
291.351
303.15
303.15
303.15
303.15
303.15
283.15
303.15
303.15
283.15
283.15
303.15
283.15
303.15
283.151
283.15
283.154
291.131
302.745
283.153
283.156
303.15
303.15
303.15
283.153
283.699
283.15
303.15
283.154
303.15
303.15
292.789
303.15
287.719
303.15
283.167
284.466
303.15
283.15
303.15
303.15
303.15
285.502
303.15
283.154
303.15
303.15
284.578
283.15
284.952
303.15
303.15
288.487
300.338
297.163
303.15
303.15
303.15
300.063
293.028
303.15
283.15
303.15
285.492
303.15
284.977
297.058
303.15
303.15
284.715
303.15
303.15
283.15
303.15
283.15
295.52
303.15
283.15
303.15
303.15
303.15
303.15
303.15
303.15
283.15
300.35
283.15
283.714
303.15
303.15
296.502
285.286
303.15
283.15
303.15
284.462
283.15
303.15
303.15
303.15
286.84
303.15
298.35
303.15
286.139
283.15
286.958
303.15
303.15
298.829
283.15
303.15
283.588
283.251
303.15
303.15
285.24
283.994
284.417
283.955
284.531
293.404
283.902
283.919
303.15
298.404
283.15
283.15
303.15
303.15
303.15
284.459
303.15
303.15
303.15
303.135
283.173
283.15
283.593
303.15
302.137
283.15
303.144
287.663
283.15
294.991
303.15
303.15
283.15
287.158
283.993
303.15
283.15
287.716
303.15
298.218
303.15
296.074
303.15
283.15
303.15
283.15
284.339
283.15
283.257
283.15
286.396
303.15
303.15
283.15
283.15
303.15
303.15
303.15
303.15
285.008
285.228
283.15
303.15
283.237
283.15
283.15
303.155
290.305
283.589
283.15
283.17
285.014
300.008
288.563
303.15
303.15
303.15
303.15
283.15
283.15
283.15
303.15
283.15
283.15
303.15
283.15
297.824
283.15
303.15
283.15
303.15
303.15
283.966
283.15
303.15
302.088
303.15
303.15
303.15
303.15
288.925
283.15
303.15
303.149
283.15
303.15
303.15
303.15
295.489
283.15
283.21
303.15
303.15
303.15
303.15
303.15
303.15
303.146
283.561
303.15
283.15
303.15
303.15
303.15
303.148
303.15
283.15
283.15
283.15
303.15
303.15
283.15
303.15
283.15
287.935
283.15
301.992
283.15
303.154
303.15
284.718
283.15
284.552
297.918
303.15
284.807
303.169
303.15
297.94
283.15
303.15
303.15
303.15
303.15
283.15
303.15
303.15
299.51
283.15
303.15
303.15
303.15
303.15
292.49
292.054
303.166
283.174
303.15
301.953
302.403
303.15
283.15
283.15
303.15
303.15
303.15
283.15
283.15
283.877
303.15
303.15
303.18
303.15
283.15
289.276
303.15
283.15
303.15
288.665
303.15
283.15
302.264
283.15
283.15
283.15
303.15
299.975
303.15
303.15
303.15
283.15
284.62
294.295
295.931
290.016
303.133
303.044
283.15
283.15
301.371
283.74
283.15
303.149
303.15
303.15
283.15
295.258
303.15
283.15
303.011
303.15
303.15
283.863
303.15
303.15
289.012
290.24
303.15
283.15
303.15
283.15
303.15
303.15
303.15
303.15
284.005
303.15
303.15
303.15
302.97
303.15
303.15
283.15
283.15
283.15
283.15
302.983
283.15
283.15
301.187
303.15
284.91
285.081
303.15
301.325
303.15
283.15
303.15
283.15
283.15
303.15
303.15
303.15
302.714
303.15
303.15
303.15
283.15
303.15
283.15
286.602
303.15
303.15
292.227
303.15
283.15
283.15
302.491
303.15
303.148
283.15
303.206
283.151
283.15
283.15
299.49
283.15
283.15
303.068
303.158
283.15
303.164
303.151
303.152
283.15
283.15
302.719
283.523
286.146
301.024
283.164
283.15
283.244
301.722
301.608
283.15
300.443
283.185
299.752
302.298
302.906
284.902
283.445
299.507
283.15
290.194
300.332
303.15
283.15
283.15
302.844
283.702
283.151
301.302
283.15
303.15
301.37
303.15
297.995
301.665
283.674
285.114
303.15
283.15
302.315
301.745
283.146
303.168
283.54
302.73
302.084
301.051
303.15
303.192
301.375
295.607
300.202
289.737
302.971
301.651
302.194
302.301
284.021
302.576
283.15
283.181
303.15
302.929
303.15
303.15
302.221
302.234
283.152
303.15
284.831
292.889
292.56
301.704
303.15
284.152
283.15
284.459
303.15
283.94
303.15
296.459
295.726
301.009
303.145
303.15
303.15
302.127
301.461
302.834
303.15
292.86
302.789
290.503
283.15
298.434
283.151
303.15
300.338
283.15
283.207
283.15
302.685
303.123
303.15
302.998
283.153
283.147
300.719
302.319
283.589
283.602
296.289
283.151
283.527
303.138
284.939
283.387
283.331
297.4
300.683
300.555
292.198
302.125
290.98
283.195
303.15
302.773
302.711
302.695
285.925
302.915
283.15
302.152
293.635
303.15
283.473
283.15
301.377
302.677
283.174
283.15
287.959
302.702
296.9
303.15
303.15
295.562
283.15
293.25
283.474
303.15
283.179
290.848
283.959
303.15
297.214
298.567
284.338
301.525
294.388
283.99
300.583
303.115
303.15
303.15
283.657
302.691
283.382
285.994
303.15
303.033
303.053
303.15
285.545
300.816
283.151
283.292
299.861
302.487
283.338
287.205
283.15
303.115
300.324
283.843
283.168
303.15
303.088
303.15
303.15
284.25
302.602
296.448
283.083
283.151
303.15
283.15
302.974
303.059
302.445
301.588
303.15
283.15
283.15
301.947
301.991
283.259
295.915
303.15
303.15
301.774
285.707
283.268
301.832
301.912
301.886
284.528
303.15
283.15
298.554
283.151
303.15
302.773
302.205
285.285
285.123
302.232
303.052
303.15
298.45
284.53
283.15
303.15
283.15
283.15
283.505
283.16
302.197
285.87
283.368
300.165
290.532
283.164
303.15
303.15
283.15
283.151
302.215
283.152
300.781
301.858
283.668
288.478
302.497
283.15
283.15
283.019
303.15
303.15
300.189
298.801
302.393
283.145
283.15
284.026
283.149
283.15
283.153
303.09
301.154
299.506
283.151
283.411
303.116
283.158
303.15
283.15
302.658
283.751
300.955
284.695
283.548
303.077
283.147
283.15
302.877
283.173
302.594
283.163
291.788
285.045
303.15
284.402
283.208
283.15
283.324
285.122
284.94
283.15
283.15
301.779
283.15
283.15
302.521
302.284
301.869
283.536
300.01
291.25
283.15
303.269
292.674
283.15
283.15
283.15
303.15
300.51
302.414
299.352
295.881
299.569
289.302
283.154
284.016
283.16
303.074
291.51
299.455
292.271
283.15
286.555
295.503
301.668
283.15
284.09
299.881
283.15
303.15
283.197
295.384
303.15
284.093
302.309
303.044
303.15
283.15
283.153
303.152
301.849
283.15
283.15
283.15
302.327
298.05
303.14
285.158
303.162
303.15
285.094
303.162
290.632
283.151
283.151
290.978
283.158
283.15
283.15
287.98
283.184
283.15
290.716
283.169
283.156
283.153
283.171
283.15
285.259
283.184
302.326
286.329
283.145
283.147
283.163
283.076
283.165
283.15
294.473
284.344
289.689
284.299
283.125
288.35
283.15
290.444
291.098
298.847
283.365
283.15
300.847
283.15
302.854
283.15
303.15
286.654
286.692
283.15
284.025
298.632
287.332
303.15
303.15
301.942
286.991
303.075
283.765
283.187
287.426
303.147
284.357
288.537
303.15
301.611
283.15
283.15
287.236
284.682
283.144
284.773
283.919
286.487
301.182
303.15
285.511
283.717
291.485
303.15
303.15
301.793
302.177
303.15
293.937
283.15
283.797
283.153
283.411
290.332
303.15
303.059
296.817
285.286
283.15
287.363
292.975
299.995
283.176
283.622
282.856
302.088
303.134
283.15
303.138
303.15
300.705
293.498
283.848
283.15
283.15
283.15
296.495
285.803
283.218
294.617
283.15
300.139
303.162
293.042
284.168
303.146
289.049
283.151
288.55
283.152
283.151
287.687
283.15
303.143
285.499
283.15
293.9
283.15
283.15
283.15
303.142
283.15
283.135
286.685
303.15
283.15
303.161
283.172
290.971
290.597
303.198
302.953
290.12
303.15
283.163
303.167
302.122
285.56
283.15
283.162
303.147
303.105
284.285
283.15
283.15
283.511
286.334
303.075
303.145
287.797
289.76
283.574
283.162
283.324
293.195
303.15
283.15
303.117
303.15
302.433
285.107
299.671
303.104
283.214
283.677
284.125
302.872
302.312
291.595
294.204
303.09
291.659
284.521
303.15
303.108
302.674
285.618
283.424
303.15
286.106
283.403
302.959
301.686
302.274
283.15
300.555
301.972
303.15
302.226
285.563
303.15
298.239
303.15
283.15
300.856
302.755
286.568
302.559
283.15
283.152
303.039
283.15
300.996
285.496
295.192
284.446
303.15
303.03
302.887
286.701
283.15
287.246
283.159
290.103
285.525
300.287
303.15
283.15
283.15
283.15
283.15
300.303
290.878
283.187
283.15
283.245
283.15
303.15
283.15
300.097
283.15
283.151
285.437
301.357
303.122
303.155
292.522
294.801
292.649
283.301
301.468
283.145
303.15
303.158
300.297
283.15
302.692
283.15
303.15
300.139
287.534
301.48
283.151
288.587
283.15
290.694
287.992
298.81
303.08
283.15
303.15
291.934
291.526
283.094
283.145
287.23
298.76
303.15
284.88
285.465
283.15
285.289
303.151
287.12
287.911
285.076
283.247
286.416
283.835
283.083
303.158
303.15
303.15
283.888
283.161
283.15
303.15
303.15
283.162
283.151
283.15
288.034
302.807
303.15
283.151
301.694
303.15
300.248
283.838
301.622
303.15
284.65
287.842
283.156
302.793
303.15
303.15
285.329
283.586
283.478
283.15
303.15
303.15
283.15
287.429
302.499
283.392
303.15
285.592
303.15
303.15
283.151
283.15
283.15
283.401
283.436
283.15
283.15
303.15
288.296
287.443
303.15
283.241
283.175
283.18
303.15
303.15
303.15
283.191
283.277
302.866
283.175
283.15
283.203
287.936
291.236
300.851
303.15
303.15
283.159
303.116
286.852
296.475
303.15
303.148
283.15
283.316
299.441
285.739
303.15
303.15
283.373
303.13
303.15
303.15
283.15
290.722
303.15
303.15
284.766
299.377
283.15
303.15
284.719
283.155
283.168
287.192
295.063
303.15
283.515
303.15
303.15
283.192
300.736
290.641
283.166
303.15
303.137
302.284
293.478
300.093
301.575
284.539
283.503
300.862
283.183
303.15
302.795
284.232
283.187
301.465
288.02
303.15
297.617
301.459
301.453
301.585
283.634
303.15
283.15
299.389
283.15
283.15
287.935
283.15
283.919
283.15
283.15
283.15
283.15
302.503
283.416
302.52
283.15
288.58
291.118
284.847
283.15
303.15
302.452
301.86
303.202
302.436
283.15
283.15
283.164
283.165
283.15
283.15
291.492
284.145
283.15
283.15
303.149
283.15
283.15
287.464
303.15
303.152
284.387
283.15
288.585
294.589
283.151
283.15
302.992
285.846
302.574
294.86
286.452
283.15
283.564
291.965
303.12
289.615
302.73
283.15
292.568
287.937
300.01
301.237
285.079
303.13
283.15
297.495
302.991
303.149
283.846
303.146
303.027
293.605
302.691
283.15
303.15
303.15
295.115
291.422
283.156
301.391
284.812
284.221
284.716
303.145
288.531
283.465
283.15
283.15
302.609
303.151
294.894
302.954
303.177
300.222
303.206
302.934
283.15
283.328
302.928
283.15
303.15
283.15
303.15
284.405
299.17
283.17
291.955
283.15
287.754
303.044
283.155
283.15
303.049
283.384
301.355
303.137
303.09
283.15
283.15
301.9
302.119
283.655
302.848
302.501
302.452
303.141
283.15
283.15
283.15
302.827
283.43
303.013
303.15
283.15
302.885
285.269
291.647
302.161
283.15
302.663
302.125
283.15
302.572
303.057
303.183
303.032
303.15
283.15
301.315
298.288
303.096
303.15
289.43
285.457
303.15
283.15
283.455
303.181
303.161
302.952
301.346
284.392
303.108
291.039
283.155
303.148
289.274
303.16
283.15
285.757
283.15
300.252
298.558
284.886
288.443
299.928
283.15
295.547
299.48
294.078
303.151
294.018
296.828
283.152
299.697
284.17
303.15
283.712
299.467
303.15
286.621
303.167
301.841
303.15
287.109
286.155
302.855
289.838
283.15
283.15
300.591
301.135
283.817
283.15
303.15
283.15
302.415
300.789
295.295
302.644
292.801
289.826
283.15
292.68
284.418
289.625
283.313
295.772
290.603
294.455
287.431
283.796
303.16
283.278
303.147
284.596
300.962
283.151
300.003
283.15
288.913
302.155
284.411
286.861
283.15
302.982
283.155
283.102
288.405
299.98
303.15
300.393
303.038
283.179
302.816
303.15
301.468
285.085
283.15
302.183
303.15
283.765
283.15
290.71
283.15
285.928
303.165
303.149
283.15
283.15
283.18
303.15
293.982
303.15
303.164
296.403
303.439
303.15
283.152
303.15
303.15
294.195
290.816
303.15
290.004
301.761
289.731
303.15
303.15
286.371
283.349
290.602
303.205
303.15
303.147
285.647
283.322
283.15
289.214
287.908
303.15
284.368
303.15
303.15
303.133
287.521
303.15
303.147
283.312
303.152
302.734
288.099
283.147
283.737
297.395
291.24
303.15
286.051
283.166
291.551
283.15
302.383
283.351
294.176
303.15
303.15
284.077
303.154
302.976
295.961
302.972
302.255
283.151
283.15
283.15
283.229
283.292
302.661
284.504
303.15
283.887
286.889
303.132
283.181
303.15
286.51
283.15
283.764
303.15
300.064
300.315
283.276
283.399
302.407
283.151
301.318
303.15
301.593
301.911
303.15
303.15
283.151
293.9
283.15
283.15
303.15
294.789
283.398
303.15
283.166
298.991
289.19
303.15
302.82
283.632
295.759
284.563
303.161
283.16
296.597
283.49
303.133
302.85
287.671
298.851
283.15
283.15
289.905
283.15
302.987
303.151
303.15
303.165
293.626
296.77
302.996
301.47
303.15
284.2
303.15
303.064
302.9
303.15
293.905
296.414
303.15
285.575
303.106
303.15
303.106
303.154
286.365
293.735
291.368
288.577
283.151
303.15
283.224
291.993
295.675
293.977
303.142
303.15
283.561
303.179
284.33
303.18
303.15
303.15
303.143
303.15
285.127
303.15
284.387
303.146
303.15
290.58
303.145
292.896
295.969
303.136
295.653
284.087
283.48
303.131
302.955
284.783
283.15
283.154
303.15
285.655
302.957
301.856
303.031
298.462
287.31
303.15
283.153
290.08
299.658
283.15
283.655
303.15
303.144
303.184
283.193
303.15
292.705
289.555
303.188
303.15
285.015
283.15
293.627
283.151
302.575
300.939
283.15
303.15
284.806
296.955
302.419
285.77
293.06
289.231
284.629
291.996
303.15
287.09
290.997
283.951
283.15
303.15
286.577
283.198
303.15
302.134
288.327
298.228
283.15
303.15
300.041
285.628
283.151
285.364
301.911
286.582
303.15
289.615
285.269
285.08
284.861
283.15
303.15
283.208
303.15
285.452
303.15
302.874
303.15
292.098
303.15
297
283.15
290.097
303.15
283.15
283.15
298.618
297.521
289.409
297.847
303.15
302.565
303.15
298.791
284.337
303.15
297.802
289.12
303.15
297.776
303.15
303.15
290.956
283.15
285.834
283.152
294.526
303.15
283.226
283.158
288.366
289.833
288.26
299.191
300.302
295.117
283.15
287.282
296.509
283.15
303.15
303.15
303.15
283.154
284.215
303.15
302.978
291.824
303.15
302.011
303.15
283.15
301.678
303.15