/*--------------------------------*- C++ -*----------------------------------*\
  =========                 |
  \\      /  F ield         | OpenFOAM: The Open Source CFD Toolbox
   \\    /   O peration     | Website:  https://openfoam.org
    \\  /    A nd           | Version:  10
     \\/     M anipulation  |
\*---------------------------------------------------------------------------*/
FoamFile
{
    format      ascii;
    class       volScalarField;
    location    "2";
    object      p;
}
// * * * * * * * * * * * * * * * * * * * * * * * * * * * * * * * * * * * * * //

dimensions      [0 2 -2 0 0 0 0];

internalField   nonuniform List<scalar> 
111485
(
9.30301
3.16278
3.67332
9.18207
3.80144
9.02656
3.22132
2.80016
3.2298
4.76479
3.19025
4.10765
3.24909
3.16223
3.26442
3.31829
1.04698
8.81871
3.2215
9.13597
9.10404
9.1258
3.26416
3.28124
3.78857
8.90738
4.57023
1.7936
3.66449
9.37976
6.32568
0.73015
9.20801
9.4187
8.78933
9.62042
6.26392
0.17738
7.32469
3.36261
9.54426
4.76594
3.35886
5.53412
7.03127
9.64391
5.22729
3.2712
4.75427
8.88631
8.89105
8.67651
8.88779
5.64289
8.88551
2.02563
3.26425
9.63525
5.23332
3.3565
3.36573
9.29964
2.60588
6.18353
8.75513
2.28845
8.15153
2.98267
2.62815
2.81667
6.75567
2.36182
8.73458
2.62115
9.52103
1.35453
9.19324
4.57588
9.12447
8.81154
6.44371
5.37912
9.27318
9.47504
2.5868
3.46279
7.66048
5.66828
6.55966
0.961406
7.02465
3.46995
2.60086
0.378138
4.77212
9.4672
9.31029
5.65745
7.15841
5.89927
9.26046
4.59905
9.54577
4.50938
3.06344
8.78905
9.46541
0.851103
3.54531
6.9887
0.579903
2.34562
3.46251
4.27772
8.90505
1.27348
8.94908
9.6397
2.64887
9.14077
8.90352
8.5224
9.2716
9.63949
4.97426
8.86272
8.52576
0.983721
9.55527
7.30122
6.29128
5.64705
9.50674
8.49251
8.55855
3.14426
9.21631
1.35038
2.88563
2.91367
4.82881
2.91922
2.91327
3.63107
5.07688
0.125409
9.21198
9.44722
9.53841
3.07401
3.64157
9.11098
6.33054
0.0108063
7.06359
3.05121
3.01798
3.23387
7.08182
9.61475
9.18282
3.04223
3.65191
7.09934
7.09151
1.1812
6.06116
9.62526
7.11407
7.11288
9.54006
9.42881
3.95872
9.36058
0.218848
0.0408773
8.84298
8.74118
8.92295
8.80384
8.74073
9.17379
3.07836
3.08636
3.05282
0.02168
4.58056
1.6261
6.23264
9.24743
1.4239
8.74739
9.32478
1.63877
4.75154
6.0291
2.16724
0.177437
9.51925
3.09276
3.59483
8.22252
5.3609
0.930312
9.57521
1.64923
4.37031
8.73608
5.99909
5.20662
3.61195
1.6115
8.72932
9.33925
1.62587
8.19876
5.65648
9.34526
1.64648
1.40203
4.84333
9.64679
1.82921
5.91222
8.38666
9.35636
9.54807
6.72321
7.07698
8.75898
8.59213
1.41448
0.364241
2.33918
8.75467
8.76561
6.17404
9.54364
3.066
1.40726
1.41757
1.4081
1.41782
9.56105
6.49265
1.11652
9.58994
9.2571
5.6722
2.35695
8.75973
0.702281
1.04863
9.43845
8.47589
5.29944
8.88789
8.7302
8.50902
9.01565
1.23012
1.39395
0.111283
9.65426
1.07261
9.19849
9.29187
9.56027
6.21912
4.59398
2.47372
2.5079
4.28385
2.47887
2.53037
6.48784
0.358348
0.373571
8.84802
9.42827
6.52961
0.854893
4.83643
0.445954
9.15719
2.51635
3.09105
2.46629
4.35997
6.5275
2.45441
2.49616
5.35152
9.64399
4.56046
9.36215
8.85375
8.72452
6.71789
4.30051
3.3282
8.97424
9.63121
1.943
0.611134
9.09586
9.3533
8.89683
1.38861
0.378303
3.00905
3.15176
3.42083
8.65218
9.48043
9.49497
1.94789
7.87576
3.34974
6.59158
6.14939
9.26105
9.29135
9.3066
8.55335
2.09638
3.76241
9.63769
2.06827
8.74052
8.89562
5.77816
2.08276
4.23571
2.05282
8.7775
8.55286
9.56943
2.07556
0.106855
6.38804
8.88621
7.44751
6.40046
3.81774
1.84436
7.50063
3.44291
9.17981
3.44673
2.118
6.53129
5.76018
3.85589
9.44729
9.49746
9.50689
9.18723
2.97525
1.79429
4.2636
3.44496
9.40855
4.0267
9.48542
9.30804
3.44416
8.81569
8.47697
9.6322
9.64321
3.05697
9.6418
0.0824104
3.9761
9.1281
2.762
2.18479
8.77446
2.14246
4.05809
2.15229
6.01978
0.174203
0.395605
8.78938
9.44108
5.50854
9.60207
4.19262
5.85728
8.80776
9.59045
2.03911
4.14797
0.353071
3.98785
9.20039
6.31827
4.1046
8.99042
5.53183
4.16888
9.34263
9.15998
0.0840338
3.79762
9.60399
8.95473
8.29053
9.2566
3.88065
9.34802
9.23489
4.12589
6.31498
5.0803
3.79131
9.0388
8.55167
5.53224
8.58487
5.5325
5.55388
4.70997
8.17952
8.60187
0.613899
7.04658
9.3737
5.77346
3.99748
9.65228
7.20226
4.82356
8.58738
4.23695
4.10935
0.194766
9.07251
0.201554
4.34066
0.186065
6.8451
8.52936
7.01698
9.5171
6.32518
0.161363
9.52849
4.23781
5.2705
8.48803
9.64593
8.65232
9.10261
3.81048
0.18542
4.18688
4.21348
5.97863
9.36118
4.30292
9.30652
3.79943
8.95635
9.30675
9.42146
4.22404
9.45888
9.33772
8.79043
9.31238
9.56628
5.29664
9.64428
8.65901
9.49328
9.35068
9.01807
9.50397
9.1519
4.25574
9.50091
5.34795
4.37142
7.07088
8.95157
5.3392
9.4983
9.29592
4.22026
4.18962
4.24944
6.59957
8.6743
4.87656
4.88585
0.262231
0.474827
4.35454
9.4174
0.274348
8.48524
4.93208
9.38711
4.93112
8.53348
0.539938
4.17347
8.73476
9.50446
0.485999
9.0717
4.87481
4.91602
9.57995
9.49039
8.78559
9.51594
7.00831
4.8623
8.85916
9.61922
3.81519
9.12775
4.89195
9.17742
5.14341
9.30493
4.77399
4.8733
2.11217
0.51988
8.90335
0.116195
8.93411
9.39381
4.48463
9.39338
4.80077
8.79104
4.94199
9.39302
4.48352
9.0939
8.59874
7.0776
4.5248
4.87409
4.50877
4.89474
4.15524
9.53307
4.8904
4.51244
9.32274
6.66546
6.15203
4.88592
8.84244
8.68028
3.7663
5.01724
7.9273
8.6358
4.50975
3.77389
4.57856
4.59495
0.512841
7.71599
8.5777
7.01673
7.82951
9.2014
4.84712
9.60592
8.61351
0.955909
7.70724
7.05864
7.50894
8.58256
4.62482
3.78561
8.93441
8.62804
3.7708
8.97894
9.11543
9.15197
8.92674
4.6275
9.48339
9.57169
4.66148
1.44584
8.36208
3.77528
8.6573
1.42396
8.88439
9.54793
4.65509
9.38307
8.96467
8.60741
0.122557
8.14868
4.7818
0.967754
8.95658
7.06359
4.80286
3.92143
6.02636
7.23633
3.83798
9.40347
4.76388
3.90816
9.57446
2.2216
5.36964
4.00827
0.126367
4.02777
4.01365
9.50793
4.87967
6.00308
8.5898
4.0236
4.90028
8.18155
0.961744
4.01359
4.91804
4.24044
4.26585
0.968003
8.82577
4.27127
4.81826
8.74475
4.5589
4.5703
1.03253
9.40068
0.107524
9.59661
9.23211
9.44167
8.9281
3.90354
8.61788
7.00737
9.32665
9.02183
4.56832
4.58927
9.06724
4.90354
9.29954
9.56121
8.89602
5.01566
4.86203
8.60852
9.64562
9.37873
9.41765
6.16684
1.03664
8.57073
4.47204
7.03663
9.58021
4.47032
5.20845
0.52691
9.0867
9.34828
2.31082
1.01566
8.59509
9.52882
8.82591
1.70355
9.43495
8.96056
9.33047
4.42901
3.49823
9.1344
8.74772
8.70863
0.529655
9.6133
8.99794
5.0487
6.19044
8.58541
8.3245
7.42807
5.14623
0.0269134
8.76989
3.75452
5.28735
9.64623
8.87739
9.22745
9.36168
9.49719
9.15801
4.43767
9.2951
9.22217
8.86076
4.45011
1.00899
8.88919
8.87764
5.16482
1.01908
1.04637
8.99405
9.23576
1.02876
9.45583
4.48623
1.01953
1.05949
8.89926
9.25489
9.25444
9.43755
3.79961
9.25917
9.17972
5.63667
9.24342
1.79319
5.25927
8.81103
0.979601
8.65832
1.7909
4.65855
4.82604
5.11089
7.04245
8.6403
1.77807
5.17637
0.0238743
8.76439
6.93594
8.51349
0.295609
9.45257
5.33004
5.2113
5.3241
8.74198
9.27184
9.65238
1.02078
8.67025
0.695153
8.73221
3.41476
0.275582
0.727381
1.02643
9.16182
8.90856
8.73316
1.04272
8.96376
8.65507
6.93828
9.61493
9.60973
9.24829
9.23333
0.745064
8.78225
9.34363
6.97517
8.65793
9.62555
8.5382
9.31704
5.3223
0.718003
9.11645
3.83193
7.4831
5.33435
7.10617
0.897923
9.51329
4.69979
6.08467
5.34817
9.4881
6.95573
0.747575
8.48826
0.697416
6.61042
6.8353
2.78654
0.494484
6.70604
0.129668
0.644825
9.44165
8.90822
0.4892
0.487242
9.57008
0.496103
4.18705
0.63452
8.86941
6.7795
9.4548
0.673882
0.64533
9.06094
0.330619
0.627257
6.80502
0.189851
8.84598
3.0038
6.8183
7.20676
6.7686
5.78369
9.413
9.45462
5.64892
9.22348
4.29862
5.85106
8.4543
7.14321
7.08187
7.15523
9.23294
8.47705
1.53501
9.5535
8.94135
5.76
8.93997
9.02545
7.09345
7.00977
9.2284
6.83989
9.35745
9.37924
9.57036
9.30976
8.86416
9.4473
5.82618
8.90356
9.53973
9.58002
7.06288
5.75012
3.55619
1.5206
9.08387
8.96768
6.0225
9.30474
9.02343
8.34653
5.89433
1.98981
9.09799
9.01112
8.93978
8.99845
9.5153
8.97456
5.98882
8.96405
6.83455
3.42869
9.41467
9.27683
8.87198
6.83023
8.87708
9.18652
9.42628
6.89686
9.47334
5.97723
6.23973
6.76353
9.14223
8.18719
5.99617
3.30319
8.75414
6.86068
4.9615
8.96753
8.79678
8.50835
9.0074
1.53238
2.97597
6.1421
6.95808
9.07044
1.52409
8.77795
8.5737
8.506
9.54866
2.69424
9.32847
8.86548
6.36197
1.98965
8.86684
4.83166
8.72035
6.1517
8.80775
9.38783
9.50008
9.23034
0.704179
2.94498
7.25801
9.08908
8.84502
0.719499
9.2294
8.63249
9.31588
4.42349
7.0049
3.79728
8.96758
6.43635
6.39129
8.81732
6.40541
8.92794
5.56459
4.99451
2.88899
6.39808
6.39227
9.26797
9.36518
9.36882
6.39894
9.6546
6.50138
9.5979
7.3441
8.94437
3.32632
3.42956
8.8725
9.19205
8.86026
9.60441
6.50274
8.85765
8.50942
0.716444
6.49733
8.77269
8.62557
8.68665
8.63183
8.93221
9.28006
6.52201
5.00783
9.17746
8.88972
7.05694
9.31477
6.51558
0.721733
8.8234
5.65651
9.24332
0.433783
8.88955
3.68412
9.05029
7.05222
6.9121
6.68479
5.68076
5.67841
8.12019
8.79631
5.71866
8.88448
2.68783
9.02666
9.4877
8.65387
9.48577
9.52133
9.56321
5.68454
5.68732
9.24668
8.45766
8.96857
5.77268
6.80099
9.34975
2.70134
6.77853
8.87697
0.940215
0.656211
2.57331
6.71596
9.22475
9.32078
9.42382
9.1665
2.7116
9.49323
5.7928
9.28471
5.82625
3.69816
9.46953
5.80195
9.56633
9.21078
5.85843
6.18419
7.66139
9.28634
8.85343
8.99332
2.8002
8.71419
9.59618
8.8046
7.46664
8.54733
7.0461
8.627
8.79271
8.79362
0.805333
0.711124
4.15474
3.08728
9.59385
5.85186
9.39252
9.57216
0.692155
8.89993
7.0765
5.83051
0.4959
5.8968
7.01829
4.11524
9.52767
6.96662
6.84498
5.02254
5.99914
2.06229
8.26663
9.29626
3.96971
8.98664
9.01465
7.09767
4.75642
7.07169
9.39228
9.37473
6.35587
8.87459
8.90774
5.94469
8.86294
8.87459
2.41385
5.9612
6.10823
2.40597
1.22221
8.95575
9.25825
7.09625
2.38738
9.15138
8.86743
4.23426
8.9267
8.45277
8.56052
8.57393
8.09726
8.41235
9.15038
4.02571
8.99063
6.07476
9.04953
7.93944
8.86338
8.88192
9.53635
9.21971
3.73025
9.2288
9.22033
8.60099
9.01818
9.52131
9.38206
2.26792
9.23829
2.05782
6.11635
8.87919
4.07624
9.11025
5.14383
6.83105
0.533795
0.546975
8.90289
0.594567
3.74184
6.66922
9.55633
6.24481
1.78963
0.267974
8.71868
0.341148
8.84684
9.52392
9.02522
9.13845
0.341453
9.35742
9.0364
0.268479
6.24282
0.25924
9.57622
8.28706
4.0806
9.45241
7.11913
8.87372
0.578503
8.88191
8.92074
4.0528
9.04767
6.22276
9.31889
9.04861
1.77056
5.26437
1.29725
2.89023
6.89374
2.29375
9.05741
8.80426
3.47247
1.34777
2.24393
6.22647
9.2266
2.07593
9.1969
8.99253
3.535
6.27958
8.93566
1.37712
9.52893
1.30998
1.20299
8.75024
9.14523
9.4368
3.46419
9.35048
9.35081
3.49567
1.30458
5.99432
0.317718
9.05822
9.49883
4.32811
3.5098
9.06478
3.49131
8.84477
3.47448
9.11307
9.08157
3.47314
9.2375
5.00056
3.18903
8.94989
9.14899
3.19584
8.44529
3.86544
9.29374
6.0548
9.31401
8.4626
8.43369
3.2174
8.60442
8.56805
2.96964
8.57748
8.00851
8.47573
8.84382
8.98036
6.6871
3.86902
9.34446
9.39666
3.83316
3.85062
8.94483
3.50599
9.16561
8.97475
4.46749
4.25779
0.0400488
9.1064
9.39883
9.35902
9.22252
8.93753
8.94331
9.40956
8.9756
8.9935
9.15013
9.36826
8.98414
9.27883
9.08702
8.99877
8.78092
9.08343
9.14667
9.25129
9.31806
9.54247
3.92414
9.32095
9.09016
9.56492
2.66955
9.64887
8.9713
7.77953
8.83329
8.80021
2.68771
8.78365
8.77102
7.87287
2.70394
9.28118
8.44325
8.53229
9.02041
5.52566
2.71985
2.73243
2.62885
1.60433
8.95849
9.03658
2.00707
2.11087
2.62447
9.1942
2.38837
5.33206
2.58812
0.414499
0.470571
2.64509
0.823322
2.58529
9.5652
2.9402
2.38251
3.68223
2.39568
9.446
9.38151
9.51349
9.24748
9.43801
2.09265
2.42494
9.43143
9.0001
8.9673
8.77413
9.03916
9.02447
8.85887
8.98579
2.39086
6.82804
2.41527
4.03077
8.8938
8.73929
5.45699
6.98467
9.13759
9.22357
3.86579
9.60126
9.33207
2.35989
2.40761
2.40246
3.81442
5.41536
8.9918
0.0252602
2.87392
8.5135
8.99114
2.84389
8.96835
8.90132
7.67645
7.45539
4.07269
8.783
9.5933
6.18317
2.91969
0.0348525
2.1048
7.86678
9.25755
5.75506
8.75077
9.59759
8.77169
3.817
9.03177
2.08948
0.0898382
2.80507
2.90193
9.42042
1.8363
9.48277
8.75754
9.43958
8.94087
0.670429
8.03873
9.2321
9.16374
8.742
2.09869
8.46307
1.88071
2.09652
0.650135
2.0998
8.7704
8.81223
8.5345
3.7768
1.57471
7.05791
8.88049
9.29749
8.49986
5.50188
4.0605
9.22818
1.57224
7.69935
2.92002
1.56553
9.21038
8.4616
1.57717
2.0894
9.38633
4.74756
4.61114
4.0712
1.86512
1.64696
1.6958
8.50417
0.611154
1.69964
1.43658
8.71891
2.79771
8.52354
3.7043
1.77858
9.65157
0.430168
1.69978
1.85399
2.21008
8.84546
7.63699
6.09207
8.00482
1.71014
8.67037
0.519024
1.6917
8.90725
9.25699
7.20926
6.69947
2.44765
8.81296
4.146
6.91489
7.03874
6.31466
8.86084
9.59395
2.08063
8.81571
1.87414
6.79365
1.69527
0.501957
9.12495
5.05442
2.06604
8.97651
8.4888
1.30463
9.42458
1.31171
1.22797
9.31054
8.83668
2.93174
9.04812
9.09373
9.65362
0.495933
7.14629
3.79661
9.59253
3.69118
0.89805
8.78452
0.891783
0.937456
0.560011
6.75206
9.16416
1.85809
0.351474
0.914314
0.927182
0.583104
6.62739
3.3749
9.29137
0.0929526
0.637445
9.21218
0.925893
9.57527
9.33631
9.51123
9.62341
9.15195
5.48472
9.50193
0.893936
4.45829
9.5786
4.27492
8.80368
0.63269
8.96773
6.58422
8.73909
3.56135
5.70019
6.90179
0.967018
0.633264
3.68146
0.562231
0.983935
7.79508
0.967129
2.3556
0.991232
9.58049
2.0884
6.72142
1.004
3.2915
6.79221
9.55365
8.54866
8.91443
3.72899
9.14289
8.33972
0.629179
8.74002
4.57851
8.97386
9.54569
9.22715
2.31174
3.89364
1.08052
5.84564
0.518196
1.98021
1.86785
2.37224
0.741814
1.86281
1.9454
8.79055
9.4856
9.65155
2.93765
2.04489
8.84118
9.2253
8.39183
1.87515
0.760416
9.10104
1.94497
9.34526
7.06728
3.74174
6.07075
9.20404
9.30786
2.32927
9.24309
4.98385
0.992224
8.70483
2.61551
3.2963
0.403251
8.92906
6.29067
8.58357
4.77221
3.79419
9.2192
9.53165
0.956157
8.30455
9.45322
1.23882
0.462785
9.28463
8.93527
8.55592
1.89019
8.35378
2.96561
5.51716
4.68285
9.30235
8.5086
5.39728
9.31339
9.37114
9.40531
9.13836
8.5718
8.74008
8.69913
8.96925
8.77172
8.71389
8.76274
8.71697
4.98332
8.71078
8.44735
8.41458
8.84808
8.50636
9.30727
5.50193
8.55779
8.72602
5.64118
8.72659
8.80029
8.77514
5.51984
8.77355
5.49913
6.08722
4.68443
8.65565
9.09683
5.48447
7.06693
8.85099
9.582
2.93156
8.62621
2.91506
8.6064
9.40441
8.6628
2.91075
2.88742
9.37379
4.24653
8.79456
8.55546
6.57857
1.49952
5.48899
9.59458
2.92041
8.52978
4.58839
9.15837
8.94153
9.08653
8.48313
1.49799
1.82614
9.46767
7.03915
8.96163
8.96434
8.95832
9.15161
5.16265
5.17552
1.86467
7.11699
9.64697
3.75837
2.97879
1.37109
5.16708
9.58715
1.46984
5.14004
2.64631
7.07597
2.76534
8.89721
3.5425
5.24441
2.95072
5.26887
5.53016
8.90489
5.58314
8.81892
9.31949
2.4203
9.46975
3.72883
9.39976
8.87454
8.75482
8.93396
9.52506
5.25721
8.9109
4.35765
8.6487
9.42909
3.63779
5.03491
1.95904
4.21391
9.50602
7.32208
9.47374
4.60692
8.87312
3.63674
5.14702
5.22474
4.64576
8.85364
8.85447
8.83447
1.58604
9.43197
8.98157
1.5856
8.87208
9.0393
5.20827
8.85155
2.84211
7.04532
8.65144
8.65583
8.63398
1.86555
3.1389
9.14108
0.0599146
4.50844
8.62166
5.309
9.42463
1.62297
3.69025
1.39273
9.10602
3.89202
2.02952
5.49762
5.09733
4.31347
9.22321
9.27062
6.71272
9.0129
9.16116
9.35879
1.63777
5.33516
2.13258
3.38165
8.57078
3.8831
2.96022
3.17689
3.82607
3.88468
4.88347
4.27194
9.22242
9.21032
9.21375
4.28557
9.43663
4.53406
8.25937
4.28774
7.07587
1.64406
0.800505
9.0488
9.3733
4.29977
4.27155
9.31866
9.26788
9.61766
1.77225
4.27007
4.41941
4.4607
0.42719
2.95686
9.01114
9.49449
9.2927
0.345024
2.84593
0.0461114
3.22536
1.84203
4.47553
8.78214
9.29066
8.44459
8.86941
0.448521
3.81148
9.25657
8.90166
8.78649
9.57546
9.62701
8.72197
4.64103
9.08245
5.68757
7.09971
8.98426
4.54921
0.133522
1.72934
9.42796
8.75555
4.61911
9.23614
4.6372
7.0708
1.87849
8.70718
8.33041
9.17725
9.07815
9.02207
8.70113
7.63076
8.91422
4.65381
2.12781
9.29511
9.28061
4.74415
9.00122
9.34376
2.58186
6.92964
8.96522
8.95921
8.76283
0.959795
9.24823
9.26157
7.44313
4.76333
4.74806
9.12007
8.9773
8.59016
4.76306
4.71598
4.75101
3.35829
9.11274
0.796031
0.161494
0.198794
9.57205
9.52355
9.29654
9.56164
9.24888
2.57775
2.64357
2.12293
9.58874
9.41355
9.23928
9.3735
8.75756
5.79503
0.30617
0.0761223
8.92695
9.21448
9.59291
7.0402
5.4133
6.23933
9.37365
6.94527
8.75272
8.89461
9.26531
2.56987
2.85561
8.9812
8.85798
3.50974
9.26799
1.88688
2.34362
7.72453
8.97203
8.87501
1.89361
5.83334
8.74985
7.70149
0.264566
3.77706
9.08796
8.99755
9.57297
9.28885
0.511018
1.30556
9.00011
5.85159
5.01486
7.20114
9.14364
9.0134
8.98827
9.0007
3.8798
8.75396
9.15364
8.81925
0.860815
4.39665
1.06592
8.80998
9.53463
5.02075
8.71418
9.2749
9.02232
9.08539
2.74239
8.75095
9.04198
9.0474
1.06114
2.85903
9.00899
9.45411
8.9253
3.32328
8.71482
8.88842
8.93202
9.47802
9.42351
7.03329
3.84947
9.65346
3.04145
3.82673
2.66628
9.60253
9.55659
9.20792
9.56958
9.0309
3.63164
9.14207
8.5463
8.671
5.0315
8.65181
5.00384
9.25375
9.42981
6.02887
7.22741
8.63324
5.05001
9.13397
5.02726
8.79015
8.92005
8.99639
8.89241
8.96415
5.74417
8.97656
3.21081
9.47539
8.58375
9.42651
9.01232
1.00463
4.61328
9.20293
7.74168
9.63572
5.1531
5.74614
4.60618
9.65074
6.99047
4.5988
5.80006
3.90042
7.05725
4.65867
8.74552
9.07099
7.08644
1.60543
4.61874
8.88514
8.71219
8.47692
7.8299
9.61333
8.94329
9.46371
9.56891
9.64107
8.72427
4.55881
6.11239
2.13524
8.51074
6.46417
9.46404
3.68481
9.29959
9.62599
9.31381
8.72119
6.11934
8.76503
9.64228
9.13439
3.15347
9.16552
9.37173
6.00162
8.78034
8.26304
8.11897
8.06431
9.57479
8.10213
8.06552
8.09567
8.21482
9.09139
9.09119
3.12922
4.80911
8.594
8.50906
9.13795
3.17689
8.79767
8.80149
6.06465
9.03157
9.23003
5.13252
6.11428
9.62676
8.98631
6.51096
8.55902
8.87675
7.06948
3.41858
3.32298
8.79106
3.37135
9.51877
2.08753
6.99834
3.35339
9.16219
7.00111
3.36749
8.76615
7.00556
8.91388
3.16169
8.66505
3.12817
8.81998
5.73753
8.93793
8.81923
9.47177
6.96409
6.98298
9.52392
3.44216
5.74058
9.65435
9.1528
2.59636
0.128629
6.97408
9.59048
3.54288
3.48879
6.03367
7.02218
9.63674
6.98086
9.05311
6.73721
9.29977
6.96209
6.9187
8.9184
2.17576
8.84637
5.96471
9.20811
8.91992
8.97182
9.30729
9.00533
9.28668
4.79655
2.61958
6.70202
8.95451
8.40278
6.67981
8.98164
9.64518
8.87951
9.59445
8.92736
0.10538
9.16117
9.50024
9.06438
0.0944639
8.94512
9.24618
8.69315
0.496147
9.31115
0.504748
6.98493
4.69089
0.497649
0.529145
8.81004
8.98038
9.18715
0.505999
1.08629
8.80677
8.4168
0.541395
9.35902
9.52198
6.66881
8.91315
3.48427
8.9639
0.542955
5.95937
8.97313
9.08281
8.96825
9.46882
9.35407
5.97548
8.9798
0.556427
8.86751
9.10177
1.23339
9.48693
3.69735
8.76641
9.36938
4.85051
2.17762
6.73707
9.46598
9.47948
9.20022
2.16865
6.48538
8.85152
9.24495
8.73164
1.34957
8.97173
3.72815
6.71674
9.09171
9.02228
1.37178
9.28911
8.70214
9.3109
8.77177
9.39286
6.72008
8.37973
8.88417
9.42718
8.41775
9.03054
8.45714
8.88136
8.94526
8.77752
2.18548
8.78189
1.3348
8.73235
9.0003
7.09426
1.34968
8.97212
8.77909
9.00704
1.30848
8.56122
9.14831
8.79163
8.99898
1.47506
8.96922
6.81588
9.61998
4.5096
8.59111
5.43183
8.87684
9.34391
4.28394
8.5101
8.9627
1.07984
4.4153
9.56548
9.46412
4.83331
5.5466
1.32736
1.33759
1.35185
4.84377
1.31839
5.64437
8.83522
6.82953
8.43311
8.41734
9.12211
8.83387
9.32904
1.30517
9.58752
9.63915
9.56282
6.38763
5.61825
8.37066
5.09982
9.50031
5.21206
8.84969
6.09378
1.42722
8.44219
4.42011
8.86133
8.89825
9.20945
1.46434
4.53762
9.19443
9.35674
1.47989
9.46372
6.91002
9.30498
6.52404
9.27097
9.2071
9.5462
9.19847
1.17189
9.19634
7.23855
9.47464
4.65643
9.12315
9.03709
8.08607
8.0342
9.0118
9.0562
9.29513
9.51244
4.41202
6.88282
8.24395
9.43952
4.52791
9.12911
9.4326
7.07976
3.4085
6.33756
9.2183
0.808027
4.81769
2.31967
3.62546
9.31092
9.63993
9.64062
9.48482
9.23257
9.20012
9.19899
8.87722
9.21878
9.19965
9.24653
9.18423
6.52534
9.20939
9.00475
8.85302
9.4855
9.12975
7.75519
9.11389
9.05816
3.63381
6.74232
8.89061
9.62161
9.2339
3.16386
9.61088
9.28921
6.71234
9.33648
8.97714
9.35415
9.42758
6.08264
9.28992
6.97534
9.43174
9.3577
9.07059
9.13595
9.03075
6.73098
6.76663
1.74631
9.49679
8.80561
9.52888
6.77085
8.97005
6.75829
6.76997
9.32185
8.74932
8.37481
6.98653
8.90691
8.60453
6.97771
8.40464
4.96033
9.45303
5.73786
8.39632
8.25125
9.25148
4.35758
9.35147
4.39467
6.07134
8.92185
4.41167
6.86582
9.2776
6.1178
9.02957
8.93776
8.99368
8.92186
8.78816
9.16888
8.96722
9.58229
6.77563
8.62468
9.16756
9.34793
8.93579
8.89335
3.19566
7.96669
6.85026
7.14553
8.98053
4.14599
4.16137
9.20296
8.61363
8.77969
8.84975
8.86013
8.83921
8.47666
8.60754
5.22035
9.09238
9.59507
8.32599
8.4294
9.24581
4.34583
8.7977
8.93686
9.47326
6.4236
9.56699
9.12148
4.9016
9.30036
9.62008
8.75436
9.63457
4.93791
9.11271
9.08146
9.03933
8.76614
5.2579
6.42168
6.40952
4.3548
5.54826
5.57105
9.35859
8.51408
7.01497
5.415
8.51362
7.01742
9.43712
7.03746
8.91526
6.43911
9.17184
8.96825
5.57527
6.96231
8.92413
5.40363
9.15454
9.3119
6.4416
6.10593
9.49404
9.16588
8.87603
9.22406
9.02457
8.5135
9.50196
9.30647
5.38155
9.51016
9.26221
9.13437
5.58493
8.97945
8.522
9.27245
9.1871
8.6933
8.5581
5.5844
8.9373
8.57967
3.25598
9.47422
5.40817
5.34042
9.02124
3.36742
9.27733
8.74999
9.39448
8.58161
9.48755
9.60662
9.65351
9.61455
3.31687
9.53088
9.37959
9.53104
8.77037
9.15616
8.76749
6.5292
9.25453
9.44701
6.09998
9.19839
9.24374
9.64565
3.27715
9.08801
6.40609
8.53702
7.09139
0.388018
9.22002
8.51441
3.2152
8.46101
9.20973
6.88771
6.97812
0.0239791
5.88001
7.14562
7.04334
9.533
8.90197
4.04714
6.58125
6.37762
3.93186
7.08746
9.45842
0.7215
4.05064
4.03869
9.65136
4.02892
0.609233
2.30586
3.8273
6.56843
4.19757
0.856007
3.75393
0.138104
1.70738
3.84292
8.523
0.105736
0.0311904
4.37058
5.09548
0.206783
3.82772
0.143457
8.54306
6.68684
8.53059
2.04729
4.06332
5.18797
3.04312
8.53739
9.23414
3.75328
3.06982
6.61098
6.40317
1.04205
4.06969
8.10333
4.08152
9.25358
7.20386
6.6305
5.84643
2.32791
6.67243
6.80286
4.68991
2.8853
2.91265
2.09625
4.09876
0.116402
8.35098
8.24409
4.11008
9.00675
9.24565
3.8866
3.92839
0.317905
9.04832
5.93875
6.11694
2.80314
8.23894
9.25237
6.68598
0.0874941
6.64139
9.64117
1.0136
9.35258
3.02242
4.63564
5.6751
5.72169
9.03397
9.27486
6.19403
3.94604
3.93477
9.2825
3.17363
3.96145
5.11295
9.33023
2.85197
0.231349
8.51078
2.32478
7.04367
6.33407
8.8819
6.03312
7.09283
9.27199
4.89759
0.435111
7.54524
4.9896
4.98491
0.893162
4.33704
5.05851
0.313563
6.67876
6.41004
4.74005
0.797443
4.21651
6.83186
3.0497
5.0145
1.71728
3.84311
6.83714
0.909165
9.31071
4.98791
4.9754
6.49739
1.21778
5.81258
8.89303
4.96803
2.31477
9.32833
5.93339
0.0999986
5.00095
4.81779
0.583168
0.110616
4.28412
4.82373
5.9813
9.3232
9.23776
6.01322
9.56414
6.02807
5.85014
8.76067
0.59535
5.12107
3.18472
9.53045
2.31436
2.64391
5.92458
6.6458
2.60119
1.12046
3.22034
5.41131
9.24751
8.93323
6.4926
5.39832
5.91232
3.36916
8.93294
5.44059
4.63658
8.75068
3.19299
4.10165
0.293354
7.02991
5.58735
4.67421
0.955272
3.56454
9.5619
4.9979
2.55179
4.75309
6.99222
8.93779
5.63498
8.82918
9.18686
2.68188
4.63433
2.91107
7.18144
6.1463
7.58195
9.26096
4.63738
4.64964
2.97201
2.96793
8.97052
9.65213
9.637
2.98777
2.97715
6.99009
2.28648
8.72693
8.95301
2.97975
3.31321
5.7578
2.96428
2.96023
3.56117
5.55849
8.05261
9.09103
4.55551
0.324107
8.94784
4.29255
3.53759
7.09703
4.5298
3.54765
5.98078
8.94993
3.05852
3.67898
9.54399
8.73871
0.195409
0.314815
1.24703
0.513643
3.55453
3.58404
0.870217
2.28632
3.27933
0.508252
8.92849
8.90888
0.0204575
0.570685
3.54406
6.86436
3.43912
3.38875
4.71503
2.88771
3.41989
9.1577
9.54161
6.83229
8.91471
8.5294
3.71618
2.35294
3.64195
6.68485
8.61145
5.65064
6.88381
8.66131
6.90263
6.92909
3.41391
3.44028
0.227519
3.97693
6.60886
0.579258
9.21163
8.65204
6.30004
1.1107
2.97575
1.14716
5.9305
5.35851
6.51284
8.66328
3.63095
0.772548
3.15669
6.89424
5.63424
6.36861
6.93794
3.65154
0.829208
8.63195
5.17779
3.50242
7.74179
8.54759
8.43623
3.15513
8.51498
0.175588
3.14201
2.94508
3.97579
6.18526
8.1393
7.78699
8.76032
8.43742
5.99455
9.20861
9.20969
7.03747
9.22679
2.29796
3.06249
2.81873
2.15176
2.2803
4.07597
8.38671
1.09829
0.479884
5.30699
3.85594
2.14352
3.62468
9.24439
6.93732
2.102
4.79814
9.21338
4.87326
3.79138
9.20521
8.98821
5.89204
2.0749
9.38778
4.2806
3.85551
5.90051
9.43622
9.1969
0.336001
6.87295
4.02493
9.22462
9.50349
9.20492
4.63517
7.70055
7.69194
1.447
6.95458
9.60993
1.44203
6.9385
3.25995
0.372494
0.35378
1.5628
7.13293
0.402343
9.65233
1.64515
0.846491
0.127049
2.61897
0.608956
0.592387
0.626434
0.666958
0.151945
6.1137
7.10647
3.58353
5.988
6.63798
7.05806
0.651769
7.09044
0.655232
0.152447
1.89853
1.15564
5.89833
1.14571
7.13642
1.34846
8.69106
3.66613
7.9219
2.7104
4.08059
9.54553
5.013
8.69783
4.26673
8.71062
8.78474
2.81517
5.14237
8.53518
1.11225
2.96819
5.12541
8.9557
9.47374
5.96809
1.63021
6.83807
2.68837
0.894467
5.00803
6.42511
4.76175
5.04174
8.42237
3.63321
9.26218
8.81968
2.02571
1.45986
6.74082
1.94155
1.28848
5.02796
5.21655
8.81227
6.49754
1.26098
4.96743
8.7975
9.55637
3.64674
4.27314
8.36835
5.84444
0.111393
4.39744
0.329366
1.04632
2.71627
8.9911
8.05655
2.16132
6.3088
9.65609
2.03155
5.85469
4.61434
7.18023
2.15898
7.16145
3.64709
6.07338
8.16457
6.20895
9.108
4.21941
5.09989
0.996726
0.0537547
8.49987
0.0767631
6.3379
4.82967
6.16261
8.57356
9.20019
2.27326
6.25081
4.84188
4.17578
5.79963
1.64252
0.311503
3.14081
0.349624
0.240826
5.87681
8.58261
6.78469
4.77558
0.0236094
5.72536
8.60964
9.05991
6.75545
6.69581
8.79405
6.71307
5.31197
8.63788
8.19548
8.21801
5.20674
2.11717
7.19034
8.27862
5.82153
2.40778
8.68304
0.532763
8.46989
4.61036
1.65015
9.42964
0.475933
5.74942
5.74928
1.46477
9.132
6.94328
5.51441
6.15036
5.73795
5.97709
6.12364
5.23191
6.99213
5.39618
0.852822
2.14973
8.93168
8.47222
8.41067
8.73858
4.93768
2.49937
2.18807
5.76422
1.25749
2.20746
4.38834
5.13434
4.91257
1.59518
5.28044
5.77193
4.63331
1.17412
9.14396
5.71928
5.71393
5.01466
5.3192
8.69887
2.95479
3.02393
4.13665
4.14744
3.32084
8.88571
3.28375
3.30381
8.51169
3.34186
4.73847
8.74419
3.3408
8.72181
9.64945
2.9574
5.15388
4.75911
3.30479
9.03614
0.515089
5.32589
9.64274
2.67664
3.4132
2.79929
4.86814
8.7251
5.16729
5.1477
4.49611
8.76684
2.34513
0.890342
4.59134
2.01417
2.5377
9.50993
8.7713
8.60807
0.166905
8.65441
2.28643
1.90113
0.619901
8.80913
0.696919
8.73194
9.14484
8.75828
2.81102
0.0709337
6.91289
4.587
2.45712
8.57981
8.47271
5.81905
5.72704
1.87726
6.61441
2.4742
6.96064
9.12785
8.26704
8.284
9.14885
8.29639
0.100636
9.23738
2.28541
4.35295
2.47041
0.475436
2.9482
8.46014
1.94023
4.35643
5.09116
6.03156
8.47648
9.09127
5.27296
1.93417
7.09333
7.06083
6.54448
6.79025
7.0015
6.94822
1.45217
0.32658
1.4601
7.02479
1.43005
4.37831
4.71588
0.964276
1.43133
6.52969
7.08833
7.04918
7.0096
6.97417
0.99792
6.09325
9.61992
7.00302
6.91471
0.538673
0.321154
0.11861
4.38419
3.28925
6.89043
0.348731
6.70615
8.96409
2.29947
3.14762
3.57678
8.96532
2.66387
1.47506
0.371471
3.22346
9.59723
8.90072
4.783
0.912425
0.870472
0.176864
8.74743
9.32727
9.37308
3.564
4.26955
0.818946
9.31239
2.35751
8.88821
8.86537
0.354695
0.250336
8.95881
0.827537
0.850431
0.168136
9.63551
9.45343
1.52097
4.38585
8.88694
0.749674
0.673476
0.675629
8.858
8.85245
8.86475
0.678836
0.751529
5.79425
0.670856
9.59468
0.624865
4.12823
5.84563
5.33694
8.72503
9.08173
0.602001
6.18015
6.0175
3.01231
8.74374
6.91957
9.25117
1.01587
6.58522
4.17309
8.76063
8.56273
6.25334
6.46564
8.52723
8.54455
9.27658
2.70754
8.66246
8.48611
4.32593
4.2319
9.26999
8.49294
3.67702
0.644387
0.659999
2.81236
2.36141
8.5156
4.37896
8.40394
8.3811
8.66816
2.97202
4.87056
0.670916
8.40353
8.75573
4.22189
6.53698
4.4766
4.91883
3.8707
3.36089
3.82877
0.654206
8.38319
4.14833
3.06883
0.660146
2.76352
4.88964
8.06482
2.73767
2.74089
2.73087
2.73494
0.930774
8.34415
8.6568
3.18325
8.65151
8.6749
3.8393
8.66845
2.27992
8.63142
8.65351
8.76791
8.5438
3.0387
0.991922
3.05647
8.58916
1.45218
2.89785
4.11794
8.62825
9.30983
3.04227
3.23759
6.77057
3.04739
8.58338
0.0320492
0.651443
0.519151
9.04739
8.76077
1.79843
1.5179
8.77658
8.65222
5.67523
0.0452391
8.60246
6.25382
5.66338
5.67582
3.36737
8.64063
3.83326
7.3916
0.33367
0.0806379
5.68111
5.62031
5.19232
2.13865
3.91055
8.55521
4.38583
3.91332
6.75148
6.12735
5.67316
8.59675
2.681
3.9962
2.24124
3.40624
3.9474
6.59088
0.276977
6.00557
5.25941
5.68379
1.58804
5.71129
5.99538
3.8922
4.78358
8.76054
6.99667
9.64069
3.85953
4.02566
5.72486
6.01528
5.49607
3.91979
3.92423
6.36064
3.0367
1.00985
8.98915
8.35188
6.01488
6.01915
4.65725
6.00589
6.70552
6.25993
6.69731
6.67645
8.40065
0.982048
6.69348
7.07906
8.4055
0.102508
8.32726
2.98318
3.92311
7.02356
2.65887
9.63183
3.78763
6.66732
0.423485
9.22465
6.68444
0.857504
5.14352
6.65853
6.66543
8.37444
9.18837
2.75406
4.13625
2.1795
4.1324
3.71879
4.20091
6.7742
8.50832
0.11058
8.46504
4.16586
0.985253
4.44873
9.41453
8.26783
6.2558
4.1792
3.01132
4.50873
9.2085
4.46027
4.51153
0.12778
4.50137
7.77849
7.53356
4.46111
9.11501
9.06986
2.66462
7.73863
6.19183
9.4691
1.99662
8.65684
6.97814
9.51501
1.23984
5.93431
6.97068
4.47851
4.71965
4.0449
5.69393
6.85765
0.362363
6.98737
2.48721
6.92792
8.74558
1.43119
9.02073
4.72671
4.7892
3.75728
3.32227
4.69382
0.113462
2.94024
4.68164
4.56562
7.14618
5.55514
6.25403
8.6805
4.67417
1.04074
7.02115
0.963604
4.70206
7.02973
1.44598
6.61339
4.18437
7.0472
4.21156
2.53117
4.74564
3.81642
9.07028
9.04492
4.02972
4.11002
5.19184
9.28806
6.99833
0.293624
3.91077
2.95676
1.8591
3.11139
2.64808
4.09726
0.012482
2.32882
5.51344
1.95776
3.55619
3.18097
2.91597
5.50506
4.69038
1.93697
7.14817
4.3915
7.12979
1.70541
4.98426
7.08969
2.19495
0.0339829
3.12207
4.10428
1.74685
1.44366
8.91687
4.88963
7.10709
7.09199
7.71015
4.89784
8.42613
2.68801
4.89071
0.681641
5.25465
8.92361
4.76814
5.54768
0.110098
4.97816
7.08
5.49792
9.20378
3.21285
0.420023
5.28888
6.87708
7.18698
8.91578
9.2374
7.39123
8.58764
5.51242
9.02397
7.03058
7.32049
8.52986
8.56504
0.37204
8.58969
9.23933
5.49734
3.09892
9.48672
3.7093
2.80803
3.88857
6.97379
9.24129
6.33149
5.56584
5.27086
7.24474
9.25318
6.7024
5.3803
6.05675
9.19328
3.16054
5.34537
8.9043
2.77186
9.1557
8.75395
6.71499
5.29277
9.31193
6.72468
6.63313
6.73167
6.60669
4.55104
6.48423
6.44046
4.78763
5.49943
9.58594
2.52038
0.891797
1.91408
0.269339
6.57418
0.844476
2.73019
9.32855
9.00368
4.21852
6.58574
5.44739
2.57191
5.45759
2.91548
0.29399
9.26164
0.0206921
6.48856
0.729791
5.45897
1.71528
9.32645
6.31565
4.79121
6.31947
7.32967
9.30367
2.39762
9.60672
0.963646