/*--------------------------------*- C++ -*----------------------------------*\
  =========                 |
  \\      /  F ield         | OpenFOAM: The Open Source CFD Toolbox
   \\    /   O peration     | Website:  https://openfoam.org
    \\  /    A nd           | Version:  10
     \\/     M anipulation  |
\*---------------------------------------------------------------------------*/
FoamFile
{
    format      ascii;
    class       volScalarField;
    location    "13";
    object      SgRate;
}
// * * * * * * * * * * * * * * * * * * * * * * * * * * * * * * * * * * * * * //

dimensions      [1 -1 -3 -1 0 0 0];

internalField   nonuniform List<scalar> 
59698
(
0.0140448
0.00189278
0.0023916
0.00281048
1.28396e-06
0.00145199
0.00256345
1.10776e-07
1.97608e-09
3.62119e-09
0.000586479
1.47204e-09
1.57068e-09
0.00237203
5.23164e-08
4.28325e-07
1.01659e-08
3.18388e-09
1.87691e-09
5.58867e-09
0.00175814
1.66187e-06
0.000499396
8.81917e-08
2.11681e-07
8.97585e-10
1.03875e-09
0.00264625
0.00249906
1.88122e-09
1.43813e-07
0.00060063
6.6841e-08
0.00426124
0.00534206
3.32706e-09
0.0193503
0.000248135
1.54148e-08
0.00257635
2.81803e-09
2.30451e-07
1.7192e-09
2.23146e-08
0.000402107
1.17728e-07
1.5422e-09
5.18309e-08
0.00302463
3.51556e-08
9.38513e-10
1.13704e-09
0.0017812
0.00284017
0.0022535
1.78843e-09
8.69227e-08
2.56182e-07
1.61984e-08
0.00276289
0.00183245
6.33157e-08
0.13837
1.3165e-09
5.17522e-07
4.27469e-08
1.73127e-09
2.54231e-09
3.62899e-09
6.81059e-09
6.05254e-07
3.20737e-08
0.000363776
0.0418034
0.000411961
0.0393357
2.78232e-08
2.10693e-08
5.85226e-09
9.64137e-09
5.05095e-07
9.19816e-10
4.03796e-09
9.69626e-09
0.0086324
3.59618e-08
8.90419e-09
2.31905e-07
2.47896e-06
2.29688e-08
4.57246e-09
6.59917e-08
1.91303e-07
6.77712e-09
6.39221e-08
0.00371328
1.37885e-07
5.92905e-08
5.36054e-08
8.61594e-10
0.0037335
0.00180027
2.96692e-07
0.0153363
5.22016e-08
0.000564778
2.43978e-09
2.22299e-09
2.64085e-09
4.26318e-10
3.70043e-08
2.71018e-06
1.46485e-06
1.56288e-07
9.21322e-08
3.04707e-08
3.53509e-07
0.00366181
2.82578e-07
1.13388e-08
1.57714e-09
3.0388e-07
2.35904e-07
2.42944e-09
1.73022e-09
6.39393e-09
1.65745e-09
7.20327e-09
1.09991e-08
3.92115e-07
0.00340382
3.33701e-09
1.11723e-09
0.0348406
7.42621e-08
2.62136e-09
5.039e-07
2.32653e-10
1.69776e-09
4.98075e-09
1.95661e-08
0.00240376
0.00258356
1.12989e-09
1.96494e-07
6.15643e-10
5.53898e-07
3.94648e-07
0.00466158
7.68344e-07
0.000299973
0.000434392
2.67949e-08
2.66295e-07
4.96911e-09
1.05746e-07
5.08546e-09
0.00169162
7.45148e-08
6.03408e-10
8.04296e-10
6.69057e-09
2.24385e-08
8.80783e-08
1.62545e-08
0.00234224
8.90508e-10
0.0720482
0.00160828
6.77237e-09
2.69579e-07
1.48567e-06
2.29438e-07
9.77853e-07
0.0454533
0.00126226
4.41178e-09
0.00144628
0.000325997
0.00309616
0.00508642
7.86951e-07
4.24696e-07
1.21007e-08
2.70621e-07
7.98085e-08
4.03074e-07
0.00247316
2.45112e-10
1.57499e-08
6.64977e-09
6.60881e-09
2.40996e-08
6.40569e-07
1.36927e-07
0.00432691
0.0111966
0.00308537
2.66005e-05
8.54114e-08
0.000227096
1.03021e-06
1.54017e-09
1.92368e-09
0.00378589
0.00250382
2.84172e-08
0.00215714
0.00280667
0.00370294
0.00250535
5.94321e-09
0.00276617
1.56693e-08
1.28905e-09
0.00349813
8.63804e-09
4.66627e-08
1.58594e-07
8.61504e-09
0.00560787
0.00227609
1.76774e-09
5.54541e-07
9.7407e-09
0.00289403
6.46712e-09
6.57412e-09
5.82672e-08
0.158485
7.58173e-09
1.31125e-08
7.14159e-09
3.4512e-09
8.76622e-09
1.14292e-09
3.62468e-07
1.94623e-08
1.83429e-07
7.37197e-09
0.00270518
1.24622e-07
3.66628e-08
0.000664542
4.1734e-09
2.16277e-07
0.00379089
0.229444
3.05318e-09
5.24007e-09
5.93751e-08
5.67025e-09
2.99519e-08
0.000233541
1.53938e-08
0.00176671
1.08492e-07
5.88542e-08
0.00324783
1.3246e-09
1.46349e-05
1.82616e-09
7.28184e-09
0.00282384
0.00373746
0.0180006
1.22365e-09
1.06796e-07
1.976e-08
3.51316e-10
2.56676e-09
0.000847136
0.000221614
3.25809e-10
1.38265e-07
4.72953e-08
0.00151391
3.65398e-08
1.98669e-09
1.12375e-09
0.000574131
2.43308e-09
1.49282e-09
0.00030255
0.0154715
1.91897e-06
3.93545e-09
0.000647639
0.000811881
1.0678e-07
0.0941542
0.00238048
7.06389e-09
1.46108e-09
7.31508e-07
0.00283125
9.86391e-10
1.63122e-07
3.66303e-09
6.63377e-07
2.61608e-09
2.24561e-09
6.86549e-08
1.5544e-09
1.01903e-09
1.01878e-09
3.72734e-07
2.29058e-08
5.0075e-09
4.14936e-10
0.00196487
4.3175e-08
4.22715e-09
2.37924e-08
0.00198512
4.53674e-09
0.000403389
9.05539e-09
0.000829309
9.18201e-08
9.79655e-08
0.323198
1.70032e-08
2.99079e-09
0.0487703
2.14652e-07
1.64687e-08
1.03308e-08
1.08959e-09
0.000361924
0.00307631
3.97872e-08
3.78224e-07
0.205496
0.000430976
8.3697e-09
7.38774e-09
3.77993e-09
1.55271e-07
0.00125362
2.83991e-08
0.00215811
0.00258914
3.66701e-09
1.06109e-07
8.87784e-10
8.02276e-10
1.31935e-06
1.85197e-09
0.00208259
3.55295e-09
1.04697e-08
0.0554677
7.94188e-10
0.237501
0.00203432
0.0264359
1.11768e-08
3.00054e-08
1.74468e-09
2.21966e-08
9.99071e-09
1.1059e-07
2.93236e-09
1.41643e-10
1.04125e-07
0.00289854
0.00206828
2.78764e-08
0.00150694
1.20878e-07
0.000533987
0.0037849
0.000651119
2.68103e-09
2.9727e-09
3.70072e-08
3.88599e-09
0.000460538
2.47715e-09
0.000347124
4.74709e-08
4.34301e-08
4.99311e-08
6.47119e-10
1.97223e-05
1.10982e-08
0.000544819
8.45393e-10
3.98512e-08
2.2661e-08
0.000457521
0.00343245
2.81553e-09
0.00134521
0.00191785
0.0504679
0.00189199
0.00278828
8.12745e-08
0.00248527
0.00247675
0.00266135
4.34574e-09
0.00153917
0.00433026
0.00401501
0.0028619
5.29189e-09
9.05495e-07
2.6472e-07
0.000404234
0.00171415
0.000434551
4.4767e-10
0.00397376
1.80171e-09
0.0103296
0.00214074
0.00695829
0.0030446
0.00226347
0.00256047
0.309393
7.83599e-09
2.62337e-09
7.66831e-09
1.81847e-08
0.00143771
5.65459e-10
6.97856e-09
0.00214255
0.0165045
2.17748e-08
3.7576e-08
1.42798e-08
1.21353e-08
0.213229
4.00318e-09
0.00218328
1.92335e-07
0.00330841
5.2344e-09
4.54485e-08
1.8882e-07
0.0114163
2.10449e-05
4.4977e-10
1.93126e-09
1.34608e-07
0.00262989
5.04398e-09
7.35131e-08
0.00200981
6.46204e-07
1.11187e-07
1.2402e-06
1.38812e-09
1.20918e-06
1.67558e-07
1.21086e-06
3.7153e-09
0.00321648
6.67449e-09
2.18846e-09
2.14117e-07
3.54847e-07
1.19476e-08
4.57235e-08
8.53889e-10
0.00257684
4.4001e-09
1.9954e-10
6.97908e-09
6.34577e-08
2.10921e-06
0.0068641
2.44666e-09
0.00310339
0.00201795
2.26473e-08
2.28741e-07
1.25431e-08
1.94403e-08
0.0028259
3.44141e-08
4.50341e-08
1.77477e-08
2.37854e-09
2.40015e-09
2.63761e-07
0.052256
2.07537e-10
4.38857e-08
0.00414749
2.20175e-07
1.60507e-08
0.00245998
1.56416e-08
0.000365618
9.79374e-10
1.23534e-07
2.0974e-07
5.96499e-09
1.71234e-08
1.11579e-09
8.11176e-08
2.21171e-09
3.53863e-09
1.29253e-09
4.32954e-09
1.0534e-08
0.00692812
5.41914e-08
1.26714e-08
1.64287e-09
6.88809e-09
7.71426e-09
7.03925e-08
2.48787e-08
6.19989e-09
1.48578e-09
4.17374e-09
3.81854e-09
2.18746e-09
0.000776664
5.04725e-08
1.5672e-09
0.00345461
0.00379244
2.45592e-09
0.043215
1.82779e-08
3.64946e-09
0.00150564
3.58105e-10
1.35519e-08
0.00180918
1.85165e-09
0.000384882
1.05657e-08
1.70628e-09
4.04241e-08
0.0675133
6.92688e-09
9.87954e-10
0.0100115
0.000173308
6.03307e-09
7.81063e-06
1.68942e-08
2.21857e-09
2.97913e-08
1.92094e-09
6.10932e-09
1.32411e-08
1.92653e-08
1.553e-08
1.54154e-09
5.502e-09
0.000768505
1.75937e-09
1.43816e-08
9.36255e-05
1.42855e-08
1.80978e-09
0.0686056
2.07018e-08
6.57422e-09
0.00053925
6.07616e-10
7.27471e-09
1.98528e-07
3.40392e-09
3.84853e-08
9.14551e-10
3.35281e-10
7.03471e-10
0.0021025
2.31443e-09
0.000732639
4.42675e-08
0.00323276
1.31553e-08
6.33393e-09
0.000313348
1.31571e-09
1.02747e-08
1.85796e-08
1.99327e-08
2.19829e-09
0.00334361
6.0276e-09
1.46646e-08
8.59694e-10
3.82887e-08
9.27602e-07
0.0043034
0.000349776
7.20947e-09
5.90836e-09
1.45308e-09
2.63539e-09
0.00350587
1.71313e-08
5.63807e-09
1.49526e-09
0.00108765
0.00395507
1.50871e-08
1.23811e-08
1.00436e-09
1.15317e-08
4.21368e-09
2.64132e-09
4.39364e-09
4.56745e-09
3.64863e-08
1.87875
7.10346e-09
5.08262e-09
6.59059e-09
1.75296e-08
0.000954832
0.00253499
1.20475e-08
0.00270186
2.36911e-09
8.86771e-09
4.52934e-09
0.0028286
0.000211227
1.64437e-09
9.4372e-09
1.03291e-09
2.8186e-08
1.4271e-08
2.48604e-09
0.00157208
0.00328044
1.31415e-07
1.60931e-07
0.000607895
1.42866e-09
5.55839e-09
2.62227e-09
4.23682e-07
0.00218909
3.61739e-08
1.72882e-09
0.000439476
5.79644e-09
2.29844e-08
4.51743e-09
1.83978e-09
3.98991e-09
7.20318e-10
7.96436e-06
3.70825e-09
0.00188135
5.14775e-08
1.09919e-07
5.28487e-09
0.0201379
0.0941943
6.85476e-09
2.13264e-08
0.00239204
0.00321108
2.03618e-07
3.81848e-09
7.76968e-07
2.68695e-09
0.00357203
2.6901e-10
1.36792e-08
0.000428465
0.00266241
5.83585e-09
1.23957e-09
2.036e-07
6.09669e-07
3.53433e-07
0.000378104
0.00143798
1.03082e-10
5.29694e-09
1.81605e-09
4.51446e-09
0.00289858
2.56258e-08
0.00317743
1.06881e-08
0.00135522
0.00215006
0.00245721
6.55377e-08
3.01083e-09
0.000650656
1.08674e-09
2.30294e-10
9.58021e-10
3.62843e-09
1.80032e-08
4.90347e-09
1.52572e-09
9.52908e-08
6.80056e-08
8.99372e-09
2.73294e-09
0.00192606
4.17931e-08
3.66659e-08
0.000362179
8.18343e-09
1.49965e-08
9.35883e-09
1.75257e-09
1.44147e-09
0.000646922
0.00206597
0.00258354
3.22865e-09
8.34721e-09
3.99964e-09
1.68093e-07
0.00203122
1.34359e-09
0.0108735
2.50518e-08
0.00257137
0.000344542
0.00174304
2.38963e-07
1.4806e-07
2.388e-08
0.00444581
0.000532325
2.03045e-08
0.0606973
4.06675e-09
7.08954e-08
0.245602
0.00245828
2.33115e-08
1.26589e-07
1.79879e-06
0.00173484
2.47903e-08
0.00187244
2.3277e-09
6.7217e-06
9.22246e-09
0.00225785
6.88441e-10
5.04743e-09
2.2588e-07
0.238031
0.000599784
1.1647e-07
6.77554e-08
0.000383644
1.887e-08
3.63484e-09
0.00196515
0.00225271
3.0638e-09
9.07623e-09
0.000401552
1.18219e-08
2.06173e-08
0.000373922
3.48781e-10
0.00273796
2.51333e-09
5.49691e-09
1.91274e-07
3.45451e-09
6.02316e-08
4.3583e-08
1.22934
3.72581e-09
7.54462e-09
2.05687e-09
8.55012e-09
1.00031e-07
1.61333e-08
0.00032609
1.12343e-08
2.09817e-08
0.00145279
5.82418e-08
1.04728e-07
0.1079
0.00193663
0.00554726
0.000541536
6.74676e-09
0.000383003
9.89043e-09
3.5076e-09
1.66153e-09
0.0032377
3.97624e-07
3.41727e-08
0.000214108
5.94764e-08
0.00162602
1.69964e-07
0.00681862
3.53594e-09
0.00100436
3.54415e-09
0.00130366
0.000113242
2.466e-07
0.000651795
0.00185028
0.021229
0.210041
3.80721e-09
0.00868434
2.69545e-08
0.0006912
0.000444697
0.000428783
0.00216156
3.18723e-08
3.36963e-08
0.000561236
2.98799e-08
0.002351
5.12812e-10
0.000401166
2.03808e-09
3.21032e-09
3.33069e-05
0.000503649
0.000273835
0.000315438
7.70166e-09
5.11854e-09
1.75534e-09
0.000487149
2.1083e-09
0.00359344
0.00489027
2.88226e-09
0.000499709
1.60619e-09
1.13791e-09
2.97217e-09
0.0154945
0.000469625
2.63652e-09
1.2818e-09
1.11335e-06
1.05307e-09
1.08577e-07
3.59536e-09
3.18279e-09
9.18628e-08
2.63824e-07
3.28874e-08
1.0564e-08
0.00053258
7.14992e-10
0.000128392
3.39235e-10
2.48056e-09
0.00128089
1.51134e-09
0.00865785
8.98272e-08
1.01129e-08
0.000108821
1.19468e-08
0.00161978
3.00675e-08
4.66611e-10
0.00180059
6.42342e-09
9.02805e-09
0.000307134
1.24834e-09
0.00212612
1.67686e-08
2.33122e-09
0.00439342
3.0678e-09
3.30743e-09
2.66555e-09
8.56474e-10
0.000319927
3.75628e-09
1.6808e-09
1.6782e-07
0.00191353
0.000633495
0.000584035
1.051e-08
3.89303e-09
0.000379941
0.002444
4.47957e-09
8.63093e-09
5.97429e-08
1.27535e-08
3.24345e-09
2.88624e-08
0.000412251
0.00150019
0.00271916
1.49194e-07
2.03975e-09
0.002757
0.00413637
0.00537245
4.67192e-08
3.32123e-09
1.61527e-07
0.00703787
1.47198e-08
2.16892e-08
0.125595
2.64279e-08
4.73984e-09
4.49653e-09
0.0300945
8.05938e-08
7.36793e-09
0.00260141
1.52353e-09
5.42561e-08
2.04306e-08
2.98511e-08
4.57726e-09
3.84022e-10
0.000761139
5.09188e-09
3.32934e-09
0.00198069
2.11339e-08
2.67552e-09
0.00328653
2.65642e-08
3.3207e-07
2.37008e-09
1.76187e-08
2.43538e-08
0.000826027
2.81415e-08
0.00226989
1.8921e-07
2.09199e-07
3.36116e-08
0.00553151
0.000294931
3.99653e-09
5.4919e-09
1.01108e-06
1.44795e-09
1.24136e-08
1.01124e-09
0.00174448
6.30698e-10
1.20581e-09
7.33498e-09
5.52563e-09
3.44192e-08
2.37638e-08
7.10842e-09
0.000429202
0.00229955
0.000466222
6.33623e-08
0.00319464
0.00487708
6.12879e-08
3.15929e-09
0.00191551
0.00285171
0.00165484
0.00216371
0.00212663
4.12109e-09
5.55563e-08
0.00248591
2.34213e-07
3.86742e-08
2.58596e-06
2.25662e-08
0.000443722
2.20198e-08
0.00053842
0.000103979
2.48555e-08
0.0020807
1.33799e-08
0.000608673
7.22827e-09
1.07068e-08
5.63729e-10
3.01473e-08
0.00159102
0.00376503
1.13352e-09
0.000395618
0.00196202
0.00140502
0.0258574
5.69993e-10
3.73534e-09
8.61522e-10
0.0128327
1.21465e-09
1.32774e-07
0.00587237
6.03951e-09
0.00360083
0.00872813
0.00378357
7.00185e-09
9.54066e-08
4.9823e-09
8.42453e-10
1.08136e-08
6.29637e-08
1.197e-08
5.56109e-09
0.000475215
2.4564e-09
2.00638e-08
2.86691e-07
5.16311e-10
0.00168357
2.59641e-09
3.33091e-09
6.01572e-08
4.49588e-10
7.30424e-08
2.69236e-09
2.03332e-07
0.00319604
0.735871
6.85575e-10
1.56574e-08
0.00217406
0.00321041
1.78462e-07
0.000760344
1.00041e-08
2.41146e-09
0.00269883
2.79385e-08
0.00326696
0.000542244
1.04721e-09
0.00583341
0.000765801
2.18348e-08
2.29166e-08
0.00259997
8.33566e-09
1.08764e-08
3.06503e-09
0.000534756
0.00821201
0.00200227
0.0921035
9.45518e-09
0.00182206
0.0115405
2.81894e-10
0.0087565
2.9804e-09
0.000282233
0.00133356
1.58253e-09
8.1129e-10
1.11739e-08
6.90724e-09
1.54782e-08
6.81285e-09
1.04602e-08
1.03892e-06
9.20993e-10
1.57779e-09
0.0017627
2.83135e-09
0.00978201
2.94254e-08
0.00218534
0.000510245
1.22178e-06
0.0359945
0.000124707
3.11611e-09
1.4039e-08
0.00105269
0.456453
1.3446e-08
2.00881e-08
2.1375e-08
0.000449091
0.100089
7.25714e-08
2.2864e-07
3.90681e-09
0.00240493
6.35641e-09
1.05116e-08
2.02477e-08
9.96953e-09
2.992e-08
0.0143601
5.137e-08
2.76062e-08
1.7525e-08
5.92684e-09
0.000477737
2.26589e-09
3.78225e-09
3.50743e-08
2.59281e-10
1.34696e-09
8.10874e-09
7.10297e-09
1.15025e-08
0.119814
1.21857e-08
1.16174e-08
2.60156e-09
2.14542e-08
1.06363e-08
9.0372e-09
5.85329e-08
0.000380628
0.00250073
1.5584e-08
1.0463e-08
0.00291771
2.59915e-09
0.0187601
0.00245056
4.60609e-09
7.74766e-07
0.060652
0.00296221
2.51824e-08
2.91246e-08
2.29321e-07
0.00442627
3.93422e-06
2.21836e-07
5.74266e-10
4.09576e-09
4.35312e-07
1.42002e-07
5.93251e-09
1.47724e-09
5.60436e-09
7.55588e-09
0.0331535
0.00139223
5.89338e-08
3.58027e-08
5.50443e-08
0.00280872
0.00254049
9.89103e-07
1.42103e-08
3.58317e-08
4.06347e-08
4.83718e-09
2.86922e-09
1.86308e-07
4.21899e-09
3.08932e-08
1.85001e-09
1.09331e-08
2.00741e-08
2.80417e-09
4.29194e-07
3.08675e-09
0.00043443
1.02511e-07
0.00403729
0.00169103
1.10076e-07
2.32681e-08
0.0005797
0.00034517
2.71216e-08
2.33163e-08
9.28701e-06
2.32822e-09
1.62151e-09
2.15519e-08
1.6284e-08
0.000781499
0.000646994
1.10957e-08
1.11331e-08
6.78891e-09
3.45549e-07
5.24099e-07
0.00275727
0.000496422
2.16843e-05
0.000238759
6.01508e-09
0.0003154
0.000232096
0.00022349
3.24986e-08
1.02971e-07
1.84969e-09
9.31706e-08
1.93097e-08
0.0024452
4.8902e-09
4.1561e-08
5.14128e-09
3.26411e-09
0.019598
0.00204422
0.00235334
2.25717e-08
3.06127e-08
0.000377618
7.67934e-09
3.31812e-06
1.04744e-08
0.00311953
9.47793e-09
2.03527e-08
0.00382867
0.0027903
6.99563e-08
4.11905e-09
0.0013436
1.05881e-08
4.6808e-10
1.3998e-09
2.89837e-09
6.3328e-09
1.40971e-08
5.99779e-10
1.99061e-08
3.90886e-08
1.26774e-08
6.85289e-08
1.43716e-08
5.81123e-07
0.00198936
2.75537e-09
1.4814e-08
5.0119e-08
0.00212555
1.09481e-06
3.61765e-09
0.00122755
2.78381e-09
2.25157e-07
1.47589e-07
0.000983778
3.71255e-07
2.77249e-10
1.2236e-07
1.28e-08
1.22697e-07
5.27323e-08
3.44773e-09
1.53429e-07
6.88365e-09
8.66728e-08
6.94909e-10
0.000584265
5.2744e-08
0.00213469
1.33161e-09
5.67296e-08
0.00783313
1.07418e-08
0.00456776
5.35167e-09
6.5228e-10
2.65489e-07
3.93541e-08
4.28592e-09
0.0002884
6.1093e-08
7.50978e-08
0.000547257
2.95639e-09
0.000563698
2.86892e-08
3.06496e-09
1.06954e-08
9.4188e-09
9.50997e-09
4.16973e-07
3.18369e-07
1.66131e-07
0.00246845
2.12659e-07
0.00403179
0.00224377
0.00341584
9.95655e-08
2.13159e-07
0.357622
3.83419e-09
2.48217e-08
2.53142e-08
0.00247561
5.29092e-09
0.000635584
0.000492198
2.51706e-09
0.00268939
0.0353979
0.00272696
1.18549e-08
0.00255003
5.5923e-08
0.000340309
1.62476e-09
3.78421e-09
3.82494e-08
0.000746729
0.000162
5.64086e-10
2.89195e-08
6.46967e-10
0.0005331
0.000313618
6.11879e-08
0.0019608
4.46889e-07
0.000544671
3.32264e-08
3.74309e-10
6.11852e-09
3.33594e-09
9.29142e-08
0.00201884
3.80875e-09
0.000665323
4.00993e-08
3.82047e-08
4.83734e-09
0.00170461
2.24055e-07
1.25906e-09
6.44839e-09
0.000432447
0.0024089
7.8547e-08
0.00157015
0.00973421
0.000568361
8.98564e-09
4.49195e-09
5.07901e-09
0.000681363
2.65466e-08
4.13777e-09
1.75905e-08
3.47456e-05
5.63034e-06
0.0326998
1.8209e-09
0.102517
2.78222e-06
6.85018e-09
5.5844e-09
0.0641561
1.63096e-09
8.45492e-10
0.00246226
0.00229547
6.20505e-08
2.48343e-09
1.00794e-09
3.39232e-08
0.00193371
2.76257e-07
0.295039
9.0165e-10
2.31731e-05
2.92698e-08
0.00112398
0.000444875
0.190136
2.36462e-08
0.285284
0.780198
0.00010389
2.19724e-09
1.74017e-08
0.00119289
1.34922e-08
8.20982e-07
6.05194e-07
0.0631484
1.2939e-06
8.58753e-09
0.00163443
0.0103972
3.03789e-09
1.14129e-08
5.16307e-09
0.000427674
0.000355322
2.02944e-08
0.000637651
0.138925
0.000276584
0.00291463
0.000398972
0.0028398
0.00194156
0.00221777
4.55237e-10
0.48109
8.39992e-08
0.185305
0.147393
0.000749899
2.04758e-09
4.0073e-07
1.37763e-08
3.25921e-07
0.000761567
0.0829566
8.88894e-10
0.00178767
1.46828e-07
0.000207827
1.79554e-07
4.19949e-07
7.98943e-10
3.99212e-07
2.22953e-07
0.00157076
0.00023196
4.76409e-08
1.57707e-07
2.92665e-05
0.00136993
0.00136437
0.00310682
4.91655e-09
0.000502773
0.00155476
0.00183335
0.00150874
2.47158e-07
0.00224186
2.70929e-07
4.23039e-09
4.7595e-09
8.54147e-09
0.00152737
0.0018358
7.74391e-09
1.43942e-08
8.49446e-09
4.21114e-07
0.000298082
0.00377362
0.00140471
8.20087e-08
0.00254852
8.37288e-10
3.79956e-08
0.00112958
0.000804678
6.16567e-09
0.00214742
6.62838e-09
6.11971e-09
0.00356317
5.74671e-09
0.000423335
1.17048e-09
0.000378708
0.000405405
0.000581346
0.00198694
3.38039e-07
0.0016323
7.90659e-09
0.00171614
0.000460521
0.00126825
0.00226152
0.00111687
8.14534e-09
0.00126543
1.43704e-09
1.19431e-08
0.00296074
1.64016e-07
0.322644
5.64657e-08
5.47134e-08
0.000573393
3.93383e-06
2.57762e-09
1.52032e-07
9.89491e-05
0.000403274
0.00232227
2.8163e-07
5.99686e-09
0.000614786
1.76026e-08
1.34135e-08
5.32099e-08
6.24549e-07
0.354991
1.38908e-08
0.00264881
1.87632e-09
0.000256162
0.00443379
9.41096e-09
0.103227
0.00253937
0.00165437
0.000456387
2.43894e-09
0.00339227
0.00284941
5.4458e-10
0.000489094
0.0259602
0.00061878
1.87674e-08
0.00517255
5.1398e-07
1.98537e-08
7.73636e-11
0.000345778
0.00240324
5.84008e-09
1.33359e-09
0.00218513
1.11056e-08
3.78744e-09
3.41492e-08
1.87343e-09
7.87625e-08
0.00363092
0.00209916
2.03933e-08
5.42077e-10
0.00221547
1.99716e-07
0.00277432
3.72136e-09
2.85071e-06
4.52972e-08
8.97265e-09
2.72223e-09
9.17991e-05
0.00346799
5.03648e-09
2.80178e-07
0.000274711
0.00245856
0.000453085
1.45672e-08
0.298562
2.55759e-09
0.000232078
0.0023446
9.63604e-10
3.53535e-09
3.97792e-08
3.38472e-08
0.0005025
2.71124e-07
0.00052973
1.92958e-07
3.8612e-09
5.92656e-11
6.47812e-09
0.000221127
0.000394063
6.24567e-09
0.00394767
0.00252241
5.15351e-09
2.98215e-10
3.81253e-09
8.24571e-09
5.04044e-09
1.83566e-08
0.00277899
0.000620165
0.000514065
0.000120202
0.000348138
0.00038168
4.09509e-09
4.27209e-08
1.31315e-09
3.10977e-08
1.88831e-08
0.00236346
1.07541e-08
8.12392e-10
0.00116114
1.54187e-08
8.04423e-08
8.48497e-08
2.33833e-09
6.98908e-08
3.88503e-08
0.00226553
4.53931e-09
1.63251e-08
4.33983e-09
1.40964e-08
2.12837e-08
0.0038639
4.83734e-07
1.17186e-07
0.000490642
7.67782e-10
0.878231
0.441262
4.30571e-09
6.13763e-07
9.63845e-05
8.90801e-09
1.01011e-08
1.0353e-05
0.601106
0.00523726
0.00315418
4.00702e-09
4.23805e-07
0.392743
0.00291241
5.41812e-06
1.47328e-10
0.0100767
0.125502
0.0474253
1.05534e-08
1.72461e-07
5.93012e-05
6.69115e-08
1.73028e-08
3.06462e-08
0.0331284
1.6336e-09
2.47392e-09
1.04041e-08
3.6415e-10
1.46649e-10
8.20957e-10
0.00421517
1.40031e-07
2.33493e-09
3.769e-09
3.55909e-09
1.09607e-09
5.27577e-08
5.83279e-09
2.85436e-09
5.55134e-08
1.23947e-08
0.00228046
1.9568e-09
0.000384348
2.96071e-08
1.51801e-07
1.85061e-08
1.28023e-06
1.80535e-09
0.0032961
8.43677e-09
0.00183718
3.1076e-07
2.91865e-08
8.2869e-09
0.0187279
2.17517e-09
4.08564e-09
3.48752e-09
0.00025912
0.000626453
0.00220677
1.0656e-07
1.6705e-07
0.00242675
0.000426678
6.53987e-09
1.02268e-08
2.97955e-07
1.07955e-08
0.00424991
2.80684e-06
0.00316769
2.75844e-08
7.1972e-09
0.00159315
0.00149113
0.00180249
1.56359e-08
0.0112388
0.00194147
1.81855e-09
0.00369348
1.56999e-07
0.00184031
0.000459341
1.72917e-07
0.00238369
0.00558183
0.0036234
0.00212226
0.00224031
1.61945e-08
0.00245174
0.00311689
0.00186828
1.667e-08
4.39007e-09
5.4088e-09
8.13351e-10
6.04964e-10
0.0104096
0.00283865
0.00186
3.50178e-09
0.00322312
7.64752e-10
0.00228078
0.00258406
1.10488e-08
3.56474e-08
0.00170803
2.40021e-08
1.22989e-08
0.00918997
8.39764e-10
0.00264319
0.00204932
8.93625e-07
0.0134836
4.49195e-09
1.59172e-09
5.34989e-09
3.485e-08
7.4138e-08
3.1663e-07
1.33149e-09
4.48861e-09
1.59218e-08
8.56261e-09
6.59393e-09
9.02908e-08
2.90247e-10
2.27839e-08
0.00779131
1.209e-08
3.52589e-08
1.2731e-08
1.22592e-07
1.44811e-09
7.77749e-09
2.44525e-07
4.92374e-10
1.11631e-08
0.00194461
3.12621e-08
6.7701e-09
6.75166e-07
2.4562e-09
1.42864e-08
5.47825e-08
0.00195786
1.12647e-07
0.00225092
0.00153944
1.4084e-08
1.34926e-08
6.0679e-08
4.88906e-09
0.00162534
4.33152e-08
2.57363e-07
3.69735e-07
2.71292e-08
0.00242858
0.00154383
2.09907e-09
4.31463e-09
1.17824e-08
5.86748e-08
6.03557e-08
5.95079e-09
4.22726e-07
3.74304e-09
1.57698e-06
2.49054e-09
3.12935e-09
8.08767e-09
1.76253e-08
2.47554e-07
7.36971e-09
3.08898e-08
0.00442882
0.00149968
0.00265021
0.00160222
1.56678e-06
1.01186e-08
0.00207836
7.577e-07
6.48103e-09
0.000410061
2.37145e-09
1.43967e-07
0.00242351
3.85862e-08
1.27959e-07
2.30313e-08
4.4879e-08
0.00148947
8.12912e-09
1.27337e-09
2.11469e-07
2.61168e-09
4.84208e-07
7.00995e-06
7.1687e-08
0.00216491
3.8936e-08
0.000460404
3.54524e-05
0.00219374
4.44009e-10
4.98434e-09
2.50389e-07
3.70392e-09
0.00188219
3.89485e-07
0.00051797
1.49299e-07
2.47986e-07
1.36012e-07
2.5158e-08
5.91312e-09
5.22494e-08
3.44388e-06
4.0143e-08
2.96478e-06
0.00339631
7.53686e-05
0.00431068
5.80433e-09
2.76762e-09
0.256831
0.00194683
1.18322e-08
1.47669e-09
0.00281734
6.97703e-08
7.26291e-09
0.00239601
1.3571e-08
0.14886
0.00273425
1.35641e-09
8.6392e-09
0.00168278
1.17074e-09
6.65098e-09
0.00261305
4.39121e-09
0.00285668
2.07883e-08
2.27927e-07
3.11923e-08
0.000942394
6.04074e-08
3.00791e-08
1.93513e-07
0.00261519
1.63778e-06
4.062e-09
9.84718e-09
1.26792e-07
0.0021992
8.74551e-10
1.88645e-08
3.93255e-08
3.77356e-06
0.00261112
0.000270961
0.00145923
1.09896e-08
0.000358077
9.9568e-09
0.173598
0.00335004
6.14462e-09
0.00158902
4.66095e-05
2.84914e-09
2.6693e-09
1.08651e-08
0.00261596
9.76e-09
3.17799e-09
2.77283e-07
1.12452e-08
1.32294e-09
0.000301441
2.91294e-09
9.19543e-06
0.0025186
2.63937e-05
3.2481e-09
0.00210645
0.0203088
6.37436e-09
1.11736e-08
0.0141689
4.19007e-08
2.93023e-06
1.55927e-08
4.28258e-08
4.66857e-08
0.0229387
0.00829378
4.50548e-08
0.00253889
1.4328e-08
3.84697e-08
0.00284631
3.26257e-08
7.02405e-08
9.6089e-09
1.29588e-07
0.00244469
2.63998e-08
1.95249e-08
0.0017124
7.28439e-09
0.00275051
1.51316e-09
8.11811e-09
1.03146e-09
8.1746e-09
0.00155882
5.06257e-08
7.56757e-10
2.013e-09
1.20607e-08
7.37744e-08
0.00265936
3.95637e-09
3.61824e-09
2.69946e-09
1.54349e-07
0.00678944
3.23436e-09
0.00166416
1.88088e-08
1.36438e-08
7.89107e-09
5.5178e-08
0.000429637
6.76819e-07
2.69789e-11
1.38824e-09
0.00190731
0.00229728
5.41528e-08
6.28968e-09
0.108415
2.60357e-08
4.40937e-10
0.00356686
1.0563e-08
0.00280478
2.97238e-07
1.75361e-08
1.45618e-08
1.35846e-08
9.54391e-09
5.35121e-10
0.0735078
7.95249e-07
1.48529e-09
4.42915e-08
5.43349e-08
6.53992e-09
0.00267565
4.40851e-09
1.027e-08
0.00207273
2.79862e-08
3.3782e-08
1.60658e-10
0.0024001
3.04155e-08
1.41041e-07
4.11152e-09
3.69993e-08
5.13469e-09
0.00245141
4.74598e-09
6.034e-09
0.000611825
1.1209e-08
7.27775e-09
0.00241284
6.57881e-08
3.58759e-10
2.91713e-08
5.15904e-09
0.00192424
4.49789e-07
6.17427e-08
2.50863e-09
4.22794e-07
1.45289e-07
1.03885e-08
1.83967e-09
1.0304e-09
3.44121e-08
5.39114e-09
8.48014e-10
5.6929e-09
7.42028e-10
7.21764e-09
0.00239266
7.14151e-07
1.53129e-08
2.60196e-09
1.42471e-09
0.00232344
3.64613e-09
0.00340215
0.304403
0.00163462
6.71748e-10
0.00223161
0.00304517
7.10865e-09
1.09126e-08
7.67741e-08
0.00218504
0.00265711
3.17327e-07
7.36416e-09
2.90639e-07
5.13899e-10
8.63458e-06
8.22899e-09
1.02879e-07
1.789e-08
3.09829e-09
3.43472e-09
2.03666e-09
6.66348e-09
9.00923e-09
4.25185e-09
5.06994e-09
1.22021e-08
2.91575e-08
3.2914e-11
3.36307e-09
3.31056e-09
6.57581e-09
1.06975e-09
0.00260168
0.00195964
0.00288522
3.22882e-09
0.00230686
1.5136e-08
2.39645e-09
5.47889e-09
1.77887e-06
1.65829e-07
6.84863e-08
4.93016e-10
9.9744e-09
1.57555e-09
8.35408e-09
1.689e-09
1.47715e-08
1.41286e-07
0.00163965
1.13071e-09
3.45394e-09
0.00145695
0.00185109
0.00226971
0.00207168
0.00180786
4.23166e-08
2.6395e-08
2.98835e-09
8.90996e-09
7.53764e-09
1.40518e-06
6.98664e-10
2.88422e-08
3.33028e-08
7.1101e-09
2.88113e-09
2.55623e-09
7.61806e-07
3.1551e-06
4.13113e-07
8.63709e-09
1.74716e-09
3.78879e-09
0.00294909
1.73475e-09
0.00192404
9.76273e-08
7.51832e-09
7.52127e-07
0.00105424
7.35602e-08
7.26782e-10
4.15146e-09
1.32398e-09
1.43557e-09
2.50955e-08
1.26841e-09
0.00114453
3.29358e-10
4.18204e-08
0.0037311
3.59844e-09
0.00138002
6.10859e-08
0.00223421
1.08235e-07
0.00126041
1.86581e-10
0.00291525
0.00240821
2.79363e-08
1.44904e-09
0.0016275
1.8454e-08
0.00596596
1.71905e-08
7.74205e-09
5.09796e-10
1.81691e-08
2.02859e-08
1.57051e-08
6.45281e-07
0.00310744
0.00169827
4.43443e-06
3.79592e-09
3.57112e-07
0.00315293
0.00142013
0.00245982
0.002431
4.98149e-09
6.52726e-08
2.56811e-08
1.26753e-08
0.0031556
5.79335e-09
0.00153544
0.00334276
6.04534e-09
3.85022e-09
0.00166841
0.0031447
2.94085e-08
5.3405e-10
0.00174273
0.00753498
1.33992e-09
4.93643e-07
9.59797e-08
0.000406191
6.21718e-08
5.49566e-08
2.52078e-07
2.73291e-07
9.96522e-08
2.48819e-09
5.02119e-09
1.35353e-08
2.82294e-09
1.6941e-08
7.33275e-09
2.60975e-10
2.00346e-09
0.00207101
0.00293138
4.96605e-10
2.30122e-08
7.92701e-09
3.4121e-09
0.00588061
1.6807e-08
2.24464e-09
0.00286923
0.0015637
0.00145973
0.00168702
4.3745e-08
0.00429635
2.86222e-07
0.00391468
5.84166e-10
0.00234842
2.42777e-08
3.45782e-08
1.51936e-07
5.96462e-10
0.00305907
1.86423e-07
0.00497997
7.09162e-09
1.25154e-09
9.50811e-09
9.39199e-09
0.00139194
0.00297739
1.37193e-10
3.44458e-09
1.81366e-08
0.00173214
5.08024e-09
0.00292897
3.49438e-07
1.59833e-09
3.6095e-09
0.00250695
3.10537e-08
0.00221896
8.02855e-08
0.00394772
0.0032995
7.35862e-08
1.72298e-09
0.00366245
9.93597e-09
8.5097e-07
0.000344636
1.52827e-08
1.44634e-07
2.19355e-08
8.55996e-09
0.00310455
7.10665e-09
8.57773e-09
3.50286e-10
6.54264e-08
8.09131e-09
4.74318e-09
2.18377e-08
9.37223e-09
2.02698e-08
0.0030213
2.06309e-08
2.16988e-08
4.62062e-09
1.411e-09
9.20291e-09
7.12016e-09
9.3741e-09
0.002265
8.19024e-09
0.00302719
0.00454825
5.71502e-09
0.000360671
2.75854e-09
3.10078e-09
2.76168e-08
1.27203e-08
3.05244e-08
0.00158395
0.00209175
1.12594e-07
0.0145914
8.39428e-08
0.00318215
0.00110968
4.8289e-08
0.00235651
0.00452456
1.32244e-06
0.00259713
0.000410455
6.37295e-09
0.0442478
8.13551e-10
0.000563896
5.07169e-10
0.00260468
2.19922e-10
2.2502e-09
0.000636407
0.000341715
1.27537e-08
0.000460445
9.80034e-09
9.52886e-08
2.1138e-08
3.11966e-09
4.25528e-07
2.59913e-10
5.14242e-09
0.00257493
1.19732e-08
1.39055e-08
4.84595e-09
1.21995e-07
1.66207e-09
1.00049
3.15125e-08
1.34661e-08
9.31805e-08
1.59703e-07
0.00029709
0.00241808
4.18875e-08
7.24607e-09
0.00242952
0.00241258
3.706e-08
2.32557e-08
1.36781e-08
2.81445e-09
2.42223e-08
1.07617e-08
0.00212451
0.0044676
6.72803e-09
2.38454e-09
3.59462e-09
4.3205e-09
0.002547
0.000394487
1.72193e-09
1.81226e-08
1.7213e-08
0.00222314
0.0178268
0.016675
0.00199556
2.10907e-08
2.1643e-08
3.17378e-09
3.27112e-08
1.90793e-08
0.00234213
5.33673e-08
0.000310597
3.53596e-09
4.98128e-09
0.00328739
0.0026713
7.27339e-09
0.00315227
1.07984e-09
1.46321e-09
4.90306e-07
3.69097e-09
3.11633e-09
0.00187452
2.79799e-08
1.28183e-07
0.0038523
1.15584e-08
0.0018419
0.00311374
1.309e-08
0.00329643
1.32881e-08
1.22639e-08
1.70292e-08
2.00034e-07
3.28324e-09
4.63687e-08
1.27933e-09
2.68524e-08
0.152115
1.27491e-08
0.00248195
6.64329e-09
0.00309444
7.23421e-10
4.51026e-09
4.41722e-09
0.00241587
8.66188e-09
0.00230525
0.00208073
0.00319177
1.53083e-08
0.00224467
1.57721e-07
1.03547e-08
2.68754e-09
5.98356e-09
9.85875e-09
7.29796e-08
1.48298e-07
2.96158e-07
2.50649e-09
0.0029198
3.72085e-08
1.27311e-09
8.65251e-10
5.2184e-09
1.26703e-09
0.00206308
3.56422e-08
0.00307818
2.17109e-08
0.000624953
2.41533e-09
2.85828e-09
0.0018199
0.00366426
6.48777e-08
1.97094e-09
0.00379802
1.16418e-08
2.24893e-09
1.09878e-09
1.88018e-09
5.18856e-10
1.21728e-08
1.43729e-09
1.23495e-08
3.84583e-09
5.8064e-08
2.7014e-08
0.00253054
5.76651e-07
9.19218e-08
1.22044e-08
7.44089e-09
0.00216309
4.87282e-09
0.00317473
3.83288e-08
2.68637e-08
4.63599e-09
5.04835e-09
8.30353e-08
7.66752e-07
0.00135013
0.00129875
8.22965e-09
0.00380475
2.21513e-08
0.00287251
8.80302e-09
1.09936e-08
2.56317e-09
0.00270104
0.00132735
0.000427424
4.95219e-08
1.84084e-09
0.00134007
4.76524e-09
5.31447e-09
7.99881e-09
6.76286e-09
0.0024512
0.00209865
1.56001e-08
2.10433e-08
5.26482e-08
3.96072e-09
0.00176192
0.00194159
6.17653e-09
2.17957e-08
0.0016403
8.16624e-09
2.93024e-08
1.16008e-09
2.97581e-08
2.99534e-09
0.00234564
5.39307e-09
0.001431
0.00052662
3.6265e-09
5.64365e-09
0.00114414
2.94727e-09
0.0020433
2.31905e-08
0.0147702
3.80447e-07
0.0978829
0.00189022
8.72226e-09
3.08852e-09
0.000293584
4.38833e-09
1.66335e-08
0.0299185
2.98503e-08
2.12189e-08
1.24e-08
1.66362e-08
6.81188e-09
0.00223699
0.301984
0.0244925
1.33508e-08
8.83441e-09
1.45232e-07
0.00188976