/*--------------------------------*- C++ -*----------------------------------*\
  =========                 |
  \\      /  F ield         | OpenFOAM: The Open Source CFD Toolbox
   \\    /   O peration     | Website:  https://openfoam.org
    \\  /    A nd           | Version:  10
     \\/     M anipulation  |
\*---------------------------------------------------------------------------*/
FoamFile
{
    format      ascii;
    class       volScalarField;
    location    "96";
    object      SgRate;
}
// * * * * * * * * * * * * * * * * * * * * * * * * * * * * * * * * * * * * * //

dimensions      [1 -1 -3 -1 0 0 0];

internalField   nonuniform List<scalar> 
59698
(
0.0162365
0.00198823
0.00252323
0.00271582
0.0304329
0.00145199
0.00463452
3.04551e-05
1.9895e-09
3.93124e-09
0.000586478
0.000299358
1.57693e-09
0.00229237
0.000360535
4.28034e-07
6.96338e-06
0.00014609
4.5194e-05
0.000253144
0.00176197
0.0142379
0.00049876
8.81905e-08
0.0422553
6.78823e-05
0.000342903
0.0101126
0.00918224
0.0074795
0.00480483
0.000600616
6.69393e-08
0.0165136
0.00249
0.00016358
0.0196418
0.020441
3.09679e-05
0.0251081
0.00864283
2.30474e-07
0.00371065
0.000640492
0.000402108
0.0322603
7.37876e-05
0.00073068
0.00315789
0.000173359
0.00151949
0.0001193
0.00206506
0.0027344
0.0113985
7.68227e-05
0.0013242
0.00021196
0.000805487
0.00285956
0.00523731
0.000500911
0.122493
7.04048e-05
0.0125268
0.00160841
1.75152e-09
0.000399562
5.58292e-05
6.77421e-09
6.28121e-07
0.000251092
0.000363291
0.0412178
0.000411946
0.039223
0.000119413
0.00922874
0.000357833
0.00615277
0.00882219
0.000479845
3.9656e-09
1.62008e-05
0.00859545
0.000552474
3.74713e-06
4.22595e-05
0.0632201
0.000129007
4.52381e-09
0.00206587
0.0147103
9.8034e-06
7.33512e-05
0.00375159
0.00527514
6.12158e-05
0.000270838
8.59506e-10
0.0765332
0.00181036
0.0161816
0.015383
0.000121461
0.000564778
4.41946e-05
3.67892e-05
2.67959e-09
4.40742e-10
0.000250288
7.30479e-06
0.0379238
1.56281e-07
2.62331e-05
4.50239e-05
4.01196e-05
0.0035383
2.36674e-05
1.14279e-08
3.63539e-05
0.000708643
1.16443e-06
6.15236e-06
2.12662e-05
3.34618e-05
0.0108079
7.20949e-09
2.78616e-05
2.97744e-05
0.0451095
3.73103e-05
1.10596e-09
0.100237
0.00433069
0.00438134
2.15397e-06
2.4e-10
0.00025554
0.000131415
0.000109219
0.00231875
0.00269942
0.00266997
1.00092e-05
0.000692285
6.36939e-06
2.21055e-05
0.00448986
0.02927
0.000299535
0.000434375
0.00147492
7.59106e-06
0.000161675
0.000342611
4.74435e-05
0.00162925
0.012403
5.86789e-10
0.00085825
5.10494e-05
0.0164163
0.00163747
0.00342977
0.0346108
0.000238351
0.0717538
0.00200238
0.0004114
0.0119985
1.51845e-06
0.0108304
0.014857
0.0795838
0.00194664
4.40436e-09
0.00144692
0.000326016
0.00929856
0.00943671
0.0183617
0.0148178
1.98398e-05
0.0455905
0.000235441
0.011456
0.00248
6.54154e-06
0.00118179
0.000402696
6.71745e-05
0.00267552
0.0386644
0.00408889
0.00417131
0.0098522
0.0584352
2.70513e-05
0.00770801
0.000227085
0.00627063
0.0210807
6.60985e-05
0.0104802
0.0027736
0.00615708
0.00285549
0.00782234
0.0114901
0.00256099
2.36641e-05
0.00278792
1.56723e-08
0.00406709
0.00336756
3.72974e-05
3.63171e-05
0.012801
0.00665857
0.00562281
0.00268634
2.97656e-05
0.0664873
0.000821628
0.0264325
0.00732091
0.00323521
0.00689418
0.158718
7.56611e-09
0.0046996
0.00293578
0.00319412
1.38765e-05
0.00962109
0.0830595
1.91222e-05
9.02522e-07
0.000449642
0.00262478
0.00147335
0.0134985
0.000664542
0.00609082
0.000121075
0.00379116
0.229576
0.00122248
0.000426937
0.000704131
0.00164438
0.000628488
0.000233553
0.000618642
0.00239207
0.00600784
0.00128878
0.00364401
4.09097e-05
1.48294e-05
1.81801e-09
0.000389418
0.00591722
0.0047162
0.047769
2.3224e-05
1.07302e-07
0.000165085
1.62951e-05
0.000141575
0.0439157
0.00022205
1.84111e-05
0.018025
0.000205858
0.00146596
0.000511795
0.00208621
1.23135e-09
0.000574131
0.000193268
0.000212528
0.105024
0.049359
0.0203044
0.000135244
0.000647248
0.0730623
0.000444654
0.0907949
0.00234105
0.000188146
0.000164795
0.000320358
0.00273539
0.000356796
0.000804715
0.00421066
1.18453e-05
0.0027215
2.36183e-09
6.8668e-08
0.000824561
6.46964e-05
5.27578e-05
0.0520683
0.0010138
2.02855e-06
0.000267692
0.0019797
7.08214e-05
3.83618e-05
2.37996e-08
0.00193961
0.00513638
0.000403389
0.000393133
0.000829308
0.000805171
0.000340155
0.323131
0.000320887
2.98883e-09
0.0484235
0.0105236
0.000328251
0.000353343
0.00044076
0.000361923
0.0094507
0.00415687
0.0203577
0.206239
0.000430956
1.87744e-05
9.8748e-06
0.000662888
0.0090926
0.00449
0.0102536
0.00206614
0.00253464
0.00147878
9.69065e-05
6.76452e-06
0.000102133
0.0395477
4.76977e-05
0.00204824
0.00798934
9.16583e-05
0.0401469
7.94539e-10
0.245319
0.00216919
0.0141469
0.000126026
3.82222e-05
1.82806e-09
2.75486e-05
8.89892e-06
1.10432e-07
0.000891455
1.3313e-10
1.04124e-07
0.00281299
0.00203068
0.000155989
0.00165592
0.0018929
0.000533992
0.00367389
0.000651135
0.00619383
2.98253e-09
0.000153397
2.45198e-05
0.00046052
2.485e-09
0.000347123
0.000102933
5.64748e-05
0.000525703
0.00014003
1.95436e-05
0.000211824
0.000544826
7.99982e-10
0.000143609
8.75523e-05
0.000457523
0.00457211
0.0026113
0.00134142
0.0022763
0.0478813
0.00184028
0.00272068
0.000145725
0.00284853
0.00238698
0.00258644
3.99227e-05
0.00148703
0.00420661
0.0856112
0.0282581
2.271e-05
0.0054157
0.0315736
0.000404301
0.00178359
0.000434522
4.88013e-08
0.0592331
2.73515e-06
0.0103712
0.00240168
0.00184148
0.00303737
0.0021873
0.00252756
0.310913
3.75691e-05
1.30339e-05
7.89491e-09
0.000219032
0.00143131
5.69558e-10
0.000259305
0.00214561
0.0163889
0.00303059
0.00211967
1.42611e-08
1.39991e-08
0.213345
0.000123433
0.00317777
1.92325e-07
0.00325731
5.1189e-09
2.18623e-05
4.04769e-05
0.00239078
0.0701609
4.51274e-10
6.46661e-05
0.0090715
0.00256157
0.000125309
5.93499e-05
0.0328931
0.000284412
9.7077e-05
0.108536
1.41592e-09
0.00971044
2.89335e-05
0.0543522
8.67771e-06
0.01582
0.0133357
2.18897e-09
0.000975187
0.000446477
0.00846898
3.34593e-05
0.00804748
0.00292347
4.40665e-09
2.05479e-10
6.87967e-09
0.000386211
0.000817575
0.00111388
0.0689818
0.00622402
0.00220355
3.50178e-05
0.00049914
3.93013e-05
1.91901e-08
0.00536265
4.55643e-05
5.57532e-05
9.38852e-05
0.0657609
0.00179461
0.0230925
0.0662999
0.00109925
0.000163538
0.0585909
6.16729e-05
5.57233e-07
0.00237023
0.00943541
0.000365619
9.74872e-10
0.0642345
0.00716325
0.00459855
1.71107e-08
1.12081e-09
3.84641e-05
2.17406e-09
1.24769e-05
0.00314248
0.000585111
0.0748092
0.0073379
5.41925e-08
0.00908988
5.58785e-05
6.87146e-09
3.85551e-05
7.03739e-08
2.48259e-08
0.00541939
0.00378536
1.16891e-05
3.86635e-09
2.18703e-09
0.00126369
0.00954876
1.04108e-05
0.0106987
0.00390351
3.88268e-05
0.0431799
1.82781e-08
2.22792e-05
0.00145199
3.56388e-10
1.35536e-08
0.0018548
0.000138661
0.000384883
0.009738
0.000357178
0.000148113
0.06787
0.00819383
0.0135462
0.0100988
0.000173303
0.0117222
7.81455e-06
4.19925e-05
2.28083e-09
3.92428e-05
1.91912e-09
0.000282796
3.02572e-06
1.92166e-08
0.0011574
0.00688675
0.000451771
0.0007685
1.7363e-09
3.30839e-05
9.32073e-05
5.57159e-05
1.80886e-09
0.0747305
5.27729e-05
0.00551087
0.000539254
0.00288113
6.43352e-05
1.88755e-07
0.0026
0.00286881
0.00338245
6.78772e-05
0.00402746
0.00211862
2.31179e-09
0.000732636
7.59078e-05
0.00520018
5.44945e-05
0.00404517
0.000313354
0.00242968
1.77618e-05
0.00416344
0.00268259
0.00216431
0.00332559
0.000371761
0.00016786
8.51216e-10
1.90744e-05
9.29552e-07
0.00432379
0.000349775
7.30189e-09
0.00515522
3.36748e-05
2.87465e-09
0.00340505
0.00148531
0.00216272
0.000165015
0.00108744
0.00393062
6.4899e-07
8.10756e-06
0.000548584
1.01781e-05
0.0043399
0.001407
0.00279015
2.21513e-05
0.226007
1.87927
2.07188e-05
5.03881e-09
0.000598434
0.0021404
0.000947175
0.00248047
4.89787e-05
0.00710872
0.00246072
0.00319045
0.0015646
0.00276863
0.000211216
9.22355e-05
0.00114444
0.000107969
0.00132672
0.000237011
2.4336e-05
0.00156771
0.109639
0.000239181
5.09309e-06
0.000607899
1.4492e-09
0.00242972
0.00380625
4.14584e-05
0.00244457
0.000120807
1.75421e-09
0.000439477
0.000176457
0.00828687
0.000806102
0.000587231
0.000114517
4.06101e-05
7.95395e-06
0.000325399
0.00202936
0.000309349
0.000814589
0.000880407
0.0196408
0.0898858
0.00137109
3.34511e-05
0.00233338
0.00319742
0.0415303
3.86731e-09
2.14123e-05
0.000460595
0.00354648
0.000144072
0.00168548
0.000428463
0.0107938
0.0473261
0.000145385
0.000422323
8.0365e-05
3.53427e-07
0.000378101
0.00140718
1.56594e-05
0.00215132
0.000195026
0.000191433
0.0113608
0.00441375
0.0391989
0.000808229
0.00138482
0.00211604
0.0024421
0.000241943
0.00117855
0.000650605
0.000159497
2.31274e-10
9.64915e-10
0.00661187
0.000820709
4.49944e-05
1.49576e-09
0.00635406
2.8788e-05
4.41166e-06
2.72248e-09
0.00343071
4.18149e-08
0.000503981
0.000362135
2.82302e-05
0.00195215
0.00919505
3.43683e-05
1.3783e-09
0.00064694
0.0624333
0.00322001
3.84396e-05
0.000955656
0.00145853
0.0257165
0.00885851
1.33169e-09
0.0558466
5.1796e-05
0.00258837
0.000344566
0.00938998
6.8476e-05
1.48148e-07
0.0111639
0.00449419
0.000532172
0.00308715
0.0601288
0.000585439
6.92294e-05
0.245433
0.00232582
0.00074383
0.00239958
0.00191868
0.00174794
5.25251e-06
0.0152526
1.88942e-05
0.0600611
0.00317623
0.024577
7.23339e-10
0.000212309
0.105102
0.237855
0.000599779
6.874e-05
0.0500583
0.000383649
0.00225775
0.00516419
0.0019431
0.0082774
0.00405316
5.95829e-05
0.000401563
0.00198291
0.0142445
0.000373922
3.51357e-10
0.00269246
2.55319e-09
0.00434288
3.8753e-05
0.000223898
0.00607727
0.0052298
1.2339
3.75435e-09
0.0246348
0.00974238
0.0210435
0.00105345
0.00478019
0.000326091
0.000962754
0.00158864
0.00140193
0.00655541
0.0111312
0.104079
0.0021909
0.00543359
0.000541711
7.04898e-09
0.000383165
0.000366131
0.000232763
1.64924e-09
0.00320356
2.15516e-06
0.00949323
0.00021361
0.000731112
0.00158247
1.66157e-07
0.00686399
3.52838e-09
0.00100438
6.12464e-05
0.00130426
0.000119124
0.0137295
0.000651795
0.00179571
0.019969
0.211131
8.1217e-05
0.00874476
0.000129178
0.000712019
0.000444806
0.000428767
0.00378336
0.000844551
0.00749268
0.000561237
0.00627306
0.00227907
2.03166e-06
0.000401152
7.30202e-05
8.29581e-05
3.33938e-05
0.00050364
0.000272969
0.000319501
7.69469e-09
5.10609e-09
2.10727e-09
0.000487214
2.2127e-09
0.00553922
0.00492844
0.00153279
0.000499714
0.00406222
1.6557e-05
2.92933e-09
0.0158206
0.000469636
0.000153193
1.30755e-09
0.0355279
0.00488612
0.00088059
8.98506e-06
2.47969e-05
0.0106033
2.63818e-07
0.00983799
0.000131855
0.000532567
0.000484795
0.000128422
3.31753e-05
2.50964e-09
0.00134135
1.52588e-09
0.00883828
8.9823e-08
0.00204314
0.00010882
7.02538e-05
0.00163667
0.00164784
0.000598583
0.00192337
6.04814e-06
0.00202195
0.000307138
1.24161e-09
0.00206032
6.28053e-05
3.31555e-05
0.00423803
3.05442e-09
0.000267524
0.00372458
0.0182778
0.000319936
0.0010582
0.002979
9.16867e-05
0.00462614
0.000633464
0.000584061
0.00448724
0.000148673
0.000379941
0.00255518
0.00162119
8.57891e-09
0.00263448
0.000106526
1.22515e-05
0.0654702
0.000412239
0.0014565
0.00262431
1.49183e-07
2.04007e-09
0.00272535
0.00403389
0.00521601
0.0202557
0.00400021
6.80008e-07
0.0408976
9.29787e-05
0.0013278
0.115412
0.000230231
0.00457593
0.00452909
0.0323303
0.0587404
7.38647e-09
0.00254318
1.70882e-09
0.0246929
0.000269933
0.000346983
0.0014211
3.93188e-10
0.000761136
0.0024292
0.00057703
0.00195233
0.00681506
0.00278866
0.00316836
8.33629e-05
0.0251056
0.000750947
0.000141952
4.69935e-05
0.000825892
5.68628e-05
0.0023811
0.0010725
2.05865e-05
4.84804e-05
0.00533128
0.000295005
0.000163991
0.000107031
0.00544188
1.44364e-09
0.000141984
0.00962671
0.00358291
0.000295411
0.000415229
0.000264838
0.000129309
0.000425241
2.36779e-08
7.50629e-09
0.000429222
0.00234411
0.000466221
0.000396095
0.0140764
0.0187433
0.0178066
7.53878e-06
0.00184147
0.00294219
0.00271916
0.00483029
0.0059613
0.000400968
4.63292e-05
0.00255707
4.38923e-05
0.0111021
0.0565928
0.00198526
0.000443778
6.85001e-07
0.00053842
0.000106227
0.00115046
0.00227489
0.00234573
0.000608724
6.87852e-09
0.000122902
0.00236743
0.00236236
0.0023203
0.00365563
0.0471875
0.000395622
0.00190293
0.00135654
0.0230314
5.67444e-10
0.000397669
1.45e-05
0.00464002
0.000453819
0.0016042
0.0047243
3.42496e-05
0.00347789
0.00356943
0.00366876
0.00548916
0.00953023
0.0100866
0.00816737
0.00524799
0.00589171
1.51692e-07
0.00014862
0.000475216
0.00595509
0.00475267
0.00223048
5.30966e-10
0.00174197
0.00391111
0.000245636
0.00160765
6.34656e-05
0.0148564
0.000126914
0.0407049
0.0031491
0.737197
7.54277e-06
1.56466e-08
0.00211451
0.00317215
1.78179e-07
0.000760437
0.00399619
0.00701194
0.00434144
0.000637981
0.00677179
0.000542244
1.04677e-09
0.0198054
0.0007658
0.000931981
0.00116171
0.00267918
0.000323938
0.00112616
3.11796e-09
0.000534601
0.00821172
0.002713
0.0921719
9.39247e-09
0.0024106
0.0819233
2.54402e-10
0.00879722
0.00276814
0.0251032
0.00130931
0.00362754
3.48924e-05
6.74027e-06
0.00132204
1.54795e-08
0.00123565
4.22817e-05
0.000118176
0.000126121
9.20955e-06
0.00171763
0.00323788
0.00966125
2.94287e-08
0.00242119
0.00051626
0.000161449
0.0361513
0.0543858
0.00499175
0.000372509
0.00425795
0.457424
0.0239808
0.026251
0.000459967
0.00044909
0.102381
0.000136616
2.2893e-07
1.50836e-06
0.0166416
0.00021397
0.00170618
0.00032907
0.00174768
2.99174e-08
0.00458471
0.00904173
0.00287822
0.00064936
0.000740065
0.000477735
2.2568e-09
0.000130885
0.00363861
2.51884e-10
0.00114516
0.000583993
0.00778515
0.000354454
0.112351
4.51374e-05
0.00118793
3.40285e-07
0.00566698
9.29695e-05
0.00110911
0.00256964
0.000380628
0.00242477
1.23456e-05
0.000137768
0.00285793
3.81905e-05
0.0186639
0.0121936
1.04409e-05
0.00150467
0.0841693
0.00295572
0.00399489
0.000114638
1.82784e-05
0.00370135
0.0362217
0.00900983
0.00265077
0.000183477
0.00191182
0.00336611
0.00297352
0.0037381
0.00536803
7.54859e-09
0.115901
0.0515833
0.00048584
1.04958e-06
3.05178e-05
0.00312867
0.00244974
0.0260933
0.00113269
7.52564e-07
0.00230286
0.000371832
2.89473e-09
0.00356113
4.21979e-09
0.00269293
2.67795e-05
0.00148369
0.00377214
9.24292e-05
0.0195586
0.000150995
0.00043443
0.00363661
0.00413178
0.00205251
0.00210958
0.011834
0.0005797
0.00034517
0.000374788
0.000264856
9.26419e-06
2.28521e-09
0.00019036
7.30875e-05
9.69554e-05
0.000781454
0.000646993
0.000853658
5.19584e-06
1.83705e-05
1.86574e-05
0.00031794
0.00267073
0.000496407
4.56303e-05
0.000238786
2.92769e-05
0.000315413
0.000232162
0.000223593
0.00389569
0.103298
5.30283e-05
0.00479509
0.00168752
0.00412916
4.89319e-09
3.53929e-06
4.4096e-05
0.00829546
0.0199023
0.00479763
0.00232807
2.26239e-08
8.51364e-05
0.000377625
0.00476325
0.00938226
1.04976e-08
0.00514249
0.00283408
0.00107564
0.00352531
0.00264114
0.0145653
0.00191138
0.00385594
9.46314e-05
4.65159e-10
1.39199e-09
5.27749e-05
0.00564214
8.24761e-06
6.35952e-10
3.49291e-05
0.00502752
0.000211236
0.00100975
0.00101851
6.06712e-05
0.00191194
4.84827e-05
0.00389591
9.72842e-05
0.00209158
0.0284729
0.00210762
0.00122861
6.13068e-05
2.25155e-07
0.00101574
0.000983775
0.0146805
3.22023e-10
1.21893e-07
0.00121405
1.22673e-07
0.000889774
0.000216918
1.56013e-07
6.88393e-09
0.0002156
0.000284104
0.000584267
0.00220002
0.00208098
0.000277671
0.000574421
2.60691e-05
1.07353e-08
0.00560583
0.000202368
6.81556e-10
0.047436
6.52999e-05
3.2741e-05
0.000283216
6.10954e-08
1.63018e-05
0.000547254
8.78609e-05
0.000563698
9.59505e-06
0.000949212
0.000342271
0.0027317
0.00428509
0.00128709
1.56094e-05
0.0625786
0.00238284
2.0896e-07
0.00607976
0.0028937
0.00671224
1.09876e-05
2.29402e-07
0.352401
1.63286e-06
2.48497e-08
3.47296e-05
0.0253733
0.00305978
0.000635586
0.000492202
2.06813e-05
0.00321593
0.0361506
0.00481404
0.0086762
0.014323
5.59017e-08
0.000340291
1.61629e-09
3.65807e-05
0.00831423
0.000746733
0.0750472
4.14941e-10
0.000486451
6.35131e-10
0.000532964
0.000313616
0.000377939
0.010524
0.0180803
0.000544704
0.00185266
0.00451473
6.23656e-09
0.000240486
0.000992292
0.00202208
0.000393008
0.000816024
0.00748871
0.0106497
0.000589917
0.0017175
0.00265575
3.69522e-05
6.42963e-09
0.000432447
0.0136706
0.0116351
0.00501829
0.0472065
0.00266994
0.000172188
0.00524836
0.000185466
0.000681351
0.00106616
0.0223198
0.000284962
0.0206197
0.011687
0.0339715
1.82118e-09
0.101658
0.00888264
0.00172281
0.004611
0.0646806
0.000404208
0.00281283
0.00239127
0.00228857
0.00806241
0.00112699
3.13311e-05
1.84227e-06
0.00203467
0.0248933
0.294511
0.000157146
0.00898932
0.000290238
0.00126525
0.000444875
0.190435
0.000619352
0.286762
0.779729
0.00010394
2.22861e-09
7.61058e-06
0.0013714
0.0106752
0.00561246
0.0101495
0.063536
0.0343706
0.00184544
0.00163648
0.010425
0.0113406
1.21343e-08
0.00051522
0.000427674
0.000356081
0.000429117
0.000637651
0.137819
0.000274629
0.00289624
0.000398952
0.00308282
0.00201786
0.00221777
4.55962e-10
0.479237
0.0314077
0.185135
0.147696
0.00220234
2.01723e-09
0.00668905
0.00125013
2.83439e-05
0.000761567
0.0852329
9.09218e-10
0.0017875
6.99419e-05
0.000207827
0.016511
4.78746e-05
0.00854797
5.34604e-05
6.51596e-05
0.0016501
0.000629322
0.00112689
0.0130151
2.92241e-05
0.00243779
0.00138473
0.0178805
4.94292e-09
0.000502803
0.00149896
0.0152344
0.00164564
0.000166048
0.00226585
0.0315027
0.000503156
0.000197183
3.04892e-05
0.00148126
0.00177416
0.00305822
1.46332e-08
3.14483e-05
2.46457e-05
0.000298099
0.00380934
0.00135495
8.19516e-08
0.00268962
8.65805e-10
0.0107149
0.00108924
0.000804571
0.00190458
0.00168508
0.00953106
0.000577849
0.0138289
0.00030382
0.00042333
1.1711e-09
0.000378709
0.000405409
0.000581335
0.00196227
4.88418e-07
0.0016325
0.00947836
0.00173716
0.000460525
0.0188279
0.00225122
0.00130376
0.0145226
0.00749391
0.012319
0.0130893
0.00628358
1.64017e-07
0.321676
0.0621278
0.000813564
0.000573399
0.0147537
0.000913464
0.0242329
0.000105077
0.00040327
0.0142505
5.67092e-06
0.00678018
0.000614673
0.000132115
0.00756629
1.64867e-05
0.0312531
0.357784
0.00113931
0.0573487
8.42056e-10
0.000256111
0.00435184
1.64266e-06
0.102853
0.00244197
0.00167137
0.000484954
2.46164e-09
0.00342611
0.00279654
5.20203e-10
0.000489102
0.0265942
0.000618779
5.7722e-05
0.0621163
5.12457e-07
0.00270327
7.76117e-11
0.000345772
0.00241071
0.000153483
1.16736e-09
0.00218473
1.11206e-08
0.00248721
0.000523743
1.87597e-09
7.87659e-08
0.00439958
0.00209919
0.00279489
5.44049e-10
0.00221519
0.000628735
0.00279495
5.08678e-05
0.0318884
4.5897e-08
5.5666e-05
2.74841e-09
0.00165429
0.0370827
5.04291e-09
2.79549e-07
0.000274719
0.00254569
0.000453087
0.00196075
0.29633
2.56886e-09
0.000231981
0.00232207
9.22168e-10
3.7455e-09
3.9781e-08
0.000175837
0.00050253
0.000847945
0.000529726
0.000106072
0.000200276
5.86899e-11
0.0115136
0.000221112
0.000394062
0.00147935
0.00394927
0.00385043
0.0443969
3.15987e-10
0.000173359
0.000123953
8.5482e-05
0.000106827
0.00277973
0.000620078
0.000514078
0.000120098
0.000348248
0.000381679
1.11991e-05
4.27156e-08
8.52354e-05
0.0226864
1.88689e-08
0.00851623
0.000123753
0.0156108
0.00113905
0.000119226
4.63228e-05
0.00438292
2.81093e-05
0.00409693
0.019291
0.00222083
6.20125e-05
2.54708e-05
0.000149728
0.000856247
0.000348783
0.00386273
0.0163609
7.19276e-05
0.0104721
4.63026e-06
0.87642
0.441453
0.000109827
0.0409382
9.51448e-05
0.000391338
0.00939915
1.04091e-05
0.602691
0.0441257
0.00759556
0.000620133
0.0283264
0.393221
0.0029164
0.0249175
0.00440634
0.00220054
0.124361
0.0441125
0.000576339
0.000959932
0.0260036
0.0487052
0.00412174
0.000311531
0.0342525
0.000205535
0.0139225
1.10135e-08
1.1108e-05
0.00658836
0.000214637
0.00421462
0.00390993
0.000125622
0.000127552
0.000294972
1.08078e-09
0.00785083
0.00602758
2.80989e-09
0.000444994
0.00171469
0.0022239
0.00405009
0.000384352
0.0115288
0.0637025
4.39278e-07
0.0330448
0.000140497
0.00431054
0.000143857
0.00223982
0.0301318
0.00416403
0.000222105
0.0272126
0.000303632
7.6312e-05
0.000365444
0.0002591
0.00062666
0.00751086
0.0259434
0.0146862
0.00741658
0.00552176
0.00104231
0.000133032
8.13903e-05
0.000136185
0.00413612
2.78929e-06
0.00483534
3.61644e-07
3.59033e-06
0.00159307
0.00144797
0.00175691
5.66599e-05
0.0102074
0.00187371
2.20205e-06
0.00339314
0.000275546
0.00180011
0.000459321
0.00683527
0.00231245
0.00507242
0.000447348
0.00635331
0.00228932
4.33616e-05
0.0023887
0.0031268
0.0018093
0.00153235
4.37888e-09
4.72038e-05
8.92725e-05
0.0346169
0.00179598
0.00702291
0.00184062
0.000176994
0.00334634
0.00839255
0.00228103
0.00250698
0.0036212
1.23242e-06
0.00165498
0.00190081
0.000365647
4.0825e-05
0.00299471
0.00262058
0.00799185
0.0290785
0.00167427
8.11138e-05
0.00297386
0.000329433
0.00427209
7.57113e-05
0.00616308
0.000354288
0.00280041
2.83984e-05
0.000730701
0.000921693
0.00721312
6.14941e-05
0.020111
0.00613858
0.000237688
0.00138563
0.00159049
0.000252111
2.92301e-05
0.00247944
0.0218717
3.42157e-06
0.0376327
0.00208335
7.02993e-08
0.000109463
0.00188577
9.95906e-06
0.000877288
0.0137453
0.0232466
0.00206803
0.011817
0.00155167
7.64273e-05
0.00439157
0.0143379
0.000448445
0.00157783
2.48632e-05
0.082148
0.0418505
0.000104299
0.00240753
0.00149691
7.7772e-06
0.000114142
0.0338056
0.0086846
0.0158529
3.88279e-05
0.00100566
2.84704e-05
0.0193909
2.49043e-09
0.00337287
2.53255e-05
0.00104767
0.0202966
7.45962e-05
0.000400243
0.0043318
0.001475
0.00257611
0.0015554
0.0236693
0.000227756
0.00201343
0.020005
2.04067e-05
0.000410058
0.000435127
0.000363397
0.00236904
0.0134102
0.000466896
2.30306e-08
5.28094e-05
0.00141167
1.47474e-06
5.63224e-06
2.10029e-05
2.63322e-09
2.64163e-05
3.755e-05
0.0115889
0.00499912
0.000370293
0.000460603
0.000290295
0.0624163
3.79499e-05
5.00449e-09
0.018118
0.00281395
0.001861
0.00332217
0.000518137
1.493e-07
0.0182328
0.0021676
0.0229145
0.000779346
0.0501014
0.0142633
0.000125526
0.0257709
0.00326306
0.0891022
0.00747026
5.65207e-09
3.52711e-05
0.25676
0.00668163
0.00100233
0.0031003
0.000159832
0.00333674
0.03084
0.0108978
0.00288516
0.144366
0.00637216
1.3591e-09
0.0178116
0.063997
0.0348685
0.0013264
0.00256403
0.000211013
0.00282806
0.000677714
0.0190488
0.0197085
0.000894225
0.0524456
0.023085
0.00061999
0.00253885
0.0137069
0.0032509
0.000723104
0.0505572
0.0026065
0.000112548
0.0107302
0.0108524
0.0217848
0.00258692
0.000270454
0.00276324
0.0163126
0.000357998
9.44392e-05
0.173081
0.00338288
0.00123799
0.00160932
4.70009e-05
0.00434437
2.64107e-09
0.0186018
0.00253518
0.0140855
3.29622e-05
0.00570227
1.12174e-08
0.0165055
0.000301457
0.000118694
0.00875036
0.00244241
0.00662825
0.0077194
0.00207143
0.0158096
0.000134263
0.015688
0.00660512
0.00931985
0.0564041
0.00558615
0.0292423
0.0346177
0.0169258
0.00114105
0.00453599
0.00265637
0.000966069
0.000916575
0.00398465
0.00221848
0.000639697
8.94518e-06
3.31236e-05
0.00237295
0.00133773
0.00127744
0.0540271
0.00323939
0.00269887
0.00011077
2.36499e-05
0.000452045
8.90935e-06
0.00258789
0.0299293
0.00253542
0.00192822
5.23341e-05
0.0169986
0.00255097
3.27784e-05
1.88449e-06
0.000216787
0.0346585
0.00685653
0.000520889
0.00229009
0.00447929
0.000220816
8.80373e-05
0.00493697
0.000429644
1.55888e-05
8.48162e-05
2.54912e-05
0.00187173
0.00221771
0.00104572
0.00867167
0.103271
0.000248987
1.81871e-05
0.00356706
0.000327514
0.0111109
0.00240176
5.3468e-05
5.17713e-05
0.00318915
4.86395e-05
0.0101024
0.0758916
0.0448233
0.000174193
0.000524215
8.90274e-06
0.000115535
0.0026339
0.00391751
0.000451264
0.00273026
0.0142078
0.00192874
0.000279336
0.0023094
0.000409679
0.0298018
9.6891e-07
3.69983e-08
0.0110417
0.00234378
0.000561558
0.00468585
0.000615164
0.000105844
0.000512909
0.00247705
0.0226754
3.99878e-05
0.000114438
0.000300115
0.00699425
7.85368e-05
0.000697887
0.000108462
0.00128133
0.0095205
3.57515e-05
0.0285895
1.02845e-09
5.11042e-05
0.00241395
7.41374e-05
0.000338598
0.00348073
0.00119736
0.00237169
9.30017e-06
0.00181152
3.65738e-05
7.584e-05
0.00226722
0.00332976
0.00329086
0.300116
0.00173077
0.000953692
0.00223769
0.00295742
0.000283502
0.000246168
0.00371206
0.00215456
0.00308766
7.42954e-05
0.000906096
0.0140459
0.00278435
0.111984
0.00086412
0.0100659
0.0104126
0.0123578
0.00126191
3.1813e-05
8.01342e-05
9.49065e-05
0.00010159
5.07584e-09
0.00025796
0.0115634
2.65472e-11
3.36128e-09
0.0037567
2.28777e-05
3.18394e-05
0.015
0.00192453
0.00290932
0.00191043
0.00227802
5.10444e-05
0.00158795
4.28227e-05
0.0242611
0.0132998
0.0102572
0.00190437
0.000139533
0.00158776
0.000292659
5.92736e-06
4.18248e-05
1.41442e-07
0.00168975
0.0109969
0.00693406
0.00145661
0.00179175
0.00219806
0.00232326
0.00176651
0.000341604
0.00411943
8.40326e-06
4.08195e-05
7.59567e-09
5.03271e-05
0.00276898
6.68313e-05
0.000335103
0.00227678
5.33019e-05
9.98352e-05
7.09572e-06
3.1551e-06
0.0537007
0.000477978
0.000670661
3.62616e-05
0.00284269
0.00221551
0.00185483
0.00343664
3.9947e-05
7.52673e-07
0.00105424
2.83935e-05
0.0194704
0.00321409
0.0241891
0.00160528
0.0512317
0.000104415
0.00110642
0.000236592
4.18223e-08
0.00373219
7.55069e-05
0.00133678
0.000103627
0.00221696
0.0192677
0.00166074
0.00232334
0.00870502
0.00239348
0.0108254
0.00361066
0.00163465
0.000933034
0.00505884
0.0296845
0.00030205
5.04553e-10
0.0634685
0.00887775
0.00639565
4.20291e-05
0.0652294
0.00193395
0.0151523
3.23802e-05
0.0173021
0.00325412
0.00136146
0.0023718
0.0023532
5.51882e-06
0.0402028
0.0145712
0.0145566
0.00303733
0.00231896
0.00159476
0.00321599
0.000958401
0.000104188
0.00160695
0.00303405
3.87304e-07
0.000130262
0.00169067
0.0361386
0.00308702
0.000346584
9.89117e-08
0.000406711
0.00168804
0.000455988
0.00151619
0.000732663
1.54797e-06
0.0140921
0.000252266
0.000665498
0.00204847
0.00125647
0.000127348
7.53998e-05
0.000176817
0.00205112
0.00284489
1.34949e-05
0.000108514
0.000665807
0.000103253
1.33353e-06
0.0168111
0.000216302
0.00329265
0.00153003
0.00150438
0.0021134
0.00694964
0.00428547
0.000583752
0.00398154
7.11846e-05
0.0022818
0.00439529
9.3037e-06
0.00750866
0.000392226
0.00296595
0.00188543
0.0997546
5.46393e-05
0.000193632
0.000518833
3.76249e-05
0.00137874
0.00287015
0.000199417
1.61331e-05
0.00138467
0.00541575
0.000584907
0.00287184
1.10526e-06
0.000464196
0.00951382
0.00241575
0.000141574
0.00214484
2.46786e-05
0.00419977
0.0033826
2.16809e-05
0.000293172
0.00352901
0.000101072
8.50499e-07
0.000344637
0.000198604
0.120206
8.08344e-06
0.00056653
0.0032371
0.00010547
0.011718
8.34187e-06
0.00275361
0.00012209
7.93863e-05
0.000513304
1.93036e-05
0.000205827
0.00295161
3.94071e-06
0.000108754
0.000122692
0.0185873
0.000603631
0.00035698
0.000358137
0.00217771
4.45333e-05
0.00311671
0.00455284
3.07785e-05
0.00036067
2.97839e-06
0.00116534
1.49037e-05
0.0122882
0.000292826
0.00152612
0.00218856
0.000127236
0.0843981
0.000380868
0.00306145
0.00110992
4.82904e-08
0.00237366
0.00498807
0.02652
0.0112595
0.000410461
3.05755e-05
0.0379517
0.0400123
0.000563894
0.0179203
0.00843677
0.000396825
0.000129704
0.000636419
0.000341712
0.000316583
0.000460443
0.00439473
1.51e-05
0.00016294
2.60574e-05
5.6989e-05
0.00602067
7.73153e-05
0.00247061
3.91615e-05
1.3871e-08
0.000197416
1.21993e-07
1.65837e-09
1.00048
0.000185598
0.0193856
0.00306259
1.10627e-05
0.000297091
0.0178973
0.00188717
1.99444e-05
0.00238255
0.00563917
3.69982e-08
5.43589e-06
0.000397585
1.69704e-05
0.00222581
0.000556365
0.00248334
0.00486785
5.94475e-06
7.05004e-05
0.0198576
0.00283191
0.0030611
0.000394486
0.00355159
9.60937e-05
9.44895e-05
0.00236275
0.00926509
0.0126256
0.00606853
0.000754722
0.000178575
0.0025264
0.00190935
0.00204743
0.00267272
0.000229021
0.000310647
0.00367365
0.00168998
0.00333265
0.00271151
0.000751748
0.00465824
1.07878e-09
1.47334e-09
0.0226493
1.10866e-05
0.000904251
0.0020902
0.00330793
0.0098434
0.00384959
8.87268e-05
0.0070277
0.00316055
0.000125301
0.00326562
4.36404e-06
1.27518e-05
1.75585e-05
0.00362481
0.0128678
4.63675e-08
0.00606815
0.00161525
0.151679
0.0001676
0.00370402
3.06611e-05
0.0120775
1.14388e-05
8.60563e-05
2.5861e-05
0.0221959
1.20156e-05
0.00275193
0.00262099
0.00311655
0.00679645
0.0021587
0.00219566
0.0168394
0.00696397
5.48411e-05
3.7978e-05
0.012214
0.000135822
4.45732e-05
0.00189959
0.00359465
0.00188811
2.11701e-05
0.000111672
0.00464042
0.00325637
0.00206741
2.81394e-05
0.00320053
0.00192239
0.000624955
7.61522e-05
2.5098e-06
0.00269147
0.0183967
0.00284657
0.00155261
0.0071461
0.000487438
0.0313668
0.00131963
0.00740867
0.000251196
1.04274e-05
0.00023712
2.75959e-05
0.000448037
5.93385e-06
2.70268e-08
0.00366088
0.000153678
0.0372359
0.00076504
0.00788152
0.00214259
0.00740797
0.00332006
0.0148024
0.017466
0.00140423
0.00978068
1.08083e-05
0.000373515
0.00130014
0.00181595
0.000219189
0.00404016
6.19561e-05
0.00307657
9.85134e-05
0.00264322
2.10392e-05
0.00265489
0.00133717
0.00042746
0.026533
0.000162134
0.00130576
3.3875e-05
3.11404e-05
0.000138602
0.00540273
0.00245749
0.00202129
3.43615e-05
0.00159212
0.00312454
0.000253263
0.0157418
0.013357
6.18835e-09
0.000207005
0.00174072
9.98994e-05
0.000291725
0.000472161
0.000447835
2.37669e-05
0.00319945
0.000450064
0.00535686
0.000526666
0.00117885
0.000533422
0.00837232
0.00526644
0.00870033
2.06757e-05
0.0535155
0.0218938
0.0974826
0.00186392
0.000145204
3.69517e-05
0.000287
0.00676424
0.0102408
0.0298665
0.0247041
9.28253e-06
1.57426e-05
0.0077992
0.000405104
0.017377
0.301836
0.017538
0.000343254
0.000448514
0.0161969
0.00159186
0.0002428
0.000728087
0.161532
1.37633
6.94271e-05
1.05901e-06
6.36973e-05
0.00485344
0.00105157
0.00185606
0.00270161
0.00196685
0.00437683
0.000881429
0.0022207
3.1138e-05
0.0025596
0.00263985
0.00255992
0.000442711
2.80929e-05
9.20882e-07
0.00468038
0.0146039
0.00403214
0.00249345
1.0757e-05
0.00159996
0.00132266
6.57024e-05
3.00653e-05
0.00871569
5.36674e-09
0.0313268
0.000107837
0.0486207
0.0150097
0.000244306
0.0049562
1.00265e-05
0.00236326
0.000136817
0.00087289
0.0839041
1.12193e-05
3.11014e-08
8.29653e-06
0.00388089
0.00346581
0.00151427
0.00099037
0.000981877
0.00124933
0.00104049
0.0018302
6.39329e-05
0.0681772
0.0265596
0.00286168
0.00150244
0.00287424
0.0669323
0.0119402
0.00409298
0.000288948
0.00720541
0.00267877
8.23135e-05
5.18961e-05
0.00479653
0.00681622
0.0172677
0.00524643
5.86946e-05
0.00451168
0.0371013
0.024521
0.00323992
7.6592e-05
2.89424e-05
0.0398061
0.0015683
0.0103021
0.000421873
6.09515e-05
0.0559923