/*--------------------------------*- C++ -*----------------------------------*\
  =========                 |
  \\      /  F ield         | OpenFOAM: The Open Source CFD Toolbox
   \\    /   O peration     | Website:  https://openfoam.org
    \\  /    A nd           | Version:  10
     \\/     M anipulation  |
\*---------------------------------------------------------------------------*/
FoamFile
{
    format      ascii;
    class       volScalarField;
    location    "96";
    object      SgT;
}
// * * * * * * * * * * * * * * * * * * * * * * * * * * * * * * * * * * * * * //

dimensions      [1 -1 -3 -1 0 0 0];

internalField   nonuniform List<scalar> 
59698
(
0.0131418
0.000152802
0.000210517
1.98942e-06
0.0304318
3.45415e-18
0.00213748
3.03477e-05
9.95966e-16
1.90849e-17
8.66714e-16
0.000299357
1.82685e-16
6.22542e-06
0.000360507
3.87678e-17
6.95397e-06
0.000146086
4.51924e-05
0.000253143
0.00139682
0.0142364
1.19848e-07
1.67344e-18
0.0422551
6.78811e-05
0.000342902
0.00763077
0.00678853
0.0074795
0.0048047
5.83427e-17
8.73532e-17
0.0124782
0.0024889
0.000163576
0.0191769
0.0204405
3.09506e-05
0.0226555
0.0086428
3.26796e-18
0.00371062
0.000640468
2.01899e-18
0.0322602
7.37849e-05
0.000730631
0.000249373
0.000173327
0.00151949
0.000119298
0.000336823
4.89578e-06
0.0092303
7.68207e-05
0.00132411
0.000211945
0.00080547
0.00283214
0.00345439
0.000500848
0.122493
7.04032e-05
0.0125263
0.00160837
1.10542e-16
0.000399559
5.5825e-05
2.7861e-15
7.87563e-10
0.000251064
3.85702e-06
0.041216
2.02693e-17
0.0392219
0.000119392
0.00922872
0.000357827
0.00615276
0.00882171
0.000479844
2.62641e-16
1.61928e-05
0.00857846
0.000552443
3.73797e-06
4.20365e-05
0.0632178
0.000128984
2.77033e-16
0.00206581
0.0147102
9.7968e-06
7.32906e-05
0.000160529
0.00527501
6.11539e-05
0.000270789
4.73141e-18
0.0729968
0.00178959
0.0161813
0.0120897
0.000121408
3.9846e-16
4.41923e-05
3.67869e-05
7.19634e-17
1.57835e-17
0.000250251
4.67372e-06
0.0379225
1.05298e-17
2.61355e-05
4.49894e-05
3.97705e-05
4.47223e-06
2.33748e-05
1.25973e-16
3.63516e-05
0.000708344
9.38723e-07
6.14902e-06
2.12646e-05
3.34538e-05
0.0108079
5.58767e-17
2.78491e-05
2.9388e-05
0.0417533
3.73064e-05
3.20405e-16
0.100236
0.00433063
0.00438134
1.66228e-06
1.45194e-16
0.000255538
0.000131409
0.000109199
1.55457e-06
0.000178495
0.00266997
9.81846e-06
0.000692284
5.83431e-06
2.17267e-05
1.71973e-06
0.0292693
4.21213e-05
1.26292e-15
0.00147489
7.33629e-06
0.000161666
0.000342506
4.74361e-05
3.25899e-07
0.0124029
2.0105e-16
0.000858247
5.10416e-05
0.0164163
0.00163737
0.00342975
0.0323818
0.00023835
0.0711868
0.000477118
0.000411393
0.0119983
2.34152e-08
0.0108302
0.0148561
0.0795832
0.000727642
9.57484e-17
5.10025e-05
7.26762e-16
0.00636535
0.00943446
0.018361
0.0148174
1.98285e-05
0.0455903
0.000235373
0.0114556
9.97284e-05
6.5414e-06
0.00118177
0.000402689
6.71675e-05
0.0026755
0.0386638
0.00408876
3.91534e-06
0.00985045
0.0554913
1.42803e-05
0.00770792
7.91181e-15
0.00626995
0.0210807
6.6096e-05
0.00691237
0.000326714
0.00615705
0.000797397
0.00511444
0.0079867
0.000134215
2.3658e-05
0.000160737
4.41496e-18
0.00406709
4.85808e-07
3.72875e-05
3.62716e-05
0.0128009
0.00665856
0.00560909
0.00051176
2.97639e-05
0.0664868
0.000821619
0.0236851
0.00732089
0.0032352
0.00689413
0.158718
4.74725e-16
0.00469958
0.00293578
0.00319411
1.3867e-05
0.00962108
0.0830592
1.91027e-05
7.25918e-07
0.000449633
1.10745e-05
0.00147323
0.0134984
1.37925e-18
0.00609081
0.00012086
0.00376812
0.229572
0.00122248
0.000426932
0.000704069
0.00164438
0.000628457
2.41675e-15
0.000618622
0.000693074
0.00600773
0.00128873
0.000496907
4.09068e-05
6.98144e-06
1.09167e-16
0.00038941
0.00320863
0.00113831
0.0477682
2.32229e-05
3.88246e-15
0.000165065
1.62945e-05
0.000141572
0.0439142
0.00015291
1.84105e-05
0.0180248
0.000205807
1.59798e-07
0.000511755
0.0020862
1.37034e-16
2.3942e-16
0.000193266
0.000212526
0.105024
0.0460086
0.0203043
0.000135239
3.41285e-10
0.0730619
0.000444554
0.0907921
1.59985e-05
0.000188137
0.000164793
0.000319654
3.2124e-06
0.000356796
0.000804562
0.00421064
1.1202e-05
0.00272149
1.53783e-17
2.73811e-18
0.000824561
6.46953e-05
5.27566e-05
0.0520679
0.00101377
2.02316e-06
0.000267692
7.84782e-05
7.07795e-05
3.83579e-05
3.30463e-18
2.46001e-05
0.00513638
1.51439e-18
0.000393125
1.77224e-17
0.000805085
0.00034006
0.323131
0.00032087
9.38407e-18
0.0484217
0.0105233
0.000328235
0.000353334
0.000440759
4.78009e-17
0.00655095
0.00415683
0.0203573
0.206236
7.00722e-16
1.8764e-05
9.86704e-06
0.000662884
0.00909246
0.00326902
0.0102536
3.95654e-06
2.87087e-05
0.00147877
9.68067e-05
6.76316e-06
0.000102132
0.0395465
4.76963e-05
1.44145e-05
0.00798934
9.16443e-05
0.0401456
1.62791e-19
0.245318
0.000253347
0.0141443
0.000126012
3.81894e-05
6.85316e-16
2.75276e-05
8.88808e-06
1.22712e-15
0.000891451
2.23633e-17
4.44287e-18
1.62066e-05
1.35026e-05
0.00015596
0.00165493
0.00189279
5.66153e-16
4.94916e-06
5.62481e-18
0.00619381
1.61343e-17
0.00015336
2.45177e-05
1.21957e-16
1.7015e-15
7.69113e-19
0.000102888
5.64318e-05
0.000525652
0.000140029
1.27724e-05
0.000211813
4.68463e-17
6.53176e-17
0.000143575
8.75316e-05
3.01983e-17
0.0012715
0.0026113
0.00128761
0.000478684
0.0478777
1.31997e-05
2.29152e-05
0.000145643
0.000409821
2.21229e-05
1.26327e-05
3.99173e-05
3.56837e-06
2.81644e-05
0.0817712
0.0254952
2.27041e-05
0.00541488
0.0315734
1.14487e-15
0.000146136
2.56475e-15
4.83278e-08
0.0592329
2.73315e-06
0.0103689
0.000504527
8.43253e-05
0.000115307
4.99171e-06
3.59793e-05
0.30925
3.75613e-05
1.30318e-05
1.06309e-15
0.000219016
4.68002e-05
5.60189e-16
0.000259297
0.000186146
0.0152233
0.00303057
0.00211963
3.32529e-16
2.72925e-15
0.212086
0.00012343
0.0010595
2.07442e-18
4.66031e-05
9.23169e-16
2.18183e-05
4.02905e-05
0.00238876
0.0701608
1.0487e-17
6.46639e-05
0.00907137
1.82689e-05
0.000125302
5.92776e-05
0.0328911
0.000283799
9.6962e-05
0.108535
1.05511e-17
0.00970929
2.87684e-05
0.0543521
8.67308e-06
0.0126116
0.0133357
1.14369e-16
0.000974984
0.000446126
0.00846897
3.34156e-05
0.00804747
0.000448817
1.05582e-15
1.76146e-15
5.97838e-16
0.000386148
0.000815537
0.00111307
0.0689818
0.00321512
0.000257309
3.49944e-05
0.000498926
3.92853e-05
1.48822e-17
0.0053624
4.55231e-05
5.57088e-05
9.38656e-05
0.0657609
0.00179461
0.0230922
0.0662995
0.00109925
0.000163496
0.0545703
6.14602e-05
5.41884e-07
3.59506e-06
0.00943537
1.50514e-16
1.62155e-16
0.0642344
0.00716305
0.00459854
1.16917e-17
2.59247e-16
3.83824e-05
1.23849e-16
1.24716e-05
0.00314247
0.000585105
0.0748092
0.00733653
2.31067e-19
0.00908986
5.58758e-05
9.41418e-17
3.85451e-05
3.18642e-18
2.39344e-17
0.00541937
0.00378535
1.1684e-05
1.60223e-17
3.64673e-17
0.00125738
0.00954873
1.0408e-05
0.00730136
0.000195473
3.88239e-05
0.0393382
1.51806e-18
2.22737e-05
7.1672e-07
3.62772e-16
1.07281e-18
6.64111e-05
0.000138659
1.92179e-15
0.00973796
0.000357175
0.000148068
0.067867
0.00819382
0.0135462
0.0100899
6.31446e-06
0.0117222
3.84355e-07
4.19741e-05
2.65239e-16
3.92119e-05
2.08161e-17
0.000282791
3.01127e-06
1.15336e-15
0.00115738
0.00688675
0.000451769
1.57062e-16
3.73625e-16
3.30673e-05
8.29699e-05
5.57009e-05
2.94638e-18
0.0747293
5.27504e-05
0.00551086
1.44646e-15
0.00288113
6.43276e-05
5.98715e-17
0.0026
0.00286877
0.00338245
6.78768e-05
0.00402746
0.000115219
8.65827e-18
2.41256e-18
7.58687e-05
0.00199246
5.44795e-05
0.00404517
9.49574e-16
0.00242968
1.77482e-05
0.00416342
0.00268257
0.0021643
0.000158204
0.000371752
0.000167843
3.12527e-17
1.90331e-05
1.3625e-12
0.001675
3.32092e-18
1.15746e-16
0.00515521
3.36731e-05
7.88542e-16
3.01204e-05
0.00148529
0.00216271
0.000165012
2.09407e-18
7.45687e-05
6.33632e-07
8.09496e-06
0.000548582
1.01668e-05
0.00433989
0.001407
0.00279015
2.21464e-05
0.226007
1.87919
2.07115e-05
1.50216e-16
0.000598426
0.00214039
0.000921911
6.12226e-05
4.89677e-05
0.00444513
0.00246071
0.00319044
0.00156459
7.39891e-05
8.30145e-16
9.22345e-05
0.00114443
0.000107968
0.00132669
0.000237005
2.43331e-05
5.2218e-05
0.106403
0.000239055
4.93055e-06
2.68096e-15
4.31338e-16
0.00242971
0.00380625
4.10465e-05
0.000338077
0.000120774
1.70402e-16
1.89749e-16
0.000176449
0.00828683
0.000806099
0.000587228
0.000114513
4.06092e-05
2.81513e-07
0.000325398
0.000208975
0.000309299
0.000814477
0.0008804
0.0196392
0.0898824
0.00137109
3.34303e-05
2.52828e-05
8.72182e-05
0.0415303
3.4873e-16
2.06543e-05
0.000460594
0.000109086
0.000144072
0.00168546
1.28261e-17
0.00823967
0.0473261
0.000145383
0.000422127
7.97771e-05
3.92312e-19
4.8325e-18
1.0812e-05
1.56593e-05
0.00215131
0.000195025
0.000191428
0.00858595
0.00441372
0.03617
0.000808219
6.94899e-05
1.99526e-05
7.78075e-05
0.000241882
0.00117855
2.96725e-17
0.000159496
5.65467e-17
5.75801e-17
0.00661186
0.000820691
4.49899e-05
3.19988e-16
0.00635397
2.87206e-05
4.40413e-06
1.6836e-17
0.00156678
3.24984e-18
0.000503945
6.66708e-16
2.822e-05
0.00195212
0.00919502
3.43664e-05
1.91358e-16
2.00716e-17
0.0604696
0.00080503
3.84357e-05
0.000955645
0.00145852
0.0257164
0.0069123
5.01902e-16
0.055846
5.17701e-05
0.0025752
3.41165e-17
0.0076914
6.8251e-05
9.87394e-19
0.0111639
0.0001858
1.50544e-15
0.00308714
0.0601279
0.000585435
6.91613e-05
0.24543
6.24705e-06
0.000743805
0.00239946
0.00191857
0.00173201
5.22725e-06
0.0133961
1.88917e-05
0.0600611
0.00317622
0.0224472
4.61526e-17
0.000212303
0.105102
0.23785
1.95569e-15
6.86307e-05
0.0500583
2.44634e-17
0.00225771
0.00516419
3.69947e-05
0.00608061
0.00405315
5.95754e-05
4.89428e-16
0.0019829
0.0142445
1.47837e-16
1.04437e-16
3.8401e-05
2.79802e-16
0.00434286
3.85714e-05
0.000223894
0.00607723
0.00522977
1.23385
6.39074e-17
0.0246348
0.00974237
0.0210435
0.00105335
0.00478017
1.44621e-17
0.000962747
0.00158862
1.56124e-06
0.00655535
0.0111311
0.104071
0.000320536
0.00543121
1.37788e-15
2.36655e-15
3.61026e-15
0.000366115
0.000232759
2.20188e-15
6.28181e-05
1.77651e-06
0.0094932
0.000142297
0.000731048
2.79759e-06
8.12995e-17
0.00685414
4.28182e-16
3.79251e-16
6.12432e-05
8.08287e-11
6.54284e-05
0.0137293
7.68837e-18
1.19202e-06
0.0199678
0.21112
8.12129e-05
0.00874363
0.000129153
0.000671128
5.21011e-16
4.09931e-16
0.00167159
0.000844516
0.00749265
1.47197e-17
0.00627302
1.96529e-06
2.03097e-06
4.75603e-19
7.3018e-05
8.29554e-05
3.97454e-06
1.63723e-15
6.69494e-05
0.000210968
1.5268e-14
4.8393e-16
3.84235e-16
8.90898e-16
6.87943e-16
0.00203112
0.0001914
0.00153278
3.25206e-17
0.00406222
1.65561e-05
1.55197e-16
0.0158173
6.53481e-17
0.00015319
2.42416e-16
0.0355268
0.00488612
0.000880478
8.98127e-06
2.47939e-05
0.0106032
4.24598e-18
0.00983796
0.000131845
2.01064e-15
0.000484794
7.83309e-07
3.3175e-05
1.77696e-15
9.88748e-05
1.14684e-16
0.00883055
2.07314e-19
0.00204313
4.18358e-17
7.02413e-05
6.50384e-05
0.00164782
0.000598583
0.000177534
6.04247e-06
0.00202194
3.38373e-17
4.65009e-17
6.40919e-07
6.27884e-05
3.31541e-05
8.03086e-06
2.32499e-15
0.000267518
0.00372456
0.0182778
6.18181e-17
0.00105819
0.00297899
9.15218e-05
0.00281707
1.23827e-15
1.54251e-17
0.00448721
0.000148671
2.24245e-18
0.00018516
0.00162119
2.16641e-17
0.00263442
0.000106514
1.22486e-05
0.0654701
1.23841e-16
8.01112e-06
1.33413e-06
2.55098e-17
1.16788e-16
5.44926e-05
2.41887e-05
6.41349e-06
0.0202556
0.00400019
5.14364e-07
0.0408972
9.29606e-05
0.00132777
0.115411
0.000230203
0.00457592
0.00452908
0.0323289
0.0587403
6.85844e-17
8.8315e-07
5.65361e-17
0.0246928
0.000269915
0.000346954
0.0014211
9.93203e-17
3.09917e-17
0.00242918
0.000577027
1.5577e-05
0.00681505
0.00278864
1.60599e-06
8.33336e-05
0.0251053
0.000750942
0.000141932
4.69691e-05
4.63592e-14
5.68326e-05
0.000180587
0.00107231
2.03878e-05
4.84437e-05
1.72359e-07
1.77263e-15
0.000163987
0.000107026
0.00544089
2.29483e-18
0.000141973
0.0096267
0.00190941
0.00029541
0.000415227
0.000264829
0.000129307
0.000425205
3.25042e-17
4.65743e-17
4.50778e-17
0.000151367
2.06559e-18
0.000396032
0.0109349
0.0161801
0.0178065
7.53701e-06
8.53415e-06
0.00293575
0.00117295
0.00274814
0.00393002
0.000400965
4.62703e-05
0.000178696
4.36973e-05
0.0111021
0.0565926
0.00198523
6.86013e-16
6.64119e-07
4.10295e-18
8.91626e-05
0.00115043
0.000312913
0.00234571
5.5628e-16
8.40849e-15
0.000122886
0.00236743
0.00236232
0.000784068
6.4825e-06
0.0471875
2.83195e-16
1.58046e-05
2.86425e-06
0.0202483
5.78736e-17
0.000397659
1.44988e-05
0.00108465
0.000453818
0.00160407
0.00116319
3.42443e-05
7.94777e-06
5.23946e-05
1.32286e-06
0.00548914
0.00953017
0.0100866
0.00816736
0.00524798
0.00589165
1.3902e-07
0.000148615
3.08027e-17
0.00595508
0.00475264
0.00223021
1.59257e-16
0.000118809
0.00391108
0.000245631
0.00160758
6.34653e-05
0.0148564
0.00012691
0.0407047
8.28973e-05
0.737166
7.54188e-06
1.93639e-16
1.35505e-05
2.2874e-05
4.49295e-15
2.24199e-10
0.00399618
0.00701193
0.00176744
0.000637959
0.00355109
1.00807e-17
6.11692e-18
0.0198053
3.05985e-16
0.000931964
0.00116169
0.000177369
0.000323932
0.00112615
2.89029e-16
2.39896e-17
0.00820857
0.000781599
0.0921717
5.6787e-16
0.000660404
0.0819232
2.6529e-16
0.00879126
0.00276813
0.0251025
1.54581e-05
0.00362754
3.48914e-05
6.72891e-06
0.00132203
2.02147e-18
0.00123564
4.22691e-05
0.000117176
0.00012612
9.2083e-06
1.90438e-05
0.00323788
0.00965587
3.71787e-17
0.00241559
0.000514925
0.000160278
0.036146
0.0543846
0.00499174
0.000372493
0.00325487
0.45742
0.0239807
0.026251
0.000459942
4.48557e-18
0.10238
0.000136537
6.68468e-18
1.5049e-06
0.0143787
0.000213965
0.00170617
0.000329049
0.00174766
3.03339e-17
0.00245901
0.00904168
0.0028782
0.000649341
0.00074006
4.65252e-18
1.8377e-17
0.000130879
0.00363857
1.96435e-16
0.00114516
0.000583987
0.00778514
0.00035444
0.112019
4.5126e-05
0.00118791
3.37928e-07
0.00566696
9.29571e-05
0.0011091
0.00256958
3.92059e-18
1.54968e-07
1.23301e-05
0.00013776
1.30756e-05
3.81888e-05
0.0186208
0.0101631
1.04359e-05
0.00150395
0.0841678
0.00109039
0.00399487
0.000114607
1.80608e-05
0.00368393
0.0362208
0.00900961
0.00265077
0.000183474
0.0019114
0.003366
0.00297352
0.0037381
0.00536802
4.04529e-18
0.115898
0.0502891
0.000485775
1.01329e-06
3.04667e-05
0.000482459
3.44353e-06
0.0260924
0.00113268
7.19778e-07
0.00230282
0.000371827
2.98521e-16
0.00356095
1.48157e-17
0.00269289
2.67775e-05
0.00148368
0.00377212
9.24259e-05
0.0195582
0.000150992
1.94771e-18
0.00363652
0.00018361
0.000400452
0.00210946
0.011834
8.03727e-18
2.85647e-18
0.000374761
0.000264833
3.32314e-10
5.12982e-16
0.000190358
7.30638e-05
9.6938e-05
3.75051e-18
5.18812e-17
0.000853648
5.18403e-06
1.83626e-05
1.83241e-05
0.000317889
5.89497e-08
8.85795e-17
4.56169e-05
2.21738e-15
2.92698e-05
7.51188e-15
4.35699e-06
3.05384e-15
0.00389566
0.103298
5.30266e-05
0.00479499
0.0016875
0.00172577
1.16465e-17
3.49772e-06
4.4089e-05
0.00829538
0.0198795
0.00285268
5.00929e-05
1.18592e-16
8.51066e-05
3.38579e-16
0.00476321
0.00938122
8.6329e-18
0.00209462
0.00283404
0.00107562
0.00351678
1.79627e-05
0.0145652
0.00191136
0.00254304
9.46112e-05
3.64965e-17
9.39744e-17
5.27704e-05
0.00564211
8.23432e-06
3.11467e-17
3.49067e-05
0.00502748
0.000211224
0.00100969
0.0010185
6.01195e-05
3.38801e-07
4.84799e-05
0.00389589
9.72278e-05
9.06452e-05
0.0284721
0.0021076
0.000854602
6.13039e-05
7.05589e-18
0.00101559
5.29012e-18
0.0146801
4.99719e-16
8.07603e-16
0.00121404
3.26995e-17
0.000889723
0.000216915
6.77906e-12
2.33426e-18
0.000215513
0.000284103
1.54739e-17
0.00219997
6.97926e-06
0.00027767
0.000574357
2.38948e-05
5.94989e-17
0.00559971
0.000202363
1.28891e-18
0.0474357
6.52581e-05
3.27362e-05
0.00026612
1.40454e-17
1.62276e-05
1.6829e-16
8.78579e-05
1.68651e-17
9.56342e-06
0.00094921
0.000342263
0.00273169
0.00428507
0.0012867
1.52959e-05
0.0625784
4.15211e-06
2.22827e-14
0.0021473
0.000798444
0.00342033
1.09027e-05
1.80541e-15
0.350966
1.62903e-06
1.82932e-15
3.46998e-05
0.0230038
0.00305977
4.99787e-15
1.42149e-16
2.06785e-05
0.000589991
0.0361455
0.00217398
0.00867618
0.0118265
8.88381e-18
9.38168e-17
1.66641e-16
3.65768e-05
0.00831419
2.25181e-15
0.0750465
1.18014e-16
0.000486424
6.18781e-16
6.03126e-15
1.01791e-15
0.000377882
0.00861475
0.0180799
4.45825e-17
0.00185263
0.00451473
4.58672e-17
0.000240484
0.000992202
0.00200165
0.000393002
0.000814682
0.00748867
0.0106496
0.000589912
0.00161868
0.00265553
3.69504e-05
4.60048e-18
1.78704e-17
0.0136695
0.0116351
0.0034975
0.0472047
0.00266844
0.000172181
0.00524835
0.000185462
6.99114e-15
0.00106613
0.0223198
0.000284947
0.0206194
0.011686
0.0339713
3.44565e-19
0.101655
0.00888196
0.0017228
0.004611
0.0646751
0.000404206
0.00281282
4.18642e-06
7.92826e-05
0.00806235
0.00112698
3.13299e-05
1.80889e-06
0.00010478
0.024893
0.294509
0.000157146
0.00898877
0.000290206
0.000145304
9.57693e-17
0.190434
0.000619328
0.286758
0.779728
3.2826e-06
9.05315e-16
7.59227e-06
0.000183389
0.0106751
0.00561168
0.0101489
0.063534
0.0343694
0.00184543
1.3529e-05
0.0104118
0.0113406
7.65908e-16
0.000515216
8.36993e-17
0.000242696
0.000429098
3.14048e-18
0.137819
0.000201989
6.88709e-05
8.3595e-16
0.000262726
0.000180835
8.35654e-18
8.82874e-16
0.479234
0.0314076
0.185131
0.147681
0.00220012
1.32657e-16
0.00668865
0.00125012
2.80237e-05
4.41688e-19
0.0852326
4.67545e-17
3.29632e-06
6.98026e-05
1.58015e-18
0.0165108
4.74635e-05
0.00854796
5.30727e-05
6.49474e-05
0.000137819
0.000629112
0.00112685
0.0130149
3.27593e-06
0.00114039
7.08266e-05
0.0149415
2.75591e-17
4.06136e-16
2.21887e-06
0.0134812
0.000150955
0.000165809
9.19614e-05
0.0315024
0.000503151
0.000197178
3.04831e-05
9.73936e-06
5.56283e-06
0.00305822
3.3641e-16
3.14399e-05
2.42372e-05
1.91868e-14
0.000126348
6.18166e-07
6.59213e-16
0.000210541
1.42971e-15
0.0107148
3.70253e-08
1.61476e-16
0.00190457
0.00168232
0.00953105
0.000577842
0.0103089
0.000303813
5.64288e-17
2.91884e-17
1.11164e-17
1.05245e-16
5.58074e-16
5.30308e-05
1.63537e-07
1.57353e-05
0.00947835
0.00172535
7.58503e-16
0.0175809
4.33543e-05
0.000207121
0.0145226
0.00624952
0.012319
0.0130893
0.00335586
9.35372e-19
0.321669
0.0621277
0.000813512
4.00915e-17
0.0147522
0.000913461
0.0242327
0.000104642
6.05044e-18
0.0120524
5.39798e-06
0.00678018
7.93158e-17
0.000132096
0.00756627
1.64355e-05
0.0312525
0.355643
0.00113931
0.0549324
5.03483e-16
1.36778e-15
1.58798e-05
1.63396e-06
0.10285
1.2981e-05
0.00162151
0.000479758
4.57026e-16
0.00164634
1.77619e-05
2.03353e-17
1.24511e-16
0.0265933
4.15308e-18
5.77071e-05
0.0621154
8.72615e-14
0.00270323
2.84435e-17
1.1303e-15
0.00109681
0.000153476
7.01054e-16
3.41834e-06
6.79616e-16
0.00248721
0.000523705
7.19638e-16
1.48957e-17
0.000858447
5.43057e-06
0.00279486
5.80748e-16
3.59516e-06
0.000628536
9.13378e-05
5.0865e-05
0.0318865
1.66853e-17
5.56585e-05
4.69435e-17
0.00165428
0.0337472
6.73025e-16
1.58011e-14
2.68487e-17
0.000169652
1.14362e-15
0.00196073
0.296329
6.286e-16
2.93521e-06
4.13085e-05
2.39275e-17
6.68636e-16
3.40089e-17
0.000175804
6.1579e-17
0.000847683
4.63375e-17
0.000105879
0.00020027
2.39776e-16
0.0115135
4.17942e-16
4.05044e-18
0.00147934
0.000106315
0.0013936
0.0443969
1.26418e-15
0.000173355
0.000123945
8.54782e-05
0.000106812
2.65044e-05
9.13453e-16
4.43841e-16
4.24905e-05
7.9575e-16
3.13254e-17
1.11963e-05
1.32261e-16
8.52339e-05
0.0226864
4.59111e-16
0.00617014
0.000123742
0.0156108
2.0408e-05
0.000119207
4.62461e-05
0.00438283
2.81077e-05
0.00409685
0.019291
2.1962e-05
6.20072e-05
2.54563e-05
0.000149724
0.000856231
0.000348762
0.000107165
0.0163604
7.18156e-05
0.010472
4.6292e-06
0.876375
0.441452
0.000109824
0.0409376
8.28525e-05
0.000391328
0.00939914
9.30297e-10
0.602689
0.0441255
0.00455433
0.000620129
0.028326
0.39322
8.9516e-05
0.0249172
0.00440634
0.00219861
0.124345
0.0441121
0.000576329
0.000959761
0.0260035
0.0487051
0.00412172
0.000311498
0.0323908
0.000205533
0.0139225
1.10589e-15
1.11074e-05
0.00658836
0.000214636
9.36601e-07
0.00390981
0.00012562
0.000127549
0.000294969
7.18708e-17
0.00785078
0.00602757
1.95234e-16
0.00044494
0.00171468
1.44026e-05
0.00405008
4.21711e-15
0.0115288
0.0637024
4.214e-07
0.0330436
0.000140496
0.00115296
0.000143847
0.000450146
0.0301315
0.00416399
0.000222091
0.0272107
0.000303629
7.63083e-05
0.000365441
1.10086e-15
3.69631e-16
0.00537415
0.0259433
0.014686
0.00513739
0.00552003
0.00104231
0.000133018
8.11029e-05
0.000136175
1.6231e-05
1.3224e-08
0.00175589
3.35785e-07
3.58266e-06
4.66918e-06
3.66452e-06
9.26772e-06
5.66432e-05
0.0102059
5.13099e-06
2.20037e-06
0.00338081
0.000275394
2.53675e-05
1.09917e-15
0.00683509
4.24442e-06
0.00505195
0.000446729
0.00429939
0.000119577
4.33425e-05
1.0879e-05
0.000116911
7.70791e-07
0.00153233
5.57811e-16
4.71977e-05
8.92717e-05
0.0346169
0.000165938
0.00427077
1.59908e-05
0.000176992
0.000313474
0.00839255
1.86027e-07
1.54507e-05
0.00362119
1.19575e-06
1.02173e-06
0.00190079
0.000365634
4.0503e-05
0.00299471
6.02627e-05
0.00600156
0.0290776
3.94592e-05
8.11097e-05
0.00297386
0.000329426
0.00427205
7.5644e-05
0.00616277
0.000354287
0.00280041
2.83842e-05
0.000730693
0.000921687
0.00721302
6.14938e-05
0.0201109
0.00613647
0.000237676
0.0013856
0.00159049
0.000251988
2.92285e-05
0.00247943
0.0218714
3.42001e-06
0.0376327
0.000202483
3.56764e-08
0.000109458
0.00188512
9.95593e-06
0.000877273
0.0137452
0.0213892
0.00206794
0.00960894
6.57724e-05
7.64101e-05
0.00439155
0.0143378
0.000448439
7.5852e-07
2.48138e-05
0.0821477
0.0418501
0.00010427
5.00941e-05
1.43703e-07
7.77531e-06
0.000114139
0.0338056
0.00868454
0.0158529
3.88204e-05
0.00100525
2.8465e-05
0.0193894
1.20539e-17
0.00337287
2.53192e-05
0.00104766
0.0202963
7.45883e-05
0.000400224
3.60395e-05
2.65655e-05
5.96799e-06
1.67977e-06
0.0236678
0.000227744
2.30073e-07
0.0200043
2.04e-05
5.42139e-17
0.000435126
0.000363252
1.80206e-05
0.0134101
0.000466769
1.55119e-19
5.27667e-05
1.16386e-05
1.46656e-06
5.63128e-06
2.07992e-05
1.5583e-16
2.59475e-05
3.1573e-05
0.0115888
0.00288803
0.000370251
1.02147e-09
0.000290031
0.0603175
3.79495e-05
1.3465e-15
0.0181178
0.00281395
2.21718e-05
0.00332179
2.70227e-14
2.98998e-18
0.0182326
0.00216746
0.0229145
0.000779337
0.0501014
0.0142603
0.000125485
0.0257683
1.54754e-05
0.0891021
0.00325473
3.29724e-15
3.52686e-05
0.256755
0.00481743
0.00100231
0.0031003
0.00015893
0.00333668
0.0308399
0.00855836
0.00288515
0.144365
0.00375126
4.71743e-19
0.0178116
0.0639966
0.0348685
0.00132639
3.31453e-05
0.000211007
6.03863e-05
0.000677691
0.0190486
0.0197084
5.17699e-09
0.0524456
0.023085
0.000619841
4.02155e-06
0.0137053
0.00325088
0.000723094
0.0505571
0.000533383
0.000112545
0.0107302
0.0108523
0.0217832
5.89376e-05
5.49701e-07
0.0015726
0.0163126
9.75736e-17
9.4426e-05
0.17308
0.00259269
0.00123798
0.000727879
4.37159e-05
0.00434436
3.92812e-16
0.0186018
1.70116e-06
0.0140855
3.29598e-05
0.00570201
1.20396e-18
0.0165055
2.08057e-11
0.000118691
0.00875031
1.28926e-05
0.00662698
0.0077194
3.3468e-05
0.0158063
0.000134257
0.015688
0.00659309
0.00931981
0.0564039
0.00558614
0.0292423
0.0346177
0.0169211
4.33961e-05
0.00453594
0.000173938
0.000966054
0.000916537
0.00126814
0.00221845
0.000639619
8.93562e-06
3.29938e-05
2.84496e-06
0.0013377
0.00127742
0.0523917
0.00323938
3.00142e-05
0.000110768
2.36416e-05
0.000452044
8.90014e-06
0.0010711
0.0299292
0.00253542
0.00192822
5.23198e-05
0.0169985
4.75169e-07
3.27736e-05
1.87987e-06
0.000216785
0.0346584
0.00685125
0.000520884
0.000720441
0.00447926
0.000220807
8.8031e-05
0.00493692
4.50795e-17
1.49391e-05
8.4816e-05
2.54902e-05
4.54384e-05
4.7504e-05
0.00104566
0.00867166
0.101436
0.00024897
1.81862e-05
6.67491e-06
0.000327505
0.00835787
0.00240147
5.34505e-05
5.17512e-05
0.00318914
4.863e-05
0.0101024
0.075861
0.0448226
0.000174191
0.000524174
8.84728e-06
0.000115529
5.51894e-05
0.0039175
0.000451251
0.000756235
0.0142077
0.0019287
0.000279335
2.22844e-05
0.000409651
0.0298017
9.65619e-07
5.97831e-18
0.0110417
6.13411e-06
0.000561552
0.00468584
2.039e-09
0.000105833
0.000512901
0.000145305
0.0226754
3.99874e-05
0.000114407
0.000300109
0.0051106
7.80951e-05
0.000697827
0.000108458
0.00128093
0.00952036
3.57428e-05
0.0285895
1.69324e-16
5.10702e-05
0.00241394
7.41365e-05
0.00033859
0.00348072
0.00119735
5.55344e-05
8.60368e-06
0.0018115
3.65717e-05
7.5839e-05
6.7369e-05
0.00332974
1.28364e-05
0.300115
0.000144978
0.000953691
8.51745e-05
3.10369e-05
0.000283493
0.000246159
0.00371197
4.94057e-05
0.000571287
7.39885e-05
0.000906089
0.0140457
0.00278435
0.111984
0.000864112
0.0100658
0.0104125
0.0123578
0.00126191
3.18121e-05
8.0128e-05
9.48971e-05
0.000101587
8.8719e-17
0.000257945
0.0115633
2.44025e-15
4.9792e-17
0.0037567
2.2872e-05
3.18379e-05
0.0149998
2.49314e-05
0.000112407
0.00191043
5.24448e-05
5.10304e-05
0.00158795
4.28182e-05
0.0242595
0.0132996
0.0102571
0.00190437
0.000139522
0.00158776
0.000292651
5.92576e-06
4.1812e-05
1.59193e-18
0.000101313
0.0109969
0.00693403
5.31769e-05
7.45892e-06
5.31787e-08
0.000259866
1.35123e-06
0.000341557
0.00411939
8.40038e-06
4.08116e-05
2.21001e-15
4.89859e-05
0.00276898
6.6802e-05
0.000335069
0.00227678
5.32996e-05
9.98326e-05
6.3523e-06
8.45827e-18
0.0537003
0.000477972
0.000670659
3.62583e-05
1.66095e-07
0.00221551
2.11588e-06
0.00343653
3.99382e-05
5.73462e-18
5.91368e-18
2.83259e-05
0.0194704
0.00321408
0.024189
0.00160528
0.0512316
0.000104415
2.31565e-06
0.000236592
3.09855e-18
0.000886834
7.55039e-05
6.40549e-06
0.000103569
5.03754e-05
0.0192676
0.000441031
0.00232334
0.0058098
7.26157e-05
0.0108254
0.00361065
5.09981e-05
0.000933014
0.00318903
0.0296845
0.000302042
1.43721e-17
0.0634685
0.00887773
0.00639564
4.13924e-05
0.0623067
0.000272036
0.0151511
3.23764e-05
0.0173017
0.000197992
6.33168e-08
5.97773e-06
9.2522e-06
5.51349e-06
0.0402027
0.0145711
0.0145566
1.5132e-06
0.00231895
0.000107035
9.88704e-07
0.000958395
0.000104185
1.76933e-06
6.2121e-06
3.59031e-07
0.000130261
3.1707e-07
0.0361385
0.00308702
0.000346116
2.57095e-15
2.47716e-15
0.00168797
0.000455932
0.00151594
0.000732392
1.45719e-06
0.0140921
0.000252261
0.000665487
0.00204847
0.00125645
0.000127339
7.53997e-05
0.000176814
4.46144e-05
1.81565e-06
1.34945e-05
0.000108488
0.0006658
0.000103251
8.53583e-07
0.0168111
0.0002163
0.000585995
2.41842e-05
5.58473e-05
0.000490079
0.00694959
0.00292194
0.000583497
0.000214783
7.11838e-05
5.6744e-06
0.00439526
9.2672e-06
0.00750851
0.000392225
2.49036e-05
0.00188525
0.0955179
5.46334e-05
0.000193631
0.000518824
3.76159e-05
3.89691e-05
1.83861e-06
0.000199416
1.61298e-05
0.00138465
0.00374135
0.000584903
6.85087e-05
7.64828e-07
0.000464194
0.00951382
5.91802e-07
0.000141539
8.81127e-06
2.45965e-05
0.000369424
0.000182959
2.16034e-05
0.000293168
4.58262e-08
0.000101063
7.82089e-13
1.34318e-17
0.000198589
0.120206
8.06059e-06
0.000566521
0.000227285
0.000105466
0.0117179
8.34149e-06
0.00275354
0.000122086
7.9381e-05
0.000513289
1.92936e-05
0.00020581
1.82225e-06
3.91929e-06
0.000108727
0.000122687
0.0185872
0.000603622
0.00035697
0.000358125
3.40689e-06
4.45247e-05
0.000179894
0.00265837
3.07736e-05
3.31469e-16
2.97544e-06
0.00116533
1.48775e-05
0.0122882
0.000292796
8.09199e-08
0.000161622
0.000127126
0.0843979
0.000380785
6.48931e-06
9.79366e-18
7.5235e-18
0.000210802
0.000597745
0.0265187
0.00866919
2.96156e-15
3.05691e-05
0.0379509
0.0400123
5.84201e-18
0.0179203
0.00591195
0.000396825
0.000129702
1.63738e-16
3.51273e-17
0.000316568
3.99138e-17
0.00439469
1.49955e-05
0.000162914
2.60547e-05
5.65945e-05
0.00602067
7.73105e-05
3.9815e-05
3.91483e-05
3.72335e-18
0.000197411
9.10976e-19
6.54344e-16
1.00043
0.000185569
0.0193856
0.00306251
1.08986e-05
7.77601e-17
0.0156244
0.00188713
1.99375e-05
1.62566e-05
0.00329815
4.70958e-16
5.41307e-06
0.000397573
1.69672e-05
0.00222578
0.000556354
0.000481968
0.000532973
5.93863e-06
7.04983e-05
0.0198576
0.00283191
0.000592161
6.75293e-17
0.00355159
9.60756e-05
9.44742e-05
0.000243784
0.00925458
0.0126246
0.00412538
0.000754697
0.00017855
0.00252639
0.00190931
0.00204741
0.000467864
0.000228968
3.44208e-18
0.00367364
0.00168997
0.000127133
0.000108807
0.000751741
0.00158849
2.04422e-16
1.14254e-16
0.0226489
1.10816e-05
0.000904247
0.00029695
0.00330791
0.00984328
3.35578e-07
8.87147e-05
0.00547769
0.000153967
0.000125288
7.28373e-05
4.34963e-06
1.27391e-05
1.75406e-05
0.00362462
0.0128678
1.99156e-18
0.00606814
0.00161523
0.151679
0.00016758
0.00138069
3.06546e-05
0.00906436
1.1438e-05
8.60448e-05
2.58557e-05
0.0198861
1.20072e-05
0.000513905
0.000697254
1.96402e-05
0.00679643
6.49532e-05
0.00219552
0.0168393
0.00696396
5.48332e-05
3.79653e-05
0.012214
0.000135679
4.42885e-05
0.00189959
0.000772738
0.00188808
2.11689e-05
0.000111671
0.00464041
0.00325637
6.33602e-05
2.81045e-05
0.000257903
0.00192236
7.18409e-18
7.61486e-05
2.50615e-06
0.000922843
0.0149332
0.0028465
0.0015526
0.00339069
0.000487422
0.0313668
0.00131963
0.00740866
0.000251195
1.04137e-05
0.000237118
2.75819e-05
0.000448035
5.87465e-06
1.91287e-17
0.00119875
0.000153129
0.0372358
0.000765029
0.00788151
5.41665e-05
0.00740796
0.00033767
0.0148024
0.017466
0.00140422
0.00978067
1.07292e-05
0.000372773
2.83483e-06
0.000598136
0.000219181
0.000349259
6.19319e-05
0.00030744
9.85043e-05
0.0026432
2.10362e-05
5.57618e-05
5.96236e-05
1.75758e-16
0.026533
0.000162132
1.60482e-05
3.38697e-05
3.11371e-05
0.000138593
0.00540273
8.6013e-05
3.37588e-07
3.43436e-05
0.00159209
0.00312449
0.000253259
0.0157386
0.0133552
9.65929e-17
0.000206981
0.000163082
9.98906e-05
0.000291694
0.00047216
0.000447805
2.37624e-05
0.000931347
0.000450059
0.00535517
7.52026e-17
0.00117884
0.000533415
0.00837221
0.00526643
0.0087001
2.06514e-05
0.053515
0.0218934
0.0974785
2.05143e-05
0.000145195
3.69503e-05
0.000279684
0.00676424
0.0102408
0.0298615
0.024704
9.26027e-06
1.57313e-05
0.00779913
0.000405096
0.0173769
0.301834
0.0175375
0.000343239
0.000448505
0.0161968
0.00158454
0.000242528
0.000728077
0.161532
1.37632
6.94226e-05
1.00713e-06
6.3677e-05
0.00343572
0.00105107
0.00185549
0.0027016
0.00196684
0.00211723
0.000881427
2.8931e-06
3.11331e-05
0.000207598
1.05366e-07
5.80534e-05
0.00044271
2.8083e-05
9.1389e-07
0.003207
0.0108737
0.00403213
2.50951e-07
1.07334e-05
3.26687e-05
1.96211e-07
6.56859e-05
3.00632e-05
0.00871298
1.25892e-16
0.0313267
0.000107836
0.04862
0.0150096
0.000242998
0.00215181
1.00249e-05
0.00236319
0.000136755
0.000872879
0.0839039
1.10124e-05
2.73696e-18
5.81236e-10