/*--------------------------------*- C++ -*----------------------------------*\
  =========                 |
  \\      /  F ield         | OpenFOAM: The Open Source CFD Toolbox
   \\    /   O peration     | Website:  https://openfoam.org
    \\  /    A nd           | Version:  10
     \\/     M anipulation  |
\*---------------------------------------------------------------------------*/
FoamFile
{
    format      ascii;
    class       volScalarField;
    location    "96";
    object      T;
}
// * * * * * * * * * * * * * * * * * * * * * * * * * * * * * * * * * * * * * //

dimensions      [0 0 0 1 0 0 0];

internalField   nonuniform List<scalar> 
59698
(
286.622
292.869
293.308
293.544
299.934
283.15
292.521
293.496
303.15
303.15
303.15
293.18
283.15
293.769
300.114
303.15
294.068
293.45
293.177
293.812
303.282
302.124
303.149
303.15
295.689
293.449
293.104
298.34
295.705
295.333
300.291
303.15
303.15
298.819
302.369
293.267
283.381
283.467
293.444
297.575
296.226
283.15
296.568
293.849
283.15
296.592
293.305
295.26
294.642
293.578
293.058
293.342
292.348
294.535
294.389
293.198
294.283
302.178
294.246
282.976
291.246
294.301
299.61
293.205
286.787
294.465
303.15
293.179
293.177
303.15
283.15
293.779
283.136
298.541
283.15
297.77
294.535
287.694
291.646
294.153
299.957
292.582
303.15
293.444
303.701
294.504
294.181
293.555
298.891
293.882
303.15
294.736
298.992
293.54
293.769
293.513
299.069
293.519
298.917
283.15
299.123
283.128
285.895
284.492
293.369
283.15
293.471
293.133
303.15
283.15
293.401
293.654
298.875
283.15
293.42
293.237
293.407
293.419
293.44
303.15
293.253
292.837
293.438
293.293
293.375
293.245
295.477
303.15
293.381
292.889
287.53
292.984
303.15
292.79
290.251
291.652
292.897
303.15
293.125
293.464
293.466
293.766
290.853
292.122
292.908
293.582
293.381
293.387
293.451
301.183
283.138
303.15
288.08
293.27
294.056
293.369
293.31
293.476
296.95
283.15
289.669
293.438
290.775
299.551
297.793
296.671
292.908
280.92
299.359
292.2
300.361
283.151
300.928
300.991
285.55
292.809
303.15
283.238
303.15
298.91
302.764
300.405
298.622
293.241
298.735
300.856
300.761
293.86
292.995
294.719
294.358
293.67
296.602
297.467
299.384
293.59
293.941
296.584
303.155
299.377
283.15
284.151
292.427
292.799
299.291
290.95
297.321
295.415
293.578
298.026
293.137
293.709
299.138
303.15
294.872
293.457
293.279
294.063
297.841
296.002
282.054
296.309
292.638
299.271
295.289
299.324
295.841
291.352
295.619
285
283.15
296.171
295.179
295.844
293.429
294.823
295.972
293.737
293.565
295.001
293.236
293.995
289.913
303.15
294.644
293.582
282.929
285.616
293.631
293.304
293.828
294.939
295.144
303.15
293.594
294.745
294.12
295.304
292.852
293.302
303.12
283.15
294.462
294.342
294.821
295.287
292.666
303.15
293.475
293.291
293.327
286.64
303.101
293.309
287.336
293.71
292.905
293.633
294
303.15
303.15
292.904
293.338
289.11
295.083
290.703
292.949
303.15
286.046
294.61
301.417
291.284
293.399
293.417
294.888
293.606
292.714
293.621
295.098
292.673
291.441
283.15
283.15
292.611
293.238
293.202
287.82
293.657
294.63
293.06
293.119
293.315
293.373
283.15
293.715
292.673
283.15
293.728
283.15
293.59
293.875
293.38
294.003
303.15
298.327
286.256
294.108
293.715
292.431
283.15
300.171
290.665
298.872
281.567
303.15
293.806
293.698
292.555
298.463
293.825
295.13
295.538
292.633
294.982
298.949
293.306
295.605
301.433
293.731
289.168
292.838
293.043
301.345
303.15
284.218
300.755
302.086
293.328
293.637
303.15
293.301
293.85
303.15
295.006
283.15
283.15
293.554
290.471
293.544
282.758
292.677
283.15
292.737
283.15
296.428
303.15
293.541
292.914
283.15
303.15
283.15
292.713
293.306
293.516
293.507
283.148
293.503
283.15
283.15
293.41
293.819
303.15
294.602
290.761
303.133
301.994
301.766
293.517
292.671
292.793
288.508
295.725
292.731
293.36
293.549
293.482
295.93
293.246
295.684
302.249
297.88
303.15
295.279
303.15
293.442
289.819
292.98
283.575
302.293
302.825
294.384
293.421
290.793
281.993
293.369
293.326
303.15
294.394
293.274
283.15
295.497
302.787
285.305
291.843
287.588
303.15
303.15
298.652
292.863
291.951
283.15
292.19
303.15
293.653
293.149
302.912
294.879
283.15
293.466
299.21
292.736
293.298
294.105
286.32
294.009
293.626
290.654
303.15
284.309
293.325
290.071
293.39
283.967
293.903
303.15
293.569
293.407
291.881
294.114
294.992
295.11
283.15
283.15
283.15
294.051
293.14
302.759
292.13
293.711
294.015
293.381
293.598
293.379
283.15
300.931
293.367
293.504
293.383
291.957
292.877
299.05
290.517
291.389
293.474
292.099
293.487
293.437
293.506
289.574
283.15
283.15
295.178
299.053
294.68
283.15
303.15
293.342
303.15
293.359
290.266
294.707
290.693
283.154
283.15
291.619
293.353
283.15
293.389
283.15
283.15
289.542
293.959
293.396
283.15
283.15
302.995
294.931
292.609
289.849
288.753
293.264
301.478
303.15
293.426
293.56
283.15
283.15
286.368
293.392
303.15
290.014
292.982
293.115
281.272
289.381
291.845
282.227
283.132
290.845
283.147
293.353
303.15
293.476
303.15
292.887
293.312
283.15
295.583
291.516
291.825
283.15
303.15
293.5
283.123
293.32
303.15
286.397
293.343
291.205
303.15
292.067
293.457
283.15
291.899
290.956
293.524
293.093
292.287
295.527
303.15
283.15
293.566
285.285
293.207
292.359
283.15
292.429
293.185
289.737
291.642
291.953
296.414
293.08
293.124
283.15
293.37
303.15
282.783
283.15
283.15
290.921
290.973
283.15
293.461
291.045
291.623
292.896
283.15
291.077
293.319
293.298
292.535
293.303
292.11
291.11
291.143
293.268
297.831
285.639
293.264
283.15
291.151
291.924
302.959
295.263
293.734
290.9
292.232
292.024
292.083
295.6
283.15
293.225
291.365
293.065
292.142
292.076
293.253
293.201
286.91
293.496
292.774
283.15
303.15
292.04
294.04
292.802
293.721
293.66
283.15
283.15
293.172
288.562
291.779
292.001
293.252
293.018
303.147
293.583
292.388
293.669
293.392
291.007
283.791
301.846
291.631
293.69
293.774
291.802
288.936
283.15
293.522
292.814
293.534
292.863
291.682
283.15
295.309
293.221
292.882
292.428
293.517
283.15
283.15
291.896
293.01
291.901
292.956
291.991
295.76
290.797
297.189
293.964
291.73
290.813
293.619
293.624
292.588
283.15
292.871
283.15
283.15
292.549
291.772
293.242
303.15
296.534
293.124
292.09
283.15
293.664
283.15
293.753
283.15
293.44
297.642
289.341
293.162
303.15
283.15
297.838
297.946
293.191
292.062
295.615
297.214
295.511
283.15
296.214
293.303
282.861
283.15
290.548
300.332
283.15
291.069
292.814
303.15
297.638
287.928
293.092
293.822
283.264
297.043
294.59
294.531
283.596
283.449
292.465
286.012
293.061
296.887
293.731
298.128
283.15
292.918
290.241
295.041
303.15
293.417
296.895
283.15
298.215
295.936
292.318
293.833
296.737
293.148
283.15
294.927
294.556
283.15
283.15
292.345
283.15
289.442
293.559
292.41
294.527
294.543
297.359
283.15
293.678
290.47
294.873
295.291
295.317
283.15
284.364
298.824
293.573
288.639
297.669
301.072
293.492
302.768
283.15
283.15
283.15
292.665
292.762
283.15
292.555
293.574
298.048
283.164
292.522
291.712
283.15
282.35
283.15
283.15
292.577
283.15
303.101
298.495
303.15
292.552
284.564
288.639
292.547
282.18
293.471
283.228
283.15
283.15
291.272
294.72
296.694
283.15
295.803
292.656
292.669
283.15
292.654
292.683
283.162
283.15
283.133
283.173
303.15
283.15
283.15
283.15
283.15
291.179
292.952
291.045
283.15
294.64
293.277
283.15
285.4
283.15
292.755
283.15
299.447
295.181
291.977
292.588
292.758
295.892
303.15
295.891
292.891
283.15
292.598
283.149
293.313
283.15
292.046
283.15
284.102
283.15
290.381
283.15
293.506
291.774
294.914
292.688
291.904
292.715
292.101
283.15
283.15
292.708
293.548
293.044
293.215
283.15
294.321
296.33
296.016
283.15
294.114
295.074
293.418
296.743
303.15
283.15
295.886
292.365
283.15
292.947
293.416
283.15
295.881
292.793
293.136
293.576
283.15
293.26
293.338
283.15
303.15
293.038
292.953
292.887
295.897
297.653
293.999
296.703
290.216
294.982
295.613
293.566
291.433
290.745
286.582
292.082
283.15
289.763
283.15
296.544
295.757
291.92
290.301
283.15
283.15
297.549
291.279
290.058
296.132
296.764
293.398
295.391
285.34
293.998
293.187
293.361
283.15
293.38
292.938
293.242
293.065
293.293
293.396
303.15
293.342
293.497
294.478
303.15
293.562
296.671
294.177
293.515
293.857
294.464
295.687
292.888
303.15
303.15
283.15
295.558
283.15
293.57
291.457
302.708
298.557
293.044
295.02
302.159
297.862
294.938
295.855
293.723
293.131
295.692
293.881
290.673
287.757
294.115
283.15
293.136
303.15
283.169
294.723
300.392
294.706
303.15
303.15
292.729
293.391
294.906
292.727
293.007
292.61
283.15
293.741
293.22
298.33
283.15
294.56
295.253
302.794
293.051
293.697
302.791
293.208
293.538
302.799
292.738
294.557
295.19
296.448
295.372
295.99
295.199
293.48
292.912
303.15
295.488
296.536
293.257
283.15
293.209
297.707
293.096
293.629
293.126
295.325
292.795
287.744
294.507
290.864
292.828
303.15
293.571
288.102
283.15
303.15
294.038
294.205
295.975
294.322
289.325
303.15
303.15
293.104
283.15
295.019
294.44
294.311
294.424
293.949
303.15
303.15
284.107
294.312
295.132
303.15
294.083
296.132
303.15
282.447
292.914
283.569
291.987
294.356
292.924
293.208
294.106
303.15
293.783
291.73
293.101
292.935
293.001
293.565
294.39
301.064
303.15
297.262
302.914
293.024
301.668
287.093
291.084
295.269
297.734
297.126
289.457
289.17
293.33
283.15
288.113
292.878
303.15
293.339
300.977
293.131
294.508
294.324
294.94
283.15
302.398
289.609
294.815
294.648
292.521
283.15
303.15
293.516
286.773
283.15
292.944
292.984
294.666
293.477
304.926
293.339
295.047
292.737
295.299
293.404
287.086
294.945
303.15
292.729
292.911
292.918
290.196
293.28
300.814
301.116
293.369
295.895
299.094
302.606
293.686
293.372
293.055
302.579
287.72
300.25
291.911
292.138
295.942
295.796
295.405
293.309
295.262
303.15
286.055
298.84
295.797
293.751
292.99
297.241
293.718
299.005
293.771
293.132
293.663
293.571
303.15
293.363
303.15
292.584
292.865
294.035
292.087
293.175
285.401
292.807
303.15
294.483
291.95
288.948
292.442
293.381
303.15
303.15
293.553
293.425
283.15
303.15
293.134
293.51
294.142
283.15
303.15
292.819
293.318
293.283
292.955
285.263
292.619
283.15
284.963
303.15
293.43
283.15
303.143
303.15
297.274
290.55
293.223
297.373
296.695
292.343
303.15
293.34
293.346
296.921
282.324
296.653
293.037
303.15
293.388
303.15
296.775
284.581
283.15
291.176
297.599
293.492
302.762
297.488
295.754
297.452
291.411
297.623
283.15
283.15
297.487
297.421
294.32
303.15
292.809
291.921
293.736
293.665
294.083
294.364
294.16
293.335
291.255
293.252
300.608
285.602
297.026
303.022
293.205
303.15
294.741
283.15
299.948
303.15
303.15
293.482
283.15
300.65
293.199
283.15
303.15
292.054
292.9
303.15
293.493
291.788
293.097
293.673
302.959
303.15
297.475
293.757
283.15
289.054
292.016
293.171
283.097
303.15
293.121
303.15
293.204
303.15
293.152
297.883
297.78
296.974
297.555
294.289
293.143
286.801
293.748
283.15
292.031
298.051
294.822
296.655
283.15
301.151
293.202
303.15
293.316
297.029
296.292
303.15
303.15
293.282
288.937
287.344
294.301
289.219
289.626
303.15
303.15
283.15
292.113
287.796
303.15
299.752
303.15
287.574
303.15
303.15
303.15
291.701
290.762
299.278
303.15
292.586
292.932
303.15
291.925
287.303
282.68
293.723
283.736
295.845
291.689
292.132
283.309
293.659
292.227
303.15
303.15
285.175
288.65
292.711
283.57
283.279
292.916
289.882
293.124
283.15
295.282
291.705
294.638
287.717
285.228
293.969
303.15
292.203
284.068
290.957
294.002
300.931
291.982
292.39
292.557
293.509
298.099
292.205
292.921
293.496
283.904
286.788
283.767
292.98
284.854
292.867
284.216
303.15
294.029
290.562
288.467
292.609
303.112
303.15
293.393
284.405
294.768
300.64
284.977
285.126
298.422
294.551
284.948
282.311
294.007
303.15
287.368
283.15
283.129
285.157
303.15
297.652
283.152
292.994
303.15
284.93
300.026
303.15
283.15
289.248
295.13
296.51
297.861
283.516
303.15
285.257
291.854
293.361
283.15
293.969
283.15
303.125
293.453
303.15
294.343
293.463
292.608
293.424
293.424
293.573
300.151
298.995
285.917
283.138
299.313
293.6
299.445
303.15
283.15
293.377
296.288
285.772
292.942
292.788
288.105
293.756
293.565
293.153
293.547
293.54
296.75
303.15
293.674
293.546
303.15
288.565
293.574
283.15
288.197
303.15
296.124
293.572
303.15
296.849
302.68
290.218
292.503
286.914
288.127
303.15
283.15
303.15
283.15
283.15
294.164
293.576
283.14
291.902
283.208
303.15
288.303
288.774
287.965
294.28
288.262
294.899
289.062
286.224
303.15
287.429
291.764
292.992
303.15
300.567
292.905
289.593
303.228
303.15
299.156
293.498
290.462
303.15
293.43
290.513
293.501
297.732
297.175
290.168
295.077
303.15
303.15
290.27
290.295
283.93
295.159
283.153
283.575
303.15
283.799
290.225
303.15
283.15
283.002
283.15
290.351
299.826
303.15
290.323
303.15
303.15
283.676
293.805
283.15
283.149
303.15
293.254
292.423
303.15
303.15
291.367
283.127
290.959
303.15
283.14
293.464
290.991
290.992
300.709
283.15
290.994
303.15
294.757
294.265
303.15
303.15
303.15
292.523
283.15
291.125
291.871
303.15
283.14
291.298
303.15
303.15
303.15
292.416
283.15
293.58
283.15
293.787
291.628
283.15
296.133
303.15
283.15
291.547
291.429
291.41
294.11
283.15
293.469
291.777
291.822
293.857
283.14
283.15
303.15
283.15
283.15
283.15
292.967
303.15
293.618
294.243
303.15
285.309
293.664
293.198
293.483
292.945
293.562
297.186
292.992
296.725
295.93
292.533
293.474
292.955
292.189
292.277
293.48
292.183
298.961
293.64
287.284
293.244
304.96
284.032
292.367
300.348
283.134
293.553
291.728
303.15
294.384
296.494
295.232
292.627
301.439
296.232
292.197
298.944
293.105
302.821
297.692
300.381
292.316
285.249
294.222
289.328
294.342
295.91
297.487
292.776
296.668
283.15
293.223
294.751
292.785
283.143
299.541
293.016
288.102
293.089
283.15
297.878
293.711
283.15
293.605
292.485
292.976
295.061
283.15
293.107
298.438
293.736
300.332
292.885
294.445
292.871
293.625
298.452
291.684
292.485
284.617
293.491
292.675
293.36
283.15
303.15
292.48
297.124
298.068
301.567
283.46
292.499
292.851
293.564
292.405
292.398
303.151
291.676
293.652
292.542
283.139
292.591
292.57
292.801
301.99
293.903
292.683
303.187
293.705
293.172
283.15
299
292.838
302.105
302.824
294.646
292.768
293.239
292.054
293.427
292.683
293.537
283.15
293.223
292.676
295.153
302.943
293.046
288.181
293.001
298.909
293.005
283.158
293.132
292.334
293.464
292.698
295.255
293.324
302.927
293.265
292.683
291.266
298.23
302.944
293.28
292.717
292.742
298.504
294.066
294.316
288.185
289.74
293.349
294.455
289.084
294.121
292.918
289.336
302.814
292.835
293.353
289.436
293.385
293.3
294.016
299.704
292.777
294.601
292.218
293.467
292.811
293.135
292.791
295.053
287.187
298.568
299.516
289.328
293.071
293.175
294.786
295.973
293.358
292.771
293.336
298.713
285.523
293.078
292.927
292.821
292.812
292.82
296.204
288.001
296.579
293.336
292.864
293.168
299.566
303.15
293.414
292.859
292.995
296.954
293.403
299.686
292.872
293.412
292.855
292.859
299.647
293.627
292.894
301.3
292.078
283.15
293.159
294.344
292.004
289.346
293.416
303.15
294.298
301.438
293.457
293.191
292.89
283.15
293.296
301.369
287.255
290.347
292.986
283.15
283.227
295.973
293.134
283.15
298.919
291.968
290.403
290.571
283.15
303.15
298.531
293.43
294.389
295.706
295.033
301.377
293.37
301.178
295.292
293.022
292.081
303.15
293.612
300.055
295.458
295.698
291.921
302.834
286.648
295.647
293.89
292.408
296.219
295.415
283.15
291.135
292.61
295.754
294.105
293.069
293.359
292.658
296.433
296.076
295.219
296.196
294.309
295.75
294.787
292.939
291.994
295.613
295.816
296.777
300.253
297.334
297.453
297.951
301.234
293.071
303.146
283.145
290.485
283.15
292.64
301.774
303.555
295.261
303.009
303.129
291.142
283.15
292.106
292.665
290.856
293.136
300.591
283.15
291.105
303.15
293.066
293.471
293.616
301.072
295.239
293.165
302.015
294.057
289.244
302.277
286.675
295.406
291.736
292.616
294.625
300.562
302.96
293.23
289.822
289.038
294.073
295.288
294.65
295.88
292.847
293.226
292.55
294.211
294.251
295.774
291.133
292.941
292.972
293.771
292.975
293.431
290.951
294.071
292.898
292.179
293.345
293.402
294.702
293.338
293.348
293.549
286.563
302.172
291.95
299.933
296.657
294.703
292.823
295.965
303.15
293.176
293.139
292.954
295.296
296.772
295.48
294.344
298.694
288.438
293.319
283.142
292.922
291.361
291.603
293.349
293.349
292.668
293.354
296.163
297.848
300.892
295.603
294.839
293.512
292.831
293.847
295.388
293.746
295.51
294.698
289.675
293.413
295.691
300.951
296.71
293.435
303.15
292.586
295.696
293.366
294.718
283.15
293.637
292.379
293.478
290.612
292.994
293.64
293.602
292.917
293.276
295.198
293.16
295.385
290.867
292.434
293.634
283.15
293.637
292.254
293.737
293.569
295.106
295.189
293.165
293.157
295.48
293.016
292.991
296.651
296.181
293.433
297.943
292.878
293.912
293.365
293.695
293.67
292.316
296.018
293.075
296.427
295.431
294.962
299.988
292.9
296.147
295.107
296.788
295.656
293.662
292.866
293.028
292.971
292.815
293.413
303.15
294.006
289.362
283.15
283.15
292.51
292.94
293.223
299.286
292.978
292.9
293.55
293.786
292.916
292.615
292.833
300.847
286.352
287.371
293.278
293.894
293.731
292.938
294.222
292.822
283.15
292.97
291.737
295.918
293.281
293.196
292.71
284.189
288.499
292.318
294.62
293.443
293.312
303.15
293.169
293.609
293.773
293.252
292.014
292.973
293.164
293.495
303.15
287.167
291.353
293.439
293.292
293.652
292.019
293.513
291.374
290.503
283.15
283.15
294.588
293.409
291.668
294.158
293.507
291.605
293.116
293.614
293.098
303.15
283.41
292.813
293.591
290.628
292.721
295.856
293.203
292.067
285.204
292.972
289.287
295.578
291.023
293.908
302.021
294.388
293.606
283.15
294.285
293.173
296.904
293.817
300.496
291.956
301.251
292.647
297.602
292.809
294.612
293.399
293.751
293.438
293.95
295.029
292.919
293.411
293.366
292.993
293.458
292.202
292.988
293.458
293.455
293.46
292.77
292.069
299.347
293.969
293.885
283.15
283.15
291.124
292.774
294.357
294.574
294.048
291.618
292.198
293.624
292.325
294.094
289.769
292.799
292.177
292.132
292.797
292.992
293.605
290.943
293.092
302.663
290.514
292.683
296.795
293.349
285.561
293.405
298.653
303.389
296.195
293.645
293.176
293.117
298.421
293.783
290.076
292.88
293.941
286.387
285.988
292.732
292.755
293.284
292.941
294.03
293.387
292.771
293.741
293.554
293.049
294.728
294.949
293.374
292.26
292.252
293.063
293.691
293.711
293.382
292.731
292.942
293.271
293.264
293.394
292.939
303.15
303.15
292.775
291.982
295.689
293.268
292.881
293.102
297.01
293.317
291.97
293.537
293.509
291.247
290.808
292.799
290.87
292.734
293.68
292.616
295.403
295.468
293.308
294.525
294.509
293.76
292.728
303.243
293.155
303.15
292.834
291.764
292.738
296.101
292.964
293.377
293.15
292.605
291.116
294.382
294.512
283.15
303.15
282.892
292.772
301.986
284.046
303.15
293.364
300.869
294.273
283.15
291.754
293.048
292.883
293.045
303.15
303.15
293.354
283.15
296.669
293.32
295.559
294.345
294.943
293.9
292.697
296.772
293.282
283.15
300.782
303.15
303.15
297.746
293.862
294.849
294.732
293.014
283.15
300.955
292.103
293.209
291.236
291.786
303.15
293.165
292.95
293.211
291.014
292.792
300.841
292.804
292.667
292.655
294.447
292.2
292.683
283.15
292.166
293.717
292.686
296.703
301.949
302.708
293.58
295.796
293.648
293.211
291.446
292.105
300.576
293.038
283.15
291.817
290.467
290.341
290.515
291.803
290.477
283.15
303.15
297.126
293.292
292.498
295.1
291.547
297.944
283.146
293.497
283.659
293.456
293.464
292.988
293.294
293.357
293.349
292.173
294.952
303.15
295.672
284.942
292.879
297.801
298.036
293.77
292.087
293.351
298.075
293.374
296.183
293.419
292.441
298.675
292.779
294.565
298.116
294.131
296.545
293.87
293.349
293.352
296.995
293.301
293.054
291.939
292.562
293.08
293.302
292.75
291.935
291.515
291.253
293.717
295.864
292.069
283.15
292.532
293.42
291.861
299.687
291.871
294.096
286.322
291.134
290.764
292.061
293.868
292.802
293.495
292.376
293.396
292.744
293.2
283.15
290.83
293.396
296.852
292.612
296.33
294.095
295.968
297.507
295.578
287.434
297.249
294.009
295.384
293.2
294.175
297.505
292.76
292.607
293.416
292.773
290.56
294.811
293.355
293.841
293.571
283.15
290.079
292.471
293.606
293.401
293.169
293.276
292.306
293.099
293.712
293.276
295.598
298.739
292.844
302.763
301.077
303.15
293.804
294.234
293.402
295.416
293.445
295.136
293.736
293.674
292.105
302.512
283.15
298.129
290.018
294.42
292.758
300.329
292.96
288.333
300.867
287.184
290.683
290.296
292.99
283.119
291.998
289.962
282.4
293.565
293.485
293.611
296.768
292.321
284.906
291.395
302.413
292.655
292.3
297.382
303.182
293.036
291.649
294.87
290.937
292.732
293.497
293.224
284.318
293.245
294.576
293.099
293.175
291.424
293.449
293.841
293.039
292.965
293.588
300.293
293.151
293.538
293.597
294.656
300.422
290.235
293.59
292.965
298.931
293.376
292.402
293.477
283.221
283.15
297.22
293.226
285.056
297.045
283.143
291.982
292.086
298.609
293.578
292.452
290.663
293.317
283.15
283.149
292.38
293.224
282.638
291.91
292.099
292.433
303.151
293.612
293.216
293.665
285.994
293.089
292.384
292.093
297.343
285.994
283.743
293.365
284.419
283.287
293.774
293.675
293.804
292.322
284.347
293.846
293.375
289.462
297.413
287.167
291.303
291.967
293.571
295.7
292.824
296.346
293.143
293.339
293.359
296.768
292.731
303.15
287.463
295.001
285.593
293.839
285.805
292.045
296.627
287.995
293.078
303.15
286.253
292.077
288.237
285.274
285.175
290.773
285.468
288.561
291.908
294.529
295.586
292.6
289.258
294.609
294
293.048
294.638
293.004
293.063
293.932
288.527
299.554
288.968
288.386
287.419
292.953
286.463
302.407
291.906
295.179
292.976
293.45
294.834
291.013
291.253
293.361
293.456
295.85
283.15
292.509
291.779
293.251
283.15
283.15
302.589
296.427
286.895
293.376
293.616
294.453
293.926
303.106
283.15
292.348
293.456
294.411
292.464
292.741
293.443
292.133
284.087
299.057
291.815
293.567
291.556
293.929
290.924
293.928
300.077
292.614
299.596
291.836
299.153
299.223
302.349
302.081
299.495
299.688
299.54
289.054
293.377
292.457
291.828
292.88
288.852
293.543
294.177
290.624
292.553
285.594
292.303
292.824
291.586
290.017
293.517
291.231
301.032
293.608
299.965
301.466
289.117
293.458
293.755
291.982
290.309
299.049
290.776
292.415
293.639
292.126
283.15
292.03
292.1
293.182
293.889
292.968
292.122
290.844
292.779
290.851
292.178
293.902
293.115
292.83
292.119
297.39
293.439
291.736
293.32
292.637
292.185
295.93
283.15
292.866
293.087
292.13
293.626
290.961
293.085
292.853
293.007
301.891
302.256
294.632
293.48
301.106
304.626
292.446
302.212
302.156
293.469
292.458
292.987
293.157
302.349
294.182
292.906
293.12
302.347
293.525
293.691
292.608
292.479
292.781
294.118
293.207
303.081
293.485
296.17
292.787
292.505
292.551
292.544
293.105
292.496
290.519
292.51
293.152
293.049
293.034
294.123
293.049
299.281
292.821
292.67
293.22
287.053
301.445
293.437
301.102
291.156
300.531
293.207
301.546
283.15
298.685
293.283
290.916
290.398
296.689
298.66
297.845
294.225
292.807
293.568
300.219
292.813
291.797
298.937
292.834
283.151
292.944
284.22
299.032
287.914
299.049
291.659
293.103
293.783
295.788
293.199
293.254
292.674
296.741
289.174
295.215
292.976
297.343
292.86
292.881
298.132
297.08
291.271
291.797
297.143
290.264
287.453
297.546
298.82
303.15
292.208
285.567
293.557
304.292
291.272
287.614
296.076
283.15
296.478
283.15
291.654
294.762
297.499
293.028
292.292
293.739
292.174
292.232
293.895
294.096
301.817
283.15
296.486
286.154
297.297
292.653
294.452
292.66
301.915
294.085
295.01
294.899
288.697
295.596
300.135
292.675
292.647
293.462
293.612
299.373
296.638
292.565
292.556
290.751
292.794
294.539
294.229
303.144
295.584
295.693
290.647
299.179
290.292
293.489
303.15
293.353
283.15
293.307
293.317
286.952
294.936
292.374
293.182
292.324
291.101
283.15
293.514
287.952
292.804
294.375
291.289
292.803
289.732
293.408
298.274
295.802
300.582
291.778
293.401
293.017
294.072
284.603
296.429
297.11
292.204
296.632
293.731
296.613
297.103
300.25
295.157
294.381
290.565
292.72
292.735
303.107
303.15
292.878
295.388
290.325
293.447
292.98
303.15
303.15
293.947
294.79
293.442
295.1
295.232
287.264
295.088
294.703
295.179
295.234
295.834
289.762
291.715
292.532
298.641
293.482
293.977
293.035
292.967
302.51
290.592
293.62
292.561
294.035
292.963
283.15
292.828
292.348
292.963
293.992
291.648
293.243
302.716
293.252
293.246
298.256
295.638
303.15
288.096
297.62
300.9
293.645
292.391
295.832
295.989
293.49
294.073
293.255
294.734
292.653
292.947
291.694
296.368
292.356
293.71
297.257
293.395
297.041
293.497
292.401
293.087
293.106
293.451
294.056
295.571
295.034
293.492
300.801
295.224
292.184
292.245
293.244
293.377
293.272
293.099
292.349
289.489
293.281
291.997
303.15
293.493
293.55
294.247
294.707
292.806
293.258
302.431
295.145
297.426
289.873
289.796
293.274
293.464
293.788
293.697
294.155
290.417
293.449
293.289
293.34
292.914
293.004
293.459
293.352
292.958
294.277
295.605
285.175
291.738
291.993
294.499
294.384
293.146
295.975
295.667
295.904
295.669
295.004
295.666
293.419
295.399
295.334
290.222
292.133
291.502
295.214
293.123
294.782
293.028
302.967
294.674
295.689
296.867
285.484
295.172
290.264
285.422
293.311
290.277
293.737
292.034
282.851
293.296
295.032
292.765
292.884
300.069
297.321
283.147
297.869
292.749
300.962
290.298
293.525
293.244
293.58
301.329
296.122
293.604
291.781
295.249
293.154
283.15
294.647
292.584
293.59
293.082
295.62
292.574
293.196
292.314
293.255
293.674
291.945
295.023
292.805
290.909
293.24
293.396
291.12
293.483
290.423
289.479
292.983
296.97
293.223
297.627
286.653
293.322
299.372
290.199
293.372
303.199
293.393
292.771
293.293
294.596
293.039
283.15
289.772
293.351
293.144
294.367
292.626
290.818
291.366
287.3
290.085
297.476
295.796
293.539
297.282
283.592
292.695
288.664
303.15
297.6
293.006
292.281
292.77
294.257
293.109
294.304
292.827
298.152
290.139
303.15
290.132
289.598
287.55
289.974
289.549
291.99
286.342
303.15
292.122
289.716
286.585
292.771
292.837
292.436
293.043
289.994
296.717
293.363
293.244
292.81
293.842
293.767
301.587
292.631
288.662
292.76
293.504
296.618
292.548
294.979
293.391
300.898
292.987
292.829
294.084
293.363
293.877
286.235
295.419
293.769
295.889
293.476
293.825
293.605
302.45
293.041
293.372
295.441
303.114
293.147
294.448
283.15
293.827
296.743
289.413
293.299
291.566
293.658
295.698
293.554
293.88
295.702
294.577
296.611
293.322
293.732
292.996
293.654
303.15
293.604
293.345
293.567
292.847
293.723
293.283
292.981
292.645
287.501
283.187
292.538
293.898
293.072
293.68
290.309
294.443
293.667
293.454
292.83
293.314
293.211
293.271
292.977
292.976
292.976
294.286
293.333
293.403
293.128
294.408
292.364
298.838
290.602
293.749
296.543
293.658
293.778
296.895
297.081
296.912
293.345
292.749
291.795
292.286
293.66
292.91
297.206
287.572
301.635
293.571
292.285
293.774
293.1
292.926
291.73
291.548
293.334
291.698
292.807
293.593
287.034
294.358
288.477
295.191
292.988
292.013
293.542
293.205
293.024
283.15
283.15
292.893
290.049
296.736
293.08
293.183
293.037
292.992
293.206
290.971
296.126
293.56
291.733
283.15
293.705
293.593
291.634
290.994
286.717
287.811
288.537
291.266
291.323
297.695
294.16
294.193
294.442
300.988
285.027
295.928
294.455
285.053
284.934
293.019
293.2
290.692
291.433
296.45
293.161
283.15
291.204
293.436
297.506
285.021
293.646
291.135
295.809
296.954
289.227
292.231
293.936
300.238
293.377
301.69
294.034
292.72
292.561
293.826
293.449
294.119
291.094
293.667
284.094
291.122
293.641
292.663
294.004
293.472
293.004
293.337
293.484
293.718
292.341
293.037
283.715
292.132
293.159
293.942
293.629
284.777
292.07
293.449
283.15
293.385
294.181
294.107
293.484
293.376
293.749
293.202
293.67
301.231
283.574
292.911
288.402
283.15
293.535
288.452
293.535
293.434
293.872
283.15
293.071
293.245
293.303
283.15
293.907
293.236
293.439
292.896
293.818
286.959
293.967
293.468
293.377
293.319
292.784
293.964
292.788
294.095
283.15
293.355
292.961
293.417
293.228
294.245
293.184
293.874
293.721
286.992
293.672
293.443
294.577
294.163
294.017
294.107
294.467
293.463
290.615
294.085
293.623
292.171
294.14
293.776
294.201
293.399
302.497
294.506
295.222
297.199
293.363
295.384
293.392
292.84
283.15
293.666
293.342
295.69
293.321
291.745
296.672
293.53
290.917
298.881
292.078
291.806
290.551
290.809
294.232
292.68
292.628
293.451
283.15
293.318
292.678
292.591
292.607
292.606
292.519
293.395
293.638
293.765
293.342
293.661
293.748
293.478
293.341
293.156
292.219
292.816
293.474
292.424
292.488
293.467
293.088
293.384
295.007
292.968
292.64
294.63
294.113
293.609
294.377
292.64
293.645
293.576
293.72
293.45
284.884
293.721
292.789
292.965
292.902
283.726
293.207
293.32
283.216
284.917
283.15
293.402
293.449
283.745
293.164
293.12
283.15
284.999
290.101
293.367
293.457
292.738
293.801
294.095
294.193
294.095
294.113
294.164
293.272
293.418
293.35
285.297
293.469
289.573
285.5
285.341
290.976
293.996
293.651
293.29
294.118
294.046
294.463
292.975
290.275
293.521
293.588
293.664
291.618
294.141
293.389
293.61
294.292
293.889
293.502
293.626
294.037
293.479
291.418
293.592
293.366
293.836
294.355
293.049
293.594
283.15
292.661
293.152
293.341
293.492
290.625
293.972
292.307
289.992
293.414
293.607
293.165
292.67
288.735
291.641
289.234
301.694
295.522
289.026
293.264
292.797
296.052
293.459
292.966
290.263
293.127
289.022
293.44
291.681
293.279
296.348
288.94
303.15
293.521
293.384
294.05
288.74
295.603
291.085
293.787
290.807
290.978
300.449
283.209
290.838
295.202
293.573
293.784
293.524
290.595
294.366
293.774
293.094
293.62
291.43
293.563
289.683
291.998
293.975
283.15
284.899
289.155
291.542
293.796
291.372
292.735
292.617
292.635
293.569
285.767
287.99
292.509
293.685
293.701
294.262
303.15
292.611
293.655
296.851
303.15
288.262
293.287
294.028
293.274
290.423
291.732
292.653
288.981
294.027
292.688
285.251
295.336
283.15
293.667
293.239
293.585
293.443
293.556
294.198
293.549
293.765
293.142
293.869
299.044
292.601
292.031
292.15
294.9
292.313
292.775
286.517
293.017
294.088
292.391
303.15
293.626
293.611
283.195
292.35
293.227
293.522
291.238
293.422
293.102
293.055
293.843
293.441
294.737
293.442
292.664
291.901
293.305
291.785
293.437
293.559
293.591
293.423
294.367
293.427
293.968
293.315
294.054
293.955
294.062
293.123
293.08
293.211
292.326
293.73
293.46