/*--------------------------------*- C++ -*----------------------------------*\
  =========                 |
  \\      /  F ield         | OpenFOAM: The Open Source CFD Toolbox
   \\    /   O peration     | Website:  https://openfoam.org
    \\  /    A nd           | Version:  10
     \\/     M anipulation  |
\*---------------------------------------------------------------------------*/
FoamFile
{
    format      ascii;
    class       volScalarField;
    location    "2.3";
    object      SgT;
}
// * * * * * * * * * * * * * * * * * * * * * * * * * * * * * * * * * * * * * //

dimensions      [1 -1 -3 -1 0 0 0];

internalField   nonuniform List<scalar> 
111485
(
2.03507e-15
2.9203e-15
1.65806e-15
9.40583e-17
4.20439e-16
3.34555e-17
5.64328e-16
2.84319e-15
5.8858e-16
2.27306e-16
1.55138e-15
2.5951e-15
3.01437e-15
2.05517e-16
7.07845e-16
7.80088e-16
2.77679e-16
0.00138327
2.33703e-15
2.00177e-15
4.33065e-16
2.9003e-17
1.16825e-15
5.28978e-16
4.76872e-15
3.1948e-16
2.567e-15
7.56537e-16
1.01779e-14
2.56758e-17
5.48376e-10
9.06939e-17
7.44888e-16
1.16169e-15
1.63074e-06
1.08479e-14
1.11821e-10
1.26276e-17
6.48636e-13
2.3739e-15
3.94469e-16
6.49544e-15
1.33172e-15
2.79055e-15
5.54798e-05
2.98077e-14
3.13984e-15
1.33017e-15
4.00452e-15
1.46422e-15
1.66894e-15
2.16416e-15
1.37157e-15
9.39002e-16
1.15595e-15
2.93181e-16
8.33671e-16
6.64319e-16
1.23618e-16
3.66925e-16
1.33844e-15
4.32617e-15
3.31607e-15
1.01343e-10
2.63631e-15
8.12703e-16
0.000116321
1.05183e-14
2.41932e-15
1.10181e-15
6.54836e-06
4.62475e-16
3.51206e-11
4.37741e-15
7.68443e-15
1.19393e-16
1.34884e-16
1.49425e-15
3.91442e-16
1.41514e-14
1.10756e-13
5.75956e-15
1.45645e-16
1.37195e-15
1.49997e-15
2.20323e-15
9.35354e-15
2.44283e-15
3.20571e-07
2.82545e-16
1.51791e-09
1.04655e-14
2.17895e-15
4.28294e-17
3.36792e-15
5.89065e-15
1.09839e-16
1.20104e-14
9.78227e-06
1.22748e-15
1.01796e-16
1.95424e-15
5.98497e-18
1.23982e-14
9.35799e-18
2.96372e-15
6.12195e-16
1.9423e-15
3.66603e-15
3.82021e-14
6.49564e-17
2.14707e-16
1.50699e-15
2.24212e-15
4.26219e-16
7.84095e-17
4.8712e-16
9.97538e-15
4.18207e-15
9.11511e-16
1.82353e-16
7.55358e-16
1.73509e-15
2.31545e-15
1.44421e-15
2.39769e-06
8.01109e-16
9.51868e-16
1.18748e-15
1.20831e-10
1.42531e-09
4.43786e-15
1.8981e-15
3.58162e-16
1.14495e-15
1.99116e-15
1.36361e-15
7.81082e-16
9.38627e-16
8.68999e-16
7.28225e-15
4.84059e-16
2.25603e-16
7.51321e-16
3.42829e-15
6.36213e-17
4.20257e-15
1.72827e-15
4.39973e-15
1.01919e-15
2.91659e-16
3.59424e-15
4.41432e-11
5.80165e-17
9.80745e-13
1.45436e-15
2.62218e-15
2.58153e-15
2.44073e-13
3.26276e-15
4.81182e-17
7.51882e-16
1.99575e-15
1.49469e-12
1.5868e-12
3.97021e-15
9.51557e-17
1.04274e-15
1.42295e-12
2.64673e-10
5.54679e-18
3.23153e-15
8.00298e-15
2.60488e-16
1.02221e-16
6.28378e-17
2.72408e-16
2.86269e-11
6.12222e-16
4.04335e-16
1.57714e-10
1.27861e-16
2.79956e-15
1.05025e-15
1.12812e-15
1.29445e-15
1.54159e-15
3.02749e-15
1.39955e-15
3.40913e-16
1.85704e-15
3.37471e-11
2.85905e-15
7.23132e-15
1.76526e-15
1.92316e-12
4.59072e-15
1.61854e-17
1.53838e-15
6.87968e-15
5.18132e-16
1.61675e-09
1.05037e-15
1.22075e-16
1.25619e-15
3.39422e-15
5.93485e-15
1.34566e-11
1.84141e-14
9.46471e-16
5.13643e-16
2.67513e-16
4.64775e-11
2.74252e-16
7.2541e-15
3.7115e-15
3.32535e-15
3.69107e-15
1.12659e-14
2.06073e-15
3.29713e-15
6.87846e-15
5.66946e-16
2.24711e-14
6.38072e-15
3.80217e-16
1.40893e-15
4.4712e-09
5.64039e-13
3.58791e-15
7.08718e-08
1.09073e-15
1.24755e-15
8.21558e-17
1.98144e-15
1.85019e-12
6.16238e-11
1.2955e-15
1.40881e-15
5.06559e-15
4.34739e-15
5.77427e-15
1.66742e-15
1.63109e-15
1.18014e-14
2.55443e-16
1.61902e-14
1.38876e-15
1.01851e-16
2.18676e-16
3.70845e-15
3.93628e-16
2.33033e-15
3.46873e-15
1.92646e-14
9.41624e-16
5.73945e-16
1.05794e-07
1.84573e-05
2.4649e-16
6.01286e-16
1.07948e-15
5.46908e-16
8.79712e-15
1.04746e-16
1.88699e-17
3.01899e-16
4.46153e-15
3.546e-16
6.09024e-16
5.13938e-15
4.64494e-15
3.08948e-15
3.56041e-15
1.87634e-15
5.56437e-12
8.56009e-16
3.54725e-16
2.83174e-16
1.71342e-15
4.37601e-15
8.58286e-16
1.33672e-16
3.44313e-16
2.32137e-16
7.30064e-16
3.95835e-16
9.89357e-17
5.04064e-15
4.11032e-14
5.64886e-16
8.45202e-17
5.57017e-15
3.80356e-15
7.14649e-16
2.50867e-15
6.13454e-11
8.49599e-08
2.07532e-08
4.38967e-15
1.23774e-15
4.90293e-16
1.38599e-15
3.41703e-16
1.37489e-15
9.99039e-17
1.32188e-14
3.35688e-14
1.63295e-15
5.56521e-17
5.06247e-15
1.44579e-15
1.54108e-17
4.34018e-15
1.12382e-15
8.60337e-16
1.84474e-15
5.0293e-07
2.19614e-14
2.43256e-09
1.74667e-14
1.31299e-16
3.28278e-16
1.40929e-15
3.41594e-15
8.81433e-16
1.51956e-16
1.11208e-15
2.47906e-16
2.52135e-15
1.43923e-15
3.1725e-14
2.48928e-16
1.51332e-15
4.23078e-16
1.00379e-14
4.7437e-15
8.22087e-15
6.28505e-16
1.93521e-17
1.12601e-09
3.86616e-17
1.53047e-14
6.18569e-14
6.3048e-16
4.92511e-16
9.79543e-10
7.11886e-15
3.01621e-17
6.58039e-16
5.16283e-15
4.1695e-12
3.59066e-15
1.33535e-14
2.92538e-16
1.14181e-14
1.00933e-14
2.47662e-15
2.00371e-15
3.09804e-16
1.44567e-14
6.1794e-16
4.03571e-16
4.79805e-15
8.98162e-16
1.03893e-15
2.09559e-16
5.93531e-13
0.000178354
6.0577e-15
7.26438e-16
7.20618e-16
9.42473e-16
4.4008e-16
6.99051e-15
4.0707e-17
1.75237e-16
1.24816e-16
3.29651e-15
1.57798e-14
8.93962e-15
2.24368e-15
1.71721e-12
2.12752e-16
5.60443e-17
3.33739e-15
1.12675e-15
7.95653e-15
2.0115e-15
2.76194e-15
5.53447e-14
5.3011e-16
7.14218e-15
2.65896e-15
1.49567e-15
6.7764e-17
1.58256e-16
3.13377e-16
5.42821e-11
3.05841e-15
2.11182e-16
3.34343e-15
2.31088e-15
4.34648e-15
7.52636e-16
1.40885e-16
6.82055e-16
1.81828e-14
9.04029e-17
3.2129e-06
8.3746e-16
2.01141e-15
4.18596e-16
2.15064e-15
4.36393e-16
5.91193e-17
2.66233e-15
5.03014e-15
1.13068e-16
3.26308e-16
4.33341e-15
1.00209e-15
3.88704e-15
2.25832e-16
9.86231e-16
0.000154252
2.27828e-15
3.85229e-16
6.45024e-05
6.31155e-16
1.07487e-15
7.67487e-16
1.00803e-14
7.44408e-14
1.61758e-14
2.11557e-15
1.88044e-15
7.4722e-15
4.09865e-16
3.69487e-16
1.58576e-17
2.89015e-16
3.30249e-16
4.13911e-05
5.60303e-15
5.57705e-05
7.2751e-16
4.1051e-17
6.35669e-17
3.52087e-16
8.45296e-15
1.37235e-16
1.48518e-14
4.83935e-16
7.84601e-09
1.52054e-16
5.58418e-15
8.2901e-17
7.06911e-15
2.35213e-15
6.22281e-15
1.95713e-15
4.93773e-16
3.65381e-15
2.04232e-15
3.1297e-16
4.3366e-16
7.44581e-18
1.52569e-15
2.33331e-16
5.19262e-16
3.99385e-11
3.09565e-16
4.52966e-15
4.12585e-16
4.32514e-15
3.36876e-15
3.55737e-16
1.05236e-16
1.58203e-15
3.71414e-15
9.67368e-17
9.18071e-15
4.6523e-15
1.04567e-15
1.50806e-15
5.78962e-09
2.32322e-16
1.96575e-16
1.86634e-15
4.37824e-16
4.80281e-15
2.90327e-15
8.57707e-15
1.17666e-07
1.664e-15
6.09121e-16
2.92399e-15
5.78816e-16
1.01594e-15
1.2363e-15
2.76028e-16
3.79373e-16
2.64016e-14
1.99065e-16
9.96538e-16
2.79099e-15
1.60789e-14
2.58211e-15
1.98627e-15
5.56322e-06
2.75087e-16
1.28951e-15
2.42513e-16
2.00138e-15
1.09137e-15
4.21554e-15
4.11101e-16
6.50885e-15
2.11653e-16
6.7674e-06
2.26184e-15
3.84999e-17
8.50197e-16
2.09671e-14
8.85713e-17
1.34155e-15
1.09805e-16
1.56568e-16
3.61352e-15
5.3895e-17
4.09475e-15
6.54616e-16
9.46984e-16
1.45845e-16
3.60879e-16
5.98997e-16
3.10413e-16
3.70758e-15
7.76789e-17
1.22099e-14
2.41825e-15
2.74206e-16
2.93765e-15
2.80115e-15
1.25705e-15
4.6177e-15
8.68877e-05
2.14427e-15
4.77744e-16
1.89126e-15
9.4933e-16
2.9404e-15
2.76531e-15
1.07129e-15
2.84692e-15
9.3114e-16
2.51392e-14
1.59913e-10
1.57133e-16
1.92449e-15
8.06812e-07
2.10351e-15
7.44677e-16
5.3547e-08
4.28013e-07
3.05189e-15
1.78945e-14
6.79945e-16
5.91436e-15
4.71078e-16
2.49316e-08
4.93586e-15
8.50649e-06
0.000238988
7.51866e-17
2.69274e-15
1.35872e-15
1.42734e-14
6.92376e-16
3.75176e-08
3.81904e-06
1.36444e-05
7.19123e-15
2.12503e-15
6.1475e-16
1.39747e-16
2.36127e-14
3.83768e-16
4.2621e-15
1.20447e-16
4.37243e-17
9.86281e-16
6.24272e-15
2.26901e-15
1.63279e-15
2.07243e-15
6.25737e-16
3.88683e-08
3.02169e-15
5.26042e-15
7.78357e-16
2.11836e-15
1.36866e-14
7.74028e-15
1.72939e-16
6.96406e-17
1.42651e-14
2.66212e-16
6.54038e-15
2.43215e-15
5.06996e-16
1.80276e-16
1.62999e-05
6.00061e-17
1.36577e-15
1.63083e-13
5.08021e-09
1.12696e-15
3.13755e-15
6.96654e-16
6.36236e-16
1.0061e-14
4.78352e-16
4.86312e-15
2.93097e-16
4.67308e-16
8.93662e-17
4.014e-17
1.95233e-16
2.16281e-15
1.16904e-12
7.81961e-16
7.56455e-16
4.61037e-16
1.09473e-14
3.92357e-16
2.61587e-15
1.76226e-16
5.72991e-16
1.04272e-15
1.61028e-15
1.02005e-14
6.93428e-16
8.62353e-17
2.72903e-07
7.89678e-16
6.48974e-16
4.26613e-16
1.86335e-15
1.89252e-16
3.69093e-16
2.87223e-15
1.18063e-15
7.23437e-17
2.73854e-15
1.02184e-14
5.26088e-05
2.2703e-16
1.10472e-17
5.17295e-16
8.71102e-16
1.52736e-15
2.2859e-15
2.77287e-15
8.95412e-15
1.26692e-15
4.75939e-15
3.1112e-15
2.19725e-15
2.03085e-14
3.45047e-15
1.84886e-16
3.75009e-12
3.14013e-15
8.83064e-15
1.38095e-15
1.34721e-12
1.01119e-15
2.25193e-15
1.18318e-15
7.01194e-17
2.67824e-16
5.93051e-15
6.05751e-16
4.49833e-16
1.23706e-14
4.13056e-16
7.22155e-16
2.38532e-16
2.88798e-15
3.21148e-15
1.05423e-16
2.17729e-15
4.56251e-15
1.37131e-17
0.00185408
0.000572637
1.42217e-16
1.26508e-15
1.72126e-15
6.36218e-15
1.11852e-10
1.5259e-15
1.93741e-10
2.70142e-06
6.38919e-16
7.17529e-17
5.25143e-15
1.38452e-15
1.07041e-16
1.93011e-15
4.65081e-16
5.5763e-16
3.47363e-15
4.13519e-16
3.51473e-17
1.0793e-15
6.38973e-15
2.93927e-15
1.08959e-15
2.62752e-16
1.47257e-15
1.47294e-15
3.02558e-16
9.69395e-16
1.26084e-15
1.09386e-15
7.5841e-16
2.36593e-16
1.98297e-15
5.69883e-15
3.47e-15
1.66981e-16
1.36069e-17
6.83598e-16
2.39185e-15
7.08087e-15
1.83695e-16
2.31618e-15
1.64549e-16
3.21481e-15
3.79766e-15
2.22401e-15
3.38583e-15
1.83054e-15
9.82938e-16
1.25019e-15
0.000193327
2.93674e-15
5.1447e-15
2.45614e-15
5.51273e-16
5.57751e-15
2.30166e-15
2.52332e-15
8.82887e-16
4.66832e-16
1.15116e-15
3.31706e-14
0.000502041
2.44803e-17
2.3567e-15
5.0554e-16
1.04657e-16
2.02734e-16
2.79933e-08
5.33964e-16
7.12888e-15
2.17487e-15
1.95829e-16
5.91659e-16
3.37498e-15
9.59291e-16
2.96687e-17
3.1391e-15
1.77916e-16
4.60046e-16
1.53437e-15
5.64953e-12
5.422e-17
1.70741e-16
2.39024e-15
2.32403e-05
2.49295e-15
1.03038e-15
8.34619e-16
9.57564e-16
8.99924e-16
1.13611e-15
7.71865e-17
1.70845e-15
1.42089e-15
1.04613e-15
4.48414e-07
2.13378e-15
2.32017e-16
1.6006e-16
1.35786e-16
7.37475e-15
2.42054e-10
1.00851e-16
4.87173e-10
4.63522e-16
4.84424e-16
5.95684e-17
5.8851e-15
1.30362e-16
1.61432e-15
4.31888e-12
1.77126e-16
1.77142e-14
7.05848e-16
1.38136e-11
1.12089e-12
9.04131e-16
4.50535e-17
5.63131e-10
6.15319e-16
8.87993e-18
1.05468e-15
7.75091e-17
3.82671e-16
1.27747e-16
1.19279e-14
4.95492e-17
4.65971e-15
5.1854e-16
1.54207e-15
8.31979e-10
9.73344e-16
3.19826e-16
5.38992e-16
1.05799e-15
2.83569e-17
5.87954e-17
4.6987e-13
5.47379e-17
5.65833e-16
2.19634e-16
1.41407e-11
0.000161383
1.32953e-12
4.13713e-15
2.05794e-17
9.88215e-16
5.62286e-16
1.75711e-15
2.0712e-14
3.5572e-15
1.84091e-08
1.97962e-05
4.53611e-06
3.95479e-05
1.64747e-15
1.57083e-14
3.40994e-16
1.7474e-14
7.35459e-06
2.64974e-17
5.54954e-17
2.19933e-15
6.56504e-05
2.45065e-05
1.75383e-17
8.10325e-06
3.1092e-15
6.58589e-16
2.46026e-15
4.92647e-15
1.17563e-15
5.54145e-15
4.8148e-16
2.69495e-16
3.70818e-16
1.77786e-14
1.38194e-05
3.64492e-16
1.22411e-15
3.64611e-16
5.77932e-18
1.94515e-16
5.21251e-16
1.59635e-15
1.05542e-16
8.30906e-15
1.28589e-15
3.88429e-16
1.33137e-16
7.43397e-16
1.80837e-15
1.40387e-16
1.85282e-16
4.55371e-17
2.99405e-15
3.64691e-16
7.79026e-06
1.47246e-15
2.1818e-16
3.85064e-16
5.581e-16
1.07787e-05
7.18454e-16
6.35943e-17
1.05895e-15
7.84299e-05
1.64528e-15
1.04247e-15
1.58824e-14
6.17761e-06
6.40248e-17
0.000122329
7.68646e-16
5.47045e-15
9.26715e-12
4.95383e-06
1.47642e-15
2.82702e-15
3.81045e-16
4.19551e-07
1.30994e-15
4.78729e-16
2.11355e-14
6.0372e-15
1.08861e-05
1.39131e-16
4.06717e-16
6.36011e-16
1.06104e-15
2.55893e-07
3.23017e-15
4.52515e-16
3.74515e-16
3.8293e-15
9.90233e-17
3.68314e-15
2.60931e-16
1.8204e-16
6.23258e-15
5.38295e-16
8.86096e-15
4.18975e-16
1.92079e-15
4.87009e-16
9.67942e-17
6.97405e-16
5.38846e-06
9.82668e-17
2.62775e-16
4.95378e-15
6.57147e-16
5.48588e-15
3.66051e-15
1.9188e-14
1.90672e-05
3.39203e-15
5.19979e-16
6.45527e-08
6.11041e-09
5.87784e-15
4.1796e-08
2.62717e-16
2.05828e-15
7.32541e-16
8.01521e-16
5.58226e-14
5.07565e-15
4.15509e-16
1.74225e-15
8.92366e-15
3.55025e-09
9.57886e-16
2.1191e-07
6.12634e-16
5.54423e-06
2.88861e-16
1.61943e-15
3.12593e-15
1.56166e-16
2.75468e-16
5.52621e-16
4.5158e-15
5.69412e-08
1.72378e-15
7.50103e-08
1.65809e-15
4.7547e-08
2.53489e-15
3.25442e-15
2.70908e-14
8.11697e-15
4.43254e-16
6.73603e-17
1.55449e-07
1.06379e-15
5.69771e-16
4.94021e-16
1.95649e-05
2.36837e-15
1.36751e-07
8.4491e-17
6.67051e-16
4.80831e-16
9.44289e-16
3.36332e-16
4.85771e-18
9.43811e-15
4.17829e-16
9.23321e-14
4.6817e-05
9.64087e-11
1.81796e-15
9.25713e-15
5.53687e-11
1.06039e-16
1.13598e-15
2.18623e-15
1.3797e-15
1.71028e-15
3.33651e-15
2.22378e-08
3.93645e-16
7.56989e-17
1.4393e-14
2.82181e-15
2.30634e-15
3.74168e-15
7.3461e-08
1.05619e-14
1.31194e-15
2.13062e-12
6.4048e-15
3.71592e-15
7.9705e-12
4.68322e-16
1.46986e-15
1.05438e-16
1.94626e-15
1.39424e-09
1.1967e-15
7.1874e-15
1.39753e-15
2.09579e-16
2.02462e-15
1.09996e-16
1.36842e-15
6.04976e-16
2.49191e-15
6.01758e-16
5.5418e-16
2.2295e-15
7.06068e-16
3.20742e-15
2.15104e-14
6.95816e-16
0.000111445
1.07886e-15
2.95206e-15
3.11133e-16
1.27634e-15
2.41963e-15
1.25382e-16
2.93493e-15
1.15144e-11
1.26891e-15
1.48351e-11
4.02232e-15
1.07793e-15
1.8192e-14
1.25852e-15
3.17831e-16
4.94446e-16
6.96433e-16
2.20217e-15
1.35252e-14
4.26391e-15
9.41197e-16
1.25647e-15
5.79084e-16
1.28782e-11
5.43446e-15
1.16376e-16
5.81458e-14
5.97577e-06
5.67732e-15
8.33494e-16
2.33468e-06
6.11691e-14
2.57562e-16
5.77125e-15
3.08252e-15
3.36027e-12
5.98244e-15
9.45619e-16
4.90245e-15
2.42994e-16
1.82908e-11
3.94815e-16
3.67825e-14
1.16293e-15
2.87217e-17
8.27238e-15
2.62897e-15
4.97407e-16
2.35483e-14
6.32026e-16
6.52961e-16
4.00192e-17
4.28105e-13
2.10733e-11
8.92276e-17
3.98378e-15
7.34683e-17
6.96142e-16
0.000108909
1.18675e-16
1.80277e-16
5.95786e-16
1.19111e-14
2.01189e-16
7.41996e-07
7.40633e-15
5.07595e-15
2.60798e-14
0.000745685
5.64149e-16
7.56388e-15
9.38881e-16
8.5254e-12
2.07919e-16
1.71424e-14
5.59484e-15
1.68844e-15
2.26058e-15
7.51176e-16
1.38991e-15
6.22305e-16
2.61837e-15
7.18275e-15
7.53744e-16
4.72685e-15
1.83226e-15
3.44834e-16
3.10039e-15
1.14739e-16
1.15432e-11
8.20792e-17
7.49438e-15
3.7636e-16
4.9369e-16
7.38215e-06
4.7243e-17
2.59381e-16
2.66406e-16
7.50353e-18
5.64534e-15
6.26181e-06
1.55643e-14
8.18992e-11
2.32896e-15
1.88001e-16
2.5707e-15
8.30949e-17
1.00962e-15
1.86185e-15
4.54785e-16
5.05316e-16
1.74279e-17
5.54076e-15
4.16838e-16
8.84296e-16
6.92288e-10
6.3461e-16
1.51527e-15
8.06952e-15
1.53619e-14
2.03229e-15
1.39851e-10
1.88986e-15
2.93088e-16
7.70302e-16
6.2201e-16
2.87128e-15
3.064e-16
2.55254e-10
1.49364e-15
7.04602e-17
2.20108e-15
4.23698e-16
1.46909e-15
9.71669e-16
2.59176e-06
1.09256e-14
8.72679e-17
2.96494e-14
7.58404e-15
6.3623e-16
5.26143e-16
1.41541e-14
1.36516e-15
1.20348e-15
2.06267e-15
1.16039e-17
5.14115e-15
4.32688e-11
1.31933e-16
8.46053e-17
2.1577e-15
6.93236e-16
5.38594e-16
1.5184e-12
1.16559e-16
6.01163e-17
4.98724e-15
3.0562e-16
1.00037e-15
1.87215e-16
5.02233e-16
1.45146e-15
1.44813e-16
1.75529e-16
4.12167e-16
7.5804e-16
1.86617e-16
1.19181e-15
1.23627e-16
8.71837e-15
1.51674e-16
5.36386e-16
4.21821e-16
8.97511e-17
4.82091e-15
4.58476e-15
4.24832e-15
7.56337e-16
4.53661e-17
1.14458e-14
8.47344e-15
2.94606e-17
4.63631e-15
2.72084e-13
1.27151e-14
3.15912e-07
1.19972e-07
5.44117e-15
7.0806e-15
9.62503e-16
5.83015e-16
3.49397e-15
4.41757e-05
1.49832e-14
4.92711e-16
1.73777e-16
2.19008e-14
2.09559e-16
1.95431e-16
1.03319e-16
1.79755e-16
8.25755e-17
6.91658e-16
1.39259e-14
1.15483e-16
3.96405e-16
8.08133e-16
1.77253e-14
8.43451e-16
5.66738e-16
1.09125e-15
1.16072e-15
7.27217e-17
1.79161e-16
2.01806e-16
3.09025e-15
1.75863e-17
3.58505e-16
3.35482e-16
2.28841e-16
2.36324e-16
3.68397e-16
5.61872e-17
2.27671e-16
6.93607e-16
2.29247e-16
5.76095e-17
1.41789e-15
1.74845e-17
1.89472e-15
1.01294e-15
5.13804e-16
8.38126e-17
1.62902e-15
6.78964e-16
3.4696e-15
3.77857e-15
6.39626e-05
3.85288e-15
2.08152e-18
1.94498e-16
6.60481e-14
7.38558e-17
2.46163e-05
9.37787e-16
6.55514e-17
3.0094e-05
3.96092e-05
7.53495e-16
1.51023e-15
1.30114e-15
1.33399e-15
2.98157e-15
6.11481e-15
6.44545e-15
1.87607e-16
4.25735e-16
1.36063e-16
5.85353e-15
3.16576e-17
2.03913e-15
1.97623e-15
9.47379e-15
2.7826e-16
4.25028e-16
6.58978e-15
1.8915e-16
9.43039e-15
2.88322e-15
2.16553e-15
1.45777e-15
4.22654e-15
4.53081e-17
3.79424e-16
3.38103e-15
5.53115e-15
1.07809e-15
1.86644e-15
5.14859e-17
3.68686e-15
1.25978e-16
4.53716e-17
3.18305e-16
1.98194e-15
8.71532e-17
3.0641e-16
8.14567e-16
2.70633e-15
6.2629e-16
1.06513e-05
5.35136e-15
2.80993e-15
2.0081e-16
2.23795e-15
2.16242e-15
8.56042e-10
2.10622e-16
4.28738e-16
8.97994e-16
9.70255e-16
3.55489e-16
2.19559e-16
3.24811e-15
4.31257e-16
3.74341e-15
2.70912e-15
3.17923e-16
3.6363e-15
9.20108e-16
5.10574e-07
1.71614e-16
4.50891e-15
1.85275e-15
7.51555e-16
5.94112e-07
0.000192968
4.72991e-15
8.51338e-15
1.36258e-15
1.92708e-12
2.15561e-15
9.52435e-16
6.7654e-16
0.000153508
3.12655e-15
3.47416e-15
1.10248e-06
3.27487e-15
8.70665e-16
3.74621e-16
5.13807e-17
7.70811e-18
3.09197e-16
1.57155e-15
3.18811e-15
8.04805e-17
2.68424e-15
2.33562e-16
1.00658e-15
2.76979e-16
8.60402e-17
4.28586e-16
0.000202571
1.1907e-16
2.50725e-17
1.3611e-05
1.02119e-16
3.24021e-05
4.6058e-15
5.50663e-16
5.05841e-16
6.54375e-16
2.20277e-15
2.22596e-13
6.4012e-15
1.28376e-15
1.33667e-15
6.15541e-06
2.3028e-15
1.25098e-16
6.2093e-08
2.77598e-15
1.11954e-14
4.41756e-16
7.65057e-15
9.41774e-05
7.47755e-16
1.82111e-15
1.35747e-16
1.46337e-07
3.32996e-15
9.21935e-16
1.75065e-15
5.83394e-15
7.42449e-17
1.24878e-14
3.84146e-17
8.24371e-16
2.7737e-15
4.46428e-07
1.61625e-16
2.08977e-15
1.45522e-15
3.23515e-13
2.03984e-16
1.90817e-07
2.25358e-16
9.5309e-17
2.0917e-15
2.05467e-16
1.6858e-15
3.85966e-16
9.80181e-17
3.18479e-09
8.62938e-09
1.5849e-15
0.000116448
2.38512e-15
1.47825e-08
8.00848e-16
7.88426e-16
2.27717e-16
2.2413e-16
7.98893e-06
1.87354e-06
5.23549e-16
0.000640283
2.26116e-15
4.71412e-05
3.46795e-14
2.59658e-09
2.01597e-16
8.42715e-15
6.0149e-17
4.79029e-10
3.35271e-15
2.55076e-10
8.84889e-16
6.58953e-17
6.58202e-17
3.8961e-16
5.94518e-17
1.44447e-16
5.19605e-07
1.12316e-15
5.43828e-15
4.04768e-15
7.04621e-16
1.33013e-14
3.08231e-06
2.23527e-16
8.98922e-16
3.0101e-16
1.98004e-15
8.08156e-16
4.01538e-06
3.50511e-16
1.2312e-15
3.75064e-15
2.68673e-15
9.11891e-16
2.12352e-15
4.00292e-15
1.39438e-15
6.41923e-07
8.33289e-17
6.41103e-16
9.83198e-16
2.93267e-15
2.85544e-15
5.86398e-16
8.31098e-09
2.96106e-15
5.64769e-15
5.17054e-17
3.88321e-16
1.03846e-15
8.27744e-17
8.3087e-16
1.2808e-15
2.01207e-15
3.82035e-16
1.70059e-16
4.01284e-16
5.8107e-16
2.70975e-15
7.07787e-15
1.09145e-14
5.8636e-15
3.46887e-15
1.31944e-15
6.47731e-16
2.36138e-07
1.12021e-10
3.08839e-15
7.55514e-15
2.47767e-05
3.53964e-16
4.0596e-16
7.45736e-17
8.65028e-17
2.87281e-15
5.71362e-07
2.26142e-15
2.87104e-16
9.19463e-16
2.3849e-15
7.21647e-16
2.53682e-12
8.34855e-16
4.86046e-15
7.87127e-10
7.87664e-15
4.78474e-15
1.10272e-16
2.52949e-15
8.28821e-17
2.36483e-05
6.15461e-17
2.5125e-05
2.68206e-15
5.69674e-16
2.66837e-15
2.51045e-15
1.85458e-15
2.02393e-15
7.17391e-17
3.65027e-16
3.56808e-16
1.93123e-16
5.52507e-16
5.27008e-16
1.70626e-15
4.10868e-16
4.7711e-16
1.11647e-15
1.31369e-15
1.06669e-14
5.29362e-16
2.28256e-15
2.35986e-15
1.20716e-15
6.66436e-07
9.92621e-16
7.98764e-16
2.47188e-15
2.70146e-16
4.51375e-15
7.81776e-12
4.33036e-15
8.46294e-14
9.54635e-16
8.18123e-16
7.15728e-16
4.5507e-16
7.48455e-16
6.25023e-16
1.79662e-15
9.90582e-16
5.362e-16
3.59845e-16
2.03966e-16
2.60426e-09
3.33501e-15
3.07214e-15
7.62018e-16
2.92399e-16
2.56714e-15
1.5374e-15
1.21263e-14
1.89541e-15
2.67553e-16
1.05113e-17
3.92901e-16
2.85314e-16
1.90501e-14
2.99787e-16
2.21026e-05
4.44608e-15
3.51737e-15
2.69608e-16
2.08295e-15
7.02432e-06
1.14544e-15
6.80242e-16
2.27985e-16
9.99536e-16
1.36691e-16
5.71392e-08
2.05477e-11
2.95578e-10
1.39702e-16
1.066e-11
4.42933e-15
4.70954e-07
5.13845e-10
4.37319e-15
2.28394e-10
1.38209e-06
8.42906e-08
1.7218e-05
8.7292e-08
1.41616e-15
2.6142e-15
7.95841e-05
7.63109e-11
3.74484e-16
7.75008e-07
2.90446e-06
9.17133e-16
7.60415e-15
1.79173e-06
4.11679e-15
7.56088e-12
1.24065e-14
1.05879e-15
1.37775e-15
8.0276e-16
5.04083e-14
2.97969e-16
2.75946e-15
3.78987e-15
2.01277e-15
1.123e-15
1.22282e-14
9.87981e-17
1.51716e-10
3.03028e-15
2.73653e-15
6.98741e-16
1.28309e-15
5.28923e-15
8.46644e-05
7.33971e-07
1.38817e-16
1.0895e-15
3.5903e-15
6.99851e-16
1.66705e-05
4.62292e-15
9.78227e-18
3.25153e-15
3.16455e-17
8.82702e-05
2.88709e-16
4.04777e-15
1.3201e-15
5.38446e-06
2.4985e-16
1.77326e-15
9.1127e-15
7.03529e-16
6.31605e-16
2.93234e-18
1.5532e-15
3.3528e-05
1.73911e-14
3.6846e-15
2.41232e-15
1.24932e-16
7.66931e-18
6.86315e-16
2.91826e-15
6.12021e-17
2.61532e-15
2.86752e-13
1.18024e-15
8.93929e-16
9.54223e-15
2.58863e-16
9.13304e-16
4.16858e-18
1.15838e-15
7.83755e-16
3.33764e-14
9.70326e-15
8.21866e-15
8.2496e-17
8.09667e-17
2.88705e-16
6.42005e-15
2.44168e-16
4.06615e-15
6.33663e-16
5.37096e-17
1.22953e-15
1.18803e-15
3.31554e-15
1.40515e-15
2.05855e-15
5.74929e-15
1.35248e-15
1.63004e-15
4.02581e-15
7.90505e-17
6.53304e-06
1.82749e-15
4.30874e-15
3.1366e-15
5.04705e-15
7.09916e-16
4.03978e-16
3.33733e-15
2.99921e-15
7.71819e-15
1.55773e-13
9.07346e-16
2.47746e-15
1.6048e-16
3.20232e-15
7.0419e-16
4.70876e-16
2.86874e-16
9.28482e-15
7.19106e-16
2.29741e-14
5.71089e-16
7.17715e-09
8.9522e-09
4.92792e-16
2.73849e-15
1.99699e-16
3.98347e-16
1.6451e-15
3.0068e-15
7.17149e-15
1.13346e-15
1.00788e-15
4.14802e-17
2.0388e-16
6.78477e-16
1.837e-16
1.60302e-15
8.21593e-15
2.82709e-16
2.1316e-15
1.06457e-15
3.75223e-15
8.34826e-06
5.08687e-16
6.66611e-17
2.73737e-15
2.48163e-15
2.50688e-15
1.71658e-15
1.26107e-14
1.73833e-15
4.73571e-16
2.88293e-15
1.47417e-15
7.05979e-16
9.9418e-16
1.89816e-15
8.16942e-15
1.85606e-15
4.40946e-16
8.08889e-16
1.15396e-14
4.50354e-15
6.69269e-15
1.17051e-14
6.04969e-15
2.40475e-05
1.63339e-15
9.64708e-16
4.9003e-16
1.04455e-15
1.55082e-16
8.4921e-16
5.88861e-15
1.60025e-15
4.12825e-15
1.62166e-16
2.29395e-15
4.92435e-15
9.24832e-15
2.28416e-16
8.61474e-16
1.96947e-15
1.73174e-15
5.57342e-15
3.38281e-15
1.20539e-16
4.24713e-17
2.9936e-15
1.64444e-15
1.01007e-14
8.81159e-13
1.88279e-15
7.01983e-15
2.35772e-16
5.86443e-16
1.08827e-15
7.74325e-16
2.66024e-15
2.06086e-15
2.0256e-16
1.23596e-14
5.05562e-10
8.29344e-16
3.3463e-15
1.05851e-16
4.77152e-05
6.75049e-16
3.72207e-16
1.72433e-16
2.87823e-15
1.32507e-15
3.48883e-12
1.43874e-15
1.62676e-15
1.17029e-16
2.05827e-13
8.87012e-16
1.86359e-11
3.95073e-07
8.80473e-17
1.13543e-15
2.20252e-16
9.41903e-11
3.40021e-05
2.22354e-16
1.98961e-17
6.12427e-16
1.12899e-15
1.01737e-14
1.26458e-15
1.62018e-15
6.09149e-16
2.90981e-15
3.56369e-05
1.18426e-16
1.03115e-15
1.21856e-12
4.40107e-17
2.25447e-15
3.75475e-16
5.1686e-05
1.45234e-15
4.19896e-16
1.69508e-16
1.82285e-15
8.01772e-09
1.14023e-15
1.98617e-15
3.34155e-16
9.57189e-16
1.15616e-16
1.92435e-15
2.55367e-16
1.9843e-16
2.18788e-15
1.29826e-14
8.36493e-15
2.28343e-16
6.10029e-16
1.35492e-15
2.28323e-15
1.35018e-14
5.74156e-16
4.74493e-16
2.06663e-15
1.85624e-15
1.05807e-15
9.99553e-16
6.94321e-17
1.24192e-16
1.42344e-16
5.89551e-17
2.07325e-15
1.48393e-15
9.27918e-16
3.53474e-11
4.83479e-16
6.86937e-07
6.54463e-08
1.9469e-16
3.75237e-15
6.65349e-16
2.63045e-16
9.73175e-16
2.29007e-15
2.40229e-15
1.21248e-15
2.19732e-16
3.59089e-16
0.00026776
4.70183e-17
1.50013e-15
1.47742e-15
7.55146e-16
1.25117e-09
0.000199308
8.43548e-16
8.01437e-15
1.6356e-15
1.08048e-14
1.34802e-14
2.0557e-15
3.02785e-16
5.51514e-16
3.14687e-15
5.22008e-14
1.41533e-15
2.2547e-05
5.02442e-17
6.00518e-16
3.14695e-15
1.02167e-15
6.19817e-16
3.24304e-06
6.59569e-16
4.02841e-15
2.91249e-15
2.41604e-16
6.3616e-15
8.04246e-14
5.95882e-16
7.26286e-16
1.3305e-11
8.48593e-16
1.45208e-15
7.23469e-15
3.35767e-15
5.00355e-11
1.83327e-16
4.55798e-17
2.24462e-15
3.429e-15
4.89602e-16
8.94697e-16
2.73833e-17
1.52428e-15
5.24642e-06
5.00844e-16
3.56216e-16
1.47958e-14
6.71679e-16
1.82322e-05
7.44322e-15
1.60634e-15
3.85137e-16
1.69926e-14
2.69592e-15
4.45976e-14
8.66828e-15
1.9463e-15
1.06788e-15
1.40317e-16
3.44306e-15
2.52811e-15
6.61734e-05
1.59918e-15
7.12961e-17
5.12714e-08
3.8039e-16
3.56123e-16
4.74447e-15
2.73125e-13
4.79541e-06
8.26599e-15
5.53516e-17
1.1901e-16
8.9439e-17
4.84203e-15
6.19493e-15
7.8441e-16
9.60617e-07
3.01222e-16
4.51195e-15
4.43694e-17
4.39202e-16
1.28859e-16
3.29687e-15
2.06571e-15
5.50702e-16
2.55514e-17
1.38591e-15
2.04651e-15
0.000207291
1.53706e-15
6.93928e-16
3.25102e-16
7.2956e-15
1.72838e-15
6.32033e-06
9.45416e-16
4.59398e-16
8.81214e-15
2.43765e-12
1.06663e-15
4.4495e-15
1.68429e-16
1.47382e-12
3.85741e-15
5.18515e-15
2.53779e-15
7.23289e-16
6.50058e-15
0.000117158
8.95878e-15
1.23481e-16
2.16799e-15
1.17299e-14
1.66836e-15
2.05888e-05
6.62925e-15
1.29538e-10
8.70824e-16
6.10206e-07
1.92722e-08
1.58248e-15
1.85083e-15
1.93194e-16
6.37652e-16
8.48347e-16
1.09923e-10
7.77593e-11
1.80167e-12
1.07392e-14
1.29906e-15
5.64251e-16
1.02989e-15
1.74893e-16
2.22782e-13
5.96313e-15
0.000232417
0.000217484
0.000229891
2.93737e-15
2.07696e-05
9.70962e-05
5.58258e-05
0.000118041
2.8051e-16
8.25903e-17
2.49747e-15
4.91302e-15
2.40458e-15
0.000114755
1.72717e-16
7.73684e-16
1.07513e-09
8.47102e-16
1.24672e-11
9.55983e-16
1.11647e-15
1.13524e-15
1.26145e-11
4.76467e-16
5.67915e-16
4.26495e-08
1.34495e-08
1.79608e-16
2.12256e-10
2.32585e-15
2.69395e-15
7.38486e-14
1.04126e-15
1.54896e-15
2.66702e-16
1.90926e-05
1.10829e-14
1.57711e-15
1.0362e-05
2.04563e-15
3.83994e-11
1.27259e-05
4.90679e-16
3.07054e-15
7.20481e-09
2.20971e-15
4.33553e-14
2.30723e-15
1.12109e-16
3.27584e-16
5.12e-15
2.5914e-06
5.03715e-06
1.07796e-15
1.48561e-15
3.52252e-15
4.80568e-15
7.98836e-16
4.17373e-16
4.20318e-16
3.23222e-06
3.40997e-15
1.9495e-15
1.9656e-16
6.09765e-16
2.94493e-05
6.64537e-15
3.5383e-07
4.15957e-16
1.7535e-07
1.57787e-15
2.03113e-05
1.42094e-05
1.71622e-16
8.26634e-16
4.13515e-16
2.14988e-13
4.52449e-16
3.33212e-15
4.10353e-15
1.08147e-14
7.25362e-16
3.56693e-15
8.45006e-16
1.52396e-15
8.87541e-08
7.52103e-15
1.97435e-07
2.59062e-08
3.08592e-15
1.62737e-16
1.53722e-15
2.16073e-15
3.86966e-15
7.47726e-17
5.65091e-16
1.44446e-15
6.68351e-17
9.95029e-17
2.74815e-15
4.06809e-17
1.43679e-09
1.19175e-15
6.5056e-16
2.71546e-16
1.24198e-06
3.32076e-15
9.06943e-16
9.01667e-16
1.15748e-10
4.29044e-15
1.15681e-15
9.2786e-16
6.74767e-15
2.73561e-17
4.25668e-08
1.18109e-16
6.78184e-15
5.89547e-16
1.99256e-08
8.00165e-16
3.06804e-15
2.72113e-15
1.12637e-16
2.90565e-16
2.49802e-15
7.80459e-17
1.18542e-16
4.7573e-16
1.12715e-15
2.38036e-15
4.65181e-16
1.0051e-15
1.90779e-15
8.49731e-16
1.40095e-15
1.11179e-15
2.33136e-15
1.21113e-12
5.03509e-16
3.4906e-16
9.27546e-16
7.05192e-08
8.64002e-15
3.38149e-15
1.46902e-15
2.33801e-15
6.3942e-11
1.96053e-15
1.24867e-15
1.69156e-10
2.88497e-15
1.36302e-15
3.7172e-15
5.81116e-07
2.22837e-15
3.21562e-16
1.80043e-15
1.12031e-14
3.57543e-11
2.25998e-16
1.71264e-10
8.08456e-15
3.34789e-08
5.48507e-07
3.37193e-15
2.21073e-15
8.64012e-08
5.09585e-16
1.48135e-07
2.22805e-16
9.12115e-16
7.38662e-15
4.11279e-15
6.04856e-15
4.65632e-15
8.42722e-10
9.16399e-16
5.97426e-06
5.11484e-16
6.87749e-16
2.78503e-15
1.19982e-16
1.88847e-16
5.66998e-16
1.36751e-15
4.48232e-14
1.0812e-15
1.13086e-15
2.48605e-16
9.2321e-07
9.5969e-15
3.40451e-15
1.22207e-15
5.03447e-15
4.15883e-16
9.37334e-15
2.44545e-15
2.83605e-15
1.47188e-16
3.28747e-15
5.1118e-15
3.15251e-15
8.34703e-15
3.38553e-15
1.00749e-14
1.35355e-15
1.01861e-15
6.22827e-16
1.4771e-15
3.5694e-16
2.02278e-15
1.2466e-13
6.56788e-06
1.64819e-14
1.26071e-14
6.5196e-16
5.47761e-14
2.0498e-15
2.104e-15
1.45828e-15
1.28368e-15
1.28969e-15
9.80551e-09
5.47114e-16
2.18634e-14
1.17908e-15
4.78582e-15
8.58323e-15
3.0343e-16
5.38964e-14
2.90074e-17
7.8544e-15
3.88673e-16
4.41687e-15
2.57388e-16
5.15247e-16
1.93755e-15
5.02615e-15
2.34815e-16
8.22277e-15
1.25823e-15
1.41113e-15
7.36874e-07
5.29438e-15
8.18457e-09
2.7222e-16
5.68281e-15
9.39195e-15
3.56717e-16
2.4435e-15
3.46669e-16
1.61524e-10
7.3886e-16
1.91084e-15
2.09724e-15
5.42701e-16
8.76497e-15
2.56731e-15
3.82728e-16
8.89361e-16
1.93899e-16
1.65969e-15
1.63249e-15
1.67319e-07
2.79957e-14
2.50139e-16
4.67863e-15
6.07411e-17
3.36731e-16
3.72018e-05
2.40936e-16
1.02286e-13
3.08006e-15
1.90738e-16
2.2596e-16
1.20924e-14
2.29685e-15
1.60133e-15
7.35772e-15
3.68736e-14
2.47585e-15
1.64688e-16
1.48794e-15
2.23684e-15
1.40698e-16
3.54088e-15
3.17043e-15
2.07053e-15
1.10145e-15
1.06268e-09
8.07443e-16
2.07987e-16
5.77681e-14
5.31995e-15
4.60628e-17
0.000155935
1.17577e-16
2.90585e-16
3.30652e-15
6.18532e-07
2.66609e-16
5.30483e-15
3.28439e-16
1.74927e-15
2.89447e-15
1.86488e-15
2.98902e-06
1.84913e-17
2.47574e-15
5.93378e-15
3.66872e-17
6.70993e-15
7.16701e-16
7.16438e-11
5.17727e-16
6.51257e-17
6.27606e-17
1.66686e-15
2.5294e-16
3.61586e-06
2.32389e-05
6.88152e-15
4.988e-15
6.85649e-16
2.89918e-15
7.3334e-06
1.68375e-15
1.82347e-06
7.88696e-06
5.04857e-17
7.78941e-15
1.54495e-14
2.65926e-05
4.50179e-16
4.43977e-15
2.14438e-05
2.47746e-14
4.53036e-15
7.82084e-16
5.80393e-15
1.54083e-14
1.37798e-05
2.44056e-15
4.44555e-16
2.00882e-16
6.21023e-15
7.8722e-13
7.38398e-15
1.2293e-15
8.60201e-07
6.37374e-16
2.4959e-12
1.37829e-15
5.81894e-17
3.49175e-15
4.4428e-16
4.82191e-13
4.71085e-17
7.82337e-16
1.77786e-15
1.18651e-05
1.04949e-15
1.65178e-17
8.34292e-16
9.46266e-18
5.59855e-16
1.66988e-15
6.71359e-05
3.50923e-05
2.45398e-11
8.35507e-17
6.04084e-15
6.38344e-16
3.15613e-15
9.17128e-15
1.23912e-15
1.07007e-14
7.4887e-15
1.07252e-13
7.86124e-15
7.04636e-15
7.80057e-18
3.64401e-16
2.31333e-15
6.04988e-05
2.05873e-06
1.85851e-16
2.91452e-15
3.21139e-10
1.90942e-15
1.22547e-15
1.26288e-10
5.29201e-15
5.17749e-17
2.65708e-15
9.21307e-17
1.63398e-14
2.1897e-15
1.25866e-14
3.54519e-16
2.81628e-15