/*--------------------------------*- C++ -*----------------------------------*\
  =========                 |
  \\      /  F ield         | OpenFOAM: The Open Source CFD Toolbox
   \\    /   O peration     | Website:  https://openfoam.org
    \\  /    A nd           | Version:  10
     \\/     M anipulation  |
\*---------------------------------------------------------------------------*/
FoamFile
{
    format      ascii;
    class       surfaceScalarField;
    location    "9.8";
    object      phi;
}
// * * * * * * * * * * * * * * * * * * * * * * * * * * * * * * * * * * * * * //

dimensions      [0 3 -1 0 0 0 0];

internalField   nonuniform List<scalar> 
214403
(
-0.00679214
0.0052078
0.000287525
0.00129681
-0.00337399
-0.0113401
0.000966509
0.0137476
-0.0103481
6.89958e-05
-0.00014116
0.0104203
0.00894032
-0.0060114
-0.0149848
0.0120559
0.0124124
-0.0156947
0.00373958
-0.000457247
-0.00545226
0.00567873
-5.51778e-05
-0.000171287
-0.000860914
-0.00163703
-0.00932025
0.0118182
-0.0171865
0.00977754
-0.00258221
0.0099912
-0.0235353
0.0166137
0.0167712
-0.00984956
0.014352
0.00170263
-0.0160356
-1.90999e-05
0.00508843
-0.0100795
0.00207315
0.00291791
-0.0104495
0.0032884
0.00541426
0.00174684
0.000482416
-0.0115607
0.013922
-0.00284371
-0.0100535
0.0101207
-6.72136e-05
0.00193836
0.0120545
-0.0154513
0.00145845
-0.0121775
0.0101843
0.00308562
-0.00109239
-0.0122487
0.0119527
0.000296028
0.00396309
-2.49059e-06
-0.00103102
-0.00292958
0.0158509
-0.00948716
-0.0210747
0.014711
-7.63982e-05
-0.00313073
9.1778e-05
0.00311535
0.0064576
-0.00630592
-0.000151677
-0.0125149
-0.00432942
0.00430489
0.0125394
-0.00230876
0.0137843
-0.0111113
-0.000364208
0.00679937
0.000716302
0.00237281
-0.00988849
-0.010351
-0.00496913
0.013399
0.00192112
0.00927507
-0.0117482
7.01418e-05
0.00240298
0.00326536
-0.00285714
0.0106863
-0.0110945
0.00771411
0.0100916
-0.0121552
-0.00565055
0.0112975
-0.00708618
-0.00032164
-0.00388964
-0.00591367
0.0060283
-0.000114632
0.00246732
-0.00513365
0.0136799
-0.0110136
0.0142886
0.000677023
-0.00249486
-0.0124708
-0.00567271
-0.00582157
0.0059619
0.00553238
-0.0012157
-0.00685745
0.00607477
0.00199838
0.00448194
-0.00312691
-0.00954316
0.00818812
-0.00173539
0.00865706
-0.00312757
-0.0037941
0.0161974
-0.000391659
-0.0158058
-0.00697606
0.0136054
-0.00662933
0.00126109
-0.0149381
0.00864564
0.0050314
0.0024831
-0.000998212
0.00607804
-0.00756293
0.00578759
-6.11767e-05
-0.00572641
0.0103563
-0.00022366
0.00183781
-0.0119704
-0.0131363
0.00164917
0.0139702
0.000870534
0.000895016
0.00871965
-0.0104852
-0.00415428
-0.0271726
0.0263473
0.00497951
0.00575353
0.0010388
0.00130045
-0.00809278
0.00428054
0.00325352
-0.0104714
0.00293732
0.013513
0.00809973
-0.0148133
0.00122182
0.0114623
-0.00232781
0.0018363
-0.00687359
-0.00404546
0.00908276
0.00312822
0.00480887
0.00143106
-0.00936814
0.0018767
-0.00140909
-0.00434486
0.00387725
0.00692505
-0.0125343
0.00873744
0.0120341
-0.0113302
-0.00388576
0.00318184
0.0107234
-0.00196209
-0.00869326
0.0117864
-0.000501026
-0.00259209
0.00895269
-0.0114463
0.000131362
0.00236227
-0.00840686
0.000555334
0.0134343
-0.00558281
-0.0155003
-0.0145607
0.0122313
0.0178297
-0.00828958
0.00833974
0.00164097
-0.00169112
0.00130738
-0.0105952
-0.00864446
-0.000179926
0.00449354
0.00433085
-0.0135612
0.00582227
0.00877419
-0.00103524
0.0159079
-0.0128186
0.000826195
-0.00391557
0.000732688
0.000266164
-0.0105084
0.00950959
0.000525207
-0.00288132
0.0142479
-0.0118918
-0.0351748
0.00364811
0.00389919
0.0276274
-0.00324895
0.00957463
-0.00303999
-0.00328569
0.00470277
-0.00247713
-0.0100317
0.00780611
0.00112716
0.0070072
-0.00890865
0.000774287
-0.000175632
0.00859895
0.00299292
-0.0114162
-0.00170728
-0.000270356
-0.00355465
0.00553228
-0.0090838
0.00993177
-0.000378877
-0.000469089
0.000318904
-0.00917735
-0.00641727
0.00568391
0.00172538
-0.000992016
-0.0171149
-0.00108031
0.00835309
0.00984216
-0.00519234
-0.00221299
0.00441788
0.00298745
0.00760815
-0.025518
0.0035388
0.0143711
-0.00398848
0.00802723
-0.00438384
0.000345092
0.00572972
-0.00444744
0.000567585
-0.00184986
0.000128071
-0.0107275
0.0105994
3.20077e-05
0.00871057
-0.00874258
0.00770408
-0.00150811
0.00102171
-0.00721768
-0.00458453
0.00654122
0.00216802
-0.00412472
-0.00324479
0.0138202
-0.00332076
-0.00725465
0.00652167
-0.0111121
-0.000424762
0.00501515
0.00746594
0.00790658
-0.0153725
0.0110093
-0.0123723
0.00317069
-0.00180769
0.00106826
-0.00198609
0.0143734
-0.0134556
0.000413071
-0.00232474
0.0103532
-0.00844156
0.00245391
0.0216686
0.00624537
-0.0303678
-0.0189484
0.0166713
0.0108041
-0.00852701
0.000870916
0.00667339
-0.00897331
0.001429
0.00882488
0.009815
-0.00321333
-0.0154265
0.016426
-0.00997843
-0.000329007
-0.00611853
0.000715229
-0.00209676
-0.00658357
0.0079651
-0.00666286
3.78512e-05
0.00662501
0.00997703
0.000344729
0.000687584
0.0124001
0.00104686
-0.0188391
0.00539209
-0.0099394
0.00219564
0.00176616
0.0059776
-0.00628751
0.00155913
0.000773117
0.00395527
0.00154734
0.00110657
-0.0131209
0.010467
-0.00269784
-0.0157008
0.0100102
0.00838846
0.00627465
-0.00742274
-0.00483712
0.00598521
0.0101443
-0.000110629
-0.0101443
0.000110644
0.00779099
-0.01101
-0.00382512
0.00704408
0.0201579
-0.0060992
-0.00314151
-0.0109172
0.0114004
-1.87712e-05
-0.0104874
-0.00089416
-0.00574087
0.00676181
0.0140917
-0.0151127
0.0123121
-0.00432396
-0.0118397
0.00385156
0.00226432
-0.00331185
0.0144076
-0.01336
-0.0162784
0.0148363
0.0140644
-0.0126223
0.000733139
-0.0126703
0.0048906
0.00704656
0.0158584
-0.000840688
-0.00032224
-0.0146955
0.0111459
-0.00217249
0.00215521
-0.0111286
-0.0129494
-0.0117754
0.0139371
0.0107878
-0.00245123
0.00703143
0.0019055
-0.0064857
-0.00555699
0.000302893
0.0107706
-0.00551654
-0.00123529
0.0139233
-0.0129591
0.000271069
-0.0119671
0.0111143
0.00216398
-0.00131113
-0.000402111
-0.0069846
0.0166618
0.0022208
-0.00740658
-0.00540924
0.010595
-0.00588188
7.73973e-05
0.00580449
0.00180321
0.00819982
-0.00758516
-0.00241787
0.0130417
-0.00751918
-0.00199769
-0.00352487
8.41309e-05
-0.00382097
0.00373684
-0.00736814
-0.0019848
0.00276632
0.00658663
0.000756457
0.00416592
-0.0093479
0.00442553
0.0159113
-0.00143659
0.0062188
-0.0206935
0.00114551
-0.00140242
-0.0193568
0.0196138
0.00124898
-0.00553062
-0.00731967
0.0116013
0.000468677
0.0100695
-0.000561166
4.03473e-05
-0.00590616
0.00586581
0.0122896
-0.00455677
-0.00551203
-0.00745279
0.00622558
-0.00614094
0.0135427
-0.0112704
-0.0013655
-0.000906734
0.00136039
-0.00643323
0.00281263
0.00226021
-0.0110559
-0.00334593
0.00224685
0.012155
0.00919803
-0.0149458
0.00984734
-0.00409957
-0.000409095
0.0134952
-0.0135144
0.000428211
-4.4071e-05
0.012291
-0.0121781
-6.87774e-05
-0.0171784
0.0137085
-0.0110026
0.0144725
0.0143367
-0.013875
-0.000461729
-0.0131258
0.017582
-0.00321556
-0.00124067
-0.0117307
0.00282013
-0.00088234
0.00979289
-0.0193465
0.00149106
0.012439
0.00541642
0.00344503
-0.00470454
0.00261991
-0.00472188
0.00536886
0.00863699
-0.00928396
-0.00515745
-0.0023146
0.00295147
0.00452058
-0.00696821
0.00455865
-0.00880304
0.0112126
0.00209652
0.000168343
-0.0153906
-0.00684297
0.00682886
1.41019e-05
0.00751036
-0.00721983
-0.000290523
-0.0113311
-0.00074083
-0.00301632
0.00279942
-0.0149167
0.0173746
-0.00525727
0.00671917
0.0115629
-0.0147051
-0.00357699
0.0128362
-0.0139426
0.00037485
0.000731563
0.00683473
0.00177709
-0.00706539
-0.00154643
-0.0108066
-0.000601188
0.0142072
0.00620004
-0.000448279
-0.00755809
0.00180633
0.00698616
-0.0059817
0.00689075
-0.00789521
-0.0122234
0.00229568
0.0166469
-0.00412719
-0.00579309
0.0191244
-0.00920413
-0.00589765
-0.00649041
0.00158149
0.0017612
0.00465743
-0.0123163
-0.00833232
-0.000734764
0.0133892
-0.00432209
0.00129915
0.00204889
0.00744899
-0.010797
-0.0039792
0.00974067
-0.00576148
0.00315727
-0.0150926
0.00544494
0.00899074
0.00628083
-0.0135104
-0.0127407
0.000153268
0.0158771
-0.00328958
0.00214258
0.00183559
0.0057373
-0.00971547
0.00853489
-0.00859836
6.3465e-05
0.00322519
-0.00121761
0.0108271
-0.0128347
0.0113216
-0.0035898
0.00544429
-0.0131761
0.0207959
-0.00668521
0.0155189
-0.0296295
0.00341229
0.00634824
-0.00263719
-0.00712335
-0.00938234
0.00386048
0.00492162
0.000600238
0.00672353
-0.00506604
-0.000138672
-0.00151882
-0.00438426
-0.0055617
0.0161932
-0.00624721
-0.00753718
0.00977493
0.00390533
-0.00614308
0.0113402
-0.000620129
-0.0037339
-0.0176796
0.0116834
-0.000972095
-0.0168605
0.0155549
0.00722343
-0.0059178
0.0107539
-0.0121202
-0.00174878
0.00311511
0.00607233
-0.01097
-0.00574721
-0.00625564
-0.00574081
0.003244
0.00875245
-0.00893001
0.00277272
0.00881398
-0.0026567
0.0103126
-0.00981118
-0.00675386
0.00625239
6.41777e-05
-8.9542e-05
-0.00965363
0.00967899
0.000233046
-0.00849936
-0.000322951
0.00858927
-0.00244146
-0.0144781
0.00227326
-0.00836736
0.00752668
-0.00143258
-0.00571313
-0.00240843
-0.000808444
-0.000195243
0.014343
0.000204256
-0.034224
0.0240734
0.0173971
-0.00724649
-0.0101104
0.000687315
0.00036774
0.00905532
-0.00201333
0.0320502
-0.0377097
0.00767278
0.00159445
0.00245934
-0.00551884
0.00146506
-0.0216512
0.0116684
0.00150861
0.00847425
-0.000256323
-0.0143789
-0.00204507
0.0166803
-0.00601789
0.0216765
-0.0149968
-0.000661798
0.00972518
0.0141369
-0.0130664
-0.0107957
-0.0116061
0.0110516
0.0137282
-0.0131736
0.00448583
0.00626832
-0.00780764
-0.00294651
0.00447756
-0.00302098
-0.00716971
-0.0230585
-0.000907102
0.0188397
0.00512593
0.00675307
0.00103103
-0.00392362
0.00695588
0.00931131
-0.00859763
-0.00766955
-0.011512
0.00256462
0.0112287
-0.00228134
0.00137053
0.00361355
0.0125979
-0.0133609
0.0131943
0.00127875
-0.00111218
0.00823706
0.00645949
-0.0058213
-0.000230581
-0.00163779
0.00768968
-0.00883307
-0.00175508
0.00491334
-0.0170544
0.00725329
0.00488773
0.000519939
0.00918612
-0.0102004
0.000494343
-0.0035467
0.000685848
-0.00329771
0.00615856
0.0142152
-0.0101607
0.000423054
-0.00805186
-0.00629838
0.00847301
0.00587723
0.0304393
-0.0325599
0.0106329
-0.00851233
-0.00582613
0.00723935
0.0029162
-0.00432941
-0.0133437
0.0058013
0.0116351
-0.00409268
-0.0057899
0.00840455
0.0108088
-0.0134235
0.0162547
-0.0062911
-0.0107625
0.000798862
0.000283393
-0.00395641
0.00962464
-0.00595162
-0.00167302
0.00165982
-0.0127275
0.0116586
0.00379157
-0.0124818
-0.00296843
0.0146444
-0.0120115
-0.00323412
0.00308493
0.0045665
-0.0107922
0.0031408
-0.00599724
-0.0110108
0.00977643
0.00723159
-0.00183663
-0.00476871
-0.00144652
0.00598249
-0.00639277
0.0137749
-0.0133647
0.00145011
-0.0166855
0.0152354
0.00569365
-0.00744433
0.00483561
0.00307337
0.00177343
0.00252029
-0.00736709
-0.000309429
-0.0138937
0.0142031
-0.007562
0.00100446
-0.00245375
0.00901129
-0.000908428
0.0105166
-0.00958626
-2.19222e-05
-0.00714533
-0.00378147
0.0041258
0.006801
-0.00266424
-0.00631772
-0.00586805
-0.00862508
0.00719396
0.00729918
0.000316749
-0.00884905
0.0152926
-0.00628798
-0.000814052
-0.00819058
0.00808375
-0.000770322
-0.00589814
-0.00141529
-0.00129257
0.0114017
-0.0142399
0.00413078
0.00737228
0.000283653
0.00358889
-0.0112448
-0.00027037
-0.00606083
0.00292463
0.00340657
-0.00418654
0.00544787
0.0105326
-0.011794
-0.0148282
-0.00384993
-0.00415347
0.0136971
-0.0126654
0.00029837
0.00397341
0.00839357
0.00121988
-0.00449414
-0.00800541
0.0112797
-0.00579851
-0.0113186
0.00285609
0.014261
-0.00530809
-0.00589389
0.00612254
0.00507943
-0.0137201
0.0132058
0.0139345
-0.0134202
-0.00185538
-0.00323811
-0.00975186
0.0148453
-0.0133516
0.00136627
0.0135884
-0.00160305
-0.00231892
0.00623824
-0.00391932
-0.00541075
0.0100016
-0.00752952
0.00293868
-0.000235974
0.0180141
-0.00668595
-0.0110922
-0.00644352
-0.00311403
0.0129345
-0.00337691
0.00207925
-0.0054547
0.0123778
-0.00900234
0.000565315
0.00801617
-0.00140439
-3.68114e-05
-0.0131868
0.013177
4.65396e-05
0.0149956
-0.00265553
-0.0219176
0.00957749
-0.0138485
-0.00135701
0.0172909
-0.00208537
-0.00751604
0.0113552
0.000932226
-0.00477141
0.00670123
-0.00661774
-8.34874e-05
-0.00802736
0.000773598
-0.00692617
0.0141799
-0.0115844
0.0159642
-0.00332833
-0.0010514
0.00722013
-0.00302812
-0.00870593
0.00451392
-0.0139539
0.01408
-0.000126098
0.0114969
-0.0167179
0.0013523
0.00386874
-0.0130268
-0.00356651
0.0222775
-0.00568412
0.00960965
-0.00040009
-0.00201856
-0.007191
-0.00548006
-0.00929167
0.0207542
-0.000977158
-0.0137138
0.00829818
0.0216247
-0.0241266
-0.00228913
0.00479101
0.00576094
0.00274664
-0.006365
-0.00603385
0.00629233
-0.000258487
-0.00246655
0.0137809
-0.000874001
-0.0104403
-0.00299972
0.00355813
0.0119687
-0.0125271
0.00781864
0.0183463
-0.0107359
-0.0154291
0.013386
-0.0160603
0.00510567
-0.00243134
0.0122028
0.000170842
-0.0123736
0.000225831
0.0118767
-0.0121025
0.0133886
-0.016206
0.0143143
0.000145817
-0.000123124
0.0104146
-0.0104373
0.000272696
0.0189762
-0.018907
-0.000341936
-0.00162205
-0.00479698
-0.00970801
0.016127
-0.00593834
-0.00355943
0.00119256
0.011233
-0.0195498
0.00712421
-0.00950691
-0.00249284
0.0101928
0.00180695
-0.011188
0.0123548
-0.00330015
0.00213335
0.00176871
0.00921643
-0.00313517
-0.00784997
-0.00448001
0.00111805
0.00758785
-0.00422589
-1.17302e-05
0.00341354
-0.00427641
0.000874605
-0.0047718
0.0116739
-0.00673012
-0.000171933
0.00349058
-0.0110114
-0.00643302
7.83264e-05
-0.0102698
0.0101915
-0.00380241
-0.00364831
0.00169209
0.00575863
0.00575199
-0.00331834
-0.00243365
0.014365
-0.0142668
-0.00290979
0.00281157
-0.00130388
-0.00848347
0.00782274
0.00196462
-3.56432e-05
4.77942e-05
0.00767693
-0.00768908
0.00382936
-0.0031472
-0.0121841
0.0115019
0.00883722
-0.000223422
-0.0086138
-0.0129553
-0.00838879
0.0125019
0.00884217
0.00759528
0.0119019
-0.0204743
0.00721059
-0.00259447
0.00405967
-0.00867578
-0.00288663
0.00286342
-0.0158813
0.0159045
0.00450218
-0.00886571
-0.00862832
0.0129919
-0.00091059
-0.00204209
0.00962037
-0.00666769
0.00670969
-0.00824667
0.00298841
-0.00145144
0.00365408
-0.00605676
-0.00585421
0.00825689
-0.0118126
0.0133021
-0.00354416
0.00205464
0.013423
0.0172779
-0.0190208
-0.01168
-0.0104004
0.0103561
4.43549e-05
-0.00116406
0.0122902
-0.0153527
0.00422655
0.000477598
-0.000781276
-0.0118015
0.0121051
0.0116423
0.000488442
-0.0133953
0.00126457
-0.00494315
-0.00835541
0.0105077
0.00279089
-0.0119449
0.0169238
-0.00599249
0.00101358
-0.00495004
-0.00604506
0.00358852
-0.000734352
-0.00012507
-0.00850528
0.0093647
-0.0277882
0.000111047
0.00249239
0.0251848
0.00110169
-0.0070796
-0.00366421
0.00964212
0.0173516
-0.00142597
-0.0056167
-0.0103089
-0.00310147
-0.006691
0.00130575
0.00848671
0.00486024
-1.89609e-05
-0.00484128
0.00814851
0.00434212
-0.00270266
-0.00978797
0.00631318
-0.00499966
0.0124537
-0.0137673
0.000409987
0.0129549
-0.0042812
-0.0090837
0.00314542
0.00448858
0.00971756
-0.00622358
0.000441596
0.00578198
-0.00807645
0.00114161
0.00214361
0.00135554
-0.0111772
0.00767808
-0.0105504
0.0154377
0.00467635
0.015954
-0.00338203
-0.0172483
-0.0101266
0.00994596
-0.0157386
0.0159193
-0.00152456
-0.00764558
0.00267422
0.00649592
-0.00842269
0.0158886
0.00471422
-0.00548778
0.00122803
-0.000454466
-0.00520138
-0.0165915
0.0051938
0.0165991
0.0109009
-0.0108789
-9.89187e-05
7.69217e-05
0.00881545
-0.0102894
0.00219562
-0.000721698
0.0022614
0.00884813
-0.0157629
0.00465342
3.77103e-05
0.0076196
-0.00765731
0.00492914
-0.0126331
0.0099654
-0.00476506
0.0127926
0.0107757
-0.0188032
0.00364002
-0.00370202
-0.0172233
0.0172853
-0.00519019
0.00859821
-0.0172464
0.0138384
-0.0123662
0.00984615
0.0129114
-0.0103913
-0.00776817
0.0106427
-0.00687615
0.00400163
-0.00162769
0.00709181
0.00115369
-0.0066178
0.00361678
-0.00527345
0.00543834
-0.00378167
0.00678119
0.00252316
0.00223043
-0.0115348
0.0193744
-0.0131546
-0.000791317
-0.00542847
-1.08531e-05
-0.00939367
0.00940452
0.00588344
-0.00860387
-0.0263804
0.0291009
-0.00118182
-0.0127891
-0.00387634
0.0178473
-0.000779239
-0.00590101
0.00668025
0.00179259
0.00850282
-0.00134248
-0.00895293
-0.00238059
-0.00859281
0.00693462
0.00403878
0.00660606
-0.00553243
-0.00971809
0.0169042
-0.0131569
0.00370816
0.00392916
-0.00763732
0.012749
-0.000349115
-0.00153419
-0.0108657
-0.00244326
-0.00415563
0.0065989
0.00457434
0.00303943
0.0255145
-0.0306872
-0.0108402
0.0160129
0.00392917
0.00837048
-0.00640222
-0.00589743
-0.0089342
0.0170928
0.0113671
-0.0195257
0.0100622
0.00349233
-0.00134729
-0.0122073
0.0166993
-0.011135
0.00718577
-0.0127501
-0.00932517
0.00426386
-0.0116889
0.0167502
-0.0151919
0.027228
-0.0106728
-0.00136337
-0.000400618
-0.00652377
-0.00899044
0.0159148
0.0123349
0.00509581
-0.0144741
-0.00295659
0.00659631
-0.0175862
0.0111012
-0.000111333
-0.0155605
-0.000592949
0.0101817
0.00597167
-0.00312113
0.0080702
0.00350903
-0.0084581
-0.0019792
0.00793764
0.00638485
-0.0123433
-0.0162052
0.00833693
-0.000790894
0.0086592
0.0014927
-0.00443378
0.00880744
-0.00586637
0.00685434
-0.00344804
0.0024466
-0.00585291
0.00665537
0.00128014
0.000655005
-0.00859051
-0.00986942
0.0105892
0.00392206
-0.00464189
-0.00232975
0.0124713
0.000253273
-0.0103949
0.0100602
-0.00590662
-0.00390099
-0.000252556
0.00872734
6.79762e-05
-0.00879532
0.00638002
0.00494006
-0.00112025
-0.0101998
0.00297239
0.00784525
0.0067158
-0.0175334
-1.78287e-05
-0.0141039
0.0141217
-0.00736279
0.0284823
-0.00415054
-0.0169689
-0.000135631
0.0106131
-0.0104775
-0.000711519
-0.00766662
0.001377
0.00700114
-0.0138494
0.00705555
0.0053579
0.00143592
0.00282549
0.00235193
-0.0161943
0.0110169
0.00829117
0.013097
-0.00489494
-0.0164932
0.0124532
-0.00426635
-0.0119198
0.00373294
-0.0155737
0.00887965
0.0237357
-0.0170417
-3.93506e-05
0.00594069
-0.00594094
3.9595e-05
-0.00614637
0.00608223
6.41382e-05
-0.015842
0.000243721
0.00666403
0.00176934
0.00382395
0.0104688
-0.0160621
0.00828589
-0.00985516
0.00635619
-0.00478692
-0.0078795
0.00690104
-0.000261483
0.00123995
-0.0016562
-0.0129898
0.0166346
-0.00198861
-0.00580251
0.00279413
0.00918739
-0.00617901
0.0100926
-0.00389036
0.00148953
-0.00769181
-0.00672656
-0.00117271
0.00787432
2.49526e-05
-0.00114798
-6.16754e-05
0.0109054
-0.00969576
0.00139662
-0.00117267
0.0109626
-0.0111865
-0.00986102
0.0137814
-0.0144389
0.0105185
6.79198e-05
-0.0124317
0.0123637
-0.00442552
0.000388424
0.0111566
-0.00711948
-0.00851848
0.00995901
-0.0135814
0.0121409
-0.00872586
0.000660291
0.00265633
-0.00402939
0.0109184
0.000606576
-0.0074956
-0.00291545
0.000407218
-0.00494455
-0.00429763
-0.0139621
0.0140256
0.00423412
-0.00622008
-0.000729043
-0.00156296
0.00851208
-0.0213159
0.00720582
0.00209871
0.0120114
-0.0067665
0.0154577
-0.00767328
-0.00101791
0.00471909
0.00185034
-0.00948488
0.00928958
0.00947335
-0.0187629
0.00124175
0.0203715
-0.00471548
-0.0168978
-0.000257913
-0.000360249
-0.00895299
0.00957115
-0.00977548
0.0161057
-0.00649259
0.000162391
0.00928251
-0.00586234
-0.00841268
0.00499251
0.00230811
-0.000309505
0.00282536
0.0142611
0.00398949
-0.0206376
0.00238702
-0.00987203
-0.00128911
0.00323792
0.00792323
0.00375107
-0.00415724
-0.00563888
0.0171879
-0.0115618
0.00898309
-0.0146092
-0.00190122
0.011097
-0.0191929
0.00999705
0.00666977
-0.0084287
-0.000854134
0.00261306
-0.00739525
-0.00257335
-0.000249789
0.0102184
-0.00550008
-0.00520145
0.0107015
0.00138029
-0.0147544
0.0130864
0.000287772
0.00566066
-0.00545811
-0.00570262
-0.00923953
0.0117257
-0.00223355
-0.000252663
0.013228
0.003642
-0.0142558
-0.00261424
-0.00510781
-0.0074766
-0.000859902
0.0134443
0.00835207
-0.00254121
0.00968497
-0.0154958
-0.00933515
-0.000525876
-0.0111888
0.00598733
0.00144445
-0.0125659
0.0040206
0.00710081
0.00364157
-0.0130384
0.00718155
0.00221527
0.00194812
0.000511829
-0.00977441
0.00731446
0.00150163
0.0064183
-0.000431013
0.010955
-0.00216473
-0.00835926
-0.00430146
-0.000435654
-0.0040213
0.00875841
-0.00254314
-0.00342576
0.0065501
-0.000581203
-0.0102052
-0.000145821
-0.0172675
0.00619906
0.00908924
0.0245335
-0.000199141
0.00334375
-0.0276781
-0.0107259
0.0166682
0.00337847
-0.00932085
-0.00305816
0.00167706
0.0105629
-0.0091818
0.00128377
0.00364462
-0.00281953
-0.00210886
-0.0184515
-0.00380702
0.015924
0.00633453
0.000402313
0.00776087
-0.00155713
0.000237834
0.00392368
-0.0123121
0.00815064
-0.00764324
-2.70372e-05
0.00281849
0.00485179
-0.010407
0.012861
-0.00205171
0.00587261
-0.00529555
-0.000577063
-0.00869869
0.00125402
-0.00675653
0.0142012
-0.00391562
0.00589239
-0.00454161
0.00256485
-0.00842844
0.00949137
-0.00392209
0.00285917
0.00380722
-0.000623534
-0.0090599
0.00587621
-0.00376944
0.0236283
-0.0318037
-0.00345765
-0.00241316
0.00236283
0.00350798
0.011269
-0.0175916
-0.000798711
0.00712136
-0.00477519
0.00356353
0.0061408
-0.00492914
-0.00141429
0.00754189
-0.00208059
-0.00404701
-0.00848875
0.00188325
0.00198404
0.00462146
-0.00469844
0.00040394
0.0042945
0.0109179
-0.00519881
-0.00553959
-0.000179458
0.00079427
0.00541119
-0.00821343
0.00200796
-0.00584514
-0.00708578
0.00722538
0.00570554
-0.00301089
0.00777237
-0.0066671
0.00190562
0.00282345
-0.00534512
0.00368411
-0.00116244
0.010198
0.000276335
-0.0104743
0.00878412
-0.0108152
0.00535164
-0.00332059
-0.0137915
-0.000406815
0.0141983
0.0056992
-0.00472818
0.00110251
-0.00207353
-0.000447551
0.00977371
-0.0106681
0.00134196
-0.00491965
0.00615898
0.00158412
-0.00542046
0.0116136
0.0107306
-0.00927761
0.00919749
8.01233e-05
0.000256152
-0.0146662
0.01441
0.019807
0.00239517
-0.004225
-0.0179772
0.00413506
-0.0161372
-0.00199975
0.0140019
0.00315383
0.00373072
0.00209244
-0.008977
-0.00555291
-0.00555878
7.5733e-05
0.011036
-0.00264773
0.00363952
-0.0065447
-0.0122172
0.00220558
0.0160384
-0.00602675
-0.0239775
0.0175601
0.0077286
-0.00131125
0.0106046
9.23722e-05
-0.010697
-0.00599953
-0.00807202
0.00522096
0.00885058
-0.00605165
-0.00878868
0.00262314
-0.00872913
0.00474185
0.00548891
0.00353693
-0.0045999
-0.00844119
0.00950416
-0.00597936
4.05722e-06
0.00597531
-0.0138934
0.0056486
0.00573579
0.00250904
0.00352215
-0.00941269
-0.00283859
0.0119417
-0.00378712
-0.000301749
-0.00785288
-0.00801102
0.0132734
0.00787939
-0.0131417
-0.00234327
-0.00492347
0.00180378
0.00546297
-0.0033928
-0.0027288
0.0061216
-0.00589635
-0.0123932
-0.00568798
0.00275807
3.56999e-05
0.0055651
-0.00835887
0.0113482
-0.00826443
-0.0119514
0.00886766
-0.0042096
0.00150098
0.00850619
-0.00579758
0.00801229
-0.00564055
-0.000794403
-0.00157734
-0.00918771
0.00149137
0.00717662
0.000519726
-0.00569382
0.0130842
-0.0141682
0.00552402
0.000409937
0.00823426
0.0132566
-0.0105875
-0.00833668
0.0056675
-0.010535
0.00219368
0.0196896
-0.0102721
-0.00677142
0.011055
0.00598851
-0.00120001
0.0106992
-0.00405853
-0.00544064
0.000605695
-0.00626568
-0.00413284
0.00979283
0.0121804
-0.00803546
-0.000494246
-0.00365074
0.00375151
0.00280185
-0.00920108
-0.00256034
0.00289892
0.00714923
-0.00748781
-0.00211538
0.0110634
-0.0136372
0.00468922
-0.00660778
0.00159375
0.00159947
0.00341457
-0.0145414
0.0147929
-0.000251454
0.0100044
-0.00985956
-0.000144825
0.00402337
-0.0155429
-0.00596788
0.0174874
0.00356918
0.00678973
0.00158284
-0.000171851
0.00595356
-0.00578171
0.00949317
0.00850935
-0.0180025
-0.0105966
0.00646895
0.00457253
-0.000444884
-0.00595134
0.00196105
0.00483848
-0.000848191
-0.0177345
0.00827609
0.00972644
-0.000268044
-0.00576794
-0.0064309
0.00621948
0.0090919
-0.00143053
-0.00586126
-0.00180011
-0.00983276
0.0106227
-0.00648378
0.00173083
-0.0109814
-0.000562824
0.00981341
-1.24881e-05
-0.00536919
0.00538168
0.0265174
0.000214356
0.00281702
-0.0295488
-0.000993233
-0.00194267
-0.0143114
0.0172473
0.00461179
-0.00624413
-0.00291249
0.00454483
0.00178588
0.0137091
-0.00554454
-0.00995049
0.0149614
-0.0149699
-3.60943e-05
4.45428e-05
-0.00839048
-0.00757209
0.0118338
0.0041288
0.00489957
0.00375136
-0.00976616
0.00111523
6.92147e-05
0.00908014
-0.00927959
0.000130239
-0.0125008
0.00400242
0.0101314
-0.00163305
0.00963532
0.00582515
-0.00975456
-0.00570592
0.000227036
-0.0085483
0.00434722
-0.00222717
0.0128414
-0.00693815
-0.000903569
-0.00108302
0.00892475
-0.0115245
0.000606228
0.0109183
0.0168932
0.00730101
-0.00547746
-0.0187168
-0.0110308
0.0002367
0.0110211
-0.00101361
-0.00263876
-0.00673707
0.0103894
-0.00134496
-0.00132086
-0.00355068
0.0062165
0.00278041
-0.0141041
0.010634
0.000689712
0.00875615
-0.00136616
-0.00851988
0.00112989
-0.010867
0.00228278
0.000890959
0.00769326
-0.00412658
0.00269666
-0.00555392
0.00698384
0.00237619
0.00150661
-0.0139902
0.0101074
0.000488563
-0.00947182
-0.000659605
0.00964286
0.00940261
0.00122995
-0.000158266
-0.0104743
-0.0112173
0.00261357
0.0101511
-0.00805485
-0.0106957
0.0187506
0.0155588
-0.00793793
0.00334379
-0.0109646
0.00122122
0.00875387
-0.0053633
-0.012564
0.00231833
0.00444738
0.00579828
0.0155008
-0.0159575
0.000456735
-0.00934567
-0.00317309
0.00654161
0.00597715
-0.0121559
-0.00944359
0.00633019
0.0152693
0.0127267
-0.0132919
-0.00162641
0.00219166
-0.00185123
0.0061749
-0.0048667
0.000543024
-0.0158895
0.00518025
0.00365086
0.0070584
-0.0233957
0.0291241
0.00481074
-0.0105392
0.0104205
-0.0226175
-0.00114938
0.0133464
-0.00928216
0.0117862
-0.0218385
0.0193345
-0.00976648
0.0215263
0.00213672
-0.0138966
0.000857111
0.0101864
-0.00237623
-0.00866733
0.015484
-0.011614
-0.000389546
-0.00348052
-0.00272866
-0.002621
0.00400507
0.00134459
-0.00736141
-0.0152906
0.0130254
0.00962664
-0.0103859
0.013836
0.012034
0.00840695
-0.0061805
-0.00770188
0.00547543
0.00313143
-0.00405188
-0.00178973
0.00271018
0.00692831
-0.00685071
-0.00913214
0.00905454
-0.00281026
0.00806149
-0.000583303
-0.00466793
-0.011134
-0.00177301
0.0137641
-0.00842318
-0.00207119
0.0104136
8.07177e-05
0.00341941
-0.00763946
0.00422005
0.00273788
-0.00363635
0.0135516
-0.0126532
0.0105622
-0.0148522
0.00214969
0.00214029
0.00672744
-0.00725897
0.000531532
-0.0106692
0.000283286
0.00957586
-0.00364562
-0.00923726
0.00330703
0.00299699
0.00243361
0.0106708
-0.0161014
0.00655448
-0.00711711
0.000562631
-8.18567e-05
0.0083245
-0.00941099
0.00116835
-0.0117241
-0.00113102
0.015593
-0.00507512
-0.000868623
0.00117272
0.00477102
0.000701301
-0.00579551
0.00427488
0.000819328
0.00948796
-0.00908137
-0.00225782
0.00108463
0.0156212
-0.00983757
-0.00686827
-0.00538567
0.0113928
-0.00600716
-0.0145589
0.00557555
-0.00341766
0.012401
0.0114604
-0.0103905
-0.0169594
-0.0055567
-0.00664908
0.022852
-0.0106462
-0.0163734
0.0104324
0.0148636
-0.00892256
-0.000367321
-0.0139784
0.0143457
0.0221796
4.40289e-05
-0.0127784
-0.00944524
0.0128534
-0.00827859
-0.00114376
-0.00343101
-0.00938044
0.00666056
-0.00168417
0.00440405
0.00012804
-0.00961609
0.00948805
-0.00707376
0.00728073
-0.000206968
-0.00511773
-0.00540589
-0.0138565
0.0243802
-0.0130522
0.00284702
-0.00145663
0.0116618
0.00301408
0.00489115
0.0133801
-0.0120747
-0.00998564
0.00868027
-0.003719
-0.00766556
0.00845824
0.00292631
-0.00772547
-0.00392987
0.0116661
-1.0753e-05
0.00252182
-0.0014522
-0.00714088
0.00607126
0.0085291
0.000377546
-0.0108997
0.00199304
0.00263046
-0.00182682
0.00281198
-0.00339251
0.00337991
-0.00279939
0.0069681
0.00682756
-0.00696984
-0.00682582
0.00342903
0.00800816
-0.00828532
-0.00315186
0.00728921
0.00316143
-0.00573156
0.00900959
-0.0109239
0.00229189
-0.01197
0.00836797
0.00450465
-0.000902573
0.014259
-0.00471918
-0.0149255
-0.00380915
0.0101628
0.00510677
0.00990642
-0.0048267
-0.0083419
-0.0022716
-0.00135655
-0.0133145
0.0124608
0.00116981
-0.000316071
-0.000827727
0.0166399
-0.00172446
-0.0140877
-0.0108657
0.00221426
0.00484226
-0.00174853
-0.0110432
0.00310295
0.00968875
0.00994483
0.00137901
-2.49337e-05
-0.0112989
-0.0148491
-0.000126029
0.000103817
0.0148713
-0.00381035
0.00417663
-0.00677336
0.00640708
-0.010227
0.0129339
-0.00133481
-0.00137216
0.0134355
-0.012547
-0.0111155
-0.00994515
0.00896813
-0.002848
0.00382503
0.00805491
-0.000363145
-0.00253352
-0.00515825
-0.0150351
0.0145009
0.00710417
-0.00656994
0.00710448
0.00270592
-0.000902156
-0.00890825
0.00258229
0.00654319
-0.00818428
-0.000941197
-0.00484353
0.00487155
-2.80176e-05
-0.00283425
-0.00723759
0.00726158
0.0108669
-0.0107721
-9.48936e-05
-0.00616447
-0.00490291
0.00482325
-0.000642169
-0.00737245
-0.000803777
0.0088184
-0.000831792
-0.00640349
0.00572423
0.00151105
0.0101469
-0.0115333
0.00138635
-0.0129049
0.0132517
0.0121191
-0.0124658
-0.00869805
0.00671831
-0.00457789
0.00655763
-0.00346587
0.00148121
0.00313782
-0.00115317
-0.000366606
0.0157079
-0.000137566
-0.0152037
-0.00791009
0.00383492
0.00389524
0.00452529
0.00575915
-0.0100484
-0.000236004
0.000436162
-0.0124802
-0.000490205
-0.011356
0.0113506
5.4093e-06
-0.00760935
0.00383094
-0.00837744
0.0025896
-0.00573129
0.000229203
0.0049627
0.0021549
0.00753597
0.000147052
-0.00644427
-0.00123875
0.00630898
-0.0157412
0.0126205
-0.00318827
0.00260428
-0.00354827
0.0131947
-0.0122508
0.0161676
0.00477208
-0.00248595
-0.0184537
-0.00412422
-0.00676269
-0.00219198
0.0130789
0.00489456
0.0203958
-0.0184184
-0.00687194
0.00235039
0.0147705
-0.0142588
-0.00286207
-0.005101
0.00067263
0.0104551
-0.00602676
-0.00178495
0.0145099
-0.00783034
0.010491
-0.00828227
-0.00323376
0.00102508
0.00343754
0.00899766
-0.0124352
0.00843884
0.00187265
-0.00112472
-0.00918677
-0.00775949
0.00620082
0.000623925
0.00093474
-0.000754322
-0.0109437
0.00063769
0.0110603
-0.00803839
-0.00102104
-0.000337654
0.00939709
0.00464027
-0.0102907
0.000102096
0.00404536
0.00614324
8.86764e-05
0.00668335
-0.00677203
0.000825839
0.0116944
-0.0298887
0.0173684
0.00328825
-0.00828504
0.00787143
-0.00287464
0.00471936
0.0053872
-0.00373153
-0.00637504
4.91257e-05
-0.00599603
0.0059469
-0.00324048
-0.00229867
0.0131225
-0.00758338
-0.00400186
0.0133693
-0.0115412
0.00217374
0.0146855
-0.0102035
-0.00985536
0.00537341
-0.00604174
0.00408215
0.0018698
8.9795e-05
-0.000797113
0.00460149
-0.0024766
-0.00132777
0.0157432
-0.0123056
0.00733859
-0.000848025
-0.0120127
0.00552218
-0.00335078
0.00313311
0.00375385
-0.00353619
0.000192533
0.0150542
-9.61996e-05
-0.0151505
-0.0109802
-0.00361757
0.0148855
-0.000287779
-0.0031244
-0.00132465
0.00342225
0.00444312
-0.00654072
0.0088757
0.00627286
-0.0132839
-0.00186466
-0.00273439
-0.00178104
-0.0118834
0.0163988
0.0156556
-0.0123811
-0.0218203
0.0185457
-0.00610855
-4.50138e-05
0.00615357
-0.00738141