/*--------------------------------*- C++ -*----------------------------------*\
  =========                 |
  \\      /  F ield         | OpenFOAM: The Open Source CFD Toolbox
   \\    /   O peration     | Website:  https://openfoam.org
    \\  /    A nd           | Version:  10
     \\/     M anipulation  |
\*---------------------------------------------------------------------------*/
FoamFile
{
    format      ascii;
    class       volScalarField;
    location    "9.8";
    object      T;
}
// * * * * * * * * * * * * * * * * * * * * * * * * * * * * * * * * * * * * * //

dimensions      [0 0 0 1 0 0 0];

internalField   nonuniform List<scalar> 
111485
(
303.15
285.1
300.959
303.15
298.387
283.15
298.899
293.367
296.293
286.24
300.497
296.172
300.191
284.565
299.955
286.751
299.287
297.721
294.011
303.15
303.15
283.15
297.213
288.683
301.537
303.15
293.167
300.603
288.838
303.15
300.723
294.292
303.15
283.15
283.446
283.15
302.278
297.562
283.149
296.576
283.15
289.58
296.995
302.879
303.192
303.15
287.354
288.542
289.622
303.15
303.15
283.15
303.15
298.89
303.15
293.463
287.883
283.15
283.32
295.417
295.817
303.15
302.042
300.245
283.15
284.543
300.21
291.503
302.096
302.522
303.162
301.884
303.15
302.093
303.15
295.339
283.15
293.426
283.15
283.15
283.238
293.361
283.15
303.15
300.289
284.202
283.15
301.531
303.115
299.057
283.329
289.551
300.841
300.361
289.745
303.15
303.15
301.531
303.149
283.413
303.15
286.641
283.15
285.156
285.739
283.15
283.15
293.039
301.438
283.146
298.876
288.054
301.275
301.687
303.15
301.965
303.15
283.15
300.104
303.15
303.15
283.15
283.15
283.15
283.398
303.151
283.15
301.796
303.15
283.176
303.087
301.922
303.15
283.15
283.15
292.47
283.15
294.178
298.755
301.069
303.137
296.78
298.937
284.76
302.27
297.757
283.15
303.15
283.15
297.099
284.916
303.15
303.144
287.293
283.156
293.68
295.593
302.517
283.154
303.15
303.15
292.138
286.23
283.153
283.157
301.159
283.682
283.15
283.152
283.153
283.15
303.15
283.205
283.15
291.507
287.147
283.15
303.15
303.15
283.15
303.15
303.15
297.608
293.453
295.744
289.735
301.359
300.392
283.189
303.15
301.425
303.15
303.15
300.126
286.268
301.386
301.314
295.705
303.15
300.862
284.587
283.16
300.754
297.03
303.15
300.385
288.168
303.15
283.224
300.155
284.794
300.658
303.15
303.15
300.673
283.15
292.724
283.15
300.577
298.673
290.337
303.15
301.737
300.509
283.15
283.15
283.15
289.476
283.157
283.15
303.15
298.609
291.328
289.901
283.15
303.15
303.106
303.15
284.323
300.048
299.221
299.471
299.34
283.15
283.144
298.818
283.15
283.15
288.736
288.339
283.15
301.161
298.836
303.15
283.15
301.004
303.15
303.15
303.121
303.15
288.242
285.849
290.75
303.15
298.297
303.15
303.15
303.15
283.148
298.053
300.95
299.384
291.172
299.441
296.198
283.21
290.291
291.537
283.15
303.15
283.149
292.412
298.714
286.438
303.15
297.954
297.222
298.848
302.958
283.166
297.056
299.321
301.989
283.15
283.603
283.15
283.149
303.15
283.878
290.234
286.301
303.15
283.15
297.546
285.227
303.15
303.15
303.15
284.576
290.201
301.037
284.392
292.987
283.15
283.15
303.15
298.308
303.15
283.816
289.449
283.153
283.15
303.15
303.15
283.15
294.31
289.939
283.15
295.66
283.15
303.15
301.043
297.25
293.94
295.769
283.15
283.15
283.15
296.56
290.971
302.356
283.15
283.15
283.15
290.058
296.899
283.212
290.447
283.15
292.755
299.517
284.195
298.641
285.25
283.15
303.15
283.15
303.15
290.643
296.619
287.913
291.903
283.15
286.342
283.15
303.15
293.772
303.15
301.738
303.15
283.15
291.906
283.15
288.748
284.612
283.15
283.977
297.98
283.15
300.114
284.655
298.8
303.021
291.023
285.983
283.15
303.15
303.143
283.15
300.961
300.823
283.15
283.15
294.673
284.358
298.146
296.799
283.15
295.067
296.07
283.15
302.039
283.892
303.15
303.15
288.224
298.549
283.15
303.15
303.15
303.15
300.714
283.15
303.15
293.91
283.171
286.949
299.933
283.15
283.15
302.601
283.15
302.449
301.418
297.807
288.68
283.15
293.876
303.38
303.15
298.596
292.269
303.15
283.15
283.304
283.15
289.996
286.087
291.613
283.15
292.834
296.54
293.027
303.147
283.15
303.15
303.15
283.169
292.692
283.15
284.309
303.133
283.15
303.15
303.15
303.15
301.812
290.49
285.977
284.181
284.308
283.15
285.682
303.15
300.707
283.15
303.15
303.15
300.648
303.15
303.15
283.151
303.15
283.15
300.647
283.15
283.15
283.15
303.15
283.15
303.15
283.15
283.66
283.15
303.125
301.835
283.742
283.15
303.083
283.15
303.15
284.701
284.663
286.1
297.468
283.15
297.441
297.554
292.254
286.792
285.258
303.15
291.725
283.15
299.827
283.15
296.744
283.15
292.041
298.542
303.151
283.15
286.772
303.15
295.456
299.048
283.15
283.15
283.15
283.15
303.15
293.639
283.15
283.15
283.236
283.15
299.78
283.15
284.784
303.15
283.432
303.12
284.624
291.864
283.15
301.432
283.15
283.15
285.676
283.15
283.254
283.15
299.632
303.15
290.617
303.15
283.15
302.369
284.461
300.051
285.644
300.048
289.443
283.15
300.597
284.54
283.15
283.14
300.303
301.568
283.15
282.459
301.038
303.062
283.119
303.15
287.551
302.156
284.398
285.376
288.176
282.568
283.15
303.15
300.557
303.15
283.544
283.15
283.15
291.722
282.681
303.149
303.116
283.15
286.258
299.55
283.15
283.15
299.565
303.15
283.15
283.15
283.15
286.141
283.15
303.15
284.813
284.212
303.15
299.659
283.15
289.224
303.15
283.15
286.135
283.15
283.15
283.15
285.353
283.15
285.43
291.918
303.15
300.333
283.446
298.666
300.917
283.307
283.455
283.15
288.926
298.401
303.15
302.251
296.011
296.836
284.703
297.401
297.157
303.15
300.218
303.135
283.15
297.102
284.814
283.15
292.326
295.674
284.836
298.726
300.599
292.287
283.15
298.868
283.467
303.15
300.557
301.95
294.037
283.15
286.471
303.15
283.15
283.15
283.15
283.3
283.15
303.15
303.15
283.15
300.382
299.204
303.15
285.606
303.15
303.15
303.15
289.997
283.416
283.15
303.15
283.15
283.15
286.781
292.333
283.15
295.085
283.137
283.15
295.26
302.209
287.754
283.15
283.15
300.216
292.044
283.15
283.15
283.15
293.942
303.15
303.15
283.15
296.19
302.368
283.15
282.381
301.706
286.512
283.15
283.15
287.436
302.962
283.15
283.159
287.197
283.749
288.744
283.15
285.672
300.272
283.15
303.15
283.15
283.15
283.15
283.15
295.618
303.15
283.15
283.15
295.232
291.768
303.15
303.15
289.811
298.379
298.277
303.15
283.15
297.951
303.15
283.822
298.786
298.305
303.15
303.15
303.15
283.15
286.042
283.15
283.15
302.697
303.15
297.77
302.266
283.15
294.005
283.259
296.386
291.934
283.415
289.737
283.15
283.15
296.834
288.012
290.8
283.15
283.15
297.721
294.924
283.15
283.899
284.575
283.473
303.15
303.15
303.15
290.706
283.15
300.017
283.15
284.365
297.552
298.466
292.216
283.15
283.15
303.15
295.323
283.15
283.15
303.096
283.15
283.15
303.15
283.15
299.283
283.15
283.15
283.15
283.15
283.15
303.15
283.15
283.171
298.737
303.15
302.524
283.131
283.398
283.095
285.495
283.15
284.445
290.492
283.398
303.15
283.149
299.699
283.15
300.217
283.143
283.144
286.182
297.444
283.203
291.847
297.96
283.15
283.15
299.02
299.766
283.15
297.307
291.237
297.525
283.15
283.243
283.15
297.837
296.957
283.15
300.028
297.606
283.149
299.733
283.15
295.605
283.145
303.126
283.162
283.16
283.15
283.15
284.412
283.15
302.968
283.584
283.064
303.147
303.149
303.147
283.15
283.15
293.748
303.15
303.188
283.867
283.15
283.15
303.154
303.149
283.15
303.165
283.15
283.15
303.15
303.15
303.15
303.15
283.361
283.15
283.15
283.15
303.157
283.304
283.884
293.399
283.15
283.15
283.334
283.15
283.15
283.15
287.223
293.547
283.15
283.15
283.15
283.15
283.15
283.15
284.005
283.15
303.15
291.532
283.15
303.15
303.15
303.153
303.15
303.15
283.15
303.171
283.15
283.692
283.144
303.152
283.15
303.062
284.382
292.042
303.15
303.128
284.438
303.15
283.15
303.15
283.15
293.991
293.433
284.626
303.148
283.15
293.206
283.15
283.15
303.15
283.15
294.803
283.15
303.15
283.163
298.123
303.15
284.366
283.15
283.572
283.15
283.15
283.15
303.15
285.833
283.466
284.208
283.15
283.15
285.62
283.15
283.15
303.15
284.317
303.164
298.515
303.15
303.127
303.128
283.15
303.13
283.15
283.438
289.111
300.998
283.795
283.167
283.15
283.15
283.15
303.184
283.15
302.898
303.15
292.636
303.15
288.706
283.819
303.15
283.15
303.15
283.15
301.775
303.15
303.15
286.39
300.53
283.15
283.15
283.15
283.15
283.15
283.15
300.785
283.576
303.15
303.15
303.157
303.15
300.161
284.407
283.15
302.101
303.15
301.611
283.15
302.562
283.15
283.148
303.152
283.31
302.098
300.201
283.147
283.15
289.329
303.15
293.335
303.15
283.15
303.15
283.15
283.15
283.15
300.785
302.041
303.15
303.15
303.15
302.896
283.15
303.15
292.845
283.085
303.15
297.483
298.282
296.45
283.372
283.15
283.15
283.15
283.15
294.594
283.15
294.825
283.15
303.056
289.821
283.15
302.853
283.15
283.15
302.732
283.148
302.916
283.15
303.15
283.15
302.381
283.15
303.15
283.15
283.148
283.15
283.17
283.15
283.15
303.15
292.961
301.075
296.083
296.983
303.15
303.115
283.15
283.15
285.677
283.15
283.158
302.838
298.756
302.94
303.15
283.357
283.15
303.15
283.15
302.992
283.315
298.274
283.15
303.15
288.072
303.15
283.15
283.126
295.06
283.147
283.15
283.15
283.149
303.15
283.15
303.142
303.15
303.15
289.929
302.986
302.992
288.996
293.214
283.15
283.15
303.087
289.065
283.15
303.15
284.718
283.15
303.15
283.15
283.15
283.15
297.391
283.15
302.938
283.15
300.479
283.15
283.15
283.15
283.15
283.15
283.15
285
283.15
283.15
283.15
283.15
283.15
283.15
291.969
283.15
298.342
302.931
283.15
302.318
283.15
302.509
303.145
292.277
288.771
303.15
292.142
284.771
303.108
303.15
303.14
295.03
288.649
283.15
287.87
283.15
283.15
283.15
283.15
287.494
283.15
283.15
291.626
303.135
285.302
283.15
283.15
302.514
283.15
283.183
303.15
299.872
283.15
283.15
302.819
283.15
303.178
303.15
283.15
289.03
297.939
292.684
285.646
292.501
294.091
283.15
283.15
302.28
290.571
292.743
284.396
283.15
294.35
283.15
303.15
300.72
298.7
283.15
297.388
283.15
292.738
297.18
303.15
283.15
283.15
301.765
283.15
283.15
300.485
296.107
283.195
291.202
283.15
283.15
302.794
300.503
283.15
300.623
283.15
300.477
283.15
283.15
300.783
283.15
283.227
301.582
283.15
283.15
302.422
283.15
287.9
303.15
290.369
303.15
303.15
303.15
300.931
283.15
283.15
299.512
283.15
302.99
283.15
283.15
303.15
283.151
288.189
283.15
283.15
288.052
288.231
283.15
283.672
283.15
303.15
302.408
283.721
301.55
283.15
283.15
283.15
283.15
283.15
283.15
283.15
283.15
283.15
283.15
283.15
303.15
283.15
283.15
283.15
283.15
283.15
283.15
283.15
283.15
303.15
286.943
283.15
283.15
283.15
294.665
283.15
303.15
302.882
283.15
283.15
294.669
283.15
283.15
301.794
295.147
283.15
303.665
303.598
283.15
301.489
293.918
297.512
301.455
298.101
303.15
283.15
296.352
291.745
301.398
283.15
302.134
302.406
300.849
288.023
287.305
301.036
301.765
301.767
303.15
285.846
297.506
285.517
297.209
283.15
283.15
283.15
303.15
283.15
291.956
297.88
283.15
283.15
283.15
283.15
283.15
303.15
283.15
303.15
292.106
303.112
298.987
302.837
283.15
283.15
285.402
283.167
283.15
283.15
301.69
303.15
283.15
298.118
299.479
297.488
298.614
300.778
303.15
291.02
302.579
303.15
303.15
300.301
303.15
283.15
282.991
295.521
302.947
283.15
303.15
289.567
286.137
297.113
292.155
302.375
303.15
303.136
303.15
303.15
283.15
298.925
283.15
291.775
290.423
299.662
284.758
303.15
301.91
303.15
283.15
303.15
303.15
291.467
299.495
283.15
303.15
303.133
291.755
303.028
299.315
292.766
288.307
292.877
283.15
303.15
283.15
291.202
298.264
303.151
303.15
303.15
303.15
297.45
302.552
283.15
299.935
301.111
284.851
299.48
303.15
303.15
298.648
292.928
283.15
302.901
299.714
302.602
291.948
297.27
298.213
303.15
286.97
298.148
291.301
283.15
289.026
303.15
288.38
301.039
303.15
288.689
301.263
300.108
293.139
283.149
283.159
283.237
301.61
300.9
303.15
288.805
301.465
303.15
283.15
303.15
303.209
298.724
290.725
296.741
303.256
283.149
297.485
303.15
303.15
292.75
303.15
300.287
283.303
301.301
291.511
303.15
283.66
293.171
303.15
283.057
298.641
303.15
300.668
286.237
303.15
303.15
283.99
303.15
283.15
283.15
285.904
299.206
291.138
303.15
285.211
297.445
283.15
298.811
298.846
288.954
303.096
283.15
301.494
299.607
298.811
300.053
288.646
290.734
302.476
303.15
301.537
288.699
303.15
298.822
283.15
283.15
303.15
283.15
303.15
297.426
283.15
300.498
283.628
303.15
283.786
283.15
289.82
303.15
303.144
303.15
294.128
302.992
303.117
299.846
290.394
289.425
290.571
298.395
303.15
299.37
292.143
298.907
303.15
283.867
283.449
299.227
287.15
283.508
303.15
283.15
303.15
285.317
303.15
303.333
284.677
303.361
302.953
303.15
303.15
283.15
300.528
300.62
285.483
303.085
286.989
295.635
301.867
292.473
288.131
302.072
296.065
283.15
283.15
303.15
285.8
289.683
283.15
283.15
303.15
301.979
288.649
303.15
296.36
303.15
283.155
285.177
301.087
303.15
303.15
292.25
303.15
283.3
290.598
283.15
297.118
294.609
296.066
303.15
302.704
283.15
302.658
293.379
303.15
303.15
288.775
283.15
303.15
301.787
284.428
303.15
303.15
283.15
302.34
303.47
289.48
299.67
298.019
303.15
303.159
302.599
303.15
283.15
303.15
303.15
303.15
303.15
303.15
303.15
303.15
283.15
303.15
303.15
283.339
303.15
303.342
303.15
303.16
303.15
303.15
300.921
303.676
303.15
291.981
303.15
303.15
283.15
302.551
303.15
302.121
303.114
283.288
283.15
303.15
302.921
283.149
303.15
303.15
291.346
283.15
292.565
283.15
283.15
283.153
291.191
284.833
303.15
296.626
283.15
303.76
303.133
284.307
302.586
283.15
292.143
303.084
301.667
283.15
303.15
283.15
304.118
284.81
296.859
303.15
303.15
303.15
303.15
303.15
303.15
302.336
302.803
297.595
291.981
303.15
287.113
292.618
284.965
303.206
283.15
286.899
302.746
284.754
283.148
287.468
303.15
283.38
302.915
292.506
302.84
301.892
303.15
302.22
303.15
303.15
297.908
303.15
284.462
303.15
303.15
283.15
303.15
303.15
302.84
303.15
283.296
283.15
283.15
285.793
284.906
300.89
286.074
303.15
294.639
303.15
290.433
303.15
287.123
300.665
301.469
293.325
303.15
303.15
303.15
289.791
283.15
303.15
289.544
283.15
283.15
301.812
303.15
286.182
283.148
283.15
303.15
303.15
300.642
298.161
303.15
293.394
303.037
283.15
298.548
303.15
286.406
288.22
302.135
303.15
296.271
296.723
302.95
301.87
301.648
303.15
303.15
303.147
303.15
283.15
303.15
289.548
300.057
294.307
302.122
283.15
300.343
291.374
298.2
283.6
298.295
289.57
302.154
283.15
283.15
283.15
302.201
283.15
290.458
283.15
301.25
303.162
289.701
298.028
283.15
303.15
301.238
301.216
303.15
283.15
303.15
286.423
301.427
302.975
302.328
297.988
288.427
303.15
303.15
303.15
294.209
285.947
289.763
295.845
283.951
302.953
303.15
303.15
283.15
283.15
285.412
299.563
303.15
303.15
283.15
303.15
303.15
303.15
300.235
303.15
285.345
292.381
283.15
283.247
293.329
285.688
303.15
303.15
301.874
303.15
299.208
283.147
297.547
303.15
303.15
283.15
303.15
303.15
303.15
305.164
303.15
301.827
301.105
303.15
303.15
301.605
303.15
283.15
287.228
303.101
303.15
303.15
303.15
297.902
303.15
303.15
302.453
302.481
301.765
303.15
283.15
303.15
302.034
302.502
301.512
302.525
283.15
300.63
287.472
297.426
283.15
303.15
303.15
303.15
303.15
294.337
287.557
299.641
303.15
303.15
303.15
303.15
283.15
303.148
284.759
285.136
283.15
303.15
303.15
283.148
299.569
294.896
283.15
303.15
303.15
303.15
303.15
289.594
289.643
303.15
303.15
302.391
303.15
301.436
283.946
291.853
303.15
283.15
301.154
303.123
303.15
303.017
301.304
286.8
303.15
303.15
303.15
303.15
293.264
284.14
303.15
302.689
298.033
289.329
303.15
303.15
303.15
303.15
299.52
303.151
303.15
303.15
298.232
302.581
288.323
303.15
303.15
297.716
303.15
303.15
303.15
303.15
288.793
303.15
283.15
283.15
295.909
291.066
303.15
303.15
303.15
296.979
303.146
303.15
303.15
303.15
303.15
303.403
300.863
303.15
287.32
302.638
299.364
303.15
303.15
303.15
303.15
283.15
285.644
303.15
302.845
283.15
302.17
303.15
303.133
303.15
283.15
301.915
285.636
283.15
302.822
303.15
302.412
283.15
303.15
303.15
303.151
303.15
283.269
303.15
290.831
283.15
283.15
303.15
303.15
298.807
302.374
283.15
302.402
283.15
284.088
287.969
302.701
283.15
303.155
302.986
303.134
284.385
283.156
302.981
283.15
283.15
283.156
302.066
302.284
303.15
283.15
283.15
295.267
303.15
283.15
303.15
303.15
303.15
303.108
303.044
302.928
302.442
303.15
302.9
303.15
284.812
303.15
303.15
283.15
303.15
303.11
303.15
283.15
303.15
288.305
303.15
303.15
303.164
283.15
302.815
302.03
296.641
303.15
289.225
294.372
283.773
289.888
283.15
283.15
287.203
284.313
283.15
303.832
283.15
286.407
303.15
283.15
303.156
303.15
303.15
303.011
303.155
303.15
283.15
303.138
303.15
283.15
283.106
298.717
302.698
303.15
301.837
303.15
285.703
303.152
301.17
303.15
303.15
301.033
303.15
303.15
303.15
287.681
303.15
285.139
303.15
303.147
303.15
283.15
283.15
303.15
303.15
303.15
288.695
302.544
303.15
303.15
288.56
286.488
291.171
303.15
302.698
287.664
287.525
303.15
303.15
287.634
283.15
291.875
303.15
303.152
303.149
303.15
300.504
283.15
302.298
283.15
303.15
303.15
303.15
303.15
303.15
284.325
302.242
291.01
303.15
303.15
290.542
303.15
303.15
303.15
303.15
303.15
300.128
303.15
303.15
283.15
299.43
303.15
283.15
303.15
301.356
283.15
299.936
290.809
302.681
299.999
299.413
303.15
303.15
303.15
300.809
288.456
283.15
303.15
300.297
303.15
303.15
291.937
303.15
287.466
303.15
297.797
284.305
303.15
283.15
303.15
303.15
303.15
285.23
303.15
300.47
303.15
303.15
299.677
283.15
284.743
303.15
303.15
288.081
301.527
296.391
303.15
303.15
303.15
301.544
292.255
303.15
283.15
303.15
300.649
303.15
284.766
296.27
303.15
303.15
301.12
303.15
303.15
283.15
303.15
283.15
294.522
303.15
283.15
303.15
303.15
303.15
303.15
303.15
303.15
283.15
301.493
283.15
302.069
303.15
303.15
296.039
300.457
303.15
283.15
303.15
300.864
283.15
303.15
303.15
303.15
300.716
303.15
297.636
303.15
285.815
283.15
286.721
303.15
303.15
298.474
283.15
303.15
287.834
283.244
303.15
303.15
285.063
283.842
300.834
301.719
301.169
293.127
301.725
283.841
303.15
297.671
283.15
283.15
303.15
303.15
303.15
301.191
303.15
303.15
303.15
303.129
283.169
283.15
283.554
303.15
302.005
283.15
303.142
296.066
283.15
294.545
303.15
303.15
283.15
299.863
283.922
303.15
283.15
299.889
303.15
297.63
303.15
295.275
303.15
283.15
303.15
283.15
299.398
283.15
283.225
283.15
286.189
303.15
303.15
283.15
283.15
303.15
303.15
303.15
303.15
284.87
284.722
283.15
303.15
283.232
283.15
283.15
303.154
289.837
283.533
283.15
301.483
284.859
300.447
288.146
303.15
303.15
303.15
303.15
283.15
283.15
283.15
303.15
283.15
283.15
303.15
283.15
297.255
283.15
303.15
283.15
303.15
303.15
283.297
283.15
303.15
301.934
303.149
303.15
303.15
303.15
288.705
283.15
303.15
303.149
283.15
303.15
303.15
303.15
295.221
283.15
283.18
303.15
303.15
303.15
303.15
303.15
303.149
303.147
284.093
303.15
283.15
303.15
303.149
303.15
303.148
303.149
283.15
283.15
283.15
303.15
303.15
283.15
303.149
283.15
287.691
283.15
301.799
283.15
303.154
303.15
284.6
283.15
284.443
297.345
303.15
284.684
303.173
303.15
297.353
283.15
303.15
303.15
303.15
303.15
283.15
303.15
303.15
299.126
283.15
303.15
303.15
303.15
303.15
292.298
290.269
303.17
283.165
303.15
301.799
302.305
303.15
283.15
283.15
303.15
303.15
303.15
283.15
283.15
283.819
303.15
303.15
303.198
303.151
283.15
288.824
303.15
283.15
303.15
288.058
303.15
283.15
302.107
283.15
283.15
283.15
303.15
299.653
303.15
303.15
303.15
283.15
284.497
293.578
295.182
289.512
303.119
303.016
283.15
283.15
301.002
283.691
283.15
303.149
303.15
303.15
283.15
294.524
303.15
283.15
302.976
303.15
303.15
283.791
303.15
303.15
288.384
289.517
303.15
283.15
303.15
283.15
303.15
303.15
303.15
303.15
283.943
303.15
303.15
303.15
302.925
303.15
303.15
283.15
283.15
283.15
283.15
302.938
283.15
283.15
300.946
303.15
284.762
284.921
303.15
301.105
303.15
283.15
303.15
283.15
283.15
303.15
303.15
303.15
302.655
303.15
303.15
303.15
283.15
303.15
283.15
286.356
303.15
303.15
291.588
303.15
283.15
283.15
302.409
303.15
303.147
283.15
303.189
286.635
283.15
283.15
299.176
283.15
283.15
303.045
303.161
293.299
303.167
303.151
303.152
283.15
283.15
302.638
283.45
285.805
300.825
283.157
283.15
291.02
301.551
301.448
283.15
300.194
290.677
300.124
302.193
302.735
284.674
295.448
299.181
286.242
293.265
300.08
303.15
297.938
297.532
302.784
283.654
292.321
301.125
287.316
303.15
301.028
303.15
300.701
301.478
283.629
284.961
303.15
283.15
302.272
301.672
283.146
303.173
288.531
302.67
301.811
300.803
303.15
303.233
301.1
295.026
300.408
288.901
302.906
301.621
302.181
302.261
284.203
302.494
301.574
283.179
303.15
302.891
303.15
303.15
302.085
301.99
294.229
303.15
284.654
292.277
292.31
300.867
303.15
284
285.174
284.382
303.15
298.746
303.15
296.351
295.342
300.728
303.142
303.15
303.15
301.928
301.243
302.779
303.15
292.588
302.739
289.922
283.15
298.327
293.963
303.15
300.491
283.15
283.203
283.15
302.564
303.095
303.15
302.978
298.354
283.148
300.481
302.211
295.302
283.533
295.817
297.031
283.457
303.133
284.721
296.3
283.317
296.819
300.481
300.224
300.329
301.99
289.753
301.557
303.15
302.712
302.641
302.644
296.48
302.879
283.15
302.001
293.411
303.15
283.432
286.825
301.176
302.592
290.501
284.809
287.681
302.617
296.345
303.15
303.15
294.977
283.15
292.647
283.429
303.15
290.544
290.286
283.906
303.15
297.261
298.475
284.215
301.216
294.151
290.155
300.517
303.106
303.15
303.15
283.523
302.603
283.348
285.772
303.15
303.015
303.035
303.15
285.404
300.782
297.814
283.245
299.54
302.363
300.488
286.874
283.15
303.105
301.805
283.731
283.136
303.15
303.071
303.15
303.15
284.169
302.52
296.353
283.035
283.153
303.15
283.15
302.946
303.042
302.494
301.391
303.15
283.15
283.15
301.803
301.86
283.213
295.857
303.15
303.15
301.599
285.473
283.257
301.662
301.764
301.713
284.401
303.15
283.15
298.442
297.73
303.15
302.697
302.071
284.675
284.955
302.101
303.052
303.15
298.11
284.424
283.15
303.15
300.564
301.194
302.003
289.585
302.063
285.638
300.117
300.261
290.321
297.499
303.15
303.15
300.914
284.45
302.081
283.151
300.48
301.695
283.618
288.286
302.413
283.15
283.15
283.028
303.15
303.15
299.914
298.919
302.278
283.147
283.15
283.926
283.151
283.15
283.151
303.074
300.911
299.147
295.847
283.366
303.096
300.112
303.15
283.15
302.549
289.209
300.763
292.68
283.501
303.059
283.148
283.15
302.833
301.187
302.608
283.155
291.251
284.86
303.15
284.252
301.022
283.15
283.308
284.925
284.131
283.15
283.15
301.62
283.15
289.345
302.521
302.699
301.768
283.479
298.238
289.969
283.15
303.348
292.059
283.15
283.15
283.15
303.15
301.19
302.406
299.149
301.452
299.902
288.834
283.154
290.969
290.144
303.058
291.052
299.964
292.046
283.15
286.289
301.066
301.531
283.15
283.969
299.618
283.15
303.15
283.187
301.264
303.15
284.014
302.251
303.018
303.15
283.15
292.772
303.153
301.679
283.15
283.15
283.15
302.187
297.538
303.143
302.185
303.167
303.15
288.357
303.167
290.423
300.205
300.165
296.567
283.156
301.686
283.15
290.57
301.395
289.429
290.47
298.954
300.671
301.581
287.161
291.125
285.006
283.172
302.208
286.122
283.149
283.144
300.188
283.079
300.279
286.977
296.038
299.408
289.173
299.25
283.121
299.123
283.15
289.982
288.976
298.641
283.328
283.15
300.554
283.15
302.796
283.15
303.15
286.477
286.477
283.15
298.963
298.543
287.027
303.15
303.15
301.718
289.773
302.993
283.721
301.562
287.067
303.147
284.187
288.18
303.15
301.411
283.15
283.15
287.55
287.01
283.145
285.235
301.481
286.227
301.168
303.15
285.095
301.733
291.176
303.15
303.15
301.604
302.036
303.15
293.007
294.261
283.675
296.367
286.777
289.994
303.15
302.766
296.984
285.001
283.15
287.711
291.898
299.628
283.163
283.743
282.948
301.938
303.115
283.151
303.133
303.15
300.551
293.041
298.789
293.805
283.15
291.922
295.949
285.584
283.21
291.473
283.15
300.255
303.164
292.515
284.092
303.144
291.833
298.587
288.214
300.339
291.314
287.302
283.15
303.142
285.34
289.864
293.454
283.15
283.15
283.15
303.141
283.15
283.137
286.417
303.15
283.15
303.167
283.172
291.096
288.899
303.541
302.909
289.837
303.15
296.949
303.177
301.991
287.244
283.15
292.894
303.145
303.093
286.176
283.15
283.15
283.473
286.001
303.053
303.143
287.504
289.462
283.479
283.162
289.834
293.194
303.15
283.15
303.095
303.15
302.323
285.004
302.33
303.092
284.05
283.766
284.028
302.849
302.172
297.374
293.966
303.069
291.252
291.012
303.15
303.097
302.576
285.423
283.376
303.15
285.93
283.383
302.928
301.659
302.165
283.15
300.312
301.837
303.15
302.145
285.402
303.15
297.868
303.15
283.15
300.661
302.678
286.321
302.481
283.15
285.153
303.009
283.15
302.299
285.366
294.852
284.334
303.15
303.015
302.87
286.494
283.15
287.108
284.243
289.762
285.716
302.24
303.15
283.15
283.15
293.109
283.15
301.033
302.15
290.344
283.15
294.002
283.15
303.15
283.15
300.044
298.528
283.151
285.263
301.713
303.069
303.156
291.807
294.156
301.183
283.207
301.787
283.145
303.15
303.142
298.995
283.15
300.769
294.729
303.15
300.93
287.295
301.94
284.886
288.182
283.15
302.21
287.714
298.384
303.074
283.15
303.15
291.619
302.149
283.077
283.147
286.72
298.306
303.149
284.472
301.008
300.979
301.235
303.153
299.86
287.627
284.913
301.564
299.864
283.722
283.104
303.16
303.149
303.15
297.31
283.163
283.15
303.15
303.149
289.881
298.886
300.256
287.762
302.796
303.15
286.413
301.537
303.15
300.938
283.792
301.437
303.15
284.527
301.367
295.484
302.76
303.15
303.15
285.16
295.015
296.326
287.354
303.15
303.15
283.15
287.191
302.392
296.114
303.15
285.531
303.15
303.15
300.434
288.688
283.15
295.497
295.824
299.045
283.15
303.15
292.637
287.201
303.15
297.904
300.467
300.373
303.15
303.15
303.15
300.18
298.278
302.794
299.846
283.15
292.85
287.642
290.55
300.54
303.15
303.15
300.72
303.095
286.53
296.05
303.15
303.147
283.15
286.414
298.873
285.561
303.15
303.15
283.338
303.121
303.15
303.15
283.15
290.487
303.15
303.15
284.561
299.251
283.15
303.15
284.609
301.297
300.129
286.961
294.904
303.15
283.49
303.15
303.15
283.311
300.499
290.364
300.361
303.15
303.129
302.165
292.579
299.759
301.333
284.44
283.45
300.818
298.338
303.15
302.742
284.119
299.685
301.35
287.651
303.15
297.378
301.379
301.466
301.506
292.85
303.15
283.15
299.15
283.15
283.15
287.724
283.15
283.996
283.15
283.15
283.15
283.15
302.748
288.116
302.695
283.15
295.636
290.899
284.716
283.15
303.15
302.669
301.719
303.161
302.627
283.15
294.744
300.224
290.13
283.15
283.15
299.78
285.915
283.15
283.15
303.149
290.525
283.15
287.109
303.149
303.152
284.302
283.15
288.154
292.304
300.768
294.554
302.954
285.593
302.489
295.196
286.242
283.15
283.531
291.572
303.071
289.071
302.647
283.15
292.328
287.72
300.998
301.238
284.868
303.104
284.881
297.007
302.98
303.146
285.112
303.145
303.002
293.252
302.668
283.15
303.15
303.15
294.707
290.986
283.155
301.069
284.669
284.141
284.598
303.145
288.316
300.42
283.15
283.15
302.494
303.15
294.506
302.895
303.182
299.771
303.223
302.877
283.15
301.256
302.873
283.15
303.15
301.285
303.15
284.29
298.711
283.163
291.491
283.15
287.55
303.009
299.702
283.15
303.021
290.863
301.166
303.125
303.077
283.15
283.15
301.917
301.978
283.79
302.803
302.403
302.357
303.141
283.15
293.654
283.15
302.78
287.827
302.984
303.15
283.15
302.813
285.088
291.434
302.023
283.15
302.573
301.97
301.537
302.472
303.043
303.211
303.007
303.15
283.15
301.49
297.765
303.086
303.15
289.877
284.848
303.15
283.15
285.279
303.184
303.165
302.914
301.104
284.247
303.096
290.62
294.17
303.148
288.988
303.164
283.15
289.788
283.15
299.915
298.065
284.753
288.127
299.569
296.61
295.231
299.12
293.703
303.154
293.772
296.317
283.161
299.332
293.798
303.15
298.851
299.086
303.15
291.117
303.172
301.651
303.15
286.89
285.998
302.793
289.624
283.15
283.15
300.316
301.109
283.71
283.15
303.15
300.183
302.303
300.575
299.816
302.778
292.521
289.591
286.596
292.435
284.294
290.349
283.302
295.645
290.379
293.88
287.038
284.264
303.163
283.27
303.148
285.575
300.681
283.151
300.361
298.343
288.695
302.08
285.369
299.021
283.15
302.948
283.154
283.117
287.605
299.61
303.15
300.314
303.016
299.881
302.753
303.15
301.224
284.938
294.855
302.027
303.149
283.702
283.15
290.239
285.217
285.73
303.127
303.148
283.15
283.15
283.176
303.15
293.414
303.15
303.148
294.144
303.432
303.15
300.386
303.15
303.15
293.619
290.551
303.15
289.784
302.036
289.511
303.15
303.15
285.9
283.331
290.266
303.226
303.15
303.145
285.448
283.242
283.15
288.927
287.548
303.15
284.29
303.15
303.15
303.132
287.298
303.15
303.147
283.275
303.152
302.653
287.875
283.152
283.593
297.277
290.69
303.15
285.906
284.409
301.294
287.068
302.192
290.533
293.792
303.15
303.15
283.999
303.147
302.941
295.817
302.937
302.733
287.13
283.15
285.286
283.217
297.065
302.574
285.351
303.15
283.782
286.684
303.124
283.175
303.15
286.346
283.15
300.084
303.15
299.676
299.834
283.251
283.356
302.31
290.77
301.306
303.15
301.365
301.718
303.15
303.15
298.275
293.343
283.15
288.717
303.15
295.165
283.353
303.15
296.832
298.655
288.939
303.15
302.749
294.137
295.299
284.451
303.161
298.615
296.042
283.967
303.122
302.794
287.328
298.364
289.766
290.74
289.691
283.15
302.938
303.152
303.15
303.176
293.002
296.23
302.972
301.259
303.15
284.435
303.15
303.039
302.851
303.15
293.476
296.171
303.15
285.353
303.094
303.15
303.088
303.158
286.035
293.264
291.052
288.361
293.344
303.15
301.17
291.34
295.289
293.398
303.141
303.15
300.516
303.189
284.229
303.19
303.15
303.15
303.143
303.15
284.917
303.15
284.206
303.146
303.15
290.16
303.144
292.414
295.448
303.133
295.25
285.962
283.442
303.124
302.931
284.656
283.15
297.044
303.15
285.478
302.907
302.015
303.015
298.365
287.015
303.15
298.635
289.853
299.293
283.15
283.606
303.15
303.145
303.19
294.004
303.15
292.368
289.286
303.195
303.15
284.766
298.691
293.155
299.524
302.46
301.565
300.333
303.15
284.699
296.893
302.351
285.554
298.294
292.218
284.448
291.571
303.15
286.597
291.758
290.08
299.38
303.15
286.421
284.074
303.15
302.411
288.099
302.084
283.15
303.15
299.777
301.666
288.94
301.959
301.892
301.783
303.15
289.258
285.108
301.937
302.216
297.074
303.15
283.2
303.15
301.959
303.15
302.789
303.15
291.607
303.15
296.428
283.15
289.377
303.15
283.15
292.137
301.406
300.361
289.15
300.441
303.15
302.48
303.15
302.354
285.183
303.15
300.348
290.337
303.15
300.756
303.15
303.15
293.126
283.15
285.524
293.155
300.875
303.15
291.105
293.779
288.134
289.609
288.07
299.169
300.224
300.746
287.328
287.065
301.216