/*--------------------------------*- C++ -*----------------------------------*\
  =========                 |
  \\      /  F ield         | OpenFOAM: The Open Source CFD Toolbox
   \\    /   O peration     | Website:  https://openfoam.org
    \\  /    A nd           | Version:  10
     \\/     M anipulation  |
\*---------------------------------------------------------------------------*/
FoamFile
{
    format      ascii;
    class       volScalarField;
    location    "24";
    object      SgP;
}
// * * * * * * * * * * * * * * * * * * * * * * * * * * * * * * * * * * * * * //

dimensions      [1 -1 -3 -1 0 0 0];

internalField   nonuniform List<scalar> 
59698
(
0.00309502
0.00189673
0.00239374
0.00281248
1.14444e-06
0.00145199
0.00257999
1.11315e-07
1.99053e-09
3.90918e-09
0.000586479
1.6724e-09
1.5813e-09
0.00237229
2.79324e-08
4.26304e-07
9.98589e-09
3.98832e-09
1.84582e-09
6.2285e-10
0.000365327
1.56154e-06
0.000499507
8.81908e-08
1.97812e-07
1.03864e-09
9.69194e-10
0.00252268
0.00239318
2.17754e-09
1.35604e-07
0.000600686
6.67438e-08
0.00403456
1.10699e-06
3.94279e-09
0.000464822
5.04792e-07
1.76625e-08
0.00245295
3.1679e-08
2.30454e-07
2.48358e-08
2.29571e-08
0.000402108
1.04762e-07
2.2032e-09
5.25468e-08
0.00302701
3.3359e-08
5.62857e-10
1.89403e-09
0.00178289
0.00284252
0.0021681
2.03866e-09
8.67498e-08
1.54615e-08
1.63425e-08
2.7612e-05
0.00183395
6.33351e-08
1.98535e-07
1.54685e-09
4.98268e-07
4.25639e-08
1.74986e-09
3.2129e-09
4.31691e-09
6.78131e-09
6.0774e-07
3.1514e-08
0.000360143
1.57315e-06
0.000411959
1.09823e-06
2.50282e-08
2.19392e-08
5.96329e-09
9.29395e-09
4.78178e-07
9.13139e-10
3.9816e-09
9.76453e-09
1.69049e-05
3.33999e-08
9.04541e-09
2.30444e-07
2.34261e-06
2.33995e-08
4.51473e-09
6.62098e-08
1.72671e-07
6.81944e-09
6.28267e-08
0.00372028
1.361e-07
6.05472e-08
5.0766e-08
8.58933e-10
0.00353767
2.0812e-05
2.95303e-07
0.00329216
5.2885e-08
0.000564778
2.70902e-09
2.22597e-09
2.66738e-09
4.40775e-10
3.74996e-08
2.72459e-06
1.34995e-06
1.56286e-07
1.00341e-07
3.43354e-08
3.59034e-07
0.00366014
3.11086e-07
1.14722e-08
2.26746e-09
3.0629e-07
2.19406e-07
3.16677e-09
2.03615e-09
8.224e-09
8.18214e-09
7.19986e-09
1.31504e-08
3.97467e-07
0.00335594
3.79939e-09
1.10949e-09
1.8703e-07
6.48764e-08
3.3985e-09
5.06865e-07
2.26981e-10
1.70141e-09
5.06764e-09
2.12531e-08
0.00240477
0.00258744
1.78213e-09
1.95936e-07
6.22242e-10
5.53061e-07
3.95213e-07
0.00465011
7.05523e-07
0.00025729
0.000434378
2.77972e-08
2.62359e-07
6.49112e-09
1.06137e-07
6.79848e-09
0.00168932
6.71486e-08
6.02555e-10
3.17141e-09
7.82474e-09
2.20695e-08
9.66859e-08
1.87868e-08
0.00222884
1.02799e-09
0.000566851
0.00152534
6.56534e-09
2.55867e-07
1.45397e-06
2.18089e-07
9.27366e-07
5.76165e-07
0.00126186
4.38357e-09
0.00139564
0.000326015
0.00293225
2.25702e-06
7.43183e-07
4.00042e-07
1.16303e-08
2.50624e-07
6.91088e-08
3.70533e-07
0.00247263
1.09448e-10
1.64307e-08
6.4716e-09
7.14563e-09
2.31553e-08
6.04842e-07
1.22009e-07
0.00432348
1.73325e-06
0.00294463
1.26553e-05
9.04967e-08
0.000227097
6.75543e-07
1.53287e-09
2.38785e-09
0.00356804
0.00251236
3.56302e-08
0.00214674
0.00270808
0.00350351
0.00251035
5.99731e-09
0.00262745
1.56825e-08
2.40849e-09
0.0034899
9.67663e-09
4.71956e-08
1.54783e-07
4.8512e-09
1.37428e-05
0.00227591
1.72826e-09
5.09869e-07
8.41658e-09
0.00274684
2.19011e-08
5.29829e-09
4.85625e-08
6.85061e-07
7.57267e-09
1.98514e-08
6.60564e-09
1.16516e-08
9.69573e-09
8.95885e-09
3.08206e-07
2.01487e-08
1.82245e-07
8.56949e-09
0.00270336
1.19001e-07
3.4418e-08
0.000664542
8.59449e-09
2.199e-07
2.29559e-05
3.48271e-06
3.50102e-09
5.14535e-09
5.94875e-08
6.16852e-09
3.13359e-08
0.000233554
1.88728e-08
0.00176931
1.08974e-07
5.70171e-08
0.00325237
2.32485e-09
7.34077e-06
1.80535e-09
7.2164e-09
0.00282202
0.00373551
8.58258e-07
1.16905e-09
1.07348e-07
2.03936e-08
5.65447e-10
3.02287e-09
1.53587e-06
6.89731e-05
6.03332e-10
1.25122e-07
5.10181e-08
0.00151571
3.92344e-08
2.8914e-09
1.22406e-09
0.000574137
2.15744e-09
1.61509e-09
4.69521e-07
0.00334939
1.02592e-07
4.35468e-09
0.000647596
3.82021e-07
1.07282e-07
2.67884e-06
0.00239114
9.277e-09
1.38469e-09
7.26299e-07
0.00283272
7.43364e-10
1.63014e-07
1.48706e-08
6.59151e-07
3.02076e-09
2.28273e-09
6.86641e-08
7.53937e-10
1.00572e-09
1.21006e-09
3.61535e-07
2.27467e-08
5.52636e-09
3.7842e-10
0.00196546
4.48275e-08
4.24541e-09
2.37995e-08
0.00198603
4.92345e-09
0.00040339
8.51813e-09
0.000829308
9.0804e-08
9.71896e-08
3.18562e-07
1.69729e-08
2.97548e-09
1.5682e-06
2.54229e-07
1.62675e-08
9.99581e-09
5.68041e-10
0.000361923
0.00289887
4.11274e-08
3.58137e-07
2.45091e-06
0.000430953
1.05108e-08
7.82004e-09
4.07698e-09
1.39994e-07
0.00126715
2.20631e-08
0.00215301
0.00259025
5.15379e-09
9.97557e-08
1.19903e-09
4.17905e-10
1.24753e-06
1.5457e-09
0.00207712
9.44135e-10
1.25179e-08
1.23279e-06
7.95398e-10
9.5142e-07
0.00191651
2.75215e-06
1.43879e-08
3.24473e-08
1.82655e-09
2.2118e-08
1.04459e-08
1.10533e-07
3.55106e-09
1.43298e-10
1.04128e-07
0.00289804
0.00206898
2.97182e-08
9.86911e-07
1.13302e-07
0.000533994
0.0037899
0.000651134
2.22011e-08
2.98976e-09
3.78122e-08
2.26756e-09
0.00046052
2.48715e-09
0.000347124
4.64411e-08
4.40444e-08
5.41727e-08
8.12813e-10
6.76195e-06
1.14349e-08
0.000544826
7.85771e-10
3.62146e-08
2.30604e-08
0.000457507
0.00343421
3.23978e-09
5.36196e-05
0.00179794
3.65078e-06
0.00189296
0.00278877
8.32872e-08
0.00244539
0.0024709
0.00266176
4.94055e-09
0.00153846
0.00433077
0.00383978
0.00276269
6.25878e-09
8.29576e-07
1.87986e-07
0.0004043
0.00171274
0.000434527
4.85575e-10
2.06478e-07
1.95589e-09
2.26997e-06
0.00189706
0.00175669
0.0030441
0.00226076
0.00255706
0.00166513
8.72593e-09
3.30018e-09
7.77229e-09
1.41214e-08
0.00143522
5.64391e-10
8.15187e-09
0.00195919
0.00116516
2.44501e-08
3.70321e-08
1.44142e-08
1.39085e-08
0.00125894
3.73411e-09
0.00211833
1.92333e-07
0.00331122
5.17949e-09
4.53155e-08
1.91973e-07
2.03509e-06
8.72841e-08
4.5253e-10
2.25618e-09
1.28803e-07
0.00263015
6.26857e-09
7.38019e-08
1.96833e-06
6.4087e-07
1.16637e-07
3.41368e-07
1.40532e-09
1.15252e-06
1.71105e-07
6.12642e-08
4.44038e-09
0.0032081
6.36948e-09
2.20259e-09
2.13444e-07
3.57724e-07
9.74819e-09
4.52649e-08
6.84889e-09
0.00257949
4.42145e-09
2.01576e-10
6.86069e-09
6.36605e-08
2.10699e-06
8.19388e-07
2.18974e-09
0.00312
0.00202048
2.41617e-08
2.22013e-07
1.46305e-08
1.95028e-08
2.52726e-07
4.02903e-08
4.54312e-08
1.96388e-08
1.67453e-09
1.7432e-09
2.49575e-07
4.04669e-07
3.83123e-10
4.3275e-08
0.00402079
2.20545e-07
1.58676e-08
0.00245559
3.76475e-08
0.000365618
9.74042e-10
1.18729e-07
2.03906e-07
1.21848e-08
1.71086e-08
1.12222e-09
8.37747e-08
2.17809e-09
4.94419e-09
8.51238e-09
5.8489e-09
7.94217e-09
1.35401e-06
5.41922e-08
1.66712e-08
2.46327e-09
6.87155e-09
9.51086e-09
7.04655e-08
2.48704e-08
1.76413e-08
3.65939e-09
4.7789e-09
3.86224e-09
2.18735e-09
6.31759e-06
3.44112e-08
2.0723e-09
0.00347562
0.00377975
2.9229e-09
0.00385027
1.8278e-08
4.7609e-09
0.00150527
3.56504e-10
1.35522e-08
0.00178817
2.06811e-09
0.000384873
4.43118e-08
2.29098e-09
4.46944e-08
2.99011e-06
1.47908e-08
5.66433e-09
8.9312e-06
0.000167066
1.82847e-08
7.42477e-06
1.8329e-08
2.2809e-09
3.12631e-08
1.91439e-09
5.30986e-09
1.42653e-08
1.91466e-08
1.57643e-08
2.65222e-09
2.38366e-09
0.0007685
1.72126e-09
1.56706e-08
1.00599e-05
1.50001e-08
1.81327e-09
1.21322e-06
2.24617e-08
1.01936e-08
0.000539255
7.70463e-10
7.98032e-09
1.97029e-07
2.29238e-09
4.21646e-08
1.01027e-09
2.42761e-10
5.36513e-10
0.00209127
2.30985e-09
0.000732639
4.14443e-08
0.00320752
1.45509e-08
4.95722e-09
0.000313347
1.27506e-09
1.23999e-08
1.79085e-08
1.87211e-08
2.37633e-09
0.00331543
7.7932e-09
1.59992e-08
8.51629e-10
4.13882e-08
9.25369e-07
0.00264906
0.000349776
7.1575e-09
8.34405e-09
1.49682e-09
2.88875e-09
0.00350059
1.59594e-08
5.37227e-09
2.24473e-09
0.00108764
0.00395638
1.45928e-08
1.20949e-08
1.14412e-09
1.04074e-08
4.7214e-09
3.21891e-09
4.85634e-09
4.67688e-09
3.60525e-08
7.84632e-05
6.78091e-09
5.0401e-09
6.93782e-09
1.72791e-08
2.53959e-05
0.00252427
1.15223e-08
0.00269257
2.34642e-09
9.0365e-09
4.66769e-09
0.00281264
0.000211251
1.3465e-09
9.49509e-09
9.36757e-10
2.98696e-08
1.37774e-08
2.74618e-09
0.00157024
0.00323661
1.31555e-07
1.65539e-07
0.000607907
1.44945e-09
5.37948e-09
1.60865e-09
4.25013e-07
0.00218772
3.65107e-08
1.73522e-09
0.000439476
7.79992e-09
3.27959e-08
4.30999e-09
2.08651e-09
4.44151e-09
8.23307e-10
7.57629e-06
1.03957e-09
0.00188043
5.1281e-08
1.14885e-07
7.10651e-09
1.54595e-06
3.46998e-06
5.72085e-09
2.24293e-08
0.00239448
0.00320957
7.3043e-08
3.86852e-09
7.85689e-07
1.82053e-09
0.00356633
3.19089e-10
1.69991e-08
0.000428465
0.00266465
4.32051e-09
1.49931e-09
2.04181e-07
6.13078e-07
3.53434e-07
0.000378103
0.00143865
1.26968e-10
6.05215e-09
1.06634e-09
4.68968e-09
0.00277511
2.75283e-08
0.00303036
1.07224e-08
0.00135432
0.00215103
0.00245374
6.44051e-08
3.68875e-09
0.000650618
1.19067e-09
2.28638e-10
9.85711e-10
4.85932e-09
1.83813e-08
5.16995e-09
1.49413e-09
9.18388e-08
6.91288e-08
8.55092e-09
2.72174e-09
0.00192803
4.17915e-08
3.71473e-08
0.00036217
9.53944e-09
3.53925e-08
3.87864e-08
1.89521e-09
1.39261e-09
0.000646941
0.00196294
0.00246937
3.72705e-09
9.32845e-09
6.82685e-09
1.63409e-07
0.00194545
1.32965e-09
5.6813e-07
2.61726e-08
1.32296e-05
0.000344565
0.00169858
2.25639e-07
1.48074e-07
2.24001e-08
0.00444698
0.00053217
1.91842e-08
8.94944e-07
3.92509e-09
7.13618e-08
3.43394e-06
0.00243336
2.58365e-08
1.28063e-07
1.00643e-07
1.59314e-05
2.45071e-08
0.00185609
1.87262e-09
5.17036e-08
1.19144e-08
0.00213088
6.98433e-10
5.72232e-09
2.07771e-07
4.4913e-06
0.000599781
1.14116e-07
7.00323e-08
0.000383644
4.22563e-08
2.53984e-09
0.00196673
0.00222445
5.58628e-09
8.68399e-09
0.000401567
9.98855e-09
1.7481e-08
0.000373922
3.51048e-10
0.00273914
2.47525e-09
1.95317e-08
1.88439e-07
4.18012e-09
3.96783e-08
3.5825e-08
5.00454e-05
3.75452e-09
6.146e-09
7.23644e-09
1.15425e-08
1.01801e-07
1.49421e-08
0.000326091
6.79173e-09
2.03782e-08
0.00145238
5.73197e-08
9.82959e-08
8.96383e-06
0.00193644
2.39981e-06
0.000541443
6.88236e-09
0.000383126
1.22868e-08
2.89982e-09
1.61241e-09
0.00324292
3.9548e-07
3.25427e-08
7.12154e-05
6.35856e-08
0.00162563
1.70477e-07
9.8408e-06
3.5424e-09
0.00100439
3.33414e-09
0.00130356
5.37494e-05
2.44386e-07
0.000651795
0.0018534
1.22715e-06
1.10328e-05
3.72536e-09
1.13162e-06
2.6029e-08
4.09007e-05
0.000444809
0.000428775
0.00216535
3.43051e-08
3.20149e-08
0.000561237
4.79239e-08
0.00235242
6.3445e-10
0.000401154
2.36915e-09
2.90491e-09
2.93977e-05
0.000503639
0.000206233
0.000108546
7.69393e-09
5.0723e-09
1.88478e-09
0.000487227
2.11944e-09
0.00360742
0.00489625
3.03709e-09
0.000499716
2.14264e-09
1.036e-09
2.93513e-09
3.26352e-06
0.000469635
2.8209e-09
1.29915e-09
1.05299e-06
4.46742e-09
1.12584e-07
3.83632e-09
3.07219e-09
8.82945e-08
2.63806e-07
3.11544e-08
1.06666e-08
0.000532568
7.25548e-10
0.000127648
2.70125e-10
2.48057e-09
0.00128093
1.51329e-09
7.75242e-06
8.98261e-08
7.81284e-09
0.000108824
1.27808e-08
0.00161947
2.78602e-08
4.65667e-10
0.00180016
6.055e-09
1.00114e-08
0.00030713
1.24511e-09
0.00212798
1.77978e-08
1.72324e-09
0.00438543
3.05452e-09
3.39258e-09
1.46039e-08
1.66482e-08
0.000319936
4.11531e-09
6.08414e-09
1.68609e-07
0.00188875
0.000633464
0.000584033
2.28421e-08
3.74414e-09
0.000379941
0.00244942
5.164e-09
8.57659e-09
5.84298e-08
1.1906e-08
3.49049e-09
2.53843e-08
0.000412253
0.00149902
0.00271534
1.49205e-07
2.03755e-09
0.00276051
0.0041446
0.00538486
5.05674e-08
1.84233e-08
1.64116e-07
4.41058e-07
1.84802e-08
2.3068e-08
7.86952e-07
2.87146e-08
7.66518e-09
8.588e-09
1.35173e-06
7.19378e-08
7.38308e-09
0.00260125
1.66959e-09
5.99685e-08
1.91643e-08
2.91254e-08
6.62009e-09
3.93179e-10
0.000761137
1.93543e-08
3.39466e-09
0.00198359
1.90951e-08
2.45375e-08
0.00328251
2.95713e-08
3.34161e-07
5.72719e-09
2.0512e-08
2.47203e-08
0.000825993
2.8326e-08
0.00227394
1.91046e-07
2.04714e-07
3.60973e-08
0.00552536
0.000295149
4.40308e-09
5.40851e-09
1.02637e-06
1.44981e-09
1.24982e-08
8.73066e-09
0.00174277
6.5391e-10
1.55034e-09
7.42071e-09
2.64329e-09
3.60485e-08
2.38152e-08
7.53696e-09
0.000429221
0.00228939
0.000466222
6.34244e-08
0.0032326
0.00256261
5.62553e-08
2.14494e-09
0.0019151
6.44195e-06
0.0016248
0.0021695
0.00212299
3.36516e-09
5.94497e-08
0.00248449
2.18037e-07
3.36544e-08
1.89794e-07
2.48254e-08
0.00044372
2.28321e-08
0.00053842
1.704e-05
2.54186e-08
0.00196226
1.4983e-08
0.000608724
6.87172e-09
1.6165e-08
6.85087e-10
3.3355e-08
0.00159
0.00377228
1.28043e-09
0.000395621
0.00196084
0.00140283
0.00278168
5.67222e-10
5.11553e-09
9.59732e-10
0.0035543
1.0781e-09
1.33626e-07
0.00356038
6.26106e-09
0.00359874
0.00351609
0.00378852
1.55005e-08
5.96637e-08
4.75355e-08
9.38757e-09
1.12702e-08
6.1495e-08
1.29274e-08
5.73392e-09
0.000475231
3.94671e-09
3.87782e-08
2.89423e-07
5.18784e-10
0.00168309
3.13462e-08
4.36327e-09
6.21263e-08
2.78551e-10
6.9838e-08
3.6882e-09
2.03067e-07
0.00319575
3.09799e-05
8.52359e-10
1.56175e-08
0.00217491
0.0031569
1.78491e-07
0.00076061
9.75355e-09
8.41241e-09
0.00269074
2.57555e-08
0.0032363
0.000542245
1.04617e-09
7.4747e-08
0.000765799
1.98496e-08
2.2645e-08
0.00260234
7.2422e-09
1.1308e-08
3.12245e-09
0.000534595
3.14234e-06
0.00200689
1.82739e-07
9.41277e-09
0.0018211
1.32945e-07
2.54045e-10
5.97299e-06
3.11144e-09
7.20186e-07
0.00133359
1.94496e-09
8.29764e-10
1.16737e-08
6.1956e-09
1.54791e-08
6.37492e-09
1.24691e-08
1.03717e-06
9.41481e-10
1.36841e-09
0.00176196
4.7541e-09
5.42497e-06
2.9514e-08
6.2121e-06
1.30545e-06
1.21543e-06
5.35173e-06
1.25865e-06
5.15215e-09
1.75361e-08
0.00100315
2.97059e-06
2.54882e-08
2.30226e-08
2.53489e-08
0.000449091
1.36836e-06
7.89917e-08
2.2891e-07
3.88028e-09
0.00226326
5.76934e-09
1.26438e-08
2.10332e-08
1.26437e-08
2.99268e-08
0.00212663
5.63799e-08
2.51877e-08
1.97693e-08
5.34287e-09
0.000477736
2.24819e-09
4.96094e-09
3.36599e-08
2.50257e-10
1.55871e-09
6.89215e-09
1.0134e-08
1.37168e-08
0.000334154
1.20466e-08
1.37442e-08
2.56114e-09
2.00369e-08
1.19687e-08
1.01236e-08
6.09741e-08
0.000380629
0.0025048
1.56714e-08
8.71418e-09
0.00291562
1.65401e-09
4.30497e-05
0.00203005
4.86284e-09
7.57496e-07
1.5313e-06
0.00186524
2.28505e-08
3.17018e-08
2.25788e-07
1.73827e-05
8.68453e-07
2.15132e-07
1.3622e-09
3.7657e-09
4.3447e-07
1.13585e-07
5.92132e-09
1.6045e-09
1.26958e-08
7.54162e-09
3.03808e-06
0.00129371
6.71873e-08
3.69388e-08
5.35154e-08
0.00277731
0.00253915
9.09993e-07
1.59063e-08
3.45051e-08
4.17248e-08
4.61204e-09
2.89775e-09
1.86892e-07
4.22337e-09
3.67318e-08
1.87056e-09
1.15763e-08
2.37871e-08
3.10579e-09
4.15204e-07
2.66602e-09
0.00043443
9.73464e-08
0.00407051
0.00168649
1.1631e-07
2.14724e-08
0.000579702
0.00034517
2.75624e-08
2.36161e-08
9.27818e-06
2.31725e-09
2.04112e-09
2.38439e-08
1.65021e-08
0.000781453
0.000646964
1.0188e-08
1.22433e-08
7.72752e-09
3.43832e-07
5.11586e-08
0.00275964
0.000496408
1.33e-08
0.000238787
7.23053e-09
0.000315409
0.000227754
0.000223586
2.82272e-08
1.04718e-07
1.9349e-09
9.9123e-08
2.68005e-08
0.002474
4.89483e-09
4.2713e-08
6.84723e-09
8.02048e-08
2.27911e-05
0.00203752
0.0023546
2.19015e-08
3.07173e-08
0.000377609
4.22488e-08
1.03638e-06
1.04084e-08
0.00312608
4.42236e-08
2.07466e-08
8.53798e-06
0.00275605
6.85021e-08
2.43442e-08
0.00135068
2.28207e-08
4.6528e-10
1.39143e-09
4.53814e-09
3.32882e-08
1.35486e-08
6.273e-10
2.18633e-08
3.72881e-08
1.00028e-08
6.71226e-08
1.69296e-08
5.75569e-07
0.00198872
3.16815e-09
1.53407e-08
5.48698e-08
0.00200073
8.70817e-07
2.16646e-08
0.000375018
3.08813e-09
2.25157e-07
1.49227e-07
0.000983777
3.61385e-07
3.21125e-10
1.21965e-07
1.39738e-08
1.22681e-07
4.99433e-08
3.23586e-09
1.4864e-07
6.88457e-09
8.93484e-08
7.72458e-10
0.000584266
5.23807e-08
0.00213556
1.33298e-09
5.67325e-08
2.15019e-06
1.0715e-08
4.53939e-06
5.16039e-09
6.63233e-10
2.45894e-07
4.0575e-08
4.78252e-09
1.73007e-05
6.10934e-08
7.6331e-08
0.000547245
3.07992e-09
0.000563699
3.13545e-08
2.23217e-09
7.9169e-09
5.74723e-09
2.0424e-08
4.0903e-07
3.22855e-07
1.51128e-07
0.00246838
2.11832e-07
0.00405405
0.00218049
0.00342768
8.92187e-08
2.12136e-07
0.00143512
3.93366e-09
2.48331e-08
2.90521e-08
0.00236994
9.13562e-09
0.000635586
0.000492204
2.75257e-09
0.00267047
5.04539e-06
0.00274407
1.91467e-08
0.00249806
5.58858e-08
0.000340209
1.62502e-09
4.22551e-09
4.33731e-08
0.000746739
7.7378e-07
4.16687e-10
2.67923e-08
6.34826e-10
0.000532964
0.000313633
5.849e-08
0.00190929
4.5525e-07
0.000544621
3.19123e-08
3.51576e-10
6.26559e-09
3.5357e-09
8.93166e-08
2.04133e-05
4.28121e-09
1.34217e-06
4.75877e-08
4.41098e-08
5.33054e-09
9.87867e-05
2.32239e-07
1.25693e-09
6.39799e-09
0.000432452
1.07424e-06
7.80322e-08
0.00157038
1.75968e-06
1.48774e-06
7.91158e-09
8.79073e-09
4.03657e-09
0.000681375
2.64359e-08
5.6348e-09
1.69831e-08
3.64353e-07
9.98789e-07
2.04211e-07
1.82189e-09
3.19835e-06
6.6889e-07
7.71632e-09
6.00645e-09
5.52126e-06
1.9566e-09
5.47865e-09
0.00246576
0.00229201
6.19442e-08
3.1666e-09
1.11028e-09
3.32987e-08
0.0019299
2.58563e-07
1.3583e-06
6.25536e-10
5.49999e-07
3.28404e-08
0.00112019
0.000444878
6.58047e-07
2.40149e-08
3.43528e-06
5.15617e-07
0.000100674
2.23205e-09
1.87447e-08
0.00118809
2.64736e-08
7.77467e-07
5.89613e-07
2.02705e-06
1.2253e-06
9.02325e-09
0.00162289
1.30948e-05
2.56209e-09
1.21361e-08
4.70188e-09
0.000427672
0.000113641
1.85217e-08
0.000637651
1.23544e-07
7.26698e-05
0.00292294
0.000398954
0.00281978
0.00183696
0.00221777
4.57098e-10
2.79933e-06
8.42572e-08
3.46127e-06
1.49676e-05
2.21307e-06
2.01762e-09
3.98155e-07
1.51114e-08
3.29658e-07
0.000761567
2.86097e-07
9.11662e-10
0.00178436
1.45882e-07
0.000207826
1.90777e-07
4.23114e-07
5.65606e-09
4.01133e-07
2.20555e-07
0.00156893
2.09731e-07
3.58014e-08
1.49781e-07
2.59629e-05
0.00129749
0.00136308
0.00293945
4.84245e-09
0.000502802
0.00155157
0.00175342
0.00149462
2.50052e-07
0.00224533
2.67685e-07
4.25667e-09
4.9848e-09
7.28738e-09
0.00152627
0.00183442
5.61786e-09
1.45773e-08
8.3888e-09
4.22765e-07
0.000298096
0.00375056
0.00140459
8.21138e-08
0.00250636
8.58538e-10
3.60918e-08
0.00112944
0.000804566
5.35595e-09
2.7816e-06
1.25973e-08
6.26398e-09
0.00352013
6.4165e-09
0.000423276
1.17874e-09
0.00037871
0.000405408
0.000581335
0.00198637
3.39488e-07
0.00161729
1.29993e-08
1.17962e-05
0.000460534
0.00124925
0.00224996
0.00109908
7.55316e-09
0.0012462
9.4183e-09
1.60466e-08
0.00292724
1.64016e-07
6.64998e-06
5.63846e-08
5.46494e-08
0.000573415
1.43295e-06
2.74388e-09
1.49272e-07
4.37816e-07
0.000403304
0.00219868
2.82182e-07
8.2764e-09
0.000614694
1.83978e-08
1.65939e-08
5.28338e-08
6.05056e-07
0.00214125
4.27812e-09
0.00241674
8.42423e-10
0.000256114
0.0044438
8.93253e-09
3.03798e-06
0.00254003
4.99627e-05
5.14312e-06
2.46896e-09
0.00177896
0.00284806
5.18742e-10
0.000489098
8.27334e-07
0.00061878
1.54911e-08
8.51849e-07
5.13215e-07
3.52628e-08
7.57037e-11
0.000345758
0.00131399
6.39048e-09
1.17813e-09
0.00218181
1.11179e-08
2.27492e-09
3.48485e-08
1.87703e-09
7.87752e-08
0.00363376
0.00209438
2.34329e-08
5.48044e-10
0.00221161
2.0351e-07
0.0027748
3.16735e-09
1.90487e-06
4.54245e-08
8.22788e-09
2.75023e-09
1.08203e-08
0.00333603
5.05184e-09
2.79553e-07
0.000274724
0.00245706
0.00045309
1.42996e-08
1.17482e-06
2.56674e-09
0.000229197
0.00234482
8.60153e-10
3.75602e-09
3.97809e-08
3.40721e-08
0.00050253
2.73133e-07
0.000529726
1.96724e-07
5.36164e-09
5.868e-11
5.14027e-08
0.000221042
0.000394063
6.2762e-09
0.00394854
0.00252348
9.41135e-09
3.11326e-10
3.50871e-09
8.87852e-09
4.84706e-09
1.81443e-08
0.00275156
0.000620073
0.000514078
7.76217e-05
0.000348265
0.000381681
2.98402e-09
4.26995e-08
1.16688e-09
3.0032e-08
1.88418e-08
0.00234585
1.09621e-08
5.2353e-09
0.00116001
1.73998e-08
8.00467e-08
8.78145e-08
1.87929e-09
8.73439e-08
3.46859e-08
0.00226826
4.84691e-09
1.47183e-08
4.16855e-09
1.43642e-08
2.1354e-08
0.00387074
4.52359e-07
1.1681e-07
7.32115e-08
1.00728e-09
4.49953e-05
1.25298e-06
3.64111e-09
5.77154e-07
1.24999e-05
9.93156e-09
1.15873e-08
1.0338e-05
2.47545e-06
2.50254e-07
0.00317098
3.89905e-09
3.96661e-07
1.48246e-06
0.0029158
2.23853e-07
4.06948e-10
1.92274e-06
1.53941e-05
3.44833e-07
1.01495e-08
1.69188e-07
4.59025e-08
6.61522e-08
1.88055e-08
3.51334e-08
0.00185371
1.83838e-09
1.221e-08
1.13421e-08
6.04614e-10
4.93313e-09
9.31653e-10
0.00421478
1.25537e-07
2.44061e-09
3.34591e-09
3.36511e-09
1.08507e-09
4.96655e-08
5.14128e-09
2.82563e-09
5.59508e-08
1.38172e-08
0.00228385
2.99323e-09
0.000384333
3.47518e-08
1.16473e-07
1.82311e-08
1.21215e-06
1.6239e-09
0.0032827
9.28945e-09
0.00185611
2.97521e-07
4.23093e-08
1.06829e-08
1.82307e-06
2.38081e-09
3.75279e-09
3.12372e-09
0.000259106
0.000626663
0.00213661
1.01569e-07
1.56631e-07
0.00227835
1.72286e-06
5.18629e-09
1.29973e-08
2.98266e-07
1.08203e-08
0.00425447
2.77353e-06
0.00316776
2.64091e-08
7.64235e-09
0.00158817
0.00149254
0.00180523
1.70113e-08
1.47361e-06
0.00194086
1.7284e-09
1.23126e-05
1.56571e-07
0.00183898
0.000459346
1.81059e-07
0.00238507
2.04487e-05
6.21098e-07
0.00206655
0.00224161
1.81249e-08
0.00245163
0.00311785
0.00186884
1.95359e-08
4.37924e-09
6.31201e-09
8.69831e-10
2.8535e-09
0.0016301
0.00284179
0.00182464
3.18346e-09
0.00304545
2.78787e-09
0.00228097
0.00258087
1.05794e-08
3.7423e-08
0.00170893
2.56335e-08
1.29539e-08
3.19454e-07
6.42363e-10
0.00264471
0.00204715
8.30039e-07
0.00163465
4.66728e-09
3.0556e-09
5.99254e-09
3.32978e-08
7.21615e-08
3.22581e-07
1.20613e-09
5.59569e-09
1.51726e-08
6.94142e-09
6.40475e-09
1.08254e-07
3.46989e-10
2.37608e-08
2.11468e-06
1.23428e-08
3.58563e-08
2.78969e-09
1.26903e-07
1.49822e-09
5.18769e-09
2.22244e-07
1.58837e-09
3.04297e-09
0.00194214
3.43588e-08
5.35925e-09
6.74055e-07
2.8139e-09
1.5018e-08
4.86717e-08
0.00185682
9.30908e-08
0.00221011
0.00153889
1.62481e-08
2.12883e-08
5.83012e-08
6.21038e-09
0.00162978
4.76443e-08
2.24224e-07
3.6572e-07
2.89684e-08
0.00243647
0.00154696
2.03233e-09
3.1632e-09
7.06595e-09
6.38663e-08
5.89327e-08
7.32304e-09
4.25601e-07
4.74794e-09
1.49255e-06
2.49418e-09
2.6244e-09
6.42354e-09
1.67909e-08
2.33349e-07
7.49938e-09
1.89025e-08
0.00443958
0.00150031
0.00265707
0.0016062
1.49038e-06
1.11897e-08
0.00208226
6.95389e-07
6.4965e-09
0.000410058
2.0947e-09
1.44351e-07
0.00242357
4.41672e-08
1.34415e-07
2.30282e-08
4.44587e-08
0.00139985
8.43705e-09
1.29608e-09
2.12654e-07
2.65234e-09
4.85756e-07
5.98651e-06
6.70155e-08
0.00215938
4.04021e-08
0.000460328
2.68272e-07
0.00209871
4.15186e-10
5.03433e-09
2.66356e-07
3.71104e-09
0.00188593
3.94293e-07
0.000517823
1.49302e-07
1.85392e-07
1.36407e-07
2.66146e-08
9.05988e-09
4.94387e-08
3.02149e-06
4.14771e-08
2.60835e-06
0.00339434
5.35951e-08
0.00434787
5.65556e-09
2.65162e-09
4.56574e-06
0.00194587
1.46059e-08
1.32729e-09
9.01419e-07
5.80085e-08
3.51704e-08
0.00242376
1.39021e-08
6.11826e-07
0.0027371
1.35688e-09
8.0962e-09
4.17962e-07
9.74999e-10
6.38731e-09
0.00261674
4.70138e-09
0.00285887
2.37816e-08
2.15213e-07
3.89277e-08
0.00093557
6.0127e-08
2.79181e-08
1.5496e-07
0.00262011
1.5881e-06
1.34781e-08
9.31631e-09
1.24511e-07
0.00207256
3.37227e-09
5.15772e-08
6.28412e-08
1.59145e-06
0.00261379
0.000270036
0.00119087
1.76557e-08
0.000358005
1.09055e-08
8.97666e-07
0.000789776
8.11447e-09
0.000881069
3.30031e-06
4.72644e-09
2.64116e-09
1.21305e-08
0.00261758
1.5697e-08
3.30396e-09
2.59508e-07
1.12435e-08
5.91341e-09
0.000301424
3.31638e-09
4.49786e-08
0.00251934
1.26246e-06
4.59985e-09
0.00210676
3.25899e-06
6.76847e-09
1.38959e-08
1.20045e-05
4.29522e-08
2.24687e-07
1.74227e-08
4.12521e-08
5.99526e-08
4.73991e-06
0.00109786
4.90313e-08
0.00254062
1.513e-08
3.8384e-08
0.00283621
3.28851e-08
8.24155e-08
9.67583e-09
1.33014e-07
0.00244812
2.67279e-08
2.00296e-08
0.00163484
6.87473e-09
0.00275825
1.31714e-09
8.02394e-09
1.00764e-09
9.21966e-09
0.00155858
5.3849e-08
8.10427e-10
2.10303e-09
1.40939e-08
5.47335e-08
0.00265916
4.69778e-09
4.39985e-09
2.50392e-09
1.55498e-07
5.29004e-06
5.26973e-09
0.00156984
3.6607e-08
1.17727e-08
6.77287e-09
5.3625e-08
0.000429643
6.72985e-07
1.35358e-10
9.82337e-10
0.00190838
0.00227467
6.4392e-08
3.71368e-09
0.0018357
1.69018e-08
7.05492e-10
0.00356047
9.68231e-09
0.00283357
2.97822e-07
1.79203e-08
1.87752e-08
1.01918e-08
9.2351e-09
4.71845e-09
3.04453e-05
7.42616e-07
2.38066e-09
4.38054e-08
5.59289e-08
5.78294e-09
0.00267554
9.31756e-09
1.20351e-08
0.00206044
2.62892e-08
3.67073e-08
1.64987e-10
0.00238942
2.82444e-08
1.33319e-07
3.69297e-09
3.69997e-08
4.03791e-09
0.00244223
5.85215e-09
7.02973e-09
0.000611728
1.12903e-08
7.30532e-09
0.00241481
6.51653e-08
3.5097e-10
3.15626e-08
5.8984e-09
0.00194895
4.55813e-07
6.14483e-08
3.28478e-09
4.24668e-07
1.41411e-07
9.62287e-09
1.39074e-09
1.03021e-09
3.50791e-08
1.04291e-08
8.19693e-10
7.2133e-09
6.65179e-09
1.11537e-08
0.00239532
7.19776e-07
1.54253e-08
2.19426e-09
9.23191e-10
0.00230469
2.03091e-08
0.00339907
9.38665e-07
0.00163866
6.36909e-10
0.00222784
0.00304029
7.31937e-09
1.0047e-08
9.38384e-08
0.0021821
0.00263412
3.234e-07
5.9027e-09
2.49889e-07
1.08303e-09
2.22465e-07
8.04696e-09
9.4325e-08
1.6569e-08
1.42577e-09
3.58281e-09
1.1338e-09
6.51083e-09
9.49441e-09
3.89613e-09
5.07598e-09
1.30448e-08
9.15605e-08
2.74457e-11
3.36518e-09
8.02308e-10
6.06795e-09
1.38482e-09
1.71631e-07
0.00196355
0.00289062
3.90825e-09
0.0023091
1.46642e-08
2.93714e-09
5.00937e-09
1.64588e-06
1.81475e-07
7.18207e-08
5.14715e-10
1.04795e-08
1.77864e-09
8.37295e-09
1.66985e-09
1.37472e-08
1.41315e-07
0.00164213
2.56567e-09
2.28275e-08
0.00145487
0.00184896
0.00227131
0.00206389
0.00179358
4.49521e-08
3.91837e-08
3.22086e-09
8.51078e-09
7.59644e-09
1.39808e-06
4.01761e-09
2.97454e-08
3.47158e-08
7.51987e-09
2.69268e-09
2.57971e-09
7.62255e-07
3.15508e-06
3.9745e-07
6.24372e-09
1.43057e-09
3.88431e-09
0.00294856
2.49606e-09
0.0019216
1.13299e-07
8.96413e-09
7.52261e-07
0.00105424
7.02393e-08
4.24218e-10
3.77458e-09
3.34036e-08
1.51678e-09
2.37006e-08
1.30332e-09
0.00114508
3.75805e-10
4.18275e-08
0.00284486
2.96633e-09
0.00138006
6.06108e-08
0.00223763
9.80088e-08
0.00126148
3.40772e-10
0.00289478
0.00240455
2.78825e-08
4.62904e-09
0.0016268
1.87554e-08
0.00186982
1.69271e-08
7.98201e-09
5.09432e-10
1.65629e-08
2.04848e-08
1.50807e-08
6.47609e-07
0.00292389
0.00171346
1.2179e-06
3.56026e-09
3.50105e-07
0.00315761
0.00141974
0.00245388
0.00243221
5.1409e-09
6.05298e-08
2.74741e-08
1.25231e-08
0.00314865
5.82146e-09
0.0015378
0.00333353
5.07526e-09
3.28883e-09
0.00166429
0.00313792
3.02617e-08
6.39817e-10
0.00174283
8.80268e-08
1.91664e-09
4.90324e-07
9.65615e-08
0.000406717
6.91465e-08
5.63707e-08
2.52041e-07
2.74304e-07
9.87755e-08
3.66784e-09
4.79757e-09
1.29763e-08
2.80477e-09
1.71508e-08
8.78444e-09
2.55075e-10
2.07665e-09
0.00207037
0.00293843
3.19593e-10
2.43629e-08
6.72341e-09
3.5587e-09
4.80428e-07
1.96639e-08
2.54582e-09
0.00283394
0.00156163
0.00144872
0.00168495
4.85603e-08
0.00136178
2.67686e-07
0.00390959
5.97293e-10
0.00235388
2.73856e-08
3.6349e-08
1.55623e-07
5.77623e-10
0.00305749
1.85501e-07
0.00423607
6.49491e-09
1.20226e-09
9.92636e-09
8.67784e-09
0.00139212
0.00297356
1.39764e-10
3.15242e-09
2.33525e-08
0.00167439
3.37435e-09
0.00292844
3.51573e-07
1.63462e-09
6.14756e-09
0.00250365
3.53182e-08
0.00221635
8.35905e-08
0.00395626
0.0033068
7.93359e-08
2.1238e-09
0.00365806
8.95942e-09
8.51825e-07
0.000344637
1.58381e-08
1.40578e-07
2.39227e-08
8.58113e-09
0.00310937
5.6426e-09
7.20219e-08
3.55757e-10
6.89122e-08
7.54135e-09
4.74581e-09
1.87252e-08
1.02198e-08
1.80338e-08
0.00302485
2.16964e-08
2.48234e-08
4.77141e-09
1.50758e-08
9.81548e-09
8.46106e-09
9.57125e-09
0.00226555
8.31489e-09
0.00303305
0.0018955
5.02067e-09
0.000360669
2.69331e-09
3.29091e-09
2.71489e-08
3.73462e-08
3.05516e-08
0.00158204
0.00209646
1.12881e-07
1.03933e-07
8.58963e-08
0.00318302
0.00110974
4.82225e-08
0.00216302
0.00453403
1.24461e-06
0.00258955
0.000410463
6.55346e-09
7.82707e-07
2.6281e-08
0.000563896
6.78687e-10
0.0026079
2.48636e-10
2.4109e-09
0.000636591
0.000341713
1.9604e-08
0.000460446
4.15992e-08
1.06641e-07
2.72173e-08
2.97141e-09
4.18246e-07
3.00074e-09
5.27176e-09
0.00254748
1.28645e-08
1.39029e-08
4.10944e-09
1.21996e-07
1.6503e-09
4.57747e-05
3.12535e-08
2.00251e-08
7.98757e-08
1.66777e-07
0.000297091
0.00227262
4.32069e-08
7.01056e-09
0.00243006
0.00234095
3.69894e-08
2.31466e-08
1.3043e-08
2.95351e-09
2.81163e-08
1.12946e-08
0.0020016
0.00447707
6.90083e-09
2.38759e-09
3.79943e-09
5.30711e-09
0.00254851
0.000394487
2.04464e-09
1.86515e-08
1.72345e-08
0.00221057
1.04981e-05
1.08939e-06
0.00201496
2.64343e-08
2.36668e-08
3.67911e-09
3.73228e-08
2.18719e-08
0.00220467
5.40035e-08
0.000310598
5.70346e-09
6.05674e-09
0.00328859
0.00267045
7.73118e-09
0.00314934
1.08029e-09
1.47319e-09
4.52799e-07
4.97631e-09
2.97605e-09
0.00187385
2.76887e-08
1.23808e-07
0.00385111
1.27383e-08
0.00155064
0.00311486
1.30174e-08
0.00330026
1.36732e-08
1.30349e-08
1.7983e-08
1.87136e-07
9.98585e-09
4.63633e-08
6.03666e-09
2.46718e-08
4.80541e-07
1.85599e-08
0.00235681
6.6167e-09
0.00309825
7.47397e-10
1.21208e-08
6.26022e-09
0.00231025
7.81075e-09
0.00230738
0.00195487
0.00319534
1.64332e-08
0.00217653
1.44852e-07
2.13578e-08
3.30685e-09
7.81484e-09
1.27421e-08
7.62889e-08
1.47598e-07
2.94172e-07
3.28379e-09
0.00291831
3.61266e-08
1.19885e-09
9.14924e-10
3.96664e-09
7.58447e-10
0.00206102
3.49659e-08
0.00307485
2.77525e-08
0.000624968
2.88112e-09
3.3411e-09
0.00182092
0.00346482
6.91273e-08
2.79406e-09
0.0037551
1.39684e-08
1.04343e-09
3.34252e-09
1.393e-08
5.89565e-10
1.3322e-08
1.59104e-09
1.38026e-08
3.88866e-09
6.04798e-08
2.7014e-08
0.00246218
5.71318e-07
1.01668e-07
1.26259e-08
4.85622e-09
0.00216592
1.44025e-08
0.00313329
4.09495e-08
2.87676e-08
6.17422e-09
6.11502e-09
8.34565e-08
7.6407e-07
0.0013499
0.00127967
8.32664e-09
0.00380682
2.32446e-08
0.00286544
9.22148e-09
1.70365e-08
2.81925e-09
0.00270075
0.00132562
0.000427444
4.46829e-08
2.1401e-09
0.00133825
5.20941e-09
4.39318e-09
8.66758e-09
6.88532e-09
0.00245176
0.00209648
1.73786e-08
3.31805e-08
5.15583e-08
3.56222e-09
3.25333e-06
1.81458e-06
6.21381e-09
2.38234e-08
0.0016403
8.46318e-09
3.23858e-08
1.201e-09
3.14774e-08
3.48051e-09
0.00234889
5.50957e-09