/*--------------------------------*- C++ -*----------------------------------*\
  =========                 |
  \\      /  F ield         | OpenFOAM: The Open Source CFD Toolbox
   \\    /   O peration     | Website:  https://openfoam.org
    \\  /    A nd           | Version:  10
     \\/     M anipulation  |
\*---------------------------------------------------------------------------*/
FoamFile
{
    format      ascii;
    class       volScalarField;
    location    "38";
    object      T;
}
// * * * * * * * * * * * * * * * * * * * * * * * * * * * * * * * * * * * * * //

dimensions      [0 0 0 1 0 0 0];

internalField   nonuniform List<scalar> 
59698
(
286.63
283.15
283.15
283.15
299.929
283.15
292.525
283.15
303.15
303.15
303.15
283.15
283.15
283.15
300.111
303.15
283.15
283.15
283.15
293.798
303.281
302.121
303.148
303.15
295.668
283.15
283.15
298.344
295.685
295.352
300.292
303.15
303.15
298.836
302.358
283.15
283.381
283.468
283.15
297.58
296.233
283.15
296.573
283.304
283.15
296.605
283.15
295.254
294.636
283.15
293.063
283.15
283.15
283.285
294.375
283.15
288.017
302.177
286.003
282.976
291.25
287.878
299.623
283.15
286.781
283.15
303.15
283.15
283.15
303.15
283.15
288.164
283.136
298.558
283.15
297.761
283.298
287.693
291.645
294.136
299.955
285.988
303.15
283.15
303.697
283.3
283.15
283.15
298.889
283.15
303.15
294.738
298.99
283.15
283.15
283.15
299.067
283.15
298.916
283.15
299.118
283.131
285.893
284.495
283.15
283.15
283.15
283.15
303.15
283.15
283.15
283.15
298.872
283.15
283.15
283.15
283.15
283.15
283.15
303.15
283.15
283.15
283.15
283.15
283.15
283.15
295.474
303.15
283.15
283.15
287.533
283.15
303.15
292.779
290.244
291.654
283.15
303.15
283.15
283.15
283.15
283.15
290.852
292.129
283.15
283.15
283.15
283.15
283.15
301.181
283.138
303.15
288.078
283.15
293.023
286.079
283.15
283.15
296.947
283.15
289.667
283.15
290.78
299.547
297.797
296.674
283.15
280.914
299.359
284.634
300.38
283.151
300.945
301.008
285.54
283.15
303.15
283.239
303.15
298.918
302.761
300.404
298.621
283.15
298.733
300.854
300.76
283.15
283.15
294.715
283.185
283.15
296.605
297.472
299.382
283.15
293.943
296.561
303.155
299.379
283.15
284.146
292.417
283.15
299.286
290.949
297.319
295.415
293.578
298.018
283.15
283.15
299.137
303.15
294.872
283.15
283.15
283.15
297.837
296.01
282.058
296.317
283.15
299.275
295.286
299.328
295.837
291.35
295.616
285.002
283.15
296.166
295.176
295.839
283.15
294.818
295.975
283.15
283.15
295.002
283.15
293.988
289.936
303.15
294.643
283.15
282.93
285.617
293.599
283.15
291.816
294.931
295.139
303.15
283.15
294.737
292.111
295.299
283.15
283.15
303.12
283.15
294.385
291.876
292.26
295.325
283.15
303.15
283.15
283.15
283.15
286.651
303.101
283.15
287.341
283.188
283.15
283.182
293.989
303.15
303.15
283.15
283.15
289.107
295.123
290.684
288.84
303.15
286.05
289.18
301.429
291.28
283.15
283.15
289.398
283.15
283.15
289.641
295.098
283.15
291.441
283.15
283.15
283.15
283.15
283.15
287.813
283.899
283.802
283.15
283.15
283.15
283.15
283.15
283.15
292.667
283.15
283.15
283.15
283.15
283.15
293.374
283.15
303.15
298.334
286.25
283.15
283.15
292.427
283.15
300.18
290.667
298.882
281.573
303.15
293.796
283.15
283.15
298.462
293.838
295.117
295.54
283.15
294.979
298.954
283.15
295.599
301.435
283.15
289.168
292.829
283.15
301.344
303.15
284.23
300.744
302.076
283.15
283.15
303.15
283.15
283.15
303.15
295.002
283.15
283.15
283.15
290.474
283.15
282.755
292.683
283.15
283.15
283.15
296.429
303.15
283.15
283.15
283.15
303.15
283.15
283.15
283.15
293.518
283.15
283.148
283.15
283.15
283.15
283.15
283.15
303.15
294.592
290.766
303.133
301.992
301.761
283.15
283.15
283.15
288.509
295.72
283.15
283.15
283.15
283.15
295.923
293.249
295.682
302.249
297.868
303.15
295.267
303.15
283.15
289.837
283.15
283.575
302.294
302.829
283.162
283.15
290.797
281.984
283.15
283.15
303.15
283.165
283.15
283.15
295.497
302.785
285.299
291.844
287.58
303.15
303.15
298.65
283.15
291.941
283.15
283.15
303.15
283.15
283.15
302.911
294.859
283.15
283.15
299.212
283.15
283.15
283.15
286.322
283.15
283.15
290.63
303.15
284.302
283.15
290.051
283.15
283.96
293.93
303.15
283.15
283.15
291.887
283.15
294.985
295.107
283.15
283.15
283.15
283.15
283.15
302.758
292.106
293.709
283.197
283.15
283.15
283.15
283.15
300.929
283.15
283.15
283.15
291.941
292.864
299.032
290.491
291.363
283.15
292.115
283.15
283.15
283.15
289.575
283.15
283.15
295.186
299.058
294.682
283.15
303.15
283.15
303.15
283.15
290.271
294.708
290.683
283.153
283.15
291.628
283.15
283.15
283.15
283.15
283.15
289.546
293.964
283.15
283.15
283.15
302.996
294.941
283.15
289.837
288.749
283.15
301.504
303.15
283.15
283.15
283.15
283.15
286.366
283.15
303.15
290.003
283.15
283.15
281.273
289.38
291.833
282.236
283.132
290.845
283.147
283.15
303.15
283.15
303.15
283.15
283.15
283.15
295.583
291.516
291.83
283.15
303.15
283.15
283.123
283.15
303.15
286.382
283.15
291.208
303.15
292.072
283.15
283.15
291.899
290.958
293.533
283.15
292.283
295.529
303.15
283.15
283.15
285.277
283.15
292.359
283.15
290.477
283.15
289.746
291.639
291.954
296.415
283.15
283.15
283.15
283.15
303.15
282.781
283.15
283.15
290.927
290.444
283.15
283.15
290.899
291.499
283.15
283.15
290.605
283.15
283.15
288.722
283.15
289.34
289.461
288.456
283.15
297.849
285.64
283.15
283.15
288.119
283.984
302.958
295.262
283.15
290.913
284.078
284.47
284.352
295.602
283.15
283.15
284.337
283.15
283.222
283.206
283.15
283.15
286.936
283.15
283.15
283.15
303.15
292.012
294.048
283.15
283.15
283.15
283.15
283.15
283.15
288.554
283.15
283.15
283.15
283.15
303.147
293.595
284.088
283.15
283.279
290.998
283.797
301.84
291.63
283.15
283.15
283.15
288.932
283.15
283.15
283.15
283.15
283.15
283.153
283.15
295.311
293.236
283.15
283.693
283.15
283.15
283.15
283.15
283.15
283.151
283.15
283.15
295.736
290.799
297.166
283.15
283.151
290.812
283.15
283.15
283.365
283.15
283.15
283.15
283.15
292.55
286.365
283.15
303.15
296.532
283.15
283.15
283.15
291.999
283.15
283.15
283.15
283.15
297.641
289.346
283.15
303.15
283.15
297.861
297.947
283.15
283.15
295.609
297.232
295.541
283.15
296.238
283.15
282.863
283.15
290.543
300.336
283.15
291.087
283.15
303.15
297.637
287.928
283.15
283.15
283.274
297.044
294.592
294.523
283.598
283.45
283.15
286.008
283.15
296.884
293.736
298.098
283.15
283.15
290.239
295.01
303.15
283.15
296.909
283.15
298.219
295.937
283.15
293.841
296.74
283.15
283.15
294.935
294.575
283.15
283.15
283.15
283.15
289.447
283.15
283.15
294.538
294.555
297.387
283.15
293.704
290.469
294.881
295.292
295.321
283.15
284.365
298.819
283.15
288.636
297.675
301.108
283.15
302.772
283.15
283.15
283.15
283.15
283.15
283.15
283.15
283.15
298.046
283.163
291.663
283.164
283.15
282.35
283.15
283.15
283.15
283.15
303.102
298.503
303.15
283.15
284.568
288.585
283.15
282.178
283.15
283.228
283.15
283.15
291.266
294.714
296.699
283.15
295.799
283.15
283.15
283.15
283.15
283.15
283.162
283.15
283.132
283.173
303.15
283.15
283.15
283.15
283.15
291.184
283.15
290.484
283.15
294.639
283.15
283.15
285.397
283.15
283.15
283.15
299.441
295.185
291.978
283.15
283.15
295.911
303.15
295.894
283.15
283.15
283.183
283.149
283.15
283.15
283.15
283.15
284.109
283.15
290.383
283.15
283.15
286.225
294.918
283.181
286.294
283.15
283.2
283.15
283.15
283.15
283.15
283.15
283.15
283.15
292.779
296.327
296.01
283.15
292.661
295.075
283.15
296.745
303.15
283.15
295.89
283.722
283.15
283.15
291.961
283.15
295.886
283.15
283.15
293.591
283.15
283.15
283.15
283.15
303.15
283.15
283.15
283.15
295.916
297.652
283.15
296.716
290.217
292.776
295.632
283.15
291.432
290.743
286.592
292.083
283.15
289.766
283.15
296.553
295.76
283.164
290.3
283.15
283.15
297.548
286.378
290.057
296.154
296.763
283.15
295.386
285.342
293.99
283.15
283.15
283.15
283.15
283.15
283.288
283.15
283.15
283.15
303.15
283.15
283.15
294.479
303.15
283.15
296.667
294.318
283.232
283.204
283.184
295.69
283.15
303.15
303.15
283.15
295.558
283.15
283.15
291.449
302.711
298.56
283.15
294.892
302.155
297.859
294.944
295.859
293.729
283.15
295.697
283.15
290.649
287.743
293.967
283.15
283.15
303.15
283.168
294.636
300.383
294.69
303.15
303.15
283.15
291.679
294.896
283.15
283.15
292.588
283.15
284.073
283.15
298.358
283.15
294.546
295.239
302.8
283.15
293.167
302.795
283.15
283.15
302.803
283.15
294.544
295.195
296.443
295.363
295.982
295.227
283.15
283.15
303.15
295.485
296.532
283.369
283.15
283.15
297.701
283.15
283.15
283.15
295.326
283.15
287.748
283.186
290.781
283.15
303.15
283.15
288.1
283.15
303.15
294.03
294.208
295.978
283.6
289.322
303.15
303.15
293.106
283.15
295.012
283.518
283.603
294.418
283.617
303.15
303.15
284.095
294.304
295.148
303.15
283.98
296.122
303.15
282.45
283.963
283.571
283.15
294.351
283.15
283.15
294.103
303.15
284.889
283.186
283.15
283.15
283.15
283.15
294.39
301.056
303.15
297.287
302.914
283.15
301.657
287.092
291.085
295.273
297.73
297.201
289.455
289.159
283.15
283.15
288.106
283.15
303.15
283.15
300.969
283.15
294.507
283.974
294.939
283.15
302.393
289.607
294.812
294.647
283.15
283.15
303.15
283.15
286.771
283.15
283.15
283.15
294.664
283.15
304.955
283.15
295.045
283.15
295.303
283.15
287.084
294.942
303.15
283.15
283.15
283.15
290.196
283.15
300.813
301.116
283.15
295.895
299.13
302.606
293.686
283.15
283.15
302.581
287.726
300.258
291.916
283.15
295.942
295.796
295.398
293.308
295.259
303.15
286.057
298.852
295.796
283.15
283.15
297.243
283.15
299.005
293.77
283.15
293.667
283.15
303.15
293.365
303.15
292.586
283.15
292.397
292.088
283.15
285.387
283.15
303.15
294.485
291.95
288.949
292.444
293.372
303.15
303.15
283.15
283.15
283.15
303.15
283.15
283.15
283.15
283.15
303.15
283.15
283.15
283.15
283.15
285.256
283.15
283.15
284.977
303.15
283.15
283.15
303.143
303.15
297.275
290.572
283.15
297.371
296.692
292.332
303.15
283.15
283.15
296.914
282.324
296.644
283.15
303.15
283.15
303.15
296.769
284.583
283.15
291.176
297.596
283.15
302.759
297.488
295.752
297.453
291.401
297.619
283.15
283.15
297.487
297.421
283.154
303.15
283.15
291.917
283.153
283.15
283.152
283.151
283.15
283.15
288.55
283.15
300.612
285.587
297.029
303.022
283.15
303.15
289.81
283.15
299.955
303.15
303.15
293.48
283.15
300.653
283.15
283.15
303.15
286.612
283.15
303.15
283.15
283.15
283.15
283.15
302.958
303.15
297.481
284.458
283.15
289.056
286.46
283.15
283.097
303.15
283.15
303.15
283.15
303.15
283.15
297.886
297.781
296.976
297.557
294.281
283.15
286.797
283.15
283.15
292.029
298.052
294.821
296.655
283.15
301.147
283.15
303.15
283.15
297.02
296.296
303.15
303.15
283.15
288.938
287.37
294.296
289.22
289.614
303.15
303.15
283.15
283.15
287.786
303.15
299.758
303.15
287.571
303.15
303.15
303.15
291.704
290.767
299.276
303.15
292.596
292.863
303.15
286.389
287.301
282.683
293.567
283.736
295.849
291.689
283.206
283.312
293.658
283.212
303.15
303.15
285.19
288.641
292.72
283.575
283.277
283.15
289.879
283.15
283.15
295.277
291.71
284.918
287.712
285.219
293.954
303.15
292.172
284.064
290.957
293.983
300.92
283.15
292.384
283.15
283.15
298.113
283.199
283.15
283.15
283.903
286.787
283.751
283.15
284.856
283.22
284.22
303.15
294.033
290.563
288.472
292.608
303.112
303.15
283.15
284.406
294.764
300.635
284.976
285.105
298.436
294.329
284.948
282.316
294.006
303.15
287.37
283.15
283.129
285.156
303.15
297.63
283.151
283.15
303.15
284.93
300.028
303.15
283.15
289.199
295.152
296.512
297.826
283.515
303.15
285.252
283.184
283.15
283.15
293.953
283.15
303.125
283.15
303.15
294.354
283.15
292.603
283.15
283.15
283.15
300.139
298.992
285.918
283.138
299.312
283.15
299.449
303.15
283.15
283.15
296.276
285.773
283.15
283.15
288.103
283.154
283.15
283.15
283.15
283.15
296.746
303.15
293.678
283.15
303.15
288.561
283.15
283.15
288.201
303.15
296.119
283.15
303.15
296.847
302.678
290.212
283.15
286.923
288.123
303.15
283.15
303.15
283.15
283.15
283.15
283.15
283.14
291.898
283.209
303.15
288.295
288.776
287.962
294.291
288.253
294.9
289.063
286.222
303.15
287.43
291.784
283.15
303.15
300.571
283.15
289.597
303.228
303.15
299.158
283.15
290.46
303.15
283.15
290.509
283.15
297.731
297.173
290.164
295.066
303.15
303.15
290.267
290.293
283.938
295.025
283.153
283.576
303.15
283.8
290.223
303.15
283.15
283.003
283.15
290.349
299.829
303.15
290.321
303.15
303.15
283.677
283.15
283.15
283.149
303.15
293.253
283.15
303.15
303.15
291.218
283.127
290.61
303.15
283.139
283.15
290.248
290.376
300.698
283.15
290.296
303.15
294.743
294.251
303.15
303.15
303.15
283.15
283.15
290.402
291.865
303.15
283.14
286.314
303.15
303.15
303.15
283.15
283.15
283.15
283.15
283.15
283.434
283.15
296.135
303.15
283.15
283.28
283.277
283.301
294.097
283.15
283.15
283.15
283.15
283.15
283.14
283.15
303.15
283.15
283.15
283.15
283.15
303.15
283.15
294.225
303.15
285.312
283.15
293.201
283.15
283.205
283.15
297.19
283.15
296.722
295.931
283.15
283.15
283.15
283.15
283.15
283.15
283.15
298.965
283.15
287.259
283.15
304.962
284.027
283.15
300.341
283.134
283.15
291.719
303.15
294.365
296.505
295.247
283.15
301.437
296.239
283.15
298.925
293.099
302.823
297.627
300.378
283.15
285.251
294.219
289.336
294.339
295.909
297.41
283.15
296.66
283.15
283.15
294.75
283.15
283.143
299.548
283.15
288.099
283.15
283.15
297.869
293.716
283.15
283.15
292.492
283.15
295.048
283.15
293.105
298.43
283.15
300.325
292.816
294.443
283.15
293.619
298.433
291.679
283.15
284.621
283.15
283.15
283.234
283.15
303.15
292.493
297.136
298.048
301.576
283.455
292.499
283.15
283.15
283.15
283.15
303.151
283.151
283.15
283.15
283.139
283.15
283.15
283.15
301.991
283.15
283.15
303.187
283.619
283.15
283.15
299.007
283.15
302.104
302.827
294.637
283.15
283.15
283.15
283.15
283.15
293.536
283.15
283.15
283.15
295.16
302.942
283.15
288.177
283.15
298.901
293.01
283.158
283.15
283.289
283.15
283.15
295.254
283.15
302.925
291.33
283.15
291.268
298.24
302.942
283.15
292.699
283.15
298.515
283.15
294.291
288.182
289.741
283.15
294.451
289.072
294.121
283.15
289.322
302.813
283.15
283.15
289.445
283.15
283.15
294.009
299.702
283.15
294.6
283.15
283.15
283.15
292.967
283.15
295.054
287.19
298.58
299.516
289.314
283.15
283.15
294.789
295.984
283.15
283.15
283.15
298.707
285.528
283.15
283.15
283.15
283.15
283.15
296.207
287.998
296.566
283.15
283.82
283.15
299.567
303.15
293.407
283.15
283.15
296.963
283.15
299.685
283.15
283.15
283.15
283.15
299.646
283.15
283.15
301.3
283.15
283.15
293.134
283.152
283.15
289.342
283.151
303.15
283.151
301.44
283.15
283.15
283.15
283.15
283.15
301.37
287.258
290.351
286.472
283.15
283.23
295.988
283.15
283.15
298.92
291.941
290.407
290.574
283.15
303.15
298.539
288.079
294.38
295.702
295.026
301.377
283.15
301.184
295.285
293.002
292.087
303.15
283.15
300.061
295.461
295.696
291.922
302.832
286.648
295.636
293.87
292.394
296.236
295.405
283.15
291.136
292.628
295.761
293.693
283.15
283.15
283.15
296.436
296.085
295.188
296.198
294.304
295.77
294.786
283.15
291.993
295.618
295.823
296.787
300.262
297.334
297.454
297.953
301.219
283.15
303.146
283.146
290.479
283.15
283.15
301.78
303.554
295.255
303.01
303.129
291.146
283.15
292.112
283.15
290.834
283.15
300.595
283.15
291.1
303.15
283.15
293.492
283.15
301.072
295.244
283.15
302.008
293.382
289.234
302.276
286.675
295.428
291.739
292.613
294.606
300.55
302.958
293.23
289.823
289.037
286.2
295.287
285.803
295.881
283.15
283.15
283.15
286.874
286.814
295.796
289.764
283.15
283.15
283.15
283.15
283.15
290.95
294.075
285.997
286.089
283.15
293.404
284.858
283.15
283.15
283.15
286.559
302.167
291.948
299.929
296.657
294.695
283.15
295.966
303.15
283.15
283.15
283.15
295.292
296.769
295.477
294.322
298.693
288.436
283.15
283.142
283.15
291.356
291.605
283.15
283.15
292.671
283.15
296.16
297.891
300.892
295.606
291.705
283.15
283.15
283.15
295.386
283.303
295.513
294.699
289.673
283.15
295.688
300.952
296.706
283.15
303.15
292.57
295.693
283.289
294.694
283.15
283.15
283.15
283.15
290.627
283.15
283.15
283.15
292.93
283.15
295.194
283.15
295.381
290.853
283.15
293.611
283.15
283.15
292.273
283.15
283.15
295.101
295.184
283.15
283.15
295.48
283.15
283.15
296.647
296.173
283.15
297.935
283.15
293.179
283.15
293.689
283.152
283.15
296.017
292.245
296.426
295.428
294.012
299.987
292.905
296.171
294.086
296.787
295.656
293.661
283.15
283.15
283.15
283.15
283.15
303.15
293.168
289.353
283.15
283.15
292.504
283.15
283.15
299.275
283.15
283.15
293.34
283.15
283.15
283.418
283.15
300.844
286.337
287.375
293.098
283.15
293.569
283.15
283.15
283.15
283.15
283.15
291.733
295.924
283.15
283.15
283.15
284.191
288.499
283.15
294.62
283.15
283.15
303.15
283.15
293.615
283.15
283.15
291.978
283.15
283.15
283.15
303.15
287.171
291.354
283.78
283.15
283.15
292.019
283.15
291.378
290.495
283.15
283.15
294.587
293.413
291.666
294.164
293.515
291.614
283.15
283.15
283.15
303.15
283.41
283.15
283.15
290.631
283.15
295.852
283.15
292.065
285.191
292.804
289.281
295.582
290.693
289.499
302.018
294.39
288.988
283.15
294.26
293.184
296.89
283.15
300.48
291.953
301.235
283.15
297.611
283.15
285.092
283.15
283.15
283.15
293.928
295.037
292.916
283.15
293.312
283.15
283.15
292.181
283.15
283.15
283.15
283.15
283.15
283.15
299.338
293.965
283.151
283.15
283.15
291.014
283.15
288.725
288.494
283.15
291.628
283.15
283.15
283.762
283.855
289.772
283.15
283.15
283.15
283.15
283.15
283.15
290.947
283.15
302.666
290.509
283.15
296.799
283.15
285.563
283.154
298.649
303.389
296.196
283.15
283.15
283.15
298.424
283.15
290.088
283.15
283.15
286.384
285.989
283.15
283.15
283.15
283.15
283.15
283.15
283.15
283.15
293.553
293.046
294.722
294.027
283.15
283.15
292.246
292.177
283.15
283.15
283.15
283.15
283.15
283.15
283.15
283.15
283.15
303.15
303.15
283.15
292.017
295.686
285.757
283.15
283.15
297.014
283.15
291.977
283.15
283.15
291.247
290.81
283.15
290.872
283.15
283.15
283.15
295.407
295.466
283.15
283.189
283.177
283.15
283.15
303.243
283.15
303.15
283.15
283.15
283.15
296.098
283.15
283.15
283.15
283.15
291.143
283.159
283.198
283.15
303.15
282.891
283.15
301.985
284.042
303.15
283.15
300.879
294.279
283.15
291.75
283.521
283.15
283.15
303.15
303.15
283.15
283.15
296.676
283.15
295.56
284.626
289.442
293.905
283.15
296.769
283.15
283.15
300.78
303.15
303.15
297.742
286.262
294.848
294.722
283.15
283.15
300.952
292.104
283.15
285.284
291.787
303.15
283.15
283.15
283.15
290.511
283.15
300.842
283.15
283.15
283.15
294.426
291.386
283.15
283.15
291.16
283.15
283.15
296.696
301.95
302.716
293.567
295.797
283.15
292.472
290.721
291.292
300.581
283.15
283.15
291.821
290.469
290.344
290.517
291.801
290.478
283.15
303.15
297.134
283.15
283.15
293.029
291.551
297.928
283.146
283.15
283.668
283.15
283.15
283.15
283.15
283.15
283.15
292.184
294.933
303.15
295.683
284.941
292.901
297.803
298.037
283.15
292.086
283.15
298.079
283.15
296.16
283.15
283.15
298.677
283.15
294.565
298.118
294.139
296.552
293.852
283.15
283.15
296.997
283.15
283.15
291.942
283.15
283.151
283.15
283.15
291.937
291.521
291.035
283.15
295.864
292.069
283.15
283.431
283.15
283.15
299.681
291.553
294.089
286.318
290.972
290.74
292.066
293.855
283.15
283.15
291.955
283.15
283.15
283.15
283.15
290.83
283.15
296.835
283.15
296.331
294.085
295.956
297.502
295.574
287.432
297.248
293.991
295.379
283.15
283.15
297.505
283.15
283.15
283.15
283.15
290.563
292.96
283.15
283.15
283.15
283.15
290.099
283.373
283.15
283.15
283.15
283.15
283.649
283.15
283.15
283.15
295.596
298.739
283.15
302.763
301.082
303.15
283.15
283.15
283.15
295.415
283.883
295.14
283.15
283.17
283.15
302.515
283.15
298.127
290.008
294.435
292.761
300.333
283.15
288.336
300.868
287.181
290.685
290.295
283.15
283.119
283.151
289.976
282.4
293.564
283.15
283.15
296.775
283.152
284.92
291.394
302.411
283.15
283.15
297.372
303.183
283.15
283.152
294.87
290.952
283.15
283.15
283.15
284.31
283.152
289.439
283.417
283.169
283.37
285.076
283.15
283.15
283.15
283.15
300.292
283.15
283.15
283.15
294.66
300.426
290.234
283.15
283.15
298.931
283.15
283.15
283.15
283.222
283.15
297.242
283.15
285.057
297.047
283.144
291.99
283.44
298.615
283.15
283.66
290.684
283.15
283.15
283.149
283.365
293.23
282.637
291.912
283.154
292.43
303.151
293.432
283.15
293.683
285.988
283.346
283.27
283.228
297.342
286.002
283.741
285.021
284.416
283.284
283.15
283.15
293.81
285.624
284.349
293.844
283.15
289.464
297.397
287.131
284.623
288.921
283.15
295.702
283.15
296.352
283.161
283.15
293.337
296.781
292.731
303.15
287.474
294.995
285.611
293.845
285.805
283.15
296.629
288
293.064
303.15
286.256
283.15
288.227
285.276
285.176
290.774
285.46
288.529
291.898
294.526
295.594
283.15
289.249
283.852
283.15
292.665
283.937
290.309
291.299
283.921
288.538
299.56
288.963
288.389
287.416
290.546
286.46
302.409
283.15
295.182
292.96
283.15
294.843
291.019
291.257
283.15
283.15
295.858
283.15
292.505
290.097
283.15
283.15
283.15
302.577
296.43
286.889
293.381
283.15
294.451
283.15
303.104
283.15
290.818
283.15
283.163
292.453
292.763
283.15
283.15
284.082
299.057
283.15
283.15
283.195
293.819
290.851
293.921
300.077
290.555
299.593
290.453
299.151
299.218
302.338
302.083
299.499
299.683
299.54
289.066
293.374
283.249
285.094
292.884
288.853
293.561
294.012
290.627
292.482
285.591
292.205
283.15
291.482
290.022
283.172
287.037
301.033
283.15
299.968
301.47
289.117
283.15
283.15
283.15
290.327
299.058
290.778
283.15
283.15
283.15
283.15
283.15
283.15
288.242
283.15
283.15
283.15
290.848
283.15
290.853
283.15
283.15
283.15
283.15
292.123
297.39
283.15
291.731
283.15
283.15
283.15
295.944
283.15
283.15
283.15
283.15
283.15
290.961
283.15
283.15
283.15
301.894
302.258
283.626
283.15
301.088
304.626
283.15
302.207
302.152
283.15
283.15
283.15
283.15
302.345
294.128
283.15
283.15
302.343
283.15
283.15
283.15
283.15
283.15
283.15
283.15
303.081
283.15
296.164
283.15
283.15
283.15
283.15
283.15
283.15
290.517
283.15
293.026
283.15
283.15
283.196
283.15
299.274
283.15
283.15
283.15
287.069
301.446
283.15
301.1
291.152
300.531
283.15
301.543
283.15
298.682
283.15
290.921
290.433
296.682
298.662
297.843
294.221
283.15
293.573
300.223
283.15
291.8
298.937
283.15
283.151
283.15
284.223
299.031
287.933
299.048
291.655
283.725
283.15
295.78
283.15
283.15
283.15
296.739
289.172
295.224
283.15
297.344
283.15
283.15
298.138
297.082
291.275
291.778
297.143
290.29
287.47
297.551
298.815
303.15
283.15
285.572
283.15
304.302
291.275
287.632
296.087
283.15
296.475
283.15
283.151
294.775
297.502
283.15
292.29
283.15
283.15
292.221
283.15
283.222
301.828
283.15
296.494
286.165
297.307
283.15
283.157
283.15
301.913
283.15
295.007
294.916
288.693
295.613
300.137
283.15
283.15
283.15
283.15
299.38
296.65
283.15
283.15
290.753
283.15
294.537
283.322
303.144
295.587
295.697
290.637
299.188
290.291
293.488
303.15
293.349
283.15
283.15
283.15
286.957
294.926
292.369
286.251
283.15
291.098
283.15
283.15
287.948
283.15
294.364
291.28
292.813
289.711
283.15
298.274
295.802
300.583
291.787
283.15
293.021
294.064
284.595
296.425
297.118
292.207
296.636
293.735
296.62
297.111
300.251
295.13
294.28
290.555
283.15
283.15
303.106
303.15
283.15
295.385
290.316
283.15
283.15
303.15
303.15
293.94
294.774
283.15
295.093
295.196
287.269
295.051
294.672
295.119
295.186
295.844
289.762
284.071
283.15
298.624
283.15
293.969
293.044
283.15
302.511
290.593
283.15
283.15
294.029
283.15
283.15
283.15
292.351
283.15
293.985
291.635
283.15
302.715
283.15
283.15
298.26
295.645
303.15
288.091
297.621
300.902
283.15
283.15
295.839
295.995
293.485
283.264
283.15
294.74
292.652
283.15
291.675
296.368
292.351
293.712
297.257
293.39
297.038
293.461
292.401
283.15
283.15
283.15
283.15
295.569
295.035
293.465
300.819
295.225
283.15
283.15
283.15
293.374
293.212
283.15
284.632
289.485
283.15
283.15
303.15
283.15
293.549
294.244
294.695
283.15
283.15
302.468
295.143
297.429
289.86
289.792
283.15
283.15
283.15
283.15
294.149
290.408
283.15
293.267
293.312
292.912
293
283.15
293.338
283.15
294.249
295.598
285.174
291.727
283.15
283.326
283.261
283.15
295.974
295.664
295.902
295.665
294.998
295.663
291.249
295.389
295.332
290.225
292.135
291.503
295.209
283.15
294.781
283.15
302.964
294.684
295.685
296.885
285.49
295.171
290.263
285.425
283.15
290.268
293.734
283.15
282.85
283.15
295.033
283.15
292.891
300.069
297.318
283.146
297.864
283.15
300.963
290.3
293.522
283.15
293.574
301.328
296.124
283.15
291.777
295.2
293.155
283.15
284.806
283.158
293.592
293.077
295.615
292.579
283.15
283.15
283.15
293.67
291.952
295.035
292.802
290.916
283.15
283.15
291.122
283.15
290.417
289.474
292.986
296.966
283.15
297.631
286.659
283.15
299.374
290.196
283.15
303.2
283.15
283.15
283.15
286.38
283.15
283.15
289.773
283.15
283.15
283.193
292.63
290.822
291.367
287.301
290.109
297.476
295.796
283.15
297.287
283.599
283.15
288.658
303.15
297.6
283.15
292.288
285.889
294.229
290.774
283.2
283.15
298.148
290.126
303.15
290.129
289.598
287.552
289.976
289.548
291.987
286.348
303.15
283.15
289.725
286.575
283.15
283.15
283.15
283.15
289.996
296.714
283.15
283.15
292.818
283.15
283.15
301.588
283.15
288.657
283.15
293.504
296.616
292.531
294.706
283.15
300.9
283.15
283.15
283.991
283.15
283.15
286.224
295.416
293.767
295.909
283.15
283.15
283.15
302.44
283.15
283.15
295.442
303.114
283.15
294.443
283.15
293.806
296.742
289.412
283.15
283.164
283.15
295.695
283.15
293.876
295.698
283.71
296.636
283.15
283.15
283.15
283.15
303.15
283.15
283.15
283.15
283.15
283.186
283.15
283.15
283.15
287.504
283.184
283.15
283.187
283.15
293.679
290.308
283.183
283.15
293.456
283.15
283.15
283.15
283.15
283.15
283.15
283.15
283.176
283.15
283.15
293.123
283.175
292.383
298.844
290.598
283.15
296.54
283.15
283.15
296.893
297.08
296.909
283.15
283.15
283.154
286.215
283.15
283.15
297.223
287.571
301.633
283.15
283.152
293.733
289.978
283.15
283.158
283.159
283.15
283.158
283.15
293.574
287.025
294.35
288.456
295.187
283.15
292
283.15
283.15
283.15
283.15
283.15
283.15
290.047
296.738
283.15
283.15
283.15
292.993
283.15
290.953
296.125
283.299
291.745
283.15
283.15
283.15
291.628
291.006
286.697
287.819
288.538
291.265
291.319
297.692
283.15
283.15
289.696
300.988
285.034
295.934
289.502
285.062
284.943
291.58
283.155
290.681
287.642
296.453
283.15
283.15
285.839
287.317
297.506
285.029
283.15
287.927
295.809
296.935
289.212
283.74
293.928
300.244
293.378
301.682
294.027
283.151
283.151
292.336
283.15
284.647
290.742
283.15
284.088
290.726
293.646
292.485
284.377
283.15
283.15
283.15
283.15
283.15
283.152
283.15
283.71
283.16
283.15
283.15
283.15
284.783
283.15
283.15
283.15
284.222
284.494
283.157
283.15
283.15
293.756
287.435
283.15
301.23
283.574
283.15
288.409
283.15
283.15
288.454
283.15
283.15
293.876
283.15
283.15
283.15
283.15
283.15
284.402
283.15
283.15
283.15
283.15
286.961
283.15
283.15
284.26
283.15
283.15
293.97
283.15
291.208
283.15
283.15
283.15
283.15
293.226
283.15
293.188
293.848
283.15
287.009
283.15
283.15
294.579
283.15
294.022
283.15
293.819
283.15
290.616
283.15
283.16
292.172
294.124
287.075
294.207
283.15
302.493
283.166
295.232
297.191
283.15
295.384
283.15
283.15
283.15
283.15
283.15
295.687
283.15
291.752
296.673
283.15
290.915
298.881
292.078
291.8
290.552
290.809
283.178
283.15
283.15
283.15
283.15
283.15
283.15
283.15
283.15
283.15
283.15
283.15
283.15
283.15
283.15
283.15
283.15
283.15
283.15
283.598
283.15
283.151
283.15
292.428
283.15
283.15
283.15
283.15
295.008
283.15
283.15
294.629
294.03
283.15
283.168
283.15
283.15
283.15
283.15
283.15
284.886
283.15
283.15
283.15
283.15
283.722
283.15
283.15
283.217
284.918
283.15
283.15
283.15
283.747
283.15
283.15
283.15
284.995
290.098
283.15
283.15
283.15
284.209
283.15
283.299
283.15
283.15
283.15
283.15
283.15
283.15
285.301
283.15
289.568
285.506
285.345
290.98
283.15
283.15
283.15
293.949
294.04
294.167
283.15
290.279
283.15
283.15
283.15
283.151
294.034
293.395
283.15
294.285
293.889
283.15
283.15
293.942
283.15
283.388
283.15
283.15
283.15
294.354
283.15
283.15
283.15
283.15
283.15
283.15
283.15
290.625
293.852
283.15
289.989
283.15
283.15
283.15
283.15
288.737
283.151
289.234
301.694
295.523
289.027
283.15
283.15
296.053
283.15
290.148
290.26
283.15
289.024
283.15
290.451
283.15
296.341
288.943
303.15
283.15
283.15
283.738
288.742
295.596
291.086
283.15
290.809
290.979
300.436
283.211
290.84
295.198
283.15
283.15
283.15
290.604
294.357
283.15
283.537
283.15
286.4
283.15
289.678
286.104
293.756
283.15
284.907
289.159
286.685
283.15
287.074
283.15
283.15
283.15
283.15
285.765
287.986
283.15
293.691
283.15
283.15
303.15
283.15
283.15
296.827
303.15
288.268
283.15
291.513
283.15
290.403
291.731
283.15
288.983
283.15
283.15
285.253
295.331
283.15
283.15
292.984
283.15
283.15
293.534
294.196
283.15
284.468
283.15
293.594
299.042
292.595
291.744
283.15
294.703
283.15
283.15
286.517
283.15
283.15
283.15
303.15
283.15
283.15
283.196
283.15
283.15
283.15
291.236
283.15
283.15
283.15
283.15
283.15
294.737
283.15
283.15
283.15
283.15
291.788
283.15
290.894
283.15
283.15
287.126
283.15
293.759
283.15
283.15
283.15
283.15
283.15
283.15
283.15
292.254
283.15
283.15
288.342
298.858
283.15
283.15
283.15
283.15
283.15
283.15
283.15
295.278
283.15
283.15
283.15
283.15
283.15
283.15
283.15
283.15
283.15
289.486
283.15
283.15
283.15
283.15
283.15
283.15
283.15
294.027
283.151
302.569
293.721
283.15
283.151
294.325
283.151
283.15
283.15
283.15
283.274
294.123
294.101
283.15
283.328
283.15
283.15
283.15
283.15
283.15
283.15
294.561
283.152
283.152
283.15
294.755
283.309
283.15
283.15
290.497
290.559
291.878
283.15
283.432
290.918
283.15
283.15
283.15
296.238
283.15
292.074
292.248
283.15
283.151
283.15
295.052
293.668
283.151
283.152
283.15
283.15
283.152
283.152
295.67
283.15
283.15
283.15
292.106
294.86
295.611
283.151
283.15
295.666
283.15
283.15
295.189
291.055
283.185
288.61
293.979
291.498
294.37
294.425
295.206
283.15
293.758
291.792
283.15
295.976
288.938
286.813
296.33
285.083
283.15
293.655
283.15
294.575
283.15
295.066
289.504
295.54
290.585
295.285
283.15
283.15
283.15
295.584
283.15
295.354
302.653
295.329
295.138
283.15
291.585
293.677
293.584
294.921
302.76
283.255
302.964
302.574
297.032
290.283
283.15
296.293
295.083
290.56
290.317
286.759
303.15
290.977
295.174
283.15
283.15
290.288
283.15
283.15