/*--------------------------------*- C++ -*----------------------------------*\
  =========                 |
  \\      /  F ield         | OpenFOAM: The Open Source CFD Toolbox
   \\    /   O peration     | Website:  https://openfoam.org
    \\  /    A nd           | Version:  10
     \\/     M anipulation  |
\*---------------------------------------------------------------------------*/
FoamFile
{
    format      ascii;
    class       volScalarField;
    location    "9.4";
    object      SgT;
}
// * * * * * * * * * * * * * * * * * * * * * * * * * * * * * * * * * * * * * //

dimensions      [1 -1 -3 -1 0 0 0];

internalField   nonuniform List<scalar> 
111485
(
6.14641e-18
9.47011e-06
2.87724e-05
3.37822e-19
5.90369e-05
1.02175e-18
5.54468e-05
7.22649e-06
2.30326e-05
1.44883e-06
5.5972e-05
1.12442e-05
5.76719e-06
1.05569e-06
7.8672e-06
3.63294e-05
1.69242e-06
0.00313152
1.24937e-05
2.55013e-17
4.00361e-19
6.31084e-19
3.1672e-05
4.13938e-05
1.06683e-05
2.08768e-19
4.76427e-05
2.18741e-06
1.79154e-05
4.8965e-19
5.51144e-05
2.27954e-05
3.65296e-18
4.51262e-18
7.91954e-06
3.79588e-17
1.32557e-05
5.01444e-06
4.77365e-11
2.84405e-05
2.71756e-19
8.50232e-05
1.89417e-05
1.74991e-06
7.35946e-08
1.80178e-16
3.60532e-05
8.52912e-07
5.66577e-05
4.19344e-18
3.13079e-18
6.99372e-18
2.15731e-18
6.16278e-05
6.21312e-18
5.25947e-05
3.7495e-06
6.22332e-18
2.5547e-08
5.71406e-06
1.91989e-05
6.40072e-18
5.7249e-06
0.000117683
2.77339e-18
3.78296e-06
0.000379735
0.000113116
1.32859e-06
7.23774e-06
1.85821e-08
7.76996e-06
4.73318e-18
3.47118e-06
3.88473e-17
8.48994e-07
4.23561e-17
5.00952e-05
1.06995e-17
2.98012e-17
2.90029e-09
3.99987e-05
4.88143e-19
4.23274e-17
1.11017e-05
4.65871e-06
4.40604e-13
3.05762e-05
7.24127e-08
8.79239e-06
3.25504e-07
4.92433e-05
1.41825e-05
7.14752e-08
6.28029e-05
6.85571e-18
8.64775e-19
2.14067e-06
3.20739e-11
1.36006e-06
5.1039e-17
2.1554e-05
1.12748e-17
2.1802e-05
5.5564e-06
3.7216e-18
1.67893e-18
9.04534e-06
4.86943e-06
7.46251e-11
6.65457e-06
5.78268e-06
4.47914e-06
3.80635e-06
2.90161e-18
4.04389e-08
2.94113e-19
6.78392e-17
1.54326e-05
1.258e-18
3.3959e-18
1.8915e-17
1.05636e-17
1.3177e-17
1.96073e-06
3.66456e-09
1.93658e-17
1.99621e-06
4.0234e-19
3.64542e-08
1.74382e-06
3.92479e-05
1.64649e-17
6.48052e-17
1.2311e-17
5.81839e-05
4.41108e-19
5.05902e-05
3.03156e-05
3.35595e-06
2.87915e-07
2.39823e-06
2.68209e-05
3.20379e-06
4.83702e-06
1.55287e-05
2.77088e-18
3.75611e-18
6.36684e-18
3.35621e-05
1.85064e-06
5.1568e-19
2.70472e-10
5.67667e-06
5.30533e-10
1.30815e-05
1.94895e-05
1.2923e-05
7.81426e-11
2.96065e-17
2.05366e-18
6.28392e-05
2.76953e-05
2.17683e-09
3.84169e-10
7.02969e-06
4.07778e-06
3.69988e-18
5.31111e-09
5.45799e-08
1.21297e-18
4.21887e-18
1.57703e-07
1.11505e-18
6.65928e-06
2.50314e-06
2.41256e-18
4.85598e-18
3.18499e-19
1.27413e-17
4.67263e-18
1.38741e-18
1.77465e-06
8.14912e-06
3.56766e-05
4.96092e-06
9.06979e-06
4.86015e-06
9.21081e-08
1.41214e-18
5.81603e-06
1.60087e-17
1.71673e-18
7.82992e-06
1.24921e-05
3.40904e-05
1.35175e-05
6.01249e-06
2.6918e-17
7.9905e-06
5.7953e-07
5.13516e-08
1.68648e-05
2.78952e-06
4.19326e-19
4.503e-06
3.08925e-05
1.22381e-17
1.93034e-07
9.32995e-06
2.38272e-06
4.29541e-07
1.45561e-17
1.91232e-18
1.0001e-05
1.27855e-14
0.000144816
3.66919e-18
8.02887e-06
2.45647e-05
0.000144087
4.22442e-17
3.85056e-06
1.64842e-05
2.8841e-16
4.89215e-19
9.22691e-19
0.000180683
3.13281e-10
1.60149e-17
2.10748e-19
1.16812e-05
9.2915e-06
1.82422e-05
7.7645e-18
1.04734e-17
1.70503e-08
7.69066e-18
2.94753e-06
1.11193e-05
1.92682e-05
1.40834e-05
1.19204e-05
6.94997e-19
3.01273e-10
7.47677e-07
9.75427e-18
2.4669e-18
3.65712e-05
2.47631e-05
7.58673e-18
7.65142e-06
1.28287e-05
2.95915e-19
7.44012e-17
1.62079e-07
1.96208e-18
1.49175e-17
5.27823e-08
1.25207e-19
1.78374e-05
1.29641e-05
4.44572e-06
2.15044e-16
1.39757e-05
7.12443e-21
8.37076e-19
2.05709e-17
2.37131e-11
2.76438e-05
7.50016e-06
6.44241e-06
4.37629e-05
1.48274e-05
1.89544e-06
6.6319e-07
3.88609e-05
1.05776e-05
7.71301e-18
9.49694e-18
3.00556e-10
2.68994e-05
2.927e-05
1.42993e-05
2.7513e-18
8.37152e-06
2.48946e-06
3.63737e-06
4.16602e-09
4.21785e-09
1.62814e-05
2.69667e-06
2.386e-06
1.28776e-17
7.71323e-07
2.44033e-18
2.09273e-10
3.38642e-16
0.000286341
8.1137e-05
1.43522e-05
2.05882e-18
7.3231e-18
1.0708e-05
1.95181e-06
3.64378e-18
3.31169e-19
1.84349e-18
3.68006e-07
6.97427e-05
4.72368e-06
1.62759e-05
2.27291e-05
1.98455e-17
1.88029e-18
6.48594e-18
4.55908e-06
2.28309e-15
1.21085e-06
0.000220763
3.65843e-10
1.31685e-17
1.10959e-18
6.58115e-19
1.03019e-17
7.17131e-05
1.43035e-05
6.02674e-18
6.27251e-06
4.57717e-18
6.06601e-18
8.30834e-05
7.0313e-06
1.3412e-05
1.12083e-05
2.23044e-17
9.42717e-18
1.07955e-17
1.12748e-05
2.22042e-05
6.18743e-06
6.81565e-18
3.59922e-13
1.876e-07
2.60998e-06
9.56076e-06
4.10153e-08
3.3968e-05
1.05796e-17
4.46863e-05
4.24528e-06
9.36525e-06
3.00682e-05
1.61764e-05
1.66671e-17
3.98285e-17
4.40873e-18
2.81048e-18
3.74374e-05
1.16278e-05
3.94589e-05
8.05068e-05
3.80282e-18
2.23121e-05
3.06991e-19
7.42361e-18
2.00672e-05
1.48974e-17
9.27374e-05
9.22328e-17
4.46581e-18
2.76975e-05
2.69334e-18
1.62552e-05
3.27996e-07
6.64828e-19
1.19999e-06
1.96925e-05
2.18347e-18
1.07415e-05
1.09696e-05
9.7749e-06
7.97084e-07
3.21229e-06
6.63883e-06
4.17562e-18
7.73684e-18
2.25238e-06
4.2524e-17
7.42792e-06
0.000142223
2.34338e-18
3.91016e-17
3.24291e-05
1.36767e-07
9.89562e-06
2.56252e-05
5.11824e-19
5.4708e-05
2.29452e-05
1.25375e-18
9.98878e-07
2.90315e-06
5.23643e-18
6.78818e-20
1.31979e-05
6.30334e-06
3.24108e-18
1.12843e-19
4.25681e-11
2.42219e-19
1.45014e-05
2.2042e-18
1.97493e-18
2.03814e-05
2.01074e-09
1.43522e-05
3.60961e-05
4.90333e-18
1.93036e-17
1.79502e-06
5.83405e-19
1.79686e-07
1.70066e-05
0.000147104
0.00101101
4.05268e-19
3.29727e-06
6.18027e-07
7.95311e-19
4.7047e-05
3.78304e-05
1.47716e-16
8.47131e-12
1.08242e-07
1.0206e-17
2.91572e-05
2.88994e-05
1.67788e-05
2.79931e-17
7.96471e-07
2.15824e-05
2.73403e-05
9.86181e-10
2.74936e-18
7.75444e-13
9.10521e-18
1.55355e-08
3.73028e-05
5.04938e-18
1.00652e-05
1.14358e-07
5.75839e-17
1.08845e-17
3.00158e-18
3.31493e-18
4.78946e-06
1.14779e-05
7.84741e-06
2.47669e-06
3.21147e-06
2.18086e-17
2.31942e-06
1.07419e-17
4.91443e-05
1.77191e-19
1.88497e-18
1.62936e-18
4.38834e-05
6.20295e-19
5.0407e-18
1.99984e-10
3.06142e-19
2.85105e-18
1.26131e-06
1.70106e-17
1.05028e-16
5.10267e-18
2.37219e-18
3.56559e-18
7.32992e-18
1.5916e-17
8.39673e-06
1.49805e-17
6.48012e-07
2.2934e-06
1.08142e-06
1.50762e-18
1.02841e-06
4.3027e-18
1.15319e-19
3.3611e-06
2.16225e-06
3.27332e-05
3.01738e-05
6.11357e-18
2.46363e-06
9.86506e-05
1.02255e-05
1.21782e-06
3.94057e-06
3.03851e-18
2.7725e-05
6.69799e-18
6.02795e-06
1.34851e-17
9.17144e-05
1.00906e-17
2.57653e-05
2.95223e-07
6.28279e-10
1.37102e-17
2.45039e-06
2.64818e-18
9.5676e-05
5.88627e-05
7.37936e-18
8.4433e-18
1.53793e-18
5.2709e-18
1.69605e-12
6.50573e-05
2.32427e-18
1.23893e-17
2.90277e-06
3.51633e-18
4.05868e-05
1.5107e-17
3.75437e-07
6.30931e-18
5.82041e-07
1.31506e-09
1.18806e-06
1.56663e-05
5.39108e-18
5.00521e-07
1.99162e-18
1.73557e-18
1.80387e-05
1.68075e-17
3.61014e-08
5.44289e-19
1.93154e-06
7.07827e-18
7.77776e-05
1.37267e-18
2.87735e-18
2.14508e-05
4.00578e-06
2.10946e-06
4.72069e-06
8.26557e-06
2.48033e-05
7.76609e-19
3.01306e-05
7.36039e-06
3.3467e-18
9.57938e-11
4.83697e-05
1.82661e-05
4.11075e-19
4.66068e-06
8.03087e-06
2.08038e-06
1.23922e-06
2.81806e-13
1.62642e-05
1.47685e-06
1.54891e-07
2.84131e-05
1.63508e-05
7.32886e-07
8.49826e-18
4.02803e-12
0.000780118
5.83422e-19
4.13591e-07
3.33565e-18
1.24706e-18
8.81193e-06
3.36874e-06
2.70197e-10
1.88195e-08
5.77477e-18
1.96578e-05
1.32848e-05
4.41805e-18
1.84169e-13
2.30086e-06
7.54598e-18
4.74368e-18
1.94103e-18
4.21363e-18
1.56273e-05
1.0518e-18
3.84204e-17
1.04564e-05
2.3151e-06
3.67975e-17
1.27685e-05
1.30433e-17
1.01237e-05
2.50215e-19
2.33614e-17
6.3253e-05
4.4321e-18
2.76793e-18
4.45849e-19
5.22824e-06
1.86909e-17
3.45672e-05
7.48825e-06
2.7484e-18
0.000105747
2.9111e-06
3.43018e-05
3.38315e-05
5.4195e-07
9.31373e-08
4.79212e-18
6.49671e-05
5.59633e-05
7.04124e-17
3.88104e-07
4.79378e-05
9.37821e-06
1.69437e-06
3.29597e-05
3.12133e-05
2.311e-17
1.29349e-05
6.656e-09
1.43749e-17
4.14979e-05
3.10533e-07
6.12439e-17
1.30062e-05
4.85712e-05
1.61595e-06
2.5574e-05
2.35782e-05
8.38021e-06
3.1184e-18
1.23283e-05
3.837e-07
4.86727e-15
2.06029e-05
2.14617e-05
4.30622e-05
7.37886e-18
2.24246e-06
1.07181e-18
3.62455e-18
2.83381e-18
2.01646e-18
1.66355e-08
8.83903e-18
3.52687e-13
6.80222e-18
1.48045e-18
9.29711e-08
5.20525e-05
2.4515e-19
3.77264e-05
4.92542e-18
3.7308e-18
2.09566e-18
4.65104e-05
4.78854e-07
1.52577e-17
3.31134e-16
1.7511e-18
4.23435e-18
0.000249501
8.2904e-05
4.69209e-18
2.37481e-06
2.47292e-09
1.63642e-17
4.47104e-05
1.00608e-05
1.44273e-05
3.40213e-18
3.24677e-18
5.13206e-07
1.30318e-06
1.91793e-18
2.38667e-18
1.10537e-17
8.74771e-06
6.26965e-19
2.68134e-17
2.50124e-18
5.00983e-05
2.44154e-06
1.23983e-18
0.00463303
0.000404735
1.20878e-05
1.62737e-18
5.4087e-18
6.57229e-05
4.99273e-07
5.69248e-18
6.03425e-09
0.000136753
2.91631e-06
1.34092e-05
3.6941e-18
6.32728e-05
2.23989e-06
5.97101e-18
6.98001e-18
2.49464e-18
9.12223e-18
6.63442e-18
1.53761e-17
2.64498e-05
3.59631e-18
7.2345e-18
1.72042e-18
1.3712e-05
2.76362e-05
1.12766e-18
1.74112e-18
0.000127054
1.72301e-05
1.14292e-05
1.0737e-17
1.42782e-19
4.46538e-05
1.25992e-18
2.08634e-06
3.10493e-06
4.59051e-06
5.62719e-18
3.82336e-18
1.1289e-18
1.18918e-18
1.78668e-05
3.18013e-18
1.98038e-19
1.21945e-06
2.24882e-18
2.75865e-05
2.24568e-06
1.44378e-18
4.42967e-05
0.000429995
3.04603e-06
3.4727e-05
1.69065e-07
5.29329e-05
1.11494e-13
3.06335e-17
2.82502e-05
8.26519e-05
7.23699e-06
2.244e-18
7.27632e-13
0.000901208
1.20868e-05
2.21422e-18
2.94298e-06
3.0405e-06
1.40052e-06
9.12621e-18
3.603e-18
1.13307e-16
1.58366e-05
4.58082e-18
3.10436e-06
8.36387e-18
1.51345e-06
1.68989e-06
4.40083e-05
6.51413e-07
1.46339e-18
6.01039e-19
4.06252e-18
2.46932e-05
4.89547e-19
9.63284e-18
8.49567e-08
2.98118e-18
8.09317e-19
4.29497e-18
8.21635e-19
1.20794e-05
1.08224e-17
5.29823e-18
5.21661e-13
4.57854e-18
1.2184e-17
1.29998e-17
3.04389e-18
3.34757e-09
1.92173e-06
1.10743e-18
4.77076e-06
7.73954e-09
3.40034e-10
7.28661e-08
4.83573e-06
9.64686e-18
1.12929e-08
1.18317e-05
4.76212e-07
8.83232e-18
3.95986e-12
1.02087e-06
1.63604e-17
1.16854e-05
2.17388e-07
1.93907e-09
2.80141e-05
1.11946e-05
2.69837e-06
5.93892e-06
2.40143e-06
9.5793e-18
1.26944e-17
3.9532e-05
3.1418e-05
3.25803e-17
1.00024e-05
6.42778e-05
3.40133e-05
6.84119e-18
1.51195e-06
7.76843e-18
1.23521e-05
1.66201e-05
7.08964e-18
1.89053e-06
5.5086e-07
1.41843e-09
5.91158e-06
6.28115e-18
5.84504e-05
1.76511e-08
1.77039e-06
3.77745e-08
1.38938e-08
7.40784e-19
1.39868e-17
8.31329e-06
9.22118e-19
1.42864e-07
2.97794e-07
3.34989e-07
6.58885e-11
8.44597e-11
3.16731e-10
1.72023e-18
4.62878e-17
2.77251e-05
1.28656e-16
1.35279e-07
2.42036e-06
8.0066e-17
5.84208e-18
7.68311e-10
1.1081e-12
1.89463e-18
6.01398e-09
1.32791e-17
7.75174e-18
6.54592e-18
5.02781e-19
1.92256e-17
4.17427e-18
3.27143e-07
5.62701e-18
7.10493e-18
3.94202e-17
7.68721e-09
6.23196e-08
2.14451e-06
1.12192e-05
4.73581e-19
8.43878e-18
2.00323e-07
3.04249e-18
5.38929e-18
1.54422e-16
2.20932e-05
5.05659e-05
1.60567e-17
3.01164e-19
1.18087e-18
2.47803e-18
1.22792e-18
5.41544e-18
8.27542e-06
2.0998e-18
6.40245e-11
3.1962e-05
4.29273e-18
5.89227e-18
7.39213e-18
3.34027e-08
1.13256e-18
3.0154e-18
1.28318e-17
1.11908e-08
8.78613e-18
5.17666e-06
1.10278e-09
6.87963e-12
4.57182e-19
9.04721e-08
2.34269e-06
5.26284e-05
6.78104e-18
1.02593e-08
6.70198e-06
1.00648e-18
1.45841e-18
3.39824e-17
5.08815e-18
1.0073e-05
1.94803e-06
3.88171e-06
2.11053e-10
8.6226e-19
2.60721e-05
5.33945e-18
1.10075e-18
1.72225e-17
6.48304e-18
3.16252e-05
3.09561e-17
9.37805e-18
2.03e-09
6.14641e-05
1.09679e-17
2.84426e-06
1.774e-17
9.7889e-07
5.77587e-18
9.63246e-19
7.80952e-18
2.69548e-19
2.90662e-06
7.10232e-07
0.000358572
1.00281e-18
3.65749e-18
2.36246e-06
2.25043e-18
4.02562e-17
3.33988e-18
4.36529e-05
1.14518e-08
3.87164e-05
3.69903e-18
1.26534e-08
5.91821e-08
4.34586e-18
1.50908e-07
4.36281e-18
1.42512e-06
3.01663e-05
2.44486e-05
1.43361e-06
2.81289e-07
3.22185e-18
2.6658e-20
8.71259e-18
2.63077e-08
4.86808e-18
8.97815e-06
3.09321e-17
0.000210162
1.05663e-18
4.91145e-05
3.71273e-06
1.22654e-17
3.72087e-18
1.91668e-18
1.21142e-17
4.95808e-05
1.46691e-17
1.2525e-17
1.41162e-05
8.21405e-06
6.96648e-18
1.60393e-17
2.92606e-17
1.67889e-17
2.92422e-17
5.13047e-19
3.09739e-05
4.94092e-07
4.4547e-18
2.27395e-18
6.37361e-10
1.35262e-17
1.8983e-06
1.27539e-07
5.05089e-18
4.20686e-06
1.24758e-18
4.5598e-07
2.84991e-19
1.32666e-06
3.63092e-18
8.70702e-11
2.55083e-09
7.45681e-07
2.16959e-05
4.07663e-05
1.40388e-09
2.53567e-18
6.14755e-07
1.09476e-18
5.49895e-06
3.90704e-18
4.80565e-18
2.17311e-17
5.16366e-18
7.12972e-18
3.48526e-17
8.62225e-06
9.75061e-06
4.84736e-19
9.22328e-18
1.70229e-18
9.15469e-07
1.57878e-08
9.197e-19
2.16736e-05
2.1366e-07
3.70483e-18
2.79414e-05
9.82208e-06
4.31444e-06
1.36356e-05
1.25516e-18
3.01276e-17
2.13523e-17
3.66644e-18
4.4158e-05
2.04396e-17
0.000136783
2.06958e-19
3.82926e-07
8.70661e-07
3.72068e-18
1.15068e-06
1.56737e-18
1.24477e-18
3.68962e-06
2.61165e-11
1.14539e-05
2.03102e-18
7.54678e-18
1.8453e-19
9.99007e-07
1.11531e-17
1.3813e-18
1.13493e-17
3.31531e-10
7.49123e-19
7.91661e-09
9.87012e-19
7.73398e-18
2.51994e-18
2.16871e-05
1.18615e-05
2.19099e-05
4.31891e-05
3.30544e-17
1.97128e-08
3.95993e-18
5.01268e-18
1.17212e-05
2.63579e-19
2.62922e-09
4.33553e-07
7.91871e-06
4.32298e-07
1.29717e-12
2.25149e-06
1.30265e-18
1.47544e-12
4.92255e-13
1.50258e-07
9.31919e-07
1.77383e-05
7.62724e-11
1.48645e-18
3.62723e-05
1.96069e-18
4.69803e-18
1.63403e-08
8.98419e-05
6.66051e-11
2.29347e-18
4.22653e-18
3.61167e-10
2.65173e-18
6.51433e-18
2.16787e-08
1.6709e-17
6.83221e-19
4.84388e-05
2.70773e-07
2.14706e-07
2.70875e-05
8.68981e-06
1.55945e-18
8.30188e-18
2.21471e-08
4.81694e-06
1.3685e-17
9.35959e-18
1.1476e-05
3.19243e-18
4.61571e-18
3.88857e-18
1.87097e-18
3.84231e-16
0.00308671
4.16022e-18
2.59712e-07
1.50418e-19
2.53961e-05
2.07129e-18
1.03183e-15
1.04797e-18
8.60662e-18
8.71724e-18
2.2754e-17
3.33345e-06
2.75763e-18
1.29675e-17
9.49191e-18
1.45334e-18
9.49026e-19
1.21998e-17
1.16834e-05
4.23359e-17
1.32774e-05
3.70128e-06
3.22728e-19
1.94085e-06
4.89117e-18
5.93145e-07
2.39198e-09
4.55817e-06
1.56243e-05
3.54624e-19
1.09102e-07
9.25785e-06
1.12734e-08
8.15156e-18
3.15169e-09
2.22851e-05
5.64558e-06
5.78235e-18
3.103e-05
8.41081e-18
4.39171e-18
7.02181e-18
3.05329e-18
9.74365e-06
1.82045e-17
1.02134e-18
9.8397e-06
3.9339e-10
3.22449e-06
2.86028e-18
1.40208e-16
8.02954e-07
1.06248e-18
8.00646e-08
1.63372e-17
2.78595e-05
1.98633e-18
1.25928e-18
6.7089e-08
8.44856e-19
1.65233e-07
8.77217e-18
4.34157e-18
5.72954e-06
5.08557e-07
5.6632e-06
1.84463e-05
0.000263767
2.43473e-05
2.37672e-18
1.69221e-17
3.57334e-06
8.00788e-06
4.36163e-05
1.27713e-05
4.57295e-19
1.45145e-05
9.61423e-19
7.17717e-19
1.09098e-05
1.31146e-05
3.84593e-18
1.57156e-05
7.63989e-18
3.25509e-06
1.04174e-05
2.70368e-17
1.12396e-18
1.08741e-18
3.35978e-06
5.42967e-17
1.17068e-17
5.00235e-06
2.53348e-05
4.23658e-09
8.858e-06
1.87682e-18
2.64679e-18
9.96871e-08
9.09039e-07
2.81465e-19
1.24126e-05
6.30891e-17
3.15908e-06
1.6599e-17
2.08878e-18
1.47317e-05
4.92462e-18
4.54654e-08
4.34318e-06
4.18971e-18
2.64563e-18
5.29156e-06
6.49934e-14
6.22091e-05
5.24716e-19
0.000306448
6.00854e-19
5.41757e-17
7.24559e-18
8.97234e-06
7.47072e-18
6.37721e-18
6.65345e-06
2.26165e-17
2.91626e-07
2.15968e-18
2.05312e-18
6.42624e-18
1.25361e-10
9.16805e-07
1.2693e-18
2.11191e-18
4.16446e-05
1.1114e-06
4.01565e-18
5.16012e-07
1.54434e-17
2.15464e-18
1.97475e-09
3.09599e-06
1.57014e-06
1.43208e-18
4.0058e-19
1.22589e-17
7.31021e-18
3.28679e-17
2.31396e-18
5.73324e-19
5.01692e-19
1.81879e-17
2.13164e-18
1.09534e-18
2.85261e-18
8.84507e-18
3.09911e-18
8.11691e-19
1.20268e-18
2.77665e-18
9.12118e-18
1.35464e-17
9.6813e-19
4.57037e-18
2.06774e-05
4.37266e-17
2.01476e-19
6.4725e-18
7.88572e-06
3.34336e-17
1.09232e-18
0.000346255
5.04595e-19
1.5193e-18
2.75012e-05
4.39362e-15
4.99132e-18
9.16331e-06
2.91655e-05
9.51945e-19
3.30431e-06
4.9283e-06
1.60591e-17
1.58507e-05
4.68703e-05
2.12459e-05
4.03115e-06
1.27529e-05
9.78415e-18
1.13902e-18
3.49125e-06
1.22244e-05
3.82737e-06
1.0103e-17
7.83254e-06
2.10357e-06
2.54795e-05
1.2075e-05
8.27091e-07
1.86241e-05
1.25129e-06
1.21151e-05
9.75142e-17
2.92508e-05
1.00336e-05
1.94356e-06
1.63185e-06
7.05682e-18
5.24633e-18
1.0822e-18
2.07462e-18
4.15123e-18
1.06439e-05
1.61554e-05
2.20345e-18
1.44811e-18
2.97152e-17
2.71053e-18
4.6442e-18
4.60196e-19
3.17053e-18
9.38133e-18
5.41048e-06
2.20906e-07
2.58385e-05
8.01249e-08
1.55757e-18
1.87756e-17
3.63046e-05
8.53506e-09
4.7586e-18
2.00117e-17
8.61097e-06
4.9092e-17
1.28505e-17
3.87858e-09
9.32579e-06
1.59893e-05
4.00379e-05
4.06582e-05
1.23755e-18
1.65935e-05
3.96806e-07
4.3963e-18
1.6693e-18
1.40575e-05
3.6101e-18
3.35779e-18
1.93914e-05
0.00124303
2.07322e-07
1.0478e-17
1.70667e-17
2.09046e-05
2.37031e-05
2.07594e-05
6.82488e-06
5.00026e-06
2.71197e-19
1.27495e-09
3.162e-12
5.47968e-17
1.94563e-17
2.04244e-05
2.26245e-18
2.35752e-06
2.95816e-05
2.07796e-05
1.36209e-05
6.91062e-19
7.19107e-06
8.06025e-18
7.65466e-18
3.01748e-18
7.43354e-20
2.8788e-06
0.00104185
3.69101e-18
7.83e-18
3.76889e-09
2.71031e-05
1.3693e-06
8.14139e-06
3.85287e-05
5.64693e-06
2.44108e-05
3.00621e-18
2.13793e-18
2.62629e-18
3.51317e-05
6.67931e-06
3.25302e-11
1.07289e-17
7.91244e-19
2.50112e-17
2.61696e-05
3.29327e-06
9.03246e-19
5.76384e-06
6.85526e-05
7.80872e-06
7.21108e-06
7.86729e-19
2.04637e-17
8.12652e-06
2.63617e-05
4.28522e-18
3.98891e-07
1.72513e-05
1.17911e-06
1.06571e-05
5.45768e-06
9.43725e-06
4.81067e-17
3.86708e-06
2.4194e-05
4.23858e-05
5.07672e-13
2.65434e-05
3.2578e-16
1.90637e-05
1.86654e-07
3.88415e-17
3.00071e-06
8.84744e-06
4.47818e-07
1.33726e-05
1.8054e-10
1.49858e-07
1.67882e-08
4.83901e-05
4.26991e-06
1.04888e-17
4.46537e-05
1.52026e-06
1.01237e-18
2.99358e-18
4.84341e-11
1.27301e-08
1.20683e-06
0.00128037
4.06406e-05
1.42298e-05
2.3889e-10
5.21101e-05
3.50065e-18
1.07742e-17
4.51949e-06
1.36493e-17
2.46376e-06
4.83891e-06
2.5334e-06
5.33306e-06
1.98578e-19
2.35753e-07
0.00012498
7.90911e-19
2.13504e-05
8.69283e-06
6.49256e-18
4.67416e-06
1.52184e-07
8.15806e-19
7.53698e-12
1.05623e-07
4.05002e-18
6.28443e-18
3.54805e-17
5.06056e-06
5.69633e-06
1.63443e-05
3.08489e-17
5.72139e-06
3.81808e-05
4.91072e-19
9.26403e-06
1.43064e-05
2.78279e-05
1.77651e-06
9.35807e-18
6.7245e-07
1.08372e-05
1.20405e-05
1.04322e-05
4.28082e-05
0.000189067
3.88231e-06
4.71011e-18
8.7322e-09
5.76e-05
4.86934e-18
4.90121e-07
2.75292e-17
1.4142e-18
1.55991e-17
2.60604e-18
2.04471e-19
3.70541e-06
5.2252e-18
8.27709e-06
1.30849e-06
7.9826e-18
4.31508e-06
4.12376e-18
1.60461e-05
3.5831e-18
2.62452e-08
1.55612e-17
2.5166e-05
1.8247e-07
2.92202e-09
4.85053e-06
3.27369e-05
1.91211e-05
4.42112e-06
3.10695e-05
7.01989e-15
2.60009e-05
6.17482e-05
1.08401e-05
5.42256e-17
1.25823e-06
2.9526e-07
6.42642e-06
1.16687e-05
6.89799e-07
2.17644e-17
1.2153e-17
5.85342e-19
4.07397e-06
8.14331e-18
3.48843e-07
2.4849e-07
1.83332e-06
3.22348e-07
2.33414e-18
1.80086e-17
5.9649e-18
1.00025e-05
2.46442e-05
1.37165e-06
1.1058e-08
2.14053e-06
7.85346e-06
2.23826e-06
8.97516e-07
7.5609e-06
6.87772e-06
3.02532e-06
1.38922e-17
2.7142e-18
1.14695e-16
1.49019e-05
1.21982e-05
2.62886e-18
6.75432e-18
4.17214e-17
9.52738e-06
2.11742e-05
2.74922e-18
2.49191e-06
8.02183e-19
7.00747e-10
5.30092e-06
0.00010158
3.95261e-19
1.49552e-19
4.08993e-06
1.32564e-18
6.6696e-08
1.33708e-05
1.5688e-17
1.22579e-05
3.70631e-05
2.10584e-05
5.20753e-19
1.55763e-06
1.7757e-18
9.765e-08
5.54111e-05
6.14038e-18
2.82115e-18
1.22292e-05
2.33264e-16
4.73676e-18
5.07496e-08
1.08588e-06
8.08883e-19
7.4004e-19
1.53342e-17
7.03027e-08
1.39565e-06
3.48592e-06
2.93148e-05
1.0364e-05
6.04033e-18
8.09785e-10
7.53241e-07
1.65088e-18
2.43134e-18
2.33764e-18
1.74774e-18
8.12288e-19
1.15342e-17
3.0971e-17
1.0787e-18
1.48814e-17
1.17537e-17
2.71314e-12
8.35424e-18
3.82036e-07
6.93984e-18
2.72208e-07
9.37142e-18
6.91448e-08
2.29639e-17
5.15828e-18
3.2324e-05
1.01907e-05
1.76818e-17
0.00010034
1.25454e-11
4.24582e-13
1.03329e-20
1.50197e-06
1.01018e-14
3.09999e-06
7.4667e-09
9.52466e-07
3.69442e-18
8.19583e-19
1.03702e-06
2.65137e-11
9.68704e-19
5.51601e-17
4.38145e-05
1.02674e-17
4.15441e-05
8.85985e-18
2.38378e-18
2.00231e-09
3.17276e-05
8.97413e-06
1.97225e-18
3.59053e-07
2.99642e-18
3.70912e-06
2.07734e-08
2.0212e-06
1.07951e-06
3.2155e-18
2.29419e-05
1.34912e-06
5.83986e-06
1.01691e-18
1.92047e-19
1.91247e-18
2.20405e-05
4.42088e-06
5.86566e-05
6.6962e-18
5.33388e-10
1.59031e-18
1.67333e-18
5.80335e-19
3.43607e-18
3.71117e-06
2.52245e-06
3.38562e-06
0.000359218
2.80709e-16
3.06142e-05
4.0192e-05
1.94801e-05
1.97559e-06
5.334e-18
5.87755e-06
5.1581e-06
6.90749e-06
3.66197e-10
1.13746e-05
3.17305e-19
1.69796e-06
1.43471e-06
3.67577e-05
1.32248e-09
3.79408e-06
1.83369e-19
2.12149e-05
1.16784e-17
3.15585e-18
1.85496e-06
1.47451e-19
6.85686e-06
1.73017e-18
1.31355e-18
4.02171e-17
6.05509e-20
7.46209e-18
9.14245e-07
7.40016e-19
6.09071e-07
3.82797e-18
7.92406e-18
2.00187e-05
6.08053e-06
8.9448e-06
8.32015e-06
1.70713e-18
0.000665178
4.24508e-18
7.83217e-05
1.06481e-17
1.98919e-05
2.69818e-05
2.69234e-06
6.37799e-05
2.33087e-17
4.56053e-17
1.61929e-18
2.43872e-06
1.85091e-17
1.08683e-18
1.98396e-05
1.23835e-17
4.34518e-18
6.10177e-06
6.92166e-18
1.42845e-05
7.9516e-11
6.2981e-19
4.13471e-18
1.00307e-17
1.82134e-06
7.65308e-06
1.91869e-18
2.56206e-05
3.89761e-07
6.26403e-18
0.000117
1.39812e-17
1.76556e-05
2.02644e-05
4.03605e-06
3.41033e-18
2.01033e-05
1.10113e-05
9.7471e-07
6.07934e-06
1.4303e-05
6.5928e-19
1.14697e-17
2.0411e-09
2.58257e-18
2.90184e-18
2.62863e-18
2.20217e-05
5.11202e-05
5.01716e-06
2.47727e-06
2.76758e-18
5.68984e-05
5.18327e-05
4.78864e-06
2.72623e-06
1.06039e-05
2.36613e-05
3.07319e-06
3.05144e-18
1.46289e-17
6.31908e-19
7.94633e-06
3.63894e-18
2.79029e-05
1.85478e-17
8.46242e-07
6.55432e-10
2.89058e-06
2.511e-05
1.74796e-17
2.80124e-18
2.83391e-06
4.16881e-07
1.42082e-18
4.32997e-18
1.6338e-17
3.84721e-08
3.66801e-07
1.68403e-07
9.46135e-07
1.14925e-05
9.80051e-05
8.03105e-18
1.24431e-17
1.8062e-17
4.22473e-06
2.00468e-05
2.26577e-05
3.9955e-05
1.98343e-06
3.3867e-06
5.74625e-18
2.59341e-18
1.26432e-16
1.73351e-18
1.07027e-05
2.56273e-05
8.40367e-18
8.02457e-18
3.9451e-18
7.97441e-17
4.44607e-17
1.75246e-17
1.57734e-05
3.07022e-17
1.08956e-06
0.000467401
2.92718e-18
1.57539e-08
2.6084e-05
8.62996e-07
1.30848e-18
9.84707e-18
5.6546e-06
2.55372e-18
1.62964e-05
1.1768e-09
2.7816e-05
1.01793e-17
2.08667e-15
1.75674e-18
1.02235e-18
2.74243e-18
1.34203e-17
0.000225141
1.33472e-18
6.83057e-06
1.37915e-06
6.70678e-18
4.14537e-18
2.22642e-06
2.21542e-18
7.0609e-19
1.29195e-05
1.53447e-07
6.58369e-18
7.00891e-18
1.92837e-18
1.92207e-05
1.13854e-18
2.95665e-18
4.79662e-07
3.02512e-06
3.54341e-06
1.08914e-18
1.54652e-18
2.72862e-17
4.40121e-06
2.13757e-06
1.50078e-05
4.29486e-06
4.48442e-18
9.20583e-07
1.35308e-05
7.40931e-06
3.98351e-19
6.23669e-18
4.72804e-19
5.94398e-17
1.04093e-18
3.57681e-05
5.99777e-06
6.39186e-06
1.89455e-17
1.42703e-17
3.17764e-18
5.54512e-19
3.01738e-18
1.13467e-09
2.77995e-07
2.56655e-06
4.38503e-18
8.4163e-19
1.31868e-17
2.63917e-12
4.0003e-05
0.000131355
5.6108e-18
8.64832e-13
2.39639e-14
3.46328e-19
2.35625e-19
4.39953e-06
7.53279e-06
2.91628e-18
3.6318e-18
3.34001e-06
9.53652e-19
8.11471e-07
1.25427e-06
0.00240794
1.11271e-18
1.31739e-18
1.39782e-05
6.15349e-07
1.42883e-17
0.000765375
6.90376e-07
7.24573e-06
2.40286e-18
1.77191e-18
6.72234e-17
1.02885e-18
9.30852e-06
1.04867e-07
1.74676e-18
2.93088e-05
2.20905e-05
0.000994133
1.06148e-17
1.53153e-19
2.16514e-18
2.11375e-18
7.55669e-06
7.91384e-11
6.51325e-19
1.09179e-17
2.1596e-05
1.07062e-06
5.54949e-06
4.64629e-18
1.33723e-17
3.3155e-05
2.66906e-18
2.8623e-18
8.23456e-19
3.03002e-18
2.48331e-05
1.4001e-18
9.7746e-19
6.59686e-18
2.89408e-05
1.38383e-05
2.46134e-18
9.04361e-18
1.25466e-18
1.75403e-05
2.14049e-10
1.58679e-18
1.60181e-18
8.92655e-19
9.86577e-19
2.76241e-06
1.26782e-05
2.22632e-17
2.32384e-06
1.28712e-06
5.52451e-06
7.89444e-16
5.61654e-17
9.84062e-18
1.76685e-17
3.12948e-19
2.23884e-05
9.75072e-18
1.65403e-05
5.20297e-18
1.76728e-06
2.40235e-17
2.75361e-06
4.35349e-18
1.02331e-17
1.23846e-05
0.000189031
7.51993e-18
4.13671e-06
8.96789e-19
4.49164e-07
6.13669e-17
1.00003e-18
3.57608e-19
1.44606e-10
1.07389e-18
3.50113e-07
2.73411e-18
4.02756e-05
1.83819e-17
2.58401e-17
6.15118e-18
6.66963e-18
8.97689e-09
1.53844e-07
5.50017e-18
6.48563e-06
1.13228e-18
3.15179e-06
2.12172e-05
1.45436e-06
1.46257e-17
5.37103e-09
5.04415e-07
2.48921e-09
4.78968e-06
3.72463e-10
1.92234e-06
3.49257e-18
2.68125e-18
4.99419e-10
6.54897e-06
2.72133e-07
2.67801e-18
1.51246e-17
9.29355e-18
0.000661581
2.30091e-18
1.88286e-18
7.54062e-18
8.48021e-18
8.24476e-18
3.34619e-08
2.03874e-07
1.17438e-06
7.88026e-08
1.24912e-15
1.69662e-06
2.87187e-18
6.3136e-06
1.70398e-17
4.98986e-18
2.79442e-18
3.41693e-18
2.11391e-08
1.01093e-17
5.99093e-17
1.40069e-18
1.64235e-05
4.42832e-18
1.89017e-18
1.25638e-05
4.67814e-18
8.43403e-05
0.000143306
0.000646022
2.48873e-17
0.000229584
0.00131383
0.00132159
0.000738124
6.91586e-18
1.47664e-18
5.46513e-06
5.22291e-06
8.29878e-18
1.09805e-05
4.85544e-18
3.61352e-05
6.6013e-18
5.69149e-18
8.0521e-07
2.26575e-18
1.08422e-18
1.1668e-08
4.57183e-08
3.55241e-18
8.4743e-19
3.23032e-09
7.84481e-18
2.58222e-18
2.2311e-08
9.38554e-06
1.71408e-06
6.55385e-18
8.82274e-06
2.62092e-18
3.97567e-06
4.63021e-10
8.2585e-06
6.88084e-18
1.79181e-11
6.38144e-06
1.37164e-18
1.75245e-12
6.50566e-19
3.60085e-05
6.45462e-18
1.08225e-05
2.56715e-19
2.70261e-10
1.67808e-18
1.41394e-18
1.28642e-18
9.4506e-13
5.48009e-13
2.37514e-18
1.35962e-05
1.03149e-05
7.32742e-17
5.19375e-18
3.659e-05
1.92583e-05
0.000205847
1.20076e-17
7.63683e-08
2.78271e-05
5.11527e-05
6.89108e-11
5.68645e-17
6.38998e-05
4.21928e-18
0.000253483
5.12562e-19
4.27843e-11
4.03873e-11
5.67487e-19
5.7896e-08
1.06704e-17
2.41201e-05
2.87947e-18
5.97623e-18
2.70144e-18
3.90331e-19
3.84179e-19
1.63123e-18
3.40026e-07
2.14203e-06
0.000150059
1.66854e-17
3.22059e-17
4.55589e-05
5.14561e-18
1.84661e-18
6.08144e-18
1.10251e-17
5.4346e-18
6.54832e-06
4.32758e-18
7.75042e-18
7.74416e-19
3.66306e-06
1.91909e-17
4.58286e-18
5.59634e-19
3.59594e-06
8.13304e-18
6.82297e-06
0.000258719
5.82199e-06
5.96396e-06
2.96062e-05
6.01855e-18
3.43945e-19
3.42678e-18
3.38553e-06
1.93321e-06
1.87303e-18
7.99066e-18
6.58635e-07
7.62725e-18
4.02651e-17
0.000370857
1.18917e-18
2.42879e-05
1.23449e-18
2.59746e-06
3.65832e-06
5.96133e-18
9.20321e-18
1.16339e-17
1.53236e-18
1.0621e-18
2.0576e-05
2.19149e-18
5.14412e-06
3.97729e-19
8.9756e-19
7.51987e-06
9.43432e-18
1.40723e-05
1.86796e-17
2.98405e-18
2.67796e-06
8.57956e-08
0.000155165
1.49439e-17
2.15979e-18
8.35185e-18
4.05772e-06
0.000198092
3.0038e-19
4.68391e-18
2.01647e-17
1.69427e-06
1.12511e-18
2.16791e-05
3.42387e-05
4.05949e-17
6.00675e-19
7.99043e-06
2.97787e-18
1.48935e-17
6.80608e-19
1.16125e-17
9.93345e-18
7.54901e-05
1.57708e-17
5.57089e-18
1.75368e-18
1.19567e-17
1.35401e-18
2.44525e-18
7.09279e-19
1.82246e-18
1.77824e-17
8.58985e-06
2.16966e-17
9.23608e-06
4.92712e-17
3.36176e-18
0.000637873
2.95449e-06
1.01822e-17
4.82791e-18
1.05997e-18
2.63606e-06
4.5075e-18
2.25469e-18
3.02231e-18
1.51474e-18
7.8969e-06
6.63956e-19
5.27236e-06
2.75439e-17
1.05127e-05
3.90486e-18
6.2378e-05
6.35166e-18
6.45765e-19
2.33974e-05
5.24137e-18
9.6207e-19
2.93413e-05
2.96727e-07
1.90528e-17
2.08484e-18
4.01008e-05
1.09952e-05
7.01453e-06
9.23008e-07
1.98288e-06
1.88287e-05
1.07072e-06
5.32413e-06
8.07581e-18
3.15402e-05
6.32178e-18
1.65672e-17
5.00108e-18
1.17077e-18
1.2539e-17
1.13155e-05
5.96774e-17
2.02958e-18
3.26097e-18
3.32816e-09
9.92187e-09
1.4917e-17
2.49978e-06
1.33429e-17
4.72041e-06
9.10774e-19
1.37125e-09
3.9653e-06
2.03819e-16
4.99001e-05
2.57123e-18
1.36097e-17
6.29502e-18
3.23202e-06
1.42393e-06
7.2691e-18
1.22404e-18
2.74458e-06
2.85543e-18
0.000725187
3.07343e-19
0.000113225
2.71577e-18
1.11309e-18
1.89877e-18
3.42762e-18
1.08842e-05
8.78334e-18
4.27137e-08
1.29867e-17
1.06962e-05
1.65831e-18
5.24452e-18
5.76938e-15
1.21024e-16
1.85062e-18
4.2734e-18
2.10114e-17
1.31192e-17
4.691e-06
0.00020869
2.7337e-18
8.96414e-18
3.94697e-07
1.78903e-17
2.36853e-18
1.22746e-09
1.88806e-05
1.6114e-07
6.14009e-17
7.60082e-07
3.60537e-06
5.71392e-06
9.16616e-06
1.57541e-17
3.85649e-17
4.20738e-16
1.28822e-17
4.82308e-18
3.68173e-18
3.36166e-17
7.22348e-18
2.14051e-17
2.1037e-17
7.66108e-18
1.04334e-19
8.25516e-05
2.91087e-18
3.68615e-19
5.29764e-14
6.33973e-18
1.44422e-18
0.00121406
1.5399e-18
1.74198e-18
2.17406e-06
2.09436e-12
9.38612e-19
4.51276e-17
1.99013e-19
2.49395e-05
3.10789e-17
2.17743e-18
5.60907e-11
1.53073e-18
2.5176e-18
1.34258e-19
2.37432e-17
0.000126721
2.51512e-18
1.87501e-07
2.25004e-18
4.75389e-18
4.08128e-18
4.1811e-18
1.95046e-18
1.99857e-11
4.15434e-11
1.23557e-07
7.64065e-18
2.40455e-18
3.46733e-17
1.12375e-10
3.78088e-18
3.3884e-10
1.13825e-11
2.27298e-17
1.11667e-17
2.30812e-17
5.42863e-12
1.27164e-18
2.40903e-18
2.59482e-12
2.13807e-17
3.48606e-05
5.67629e-18
7.81879e-06
2.38829e-17
2.53802e-09
6.17264e-19
1.62629e-06
4.97257e-18
4.68241e-06
2.87449e-05
1.96976e-18
2.85919e-06
1.60714e-08
3.57205e-18
1.20296e-05
9.89649e-19
1.58566e-18
3.05658e-18
2.5023e-19
9.7706e-18
4.39008e-19
7.00688e-19
5.75086e-18
0.000320264
7.3065e-18
1.15165e-17
7.79292e-19
2.03166e-18
1.423e-18
3.55931e-05
0.000919755
3.50857e-09
1.27041e-08
6.09814e-19
2.33719e-06
1.60104e-06
6.06645e-18
6.22409e-18
2.89259e-18
2.8085e-19
1.32293e-18
3.84217e-18
1.48267e-17
2.18275e-18
4.52445e-07
1.66348e-18
2.97614e-17
2.53158e-07
4.13085e-09
2.65851e-17
2.93307e-05
5.24201e-18
8.04721e-18
5.09789e-18
0.000198131
6.66041e-17
1.27588e-18
2.92877e-05
1.49671e-17
4.8154e-17
4.35169e-18
2.06191e-16
6.28232e-05
2.80918e-19
1.16668e-18
1.37385e-18