/*--------------------------------*- C++ -*----------------------------------*\
  =========                 |
  \\      /  F ield         | OpenFOAM: The Open Source CFD Toolbox
   \\    /   O peration     | Website:  https://openfoam.org
    \\  /    A nd           | Version:  10
     \\/     M anipulation  |
\*---------------------------------------------------------------------------*/
FoamFile
{
    format      ascii;
    class       volScalarField;
    location    "9.4";
    object      T;
}
// * * * * * * * * * * * * * * * * * * * * * * * * * * * * * * * * * * * * * //

dimensions      [0 0 0 1 0 0 0];

internalField   nonuniform List<scalar> 
111485
(
303.15
285.101
300.962
303.15
298.392
283.15
298.902
293.371
296.298
286.242
300.499
296.177
300.193
284.567
299.958
286.752
299.291
297.754
294.015
303.15
303.15
283.15
297.217
288.685
301.538
303.15
293.172
300.604
288.844
303.15
300.724
294.295
303.15
283.15
283.446
283.15
302.278
297.567
283.149
296.578
283.15
289.581
296.996
302.879
303.191
303.15
287.359
288.544
289.622
303.15
303.15
283.15
303.15
298.896
303.15
293.468
287.885
283.15
283.321
295.42
295.82
303.15
302.042
300.248
283.15
284.544
300.224
291.508
302.098
302.522
303.162
301.885
303.15
302.094
303.15
295.343
283.15
293.431
283.15
283.15
283.238
293.358
283.15
303.15
300.291
284.203
283.15
301.534
303.115
299.06
283.331
289.555
300.843
300.364
289.75
303.15
303.15
301.534
303.149
283.413
303.15
286.643
283.15
285.158
285.74
283.15
283.15
293.042
301.44
283.146
298.88
288.054
301.277
301.688
303.15
301.967
303.15
283.15
300.106
303.15
303.15
283.15
283.15
283.15
283.398
303.151
283.15
301.798
303.15
283.176
303.086
301.925
303.15
283.15
283.15
292.472
283.15
294.183
298.759
301.071
303.137
296.784
298.94
284.762
302.271
297.762
283.15
303.15
283.15
297.102
284.918
303.15
303.144
287.297
283.156
293.683
295.596
302.518
283.154
303.15
303.15
292.142
286.231
283.153
283.157
301.161
283.683
283.15
283.152
283.152
283.15
303.15
283.205
283.15
291.512
287.151
283.15
303.15
303.15
283.15
303.15
303.15
297.611
293.459
295.749
289.739
301.362
300.395
283.19
303.15
301.427
303.15
303.15
300.129
286.269
301.388
301.315
295.711
303.15
300.865
284.588
283.16
300.757
297.034
303.15
300.388
288.173
303.15
283.224
300.159
284.796
300.661
303.15
303.15
300.675
283.15
292.732
283.15
300.579
298.677
290.34
303.15
301.738
300.516
283.15
283.15
283.15
289.478
283.157
283.15
303.15
298.612
291.333
289.9
283.15
303.15
303.106
303.15
284.324
300.051
299.225
299.474
299.343
283.15
283.144
298.82
283.15
283.15
288.738
288.34
283.15
301.163
298.839
303.15
283.15
301.006
303.15
303.15
303.121
303.15
288.247
285.852
290.755
303.15
298.299
303.15
303.15
303.15
283.148
298.057
300.951
299.386
291.177
299.443
296.199
283.21
290.297
291.543
283.15
303.15
283.149
292.417
298.713
286.442
303.15
297.955
297.222
298.85
302.958
283.166
297.058
299.323
301.991
283.15
283.604
283.15
283.149
303.15
283.879
290.24
286.301
303.15
283.15
297.55
285.23
303.15
303.15
303.15
284.578
290.206
301.039
284.394
292.991
283.15
283.15
303.15
298.312
303.15
283.817
289.453
283.153
283.15
303.15
303.15
283.15
294.316
289.941
283.15
295.665
283.15
303.15
301.045
297.254
293.945
295.773
283.15
283.15
283.15
296.565
290.976
302.356
283.15
283.15
283.15
290.06
296.902
283.212
290.452
283.15
292.761
299.52
284.196
298.645
285.25
283.15
303.15
283.15
303.15
290.647
296.619
287.916
291.908
283.15
286.343
283.15
303.15
293.777
303.15
301.743
303.15
283.15
291.913
283.15
288.753
284.614
283.15
283.978
297.984
283.15
300.116
284.658
298.803
303.021
291.027
285.986
283.15
303.15
303.143
283.15
300.963
300.826
283.15
283.15
294.675
284.359
298.151
296.803
283.15
295.076
296.075
283.15
302.04
283.892
303.15
303.15
288.227
298.552
283.15
303.15
303.15
303.15
300.715
283.15
303.15
293.914
283.171
286.959
299.936
283.15
283.15
302.603
283.15
302.45
301.421
297.813
288.703
283.15
293.88
303.38
303.15
298.6
292.271
303.15
283.15
283.305
283.15
290.001
286.088
291.618
283.15
292.838
296.546
293.03
303.147
283.15
303.15
303.15
283.169
292.697
283.15
284.311
303.133
283.15
303.15
303.15
303.15
301.813
290.493
285.98
284.183
284.309
283.15
285.685
303.15
300.71
283.15
303.15
303.15
300.65
303.15
303.15
283.151
303.15
283.15
300.649
283.15
283.15
283.15
303.15
283.15
303.15
283.15
283.661
283.15
303.125
301.838
283.742
283.15
303.083
283.15
303.15
284.702
284.664
286.102
297.474
283.15
297.446
297.559
292.259
286.796
285.26
303.15
291.73
283.15
299.829
283.15
296.746
283.15
292.048
298.547
303.151
283.15
286.776
303.15
295.458
299.05
283.15
283.15
283.15
283.15
303.15
293.64
283.15
283.15
283.236
283.15
299.783
283.15
284.786
303.15
283.432
303.121
284.626
291.871
283.15
301.435
283.15
283.15
285.678
283.15
283.254
283.15
299.634
303.15
290.623
303.15
283.15
302.371
284.462
300.053
285.647
300.051
289.447
283.15
300.598
284.541
283.15
283.14
300.307
301.57
283.15
282.458
301.04
303.062
283.119
303.15
287.556
302.157
284.399
285.378
288.181
282.565
283.15
303.15
300.566
303.15
283.544
283.15
283.15
291.727
282.679
303.149
303.116
283.15
286.26
299.552
283.15
283.15
299.567
303.15
283.15
283.15
283.15
286.143
283.15
303.15
284.814
284.213
303.15
299.661
283.15
289.228
303.15
283.15
286.137
283.15
283.15
283.15
285.356
283.15
285.432
291.923
303.15
300.333
283.446
298.67
300.921
283.309
283.455
283.15
288.931
298.401
303.15
302.252
296.004
296.836
284.705
297.401
297.155
303.15
300.22
303.135
283.15
297.103
284.816
283.15
292.33
295.677
284.837
298.73
300.601
292.289
283.15
298.871
283.467
303.15
300.56
301.951
294.042
283.15
286.474
303.15
283.15
283.15
283.15
283.3
283.15
303.15
303.15
283.15
300.384
299.209
303.15
285.607
303.15
303.15
303.15
289.999
283.416
283.15
303.15
283.15
283.15
286.787
292.338
283.15
295.091
283.137
283.15
295.266
302.21
287.759
283.15
283.15
300.218
292.048
283.15
283.15
283.15
293.946
303.15
303.15
283.15
296.196
302.369
283.15
282.381
301.729
286.516
283.15
283.15
287.438
302.962
283.15
283.159
287.208
283.75
288.749
283.15
285.674
300.277
283.15
303.15
283.15
283.15
283.15
283.15
295.624
303.15
283.15
283.15
295.238
291.773
303.15
303.15
289.816
298.383
298.282
303.15
283.15
297.956
303.15
283.823
298.788
298.308
303.15
303.15
303.15
283.15
286.043
283.15
283.15
302.698
303.15
297.774
302.267
283.15
294.008
283.258
296.39
291.94
283.416
289.743
283.15
283.15
296.838
288.016
290.805
283.15
283.15
297.732
294.93
283.15
283.9
284.577
283.474
303.15
303.15
303.15
290.711
283.15
300.021
283.15
284.366
297.557
298.471
292.22
283.15
283.15
303.15
295.327
283.15
283.15
303.096
283.15
283.15
303.15
283.15
299.288
283.15
283.15
283.15
283.15
283.15
303.15
283.15
283.171
298.739
303.15
302.525
283.131
283.398
283.095
285.499
283.15
284.445
290.492
283.398
303.15
283.149
299.704
283.15
300.221
283.143
283.144
286.184
297.45
283.203
291.851
297.963
283.15
283.15
299.024
299.769
283.15
297.312
291.241
297.527
283.15
283.243
283.15
297.839
296.96
283.15
300.032
297.609
283.149
299.737
283.15
295.61
283.145
303.126
283.162
283.16
283.15
283.15
284.413
283.15
302.968
283.584
283.063
303.147
303.149
303.147
283.15
283.15
293.752
303.15
303.186
283.868
283.15
283.15
303.154
303.149
283.15
303.165
283.15
283.15
303.15
303.15
303.15
303.15
283.361
283.15
283.15
283.15
303.157
283.304
283.884
293.404
283.15
283.15
283.334
283.15
283.15
283.15
287.222
293.552
283.15
283.15
283.15
283.15
283.15
283.15
284.005
283.15
303.15
291.536
283.15
303.15
303.15
303.153
303.15
303.15
283.15
303.171
283.15
283.692
283.144
303.152
283.15
303.062
284.384
292.045
303.15
303.128
284.439
303.15
283.15
303.15
283.15
293.995
293.438
284.627
303.148
283.15
293.209
283.15
283.15
303.15
283.15
294.806
283.15
303.15
283.163
298.126
303.15
284.368
283.15
283.573
283.15
283.15
283.15
303.15
285.837
283.467
284.217
283.15
283.15
285.623
283.15
283.15
303.15
284.318
303.164
298.518
303.15
303.127
303.128
283.15
303.13
283.15
283.439
289.115
301
283.796
283.167
283.15
283.15
283.15
303.184
283.15
302.899
303.15
292.651
303.15
288.708
283.82
303.15
283.15
303.15
283.15
301.776
303.15
303.15
286.394
300.534
283.15
283.15
283.15
283.15
283.15
283.15
300.788
283.576
303.15
303.15
303.157
303.15
300.165
284.409
283.15
302.103
303.15
301.613
283.15
302.563
283.15
283.148
303.152
283.31
302.1
300.206
283.147
283.15
289.331
303.15
293.34
303.15
283.15
303.15
283.15
283.15
283.15
300.789
302.043
303.15
303.15
303.15
302.897
283.15
303.15
292.85
283.085
303.15
297.487
298.284
296.453
283.373
283.15
283.15
283.15
283.15
294.598
283.15
294.832
283.15
303.056
289.823
283.15
302.854
283.15
283.15
302.733
283.148
302.917
283.15
303.15
283.15
302.382
283.15
303.15
283.15
283.148
283.15
283.17
283.15
283.15
303.15
292.965
301.077
296.089
296.987
303.15
303.115
283.15
283.15
285.68
283.15
283.158
302.838
298.759
302.94
303.15
283.358
283.15
303.15
283.15
302.992
283.315
298.276
283.15
303.15
288.074
303.15
283.15
283.126
295.063
283.147
283.15
283.15
283.149
303.15
283.15
303.142
303.15
303.15
289.927
302.986
302.992
288.995
293.219
283.15
283.15
303.088
289.065
283.15
303.15
284.719
283.15
303.15
283.15
283.15
283.15
297.404
283.15
302.939
283.15
300.482
283.15
283.15
283.15
283.15
283.15
283.15
285.002
283.15
283.15
283.15
283.15
283.15
283.15
291.971
283.15
298.343
302.932
283.15
302.319
283.15
302.51
303.145
292.28
288.774
303.15
292.145
284.773
303.108
303.15
303.14
295.032
288.654
283.15
287.874
283.15
283.15
283.15
283.15
287.498
283.15
283.15
291.63
303.135
285.304
283.15
283.15
302.515
283.15
283.183
303.15
299.875
283.15
283.15
302.819
283.15
303.178
303.15
283.15
289.033
297.941
292.689
285.648
292.501
294.095
283.15
283.15
302.281
290.576
292.745
284.398
283.15
294.352
283.15
303.15
300.722
298.703
283.15
297.391
283.15
292.742
297.184
303.15
283.15
283.15
301.767
283.15
283.15
300.488
296.111
283.195
291.207
283.15
283.15
302.795
300.506
283.15
300.626
283.15
300.481
283.15
283.15
300.786
283.15
283.227
301.583
283.15
283.15
302.423
283.15
287.9
303.15
290.376
303.15
303.15
303.15
300.934
283.15
283.15
299.514
283.15
302.99
283.15
283.15
303.15
283.151
288.189
283.15
283.15
288.052
288.231
283.15
283.673
283.15
303.15
302.409
283.722
301.553
283.15
283.15
283.15
283.15
283.15
283.15
283.15
283.15
283.15
283.15
283.15
303.15
283.15
283.15
283.15
283.15
283.15
283.15
283.15
283.15
303.15
286.944
283.15
283.15
283.15
294.669
283.15
303.15
302.886
283.15
283.15
294.673
283.15
283.15
301.8
295.151
283.15
303.663
303.598
283.15
301.492
293.922
297.515
301.457
298.103
303.15
283.15
296.353
291.75
301.399
283.15
302.135
302.408
300.851
288.027
287.308
301.038
301.766
301.768
303.15
285.849
297.507
285.521
297.21
283.15
283.15
283.15
303.15
283.15
291.961
297.881
283.15
283.15
283.15
283.15
283.15
303.15
283.15
303.15
292.109
303.113
298.989
302.837
283.15
283.15
285.404
283.167
283.15
283.15
301.692
303.15
283.15
298.119
299.48
297.489
298.618
300.781
303.15
291.024
302.58
303.15
303.15
300.303
303.15
283.15
282.988
295.523
302.947
283.15
303.15
289.57
286.14
297.117
292.159
302.379
303.15
303.136
303.15
303.15
283.15
298.927
283.15
291.78
290.429
299.665
284.76
303.15
301.911
303.15
283.15
303.15
303.15
291.472
299.507
283.15
303.15
303.133
291.759
303.029
299.317
292.772
288.31
292.881
283.15
303.15
283.15
291.208
298.268
303.151
303.15
303.15
303.15
297.451
302.553
283.15
299.937
301.115
284.853
299.483
303.15
303.15
298.651
292.933
283.15
302.901
299.717
302.602
291.952
297.272
298.217
303.15
286.973
298.149
291.307
283.15
289.03
303.15
288.382
301.041
303.15
288.693
301.265
300.11
293.142
283.149
283.159
283.237
301.616
300.903
303.15
288.808
301.468
303.15
283.15
303.15
303.209
298.727
290.733
296.746
303.256
283.149
297.494
303.15
303.15
292.755
303.15
300.289
283.303
301.303
291.514
303.15
283.66
293.177
303.15
283.056
298.645
303.15
300.67
286.241
303.15
303.15
283.991
303.15
283.15
283.15
285.906
299.212
291.144
303.15
285.214
297.451
283.15
298.814
298.849
288.957
303.097
283.15
301.494
299.61
298.814
300.057
288.649
290.756
302.476
303.15
301.539
288.703
303.15
298.825
283.15
283.15
303.15
283.15
303.15
297.419
283.15
300.501
283.629
303.15
283.787
283.15
289.824
303.15
303.144
303.15
294.131
302.993
303.117
299.85
290.397
289.428
290.574
298.4
303.15
299.375
292.143
298.911
303.15
283.868
283.449
299.231
287.154
283.508
303.15
283.15
303.15
285.32
303.15
303.331
284.679
303.36
302.953
303.15
303.15
283.15
300.532
300.622
285.485
303.085
286.992
295.64
301.868
292.474
288.135
302.073
296.069
283.15
283.15
303.15
285.802
289.686
283.15
283.15
303.15
301.98
288.653
303.15
296.364
303.15
283.155
285.18
301.083
303.15
303.15
292.251
303.15
283.3
290.602
283.15
297.121
294.614
296.07
303.15
302.705
283.15
302.659
293.383
303.15
303.15
288.779
283.15
303.15
301.789
284.43
303.15
303.15
283.15
302.341
303.47
289.484
299.676
298.024
303.15
303.159
302.6
303.15
283.15
303.15
303.15
303.15
303.15
303.15
303.15
303.15
283.15
303.15
303.15
283.339
303.15
303.342
303.15
303.16
303.15
303.15
300.925
303.676
303.15
291.985
303.15
303.15
283.15
302.552
303.15
302.121
303.114
283.288
283.15
303.15
302.921
283.149
303.15
303.15
291.351
283.15
292.571
283.15
283.15
283.153
291.196
284.834
303.15
296.631
283.15
303.756
303.133
284.308
302.587
283.15
292.149
303.084
301.669
283.15
303.15
283.15
304.114
284.812
296.861
303.15
303.15
303.15
303.15
303.15
303.15
302.337
302.803
297.598
291.986
303.15
287.116
292.623
284.967
303.206
283.15
286.903
302.747
284.756
283.148
287.47
303.15
283.38
302.915
292.512
302.841
301.894
303.15
302.221
303.15
303.15
297.909
303.15
284.464
303.15
303.15
283.15
303.15
303.15
302.84
303.15
283.296
283.15
283.15
285.796
284.909
300.891
286.078
303.15
294.657
303.15
290.437
303.15
287.127
300.667
301.471
293.329
303.15
303.15
303.15
289.794
283.15
303.15
289.547
283.15
283.15
301.813
303.15
286.184
283.148
283.15
303.15
303.15
300.643
298.165
303.15
293.399
303.037
283.15
298.551
303.15
286.408
288.222
302.137
303.15
296.269
296.724
302.95
301.872
301.65
303.15
303.15
303.147
303.15
283.15
303.15
289.551
300.058
294.312
302.123
283.15
300.345
291.379
298.201
283.6
298.299
289.574
302.155
283.15
283.15
283.15
302.201
283.15
290.462
283.15
301.251
303.162
289.704
298.031
283.15
303.15
301.239
301.218
303.15
283.15
303.15
286.424
301.429
302.975
302.33
297.993
288.43
303.15
303.15
303.15
294.214
285.95
289.769
295.849
283.952
302.953
303.15
303.15
283.15
283.15
285.414
299.564
303.15
303.15
283.15
303.15
303.15
303.15
300.239
303.15
285.347
292.397
283.15
283.247
293.335
285.69
303.15
303.15
301.877
303.15
299.213
283.147
297.55
303.15
303.15
283.15
303.15
303.15
303.15
305.184
303.15
301.829
301.106
303.15
303.15
301.608
303.15
283.15
287.231
303.102
303.15
303.15
303.15
297.905
303.15
303.15
302.458
302.482
301.768
303.15
283.15
303.15
302.036
302.503
301.514
302.526
283.15
300.633
287.476
297.431
283.15
303.15
303.15
303.15
303.15
294.341
287.559
299.642
303.15
303.15
303.15
303.15
283.15
303.148
284.762
285.138
283.15
303.15
303.15
283.148
299.574
294.904
283.15
303.15
303.15
303.15
303.15
289.597
289.647
303.15
303.15
302.392
303.15
301.437
283.947
291.867
303.15
283.15
301.155
303.123
303.15
303.044
301.307
286.805
303.15
303.15
303.15
303.15
293.269
284.141
303.15
302.69
298.035
289.361
303.15
303.15
303.15
303.15
299.52
303.151
303.15
303.15
298.236
302.583
288.328
303.15
303.15
297.719
303.15
303.15
303.15
303.15
288.796
303.15
283.15
283.15
295.913
291.07
303.15
303.15
303.15
296.979
303.146
303.15
303.15
303.15
303.15
303.403
300.865
303.15
287.323
302.639
299.367
303.15
303.15
303.15
303.15
283.15
285.646
303.15
302.845
283.15
302.171
303.15
303.133
303.15
283.15
301.916
285.656
283.15
302.823
303.15
302.413
283.15
303.15
303.15
303.151
303.15
283.269
303.15
290.835
283.15
283.15
303.15
303.15
298.809
302.375
283.15
302.405
283.15
284.089
287.973
302.702
283.15
303.155
302.986
303.134
284.386
283.156
302.981
283.15
283.15
283.156
302.067
302.285
303.15
283.15
283.15
295.286
303.15
283.15
303.15
303.15
303.15
303.108
303.045
302.928
302.443
303.15
302.9
303.15
284.815
303.15
303.15
283.15
303.15
303.11
303.15
283.15
303.15
288.308
303.15
303.15
303.164
283.15
302.823
302.038
296.651
303.15
289.245
294.395
283.782
289.905
283.15
283.15
287.206
284.314
283.15
303.827
283.15
286.409
303.15
283.15
303.156
303.15
303.15
303.012
303.155
303.15
283.15
303.138
303.15
283.15
283.105
298.721
302.699
303.15
301.839
303.15
285.704
303.152
301.173
303.15
303.15
301.036
303.15
303.15
303.15
287.685
303.15
285.14
303.15
303.147
303.15
283.15
283.15
303.15
303.15
303.15
288.698
302.545
303.15
303.15
288.564
286.492
291.194
303.15
302.698
287.666
287.525
303.15
303.15
287.651
283.15
291.879
303.15
303.152
303.149
303.15
300.507
283.15
302.298
283.15
303.15
303.15
303.15
303.15
303.15
284.326
302.242
291.015
303.15
303.15
290.548
303.15
303.15
303.15
303.15
303.15
300.132
303.15
303.15
283.15
299.435
303.15
283.15
303.15
301.358
283.15
299.94
290.753
302.682
300.002
299.417
303.15
303.15
303.15
300.812
288.46
283.15
303.15
300.3
303.15
303.15
291.94
303.15
287.469
303.15
297.802
284.307
303.15
283.15
303.15
303.15
303.15
285.233
303.15
300.474
303.15
303.15
299.681
283.15
284.746
303.15
303.15
288.085
301.528
296.39
303.15
303.15
303.15
301.545
292.247
303.15
283.15
303.15
300.652
303.15
284.768
296.27
303.15
303.15
301.123
303.15
303.15
283.15
303.15
283.15
294.527
303.15
283.15
303.15
303.15
303.15
303.15
303.15
303.15
283.15
301.494
283.15
302.07
303.15
303.15
296.045
300.46
303.15
283.15
303.15
300.867
283.15
303.15
303.15
303.15
300.718
303.15
297.639
303.15
285.818
283.15
286.724
303.15
303.15
298.478
283.15
303.15
287.838
283.244
303.15
303.15
285.066
283.842
300.836
301.721
301.172
293.13
301.727
283.842
303.15
297.674
283.15
283.15
303.15
303.15
303.15
301.193
303.15
303.15
303.15
303.129
283.169
283.15
283.554
303.15
302.007
283.15
303.142
296.071
283.15
294.55
303.15
303.15
283.15
299.867
283.923
303.15
283.15
299.893
303.15
297.632
303.15
295.271
303.15
283.15
303.15
283.15
299.402
283.15
283.225
283.15
286.191
303.15
303.15
283.15
283.15
303.15
303.15
303.15
303.15
284.872
284.724
283.15
303.15
283.232
283.15
283.15
303.154
289.842
283.534
283.15
301.486
284.861
300.449
288.151
303.15
303.15
303.15
303.15
283.15
283.15
283.15
303.15
283.15
283.15
303.15
283.15
297.252
283.15
303.15
283.15
303.15
303.15
283.302
283.15
303.15
301.936
303.149
303.15
303.15
303.15
288.708
283.15
303.15
303.149
283.15
303.15
303.15
303.15
295.218
283.15
283.18
303.15
303.15
303.15
303.15
303.15
303.149
303.147
284.095
303.15
283.15
303.15
303.149
303.15
303.148
303.149
283.15
283.15
283.15
303.15
303.15
283.15
303.149
283.15
287.692
283.15
301.801
283.15
303.154
303.15
284.602
283.15
284.445
297.35
303.15
284.686
303.173
303.15
297.358
283.15
303.15
303.15
303.15
303.15
283.15
303.15
303.15
299.132
283.15
303.15
303.15
303.15
303.15
292.302
290.288
303.17
283.165
303.15
301.8
302.306
303.15
283.15
283.15
303.15
303.15
303.15
283.15
283.15
283.82
303.15
303.15
303.198
303.151
283.15
288.828
303.15
283.15
303.15
288.052
303.15
283.15
302.108
283.15
283.15
283.15
303.15
299.656
303.15
303.15
303.15
283.15
284.498
293.573
295.184
289.516
303.12
303.016
283.15
283.15
301.003
283.691
283.15
303.149
303.15
303.15
283.15
294.519
303.15
283.15
302.977
303.15
303.15
283.792
303.15
303.15
288.382
289.52
303.15
283.15
303.15
283.15
303.15
303.15
303.15
303.15
283.944
303.15
303.15
303.15
302.925
303.15
303.15
283.15
283.15
283.15
283.15
302.939
283.15
283.15
300.949
303.15
284.763
284.923
303.15
301.108
303.15
283.15
303.15
283.15
283.15
303.15
303.15
303.15
302.656
303.15
303.15
303.15
283.15
303.15
283.15
286.359
303.15
303.15
291.589
303.15
283.15
283.15
302.41
303.15
303.147
283.15
303.19
286.639
283.15
283.15
299.18
283.15
283.15
303.045
303.161
293.304
303.167
303.151
303.152
283.15
283.15
302.639
283.45
285.809
300.825
283.157
283.15
291.024
301.552
301.448
283.15
300.195
290.68
300.126
302.194
302.737
284.675
295.452
299.185
286.245
293.269
300.081
303.15
297.942
297.537
302.784
283.655
292.326
301.126
287.32
303.15
301.032
303.15
300.703
301.48
283.629
284.964
303.15
283.15
302.272
301.674
283.146
303.173
288.536
302.671
301.815
300.805
303.15
303.233
301.104
295.033
300.41
288.908
302.906
301.622
302.182
302.261
284.204
302.495
301.576
283.177
303.15
302.891
303.15
303.15
302.086
301.992
294.235
303.15
284.655
292.275
292.314
300.875
303.15
284.001
285.177
284.383
303.15
298.749
303.15
296.356
295.347
300.731
303.142
303.15
303.15
301.93
301.245
302.78
303.15
292.593
302.739
289.926
283.15
298.33
293.969
303.15
300.493
283.15
283.203
283.15
302.565
303.096
303.15
302.978
298.359
283.148
300.483
302.212
295.306
283.533
295.822
297.036
283.458
303.133
284.724
296.303
283.318
296.822
300.484
300.226
300.332
301.992
289.763
301.559
303.15
302.712
302.642
302.645
296.484
302.88
283.15
302.002
293.414
303.15
283.432
286.828
301.178
302.593
290.505
284.811
287.684
302.617
296.357
303.15
303.15
294.989
283.15
292.661
283.429
303.15
290.548
290.304
283.907
303.15
297.264
298.476
284.216
301.219
294.153
290.16
300.52
303.106
303.15
303.15
283.523
302.604
283.348
285.776
303.15
303.016
303.035
303.15
285.405
300.785
297.818
283.245
299.543
302.364
300.492
286.878
283.15
303.106
301.807
283.733
283.136
303.15
303.071
303.15
303.15
284.17
302.522
296.358
283.035
283.153
303.15
283.15
302.947
303.042
302.494
301.392
303.15
283.15
283.15
301.804
301.861
283.214
295.859
303.15
303.15
301.601
285.476
283.258
301.664
301.765
301.715
284.402
303.15
283.15
298.445
297.735
303.15
302.697
302.072
284.681
284.958
302.103
303.052
303.15
298.113
284.425
283.15
303.15
300.566
301.197
302.005
289.59
302.064
285.641
300.12
300.262
290.324
297.505
303.15
303.15
300.917
284.451
302.083
283.151
300.483
301.697
283.619
288.289
302.414
283.15
283.15
283.028
303.15
303.15
299.917
298.921
302.279
283.147
283.15
283.927
283.151
283.15
283.151
303.074
300.914
299.15
295.853
283.366
303.096
300.115
303.15
283.15
302.55
289.214
300.765
292.684
283.501
303.059
283.148
283.15
302.833
301.19
302.609
283.155
291.256
284.862
303.15
284.254
301.025
283.15
283.308
284.927
284.137
283.15
283.15
301.622
283.15
289.351
302.522
302.7
301.769
283.479
298.245
289.982
283.15
303.347
292.074
283.15
283.15
283.15
303.15
301.192
302.407
299.152
301.454
299.904
288.836
283.155
290.974
290.147
303.058
291.06
299.966
292.049
283.15
286.289
301.068
301.531
283.15
283.97
299.619
283.15
303.15
283.187
301.266
303.15
284.014
302.252
303.019
303.15
283.15
292.778
303.153
301.68
283.15
283.15
283.15
302.188
297.545
303.143
302.186
303.167
303.15
288.36
303.167
290.426
300.208
300.168
296.569
283.156
301.688
283.15
290.575
301.397
289.434
290.473
298.958
300.675
301.584
287.164
291.13
285.008
283.172
302.21
286.122
283.149
283.144
300.192
283.079
300.283
286.981
296.04
299.412
289.178
299.254
283.121
299.126
283.15
289.99
288.996
298.643
283.328
283.15
300.556
283.15
302.796
283.15
303.15
286.478
286.478
283.15
298.967
298.547
287.031
303.15
303.15
301.72
289.776
302.994
283.722
301.564
287.071
303.147
284.188
288.183
303.15
301.413
283.15
283.15
287.553
287.014
283.145
285.237
301.483
286.229
301.169
303.15
285.096
301.734
291.177
303.15
303.15
301.606
302.037
303.15
293.015
294.266
283.677
296.373
286.779
289.997
303.15
302.77
296.988
285.005
283.15
287.713
291.906
299.632
283.163
283.744
282.947
301.94
303.115
283.151
303.133
303.15
300.555
293.046
298.792
293.811
283.15
291.927
295.958
285.585
283.21
291.502
283.15
300.256
303.164
292.521
284.093
303.144
291.836
298.592
288.219
300.342
291.318
287.306
283.15
303.142
285.341
289.87
293.458
283.15
283.15
283.15
303.141
283.15
283.137
286.42
303.15
283.15
303.167
283.172
291.098
288.914
303.538
302.91
289.842
303.15
296.956
303.177
301.993
287.248
283.15
292.9
303.145
303.093
286.179
283.15
283.15
283.473
286.005
303.053
303.143
287.506
289.465
283.48
283.162
289.839
293.198
303.15
283.15
303.095
303.15
302.324
285.005
302.331
303.093
284.051
283.767
284.03
302.849
302.174
297.377
293.968
303.069
291.256
291.016
303.15
303.097
302.577
285.425
283.376
303.15
285.932
283.383
302.928
301.661
302.166
283.15
300.315
301.838
303.15
302.146
285.402
303.15
297.872
303.15
283.15
300.663
302.679
286.323
302.482
283.15
285.155
303.009
283.15
302.3
285.367
294.856
284.334
303.15
303.016
302.871
286.498
283.15
287.112
284.244
289.766
285.718
302.241
303.15
283.15
283.15
293.114
283.15
301.035
302.152
290.348
283.15
294.005
283.15
303.15
283.15
300.046
298.533
283.151
285.265
301.714
303.071
303.156
291.812
294.162
301.186
283.207
301.788
283.145
303.15
303.142
299
283.15
300.787
294.735
303.15
300.932
287.298
301.941
284.889
288.186
283.15
302.211
287.717
298.391
303.074
283.15
303.15
291.623
302.151
283.077
283.147
286.723
298.311
303.149
284.475
301.01
300.982
301.237
303.153
299.864
287.631
284.915
301.567
299.868
283.723
283.104
303.16
303.149
303.15
297.313
283.163
283.15
303.15
303.149
289.886
298.89
300.259
287.766
302.797
303.15
286.416
301.539
303.15
300.939
283.793
301.44
303.15
284.529
301.369
295.488
302.761
303.15
303.15
285.161
295.02
296.331
287.358
303.15
303.15
283.15
287.193
302.393
296.119
303.15
285.533
303.15
303.15
300.437
288.693
283.15
295.502
295.829
299.048
283.15
303.15
292.64
287.205
303.15
297.909
300.471
300.377
303.15
303.15
303.15
300.183
298.283
302.794
299.85
283.15
292.853
287.646
290.554
300.543
303.15
303.15
300.723
303.095
286.534
296.055
303.15
303.147
283.15
286.417
298.876
285.563
303.15
303.15
283.339
303.121
303.15
303.15
283.15
290.49
303.15
303.15
284.563
299.255
283.15
303.15
284.609
301.3
300.133
286.964
294.906
303.15
283.49
303.15
303.15
283.311
300.501
290.366
300.365
303.15
303.129
302.166
292.588
299.762
301.335
284.44
283.451
300.82
298.344
303.15
302.743
284.121
299.689
301.351
287.654
303.15
297.381
301.38
301.468
301.508
292.854
303.15
283.15
299.154
283.15
283.15
287.724
283.15
283.997
283.15
283.15
283.15
283.15
302.748
288.119
302.695
283.15
295.64
290.903
284.718
283.15
303.15
302.67
301.722
303.161
302.628
283.15
294.75
300.228
290.134
283.15
283.15
299.783
285.917
283.15
283.15
303.149
290.53
283.15
287.114
303.149
303.152
284.303
283.15
288.158
292.328
300.771
294.558
302.954
285.597
302.49
295.2
286.244
283.15
283.532
291.575
303.071
289.076
302.648
283.15
292.33
287.721
300.999
301.24
284.87
303.104
284.884
297.011
302.98
303.146
285.114
303.145
303.002
293.255
302.668
283.15
303.15
303.15
294.711
290.991
283.155
301.072
284.67
284.141
284.6
303.145
288.319
300.424
283.15
283.15
302.495
303.15
294.511
302.896
303.182
299.775
303.223
302.877
283.15
301.259
302.873
283.15
303.15
301.287
303.15
284.292
298.716
283.163
291.495
283.15
287.55
303.01
299.706
283.15
303.021
290.867
301.17
303.125
303.077
283.15
283.15
301.918
301.979
283.791
302.803
302.404
302.357
303.141
283.15
293.658
283.15
302.78
287.832
302.984
303.15
283.15
302.813
285.091
291.438
302.025
283.15
302.573
301.972
301.539
302.473
303.043
303.211
303.008
303.15
283.15
301.492
297.771
303.086
303.15
289.881
284.854
303.15
283.15
285.282
303.184
303.165
302.914
301.107
284.248
303.096
290.624
294.174
303.148
288.993
303.164
283.15
289.791
283.15
299.919
298.071
284.755
288.131
299.573
296.614
295.236
299.124
293.708
303.154
293.777
296.323
283.161
299.336
293.803
303.15
298.854
299.09
303.15
291.122
303.172
301.652
303.15
286.892
286
302.794
289.625
283.15
283.15
300.319
301.112
283.71
283.15
303.15
300.187
302.304
300.577
299.819
302.778
292.523
289.593
286.599
292.438
284.294
290.353
283.302
295.649
290.383
293.87
287.043
284.266
303.163
283.27
303.148
285.576
300.684
283.151
300.361
298.346
288.699
302.082
285.372
299.025
283.15
302.949
283.154
283.117
287.614
299.614
303.15
300.315
303.016
299.884
302.754
303.15
301.227
284.939
294.86
302.028
303.149
283.702
283.15
290.242
285.22
285.732
303.128
303.148
283.15
283.15
283.176
303.15
293.402
303.15
303.148
294.166
303.431
303.15
300.389
303.15
303.15
293.605
290.556
303.15
289.787
302.037
289.512
303.15
303.15
285.905
283.331
290.271
303.226
303.15
303.145
285.451
283.243
283.15
288.931
287.553
303.15
284.291
303.15
303.15
303.132
287.301
303.15
303.147
283.275
303.152
302.654
287.88
283.152
283.592
297.281
290.682
303.15
285.909
284.411
301.296
287.072
302.194
290.537
293.795
303.15
303.15
284
303.147
302.941
295.818
302.937
302.733
287.135
283.15
285.289
283.217
297.069
302.575
285.352
303.15
283.784
286.686
303.124
283.175
303.15
286.349
283.15
300.086
303.15
299.68
299.841
283.252
283.357
302.311
290.775
301.308
303.15
301.368
301.72
303.15
303.15
298.28
293.35
283.15
288.722
303.15
295.167
283.354
303.15
296.837
298.655
288.944
303.15
302.75
294.14
295.307
284.452
303.161
298.62
296.048
283.968
303.122
302.795
287.33
298.368
289.77
290.745
289.693
283.15
302.938
303.152
303.15
303.175
293.01
296.236
302.973
301.261
303.15
284.436
303.15
303.039
302.852
303.15
293.481
296.176
303.15
285.356
303.094
303.15
303.088
303.158
286.04
293.265
291.055
288.361
293.349
303.15
301.173
291.349
295.292
293.389
303.141
303.15
300.519
303.189
284.229
303.19
303.15
303.15
303.143
303.15
284.92
303.15
284.208
303.146
303.15
290.164
303.144
292.413
295.453
303.133
295.254
285.965
283.442
303.124
302.931
284.658
283.15
297.049
303.15
285.48
302.908
302.017
303.015
298.368
287.019
303.15
298.64
289.854
299.297
283.15
283.607
303.15
303.145
303.19
294.008
303.15
292.373
289.29
303.195
303.15
284.769
298.696
293.156
299.528
302.461
301.566
300.337
303.15
284.701
296.897
302.352
285.557
298.295
292.222
284.45
291.575
303.15
286.603
291.763
290.084
299.384
303.15
286.423
284.075
303.15
302.412
288.102
302.084
283.15
303.15
299.78
301.667
288.944
301.961
301.893
301.785
303.15
289.261
285.11
301.939
302.217
297.079
303.15
283.2
303.15
301.961
303.15
302.79
303.15
291.616
303.15
296.433
283.15
289.382
303.15
283.15
292.141
301.408
300.363
289.154
300.444
303.15
302.481
303.15
302.355
285.184
303.15
300.35
290.34
303.15
300.758
303.15
303.15
293.129
283.15
285.526
293.161
300.877
303.15
291.109
293.785
288.136
289.611
288.073
299.172
300.225
300.749
287.333
287.067
301.217
283.15