/*--------------------------------*- C++ -*----------------------------------*\
  =========                 |
  \\      /  F ield         | OpenFOAM: The Open Source CFD Toolbox
   \\    /   O peration     | Website:  https://openfoam.org
    \\  /    A nd           | Version:  10
     \\/     M anipulation  |
\*---------------------------------------------------------------------------*/
FoamFile
{
    format      ascii;
    class       volVectorField;
    location    "9.4";
    object      U;
}
// * * * * * * * * * * * * * * * * * * * * * * * * * * * * * * * * * * * * * //

dimensions      [0 1 -1 0 0 0 0];

internalField   nonuniform List<vector> 
111485
(
(2.90947 -2.91002 0.00347627)
(8.51137 -0.0226289 -0.0494829)
(8.38529 0.0198771 0.0260127)
(2.91003 -2.9108 0.00023175)
(8.71246 0.0383176 -0.00333382)
(3.05733 3.05571 0.000263208)
(8.56352 0.025017 0.0021198)
(8.79659 -0.025183 0.0123821)
(8.56831 -0.00494084 0.0060582)
(8.76841 -0.0953382 -0.0414264)
(8.43575 0.0208935 0.0249481)
(8.82577 -0.0218967 0.0408833)
(8.31296 0.00720073 0.0185491)
(8.39699 -0.0175586 -0.0609456)
(8.51085 0.0337968 0.017875)
(8.69234 -0.0582756 -0.047672)
(8.55462 -0.00959158 0.0128706)
(3.00143 -0.215442 0.444156)
(8.73572 0.02538 -0.0196132)
(2.88927 -2.88539 -0.00145695)
(2.89454 -2.89402 -0.00340033)
(3.06498 3.06397 -0.000262997)
(8.63989 0.029509 -0.00899248)
(8.77549 -0.0594497 -0.0173907)
(8.59562 0.0330091 -0.00989144)
(2.93306 -2.91993 -0.00331174)
(8.86732 -0.0440307 0.0457567)
(8.39027 -0.0126806 0.00355484)
(8.76174 0.0151311 -0.0199006)
(2.89959 -2.90091 4.63997e-05)
(8.82934 0.143496 -0.037422)
(8.72351 -0.0194206 0.00246261)
(2.88736 -2.89361 0.00427387)
(3.0613 3.06761 -0.00752673)
(3.06922 1.28628 0.490883)
(3.08046 3.10106 -0.0450206)
(8.78667 0.143296 -0.0577303)
(8.50135 0.0311296 0.074486)
(8.75383 2.6529 0.147535)
(8.72604 0.0422644 0.00321309)
(3.02379 3.05126 -0.0213048)
(8.82256 0.0101812 -0.0510252)
(8.71672 0.0440448 0.0150669)
(8.40974 -0.0505474 0.00168567)
(8.79233 -0.153833 -0.0787493)
(2.91739 -2.89586 0.0152814)
(8.82134 -0.0396963 0.0394837)
(8.76297 -0.0549218 -0.016522)
(8.82311 0.00409418 -0.0383067)
(2.89286 -2.85801 0.0168803)
(2.87669 -2.8504 0.0180664)
(3.47984 2.9285 0.0505542)
(2.86879 -2.85742 0.00925774)
(8.80825 0.0406905 -0.0755562)
(2.86145 -2.84926 0.000965511)
(8.7073 0.023358 -0.00798289)
(8.71 -0.0372248 -0.0177983)
(3.06496 3.05901 0.00174152)
(7.94322 -0.0178 -0.140203)
(8.75054 0.0356629 -0.00535011)
(8.749 0.0396537 -0.00381964)
(2.90045 -2.90615 0.00374182)
(8.11087 0.0087396 0.053294)
(8.85061 -0.0232053 0.0687829)
(3.16007 2.86488 0.00465713)
(7.98036 0.0183683 -0.0154059)
(6.13717 -0.485132 0.214943)
(8.77747 -0.0312164 0.0125759)
(7.9154 0.00387716 0.0231711)
(7.48617 -0.0146243 0.00366244)
(8.46762 0.0520728 -0.0430447)
(7.85488 -0.00820208 0.0260039)
(3.1418 -2.82773 -0.0654034)
(8.02295 0.0150578 0.0625601)
(2.90668 -2.90564 -4.36069e-05)
(8.73559 -0.0205347 0.00970161)
(3.06407 3.06414 -0.000522844)
(8.81266 -0.0187662 0.0467028)
(3.06322 3.06132 -0.000405771)
(2.75937 2.6924 -0.0912556)
(8.4931 -0.131045 0.0888312)
(8.77114 0.0345408 0.00765625)
(3.05276 3.04552 -0.000149518)
(2.90711 -2.90726 0.00163322)
(8.25995 -0.00155966 0.0160781)
(7.91509 0.021782 -0.0327686)
(6.80324 4.41795 -1.1848)
(8.69033 0.102325 0.00908796)
(8.372 0.215349 0.184358)
(8.47818 0.0110839 0.0256169)
(8.96852 0.180005 -0.11447)
(8.72121 -0.0150406 0.0138117)
(8.15728 -0.0126851 0.0324458)
(8.29237 -0.00962454 0.00944634)
(8.83305 0.0267479 -0.0555252)
(2.907 -2.90666 -0.000692229)
(2.90203 -2.90101 0.00154799)
(8.68687 0.0955719 0.0297779)
(8.94899 -1.76117 0.124593)
(8.13709 0.0301105 0.0537665)
(2.90687 -2.90737 0.00143885)
(8.7373 -0.0476007 0.00469375)
(3.07731 3.08244 0.0168912)
(8.66535 0.000579196 -0.00480137)
(8.58961 -0.0446482 -0.0552677)
(3.00622 2.68992 -0.0631835)
(3.06393 3.06287 -0.00057432)
(8.73097 -0.0238959 -0.00237123)
(8.06635 -0.0442564 0.0102478)
(7.73045 -0.229962 -0.245233)
(8.25553 -0.00646124 0.0150509)
(8.6741 0.0122619 -0.00479842)
(8.08876 -0.00487749 0.032657)
(7.96416 -0.0415982 0.01771)
(2.935 -2.91917 0.00239525)
(7.65743 -0.00740356 0.023082)
(2.91838 -2.90899 -0.0035838)
(3.07772 3.06464 0.0127108)
(8.52497 0.0324017 0.0252168)
(2.90921 -2.90718 0.00104399)
(2.9344 -2.91896 -0.00143166)
(4.02683 3.17025 0.188161)
(3.03232 3.0447 -0.00590166)
(3.07047 3.06315 -0.0072794)
(8.33227 -0.0209399 0.0408048)
(2.32097 -1.63072 -0.433779)
(3.83989 3.30363 0.116475)
(7.73363 -0.0021366 0.0378005)
(2.90666 -2.9055 -0.001027)
(8.775 0.661314 -0.238352)
(8.75839 0.169483 -0.0868653)
(8.67087 0.0980412 0.0289042)
(2.89388 -2.88662 -0.0142867)
(3.94407 3.43072 0.35344)
(3.68092 3.28498 0.154948)
(8.75841 0.0262926 -0.0163876)
(3.06626 3.06597 -0.000951063)
(8.69317 0.0205498 0.0010677)
(8.63605 0.0400507 0.0234866)
(8.48898 0.0384265 0.0363733)
(6.65313 0.000730071 0.0277392)
(8.70549 0.0450579 0.010708)
(8.63152 0.0446283 0.0281826)
(8.22697 0.008752 -0.0344348)
(8.59982 -0.0165866 0.0090526)
(8.50535 -0.00444644 0.0214304)
(3.06696 3.0672 -0.00063725)
(2.90696 -2.90822 0.000266378)
(3.05841 3.06009 0.00640161)
(8.70933 0.038185 0.00651052)
(8.23095 0.014685 -0.0311171)
(2.89653 -2.89503 0.00184971)
(5.68833 -0.0334058 0.0575862)
(8.49252 0.0408426 0.0191975)
(9.30262 0.375909 0.163857)
(8.75716 0.0259828 -0.0172374)
(8.71756 0.026884 -0.00684119)
(8.07673 0.00255083 -0.0156902)
(9.38956 0.460241 0.113513)
(2.89085 -2.91811 0.0112522)
(2.90495 -2.90754 0.00284327)
(8.74235 0.0251231 -0.0168119)
(8.56434 -0.0305353 -0.0317479)
(9.45164 0.518448 0.123632)
(9.32289 0.453809 0.170137)
(8.10511 0.0119994 0.041549)
(8.72271 0.108965 -0.0395569)
(3.0259 3.05118 0.000508591)
(9.56296 0.641887 0.152469)
(9.12193 0.461968 0.14136)
(3.06189 3.06371 0.000844531)
(2.90163 -2.90101 0.000221775)
(6.95263 0.00854736 -0.054055)
(3.06522 3.06651 0.000396664)
(8.67806 -0.0188727 -0.00359742)
(8.34888 0.00456953 -0.0191739)
(3.06445 2.99116 -0.0167957)
(3.1444 -2.88467 0.0311356)
(2.90108 -2.88606 -0.00519702)
(3.0203 2.85295 -0.0294805)
(3.16009 -2.90913 0.0507424)
(2.90458 -2.90632 0.00266288)
(8.68937 0.0332558 0.00977851)
(8.70403 0.0210754 -0.0164519)
(8.67265 0.0271251 -0.00865035)
(8.56302 -0.0254737 0.0307091)
(8.25175 -0.020256 0.00682179)
(8.2806 0.0140736 0.0262648)
(7.34279 0.0955561 0.0101026)
(2.90195 -2.89182 4.58615e-06)
(8.01854 0.0013421 0.0103418)
(3.13686 -2.9085 0.0315894)
(2.92816 -2.93325 -0.00148)
(8.3505 0.0159551 0.0298768)
(8.77276 -0.106683 -0.0386427)
(8.68757 0.0175146 -0.0398516)
(8.34081 -0.00981517 0.0110943)
(8.49443 -0.00596198 0.00977861)
(2.90152 -2.89677 0.00717794)
(8.33084 -0.0378676 0.00594615)
(8.3079 -0.00884179 -0.0524733)
(5.82225 1.8652 0.237208)
(8.51621 -0.0688003 0.00533936)
(8.63705 -0.0145396 0.00762629)
(2.91545 -2.89904 -0.00468525)
(8.31447 0.0205903 0.0297201)
(8.72808 0.0207963 -0.00718625)
(3.19089 -2.87587 0.0144097)
(8.37528 0.0209225 0.0320105)
(8.79144 -0.0063763 0.0448207)
(8.22676 0.00931545 -0.0358363)
(8.28998 0.0217829 0.0390455)
(3.15702 -2.91849 0.0412107)
(2.89998 -2.90014 -0.000802701)
(8.28772 0.0222444 0.0419129)
(5.44164 3.41968 -0.336956)
(8.89276 0.0380377 -0.0878476)
(3.06367 3.06475 -0.00188003)
(8.33941 0.0166213 0.0348597)
(8.3457 0.00615799 0.00481043)
(8.84312 -0.0282825 0.0552587)
(2.90908 -2.90776 0.00113125)
(7.78517 -0.00235957 0.0211037)
(8.73649 0.125331 0.0654517)
(4.81059 3.23502 -0.352376)
(3.06526 3.06578 -0.0022679)
(3.06192 3.0636 0.000837264)
(8.9341 -0.0580209 0.0848753)
(8.3416 0.198828 -0.0237954)
(3.21994 2.7209 -0.0621605)
(3.60781 -2.79322 0.114027)
(8.37159 0.00868753 0.0148358)
(8.64458 0.0153046 -0.000943036)
(8.73023 0.0192044 0.0081886)
(3.17386 2.76412 -0.0811847)
(3.06773 -2.82403 -0.0109139)
(8.40523 0.100339 -0.119585)
(2.90632 -2.90613 0.00173633)
(7.96919 0.0106028 -0.0509654)
(8.27801 0.00555048 0.0346986)
(8.36824 0.00412118 0.01901)
(8.37883 0.0171499 0.0215428)
(8.41259 0.009553 0.0284393)
(3.05361 3.05423 0.00946476)
(6.33111 -0.0183416 -0.243827)
(8.51221 0.0186419 0.0327782)
(3.0489 3.05411 -0.00367615)
(3.06381 3.06566 0.000234779)
(8.87219 -0.108196 -0.0105354)
(8.67025 0.0390677 -0.0130601)
(3.1371 2.67401 -0.0833385)
(7.89195 -0.00325231 0.0242319)
(8.49579 0.0239384 0.0222137)
(2.90863 -2.90719 -0.000870368)
(3.86405 3.65174 -0.0213822)
(8.72885 0.0800916 -0.0352306)
(2.91975 -2.88174 0.00155621)
(3.23226 -2.28968 -0.0546494)
(4.44774 -1.54963 -0.157156)
(2.91182 -2.90341 -0.00146194)
(8.54592 -0.0153371 -0.0165543)
(8.30746 -0.013233 -0.0163977)
(8.65286 0.0137671 -0.0219079)
(2.90501 -2.90547 -0.000211248)
(8.5642 0.0239202 0.02013)
(2.91001 -2.91077 0.000211791)
(2.9093 -2.91029 0.000731037)
(2.90141 -2.89009 0.00478498)
(5.83981 0.022492 -0.090713)
(8.7956 -0.0425398 0.0497098)
(8.3711 0.031104 0.0432622)
(8.53091 0.0286517 0.0138663)
(8.8277 -0.0511982 -0.00207491)
(8.49116 0.0127409 0.0151483)
(8.70389 0.0316463 0.0109433)
(8.76694 0.149736 -0.0144097)
(8.58015 0.0107034 -0.00402987)
(8.65438 0.0153269 -0.00425139)
(3.11671 3.06712 -0.00185621)
(2.89764 -2.89779 -0.0038073)
(5.33605 0.0343752 -0.131556)
(8.7033 -0.0197318 0.00222986)
(8.77245 0.0664546 0.0712249)
(8.28173 -0.0106157 -0.0136043)
(2.90965 -2.90795 0.000773745)
(8.65749 0.0275949 0.016008)
(8.69374 0.0443231 0.0213972)
(8.51794 0.019752 0.0109863)
(7.48809 -0.00778725 -0.0400971)
(7.8505 -0.0918697 -0.19657)
(8.64381 0.0270284 0.00999206)
(8.50705 0.0241416 0.0154807)
(8.66182 0.0667761 -0.0423103)
(3.06427 3.0645 0.000367719)
(7.94565 0.0445481 -0.00273018)
(3.06321 3.06359 -0.000938927)
(2.48811 1.89714 -0.395149)
(3.27913 -2.09411 -0.213912)
(9.00418 -0.0842499 0.114668)
(8.83026 -0.0512603 -0.00174129)
(8.62108 -0.00358561 0.0015706)
(2.9115 -2.90408 -0.000852162)
(3.05094 3.06883 0.0252695)
(8.6473 0.0291204 0.0142711)
(8.27722 0.01836 -0.0115617)
(2.89812 -2.89741 0.000839577)
(2.90974 -2.90758 0.00239262)
(2.84235 -2.86108 0.0182193)
(8.21241 0.0113488 -0.00446299)
(8.61511 0.00974267 -0.00909871)
(8.22065 0.00225567 0.030958)
(7.9512 0.0139152 -0.0426807)
(8.78243 0.0200267 -0.0209284)
(3.50844 3.01239 0.0836785)
(3.05771 3.06506 0.00557518)
(2.90642 -2.90281 -0.00135769)
(8.6109 0.033387 0.023122)
(5.57984 -4.73068 -0.340378)
(8.20378 -0.00985469 0.0117516)
(8.93944 -0.0628106 0.19667)
(7.1965 0.00538565 -0.149905)
(3.06547 3.06489 -0.000425723)
(2.90473 -2.90794 0.00204377)
(2.90958 -2.91072 -0.0014246)
(3.85849 3.23876 0.19843)
(8.72312 0.0264172 -0.003364)
(8.79602 -0.0517566 0.00864524)
(3.06954 3.07741 0.000995952)
(8.66511 0.0242433 -0.00146206)
(3.23533 2.62451 0.184074)
(2.91179 -2.87876 -0.00708479)
(8.87724 -0.0306972 0.073189)
(8.64225 0.0322326 0.0159447)
(8.83168 -0.0121422 0.0209171)
(8.6683 0.0247984 0.000574452)
(2.94638 2.61417 0.158496)
(3.81958 3.28892 0.209238)
(3.05718 3.06109 -0.00437745)
(8.65492 0.0303853 0.0115194)
(8.64323 0.0250541 -0.00225287)
(8.80165 0.156391 -0.0525427)
(3.02958 3.02267 0.00552696)
(6.04336 5.35132 -1.27997)
(8.25248 0.0822297 0.0751642)
(8.80441 -0.0420545 0.0211878)
(8.66474 0.0313677 0.0195854)
(8.24693 0.859765 -0.0699243)
(8.78152 0.0189725 -0.0244636)
(3.05213 3.05217 0.001324)
(8.78358 0.0214322 -0.0131367)
(8.43836 0.0119927 0.0177314)
(8.8842 -0.210243 -0.00212407)
(8.90541 -0.0536315 0.109207)
(8.6074 -0.0696843 -0.0635704)
(3.05064 3.06404 -0.0114431)
(2.9032 -2.90641 -0.00548751)
(3.06974 3.05183 0.0116621)
(2.88476 -2.89308 -0.000567892)
(8.78572 -0.0414224 0.00052577)
(8.70622 -0.0129691 0.00335549)
(8.70912 0.0420231 -0.0327992)
(8.77566 0.0241841 -0.0273001)
(3.03909 3.04217 -0.0131734)
(8.6882 -0.0642395 -0.0235845)
(3.06075 3.06163 0.00110517)
(2.89625 -2.90455 0.000140453)
(8.77697 0.0249401 -0.0179443)
(2.67415 -2.67715 0.0387317)
(4.82082 -0.852725 -0.0680834)
(2.87306 -2.86232 0.00241671)
(3.0898 3.04872 0.0244246)
(8.69403 0.0156714 -0.0123227)
(3.06319 3.0615 0.00111439)
(8.5887 0.0242107 -0.00596581)
(8.16676 0.00470529 -0.0379748)
(3.06856 3.06868 -0.000682253)
(7.86316 -0.00345515 -0.0374293)
(8.54657 0.0152811 0.0123947)
(3.08688 2.71016 -0.098958)
(8.50876 0.0382707 0.0426707)
(8.04465 0.0428125 -0.00383501)
(8.56356 0.0407116 0.0120685)
(7.97967 0.031236 0.101163)
(8.64198 0.0250395 0.00422017)
(8.25316 0.00217422 -0.0162104)
(3.03002 2.59262 -0.0130214)
(2.897 -2.89161 0.0173755)
(7.39361 0.0117995 0.173533)
(3.04242 3.053 -0.0173487)
(8.54854 0.0463536 0.0407256)
(8.88353 -0.0452401 0.089149)
(3.07722 2.94284 0.0245526)
(3.05659 3.06953 -0.000864498)
(8.76072 -0.0177063 0.00675634)
(8.44387 -0.0398568 -0.0871136)
(8.4655 0.0452352 0.00136487)
(8.77485 0.0202793 -0.00772843)
(3.06381 3.05935 -0.00149363)
(8.92231 -0.0254454 0.144214)
(8.78869 -0.0300272 0.0442333)
(3.07296 3.06773 -1.03868e-05)
(8.60141 0.133747 0.10903)
(8.21346 -0.0334976 -0.088861)
(2.90241 -2.90186 -0.000724334)
(2.89903 -2.89898 0.000948647)
(8.577 0.0261213 -0.00926816)
(8.62873 0.00749633 -0.0129629)
(3.07612 3.07623 -0.00388549)
(2.90499 -2.899 -0.00448725)
(5.13878 -2.7596 0.630729)
(2.90881 -2.91077 0.000610212)
(8.62601 -0.00331313 0.0162989)
(3.04331 3.05484 0.00705672)
(2.90976 -2.91066 0.00023772)
(8.83623 -0.0128231 0.0286989)
(8.00625 -0.093551 -0.231778)
(8.73995 -0.0524477 0.01189)
(8.44377 -0.00105656 0.0162654)
(3.0706 3.06847 0.00018657)
(3.9698 3.06353 0.153436)
(8.44111 0.112986 0.161117)
(3.72132 3.28393 0.173598)
(8.41481 0.0359282 0.0660678)
(8.38145 -0.0716848 0.00705509)
(8.74979 -0.0254912 -0.0232701)
(6.08963 0.199825 0.226337)
(3.65175 3.14903 0.157705)
(8.73839 0.0141319 -0.0827916)
(8.85526 0.275275 -0.0926265)
(2.90468 -2.90993 0.00536887)
(8.82489 0.0232062 -0.0874586)
(8.83687 -0.0393715 0.0324362)
(2.91012 -2.90951 0.00298455)
(8.51426 0.488455 -0.261182)
(7.44344 8.48557e-05 -0.10241)
(3.86197 3.04097 0.127785)
(8.80178 -0.0220086 0.0360681)
(8.69491 0.0138536 -0.00976873)
(8.6469 0.0236337 -0.00623329)
(3.06326 3.06062 -0.0008602)
(8.6086 -0.012838 0.0596851)
(8.8338 -0.00372168 0.0283997)
(8.57671 0.0841048 -0.00851048)
(5.41245 -0.0727528 0.0910795)
(3.71927 3.51048 -0.0703159)
(5.10646 -0.130723 0.170792)
(2.90396 -2.90788 0.00213281)
(7.93606 -0.269265 -0.263057)
(8.6105 -0.0144467 -0.0567131)
(3.06468 3.06244 0.00485188)
(8.19103 0.0206476 -0.0628342)
(6.74734 -0.0177031 0.123593)
(3.96586 3.51135 -0.0355758)
(2.90687 -2.90492 0.00018393)
(3.40852 -2.8913 0.0941357)
(2.90913 -2.90796 -0.000361445)
(8.54672 0.047507 -0.0061113)
(8.63471 0.0464715 -0.0148357)
(8.55765 -0.0244907 -0.0249092)
(8.03759 0.0221863 -0.0450397)
(8.76211 -0.179055 -0.0370001)
(3.06154 3.04853 -0.00636373)
(8.50088 0.000342763 -0.0213903)
(2.91546 -2.89409 0.000372982)
(8.41313 0.0314252 0.0203197)
(3.07405 3.07442 -0.00132181)
(2.90693 -2.90436 1.43286e-05)
(2.87725 -2.88539 -0.00387372)
(8.26781 -0.0555951 0.0119381)
(2.89637 -2.89749 -0.00245227)
(2.90844 -2.90871 0.00122307)
(3.02158 2.01938 -0.123767)
(2.90903 -2.91084 0.00101687)
(3.03132 3.0733 0.0288981)
(8.47375 -0.0313365 -0.0132198)
(3.06527 3.06102 0.00113114)
(3.63 2.68326 0.0052541)
(3.06563 3.06749 0.00368063)
(2.89798 -2.88815 -0.00107682)
(3.06465 3.05359 -0.00422679)
(2.89688 -2.88219 -0.0147571)
(3.04658 3.04888 3.27989e-05)
(7.71018 0.00218806 -0.0661954)
(3.06932 3.05308 0.0122171)
(7.90715 0.117498 0.160288)
(8.6557 0.011595 -0.00349775)
(8.92769 -0.366995 -0.05961)
(3.07189 3.05649 -0.000632459)
(7.53205 0.0216695 0.125345)
(3.06935 3.05864 0.00295689)
(2.90965 -2.91083 -0.00127313)
(8.53078 -0.0812814 -0.0876685)
(8.54288 -0.0659272 -0.079308)
(8.56174 -0.0185924 -0.0236808)
(8.94495 0.0230845 -0.152449)
(3.51896 2.96391 -0.097429)
(8.76561 0.00971736 -0.0467401)
(8.76094 0.0147431 -0.0454886)
(8.65855 0.0157779 3.18498e-05)
(8.51771 0.00956518 0.00273814)
(8.67255 -0.088569 -0.0608559)
(2.89639 -2.89793 -0.000799038)
(8.6666 0.0121574 0.000288752)
(4.0045 3.48904 -0.0267089)
(8.63502 0.0223433 -0.0114249)
(3.06044 3.05705 -0.00110361)
(8.79279 0.028687 -0.0394058)
(3.96105 3.29373 0.0305415)
(8.67493 0.00766694 -0.0127185)
(8.7004 -0.0414831 0.0318001)
(3.35921 -1.68579 -0.0207675)
(3.06562 3.06776 0.0341606)
(8.5299 0.0152371 0.0149479)
(2.90596 -2.90498 0.000603569)
(8.83097 0.0363476 -0.0575142)
(8.76515 0.0337078 -0.037575)
(3.06244 3.05331 -0.0244012)
(3.05583 3.05464 0.00754468)
(2.9978 2.69031 -0.0598497)
(3.0622 3.06446 0.00147355)
(6.13039 -0.32819 0.166777)
(8.83593 0.030459 -0.0551471)
(3.10794 3.03483 -0.00220196)
(3.05834 3.06264 0.00302655)
(7.53452 0.00994445 -0.0176298)
(3.06709 3.0667 0.000173783)
(8.69969 0.0242139 -0.0319407)
(3.06486 3.06415 0.000281032)
(8.61638 -0.0507784 -0.0370675)
(2.91024 -2.91005 0.000728368)
(8.08116 -0.0409783 -0.122948)
(6.67422 -0.0269561 0.00733694)
(8.09507 0.0256137 -0.0174117)
(8.67793 0.0098651 -0.013767)
(3.0763 3.05374 -0.0100186)
(7.86596 0.00808224 -0.00113504)
(3.0701 3.05924 0.00275984)
(3.06557 3.06643 -0.00832705)
(8.57771 -0.023172 -0.0138766)
(3.06165 3.05802 -0.00140215)
(7.29632 0.00115535 -0.0744574)
(2.95607 2.72182 -0.0901382)
(8.70996 0.0223258 -0.0281169)
(2.89951 -2.90258 0.000280172)
(8.78455 0.0217886 -0.0193426)
(2.91115 -2.90846 0.000397074)
(3.63456 3.21846 0.093112)
(8.88538 0.319014 -0.0233866)
(8.53452 -0.0730243 -0.0919397)
(8.66359 0.0363816 1.1404e-05)
(8.73509 -0.0991282 -0.0648593)
(8.62485 0.0167352 -0.00927373)
(8.82114 -0.0626251 -0.0062206)
(3.04293 3.06626 -0.0136275)
(8.65806 0.0494976 0.0269562)
(8.56946 -0.0859091 -0.0887753)
(3.06406 3.0659 -0.00167887)
(7.27067 -0.106724 -0.281685)
(8.85366 -0.0642144 -0.0445204)
(8.50212 0.0367914 0.0321374)
(3.03153 2.99021 -0.0171461)
(3.77237 0.764023 -0.592307)
(8.32034 0.0210837 0.0273218)
(6.8054 -0.0270585 0.0690535)
(7.06187 1.82453 -0.0147984)
(3.77202 -1.91053 -0.15695)
(8.80404 -0.101771 -0.0229183)
(8.2613 0.0317321 0.0612679)
(8.52891 -0.0807674 -0.0887906)
(8.69272 -0.0489274 -0.0185083)
(8.54978 0.0500831 0.021146)
(7.59444 0.991922 -0.0444469)
(3.7846 3.21304 0.0265284)
(7.71972 -0.291737 0.0678801)
(7.45256 -0.64686 0.157317)
(2.90368 -2.90508 0.00150641)
(7.60269 0.0533851 -0.0225136)
(3.08009 3.02223 -0.0158212)
(3.59208 3.26726 0.0305975)
(8.61968 0.0195222 -0.00396327)
(7.64434 1.29805 -0.0426441)
(9.19857 -0.781671 -0.141887)
(8.28943 -1.43073 0.0286874)
(3.58253 3.40519 -0.250548)
(8.76819 -0.0544231 -0.0172803)
(8.65109 0.0504657 0.0391298)
(3.05757 3.04901 -0.00149526)
(3.94004 2.19668 -0.0906421)
(8.65084 0.0649839 0.0404925)
(2.9072 -2.89612 0.00313152)
(3.06396 3.06265 -0.000641192)
(3.05444 3.0533 -0.000279789)
(3.06772 3.05178 0.00359225)
(8.76535 -0.0907212 -0.0416578)
(3.06484 3.06406 0.00193192)
(2.91707 -2.91691 0.0154155)
(8.60842 -0.0529922 -0.0434326)
(7.91587 -0.00295428 -0.0242281)
(4.2815 -3.74736 -0.197952)
(8.65137 0.0634699 0.0390218)
(3.5641 2.88344 0.0647088)
(8.69818 -0.0358209 -0.0196482)
(2.85037 -2.84818 -0.0134961)
(3.05725 3.06336 -0.00226759)
(8.74329 -0.0557334 -0.0161676)
(3.06421 3.0456 -0.0128542)
(3.06538 3.05828 0.00174053)
(3.5089 3.35837 0.0968516)
(8.22011 -0.00652742 -0.00547045)
(5.03749 4.21922 -0.559382)
(8.61545 -0.0361613 -0.01752)
(8.61855 0.0190489 -0.00525786)
(2.88148 -2.86275 -0.0229493)
(8.93911 -0.0262931 0.284604)
(8.19094 -0.050302 -0.12309)
(8.58377 0.00151219 -0.00417823)
(8.6883 0.156818 0.0155479)
(8.73514 0.0868995 -0.187951)
(7.5073 0.00382885 -0.0707898)
(3.05889 3.0556 0.00174819)
(8.75385 0.00956507 0.0240686)
(8.68768 0.0368996 -0.00733454)
(2.87887 -2.91696 0.00575234)
(8.07926 -0.00588421 -0.0022413)
(8.76852 0.0485885 -0.0175505)
(8.76714 0.0403145 -0.0146077)
(7.96071 -0.0344164 -0.0789721)
(8.76399 0.0384596 -0.0161413)
(8.76869 0.0459822 -0.00507024)
(2.91259 -2.87396 0.0177537)
(8.76713 -0.0186895 0.0448968)
(7.254 -0.0454387 -0.0136006)
(3.6882 3.2046 0.203398)
(8.76299 0.0327851 -0.0214688)
(8.36187 0.00962955 -0.0199375)
(4.90273 3.99414 -0.601851)
(8.62621 0.0112126 -0.00208224)
(8.76721 0.0278127 -0.0266678)
(8.36506 0.00280162 -0.0350822)
(8.69602 0.0388657 0.00342)
(8.59589 0.0859415 0.0380521)
(8.64881 -0.00329153 0.0125479)
(2.99775 2.93003 0.00447408)
(8.69436 0.0456779 0.0056881)
(8.16096 -0.0539297 -0.110706)
(3.25701 -1.95163 0.0764283)
(8.65305 0.0747325 0.045773)
(8.54177 0.0707415 0.069725)
(8.66858 0.0281798 0.00231099)
(3.05933 3.05211 0.00270234)
(8.40438 0.0486612 -0.0800121)
(2.9067 -2.89409 0.00722601)
(3.06484 3.06507 -0.00208497)
(3.04863 3.02763 -0.00125005)
(3.0695 3.05184 0.000673778)
(7.27479 0.00444815 -0.0333692)
(3.64748 3.14268 0.126569)
(6.56304 -0.463644 0.542299)
(2.89202 -2.89318 -0.000228379)
(3.05785 3.09881 -0.00462269)
(8.6621 0.0859987 0.044397)
(8.71554 0.0226791 -0.0404772)
(2.90884 -2.90909 2.97729e-05)
(8.72475 -0.0530223 -0.00604106)
(2.90697 -2.905 0.00846947)
(2.90898 -2.90695 -0.0011172)
(2.86045 -2.8606 0.00855044)
(8.85426 -0.0718975 -0.0095742)
(7.37074 0.0422586 -0.0202191)
(3.61032 3.2542 0.0405587)
(2.93617 -2.9036 0.00781619)
(3.06012 3.07007 -0.00402503)
(3.06176 3.06365 -0.000729059)
(8.91093 0.0178655 -0.0980831)
(8.65012 0.0171474 0.00095876)
(3.63773 3.42131 0.157251)
(8.81268 0.0279742 -0.0482489)
(8.19687 -0.114889 -0.341073)
(3.05828 3.05967 -0.00157)
(8.78967 0.0242425 -0.0419498)
(8.05775 0.00656922 0.042724)
(8.55449 0.0452958 -0.0516688)
(3.0693 3.06768 -0.000222924)
(3.06026 3.05765 0.000354366)
(8.49224 0.0511022 0.0518615)
(8.67958 0.0216457 -0.00300026)
(3.61813 3.29244 0.0514833)
(3.05026 3.05129 0.000266337)
(3.09959 3.01077 -0.00794954)
(8.62698 -0.0163546 0.00764938)
(2.90448 -2.90442 -0.00321276)
(2.90021 -2.88908 0.00223236)
(3.04643 3.04697 0.000144889)
(8.78688 0.0270626 -0.0368367)
(7.68027 -0.0383205 0.01366)
(3.06763 3.06795 8.02827e-05)
(3.40288 0.695176 0.59558)
(3.6899 -0.386766 -0.147553)
(8.49823 0.0458775 -0.00263991)
(3.05859 3.06361 -0.00137338)
(3.06462 3.0591 -0.00235513)
(8.81529 -0.111044 -0.0170298)
(8.44406 0.143676 0.135762)
(3.66912 3.28015 0.154609)
(5.33289 1.73774 0.127096)
(8.32973 0.190545 0.243959)
(7.96517 0.0245404 -0.0558663)
(8.47094 0.00571415 -0.00716889)
(3.16654 2.97409 -0.00756706)
(8.42164 0.0252481 -0.00352432)
(8.729 -0.0589124 0.0627712)
(3.06965 3.06212 -0.0032769)
(2.88571 -2.83543 0.0049734)
(3.04814 3.04999 0.000381074)
(3.05863 3.05836 -0.000632177)
(3.06432 3.0692 -0.00361155)
(3.0684 3.06952 -0.000624863)
(8.8044 0.0258107 -0.0390775)
(2.90682 -2.90612 0.00188214)
(3.05656 3.05721 0.000463162)
(3.0469 3.00695 -0.00402419)
(8.81241 0.0278184 -0.0494405)
(8.67293 0.0207403 0.000289031)
(2.91962 -2.8797 -0.00086518)
(2.8721 -2.84195 0.00360108)
(8.88166 -0.0428847 0.0766903)
(8.43942 0.00382706 0.0078573)
(8.42677 0.00741378 0.012536)
(2.90795 -2.90022 -0.00161439)
(3.05461 3.05472 0.00208356)
(8.43344 0.00484095 0.0118039)
(2.9088 -2.90637 0.000377552)
(8.33034 0.0232461 0.00233675)
(8.52166 0.0140391 0.0295976)
(8.54499 0.029497 0.00976191)
(2.91624 -2.89455 0.00829183)
(2.90815 -2.90963 0.000559619)
(2.90766 -2.9096 0.000199529)
(3.06489 3.06521 0.000872929)
(8.63882 -0.0415455 -0.0240932)
(3.06137 3.06438 0.00131591)
(3.05581 3.05308 -0.000133743)
(8.59688 0.0231979 -0.0341316)
(2.90837 -2.90932 0.00123977)
(8.47096 0.00143756 0.00995802)
(7.72891 -0.0672391 0.0262045)
(3.08237 2.97853 0.0159559)
(8.66192 0.0244336 -0.00978255)
(4.08691 0.627138 -0.107572)
(8.55284 0.00909822 0.00460725)
(8.84216 -0.0297374 0.0202608)
(7.79864 0.0320354 0.0110768)
(8.84279 -0.00143876 0.0577704)
(6.38252 0.140168 -0.241881)
(3.644 2.91775 0.0588352)
(8.53349 0.00529276 0.00328131)
(8.87738 0.0702893 0.010966)
(8.66757 -0.020803 -0.00889787)
(3.13784 2.73161 -0.0912826)
(3.87914 0.384945 -0.197446)
(4.62083 -0.312811 0.154605)
(8.54307 0.0122516 0.00651084)
(3.05597 3.06048 0.00407017)
(8.37691 -0.0194439 -0.0619616)
(8.55734 -0.00800304 -0.0195266)
(8.30624 -0.0740307 -0.134266)
(3.17806 -2.24311 -0.170591)
(2.90892 -2.91005 0.00142637)
(2.90585 -2.90588 -4.78132e-05)
(8.70835 -0.0284544 -0.00328245)
(3.57051 2.96135 -0.0383492)
(8.26536 0.0288393 0.0134693)
(3.32274 3.02708 0.0422122)
(8.22285 -0.0165566 -0.0589542)
(8.45464 -0.0178204 0.00879599)
(8.36679 -0.0103455 0.0297824)
(8.67726 0.0222253 -0.00430873)
(3.05567 3.05563 -0.00102078)
(3.04241 3.03293 -0.00568176)
(3.10636 -2.82976 0.0145452)
(8.6628 0.0300546 0.00606267)
(3.06833 3.05958 -0.000608213)
(3.53496 3.04237 -0.134149)
(8.85167 0.165991 -0.139658)
(3.07381 3.07003 -0.0018009)
(3.0498 3.06485 0.00924613)
(2.89234 -2.88341 -0.00476932)
(3.06637 3.06721 0.000901062)
(8.27578 -0.00318787 0.0282453)
(3.12651 2.96996 0.00604675)
(3.06512 3.06198 0.000997514)
(7.03274 0.99644 -0.730139)
(3.58322 2.90217 -0.039752)
(3.05035 3.05194 -0.0253859)
(4.19295 -2.46585 0.154626)
(3.06268 3.05911 -0.00330592)
(6.75104 0.0268779 -0.0597312)
(8.4377 -0.0144539 0.0235248)
(2.89725 -2.89759 -0.000168114)
(8.29216 0.00854043 -0.0215884)
(8.38454 1.36464 -0.188873)
(8.24591 -0.0803366 -0.132826)
(9.07226 0.341444 0.00894821)
(8.15375 0.0071062 -0.013294)
(3.06178 3.04076 0.00969028)
(8.56063 -0.0817007 -0.0917984)
(8.86443 -0.0328746 0.0189613)
(8.24367 -0.0808579 -0.133304)
(2.90613 -2.90704 -0.000225268)
(8.99082 2.36269 0.630433)
(8.25597 0.0122831 0.0126688)
(4.074 3.25576 -0.192489)
(8.19898 0.00344268 0.0091925)
(8.95086 0.113276 -0.0847637)
(8.5409 0.173461 0.00941483)
(8.4731 -0.0255703 -0.0335571)
(8.47691 0.0284624 0.00107992)
(9.02156 0.133609 -0.0499307)
(8.69933 -0.0152461 -0.0140489)
(8.61304 -0.0123046 0.0089472)
(3.03831 3.04994 0.0114669)
(3.04931 3.03437 0.00941198)
(8.31477 0.0227092 0.0117633)
(8.17466 0.0106249 0.0105156)
(3.05742 3.06468 -0.00131502)
(8.4319 0.00816876 0.000301359)
(8.83281 -0.0420888 0.00528589)
(8.63568 -0.0212028 0.00764683)
(3.06293 3.03158 -0.00113739)
(8.51127 0.173336 0.0382812)
(3.05518 3.0527 0.000168564)
(8.61751 -0.0119407 0.00755794)
(8.64574 -0.0135833 0.00578762)
(3.06267 3.06137 -0.000271123)
(8.26172 0.0448595 -0.0212959)
(8.62252 -0.0097221 0.00130316)
(8.47657 0.161584 0.014279)
(8.341 0.00207837 0.0340797)
(3.12479 3.0663 -0.00467209)
(8.71678 -0.0234133 0.0259377)
(8.50255 0.197354 0.00237678)
(8.96332 -0.206427 0.058021)
(7.5442 0.0990308 0.0262868)
(6.7323 0.0212872 -0.0953878)
(3.0646 3.0331 -0.00548322)
(3.05449 3.0517 0.00221688)
(8.36186 0.115703 0.0151379)
(3.06655 3.06674 -0.0010125)
(7.29786 -0.0207387 -0.0181571)
(8.40192 -0.0450668 -0.0659834)
(5.12926 0.724691 -0.186088)
(9.30254 -0.594746 0.227192)
(8.20969 -0.365799 0.110413)
(9.13881 -0.32417 0.0912848)
(3.06593 3.06613 -0.000936992)
(4.15332 3.52779 0.0291199)
(8.69771 0.0215072 -0.00670838)
(2.89416 -2.90582 -0.00986834)
(1.59306 -1.11099 0.476939)
(8.60634 -0.165627 -0.128999)
(3.05248 3.04501 -0.00606169)
(3.06797 3.0644 0.000303963)
(7.6828 -0.148314 -0.00261613)
(6.28251 -0.407121 0.0840008)
(3.0671 3.06741 -0.000388992)
(7.7796 -0.144843 0.0255583)
(3.05386 3.05131 0.00128737)
(3.06264 3.06749 -0.00505057)
(2.90548 -2.90573 -0.000571411)
(2.9092 -2.90273 0.00593235)
(2.85123 -2.82666 0.00938849)
(2.90324 -2.89754 -0.000351395)
(7.76207 0.064606 -0.0291577)
(3.04151 3.02118 -0.00363658)
(3.06166 3.06301 0.0010436)
(3.04535 3.06148 0.00545546)
(7.22979 -1.59343 -0.414581)
(8.19102 -0.0680152 -0.150211)
(7.9287 0.000163753 -0.0830098)
(8.69841 0.0202551 -0.00747541)
(3.04723 3.02756 -3.98618e-05)
(3.07529 3.06405 0.00017078)
(8.33235 -0.143238 -0.174647)
(3.0649 3.06589 -0.00355216)
(3.06229 3.05923 0.000892951)
(4.86858 2.80631 0.101992)
(8.87036 -0.121911 -0.00804991)
(8.68139 0.0200766 -0.00798766)
(3.06094 3.06027 -0.000307223)
(3.05892 3.05358 0.00448016)
(3.04734 3.03911 -0.00393313)
(3.05221 3.04589 -0.000434708)
(3.06567 3.06444 -0.00334809)
(3.07266 3.06389 0.00186502)
(8.68669 -0.203513 -0.12857)
(3.06949 3.06063 -5.41221e-05)
(6.02718 0.0869546 0.202696)
(8.75981 -0.0198645 0.0228612)
(3.06241 3.06678 -0.000850105)
(2.88584 -2.89747 -0.00789026)
(2.86633 -2.8365 0.0032599)
(7.343 0.0863302 0.39777)
(2.84561 -2.84228 -0.0117067)
(2.9042 -2.90648 0.00305487)
(3.04523 3.05038 -0.0191415)
(7.87017 -0.123174 0.00802883)
(3.05278 3.05173 0.000277527)
(8.63444 -0.113598 -0.0715467)
(6.87513 0.113014 -0.035358)
(5.67338 0.00716205 0.226505)
(3.05398 3.05627 0.00087827)
(5.90571 -1.50732 0.119701)
(8.70197 -0.0159746 0.00284418)
(8.76547 0.021106 -0.0226558)
(3.12382 -2.97959 -0.033699)
(8.4271 -0.136337 -0.0220309)
(8.60272 -0.0164868 -0.00906651)
(2.90932 -2.88893 0.00284074)
(3.16473 3.00311 0.0147944)
(4.11072 -3.16497 -0.26543)
(3.04633 3.04534 0.00104664)
(8.70216 0.01707 -0.00224101)
(8.69455 -0.0110378 0.0103034)
(8.84201 -0.106863 0.0444828)
(5.81773 -0.00636414 0.318716)
(3.06821 3.06648 -0.000326198)
(8.7051 0.0172209 -0.00382495)
(3.14385 2.99275 -0.00750877)
(3.82594 3.23847 -0.0133245)
(3.913 -3.04336 -0.126241)
(3.06226 3.06276 0.00119938)
(8.72498 0.0263548 -0.00558688)
(3.05298 3.04596 0.00195876)
(2.87564 -2.82312 0.00140178)
(7.95339 -0.109684 -0.20015)
(8.53946 -0.0191237 0.0101961)
(2.87729 -2.8295 -0.00788195)
(8.57861 0.0153663 -0.00367104)
(3.26172 3.19001 -0.0189626)
(8.71311 -0.0745794 -0.0385522)
(2.8814 2.75717 0.0273578)
(3.06553 3.0675 -0.0013887)
(3.07824 3.06785 0.0100287)
(2.90971 -2.91028 0.00078654)
(8.43347 0.0133249 -0.0135004)
(7.54404 0.0162291 -0.0346542)
(8.7392 -0.02385 0.186275)
(3.04971 3.05247 0.00200133)
(3.0451 2.9905 0.0206262)
(8.38559 0.0161921 -0.0149942)
(3.06596 3.06611 -0.00112671)
(3.55789 3.22152 0.044482)
(2.90673 -2.90478 0.000203907)
(8.34324 0.0538276 -0.00538571)
(8.88389 -0.218909 -0.0643348)
(8.70192 0.0217013 -0.00919062)
(2.90257 -2.89668 0.00674195)
(6.88941 -0.0104052 0.192098)
(7.19177 0.00688195 0.18478)
(2.75486 2.43461 0.0169694)
(7.77609 0.0996699 0.156248)
(3.06685 3.05096 0.00300033)
(8.21325 0.0773401 -0.00770861)
(8.82287 -0.0148947 0.051182)
(8.54448 0.0056837 -0.0147467)
(8.83361 -0.111896 0.0133114)
(8.1152 -0.178973 -0.25216)
(3.06527 3.06195 0.000762191)
(3.06588 3.06561 -0.000228172)
(3.05864 3.06275 -0.000620418)
(7.11303 0.0702007 0.256399)
(3.03633 3.00929 0.00332984)
(8.63246 0.0364723 -0.0158853)
(2.90548 -2.90515 -0.00022594)
(8.55516 -0.259246 0.18226)