/*--------------------------------*- C++ -*----------------------------------*\
  =========                 |
  \\      /  F ield         | OpenFOAM: The Open Source CFD Toolbox
   \\    /   O peration     | Website:  https://openfoam.org
    \\  /    A nd           | Version:  10
     \\/     M anipulation  |
\*---------------------------------------------------------------------------*/
FoamFile
{
    format      ascii;
    class       volScalarField;
    location    "76";
    object      SgP;
}
// * * * * * * * * * * * * * * * * * * * * * * * * * * * * * * * * * * * * * //

dimensions      [1 -1 -3 -1 0 0 0];

internalField   nonuniform List<scalar> 
59698
(
0.00309482
0.00183543
0.00231275
0.00271391
1.14534e-06
0.00145199
0.00249694
1.07198e-07
1.98948e-09
3.92869e-09
0.000586479
1.77367e-09
1.58016e-09
0.00228615
2.7855e-08
4.28685e-07
9.40659e-09
3.80295e-09
1.62084e-09
5.95286e-10
0.000365114
1.56127e-06
0.000498817
8.81911e-08
2.00971e-07
1.20127e-09
1.20086e-09
0.00248158
0.00239446
2.15694e-09
1.35516e-07
0.000600625
6.68184e-08
0.00403431
1.11436e-06
3.81743e-09
0.000464804
5.04058e-07
1.73253e-08
0.00245275
2.96505e-08
2.30471e-07
2.30624e-08
2.45726e-08
0.000402107
1.04846e-07
2.71066e-09
4.88511e-08
0.0029084
3.14478e-08
2.95322e-10
2.34425e-09
0.00172824
0.00272939
0.00216832
2.03934e-09
8.45259e-08
1.543e-08
1.76845e-08
2.74719e-05
0.00178288
6.28009e-08
1.98116e-07
1.51151e-09
4.99431e-07
4.18468e-08
1.75101e-09
3.2379e-09
4.2057e-09
6.77079e-09
6.07238e-07
2.79493e-08
0.000360141
1.55283e-06
0.00041195
1.01372e-06
2.16036e-08
2.20382e-08
6.39492e-09
1.02044e-08
4.79496e-07
9.83968e-10
4.02838e-09
8.05737e-09
1.69847e-05
3.14992e-08
9.15988e-09
2.23097e-07
2.34117e-06
2.3207e-08
4.51058e-09
6.35868e-08
1.75063e-07
6.53027e-09
6.04857e-08
0.00359107
1.35921e-07
6.18646e-08
5.10519e-08
8.5998e-10
0.00353773
2.07739e-05
2.9556e-07
0.00329296
5.40822e-08
0.000564779
2.33322e-09
2.31725e-09
2.66578e-09
4.39829e-10
3.74565e-08
2.62176e-06
1.35543e-06
1.56282e-07
9.76193e-08
3.45582e-08
3.49039e-07
0.00353377
2.92662e-07
1.1518e-08
2.26983e-09
2.98499e-07
2.25779e-07
3.33891e-09
1.62516e-09
7.80578e-09
8.37048e-09
7.21303e-09
1.27112e-08
3.8643e-07
0.00335616
3.86302e-09
1.10663e-09
1.88935e-07
6.33109e-08
3.22675e-09
4.91683e-07
2.4726e-10
1.73999e-09
5.66656e-09
2.08751e-08
0.0023172
0.00252092
1.5805e-09
1.90723e-07
7.93614e-10
5.35085e-07
3.7884e-07
0.00448814
7.04756e-07
0.000257381
0.000434377
2.78842e-08
2.54746e-07
9.63968e-09
1.04565e-07
7.43287e-09
0.00162893
6.72001e-08
6.04631e-10
3.10255e-09
7.70278e-09
2.20801e-08
9.6705e-08
1.88839e-08
0.00222871
1.05682e-09
0.000566922
0.0015253
6.91146e-09
2.55893e-07
1.4599e-06
2.18372e-07
9.28607e-07
5.74161e-07
0.00121901
4.39338e-09
0.00139571
0.000326011
0.0029325
2.25528e-06
7.42757e-07
4.01087e-07
1.12386e-08
2.50832e-07
6.79755e-08
3.70297e-07
0.00238059
1.37833e-10
1.84201e-08
6.42953e-09
7.06185e-09
2.3085e-08
6.05108e-07
1.22065e-07
0.00416733
1.7356e-06
0.00294458
1.27614e-05
9.06496e-08
0.000227071
6.75404e-07
1.54265e-09
2.5439e-09
0.00356786
0.00244691
3.56911e-08
0.00205809
0.00270781
0.00350327
0.00242677
6.10509e-09
0.00262736
1.56755e-08
2.34313e-09
0.00336707
9.86259e-09
4.54478e-08
1.54905e-07
4.65715e-09
1.37268e-05
0.00217433
1.73115e-09
5.10192e-07
8.94345e-09
0.00274685
2.12284e-08
5.48255e-09
4.83729e-08
6.98098e-07
7.58209e-09
1.87114e-08
7.43354e-09
1.13811e-08
9.49741e-09
9.02274e-09
3.08213e-07
1.95746e-08
1.76569e-07
8.19369e-09
0.00261372
1.18996e-07
3.44586e-08
0.000664542
8.73448e-09
2.15138e-07
2.29959e-05
3.45106e-06
5.29354e-09
4.95682e-09
6.10101e-08
6.58608e-09
3.11121e-08
0.000233554
1.93015e-08
0.00169902
1.1008e-07
5.41486e-08
0.00314716
2.88351e-09
7.74726e-06
1.82801e-09
7.83878e-09
0.00270858
0.00357792
8.5665e-07
1.0898e-09
1.06462e-07
1.98346e-08
6.01316e-10
3.12753e-09
1.53516e-06
6.91259e-05
6.66043e-10
1.24299e-07
5.01572e-08
0.0014658
3.97644e-08
2.94045e-09
1.224e-09
0.000574132
1.79631e-09
1.67535e-09
4.70568e-07
0.00334963
1.02542e-07
5.27057e-09
0.000647249
3.84128e-07
1.00556e-07
2.63042e-06
0.00232506
9.27824e-09
1.35954e-09
7.04312e-07
0.00273224
4.70302e-10
1.52306e-07
1.44956e-08
6.42242e-07
3.07643e-09
2.32494e-09
6.86642e-08
5.718e-10
1.09218e-09
1.16283e-09
3.62199e-07
2.19393e-08
5.36686e-09
5.2555e-10
0.00190122
4.20208e-08
3.92781e-09
2.37969e-08
0.00191499
5.52746e-09
0.000403389
8.30481e-09
0.000829308
8.51941e-08
9.53177e-08
3.0248e-07
1.67331e-08
2.93464e-09
1.52307e-06
2.54835e-07
1.60784e-08
8.70173e-09
4.34298e-10
0.000361923
0.00289877
4.02012e-08
3.58749e-07
2.4446e-06
0.000430954
1.03807e-08
7.76389e-09
4.28908e-09
1.40281e-07
0.00122085
2.13353e-08
0.0020621
0.00250593
4.95063e-09
9.97663e-08
1.3568e-09
2.64429e-10
1.24916e-06
1.3409e-09
0.00203387
9.29006e-10
1.29109e-08
1.25136e-06
7.94952e-10
9.52421e-07
0.00191641
2.6908e-06
1.44108e-08
3.31617e-08
1.82625e-09
2.10029e-08
1.08678e-08
1.10646e-07
3.58973e-09
1.40585e-10
1.04124e-07
0.0027968
0.00201717
2.83403e-08
9.86113e-07
1.13163e-07
0.000533991
0.00366893
0.000651123
2.08855e-08
2.97737e-09
3.6341e-08
2.04201e-09
0.000460522
2.48727e-09
0.000347123
4.46334e-08
4.34247e-08
5.15477e-08
8.5233e-10
6.75714e-06
1.09787e-08
0.000544827
8.69746e-10
3.36873e-08
2.09619e-08
0.000457475
0.0033005
3.26919e-09
5.39016e-05
0.00179783
3.57494e-06
0.00182705
0.00269784
8.14906e-08
0.00243864
0.00236495
0.00257383
5.42481e-09
0.00148346
0.00417839
0.00383968
0.0027627
5.98022e-09
8.24556e-07
1.88239e-07
0.0004043
0.00163743
0.000434525
4.72667e-10
2.07347e-07
2.02008e-09
2.2848e-06
0.00189681
0.0017571
0.00292208
0.00218232
0.00249156
0.00166428
7.83245e-09
2.05258e-09
7.84022e-09
1.74959e-08
0.00138447
5.73859e-10
7.7981e-09
0.00196133
0.0011653
2.34662e-08
3.69883e-08
1.42461e-08
1.39944e-08
0.00126032
3.33667e-09
0.00211838
1.92326e-07
0.00321067
5.14768e-09
4.40094e-08
1.86337e-07
2.03106e-06
8.73483e-08
4.51535e-10
2.15255e-09
1.29261e-07
0.00254332
6.60929e-09
7.25764e-08
1.96711e-06
6.16207e-07
1.15133e-07
3.4118e-07
1.40318e-09
1.15351e-06
1.65067e-07
6.10623e-08
4.61892e-09
0.00320804
6.32639e-09
2.18949e-09
2.0264e-07
3.50655e-07
9.27852e-09
4.45041e-08
6.16287e-09
0.00247469
4.41127e-09
2.01334e-10
6.84891e-09
6.33161e-08
2.03087e-06
8.16262e-07
2.18338e-09
0.00300896
0.00194619
2.34203e-08
2.2091e-07
1.59622e-08
1.94121e-08
2.52762e-07
4.12285e-08
4.43696e-08
1.96579e-08
1.63544e-09
1.64751e-09
2.49686e-07
4.03876e-07
3.90144e-10
4.23382e-08
0.00402044
2.12662e-07
1.53805e-08
0.00236662
3.71066e-08
0.000365619
9.71055e-10
1.18777e-07
2.04115e-07
1.21265e-08
1.71068e-08
1.12013e-09
8.17114e-08
2.17728e-09
5.25203e-09
8.28394e-09
5.76304e-09
7.92356e-09
1.34699e-06
5.41924e-08
1.60312e-08
2.68202e-09
6.88115e-09
1.0032e-08
7.03413e-08
2.48396e-08
1.70886e-08
3.4677e-09
5.06857e-09
3.86703e-09
2.18526e-09
6.30824e-06
3.29824e-08
2.81295e-09
0.00339746
0.00370793
2.91422e-09
0.00382756
1.82751e-08
5.48526e-09
0.00145126
3.5636e-10
1.35535e-08
0.00178825
1.89618e-09
0.000384885
4.29689e-08
2.56151e-09
4.50023e-08
2.98063e-06
1.48393e-08
5.27312e-09
8.94639e-06
0.000167056
1.87515e-08
7.41929e-06
1.8267e-08
2.28381e-09
3.10205e-08
1.91405e-09
5.11169e-09
1.44539e-08
1.9068e-08
1.61901e-08
2.58628e-09
2.22995e-09
0.000768507
1.74038e-09
1.65492e-08
9.99454e-06
1.50948e-08
1.8096e-09
1.21427e-06
2.26005e-08
8.56578e-09
0.000539255
7.78821e-10
7.626e-09
1.96e-07
1.57217e-09
4.40471e-08
1.31743e-09
3.16171e-10
4.30388e-10
0.00200336
2.31321e-09
0.000732637
3.91223e-08
0.00320743
1.49196e-08
3.29062e-09
0.000313361
1.18046e-09
1.35493e-08
1.79695e-08
1.6406e-08
1.99066e-09
0.00316743
8.12002e-09
1.68442e-08
8.51446e-10
4.16665e-08
9.29823e-07
0.00264991
0.000349775
7.15984e-09
7.94505e-09
1.64277e-09
2.90541e-09
0.00337481
1.35294e-08
4.42688e-09
2.4749e-09
0.00108752
0.00385608
1.54028e-08
1.26184e-08
1.56803e-09
1.14689e-08
4.29764e-09
4.11862e-09
5.15057e-09
4.90645e-09
3.64051e-08
7.87885e-05
7.32064e-09
5.04287e-09
7.88331e-09
1.81964e-08
2.54124e-05
0.00241926
1.09065e-08
0.0026635
1.63223e-09
8.7702e-09
4.32271e-09
0.00269465
0.000211208
9.7437e-10
8.40844e-09
6.92614e-10
2.85832e-08
6.32184e-09
2.85151e-09
0.00151549
0.00323676
1.32057e-07
1.62468e-07
0.000607893
1.4511e-09
5.24989e-09
1.60616e-09
4.12153e-07
0.00210715
3.38793e-08
1.75387e-09
0.000439477
7.71437e-09
3.19086e-08
3.33142e-09
2.3821e-09
4.34712e-09
9.32386e-10
7.71339e-06
1.01725e-09
0.00182037
5.08427e-08
1.12024e-07
6.80211e-09
1.5481e-06
3.42515e-06
5.38216e-09
2.07773e-08
0.00230814
0.00311019
7.31008e-08
3.86849e-09
7.5905e-07
1.55861e-09
0.00343707
3.10732e-10
1.96066e-08
0.000428463
0.00255403
4.15377e-09
1.60423e-09
1.96469e-07
5.90303e-07
3.53428e-07
0.000378101
0.00139637
1.1433e-10
6.65576e-09
8.29663e-10
4.63809e-09
0.00277521
2.71806e-08
0.00303012
9.98983e-09
0.00131531
0.0020961
0.00236413
6.17222e-08
4.1143e-09
0.000650639
1.27383e-09
2.37897e-10
9.10528e-10
4.35183e-09
1.81543e-08
4.56952e-09
1.50578e-09
9.17534e-08
6.7315e-08
7.61182e-09
2.72398e-09
0.00186402
4.18026e-08
3.60279e-08
0.000362191
1.01773e-08
3.48368e-08
3.81992e-08
1.93017e-09
1.38864e-09
0.00064694
0.00196297
0.00241491
3.8559e-09
1.11402e-08
6.45223e-09
1.6378e-07
0.0019455
1.36859e-09
5.70044e-07
2.58731e-08
1.32142e-05
0.000344565
0.00169858
2.25566e-07
1.48131e-07
2.23936e-08
0.0043084
0.000532166
1.88764e-08
8.82499e-07
3.49604e-09
6.816e-08
3.46414e-06
0.00231956
2.45201e-08
1.20639e-07
1.00617e-07
1.58748e-05
2.45608e-08
0.00185621
2.48514e-09
5.16976e-08
1.16447e-08
0.00213074
6.86082e-10
6.5098e-09
2.07297e-07
4.46591e-06
0.00059978
1.09264e-07
7.05632e-08
0.000383645
4.15162e-08
2.58068e-09
0.00190613
0.0021966
5.46589e-09
7.5504e-09
0.000401558
1.00382e-08
1.76076e-08
0.000373923
3.51565e-10
0.00265398
2.55786e-09
1.92904e-08
1.81682e-07
4.00178e-09
3.93669e-08
3.58638e-08
4.97926e-05
3.75429e-09
6.14041e-09
7.09004e-09
1.17627e-08
9.70737e-08
1.50875e-08
0.000326089
6.78223e-09
2.03353e-08
0.00140036
5.74392e-08
9.83773e-08
9.35527e-06
0.00187034
2.38545e-06
0.000541419
6.90984e-09
0.000383123
1.59213e-08
4.19448e-09
1.58753e-09
0.00314076
3.78579e-07
3.26109e-08
7.12112e-05
6.43815e-08
0.00157968
1.70031e-07
9.81965e-06
3.48457e-09
0.00100438
3.16177e-09
0.0013044
5.37689e-05
2.44624e-07
0.000651795
0.00179453
1.21058e-06
1.11289e-05
4.13108e-09
1.13415e-06
2.52259e-08
4.08694e-05
0.000444783
0.000428782
0.00211175
3.51872e-08
3.21583e-08
0.000561236
4.5666e-08
0.0022771
6.86756e-10
0.000401152
2.27848e-09
2.66656e-09
2.94168e-05
0.000503631
0.000206247
0.000108581
7.69602e-09
5.09024e-09
1.88414e-09
0.000487253
2.0889e-09
0.00350803
0.0047371
2.48918e-09
0.000499686
2.07372e-09
9.84773e-10
2.94007e-09
3.20521e-06
0.000469636
2.87732e-09
1.28409e-09
1.05583e-06
4.45444e-09
1.12214e-07
3.7835e-09
2.98241e-09
8.88295e-08
2.63817e-07
3.12991e-08
1.04104e-08
0.000532567
8.1492e-10
0.000127628
2.69923e-10
2.48213e-09
0.00124247
1.48443e-09
7.75095e-06
8.98235e-08
7.44237e-09
0.000108819
1.25176e-08
0.00157162
2.72374e-08
4.6115e-10
0.00174583
5.67922e-09
1.13244e-08
0.000307139
1.24309e-09
0.00205968
1.69187e-08
1.42109e-09
0.00423001
3.05958e-09
5.24293e-09
1.50001e-08
1.63461e-08
0.000319936
7.95479e-09
5.61212e-09
1.64979e-07
0.00180902
0.000633468
0.000584052
2.24561e-08
1.77018e-09
0.000379941
0.00237
6.58227e-09
8.57823e-09
5.57913e-08
1.16078e-08
2.82733e-09
2.56978e-08
0.000412247
0.00144849
0.00262296
1.49181e-07
2.03979e-09
0.00267084
0.00400968
0.0052096
5.09564e-08
1.80763e-08
1.64611e-07
4.43347e-07
1.80963e-08
2.7215e-08
7.87124e-07
2.82014e-08
7.5142e-09
8.17102e-09
1.35457e-06
7.19346e-08
7.36135e-09
0.00254235
1.60528e-09
6.01267e-08
1.875e-08
2.82337e-08
6.50865e-09
3.8924e-10
0.000761136
1.88923e-08
3.11698e-09
0.00193674
1.90566e-08
2.39753e-08
0.00316675
2.93373e-08
3.33961e-07
5.69794e-09
1.99877e-08
2.43368e-08
0.000825732
3.07798e-08
0.00220049
1.82798e-07
1.98663e-07
3.66346e-08
0.00533111
0.000294949
4.58236e-09
5.48769e-09
9.9222e-07
1.44517e-09
1.12272e-08
8.53147e-09
0.00167349
1.17224e-09
2.28811e-09
8.15666e-09
2.47233e-09
3.57598e-08
2.36818e-08
7.50884e-09
0.000429222
0.00219277
0.000466221
6.29639e-08
0.00314144
0.00256233
5.62143e-08
1.76657e-09
0.00183296
6.44695e-06
0.00154631
0.0020821
0.00203124
3.32637e-09
5.88604e-08
0.00237827
1.95775e-07
3.28825e-08
1.89941e-07
2.64424e-08
0.000443688
2.08893e-08
0.000538421
1.69512e-05
2.57435e-08
0.00196207
2.00238e-08
0.000608722
6.86799e-09
1.7052e-08
1.2376e-09
3.9982e-08
0.00153623
0.00364918
1.27011e-09
0.000395622
0.00188713
0.00135368
0.00278204
5.67316e-10
1.01297e-08
1.17506e-09
0.00355399
8.13933e-10
1.2972e-07
0.00355976
5.33398e-09
0.00346993
0.0035155
0.00366745
1.54544e-08
5.72342e-08
4.62432e-08
8.78132e-09
1.10679e-08
6.14777e-08
1.26517e-08
4.77211e-09
0.000475248
4.13622e-09
3.70776e-08
2.76059e-07
5.19735e-10
0.00162314
2.9228e-08
4.6166e-09
6.66997e-08
2.67891e-10
7.00588e-08
3.89956e-09
2.02842e-07
0.00306607
3.12062e-05
8.90127e-10
1.56451e-08
0.00210099
0.00314921
1.78316e-07
0.000760374
9.91972e-09
7.80971e-09
0.00257384
2.22325e-08
0.00322073
0.000542246
1.04756e-09
7.36119e-08
0.000765799
1.692e-08
2.50625e-08
0.00250175
6.39358e-09
1.35628e-08
3.12388e-09
0.000534604
3.14466e-06
0.00193137
1.81558e-07
9.39075e-09
0.00175022
1.44181e-07
2.55339e-10
5.9546e-06
2.18577e-09
7.2106e-07
0.00129385
2.71619e-09
9.52051e-10
1.13648e-08
5.90835e-09
1.54742e-08
5.86155e-09
1.26171e-08
1.00028e-06
9.68128e-10
1.249e-09
0.00169857
4.66111e-09
5.49526e-06
2.93269e-08
4.97016e-06
1.30737e-06
1.17155e-06
5.36871e-06
1.25788e-06
5.34605e-09
1.65893e-08
0.00100312
2.84342e-06
2.49635e-08
2.26402e-08
2.49717e-08
0.00044909
1.36529e-06
7.79407e-08
2.28921e-07
3.4438e-09
0.00226325
4.76235e-09
1.2271e-08
2.08718e-08
1.18487e-08
2.99181e-08
0.00212643
5.58569e-08
2.40606e-08
1.86634e-08
4.83486e-09
0.000477735
2.27673e-09
5.1975e-09
3.35892e-08
2.58781e-10
1.43254e-09
6.08495e-09
9.36219e-09
1.37407e-08
0.000332848
1.14227e-08
1.31699e-08
2.49374e-09
1.99957e-08
1.24343e-08
1.01008e-08
5.84635e-08
0.000380629
0.00242463
1.54475e-08
7.8645e-09
0.00284485
1.65879e-09
4.31643e-05
0.00203024
4.9603e-09
7.11598e-07
1.53058e-06
0.00186583
2.20214e-08
3.1812e-08
2.17591e-07
1.74131e-05
8.68166e-07
2.14087e-07
1.40114e-09
3.72972e-09
4.27605e-07
1.09211e-07
5.99921e-09
1.54264e-09
1.28466e-08
7.55799e-09
3.02389e-06
0.0012939
6.40743e-08
3.63604e-08
5.11117e-08
0.00264601
0.00244627
9.15125e-07
1.51436e-08
3.27123e-08
4.01434e-08
4.46304e-09
2.89285e-09
1.81475e-07
4.22161e-09
3.45753e-08
2.02781e-09
1.26273e-08
2.26807e-08
3.33551e-09
4.17414e-07
2.79925e-09
0.00043443
9.50206e-08
0.00394811
0.00165213
1.12395e-07
2.1442e-08
0.000579701
0.000345167
2.77291e-08
2.3427e-08
9.28114e-06
2.30333e-09
1.87891e-09
2.36127e-08
1.72824e-08
0.000781454
0.000646991
9.57568e-09
1.17871e-08
7.77078e-09
3.33324e-07
5.13126e-08
0.00267068
0.000496402
1.34025e-08
0.000238787
7.00917e-09
0.000315421
0.000227768
0.000223593
2.81327e-08
1.04238e-07
1.75789e-09
9.96613e-08
2.53976e-08
0.00240351
4.882e-09
4.14496e-08
6.85937e-09
7.70267e-08
2.27515e-05
0.00194509
0.00227799
2.26195e-08
2.97367e-08
0.000377609
3.99355e-08
1.03617e-06
1.05024e-08
0.00304786
4.07309e-08
2.25564e-08
8.53437e-06
0.00262305
6.84462e-08
2.28768e-08
0.00131291
2.01451e-08
4.65093e-10
1.393e-09
4.45936e-09
3.16528e-08
1.33233e-08
6.34361e-10
2.23069e-08
3.72579e-08
1.18672e-08
6.06853e-08
1.79575e-08
5.51482e-07
0.00191154
2.81795e-09
1.57533e-08
5.62819e-08
0.00200084
8.7267e-07
2.02286e-08
0.000374263
2.86621e-09
2.25162e-07
1.46058e-07
0.000983776
3.60648e-07
3.20532e-10
1.22102e-07
1.40028e-08
1.2267e-07
4.98485e-08
3.14158e-09
1.47523e-07
6.88442e-09
8.69772e-08
8.23367e-10
0.000584269
4.96508e-08
0.002074
1.38462e-09
6.29843e-08
2.15403e-06
1.07429e-08
4.36455e-06
4.7954e-09
6.52394e-10
2.44839e-07
4.18479e-08
4.84459e-09
1.71949e-05
6.10874e-08
7.42052e-08
0.000547253
2.99516e-09
0.000563699
3.16214e-08
2.26981e-09
7.66945e-09
5.7933e-09
1.98292e-08
3.89812e-07
3.13458e-07
1.50898e-07
0.00237871
2.10679e-07
0.00393242
0.0020952
0.00329178
8.49471e-08
2.10627e-07
0.00143522
3.8363e-09
2.47918e-08
2.97957e-08
0.00236989
9.80474e-09
0.000635585
0.000492201
2.77086e-09
0.00262597
5.01111e-06
0.00264002
1.88935e-08
0.00249641
5.59719e-08
0.000340288
1.65125e-09
3.92099e-09
4.27129e-08
0.000746787
7.78766e-07
4.15018e-10
2.68434e-08
6.33771e-10
0.000532961
0.000313649
5.70557e-08
0.00190919
4.55711e-07
0.000544707
3.19523e-08
5.59437e-10
6.25333e-09
2.59531e-09
8.94027e-08
2.03752e-05
5.68921e-09
1.33062e-06
4.4434e-08
4.21673e-08
4.65448e-09
9.88893e-05
2.24385e-07
1.87476e-09
6.43869e-09
0.000432446
1.07834e-06
7.81706e-08
0.00152071
1.75411e-06
1.48737e-06
7.41859e-09
8.61332e-09
3.91588e-09
0.000681407
2.74185e-08
5.45291e-09
1.50166e-08
3.63673e-07
9.97882e-07
2.08997e-07
1.82194e-09
3.20923e-06
6.68127e-07
7.49151e-09
5.9819e-09
5.50637e-06
2.51744e-09
5.17957e-09
0.0023871
0.00220923
6.17394e-08
4.503e-09
1.14839e-09
3.3383e-08
0.00192994
2.57795e-07
1.38406e-06
5.38117e-10
5.48999e-07
3.25832e-08
0.00112018
0.000444877
7.16277e-07
2.41134e-08
3.50205e-06
5.32097e-07
0.0001007
2.23077e-09
1.8325e-08
0.00118809
2.55166e-08
7.79293e-07
5.89588e-07
2.03556e-06
1.22697e-06
1.16907e-08
0.00162286
1.30966e-05
2.44921e-09
1.20724e-08
4.67792e-09
0.000427674
0.000113509
1.85793e-08
0.000637652
1.22952e-07
7.25855e-05
0.00282735
0.000398954
0.00281993
0.00183693
0.00221777
4.54111e-10
2.83634e-06
8.48955e-08
3.50544e-06
1.49317e-05
2.21229e-06
2.01537e-09
3.98422e-07
1.46894e-08
3.20205e-07
0.000761567
2.86368e-07
9.12157e-10
0.00178408
1.39319e-07
0.000207822
1.83645e-07
4.11114e-07
4.765e-09
3.87671e-07
2.12137e-07
0.00151227
2.09862e-07
3.57904e-08
1.49696e-07
2.59887e-05
0.00129747
0.0013139
0.00293915
4.9445e-09
0.000502803
0.00149672
0.00175326
0.00149467
2.30428e-07
0.00217389
2.67896e-07
4.7031e-09
5.38212e-09
6.40783e-09
0.00147152
0.00176859
5.62539e-09
1.46412e-08
8.40899e-09
4.08355e-07
0.000298094
0.00368251
0.00135432
8.20375e-08
0.00247921
8.66453e-10
3.61471e-08
0.00108919
0.000804567
5.38049e-09
2.71184e-06
1.22229e-08
6.33672e-09
0.0035203
6.35779e-09
0.000423331
1.16783e-09
0.00037871
0.000405409
0.000581335
0.00190915
3.24823e-07
0.00161734
1.26608e-08
1.18037e-05
0.000460546
0.00124696
0.00220785
0.0010966
7.53855e-09
0.00124434
9.01708e-09
1.59368e-08
0.00292717
1.64008e-07
6.61384e-06
5.62936e-08
5.21022e-08
0.000573406
1.43402e-06
3.28997e-09
1.49071e-07
4.34985e-07
0.000403271
0.00219811
2.72907e-07
7.62854e-09
0.000614697
1.87201e-08
1.57035e-08
5.11307e-08
6.04544e-07
0.00214035
3.84126e-09
0.00241661
8.38922e-10
0.000256112
0.00433598
8.69151e-09
3.02098e-06
0.00242903
4.97602e-05
5.20316e-06
2.47242e-09
0.00177833
0.00277878
5.20862e-10
0.000489106
8.30883e-07
0.000618779
1.49123e-08
8.52935e-07
5.12871e-07
3.52707e-08
7.85792e-11
0.00034578
0.00131467
6.44267e-09
1.18396e-09
0.00218151
1.11141e-08
2.21098e-09
3.73852e-08
1.87548e-09
7.87363e-08
0.00354115
0.00209416
2.65873e-08
5.44605e-10
0.00221186
1.9892e-07
0.00270365
2.77581e-09
1.90747e-06
4.58335e-08
7.42608e-09
2.74948e-09
1.08122e-08
0.00333587
5.05783e-09
2.80297e-07
0.000274718
0.00237603
0.000453083
1.37926e-08
1.17481e-06
2.56651e-09
0.000229291
0.00228075
8.80933e-10
3.76335e-09
3.97861e-08
3.31051e-08
0.00050253
2.62011e-07
0.000529725
1.92277e-07
6.6687e-09
5.87103e-11
4.97247e-08
0.000221108
0.000394061
5.42716e-09
0.00384295
0.00245682
8.67158e-09
3.02383e-10
3.76006e-09
7.35714e-09
3.80792e-09
1.54352e-08
0.00275172
0.000620038
0.000514081
7.75888e-05
0.000348305
0.000381679
2.75187e-09
4.27264e-08
1.47494e-09
3.00338e-08
1.8868e-08
0.00234594
1.08178e-08
4.91999e-09
0.00111864
1.90182e-08
7.64015e-08
8.79283e-08
1.65381e-09
8.36832e-08
3.50426e-08
0.00219887
5.19035e-09
1.44339e-08
4.19818e-09
1.58312e-08
2.0981e-08
0.00375557
4.5261e-07
1.12544e-07
7.33654e-08
1.05985e-09
4.52549e-05
1.17041e-06
3.1767e-09
5.76828e-07
1.25037e-05
1.0135e-08
1.13375e-08
1.03855e-05
3.69e-06
2.49698e-07
0.00304075
3.87924e-09
3.97181e-07
1.47408e-06
0.00282689
2.24016e-07
4.27318e-10
1.91908e-06
1.63955e-05
3.45056e-07
1.00673e-08
1.69459e-07
4.63263e-08
6.60655e-08
2.01171e-08
3.31441e-08
0.0018457
2.19352e-09
1.18264e-08
1.10556e-08
6.91676e-10
4.60564e-09
8.70986e-10
0.00421433
1.2544e-07
1.95049e-09
3.31628e-09
3.09021e-09
1.08746e-09
5.03783e-08
5.13747e-09
2.82883e-09
5.37542e-08
1.33822e-08
0.00220951
3.05096e-09
0.000384374
3.52184e-08
1.18644e-07
1.78617e-08
1.20784e-06
1.01678e-09
0.00315762
9.45562e-09
0.00178976
2.95629e-07
4.03732e-08
1.34527e-08
1.81939e-06
2.74635e-09
3.62025e-09
2.93691e-09
0.000259127
0.000626662
0.00213656
1.01527e-07
1.56623e-07
0.00227819
1.72049e-06
3.36608e-09
1.37446e-08
2.87338e-07
1.03227e-08
0.0041199
2.79881e-06
0.00307946
2.74753e-08
7.66427e-09
0.00158807
0.0014443
0.00174765
1.66302e-08
1.47648e-06
0.00186859
1.67321e-09
1.23281e-05
1.515e-07
0.00177472
0.000459342
1.81466e-07
0.00230818
2.04633e-05
6.22805e-07
0.00205405
0.00216972
1.91512e-08
0.00237783
0.00300986
0.00180861
2.49219e-08
4.41427e-09
6.09669e-09
7.94026e-10
2.9001e-09
0.00163014
0.00275217
0.0018247
2.64482e-09
0.00303342
2.75989e-09
0.0022805
0.00249151
5.76711e-09
3.6633e-08
0.00165395
2.45869e-08
1.31517e-08
3.19692e-07
4.20473e-10
0.00256045
0.00199032
8.30021e-07
0.00163476
4.32286e-09
3.05347e-09
7.10591e-09
3.32731e-08
6.71682e-08
3.13193e-07
1.21249e-09
5.64995e-09
1.41983e-08
8.12313e-09
6.24733e-09
1.04398e-07
3.68875e-10
2.32515e-08
2.11893e-06
1.1551e-08
3.43704e-08
2.7728e-09
1.18793e-07
1.56378e-09
5.20233e-09
2.22145e-07
1.5555e-09
3.05426e-09
0.00188087
3.46295e-08
5.18076e-09
6.52797e-07
3.12628e-09
1.47574e-08
4.83172e-08
0.00185691
9.30504e-08
0.00220804
0.00148589
1.72028e-08
2.07498e-08
5.8162e-08
6.55311e-09
0.00157706
4.94114e-08
2.24645e-07
3.65053e-07
2.90409e-08
0.00235742
0.00149677
1.88294e-09
3.14289e-09
6.99741e-09
6.37334e-08
5.88154e-08
7.43397e-09
4.16181e-07
5.31954e-09
1.49245e-06
2.49324e-09
1.5323e-09
6.30809e-09
1.55479e-08
2.33549e-07
7.94808e-09
1.88521e-08
0.00429575
0.00144841
0.00257013
0.00155371
1.49029e-06
1.2027e-08
0.0020132
6.95436e-07
6.73765e-09
0.000410059
1.32143e-09
1.44709e-07
0.00235101
4.40241e-08
1.27214e-07
2.30287e-08
4.25428e-08
0.0013999
8.21155e-09
9.10001e-10
2.03693e-07
2.55275e-09
4.69024e-07
5.96385e-06
6.7201e-08
0.00211102
4.18305e-08
0.000460416
2.70525e-07
0.00209867
3.86798e-10
5.00746e-09
2.6796e-07
3.8489e-09
0.00183883
3.83297e-07
0.000517962
1.49306e-07
1.84283e-07
1.33808e-07
2.66492e-08
8.54812e-09
4.93428e-08
3.01286e-06
4.00106e-08
2.60297e-06
0.00324748
5.35343e-08
0.00421539
5.65836e-09
2.50094e-09
4.54633e-06
0.0018642
1.41117e-08
1.34496e-09
9.04162e-07
5.71701e-08
3.37409e-08
0.00233974
1.34754e-08
6.11185e-07
0.0026208
1.35864e-09
8.09378e-09
4.18144e-07
9.84035e-10
8.1542e-09
0.00253088
5.28881e-09
0.00276766
2.31913e-08
2.15271e-07
3.88667e-08
0.000894193
5.99728e-08
2.79582e-08
1.48678e-07
0.00253483
1.58893e-06
1.25745e-08
9.38021e-09
1.24966e-07
0.00207261
3.45018e-09
5.17838e-08
6.30124e-08
1.59361e-06
0.00252797
0.000270173
0.00119115
1.74863e-08
0.000358029
1.31816e-08
9.0052e-07
0.000789694
1.15546e-08
0.000880915
3.29079e-06
4.85493e-09
2.64049e-09
1.20368e-08
0.00253348
1.53173e-08
2.41802e-09
2.60152e-07
1.12259e-08
5.69594e-09
0.000301429
2.70363e-09
4.48622e-08
0.00242954
1.26445e-06
4.53626e-09
0.00203797
3.25435e-06
6.49722e-09
1.3774e-08
1.20222e-05
4.29776e-08
2.24705e-07
1.67352e-08
4.13806e-08
6.01468e-08
4.74259e-06
0.00109781
4.84213e-08
0.00248242
1.50987e-08
3.7967e-08
0.00271654
3.08649e-08
7.83874e-08
9.5586e-09
1.29763e-07
0.00237011
2.99801e-08
2.1279e-08
0.0016349
5.79192e-09
0.00266885
1.40393e-09
8.12175e-09
1.04317e-09
9.90408e-09
0.00151682
5.4034e-08
1.41786e-09
2.58138e-09
1.43755e-08
5.28689e-08
0.00255061
4.77707e-09
4.62346e-09
1.89277e-09
1.55206e-07
5.29749e-06
5.03339e-09
0.00156981
3.50618e-08
9.68043e-09
6.28552e-09
5.11566e-08
0.000429645
6.49767e-07
1.62333e-10
1.00504e-09
0.00182629
0.00217023
6.14558e-08
3.84077e-09
0.00183544
1.65311e-08
8.9962e-10
0.00355984
9.09445e-09
0.00275313
2.89646e-07
1.75208e-08
2.01886e-08
9.77069e-09
9.55232e-09
4.41952e-09
3.04782e-05
7.42869e-07
2.26635e-09
4.12206e-08
5.54866e-08
5.32698e-09
0.00257871
8.69624e-09
1.33189e-08
0.00197398
2.61384e-08
3.59274e-08
3.00383e-10
0.00228718
2.825e-08
1.33393e-07
3.27565e-09
3.70081e-08
4.05653e-09
0.00233771
5.92312e-09
6.91315e-09
0.000611959
1.07522e-08
7.12506e-09
0.0023317
6.53938e-08
3.86063e-10
3.15537e-08
5.92649e-09
0.00188352
4.41448e-07
6.02279e-08
3.46581e-09
4.01624e-07
1.41589e-07
8.67967e-09
1.42765e-09
1.02984e-09
3.40989e-08
1.04725e-08
8.45671e-10
7.81399e-09
7.09465e-09
1.15305e-08
0.00231615
6.96489e-07
1.48083e-08
2.0478e-09
9.41912e-10
0.00219991
1.94539e-08
0.00327794
9.43491e-07
0.00158579
7.60458e-10
0.00215251
0.0029264
8.99304e-09
9.40171e-09
8.96151e-08
0.00210517
0.00251641
3.06952e-07
6.47416e-09
2.50137e-07
1.05344e-09
2.22735e-07
8.53737e-09
9.43089e-08
1.6597e-08
1.47153e-09
3.81921e-09
8.52635e-10
6.20756e-09
9.28776e-09
3.77495e-09
5.0735e-09
1.49897e-08
9.01268e-08
3.19186e-11
3.35679e-09
7.45564e-10
5.67722e-09
1.52688e-09
1.76295e-07
0.0018996
0.0027969
4.51293e-09
0.00222562
1.40023e-08
3.07164e-09
4.49688e-09
1.64468e-06
1.80992e-07
7.18458e-08
9.93401e-10
1.10355e-08
2.14386e-09
7.94619e-09
1.60063e-09
1.28453e-08
1.41414e-07
0.00158847
2.44332e-09
2.11926e-08
0.00140329
0.00178429
0.00219802
0.0020639
0.00176518
4.6513e-08
3.77911e-08
2.85751e-09
7.8439e-09
7.60014e-09
1.34108e-06
3.94446e-09
2.94211e-08
3.41112e-08
7.19565e-09
2.23563e-09
2.657e-09
7.43353e-07
3.15502e-06
3.9661e-07
5.99376e-09
1.6806e-09
3.21125e-09
0.00284249
2.54053e-09
0.00185272
1.05648e-07
8.77272e-09
7.52629e-07
0.00105424
6.75831e-08
4.06647e-10
3.76924e-09
3.21179e-08
1.50852e-09
2.37393e-08
8.29651e-10
0.00110411
3.40179e-10
4.18272e-08
0.00284519
2.96228e-09
0.00133035
5.86632e-08
0.00216661
9.8596e-08
0.00121971
3.55813e-10
0.0028948
0.00232084
2.79252e-08
4.20028e-09
0.00158365
1.98462e-08
0.00187004
1.69196e-08
7.85991e-09
5.12724e-10
1.66366e-08
2.05223e-08
1.50377e-08
6.36701e-07
0.00292382
0.00166191
1.21838e-06
3.78695e-09
3.48235e-07
0.00305621
0.00136146
0.00236579
0.00234397
5.3284e-09
6.03931e-08
2.75022e-08
1.25109e-08
0.00303581
6.52158e-09
0.00148773
0.00321499
5.478e-09
3.14022e-09
0.00160518
0.00302783
2.82611e-08
9.28238e-10
0.00169035
8.73267e-08
2.57796e-09
4.66595e-07
9.67858e-08
0.000406822
7.13565e-08
5.67124e-08
2.47299e-07
2.69768e-07
9.07358e-08
3.90756e-09
4.90326e-09
1.06322e-08
2.02964e-09
2.05743e-08
8.68343e-09
1.81366e-10
2.26794e-09
0.00200649
0.00284306
3.41407e-10
2.54403e-08
6.64817e-09
2.79362e-09
4.7978e-07
1.94961e-08
2.36775e-09
0.00270664
0.00150582
0.00144865
0.00162334
4.87259e-08
0.00136283
2.54921e-07
0.00376674
7.29983e-10
0.00227615
2.71528e-08
3.6537e-08
1.55537e-07
6.19205e-10
0.00294104
1.85474e-07
0.00423678
5.92433e-09
9.45409e-10
9.02091e-09
8.96244e-09
0.00133978
0.00286832
1.37582e-10
3.31143e-09
2.43291e-08
0.00167438
3.63882e-09
0.00280343
3.40429e-07
1.91743e-09
5.7992e-09
0.0024152
3.51025e-08
0.00213602
8.20864e-08
0.00382995
0.00319961
7.75267e-08
3.69708e-09
0.00352898
8.63463e-09
8.51808e-07
0.000344637
1.56822e-08
1.40361e-07
2.29311e-08
8.85629e-09
0.00300983
3.92009e-09
7.3967e-08
3.87605e-10
7.03649e-08
4.52487e-09
5.31139e-09
1.51605e-08
1.00525e-08
1.71019e-08
0.00294979
2.13589e-08
2.76723e-08
4.71685e-09
1.43603e-08
8.90582e-09
9.8624e-09
1.16177e-08
0.00217423
8.57552e-09
0.0029368
0.00189527
4.90808e-09
0.000360672
2.94585e-09
3.31181e-09
2.61462e-08
3.48068e-08
3.01798e-08
0.00152604
0.00202694
1.1029e-07
1.05099e-07
8.35835e-08
0.00305486
0.00110991
4.81253e-08
0.00216364
0.00439029
1.24645e-06
0.00258957
0.000410465
6.35168e-09
7.83324e-07
2.52967e-08
0.000563894
6.73477e-10
0.00252483
3.3032e-10
2.31531e-09
0.000636425
0.000341712
1.4513e-08
0.000460456
4.22739e-08
1.045e-07
2.57974e-08
2.69944e-09
3.9378e-07
2.86778e-09
4.74677e-09
0.00243089
1.32442e-08
1.38862e-08
4.29461e-09
1.22012e-07
1.65159e-09
4.57332e-05
2.96028e-08
2.04156e-08
7.6263e-08
1.64159e-07
0.00029709
0.00227251
4.17792e-08
6.90976e-09
0.00236628
0.00234098
3.70346e-08
2.28187e-08
1.24939e-08
3.15545e-09
3.06023e-08
1.0838e-08
0.00200154
0.004335
6.11473e-09
2.05234e-09
3.80787e-09
6.04162e-09
0.00246895
0.000394485
1.75482e-09
1.81177e-08
1.53314e-08
0.00211921
1.05071e-05
1.09019e-06
0.0019433
2.49399e-08
2.50029e-08
4.79271e-09
4.11529e-08
2.52714e-08
0.00220457
5.29312e-08
0.000310627
5.52143e-09
6.26201e-09
0.00320554
0.00260272
7.56174e-09
0.00306979
1.08126e-09
1.4731e-09
4.53023e-07
4.97226e-09
3.56678e-09
0.00179301
2.67161e-08
1.23833e-07
0.00385143
1.20817e-08
0.00155127
0.00300653
1.4357e-08
0.00319279
1.44613e-08
1.27857e-08
1.78829e-08
1.87087e-07
9.83323e-09
4.63636e-08
5.96808e-09
2.44342e-08
4.78381e-07
1.95528e-08
0.00232331
6.48704e-09
0.00301312
8.31311e-10
1.15e-08
5.31315e-09
0.00231057
8.46244e-09
0.00223804
0.0019235
0.00309694
1.57029e-08
0.00209365
1.445e-07
2.14193e-08
3.14193e-09
7.91771e-09
1.26905e-08
7.64009e-08
1.42192e-07
2.84704e-07
3.42347e-09
0.00282188
3.18283e-08
1.16375e-09
9.00039e-10
4.46694e-09
7.02407e-10
0.00200404
3.55136e-08
0.00294247
2.69596e-08
0.000624951
3.59455e-09
3.64226e-09
0.00176862
0.00346441
6.65714e-08
3.70755e-09
0.00375496
1.56811e-08
1.0701e-09
3.32914e-09
1.31575e-08
6.21752e-10
1.37367e-08
1.49791e-09
1.4092e-08
2.85125e-09
5.91741e-08
2.70113e-08
0.00246219
5.49239e-07
1.01959e-07
1.12166e-08
4.63951e-09
0.00208834
1.3988e-08
0.00298252
4.13504e-08
2.80633e-08
6.63028e-09
6.18688e-09
7.93419e-08
7.42781e-07
0.00129732
0.00121783
7.97958e-09
0.00369086
2.41485e-08
0.00276915
9.04758e-09
2.28712e-08
2.94618e-09
0.00259909
0.00127757
0.000427414
4.44032e-08
2.03007e-09
0.00128972
5.30402e-09
3.2622e-09
8.9612e-09
5.33682e-09
0.00237149
0.00202094
1.79063e-08
3.15e-08
5.1611e-08
3.89835e-09
3.24464e-06
1.81354e-06
6.20423e-09
2.45297e-08
0.00157766
8.69251e-09
3.11571e-08
1.08812e-09
2.99985e-08
4.52515e-09
0.00226808