/*--------------------------------*- C++ -*----------------------------------*\
  =========                 |
  \\      /  F ield         | OpenFOAM: The Open Source CFD Toolbox
   \\    /   O peration     | Website:  https://openfoam.org
    \\  /    A nd           | Version:  10
     \\/     M anipulation  |
\*---------------------------------------------------------------------------*/
FoamFile
{
    format      ascii;
    class       volScalarField;
    location    "76";
    object      SgRate;
}
// * * * * * * * * * * * * * * * * * * * * * * * * * * * * * * * * * * * * * //

dimensions      [1 -1 -3 -1 0 0 0];

internalField   nonuniform List<scalar> 
59698
(
0.0163263
0.00198833
0.00252304
0.00271591
0.0304558
0.00145199
0.00463107
3.04934e-05
1.98948e-09
3.92869e-09
0.000586479
0.000299069
1.58016e-09
0.00229233
0.000354166
4.28685e-07
6.94752e-06
0.000145963
4.51797e-05
0.000269074
0.00175972
0.014073
0.000498939
8.81911e-08
0.0422018
6.77253e-05
0.000342729
0.0100494
0.00911601
0.00748251
0.0048101
0.000600625
6.68184e-08
0.0163454
0.00247542
0.000163134
0.0191752
0.0205236
3.09098e-05
0.0249625
0.00863103
2.30471e-07
0.00368688
0.000643234
0.000402107
0.0321558
7.34465e-05
0.000731285
0.00315482
0.000174083
0.00151639
0.000119305
0.00206493
0.00273447
0.0113433
7.68372e-05
0.00132344
0.000213126
0.000806321
0.00275203
0.00524995
0.000498192
0.122074
7.03684e-05
0.0124474
0.00161189
1.75101e-09
0.000399342
5.56217e-05
6.77079e-09
6.08025e-07
0.000252033
0.000364253
0.042345
0.00041195
0.0391942
0.000118681
0.00923854
0.000359738
0.00617561
0.00884284
0.00047742
4.02838e-09
1.61669e-05
0.00865883
0.000552293
3.72176e-06
4.22167e-05
0.0634137
0.000129403
4.51058e-09
0.00206099
0.01479
9.71639e-06
7.32958e-05
0.00375144
0.00534431
6.11296e-05
0.000265894
8.5998e-10
0.0768982
0.00182277
0.016266
0.0155105
0.000121545
0.000564779
4.41157e-05
3.67395e-05
2.66578e-09
4.39829e-10
0.000250346
7.28649e-06
0.0380617
1.56282e-07
2.6345e-05
4.4894e-05
4.0185e-05
0.00353818
2.36034e-05
1.1518e-08
3.63368e-05
0.000708126
1.15421e-06
6.18057e-06
2.1205e-05
3.34495e-05
0.0108245
7.21303e-09
2.79722e-05
2.96337e-05
0.0451499
3.71696e-05
1.10663e-09
0.100228
0.004311
0.00440438
2.13279e-06
2.47261e-10
0.000255251
0.000131078
0.000109355
0.0023188
0.00269596
0.00266999
9.97136e-06
0.000693645
6.31325e-06
2.21543e-05
0.00448987
0.0292757
0.000299275
0.000434377
0.00147275
7.61149e-06
0.000161256
0.000343249
4.74198e-05
0.00162925
0.0124519
6.04632e-10
0.000864126
5.11757e-05
0.0163455
0.00162443
0.00339177
0.0345291
0.000238161
0.0720804
0.00202192
0.000412462
0.0119076
1.48331e-06
0.0108052
0.0146667
0.0789501
0.00194728
4.39338e-09
0.0014465
0.000326011
0.00925673
0.00942914
0.0182636
0.0148288
1.98157e-05
0.0457952
0.000235177
0.0114837
0.00247981
6.4787e-06
0.00118087
0.000406381
6.74725e-05
0.00265485
0.0385806
0.0040778
0.00417124
0.00983969
0.0586937
2.71001e-05
0.00774548
0.000227071
0.00611922
0.0211819
6.6477e-05
0.0104678
0.00276866
0.00610644
0.00286345
0.00782347
0.0114766
0.00256084
2.36369e-05
0.00279224
1.56755e-08
0.00409402
0.00336755
3.72193e-05
3.59864e-05
0.0127895
0.00662062
0.0056404
0.00268277
2.99042e-05
0.0662318
0.000826134
0.0263813
0.00733062
0.00324435
0.00690491
0.159156
7.58209e-09
0.00470213
0.0029303
0.00322537
1.38641e-05
0.00963716
0.0831195
1.91504e-05
8.70359e-07
0.000443199
0.00262481
0.00147712
0.0135022
0.000664542
0.00610909
0.000120719
0.00379112
0.230621
0.00122087
0.000426408
0.000703744
0.00164858
0.000629472
0.000233554
0.000618328
0.00239373
0.0060106
0.00128715
0.00364427
4.09336e-05
1.47809e-05
1.82801e-09
0.000392228
0.00592253
0.00472391
0.0478582
2.32999e-05
1.06462e-07
0.000165172
1.6314e-05
0.000141351
0.0441126
0.000222082
1.84762e-05
0.0179472
0.000206347
0.00146596
0.000510225
0.00210832
1.224e-09
0.000574132
0.000193167
0.000212403
0.105239
0.0492096
0.0201382
0.000134575
0.000647249
0.073247
0.00044556
0.0915564
0.00234003
0.00018793
0.000164628
0.000322114
0.00273547
0.000356313
0.000804557
0.00422838
1.17208e-05
0.0027239
2.32494e-09
6.86642e-08
0.000825171
6.47478e-05
5.26084e-05
0.0519556
0.00101107
2.01289e-06
0.00026735
0.00197976
7.0988e-05
3.84737e-05
2.37969e-08
0.00193957
0.00513289
0.000403389
0.000392393
0.000829308
0.000805446
0.000341348
0.324651
0.000320295
2.93464e-09
0.0475768
0.0103738
0.000328022
0.000352942
0.000438143
0.000361923
0.00929251
0.00417243
0.0202712
0.207712
0.000430954
1.90299e-05
1.0003e-05
0.000663676
0.00911709
0.00450153
0.0102473
0.002066
0.00253481
0.00147477
9.67443e-05
6.72372e-06
9.92008e-05
0.0393506
4.80076e-05
0.00204893
0.0080027
9.17189e-05
0.0401058
7.94952e-10
0.243379
0.00217165
0.0140822
0.000126197
3.79814e-05
1.82625e-09
2.76236e-05
8.81086e-06
1.10646e-07
0.000883011
1.40585e-10
1.04124e-07
0.00281321
0.00203041
0.000156339
0.00166238
0.0018943
0.000533991
0.00367395
0.000651123
0.00619513
2.97737e-09
0.000153478
2.45923e-05
0.000460522
2.48727e-09
0.000347123
0.000103368
5.66374e-05
0.000523868
0.000139979
1.97063e-05
0.000211191
0.000544827
8.69746e-10
0.000143452
8.76839e-05
0.000457475
0.00456381
0.00257072
0.00135033
0.00227373
0.0485627
0.00184032
0.00272062
0.000145496
0.00284717
0.00238748
0.00258649
3.99836e-05
0.001487
0.00420641
0.0856411
0.02801
2.2133e-05
0.00539939
0.0316467
0.0004043
0.00178502
0.000434525
4.59954e-08
0.0595292
2.72845e-06
0.0104136
0.00240759
0.00183913
0.00303831
0.00218727
0.00252768
0.310845
3.7652e-05
1.30711e-05
7.84022e-09
0.000221375
0.00143126
5.73859e-10
0.000261324
0.00214771
0.0163232
0.00303128
0.00212782
1.42461e-08
1.39945e-08
0.213402
0.000123738
0.00317709
1.92326e-07
0.00325764
5.14768e-09
2.17243e-05
4.03803e-05
0.00239475
0.0700565
4.51535e-10
6.47106e-05
0.00906963
0.00256148
0.000125127
5.85672e-05
0.0331056
0.00028288
9.70614e-05
0.108279
1.40318e-09
0.0095638
2.89224e-05
0.0541363
8.61968e-06
0.015693
0.0133311
2.18949e-09
0.000974903
0.00044756
0.00847515
3.32282e-05
0.00805002
0.00292416
4.41127e-09
2.01334e-10
6.84891e-09
0.000384632
0.000816708
0.00112899
0.0691434
0.00620913
0.00220068
3.50131e-05
0.000496835
3.9469e-05
1.94121e-08
0.00541763
4.57524e-05
5.57253e-05
9.39059e-05
0.0659253
0.00178431
0.0232485
0.0655395
0.00111478
0.000163636
0.058599
6.18124e-05
5.67594e-07
0.00237023
0.00947129
0.000365619
9.71055e-10
0.0643215
0.00712812
0.00460098
1.71068e-08
1.12013e-09
3.83701e-05
2.17728e-09
1.2451e-05
0.00315986
0.000583949
0.0747981
0.00725289
5.41924e-08
0.00912096
5.59695e-05
6.88115e-09
3.85553e-05
7.03413e-08
2.48396e-08
0.00546346
0.00377789
1.16786e-05
3.86703e-09
2.18526e-09
0.00125738
0.00949476
1.0313e-05
0.0106425
0.00389936
3.88243e-05
0.0429772
1.82751e-08
2.22582e-05
0.00145199
3.5636e-10
1.35535e-08
0.00185757
0.000138972
0.000384885
0.00966281
0.000357583
0.000148183
0.0683861
0.00818831
0.0135311
0.0101455
0.000173465
0.0117101
7.80384e-06
4.20286e-05
2.28381e-09
3.94026e-05
1.91405e-09
0.000283503
3.02131e-06
1.9068e-08
0.00114776
0.00689016
0.000443513
0.000768507
1.74038e-09
3.30043e-05
9.36799e-05
5.56622e-05
1.8096e-09
0.0744784
5.28463e-05
0.00554211
0.000539255
0.00288533
6.43829e-05
1.96e-07
0.00259959
0.00287702
0.00338476
6.7839e-05
0.00401163
0.00211787
2.31321e-09
0.000732637
7.62234e-05
0.00518584
5.4377e-05
0.00408334
0.000313361
0.00242548
1.77469e-05
0.00420985
0.00268865
0.00216272
0.00332288
0.000371715
0.000167769
8.51447e-10
1.90435e-05
9.29824e-07
0.00432734
0.000349775
7.15984e-09
0.0051965
3.3653e-05
2.90541e-09
0.00340517
0.00146887
0.00216197
0.000165197
0.00108752
0.00393084
6.52748e-07
8.0879e-06
0.000546604
1.01363e-05
0.00433981
0.00141839
0.0027941
2.2093e-05
0.224762
1.87914
2.05887e-05
5.04287e-09
0.000594401
0.00213038
0.000910199
0.00247993
4.85019e-05
0.00712634
0.002461
0.00318707
0.00155475
0.00276833
0.000211208
9.2068e-05
0.00113791
0.000107586
0.00134064
0.000239624
2.41948e-05
0.00156782
0.109402
0.000238079
5.11388e-06
0.000607893
1.4511e-09
0.00242995
0.00382645
4.15585e-05
0.00244401
0.000120823
1.75387e-09
0.000439477
0.00017607
0.00827529
0.000799832
0.000584116
0.000114125
4.06158e-05
7.99684e-06
0.000327283
0.00202996
0.000308323
0.000815832
0.000893381
0.0197736
0.0916286
0.00136535
3.36507e-05
0.00233367
0.0031979
0.0415024
3.86849e-09
2.16252e-05
0.000460642
0.00354622
0.000144003
0.0016857
0.000428463
0.0108165
0.0472792
0.0001451
0.000422217
8.03591e-05
3.53428e-07
0.000378101
0.00140685
1.5603e-05
0.00214998
0.00019493
0.000191687
0.0114716
0.00439855
0.0394899
0.00080599
0.00138535
0.00211632
0.00244205
0.000242987
0.00118142
0.000650639
0.000159251
2.37897e-10
9.10528e-10
0.00660423
0.000819874
4.50884e-05
1.50578e-09
0.00637649
2.876e-05
4.40645e-06
2.72398e-09
0.00343337
4.18026e-08
0.000506082
0.000362191
2.80687e-05
0.00198185
0.00925275
3.42556e-05
1.38864e-09
0.00064694
0.061861
0.00323316
3.83458e-05
0.000950173
0.00146425
0.0256917
0.00889572
1.36859e-09
0.0554849
5.17886e-05
0.00258529
0.000344565
0.00940795
7.27234e-05
1.48131e-07
0.0112593
0.0044938
0.000532166
0.00307594
0.0601293
0.00058516
6.9388e-05
0.24656
0.00232647
0.000731669
0.00240548
0.00191578
0.00179569
5.28418e-06
0.0150839
1.90077e-05
0.0600798
0.00316873
0.0247319
6.86082e-10
0.000212753
0.104964
0.237892
0.00059978
6.86446e-05
0.0499637
0.000383645
0.00225329
0.0051952
0.00194292
0.00833356
0.00410224
5.96074e-05
0.000401558
0.00195439
0.0142031
0.000373923
3.51565e-10
0.00269239
2.55786e-09
0.00438929
3.84773e-05
0.000223541
0.00609641
0.0052018
1.23085
3.75429e-09
0.0247045
0.00972956
0.0210681
0.00104519
0.00470265
0.000326089
0.000992909
0.00161124
0.00140189
0.00668486
0.0111169
0.104484
0.00219136
0.0054459
0.000541419
6.90984e-09
0.000383123
0.000367319
0.000233593
1.58753e-09
0.00320306
2.13921e-06
0.00949963
0.000212768
0.000724225
0.00158239
1.70031e-07
0.00691121
3.48457e-09
0.00100438
6.10148e-05
0.0013044
0.00011566
0.0136981
0.000651795
0.00179571
0.0201644
0.210171
8.08456e-05
0.00887164
0.000129021
0.000726524
0.000444783
0.000428782
0.00380216
0.000847124
0.00750695
0.000561236
0.00628238
0.00227908
2.02999e-06
0.000401152
7.35392e-05
8.32022e-05
3.34503e-05
0.000503631
0.000274228
0.000322924
7.69603e-09
5.09024e-09
1.88414e-09
0.000487253
2.0889e-09
0.00558171
0.0049287
0.00153434
0.000499686
0.00405895
1.649e-05
2.94007e-09
0.0159029
0.000469636
0.000153136
1.28409e-09
0.0358409
0.00490214
0.000875036
8.94209e-06
2.48202e-05
0.0105709
2.63817e-07
0.00980094
0.000132017
0.000532567
0.000489221
0.000128417
3.31233e-05
2.48213e-09
0.00134205
1.48443e-09
0.00887331
8.98235e-08
0.0020918
0.000108819
7.04406e-05
0.00163685
0.00164765
0.000597439
0.00192376
6.08745e-06
0.00202561
0.000307139
1.24309e-09
0.00206033
6.29595e-05
3.3119e-05
0.00423805
3.05958e-09
0.000268925
0.00373247
0.0183077
0.000319936
0.00106331
0.00297153
9.18232e-05
0.00460623
0.000633468
0.000584052
0.00449535
0.00014932
0.000379941
0.00255476
0.00162517
8.57823e-09
0.00261873
0.000106151
1.22307e-05
0.065327
0.000412247
0.00145649
0.00262429
1.49181e-07
2.03979e-09
0.00272526
0.00403393
0.00521599
0.0202016
0.00398425
6.50788e-07
0.0407341
9.36729e-05
0.00132623
0.114808
0.000230212
0.00458686
0.00452278
0.0324894
0.0583218
7.36135e-09
0.00254345
1.60528e-09
0.0247271
0.000271883
0.000344388
0.00141606
3.8924e-10
0.000761136
0.00244992
0.000575359
0.00195238
0.00676673
0.00282091
0.00316836
8.15572e-05
0.0250992
0.000729003
0.000141554
4.69724e-05
0.000825732
5.69274e-05
0.00238168
0.00107037
2.06291e-05
4.83874e-05
0.00533128
0.000294949
0.000163626
0.0001072
0.00542643
1.44517e-09
0.000141112
0.00960764
0.00357829
0.000294344
0.000414956
0.000266125
0.000129618
0.000425117
2.36818e-08
7.50884e-09
0.000429222
0.00234257
0.000466221
0.000396837
0.01412
0.0187288
0.0177735
7.56919e-06
0.00184142
0.00293237
0.00270356
0.00481248
0.00594329
0.000405791
4.62437e-05
0.00255979
4.43569e-05
0.010971
0.0564143
0.00197941
0.000443688
7.04781e-07
0.000538421
0.000104654
0.00114638
0.00228416
0.00233565
0.000608722
6.86799e-09
0.000123205
0.00237406
0.00235375
0.00232026
0.00365561
0.0473435
0.000395622
0.00190289
0.00135656
0.022848
5.67316e-10
0.000396147
1.39727e-05
0.00460454
0.000453981
0.0015994
0.00468282
3.43251e-05
0.00347783
0.00356493
0.00366879
0.00546411
0.00947952
0.0100961
0.00817121
0.00529126
0.00575638
1.53303e-07
0.000148886
0.000475248
0.00593383
0.0047433
0.00222862
5.19735e-10
0.00174202
0.00395215
0.000245514
0.00161688
6.35712e-05
0.0148565
0.000126888
0.0406736
0.00314986
0.736849
7.56502e-06
1.56451e-08
0.00211447
0.00317363
1.78316e-07
0.000760374
0.0039874
0.00698733
0.00431614
0.000636802
0.00680682
0.000542246
1.04756e-09
0.0197766
0.000765799
0.000933914
0.00115763
0.0026794
0.000324165
0.00112677
3.12388e-09
0.000534604
0.00820266
0.00271503
0.0921164
9.39075e-09
0.00240845
0.0821683
2.55339e-10
0.00882665
0.00277709
0.0251923
0.00130948
0.00361968
3.50003e-05
6.76841e-06
0.00132417
1.54742e-08
0.00124484
4.23447e-05
0.000118322
0.000125759
9.14421e-06
0.00171743
0.00323521
0.00969985
2.93269e-08
0.00220124
0.00052861
0.000161623
0.0361502
0.0543666
0.0050434
0.000369131
0.00427718
0.459007
0.0239925
0.0262711
0.000459417
0.00044909
0.102329
0.00013676
2.28921e-07
1.50002e-06
0.016672
0.000214828
0.00170418
0.000327808
0.00174718
2.99181e-08
0.00462398
0.0090181
0.00288609
0.000644233
0.000740356
0.000477735
2.27673e-09
0.000130993
0.00364007
2.58781e-10
0.00114637
0.000585201
0.00777747
0.000354474
0.120015
4.50994e-05
0.0011854
3.40325e-07
0.00563803
9.29375e-05
0.00110016
0.00258285
0.000380629
0.00242479
1.23529e-05
0.000137645
0.00285872
3.82629e-05
0.018761
0.0121933
1.04873e-05
0.00150564
0.083817
0.00295621
0.0040056
0.000114545
1.82866e-05
0.00369418
0.0363062
0.00877415
0.00264795
0.000182965
0.00192351
0.0033641
0.00299628
0.00371394
0.00537538
7.55799e-09
0.116024
0.051305
0.000489641
1.02447e-06
3.0482e-05
0.00312663
0.00244977
0.0261181
0.00113455
7.47571e-07
0.00229531
0.000371722
2.89285e-09
0.00355905
4.22161e-09
0.00269132
2.67615e-05
0.00148342
0.00377126
9.24258e-05
0.0194549
0.000150821
0.00043443
0.00363406
0.00413152
0.00205036
0.00211312
0.0119137
0.000579701
0.000345167
0.000373832
0.000265823
9.28149e-06
2.30333e-09
0.000190213
7.30486e-05
9.7155e-05
0.000781454
0.000646991
0.000856224
5.19899e-06
1.83874e-05
1.85806e-05
0.000317967
0.00267074
0.000496402
4.45092e-05
0.000238787
2.93145e-05
0.000315421
0.000232114
0.000223593
0.00389455
0.103398
5.30492e-05
0.00477702
0.00167884
0.00414146
4.882e-09
3.53205e-06
4.40931e-05
0.00839291
0.0195695
0.00482197
0.00232821
2.26195e-08
8.50648e-05
0.000377609
0.00476765
0.00951314
1.05024e-08
0.00516137
0.00284856
0.00107684
0.00351672
0.00263968
0.0145258
0.00189334
0.00383648
9.74883e-05
4.65093e-10
1.393e-09
5.26274e-05
0.00561341
8.22103e-06
6.34361e-10
3.49586e-05
0.00502327
0.000211757
0.00100865
0.00101841
6.02229e-05
0.00191187
4.8362e-05
0.00388681
9.71061e-05
0.00208685
0.0283255
0.0020645
0.00122541
6.12306e-05
2.25162e-07
0.00101953
0.000983776
0.0145764
3.20532e-10
1.22102e-07
0.00123397
1.2267e-07
0.000869061
0.000216903
1.47527e-07
6.88442e-09
0.000215622
0.000283361
0.000584269
0.00219715
0.00208099
0.000277418
0.000574991
2.54364e-05
1.07429e-08
0.00529267
0.000203433
6.52394e-10
0.0475824
6.5108e-05
3.26906e-05
0.0002861
6.10874e-08
1.6334e-05
0.000547253
8.77376e-05
0.000563699
9.5764e-06
0.000952958
0.000349992
0.0027389
0.00430005
0.00129344
1.5561e-05
0.0629428
0.00238289
2.10679e-07
0.00607343
0.00289612
0.00671286
1.1213e-05
2.10627e-07
0.351597
1.65878e-06
2.47918e-08
3.47709e-05
0.025458
0.0030257
0.000635585
0.000492201
2.06342e-05
0.00321583
0.0361982
0.00482329
0.00871544
0.0142062
5.59719e-08
0.000340288
1.65125e-09
3.63061e-05
0.00828622
0.000746787
0.074694
4.15018e-10
0.000475633
6.33772e-10
0.000532961
0.000313649
0.000377203
0.0104729
0.0180956
0.000544707
0.00184895
0.00450691
6.25333e-09
0.000242726
0.000988681
0.00203794
0.000398532
0.000817076
0.00750109
0.0106963
0.000592035
0.00171884
0.00266749
3.69878e-05
6.43869e-09
0.000432446
0.0137508
0.0115576
0.00503227
0.0473043
0.00267462
0.000171771
0.0052295
0.000184978
0.000681407
0.00106285
0.0223202
0.00028717
0.0205001
0.0115369
0.0341711
1.82194e-09
0.101809
0.00880176
0.00175541
0.00466929
0.0642947
0.000402003
0.00283178
0.00239125
0.00228827
0.00797788
0.00112785
3.14308e-05
1.87291e-06
0.00203268
0.0248877
0.295427
0.000156623
0.00900674
0.0002919
0.00125655
0.000444877
0.190334
0.0006152
0.286805
0.781344
0.000103973
2.23077e-09
7.6005e-06
0.00136259
0.0106694
0.0056216
0.0101629
0.0634193
0.0340958
0.00183764
0.00163776
0.0104242
0.0113596
1.20724e-08
0.000533397
0.000427674
0.000359973
0.000420927
0.000637652
0.138162
0.000273517
0.0028964
0.000398954
0.00307782
0.00201949
0.00221777
4.54111e-10
0.479775
0.0314098
0.18432
0.148235
0.00216887
2.01537e-09
0.00653076
0.00125317
2.84182e-05
0.000761567
0.0849934
9.12157e-10
0.00178736
6.98999e-05
0.000207822
0.0165825
4.76342e-05
0.00854313
5.33929e-05
6.48652e-05
0.00164978
0.00060245
0.00112606
0.0129851
2.93472e-05
0.00245466
0.00138422
0.0178517
4.9445e-09
0.000502803
0.00149891
0.0151898
0.00164771
0.00016608
0.00226594
0.0313634
0.00050338
0.000196357
3.07333e-05
0.00148122
0.00177411
0.00306898
1.46412e-08
2.91161e-05
2.46521e-05
0.000298094
0.0038053
0.00135492
8.20375e-08
0.00268866
8.66454e-10
0.0107579
0.00108923
0.000804567
0.00190826
0.00169929
0.00952311
0.000579032
0.0137445
0.000301721
0.000423331
1.16783e-09
0.00037871
0.000405409
0.000581335
0.00196205
4.9928e-07
0.0016334
0.00946951
0.00174614
0.000460546
0.0187491
0.00225169
0.00130244
0.0145574
0.00743653
0.0123082
0.0131477
0.00624927
1.64008e-07
0.32297
0.0623879
0.000812302
0.000573406
0.0148977
0.000913122
0.0242545
0.000103693
0.000403271
0.0142053
5.65937e-06
0.00677021
0.000614697
0.000131997
0.00755785
1.66695e-05
0.0312768
0.356731
0.00113583
0.0574048
8.38922e-10
0.000256112
0.00435141
1.69301e-06
0.10418
0.00244208
0.00173162
0.000495116
2.47242e-09
0.00342424
0.00279655
5.20863e-10
0.000489106
0.0264746
0.000618779
5.71554e-05
0.0619023
5.12871e-07
0.00271031
7.85793e-11
0.00034578
0.0024188
0.000153356
1.18396e-09
0.00218494
1.11141e-08
0.00251348
0.000524611
1.87548e-09
7.87363e-08
0.00439003
0.00209964
0.00279374
5.44605e-10
0.00221553
0.000626586
0.00279609
5.11208e-05
0.03197
4.58335e-08
5.58165e-05
2.74948e-09
0.00168102
0.0371412
5.05783e-09
2.80297e-07
0.000274718
0.00254601
0.000453083
0.00195193
0.296923
2.56651e-09
0.000232307
0.00232192
8.80934e-10
3.76336e-09
3.97861e-08
0.000176321
0.00050253
0.000846721
0.000529725
0.000105553
0.000199309
5.87104e-11
0.0114635
0.000221108
0.000394061
0.00147934
0.00394909
0.00385821
0.0445605
3.02384e-10
0.000172686
0.00012298
8.52101e-05
0.000106954
0.00277892
0.000620038
0.000514081
0.000120163
0.000348305
0.000381679
1.12958e-05
4.27264e-08
8.46669e-05
0.0226296
1.8868e-08
0.00857016
0.000123661
0.0155351
0.00113897
0.000118507
4.67167e-05
0.00436928
2.77719e-05
0.00411173
0.0192536
0.0022209
6.16017e-05
2.54255e-05
0.00014966
0.000859248
0.000348088
0.00386296
0.0163002
7.16624e-05
0.0103981
4.65187e-06
0.878459
0.443474
0.000109962
0.0413622
9.60883e-05
0.000391864
0.00937849
1.03864e-05
0.603471
0.0440376
0.00755004
0.00062225
0.0283112
0.39346
0.00291671
0.0251121
0.00437647
0.00222995
0.123525
0.0439655
0.000577071
0.000950427
0.0259677
0.0487638
0.00412161
0.000309612
0.0325969
0.000205607
0.0140603
1.10556e-08
1.11577e-05
0.00663163
0.000214212
0.00421527
0.00392483
0.000125315
0.000127999
0.000294754
1.08746e-09
0.00785498
0.00604606
2.82883e-09
0.000444337
0.00169885
0.00222376
0.00410099
0.000384374
0.0115672
0.0634774
4.45946e-07
0.0333896
0.000141054
0.004314
0.000143872
0.00222857
0.0304107
0.00412872
0.000222842
0.0269947
0.000304298
7.64163e-05
0.000365753
0.000259127
0.000626662
0.00757986
0.0258689
0.0146736
0.00733342
0.00548347
0.00105354
0.000132885
8.08891e-05
0.000136672
0.00413628
2.81211e-06
0.00482828
3.53604e-07
3.63638e-06
0.00159288
0.00144799
0.00175693
5.68573e-05
0.0102072
0.00187369
2.21252e-06
0.00338745
0.000275686
0.00180006
0.000459342
0.0067938
0.00231243
0.00507458
0.000440157
0.00632187
0.00228977
4.34056e-05
0.00238886
0.00312692
0.00180939
0.0015337
4.41427e-09
4.71332e-05
8.92667e-05
0.0347353
0.00179652
0.00702706
0.00184209
0.000176724
0.00334173
0.008434
0.00228069
0.00250698
0.00362748
1.22481e-06
0.00165496
0.00190231
0.000365727
4.19358e-05
0.00300035
0.00262043
0.00797921
0.028905
0.00167222
8.11147e-05
0.00300437
0.000327724
0.00425799
7.66698e-05
0.00614871
0.000358038
0.00278873
2.85336e-05
0.000732931
0.000923852
0.00721531
6.16957e-05
0.0198782
0.0061683
0.000238236
0.00138908
0.00159625
0.000251803
2.91077e-05
0.00247384
0.0219334
3.40402e-06
0.0377851
0.00208358
7.20459e-08
0.000109776
0.00188519
1.00201e-05
0.000881203
0.0138669
0.0230599
0.00208355
0.0117339
0.00155164
7.63058e-05
0.00436867
0.0144639
0.000447522
0.00157782
2.48223e-05
0.0826042
0.0419902
0.000104057
0.00240765
0.00149691
7.84598e-06
0.000113549
0.0337871
0.00862893
0.0158437
3.87749e-05
0.00100302
2.85818e-05
0.0193678
2.49324e-09
0.00338203
2.53714e-05
0.00104927
0.0201672
7.45675e-05
0.000397021
0.00433187
0.00147502
0.0025761
0.0015554
0.0235518
0.000227228
0.00201343
0.0199982
2.05478e-05
0.000410059
0.00042672
0.000363076
0.00236903
0.0134021
0.000466047
2.30287e-08
5.25355e-05
0.00141205
1.46339e-06
5.66261e-06
2.10097e-05
2.55275e-09
2.64441e-05
3.79754e-05
0.0116626
0.00500303
0.00037001
0.000460417
0.000295366
0.0624154
3.80725e-05
5.00746e-09
0.0180717
0.00280785
0.00186085
0.00332029
0.000517962
1.49306e-07
0.0182852
0.00217032
0.0228935
0.000773482
0.0498356
0.0142496
0.000125399
0.0256596
0.00326271
0.0895726
0.0074731
5.65836e-09
3.55191e-05
0.256344
0.00667224
0.00100818
0.00308878
0.000160069
0.00336033
0.0308615
0.0108362
0.00288117
0.143875
0.0063642
1.35864e-09
0.0177162
0.0639804
0.0346522
0.00132784
0.00256394
0.000211109
0.00282863
0.000667487
0.0188788
0.0197657
0.000894214
0.0522942
0.0229781
0.00062823
0.00253888
0.0136792
0.00323812
0.000695772
0.0502526
0.00261213
0.000113693
0.0107472
0.0108617
0.0219134
0.00258692
0.000270679
0.00279545
0.0162814
0.000358029
9.3884e-05
0.173107
0.00338103
0.00122813
0.00160903
4.66851e-05
0.00436965
2.64049e-09
0.0186643
0.00253519
0.0141047
3.2949e-05
0.00558577
1.12259e-08
0.0164678
0.000301429
0.000118369
0.0087146
0.00244251
0.006661
0.00770609
0.00207129
0.0158822
0.000134092
0.0156757
0.00659753
0.00925732
0.0563812
0.00558497
0.0293336
0.034589
0.017088
0.00114168
0.00452891
0.00265483
0.000973555
0.000915765
0.00397781
0.00222371
0.000636648
8.92553e-06
3.30757e-05
0.00237291
0.0013372
0.00127848
0.0537172
0.00324722
0.00269897
0.000110809
2.36714e-05
0.000452472
8.79609e-06
0.00258186
0.0299283
0.00254243
0.00192932
5.23694e-05
0.017028
0.0025511
3.27941e-05
1.89147e-06
0.000217883
0.0346371
0.00682606
0.000514632
0.00230113
0.00447634
0.000220967
8.84031e-05
0.00491723
0.000429645
1.56393e-05
8.47313e-05
2.56492e-05
0.00187166
0.00221724
0.00104491
0.00859425
0.102848
0.000239027
1.81342e-05
0.0035667
0.000327498
0.0110945
0.00240333
5.34836e-05
5.17105e-05
0.00319721
4.85652e-05
0.010113
0.0737644
0.0449584
0.000174954
0.000526078
8.94484e-06
0.000115419
0.00263437
0.00392051
0.000450988
0.00272539
0.0141976
0.00195595
0.00027903
0.00231036
0.000431879
0.0298808
9.4135e-07
3.70081e-08
0.0110361
0.00234377
0.000564014
0.0045964
0.000611961
0.000106156
0.000510659
0.00247775
0.0227288
3.99959e-05
0.00011436
0.000300836
0.00701398
7.8577e-05
0.000699143
0.000108723
0.00129021
0.0096044
3.59217e-05
0.0285981
1.02984e-09
5.11381e-05
0.00237713
7.45348e-05
0.000338776
0.00346433
0.00119927
0.00237186
9.31244e-06
0.00180387
3.64267e-05
7.59417e-05
0.00226705
0.00335229
0.00329081
0.299914
0.00173084
0.000953653
0.00223773
0.00295753
0.000283019
0.000244262
0.00369927
0.00215427
0.00309311
7.27328e-05
0.000904858
0.0139905
0.0027915
0.111916
0.000860535
0.0101579
0.0103514
0.0123941
0.00126074
3.18002e-05
8.00038e-05
9.46495e-05
0.000101461
5.0735e-09
0.000257675
0.011531
3.19187e-11
3.35679e-09
0.0037741
2.30832e-05
3.2063e-05
0.0149344
0.00192446
0.00290951
0.00190932
0.00227791
5.10459e-05
0.00159137
4.26307e-05
0.0242824
0.0131858
0.0102437
0.00191411
0.000139452
0.00158905
0.000292452
5.89597e-06
4.16443e-05
1.41414e-07
0.00168974
0.0110218
0.00687932
0.0014566
0.00179174
0.00219807
0.0023219
0.00176666
0.000341963
0.00411304
8.36502e-06
4.06913e-05
7.60014e-09
5.02939e-05
0.00276034
6.68636e-05
0.00033503
0.00227848
5.32984e-05
0.000100007
7.08803e-06
3.15502e-06
0.0535929
0.000487872
0.000674577
3.64398e-05
0.00284266
0.00221212
0.00185485
0.00343724
3.82044e-05
7.52629e-07
0.00105424
2.81664e-05
0.0194711
0.00321456
0.0241315
0.00158469
0.0511559
0.000104487
0.00110648
0.000236766
4.18272e-08
0.00373169
7.52948e-05
0.00133677
0.000102456
0.00221706
0.0192544
0.00166136
0.00232551
0.00864628
0.00239334
0.0108881
0.00361586
0.00163525
0.000934791
0.00507316
0.029714
0.000302903
5.12724e-10
0.0636169
0.00888066
0.00649964
4.24429e-05
0.0656027
0.00193059
0.0153054
3.23349e-05
0.0172377
0.00325432
0.00136154
0.00237175
0.00235324
5.50137e-06
0.040282
0.0145707
0.0145654
0.00303734
0.00231885
0.00159502
0.00321599
0.000966701
0.00010387
0.00160694
0.00303403
3.82048e-07
0.000131125
0.00169067
0.036395
0.0030783
0.000346199
9.67859e-08
0.000406822
0.00169204
0.000455944
0.00151729
0.000734266
1.48461e-06
0.0140748
0.000252227
0.000667309
0.00205634
0.00126045
0.000134535
7.52767e-05
0.000176116
0.00205081
0.00284486
1.35221e-05
0.000108542
0.000671131
0.000102664
1.49958e-06
0.0167469
0.000217048
0.00327857
0.00152996
0.00150355
0.00211392
0.0069591
0.00428937
0.000594652
0.00398106
7.14436e-05
0.00228172
0.00434329
9.34963e-06
0.00753922
0.000392448
0.00296592
0.00187486
0.100141
5.46456e-05
0.000193867
0.000518036
3.76669e-05
0.00137835
0.00287014
0.000200005
1.62069e-05
0.00137578
0.00537995
0.000582349
0.00287056
1.10498e-06
0.000463204
0.00947331
0.00241579
0.000140716
0.00214477
2.4711e-05
0.00419951
0.00338166
2.16303e-05
0.000292543
0.00352903
0.000101221
8.51809e-07
0.000344637
0.000198275
0.120089
7.9235e-06
0.000565002
0.00323597
0.000105309
0.0117208
8.42576e-06
0.00274872
0.00012113
7.96149e-05
0.000520632
1.87879e-05
0.00020547
0.0029515
3.90955e-06
0.000108747
0.000122954
0.0185389
0.000602211
0.00035715
0.000354997
0.00217765
4.45159e-05
0.00311619
0.00456462
3.05966e-05
0.000360672
3.00391e-06
0.00116641
1.48284e-05
0.0123723
0.000291839
0.00152613
0.00218885
0.000126586
0.0847699
0.00038384
0.00306166
0.00110991
4.81253e-08
0.00237319
0.00498847
0.0265868
0.0111113
0.000410465
3.07308e-05
0.0380111
0.0398934
0.000563894
0.0179754
0.00845349
0.000395736
0.000129938
0.000636425
0.000341712
0.000317168
0.000460456
0.00430149
1.51955e-05
0.000162094
2.64123e-05
5.71207e-05
0.00600322
7.7594e-05
0.00247002
3.90214e-05
1.38862e-08
0.000200347
1.22012e-07
1.65159e-09
1.00055
0.000184756
0.0194174
0.00306879
1.10512e-05
0.00029709
0.0178078
0.00188617
1.98714e-05
0.00238254
0.00563507
3.70346e-08
5.40876e-06
0.000397068
1.69645e-05
0.00222301
0.000556821
0.00246352
0.00486882
5.94559e-06
7.00027e-05
0.0195972
0.00282827
0.00305934
0.000394485
0.00355276
9.60773e-05
9.38797e-05
0.00236596
0.00936891
0.0126572
0.00606288
0.000756375
0.000179069
0.00253869
0.00189781
0.00203357
0.0026641
0.000229131
0.000310627
0.00366202
0.00169312
0.00333011
0.00270915
0.000751558
0.00464916
1.08126e-09
1.4731e-09
0.0226018
1.10894e-05
0.000908707
0.00209312
0.003308
0.00992182
0.00385177
8.87009e-05
0.00712397
0.00316076
0.000125325
0.00326565
4.36776e-06
1.27382e-05
1.75365e-05
0.00360986
0.0130025
4.63636e-08
0.00605022
0.00159667
0.151824
0.000166464
0.00371617
3.06576e-05
0.0120832
1.14326e-05
8.55266e-05
2.58606e-05
0.0221206
1.20525e-05
0.00275003
0.00260959
0.00311665
0.00677214
0.00215961
0.00221046
0.0168556
0.00692872
5.47372e-05
3.79138e-05
0.0122663
0.000136095
4.45505e-05
0.00190055
0.00359479
0.00188793
2.10015e-05
0.000111085
0.00465348
0.0032687
0.00206858
2.78322e-05
0.00319957
0.00189804
0.000624951
7.62699e-05
2.5419e-06
0.00269552
0.0184777
0.00284761
0.00156322
0.00708281
0.000491658
0.0314451
0.00132681
0.00741517
0.000251988
1.03891e-05
0.000235647
2.74412e-05
0.000449098
5.92128e-06
2.70113e-08
0.00365692
0.000153375
0.0375123
0.000765757
0.00782394
0.00214134
0.00748506
0.00332318
0.0148708
0.0174268
0.00139684
0.00971989
1.08603e-05
0.000374066
0.00130012
0.00181625
0.000218459
0.0040418
6.1803e-05
0.00307658
9.91202e-05
0.00264111
2.11001e-05
0.00265499
0.00133724
0.000427414
0.0265875
0.000161632
0.00130582
3.39125e-05
3.11895e-05
0.000137967
0.005419
0.00245796
0.00202127
3.44725e-05
0.00159734
0.00312513
0.000252962
0.0156844
0.0132405
6.20423e-09
0.000208453
0.0017422
0.000100148
0.000291837
0.000473478
0.000452437
2.38415e-05
0.00320091
0.000450833
0.00531054
0.000526669
0.00116712
0.000540094
0.00837462
0.00527337
0.00869197
2.06163e-05
0.0537602
0.0219953
0.0972673
0.0018641
0.000145963
3.7103e-05
0.000291369
0.00675149
0.0100221
0.0301131
0.0247144
9.21819e-06
1.59872e-05
0.00773248
0.000401042
0.0174498
0.301994
0.0176029
0.00034295
0.000448588
0.0160402
0.00158264
0.000242596
0.000727475
0.161885
1.36788
6.95474e-05
1.08981e-06
6.3827e-05
0.00480476
0.00105125
0.00185586
0.00269864
0.00196412
0.00438222
0.00088497
0.00222088
3.1198e-05
0.00255972
0.00263985
0.00255964
0.000444169
2.8014e-05
9.12207e-07
0.004677
0.0146398
0.00402367
0.00249347
1.0877e-05
0.00159945
0.00132266
6.58396e-05
3.0077e-05
0.00871133
5.21286e-09
0.0310908
0.00010821
0.0481847
0.0150064
0.000252481
0.00497002
1.01727e-05
0.00237581
0.00013712
0.000872349
0.08343
1.12341e-05
3.11035e-08
8.24962e-06
0.00388049
0.00345766
0.00151151
0.00101126
0.000981312
0.00125409
0.00104025
0.00182084
6.41974e-05
0.0682137
0.0265009
0.00285887
0.00150324
0.00288021
0.0668406
0.0119723
0.00411906
0.000288915
0.00723829
0.00268356
8.23321e-05
5.17612e-05
0.00480847
0.00681387
0.0173369
0.00527338
5.86935e-05
0.00452467
0.0373447
0.0241294
0.00323961
7.66715e-05
2.88079e-05