/*--------------------------------*- C++ -*----------------------------------*\
  =========                 |
  \\      /  F ield         | OpenFOAM: The Open Source CFD Toolbox
   \\    /   O peration     | Website:  https://openfoam.org
    \\  /    A nd           | Version:  10
     \\/     M anipulation  |
\*---------------------------------------------------------------------------*/
FoamFile
{
    format      ascii;
    class       volScalarField;
    location    "29";
    object      T;
}
// * * * * * * * * * * * * * * * * * * * * * * * * * * * * * * * * * * * * * //

dimensions      [0 0 0 1 0 0 0];

internalField   nonuniform List<scalar> 
59698
(
286.608
283.15
283.15
283.15
299.956
283.15
283.154
283.15
303.15
303.15
303.15
283.15
283.15
283.15
300.136
303.15
283.15
283.15
283.15
291.836
303.281
302.13
303.148
303.15
295.678
283.15
283.15
298.353
295.697
295.351
300.291
303.15
303.15
298.831
302.371
283.15
283.38
283.464
283.15
297.542
296.008
283.15
296.353
283.15
283.15
296.595
283.15
283.15
283.15
283.15
283.15
283.15
283.15
283.15
294.386
283.15
283.15
302.176
283.15
282.978
288.989
283.15
299.619
283.15
286.793
283.15
303.15
283.15
283.15
303.15
283.15
283.15
283.135
298.538
283.15
297.779
283.15
287.695
283.17
294.144
299.955
283.15
303.15
283.15
303.701
283.15
283.15
283.15
298.875
283.15
303.15
283.352
298.98
283.15
283.15
283.15
299.055
283.15
298.903
283.15
299.106
283.128
285.913
284.5
283.15
283.15
283.15
283.15
303.15
283.15
283.15
283.15
298.86
283.15
283.15
283.15
283.15
283.15
283.15
303.15
283.15
283.15
283.15
283.15
283.15
283.15
295.472
303.15
283.15
283.15
287.511
283.15
303.15
292.762
290.222
286.56
283.15
303.15
283.15
283.15
283.15
283.15
283.15
283.15
283.15
283.15
283.15
283.15
283.15
301.183
283.138
303.15
288.084
283.15
283.15
283.15
283.15
283.15
296.965
283.15
289.676
283.15
290.767
299.551
297.82
296.701
283.15
280.912
299.36
283.15
300.381
283.151
300.947
301.013
285.527
283.15
303.15
283.237
303.15
298.94
302.765
300.417
298.648
283.15
298.704
300.855
300.766
283.15
283.15
283.15
283.15
283.15
296.595
297.457
299.392
283.15
293.928
296.586
303.155
299.388
283.15
284.144
292.447
283.15
299.299
283.15
297.343
283.154
293.596
298.042
283.15
283.15
299.13
303.15
294.864
283.15
283.15
283.15
297.845
295.992
282.053
296.301
283.15
299.291
294.847
299.344
295.119
283.238
295.658
284.997
283.15
295.525
294.565
295.072
283.15
283.448
295.994
283.15
283.15
283.595
283.15
293.986
289.944
303.15
283.748
283.15
282.929
285.602
283.15
283.15
283.15
283.15
283.15
303.15
283.15
283.15
283.15
283.15
283.15
283.15
303.12
283.15
283.15
283.15
283.15
295.349
283.15
303.15
283.15
283.15
283.15
286.648
303.101
283.15
287.324
283.15
283.15
283.15
293.964
303.15
303.15
283.15
283.15
289.068
295.136
290.69
283.15
303.15
286.011
283.15
301.405
283.169
283.15
283.15
283.15
283.15
283.15
283.15
295.094
283.15
283.165
283.15
283.15
283.15
283.15
283.15
287.828
283.15
283.15
283.15
283.15
283.15
283.15
283.15
283.15
283.15
283.15
283.15
283.15
283.15
283.15
293.394
283.15
303.15
298.316
286.25
283.15
283.15
283.15
283.15
300.18
284.722
298.881
281.566
303.15
283.236
283.15
283.15
298.463
293.824
283.215
283.154
283.15
283.21
298.953
283.15
283.249
301.429
283.15
289.166
291.944
283.15
301.357
303.15
284.197
300.747
302.091
283.15
283.15
303.15
283.15
283.15
303.15
283.223
283.15
283.15
283.15
283.15
283.15
282.755
292.672
283.15
283.15
283.15
296.166
303.15
283.15
283.15
283.15
303.15
283.15
283.15
283.15
283.173
283.15
283.148
283.15
283.15
283.15
283.15
283.15
303.15
283.15
290.727
303.133
301.991
301.777
283.15
283.15
283.15
288.507
283.296
283.15
283.15
283.15
283.15
295.963
293.292
283.667
302.254
297.9
303.15
283.15
303.15
283.15
289.819
283.15
283.575
302.299
302.832
283.15
283.15
283.15
281.993
283.15
283.15
303.15
283.15
283.15
283.15
291.166
302.787
285.304
283.159
287.574
303.15
303.15
298.655
283.15
291.935
283.15
283.15
303.15
283.15
283.15
302.914
294.853
283.15
283.15
299.204
283.15
283.15
283.15
286.324
283.15
283.15
290.65
303.15
284.306
283.15
290.064
283.15
283.962
293.928
303.15
283.15
283.15
286.948
283.15
293.503
283.15
283.15
283.15
283.15
283.15
283.15
302.758
292.127
283.15
283.15
283.15
283.15
283.15
283.15
300.935
283.15
283.15
283.15
291.942
283.267
299.051
290.503
291.366
283.15
292.093
283.15
283.15
283.15
289.59
283.15
283.15
295.189
299.058
283.15
283.15
303.15
283.15
303.15
283.15
290.287
283.15
290.69
283.15
283.15
286.154
283.15
283.15
283.15
283.15
283.15
289.561
285.303
283.15
283.15
283.15
302.994
286.279
283.15
289.835
288.752
283.15
301.468
303.15
283.15
283.15
283.15
283.15
286.364
283.15
303.15
290
283.15
283.15
281.268
288.751
291.825
282.232
283.132
290.346
283.147
283.15
303.15
283.15
303.15
283.15
283.15
283.15
283.194
283.466
283.152
283.15
303.15
283.15
283.123
283.15
303.15
286.364
283.15
283.151
303.15
283.151
283.15
283.15
283.15
283.15
283.15
283.15
283.526
284.567
303.15
283.15
283.15
285.258
283.15
283.15
283.15
283.15
283.15
289.72
283.15
283.15
293.059
283.15
283.15
283.15
283.15
303.15
282.781
283.15
283.15
283.151
283.15
283.15
283.15
283.15
283.15
283.15
283.15
283.15
283.15
283.15
283.15
283.15
283.15
283.15
283.15
283.15
297.854
285.619
283.15
283.15
283.15
283.15
302.961
283.15
283.15
290.925
283.15
283.15
283.15
283.343
283.15
283.15
283.15
283.15
283.15
283.15
283.15
283.15
286.961
283.15
283.15
283.15
303.15
283.15
286.222
283.15
283.15
283.15
283.15
283.15
283.15
288.563
283.15
283.15
283.15
283.15
303.147
293.568
283.15
283.15
283.15
290.987
283.801
301.812
283.158
283.15
283.15
283.15
288.921
283.15
283.15
283.15
283.15
283.15
283.15
283.15
283.154
293.22
283.15
283.15
283.15
283.15
283.15
283.15
283.15
283.15
283.15
283.15
295.744
289.909
297.159
283.15
283.15
283.15
283.15
283.15
283.15
283.15
283.15
283.15
283.15
283.154
283.15
283.15
303.15
296.517
283.15
283.15
283.15
283.15
283.15
283.15
283.15
283.15
297.638
289.314
283.15
303.15
283.15
297.881
297.941
283.15
283.15
283.44
297.218
295.565
283.15
296.227
283.15
282.862
283.15
290.526
300.33
283.15
291.12
283.15
303.15
297.634
287.948
283.15
283.15
283.269
296.941
283.344
283.15
283.596
283.45
283.15
286.005
283.15
296.878
283.151
298.097
283.15
283.15
290.278
295.062
303.15
283.15
296.895
283.15
298.223
295.93
283.15
293.881
296.74
283.15
283.15
294.935
294.567
283.15
283.15
283.15
283.15
289.402
283.15
283.15
294.538
294.557
297.448
283.15
293.692
290.154
294.88
283.183
295.323
283.15
284.362
298.842
283.15
288.636
297.671
301.076
283.15
302.765
283.15
283.15
283.15
283.15
283.15
283.15
283.15
283.15
298.051
283.164
283.15
283.15
283.15
282.349
283.15
283.15
283.15
283.15
303.103
298.497
303.15
283.15
284.57
288.612
283.15
282.178
283.15
283.228
283.15
283.15
283.15
283.15
296.696
283.15
295.7
283.15
283.15
283.15
283.15
283.15
283.162
283.15
283.132
283.173
303.15
283.15
283.15
283.15
283.15
283.152
283.15
283.15
283.15
294.632
283.15
283.15
285.401
283.15
283.15
283.15
299.43
295.158
283.15
283.15
283.15
295.892
303.15
295.879
283.15
283.15
283.15
283.149
283.15
283.15
283.15
283.15
284.115
283.15
283.152
283.15
283.15
283.15
283.21
283.15
283.15
283.15
283.15
283.15
283.15
283.15
283.15
283.15
283.15
283.15
283.15
296.322
296.005
283.15
283.15
294.791
283.15
296.748
303.15
283.15
295.899
283.15
283.15
283.15
283.15
283.15
295.894
283.15
283.15
293.589
283.15
283.15
283.15
283.15
303.15
283.15
283.15
283.15
295.905
297.648
283.15
296.692
283.66
283.15
295.62
283.15
283.405
283.675
286.606
292.12
283.15
285.265
283.15
296.57
284.46
283.15
283.306
283.15
283.15
297.544
283.15
283.564
296.137
296.76
283.15
283.15
285.343
294.041
283.15
283.15
283.15
283.15
283.15
283.15
283.15
283.15
283.15
303.15
283.15
283.15
294.494
303.15
283.15
296.659
283.15
283.15
283.15
283.15
284.747
283.15
303.15
303.15
283.15
284.026
283.15
283.15
291.45
302.709
298.557
283.15
283.15
302.159
297.855
284.632
284.54
284.678
283.15
285.361
283.15
290.639
287.754
283.15
283.15
283.15
303.15
283.168
283.15
300.397
283.15
303.15
303.15
283.15
283.15
283.15
283.15
283.15
292.615
283.15
283.15
283.15
298.385
283.15
283.15
283.15
302.804
283.15
283.15
302.8
283.15
283.15
302.808
283.15
294.549
295.193
296.44
295.357
295.981
295.224
283.15
283.15
303.15
295.485
291.79
283.15
283.15
283.15
297.697
283.15
283.15
283.15
295.359
283.15
287.747
283.15
290.968
283.15
303.15
283.15
288.106
283.15
303.15
283.15
294.187
289.594
283.15
289.338
303.15
303.15
293.096
283.15
283.15
283.15
283.15
283.15
283.15
303.15
303.15
284.106
283.15
295.128
303.15
283.15
296.139
303.15
282.445
283.15
283.569
283.15
283.15
283.15
283.15
283.15
303.15
283.15
283.15
283.15
283.15
283.15
283.15
283.15
301.056
303.15
297.23
302.915
283.15
301.673
287.114
283.156
283.151
297.73
297.114
289.463
289.147
283.15
283.15
288.112
283.15
303.15
283.15
300.979
283.15
283.15
283.15
283.15
283.15
302.391
289.603
283.15
283.151
283.15
283.15
303.15
283.15
286.77
283.15
283.15
283.15
283.15
283.15
304.944
283.15
283.151
283.15
295.301
283.15
287.085
283.15
303.15
283.15
283.15
283.15
283.555
283.15
300.811
301.125
283.15
288.769
299.147
302.602
288.022
283.15
283.15
302.575
287.715
300.264
283.152
283.15
288.929
289.245
283.484
283.504
283.426
303.15
286.071
298.863
283.621
283.15
283.15
297.052
283.15
298.994
283.183
283.15
283.189
283.15
303.15
283.164
303.15
283.169
283.15
283.15
283.165
283.15
285.402
283.15
303.15
283.188
288.1
288.806
283.177
293.372
303.15
303.15
283.15
283.15
283.15
303.15
283.15
283.15
283.15
283.15
303.15
283.15
283.15
283.15
283.15
285.236
283.15
283.15
284.975
303.15
283.15
283.15
303.143
303.15
297.275
290.554
283.15
297.348
291.689
292.316
303.15
283.15
283.15
296.893
282.329
296.641
283.15
303.15
283.15
303.15
296.767
284.589
283.15
283.15
297.594
283.15
302.761
297.481
295.759
297.446
283.295
297.616
283.15
283.15
297.48
297.414
283.15
303.15
283.15
291.915
283.15
283.15
283.15
283.15
283.15
283.15
283.15
283.15
300.615
285.598
296.861
303.023
283.15
303.15
283.15
283.15
299.957
303.15
303.15
293.5
283.15
300.656
283.15
283.15
303.15
283.15
283.15
303.15
283.15
283.15
283.15
283.15
302.96
303.15
297.456
283.15
283.15
289.037
283.15
283.15
283.097
303.15
283.15
303.15
283.15
303.15
283.15
297.882
297.778
296.955
297.554
283.15
283.15
286.811
283.15
283.15
283.15
298.048
289.759
290.367
283.15
301.153
283.15
303.15
283.15
297.004
296.291
303.15
303.15
283.15
288.949
287.349
289.923
289.221
289.605
303.15
303.15
283.15
283.15
287.787
303.15
299.773
303.15
287.569
303.15
303.15
303.15
283.222
290.752
299.278
303.15
292.606
283.15
303.15
283.15
287.297
282.68
283.15
283.73
295.845
287.931
283.15
283.313
287.465
283.15
303.15
303.15
285.192
288.651
292.727
283.578
283.284
283.15
287.298
283.15
283.15
283.15
291.713
283.15
287.692
285.207
293.935
303.15
292.236
284.059
290.96
293.997
300.939
283.15
292.381
283.15
283.15
298.097
283.15
283.15
283.15
283.899
286.79
283.773
283.15
284.863
283.15
284.223
303.15
294.05
283.15
288.491
292.623
303.112
303.15
283.15
284.407
289.813
300.622
284.977
285.119
298.43
283.15
284.945
282.31
294.006
303.15
287.372
283.15
283.13
285.152
303.15
297.591
283.151
283.15
303.15
284.927
300.028
303.15
283.15
289.258
295.128
296.515
297.836
283.513
303.15
285.245
283.15
283.15
283.15
293.905
283.15
303.125
283.15
303.15
294.353
283.15
292.609
283.15
283.15
283.15
300.119
298.994
285.916
283.138
299.319
283.15
299.421
303.15
283.15
283.15
296.292
285.769
283.15
283.15
288.096
283.15
283.15
283.15
283.15
283.15
296.751
303.15
293.695
283.15
303.15
288.562
283.15
283.15
288.201
303.15
296.126
283.15
303.15
296.849
302.676
290.223
283.15
286.905
288.128
303.15
283.15
303.15
283.15
283.15
283.15
283.15
283.14
291.909
283.208
303.15
288.302
288.779
287.966
294.288
288.258
294.891
289.043
286.218
303.15
287.429
291.774
283.15
303.15
300.562
283.15
289.595
303.228
303.15
299.147
283.15
283.172
303.15
283.15
283.192
283.15
297.733
297.126
283.183
295.021
303.15
303.15
283.171
283.167
283.931
283.15
283.155
283.575
303.15
283.796
283.167
303.15
283.15
283.003
283.15
283.164
299.84
303.15
283.165
303.15
303.15
283.676
283.15
283.15
283.149
303.15
293.266
283.15
303.15
303.15
283.15
283.127
283.15
303.15
283.139
283.15
283.15
283.15
300.715
283.15
283.15
303.15
294.701
294.21
303.15
303.15
303.15
283.15
283.15
283.15
291.882
303.15
283.14
283.15
303.15
303.15
303.15
283.15
283.15
283.15
283.15
283.15
283.15
283.15
296.124
303.15
283.15
283.15
283.15
283.15
294.057
283.15
283.15
283.15
283.15
283.15
283.14
283.15
303.15
283.15
283.15
283.15
283.15
303.15
283.15
294.223
303.15
285.304
283.15
293.207
283.15
283.15
283.15
297.218
283.15
296.606
295.911
283.15
283.15
283.15
283.15
283.15
283.15
283.15
298.956
283.15
287.275
283.15
304.956
284.028
283.15
300.337
283.134
283.15
289.065
303.15
294.377
296.511
295.169
283.15
301.433
296.227
283.15
298.937
293.109
302.825
297.659
300.385
283.15
285.25
294.209
289.321
283.15
283.307
297.466
283.15
296.634
283.15
283.15
294.749
283.15
283.143
299.574
283.15
288.104
283.15
283.15
297.884
293.734
283.15
283.15
292.502
283.15
295.053
283.15
293.104
298.397
283.15
300.33
283.15
283.15
283.15
292.877
298.437
291.68
283.15
284.616
283.15
283.15
283.15
283.15
303.15
292.511
297.147
298.05
301.57
283.455
283.15
283.15
283.15
283.15
283.15
303.151
283.15
283.15
283.15
283.139
283.15
283.15
283.15
301.989
283.15
283.15
303.187
283.15
283.15
283.15
299.011
283.15
302.104
302.829
294.661
283.15
283.15
283.15
283.15
283.15
283.15
283.15
283.15
283.15
295.154
302.942
283.15
288.183
283.15
298.904
293.02
283.158
283.15
283.15
283.15
283.15
283.15
283.15
302.926
283.15
283.15
283.15
298.251
302.943
283.15
292.701
283.15
298.525
283.15
283.15
288.187
289.744
283.15
283.15
289.06
289.407
283.15
289.315
302.813
283.15
283.15
289.437
283.15
283.15
283.15
299.714
283.15
294.616
283.15
283.15
283.15
283.15
283.15
283.15
287.185
298.585
299.534
289.311
283.15
283.15
283.15
295.991
283.15
283.15
283.15
298.673
285.528
283.15
283.15
283.15
283.15
283.15
296.225
287.987
296.564
283.15
283.15
283.15
299.582
303.15
283.15
283.15
283.15
296.974
283.15
299.697
283.15
283.15
283.15
283.15
299.658
283.15
283.15
301.302
283.15
283.15
283.15
283.15
283.15
289.326
283.15
303.15
283.15
301.439
283.15
283.15
283.15
283.15
283.15
301.372
287.263
290.363
283.15
283.15
283.231
295.974
283.15
283.15
298.925
283.15
283.15
283.15
283.15
303.15
298.532
283.15
294.392
283.438
295.008
301.377
283.15
301.195
283.15
292.988
286.901
303.15
283.15
300.076
284.164
283.708
283.15
302.832
286.645
295.622
293.868
292.381
296.214
283.15
283.15
291.141
292.623
295.759
283.15
283.15
283.15
283.15
286.065
296.081
295.185
286.862
294.291
295.798
286.23
283.15
291.981
285.846
295.818
296.784
300.266
297.329
297.454
297.951
301.237
283.15
303.146
283.149
287.829
283.15
283.15
301.8
303.551
283.15
303.01
303.129
283.151
283.15
292.093
283.15
290.83
283.15
300.602
283.15
291.099
303.15
283.15
293.488
283.15
301.067
285.09
283.15
302.014
283.15
289.211
302.272
286.671
295.42
283.15
292.614
294.632
300.549
302.96
283.15
283.682
289.043
283.15
283.15
283.15
284.452
283.15
283.15
283.15
283.15
283.15
295.803
283.15
283.15
283.15
283.15
283.15
283.15
284.44
294.095
283.15
283.15
283.15
289.497
283.15
283.15
283.15
283.15
286.562
302.177
288.227
299.925
290.61
283.15
283.15
289.771
303.15
283.15
283.15
283.15
283.15
291.241
283.195
294.311
298.71
288.437
283.15
283.142
283.15
290.932
291.178
283.15
283.15
283.15
283.15
296.157
297.936
300.887
284.912
283.15
283.15
283.15
283.15
283.203
283.15
284.648
294.702
289.668
283.15
283.219
300.953
296.729
283.15
303.15
292.578
283.197
283.15
294.689
283.15
283.15
283.15
283.15
290.63
283.15
283.15
283.15
292.868
283.15
283.15
283.15
283.15
290.843
283.15
293.594
283.15
283.15
292.254
283.15
283.15
283.556
283.596
283.15
283.15
291.795
283.15
283.15
292.082
292.793
283.15
297.944
283.15
283.15
283.15
283.15
283.15
283.15
291.224
283.15
296.408
283.15
283.15
299.986
283.151
296.171
283.15
296.778
295.665
293.655
283.15
283.15
283.15
283.15
283.15
303.15
283.15
289.364
283.15
283.15
292.563
283.15
283.15
299.29
283.15
283.15
283.15
283.15
283.15
283.15
283.15
300.856
286.346
287.366
283.15
283.15
283.15
283.15
283.15
283.15
283.15
283.15
291.714
285.353
283.15
283.15
283.15
284.192
288.5
283.15
284.978
283.15
283.15
303.15
283.15
285.326
283.15
283.15
283.15
283.15
283.15
283.15
303.15
287.153
287.448
283.15
283.15
283.15
283.15
283.15
283.15
288.549
283.15
283.15
285.418
293.417
283.15
285.418
285.437
291.597
283.15
283.15
283.15
303.15
283.411
283.15
283.15
283.15
283.15
295.833
283.15
283.163
285.203
283.15
289.288
295.302
283.15
283.15
302.026
294.38
283.15
283.15
294.242
293.215
296.877
283.15
300.492
288.426
301.252
283.15
297.619
283.15
283.15
283.15
283.15
283.15
293.897
295.04
292.924
283.15
283.15
283.15
283.15
292.155
283.15
283.15
283.15
283.15
283.15
283.15
299.355
283.15
283.15
283.15
283.15
283.15
283.15
283.15
283.15
283.15
291.644
283.15
283.15
283.15
283.15
284.978
283.15
283.15
283.15
283.15
283.15
283.15
290.946
283.15
302.664
290.506
283.15
296.797
283.15
285.565
283.15
298.648
303.387
286.623
283.15
283.15
283.15
298.425
283.15
290.084
283.15
283.15
286.381
285.95
283.15
283.15
283.15
283.15
283.15
283.15
283.15
283.15
283.15
293.062
283.15
283.15
283.15
283.15
292.247
283.15
283.15
283.15
283.15
283.15
283.15
283.15
283.15
283.15
283.15
303.15
303.15
283.15
292.025
283.663
283.15
283.15
283.15
296.996
283.15
283.15
283.15
283.15
283.15
283.15
283.15
283.15
283.15
283.15
283.15
295.383
283.63
283.15
283.15
283.15
283.15
283.15
303.243
283.15
303.15
283.15
283.15
283.15
295.483
283.15
283.15
283.15
283.15
291.157
283.15
283.15
283.15
303.15
282.89
283.15
301.982
284.042
303.15
283.15
300.868
294.26
283.15
291.747
283.15
283.15
283.15
303.15
303.15
283.15
283.15
296.671
283.15
284.32
283.15
283.15
293.885
283.15
293.223
283.15
283.15
300.787
303.15
303.15
297.808
283.15
294.849
283.15
283.15
283.15
300.975
283.15
283.15
283.15
291.807
303.15
283.15
283.15
283.15
283.15
283.15
300.84
283.15
283.15
283.15
294.425
283.15
283.15
283.15
283.15
283.15
283.15
296.671
301.945
302.71
292.447
284.19
283.15
283.15
283.15
283.15
300.579
283.15
283.15
283.151
283.151
283.151
283.151
283.151
283.156
283.15
303.15
297.12
283.15
283.15
283.15
283.15
297.943
283.146
283.15
283.672
283.15
283.15
283.15
283.15
283.15
283.15
292.185
294.921
303.15
295.672
284.939
292.881
297.801
298.036
283.15
283.15
283.15
298.078
283.15
296.164
283.15
283.15
298.682
283.15
294.571
298.115
294.141
296.55
293.844
283.15
283.15
297.011
283.15
283.15
283.15
283.15
283.15
283.15
283.15
283.15
284.914
283.15
283.15
290.12
286.125
283.15
283.15
283.15
283.15
299.656
283.15
283.15
286.316
283.15
290.727
283.15
292.027
283.15
283.15
283.15
283.15
283.15
283.15
283.15
290.851
283.15
296.812
283.15
294.006
283.15
295.952
297.499
295.565
287.429
297.243
294.005
283.15
283.15
283.15
297.499
283.15
283.15
283.15
283.15
283.15
283.15
283.15
283.15
283.15
283.15
290.113
283.15
283.15
283.15
283.15
283.15
283.15
283.15
283.15
283.15
283.336
298.737
283.15
302.765
301.086
303.15
283.15
283.15
283.15
283.15
283.15
293.008
283.15
283.15
283.15
302.513
283.15
298.121
290.012
294.402
283.155
300.308
283.15
288.356
300.868
287.189
283.15
283.158
283.15
283.116
283.15
289.943
282.401
293.562
283.15
283.15
296.768
283.15
284.917
291.396
302.407
283.15
283.15
297.404
303.182
283.15
283.15
294.828
290.947
283.15
283.15
283.15
284.317
283.15
283.15
283.15
283.15
283.15
283.15
283.15
283.15
283.15
283.15
300.294
283.15
283.15
283.15
294.628
300.451
290.24
283.15
283.15
298.924
283.15
283.15
283.15
283.222
283.15
297.224
283.15
285.061
297.046
283.145
283.15
283.15
298.603
283.15
283.15
290.65
283.15
283.15
283.149
283.15
293.214
282.638
291.9
283.15
283.15
303.151
283.15
283.15
293.649
286.008
283.15
283.15
283.15
297.336
286.007
283.743
283.15
284.421
283.287
283.15
283.15
284.571
283.15
284.347
293.854
283.15
289.461
297.389
287.142
283.15
283.15
283.15
295.709
283.15
296.34
283.15
283.15
293.332
296.757
292.325
303.15
287.451
294.973
285.613
293.86
285.811
283.15
288.63
287.973
293.031
303.15
286.261
283.15
288.225
285.272
285.173
283.15
285.463
288.543
283.15
294.502
286.065
283.15
289.246
283.15
283.15
283.15
283.15
283.15
283.15
283.15
288.532
299.553
288.962
288.382
287.414
283.15
286.462
302.409
283.15
294.099
292.958
283.15
294.657
284.305
284.307
283.15
283.15
295.859
283.15
283.151
283.15
283.15
283.15
283.15
302.586
287.602
286.893
293.378
283.15
294.449
283.15
303.101
283.15
283.15
283.15
283.15
292.476
292.762
283.15
283.15
284.079
299.07
283.15
283.15
283.15
283.15
283.15
283.191
300.075
283.15
299.601
283.15
299.154
299.184
302.336
302.085
299.493
299.69
299.54
289.063
283.15
283.15
283.15
283.15
288.851
293.573
283.15
283.15
283.15
285.596
283.15
283.15
283.15
289.987
283.15
283.15
301.038
283.15
299.976
301.472
289.119
283.15
283.15
283.15
290.289
299.049
283.15
283.15
283.15
283.15
283.15
283.15
283.15
283.15
283.15
283.15
283.15
283.15
283.15
283.15
283.15
283.15
283.15
283.15
292.134
297.385
283.15
283.15
283.15
283.15
283.15
295.929
283.15
283.15
283.15
283.15
283.15
283.15
283.15
283.15
283.15
301.895
302.259
283.15
283.15
301.116
304.618
283.15
302.212
302.156
283.15
283.15
283.15
283.15
302.35
283.15
283.15
283.15
302.347
283.15
283.15
283.15
283.15
283.15
283.15
283.15
303.081
283.15
296.159
283.15
283.15
283.15
283.15
283.15
283.15
290.131
283.15
283.15
283.15
283.15
283.15
283.15
299.248
283.15
283.15
283.15
287.06
301.44
283.15
301.092
291.197
300.51
283.15
301.53
283.15
298.678
283.15
283.151
290.45
296.674
298.691
297.844
294.2
283.15
283.15
300.207
283.15
283.15
298.93
283.15
283.151
283.15
284.223
299.024
287.92
299.039
283.227
283.15
283.15
295.764
283.15
283.15
283.15
293.785
289.17
295.19
283.15
297.321
283.15
283.15
298.136
297.057
283.15
291.803
297.13
290.322
287.46
297.551
298.817
303.15
283.15
285.556
283.15
304.281
283.15
287.625
296.087
283.15
296.476
283.15
283.15
294.671
297.511
283.15
283.17
283.15
283.15
283.189
283.15
283.15
301.829
283.15
296.492
286.16
297.304
283.15
283.15
283.15
301.925
283.15
295.006
294.92
288.687
295.614
300.13
283.15
283.15
283.15
283.15
299.366
296.616
283.15
283.15
283.15
283.15
285.133
283.15
303.144
284.976
285.613
289.076
299.17
283.345
283.15
303.15
283.176
283.15
283.15
283.15
286.957
294.894
283.15
283.15
283.15
283.15
283.15
283.15
287.954
283.15
294.346
283.249
285.02
289.73
283.15
298.283
291.979
300.581
284.881
283.15
292.277
294.049
284.596
296.419
297.128
283.15
296.647
283.356
296.619
297.119
300.246
283.15
283.15
289.317
283.15
283.15
303.109
303.15
283.15
283.15
289.303
283.15
283.15
303.15
303.15
291.107
283.15
283.15
283.15
283.15
287.266
283.15
283.15
283.15
283.15
295.833
289.751
283.15
283.15
298.623
283.15
291.518
285.691
283.15
302.51
283.15
283.15
283.15
291.282
283.15
283.15
283.15
283.15
283.15
291.153
290.108
283.15
302.705
283.15
283.15
298.269
287.504
303.15
288.102
297.616
300.901
283.15
283.15
287.831
288.268
293.485
283.15
283.15
288.332
283.162
283.15
283.15
296.36
283.15
288.751
296.59
283.15
295.869
283.15
283.159
283.15
283.15
283.15
283.15
283.175
283.171
283.15
300.82
294.636
283.15
283.15
283.15
283.15
283.15
283.15
283.15
287.636
283.15
283.15
303.15
283.15
283.179
283.167
283.15
283.15
283.15
302.451
283.178
297.407
289.852
289.761
283.15
283.15
283.15
283.15
294.139
289.48
283.15
283.15
283.15
283.15
283.15
283.15
283.15
283.15
294.258
283.393
285.179
290.82
283.15
283.15
283.15
283.15
283.594
283.612
283.449
283.412
283.325
283.534
283.15
283.422
283.672
290.24
291.834
283.154
283.354
283.15
283.604
283.15
302.969
294.653
283.575
296.87
285.487
283.505
283.368
285.429
283.15
290.275
293.755
283.15
282.849
283.15
294.995
283.15
292.893
300.07
297.294
283.146
297.864
283.15
300.967
288.779
283.191
283.15
293.554
301.324
284.836
283.15
288.962
283.15
283.15
283.15
283.15
283.15
283.15
293.067
295.581
283.15
283.15
283.15
283.15
293.664
283.15
295.001
292.783
290.92
283.15
283.15
288.899
283.15
290.432
289.489
283.15
296.956
283.15
297.624
286.676
283.15
299.377
290.22
283.15
303.2
283.15
283.15
283.15
283.15
283.15
283.15
285.426
283.15
283.15
283.15
283.15
285.345
286.152
287.295
290.093
297.472
295.793
283.15
297.189
283.604
283.15
288.678
303.15
297.596
283.15
285.812
283.15
283.15
283.15
283.15
283.15
298.142
290.156
303.15
290.054
288.979
287.533
289.324
288.904
284.887
286.332
303.15
283.15
289.709
286.589
283.15
283.15
283.15
283.15
289.296
293.837
283.15
283.15
284.788
283.15
283.15
301.588
283.15
288.678
283.15
283.167
294.071
292.564
283.15
283.15
300.9
283.15
283.15
283.15
283.15
283.15
286.239
292.755
283.15
295.887
283.15
283.15
283.15
302.45
283.15
283.15
292.702
303.114
283.15
283.455
283.15
293.813
294.191
289.245
283.15
283.15
283.15
283.205
283.15
283.15
283.214
283.15
296.612
283.15
283.15
283.15
283.15
303.15
283.15
283.15
283.15
283.15
283.15
283.15
283.15
283.15
287.481
283.186
283.15
283.15
283.15
293.662
285.057
283.15
283.15
284.741
283.15
283.15
283.15
283.15
283.15
283.15
283.15
283.15
283.15
283.15
293.12
283.15
292.39
298.834
287.848
283.15
295.771
283.15
283.15
295.997
296.327
295.772
283.15
283.15
283.15
283.15
283.15
283.15
297.219
287.571
301.621
283.15
283.15
283.15
283.15
283.15
283.15
283.15
283.15
283.15
283.15
293.586
287.044
283.15
288.487
283.15
283.15
291.965
283.15
283.15
283.15
283.15
283.15
283.15
283.376
288.67
283.15
283.15
283.15
293
283.15
290.982
296.136
283.15
291.742
283.15
283.15
283.15
283.15
291
286.726
287.81
288.541
291.27
283.15
297.687
283.15
283.15
283.15
300.989
285.015
295.941
283.15
285.046
284.928
283.15
283.15
289.086
283.15
286.982
283.15
283.15
283.15
283.15
297.484
285.014
283.15
283.15
288.363
296.923
289.183
283.15
293.909
300.249
287.53
301.695
294.014
283.15
283.15
283.15
283.15
283.15
283.15
283.15
284.096
283.15
284.414
283.15
283.15
283.15
283.15
283.15
283.15
283.15
283.15
283.15
283.717
283.15
283.15
283.15
283.15
284.775
283.15
283.15
283.15
283.15
283.15
283.15
283.15
283.15
293.739
283.15
283.15
301.232
283.572
283.15
288.409
283.15
283.15
288.448
283.15
283.15
293.869
283.15
283.15
283.15
283.15
283.15
283.15
283.15
283.15
283.15
283.15
286.957
283.15
283.15
283.15
283.15
283.15
291.569
283.15
283.15
283.15
283.15
283.15
283.15
293.243
283.15
284.231
283.15
283.15
287.006
283.15
283.15
283.151
283.15
291.682
283.15
283.15
283.15
283.15
283.15
283.15
283.173
283.15
283.15
291.91
283.15
302.489
283.15
295.202
297.19
283.15
291.065
283.15
283.15
283.15
283.15
283.15
295.684
283.15
291.766
296.681
283.15
290.917
298.885
283.729
291.781
290.558
290.811
283.15
283.15
283.15
283.15
283.15
283.15
283.15
283.15
283.15
283.15
283.15
283.15
283.15
283.15
283.15
283.15
283.15
283.15
283.15
283.15
283.15
283.15
283.15
283.15
283.15
283.15
283.15
283.15
294.49
283.15
283.15
294.621
283.15
283.15
283.15
283.15
283.15
283.15
283.15
283.15
284.894
283.15
283.15
283.15
283.15
283.728
283.15
283.15
283.215
284.927
283.15
283.15
283.15
283.749
283.15
283.15
283.15
284.993
283.263
283.15
283.15
283.15
283.15
283.15
283.15
283.15
283.15
283.15
283.15
283.15
283.15
285.299
283.15
288.171
285.504
285.344
289.659
283.15
283.15
283.15
283.15
283.15
283.15
283.15
290.269
283.15
283.15
283.15
283.15
283.15
283.153
283.15
283.15
291.931
283.15
283.15
283.15
283.15
283.15
283.15
283.15
283.15
283.151
283.15
283.15
283.15
283.15
283.15
283.15
283.15
290.456
283.15
283.15
289.908
283.15
283.15
283.15
283.15
288.689
283.15
289.237
301.691
283.156
289.03
283.15
283.15
296.054
283.15
283.15
290.193
283.15
288.904
283.15
283.15
283.15
296.326
288.892
303.15
283.15
283.15
283.15
288.695
283.323
290.974
283.15
283.15
283.15
300.422
283.21
283.15
283.15
283.15
283.15
283.15
290.604
283.15
283.15
283.15
283.15
283.15
283.15
289.669
283.15
283.15
283.15
284.929
289.143
283.15
283.15
283.15
283.15
283.15
283.15
283.15
285.765
287.995
283.15
293.684
283.15
283.15
303.15
283.15
283.15
296.838
303.15
288.249
283.15
283.15
283.15
290.409
291.748
283.15
288.964
283.15
283.15
285.251
293.921
283.15
283.15
283.15
283.15
283.15
293.542
292.897
283.15
283.15
283.15
283.15
299.045
292.567
283.15
283.15
283.15
283.15
283.15
286.514
283.15
283.15
283.15
303.15
283.15
283.15
283.195
283.15
283.15
283.15
285.826
283.15
283.15
283.15
283.15
283.15
289.101
283.15
283.15
283.15
283.15
283.15
283.15
283.15
283.15
283.15
283.15
283.15
283.15
283.15
283.15
283.15
283.15
283.15
283.15
283.15
283.15
283.15
283.15
288.346
298.846
283.15
283.15
283.15
283.15
283.15
283.15
283.15
283.15
283.15
283.15
283.15
283.15
283.15
283.15
283.15
283.15
283.15
289.491
283.15
283.15
283.15
283.15
283.15
283.15
283.15
294.02
283.15
302.578
283.15
283.15
283.15
283.15
283.15
283.15
283.15
283.15
283.15
294.117
294.117
283.15
283.15
283.15
283.15
283.15
283.15
283.15
283.15
283.15
283.15
283.15
283.15
283.15
283.15
283.15
283.15
283.158
283.157
283.15
283.15
283.15
290.921
283.15
283.15
283.15
296.22
283.15
283.15
283.15
283.15
283.15
283.15
295.056
283.15
283.15
283.15
283.15
283.15
283.15
283.15
295.64
283.15
283.15
283.15
283.15
294.813
295.512
283.15
283.15
295.541
283.15
283.15
283.15
283.15
283.15
283.15
283.15
283.15
283.15
283.15
283.15
283.15
283.16
291.582
283.15
295.985
283.15
283.15
296.313
283.15
283.15
283.15
283.15
283.157
283.15
283.15
289.505
283.15
290.584
283.15
283.15
283.15
283.15
283.15
283.15
283.15
302.648
283.15
283.151
283.15
290.792
283.177
293.578
291.03
302.756
283.15
302.966
302.574
297.017
283.164
283.15
295.971
283.682
283.164
283.167
286.761
303.15
283.177
283.629
283.15
283.15
283.166
283.15
283.15
283.441
283.15
303.15
283.15
283.15
283.161
283.158
292.517
283.15
293.981
283.15
283.15
283.15
292.766
290.278
295.592
294.375
295.416
283.15
295.714
283.15
283.155
302.725
283.15
288.097
283.15
283.15
283.15
283.15
283.158
283.154
283.15
283.15
295.574
295.537
283.158
297.832
283.15
283.15
283.15
283.156
283.15
291.87
283.15
283.15
283.15
283.15
283.15
283.15
283.15
283.15
283.15
283.15
283.15
283.15
290.178
283.15
283.15
295.412
298.62
283.15
290.122
293.441
283.15
296.288
283.15
283.149
303.15
293.527
283.155