/*--------------------------------*- C++ -*----------------------------------*\
  =========                 |
  \\      /  F ield         | OpenFOAM: The Open Source CFD Toolbox
   \\    /   O peration     | Website:  https://openfoam.org
    \\  /    A nd           | Version:  10
     \\/     M anipulation  |
\*---------------------------------------------------------------------------*/
FoamFile
{
    format      ascii;
    class       volScalarField;
    location    "2.5";
    object      p;
}
// * * * * * * * * * * * * * * * * * * * * * * * * * * * * * * * * * * * * * //

dimensions      [0 2 -2 0 0 0 0];

internalField   nonuniform List<scalar> 
111485
(
34.7777
7.64538
8.90599
34.4947
9.1984
33.9873
7.79918
6.80293
7.83425
11.475
7.72671
9.92312
7.87329
7.64854
7.90685
8.03994
2.5721
35.2081
7.80631
34.3873
34.3157
34.235
7.90662
7.94489
9.16963
33.8026
11.0277
4.37757
8.88122
34.959
15.0804
1.79905
34.5583
34.944
34.8423
35.3829
14.9501
0.494454
17.5455
8.14512
35.3158
11.4707
8.14233
13.2892
16.4433
35.6109
12.5461
7.94507
11.4449
33.8672
33.8652
32.7448
33.8751
13.5184
33.8798
4.93365
7.90661
35.487
12.5648
8.12681
8.15019
34.7734
6.22444
14.75
33.4007
5.56438
27.7231
7.23254
6.37829
6.83797
15.9957
5.75451
33.2033
6.33854
35.3028
3.30693
34.3994
11.023
34.2302
34.1683
15.3161
12.9257
34.5869
35.1896
6.27969
8.39146
21.3741
13.5914
15.6121
2.37281
16.542
8.40395
6.31259
0.963922
11.4891
35.1703
34.7964
13.5669
15.8814
14.2881
34.6781
11.0977
35.2392
10.8537
7.41854
33.887
35.0694
2.09092
8.57318
16.2589
1.43397
5.7003
8.38772
10.3294
33.7949
3.12571
33.9236
35.4861
6.42572
34.399
33.795
31.2603
34.5951
35.4975
11.9725
35.4871
31.2084
2.41275
35.3793
18.1949
14.954
13.5535
35.2713
30.9511
31.5665
7.62137
34.4563
3.30734
6.99151
7.06867
11.5907
7.06765
7.03202
8.78578
12.1936
0.355345
34.4458
35.1212
35.2568
7.44265
8.81358
34.3233
15.1122
0.0402099
15.9611
7.39499
7.32058
7.91629
16.2261
35.5274
34.4976
7.37252
8.82673
16.3297
16.1259
2.90043
14.4794
35.5057
16.4277
16.4838
35.2535
35.075
9.55961
34.8108
0.561211
0.107806
33.629
33.1748
33.8688
33.7665
33.1264
34.4764
7.45621
7.48007
7.40101
0.160368
11.0337
3.97303
14.9045
34.647
3.47467
33.1821
34.8135
3.99733
11.4222
14.4116
5.27672
0.458423
35.3001
7.48626
8.70752
28.3144
12.8836
2.27806
35.4155
4.02686
10.5358
33.1581
14.3475
12.4747
8.74432
3.92336
33.0923
34.8653
3.97566
27.7538
13.5447
34.7742
4.02538
3.42887
11.6589
35.5889
4.45735
14.1151
29.849
34.8001
35.2738
15.9836
16.1044
33.5298
32.1641
3.4581
0.917153
5.52117
33.5086
33.4103
14.7454
35.3544
7.43643
3.43652
3.46377
3.44644
3.46604
35.307
15.4395
2.74144
35.3846
34.5563
13.5818
5.72719
33.6095
1.72587
2.58134
35.1012
30.6595
12.7308
33.8207
33.6675
31.844
34.1033
3.01615
3.40033
0.254651
35.6133
2.62872
34.5332
34.7498
35.3959
14.8228
11.0532
6.00974
6.09331
10.3243
6.03032
6.1426
15.5005
0.901318
0.946201
33.4907
35.073
15.5634
2.10112
11.4951
1.13256
34.439
6.1145
7.49051
5.99795
10.5374
15.5439
5.96136
6.07045
12.8309
35.5015
10.9562
34.8155
35.3362
33.7749
15.9301
10.3618
8.041
33.9944
35.5711
4.72617
1.51677
34.2916
34.8938
33.9069
3.40316
0.965871
7.30704
7.64812
8.28403
32.4803
35.1132
35.2383
4.74737
23.9279
8.09904
15.6491
14.6688
34.566
34.7481
34.7866
31.5407
5.10379
9.12126
35.4749
5.03608
33.5496
33.7981
13.8433
5.07331
10.22
5.0005
33.9708
31.4835
35.315
5.05426
0.280689
15.204
33.708
18.8167
15.1197
9.22798
4.50327
20.1326
8.33509
34.3629
8.33987
5.15696
15.5324
13.7992
9.31669
35.019
35.2448
35.1717
34.513
7.22216
4.39146
10.2644
8.33876
34.9494
9.71105
35.12
34.8039
8.33211
34.0625
31.433
35.6301
35.4275
7.40877
35.5001
0.224443
9.59073
34.2389
6.67599
5.30941
33.763
5.21175
9.80749
5.22196
14.3783
0.478909
0.991074
34.0182
35.1112
13.2317
35.4327
10.1237
14.0092
33.5391
35.376
4.96728
9.98751
0.864395
9.65105
34.4184
15.0381
9.86633
33.8976
13.2798
10.0229
34.87
34.4423
0.226199
9.19222
35.373
33.9449
29.1477
34.668
9.39617
34.7798
34.6186
9.94942
15.0474
12.2428
9.19874
34.0207
31.5653
13.3059
31.8106
13.265
13.3747
11.364
28.0952
31.9738
0.759314
16.373
34.9461
13.8215
9.65362
35.5975
16.5696
11.6029
31.8697
10.2261
9.91369
0.525882
34.1049
0.820724
10.4668
0.510362
16.2194
31.1773
15.8188
35.2836
15.1052
0.193113
35.2276
10.2271
12.686
30.7895
35.5928
32.5827
34.307
9.21508
0.55558
10.0947
10.1776
14.3113
34.812
10.3683
34.806
9.20802
33.7998
34.7984
35.0855
10.1789
35.149
34.8585
34.5696
34.7981
35.3305
12.7263
35.5045
32.7843
35.1306
34.8715
33.9578
35.2674
34.2968
10.2782
35.1454
12.8477
10.5432
16.8555
33.8187
12.8386
35.1539
34.7616
10.1908
10.1202
10.2772
15.6736
32.6668
11.7432
11.7671
0.657937
1.14339
10.5255
35.0507
0.652191
30.8039
11.9021
34.8717
11.8695
31.2706
1.32608
10.089
34.1279
35.2588
1.12938
34.231
11.7376
11.8009
35.3585
35.1554
33.8911
35.1932
15.1905
11.7046
33.5788
35.4534
9.20797
34.2408
11.7619
34.3608
12.36
34.7827
11.4967
11.7863
5.14553
1.28206
33.6618
0.0225961
33.7553
34.8898
10.7953
34.8896
11.5625
33.9156
11.9087
34.9937
10.8394
34.2883
31.9139
16.8186
10.8519
11.7088
10.8508
11.7517
10.0093
35.2426
11.7419
10.8671
34.7185
15.8783
14.6793
11.7647
33.6537
33.7426
9.15679
12.052
24.9885
32.9762
10.8709
9.14768
11.0498
11.058
1.47701
22.6226
31.713
15.6511
23.814
34.5388
11.6861
35.4435
31.9916
2.34914
22.5474
15.7234
20.2362
31.7159
11.1356
9.15691
33.7897
32.723
9.11951
34.024
34.2092
34.3004
33.7571
11.1442
35.1135
35.3443
11.2496
3.53287
29.5477
9.07951
32.6108
3.47387
33.8644
35.2775
11.2149
34.8625
33.8507
31.922
0.37274
27.1457
11.4777
2.37923
33.9873
16.5956
11.5307
9.47004
14.4686
17.8164
9.25894
34.9186
11.462
9.43977
35.4267
5.40295
12.9044
9.69443
0.3582
9.7183
9.70388
35.2853
11.7504
14.3223
31.85
9.69763
11.8003
27.5382
2.37074
9.68137
11.8418
10.2553
10.3092
2.3873
33.7324
10.3117
11.6036
34.0615
10.9837
10.9973
2.54558
34.9121
0.329461
35.504
34.4971
35.0262
33.7571
9.44038
32.0997
15.0869
34.8315
33.8775
11.0221
11.0533
34.2184
11.7963
34.7682
35.3887
33.8967
12.0632
11.7091
31.9772
35.5023
34.8573
34.9486
14.7194
2.54969
31.6
10.774
16.2698
35.3566
10.7813
12.5001
1.39467
34.1388
34.7814
5.61663
2.5023
31.8443
35.2242
33.4899
4.15528
35.0965
33.97
34.7409
10.6734
8.48619
34.256
34.5588
34.0295
1.51601
35.4374
33.9197
12.1398
14.7588
31.7955
29.5885
19.6645
12.3521
0.0672564
33.3219
9.0786
12.7265
35.5072
33.851
34.4805
34.813
35.1496
34.3132
10.694
34.7585
34.4706
33.6762
10.7214
2.48111
33.8118
33.8748
12.3952
2.50396
2.56924
34.0448
34.5031
2.52773
35.143
10.8025
2.49352
2.60541
33.7894
34.6665
34.664
34.9987
9.20733
34.5605
34.3559
13.5433
34.6385
4.37163
12.6834
33.5003
2.41143
33.3879
4.36458
11.2125
11.6048
12.2965
14.9487
32.4467
4.33564
12.4289
0.0614326
33.6312
13.3109
31.8656
0.751129
35.0434
12.8056
12.5243
12.7903
33.8003
34.7061
35.6066
2.50161
32.6306
1.64778
33.0145
8.2752
0.703942
1.78187
2.52998
34.3273
33.738
33.2087
2.56653
33.8436
32.4653
16.4145
35.436
35.4313
34.6547
34.498
1.82331
33.3693
34.7701
14.3849
32.5738
35.4912
31.6703
34.7047
12.76
1.76667
34.3372
9.25244
19.6774
12.8311
16.4998
2.20791
35.1888
11.3264
14.5905
12.838
35.2196
12.7182
1.82567
30.8639
1.69351
15.6964
16.2557
6.75437
1.19278
15.8917
0.367234
1.59741
34.9716
33.726
1.18793
1.18559
35.3286
1.20497
10.114
1.59059
33.6052
16.1132
35.04
1.6421
1.57504
34.0753
0.722775
1.57808
16.0903
0.396133
33.4742
7.28738
16.1381
17.144
15.9997
13.8671
34.9216
35.0564
13.5789
34.4738
10.3927
13.9786
31.0996
16.3099
15.6027
16.652
34.4973
30.7016
3.753
35.3756
36.5429
13.8127
33.7722
33.9889
15.8069
15.3894
34.4854
16.2328
34.8024
34.8552
35.4142
34.7908
33.8702
35.1226
13.9509
33.7005
35.2542
35.3598
14.5105
13.8345
8.58561
3.71576
34.1543
33.8465
14.4295
34.6747
33.9894
29.4658
14.104
4.84568
34.1683
33.9435
33.8057
33.9195
35.1072
33.8613
14.3153
33.8485
16.0873
8.30249
34.9439
34.7322
33.8589
16.1989
33.8523
34.5067
34.9967
16.1999
35.0851
14.2802
14.8782
15.9591
34.2714
28.0315
14.3728
8.00185
33.1395
16.1514
11.928
34.0023
33.3879
31.351
33.9412
3.74232
7.22086
14.6571
16.1111
34.1017
3.72065
33.2905
31.6506
31.2725
35.2751
6.54271
34.7312
33.8596
15.1942
4.8419
33.8597
11.6568
32.7672
14.6443
34.0496
34.8775
35.1077
34.6087
1.75342
7.13929
17.994
34.1469
33.624
1.76181
34.487
32.1683
34.8059
10.667
16.1889
9.23504
33.9686
15.346
15.2759
34.4662
15.3305
33.766
13.3282
11.9938
7.00296
15.2392
15.1705
34.5813
34.822
34.8295
15.3045
35.6335
15.4169
35.481
18.792
33.9318
8.04679
8.31081
33.873
34.3987
33.8781
35.4239
15.4132
33.8758
31.3681
1.74399
15.4439
33.8397
32.0884
33.3063
32.1439
33.7626
34.6122
15.5086
12.0256
34.4852
33.7896
15.8896
34.8137
15.4982
1.78203
33.6283
13.566
34.6388
1.06539
33.6703
8.91351
34.0481
16.0751
16.0826
15.8227
13.6175
13.6038
27.0963
33.3199
13.7002
33.8578
6.52219
34.1233
35.1688
32.8569
35.1328
35.2622
35.3099
13.5919
13.5887
34.6468
30.8329
33.998
13.8038
16.1456
34.8826
6.56
16.0356
33.8636
2.30823
1.62051
6.24962
15.8904
34.476
34.7131
35.0071
34.3321
6.58326
35.0239
13.895
34.6264
13.9558
8.94288
35.08
13.8866
35.2944
34.4419
14.0266
14.7387
21.7846
34.6293
33.8494
33.8992
6.7945
33.0533
35.5582
33.3045
19.4129
31.4214
16.1231
32.0892
33.217
33.4041
1.98348
1.74019
10.039
7.47804
35.4436
13.9923
34.8898
35.332
1.70733
33.6478
16.0158
13.9444
1.24035
14.1141
15.2551
9.91111
35.2217
14.3568
11.6817
12.0906
14.3902
5.0265
28.8288
34.7572
9.58567
34.0375
33.9606
16.684
11.4636
15.311
34.8645
34.5872
15.1456
33.8629
33.7046
14.207
33.8703
33.8724
5.98243
14.2379
14.5385
5.89734
2.99551
33.8239
34.5613
16.5954
5.80056
34.297
33.8667
10.2417
33.7692
30.7487
31.5051
31.603
26.5747
30.7641
34.2998
9.72366
33.8834
14.4958
34.0506
24.7262
33.683
33.6771
35.2412
34.4651
9.04089
34.4866
34.4658
31.86
33.9636
35.2079
34.8568
5.51897
34.5402
5.00492
14.5727
33.6699
9.90548
34.1992
12.3532
16.1248
1.31189
1.37037
33.7906
1.47328
9.06001
15.798
35.3819
14.8597
4.36032
0.669867
32.7855
0.857262
33.6653
35.2125
33.9973
34.2647
0.859818
34.8031
33.9986
0.679661
14.7859
0.668477
35.3537
28.7226
9.86595
35.0396
16.5597
33.8577
1.43386
33.6322
33.7316
9.79784
34.0386
14.9398
34.8164
34.0491
4.31834
12.6392
3.17314
7.01317
16.3275
5.57876
34.0691
34.0933
8.39714
3.29361
5.4587
14.8223
34.4816
5.04633
34.4094
33.9205
8.54054
14.9931
33.7917
3.36715
35.2018
3.20319
2.96264
33.2145
34.2817
34.9977
8.40264
34.7847
34.7886
8.44129
3.17895
14.3217
0.794838
34.1079
35.1642
10.4447
8.48491
34.0935
8.40594
33.6888
8.39316
34.2062
34.1238
8.37584
34.5077
12.0344
7.74395
33.8166
34.2899
7.7565
30.7387
9.38701
34.7562
14.4717
34.8211
30.8862
30.4448
7.81601
31.9393
31.7291
7.19741
31.691
25.9761
30.6075
33.6382
34.0266
15.8043
9.38399
34.835
34.8946
9.24832
9.32026
33.8119
8.5132
34.3304
34.02
10.779
10.2709
0.358465
34.1857
34.9024
34.8059
34.4708
33.7665
33.7863
34.9178
33.8591
33.9104
34.2905
34.8263
34.0336
34.6165
34.1422
33.9262
33.6763
34.1344
34.2864
34.5435
34.7466
35.2578
9.48625
34.7158
34.1503
35.327
6.48038
35.5248
34.0111
23.3682
33.5015
33.2841
6.52601
34.3906
33.2944
24.4504
6.5654
34.6191
31.0108
32.026
33.9765
13.2513
6.60445
6.63085
6.35586
3.91579
34.0205
34.0058
4.9004
5.1332
6.32106
34.392
5.80028
12.8151
6.29777
1.03231
1.17827
6.40811
2.00298
6.26026
35.4188
7.14433
5.79975
8.90718
5.81669
35.0169
34.8589
35.1848
34.648
34.9949
5.08279
5.88792
34.9831
33.9258
33.846
33.7081
34.0263
34.125
33.593
34.0361
5.81592
16.1899
5.86492
9.77117
33.6298
33.3255
13.0912
16.3639
34.2627
34.4725
9.36985
35.504
34.7399
5.8023
5.79857
5.81912
9.26266
12.9799
34.0929
0.0751335
6.97043
31.3783
34.049
6.89368
34.0292
33.7064
22.3012
19.9357
9.85325
33.642
35.4249
14.7868
7.09009
0.139646
5.11918
24.2869
34.6715
13.8348
34.0804
35.4809
33.291
9.18749
34.0052
5.07749
0.231385
6.81067
7.04819
35.0671
4.48286
35.2093
33.0865
35.1038
33.9143
1.64834
26.4888
34.4941
34.4513
34.2726
5.11174
31.2055
4.59007
5.104
1.60052
5.1144
33.7095
33.6149
31.2358
9.13644
3.83809
15.3944
33.8516
34.7654
31.2103
13.1678
9.79423
34.4823
3.7565
22.4658
7.07698
3.82971
34.5603
30.8257
3.84887
5.08264
34.8748
11.4721
11.1099
9.81428
4.49248
4.0042
4.14278
31.3605
1.51339
4.14382
3.51192
33.7876
6.78224
31.5424
8.95597
4.33603
35.6044
1.07224
4.14336
4.51102
5.38725
35.2749
21.7317
14.5629
26.0665
4.17105
32.9251
1.2907
4.12382
33.8503
34.5548
16.651
15.9157
5.95286
35.1219
10.0174
16.2772
15.1316
15.0348
33.7484
35.5002
5.06389
34.4014
4.57531
16.0607
4.1319
1.25896
34.3585
12.1794
5.02809
34.0075
31.5289
3.19688
35.0926
3.21512
3.0085
34.7976
35.199
7.12154
34.1753
34.1553
35.5258
1.23127
17.1873
9.18737
35.5532
8.93376
2.20924
33.4914
2.19732
2.31174
1.3924
15.9834
34.3272
4.53228
0.920209
2.25606
2.27493
1.44419
15.6667
8.19458
34.7507
0.134754
1.57297
34.5653
2.28133
35.3391
34.7554
35.2751
35.4685
34.4261
13.163
35.1573
2.2019
10.7126
35.4364
10.3361
33.7536
1.55831
33.9996
15.5549
33.0917
8.61587
13.6832
16.278
2.37874
1.56933
8.90692
1.39517
2.421
22.9869
2.38006
5.70699
2.4393
35.436
5.09187
16.0349
2.4656
7.95961
16.0503
35.3745
31.4958
33.8643
9.01183
34.3983
29.8254
1.55319
34.3366
11.0601
33.9876
35.2939
34.4834
5.60674
9.415
2.6498
14.0023
1.29742
4.80929
4.57013
5.75419
1.81313
4.54626
4.73324
33.8387
35.0454
35.5918
7.13352
4.97566
33.5949
34.4782
30.1143
4.57633
1.86438
34.302
4.73681
34.8756
16.3514
9.05144
14.5145
34.5467
34.7888
5.64678
34.6375
11.9893
2.43708
32.9493
6.35942
7.97903
1.01199
33.8942
14.9254
31.9171
11.4669
9.17957
34.5839
35.344
2.33792
28.9252
35.1858
3.05983
1.17201
34.7363
33.8851
31.7556
4.61212
30.024
7.18539
13.207
11.2901
34.7768
31.5834
12.927
34.8048
34.8454
35.0241
34.3962
31.8729
33.2062
32.8674
33.991
33.5502
32.7272
34.361
33.0214
12.0021
33.023
31.0183
30.3071
35.4161
31.3363
34.7882
13.1854
32.3308
33.1513
13.5305
33.9801
34.7547
33.6333
13.2317
34.3457
13.1798
14.5129
11.307
32.3828
34.298
13.1755
16.3414
33.6558
35.4258
7.11086
32.1832
7.07182
32.0177
34.8861
33.2392
7.06066
7.01465
34.9453
10.2456
33.8821
32.2871
15.5121
3.68953
13.1555
35.3786
7.08738
31.9635
11.0437
34.3165
33.9244
34.1381
31.475
3.6627
4.45471
35.1719
15.624
33.9872
34.0139
33.9807
34.4225
12.4075
12.4061
4.54609
17.059
35.5267
9.09594
7.22234
3.36635
12.3959
35.4417
3.59107
12.3864
6.41044
16.4155
6.7155
33.8998
8.54203
12.582
7.14596
12.6579
13.2369
33.8884
13.3629
33.4718
34.8225
5.87695
35.1837
9.0365
35.003
33.8769
33.2228
33.9181
35.3052
12.5936
33.8609
10.4837
32.4191
34.9829
8.8007
12.1427
4.76913
10.1447
35.29
18.6815
35.1855
11.089
33.8726
8.8014
12.3655
12.5538
11.194
33.8752
33.889
33.686
3.87307
35.0076
34.0047
3.86711
33.6012
34.0216
12.5253
33.8757
6.89304
16.3319
32.3404
32.6438
32.5016
4.55717
7.60977
34.3973
0.152047
10.8379
32.0185
12.7643
35.0658
3.95605
8.93098
3.42618
34.317
9.41868
4.94312
13.1976
12.2689
10.4037
34.5951
34.7013
15.9482
34.0867
34.3169
34.9072
3.99709
12.8837
5.18859
8.14444
31.7053
9.37416
7.1679
7.69432
9.18162
9.39742
11.745
10.3176
34.4721
34.4418
34.4497
10.3683
34.9929
10.8786
28.3768
10.3354
16.0445
4.00377
1.96669
34.0459
34.9468
10.3696
10.3027
34.8389
34.5727
35.5249
4.30548
10.2944
10.6625
10.7564
1.07033
7.16937
34.0938
35.2313
34.7587
0.902503
6.89979
0.118965
7.8317
4.49107
10.8148
33.5103
34.7496
30.5605
33.6769
1.12536
9.22647
34.6643
33.8876
33.819
35.4267
35.4818
33.1502
11.1795
34.2627
13.6276
16.8718
33.9017
10.9687
0.348397
4.23002
35.1491
33.3091
11.1219
34.6241
11.1703
15.1283
4.57953
33.0447
29.3955
34.3604
34.2595
34.1097
32.9141
21.6487
33.8868
11.2336
5.17796
34.767
34.7277
11.4429
34.0785
34.7691
6.26893
16.2089
33.9631
33.9512
33.1895
2.36745
34.6495
34.681
19.7033
11.442
11.4511
34.347
33.8892
32.0147
11.4699
11.3462
11.4511
8.14985
34.2017
1.97681
0.411676
0.502555
35.2527
35.2957
34.7631
35.313
34.6519
6.26712
6.41873
5.16383
35.4861
35.0394
34.6287
34.9418
33.454
13.892
0.927208
0.211467
33.756
34.5714
35.5553
15.3627
12.9734
14.8833
34.8406
13.4019
34.1116
33.7598
34.6872
6.24457
6.92214
34.022
33.7822
8.49349
34.6988
4.59516
5.69741
22.8805
33.9946
33.6995
4.61462
13.9991
33.5414
22.5205
0.714013
9.15
34.2753
34.0649
35.4307
34.7668
1.27219
3.19347
34.0719
13.998
12.0678
17.6241
34.4045
34.0949
34.0361
34.0726
9.39188
34.3623
34.4266
33.4692
2.12254
10.578
2.61767
33.5787
35.3231
12.0739
32.9906
34.7153
34.1215
34.2678
6.65555
33.1879
34.0112
34.0477
2.60632
6.93546
34.0807
35.1392
33.8582
8.05083
33.888
33.8107
33.879
35.1961
35.0602
16.5468
9.28906
35.6781
7.37676
9.27482
6.47995
35.5
35.3818
34.5614
35.3442
34.0032
8.78626
34.4009
32.2732
32.6802
12.0849
32.8862
12.0254
34.664
34.9842
14.4347
17.8191
32.1185
12.1384
34.3834
12.1059
34.2217
33.9059
34.1426
35.8479
33.9916
13.7745
33.9946
7.77322
35.0945
31.8406
35.0818
34.0851
2.45656
11.1604
34.4236
22.7927
35.4781
12.2674
13.763
11.1219
35.5219
16.1763
11.0761
13.8596
9.43939
16.0158
11.2029
33.2766
34.1016
15.8917
3.90811
11.1175
33.8435
33.0635
30.6934
23.9922
35.5171
33.7968
35.1613
35.4108
35.5833
34.1741
11.013
14.5857
5.1972
31.4758
15.3851
35.163
8.92419
34.7696
35.559
34.6962
33.1293
14.5462
33.2102
35.4894
34.3822
7.64793
34.4498
34.9437
14.325
33.7414
29.0084
27.3746
26.7351
35.4271
27.1734
26.8007
27.0871
28.4429
34.1493
34.1496
7.57874
11.5524
31.8985
31.7904
34.2609
7.68258
34.1108
33.6065
14.424
34.1433
34.6078
12.3182
14.5834
35.4884
33.896
15.5594
31.643
33.6111
16.3812
8.26836
8.068
33.473
8.16144
35.2915
5.08618
16.1265
8.11306
34.4469
16.1577
8.14798
33.6725
15.094
33.8464
7.66621
32.7169
7.59055
33.5225
13.7738
33.9199
33.4237
35.0829
14.2634
14.3028
35.3277
8.33544
13.8486
35.6895
34.4261
6.30191
0.324138
16.5526
35.4704
8.57426
8.45415
14.4362
15.4543
35.5732
16.4891
34.0746
15.9364
34.7717
13.8512
13.3009
33.841
5.29531
33.6492
14.2749
34.4352
33.8536
34.0185
34.8186
34.0402
34.7209
11.5236
6.35971
15.8469
33.9731
30.1839
15.8152
34.0353
35.516
33.8299
35.4583
33.948
0.279801
34.4451
35.2485
34.0858
0.247552
33.9125
34.5348
32.8029
1.26319
34.689
1.24431
15.5185
11.2327
1.25724
1.2921
34.1764
34.0256
34.5047
1.32158
2.67021
33.347
30.1492
1.33971
34.913
35.3012
15.8049
33.8419
8.42169
33.9826
1.30367
14.238
34.0152
34.1286
33.993
35.1768
34.897
14.3326
34.0128
1.35839
33.8702
34.3093
3.0195
35.1089
8.94567
33.3477
34.9368
11.6807
5.2987
15.9892
35.1674
35.1994
34.5375
5.27963
15.4418
33.8357
34.5266
33.0553
3.30138
33.9877
9.01398
15.9338
34.2815
34.1092
3.34992
34.743
32.9918
34.6891
33.6748
34.8887
15.896
29.9402
33.6816
35.0729
30.2943
34.1322
30.7502
33.7443
33.9275
33.569
5.31692
33.6754
3.25558
33.4059
34.0567
16.9768
3.29888
33.9797
33.73
34.0818
3.20093
31.4324
34.4101
33.3428
34.0592
3.60196
33.9776
16.0766
35.5291
10.8652
31.8288
13.0407
33.7986
34.8716
10.3304
31.0432
33.9868
2.64832
10.6458
35.4306
35.1639
11.6475
13.2988
3.24771
3.25791
3.30015
11.6712
3.2206
13.5467
33.8011
16.0838
30.389
30.1751
34.3533
33.6752
34.8387
3.19458
35.4548
35.5652
35.3969
15.156
13.4566
29.7453
12.2285
35.2507
12.5121
33.5525
14.582
3.49039
30.5251
10.6667
33.7261
33.7822
34.4393
3.57999
10.928
34.525
34.799
3.61368
35.1606
16.3789
34.8562
15.5385
34.7031
34.4343
35.3222
34.4117
2.87449
34.4067
17.854
35.0925
11.2207
34.3541
34.1458
26.4679
25.8427
34.1196
34.191
34.7596
35.2732
10.6297
16.3056
28.2792
35.1089
10.8883
34.2397
34.9994
16.2659
8.25164
15.1355
34.4633
1.98757
11.6094
5.6415
8.77226
34.7973
35.58
35.5888
35.2141
34.4944
34.4154
34.4131
33.7274
34.4641
34.4142
34.6462
34.3763
15.4917
34.4384
34.0769
35.1309
35.216
34.3704
22.9848
34.2053
34.2021
8.78589
16.0543
33.7672
35.4959
34.6188
7.67483
35.4738
34.7229
15.9507
34.7524
34.0138
34.8976
35.0754
14.527
34.6385
16.4858
35.091
34.882
34.2302
34.3838
34.1322
15.9966
16.0376
4.24739
35.2405
33.4917
35.377
16.0779
33.9927
16.017
16.1252
34.7173
33.6824
29.7463
16.0865
33.8165
32.0118
16.0883
29.9757
11.9275
35.084
13.7511
29.8939
28.7024
34.6571
10.524
34.7879
10.5811
14.5112
33.8945
10.6122
16.0189
34.7163
14.5816
34.0036
33.8915
34.0369
33.8454
33.5481
34.3399
33.9877
35.4394
16.0241
32.2036
34.4602
34.8808
33.9092
33.8168
7.73447
25.5802
16.2436
16.7294
34.0168
10.0367
10.0388
34.5453
32.0073
33.6622
33.6941
33.7739
33.8303
30.7777
32.2444
12.5216
34.2938
35.4792
29.6741
30.7509
34.5298
10.4718
33.5968
33.7969
35.1839
15.2976
35.4077
34.2245
11.7915
34.6637
35.3832
33.5677
35.6424
11.8745
34.3318
34.2562
34.1555
33.7246
12.5909
15.2996
15.2786
10.4981
13.3107
13.3385
34.8059
31.0499
16.5725
13.0025
31.0293
16.5656
35.0909
15.093
33.7558
15.3172
34.4739
33.8588
13.3693
14.4064
33.8913
12.9711
34.4351
34.8051
15.3256
14.5935
35.2316
34.334
33.8413
34.4747
34.1192
31.2834
35.2508
34.7868
12.9184
35.2703
34.6758
34.3795
13.4116
34.0329
31.3557
34.5959
34.3833
32.6777
31.7458
13.4074
33.7811
31.8191
7.87282
35.1724
12.9545
12.8588
34.1173
8.14906
34.7177
33.0586
35.1004
31.6185
35.1279
35.4616
35.5965
35.5202
8.03091
35.3209
34.9617
35.3158
33.5622
34.4307
33.6331
15.532
34.665
35.1269
14.564
34.5336
34.526
35.5084
7.95548
34.2757
15.1124
31.3553
16.3733
0.974085
34.4584
31.0447
7.79697
30.4846
34.4394
16.2268
16.1118
0.0626206
14.0187
16.6997
14.9499
35.2695
33.6957
9.804
15.6402
15.1766
9.51343
16.4206
35.0466
1.77666
9.77184
9.75563
35.5237
9.7298
1.5084
5.60697
9.24564
15.5953
10.1228
2.13793
9.06098
0.309273
4.1643
9.28109
31.3804
0.412707
0.0684973
10.5099
12.2414
0.533531
9.25554
0.357706
31.7118
15.8828
31.5993
4.97991
9.82485
12.4368
7.37283
31.5836
34.4968
9.08398
7.44442
15.6536
15.2849
2.55766
9.84024
27.1629
9.87046
34.6631
17.2679
15.7543
13.976
5.66429
15.8081
16.045
11.3027
6.97118
7.03292
5.10031
9.88367
0.55633
29.937
28.2864
9.92492
34.0883
34.6458
9.3746
9.5239
0.807412
34.1799
14.1678
14.612
6.7999
28.6691
34.6591
15.7264
0.218056
15.7652
35.5834
2.49205
34.8972
7.32858
11.1664
13.5665
13.7086
34.145
34.7146
14.8357
9.54543
9.55804
34.7245
7.69235
9.55744
12.2595
34.7471
6.93058
0.589149
31.5307
5.66004
14.6244
15.0411
33.5847
14.4147
16.8497
34.7061
11.8212
1.09148
20.4645
11.9917
12.0092
2.19396
10.485
12.1394
0.794507
15.6925
15.1988
11.3986
1.9636
10.1396
16.1375
7.4043
12.0862
4.17845
9.3099
16.1667
2.26616
34.7965
12.0155
11.9692
15.4154
2.99781
13.9237
33.7116
11.9547
5.62984
34.832
14.139
0.232291
12.0405
11.5421
1.44343
0.186682
10.3426
11.6216
14.3024
34.8254
34.6257
14.3846
35.3124
14.4221
14.0729
33.2275
1.47108
12.3198
7.62741
35.3136
5.63093
6.41997
14.1476
15.7699
6.31715
2.74481
7.79792
12.9942
34.6486
33.8792
15.4686
12.9527
14.0799
8.1587
33.8786
13.0501
11.224
33.2064
7.73115
9.89681
0.576479
16.5371
13.4049
11.1986
2.34603
8.62093
35.3171
12.045
6.17503
11.4503
16.4914
33.8914
13.5224
33.8885
34.5075
6.49087
11.1477
7.07717
17.4513
14.5966
20.4031
34.5732
11.1455
11.274
7.25767
7.19164
34.0053
35.5242
35.4727
7.2327
7.21648
16.4484
5.5655
33.0237
33.9313
7.2007
8.01786
13.7988
7.20153
7.17619
8.6313
13.322
26.2071
34.1498
10.9709
0.82116
33.9177
10.3351
8.56899
16.9335
10.9504
8.57236
14.3091
33.9233
7.40519
8.89831
35.2635
33.0754
0.527919
0.980177
3.04344
1.27765
8.60191
8.68123
2.15757
5.57921
7.96105
1.24269
33.8663
33.8079
0.056779
1.43221
8.56209
16.355
8.3124
8.18066
11.3633
7.00297
8.28463
34.315
35.2694
16.2662
33.8287
31.3129
8.98381
5.71005
8.79465
15.9305
32.2511
13.5483
16.4122
32.5927
16.4141
16.304
8.25357
8.32334
0.579312
9.60558
15.6453
1.40477
34.5644
32.4786
15.0051
2.72381
7.19072
2.81207
14.0938
12.8606
15.4785
32.545
8.81993
1.92997
7.65998
16.3697
13.5031
15.1524
16.3088
8.83057
2.03086
32.3093
12.418
8.4778
23.0835
31.5281
30.3934
7.66289
31.2039
0.44868
7.62332
7.15729
9.61591
14.698
27.6101
23.5663
34.0238
30.9575
14.3424
34.4353
34.438
14.9416
34.5948
5.58903
7.42662
6.84121
5.23475
5.54646
9.83292
30.2564
2.69305
1.19485
12.7106
9.31453
5.2283
8.76728
34.5254
16.3518
5.10737
11.4013
34.4493
11.7395
9.14557
34.4293
34.0223
14.051
5.04422
35.0396
10.3325
9.31376
14.1109
35.0954
34.4087
0.847873
16.1673
9.72078
34.4763
35.1389
34.4287
11.1826
22.5673
22.1234
3.53368
16.0785
35.5185
3.52187
16.0975
7.90708
0.922002
0.89455
3.79601
16.3847
1.00757
35.5985
4.01567
2.09024
0.33299
6.35799
1.50277
1.46452
1.56304
1.63999
0.416417
14.5894
16.4996
8.68432
14.2946
15.7272
16.263
1.59935
16.4763
1.61638
0.396424
4.63557
2.83086
14.1088
2.80464
16.5898
3.27438
32.9398
8.86711
25.1527
6.57164
9.83966
35.2666
12.0744
32.9626
10.2889
33.0337
33.6127
6.79456
12.3407
31.5644
2.73057
7.1989
12.3231
33.9414
35.1868
14.4021
3.95831
16.1776
6.50615
2.21164
12.0321
15.3298
11.4751
12.1219
30.5218
8.79263
34.5691
33.7973
4.93192
3.56726
16.0351
4.72642
3.1553
12.1022
12.5271
33.472
15.4462
3.08371
11.9576
33.4586
35.3892
8.8206
10.3193
29.8212
13.9928
0.314239
10.5992
0.584825
2.57373
6.60113
34.0373
26.6729
5.25425
15.0481
35.6345
4.94205
14.0094
11.1076
17.0998
5.25291
17.0033
8.8171
14.5411
27.4656
14.8601
34.3206
10.1796
12.2611
2.45665
0.140225
31.0592
0.208407
15.0793
11.6453
14.6198
32.4698
34.4174
5.53863
14.897
11.6587
10.0668
13.9161
4.00965
0.789061
7.60919
0.898359
0.622285
14.0578
31.9774
16.0616
11.4958
0.0642199
13.7102
32.351
34.0737
12.8573
15.8925
34.2705
15.8805
12.7517
32.3944
27.8005
28.3654
12.5046
5.14299
17.5739
29.1397
13.9773
5.85353
32.9004
1.67131
31.2623
11.0883
4.02551
35.0289
1.10395
13.8022
13.7923
3.57932
34.2487
16.2448
13.19
14.6935
13.7926
14.3369
14.6457
12.5796
16.5404
12.9709
2.08964
5.23561
33.9015
30.7864
30.5876
33.2086
11.8589
6.07104
5.33278
13.7773
3.08494
5.37052
10.6016
12.3499
11.8297
3.89241
12.705
13.7656
11.1762
2.87754
34.4071
13.7001
13.6637
12.0747
12.7807
32.9269
7.16262
7.30757
9.96312
10.0232
8.02778
33.6764
7.95724
7.97625
31.304
8.0905
11.3916
33.2199
8.07598
33.1424
35.5108
7.1508
12.3301
11.4558
7.94811
34.0225
1.29508
12.739
35.5017
6.4947
8.25503
6.79546
11.707
33.2206
12.4062
12.3551
10.8414
33.4832
5.70085
2.17655
11.0784
4.90721
6.16665
35.3195
33.1167
32.1003
0.453219
32.4269
5.55672
4.62329
1.53704
33.8172
1.71379
33.3386
34.409
33.6473
6.79394
0.168248
16.2869
11.0818
5.97013
32.5443
31.2692
13.9366
13.7069
4.57903
15.6142
5.98765
16.0917
34.3723
28.9581
29.2404
34.2893
29.3646
0.263618
34.6249
5.56132
10.4979
5.99386
1.18976
7.15209
30.5606
4.73621
10.5156
12.2404
14.4298
30.664
34.284
12.6453
4.70744
16.5825
16.1416
15.5503
16.0722
16.34
16.3835
3.54514
0.811872
3.56439
15.5321
3.49361
10.5617
11.3658
2.38352
3.49592
15.5013
16.081
16.0895
15.2403
14.664
2.45929
14.5551
35.4524
15.0531
13.2731
1.33788
0.823932
0.304862
10.576
7.96913
12.9049
0.870207
15.9377
34.0434
5.59671
7.66587
8.64893
33.9946
6.4567
3.59521
0.927408
7.85445
35.4868
33.9004
11.4895
2.25803
2.13952
0.449626
33.4224
34.8381
34.8462
8.63986
10.3464
2.00329
34.806
5.72577
33.8751
33.8641
0.901619
0.644483
33.8227
2.02936
2.08941
0.375803
35.4681
35.1405
3.71387
10.584
33.8799
1.82746
1.7184
1.55956
33.9133
33.9113
33.8854
1.5874
1.82602
13.8614
1.70739
35.3626
1.54663
9.97226
13.9982
12.8276
33.1045
34.2556
1.57042
14.7648
14.3788
7.32257
33.1385
16.2918
34.5433
2.49368
15.6537
10.0515
33.2666
31.8618
14.9343
15.4603
31.5605
31.6615
34.6041
6.58039
32.7689
30.9454
10.4277
10.2092
34.5897
31.3009
8.89402
1.66711
1.63577
6.81996
5.73734
31.5506
10.5823
30.3445
30.017
33.4947
7.20245
11.7479
1.65342
30.1292
34.5032
10.2059
15.5401
10.8226
11.8556
9.35536
8.13386
9.23108
1.73214
29.8763
10.023
7.42103
1.71814
6.71973
11.7457
26.3201
6.62939
6.65632
6.61949
6.62318
2.29149
29.4687
32.3285
7.70656
32.3954
32.609
9.30047
32.4608
5.54096
32.0956
32.3008
33.4455
31.5626
7.36601
2.42466
7.40939
31.9644
3.54356
7.01799
9.90189
32.2483
34.794
7.38664
7.82081
16.0649
7.39905
31.6156
0.09059
1.64206
1.28963
34.0412
33.5174
4.3871
3.71149
33.599
32.3666
13.5852
0.121225
31.9858
14.9383
13.5343
13.5707
8.14713
32.2092
9.25913
19.3798
0.872212
0.344462
13.6393
13.4473
12.4764
5.20497
9.4934
31.7192
10.5865
9.462
15.9464
14.6256
13.578
32.1493
6.5113
9.65661
5.45607
8.26248
9.54157
15.5828
0.899553
14.3452
12.6375
13.6266
3.86826
13.7018
14.3639
9.40569
11.5367
33.7747
16.0785
35.5731
9.32258
9.72158
13.7009
14.3508
13.2488
9.5149
9.55769
15.1389
7.36218
2.48482
33.893
29.4459
14.3553
14.2836
11.2189
14.3861
15.9133
14.8899
15.9065
16.0249
29.9765
2.43864
16.0983
13.9971
30.2856
0.251333
29.3326
7.22973
9.46677
16.3469
6.48938
35.4773
9.15764
15.7695
0.581616
34.4742
15.8487
2.11026
12.3985
15.7785
15.8322
29.6952
34.3871
6.70186
9.991
5.27907
9.97639
8.97101
10.1338
16.1105
31.0646
0.369939
30.5674
10.1071
2.42148
10.7251
35.0481
28.4817
14.8893
10.0934
7.30282
10.861
34.4401
10.7667
10.8822
0.433445
10.8615
23.1113
20.1128
10.81
34.3487
34.1063
6.47649
22.8671
14.7165
35.1744
4.84621
33.4166
15.2856
35.1954
3.03979
14.1887
16.1504
10.8012
11.3628
9.77142
13.5863
16.1689
0.908033
16.2158
6.0413
16.1167
33.0529
3.50926
33.9719
11.3995
11.5597
9.10761
8.0483
11.3268
0.470496
7.13321
11.2477
11.0095
16.5791
13.3274
14.939
33.7237
11.2297
2.55306
15.5436
2.39525
11.3027
15.4556
3.53297
15.7417
10.0941
15.684
10.1701
6.1535
11.451
9.20001
34.1009
34.0373
9.72309
9.93911
12.4849
34.6363
14.9881
0.745448
9.48019
7.17165
4.53476
7.54819
6.42625
9.92198
0.0356772
5.66047
13.2243
4.75945
8.59848
7.70541
7.06267
13.2167
11.3075
4.71795
16.7636
10.5954
16.2735
4.14678
11.9587
15.8168
5.34669
0.327333
7.56
9.90847
4.26657
3.52823
33.7175
11.7828
16.1206
16.2389
22.6606
11.7893
30.4171
6.53331
11.7648
1.67701
12.6115
33.8512
11.4987
13.2463
-0.0190417
11.9804
15.4572
13.1589
34.4261
7.79224
1.08869
12.7345
16.2257
16.1866
33.6969
34.5059
18.8495
32.1252
13.223
34.1179
16.501
18.6844
32.018
32.1524
0.941551
32.4366
34.6312
13.1784
7.51027
35.2774
8.97498
6.8057
9.35019
13.9576
34.6374
15.0982
13.3378
12.652
17.5315
34.6605
15.9494
12.9172
14.4672
34.3987
7.66766
12.839
33.8155
6.70617
34.4355
33.6441
15.8687
12.7108
34.8237
16.1664
15.7812
15.9931
15.6951
10.9671
15.407
15.316
11.5248
13.191
35.4574
6.13992
2.18773
4.67016
0.672902
15.6427
2.07462
6.62693
34.839
34.0783
10.1921
15.6361
13.1252
6.23087
13.1499
7.06461
0.716713
34.5659
0.0471072
15.4346
1.77817
13.1313
4.17565
34.8359
15.1318
11.5416
15.0672
18.148
34.7984
5.82271
35.4168
2.36441
35.3753
13.1119
15.0363
12.4967
9.57703
11.4293
0.609918
12.4159
34.8496
13.1505
13.1671
33.8366
33.8459
0.874055
11.3205
34.8336
0.026699
33.8478