/*--------------------------------*- C++ -*----------------------------------*\
  =========                 |
  \\      /  F ield         | OpenFOAM: The Open Source CFD Toolbox
   \\    /   O peration     | Website:  https://openfoam.org
    \\  /    A nd           | Version:  10
     \\/     M anipulation  |
\*---------------------------------------------------------------------------*/
FoamFile
{
    format      ascii;
    class       surfaceScalarField;
    location    "2.5";
    object      phi;
}
// * * * * * * * * * * * * * * * * * * * * * * * * * * * * * * * * * * * * * //

dimensions      [0 3 -1 0 0 0 0];

internalField   nonuniform List<scalar> 
214403
(
-0.00489127
0.00374977
0.000207441
0.000934063
-0.00231196
-0.00782749
0.000623505
0.00951595
-0.00725099
3.84124e-05
-9.33758e-05
0.00730596
0.00643705
-0.00432048
-0.010792
0.00867539
0.00861622
-0.0108749
0.00256694
-0.00030825
-0.00375625
0.00391452
-4.1579e-05
-0.000116693
-0.000602664
-0.00115974
-0.0064674
0.00822981
-0.0117146
0.00668989
-0.00175674
0.00678144
-0.0165426
0.0116439
0.0117997
-0.00690091
0.00990247
0.00118521
-0.0111308
4.31043e-05
0.00357133
-0.00706457
0.00147256
0.00202069
-0.00722528
0.00224372
0.00376353
0.00121803
0.000334831
-0.00819543
0.0098926
-0.002032
-0.00701781
0.00702159
-3.77795e-06
0.00136276
0.0083886
-0.010774
0.00102264
-0.00831014
0.00691198
0.00208999
-0.000691829
-0.00845495
0.00823336
0.000221587
0.00278944
-3.01864e-05
-0.000677461
-0.00208179
0.0109254
-0.00652705
-0.0145558
0.0101574
-5.53396e-05
-0.00225296
6.61195e-05
0.00224218
0.00463941
-0.00452818
-0.000111234
-0.00862316
-0.00298253
0.00296502
0.00864067
-0.00160914
0.00956145
-0.00769609
-0.000256214
0.00467076
0.000466325
0.00161275
-0.00674983
-0.00717923
-0.00348615
0.00929487
0.00137051
0.00667991
-0.00845546
5.22722e-05
0.00172327
0.00224736
-0.00194464
0.00739648
-0.00769921
0.00548158
0.00714723
-0.00862205
-0.00400677
0.00781025
-0.00488612
-0.000226501
-0.00269763
-0.00425409
0.00433778
-8.36909e-05
0.00169738
-0.00357031
0.00960187
-0.00772894
0.00970243
0.000467133
-0.00167747
-0.0084921
-0.0040786
-0.00418558
0.00428553
0.00397864
-0.000835907
-0.00472502
0.0041813
0.00137963
0.00308414
-0.00203627
-0.00665807
0.00561019
-0.00119198
0.00596066
-0.00215335
-0.00261533
0.0113675
-0.000306992
-0.0110605
-0.00480895
0.00945371
-0.00464477
0.000868364
-0.0104436
0.00606824
0.00350699
0.00169606
-0.000683679
0.00419112
-0.00520349
0.00398794
-3.60987e-05
-0.00395184
0.00719112
-0.000160163
0.00128456
-0.00831553
-0.00902828
0.00111713
0.00960721
0.000650889
0.000627645
0.00613147
-0.00741
-0.00294678
-0.0191224
0.0185702
0.00349901
0.00415238
0.000754324
0.000937356
-0.00584406
0.0029734
0.00226222
-0.00729175
0.00205613
0.00926184
0.00552518
-0.0101163
0.00084581
0.00796531
-0.00162
0.00132805
-0.00495114
-0.0029243
0.00654739
0.0022582
0.00346815
0.00102772
-0.00675407
0.00130451
-0.000981343
-0.00299271
0.00266954
0.00498808
-0.00902518
0.0062953
0.00840933
-0.00792998
-0.00268826
0.0022089
0.00772853
-0.00141241
-0.00594254
0.00805365
-0.000323013
-0.0017881
0.00613736
-0.00787433
0.000106607
0.00163036
-0.0057947
0.000385743
0.00925754
-0.00384858
-0.0108392
-0.0103514
0.00861201
0.0125786
-0.00571396
0.00574489
0.00112127
-0.0011522
0.000890004
-0.00728765
-0.00622293
-0.000128516
0.00323343
0.00311802
-0.00968563
0.00416034
0.00622784
-0.000702552
0.011147
-0.00898433
0.000550571
-0.00271319
0.000508814
0.000195892
-0.00723748
0.00653277
0.00042119
-0.00214348
0.0105559
-0.00883361
-0.0251451
0.00283606
0.00276803
0.019541
-0.00220303
0.00658261
-0.00209077
-0.0022888
0.00342185
-0.00179559
-0.00736484
0.00573858
0.000829528
0.00543133
-0.00685224
0.000591375
-9.48088e-05
0.00606866
0.00208084
-0.0080547
-0.00124771
-0.000201986
-0.00267087
0.00412057
-0.00652628
0.00713094
-0.000267264
-0.000337393
0.000258477
-0.00652225
-0.00461509
0.00409135
0.00124118
-0.000717432
-0.011641
-0.000737432
0.00566204
0.00671642
-0.00357958
-0.00152268
0.00303996
0.0020623
0.00529005
-0.0177444
0.0024263
0.010028
-0.00275159
0.00553081
-0.00302096
0.000241744
0.00391602
-0.00305054
0.000387934
-0.00125341
9.90247e-05
-0.0075387
0.00743967
3.10169e-05
0.00606174
-0.00609276
0.0053069
-0.00104013
0.000695931
-0.00496269
-0.00329877
0.00470843
0.0015603
-0.00296996
-0.00229585
0.00985922
-0.00237187
-0.0051915
0.00472528
-0.00812775
-0.000267095
0.00366956
0.00523173
0.00550413
-0.0107359
0.00768984
-0.00865263
0.00223333
-0.00127054
0.000737565
-0.00138639
0.0100924
-0.00944362
0.000318503
-0.00161743
0.00721206
-0.00591313
0.00179448
0.0152076
0.00432487
-0.021327
-0.0131234
0.0115339
0.00749392
-0.00590441
0.00062472
0.00482704
-0.00646385
0.00101209
0.00629195
0.00696971
-0.00226582
-0.0109958
0.0114201
-0.00696188
-0.000193169
-0.00426507
0.00051267
-0.00150711
-0.00473542
0.00572985
-0.00478674
2.48839e-05
0.00476185
0.00698461
0.000232351
0.000472878
0.00874403
0.00074629
-0.0133531
0.00386279
-0.00708281
0.00152985
0.00124802
0.00430495
-0.00452353
0.00112272
0.000556415
0.0028444
0.00104998
0.000775166
-0.00911379
0.00728865
-0.00186157
-0.0108213
0.0069005
0.00578242
0.00437031
-0.00517936
-0.00337438
0.00418343
0.00699262
-4.01465e-05
-0.00699281
4.0332e-05
0.00536688
-0.00757866
-0.0026039
0.00481568
0.0138946
-0.00420941
-0.00216579
-0.00751943
0.00774228
-1.48226e-05
-0.00710058
-0.000626875
-0.00420887
0.00493747
0.010217
-0.0109456
0.00869122
-0.00301419
-0.00836699
0.00268997
0.001644
-0.00240709
0.0104467
-0.00968357
-0.0111514
0.0101344
0.00964689
-0.00862986
0.000531559
-0.00911644
0.00351112
0.00507376
0.0114743
-0.000593161
-0.000272006
-0.0106092
0.00801323
-0.00155363
0.00155005
-0.00800965
-0.00997727
-0.00911931
0.0107834
0.00831317
-0.00176502
0.00506145
0.00137549
-0.00467192
-0.00382797
0.000208866
0.00741907
-0.00379997
-0.000841365
0.009657
-0.0089612
0.000145565
-0.00862316
0.00800657
0.00155839
-0.000941797
-0.00028521
-0.00502269
0.0119878
0.00154253
-0.00511193
-0.00376222
0.00733162
-0.00405045
5.20499e-05
0.0039984
0.00124298
0.00564914
-0.00522687
-0.00166524
0.00917653
-0.00529405
-0.00141937
-0.00246311
0.000102238
-0.00281427
0.00271203
-0.00510376
-0.00138224
0.00193205
0.00455395
0.000578761
0.00321252
-0.00715965
0.00336837
0.0114645
-0.00103646
0.00447511
-0.0149032
0.000799086
-0.00106339
-0.0135474
0.0138117
0.000852493
-0.00390703
-0.00510053
0.00815507
0.000315625
0.00704128
-0.000372291
2.663e-05
-0.00424253
0.0042159
0.0085221
-0.00317789
-0.00380168
-0.00515736
0.00429676
-0.00424315
0.00930718
-0.00776003
-0.000955064
-0.000592084
0.000939145
-0.00443401
0.00194031
0.00155456
-0.00751729
-0.00229895
0.00154541
0.00827083
0.00634255
-0.0102509
0.00678928
-0.00288092
-0.000251809
0.00940315
-0.00940602
0.000254679
4.39086e-06
0.00930876
-0.00923279
-8.03626e-05
-0.0117481
0.00940374
-0.00755476
0.00989914
0.00981695
-0.009529
-0.000287953
-0.00937794
0.0125088
-0.00223667
-0.000894226
-0.00824419
0.00200729
-0.000637869
0.00687477
-0.0134592
0.00101192
0.00866678
0.00378047
0.00237298
-0.00324193
0.00180809
-0.00340056
0.00386257
0.00621815
-0.00668015
-0.00355091
-0.00159579
0.00203229
0.00311441
-0.00481964
0.00316054
-0.00605409
0.00771319
0.00145418
0.000124742
-0.0109569
-0.00492049
0.0049093
1.11867e-05
0.00550318
-0.00530679
-0.000196393
-0.00794151
-0.000517444
-0.00209978
0.00195626
-0.0104978
0.0121879
-0.00364634
0.00465214
0.00793356
-0.0101214
-0.00246433
0.00883024
-0.00961663
0.000283849
0.000502539
0.00495261
0.00126418
-0.0051014
-0.00111539
-0.00759445
-0.000400816
0.00995153
0.00446335
-0.000321415
-0.00544022
0.00129829
0.00502932
-0.00430069
0.00495644
-0.00568507
-0.00840179
0.00160075
0.0114532
-0.0029152
-0.00397579
0.013285
-0.00639397
-0.00413124
-0.00454553
0.00108232
0.00121095
0.0032797
-0.0086219
-0.00608599
-0.000488774
0.00978219
-0.00320742
0.000901211
0.00150455
0.00518979
-0.00759556
-0.00274208
0.00670885
-0.00396677
0.00216232
-0.0105769
0.00386903
0.00627229
0.00441467
-0.00947601
-0.00878343
0.000109496
0.0109392
-0.00226529
0.00153764
0.00132123
0.0041294
-0.00698827
0.00651862
-0.00654113
2.25106e-05
0.00222419
-0.000841342
0.00746092
-0.00884376
0.00775561
-0.0024429
0.0037163
-0.00902901
0.0148903
-0.00480849
0.0110959
-0.0211778
0.00235264
0.00435955
-0.00181453
-0.00489766
-0.00673439
0.00276873
0.0035289
0.000436762
0.00482739
-0.00363709
-0.000103751
-0.00108655
-0.00302742
-0.00381301
0.0111307
-0.00429024
-0.00540397
0.00703683
0.00279125
-0.0044241
0.00815851
-0.000443804
-0.00268539
-0.0121825
0.00804061
-0.000677765
-0.0116494
0.0107743
0.00500413
-0.00412903
0.00743615
-0.00838556
-0.0011951
0.00214451
0.00414153
-0.0075368
-0.00391148
-0.00441945
-0.00406303
0.00228914
0.00619333
-0.00636057
0.00200043
0.00631504
-0.00195491
0.0074564
-0.00709195
-0.00490083
0.00453638
4.86869e-05
-6.43492e-05
-0.00694611
0.00696177
0.000200208
-0.00633586
-0.000220677
0.00635633
-0.00175005
-0.0103883
0.00164166
-0.00602307
0.00541046
-0.00102905
-0.00405195
-0.00170475
-0.000603878
-8.08945e-05
0.00989264
9.07268e-05
-0.0239286
0.0168376
0.0122058
-0.00511477
-0.0071847
0.000492105
0.000241247
0.00645135
-0.00142671
0.0224742
-0.0264717
0.00542426
0.00114604
0.00177171
-0.00397246
0.00105471
-0.0154134
0.00830123
0.00110799
0.00600418
-0.000165278
-0.0101258
-0.00147562
0.0117667
-0.0040948
0.0151988
-0.0105592
-0.000544887
0.00684899
0.00992709
-0.00919223
-0.00758385
-0.0079933
0.00762449
0.00944566
-0.00907686
0.00322847
0.00450721
-0.0056169
-0.00211878
0.00319809
-0.00213078
-0.00511925
-0.0160957
-0.000620307
0.0131089
0.00360708
0.00483364
0.000760017
-0.00282493
0.00488456
0.00657898
-0.00605938
-0.00540416
-0.00805217
0.00179698
0.0078365
-0.00158131
0.000937656
0.00261161
0.00895957
-0.00955341
0.00938359
0.000905034
-0.000735205
0.00591277
0.00465296
-0.00418444
-0.000163
-0.0011813
0.00552873
-0.00625089
-0.00130209
0.003467
-0.0118504
0.00502175
0.00336166
0.000337899
0.00641696
-0.00709314
0.000338284
-0.00244472
0.000474391
-0.00227333
0.00424366
0.0100743
-0.00720729
0.000331102
-0.00572086
-0.00449762
0.00605097
0.00416751
0.0211096
-0.0226598
0.00747298
-0.00592278
-0.00419429
0.00521107
0.00209716
-0.00311394
-0.0101867
0.00438858
0.00885429
-0.00305621
-0.00405493
0.00588077
0.00756384
-0.00938968
0.0113046
-0.00432411
-0.00749596
0.000515461
0.000195723
-0.00273093
0.0066345
-0.00409929
-0.00115153
0.00113193
-0.00876383
0.00819276
0.00262474
-0.00877615
-0.00204136
0.0103344
-0.00847812
-0.00225705
0.00211675
0.00311823
-0.00742091
0.00218593
-0.00434509
-0.00787559
0.0070401
0.00518058
-0.0013058
-0.00340512
-0.00100995
0.00414883
-0.00440422
0.00949005
-0.00923466
0.0010096
-0.0113751
0.0103655
0.00389904
-0.00512455
0.00334226
0.00220435
0.00128584
0.00180361
-0.0052938
-0.000240464
-0.0097671
0.0100076
-0.00544193
0.000723485
-0.00176717
0.00648561
-0.000694855
0.00768378
-0.00696162
-2.73065e-05
-0.00509846
-0.00274872
0.00297623
0.00487095
-0.0018672
-0.00453706
-0.0041534
-0.00610899
0.0051011
0.0051613
0.000237078
-0.00625768
0.0105357
-0.00432916
-0.000562021
-0.0056445
0.00586581
-0.000599779
-0.00427044
-0.000995592
-0.000855069
0.00787583
-0.00986986
0.0028491
0.00508031
0.000196321
0.00247182
-0.00774845
-0.000191353
-0.00417869
0.00202098
0.00234906
-0.00294734
0.00381903
0.00731914
-0.00819083
-0.0101418
-0.00265341
-0.00286448
0.00941692
-0.00950145
0.000249012
0.00295957
0.00629287
0.000874044
-0.00319305
-0.00556076
0.00787976
-0.00417508
-0.00815201
0.00205755
0.0102695
-0.00369239
-0.00408179
0.00424834
0.00352583
-0.00956473
0.0092094
0.00974333
-0.009388
-0.00132799
-0.00232888
-0.00703508
0.010692
-0.00964961
0.000939776
0.00980598
-0.00109615
-0.0016876
0.00444138
-0.00275378
-0.00389901
0.00720855
-0.00542598
0.00211644
-0.000143995
0.0125221
-0.00469871
-0.00767939
-0.0045924
-0.00227155
0.00921214
-0.00234819
0.00143074
-0.00375705
0.00848784
-0.00616153
0.000407491
0.0057682
-0.00101041
6.93904e-06
-0.00911333
0.00910905
-2.65718e-06
0.0107978
-0.0019174
-0.0157845
0.00690415
-0.00997543
-0.000974139
0.0124522
-0.00150259
-0.00540625
0.00817277
0.000667486
-0.003434
0.00496063
-0.00492943
-3.12019e-05
-0.00561027
0.000569083
-0.00478603
0.00982721
-0.00809386
0.0111616
-0.00227209
-0.000795702
0.0050265
-0.00209106
-0.00606733
0.00313189
-0.00965496
0.00970601
-5.10516e-05
0.00803695
-0.011667
0.000931513
0.00269857
-0.00887616
-0.00244575
0.0152284
-0.00390647
0.00676682
-0.000298245
-0.00140767
-0.00506091
-0.00380433
-0.00644793
0.0144011
-0.000661612
-0.00944056
0.00569795
0.0149067
-0.0166308
-0.00157982
0.00330387
0.00413854
0.001978
-0.00457889
-0.00454255
0.00471173
-0.000169177
-0.00167867
0.00942873
-0.000617809
-0.00713225
-0.00207738
0.00246613
0.00830936
-0.0086981
0.0055969
0.0131942
-0.00763487
-0.0111563
0.00964605
-0.0115643
0.0036768
-0.00175853
0.00836242
8.09378e-05
-0.00844336
0.000137125
0.00815489
-0.00829202
0.00934265
-0.0112823
0.00997658
8.30271e-05
-6.11083e-05
0.00774301
-0.00776493
0.000134266
0.0134006
-0.0133479
-0.000186986
-0.00110239
-0.00328976
-0.00672524
0.0111174
-0.00417847
-0.00246206
0.000826668
0.00789597
-0.0136941
0.00497149
-0.00655156
-0.00171693
0.00702294
0.00124555
-0.00812695
0.00895821
-0.00239049
0.00155923
0.00122177
0.00635277
-0.00216216
-0.00541239
-0.00298759
0.000695716
0.00516482
-0.00287294
-8.84588e-06
0.00242049
-0.00307819
0.000666553
-0.00334136
0.00818448
-0.00474424
-9.88825e-05
0.00238817
-0.0076215
-0.00442162
6.43132e-05
-0.00710155
0.00703724
-0.00273742
-0.00262459
0.00121594
0.00414608
0.00396593
-0.00228768
-0.00167825
0.00981418
-0.00978746
-0.0019624
0.00193568
-0.000938309
-0.00607164
0.0056245
0.00138545
-2.69194e-05
3.29233e-05
0.00552209
-0.0055281
0.0027552
-0.00227083
-0.00876374
0.00827937
0.00636737
-0.000168055
-0.00619931
-0.00929817
-0.00604191
0.00897106
0.00636903
0.00526859
0.00819007
-0.0141203
0.00514389
-0.00183175
0.00289305
-0.00620519
-0.00210049
0.00209893
-0.0116906
0.0116922
0.00308186
-0.00609961
-0.00591677
0.00893451
-0.000638927
-0.00141958
0.00664471
-0.0045862
0.00462391
-0.00568064
0.00205934
-0.00100261
0.00262749
-0.00435884
-0.00421123
0.00594259
-0.00813828
0.0091519
-0.00240316
0.00138954
0.00955361
0.0122716
-0.0135206
-0.00830467
-0.00740924
0.00738298
2.62674e-05
-0.000869091
0.00863111
-0.0107441
0.00298204
0.000304482
-0.000499078
-0.00844103
0.00863562
0.0080227
0.000336424
-0.00923058
0.000871456
-0.00356148
-0.00601425
0.00756442
0.00201131
-0.00859557
0.0121694
-0.00430982
0.000736028
-0.00340945
-0.00420107
0.00249859
-0.00048327
-0.000100191
-0.00579211
0.00637557
-0.0190878
9.36285e-05
0.00165202
0.0173421
0.0007606
-0.00487858
-0.0025256
0.00664359
0.0119157
-0.000993855
-0.00386636
-0.00705547
-0.00210799
-0.00462968
0.000865378
0.00587229
0.00349558
-8.04253e-06
-0.00348754
0.00572253
0.00300006
-0.00190952
-0.00681307
0.00436349
-0.00344693
0.00854293
-0.0094595
0.000258708
0.00895711
-0.00294982
-0.006266
0.00213959
0.00309962
0.00667647
-0.00428297
0.000319133
0.00396384
-0.00559973
0.000808041
0.00147964
0.000933991
-0.0077012
0.00528757
-0.00722838
0.010598
0.00320007
0.0109609
-0.00230253
-0.0118584
-0.00711141
0.00694237
-0.011024
0.011193
-0.00104784
-0.00526266
0.00183847
0.00447203
-0.00587274
0.0111045
0.00335008
-0.00389349
0.000878132
-0.000334724
-0.00360729
-0.0114298
0.00355802
0.011479
0.00743925
-0.00740765
-0.000109143
7.75365e-05
0.00615288
-0.00722777
0.00153429
-0.00045939
0.00153679
0.00608993
-0.0108503
0.00322354
2.89791e-05
0.00525021
-0.00527919
0.00339925
-0.00869965
0.00683719
-0.00335189
0.00898072
0.00761594
-0.0132448
0.00249817
-0.00260927
-0.012011
0.0121221
-0.00360278
0.0059655
-0.012051
0.00968825
-0.00855867
0.00679869
0.00889003
-0.00713005
-0.00534595
0.00732489
-0.00473379
0.00275486
-0.00116756
0.00509946
0.000828624
-0.00476052
0.00248921
-0.00363372
0.00374705
-0.00260255
0.0048832
0.0018197
0.00160394
-0.00830684
0.0132512
-0.00897341
-0.000578532
-0.00369929
5.94711e-06
-0.00637345
0.00636751
0.00409738
-0.00599081
-0.0184047
0.0202981
-0.000845763
-0.00882725
-0.0026527
0.0123257
-0.000538036
-0.00406434
0.00460238
0.00124112
0.005882
-0.000973341
-0.00614978
-0.00163757
-0.00592306
0.00477516
0.00278547
0.00475301
-0.00398336
-0.00699257
0.0116216
-0.00906811
0.00267445
0.00283507
-0.00550952
0.00900086
3.52989e-05
-0.00103345
-0.00800271
-0.00175669
-0.00299065
0.00474734
0.00315024
0.00209492
0.0177023
-0.0212973
-0.00747671
0.0110717
0.00270295
0.00576982
-0.00440969
-0.00406308
-0.00614862
0.0118589
0.00779811
-0.0135084
0.0071833
0.00248944
-0.000944813
-0.00872792
0.0115161
-0.00768454
0.00495148
-0.00878304
-0.00676909
0.0031004
-0.00864083
0.0123095
-0.0106256
0.0189418
-0.00740051
-0.000915655
-0.000310666
-0.00447293
-0.00616027
0.0109439
0.00858472
0.00356082
-0.0100201
-0.0021254
0.00477011
-0.0126866
0.00796656
-5.00602e-05
-0.0107646
-0.000421427
0.00703105
0.00415498
-0.00220805
0.00570442
0.00246575
-0.00596212
-0.00135089
0.00542162
0.00438684
-0.00845757
-0.0116733
0.00598058
-0.000515469
0.00620824
0.00100482
-0.00303931
0.00606292
-0.00402843
0.00493102
-0.00247795
0.00175995
-0.00421302
0.00470217
0.000924564
0.000464131
-0.00609086
-0.0067927
0.00729188
0.00270215
-0.00320133
-0.00162631
0.00867074
0.000155979
-0.00720041
0.00703815
-0.00412556
-0.00270773
-0.000204859
0.00601523
3.98765e-05
-0.00605511
0.00439145
0.00339968
-0.000772763
-0.00701837
0.00204279
0.0053204
0.00451107
-0.0118743
5.17762e-05
-0.0098293
0.00977752
-0.00520506
0.0199027
-0.00292372
-0.011774
-7.77204e-05
0.00731442
-0.0072367
-0.000488282
-0.00528544
0.00094879
0.00482493
-0.00969992
0.00495179
0.00378285
0.000965285
0.00198546
0.00157621
-0.0112511
0.00768944
0.0057176
0.00902517
-0.00337143
-0.0113713
0.00868665
-0.00296134
-0.00831321
0.0025879
-0.0107969
0.00620496
0.0166534
-0.0120614
-2.69832e-05
0.00427627
-0.00427664
2.73563e-05
-0.00441612
0.0043715
4.46212e-05
-0.0109355
0.000153729
0.00463319
0.00125578
0.00263922
0.00728356
-0.0111786
0.00569717
-0.00678399
0.00437757
-0.00329075
-0.00566501
0.00495246
-0.000182653
0.000895201
-0.00114126
-0.00928159
0.0118201
-0.00139726
-0.00417766
0.00200775
0.00661354
-0.00444362
0.00707757
-0.00272138
0.00101939
-0.00537558
-0.00463328
-0.000805741
0.00542128
1.77458e-05
-0.000826375
-4.17114e-05
0.0078506
-0.00698252
0.000934502
-0.000800597
0.00756763
-0.00770153
-0.0069069
0.00966374
-0.010159
0.00740221
2.71378e-05
-0.00863681
0.00860967
-0.00309691
0.000270081
0.00785876
-0.00503193
-0.00586877
0.00686438
-0.00936465
0.00836904
-0.0060348
0.000460048
0.00181253
-0.00279719
0.00763388
0.000430456
-0.00526715
-0.00202904
0.000281685
-0.00341001
-0.00298904
-0.00979264
0.00982685
0.00295482
-0.00437657
-0.000516544
-0.00110722
0.00600033
-0.0148432
0.0050055
0.00148567
0.00835201
-0.00469189
0.0108532
-0.00542315
-0.000738118
0.00324976
0.00129211
-0.00657091
0.0063672
0.00643389
-0.0128011
0.000916431
0.0142772
-0.00330739
-0.0118862
-0.000183285
-0.000262558
-0.00644488
0.00689073
-0.00684834
0.0112289
-0.00453449
0.000153919
0.00642354
-0.00402693
-0.00581777
0.00342115
0.00166095
-0.000223039
0.00203371
0.0100636
0.00277539
-0.0144816
0.00164259
-0.00717392
-0.00087277
0.00232658
0.00572011
0.00257158
-0.00288915
-0.00388351
0.0118922
-0.00801529
0.0062854
-0.0101623
-0.00134679
0.00771547
-0.0133457
0.00697701
0.00454868
-0.00577287
-0.000582982
0.00180717
-0.00509978
-0.00177617
-0.000169856
0.00704581
-0.00377851
-0.00353749
0.00731601
0.000943168
-0.010236
0.00906023
0.000232643
0.00385196
-0.00375291
-0.00387756
-0.00663528
0.00838316
-0.00158251
-0.000165371
0.00917851
0.00251848
-0.00986714
-0.00182986
-0.00359564
-0.00529433
-0.00062672
0.00951669
0.00601505
-0.00183193
0.00697513
-0.0111583
-0.00657321
-0.000333689
-0.00763929
0.0041018
0.000996879
-0.00865745
0.00276934
0.00489123
0.00257125
-0.00924221
0.00505653
0.00161444
0.00142791
0.000342347
-0.00712802
0.00535777
0.00103596
0.00445017
-0.000309109
0.00788285
-0.00155719
-0.00601655
-0.00307847
-0.000338685
-0.00288047
0.00629763
-0.00183131
-0.00246642
0.00471541
-0.000417682
-0.00709622
-8.30103e-05
-0.0118324
0.00426582
0.00621568
0.0171246
-0.000177119
0.00237482
-0.0193224
-0.00777311
0.0119458
0.00246257
-0.00663527
-0.00217413
0.00115741
0.00737768
-0.00636097
0.000886647
0.00251159
-0.00194311
-0.00145513
-0.0129064
-0.00268157
0.0111466
0.00444136
0.000291318
0.00558562
-0.00112393
0.000193868
0.00275624
-0.00864058
0.00569047
-0.00526785
-1.85757e-05
0.00194406
0.00334237
-0.00748843
0.00925691
-0.00147716
0.00422201
-0.0038045
-0.000417508
-0.00621116
0.000813655
-0.00478767
0.0101852
-0.00281613
0.00424061
-0.00327105
0.00184656
-0.00606914
0.00683614
-0.00282418
0.00205718
0.0026686
-0.000447639
-0.00619281
0.00397184
-0.00271625
0.0170197
-0.022899
-0.00237999
-0.00166118
0.00162648
0.00241469
0.00790933
-0.0123615
-0.000557189
0.00500938
-0.0032877
0.00245238
0.00423054
-0.00339521
-0.000997317
0.00520797
-0.00142708
-0.00278357
-0.00584744
0.00129527
0.00136952
0.00318265
-0.0033785
0.00028765
0.00309085
0.00752095
-0.00357905
-0.00381751
-0.000124384
0.000575413
0.00389195
-0.0059112
0.00144383
-0.00402557
-0.00487509
0.00497285
0.00392781
-0.00222625
0.00566037
-0.00481174
0.00137763
0.00194571
-0.00368222
0.00253693
-0.000800425
0.00718952
0.000166494
-0.00735602
0.00612344
-0.00757245
0.00375996
-0.00231096
-0.00969107
-0.000244335
0.00993541
0.00392113
-0.00325503
0.000762619
-0.00142872
-0.000290096
0.00689887
-0.00755546
0.000946685
-0.00339207
0.00424671
0.00109107
-0.00390805
0.00835304
0.00772438
-0.00643741
0.00633922
9.81908e-05
0.000107362
-0.0101372
0.0100298
0.0138085
0.00163739
-0.00290411
-0.0125418
0.00291307
-0.0113354
-0.00138462
0.00980695
0.00216437
0.00256119
0.00147963
-0.00620518
-0.00387338
-0.00384231
3.71253e-05
0.00767856
-0.00185887
0.00252801
-0.00454251
-0.00837231
0.00153185
0.0109806
-0.0041401
-0.016668
0.0122011
0.00537735
-0.000910464
0.00731513
1.22646e-05
-0.0073274
-0.00431395
-0.00581195
0.00375686
0.00636905
-0.00415998
-0.00599751
0.00178517
-0.00606075
0.00328972
0.003807
0.00245518
-0.00322385
-0.00587913
0.0066478
-0.00411464
-1.97387e-07
0.00411483
-0.00967858
0.0039518
0.00399929
0.00172749
0.0024219
-0.00649927
-0.00198338
0.00817861
-0.00261183
-0.000190583
-0.00537619
-0.00561145
0.00932192
0.0054495
-0.00915997
-0.00170083
-0.00354972
0.00137092
0.00387963
-0.0023353
-0.00187832
0.00421362
-0.00409373
-0.00862331
-0.00395091
0.00198566
2.65344e-05
0.00400148
-0.00601367
0.00791147
-0.00573859
-0.00830927
0.0061364
-0.00294302
0.001062
0.00591174
-0.00403072
0.0055186
-0.00388708
-0.000543733
-0.00108779
-0.00632531
0.00103374
0.00493939
0.000352174
-0.00390586
0.00896207
-0.00976444
0.00381036
0.000280156
0.00567392
0.00932552
-0.00745299
-0.00586144
0.00398891
-0.00731552
0.00156328
0.0136637
-0.0070714
-0.00468109
0.00761681
0.00413568
-0.00082412
0.00736967
-0.00279931
-0.00374624
0.0004382
-0.00467479
-0.00308305
0.00731964
0.00839504
-0.00553889
-0.000340451
-0.0025157
0.00261355
0.00194123
-0.00641366
-0.00176663
0.00200077
0.00492383
-0.00515797
-0.00148825
0.00768249
-0.00948374
0.0032895
-0.00475496
0.00114851
0.0011498
0.00245665
-0.0102119
0.0103218
-0.000109901
0.00762555
-0.00754538
-8.01766e-05
0.00301282
-0.0114626
-0.00442322
0.012873
0.00244752
0.0046284
0.00110268
-0.000110596
0.00409523
-0.00398463
0.00719102
0.00637204
-0.0135631
-0.00730528
0.00446017
0.00315208
-0.000306972
-0.00409572
0.00135228
0.00332853
-0.000585094
-0.0123555
0.00578651
0.00677843
-0.00020945
-0.00396793
-0.00442835
0.00428164
0.00666227
-0.00110207
-0.00422535
-0.00133485
-0.00673937
0.00728491
-0.00445139
0.00119672
-0.00765157
-0.000391162
0.00684601
-1.24758e-05
-0.00385936
0.00387184
0.0184253
0.000105309
0.00200981
-0.0205404
-0.000709079
-0.00140673
-0.010308
0.0124238
0.00319692
-0.00432987
-0.00200566
0.00313861
0.00127157
0.00962642
-0.00390901
-0.00698897
0.0103602
-0.0103333
2.76958e-05
-5.46429e-05
-0.00585756
-0.00527978
0.00825544
0.00288189
0.0034061
0.00254664
-0.0067363
0.000783555
3.37312e-05
0.00635505
-0.00647711
8.83302e-05
-0.00865018
0.00279648
0.00700377
-0.00115007
0.00663491
0.0040081
-0.00671525
-0.00392776
0.000142308
-0.00596614
0.00293368
-0.00152868
0.00895525
-0.0047856
-0.000621215
-0.000744706
0.00615152
-0.0081348
0.000374689
0.00776011
0.0118297
0.00509708
-0.0038134
-0.0131134
-0.00770991
0.000152928
0.00769929
-0.000700351
-0.00181295
-0.00462763
0.00714093
-0.00086112
-0.000948161
-0.00251897
0.00432825
0.00195392
-0.00994454
0.00751461
0.000476007
0.00647914
-0.000976436
-0.00632817
0.000825462
-0.00758425
0.00156646
0.000600844
0.00541695
-0.0028818
0.00191595
-0.00402158
0.00498743
0.00163028
0.00112329
-0.00971182
0.00695825
0.000316885
-0.00663525
-0.000431758
0.00675012
0.00648388
0.000898395
-0.000159532
-0.00722274
-0.00779371
0.00179973
0.00704395
-0.00554861
-0.0073342
0.0128828
0.0108937
-0.00554042
0.00236159
-0.00771486
0.000859941
0.00604877
-0.00371179
-0.0088453
0.00163964
0.00313527
0.00407038
0.0109334
-0.011259
0.000325599
-0.00672508
-0.00228456
0.00470941
0.00430022
-0.0089664
-0.00695145
0.00467138
0.0112465
0.00876733
-0.00915393
-0.00112322
0.00150982
-0.00128398
0.00427206
-0.00336684
0.000378758
-0.0109776
0.00360085
0.00251263
0.00486416
-0.0164292
0.0203212
0.00342486
-0.00731687
0.00737117
-0.0159361
-0.000824045
0.00938895
-0.00657101
0.00837267
-0.0154485
0.0136468
-0.00678218
0.0149094
0.00148023
-0.0096075
0.000601167
0.00706633
-0.00169703
-0.00597047
0.0106988
-0.00803883
-0.000252574
-0.00240734
-0.00187897
-0.00180292
0.0027601
0.00092178
-0.00508423
-0.010564
0.00908535
0.00656285
-0.00718652
0.00956345
0.00832182
0.00605708
-0.0044522
-0.00555109
0.00394622
0.00215586
-0.00279239
-0.0012312
0.00186773
0.00477181
-0.00472739
-0.00627739
0.00623297
-0.0019353
0.00555017
-0.000401866
-0.003213
-0.00765244
-0.00127977
0.00953337
-0.00580188
-0.00142993
0.00717398
5.7835e-05
0.00246236
-0.00549708
0.00303472
0.00193205
-0.00252514
0.00939113
-0.00879804
0.00790679
-0.0111418
0.00165038
0.00158464
0.00480175
-0.00518675
0.000385
-0.00736278
0.00017626
0.00660452
-0.00253599
-0.00637745
0.00230893
0.00207311
0.00165143
0.00722059
-0.0109451
0.00471704
-0.00512574
0.000408704
-5.37553e-05
0.0057324
-0.00648145
0.000802808
-0.00812735
-0.00075134
0.0108107
-0.00349822
-0.000593518
0.000808135
0.0032836
0.000483421
-0.00398753
0.00294468
0.000559428
0.00656257
-0.00627906
-0.0015675
0.00078239
0.0111849
-0.00706569
-0.00490158
-0.00376852
0.00793704
-0.00416851
-0.0101731
0.00388252
-0.00234839
0.00863896
0.00791589
-0.00716059
-0.0117329
-0.00400704
-0.00478787
0.0164521
-0.00765718
-0.0115553
0.00732148
0.0104967
-0.00626296
-0.000180289
-0.00976244
0.00994273
0.0154739
2.27734e-05
-0.0089307
-0.00656596
0.00899999
-0.00579408
-0.000814392
-0.00239152
-0.00658328
0.0046797
-0.00116242
0.00306599
7.02043e-05
-0.00707664
0.00700643
-0.00487033
0.00501422
-0.000143888
-0.00357799
-0.00377388
-0.00963711
0.016989
-0.00906463
0.00195953
-0.000993287
0.00809839
0.00216931
0.00352153
0.00977087
-0.00881249
-0.00726949
0.00631111
-0.00257918
-0.00534949
0.00588621
0.00204246
-0.00534876
-0.00271061
0.00807005
-1.06768e-05
0.0018959
-0.00107513
-0.00528671
0.00446594
0.00588963
0.000288044
-0.00754526
0.00136759
0.00180993
-0.00126907
0.00202292
-0.00244032
0.00242856
-0.00201116
0.00490176
0.00474438
-0.00487129
-0.00477485
0.00245433
0.00583693
-0.00603072
-0.00226055
0.00504285
0.00218614
-0.00397922
0.00626516
-0.00756226
0.00158514
-0.00843799
0.00590773
0.00318777
-0.000657513
0.00991662
-0.0032888
-0.0103963
-0.00264532
0.00702461
0.0035366
0.00687709
-0.00332255
-0.0058735
-0.00164228
-0.000922209
-0.00923044
0.00859067
0.000821695
-0.000181925
-0.00056105
0.0115638
-0.00117971
-0.00982305
-0.00751952
0.00153131
0.00334289
-0.00120455
-0.00760009
0.00213209
0.00667254
0.00691177
0.000950527
-1.93585e-05
-0.00784294
-0.0104372
-3.28799e-05
2.3106e-05
0.010447
-0.00271926
0.0029582
-0.00488507
0.00464613
-0.00712747
0.00898658
-0.000908852
-0.000950256
0.00934883
-0.00872074
-0.00775556
-0.00683398
0.00614362
-0.00193599
0.00262635
0.00554611
-0.000250393
-0.00174296
-0.00355276
-0.0105572
0.0101574
0.00500894
-0.00460913
0.00512106
0.00194856
-0.000651071
-0.00641856
0.00177089
0.00450566
-0.00563395
-0.000642599
-0.00333326
0.00335424
-2.09797e-05
-0.00195419
-0.00499081
0.0050097
0.00820545
-0.00815961
-4.58402e-05
-0.00426117
-0.00341279
0.00334409
-0.000442891
-0.00518181
-0.000597351
0.00622205
-0.000598074
-0.00459788
0.00409942
0.00109654
0.00698946
-0.00794166
0.000952204
-0.00897541
0.00919337
0.0084275
-0.00864546
-0.00604843
0.00468356
-0.00317699
0.00454186
-0.00249447
0.00106652
0.00225675
-0.000828799
-0.000231111
0.0109515
-0.000127729
-0.0105926
-0.00569353
0.00276018
0.00280484
0.00325693
0.00414556
-0.00722808
-0.000174411
0.000312001
-0.00898261
-0.00035457
-0.0078578
0.00789059
-3.27896e-05
-0.0056398
0.00287088
-0.00619748
0.00179001
-0.00396114
0.000165461
0.00357102
0.00155095
0.00519149
9.89645e-05
-0.00443819
-0.000852255
0.00435168
-0.0108544
0.00870039
-0.00219764
0.00181058
-0.00249495
0.00923021
-0.00854585
0.01116
0.00326415
-0.00171702
-0.0127072
-0.00285886
-0.00467367
-0.00151936
0.00905189
0.00339773
0.0141561
-0.0127418
-0.00481208
0.00164773
0.0103984
-0.0100483
-0.00199781
-0.00351187
0.000461347
0.00720427
-0.00415374
-0.0012649
0.0100843
-0.00542164
0.0073933
-0.00584853
-0.00227292
0.000728144
0.00238356
0.00617551
-0.00855907
0.00581122
0.00128906
-0.000771919
-0.00632836
-0.0053391
0.00426955
0.000426901
0.000642645
-0.000486212
-0.00761793
0.000441462
0.00766268
-0.00552333
-0.000698415
-0.000213818
0.00643556
0.00320322
-0.00709396
7.32239e-05
0.00278807
0.00423266
5.78306e-05
0.00460243
-0.00466026
0.000587366
0.00809541
-0.0206368
0.011954
0.00236605
-0.00596804
0.00566843
-0.00206644
0.00339463
0.00386917
-0.00267993
-0.00458387
2.85234e-05
-0.00413969
0.00411117
-0.00225008
-0.00161211
0.00910823
-0.00524603
-0.00299237
0.0100436
-0.00864826
0.00159707