/*--------------------------------*- C++ -*----------------------------------*\
  =========                 |
  \\      /  F ield         | OpenFOAM: The Open Source CFD Toolbox
   \\    /   O peration     | Website:  https://openfoam.org
    \\  /    A nd           | Version:  10
     \\/     M anipulation  |
\*---------------------------------------------------------------------------*/
FoamFile
{
    format      ascii;
    class       volScalarField;
    location    "2.5";
    object      SgRate;
}
// * * * * * * * * * * * * * * * * * * * * * * * * * * * * * * * * * * * * * //

dimensions      [1 -1 -3 -1 0 0 0];

internalField   nonuniform List<scalar> 
111485
(
2.546e-15
6.08889e-15
1.72231e-15
1.11921e-16
2.91624e-16
2.31844e-17
5.2579e-15
4.39631e-16
9.51967e-18
9.06581e-17
2.84738e-15
2.72997e-15
4.48249e-16
1.05627e-15
1.18339e-15
4.26729e-15
2.46308e-16
0.00287267
1.63625e-16
2.2162e-15
2.03119e-16
6.78871e-17
3.61794e-15
2.23331e-15
4.16894e-16
6.59973e-16
1.75236e-17
2.57577e-15
3.29495e-15
2.29724e-17
8.38927e-05
2.84243e-16
1.33514e-16
6.24929e-16
1.03631e-05
1.19073e-15
5.164e-05
2.06385e-16
8.86725e-11
6.23336e-15
7.9889e-17
9.02788e-15
1.2182e-16
2.01022e-08
6.76204e-08
3.93089e-15
1.1282e-12
4.60736e-16
6.09986e-15
2.01921e-16
2.42598e-16
1.81962e-15
4.29924e-16
3.5714e-08
4.41008e-17
9.09011e-16
7.05064e-16
2.15927e-16
3.8995e-16
1.50437e-15
3.34274e-15
2.49909e-15
6.45595e-16
8.77385e-05
7.11217e-16
2.03739e-16
0.00035007
2.31337e-15
6.60819e-16
4.91753e-15
1.52154e-07
3.44007e-15
2.21684e-16
1.51751e-16
1.25272e-15
1.48885e-15
2.32763e-15
3.54277e-16
2.76157e-16
7.54684e-15
2.99174e-10
1.30774e-11
3.36014e-17
8.03835e-16
1.55114e-15
3.1149e-15
4.7751e-13
2.92482e-07
3.3562e-06
4.98075e-15
7.04488e-07
8.46745e-15
1.04758e-15
2.15254e-16
3.26659e-15
1.06391e-15
5.00128e-17
1.92859e-07
1.89315e-10
3.6479e-09
7.99976e-16
3.80907e-16
4.27874e-17
3.26987e-15
8.60106e-16
6.79327e-16
2.11923e-16
2.85276e-15
2.3876e-15
4.90932e-11
3.32223e-15
1.53208e-15
3.34334e-16
2.03112e-15
1.47267e-16
7.54652e-17
4.62711e-16
1.59427e-15
1.78223e-16
1.86067e-15
1.17207e-15
2.89251e-15
5.5517e-16
3.67968e-16
1.82581e-15
1.99832e-09
1.62987e-16
2.65169e-15
2.21457e-16
1.22196e-07
6.1185e-05
1.15742e-07
1.33348e-15
7.34608e-15
8.08104e-16
1.12252e-15
1.17449e-15
8.40318e-17
1.34502e-15
6.21321e-15
3.92665e-15
9.98766e-16
6.44775e-16
4.41302e-15
8.78067e-13
8.09872e-17
1.24994e-15
5.76122e-16
9.76247e-16
1.13509e-15
2.28724e-15
6.45213e-15
1.95256e-05
3.84178e-15
6.63292e-10
1.95896e-15
5.88838e-16
7.26199e-15
9.27487e-11
4.7503e-16
9.42333e-17
3.59271e-15
4.57312e-15
2.63521e-09
1.41628e-10
7.61349e-15
6.24147e-08
2.54113e-16
5.67383e-09
5.24989e-08
9.24503e-17
1.51492e-15
7.88411e-16
3.13597e-17
8.95273e-17
5.11334e-16
1.43825e-16
7.79731e-17
1.28776e-15
1.67277e-15
3.0549e-16
6.33375e-16
2.09353e-16
2.50838e-16
1.06522e-15
4.28404e-16
3.58979e-15
2.35041e-15
4.83731e-09
6.00686e-16
1.16894e-15
1.50672e-17
1.65315e-15
5.59495e-15
1.70367e-15
8.31972e-06
4.75273e-15
1.05697e-16
1.5201e-16
3.04111e-15
4.81988e-17
5.6893e-08
5.66902e-10
1.25623e-16
1.95872e-16
1.60384e-15
5.36178e-16
1.37744e-16
1.02233e-09
1.22565e-11
3.03755e-16
5.87272e-16
1.33326e-16
3.65494e-17
2.97298e-15
9.20985e-15
1.1344e-07
1.13788e-15
3.90402e-15
2.42976e-15
1.11323e-15
1.27822e-15
1.20422e-15
3.64966e-06
6.54595e-16
2.02012e-17
1.14431e-16
8.49924e-05
4.30622e-10
1.08644e-15
1.27187e-15
1.41921e-15
1.33841e-15
9.53122e-16
2.06398e-17
3.17505e-18
9.62462e-06
3.15646e-16
7.06949e-15
4.88965e-15
2.77662e-15
4.35176e-15
9.84001e-16
2.76931e-16
1.71725e-11
1.1085e-15
2.52187e-15
1.94263e-16
2.76181e-10
1.17511e-15
8.26111e-16
3.25582e-15
9.73919e-15
7.17312e-16
5.16512e-15
1.95314e-11
2.93452e-16
6.13643e-15
5.20603e-08
4.37046e-16
4.20788e-16
2.20053e-16
8.75978e-16
6.48473e-16
6.66009e-15
9.6075e-17
4.28288e-16
6.50993e-17
1.3527e-13
1.56042e-15
1.90172e-15
7.44509e-16
1.34294e-15
5.22462e-16
3.1699e-16
2.34761e-07
2.88127e-15
1.42673e-16
4.23558e-16
1.41646e-15
2.13446e-11
5.44902e-16
1.19358e-15
1.13842e-15
1.63738e-16
1.55751e-16
7.50614e-16
3.41295e-16
1.62821e-14
1.22533e-09
4.68813e-16
4.75125e-16
4.79392e-10
7.18571e-16
1.71046e-15
9.05869e-16
4.58033e-10
3.31509e-15
0.000139838
3.31941e-15
5.57674e-15
1.42299e-15
1.4586e-16
1.53959e-15
9.00579e-16
6.34579e-17
6.60766e-15
1.22109e-14
9.17826e-16
2.42968e-16
1.3793e-16
1.45502e-14
6.80316e-16
6.19287e-16
5.37261e-16
3.38275e-16
4.51323e-17
9.01245e-14
1.98812e-15
8.62278e-05
3.42801e-12
9.85658e-17
2.90737e-17
6.26484e-16
7.70853e-15
9.3908e-16
2.10078e-15
2.42857e-16
1.97322e-16
5.47796e-15
6.71271e-16
4.33198e-06
2.66348e-16
1.58926e-15
4.74786e-16
1.33381e-15
3.97309e-15
1.13774e-15
8.85018e-16
1.54016e-16
2.13955e-05
1.82461e-17
5.16131e-13
2.97313e-08
1.44392e-15
8.29103e-16
8.6702e-08
4.74916e-15
2.97249e-18
3.1159e-15
3.18378e-15
1.63454e-06
3.68829e-07
7.60376e-15
3.38447e-16
2.80961e-15
3.91424e-15
2.52587e-15
6.96867e-16
4.35133e-17
1.93996e-15
3.96812e-15
1.74683e-16
4.99052e-15
9.76896e-17
6.46432e-16
3.9317e-15
2.77553e-16
1.5628e-05
1.05845e-15
6.01834e-17
2.1419e-16
1.39646e-16
2.97236e-15
1.74313e-16
1.62009e-16
3.77324e-16
1.30144e-16
6.35948e-16
4.81669e-15
2.65318e-15
5.1723e-16
3.50974e-05
7.60759e-16
7.76697e-16
3.8785e-15
1.64031e-16
1.2499e-08
2.51063e-16
5.57545e-16
5.1106e-06
1.44965e-16
3.87752e-16
1.72458e-15
2.09718e-17
2.2318e-15
8.08511e-16
5.59791e-16
2.35075e-05
1.02359e-15
2.01763e-16
4.51493e-09
3.75644e-16
3.59334e-15
6.30238e-16
1.37135e-15
8.56269e-16
3.25472e-15
3.43517e-16
2.30352e-11
4.72586e-16
1.55913e-15
2.38629e-16
3.88347e-15
5.39528e-16
4.2525e-11
1.23649e-15
9.96876e-16
1.21092e-16
3.00166e-15
9.13972e-09
5.09287e-16
1.46892e-08
7.29557e-08
1.04455e-16
0.00104449
5.67838e-17
9.73051e-17
5.3183e-07
1.23417e-16
1.11048e-06
2.76923e-15
8.15967e-16
1.5557e-11
1.62947e-16
3.17305e-15
7.08434e-16
3.6577e-15
7.21338e-16
5.62699e-16
2.13212e-17
5.78888e-16
3.33502e-16
2.41817e-07
2.82675e-15
7.31021e-09
3.09912e-16
2.6654e-11
1.72524e-16
1.03206e-16
1.09019e-15
2.65807e-12
2.7345e-15
1.89253e-16
2.47308e-15
5.01722e-16
2.93143e-16
2.95393e-16
8.52193e-16
4.21924e-16
1.0415e-08
4.90591e-16
1.44252e-16
2.15441e-15
2.92496e-15
3.29644e-16
2.56065e-16
7.76322e-17
1.30512e-15
5.20894e-17
9.23236e-17
4.09815e-10
1.02168e-16
5.03963e-16
1.37781e-10
6.03549e-16
2.37656e-15
4.79072e-17
4.77414e-17
1.7309e-15
1.45075e-15
4.12494e-16
5.90348e-16
8.69642e-16
2.66699e-10
9.58739e-16
6.25091e-07
2.15864e-16
1.12129e-10
7.8894e-16
8.49794e-17
6.58986e-16
3.2676e-16
1.15909e-15
2.52986e-05
2.27605e-16
6.62451e-15
1.766e-14
6.72147e-16
3.85955e-16
5.14729e-17
1.0939e-15
7.95501e-16
8.32477e-15
1.29046e-14
5.2872e-16
1.48992e-14
4.80834e-15
2.38671e-16
6.00068e-16
5.1049e-12
5.49962e-17
1.1311e-15
2.49043e-16
2.91899e-15
7.25365e-15
6.92245e-16
1.90823e-17
2.3391e-15
5.4072e-17
1.65833e-10
1.44081e-15
3.49664e-17
1.63952e-16
2.7302e-15
2.14675e-17
3.17227e-15
7.40237e-16
6.33601e-15
2.50089e-15
1.57701e-17
1.72607e-15
2.89194e-15
2.95342e-16
5.42436e-17
8.31684e-17
6.98344e-16
2.1184e-16
5.16241e-16
3.88628e-18
3.30717e-17
8.24738e-16
1.86159e-14
6.73872e-16
5.95176e-16
1.47375e-15
2.38937e-15
2.45142e-05
2.85739e-16
1.15399e-14
1.09007e-15
2.41017e-14
3.15462e-15
5.11525e-16
2.54228e-14
1.54968e-15
2.67646e-16
2.17192e-12
2.29022e-05
3.25194e-15
2.04077e-15
6.59146e-06
4.63064e-15
1.43324e-14
1.25617e-06
2.58871e-13
1.38668e-15
2.67762e-15
5.81742e-16
2.73832e-15
2.72761e-16
8.95953e-07
8.45141e-16
2.44482e-10
0.00075867
2.41014e-16
8.64817e-17
3.42716e-16
6.09867e-15
7.82361e-17
3.73015e-06
2.53385e-10
1.3943e-08
8.9853e-15
1.09733e-15
1.12904e-15
1.25165e-16
2.45479e-13
6.54904e-16
6.57963e-15
3.96258e-16
8.09043e-17
4.40374e-16
5.49596e-15
6.22902e-16
1.47353e-16
9.98061e-16
5.52216e-16
1.48884e-15
3.89833e-16
1.104e-15
1.44805e-15
1.07833e-15
2.03894e-15
2.75221e-15
8.87041e-18
1.26783e-16
1.18792e-14
4.49485e-16
2.09522e-15
5.32264e-16
3.9287e-17
4.60711e-16
0.000111859
4.78709e-17
1.46563e-15
9.26984e-06
1.1375e-06
5.59297e-15
1.26198e-15
4.98134e-16
2.45075e-15
1.46693e-15
1.16801e-15
1.05654e-10
4.229e-16
1.43022e-15
3.56684e-16
8.91319e-16
7.04352e-17
8.13472e-15
2.30261e-05
7.63281e-16
1.0579e-15
4.84985e-16
2.7652e-16
2.38311e-17
2.33022e-15
1.70994e-16
1.02141e-15
9.50429e-16
5.50389e-16
8.13633e-15
5.45595e-16
1.39785e-16
6.01646e-14
4.30035e-15
4.38959e-16
1.96459e-15
3.09018e-16
1.69799e-15
1.00194e-16
2.34463e-15
2.35026e-16
2.49669e-16
4.37295e-16
2.18237e-15
9.87866e-09
5.2382e-16
9.13459e-18
2.10422e-17
1.57192e-15
2.45049e-15
2.33273e-16
2.02377e-15
1.31231e-15
3.6429e-16
4.35084e-16
3.4182e-16
3.25167e-15
2.17952e-15
6.7637e-16
7.95093e-17
1.23624e-05
4.44436e-16
4.25732e-15
1.35679e-15
2.26945e-09
1.70574e-16
2.51951e-15
2.98181e-11
1.46724e-16
9.71863e-17
2.34986e-15
3.08646e-16
1.93471e-15
3.84959e-15
4.05008e-16
6.355e-16
3.50677e-15
9.04666e-16
1.43842e-15
1.56003e-16
4.35184e-15
5.76528e-15
1.26475e-16
0.00493744
0.000169867
4.34635e-16
2.0984e-16
1.72923e-15
3.94429e-16
2.02549e-05
1.1871e-15
7.50597e-09
0.000161808
5.09185e-15
5.99439e-16
4.45169e-15
4.24053e-15
1.31154e-10
2.72322e-16
3.10506e-16
6.92763e-17
6.72515e-16
6.95291e-17
9.16789e-17
2.39999e-15
2.65979e-15
1.51682e-15
4.29744e-16
7.82149e-16
3.78343e-16
7.78887e-16
1.41778e-16
3.36472e-12
5.51586e-15
4.28344e-15
3.66432e-16
5.8682e-18
7.43254e-15
1.67141e-15
2.38874e-15
2.91265e-15
1.99907e-15
4.54862e-16
3.06382e-15
5.41382e-15
8.54151e-17
4.07833e-15
7.79947e-18
4.35915e-15
1.28912e-07
5.54413e-15
1.13262e-15
1.89666e-11
1.36661e-15
1.54152e-15
0.00110216
5.49987e-16
1.16527e-15
1.46975e-15
7.49493e-13
7.89418e-14
5.20669e-15
2.98265e-16
8.00566e-12
1.50986e-16
3.21067e-16
3.62917e-13
0.000714714
8.14205e-16
6.61833e-16
3.67689e-13
7.41996e-14
3.26557e-14
2.48527e-15
1.0396e-15
7.62135e-16
7.26129e-16
4.6835e-15
8.27784e-16
2.20192e-15
6.05491e-15
1.95384e-17
5.10821e-15
2.60182e-16
4.0888e-16
5.57394e-16
9.59259e-16
4.45464e-18
2.1081e-16
1.14506e-16
2.77818e-07
1.22315e-15
2.34399e-16
4.31104e-16
4.32105e-16
2.435e-15
6.11357e-16
2.16136e-17
1.37409e-12
1.43069e-15
1.18347e-16
1.32516e-14
1.13154e-15
6.34978e-17
4.00228e-16
2.38137e-16
9.09101e-16
1.58615e-08
1.10095e-15
7.26986e-08
3.47977e-16
9.63427e-17
1.63903e-16
2.23384e-07
1.13915e-14
3.09086e-16
3.13598e-12
6.26728e-16
1.61944e-15
2.73088e-15
1.65848e-07
1.25401e-09
8.07281e-16
9.51378e-16
1.68397e-06
1.38403e-17
1.60365e-17
5.78988e-16
2.29912e-16
4.5316e-15
1.91645e-15
1.85033e-15
5.97577e-16
6.70261e-15
7.39205e-16
1.3046e-15
1.45951e-06
2.68388e-16
1.15821e-16
1.15128e-15
1.58008e-15
4.95571e-16
9.89222e-18
1.38501e-09
1.28333e-15
6.31595e-16
1.03963e-16
1.10024e-08
1.73059e-06
1.15598e-08
9.61054e-13
6.04695e-17
3.24706e-16
9.2577e-10
1.55435e-15
1.76597e-15
2.25904e-10
3.8699e-07
2.75272e-11
4.52484e-11
1.26164e-09
6.61282e-16
7.87039e-15
1.69188e-15
2.3679e-15
2.91823e-07
9.34963e-11
6.8165e-17
2.32572e-15
4.08982e-10
3.68407e-09
2.5324e-18
1.29716e-08
1.57696e-15
3.16331e-16
4.74012e-16
2.55143e-15
7.03268e-16
1.29082e-15
6.9859e-11
3.31422e-16
7.58891e-17
3.0287e-15
6.97091e-09
5.24232e-13
7.71513e-15
1.49438e-15
1.21289e-16
2.36526e-16
6.23168e-11
7.55599e-16
7.48074e-17
8.46001e-16
1.09545e-08
7.54951e-17
1.81798e-16
2.10896e-15
1.22239e-15
2.2919e-16
4.66432e-17
5.42971e-18
7.0173e-09
3.51788e-16
1.0495e-08
3.28628e-15
2.602e-16
7.28648e-16
2.50224e-16
6.52447e-08
8.29294e-16
2.28409e-16
6.59813e-16
7.05033e-08
5.2542e-16
7.34794e-09
3.65227e-11
8.73193e-07
5.44999e-16
5.66255e-08
6.92049e-09
9.03469e-16
3.7629e-15
1.47444e-08
2.01695e-15
3.52628e-15
1.49765e-16
1.11288e-15
1.88371e-15
2.76519e-15
7.20071e-15
6.43277e-08
3.39481e-10
1.85481e-17
1.57616e-15
2.61908e-16
1.42612e-15
3.33153e-15
5.35204e-16
1.19623e-16
1.27468e-16
7.02345e-16
5.93094e-11
9.32865e-15
2.55175e-16
2.94983e-16
6.35847e-15
1.327e-09
3.34665e-15
2.95202e-16
6.38204e-16
1.68291e-15
2.03992e-16
3.73152e-15
0.000389328
1.17762e-16
4.06002e-16
5.03793e-16
1.87127e-16
3.67747e-15
1.64348e-15
1.88041e-15
1.00307e-08
3.6651e-16
1.31809e-15
9.34627e-05
1.49783e-05
7.53488e-15
1.71842e-05
2.68627e-16
4.01099e-11
1.27007e-14
1.34848e-15
1.10032e-07
7.73914e-09
3.5989e-16
3.13459e-16
3.41e-15
2.70106e-05
1.5917e-16
4.15171e-05
8.40813e-17
0.000202362
6.29726e-16
1.75756e-15
1.51925e-14
3.23535e-16
1.90418e-16
1.12317e-15
1.16454e-15
8.65608e-05
3.18452e-16
9.27774e-16
5.59702e-17
9.99423e-06
1.03543e-15
3.18574e-15
2.97852e-15
2.8647e-15
1.47377e-16
3.01388e-17
5.19371e-05
2.29878e-16
1.11498e-15
2.52754e-16
3.39751e-10
1.73695e-15
2.86005e-05
5.08635e-16
4.18055e-16
1.66079e-07
1.08902e-15
1.71553e-15
9.90005e-18
5.35353e-15
4.95465e-16
8.2448e-11
9.6399e-08
4.07198e-07
5.56302e-08
1.26105e-07
1.18804e-09
2.96236e-16
6.28006e-10
6.00629e-16
8.43692e-16
1.99433e-15
2.49495e-15
3.66878e-16
2.45181e-16
3.04918e-17
2.02114e-15
1.49555e-07
4.3439e-07
2.50722e-15
2.13521e-15
1.29351e-14
2.58359e-07
8.66367e-09
2.7326e-15
3.79211e-15
4.88195e-08
7.64666e-17
6.8647e-16
2.46848e-17
1.56079e-16
7.2777e-06
2.10153e-16
4.98433e-15
4.20234e-16
3.14224e-16
5.35357e-15
2.9624e-17
1.1345e-06
1.015e-16
6.27361e-07
1.06724e-15
1.11629e-16
8.0621e-07
1.22917e-16
1.70132e-15
1.14045e-06
1.62498e-12
9.06121e-06
1.60007e-16
7.40017e-17
3.14973e-16
3.91706e-16
6.27885e-16
8.66305e-17
2.85225e-15
6.81236e-10
1.52983e-15
7.73356e-09
3.38729e-16
1.34885e-15
1.35664e-16
3.39212e-15
1.39686e-15
3.92472e-16
1.25712e-16
2.69549e-16
1.68714e-06
9.9915e-16
1.16953e-16
1.01448e-16
8.3738e-16
3.26555e-09
5.6564e-07
5.26786e-16
8.93448e-06
7.26702e-11
5.39951e-16
1.08749e-16
8.23333e-10
2.58581e-13
8.50047e-15
7.32348e-09
4.15431e-16
1.09944e-10
3.96317e-15
3.36584e-15
6.60508e-15
2.52667e-16
1.63734e-08
1.97196e-15
5.46077e-11
6.0836e-16
6.61012e-17
8.61885e-12
1.04425e-15
5.38835e-16
1.20976e-05
1.04149e-15
4.51496e-17
5.09743e-15
1.62992e-05
1.38722e-05
1.08397e-15
2.841e-16
4.50649e-17
2.65654e-16
2.72099e-08
8.15295e-15
1.07009e-15
2.28996e-15
2.80562e-15
2.98394e-16
8.77645e-16
4.10429e-15
3.68533e-15
1.3269e-15
0.00308306
2.91124e-15
8.12076e-17
2.74268e-15
1.66558e-05
6.432e-17
1.03372e-16
4.77295e-15
1.67717e-15
4.57102e-16
7.25246e-16
2.62137e-15
2.12511e-16
1.3151e-15
1.87694e-15
1.65857e-15
7.68433e-16
7.90344e-16
1.51533e-15
2.0807e-15
1.83055e-16
8.27721e-06
7.66119e-17
1.62303e-15
1.23424e-15
2.23799e-12
2.48944e-07
1.68347e-17
2.13677e-15
4.91456e-16
5.8768e-17
7.20068e-15
2.34513e-06
2.45308e-15
4.86407e-05
4.00057e-16
2.29671e-16
4.85726e-15
7.07427e-16
9.03238e-16
3.83777e-16
5.25919e-16
1.16414e-15
8.83854e-17
7.42974e-16
1.87353e-16
7.03211e-16
8.8036e-05
7.72488e-17
3.06429e-16
2.28464e-16
1.3173e-15
4.1123e-16
1.08219e-07
1.33395e-15
3.97198e-16
3.75942e-16
5.77441e-16
1.05217e-15
4.07789e-16
7.49688e-05
8.69609e-16
1.69274e-16
3.06578e-15
2.2078e-12
1.08423e-15
5.40371e-15
0.000257868
2.08964e-14
5.94549e-17
1.4785e-14
5.48544e-16
1.62302e-15
7.79028e-15
3.40721e-07
7.60034e-16
9.56498e-17
7.56382e-16
1.39682e-17
7.9252e-16
4.01034e-06
1.70228e-16
1.92645e-15
2.07517e-16
8.21392e-16
2.46989e-15
2.20342e-16
2.71761e-16
4.20976e-17
8.03217e-16
4.52361e-16
1.58418e-17
2.66338e-15
7.2616e-16
2.62175e-11
7.65552e-17
2.19574e-16
7.04847e-16
7.85354e-17
6.48928e-15
2.30386e-15
5.74145e-15
7.79335e-15
3.02564e-15
8.65767e-16
9.0988e-16
3.79823e-16
4.91058e-15
1.66832e-15
6.84512e-15
8.78814e-16
3.46234e-18
2.02091e-14
3.92584e-14
3.52361e-15
2.83746e-15
4.21507e-06
5.73649e-15
4.73635e-15
7.46698e-16
1.94216e-15
3.31396e-15
2.39295e-16
3.16136e-15
8.30246e-16
3.32391e-07
3.10862e-15
6.29246e-16
3.80906e-16
5.96228e-11
6.36186e-17
3.11062e-16
5.93698e-17
3.70316e-15
1.39188e-17
3.14561e-16
8.8845e-16
1.58725e-16
3.49557e-16
5.17343e-16
2.32661e-15
2.88713e-17
1.79922e-15
3.75401e-16
4.47021e-16
7.50239e-18
5.34134e-17
2.12742e-16
1.04204e-15
2.29527e-17
3.57176e-16
7.11971e-16
8.81655e-17
4.10841e-16
3.80709e-18
9.53095e-17
3.07188e-16
6.22987e-17
4.9611e-16
9.7712e-17
6.46072e-16
7.89396e-17
3.34834e-16
5.14827e-15
3.85366e-16
1.69586e-16
2.05539e-16
8.7553e-16
5.30368e-16
6.46558e-15
0.000273803
2.99075e-15
9.75281e-17
1.45364e-15
5.60535e-13
8.86836e-17
6.77513e-06
1.46202e-15
8.3152e-17
8.25595e-07
1.42818e-06
1.13922e-15
1.22644e-08
3.92776e-16
7.73436e-16
6.34119e-17
1.51103e-15
6.68437e-15
4.56479e-16
5.81806e-18
2.64167e-15
9.49852e-17
1.22398e-16
2.47438e-15
2.79834e-10
2.49636e-16
5.93637e-16
8.38194e-17
1.30042e-16
5.2143e-16
9.90917e-16
3.5486e-16
1.40966e-14
8.4247e-16
8.45738e-16
2.13795e-16
3.62477e-17
9.65759e-16
5.93802e-16
1.20901e-15
3.64304e-16
1.13955e-15
1.20252e-15
1.2148e-16
2.23218e-17
1.56427e-16
1.79273e-18
6.24568e-17
4.59182e-16
6.35277e-16
4.03538e-15
9.61261e-16
7.76644e-07
1.17374e-15
6.97391e-17
3.1132e-16
2.78212e-15
8.53371e-12
2.72929e-09
1.02445e-16
2.618e-16
4.46294e-16
2.77913e-16
3.38764e-16
6.97588e-16
5.1924e-16
3.41132e-16
8.50628e-16
4.19912e-10
2.32774e-16
7.07229e-16
3.05667e-16
1.71917e-15
6.5882e-16
4.33898e-15
3.04034e-15
3.57587e-16
3.66923e-05
0.00123326
2.66065e-16
1.91657e-15
2.60569e-16
1.04532e-06
1.17062e-16
1.82126e-15
1.55938e-15
3.37042e-06
2.38558e-15
9.89481e-07
1.86753e-12
9.51837e-16
5.10084e-16
9.58967e-18
4.92704e-17
8.50893e-16
1.69121e-15
4.50801e-15
4.62712e-15
2.62254e-16
1.7267e-15
4.3644e-16
8.1211e-16
2.37431e-16
2.21543e-16
3.21548e-16
0.000939452
1.62248e-17
4.1012e-17
9.40929e-09
3.57436e-15
3.13106e-07
3.503e-16
2.04173e-15
1.57634e-16
1.86817e-15
4.19771e-16
1.40334e-15
1.07858e-15
3.14606e-16
3.20419e-16
1.23254e-11
6.21644e-17
8.83022e-17
4.30576e-16
6.03038e-09
1.08168e-15
5.32022e-16
3.3036e-15
6.22521e-05
3.42903e-15
1.78715e-15
8.29343e-16
2.61601e-15
1.11239e-15
1.43175e-15
5.74399e-16
1.38508e-15
3.9602e-16
6.86254e-16
6.73139e-18
8.47512e-16
1.05414e-15
2.42413e-15
1.06951e-15
4.83393e-15
2.01651e-16
1.36225e-12
4.99607e-16
6.13213e-15
8.08755e-16
4.7087e-16
1.7509e-16
4.4445e-16
1.96952e-15
3.63008e-15
5.75537e-15
1.98705e-08
2.49912e-07
2.30482e-10
3.3943e-05
1.73084e-15
4.66659e-16
2.00005e-15
2.34387e-16
3.30225e-16
3.89786e-17
5.63266e-11
2.17253e-07
3.5484e-15
0.00123726
3.00351e-15
2.58093e-05
1.61131e-10
7.41976e-05
2.94492e-16
2.00519e-15
8.06457e-16
2.18075e-15
7.80417e-15
2.05542e-06
5.57796e-16
1.59097e-16
7.46443e-16
4.8994e-17
4.40579e-16
4.01225e-16
3.51373e-05
2.66928e-15
6.45101e-16
4.91634e-15
8.48671e-17
5.81962e-15
5.59959e-12
2.22515e-16
1.00524e-15
2.5973e-16
1.01079e-16
1.99948e-16
6.23797e-06
4.89694e-16
1.33473e-17
1.92866e-15
6.01017e-15
1.77895e-15
1.03084e-14
1.73524e-14
7.74233e-16
6.30624e-06
1.00674e-16
1.72712e-15
9.8222e-17
1.49585e-14
4.15951e-15
1.80391e-15
8.95877e-05
5.65633e-16
1.6049e-15
1.04423e-16
4.80702e-15
2.99371e-16
9.59504e-17
3.82892e-17
9.80221e-16
1.03457e-16
1.0039e-16
2.58226e-16
1.36871e-10
4.72037e-17
6.28885e-15
2.55369e-16
1.55774e-15
1.56514e-15
4.43205e-15
1.60353e-16
1.37557e-15
2.58281e-06
1.20779e-15
2.16543e-15
2.04022e-07
3.64011e-08
9.10266e-16
1.01519e-15
3.91343e-15
2.76677e-16
6.47905e-15
4.50955e-13
3.38651e-15
6.14193e-15
1.64002e-15
4.20181e-16
3.62388e-15
8.62007e-08
1.86086e-15
1.01725e-15
9.07073e-07
1.32205e-15
2.82325e-15
4.25946e-16
2.30758e-15
6.16244e-17
2.68804e-07
1.28231e-16
5.67803e-07
1.24996e-15
9.41256e-16
1.09084e-16
7.12477e-16
7.29825e-15
1.79422e-16
2.01964e-16
5.93095e-07
8.31711e-17
1.15104e-15
2.15619e-15
5.83281e-17
8.04819e-18
1.80557e-15
1.73682e-15
1.88881e-16
7.44362e-16
1.22198e-15
5.23061e-16
1.76277e-15
2.05484e-15
2.29164e-16
2.06779e-15
2.68471e-15
3.09989e-17
4.84258e-15
6.49663e-17
3.35454e-15
6.10719e-10
2.65313e-15
5.65838e-06
6.41757e-16
2.83389e-16
1.29154e-15
1.09829e-16
1.48449e-15
3.42683e-16
5.51057e-16
1.23829e-16
1.70826e-15
1.53943e-15
6.28197e-16
3.5892e-05
3.01298e-16
4.49853e-15
2.81683e-15
8.61053e-17
2.99283e-16
6.48296e-16
3.65346e-15
3.92602e-16
1.43075e-16
8.01611e-17
4.88035e-16
3.73834e-16
4.06753e-16
1.00149e-15
4.51128e-07
2.04834e-15
1.32126e-08
1.72931e-15
1.81742e-15
2.68075e-10
1.82859e-09
3.15507e-16
1.42071e-16
6.17594e-17
3.05794e-16
4.21253e-16
1.58969e-16
1.10279e-15
2.37647e-16
2.24117e-16
3.39779e-15
2.94819e-12
3.71945e-16
4.61324e-15
5.09074e-17
1.59471e-08
5.07362e-16
5.52022e-08
6.17615e-15
5.38024e-16
5.9442e-09
1.05079e-05
2.93929e-16
1.79621e-08
3.58279e-13
1.60003e-12
2.02537e-17
6.53789e-09
1.11094e-13
2.087e-09
1.28666e-05
1.14102e-16
8.48782e-16
1.61905e-15
2.22887e-09
6.83407e-11
3.32497e-16
9.47282e-16
1.78457e-15
5.71177e-16
2.93341e-15
9.56542e-16
8.01562e-17
3.418e-09
3.04452e-15
2.01067e-15
3.94668e-16
1.13911e-15
3.12878e-15
1.40671e-06
1.86343e-05
1.38578e-16
4.46735e-09
7.42823e-16
1.54027e-15
4.24523e-07
2.338e-15
7.42309e-17
3.52168e-15
1.20401e-16
3.00352e-06
9.67378e-16
3.0025e-15
3.08789e-17
1.57155e-10
6.26203e-16
2.26183e-15
1.26397e-14
4.59813e-16
3.02319e-12
1.95903e-12
3.80274e-15
0.000361091
1.52778e-15
1.98133e-15
1.7055e-15
3.05852e-16
3.19239e-12
5.52648e-17
4.28702e-16
3.4687e-12
1.16948e-15
9.56753e-10
1.41035e-16
1.22086e-16
2.46348e-15
2.551e-11
2.00303e-15
1.71377e-11
2.61995e-08
2.48326e-16
1.62594e-08
1.73035e-16
2.77939e-15
6.60766e-16
3.40277e-17
8.36561e-15
2.30394e-15
5.2184e-17
4.95761e-15
8.27955e-16
2.40322e-16
1.09438e-11
1.01516e-15
4.71096e-17
7.32192e-16
5.89743e-16
9.20162e-15
1.47078e-15
2.82495e-15
4.08287e-16
1.57322e-17
0.000647173
5.29327e-16
2.8883e-16
8.141e-17
3.23525e-15
9.86097e-12
2.94646e-11
5.48488e-16
1.1088e-15
1.53163e-15
3.03865e-16
3.08658e-16
4.41377e-16
5.95712e-16
2.43539e-15
5.77294e-16
4.13593e-16
3.44835e-11
8.20672e-17
1.58671e-16
1.4087e-10
1.02034e-16
2.23206e-17
1.86425e-15
1.90779e-16
2.41065e-16
4.48727e-16
2.32472e-15
5.16394e-16
2.44602e-15
1.58304e-10
8.32284e-16
6.29666e-17
2.17722e-15
8.72886e-16
1.2424e-15
2.45056e-16
5.5863e-16
7.43736e-09
2.94755e-13
9.90269e-16
1.77835e-15
1.71703e-15
5.1861e-06
3.88863e-16
1.53672e-16
2.13979e-15
2.53578e-15
6.35166e-12
1.52413e-15
2.59485e-15
2.87627e-16
9.16127e-16
1.95761e-15
1.40574e-15
3.96355e-15
2.09514e-16
5.14402e-15
4.57854e-16
1.18224e-15
2.04092e-16
8.80516e-16
5.55977e-17
1.33131e-15
2.29876e-15
2.4557e-15
1.51996e-15
2.62617e-10
1.9738e-15
2.81877e-16
5.02352e-16
3.13773e-16
1.22937e-15
1.76219e-16
4.22015e-15
1.68269e-15
8.21359e-16
1.81328e-16
1.53483e-16
1.22387e-16
9.98729e-16
2.23978e-16
4.8319e-16
1.4869e-15
8.41042e-16
3.43241e-15
1.61665e-15
7.14244e-16
2.4703e-16
8.91191e-16
3.12937e-16
2.0001e-16
2.86272e-16
2.99414e-15
1.96033e-15
1.41755e-16
3.19962e-17
5.24652e-16
1.58757e-16
1.20899e-15
4.86491e-16
1.69592e-16
1.86784e-15
2.9999e-15
1.53946e-15
3.30237e-15
3.76597e-10
0.000480563
1.94353e-15
8.8389e-17
2.07707e-15
1.44982e-16
3.45377e-16
5.3697e-16
2.33163e-15
1.81949e-15
2.3164e-15
7.14889e-10
6.1252e-16
4.66525e-16
1.19288e-14
9.51914e-17
9.76882e-16
1.48353e-16
1.28346e-15
0.000217368
3.2193e-16
2.83123e-16
4.63798e-16
7.73124e-16
5.26152e-15
5.9109e-15
3.0886e-15
2.46766e-17
1.53898e-15
2.27174e-07
5.28381e-16
8.79172e-16
1.80551e-16
7.17298e-15
1.91033e-15
9.44817e-16
3.26655e-07
2.03919e-15
2.37378e-15
6.7521e-16
2.09307e-15
3.83088e-15
2.49642e-15
3.8341e-15
2.06134e-15
1.00128e-14
3.50567e-17
1.94591e-15
2.56385e-15
9.27485e-16
2.68989e-16
1.7594e-15
2.78927e-15
5.89291e-18
4.67166e-16
3.92356e-15
9.90907e-16
8.57128e-15
3.88168e-16
4.03514e-16
1.94659e-15
7.5191e-16
1.66041e-16
1.38081e-08
8.97743e-16
1.62138e-16
1.70722e-16
1.03359e-16
8.47564e-16
1.81384e-12
4.80527e-09
5.54875e-05
2.57101e-17
1.56996e-12
1.56362e-15
3.42045e-16
1.9288e-15
3.89421e-16
3.10947e-16
1.78516e-15
3.63459e-15
1.14052e-15
6.0587e-17
2.35316e-16
1.34821e-15
0.00241598
1.25244e-16
1.60958e-15
3.99832e-15
2.00163e-06
3.97778e-16
0.000769741
6.72056e-16
1.40051e-15
2.40041e-15
1.4735e-14
1.20098e-15
9.477e-16
5.58238e-16
4.06861e-16
3.7258e-15
4.74621e-06
2.17807e-13
0.000964813
5.58343e-17
9.29523e-16
7.82245e-15
1.96217e-15
9.46219e-17
8.14611e-11
4.79686e-16
2.84388e-15
1.03536e-14
4.23406e-15
2.55751e-16
1.61524e-16
1.72494e-15
2.56502e-13
1.13132e-16
7.84715e-16
3.08391e-15
1.00807e-14
1.37357e-15
1.35089e-15
2.77739e-16
8.08963e-17
3.006e-15
1.69189e-15
5.60982e-16
4.84407e-16
1.22806e-16
9.8706e-17
1.29563e-10
7.9104e-16
1.13364e-15
5.23538e-15
3.23165e-17
2.88438e-06
1.72995e-16
1.16873e-16
3.89817e-16
2.65018e-15
5.49383e-16
4.19643e-15
1.17486e-15
2.13704e-15
6.83591e-17
1.19057e-16
7.00896e-15
3.65381e-15
1.78247e-05
1.40329e-16
8.96108e-14
4.69316e-15
5.6418e-15
2.83772e-16
1.57755e-15
1.43131e-05
0.00021676
3.39161e-15
2.18113e-13
7.7788e-17
5.25889e-14
3.45352e-17
4.15842e-15
5.76253e-16
3.98596e-10
3.48219e-16
2.20224e-11
1.47642e-16
8.06856e-16
1.11331e-16
3.52068e-15
7.04814e-16
6.17027e-16
4.44805e-17
1.35025e-15
1.41553e-15
5.37243e-06
3.45027e-16
4.57252e-14
3.07759e-09
2.78218e-15
1.91961e-16
1.02408e-08
6.95705e-16
1.79082e-07
3.70134e-15
6.98224e-10
1.31352e-15
1.52172e-15
3.55913e-16
4.00997e-10
1.48585e-15
2.33892e-15
2.20619e-15
3.10821e-16
8.31503e-16
0.000581476
2.22422e-15
1.21502e-16
9.98519e-16
1.86524e-15
1.35397e-15
8.87459e-08
4.17119e-16
3.10691e-05
8.98275e-16
8.75813e-15
6.33849e-05
2.29118e-16
4.90829e-15
1.29228e-16
7.7028e-17
3.57505e-16
1.65307e-16
0.000146549
9.29338e-16
1.11429e-15
2.87894e-15
2.53521e-16
2.20883e-15
8.52049e-16
5.7602e-06
1.13579e-15
5.31159e-05
7.93315e-05
0.000362724
5.07575e-16
0.000225879
0.00138678
0.00241728
0.000814744
2.78798e-16
8.19897e-18
1.594e-15
3.29503e-15
2.00655e-16
2.67581e-06
2.45484e-16
1.91177e-15
3.84443e-15
8.90547e-16
4.60344e-05
9.66828e-16
2.44222e-15
8.46004e-13
3.61684e-05
1.91844e-16
7.1097e-16
2.40958e-06
6.80654e-15
2.22072e-16
1.54645e-08
6.04848e-17
2.04296e-15
2.94422e-15
7.77475e-16
9.07925e-16
3.44329e-16
4.88124e-10
2.21674e-15
1.01291e-15
6.78601e-11
1.96035e-15
1.82566e-16
3.07547e-09
1.14169e-16
8.77595e-16
8.5359e-16
1.06479e-14
6.6591e-16
8.53033e-07
1.75002e-16
6.56164e-16
2.51601e-15
2.17612e-10
3.52769e-11
3.28467e-16
2.70557e-15
2.02057e-07
9.30085e-16
3.9452e-16
9.74355e-16
2.83831e-15
0.000215894
9.10871e-16
4.71409e-17
1.78916e-15
2.54049e-07
5.10426e-11
1.09984e-15
5.46452e-05
7.69202e-16
0.000224756
6.14956e-16
4.36108e-12
6.57087e-12
6.30687e-16
1.26267e-15
5.61531e-16
9.58073e-06
3.49607e-16
2.09497e-15
6.75939e-15
3.64627e-15
3.25295e-16
1.74151e-15
3.69498e-16
2.79691e-15
0.000130414
7.79063e-15
5.29913e-16
3.69838e-05
4.91978e-15
1.80375e-17
5.40771e-16
4.02311e-16
5.94977e-15
1.14131e-15
9.84624e-16
4.6122e-16
2.28747e-17
9.69822e-16
3.0276e-15
7.52779e-17
1.78871e-15
2.25151e-15
3.469e-16
7.70362e-16
0.00025009
8.91258e-15
2.78167e-15
5.78092e-15
6.92007e-16
5.58641e-15
9.10992e-17
1.86299e-15
2.59401e-16
5.56393e-17
2.48973e-14
2.00752e-16
3.20109e-15
9.3274e-16
0.000249593
6.99537e-16
4.83216e-15
4.7397e-15
6.04071e-16
3.38696e-08
3.75505e-15
5.84089e-17
2.08722e-16
1.96614e-16
1.18882e-15
4.05295e-08
8.22363e-16
1.17274e-15
1.36323e-15
2.18516e-15
2.29703e-15
2.84479e-16
3.71373e-15
6.11251e-17
3.0957e-16
8.61621e-16
8.98958e-16
0.000107567
2.21375e-15
2.11334e-15
2.82348e-16
6.34084e-16
3.59551e-05
2.68344e-17
7.17864e-16
1.89722e-15
3.55254e-15
1.38124e-15
7.4907e-15
2.24508e-05
3.24576e-15
3.4247e-16
1.77394e-16
4.80462e-15
9.30023e-15
1.29495e-16
4.57357e-16
2.69336e-15
4.70434e-05
1.63783e-15
3.06916e-15
1.29286e-15
4.77147e-16
4.48865e-16
1.10728e-17
5.35696e-16
9.07633e-16
1.93535e-15
2.52838e-15
9.37716e-16
1.27096e-15
5.09734e-15
1.98358e-15
0.000631521
9.41054e-16
4.73053e-16
5.29672e-16
1.69003e-16
7.83946e-16
8.39242e-16
3.37234e-15
2.15455e-15
8.61182e-16
4.41368e-15
8.91527e-16
5.44794e-06
1.79702e-15
1.48032e-15
4.60273e-16
6.84235e-12
2.57549e-16
4.95301e-15
2.90494e-15
7.20849e-16
1.56039e-16
1.12021e-15
1.62601e-15
4.7592e-16
1.73323e-15
5.25832e-16
5.19932e-11
1.54566e-15
7.32952e-16
8.35092e-16
5.37668e-17
6.24151e-16
1.38447e-10
4.34325e-15
3.59206e-05
3.50991e-16
3.82947e-16
1.53979e-15
4.5001e-15
9.28252e-16
3.42776e-15
2.10918e-16
3.00802e-16
2.68508e-16
2.72261e-06
2.91152e-14
4.6329e-15
3.70315e-15
1.42555e-15
4.14642e-11
2.63808e-16
7.21541e-06
2.83829e-16
2.07016e-15
1.86549e-16
1.71329e-16
7.08716e-16
3.53965e-16
1.63513e-15
2.20535e-16
4.016e-16
3.7121e-15
1.3376e-15
4.06572e-16
0.000711835
2.54323e-15
5.18873e-05
1.852e-16
6.26221e-15
1.14457e-15
2.45938e-16
1.27793e-15
3.03717e-16
4.76823e-08
2.28041e-16
1.64961e-15
4.40603e-15
2.73107e-16
4.74643e-15
1.16137e-15
4.5127e-16
5.60436e-16
8.04449e-17
1.5458e-15
5.29947e-16
0.000164943
2.11757e-15
1.39946e-16
4.57051e-16
1.53874e-16
3.87913e-17
2.40029e-09
2.0377e-15
3.24238e-08
3.20657e-15
8.24227e-16
2.35308e-16
7.6517e-15
1.66539e-16
5.4735e-16
2.24358e-15
5.71221e-15
5.82736e-16
2.16091e-17
9.68559e-16
3.73865e-15
2.38892e-16
2.8615e-15
4.05071e-15
1.30655e-15
9.83622e-16
4.72473e-05
5.03969e-16
2.34977e-16
1.77895e-12
3.13505e-15
9.99288e-16
0.0012471
4.14085e-16
3.72699e-16
2.41026e-15
1.29862e-06
1.2574e-16
9.87432e-16
8.95442e-17
1.93622e-15
3.77748e-16
6.6236e-16
1.37421e-06
6.06203e-17
5.36483e-15
3.3319e-15
1.01734e-16
1.34802e-06
2.5433e-16
1.119e-07
8.73485e-17
6.97352e-18
3.43307e-16
1.4426e-15
2.93833e-16
2.34986e-06
1.87022e-06
4.28402e-16
2.14918e-15
8.6595e-16
3.73092e-16
2.92742e-07
5.52391e-15
1.73108e-07
1.86069e-06
2.1316e-17
4.37575e-17
8.34015e-16
1.8957e-09
7.12939e-17
6.72031e-16
1.50267e-08
9.96613e-15
3.02115e-16
2.91389e-16
3.77622e-07
4.00475e-15
2.25524e-09
2.39918e-15
6.19993e-16
2.70155e-17
6.94692e-16
1.51979e-06
4.85608e-15
3.44069e-17
1.39784e-08
9.97718e-16
2.6141e-06
3.17964e-15
5.13143e-17
3.59841e-15
9.21499e-16
3.32261e-16
9.86068e-17
5.65906e-16
2.72882e-16
0.000493874
7.56492e-17
5.22648e-17
3.5089e-16
1.75392e-16
3.91992e-16
3.63326e-15
0.000953189
4.42417e-08
8.99572e-09
1.83875e-16
2.59046e-16
4.88708e-17
2.96828e-15
2.52877e-15
1.08381e-15
4.13944e-16
5.41192e-17
9.07854e-15
1.6049e-15
5.19584e-16
2.97022e-16
2.61384e-16
2.33753e-16
1.1216e-07
1.10566e-09
1.62231e-16
6.0996e-16
5.19319e-16
2.03305e-15
2.21944e-16
3.5592e-05
3.82018e-16
8.22921e-17
1.6928e-14
1.35414e-16
3.06318e-15
2.2769e-16
2.83254e-15
6.96817e-15
3.09668e-15
4.91671e-16
1.09272e-15
2.59624e-16