/*--------------------------------*- C++ -*----------------------------------*\
  =========                 |
  \\      /  F ield         | OpenFOAM: The Open Source CFD Toolbox
   \\    /   O peration     | Website:  https://openfoam.org
    \\  /    A nd           | Version:  10
     \\/     M anipulation  |
\*---------------------------------------------------------------------------*/
FoamFile
{
    format      ascii;
    class       volScalarField;
    location    "53";
    object      SgRate;
}
// * * * * * * * * * * * * * * * * * * * * * * * * * * * * * * * * * * * * * //

dimensions      [1 -1 -3 -1 0 0 0];

internalField   nonuniform List<scalar> 
59698
(
0.016278
0.00189844
0.00285179
0.00281399
0.0302329
0.00145199
0.00462826
3.39472e-06
1.98067e-09
3.94378e-09
0.000586478
0.000297279
1.58627e-09
0.00229223
0.000356639
4.28654e-07
7.03362e-06
0.000701596
0.000310066
0.000256871
0.00174546
0.0140187
0.000499061
8.81921e-08
0.0422683
0.000382099
0.000348447
0.0100438
0.0091636
0.00743594
0.00477855
0.000600648
6.68049e-08
0.0165341
0.00241509
0.000381813
0.0193435
0.0204284
1.79338e-08
0.0251581
0.00866659
2.30464e-07
0.00375307
0.000643315
0.000402108
0.0322205
0.000680731
0.000729253
0.00315591
0.000359148
0.00151868
0.000296355
0.00206011
0.00273454
0.0114066
0.00026187
0.00132721
0.000211855
0.000806204
0.00282004
0.00522415
0.000502313
0.122309
0.000192967
0.0126056
0.00160291
1.75466e-09
0.000504344
0.00046892
6.77372e-09
6.4631e-07
0.00025356
0.0003633
0.0423521
0.000411954
0.0394857
0.000117483
0.00925136
0.000355289
0.00615297
0.0089075
0.000475572
4.05201e-09
0.000249966
0.00843517
0.000550998
3.55569e-06
9.41513e-07
0.0637508
0.000128885
4.49969e-09
0.0020615
0.0148462
1.81504e-05
7.87902e-05
0.0037511
0.0053809
9.62615e-08
0.000273823
8.5964e-10
0.0769899
0.00179304
0.0162529
0.0153374
0.000208335
0.000564776
0.000607786
0.000130206
2.74615e-09
4.41077e-10
0.000348645
0.000138378
0.0380849
1.56284e-07
1.01086e-07
3.54801e-08
3.61799e-07
0.00366203
3.03155e-07
1.14197e-08
2.36162e-09
0.000704427
2.34159e-07
3.45415e-09
1.68711e-09
8.21775e-09
0.0108077
7.20614e-09
1.28945e-08
3.99421e-07
0.0445225
3.97189e-09
1.10528e-09
0.100107
0.00425643
0.00440009
5.08339e-07
2.53099e-10
0.000181681
0.000130991
0.000259322
0.00231904
0.00269903
0.00265212
1.97061e-07
0.00069292
5.53985e-07
3.93094e-07
0.00465152
0.0293291
0.000299552
0.000434379
0.00153075
2.6368e-07
0.000163098
0.000342348
0.000370005
0.00168833
0.0123955
5.33957e-10
0.000856181
7.99513e-09
0.0164875
0.00165129
0.00338879
0.0345024
0.000847493
0.0718079
0.00202147
0.000413425
0.0120372
1.54606e-06
0.0107947
0.0147581
0.0796001
0.00194555
4.38719e-09
0.00144661
0.000326023
0.00923102
0.00943368
0.0180786
0.0147147
1.16276e-08
0.0459569
0.000236993
0.0114357
0.00247882
1.43206e-10
0.00118285
0.000406092
7.00602e-05
0.00268657
0.0388472
0.00401491
0.00462043
0.00985536
0.0578149
2.69335e-05
0.00769016
0.000227093
0.00628479
0.0211155
6.60252e-05
0.0103635
0.00276855
0.0061339
0.00286767
0.00783379
0.0113704
0.0025549
2.36135e-05
0.00279116
1.56717e-08
0.00407562
0.00348971
4.04138e-07
3.64406e-05
0.0127384
0.00659981
0.00558149
0.00268957
0.000294609
0.0661631
0.000809902
0.0264188
0.00735067
0.00323998
0.00681456
0.157416
7.55322e-09
0.00474694
0.00291379
0.00322679
9.85108e-09
0.00968195
0.0828134
1.90289e-05
8.49353e-07
0.000446627
0.00270682
0.00146777
0.0135543
0.000664542
0.0061277
9.45715e-07
0.00376385
0.226983
0.00122278
0.000440649
0.000702471
0.00162679
0.00062828
0.000233555
0.000394119
0.00238789
0.00601755
0.00128502
0.00348591
2.99945e-09
1.45173e-05
1.81665e-09
0.000393269
0.00592686
0.00472711
0.0473403
0.000232076
1.07309e-07
0.000752983
6.21276e-10
0.000394332
0.0437209
0.000224185
6.86146e-10
0.0180104
0.000205671
0.0015162
0.000509227
0.00205999
1.22096e-09
0.000574135
1.61761e-06
0.000535358
0.104471
0.0487651
0.0202635
0.000135359
0.000647416
0.0727262
0.000444432
0.0911583
0.00234085
0.0005402
0.000185139
0.000320987
0.00283537
0.000356992
0.000803561
0.00423781
0.000154244
0.00272265
2.35945e-09
6.86684e-08
0.000823098
0.000307909
0.000307318
0.0521411
0.00101236
2.02841e-06
0.00034987
0.00196818
4.34664e-08
1.20862e-05
2.38004e-08
0.00193955
0.00514685
0.000403389
0.000392656
0.000829308
0.000805693
0.000341357
0.323663
0.000321046
2.91954e-09
0.0485072
0.0105952
0.000327671
0.00035341
0.000443823
0.000361923
0.00948541
0.00415864
0.0203219
0.204799
0.000430951
1.91607e-05
9.68516e-06
0.000664743
0.00908402
0.00448079
0.0102168
0.00206578
0.00311867
0.00148132
9.68239e-05
1.41487e-09
0.000101466
0.039707
5.03633e-05
0.0020487
0.00797581
1.66386e-08
0.0400965
7.95213e-10
0.244399
0.00217273
0.0140599
1.48998e-08
3.4428e-05
1.82502e-09
2.84424e-07
8.76232e-06
1.1032e-07
0.000893529
1.10904e-10
1.04126e-07
0.00318908
0.00203114
0.000535201
0.0016484
0.0019097
0.000533991
0.00379314
0.000651142
0.00618645
2.97671e-09
0.000225834
2.13147e-09
0.000460529
2.49234e-09
0.000347124
0.000696976
0.000483402
0.00052982
0.000315443
1.97457e-05
0.000211392
0.000544827
7.99843e-10
0.000252274
8.74613e-05
0.000457468
0.00456878
0.00266457
0.0013441
0.00228299
0.0480187
0.00189399
0.00299152
0.000137073
0.00284953
0.00238653
0.00276976
3.8298e-08
0.00153796
0.0043309
0.0849885
0.0282671
2.31675e-05
0.00538519
0.0313282
0.000404302
0.00178324
0.000434527
4.8734e-10
0.0595224
2.0846e-09
0.0102426
0.00240758
0.00184063
0.00303868
0.00226153
0.00252691
0.31058
8.08404e-09
2.11968e-09
7.79278e-09
0.000221024
0.00143403
5.5106e-10
0.000266611
0.00214674
0.0163778
0.00302962
0.00210767
1.42193e-08
1.39529e-08
0.213193
6.80538e-09
0.00317577
1.92329e-07
0.00325739
5.14026e-09
0.000169693
7.49738e-07
0.00239715
0.0700054
4.51205e-10
0.000236304
0.00909178
0.00281145
0.000331627
5.94755e-05
0.0329095
0.000285498
0.000265153
0.108614
1.39151e-09
0.00982661
1.70981e-07
0.0542746
4.78088e-09
0.0160159
0.0133295
2.19317e-09
0.000973303
0.000443599
0.00849189
3.33613e-05
0.00807502
0.00292865
4.41683e-09
2.12679e-10
6.88904e-09
0.000386365
0.000813485
0.00111925
0.0688747
0.00622477
0.00220349
2.42951e-08
0.000498341
7.53879e-05
1.91431e-08
0.00541527
7.58604e-05
0.000114541
0.000118246
0.065697
0.00179298
0.02293
0.0659601
0.00112868
0.000131351
0.058955
2.39581e-05
1.57023e-05
0.00237775
0.00951694
0.000365619
9.72101e-10
0.063868
0.00717647
0.00460308
1.71058e-08
1.11847e-09
8.46682e-08
2.13892e-09
5.46359e-09
0.00315588
0.000582156
0.0747853
0.00726776
5.41926e-08
0.00912826
2.7773e-09
6.87252e-09
1.02466e-08
7.04038e-08
2.48537e-08
0.00545266
0.00378148
5.24691e-09
3.87045e-09
2.18569e-09
0.00126422
0.00950682
0.000793033
0.0107279
0.00390622
2.99407e-09
0.0432855
1.82752e-08
7.15661e-05
0.00151076
3.56503e-10
1.35531e-08
0.00185513
7.33242e-05
0.000384881
0.00974336
0.000250095
5.72722e-07
0.0672665
0.00817896
0.0135202
0.00993038
0.000173358
0.0116904
7.88999e-06
1.89517e-08
2.28922e-09
3.20139e-08
1.91234e-09
0.00057212
1.512e-08
1.92528e-08
0.00117221
0.00689671
0.000446225
0.000768493
1.73486e-09
1.71676e-08
9.39095e-05
5.77506e-07
1.80835e-09
0.0741749
2.34268e-08
0.00552529
0.000539254
0.00287608
0.0011708
1.95778e-07
0.00259397
0.00287299
0.00337863
3.24951e-10
0.00399971
0.00211576
2.31613e-09
0.000732638
3.32088e-05
0.00517013
0.000328479
0.00407279
0.000313357
0.00242753
0.000368613
0.00412176
0.00269049
0.00215923
0.00332705
0.000592786
0.000235495
8.51838e-10
4.31983e-08
9.25946e-07
0.00431051
0.000349776
7.31784e-09
0.00515948
3.36488e-05
2.85994e-09
0.00349772
0.00147849
0.00216489
0.00068258
0.00108758
0.00393248
1.58261e-08
1.29254e-08
0.000547719
1.14189e-08
0.00433998
0.00141787
0.00278955
5.14184e-09
0.225433
1.87826
7.57871e-09
5.02962e-09
0.00059777
0.00213847
0.000970475
0.00247909
4.84361e-05
0.00713259
0.00247
0.00318248
0.00156025
0.00276879
0.000211218
0.000219468
0.00114139
0.000220633
0.00133454
0.000236074
2.95397e-09
0.00156927
0.10983
0.000237508
5.23653e-06
0.00060789
1.45368e-09
0.00243051
0.00381699
0.000149612
0.00244243
0.000174987
1.75325e-09
0.000439475
0.000188112
0.00830267
0.000802005
0.000585478
0.000316707
9.60533e-10
7.89415e-06
0.000326078
0.00202941
0.000307122
0.000814742
0.000888457
0.019621
0.0909722
0.00136298
3.56051e-05
0.00233616
0.00319773
0.0415995
3.86673e-09
2.16314e-05
0.00139767
0.00354636
0.000855989
0.0016711
0.000428464
0.0107887
0.0473357
0.000430636
0.000422882
7.99547e-05
3.53431e-07
0.000378102
0.00140724
1.16115e-10
0.00215125
0.000429725
0.000191327
0.0114154
0.00440704
0.0392829
0.000806907
0.00138577
0.00211549
0.00244234
0.000241981
0.00118074
0.000650598
0.00068979
2.30185e-10
1.0593e-09
0.00660761
0.000822362
0.000400577
1.49052e-09
0.00642571
5.43509e-07
4.4389e-06
2.71896e-09
0.00342885
4.17941e-08
0.000502682
0.000362112
1.05188e-08
0.00196794
0.00914601
4.5762e-07
1.37502e-09
0.000646931
0.062041
0.00322962
5.80986e-07
0.000951544
0.00144724
0.0258113
0.00878681
1.33099e-09
0.0554696
3.67829e-07
0.0025376
0.000344566
0.00941537
6.38361e-05
1.48107e-07
0.0111998
0.00449384
0.00053216
0.00308032
0.0600923
0.000593106
6.91882e-05
0.245578
0.00232588
0.00073992
0.00240006
0.00191819
0.00169842
5.18157e-06
0.0153242
2.57844e-09
0.0600173
0.00317283
0.0245958
7.47232e-10
0.000211164
0.105221
0.238068
0.000599774
4.81036e-07
0.0497442
0.000383647
0.0022463
0.0051952
0.00194772
0.00829775
0.00409253
7.92138e-09
0.000401564
0.00198348
0.0141883
0.000373922
3.5093e-10
0.00268959
2.55042e-09
0.0043269
7.12565e-07
0.000247345
0.00608682
0.00524142
1.23131
3.75464e-09
0.0244496
0.0096975
0.0210544
0.00107274
0.0047782
0.000326092
0.000952172
0.00163083
0.00145242
0.00665364
0.0111402
0.105435
0.00218937
0.00543656
0.000541504
6.99124e-09
0.000383174
0.000378557
0.000253546
1.63308e-09
0.00339481
1.33184e-06
0.00943961
0.000213949
0.000721381
0.00158249
1.6548e-07
0.00679403
3.58346e-09
0.0010044
0.000396687
0.00130403
0.000116343
0.0137135
0.000651795
0.00205108
0.0199208
0.210776
0.000490044
0.00863203
5.81895e-07
0.000671763
0.000444808
0.000428745
0.00378684
0.000843533
0.0074175
0.000561237
0.00627031
0.00248123
0.000389368
0.000401156
0.000175747
0.00024383
3.32236e-05
0.000503648
0.000276212
0.00031177
7.69295e-09
5.10207e-09
1.93654e-09
0.000487234
2.19882e-09
0.00556525
0.00490122
0.00153801
0.000499728
0.00406372
2.09816e-05
2.91828e-09
0.0154665
0.000469636
3.27698e-05
1.32949e-09
0.0357311
0.00488526
0.000881481
0.000214911
7.33108e-09
0.0106295
2.63814e-07
0.00983185
2.8857e-08
0.000532567
0.000483379
0.000128334
0.000694132
2.51355e-09
0.0013419
1.52235e-09
0.00881208
8.98249e-08
0.00208149
0.000108822
0.000353104
0.00163728
0.00165201
0.00059746
0.00192499
1.27189e-08
0.0020259
0.000307136
1.24266e-09
0.0021292
0.000537227
6.3319e-09
0.00430388
3.05451e-09
0.000267041
0.00372522
0.0182941
0.000319936
0.00105476
0.00300146
9.66085e-07
0.00461233
0.000633464
0.000584063
0.00449244
0.000148856
0.000379941
0.00245202
0.00162721
8.57878e-09
0.00261567
1.20139e-08
2.92897e-09
0.0652073
0.00041226
0.00150014
0.00271728
1.49191e-07
2.03912e-09
0.002764
0.00414836
0.00538848
0.0202782
0.00398614
7.11279e-07
0.0410853
9.51575e-05
0.00132869
0.115256
0.00090645
0.00458615
0.00450599
0.0324775
0.0586509
7.37764e-09
0.00254328
1.69903e-09
0.024675
0.000269297
0.000348301
0.00141687
3.9274e-10
0.000761136
0.00244634
0.000579412
0.0019532
0.00682413
0.00282298
0.00328165
8.43735e-05
0.0250168
0.00074338
0.000309122
2.5142e-08
0.000826042
5.68595e-05
0.00245118
0.00106937
2.05443e-07
0.000352283
0.00552439
0.000295102
0.000538483
8.97551e-05
0.0053991
1.45238e-09
9.26849e-05
0.00959203
0.00357765
0.000294122
0.000414359
0.000265216
0.000125859
0.000423807
2.37838e-08
7.52354e-09
0.000429219
0.00234079
0.000466222
0.000397867
0.0141351
0.0190609
0.0178375
1.02328e-05
0.0018415
0.00292368
0.00271756
0.00485034
0.00599759
0.000396588
2.98175e-07
0.00255797
4.38975e-05
0.0110784
0.0566124
0.0019796
0.000443785
2.15497e-08
0.000538422
0.00010596
0.00114645
0.00226121
0.00235089
0.000608739
6.89031e-09
0.000219839
0.00237068
0.00236107
0.00231866
0.00377626
0.0471468
0.000395622
0.00190291
0.00140201
0.0228389
5.66912e-10
0.000397868
1.45203e-05
0.00462504
0.00045477
0.00160384
0.00469943
5.4964e-09
0.00359722
0.0035663
0.00379159
0.00550785
0.00950771
0.0100829
0.0081775
0.00521594
0.00584215
1.31268e-08
0.000148406
0.000475253
0.00599937
0.00474099
0.00222625
5.69141e-10
0.00174187
0.00389711
0.000271467
0.00161393
2.72164e-10
0.0145842
0.000303245
0.0405776
0.00314965
0.737333
0.000473217
1.56283e-08
0.00211454
0.00317141
1.78115e-07
0.00076049
0.00399663
0.00701847
0.00431013
0.000634844
0.00682944
0.000542247
1.04814e-09
0.0197731
0.000765796
0.000924216
0.00115961
0.00267854
0.000322787
0.00112568
3.1179e-09
0.000534597
0.00818508
0.00271105
0.0926035
9.39322e-09
0.0024082
0.0818789
2.58702e-10
0.00874187
0.0027682
0.0251151
0.00130962
0.00363144
0.00118499
3.49203e-07
0.00132822
1.54742e-08
0.00123887
4.22394e-05
1.10643e-06
0.000257922
1.31057e-09
0.00176106
0.00322727
0.00966995
2.93287e-08
0.00224422
0.000533603
0.00017227
0.0362678
0.0546325
0.005054
0.000372529
0.00426294
0.457609
0.0241136
0.026294
0.000242966
0.000449091
0.102518
0.000138645
2.28908e-07
0.000521848
0.0164867
0.000314206
0.00170623
0.000330005
0.00174634
2.99225e-08
0.00460023
0.00901732
0.00288188
0.000648137
0.000735156
0.000477736
2.27594e-09
0.000255693
0.00365448
2.37406e-10
0.00114236
0.000583285
0.00778415
0.000216011
0.109466
0.000265566
0.00118556
2.57099e-09
0.00565443
0.000370449
0.00110387
0.00257034
0.000380629
0.00250677
1.60473e-08
8.1891e-09
0.00285931
3.73552e-08
0.0187493
0.0121411
4.99509e-08
0.0015027
0.0837869
0.00295277
0.00400583
0.000432058
2.25164e-07
0.0037203
0.0361696
0.00891614
0.0026434
0.000182388
0.00193164
0.00336545
0.00299462
0.00373242
0.00537257
7.55329e-09
0.11616
0.0515141
0.000491655
1.19656e-05
4.07447e-05
0.00313268
0.00245709
0.0262705
0.00113088
4.087e-08
0.00230617
0.000371706
2.89525e-09
0.003552
4.2214e-09
0.00268537
0.000918952
0.00147881
0.00375196
0.000192802
0.0198711
0.000348119
0.000434431
0.00364778
0.00413475
0.00204572
0.00209576
0.0118811
0.000579701
0.000345167
0.000376293
0.000262939
9.38089e-06
2.31872e-09
0.00034094
7.15229e-05
9.69255e-05
0.000781456
0.00064699
0.000852375
1.22174e-08
7.97022e-09
3.44833e-07
0.000309369
0.00312984
0.000496402
4.42341e-05
0.000238788
7.28556e-09
0.000315444
0.000232108
0.000223587
0.00392476
0.103531
0.000288928
0.00478208
0.00165989
0.00412346
4.89398e-09
4.28056e-08
7.08602e-09
0.00841266
0.0196943
0.00477744
0.00235754
2.25228e-08
8.8296e-06
0.000377611
0.00474347
0.00946251
1.04658e-08
0.00515339
0.00280619
0.00107392
0.00350813
0.00263997
0.0145812
0.00186463
0.00385109
9.15806e-05
4.63431e-10
1.38938e-09
5.30285e-05
0.00562139
8.2876e-06
6.34248e-10
2.48823e-07
0.00502708
0.000209723
0.00100876
0.00101795
6.07756e-05
0.00191185
0.000352794
0.00389117
3.81124e-05
0.00208838
0.0285816
0.0021328
0.0012178
0.000389198
2.25163e-07
0.00101866
0.000983776
0.0146481
3.18648e-10
1.21733e-07
0.0012611
1.22674e-07
0.000876499
0.000372791
1.50003e-07
6.88472e-09
0.000214998
0.000266221
0.000584269
0.00218846
0.00208093
0.00031702
0.000573612
2.51559e-05
1.07431e-08
0.00545533
0.000204886
6.7782e-10
0.04695
6.58718e-05
8.53486e-07
0.000281118
6.10867e-08
2.02016e-07
0.000547253
3.81639e-07
0.000563699
2.69051e-07
0.000945556
0.000335062
0.00276013
0.00427927
0.0012929
5.07881e-07
0.0631096
0.00239606
2.13596e-07
0.00607341
0.00288633
0.00667435
1.2186e-05
2.29689e-07
0.35211
5.99249e-07
2.46378e-08
6.28198e-07
0.0255427
0.00307102
0.000635586
0.000492192
1.86386e-07
0.00322331
0.0359634
0.00481887
0.00869242
0.0143289
5.59755e-08
0.000340316
1.63232e-09
3.654e-05
0.00832687
0.000746793
0.0750528
4.14939e-10
0.000492365
6.33884e-10
0.000532955
0.00031363
0.000377554
0.0105379
0.0181562
0.000544667
0.0018378
0.00450379
6.08589e-09
0.000233812
0.000995731
0.00200956
0.00039674
0.000805872
0.00750208
0.0106845
0.000591855
0.00168406
0.00266625
3.70914e-05
6.42951e-09
0.000432447
0.0137889
0.0116631
0.00503687
0.0474947
0.00272268
7.69483e-09
0.00524852
0.000179549
0.000681753
0.0010704
0.0222556
0.000285648
0.0204686
0.0115979
0.0342098
1.82226e-09
0.101217
0.00881944
0.00172277
0.00458903
0.0652772
0.000399605
0.00280928
0.00259029
0.00256067
0.00813683
0.00112392
1.1936e-09
3.46126e-08
0.00203182
0.0249192
0.293374
0.000153711
0.0090847
0.000290861
0.00126058
0.000444877
0.189647
0.000623711
0.286057
0.779211
0.000103931
2.23913e-09
1.88896e-08
0.00136705
0.0106205
0.00566814
0.0101736
0.0633571
0.0343949
0.00184265
0.00163722
0.0104009
0.0113493
1.21535e-08
0.00051689
0.000427673
0.000353372
0.000424935
0.000637652
0.138475
0.000273922
0.0029257
0.000398955
0.00308061
0.00201891
0.00221777
4.52658e-10
0.47739
0.0314817
0.185292
0.148503
0.00218243
2.01518e-09
0.00660995
0.00125093
5.52704e-07
0.000761567
0.0855743
9.10266e-10
0.00178725
3.76777e-07
0.000207822
0.0166225
5.48406e-07
0.00854363
8.27383e-07
5.89872e-07
0.00156806
0.000640247
0.00114023
0.0129824
2.9345e-05
0.00242936
0.00136248
0.0180872
4.90766e-09
0.000502802
0.00155083
0.0152699
0.00164807
0.0001657
0.00227139
0.0314226
0.000499067
0.000196445
6.35692e-09
0.00152577
0.00183351
0.00302692
1.45743e-08
3.00565e-05
1.08247e-06
0.0002981
0.0038102
0.00140431
8.20946e-08
0.00269457
8.54829e-10
0.0107008
0.00112942
0.000804582
0.00191733
0.00169965
0.0095428
0.000578459
0.013817
0.000306704
0.000423336
1.17317e-09
0.00037871
0.000405408
0.000581336
0.00196235
7.43762e-07
0.0016319
0.00947797
0.00171315
0.000460526
0.0189431
0.00225148
0.00131071
0.0145103
0.00753806
0.0122576
0.0130732
0.00626267
1.64006e-07
0.320333
0.0620974
0.000809751
0.000573413
0.0146765
0.000909828
0.024218
0.00010387
0.000403276
0.0143599
1.08603e-06
0.00678854
0.000614685
3.03469e-07
0.00757571
6.14018e-07
0.0312208
0.357521
0.00115185
0.0575968
8.36106e-10
0.000256107
0.00435208
1.63886e-06
0.102432
0.00244206
0.0016183
0.000432663
2.47255e-09
0.00337758
0.00279607
5.14054e-10
0.00048912
0.025831
0.000618779
5.798e-05
0.0621194
5.12962e-07
0.00273871
7.8167e-11
0.000345769
0.00237138
0.000151424
1.19437e-09
0.00218538
1.11169e-08
0.00250068
0.000523043
1.87816e-09
7.87417e-08
0.00439219
0.00209886
0.00279807
5.44726e-10
0.00221541
0.000627418
0.00279756
5.0481e-05
0.0315579
4.56875e-08
5.72752e-05
2.74854e-09
0.00162101
0.0371912
5.05251e-09
2.79131e-07
0.000274716
0.00254522
0.000453104
0.00197739
0.295654
2.56647e-09
0.000231597
0.00232274
9.23622e-10
3.77355e-09
3.97771e-08
0.00017571
0.00050253
0.000848039
0.000529724
0.000106047
0.000198248
5.87275e-11
0.0114326
0.000221129
0.000394062
0.00148125
0.00394854
0.00385139
0.0444533
3.28406e-10
0.000172212
0.000123126
8.53142e-05
0.000106776
0.00277737
0.000620072
0.000514078
0.00012008
0.000348243
0.000381681
2.84116e-09
4.27117e-08
8.38581e-05
0.0226782
1.88304e-08
0.00846854
0.000123182
0.0155418
0.00115956
0.000118813
0.000146838
0.00433057
1.68908e-09
0.00408268
0.0193009
0.00222058
6.12609e-05
1.48912e-08
0.000150032
0.000859088
0.000347782
0.00386184
0.0164856
7.16512e-05
0.0104567
1.06558e-09
0.877311
0.44039
0.000109098
0.0412514
9.66625e-05
0.00038925
0.0094058
1.03841e-05
0.60235
0.0443738
0.00757824
0.000619552
0.0283457
0.393268
0.00291597
0.0248794
0.00438168
0.00220353
0.12664
0.044163
0.000575305
0.000956068
0.0260709
0.0486242
0.00414242
0.000310741
0.0324431
0.000205604
0.01406
1.10067e-08
7.19609e-10
0.00659016
0.000174041
0.00421635
0.00392589
0.000681301
0.000129954
0.000304143
1.079e-09
0.00780982
0.00605203
2.80291e-09
0.000441617
0.00172356
0.00228616
0.00402426
0.000384387
0.0115528
0.0633154
4.82669e-05
0.0329984
0.000139546
0.00431193
0.000209948
0.00224438
0.0300926
0.00414988
0.000201461
0.0272727
0.000305387
9.48806e-05
0.000365685
0.000259127
0.000626649
0.00752515
0.0258772
0.014736
0.00743252
0.00554141
0.00104844
2.01466e-06
0.000886349
0.00010324
0.00412794
2.77404e-06
0.00482381
0.000320271
0.000114493
0.00159443
0.00168252
0.00195573
1.71877e-08
0.0102569
0.0018736
0.000185828
0.00338135
0.000276256
0.00183769
0.000459318
0.00681899
0.00264542
0.00504246
0.000446671
0.00636919
0.00269808
4.97863e-05
0.00238884
0.00311905
0.00187707
0.00153615
4.3865e-09
6.21596e-09
5.22585e-05
0.0345819
0.00179486
0.00703192
0.00183891
8.07749e-06
0.00334703
0.00835381
0.00228173
0.00257919
0.00361815
1.05893e-06
0.00171755
0.00189341
0.000171181
4.10866e-05
0.00299999
0.00265272
0.00799277
0.0290188
0.0016731
0.000339987
0.00299389
0.00033002
0.00426609
7.4788e-05
0.00616858
0.000346797
0.00278699
1.46862e-08
0.00073205
0.000929165
0.007213
5.22143e-09
0.0200758
0.00612091
4.15019e-08
0.00138792
0.00158561
0.000251659
1.656e-09
0.00249034
0.021878
1.61191e-09
0.0377449
0.00208461
3.62314e-08
5.37724e-09
0.00188565
3.25314e-09
0.000869634
0.0137201
0.0232153
0.00208202
0.0118266
0.00153794
1.7717e-08
0.00440697
0.0144443
0.000446909
0.00163062
5.0509e-08
0.0827271
0.0418529
1.50515e-05
0.00243881
0.00154787
1.9451e-09
3.24605e-09
0.03376
0.00860403
0.0158617
7.66675e-09
0.00100664
5.62591e-09
0.0193057
2.49437e-09
0.00337874
6.55509e-09
0.00104537
0.0203003
0.000390538
0.000399885
0.00444293
0.00150091
0.00265809
0.0016069
0.0235137
0.000228147
0.00208242
0.0200097
2.05286e-05
0.000410058
0.000438176
0.00036485
0.00236961
0.0134357
0.000463652
2.30279e-08
5.2952e-05
0.00141075
8.52706e-09
9.74391e-10
2.10917e-07
2.66758e-09
4.8567e-07
3.63889e-05
0.0116597
0.00500061
0.000370932
0.000460561
0.000291391
0.0622789
4.03214e-10
4.99766e-09
0.018131
0.00279886
0.00186041
0.00331785
0.000518424
1.49307e-07
0.018412
0.00216605
0.0229837
0.000777578
0.0498204
0.0142164
0.000125193
0.0258307
0.00326307
0.0892497
0.00748646
5.61906e-09
3.54399e-05
0.257293
0.00673869
0.000992526
0.00310683
0.000161755
0.00330321
0.0308574
0.010893
0.00292605
0.144631
0.00635003
1.35797e-09
0.0178827
0.0638764
0.0348749
0.00132662
0.00261924
0.00021057
0.00310834
0.000677717
0.0190871
0.0196912
0.000894221
0.0523296
0.023043
0.000619352
0.00262219
0.013682
0.00325257
0.000720098
0.0505616
0.00260989
0.00011071
0.0108463
0.0108122
0.0217115
0.00261625
0.000270424
0.00279052
0.0163242
0.000358078
7.33136e-05
0.173003
0.00334549
0.00123212
0.00159673
4.65845e-05
0.00434329
2.63961e-09
0.0185496
0.0027469
0.0140727
2.50653e-09
0.00559967
1.12171e-08
0.0164761
0.000301495
2.82514e-09
0.00872191
0.00252145
0.00664194
0.00772928
0.00210999
0.0158804
0.000134411
0.0156198
0.00665205
0.00928591
0.0564009
0.00557573
0.0290287
0.0344803
0.0168882
0.00114036
0.00453722
0.00265367
0.00098175
0.000918162
0.00398204
0.00222188
0.000647688
9.88306e-09
1.34158e-07
0.00255986
0.00134051
0.00128
0.0538712
0.00324791
0.00276114
1.4578e-09
2.36225e-05
0.000451746
1.05073e-08
0.00258981
0.0298255
0.00253811
0.00192645
1.48087e-08
0.0170383
0.00255107
4.92789e-09
4.76774e-09
0.000215932
0.0347677
0.00679963
0.00051834
0.00229922
0.00447556
0.000219016
6.51146e-09
0.00488043
0.000429646
6.7252e-07
1.66489e-10
1.04728e-09
0.00187328
0.00221626
0.00104435
0.00865562
0.103127
0.000248768
9.09746e-10
0.00356686
0.000722528
0.011119
0.00241121
1.82981e-08
2.08941e-08
0.0031944
9.81944e-09
0.0101039
0.0744422
0.0453439
0.000171623
0.000525015
5.75163e-08
5.50173e-09
0.00263419
0.00392875
0.000449806
0.00273634
0.0142869
0.0019283
0.000276857
0.00230917
0.0004194
0.0297766
3.39794e-09
3.70091e-08
0.0109957
0.0023437
0.000563393
0.0046812
0.000617563
0.000105231
0.000506465
0.00260231
0.0226617
3.99363e-10
0.000113611
0.000299384
0.00700941
8.17526e-05
0.000695806
3.58336e-09
0.00127979
0.0096022
3.64226e-05
0.028578
1.03016e-09
5.05528e-05
0.00238712
7.53109e-05
0.000337835
0.00346495
0.0011896
0.00239814
7.57427e-07
0.00181587
2.12004e-09
9.83699e-10
0.00226745
0.00329107
0.00437438
0.300285
0.00164028
0.000952285
0.00223023
0.00295713
0.000284388
0.00024742
0.00373408
0.00215486
0.00308859
7.14098e-05
0.000905672
0.0140167
0.00278919
0.111992
0.000866466
0.0101092
0.0102926
0.0124127
0.00125937
8.80778e-10
6.36494e-09
9.68701e-09
9.92808e-05
5.0706e-09
0.000257515
0.0116884
2.82822e-11
3.36755e-09
0.00374659
5.79984e-09
1.68448e-09
0.0149525
0.00196553
0.00289324
0.00190871
0.00230997
1.47197e-08
0.00159013
2.34087e-06
0.0241998
0.0135311
0.0101566
0.00191126
0.000139482
0.00158414
7.18366e-07
5.80417e-06
6.03324e-07
1.41374e-07
0.00164399
0.0110535
0.00698086
0.00145373
0.00184779
0.00227229
0.00232586
0.00176684
0.00034192
0.0041245
2.90622e-09
4.90671e-05
7.58968e-09
1.38844e-06
0.00277225
6.76114e-05
0.000333755
0.00227629
2.3013e-09
8.31335e-05
7.70554e-07
3.15502e-06
0.0532931
0.00048547
0.000675329
6.58693e-05
0.00312037
0.00221378
0.00192053
0.00343532
3.95691e-05
7.52509e-07
0.00105424
2.76321e-05
0.0194783
0.00321192
0.0242161
0.00160146
0.0512313
0.000121793
0.00123652
8.25201e-05
4.18292e-08
0.00373574
0.000504988
0.0014245
0.000104202
0.00253187
0.0193368
0.00166021
0.00232931
0.00882342
0.00239375
0.0107959
0.00358591
0.00163486
0.000932918
0.00502519
0.0296217
0.000302088
4.98676e-10
0.0632109
0.00891553
0.00644681
4.21153e-05
0.0649637
0.00193767
0.0150435
3.2295e-05
0.0172482
0.00346022
0.00136157
0.00245142
0.00235283
5.49537e-09
0.0403228
0.0144404
0.0145876
0.00314582
0.00232179
0.00184179
0.00333211
0.000927244
3.24663e-09
0.00166365
0.00313811
2.92429e-08
8.92629e-05
0.00169066
0.0359874
0.00308661
0.000347887
9.7137e-08
0.000406706
0.00169092
0.000455905
0.00151585
0.000733168
1.50995e-06
0.0141054
0.000251709
0.000666114
0.00205663
0.00125152
0.000126851
7.97484e-05
0.000176662
0.00205098
0.0029399
3.5111e-10
0.000108273
0.000670915
0.000159659
1.12545e-06
0.0167574
0.000216305
0.00329391
0.00177778
0.00150531
0.00210992
0.00694677
0.00424027
0.000587332
0.00398077
0.000504162
0.00228538
0.00437088
7.99893e-06
0.0074638
0.000391412
0.00296576
0.00187702
0.0994616
6.69024e-09
0.000113341
0.000694437
9.28653e-09
0.00137848
0.00297235
0.000143344
4.35357e-05
0.00138087
0.0054147
0.000584237
0.00287249
3.5258e-07
0.000463416
0.00954892
0.00241573
0.00014798
0.00236101
8.47871e-08
0.00421196
0.00337735
8.01547e-08
0.000178069
0.00365697
8.94912e-09
8.50529e-07
0.000344637
0.000202952
0.120521
7.09227e-06
0.000564947
0.00313777
0.000136202
0.0118092
1.58349e-05
0.0027429
5.53675e-05
0.000127017
0.000522084
1.869e-05
0.000192195
0.00295155
4.60561e-06
0.000140582
0.000122354
0.018513
0.000602397
0.000256131
0.000357911
0.00217764
9.58814e-05
0.00310336
0.00455137
5.05289e-09
0.000360672
3.05588e-09
0.00116722
1.56921e-05
0.0124474
0.000320438
0.00158134
0.00219186
0.000126782
0.084305
0.000383046
0.00306151
0.00110986
4.81036e-08
0.00236926
0.00499226
0.0267104
0.0113159
0.000410463
0.000393609
0.0379224
0.0399398
0.000563895
0.0179465
0.0084255
0.000392978
2.378e-09
0.000636407
0.000341713
0.000317074
0.000460452
0.00438057
1.07886e-07
0.00016311
2.68574e-05
5.81066e-05
0.00604697
7.74305e-05
0.00247051
1.35276e-08
1.38969e-08
0.000192539
1.22014e-07
1.66352e-09
1.00118
0.000184397
0.0193798
0.00305
1.69419e-07
0.000297091
0.0177271
0.00188686
7.15015e-09
0.00238243
0.00567141
3.69996e-08
2.35808e-08
0.00040501
3.19842e-09
0.00223011
0.000555587
0.00249031
0.00487015
5.78083e-06
6.95855e-05
0.0198582
0.00283632
0.00306253
0.000394486
0.00355663
9.60547e-05
9.34538e-05
0.0023701
0.00924421
0.012603
0.00603936
0.000756061
0.00017774
0.00252335
0.00190857
0.0020253
0.00267388
0.000228541
0.000310609
0.00367101
0.00168972
0.0033308
0.00270957
0.000751722
0.00464593
1.0792e-09
1.47241e-09
0.0227795
5.12678e-09
0.000903245
0.0020939
0.00330011
0.00977896
0.00385203
0.000243337
0.00710521
0.00311599
0.000124844
0.00330754
1.49595e-08
1.32338e-08
1.85214e-08
0.00361841
0.0129068
4.63621e-08
0.00605118
0.00160336
0.150614
0.000168026
0.00372693
3.06275e-05
0.0121111
8.78035e-10
8.4914e-05
5.51994e-09
0.0221811
8.81765e-09
0.00275057
0.00261257
0.00311648
0.00675121
0.0021566
0.00219509
0.0168383
0.00689201
8.1906e-09
1.31654e-08
0.0122747
1.67714e-07
2.94573e-07
0.0018989
0.00359213
0.00189024
2.08507e-05
1.67067e-05
0.00467329
0.00326362
0.00206791
7.12361e-05
0.00320046
0.00190185
0.000624957
7.57245e-05
3.83617e-09
0.00269389
0.0185953
0.00284627
0.00155259
0.00710832
0.000488985
0.0313593
0.00131663
0.00745809
0.000252332
1.42822e-08
0.000236599
1.46007e-08
0.000447336
1.02305e-07
2.70213e-08
0.00365842
6.57568e-07
0.0372171
0.000767074
0.00788019
0.00214078
0.00739058
0.0033128
0.0148797
0.0174783
0.00141442
0.00977209
1.0465e-05
0.000377283
0.00130019
0.00182324
0.000201857
0.00404145
5.4297e-08
0.00306708
0.000100722
0.00265415
2.77172e-08
0.00265527
0.00144597
0.000427446
0.0266009
0.00016186
0.00149314
2.44829e-08
3.71368e-05
0.000153277
0.00541461
0.00245487
0.00224449
1.85413e-08
0.00159423
0.00312458
0.00038705
0.0157531
0.0133599
6.16806e-09
0.000208166
0.00173925
9.9809e-05
0.000287518
0.000471253
0.00044858
2.37093e-05
0.00320183
0.000450425
0.00536048
0.000526666
0.00116388
0.000538889
0.0083873
0.00525751
0.00881763
2.49474e-08
0.0541582
0.0218869
0.09729
0.001864
0.000145744
1.52958e-09
0.000293875
0.00674486
0.0102143
0.0296567
0.0246724
2.33e-08
1.42803e-05
0.00779891
0.000402906
0.0173953
0.301462
0.0171222
0.000345797
0.000448942
0.0160249
0.00159663
5.39075e-06
0.00072511
0.162312
1.3753
6.9358e-05
5.37667e-08
6.03712e-08
0.00486264
0.00104619
0.00185775
0.00269366
0.00197332
0.00438796
0.000880921
0.00222072
5.07141e-09
0.00280633
0.0027407
0.00256446
0.000443628
1.08311e-08
4.46516e-06
0.00470037
0.0144711
0.00403861
0.00258945
2.45827e-08
0.00159768
0.00137036
7.11372e-05
2.18472e-09
0.00871703
5.27085e-09
0.0314453
0.000106934
0.0488781
0.0149708
0.000243516
0.00495066
1.00204e-05
0.00234744
0.000326727
0.000872216
0.0839803
0.000365438
3.11064e-08
8.28122e-06
0.00388124
0.00341789
0.00150946
0.000988802
0.000977697
0.00126156
0.00104056
0.00182541
2.05588e-07
0.068017
0.0265318
0.00285211
0.00150513
0.00287542
0.0669668
0.0119623
0.00409529
0.000286959
0.0072116
0.00268027
8.13065e-05
8.20685e-05
0.0048125
0.00681702
0.0171949
0.00520548
6.8424e-09
0.00455066
0.0373164
0.0246
0.00323976
7.65526e-05
8.1699e-05
0.0398283
0.00146017
0.0102377