/*--------------------------------*- C++ -*----------------------------------*\
  =========                 |
  \\      /  F ield         | OpenFOAM: The Open Source CFD Toolbox
   \\    /   O peration     | Website:  https://openfoam.org
    \\  /    A nd           | Version:  10
     \\/     M anipulation  |
\*---------------------------------------------------------------------------*/
FoamFile
{
    format      ascii;
    class       volScalarField;
    location    "53";
    object      SgT;
}
// * * * * * * * * * * * * * * * * * * * * * * * * * * * * * * * * * * * * * //

dimensions      [1 -1 -3 -1 0 0 0];

internalField   nonuniform List<scalar> 
59698
(
0.013183
2.76894e-11
0.000510259
1.35566e-06
0.0302317
8.1759e-18
0.00213131
3.28365e-06
9.78343e-17
3.88951e-17
7.11215e-16
0.000297278
2.50343e-18
6.00378e-06
0.000356611
1.54729e-16
7.02422e-06
0.000701592
0.000310065
0.000256871
0.0013802
0.0140172
1.20039e-07
3.25225e-18
0.0422681
0.000382098
0.000348446
0.00756229
0.00676989
0.00743594
0.00477842
2.36794e-17
8.09245e-16
0.0124985
0.00241398
0.000381809
0.0188782
0.0204279
2.92887e-16
0.0227046
0.00866656
1.82266e-18
0.00375305
0.000643291
7.99706e-18
0.0322204
0.000680729
0.000729204
0.000247427
0.000359116
0.00151868
0.000296352
0.000331644
5.14251e-06
0.00923871
0.000261868
0.00132713
0.000211839
0.000806186
0.00279268
0.00344119
0.00050225
0.122309
0.000192965
0.0126051
0.00160286
4.56512e-17
0.00050434
0.000468916
1.86313e-15
7.87834e-10
0.000253532
3.54305e-06
0.0423505
4.45812e-19
0.0394845
0.000117462
0.00925134
0.000355283
0.00615296
0.00890702
0.000475571
3.67721e-17
0.000249958
0.00841818
0.000550966
3.54655e-06
7.09774e-07
0.0637484
0.000128862
6.73077e-16
0.00206144
0.014846
1.81438e-05
7.87297e-05
0.000159623
0.00538077
3.20051e-08
0.000273774
2.14546e-18
0.0734525
0.00177229
0.0162526
0.0120431
0.00020828
1.09432e-16
0.000607784
0.000130204
1.6527e-17
9.29525e-17
0.000348606
0.000135677
0.0380836
1.89571e-18
3.35501e-16
3.8322e-16
9.56676e-16
2.85304e-16
3.53908e-16
2.4165e-17
4.41762e-16
0.000704128
3.57214e-16
1.38034e-16
9.23252e-16
2.93895e-16
0.0108076
2.06769e-17
8.36523e-17
2.75198e-17
0.0411668
5.02381e-17
1.3233e-16
0.100107
0.00425637
0.00440009
3.26266e-16
1.13172e-17
0.000181679
0.000130986
0.000259301
1.40353e-06
0.000178109
0.00265211
3.32864e-16
0.000692919
3.3774e-16
1.00938e-15
3.87601e-16
0.0293284
4.24195e-05
1.45017e-16
0.00153072
2.69368e-17
0.000163088
0.000342243
0.000369998
2.78394e-12
0.0123954
3.74996e-16
0.000856178
8.7815e-17
0.0164875
0.0016512
0.00338877
0.0322738
0.000847492
0.07124
0.000496231
0.000413418
0.0120369
2.3315e-08
0.0107944
0.0147572
0.0795995
0.000726508
5.34378e-18
5.05942e-05
3.95119e-17
0.00629872
0.00943142
0.0180778
0.0147143
7.91258e-17
0.0459566
0.000236925
0.0114354
9.82349e-05
1.62669e-16
0.00118283
0.000406086
7.00532e-05
0.00268655
0.0388466
0.00401479
0.00033857
0.00985361
0.0548715
1.41939e-05
0.00769007
1.10635e-15
0.00628412
0.0211155
6.60226e-05
0.00679638
0.000321655
0.00613386
0.000809584
0.00512605
0.00786784
0.000128086
2.36074e-05
0.00016386
2.82429e-17
0.00407562
1.60534e-16
3.93901e-07
3.63952e-05
0.0127383
0.0065998
0.00556782
0.000515155
0.000294608
0.0661626
0.000809893
0.0236718
0.00735065
0.00323997
0.00681451
0.157415
2.94244e-16
0.00474692
0.00291378
0.00322678
1.0285e-16
0.00968194
0.0828131
1.90094e-05
6.66317e-07
0.000446619
1.50909e-16
0.00146765
0.0135543
2.92791e-18
0.00612769
7.22891e-07
0.0037409
0.226979
0.00122278
0.000440644
0.00070241
0.00162678
0.000628249
1.6643e-15
0.0003941
0.000688923
0.00601744
0.00128496
0.0002931
1.06866e-16
6.84423e-06
1.05307e-16
0.000393262
0.00321821
0.00114912
0.0473394
0.000232075
1.84421e-15
0.000752963
2.03925e-16
0.000394329
0.0437194
0.000155125
1.9972e-16
0.0180103
0.000205621
3.41216e-17
0.000509188
0.00205998
1.19833e-16
3.56757e-16
1.61578e-06
0.000535356
0.10447
0.0454154
0.0202634
0.000135353
3.43036e-10
0.0727259
0.000444331
0.0911557
1.58322e-05
0.000540191
0.000185137
0.000320283
3.91264e-06
0.000356992
0.000803409
0.00423779
0.000153582
0.00272264
2.0328e-17
1.64233e-17
0.000823098
0.000307908
0.000307317
0.0521408
0.00101234
2.02306e-06
0.000349869
1.07361e-16
3.00875e-16
1.20822e-05
1.89909e-17
2.45126e-05
0.00514684
1.78567e-17
0.000392648
1.33587e-17
0.000805608
0.000341262
0.323663
0.000321029
4.33483e-17
0.0485058
0.0105949
0.000327654
0.000353402
0.000443822
2.22888e-17
0.00658554
0.0041586
0.0203216
0.204797
2.73445e-16
1.91504e-05
9.6774e-06
0.000664739
0.00908388
0.00325986
0.0102168
3.68719e-06
0.000571402
0.00148131
9.67235e-05
6.60485e-17
0.000101466
0.0397057
5.03619e-05
1.48182e-05
0.0079758
1.46022e-09
0.0400953
5.6654e-19
0.244398
0.000257136
0.0140571
1.36951e-17
3.43951e-05
3.33199e-17
2.62674e-07
8.75148e-06
2.16463e-15
0.000893526
7.11031e-17
5.5588e-19
0.000356572
1.3972e-05
0.000535172
0.00164742
0.00190958
5.71193e-16
2.2063e-09
2.16173e-17
0.00618643
5.27354e-18
0.000225797
2.11632e-17
6.24132e-17
1.41832e-15
7.87563e-19
0.00069693
0.000483358
0.000529768
0.000315442
1.29834e-05
0.000211381
2.84898e-17
2.34339e-16
0.00025224
8.74402e-05
1.01478e-17
0.00126816
0.00266457
0.00129046
0.000485295
0.0480151
4.07754e-08
0.000218299
0.000136989
0.000410795
2.16641e-05
0.000123696
3.26715e-08
1.98708e-07
1.91443e-08
0.0811497
0.0255048
2.31615e-05
0.00538436
0.031328
1.5853e-17
0.000145765
6.20199e-16
9.30314e-18
0.0595222
3.43442e-16
0.0102404
0.000509801
8.36479e-05
0.000116658
1.51733e-16
3.529e-05
0.308911
7.53282e-17
1.16146e-16
2.99118e-15
0.000221006
2.29618e-11
3.24229e-16
0.000266603
0.000187337
0.0152125
0.0030296
0.00210763
1.47007e-16
6.34013e-16
0.211934
3.35107e-09
0.0010574
1.70545e-18
4.67538e-05
6.50287e-16
0.000169648
5.56858e-07
0.00239512
0.0700054
1.73525e-17
0.000236301
0.00909165
0.000195902
0.00033162
5.9403e-05
0.0329076
0.000284888
0.000265037
0.108613
3.15179e-17
0.00982545
6.48615e-16
0.0542745
3.6779e-14
0.012807
0.0133294
7.37853e-17
0.0009731
0.000443248
0.00849188
3.33175e-05
0.00807501
0.0004539
1.93192e-16
3.68276e-16
4.20157e-17
0.000386302
0.000811448
0.00111844
0.0688747
0.00321572
0.000257208
1.75756e-14
0.000498127
7.5372e-05
8.63812e-16
0.00541502
7.58192e-05
0.000114497
0.000118226
0.065697
0.00179298
0.0229298
0.0659597
0.00112868
0.000131309
0.0549341
2.37451e-05
1.56865e-05
8.89243e-06
0.0095169
1.0084e-16
8.57831e-17
0.0638678
0.00717627
0.00460307
2.41358e-16
1.09917e-16
4.31171e-16
6.27633e-17
1.59252e-14
0.00315587
0.00058215
0.0747853
0.00726641
3.48145e-18
0.00912825
1.76607e-14
1.55228e-17
3.82351e-14
7.13005e-18
2.84128e-17
0.00545264
0.00378148
3.62238e-14
2.72001e-17
6.90649e-17
0.00125789
0.00950679
0.00079303
0.00733046
0.000198115
9.20715e-17
0.0394546
1.43953e-17
7.15605e-05
7.44003e-06
1.89219e-16
1.00267e-19
6.67786e-05
7.33223e-05
3.13296e-17
0.00974332
0.000250093
5.26086e-07
0.0672635
0.00817894
0.0135202
0.00992145
6.18473e-06
0.0116903
3.8776e-07
2.13414e-11
9.19146e-17
2.51894e-11
3.13258e-17
0.000572115
5.48907e-11
2.90612e-16
0.0011722
0.0068967
0.000446223
1.66098e-16
1.36552e-15
2.27075e-11
8.35752e-05
5.61833e-07
1.31384e-17
0.0741737
1.88206e-11
0.00552528
1.61835e-15
0.00287608
0.00117079
2.56794e-16
0.00259397
0.00287295
0.00337863
1.13981e-16
0.00399971
0.000112312
1.05771e-17
2.02681e-18
3.31685e-05
0.00196286
0.000328463
0.00407278
1.40733e-16
0.00242753
0.000368599
0.00412175
0.00269047
0.00215923
0.000159596
0.000592777
0.000235478
6.47362e-17
1.50913e-10
1.22602e-12
0.00166235
2.83178e-18
2.80428e-17
0.00515947
3.36472e-05
8.51235e-16
5.28131e-11
0.00147848
0.00216488
0.000682578
1.29166e-17
7.64454e-05
7.04689e-16
3.54703e-16
0.000547717
6.94105e-16
0.00433997
0.00141787
0.00278955
1.10188e-16
0.225433
1.87818
5.95464e-16
3.10804e-16
0.000597762
0.00213845
0.000945158
5.98129e-05
4.84252e-05
0.0044691
0.00247
0.00318247
0.00156025
7.41387e-05
5.79118e-17
0.000219467
0.00114138
0.000220633
0.00133451
0.000236068
1.60426e-16
8.78945e-15
0.106593
0.000237377
5.07405e-06
5.15356e-16
8.12204e-17
0.0024305
0.00381699
0.000149188
0.000335323
0.000174953
4.87971e-17
5.232e-17
0.000188104
0.00830264
0.000802002
0.000585476
0.000316703
1.54474e-16
2.78912e-07
0.000326077
0.000209023
0.000307072
0.00081463
0.000888451
0.0196195
0.0909687
0.00136298
3.55843e-05
2.79295e-05
8.75447e-05
0.0415994
4.11856e-18
2.08735e-05
0.00139767
0.000108923
0.000855988
0.00167108
1.86062e-18
0.00823465
0.0473357
0.000430634
0.000422685
7.9367e-05
2.56504e-19
5.16799e-17
1.08744e-05
1.10963e-16
0.00215124
0.000429724
0.000191323
0.00864088
0.00440702
0.0362539
0.000806897
7.04333e-05
1.94206e-05
7.79798e-05
0.00024192
0.00118073
2.35585e-17
0.000689789
2.61172e-17
1.39616e-16
0.0066076
0.000822343
0.000400572
2.40099e-15
0.00642561
4.73828e-07
4.43124e-06
9.4499e-17
0.00156492
1.71047e-18
0.000502647
9.97791e-16
2.41054e-16
0.0019679
0.00914597
4.5561e-07
3.65721e-15
1.45447e-16
0.0600779
0.000814716
5.7697e-07
0.000951532
0.00144723
0.0258111
0.00684106
1.57205e-16
0.0554691
3.41015e-07
0.00252435
1.06593e-17
0.0077167
6.3611e-05
8.00862e-19
0.0111998
0.000185483
1.11125e-15
0.00308031
0.0600914
0.000593102
6.91198e-05
0.245575
6.22442e-06
0.000739896
0.00239994
0.00191809
0.00168261
5.15663e-06
0.0134677
5.80709e-16
0.0600172
0.00317281
0.0224658
2.35712e-16
0.000211157
0.105221
0.238064
8.27737e-16
3.6788e-07
0.0497441
1.69307e-17
0.00224625
0.00519519
4.15467e-05
0.00610116
0.00409253
4.78359e-16
6.01528e-16
0.00198347
0.0141883
3.01782e-16
1.31321e-16
3.5467e-05
8.15631e-17
0.00432688
5.24256e-07
0.000247341
0.00608678
0.00524138
1.23126
3.0758e-16
0.0244496
0.0096975
0.0210544
0.00107264
0.00477819
4.25827e-17
0.000952165
0.00163081
7.18425e-07
0.00665358
0.0111401
0.105425
0.000319066
0.00543416
3.69553e-16
1.37564e-16
4.34679e-16
0.000378541
0.000253542
8.17209e-16
0.000234207
9.38968e-07
0.00943957
0.000142755
0.000721316
2.80414e-06
2.30235e-16
0.00678419
1.76305e-16
5.37677e-18
0.000396684
8.1133e-11
6.27548e-05
0.0137132
3.90262e-17
0.000242573
0.0199196
0.210765
0.00049004
0.00863089
5.55734e-07
0.000630913
1.16221e-16
4.85399e-16
0.00167506
0.000843497
0.00741746
1.05184e-17
0.00627027
0.000144504
0.000389367
5.52804e-17
0.000175744
0.000243827
3.78004e-06
2.0653e-15
6.98476e-05
0.000203132
1.31605e-15
2.89949e-17
1.43868e-15
1.71388e-15
5.57019e-17
0.00205721
2.20317e-06
0.00153801
8.7271e-17
0.00406372
2.09805e-05
4.22829e-17
0.0154634
5.66854e-17
3.27667e-05
2.62382e-16
0.03573
0.00488526
0.000881369
0.000214907
4.23875e-09
0.0106294
2.23586e-18
0.00983182
1.80949e-08
9.18629e-17
0.000483379
7.98676e-07
0.000694132
8.71884e-17
9.94163e-05
3.09538e-17
0.00880434
1.42762e-18
0.00208149
3.2875e-18
0.000353092
6.56701e-05
0.00165199
0.00059746
0.000179174
6.8299e-09
0.00202589
3.70377e-17
1.58218e-16
5.16045e-09
0.00053721
4.85869e-09
6.46382e-05
2.35308e-17
0.000267036
0.00372521
0.0182941
9.77995e-18
0.00105475
0.00300146
7.95193e-07
0.00280327
1.97255e-16
2.71363e-17
0.00449242
0.000148855
1.79582e-18
5.90292e-16
0.0016272
1.40154e-17
0.00261562
6.2827e-16
1.51424e-17
0.0652073
1.20273e-16
2.12978e-16
1.98215e-16
4.5761e-17
2.64887e-17
8.7067e-17
2.83893e-16
2.05419e-16
0.0202782
0.00398612
5.51623e-07
0.0410849
9.51395e-05
0.00132866
0.115256
0.000906421
0.00458615
0.00450598
0.0324762
0.0586509
3.48868e-16
9.55723e-07
2.29599e-17
0.024675
0.000269278
0.000348273
0.00141686
2.32006e-18
3.34609e-17
0.00244633
0.000579409
1.64548e-05
0.00682411
0.00282295
6.24915e-16
8.43443e-05
0.0250164
0.000743375
0.000309101
8.18041e-16
4.20866e-14
5.68287e-05
0.000247761
0.00106919
3.76578e-16
0.000352246
6.22697e-16
6.98931e-18
0.000538479
8.97496e-05
0.0053981
1.11327e-16
9.26737e-05
0.00959202
0.00190415
0.000294121
0.000414357
0.000265208
0.000125856
0.000423771
5.12803e-16
1.89833e-16
8.65163e-17
0.000147965
1.35464e-18
0.000397804
0.0109938
0.0164973
0.0178375
1.0231e-05
8.5333e-06
0.00291725
0.00117132
0.00276808
0.00396623
0.000396585
2.37217e-07
0.000179554
4.37028e-05
0.0110783
0.0566122
0.00197957
3.9056e-17
4.08191e-17
1.79906e-18
8.90163e-05
0.00114642
0.000299748
0.00235087
3.29207e-16
2.61945e-16
0.000219823
0.00237068
0.00236103
0.000782431
2.68605e-16
0.0471468
8.06395e-17
1.57804e-05
3.89559e-07
0.0200568
2.46449e-17
0.000397858
1.45191e-05
0.00107145
0.000454769
0.00160371
0.00113928
1.43899e-16
1.33778e-11
5.02497e-05
2.00303e-09
0.00550784
0.00950765
0.0100829
0.00817749
0.00521592
0.00584209
4.17209e-12
0.000148401
3.82879e-17
0.00599937
0.00474096
0.00222597
3.93085e-16
0.000118631
0.00389708
0.000271463
0.00161386
5.33093e-17
0.0145842
0.000303241
0.0405774
8.36053e-05
0.737302
0.000473216
2.51028e-17
1.36031e-05
2.20468e-05
7.3917e-16
2.27444e-10
0.00399662
0.00701846
0.00173637
0.000634822
0.00360871
1.06363e-16
4.46483e-18
0.019773
8.65708e-16
0.000924199
0.00115959
0.000176868
0.000322781
0.00112566
7.50451e-17
1.26291e-16
0.00818193
0.000779743
0.0926033
1.19674e-15
0.00065798
0.0818788
7.78721e-18
0.00873591
0.00276819
0.0251144
1.5766e-05
0.00363144
0.00118499
3.3745e-07
0.00132822
5.12233e-19
0.00123887
4.22268e-05
7.11767e-08
0.000257921
1.78892e-17
1.13477e-07
0.00322727
0.00966452
8.16496e-17
0.00224034
0.000532276
0.000171098
0.0362625
0.0546313
0.005054
0.000372513
0.00325987
0.457606
0.0241136
0.026294
0.000242941
1.31223e-17
0.102516
0.000138567
1.10342e-17
0.000521844
0.0142243
0.000314201
0.00170621
0.000329984
0.00174633
3.38687e-18
0.00247463
0.00901726
0.00288185
0.000648119
0.000735151
7.20008e-18
8.14096e-17
0.000255688
0.00365445
3.00679e-16
0.00114236
0.000583279
0.00778414
0.000215998
0.109132
0.000265554
0.00118555
2.71761e-11
0.00565441
0.000370437
0.00110386
0.00257028
2.00225e-17
5.46453e-11
6.61595e-11
3.52296e-11
1.44635e-05
3.5635e-08
0.0187061
0.0101107
4.48081e-08
0.00150198
0.0837853
0.00108618
0.00400581
0.000432026
2.47981e-16
0.00370289
0.0361687
0.00891593
0.0026434
0.000182385
0.00193123
0.00336534
0.00299461
0.00373242
0.00537256
1.99136e-17
0.116157
0.0502199
0.000491591
1.19297e-05
4.06935e-05
0.000486347
8.07188e-06
0.0262695
0.00113087
6.97202e-09
0.00230613
0.000371702
2.90365e-17
0.00355182
2.3881e-18
0.00268533
0.00091895
0.0014788
0.00375193
0.000192799
0.0198707
0.000348116
1.42877e-17
0.00364768
0.000186712
0.000393703
0.00209565
0.011881
2.91662e-17
2.71932e-17
0.000376265
0.000262915
3.38094e-10
1.06343e-15
0.000340938
7.14992e-05
9.69082e-05
2.32202e-17
7.56712e-17
0.000852365
1.28732e-15
8.47636e-17
7.21944e-17
0.000309318
0.000415394
1.82117e-16
4.42205e-05
7.23965e-16
6.06621e-16
8.21122e-16
4.42506e-06
1.96647e-16
0.00392473
0.103531
0.000288926
0.00478198
0.00165986
0.00171997
6.31146e-18
6.4552e-16
6.09458e-17
0.00841259
0.0196712
0.00283258
1.88353e-16
6.79924e-16
8.79881e-06
1.69709e-15
0.00474343
0.00946147
7.01447e-17
0.00210554
0.00280615
0.00107389
0.0034996
1.71223e-05
0.0145812
0.00186461
0.00253819
9.15607e-05
1.9558e-17
4.35384e-16
5.30241e-05
0.00562136
8.27431e-06
1.97906e-17
2.25865e-07
0.00502704
0.000209712
0.0010087
0.00101793
6.02237e-05
3.27077e-07
0.000352791
0.00389116
3.80541e-05
8.76308e-05
0.0285808
0.00213278
0.000843622
0.000389195
4.79607e-19
0.00101851
3.66293e-18
0.0146477
2.37218e-16
4.62664e-16
0.00126108
1.40197e-17
0.000876448
0.000372788
4.60427e-12
1.8137e-18
0.000214911
0.00026622
4.38609e-17
0.00218841
6.94027e-06
0.000317019
0.000573549
2.2999e-05
1.27904e-17
0.00545077
0.000204881
1.31989e-16
0.0469497
6.583e-05
8.48465e-07
0.000263702
4.18969e-18
1.25217e-07
5.69437e-18
3.78551e-07
1.45872e-16
2.36321e-07
0.000945553
0.000335054
0.00276013
0.00427925
0.00129251
1.83389e-07
0.0631095
1.43805e-05
2.59464e-14
0.00214106
0.000790966
0.00338276
1.21009e-05
6.38625e-15
0.350675
5.95303e-07
1.83484e-16
5.97317e-07
0.0231729
0.00307101
7.20967e-16
2.96343e-17
1.83516e-07
0.000597447
0.0359584
0.00217904
0.0086924
0.0118325
1.01321e-16
4.28334e-16
5.8929e-17
3.65361e-05
0.00832683
6.35312e-16
0.075052
7.23541e-18
0.000492338
1.71198e-16
4.0606e-16
7.24979e-17
0.000377497
0.00862852
0.0181557
4.35966e-16
0.00183776
0.00450379
2.42473e-17
0.000233809
0.000995641
0.00198913
0.000396734
0.000804536
0.00750203
0.0106845
0.000591851
0.00158533
0.00266602
3.70895e-05
3.15132e-17
3.29348e-16
0.0137878
0.011663
0.00351608
0.0474929
0.00272119
2.89201e-13
0.00524852
0.000179546
5.0051e-15
0.00107037
0.0222556
0.000285633
0.0204683
0.0115969
0.0342096
1.87207e-19
0.101214
0.00881877
0.00172276
0.00458903
0.0652717
0.000399602
0.00280928
0.000188184
0.000330902
0.00813677
0.00112392
3.82319e-16
1.04154e-13
0.000102348
0.0249189
0.293373
0.00015371
0.00908415
0.000290828
0.000140415
7.29413e-16
0.189646
0.000623686
0.286053
0.77921
3.3298e-06
9.80344e-17
7.06629e-16
0.000178856
0.0106204
0.00566736
0.010173
0.063355
0.0343936
0.00184264
1.45985e-05
0.0103878
0.0113493
1.65296e-16
0.000516885
1.76453e-17
0.000239994
0.000424916
5.3781e-19
0.138475
0.000201289
2.44409e-16
1.51883e-15
0.000260819
0.00018181
3.56184e-19
2.95928e-16
0.477388
0.0314816
0.185288
0.148488
0.00218022
9.25476e-16
0.00660956
0.00125091
2.20937e-07
2.52668e-18
0.085574
6.04925e-17
3.34174e-06
2.32455e-07
3.20089e-17
0.0166224
1.22371e-07
0.00854362
4.25734e-07
3.70145e-07
3.73101e-07
0.000640037
0.00114019
0.0129823
3.30845e-06
0.00113199
2.30793e-07
0.015147
1.44607e-16
1.01347e-16
9.82625e-18
0.0135168
0.000153518
0.000165468
9.14925e-05
0.0314223
0.000499063
0.000196439
4.53458e-15
4.14917e-07
3.58247e-07
0.00302691
1.42102e-16
3.00481e-05
6.58759e-07
2.24752e-16
0.00012713
3.95295e-07
7.11413e-16
0.000215419
3.17689e-17
0.0107008
3.00638e-07
6.94518e-16
0.00191733
0.00169692
0.00954278
0.000578453
0.0102973
0.000306697
1.41013e-17
2.8626e-17
2.98828e-17
1.01496e-16
3.26233e-16
5.2995e-05
4.07045e-07
1.51372e-05
0.00947795
0.00170136
1.13831e-15
0.017696
4.35948e-05
0.000214041
0.0145103
0.00629362
0.0122576
0.0130732
0.00333509
5.35785e-18
0.320326
0.0620974
0.000809699
3.10926e-17
0.0146751
0.000909825
0.0242179
0.000103433
1.07743e-16
0.0121614
8.03426e-07
0.00678854
2.58701e-17
2.84116e-07
0.00757569
5.61016e-07
0.0312202
0.35538
0.00115185
0.05518
1.16032e-16
2.55818e-15
1.60492e-05
1.63017e-06
0.102429
1.30255e-05
0.00156858
0.000427564
3.68939e-17
0.00159915
1.72562e-05
1.36267e-16
1.39927e-16
0.0258301
1.32013e-18
5.79651e-05
0.0621185
1.00231e-13
0.00273868
4.28391e-17
1.83033e-17
0.0010564
0.000151417
6.59804e-16
3.37464e-06
2.21063e-15
0.00250068
0.000523005
1.0635e-15
4.98505e-16
0.000851034
5.42849e-06
0.00279805
2.4784e-18
3.5115e-06
0.000627219
9.39952e-05
5.04782e-05
0.031556
4.61691e-18
5.72677e-05
2.28872e-17
0.001621
0.0338552
1.27294e-15
3.09452e-14
3.25375e-18
0.000169187
1.57298e-17
0.00197737
0.295653
6.59134e-16
2.5811e-06
4.19879e-05
2.00991e-17
5.7359e-16
8.09471e-18
0.000175676
1.12389e-16
0.000847777
4.23787e-16
0.000105855
0.000198241
5.97603e-16
0.0114325
4.14967e-16
6.75173e-17
0.00148124
0.000105603
0.00139458
0.0444533
5.79953e-16
0.000172208
0.000123119
8.53104e-05
0.00010676
2.63197e-05
2.7359e-16
9.15509e-16
4.2446e-05
6.83956e-17
1.80408e-16
1.03321e-16
1.10172e-15
8.38566e-05
0.0226782
3.18404e-17
0.0061228
0.000123171
0.0155418
2.08711e-07
0.000118794
0.000146761
0.00433048
4.80033e-18
0.00408259
0.0193009
2.17126e-05
6.12557e-05
2.56374e-17
0.000150028
0.000859072
0.000347761
0.000106299
0.0164851
7.15383e-05
0.0104566
1.54121e-17
0.877266
0.440389
0.000109095
0.0412508
8.4184e-05
0.00038924
0.00940579
9.33654e-10
0.602347
0.0443736
0.00453692
0.000619549
0.0283453
0.393267
8.91235e-05
0.0248792
0.00438168
0.0022016
0.126624
0.0441627
0.000575295
0.000955897
0.0260708
0.0486242
0.0041424
0.000310708
0.0306026
0.000205602
0.01406
6.06742e-16
3.51525e-17
0.00659016
0.00017404
9.22672e-07
0.00392577
0.000681299
0.000129951
0.00030414
1.85223e-16
0.00780977
0.00605202
6.16113e-17
0.000441563
0.00172355
1.59179e-15
0.00402426
6.44555e-16
0.0115527
0.0633153
4.82487e-05
0.0329971
0.000139545
0.00115434
0.000209938
0.000454588
0.0300923
0.00414984
0.000201447
0.0272709
0.000305384
9.4877e-05
0.000365682
7.40661e-16
1.41243e-16
0.00538857
0.0258771
0.0147358
0.00515296
0.00553969
0.00104844
2.00042e-06
0.000886057
0.000103229
5.65285e-06
1.29128e-08
0.00174434
0.000320243
0.000114485
4.77289e-06
0.000224519
0.000194433
1.63296e-15
0.0102554
4.97608e-06
0.000185826
0.00336902
0.000276104
9.75539e-17
3.83753e-16
0.00681881
0.000279242
0.00502201
0.000446051
0.00431553
0.000471486
4.97665e-05
1.10117e-05
6.52355e-10
9.79121e-06
0.00153613
5.72658e-16
2.99464e-16
5.22578e-05
0.0345819
0.000165008
0.00427982
1.42442e-05
8.07485e-06
0.000314272
0.00835381
1.96231e-07
2.66928e-09
0.00361814
1.02226e-06
9.18547e-06
0.00189338
0.000171168
4.07633e-05
0.00299999
8.52926e-06
0.00600249
0.029018
3.85346e-05
0.000339982
0.00299389
0.000330013
0.00426605
7.47209e-05
0.00616826
0.000346796
0.00278698
1.91035e-16
0.000732042
0.000929158
0.0072129
4.84224e-09
0.0200758
0.00611879
2.95634e-08
0.00138789
0.0015856
0.00025154
3.85205e-11
0.00249034
0.0218778
2.27901e-16
0.0377449
0.000203746
2.99025e-15
1.294e-15
0.001885
1.41314e-15
0.00086962
0.0137201
0.0213578
0.00208192
0.0096185
1.33016e-16
2.367e-16
0.00440695
0.0144443
0.000446902
2.83463e-16
3.23126e-17
0.0827269
0.0418526
1.50214e-05
3.47857e-16
2.0971e-16
5.54122e-16
5.09425e-16
0.03376
0.00860397
0.0158616
4.22227e-16
0.00100623
1.10047e-10
0.0193042
1.00435e-17
0.00337874
2.37727e-16
0.00104535
0.0203001
0.00039053
0.000399866
1.01879e-15
3.67575e-12
1.29531e-15
5.44403e-16
0.0235122
0.000228135
1.49875e-16
0.020009
2.05219e-05
8.34041e-17
0.000438174
0.000364706
1.85849e-05
0.0134356
0.000463527
1.06926e-18
5.2909e-05
1.07337e-05
2.72724e-16
2.7578e-17
2.29725e-16
4.38012e-17
4.42184e-16
3.0423e-05
0.0116596
0.0028896
0.00037089
9.94566e-10
0.000291122
0.06018
6.46907e-18
9.22057e-17
0.0181307
0.00279885
2.15976e-05
0.00331747
7.9358e-16
2.27713e-18
0.0184119
0.00216592
0.0229837
0.000777569
0.0498204
0.0142134
0.000125153
0.0258281
1.54961e-05
0.0892497
0.00327106
7.96588e-16
3.54374e-05
0.257289
0.00487437
0.000992512
0.00310682
0.000160855
0.00330315
0.0308574
0.00855345
0.00292603
0.144631
0.00372918
3.68719e-19
0.0178827
0.063876
0.0348749
0.00132661
3.86635e-17
0.000210564
0.000270494
0.000677694
0.0190869
0.0196912
9.91452e-09
0.0523295
0.023043
0.000619203
3.43233e-17
0.0136804
0.00325255
0.000720089
0.0505615
0.000536891
0.000110706
0.0108462
0.0108121
0.0217099
1.04229e-16
5.09457e-07
0.00159925
0.0163242
5.22198e-17
7.33004e-05
0.173002
0.00255557
0.00123211
0.000715244
4.32933e-05
0.00434328
1.47774e-17
0.0185495
0.000144331
0.0140727
3.31529e-16
0.00559941
1.83967e-17
0.0164761
2.0578e-11
7.28891e-17
0.00872187
3.24804e-06
0.00664067
0.00772928
1.13221e-16
0.0158772
0.000134405
0.0156198
0.00664004
0.00928587
0.0564006
0.00557572
0.0290286
0.0344803
0.0168835
4.27246e-05
0.00453718
0.000171256
0.000981734
0.000918124
0.00126551
0.00222185
0.00064761
5.17369e-16
1.58231e-17
0.000173495
0.00134048
0.00127998
0.0522359
0.0032479
6.6339e-17
2.19753e-16
2.36143e-05
0.000451745
2.15515e-17
0.00107303
0.0298254
0.00253811
0.00192645
3.43827e-15
0.0170383
5.0929e-07
3.08982e-15
4.87991e-15
0.00021593
0.0347676
0.00679435
0.000518335
0.000729457
0.00447553
0.000219006
1.26233e-16
0.00488038
2.19573e-15
7.57289e-17
7.27854e-16
2.64543e-16
4.69895e-05
4.61508e-05
0.00104429
0.00865562
0.101291
0.000248751
7.17699e-17
6.61224e-06
0.000722519
0.00836587
0.00241091
2.00862e-15
2.19344e-15
0.00319439
1.00367e-16
0.0101039
0.0744116
0.0453431
0.000171621
0.000524974
3.6476e-12
5.32281e-16
5.54121e-05
0.00392874
0.000449793
0.000762273
0.0142869
0.00192826
0.000276857
2.20856e-05
0.000419371
0.0297765
2.98489e-17
3.26946e-18
0.0109957
6.09883e-06
0.000563387
0.00468119
2.01794e-09
0.00010522
0.000506458
0.000265024
0.0226617
6.78794e-17
0.00011358
0.000299378
0.00512574
8.13111e-05
0.000695746
7.86531e-17
0.00127938
0.00960206
3.6414e-05
0.028578
1.28685e-16
5.05187e-05
0.0023871
7.531e-05
0.000337827
0.00346494
0.00118958
5.25693e-17
3.63941e-08
0.00181585
6.14939e-17
1.49348e-17
6.76932e-05
0.00329105
0.00100407
0.300284
5.0098e-17
0.000952284
5.48984e-16
3.07387e-05
0.00028438
0.00024741
0.00373399
4.973e-05
0.000572231
7.1103e-05
0.000905664
0.0140164
0.00278919
0.111992
0.000866457
0.0101091
0.0102926
0.0124127
0.00125937
6.85728e-15
9.25956e-16
1.69136e-15
9.9277e-05
2.19901e-17
0.0002575
0.0116884
1.45338e-16
2.19718e-16
0.00374659
9.79585e-16
1.03093e-10
0.0149523
8.26997e-16
1.57483e-10
0.00190871
8.30736e-05
2.50959e-10
0.00159013
2.33627e-06
0.0241982
0.0135309
0.0101565
0.00191126
0.000139471
0.00158414
7.1014e-07
5.80257e-06
5.89966e-07
2.58716e-19
8.03509e-07
0.0110535
0.00698084
1.44281e-09
5.10665e-17
3.99747e-07
0.000262294
1.69316e-06
0.000341873
0.00412446
9.93895e-16
4.9059e-05
3.70971e-16
2.8484e-16
0.00277225
6.75822e-05
0.000333721
0.00227628
6.62224e-17
8.31307e-05
2.06998e-12
4.46348e-18
0.0532927
0.000485464
0.000675328
6.58659e-05
0.000191435
0.00221378
1.11705e-12
0.00343522
3.95603e-05
2.98214e-18
4.62116e-18
2.75646e-05
0.0194783
0.00321192
0.0242161
0.00160146
0.0512313
0.000121792
9.48189e-05
8.25198e-05
8.64251e-20
0.000890518
0.000504985
4.88826e-05
0.000104144
0.000333385
0.0193367
0.000440505
0.00232931
0.00592787
7.29008e-05
0.0107959
0.00358591
5.11923e-05
0.000932898
0.00315584
0.0296217
0.00030208
4.03116e-17
0.0632109
0.00891551
0.0064468
4.14785e-05
0.0620413
0.000275825
0.0150422
3.22912e-05
0.0172479
0.000364352
7.0598e-08
2.0328e-16
8.75188e-06
2.73513e-16
0.0403227
0.0144404
0.0145876
2.36026e-16
0.00232178
0.000338884
2.27446e-16
0.000927239
1.79504e-16
5.87384e-17
6.39654e-16
1.15052e-17
8.92619e-05
3.05453e-07
0.0359873
0.00308661
0.000347419
5.57235e-16
7.45806e-16
0.00169084
0.000455849
0.00151561
0.000732898
1.41919e-06
0.0141054
0.000251704
0.000666103
0.00205663
0.0012515
0.000126842
7.97482e-05
0.00017666
4.45017e-05
1.0024e-16
6.73217e-17
0.000108247
0.000670909
0.000159656
6.43695e-07
0.0167574
0.000216303
0.000587244
0.000263537
5.67343e-05
0.000486644
0.00694672
0.00287761
0.000587077
0.000213458
0.000504161
8.7588e-06
0.00437086
7.96245e-06
0.00746365
0.000391412
2.47288e-05
0.00187683
0.0952249
5.67343e-10
0.00011334
0.000694427
1.09682e-16
3.87057e-05
1.12277e-15
0.000143344
4.35324e-05
0.00138085
0.0037404
0.000584234
6.94687e-05
3.45223e-16
0.000463414
0.00954891
6.05777e-07
0.000147945
0.00021076
7.30758e-16
0.000381633
0.000177365
4.79527e-17
0.000178066
3.14141e-16
1.64635e-17
6.81831e-13
3.80643e-17
0.000202936
0.120521
7.06939e-06
0.000564938
0.000114656
0.000136199
0.0118091
1.58345e-05
0.00274283
5.53635e-05
0.000127011
0.000522069
1.86801e-05
0.000192178
1.71691e-06
4.58423e-06
0.000140555
0.000122349
0.018513
0.000602388
0.000256121
0.000357899
3.39373e-06
9.58728e-05
0.00016627
0.00265647
1.32218e-16
4.43974e-18
2.04784e-17
0.00116722
1.56659e-05
0.0124473
0.000320408
5.28575e-16
0.000164743
0.000126671
0.0843049
0.000382963
6.65628e-06
1.93447e-17
9.73383e-18
0.000206855
0.000601563
0.0267091
0.00872545
2.76185e-16
0.000393602
0.0379216
0.0399398
3.6228e-18
0.0179465
0.00590073
0.000392978
1.32401e-16
7.95484e-17
2.57232e-17
0.000317056
4.77465e-16
0.00438053
2.6418e-16
0.000163085
2.68547e-05
5.77126e-05
0.00604696
7.74258e-05
3.97307e-05
1.98021e-16
4.14187e-18
0.000192535
7.04058e-18
2.96754e-16
1.00113
0.000184368
0.0193797
0.00304992
3.03898e-16
6.80171e-17
0.015455
0.00188682
1.55478e-17
1.61395e-05
0.00333055
1.24448e-15
4.10707e-17
0.000404998
6.91863e-17
0.00223008
0.000555576
0.000488799
0.000535358
5.77472e-06
6.95834e-05
0.0198582
0.00283631
0.000593603
1.20957e-16
0.00355663
9.60366e-05
9.34385e-05
0.000250892
0.00923368
0.0126019
0.00409614
0.000756036
0.000177715
0.00252335
0.00190853
0.00202527
0.000468989
0.000228489
5.06867e-19
0.00367101
0.00168971
0.000125272
0.000106853
0.000751715
0.00157611
8.00921e-17
3.393e-16
0.0227791
7.78133e-16
0.000903241
0.00030115
0.00330008
0.00977883
3.54204e-07
0.000243324
0.00555402
1.01339e-08
0.000124829
6.73173e-06
3.83069e-16
1.44121e-15
6.94867e-16
0.00361822
0.0129068
1.23906e-18
0.00605118
0.00160334
0.150614
0.000168006
0.00140372
3.0621e-05
0.00909784
1.19846e-16
8.49025e-05
8.39227e-17
0.0198713
7.00311e-17
0.000512517
0.00068909
1.95116e-05
0.00675119
6.27394e-05
0.00219494
0.0168383
0.00689201
2.35849e-17
1.54412e-16
0.0122746
2.03951e-08
3.06266e-17
0.00189889
0.000770217
0.00189021
2.08496e-05
1.67057e-05
0.00467328
0.00326362
6.38585e-05
7.12005e-05
0.000258136
0.00190183
5.39712e-18
7.57209e-05
6.18404e-11
0.000925277
0.0151306
0.00284621
0.00155258
0.00335261
0.00048897
0.0313593
0.00131663
0.00745807
0.000252332
1.76471e-11
0.000236598
3.42962e-11
0.000447333
4.08914e-08
3.49224e-18
0.00119637
8.8503e-08
0.037217
0.000767063
0.00788018
5.23831e-05
0.00739057
0.000330652
0.0148797
0.0174783
0.00141441
0.00977208
1.03855e-05
0.00037654
2.83889e-06
0.000605461
0.000201849
0.000350571
2.92715e-08
0.000297946
0.000100713
0.00265414
2.46604e-08
5.57339e-05
0.000160704
1.407e-16
0.0266008
0.000161858
0.000195075
1.89787e-08
3.71335e-05
0.000153268
0.00541461
2.93251e-16
0.000208513
1.24042e-16
0.0015942
0.00312453
0.000387046
0.0157499
0.013358
7.42193e-18
0.000208142
0.000161591
9.98002e-05
0.000287487
0.000471251
0.00044855
2.37048e-05
0.00093367
0.00045042
0.00535879
1.11126e-16
0.00116387
0.000538883
0.0083872
0.00525751
0.0088174
1.05434e-16
0.0541577
0.0218865
0.0972859
2.06236e-05
0.000145735
9.5103e-16
0.000286567
0.00674485
0.0102142
0.0296517
0.0246724
3.8224e-10
1.4269e-05
0.00779883
0.000402898
0.0173952
0.30146
0.0171216
0.000345782
0.000448934
0.0160248
0.00158931
5.10883e-06
0.000725101
0.162312
1.37529
6.93535e-05
1.06182e-12
3.92943e-08
0.00344587
0.00104569
0.00185719
0.00269366
0.00197331
0.00212838
0.00088092
2.77884e-06
2.21109e-16
0.000420647
5.41603e-06
6.26219e-05
0.000443627
5.70042e-10
4.45791e-06
0.00322695
0.0107436
0.0040386
6.02845e-06
1.13387e-15
3.02391e-05
1.81831e-16
7.11207e-05
6.27359e-17
0.00871432
6.95273e-16
0.0314452
0.000106933
0.0488774
0.0149707
0.000242205
0.00214629
1.00188e-05
0.00234737
0.000326665
0.000872204
0.0839802
0.000365229
7.42732e-18
6.04956e-10