/*--------------------------------*- C++ -*----------------------------------*\
  =========                 |
  \\      /  F ield         | OpenFOAM: The Open Source CFD Toolbox
   \\    /   O peration     | Website:  https://openfoam.org
    \\  /    A nd           | Version:  10
     \\/     M anipulation  |
\*---------------------------------------------------------------------------*/
FoamFile
{
    format      ascii;
    class       volScalarField;
    location    "9.5";
    object      SgP;
}
// * * * * * * * * * * * * * * * * * * * * * * * * * * * * * * * * * * * * * //

dimensions      [1 -1 -3 -1 0 0 0];

internalField   nonuniform List<scalar> 
111485
(
1.02348e-09
0.00010105
2.43986e-05
3.96183e-10
7.2443e-06
2.94404e-08
1.28063e-05
1.92821e-07
1.15796e-05
2.49932e-06
2.26476e-05
8.5605e-07
5.93596e-06
0.27158
5.80027e-06
1.46128e-05
0.192781
0.000969894
8.78994e-07
4.31022e-08
0.0349827
2.64216e-10
2.47715e-06
9.90598e-06
3.70156e-05
2.96077e-08
4.53148e-07
1.18584e-05
1.00931e-06
0.0452704
3.58418e-06
4.46527e-07
1.99842e-07
1.34491e-06
0.000692195
8.31529e-05
0.126078
0.189195
0.00227908
7.69195e-07
0.0394529
1.04017e-06
2.60739e-06
9.7782e-05
2.04222e-05
1.48415e-06
5.35887e-06
4.15728e-07
5.58435e-06
3.93642e-07
1.10212e-06
1.59724e-05
4.63305e-07
8.42626e-06
1.38314e-06
1.44726e-07
2.39427e-06
3.19747e-08
4.25222e-05
3.49124e-07
4.67786e-07
2.46344e-07
7.5456e-05
6.09032e-06
6.08564e-06
1.78465e-05
0.000388315
2.30751e-06
6.2015e-05
0.000119969
4.69906e-05
7.36474e-05
1.03944e-05
7.96496e-05
3.38383e-08
1.8738e-06
1.24845e-08
6.72822e-07
2.64104e-08
2.91276e-05
0.259036
0.484745
3.57581e-08
4.64104e-09
1.43146e-05
3.24716e-05
0.131717
8.10859e-06
0.000228824
2.57777e-06
1.17772e-06
5.97712e-06
4.01919e-05
4.43199e-07
1.72963e-06
6.7978e-09
0.0254377
1.07984e-05
0.00142383
0.000503595
1.70232e-09
2.49183e-06
1.77921e-06
1.28579e-05
5.84125e-06
1.5064e-05
9.07695e-09
2.87566e-07
1.21888e-05
0.000655717
3.50517e-05
1.21054e-06
1.1626e-05
6.53008e-05
9.08664e-08
1.15554e-07
2.48545e-08
5.95571e-06
1.97485e-05
3.77013e-09
8.84861e-08
0.000176878
0.0682214
2.02661e-06
5.1089e-05
0.0264961
9.93658e-05
1.0875e-05
4.28796e-10
0.000289586
0.000126034
1.56709e-05
0.0443698
0.000163053
7.29895e-05
7.30288e-07
2.22388e-09
2.19939e-07
9.78597e-06
2.15581e-05
6.35358e-05
2.32474e-07
0.165965
8.33562e-05
3.67374e-05
2.05399e-06
8.73552e-09
1.12025e-09
4.33875e-08
2.79708e-07
2.82179e-05
0.0268345
0.106425
1.0294e-05
3.46521e-05
4.7538e-07
4.98558e-06
0.000129999
0.000747094
5.10927e-06
5.13162e-10
6.15193e-07
3.48688e-05
6.80934e-05
5.97212e-05
3.26815e-05
5.96254e-06
0.0245428
0.00141234
0.000118884
1.22299e-09
9.98215e-09
0.185248
7.14887e-10
2.24834e-07
2.25013e-06
5.08824e-07
8.87045e-06
2.98951e-08
5.37857e-06
8.92946e-06
3.34894e-08
2.03515e-06
4.57752e-07
1.93839e-06
1.87257e-05
8.79374e-06
4.59973e-05
0.000337479
1.58957e-07
4.57287e-05
5.41351e-06
6.69328e-06
3.16431e-05
4.57909e-06
1.09354e-05
1.79059e-06
1.09102e-06
8.12422e-07
7.01498e-06
2.31441e-06
0.00151477
7.35786e-05
8.05816e-07
1.67335e-06
3.60681e-06
1.008e-05
1.07474e-05
1.6017e-05
2.17008e-06
4.51142e-06
8.50631e-06
7.85074e-06
8.89206e-09
6.01143e-05
0.000287848
3.81718e-07
9.02748e-09
1.00981e-05
1.62824e-05
8.75442e-07
8.19089e-08
1.3211e-05
1.49628e-05
0.000258309
9.41068e-09
7.84394e-10
2.85667e-05
0.003793
2.17666e-05
8.5921e-05
1.414e-05
2.04664e-06
0.134247
3.58067e-05
1.90815e-05
0.148578
5.01024e-08
5.10007e-05
1.8185e-05
2.16101e-05
2.64177e-05
3.79714e-06
3.6433e-06
0.00172013
8.8004e-07
7.09632e-06
1.88179e-08
4.82284e-06
0.125499
1.71718e-05
9.46671e-06
1.95243e-05
6.07537e-10
0.000178554
4.04665e-07
2.55456e-07
6.16415e-05
0.092841
1.90738e-08
3.79809e-06
4.3944e-05
2.12643e-06
4.30052e-09
8.69344e-06
7.75841e-11
5.54271e-08
4.696e-07
0.154649
3.73372e-06
2.73293e-05
1.28708e-06
0.163274
1.72798e-05
1.1517e-06
0.000221705
3.9442e-06
1.17913e-06
4.66482e-07
5.51708e-09
0.105311
3.55381e-07
3.69542e-05
1.63789e-05
1.62722e-09
0.200305
0.244665
1.37963e-06
0.000282113
3.10031e-05
2.73421e-06
7.66461e-06
1.1104e-05
3.27514e-08
6.11288e-06
3.63869e-09
0.000333671
0.000251843
1.17899e-05
1.76359e-06
0.318888
1.7337e-08
0.0779443
7.95256e-07
5.87306e-06
4.37117e-09
1.07664e-07
0.0231601
3.86636e-06
1.45359e-06
5.24974e-06
0.00014423
6.37078e-07
2.8057e-05
2.81266e-08
2.59821e-08
4.33918e-06
0.0040345
0.231061
3.25214e-06
0.000698151
8.00231e-10
9.67348e-09
1.36598e-08
7.89592e-05
5.16993e-07
4.80923e-07
1.95623e-06
8.26281e-07
6.66939e-05
0.0571602
4.68492e-06
1.07494e-07
1.86551e-06
1.945e-06
0.0436425
4.64502e-05
6.90099e-07
6.36266e-07
6.2783e-07
1.30213e-05
4.72334e-08
0.138646
0.00015245
6.57874e-07
2.72249e-06
0.000277804
3.83981e-07
0.0354521
5.20028e-07
9.06686e-06
5.8156e-06
3.53525e-07
1.84571e-05
8.29951e-06
1.47292e-07
5.20147e-07
6.51721e-07
1.62481e-06
0.333145
2.60513e-05
1.44833e-07
0.0479935
1.48083e-05
1.89255e-08
3.91789e-07
3.99599e-07
0.0442315
0.000567595
0.0431518
0.0449969
2.39441e-07
2.17589e-08
2.12666e-06
2.93816e-06
1.24517e-09
6.18898e-06
2.60343e-06
1.45767e-05
2.32756e-05
0.000121552
4.51645e-06
0.000648877
4.38081e-07
6.21119e-06
3.96537e-05
6.14318e-07
0.00061177
3.61584e-07
1.32374e-05
2.37385e-06
0.027505
1.04724e-07
1.41915e-07
0.142408
4.09055e-06
0.282278
6.47224e-08
4.44728e-06
3.14043e-06
5.80919e-09
4.61147e-06
4.06459e-05
4.37428e-09
0.0301273
2.34735e-06
2.49405e-06
4.20901e-07
2.14365e-08
0.000697906
4.73841e-09
8.84215e-06
3.00872e-06
3.2059e-10
8.78719e-07
3.54649e-05
0.227076
0.000119499
2.03345e-09
7.41469e-05
9.29661e-05
9.20738e-05
3.5134e-05
0.000574592
2.3726e-06
0.00103613
5.12945e-05
0.187996
0.000186301
3.87269e-08
6.5127e-06
1.03071e-06
1.83427e-07
0.00131009
0.000188384
7.75259e-05
1.4066e-06
1.25898e-06
8.85572e-06
3.37255e-08
0.322521
9.6834e-07
3.086e-05
0.00409528
8.43271e-05
0.00118539
3.58826e-08
0.234095
0.304934
2.28455e-08
3.02497e-05
0.000239388
9.57467e-05
3.01275e-09
2.7694e-05
4.89982e-09
0.26312
6.6244e-05
1.79588e-05
9.47028e-05
1.96134e-05
1.51554e-07
1.35511e-06
4.81937e-07
6.17266e-05
1.54171e-07
5.70559e-07
0.0492699
8.4341e-05
3.50136e-08
8.8131e-10
0.000356321
7.91428e-08
1.40074e-06
3.32374e-06
2.24038e-08
5.72194e-05
6.17344e-08
0.069726
6.5974e-08
1.56514e-06
1.63011e-08
0.000204645
3.95975e-07
0.207052
1.71171e-05
0.218031
6.32966e-09
5.92614e-05
2.27376e-06
3.47027e-09
0.34017
0.131761
2.3123e-05
2.89283e-06
2.87727e-05
8.12124e-07
1.06016e-05
6.61914e-07
4.07469e-05
0.266343
2.0185e-08
2.06557e-06
0.000100461
1.50281e-05
0.0535252
4.55598e-06
0.000107276
2.15237e-06
1.21659e-06
0.000706716
0.0742724
1.57332e-05
2.30991e-08
1.1975e-06
3.26816e-06
3.30358e-06
1.03267e-06
1.81326e-05
2.75754e-09
0.00160399
9.75704e-08
3.05408e-07
1.91286e-07
7.98418e-05
2.23496e-09
7.40834e-06
3.07259e-08
7.67579e-06
3.13197e-10
0.10721
0.106658
1.62364e-05
7.72799e-07
0.0591461
0.0757039
3.86666e-08
2.26452e-07
1.24378e-05
5.18049e-08
0.000140721
1.62848e-05
1.15316e-05
0.0401031
1.48256e-06
3.2711e-09
4.34702e-05
3.81348e-05
5.56129e-05
1.13803e-06
1.43379e-05
9.66541e-06
9.30513e-07
8.892e-07
1.9718e-05
2.71721e-05
1.1478e-09
0.117291
6.32424e-05
3.94641e-05
1.17888e-06
0.00112016
2.84683e-05
0.000418103
0.00277819
0.000355268
5.10478e-06
7.80844e-05
1.18799e-05
1.86334e-05
0.105629
0.000190505
6.89239e-05
0.0033543
0.0711747
3.11594e-08
5.70726e-05
4.13382e-06
3.78075e-05
3.03859e-07
0.000479525
0.00259134
0.000405436
0.000154515
2.32584e-05
2.05584e-06
6.42489e-08
0.000184407
3.12167e-06
3.04849e-08
5.27769e-09
3.6986e-08
4.32067e-08
8.89943e-06
4.9685e-09
0.0326746
1.14923e-05
2.07302e-05
0.0923222
0.294176
5.63172e-05
2.70554e-06
0.0349531
5.10438e-08
1.69861e-05
1.57953e-07
1.33014e-08
4.43901e-05
2.2888e-05
0.110983
2.36506e-05
1.14135e-07
2.52589e-06
2.70322e-05
0.132443
6.4085e-06
2.50644e-05
6.30826e-05
0.183187
0.0376691
2.44876e-06
1.57148e-05
5.48951e-06
2.07526e-06
5.57282e-06
1.07503e-06
2.93618e-05
3.65745e-06
1.91072e-06
1.03555e-06
3.90431e-06
0.000606541
3.03818e-05
3.84493e-06
4.29639e-06
0.000611924
2.90019e-07
4.86229e-07
1.46668e-05
2.75409e-06
1.46586e-05
2.3035e-06
3.06569e-06
3.16143e-06
2.8061e-05
0.000180469
1.30454e-05
1.82044e-05
2.23915e-06
4.99169e-07
3.65973e-05
4.21999e-06
4.76973e-09
0.0705112
2.8346e-08
0.127804
5.43232e-05
0.0110029
7.9477e-08
0.026731
1.46491e-06
1.18391e-05
4.58152e-10
7.2114e-06
2.82696e-07
1.62223e-08
8.11605e-07
0.260216
0.000112365
2.74677e-05
0.0387228
9.74174e-08
2.36544e-09
3.87149e-06
1.46261e-06
7.77917e-05
5.36024e-07
0.000117664
5.59466e-08
6.79748e-06
0.000113122
0.154586
3.19142e-09
7.67652e-09
2.77905e-06
6.54306e-07
0.000123819
3.36331e-07
0.0572043
9.65172e-07
2.82656e-08
1.64313e-07
0.0413342
5.83134e-06
0.000123827
7.27195e-10
0.00468768
0.000941904
0.167532
2.0646e-08
1.8221e-08
3.44072e-06
2.1439e-05
3.68765e-05
0.000540398
0.000309359
0.00022405
3.97363e-06
0.0576661
2.33174e-05
7.03672e-07
5.49926e-08
1.14623e-06
1.5481e-08
6.04813e-09
6.51006e-08
1.08166e-09
3.02264e-06
5.86468e-08
1.19161e-08
3.58148e-07
2.17822e-07
1.33815e-06
1.05397e-07
5.56642e-07
2.04888e-07
1.3044e-05
1.39797e-05
2.48184e-08
6.53811e-09
1.79496e-05
5.39685e-10
7.67557e-05
1.68264e-06
2.69423e-06
8.00782e-08
7.37428e-10
1.11706e-09
1.49366e-09
1.37507e-05
2.35198e-08
6.15766e-08
1.92067e-05
7.1608e-09
1.18935e-05
7.63359e-05
2.15395e-06
1.3197e-06
0.000484703
3.67931e-06
0.232176
9.72757e-05
7.64406e-06
0.193995
7.65588e-05
5.03439e-06
2.48502e-05
7.83252e-07
1.89155e-05
0.0828795
0.000644988
5.06273e-07
3.91565e-08
1.15862e-05
7.55031e-05
8.97889e-05
8.51222e-05
2.13547e-09
3.56947e-10
1.18806e-06
3.60587e-05
7.57264e-06
3.59178e-06
0.000171445
1.78187e-06
2.53114e-05
1.47928e-07
1.81718e-08
0.0304345
7.59759e-06
1.51381e-07
1.68099e-08
4.65406e-05
0.000121434
1.61597e-06
3.0138e-07
0.0382793
6.90443e-10
2.25475e-05
0.0580134
1.46729e-08
0.0671122
4.00329e-05
0.0337213
0.00056159
7.89593e-08
2.25149e-05
1.86799e-05
0.0431244
4.95004e-05
0.00121816
0.149184
0.00012785
9.26164e-06
8.87808e-07
1.13691e-06
0.448501
0.149476
3.58011e-08
0.222249
1.14406e-05
0.000151285
2.07965e-05
1.97916e-05
0.00108949
3.36814e-05
1.16538e-05
6.61202e-06
1.82862e-07
1.41908e-06
0.0415101
6.66218e-08
4.56347e-05
2.28831e-05
8.6082e-08
3.09701e-06
0.200257
3.27623e-06
2.85839e-07
0.000571143
1.502e-08
3.18512e-06
0.195533
2.08638e-08
0.16429
0.315487
0.00120899
1.56015e-05
9.87728e-07
2.8924e-06
5.49205e-05
0.000213472
0.00108202
0.000277195
3.91977e-06
0.0412711
9.94167e-05
1.13832e-09
0.000275435
0.00026439
0.000564017
0.000436505
0.000805839
0.000160875
1.37995e-09
6.37924e-05
1.03093e-06
3.72811e-07
0.00151484
0.322043
1.66459e-07
2.9526e-08
0.00301792
0.00308998
7.93644e-10
0.000561166
9.46988e-08
1.47152e-08
1.44737e-08
4.29157e-07
4.47577e-06
1.6428e-07
6.99163e-05
0.0471805
3.1651e-09
4.87343e-07
0.00418726
0.107114
6.36576e-05
5.40054e-07
0.029632
3.17586e-09
0.000120484
3.3618e-09
2.04825e-09
0.000534382
0.119792
2.26156e-06
8.02602e-09
7.07669e-08
0.0325022
1.48872e-08
0.0210564
4.03217e-08
9.49824e-05
4.19059e-09
0.00183645
2.80916e-06
3.39365e-09
6.96254e-07
5.46668e-07
0.00130751
5.80659e-07
2.34743e-08
1.89859e-06
0.00415266
0.0492332
6.6246e-05
0.000546819
0.00100611
6.22023e-08
0.00122611
9.35214e-06
3.59055e-07
2.79016e-06
0.000204681
1.95723e-05
1.35602e-07
8.47595e-06
0.000137983
8.19182e-08
1.0785e-06
6.3795e-07
1.46625e-05
0.0674658
1.13752e-09
6.58695e-07
0.0554339
0.000113327
7.12837e-05
8.44426e-09
7.08569e-07
2.09957e-08
1.01246e-06
2.386e-05
4.43703e-05
5.12136e-07
2.68691e-05
2.53741e-05
7.5281e-05
1.5273e-05
1.70039e-08
3.51483e-06
1.30052e-09
4.3181e-07
5.62651e-05
0.000167182
3.0544e-08
5.59892e-07
3.22343e-06
7.99194e-10
4.48502e-05
4.37602e-07
6.25312e-05
0.000768896
6.72358e-05
1.71086e-08
0.0013013
0.000109363
5.90679e-05
0.00014626
3.85382e-08
0.000142856
2.50703e-06
0.108311
3.17715e-05
8.86756e-05
5.68926e-08
6.69711e-10
1.90652e-08
0.172534
0.0680651
4.22257e-05
1.66151e-09
0.00013302
2.85381e-08
0.159601
0.000139466
6.65489e-07
6.49336e-08
2.97611e-06
5.81502e-07
8.13347e-05
1.96902e-06
0.000113049
0.288716
3.29281e-06
6.77133e-05
3.16405e-05
6.52287e-05
4.84264e-05
1.69676e-08
1.76322e-09
2.22267e-06
3.09252e-05
1.04779e-08
1.80025e-07
0.000582495
4.09093e-07
1.04533e-06
0.394593
1.88008e-06
6.20427e-05
5.83027e-10
2.70625e-06
2.04484e-07
0.306471
3.34627e-09
0.110542
0.00517992
0.000122102
1.54887e-05
1.42706e-05
0.000877987
2.41995e-06
3.68152e-06
2.04537e-06
8.04405e-07
4.96576e-08
1.73909e-06
7.87505e-05
2.18349e-06
0.0643214
2.55045e-07
4.00833e-06
0.000283165
2.32343e-09
0.00035464
8.58071e-08
3.59726e-05
0.000748984
6.5665e-08
1.73872e-06
6.21384e-05
5.23596e-07
7.36381e-06
0.168251
6.35551e-07
8.93973e-06
3.05041e-09
0.0424395
8.25401e-06
1.84101e-07
1.91582e-07
4.57904e-06
6.58299e-06
3.46234e-09
0.14077
1.41621e-06
2.40564e-09
0.000116722
3.93943e-07
2.7292e-09
4.19646e-05
0.000907834
0.000833413
1.02392e-08
1.03273e-06
4.49128e-08
4.36253e-05
4.6989e-05
0.0322944
6.08961e-06
0.000851181
6.32438e-05
0.00104987
2.89305e-05
3.17279e-06
9.57302e-07
4.62362e-07
3.96917e-05
1.81618e-06
6.43645e-06
0.0414385
0.000236439
0.0436773
5.69346e-10
6.29925e-06
1.14055e-07
5.94871e-05
9.46308e-05
9.40398e-06
4.44121e-05
0.00053546
0.000128412
2.29182e-09
0.00670881
0.00769134
7.74187e-05
4.24641e-05
5.53619e-07
0.000790592
1.63056e-06
2.68948e-06
1.26669e-07
5.29787e-09
0.000230876
8.44282e-06
0.000912526
6.03983e-07
0.0432152
0.000596903
6.61516e-07
1.03543e-07
0.000532183
2.62507e-06
0.0524455
0.25914
0.000121219
0.000217681
1.56664e-06
4.01002e-07
8.99367e-08
8.3007e-09
5.90104e-05
4.38917e-06
0.0318144
0.0519244
2.74514e-05
1.76475e-08
0.000297032
0.0381175
2.57988e-05
0.00107197
0.00236856
0.0401872
0.113776
0.0467467
0.000114233
2.60527e-09
0.00188743
6.26714e-07
1.28833e-07
1.73248e-07
1.18396e-08
2.48614e-05
1.66852e-09
3.44075e-09
8.45718e-05
4.71231e-08
6.6416e-09
8.89173e-07
4.813e-07
0.0546121
5.22806e-06
2.80191e-05
0.0705001
0.24353
5.78351e-09
0.174143
0.00015223
0.359972
3.02185e-07
1.04065e-07
8.76307e-08
3.88584e-05
0.242933
2.38172e-09
0.00108165
6.59647e-08
3.23876e-06
1.53156e-05
7.44124e-06
1.04503e-06
2.23212e-07
0.0717618
1.15523e-08
5.79604e-06
1.04812e-07
6.08974e-07
1.3835e-06
0.000426766
9.73502e-05
1.07144e-06
0.000362956
1.86711e-05
3.93277e-07
0.000129119
6.89693e-07
1.91896e-05
1.31137e-07
1.18163e-07
0.236828
0.0405354
0.000375425
2.91022e-07
5.21316e-09
3.47293e-06
0.180138
2.935e-07
9.9134e-06
6.10373e-07
2.32674e-06
1.32979e-09
0.0329883
9.91933e-05
6.34873e-07
5.31e-07
1.59245e-05
7.61537e-09
0.166446
2.49305e-09
0.0381665
7.02464e-05
4.39085e-06
1.64444e-08
2.66507e-06
1.19517e-06
9.33378e-07
3.00362e-06
4.74707e-06
4.02949e-10
4.42807e-09
8.55376e-05
0.0744764
2.63892e-09
3.01488e-05
4.22717e-06
8.49316e-05
2.72792e-07
0.0446976
2.14674e-06
4.82658e-05
4.93083e-05
6.3494e-08
5.23676e-05
1.84892e-06
1.52706e-05
2.80343e-08
1.50779e-08
9.37409e-06
5.32017e-09
0.000156548
3.6151e-05
3.45567e-08
7.90515e-08
0.000119442
0.000510682
0.282046
1.08822e-07
4.69243e-06
1.73396e-06
0.000341241
0.000157189
2.33166e-05
7.80982e-05
0.0734717
3.11606e-06
5.07279e-05
0.000771817
0.0621015
8.58468e-07
3.27392e-08
0.000385325
3.06901e-06
0.0384825
2.03786e-07
6.48474e-06
3.43824e-06
2.34943e-08
0.21453
1.23949e-08
1.55819e-07
7.04024e-07
2.44568e-05
0.289834
0.0531326
4.3335e-07
1.96411e-08
6.29168e-10
1.14727e-07
1.03904e-07
5.76773e-07
1.02337e-07
4.27999e-09
6.20387e-08
8.91437e-09
1.74434e-07
0.0582431
0.0345529
2.91879e-09
1.28467e-05
6.84913e-09
5.37176e-08
8.72899e-09
0.0338654
0.0775091
5.56025e-06
3.25225e-08
1.18789e-08
7.51565e-07
1.10089e-06
3.72997e-06
1.25328e-07
0.000314109
2.64093e-07
3.02426e-06
2.76945e-06
0.000178023
4.96006e-06
0.000742552
1.56341e-06
2.55711e-08
0.000454041
0.000446585
1.81998e-08
2.1559e-05
3.64455e-06
1.18734e-05
3.77342e-05
8.88346e-06
3.42429e-06
1.12823e-07
0.305754
4.71589e-07
3.60469e-05
0.0582915
0.000101726
1.11767e-05
1.32761e-05
1.33992e-06
1.76065e-06
2.06733e-05
5.67303e-05
5.08532e-05
3.23075e-06
3.83472e-05
6.57437e-06
3.22837e-06
1.67818e-06
5.39264e-09
5.51232e-08
3.34217e-08
6.26633e-10
1.71025e-07
3.44145e-08
6.50688e-06
2.17266e-08
2.91041e-09
1.5713e-07
1.60993e-05
1.43888e-08
1.00129e-08
7.65408e-07
1.01499e-06
8.40605e-07
8.0351e-05
5.49951e-06
0.23
1.19967e-07
1.07244e-05
1.425e-05
3.55543e-06
3.74343e-09
1.84861e-08
0.207886
5.11256e-07
2.91543e-09
2.31197e-06
0.20841
1.44789e-06
5.27487e-05
5.32015e-05
1.02676e-06
7.112e-06
1.05358e-05
0.000355475
1.78876e-08
3.85559e-05
4.69651e-06
1.67538e-07
0.000302942
0.000363189
0.183507
6.35221e-06
1.30454e-06
6.28217e-06
3.26545e-05
1.37179e-05
1.79351e-07
0.00241584
1.40986e-08
0.000585265
0.000386025
0.0574517
8.68116e-06
0.238806
2.9527e-08
1.3172e-07
4.1171e-06
2.26667e-05
6.01005e-05
3.07554e-06
9.97276e-05
3.23513e-08
8.86279e-06
1.81631e-09
1.22663e-08
1.31004e-06
0.000442461
8.89344e-08
3.61773e-09
0.00039613
1.91088e-07
0.00049972
3.14534e-06
1.60823e-06
1.47093e-06
3.9004e-07
1.89079e-05
4.174e-06
0.000191907
5.42195e-07
6.47922e-06
0.00310603
1.09151e-06
9.29579e-09
0.00014537
2.26257e-06
3.50661e-05
4.32294e-09
0.132952
0.000110388
6.14934e-05
1.62256e-06
4.90847e-09
0.000181141
3.90782e-06
2.00106e-07
1.30763e-09
5.64422e-05
6.30552e-05
7.02627e-05
0.180684
2.48593e-06
5.05347e-06
0.000228522
7.00372e-06
5.98131e-06
1.96752e-06
7.78539e-05
3.04031e-06
0.000110308
0.169291
1.23293e-05
3.53415e-10
1.36921e-06
4.32768e-05
1.37206e-05
2.33971e-07
0.00044591
0.000799286
0.000429159
0.00081963
1.47622e-05
4.85313e-05
6.18206e-06
1.64028e-05
9.22767e-08
1.42421e-08
0.0946495
0.000476955
2.22768e-06
0.00154678
4.5735e-06
2.27163e-05
0.000398799
3.02523e-06
2.11654e-06
2.99398e-06
3.12155e-07
3.86795e-05
2.50988e-05
0.000138705
2.34175e-05
4.46428e-07
6.86401e-09
2.49093e-05
7.53789e-07
1.45544e-08
0.000292706
2.44732e-06
7.61897e-06
3.20738e-05
5.21459e-06
4.89787e-08
0.000543275
0.128323
4.99831e-08
5.83998e-09
1.86701e-08
0.133666
0.228489
4.06843e-07
0.0501484
4.87573e-06
1.71181e-05
7.53215e-06
6.45013e-06
1.22023e-05
1.15055e-05
2.7145e-05
0.107177
0.315445
0.362914
1.07939e-05
2.54007e-05
5.42008e-06
6.68667e-06
0.334598
1.29476e-08
0.163479
4.15405e-06
7.74617e-09
1.01178e-06
5.11339e-07
3.38713e-08
3.49264e-08
2.16433e-07
1.21885e-08
0.126563
5.26971e-08
2.51262e-05
0.000172507
1.77186e-08
4.30666e-06
6.84894e-06
5.20054e-06
6.97413e-08
0.000542668
5.83883e-06
6.90667e-07
6.21224e-05
4.04541e-06
2.40893e-05
4.18407e-06
1.13991e-06
4.01974e-07
1.76938e-05
0.00311667
3.86615e-05
9.45309e-07
1.13888e-05
7.89882e-07
2.06521e-05
9.19852e-05
9.96306e-06
2.05098e-06
4.85877e-06
1.14382e-06
5.39573e-05
9.12215e-08
7.24182e-06
0.0387635
0.000389384
0.306071
0.000712983
9.58341e-05
2.19772e-08
0.0578694
7.90106e-10
4.18179e-05
1.33546e-05
7.19301e-07
7.91945e-05
1.27596e-06
7.89922e-07
3.75499e-05
7.36355e-07
1.18243e-07
1.61322e-05
5.74927e-07
2.06689e-05
0.0715703
3.32049e-07
3.06362e-05
1.25847e-06
6.96427e-07
6.56498e-09
0.000240463
7.74801e-05
3.08053e-06
1.06984e-08
6.27855e-07
0.0417458
0.000192168
8.60895e-06
1.39564e-05
1.79825e-09
2.47917e-10
7.98868e-07
2.46927e-09
4.29144e-05
2.25797e-07
2.02937e-05
1.43434e-06
4.27959e-07
4.4078e-07
3.77452e-08
4.4909e-05
8.41912e-05
4.07919e-05
5.11643e-07
2.84454e-08
9.29732e-07
1.72689e-06
0.000499596
9.68699e-07
0.150804
1.82674e-05
1.71097e-08
4.07134e-08
0.000214197
1.14565e-05
0.00105487
4.10538e-07
8.43446e-05
0.216127
2.42095e-10
0.000305165
2.41214e-05
0.0399879
1.60683e-06
0.0446551
0.0781252
0.000109523
6.99468e-06
1.85848e-05
1.09967e-08
1.47998e-05
2.50501e-05
0.000344227
1.74726e-05
5.32928e-06
2.40128e-05
0.000393206
0.000318265
0.000454852
0.000119586
1.23137e-08
7.90552e-05
0.000817142
5.92768e-06
3.66581e-06
0.000227423
0.000195461
1.28042e-05
1.72544e-05
0.000240247
1.42883e-05
0.000345899
0.000215921
1.81413e-05
1.74052e-08
3.18375e-05
0.000380668
0.0628708
1.97614e-06
4.66028e-07
4.57252e-05
1.58872e-07
7.88578e-05
7.7899e-07
0.000362647
5.42561e-07
6.50165e-05
2.0189e-08
8.34579e-08
1.04543e-05
0.000855901
0.00112115
0.314743
3.75793e-05
1.81312e-06
1.64053e-07
0.000378177
2.0542e-05
0.0306422
0.0662068
2.07078e-09
0.000731757
5.18564e-05
5.54499e-06
6.76046e-09
0.00106654
5.39656e-07
0.040193
4.7884e-08
2.88143e-09
2.72268e-05
8.50899e-07
1.11007e-06
3.72001e-05
0.0371821
1.76052e-05
1.81732e-07
6.6412e-05
0.202316
0.0391645
5.14529e-06
0.000258179
2.49963e-05
0.0005182
2.44298e-06
0.035184
3.29492e-05
0.000169156
1.97778e-07
7.94687e-07
3.90797e-06
5.16428e-07
2.20146e-05
2.15888e-06
7.72575e-07
2.32916e-06
3.90375e-06
8.58117e-05
2.5156e-08
3.36308e-07
0.0730693
1.0748e-08
5.80003e-08
3.94731e-05
5.80067e-08
0.000160745
3.31274e-05
0.0596912
2.00858e-05
0.240481
1.08271e-05
1.83743e-05
0.0375271
0.000145516
3.3828e-10
2.40125e-06
0.0263168
1.37466e-05
7.17719e-05
1.50514e-05
1.08508e-07
6.264e-06
6.80332e-06
7.53783e-07
0.117079
1.00399e-06
8.54423e-08
1.51326e-06
6.11668e-07
6.61851e-09
7.9924e-05
2.28108e-06
0.251847
7.32227e-05
3.26476e-05
4.25011e-05
5.40352e-05
1.36417e-05
2.68777e-06
2.84889e-10
6.32213e-07
6.64446e-05
1.98894e-05
5.94951e-06
6.56678e-08
1.00834e-05
1.2133e-06
3.45362e-05
2.66086e-08
1.42562e-07
1.00263e-06
2.62898e-05
1.98068e-05
2.88718e-05
2.97919e-08
1.85628e-08
0.00154374
1.94907e-08
1.08209e-09
2.92914e-09
1.35292e-06
0.284707
6.92624e-07
9.92782e-05
6.41666e-05
1.8671e-05
1.57881e-07
1.03895e-06
0.00019389
6.60483e-06
3.08538e-07
3.43375e-05
3.19582e-09
1.31622e-09
3.9638e-09
8.51036e-05
1.0364e-07
0.302638
0.000489425
3.14e-05
0.00171017
6.11447e-07
1.33115e-05
7.39934e-09
0.0557204
7.56235e-06
5.50702e-06
1.45625e-06
3.35313e-07
1.38057e-07
0.441986
1.53993e-05
0.000391024
6.06755e-05
1.04296e-06
0.112471
3.0381e-07
2.99467e-07
5.0957e-07
5.80479e-07
2.67852e-05
4.22253e-07
2.15008e-05
1.57418e-05
0.000450213
3.29601e-06
5.86723e-10
0.000176178
3.65616e-07
0.14474
2.97445e-06
1.99136e-07
1.23311e-06
1.78619e-05
0.057009
0.027967
1.68809e-05
4.32453e-05
0.085114
3.03551e-06
2.38746e-05
0.0428943
1.06493e-05
4.51515e-06
0.159337
0.0175251
9.87059e-06
3.02418e-05
1.23341e-08
3.53427e-05
0.00156404
8.43171e-06
1.06261e-05
0.00034952
3.19004e-09
0.0217436
1.06159e-08
2.63112e-05
0.179667
1.17207e-07
1.07353e-05
2.52475e-06
3.70991e-07
6.17715e-08
4.42993e-05
4.14624e-07
1.00004e-07
2.66493e-05
1.24386e-05
1.18101e-08
0.0218864
0.0413775
3.70197e-06
7.86836e-10
2.00768e-09
0.000134274
1.26551e-05
5.06888e-06
3.7259e-09
8.86954e-08
0.000122718
6.30403e-05
4.34042e-05
7.55143e-05
0.335553
4.9974e-10
0.130016
1.31525e-05
4.15445e-06
0.050931
1.00644e-06
2.20815e-08
0.0214427
1.39044e-09
5.81897e-06
5.26501e-06
7.07735e-06
1.03051e-06
7.73336e-09
4.9274e-09
1.53617e-08
1.91894e-05
0.123714
0.197011
2.68251e-05
2.30126e-06
1.82705e-10
0.0523992
0.207826
0.000256208
8.62902e-07
1.17716e-07
0.000902481
0.00022506
2.18186e-07
1.27882e-08
1.81714e-06
6.92281e-06
2.86013e-08
1.04108e-05
6.01151e-05
0.0563657
0.189052
4.52499e-05
0.000778407
1.00306e-08
3.29618e-07
2.66189e-05
0.00016224
3.11596e-05
0.000408968
7.31984e-06
1.25456e-05
1.302e-08
8.05735e-08
1.19574e-05
0.0547492
9.13373e-07
0.16511
1.95153e-08
1.10764e-05
2.10364e-06
1.57296e-05
1.27563e-08
3.80051e-09
1.03418e-07
3.6583e-08
1.10254e-06
0.000296484
7.42757e-09
0.0350566
1.49608e-05
0.147107
1.51524e-06
2.67079e-06
1.5522e-06
1.79852e-06
1.21744e-05
2.2387e-08
1.38429e-08
1.40567e-08
2.73342e-06
8.86236e-06
0.0527319
0.0510521
4.07056e-06
7.91835e-07
7.78005e-09
1.71169e-09
2.42048e-08
1.51091e-06
0.000228914
1.9155e-07
3.40681e-08
3.76485e-09
0.0206194
2.58252e-05
4.01237e-05
0.0379475
8.77152e-07
0.286991
8.8007e-06
4.15989e-07
8.57249e-10
2.44284e-07
0.0502449
4.92146e-10
1.93392e-05
1.43268e-08
0.000643159
4.16659e-05
7.64708e-05
0.000133802
2.62119e-05
7.95942e-09
1.24008e-08
0.331361
3.13893e-05
3.24925e-05
0.000212095
4.04941e-07
7.82757e-05
9.00357e-05
2.83635e-06
3.06852e-06
0.000274247
7.67671e-08
0.000621021
0.0367897
1.19358e-06
1.90276e-07
7.74363e-05
8.57478e-07
0.0320354
0.167327
2.00042e-05
1.87601e-09
0.00380698
3.16694e-07
1.98042e-05
1.39033e-06
0.000103931
9.77115e-09
0.000820761
7.84326e-05
0.000120872
1.84253e-05
0.000110864
2.58435e-05
5.0663e-06
1.40392e-09
0.000145711
3.9802e-05
5.22123e-05
6.04335e-07
8.96244e-06
0.000113829
0.000414749
8.59175e-09
5.58652e-08
3.84937e-08
1.13019e-09
1.22909e-07
0.0202597
0.00037732
0.000133481
3.55567e-05
0.000189049
7.78912e-05
5.34414e-10
1.01751e-05
4.30407e-09
5.03074e-07
1.27938e-08
2.38016e-05
0.00188139
1.44069e-05
1.11143e-07
1.43866e-08
1.35104e-06
1.07158e-07
7.1364e-09
0.13516
8.56253e-06
0.000618318
0.000928813
0.000679239
5.93497e-09
0.000619682
0.000683896
0.00123234
0.000670606
2.90788e-09
1.02325e-09
2.77476e-06
7.71437e-06
6.32741e-05
0.000300129
0.0384753
7.35185e-06
2.99018e-05
4.10149e-06
0.000513441
2.89542e-08
3.00146e-09
0.000100636
0.000337211
0.0245277
1.17568e-08
0.108879
0.000117312
3.03813e-07
8.41453e-05
4.3597e-06
7.74399e-05
2.09579e-06
8.474e-05
3.21524e-09
7.73791e-06
0.00202544
3.26207e-05
6.16595e-08
0.00163927
3.94442e-05
9.77385e-06
0.00300511
7.01706e-08
6.77289e-06
5.24773e-05
7.95862e-05
8.71516e-07
0.178881
5.35691e-08
8.05591e-07
2.33668e-08
0.108999
0.111887
1.95431e-06
1.67201e-06
0.000143702
0.0517552
2.92591e-08
9.16907e-06
1.66763e-05
1.17424e-05
1.19616e-06
0.181335
6.60389e-06
1.50767e-05
0.00330212
1.484e-07
6.33674e-06
1.49192e-06
2.2401e-06
1.80192e-09
0.00227295
0.0037266
1.20265e-07
6.38567e-07
1.21851e-06
9.28458e-05
1.03046e-08
0.0373944
2.57711e-07
9.46227e-06
1.05717e-06
4.98334e-07
3.97717e-06
3.12875e-05
1.13634e-06
4.67975e-06
0.000226655
1.35225e-06
1.23046e-06
0.0404234
7.16397e-07
3.26242e-06
2.37536e-06
1.72227e-05
2.00486e-10
2.12451e-09
1.86159e-09
5.13184e-06
5.74791e-08
0.0612971
2.06894e-05
1.00909e-05
4.16966e-09
2.59449e-05
0.108299
7.05752e-05
1.19203e-05
5.16284e-05
1.13996e-05
1.95801e-07
7.90986e-08
2.22859e-05
3.4007e-06
2.58152e-06
0.000503712
8.02383e-06
4.48348e-08
2.25564e-08
1.96633e-06
6.37542e-08
6.0884e-06
3.50461e-08
1.01073e-05
1.48623e-05
1.94951e-07
2.05531e-09
0.0429634
4.3308e-09
1.71145e-09
2.17157e-05
0.0530617
1.65206e-05
2.05054e-06
1.80982e-08
8.31693e-06
4.90292e-06
1.96429e-05
5.62506e-06
8.71065e-09
1.51626e-06
1.22289e-06
4.91136e-06
9.64061e-09
8.14645e-09
5.45791e-09
4.20026e-06
1.56349e-05
8.94171e-07
1.57983e-08
6.972e-06
4.31792e-05
2.20888e-08
2.19184e-05
3.48221e-07
4.43818e-08
1.30253e-08
3.34146e-05
2.5252e-07
1.90104e-05
1.2151e-09
2.34815e-05
6.99373e-09
1.40079e-06
0.000322125
1.30469e-07
5.62576e-09
0.0642862
3.5255e-08
0.0529192
2.32958e-07
3.42007e-08
8.96795e-06
2.13809e-05
0.042523
4.8501e-05
0.0469087
0.0570296
8.68747e-05
9.65119e-06
0.0379473
1.01009e-05
1.57702e-08
3.51995e-05
0.128297
0.0347999
0.0396612
8.15325e-09
8.80712e-06
1.73292e-08
4.96518e-06
9.29119e-07
7.23806e-06
0.00015818
6.58437e-06
4.77929e-07
1.08889e-08
3.60959e-06
0.000272618
2.18794e-08
9.71841e-06
3.26562e-05
1.8611e-06
4.88222e-10
5.58128e-05
2.35952e-05
2.19e-05
1.53101e-05
1.35794e-05
2.17002e-06
6.35524e-06
0.000138503
8.18866e-06
6.45451e-06
0.000115989
0.000425494
4.53763e-09
5.89542e-07
2.61979e-08
1.62684e-05
7.81238e-08
2.19833e-06
2.07812e-10
0.000363589
0.361663
0.0811327
0.00012998
3.61725e-09
1.10065e-05
0.0501056
0.0948178
6.76389e-07
0.000251293
2.22903e-06
5.08465e-07
1.81485e-07
2.21129e-09
8.18225e-06
3.73455e-05
4.39094e-08
4.99437e-09
1.35642e-05
1.58873e-07
0.162559
0.050702
1.08527e-05
7.44614e-09
1.00736e-08
0.0395544
4.01487e-09
2.10764e-05
1.34581e-08
0.000568562
1.20205e-08
4.57416e-06
4.13814e-08
6.80969e-09
0.0010013
0.141758
0.0607582
1.34729e-08
0.0648594
4.17978e-08
1.10172e-05
1.44727e-06
0.107732
2.35187e-07
0.000140339
3.57282e-09
1.78736e-06
0.000256634
1.74819e-06
0.000144501
6.9279e-09
8.95893e-06
2.89663e-05
1.79313e-05
4.59271e-06
3.35609e-07
3.06526e-07
3.11838e-06
5.79765e-07
6.38137e-09
2.56797e-09
0.068239
0.0349425
2.21629e-08
0.0765053
1.02321e-09
1.83438e-08
4.2851e-05
5.68711e-09
3.21495e-09
0.0361253
2.83122e-08
5.21792e-10
0.000581737
3.02987e-09
6.93357e-10
4.47251e-05
0.0849926
1.29634e-07
0.0349048
9.38409e-09
4.08882e-06
0.0456105
5.86086e-06
0.000808264
3.09812e-10
6.41583e-08
9.79621e-07
1.40506e-07
0.193217
0.0413305
0.000101351
2.80573e-08
0.0435197
6.39152e-10
1.41565e-08
4.65753e-09
0.094575
0.00165439
7.59589e-06
1.46601e-09
1.24384e-06
0.045267
0.000833179
3.76411e-07
0.000248732
0.0996673
0.0780944
3.32243e-05
0.0777424
0.00086288
0.0401359
3.90269e-05
0.0603398
0.000319052
4.42197e-06
1.34635e-06
2.04327e-06
0.00042579
0.000854594
5.42847e-10
2.90366e-06
7.4858e-08
3.93043e-05
6.87708e-06
9.83754e-07
7.56265e-06
0.000274975
1.67195e-07
7.55047e-06
7.65367e-08
2.37901e-08
3.08589e-08
4.36754e-08
4.64839e-06
3.65763e-08
4.97122e-08
6.57334e-08
9.90378e-06
4.01048e-05
4.30561e-10
1.83159e-09
6.85937e-08
1.12037e-07
1.19849e-06
0.00117275
0.00194156
0.000119388
9.79503e-09
2.88945e-05
5.12837e-06
0.0435839
2.98519e-05
1.20666e-05
5.12107e-07
1.01213e-06
2.27199e-06
0.000207129
0.000109089
0.16512
0.0631574
7.56683e-08
0.000765916
0.000274497
4.1107e-09
2.32943e-06
4.34596e-06
3.84324e-08
1.59014e-06
3.64957e-06
0.0584496
1.55189e-10
7.58629e-05
2.16423e-08
0.0441862
4.81669e-05
0.0333835
2.95403e-05
3.26246e-09
1.00408e-08
2.96635e-08
2.32575e-05
2.231e-05
4.4065e-06
8.09859e-06
8.74212e-07
0.0006974
0.000263428
6.32112e-10
0.000108344
4.36586e-05
4.64516e-05
8.83172e-05
0.00273999
3.85134e-06
0.0914759
5.70478e-08
5.29127e-06
0.0360628
9.81658e-09
0.000239945
0.00675211
3.84675e-08
9.32155e-05
2.05972e-08
1.88637e-07
2.53131e-06
3.32896e-06
5.11998e-08
4.2379e-09
6.29574e-07
3.6404e-09
3.71386e-09
0.000116784
2.11672e-08
8.33844e-10
2.62419e-05
6.69076e-09
9.3047e-08
2.4233e-07
0.000197199
1.98554e-07
0.000155089
1.04963e-07
4.47713e-08
2.09443e-05
6.12509e-05
0.000209834
0.0391328
7.47764e-05
3.7637e-05
2.15513e-06
0.294271
0.286123
1.12723e-07
2.54529e-05
1.36983e-08
0.0416033
0.0357559
0.00037269
0.0819189
0.0644025
6.69362e-06
1.36851e-09
0.000103399
1.74085e-08
3.26396e-09
3.86414e-07
1.46851e-05
6.0675e-09