/*--------------------------------*- C++ -*----------------------------------*\
  =========                 |
  \\      /  F ield         | OpenFOAM: The Open Source CFD Toolbox
   \\    /   O peration     | Website:  https://openfoam.org
    \\  /    A nd           | Version:  10
     \\/     M anipulation  |
\*---------------------------------------------------------------------------*/
FoamFile
{
    format      ascii;
    class       volScalarField;
    location    "9.5";
    object      T;
}
// * * * * * * * * * * * * * * * * * * * * * * * * * * * * * * * * * * * * * //

dimensions      [0 0 0 1 0 0 0];

internalField   nonuniform List<scalar> 
111485
(
303.15
285.136
301.051
303.15
298.532
283.15
299.038
293.465
296.451
286.27
300.6
296.28
300.291
284.592
300.073
286.774
299.375
298.433
294.202
303.15
303.15
283.15
297.376
288.737
301.606
303.15
293.27
300.672
288.961
303.15
300.829
294.389
303.15
283.15
283.463
283.15
302.338
297.746
283.149
296.716
283.15
289.691
297.134
302.888
303.189
303.15
287.448
288.595
289.723
303.15
303.15
283.15
303.15
299.048
303.15
293.652
287.939
283.15
283.325
295.569
295.972
303.15
302.102
300.324
283.15
284.611
300.529
291.611
302.147
302.544
303.163
301.931
303.15
302.15
303.15
295.442
283.15
293.558
283.15
283.15
283.241
293.389
283.15
303.15
300.391
284.264
283.15
301.616
303.125
299.214
283.384
289.695
300.929
300.426
289.936
303.15
303.15
301.616
303.149
283.431
303.15
286.705
283.15
285.232
285.753
283.15
283.15
293.129
301.482
283.146
298.978
288.116
301.339
301.722
303.15
302.011
303.15
283.15
300.227
303.15
303.15
283.15
283.15
283.15
283.402
303.152
283.15
301.853
303.15
283.179
303.101
302.006
303.15
283.15
283.15
292.637
283.15
294.336
298.911
301.175
303.137
296.934
299.085
284.82
302.304
297.938
283.15
303.15
283.15
297.261
284.994
303.15
303.144
287.422
283.156
293.85
295.764
302.54
283.154
303.15
303.15
292.324
286.293
283.153
283.157
301.251
283.707
283.15
283.153
283.152
283.15
303.15
283.212
283.15
291.595
287.261
283.15
303.15
303.15
283.15
303.15
303.15
297.764
293.641
295.927
289.873
301.423
300.503
283.192
303.15
301.503
303.15
303.15
300.246
286.297
301.471
301.365
295.871
303.15
300.915
284.632
283.161
300.827
297.128
303.15
300.496
288.342
303.15
283.233
300.232
284.863
300.768
303.15
303.15
300.782
283.15
292.962
283.15
300.689
298.803
290.441
303.15
301.778
300.608
283.15
283.15
283.15
289.617
283.158
283.15
303.15
298.743
291.527
289.971
283.15
303.15
303.112
303.15
284.364
300.171
299.355
299.604
299.479
283.15
283.143
298.974
283.15
283.15
288.814
288.445
283.15
301.225
298.997
303.15
283.15
301.102
303.15
303.15
303.123
303.15
288.332
285.901
290.909
303.15
298.455
303.15
303.15
303.15
283.148
298.146
301.049
299.521
291.258
299.574
296.352
283.215
290.47
291.722
283.15
303.15
283.149
292.514
298.834
286.528
303.15
298.111
297.37
298.994
302.966
283.166
297.218
299.458
302.05
283.15
283.636
283.15
283.149
303.15
283.926
290.315
286.333
303.15
283.15
297.708
285.323
303.15
303.15
303.15
284.62
290.379
301.122
284.456
293.122
283.15
283.15
303.15
298.468
303.15
283.836
289.652
283.153
283.15
303.15
303.15
283.15
294.452
290.005
283.15
295.842
283.15
303.15
301.109
297.419
294.053
295.948
283.15
283.15
283.15
296.735
291.141
302.408
283.15
283.15
283.15
290.126
297.061
283.219
290.573
283.15
292.893
299.65
284.214
298.75
285.272
283.15
303.15
283.15
303.15
290.722
296.728
288.069
292.087
283.15
286.376
283.15
303.15
293.927
303.15
301.875
303.15
283.15
292.092
283.15
288.89
284.67
283.15
284.008
298.139
283.15
300.24
284.743
298.951
303.028
291.175
286.052
283.15
303.15
303.146
283.15
301.055
300.894
283.15
283.15
294.776
284.38
298.317
296.929
283.15
295.24
296.178
283.15
302.102
283.907
303.15
303.15
288.344
298.698
283.15
303.15
303.15
303.15
300.78
283.15
303.15
294.026
283.171
286.947
300.046
283.15
283.15
302.65
283.15
302.492
301.482
297.987
289.252
283.15
294.03
303.382
303.15
298.76
292.355
303.15
283.15
283.311
283.15
290.139
286.16
291.776
283.15
293.001
296.647
293.194
303.147
283.15
303.15
303.15
283.169
292.861
283.15
284.358
303.133
283.15
303.15
303.15
303.15
301.874
290.629
286.049
284.228
284.329
283.15
285.755
303.15
300.794
283.15
303.15
303.15
300.708
303.15
303.15
283.151
303.15
283.15
300.738
283.15
283.15
283.15
303.15
283.15
303.15
283.15
283.687
283.15
303.132
301.895
283.77
283.15
303.09
283.15
303.15
284.719
284.693
286.164
297.679
283.15
297.619
297.727
292.423
286.888
285.271
303.15
291.88
283.15
299.955
283.15
296.919
283.15
292.207
298.632
303.151
283.15
286.869
303.15
295.662
299.194
283.15
283.15
283.15
283.15
303.15
293.812
283.15
283.15
283.245
283.15
299.911
283.15
284.829
303.15
283.436
303.121
284.699
292.035
283.15
301.508
283.15
283.15
285.734
283.15
283.263
283.15
299.77
303.15
290.817
303.15
283.15
302.432
284.477
300.172
285.668
300.172
289.506
283.15
300.7
284.559
283.15
283.14
300.422
301.643
283.15
282.4
301.118
303.065
283.115
303.15
287.596
302.214
284.412
285.414
288.274
282.514
283.15
303.15
300.838
303.15
283.571
283.15
283.15
291.918
282.662
303.15
303.119
283.15
286.31
299.679
283.15
283.15
299.695
303.15
283.15
283.15
283.15
286.185
283.15
303.15
284.844
284.268
303.15
299.796
283.15
289.293
303.15
283.15
286.191
283.15
283.15
283.15
285.442
283.15
285.485
292.112
303.15
300.455
283.451
298.808
301.006
283.343
283.466
283.15
289.078
298.557
303.15
302.283
296.068
296.987
284.754
297.552
297.29
303.15
300.285
303.136
283.15
297.261
284.887
283.15
292.526
295.852
284.899
298.878
300.709
292.483
283.15
299.013
283.47
303.15
300.666
302.017
294.24
283.15
286.563
303.15
283.15
283.15
283.15
283.31
283.15
303.15
303.15
283.15
300.492
299.361
303.15
285.659
303.15
303.15
303.15
290.078
283.433
283.15
303.15
283.15
283.15
286.946
292.532
283.15
295.282
283.135
283.15
295.453
302.251
287.851
283.15
283.15
300.339
292.226
283.15
283.15
283.15
294.098
303.15
303.15
283.15
296.377
302.392
283.15
282.512
301.864
286.602
283.15
283.15
287.501
302.98
283.15
283.161
287.519
283.786
288.914
283.15
285.766
300.338
283.15
303.15
283.15
283.15
283.15
283.15
295.81
303.15
283.15
283.15
295.426
291.946
303.15
303.15
289.93
298.52
298.417
303.15
283.15
298.09
303.15
283.862
298.942
298.462
303.15
303.15
303.15
283.15
286.086
283.15
283.15
302.725
303.15
297.919
302.293
283.15
294.194
283.262
296.56
292.039
283.436
289.891
283.15
283.15
297.001
288.197
290.893
283.15
283.15
298.112
295.096
283.15
283.925
284.634
283.476
303.15
303.15
303.15
290.798
283.15
300.141
283.15
284.388
297.661
298.621
292.406
283.15
283.15
303.15
295.514
283.15
283.15
303.107
283.15
283.15
303.15
283.15
299.413
283.15
283.15
283.15
283.15
283.15
303.15
283.15
283.173
298.821
303.15
302.552
283.13
283.4
283.093
285.598
283.15
284.459
290.621
283.401
303.15
283.149
299.827
283.15
300.333
283.157
283.143
286.265
297.612
283.222
291.92
298.057
283.15
283.15
299.162
299.877
283.15
297.463
291.325
297.624
283.15
283.247
283.15
297.931
297.058
283.15
300.173
297.705
283.149
299.877
283.15
295.716
283.144
303.12
283.162
283.16
283.15
283.15
284.48
283.15
302.974
283.603
283.069
303.148
303.149
303.147
283.15
283.15
293.951
303.15
303.157
283.875
283.15
283.15
303.155
303.15
283.15
303.164
283.15
283.15
303.15
303.15
303.15
303.15
283.375
283.15
283.15
283.15
303.159
283.309
283.904
293.608
283.15
283.15
283.339
283.15
283.15
283.15
287.285
293.735
283.15
283.15
283.15
283.15
283.15
283.15
284.016
283.15
303.15
291.664
283.15
303.15
303.15
303.153
303.15
303.15
283.15
303.169
283.15
283.71
283.144
303.152
283.15
303.065
284.442
292.218
303.15
303.129
284.484
303.15
283.15
303.15
283.15
294.179
293.58
284.679
303.148
283.15
293.355
283.15
283.15
303.15
283.15
294.974
283.15
303.15
283.163
298.217
303.15
284.421
283.15
283.594
283.15
283.15
283.15
303.15
285.899
283.486
284.378
283.15
283.15
285.695
283.15
283.15
303.15
284.387
303.164
298.67
303.15
303.128
303.129
283.15
303.132
283.15
283.462
289.239
301.071
283.823
283.166
283.15
283.15
283.15
303.182
283.15
302.918
303.15
293.076
303.15
288.749
283.845
303.15
283.15
303.15
283.15
301.847
303.15
303.15
286.48
300.645
283.15
283.15
283.15
283.15
283.15
283.15
300.895
283.587
303.15
303.15
303.157
303.15
300.289
284.456
283.15
302.151
303.15
301.672
283.15
302.599
283.15
283.148
303.152
283.322
302.165
300.323
283.147
283.15
289.419
303.15
293.524
303.15
283.15
303.15
283.15
283.15
283.15
300.886
302.095
303.15
303.15
303.15
302.922
283.15
303.15
293.031
283.083
303.15
297.571
298.379
296.619
283.385
283.15
283.15
283.15
283.15
294.751
283.15
294.966
283.15
303.066
289.884
283.15
302.879
283.15
283.15
302.762
283.148
302.919
283.15
303.15
283.15
302.422
283.15
303.15
283.15
283.147
283.15
283.172
283.15
283.15
303.15
293.051
301.132
296.209
297.137
303.15
303.119
283.15
283.15
285.742
283.15
283.158
302.865
298.838
302.952
303.15
283.372
283.15
303.15
283.15
302.998
283.337
298.375
283.15
303.15
288.14
303.15
283.15
283.123
295.175
283.147
283.15
283.15
283.149
303.15
283.15
303.143
303.15
303.15
290.005
302.993
303.01
289.081
293.396
283.15
283.15
303.093
289.154
283.15
303.15
284.785
283.15
303.15
283.15
283.15
283.15
297.744
283.15
302.946
283.15
300.569
283.15
283.15
283.15
283.15
283.15
283.15
285.079
283.15
283.15
283.15
283.15
283.15
283.15
292.117
283.15
298.444
302.95
283.15
302.36
283.15
302.548
303.145
292.357
288.84
303.15
292.222
284.817
303.114
303.15
303.139
295.135
288.74
283.15
287.962
283.15
283.15
283.15
283.15
287.605
283.15
283.15
291.701
303.137
285.356
283.15
283.15
302.546
283.15
283.187
303.15
299.94
283.15
283.15
302.836
283.15
303.178
303.15
283.15
289.145
298.076
292.776
285.723
292.723
294.218
283.15
283.15
302.316
290.653
292.894
284.456
283.15
294.453
283.15
303.15
300.794
298.846
283.15
297.486
283.15
292.837
297.336
303.15
283.15
283.15
301.819
283.15
283.15
300.576
296.206
283.199
291.284
283.15
283.15
302.809
300.595
283.15
300.72
283.15
300.579
283.15
283.15
300.876
283.15
283.229
301.656
283.15
283.15
302.467
283.15
287.951
303.15
290.514
303.15
303.15
303.15
301.008
283.15
283.15
299.631
283.15
302.992
283.15
283.15
303.15
283.151
288.239
283.15
283.15
288.1
288.282
283.15
283.697
283.15
303.15
302.456
283.738
301.625
283.15
283.15
283.15
283.15
283.15
283.15
283.15
283.15
283.15
283.15
283.15
303.15
283.15
283.15
283.15
283.15
283.15
283.15
283.15
283.15
303.15
286.981
283.15
283.15
283.15
294.842
283.15
303.15
303.006
283.15
283.15
294.852
283.15
283.15
301.945
295.327
283.15
303.603
303.582
283.15
301.535
294.102
297.664
301.532
298.26
303.15
283.15
296.466
291.858
301.478
283.15
302.181
302.44
300.943
288.094
287.353
301.127
301.807
301.833
303.15
285.945
297.665
285.571
297.373
283.15
283.15
283.15
303.15
283.15
292.095
298.034
283.15
283.15
283.15
283.15
283.15
303.15
283.15
303.15
292.196
303.126
299.13
302.853
283.15
283.15
285.42
283.168
283.15
283.15
301.756
303.15
283.15
298.271
299.614
297.642
298.767
300.886
303.15
291.096
302.601
303.15
303.15
300.394
303.15
283.15
282.929
295.68
302.954
283.15
303.15
289.723
286.246
297.21
292.294
302.48
303.15
303.138
303.15
303.15
283.15
299.033
283.15
291.889
290.565
299.794
284.791
303.15
301.97
303.15
283.15
303.15
303.15
291.585
299.867
283.15
303.15
303.134
291.868
303.041
299.457
292.964
288.378
293.046
283.15
303.15
283.15
291.407
298.425
303.151
303.15
303.15
303.15
297.605
302.583
283.15
300.073
301.217
284.914
299.624
303.15
303.15
298.801
293.093
283.15
302.91
299.8
302.627
292.064
297.436
298.365
303.15
287.032
298.246
291.487
283.15
289.195
303.15
288.428
301.123
303.15
288.777
301.334
300.176
293.301
283.151
283.16
283.244
301.795
300.983
303.15
288.861
301.528
303.15
283.15
303.15
303.209
298.864
291.083
296.838
303.25
283.149
297.645
303.15
303.15
292.937
303.15
300.359
283.31
301.372
291.585
303.15
283.667
293.365
303.15
283.04
298.797
303.15
300.778
286.318
303.15
303.15
284.015
303.15
283.15
283.15
285.945
299.474
291.343
303.15
285.253
297.602
283.15
298.969
299.002
289.03
303.119
283.15
301.552
299.689
298.969
300.179
288.701
290.919
302.508
303.15
301.607
288.775
303.15
298.979
283.15
283.15
303.15
283.15
303.15
297.516
283.15
300.616
283.664
303.15
283.829
283.15
289.915
303.15
303.145
303.15
294.246
303.007
303.122
299.952
290.466
289.489
290.64
298.536
303.15
299.495
292.283
299.05
303.15
283.899
283.463
299.359
287.245
283.524
303.15
283.15
303.15
285.363
303.15
303.309
284.728
303.317
302.965
303.15
303.15
283.15
300.622
300.702
285.536
303.092
287.037
295.809
301.908
292.629
288.261
302.109
296.235
283.15
283.15
303.15
285.872
289.77
283.15
283.15
303.15
302.017
288.822
303.15
296.519
303.15
283.156
285.222
301.194
303.15
303.15
292.404
303.15
283.308
290.67
283.15
297.276
294.718
296.165
303.15
302.734
283.15
302.694
293.579
303.15
303.15
288.845
283.15
303.15
301.847
284.494
303.15
303.15
283.15
302.369
303.436
289.561
299.805
298.149
303.15
303.158
302.616
303.15
283.15
303.15
303.15
303.15
303.15
303.15
303.15
303.15
283.15
303.15
303.15
283.352
303.15
303.319
303.15
303.16
303.15
303.15
300.999
303.681
303.15
292.131
303.15
303.15
283.15
302.585
303.15
302.183
303.117
283.297
283.15
303.15
302.602
283.149
303.15
303.15
291.477
283.15
292.706
283.15
283.15
283.153
291.332
284.867
303.15
296.73
283.15
303.684
303.134
284.35
302.62
283.15
292.281
303.085
301.707
283.15
303.15
283.15
304.007
284.862
296.96
303.15
303.15
303.15
303.15
303.15
303.15
302.396
302.831
297.7
292.248
303.15
287.26
292.753
285.027
303.207
283.15
286.973
302.778
284.804
283.148
287.51
303.15
283.396
302.935
292.648
302.866
301.925
303.15
302.27
303.15
303.15
298.062
303.15
284.527
303.15
303.15
283.15
303.15
303.15
302.865
303.15
283.304
283.15
283.15
285.909
284.895
300.962
286.203
303.15
295.026
303.15
290.524
303.15
287.26
300.76
301.541
293.437
303.15
303.15
303.15
289.861
283.15
303.15
289.612
283.15
283.15
301.872
303.15
286.206
283.148
283.15
303.15
303.15
300.703
298.31
303.15
293.592
303.041
283.15
298.665
303.15
286.442
288.274
302.17
303.15
296.396
296.827
302.963
301.934
301.692
303.15
303.15
303.147
303.15
283.15
303.15
289.617
300.244
294.419
302.163
283.15
300.453
291.507
298.347
283.611
298.441
289.758
302.201
283.15
283.15
283.15
302.246
283.15
290.535
283.15
301.319
303.161
289.772
298.115
283.15
303.15
301.307
301.284
303.15
283.15
303.15
286.448
301.506
302.987
302.379
298.085
288.471
303.15
303.15
303.15
294.398
286.062
289.951
296.018
283.986
302.969
303.15
303.15
283.15
283.15
285.459
299.694
303.15
303.15
283.15
303.15
303.15
303.15
300.35
303.15
285.413
292.765
283.15
283.253
293.506
285.72
303.15
303.15
301.94
303.15
299.331
283.146
297.649
303.15
303.15
283.15
303.15
303.15
303.15
305.36
303.15
301.892
301.167
303.15
303.15
301.673
303.15
283.15
287.31
303.112
303.15
303.15
303.15
298.067
303.15
303.15
302.521
302.52
301.833
303.15
283.15
303.15
302.089
302.544
301.583
302.565
283.15
300.754
287.61
297.521
283.15
303.15
303.15
303.15
303.15
294.486
287.606
299.723
303.15
303.15
303.15
303.15
283.15
303.148
284.837
285.19
283.15
303.15
303.15
283.147
299.661
295.072
283.15
303.15
303.15
303.15
303.15
289.663
289.797
303.15
303.15
302.427
303.15
301.495
283.977
292.045
303.15
283.15
301.217
303.125
303.15
303.269
301.381
286.967
303.15
303.15
303.15
303.15
293.375
284.189
303.15
302.717
298.215
289.832
303.15
303.15
303.15
303.15
299.649
303.151
303.15
303.15
298.398
302.615
288.47
303.15
303.15
297.915
303.15
303.15
303.15
303.15
288.887
303.15
283.15
283.15
296.08
291.218
303.15
303.15
303.15
297.121
303.146
303.15
303.15
303.15
303.15
303.428
300.94
303.15
287.418
302.67
299.501
303.15
303.15
303.15
303.15
283.15
285.753
303.15
302.834
283.15
302.22
303.15
303.137
303.15
283.15
301.985
285.942
283.15
302.852
303.15
302.448
283.15
303.15
303.15
303.151
303.15
283.279
303.15
290.907
283.15
283.15
303.15
303.15
298.963
302.398
283.15
302.472
283.15
284.152
288.07
302.714
283.15
303.155
302.992
303.135
284.447
283.156
302.993
283.15
283.15
283.156
302.12
302.329
303.15
283.15
283.15
295.8
303.15
283.15
303.15
303.15
303.15
303.105
303.053
302.944
302.47
303.15
302.928
303.15
284.836
303.15
303.15
283.15
303.15
303.112
303.15
283.15
303.15
288.356
303.15
303.15
303.187
283.15
303.043
302.307
297.192
303.15
289.953
295.3
284.004
290.529
283.15
283.15
287.239
284.353
283.15
303.751
283.15
286.431
303.15
283.15
303.154
303.15
303.15
303.021
303.155
303.15
283.15
303.14
303.15
283.15
283.103
298.834
302.719
303.15
301.878
303.15
285.725
303.151
301.23
303.15
303.15
301.093
303.15
303.15
303.15
287.737
303.15
285.175
303.15
303.147
303.15
283.15
283.15
303.15
303.15
303.15
288.775
302.573
303.15
303.15
288.728
286.586
291.523
303.15
302.715
287.708
287.592
303.15
303.15
287.938
283.15
292.089
303.15
303.153
303.149
303.15
300.607
283.15
302.351
283.15
303.15
303.15
303.15
303.15
303.15
284.355
302.27
291.236
303.15
303.15
290.762
303.15
303.15
303.15
303.15
303.15
300.251
303.15
303.15
283.15
299.574
303.15
283.15
303.15
301.428
283.15
300.058
290.788
302.699
300.119
299.554
303.15
303.15
303.15
300.933
288.597
283.15
303.15
300.403
303.15
303.15
292.179
303.15
287.553
303.15
297.967
284.369
303.15
283.15
303.15
303.15
303.15
285.336
303.15
300.562
303.15
303.15
299.8
283.15
284.763
303.15
303.15
288.232
301.584
296.611
303.15
303.15
303.15
301.6
292.398
303.15
283.15
303.15
300.753
303.15
284.787
296.494
303.15
303.15
301.2
303.15
303.15
283.15
303.15
283.15
294.787
303.15
283.15
303.15
303.15
303.15
303.15
303.15
303.15
283.15
301.551
283.15
302.11
303.15
303.15
296.256
300.553
303.15
283.15
303.15
300.949
283.15
303.15
303.15
303.15
300.775
303.15
297.849
303.15
285.922
283.15
286.763
303.15
303.15
298.62
283.15
303.15
287.947
283.251
303.15
303.15
285.153
283.87
300.911
301.775
301.244
293.243
301.779
283.863
303.15
297.896
283.15
283.15
303.15
303.15
303.15
301.276
303.15
303.15
303.15
303.132
283.17
283.15
283.581
303.15
302.039
283.15
303.143
296.23
283.15
294.669
303.15
303.15
283.15
299.971
283.942
303.15
283.15
299.999
303.15
297.863
303.15
295.443
303.15
283.15
303.15
283.15
299.49
283.15
283.231
283.15
286.223
303.15
303.15
283.15
283.15
303.15
303.15
303.15
303.15
284.889
284.857
283.15
303.15
283.236
283.15
283.15
303.155
290.024
283.558
283.15
301.553
284.941
300.513
288.306
303.15
303.15
303.15
303.15
283.15
283.15
283.15
303.15
283.15
283.15
303.15
283.15
297.37
283.15
303.15
283.15
303.15
303.15
283.456
283.15
303.15
301.983
303.149
303.15
303.15
303.15
288.769
283.15
303.15
303.149
283.15
303.15
303.15
303.15
295.411
283.15
283.186
303.15
303.15
303.15
303.15
303.15
303.149
303.147
284.141
303.15
283.15
303.15
303.15
303.15
303.148
303.149
283.15
283.15
283.15
303.15
303.15
283.15
303.149
283.15
287.747
283.15
301.846
283.15
303.154
303.15
284.619
283.15
284.464
297.527
303.15
284.7
303.172
303.15
297.537
283.15
303.15
303.15
303.15
303.15
283.15
303.15
303.15
299.261
283.15
303.15
303.15
303.15
303.15
292.39
290.847
303.169
283.166
303.15
301.865
302.358
303.15
283.15
283.15
303.15
303.15
303.15
283.15
283.15
283.824
303.15
303.15
303.194
303.151
283.15
289
303.15
283.15
303.15
288.167
303.15
283.15
302.138
283.15
283.15
283.15
303.15
299.721
303.15
303.15
303.15
283.15
284.515
293.713
295.374
289.696
303.123
303.024
283.15
283.15
301.149
283.699
283.15
303.149
303.15
303.15
283.15
294.687
303.15
283.15
302.986
303.15
303.15
283.805
303.15
303.15
288.513
289.693
303.15
283.15
303.15
283.15
303.15
303.15
303.15
303.15
283.956
303.15
303.15
303.15
302.937
303.15
303.15
283.15
283.15
283.15
283.15
302.949
283.15
283.15
301.015
303.15
284.778
284.938
303.15
301.181
303.15
283.15
303.15
283.15
283.15
303.15
303.15
303.15
302.687
303.15
303.15
303.15
283.15
303.15
283.15
286.423
303.15
303.15
291.679
303.15
283.15
283.15
302.446
303.15
303.147
283.15
303.197
286.745
283.15
283.15
299.288
283.15
283.15
303.06
303.16
293.408
303.166
303.151
303.152
283.15
283.15
302.659
283.463
285.904
300.934
283.158
283.15
291.109
301.625
301.536
283.15
300.307
290.745
300.193
302.248
302.775
284.72
295.623
299.323
286.289
293.477
300.196
303.15
298.032
297.718
302.796
283.689
292.496
301.222
287.372
303.15
301.089
303.15
300.759
301.545
283.657
285.052
303.15
283.15
302.311
301.723
283.145
303.172
288.6
302.701
301.925
300.89
303.15
303.225
301.209
295.176
300.48
289.136
302.928
301.688
302.222
302.312
284.256
302.525
301.642
283.183
303.15
302.905
303.15
303.15
302.122
302.036
294.46
303.15
284.736
292.344
292.398
301.07
303.15
284.046
285.246
284.422
303.15
298.907
303.15
296.47
295.456
300.794
303.143
303.15
303.15
301.989
301.31
302.796
303.15
292.682
302.765
290.127
283.15
298.429
294.088
303.15
300.562
283.15
283.206
283.15
302.595
303.105
303.15
302.99
298.496
283.148
300.592
302.263
295.404
283.544
295.949
297.175
283.473
303.134
284.805
296.401
283.325
297.014
300.556
300.332
300.439
302.016
290.026
301.622
303.15
302.747
302.68
302.685
296.595
302.905
283.15
302.06
293.506
303.15
283.437
286.873
301.272
302.608
290.592
284.861
287.754
302.635
296.489
303.15
303.15
295.093
283.15
292.733
283.433
303.15
290.617
290.335
283.931
303.15
297.359
298.578
284.277
301.311
294.255
290.227
300.576
303.116
303.15
303.15
283.563
302.639
283.35
285.882
303.15
303.028
303.042
303.15
285.447
300.882
297.989
283.255
299.615
302.389
300.564
287.025
283.15
303.107
301.84
283.762
283.143
303.15
303.079
303.15
303.15
284.222
302.564
296.471
283.047
283.152
303.15
283.15
302.965
303.049
302.531
301.468
303.15
283.15
283.15
301.871
301.927
283.222
295.972
303.15
303.15
301.674
285.582
283.264
301.735
301.834
301.769
284.413
303.15
283.15
298.556
297.839
303.15
302.717
302.11
284.861
285.045
302.144
303.064
303.15
298.262
284.446
283.15
303.15
300.626
301.289
302.049
289.741
302.105
285.747
300.252
300.344
290.395
297.682
303.15
303.15
301.004
284.516
302.12
283.151
300.57
301.744
283.651
288.332
302.441
283.15
283.15
283.028
303.15
303.15
300.043
298.995
302.305
283.147
283.15
283.972
283.15
283.15
283.151
303.086
300.986
299.259
296.032
283.374
303.099
300.223
303.15
283.15
302.585
289.307
300.877
292.768
283.525
303.063
283.148
283.15
302.844
301.277
302.627
283.156
291.374
284.94
303.15
284.28
301.082
283.15
283.311
285.01
284.327
283.15
283.15
301.693
283.15
289.524
302.551
302.716
301.815
283.486
298.713
290.41
283.15
303.316
292.17
283.15
283.15
283.15
303.15
301.249
302.44
299.239
301.51
299.974
288.978
283.155
291.054
290.213
303.065
291.236
300.099
292.138
283.15
286.358
301.131
301.616
283.15
284.031
299.747
283.15
303.15
283.19
301.322
303.15
284.027
302.289
303.025
303.15
283.15
292.892
303.153
301.744
283.15
283.15
283.15
302.214
297.73
303.142
302.218
303.166
303.15
288.49
303.166
290.498
300.304
300.264
296.7
283.158
301.746
283.15
290.673
301.473
289.6
290.549
299.077
300.792
301.649
287.231
291.197
285.08
283.174
302.242
286.158
283.149
283.144
300.276
283.077
300.379
287.109
296.147
299.541
289.355
299.388
283.121
299.219
283.15
290.064
289.554
298.726
283.337
283.15
300.62
283.15
302.807
283.15
303.15
286.501
286.506
283.15
299.106
298.643
287.113
303.15
303.15
301.758
289.845
303.018
283.754
301.627
287.227
303.147
284.219
288.279
303.15
301.478
283.15
283.15
287.629
287.105
283.145
285.323
301.549
286.311
301.264
303.15
285.221
301.791
291.279
303.15
303.15
301.666
302.082
303.15
293.112
294.356
283.68
296.546
286.87
290.139
303.15
302.871
297.159
285.078
283.15
287.788
291.952
299.718
283.165
283.779
282.926
301.99
303.127
283.151
303.135
303.15
300.627
293.158
298.948
294.013
283.15
292.004
296.119
285.628
283.215
292.219
283.15
300.339
303.165
292.694
284.132
303.144
291.931
298.715
288.376
300.404
291.387
287.447
283.15
303.142
285.356
290.058
293.584
283.15
283.15
283.15
303.141
283.15
283.136
286.479
303.15
283.15
303.166
283.174
291.172
289.279
303.44
302.922
290.001
303.15
297.124
303.173
302.054
287.381
283.15
293.057
303.146
303.096
286.256
283.15
283.15
283.476
286.117
303.058
303.144
287.566
289.541
283.5
283.163
289.927
293.289
303.15
283.15
303.102
303.15
302.367
285.044
302.361
303.096
284.098
283.802
284.09
302.87
302.201
297.471
294.105
303.074
291.377
291.096
303.15
303.1
302.615
285.497
283.391
303.15
286.004
283.398
302.943
301.72
302.207
283.15
300.421
301.902
303.15
302.182
285.418
303.15
298.014
303.15
283.15
300.778
302.694
286.377
302.519
283.15
285.244
303.011
283.15
302.327
285.379
294.971
284.354
303.15
303.026
302.891
286.529
283.15
287.202
284.296
289.856
285.801
302.285
303.15
283.15
283.15
293.193
283.15
301.09
302.196
290.414
283.15
294.102
283.15
303.15
283.15
300.13
298.698
283.151
285.326
301.765
303.088
303.156
292.059
294.386
301.258
283.217
301.837
283.145
303.15
303.144
299.39
283.15
301.4
294.939
303.15
300.986
287.346
301.986
284.936
288.271
283.15
302.253
287.784
298.532
303.085
283.15
303.15
291.733
302.195
283.075
283.147
286.888
298.463
303.149
284.568
301.083
301.057
301.301
303.152
299.977
287.702
284.949
301.637
299.973
283.741
283.1
303.159
303.149
303.15
297.483
283.162
283.15
303.15
303.149
290
298.964
300.324
287.831
302.809
303.15
286.462
301.63
303.15
300.995
283.817
301.512
303.15
284.601
301.421
295.581
302.779
303.15
303.15
285.218
295.223
296.512
287.493
303.15
303.15
283.15
287.265
302.418
296.301
303.15
285.632
303.15
303.15
300.494
288.79
283.15
295.684
296.013
299.125
283.15
303.15
292.742
287.255
303.15
298.073
300.598
300.502
303.15
303.15
303.15
300.314
298.449
302.804
299.984
283.15
292.938
287.737
290.774
300.642
303.15
303.15
300.84
303.099
286.639
296.221
303.15
303.148
283.15
286.497
299.043
285.616
303.15
303.15
283.351
303.126
303.15
303.15
283.15
290.567
303.15
303.15
284.626
299.348
283.15
303.15
284.633
301.38
300.241
287.057
295.013
303.15
283.513
303.15
303.15
283.297
300.607
290.449
300.463
303.15
303.132
302.192
292.867
299.837
301.38
284.461
283.467
300.898
298.502
303.15
302.771
284.171
299.831
301.431
287.79
303.15
297.478
301.459
301.542
301.584
292.942
303.15
283.15
299.23
283.15
283.15
287.77
283.15
284.03
283.15
283.15
283.15
283.15
302.763
288.166
302.713
283.15
295.785
290.979
284.776
283.15
303.15
302.688
301.758
303.178
302.647
283.15
294.972
300.337
290.214
283.15
283.15
299.853
285.949
283.15
283.15
303.149
290.666
283.15
287.203
303.15
303.152
284.325
283.15
288.32
292.814
300.827
294.645
302.959
285.695
302.527
295.312
286.307
283.15
283.556
291.694
303.086
289.199
302.665
283.15
292.42
287.767
301.053
301.311
284.959
303.108
284.962
297.177
302.994
303.147
285.15
303.146
303.009
293.357
302.696
283.15
303.15
303.15
294.839
291.138
283.155
301.131
284.683
284.161
284.651
303.145
288.375
300.527
283.15
283.15
302.515
303.15
294.615
302.902
303.181
299.867
303.218
302.894
283.15
301.347
302.889
283.15
303.15
301.341
303.15
284.353
298.834
283.165
291.557
283.15
287.595
303.02
299.844
283.15
303.029
290.94
301.263
303.129
303.081
283.15
283.15
301.964
302.032
283.819
302.829
302.432
302.407
303.141
283.15
293.833
283.15
302.806
287.919
302.991
303.15
283.15
302.836
285.195
291.516
302.084
283.15
302.595
302.028
301.607
302.499
303.053
303.204
303.013
303.15
283.15
301.536
297.944
303.09
303.15
289.981
285.065
303.15
283.15
285.371
303.183
303.164
302.923
301.17
284.288
303.099
290.79
294.265
303.148
289.128
303.163
283.15
289.919
283.15
300.027
298.243
284.83
288.254
299.654
296.71
295.338
299.229
293.815
303.153
293.932
296.488
283.16
299.427
293.902
303.15
299.01
299.199
303.15
291.293
303.17
301.69
303.15
286.936
286.028
302.803
289.686
283.15
283.15
300.373
301.185
283.744
283.15
303.15
300.269
302.339
300.693
299.939
302.792
292.614
289.654
286.693
292.525
284.304
290.434
283.312
295.758
290.454
293.942
287.191
284.309
303.162
283.279
303.147
285.596
300.745
283.151
300.443
298.431
288.756
302.121
285.446
299.124
283.15
302.956
283.155
283.113
287.825
299.693
303.15
300.381
303.025
299.96
302.768
303.15
301.3
284.956
295.036
302.067
303.149
283.704
283.15
290.41
285.263
285.755
303.146
303.149
283.15
283.15
283.177
303.15
293.445
303.15
303.152
294.649
303.443
303.15
300.451
303.15
303.15
293.642
290.638
303.15
289.848
302.083
289.572
303.15
303.15
286.019
283.343
290.362
303.221
303.15
303.146
285.473
283.261
283.15
289.039
287.636
303.15
284.325
303.15
303.15
303.132
287.334
303.15
303.147
283.28
303.152
302.667
287.922
283.152
283.607
297.411
290.761
303.15
285.958
284.467
301.362
287.165
302.212
290.606
293.919
303.15
303.15
284.015
303.151
302.955
295.932
302.955
302.748
287.225
283.15
285.378
283.221
297.226
302.617
285.397
303.15
283.818
286.715
303.127
283.176
303.15
286.475
283.15
300.16
303.15
299.763
299.939
283.306
283.365
302.34
290.949
301.397
303.15
301.425
301.773
303.15
303.15
298.39
293.551
283.15
288.883
303.15
295.273
283.366
303.15
296.964
298.795
289.001
303.15
302.761
294.329
295.464
284.465
303.161
298.776
296.237
284.006
303.126
302.808
287.436
298.537
289.843
290.853
289.753
283.15
302.959
303.151
303.15
303.171
293.234
296.422
302.982
301.315
303.15
284.461
303.15
303.046
302.862
303.15
293.655
296.278
303.15
285.407
303.098
303.15
303.093
303.157
286.083
293.411
291.16
288.411
293.433
303.15
301.261
291.588
295.403
293.421
303.141
303.15
300.582
303.188
284.256
303.189
303.15
303.15
303.143
303.15
284.971
303.15
284.248
303.146
303.15
290.296
303.144
292.52
295.57
303.134
295.425
285.998
283.434
303.127
302.945
284.726
283.15
297.161
303.15
285.538
302.913
302.068
303.025
298.493
287.097
303.15
298.717
289.917
299.366
283.15
283.638
303.15
303.145
303.19
294.104
303.15
292.471
289.377
303.194
303.15
284.83
298.853
293.306
299.664
302.49
301.621
300.44
303.15
284.731
297.015
302.383
285.669
298.393
292.334
284.493
291.751
303.15
286.73
291.877
290.141
299.498
303.15
286.441
284.105
303.15
302.451
288.142
302.121
283.15
303.15
299.893
301.721
289.077
302.009
301.955
301.844
303.15
289.428
285.139
301.982
302.254
297.214
303.15
283.202
303.15
302.009
303.15
302.824
303.15
291.741
303.15
296.671
283.15
289.623
303.15
283.15
292.21
301.492
300.473
289.211
300.555
303.15
302.503
303.15
302.383
285.251
303.15
300.459
290.46
303.15
300.856
303.15
303.15
293.223
283.15
285.544
293.316
300.965
303.15
291.251
293.957
288.278
289.671
288.116
299.256
300.302
300.839
287.442