/*--------------------------------*- C++ -*----------------------------------*\
  =========                 |
  \\      /  F ield         | OpenFOAM: The Open Source CFD Toolbox
   \\    /   O peration     | Website:  https://openfoam.org
    \\  /    A nd           | Version:  10
     \\/     M anipulation  |
\*---------------------------------------------------------------------------*/
FoamFile
{
    format      ascii;
    class       volVectorField;
    location    "9.5";
    object      U;
}
// * * * * * * * * * * * * * * * * * * * * * * * * * * * * * * * * * * * * * //

dimensions      [0 1 -1 0 0 0 0];

internalField   nonuniform List<vector> 
111485
(
(1.4146 -1.41435 0.000567498)
(4.11143 -0.00924606 -0.0238199)
(4.04957 0.0104694 0.0123034)
(1.41396 -1.41435 9.76478e-05)
(4.20424 0.0194724 0.000690043)
(1.46885 1.46745 -0.000132913)
(4.13063 0.0114055 0.00332109)
(4.25166 -0.0114543 0.00585116)
(4.13152 -0.00324893 0.00201115)
(4.23443 -0.0444632 -0.0179727)
(4.07282 0.00984944 0.0113054)
(4.25812 -0.0103589 0.0193172)
(4.01248 0.0031241 0.00990954)
(4.06285 -0.00904961 -0.0291266)
(4.10855 0.0160559 0.00923327)
(4.20174 -0.0273279 -0.0215677)
(4.1485 -0.0037007 0.00648362)
(1.46126 -0.116984 0.219002)
(4.2081 0.0121342 -0.00852132)
(1.41101 -1.40948 5.51091e-05)
(1.41247 -1.41212 -0.0014103)
(1.46991 1.46986 4.70488e-05)
(4.16487 0.0131907 0.000336014)
(4.24028 -0.0266777 -0.00889495)
(4.16917 0.0144977 -0.00354242)
(1.42402 -1.41894 -0.00200754)
(4.27437 -0.0179161 0.0204204)
(4.06079 -0.00690406 0.000686739)
(4.22413 0.00608083 -0.0105505)
(1.41257 -1.41227 -0.000228856)
(4.27348 0.0682832 -0.0175082)
(4.21519 -0.00831293 0.00113222)
(1.40776 -1.41023 0.00198298)
(1.4696 1.47265 -0.00326919)
(1.47698 0.610981 0.235085)
(1.47869 1.48879 -0.0216634)
(4.25136 0.0673985 -0.0271039)
(4.11352 0.00902886 0.037235)
(4.21772 1.27864 0.0716452)
(4.21725 0.0196419 0.00172342)
(1.45268 1.46604 -0.0106671)
(4.25501 0.00736413 -0.0255404)
(4.21722 0.0207605 0.00742795)
(4.0585 -0.0239083 0.000926989)
(4.24908 -0.0741342 -0.0394049)
(1.41518 -1.40363 0.00501611)
(4.25391 -0.0192147 0.0188187)
(4.23391 -0.0252348 -0.00794492)
(4.25687 0.00119689 -0.021037)
(1.40461 -1.38666 0.00749589)
(1.40225 -1.38891 0.00819903)
(1.67123 1.40446 0.0252206)
(1.39681 -1.3922 0.0046495)
(4.25017 0.0191846 -0.0339317)
(1.39363 -1.38864 0.000810061)
(4.19648 0.0104647 -0.00466881)
(4.20219 -0.0175286 -0.00908288)
(1.47099 1.46847 0.000972115)
(3.84202 -0.00772577 -0.0654338)
(4.22222 0.0177461 -0.0018988)
(4.22089 0.0192547 -0.000645569)
(1.40981 -1.41286 0.00206043)
(3.93793 0.0039837 0.0252372)
(4.27445 -0.0107858 0.0317304)
(1.52191 1.37903 0.00349609)
(3.86864 0.00816593 -0.00797744)
(2.97052 -0.241833 0.104598)
(4.23184 -0.0140192 0.00547763)
(3.83543 0.000839406 0.0137485)
(3.64078 -0.00652652 0.00207192)
(4.08581 0.0360467 -0.0168223)
(3.79739 -0.0102074 0.0198951)
(1.52935 -1.37982 -0.0304338)
(3.89501 0.00606642 0.0291628)
(1.41385 -1.41329 -0.00020651)
(4.21544 -0.00920507 0.00918646)
(1.46986 1.47007 -0.000377667)
(4.24868 -0.00864345 0.0220454)
(1.46942 1.46869 0.000122482)
(1.33062 1.29964 -0.0435333)
(4.10575 -0.060808 0.0406502)
(4.24702 0.0162122 0.00172854)
(1.46745 1.46611 0.000384272)
(1.41402 -1.41369 0.000638062)
(3.98951 -0.000563055 0.00874219)
(3.83607 0.0103877 -0.0160699)
(3.2801 2.12776 -0.572217)
(4.19929 0.0507391 0.00476809)
(4.0472 0.103413 0.0879063)
(4.10762 0.0100043 0.00883476)
(4.3278 0.0834055 -0.0537527)
(4.20086 -0.00704506 0.00674012)
(3.94289 -0.00638717 0.0136631)
(4.02741 -0.00363392 0.00485303)
(4.25758 0.0125924 -0.0232367)
(1.4141 -1.41342 -0.000165144)
(1.41343 -1.41296 0.000894514)
(4.1966 0.0470875 0.0153166)
(4.3299 -0.854113 0.0601627)
(3.93493 0.0131033 0.0247606)
(1.41426 -1.41393 0.000615802)
(4.21168 -0.022191 0.00182801)
(1.47747 1.4802 0.00810971)
(4.18097 0.000433794 -0.00302245)
(4.15436 -0.0198111 -0.0248425)
(1.44181 1.28986 -0.0303034)
(1.46994 1.46971 -0.000238175)
(4.2213 -0.0113857 -0.000946532)
(3.90143 -0.0212609 0.00437142)
(3.73803 -0.110182 -0.11511)
(3.9895 -0.00213942 0.00632229)
(4.1901 0.00625505 -0.0025424)
(3.91199 -0.00237654 0.0147877)
(3.85159 -0.0189092 0.0082516)
(1.42703 -1.41962 0.000468151)
(3.73196 -0.0048754 0.0108016)
(1.4191 -1.41465 -0.00189115)
(1.47762 1.47147 0.00601306)
(4.12543 0.0147222 0.0126854)
(1.41387 -1.41303 0.000583516)
(1.42485 -1.41906 -0.00150969)
(1.93686 1.52309 0.0925512)
(1.45982 1.46665 -0.00237141)
(1.47427 1.47064 -0.0034036)
(4.0316 -0.00904085 0.018022)
(1.13483 -0.801064 -0.212518)
(1.84722 1.58864 0.0559449)
(3.76681 -0.00127301 0.0167316)
(1.41391 -1.41319 -0.000576491)
(4.23312 0.313511 -0.114611)
(4.2349 0.0784304 -0.0426564)
(4.18896 0.0478646 0.0159541)
(1.41005 -1.40636 -0.006642)
(1.89651 1.65083 0.167283)
(1.77179 1.58061 0.0746156)
(4.2228 0.0129234 -0.00733397)
(1.47069 1.4708 -0.00041188)
(4.1976 0.00967215 0.000895598)
(4.17093 0.0128278 0.00841191)
(4.10947 0.0176037 0.0169169)
(3.24069 0.000483667 0.0134501)
(4.21243 0.0221854 0.00504456)
(4.17692 0.0261963 0.0160079)
(3.97652 0.00287622 -0.0162108)
(4.15326 -0.0076744 0.00352115)
(4.10444 -0.00151072 0.00745093)
(1.47064 1.47115 -0.000368381)
(1.41374 -1.41392 0.000164228)
(1.46769 1.46839 0.00270572)
(4.2014 0.0176494 0.00144677)
(3.97881 0.00567869 -0.0148443)
(1.4125 -1.41141 0.000545519)
(2.75834 -0.0152264 0.0268496)
(4.10056 0.0184677 0.00934705)
(4.49296 0.175274 0.0799889)
(4.22245 0.0117079 -0.00871704)
(4.2011 0.0131911 -0.0029744)
(3.91546 0.00118513 -0.00603011)
(4.53008 0.217266 0.0545129)
(1.40657 -1.41963 0.00571989)
(1.4119 -1.41337 0.00118575)
(4.21245 0.0116117 -0.0092948)
(4.13011 -0.0135713 -0.0143895)
(4.55901 0.245594 0.0589909)
(4.49482 0.215315 0.0810906)
(3.93729 0.00712492 0.0197867)
(4.20908 0.0495903 -0.0185328)
(1.4529 1.46504 0.000338138)
(4.61487 0.30394 0.0728791)
(4.3982 0.215352 0.0660449)
(1.46952 1.47006 0.000588945)
(1.41228 -1.41205 -4.15563e-06)
(3.40678 0.00448 -0.0247867)
(1.47036 1.47105 0.00014682)
(4.17941 -0.0081651 -0.00172486)
(4.03058 0.00217322 -0.00886844)
(1.47052 1.43606 -0.00720042)
(1.52565 -1.4007 0.0128456)
(1.41705 -1.40989 -0.00214059)
(1.44744 1.36664 -0.0137067)
(1.53558 -1.41496 0.0239903)
(1.41195 -1.41312 0.00102971)
(4.19626 0.0161437 0.0035004)
(4.19252 0.0107368 -0.00808658)
(4.17954 0.0118011 -0.00439769)
(4.14077 -0.0133528 0.0160067)
(3.98542 -0.00911887 0.00320243)
(4.00332 0.00787681 0.013007)
(3.56164 0.0425475 0.00120176)
(1.41326 -1.40815 5.01874e-05)
(3.89433 0.000740108 0.00420486)
(1.52204 -1.41423 0.0140982)
(1.42561 -1.4279 -0.00085866)
(4.03993 0.00874185 0.0136436)
(4.23626 -0.050233 -0.0177403)
(4.19426 0.00839383 -0.0189367)
(4.03676 -0.00387584 0.00490574)
(4.09089 -0.000280724 0.00486632)
(1.41123 -1.40859 0.00326372)
(4.02508 -0.0166237 0.00670208)
(4.01588 -0.00519702 -0.0233831)
(2.80174 0.886276 0.118459)
(4.11155 -0.0317135 0.00285218)
(4.16764 -0.00615118 0.00348933)
(1.41886 -1.41135 -0.00229537)
(4.02386 0.0110061 0.0137757)
(4.20661 0.00942774 -0.000537029)
(1.54668 -1.39807 0.0055483)
(4.04471 0.00959858 0.0145418)
(4.242 -0.00731865 0.0204714)
(3.97654 0.00303751 -0.0169567)
(4.01384 0.00999231 0.0177237)
(1.53333 -1.41904 0.0190773)
(1.41288 -1.41318 -0.000419734)
(4.01457 0.00989002 0.0178001)
(2.6213 1.64217 -0.162266)
(4.28867 0.0181338 -0.0402295)
(1.4699 1.47044 -0.00108305)
(4.03739 0.0073102 0.0151863)
(4.02085 0.00456561 0.00426124)
(4.26411 -0.0134693 0.0263336)
(1.41534 -1.41453 0.00071482)
(3.78183 -0.000197658 0.00992025)
(4.22514 0.0596604 0.0295179)
(2.31569 1.55329 -0.169881)
(1.47053 1.47029 -0.000889721)
(1.46954 1.47002 0.000458053)
(4.31771 -0.0253545 0.0395146)
(4.03167 0.0933054 -0.0100844)
(1.54828 1.30653 -0.0295235)
(1.75354 -1.36025 0.0531123)
(4.03848 0.00356172 0.00718413)
(4.16099 0.00947674 0.00177579)
(4.22534 0.0105929 0.00256728)
(1.52762 1.33008 -0.0382296)
(1.49387 -1.3819 -0.00520405)
(4.06709 0.0473901 -0.0549243)
(1.41385 -1.41347 0.000854727)
(3.85937 0.00475332 -0.0228707)
(3.99674 0.00369405 0.0135849)
(4.03757 0.00185633 0.00978518)
(4.04627 0.00793555 0.0103803)
(4.0597 0.00632736 0.0113542)
(1.466 1.46612 0.00490511)
(3.07865 -0.00925864 -0.117064)
(4.1188 0.00897689 0.0145239)
(1.46327 1.46632 -0.00226751)
(1.46938 1.46995 -0.000323369)
(4.28856 -0.0489705 -0.0049752)
(4.18931 0.0180139 -0.00678057)
(1.50712 1.28539 -0.0399135)
(3.83389 -0.0026666 0.0098104)
(4.10455 0.0115344 0.0104844)
(1.41418 -1.41354 -0.000523779)
(1.863 1.75492 -0.0117193)
(4.22502 0.0380374 -0.0169261)
(1.4175 -1.3999 0.000538304)
(1.56605 -1.11393 -0.026656)
(2.15953 -0.760604 -0.0757987)
(1.41477 -1.41104 -0.000333571)
(4.12088 -0.00671654 -0.00705657)
(4.01478 -0.00800522 -0.00853091)
(4.17636 0.00636582 -0.0115786)
(1.41324 -1.41338 -0.000180294)
(4.14092 0.011928 0.00968838)
(1.41419 -1.41442 -7.11028e-05)
(1.41405 -1.41486 0.000360023)
(1.41166 -1.40642 0.00244309)
(2.85277 0.0100705 -0.041465)
(4.24326 -0.0189222 0.0228118)
(4.05469 0.0146194 0.0199437)
(4.11921 0.0128304 0.0102116)
(4.27376 -0.0243361 -0.000950839)
(4.09696 0.0094311 0.00948639)
(4.20602 0.0153787 0.00559761)
(4.23265 0.068542 -0.00683347)
(4.13197 0.00865666 -0.000344112)
(4.17074 0.00902729 0.00140819)
(1.494 1.46948 -0.00108106)
(1.4119 -1.41194 -0.00155584)
(2.6099 0.0154984 -0.0623428)
(4.19195 -0.00909127 0.00129786)
(4.24624 0.0326591 0.0362087)
(4.00106 -0.00518758 -0.00646255)
(1.41396 -1.41317 0.000743901)
(4.18734 0.013405 0.00804125)
(4.20992 0.0212038 0.0100522)
(4.10889 0.00758331 0.00656578)
(3.63685 -0.00331302 -0.0181856)
(3.79819 -0.0421562 -0.0931921)
(4.17032 0.0138611 0.00213156)
(4.101 0.0104234 0.00910008)
(4.18972 0.031678 -0.0196053)
(1.47096 1.47126 0.000662296)
(3.84657 0.0190922 -0.000405248)
(1.46951 1.47016 -0.000547448)
(1.19748 0.912953 -0.190396)
(1.59154 -1.02246 -0.101601)
(4.34523 -0.0374617 0.0565928)
(4.27446 -0.0239518 -0.000632087)
(4.17243 -0.00136797 -0.000234108)
(1.41593 -1.41244 -0.000668209)
(1.4654 1.47362 0.011766)
(4.17924 0.0140898 0.00805021)
(4.00978 0.00657759 -0.00599921)
(1.4133 -1.4124 -4.33607e-05)
(1.41445 -1.41369 0.00152906)
(1.38462 -1.39199 0.0103834)
(3.98608 0.00520432 -0.00308263)
(4.1534 0.00411031 -0.00484828)
(3.972 0.000807381 0.0135431)
(3.84955 0.00649698 -0.0207059)
(4.23572 0.00969918 -0.0094617)
(1.68585 1.44878 0.0380834)
(1.46723 1.4707 0.00286131)
(1.41405 -1.41196 -0.000687448)
(4.16626 0.0147963 0.0108685)
(2.70513 -2.2917 -0.161248)
(3.97688 -0.00436165 0.00388402)
(4.31649 -0.0298448 0.0915341)
(3.4859 0.00249527 -0.0697013)
(1.46981 1.47049 -7.89585e-05)
(1.41263 -1.41384 0.000683427)
(1.41382 -1.41465 -0.000829051)
(1.85536 1.55663 0.095376)
(4.20999 0.0133025 -0.000290111)
(4.25072 -0.0235317 0.00169411)
(1.47372 1.47738 0.000529477)
(4.17591 0.0107361 -0.00108952)
(1.55398 1.25803 0.0891661)
(1.42111 -1.40489 -0.00211008)
(4.28547 -0.014357 0.0342946)
(4.16989 0.0141543 0.00680567)
(4.27017 -0.00503036 0.0107631)
(4.17906 0.0112781 -0.0013166)
(1.41784 1.25799 0.0763271)
(1.83704 1.57998 0.101479)
(1.46757 1.46935 -0.00232855)
(4.17283 0.0138645 0.00592824)
(4.16658 0.0117483 -0.000225181)
(4.25754 0.0740536 -0.0247586)
(1.45765 1.45437 0.00352783)
(2.91293 2.58043 -0.616961)
(3.98849 0.038146 0.0346314)
(4.2482 -0.0190382 0.0100069)
(4.18914 0.0157611 0.00993635)
(3.97653 0.404903 -0.032893)
(4.2335 0.0100271 -0.0102981)
(1.46751 1.46716 0.000171808)
(4.23721 0.0114462 -0.00766204)
(4.07099 0.00485965 0.00773064)
(4.29155 -0.0976177 0.000488207)
(4.29727 -0.0251181 0.0506061)
(4.16127 -0.0305961 -0.0275438)
(1.46517 1.47201 -0.0055805)
(1.41201 -1.41337 -0.00256991)
(1.47338 1.46518 0.00548838)
(1.40509 -1.40904 -0.000538831)
(4.24401 -0.0195781 0.000194461)
(4.22008 -0.00636426 0.00232551)
(4.19953 0.018014 -0.0138804)
(4.23037 0.0116299 -0.0128808)
(1.46101 1.46255 -0.00606089)
(4.19321 -0.0266278 -0.00840874)
(1.46869 1.4693 0.000944774)
(1.4079 -1.41215 0.000204974)
(4.23249 0.0117683 -0.00939465)
(1.30584 -1.30742 0.0190218)
(2.33456 -0.423539 -0.0316058)
(1.39839 -1.39315 0.00110381)
(1.48344 1.46385 0.011725)
(4.18619 0.00648269 -0.00562477)
(1.47017 1.4693 0.000663186)
(4.14392 0.0100173 -0.00289143)
(3.9482 0.00225504 -0.0171314)
(1.47133 1.47121 -0.000318843)
(3.81784 -0.00187265 -0.0180626)
(4.12003 0.00633661 0.00692693)
(1.48009 1.2982 -0.0486626)
(4.11488 0.0200314 0.0193255)
(3.89419 0.018254 -0.00263962)
(4.13577 0.0212487 0.00666758)
(3.85324 0.0143717 0.0478036)
(4.17179 0.0117181 0.00234466)
(3.99073 0.000320731 -0.00749204)
(1.44982 1.23949 -0.005672)
(1.41108 -1.40823 0.0079515)
(3.58251 0.00804947 0.0845876)
(1.46082 1.4656 -0.00840138)
(4.13041 0.021534 0.0195486)
(4.28813 -0.0212591 0.041256)
(1.48136 1.4163 0.0119817)
(1.46724 1.47335 -0.000580591)
(4.2332 -0.00758571 0.00320508)
(4.07651 -0.0181514 -0.0353616)
(4.0946 0.0210214 0.00163073)
(4.25244 0.0102546 -0.00243372)
(1.47011 1.46846 -0.000292375)
(4.30612 -0.0115082 0.066587)
(4.23591 -0.0133178 0.0206825)
(1.47308 1.47054 7.85736e-06)
(4.16458 0.0636065 0.0519246)
(3.96957 -0.0157868 -0.039274)
(1.41305 -1.41192 -0.000377241)
(1.4131 -1.4127 -0.000103076)
(4.13961 0.0122622 -0.00428004)
(4.16132 0.00363848 -0.00563445)
(1.4769 1.47707 -0.00191229)
(1.41591 -1.4123 -0.00167326)
(2.49029 -1.3457 0.303854)
(1.4137 -1.41447 0.000442297)
(4.16518 -0.00241663 0.00784403)
(1.46205 1.46743 0.00309115)
(1.41395 -1.41452 4.46208e-05)
(4.27123 -0.00430538 0.0143763)
(3.86994 -0.045115 -0.108702)
(4.2253 -0.0222415 0.00564482)
(4.07426 -0.000511964 0.00753094)
(1.47193 1.47056 8.50098e-05)
(1.90942 1.47203 0.0719643)
(4.08024 0.0511474 0.0790957)
(1.78973 1.5796 0.0839486)
(4.06454 0.018174 0.0309429)
(4.0453 -0.031129 0.00278631)
(4.21829 -0.0129759 -0.0104497)
(2.9429 0.0872589 0.104281)
(1.75825 1.51423 0.0755925)
(4.22523 0.00668135 -0.0396275)
(4.27907 0.129911 -0.0411707)
(1.41227 -1.41459 0.00235041)
(4.25883 0.0104715 -0.0407863)
(4.26399 -0.0199229 0.0152414)
(1.41581 -1.41541 0.00157837)
(4.11279 0.229656 -0.127179)
(3.61192 -0.000571314 -0.0483879)
(1.8572 1.45926 0.0605096)
(4.23997 -0.00771427 0.0158812)
(4.19269 0.00596148 -0.00586663)
(4.1748 0.0110035 -0.00199003)
(1.47014 1.46839 -0.000526131)
(4.16415 -0.00730577 0.0285825)
(4.26435 -0.00201793 0.0129734)
(4.14811 0.0394158 -0.00433091)
(2.61451 -0.0362235 0.0425342)
(1.78982 1.68915 -0.0355798)
(2.46462 -0.0632249 0.0825586)
(1.41247 -1.41429 0.00104988)
(3.84373 -0.124462 -0.121784)
(4.16512 -0.00785992 -0.0274272)
(1.47078 1.46996 0.00203715)
(3.9599 0.0089801 -0.0285537)
(3.27462 -0.008214 0.0583841)
(1.90838 1.68701 -0.0175823)
(1.41403 -1.41306 0.000215066)
(1.65453 -1.40479 0.0438954)
(1.4137 -1.41303 0.00019832)
(4.15282 0.0254638 -0.000867441)
(4.17378 0.0210766 -0.00719053)
(4.12647 -0.0117767 -0.0110971)
(3.88904 0.00930514 -0.0202572)
(4.22975 -0.0843283 -0.0165515)
(1.4696 1.46387 -0.00292343)
(4.104 -0.000353882 -0.00809879)
(1.41741 -1.40681 0.000494864)
(4.06124 0.0149884 0.00956084)
(1.47466 1.47436 -0.000726658)
(1.41311 -1.41208 5.57001e-05)
(1.40237 -1.40631 -0.00198623)
(3.99436 -0.0254158 0.00535859)
(1.41058 -1.41131 -0.000920831)
(1.41446 -1.41422 0.000523308)
(1.44879 0.961274 -0.0623777)
(1.41399 -1.41509 0.000543267)
(1.45573 1.4759 0.0136598)
(4.09091 -0.0147703 -0.00619684)
(1.47123 1.46906 0.000365376)
(1.74257 1.28648 0.00153704)
(1.47164 1.47145 0.00162905)
(1.41195 -1.40785 -0.000880668)
(1.47122 1.46734 -0.00107137)
(1.40991 -1.40263 -0.00731131)
(1.46573 1.46658 0.0001618)
(3.73906 -3.55333e-05 -0.0302107)
(1.47339 1.46588 0.00613746)
(3.83209 0.0535725 0.0759857)
(4.18297 0.00574221 -0.000337663)
(4.31592 -0.17148 -0.0285394)
(1.47145 1.46544 -0.000121868)
(3.64774 0.011376 0.058449)
(1.47331 1.46816 0.00176116)
(1.41406 -1.4148 -0.000784247)
(4.1327 -0.0392307 -0.0429103)
(4.13177 -0.0319038 -0.0336554)
(4.12935 -0.00773762 -0.0113891)
(4.32019 0.0105356 -0.0715277)
(1.69025 1.4205 -0.0460313)
(4.22468 0.00317417 -0.0221119)
(4.223 0.00323854 -0.0213162)
(4.17878 0.00852312 0.000346943)
(4.11936 0.00529029 0.000159515)
(4.19646 -0.0421282 -0.0277351)
(1.41098 -1.4114 -0.000565314)
(4.18438 0.00696318 -0.000978006)
(1.92475 1.67502 -0.0116799)
(4.1649 0.0117902 -0.0041701)
(1.47029 1.4692 -6.49026e-05)
(4.24391 0.012713 -0.0219042)
(1.90351 1.57937 0.0148095)
(4.18314 0.00376609 -0.00583155)
(4.19557 -0.0191497 0.0148555)
(1.63065 -0.82449 -0.00784801)
(1.47259 1.47434 0.016041)
(4.125 0.00763592 0.00653257)
(1.41385 -1.41268 -4.79481e-05)
(4.26011 0.0170312 -0.0248031)
(4.23015 0.0178137 -0.0177885)
(1.4699 1.46613 -0.0120739)
(1.46807 1.46761 0.00343513)
(1.43948 1.28819 -0.0368213)
(1.46944 1.47067 0.000743724)
(2.95845 -0.158157 0.0811313)
(4.2618 0.014652 -0.0251337)
(1.4891 1.45415 -0.00107437)
(1.4679 1.47034 0.00156703)
(3.66738 0.00246764 -0.0101367)
(1.47015 1.47062 -0.000266566)
(4.19781 0.0125736 -0.0146541)
(1.47009 1.46974 0.000497297)
(4.1566 -0.0251353 -0.0156933)
(1.41443 -1.41425 0.000527701)
(3.90957 -0.0197405 -0.0564333)
(3.24996 -0.011909 0.00347448)
(3.92031 0.0105377 -0.00903952)
(4.18501 0.00540896 -0.00705673)
(1.47945 1.46803 -0.00425683)
(3.83202 0.00294598 -0.00124627)
(1.47331 1.4679 0.00124364)
(1.4707 1.47122 -0.00377491)
(4.13702 -0.0110463 -0.00586026)
(1.47058 1.46928 -0.000285801)
(3.54665 0.000231723 -0.0348827)
(1.42283 1.30847 -0.0415736)
(4.20348 0.0150007 -0.013042)
(1.41317 -1.41327 -0.000222029)
(4.23357 0.00810216 -0.00966053)
(1.41436 -1.41304 -0.000157335)
(1.74483 1.54436 0.044054)
(4.2959 0.153449 -0.0101573)
(4.12284 -0.0330707 -0.0430142)
(4.17746 0.0166 0.00112105)
(4.22002 -0.0458972 -0.0307784)
(4.16006 0.008577 -0.00323452)
(4.26664 -0.0266608 -0.00443307)
(1.4611 1.47253 -0.00665476)
(4.17481 0.021996 0.0118178)
(4.13826 -0.0391441 -0.0412317)
(1.46974 1.47051 -0.000834245)
(3.51728 -0.0448938 -0.149458)
(4.27304 -0.0306159 -0.0209711)
(4.10449 0.0169358 0.0157337)
(1.45735 1.43664 -0.00838585)
(1.81578 0.355048 -0.287264)
(4.01846 0.0105491 0.012338)
(3.30513 -0.0135483 0.0326166)
(3.40541 0.871965 -0.00577459)
(1.83006 -0.934596 -0.0757083)
(4.25125 -0.0478584 -0.0103703)
(3.99901 0.0153666 0.0283137)
(4.12348 -0.0377024 -0.0409138)
(4.19217 -0.0226038 -0.00882611)
(4.13554 0.0248949 0.0105821)
(3.6618 0.46862 -0.0240784)
(1.81852 1.54224 0.0124274)
(3.72764 -0.141103 0.0321495)
(3.60789 -0.321124 0.0717472)
(1.41214 -1.41281 0.000690185)
(3.6888 0.02392 -0.0107606)
(1.4788 1.45155 -0.00761769)
(1.72744 1.56952 0.0145526)
(4.15015 0.00463707 -0.00232355)
(3.68852 0.618479 -0.0211999)
(4.44577 -0.379125 -0.0710553)
(4.00937 -0.694223 0.0150341)
(1.72292 1.63742 -0.11968)
(4.22755 -0.024322 -0.00738016)
(4.18588 0.0240336 0.0183858)
(1.46712 1.46297 -0.000223722)
(1.89288 1.04729 -0.0428487)
(4.18794 0.0305303 0.0183151)
(1.41271 -1.4079 0.0010402)
(1.47001 1.46976 7.01612e-06)
(1.46857 1.46829 0.000329505)
(1.47119 1.4633 0.00152209)
(4.2301 -0.0427195 -0.0192613)
(1.47039 1.47015 0.000805725)
(1.4197 -1.41957 0.00750984)
(4.15385 -0.0254256 -0.0207144)
(3.84951 -1.40882e-05 -0.0114118)
(2.07915 -1.82109 -0.0952849)
(4.18866 0.0298162 0.0176754)
(1.70944 1.37999 0.0310692)
(4.20236 -0.0151709 -0.00787798)
(1.39057 -1.38988 -0.00632741)
(1.46733 1.47022 -0.000708383)
(4.21541 -0.0256463 -0.00771848)
(1.47069 1.4624 -0.00562644)
(1.46982 1.46659 0.000601084)
(1.68627 1.6152 0.0475439)
(3.98444 -0.00195813 -0.00116687)
(2.42658 2.03235 -0.268576)
(4.15638 -0.0172104 -0.00818289)
(4.14755 0.00438463 -0.00262483)
(1.40362 -1.39451 -0.0113657)
(4.32147 -0.013483 0.134209)
(3.96072 -0.0233483 -0.0568432)
(4.13794 0.000944622 -0.00233907)
(4.2066 0.0750254 0.00988717)
(4.2165 0.0403192 -0.08927)
(3.6544 0.00112384 -0.0333455)
(1.46874 1.46807 0.000656499)
(4.22048 0.00305387 0.0113775)
(4.19107 0.0164317 0.000753476)
(1.40112 -1.41943 0.00264463)
(3.92775 -0.0019653 -0.000715737)
(4.23958 0.0261008 -0.00734695)
(4.22859 0.0193176 -0.0063083)
(3.87493 -0.0176936 -0.0382159)
(4.22624 0.0205974 -0.00489058)
(4.23055 0.0210461 -0.00360386)
(1.418 -1.39934 0.00844953)
(4.22948 -0.00920276 0.0201492)
(3.51503 -0.0212689 -0.00576591)
(1.77546 1.54145 0.0966596)
(4.22423 0.0168145 -0.00910753)
(4.03899 0.00382754 -0.00886751)
(2.36124 1.92262 -0.289523)
(4.15061 0.00560689 -0.000758343)
(4.22641 0.0143111 -0.0125822)
(4.0406 0.000497758 -0.0160026)
(4.1971 0.0208749 0.000568232)
(4.15049 0.0449932 0.0179041)
(4.15611 0.00564795 0.000993543)
(1.43813 1.40606 0.00149394)
(4.1968 0.0213971 -0.000733149)
(3.94491 -0.0253093 -0.0516513)
(1.58003 -0.950542 0.0368581)
(4.17714 0.0363118 0.0243976)
(4.13244 0.0376198 0.036179)
(4.17945 0.0111477 -0.00103618)
(1.46943 1.46587 0.00154236)
(4.06955 0.0237652 -0.0380919)
(1.4142 -1.40792 0.00380731)
(1.47025 1.47048 -0.000703256)
(1.46583 1.45441 8.65058e-06)
(1.47213 1.46462 0.00135752)
(3.54938 0.00195383 -0.0166368)
(1.75106 1.50861 0.0606555)
(3.1825 -0.223581 0.263035)
(1.41021 -1.4102 0.000191161)
(1.46935 1.48752 2.26518e-05)
(4.19436 0.0394393 0.0228623)
(4.1999 0.0106575 -0.0175936)
(1.41452 -1.41443 7.20265e-05)
(4.2081 -0.0260338 -0.00311262)
(1.41385 -1.41263 0.00478234)
(1.41489 -1.41389 -0.000703731)
(1.3927 -1.39341 0.00424666)
(4.27756 -0.0338811 -0.00706403)
(3.58027 0.0181514 -0.0101957)
(1.73332 1.56149 0.0189449)
(1.4287 -1.41282 0.00370681)
(1.4683 1.47282 -0.00193076)
(1.46946 1.47048 -0.000361248)
(4.29824 0.00824979 -0.0458814)
(4.1643 0.00703941 -0.00263293)
(1.75081 1.64634 0.0764777)
(4.24862 0.0131589 -0.0229083)
(3.96188 -0.0556439 -0.160333)
(1.46784 1.4685 -0.000598297)
(4.23672 0.0114592 -0.0194947)
(3.89087 0.00303923 0.0208244)
(4.1397 0.0221115 -0.0254488)
(1.47103 1.47027 -0.000171569)
(1.46909 1.46822 -8.90813e-05)
(4.10912 0.0177767 0.0217004)
(4.18321 0.007548 -0.000822635)
(1.73892 1.58095 0.0247533)
(1.46522 1.46549 0.000176523)
(1.4936 1.44672 -0.00539153)
(4.1511 -0.00906118 0.00409176)
(1.41245 -1.41256 -0.00197334)
(1.41421 -1.40917 0.00116335)
(1.46588 1.46651 0.000870698)
(4.2353 0.0128117 -0.0165822)
(3.72548 -0.0175899 0.00657946)
(1.4707 1.47086 7.7805e-05)
(1.63757 0.320612 0.289217)
(1.79572 -0.198211 -0.0646482)
(4.11676 0.0216731 -0.00139396)
(1.46804 1.47088 -0.000774254)
(1.47028 1.46764 -0.000558693)
(4.26363 -0.040949 -0.00995492)
(4.08052 0.0688853 0.0627195)
(1.76426 1.57636 0.0741057)
(2.57145 0.833567 0.0611452)
(4.01873 0.0877278 0.11393)
(3.85397 0.0106588 -0.0273868)
(4.08236 0.00280241 -0.00278102)
(1.52602 1.43136 -0.0021939)
(4.06472 0.010226 -0.000616644)
(4.21198 -0.0273818 0.0285861)
(1.47375 1.46984 -0.00183927)
(1.4048 -1.38229 0.00166138)
(1.46625 1.46691 -0.000244569)
(1.46873 1.46899 -0.000500896)
(1.47052 1.47284 -0.00159901)
(1.47124 1.47134 -0.000141745)
(4.24442 0.0132519 -0.0177461)
(1.41269 -1.41278 0.0012314)
(1.4687 1.46901 -5.02191e-05)
(1.46189 1.44242 4.37153e-05)
(4.24773 0.0138726 -0.0234773)
(4.17945 0.00875338 -0.00234213)
(1.41964 -1.40135 -0.000396213)
(1.39772 -1.38374 0.00199494)
(4.28182 -0.0195731 0.0360548)
(4.07104 0.00315168 0.00496692)
(4.06488 0.00434029 0.00637442)
(1.41468 -1.41079 -0.000689321)
(1.46793 1.46879 0.000575076)
(4.0684 0.00306394 0.00574504)
(1.41428 -1.4132 -1.26452e-05)
(4.02353 0.0104552 0.000644837)
(4.12143 0.0100168 0.0139649)
(4.13333 0.00907221 0.00782487)
(1.42293 -1.4128 0.00415605)
(1.41354 -1.41422 0.000472519)
(1.41342 -1.4143 0.00038025)
(1.47036 1.47087 0.000340994)
(4.17004 -0.0170475 -0.0110834)
(1.46889 1.46989 0.00037743)
(1.46784 1.46813 0.000285333)
(4.15464 0.0121616 -0.0159292)
(1.41345 -1.41412 0.000633987)
(4.08549 -0.000934816 0.00500644)
(3.74022 -0.0311049 0.0122378)
(1.48275 1.43473 0.00706679)
(4.17821 0.012615 -0.00190903)
(1.97367 0.290524 -0.047687)
(4.12056 0.00301234 0.00364734)
(4.27555 -0.0142995 0.00946009)
(3.77864 0.0142522 0.00373797)
(4.26347 -0.00134884 0.0270141)
(3.09117 0.0644263 -0.117501)
(1.75091 1.40092 0.0287556)
(4.11206 0.000848813 0.00249045)
(4.27903 0.031448 0.00553481)
(4.17525 -0.0108688 -0.00455418)
(1.50598 1.30977 -0.0451496)
(1.88645 0.183025 -0.0970877)
(2.23873 -0.162566 0.0762506)
(4.11214 0.00567516 0.00182227)
(1.46807 1.47013 0.00190898)
(4.04597 -0.00959517 -0.0289042)
(4.1306 -0.00485823 -0.00778133)
(4.01272 -0.0345856 -0.0624846)
(1.54395 -1.0957 -0.081069)
(1.41396 -1.41437 0.000729597)
(1.41347 -1.4136 -8.67828e-05)
(4.19972 -0.0132387 -0.00183661)
(1.71298 1.41918 -0.01796)
(3.99324 0.0132394 0.00593089)
(1.59448 1.45261 0.0196524)
(3.97446 -0.00777563 -0.0255149)
(4.07866 -0.00561408 0.00309273)
(4.03821 -0.00235585 0.0130234)
(4.18034 0.00975569 -0.00344566)
(1.4691 1.46817 -0.0005316)
(1.46117 1.45754 -0.00194947)
(1.51076 -1.3783 0.00629479)
(4.17612 0.0124102 0.00017915)
(1.47107 1.46735 -0.000176532)
(1.69572 1.45981 -0.0640209)
(4.28056 0.0766808 -0.065947)
(1.47604 1.47424 -0.000907721)
(1.46413 1.47099 0.00442633)
(1.41091 -1.40533 -0.00360471)
(1.47042 1.47105 0.000565276)
(3.99615 -0.00134795 0.0138617)
(1.50657 1.42725 0.00459609)
(1.47053 1.46888 0.000311808)
(3.40011 0.480998 -0.344848)
(1.71909 1.38908 -0.0188791)
(1.46474 1.46554 -0.0121146)
(2.03276 -1.20787 0.0727523)
(1.47036 1.46807 -0.00141382)
(3.29495 0.0118271 -0.0279094)
(4.07646 -0.00477054 0.00980607)
(1.41296 -1.41255 -0.000302949)
(4.01099 0.00538301 -0.0100828)
(4.03997 0.649592 -0.0888226)
(3.98557 -0.038083 -0.061621)
(4.37419 0.157914 0.00167136)
(3.94576 0.00380269 -0.00636085)
(1.47034 1.46021 0.00443514)
(4.1374 -0.0384381 -0.0428781)
(4.29046 -0.0139007 0.00905334)
(3.98478 -0.0382745 -0.0620918)
(1.41349 -1.41337 -0.000507576)
(4.3395 1.14169 0.30264)
(3.98713 0.00561807 0.00597989)
(1.95937 1.56381 -0.0923377)
(3.96543 0.000761053 0.00512251)
(4.31788 0.0519398 -0.0407635)
(4.128 0.0802065 0.00406431)
(4.08982 -0.0134077 -0.0165336)
(4.08946 0.0137565 0.000702582)
(4.35248 0.06049 -0.0227822)
(4.19732 -0.00573938 -0.00647041)
(4.16921 -0.00629415 0.00421927)
(1.46053 1.46531 0.00580512)
(1.46593 1.45917 0.00451974)
(4.01446 0.0104847 0.00450125)
(3.95297 0.00416461 0.00534547)
(1.46733 1.47094 -0.000393017)
(4.06572 0.0057347 0.000769179)
(4.27135 -0.0169819 0.00390517)
(4.19003 -0.00996062 0.00390836)
(1.47456 1.45979 3.24014e-05)
(4.11241 0.0808408 0.0182892)
(1.46826 1.46704 0.000300969)
(4.17255 -0.00550977 0.00324297)
(4.19445 -0.00667804 0.00297355)
(1.46908 1.46838 -0.00027606)
(4.00144 0.0175584 -0.0148413)
(4.18555 -0.00425349 0.0012876)
(4.09708 0.0748495 0.00574749)
(4.04056 0.00125378 0.0127405)
(1.4981 1.46934 -0.00215524)
(4.20055 -0.0114433 0.0132983)
(4.11015 0.0914399 0.000570403)
(4.33579 -0.104628 0.0251337)
(3.65726 0.0455139 0.0143099)
(3.27364 0.00968041 -0.0451558)
(1.4721 1.45697 -0.00260835)
(1.4671 1.46591 0.00165388)
(4.04312 0.0526615 0.00673109)
(1.47023 1.47091 -0.000234926)
(3.55134 -0.00969721 -0.0116352)
(4.05597 -0.0204964 -0.0301211)
(2.47124 0.340447 -0.0895038)
(4.5 -0.288294 0.105867)
(3.97089 -0.179465 0.0488757)
(4.42117 -0.160917 0.0411527)
(1.47029 1.47091 -0.000133361)
(1.99764 1.69469 0.014268)
(4.19176 0.0103762 -0.00391229)
(1.40802 -1.41317 -0.00448739)
(0.785958 -0.550967 0.229521)
(4.16242 -0.0784202 -0.0612275)
(1.47036 1.46658 -0.00278864)
(1.47106 1.46898 -0.000190139)
(3.71554 -0.0750135 -0.00575516)
(3.03467 -0.197447 0.0406301)
(1.47065 1.47084 -6.26687e-05)
(3.76034 -0.0687809 0.0102377)
(1.46918 1.46767 0.000557477)
(1.46951 1.47153 -0.00258423)
(1.41314 -1.41354 -5.71142e-05)
(1.41503 -1.41168 0.0034171)
(1.38773 -1.37731 0.00466209)
(1.4131 -1.41062 0.000146634)
(3.75926 0.0289957 -0.0140008)
(1.46814 1.45985 -0.00105752)
(1.46939 1.46978 0.000509974)
(1.46208 1.47019 0.00270714)
(3.49652 -0.776889 -0.205387)
(3.95955 -0.0314556 -0.0704232)
(3.84334 -0.000950196 -0.0367565)
(4.19187 0.00961106 -0.00390272)
(1.46483 1.45524 0.000175254)
(1.47376 1.46819 -5.16377e-05)
(4.02335 -0.0673937 -0.0812296)
(1.47018 1.47088 -0.00153512)
(1.4697 1.46827 0.000409955)
(2.3432 1.34219 0.0491191)
(4.28528 -0.0563241 -0.00453375)
(4.17954 0.00976593 -0.00266603)
(1.46868 1.46836 -0.000349646)
(1.47031 1.46743 0.00182612)
(1.46684 1.46222 -0.00214422)
(1.46869 1.46602 -0.000183912)
(1.47239 1.47196 -0.00149782)
(1.47273 1.46881 0.000571325)
(4.19817 -0.0946854 -0.0591706)
(1.47095 1.46678 -0.00010613)
(2.91108 0.0411775 0.0963292)
(4.21872 -0.0094589 0.0111311)
(1.46913 1.47134 -0.000335836)
(1.40462 -1.41061 -0.00359114)
(1.39549 -1.38223 0.00120567)
(3.54886 0.0412857 0.19122)
(1.38837 -1.38691 -0.005606)
(1.41184 -1.413 0.00126787)
(1.46288 1.46489 -0.00928783)
(3.80445 -0.0572514 0.000919578)
(1.4672 1.46743 -0.000614307)
(4.16549 -0.0529082 -0.0332812)
(3.34208 0.0503056 -0.0186159)
(2.74208 0.00375743 0.109535)
(1.46723 1.46866 0.000566636)
(2.85905 -0.737299 0.0593341)
(4.19862 -0.00850379 0.00136788)
(4.22414 0.0108857 -0.0102106)
(1.51552 -1.44524 -0.0177751)
(4.0721 -0.0687607 -0.0103931)
(4.15295 -0.00796158 -0.00608959)
(1.41402 -1.40422 0.00137304)
(1.51767 1.43828 0.00665171)
(1.99345 -1.53737 -0.125288)
(1.46543 1.46505 -7.88434e-05)
(4.2018 0.00836725 -0.00138043)
(4.18883 -0.0050633 0.00658117)
(4.26675 -0.0505983 0.021007)
(2.81026 -0.00296939 0.152383)
(1.47057 1.46996 -0.000167057)
(4.20383 0.00884497 -0.00227316)
(1.51378 1.4397 -0.00147377)
(1.8379 1.55396 -0.007659)
(1.89699 -1.47746 -0.0596927)
(1.46964 1.46989 0.00055399)
(4.20657 0.0116081 -0.00305084)
(1.46717 1.46418 0.0012232)
(1.39948 -1.37616 0.000285504)
(3.84548 -0.0522604 -0.0936681)
(4.11691 -0.0090465 0.00435399)
(1.3995 -1.37704 -0.00418955)
(4.13963 0.00686215 -0.00286641)
(1.56807 1.53236 -0.00991445)
(4.20376 -0.0353059 -0.0177155)
(1.38492 1.32424 0.0149498)
(1.47081 1.47109 -0.000501557)
(1.47852 1.47356 0.0050768)
(1.41414 -1.41442 0.00049786)
(4.08833 0.00800723 -0.00689838)
(3.67969 0.00588734 -0.0151725)
(4.23523 -0.00682381 0.0775678)
(1.46581 1.46626 0.000774683)
(1.46611 1.43786 0.00917039)
(4.07094 0.00884601 -0.005805)
(1.47079 1.47092 -0.000487725)
(1.70502 1.545 0.0205797)
(1.41333 -1.41254 0.000818609)
(4.02926 0.0242205 -0.00245174)
(4.29273 -0.104899 -0.0324981)
(4.19469 0.0106172 -0.00395787)