/*--------------------------------*- C++ -*----------------------------------*\
  =========                 |
  \\      /  F ield         | OpenFOAM: The Open Source CFD Toolbox
   \\    /   O peration     | Website:  https://openfoam.org
    \\  /    A nd           | Version:  10
     \\/     M anipulation  |
\*---------------------------------------------------------------------------*/
FoamFile
{
    format      ascii;
    class       volVectorField;
    location    "39";
    object      U;
}
// * * * * * * * * * * * * * * * * * * * * * * * * * * * * * * * * * * * * * //

dimensions      [0 1 -1 0 0 0 0];

internalField   nonuniform List<vector> 
59698
(
(0.584679 0.00599869 -0.00174663)
(0.564663 -0.00115118 -0.000862335)
(0.566396 -0.000685467 0.0016994)
(0.578791 -0.00342228 -0.00126231)
(0.562945 0.00076382 -0.00292984)
(0.197726 0.198051 -0.00634834)
(0.566922 0.000238124 0.000406773)
(0.564005 0.000850315 -0.000294501)
(0.199877 -0.199527 -0.000423959)
(0.20123 -0.200787 -1.44058e-05)
(0.20037 -0.198721 -0.000624061)
(0.566988 -0.000284485 -0.000391997)
(0.199805 0.200486 -0.000571196)
(0.561668 -0.000764379 -0.000186453)
(0.562016 0.00110027 -0.0025642)
(0.203977 -0.197102 0.00181759)
(0.564686 0.000135393 0.000198219)
(0.566117 -0.00125268 0.00039278)
(0.567566 -0.00054314 0.000318718)
(0.567342 -0.000374834 -7.95238e-05)
(0.142909 -0.0999501 -0.0247271)
(0.53614 -0.00146349 -0.00276064)
(0.265032 -0.173004 -0.00713093)
(0.198823 -0.199921 -0.00136796)
(0.570378 0.000702081 0.00101594)
(0.566269 -0.00114765 0.000440665)
(0.566427 -0.000344867 -0.000427977)
(0.557286 -0.000198828 -0.00121989)
(0.570312 0.00125826 0.000883866)
(0.572448 -0.000441401 0.000442508)
(0.548159 -0.000340552 -0.000413652)
(0.198525 -0.198563 -0.000175694)
(0.201149 -0.197943 0.00227602)
(0.559816 0.00126606 -0.00088003)
(0.549092 0.0114505 -0.00745388)
(0.566746 -0.000894946 -0.000388159)
(0.275079 0.0660178 -0.0384258)
(0.539425 0.000738611 0.000159079)
(0.561733 0.000131669 0.000574306)
(0.568157 0.00149101 -0.00275338)
(0.563916 0.000433602 -0.000102828)
(0.1949 0.197809 -0.00173746)
(0.5624 0.000589516 -0.000601197)
(0.563704 0.000447544 0.000108021)
(0.196728 0.199572 -0.000252663)
(0.560924 0.00368294 0.00514877)
(0.567013 -0.000873288 0.000378195)
(0.561584 -0.000322808 0.00148308)
(0.562935 0.000331595 0.000874976)
(0.565419 -0.000679052 0.000220897)
(0.567925 0.000158718 -0.000168073)
(0.566865 -0.00087784 0.000353569)
(0.56641 -0.000100412 -0.000791974)
(0.560466 -0.000174183 0.00045887)
(0.572382 0.00293232 0.00104719)
(0.567365 -0.000507846 -0.000132289)
(0.562768 -0.000982982 0.000600255)
(0.524715 -0.00188787 -0.000204334)
(0.564652 -0.000790449 -0.000387703)
(0.268038 0.121036 -0.0186429)
(0.55916 0.00460006 -0.00253056)
(0.56462 0.0013605 0.00052302)
(0.577868 0.0147763 0.00650717)
(0.567516 -0.00058219 0.000389862)
(0.561854 0.000220137 0.000745227)
(0.561411 0.000188653 0.00205365)
(0.199519 -0.199947 -1.20114e-05)
(0.567113 -0.000536488 -0.000619616)
(0.566965 -0.000443489 -0.000621863)
(0.199515 -0.19921 -7.83245e-05)
(0.209348 0.182586 -0.00799141)
(0.565291 -0.000722698 1.66253e-05)
(0.166374 0.118387 -0.034221)
(0.592955 -0.0110158 0.0202508)
(0.202915 0.20354 -0.000369996)
(0.590153 -0.0251289 0.0211729)
(0.561164 0.000243949 0.000999616)
(0.561043 0.000247737 -0.00163776)
(0.56686 0.000818744 -0.000635482)
(0.571452 0.0015103 0.000133704)
(0.55267 -0.00189212 -1.2375e-05)
(0.567912 0.00023752 -0.000122549)
(0.201246 -0.200762 -5.45351e-05)
(0.565156 -0.000715157 0.000604451)
(0.400007 -0.10384 0.0149511)
(0.562819 0.000187016 -8.46059e-05)
(0.563136 -0.00122738 0.00162208)
(0.557755 0.000486511 0.00715563)
(0.562021 0.00129601 0.000969574)
(0.560517 -0.000152193 0.0015989)
(0.199535 -0.199172 -0.000162343)
(0.560432 0.000898657 0.000573553)
(0.560613 -0.000340374 0.00164162)
(0.565867 -0.000337322 0.000409538)
(0.561611 0.00116691 0.000992721)
(0.563471 -0.00368205 0.00131652)
(0.558659 0.000631098 0.00124468)
(0.562254 0.000479821 0.000550984)
(0.559283 0.000591181 0.00124629)
(0.199679 0.200038 -3.45328e-06)
(0.556461 0.00146822 0.000839149)
(0.567569 0.00516185 0.00636894)
(0.56306 -7.01886e-06 0.000186463)
(0.563043 -0.00167784 -0.00452804)
(0.567099 -0.000559013 0.00080929)
(0.198837 0.198575 0.000131623)
(0.56549 -0.00099774 0.000597213)
(0.567217 -0.000352877 -0.000416105)
(0.200743 -0.200884 -6.44412e-05)
(0.199793 0.199689 -0.000370668)
(0.566321 -0.000784259 -0.000376299)
(0.570435 -0.0104407 -3.33454e-05)
(0.561777 0.00139857 0.00158163)
(0.200897 0.198779 -0.000337817)
(0.561 -0.000189783 0.000280489)
(0.567389 -3.35434e-05 0.000158698)
(0.567065 0.00133772 -0.0013605)
(0.565075 0.00305618 0.000752588)
(0.563579 -0.000865168 0.00208647)
(0.200903 -0.200443 0.000442922)
(0.565585 -7.22203e-05 -2.07987e-05)
(0.558245 -0.00636483 -0.00375893)
(0.563038 -0.00504976 0.0058082)
(0.564467 -7.19616e-05 0.000114196)
(0.564019 0.000119242 0.000204352)
(0.565986 -0.000320479 -0.000131763)
(0.565947 -8.79815e-05 -0.000516671)
(0.199562 -0.199512 0.000486136)
(0.56199 -0.000618302 -0.000190537)
(0.567497 0.000316282 -0.0019941)
(0.567319 0.000358204 0.000583287)
(0.567176 -0.000181667 -0.0010766)
(0.201402 -0.200547 -1.24481e-05)
(0.579326 0.00683926 0.0006605)
(0.572768 -0.000140103 0.000167527)
(0.568492 -0.000184452 -0.000179641)
(0.569762 0.00383229 -0.0010898)
(0.201036 -0.200694 0.000301369)
(0.567367 -0.000338851 -0.000260419)
(0.568545 -1.37506e-05 -0.000359409)
(0.565353 -0.000259499 0.000883907)
(0.562708 0.00317099 -0.0010206)
(0.566086 -0.000850223 -0.000467333)
(0.567398 -0.000328974 -0.000306438)
(0.565994 0.00220387 -0.00045464)
(0.567426 -0.000270383 2.17461e-05)
(0.563601 -0.00396314 0.000307626)
(0.566455 -0.00373331 -0.000526347)
(0.562349 0.000376364 0.000909537)
(0.552259 -0.00020377 0.000141926)
(0.408585 0.144086 0.0731422)
(0.2002 -0.199654 0.000118506)
(0.562154 -0.000110581 6.59098e-05)
(0.556659 -0.00217378 -0.0037936)
(0.563064 -0.000277001 -0.000153812)
(0.560682 0.000198497 -0.000464997)
(0.566509 -0.00103523 -0.000266238)
(0.558862 -0.000963221 0.00305923)
(0.563532 -0.000290367 -0.000344987)
(0.199706 0.199541 -0.000113988)
(0.5649 0.000100346 0.000171728)
(0.56278 -0.000382032 0.000252198)
(0.567884 -0.000593042 -0.000247051)
(0.554677 0.00186312 -0.00109526)
(0.562844 -0.000527334 -0.000202857)
(0.566818 -3.51402e-05 -0.00023556)
(0.567001 -0.000193191 -0.000676695)
(0.412434 0.0872273 0.00615689)
(0.554753 -0.000547777 -0.000392558)
(0.567019 -0.000132452 -0.000503624)
(0.559357 0.00181037 -0.00255734)
(0.210884 0.173718 0.000604198)
(0.553178 0.00142667 -0.00219157)
(0.552697 0.00131835 -0.00210707)
(0.57835 0.00132735 -0.00550836)
(0.562485 0.000256404 0.000361166)
(0.199574 -0.198905 0.000797686)
(0.538447 0.00496775 0.00305736)
(0.198957 -0.197827 -0.00579192)
(0.561972 0.000585181 -0.000491775)
(0.51048 -0.00192348 0.0051909)
(0.548363 -0.000544312 -0.000489623)
(0.562652 0.000386433 -0.000990773)
(0.565431 1.23358e-05 -0.000258306)
(0.56463 0.000584086 -0.000842472)
(0.5436 -0.000257068 -0.00022466)
(0.543482 6.85994e-05 -0.000881162)
(0.559574 0.0037199 0.00120644)
(0.566605 -5.36184e-05 0.000161409)
(0.563909 0.0015138 0.00072166)
(0.561584 0.00022601 0.000716877)
(0.562577 -0.000333721 0.000617682)
(0.562854 0.000568353 0.00052191)
(0.561901 -0.000349423 -0.000477766)
(0.554553 0.000266716 -0.000423829)
(0.557373 0.00326229 0.000786894)
(0.576618 0.00585139 -0.0136548)
(0.575726 0.00370151 -0.00215931)
(0.152261 -0.143989 -0.019549)
(0.554201 -0.000541392 0.000110553)
(0.203035 0.205896 0.00271363)
(0.546017 0.000547781 0.000846843)
(0.573208 0.000356913 0.000277211)
(0.566588 -0.000354602 -0.00050698)
(0.552831 0.000943493 0.00115422)
(0.566786 0.00015536 0.000156642)
(0.563907 0.000379147 -0.000745821)
(0.557129 -0.00209176 0.00126002)
(0.554557 0.0114991 0.000470227)
(0.562292 0.000297144 -0.000173576)
(0.565927 0.000176073 0.000191341)
(0.564895 0.000213054 0.000470032)
(0.554725 0.000447355 0.00222532)
(0.199003 -0.197043 -0.00110219)
(0.565286 -0.000282492 -0.000196507)
(0.560088 0.000610364 -0.000134241)
(0.5662 -0.000767391 5.64721e-05)
(0.560994 -0.000617762 -0.00186358)
(0.561522 -0.000676799 -0.000159889)
(0.564926 0.000511358 -0.000598667)
(0.582088 0.0245658 0.0228115)
(0.563826 -0.000261485 0.000343162)
(0.564977 4.83208e-05 9.2877e-05)
(0.556995 0.000922688 0.0028577)
(0.565102 -0.000395763 -0.000238508)
(0.55368 0.00259454 0.002928)
(0.564359 5.28921e-05 -7.36771e-05)
(0.56605 0.00058355 -0.00049198)
(0.577968 0.00283439 -0.000873376)
(0.593366 0.0125063 0.0097415)
(0.199023 0.198602 -0.00039222)
(0.563335 1.39361e-05 0.000452396)
(0.565708 0.000394141 9.16195e-05)
(0.564459 0.000125451 -0.000361353)
(0.563535 -0.000549927 0.000490331)
(0.567914 -0.000482618 -2.4119e-05)
(0.565006 0.00160448 0.0015258)
(0.564082 0.000338547 0.000174676)
(0.55862 0.00136572 0.00349404)
(0.562145 -0.000908654 0.000487973)
(0.564771 -0.000223241 -8.04286e-05)
(0.563762 -0.00122561 -0.000496827)
(0.570456 8.25035e-05 -5.07339e-05)
(0.197427 -0.19788 0.00334431)
(0.56667 -0.000289021 -5.42198e-05)
(0.56416 0.000284157 0.00389964)
(0.582373 0.00520162 0.0161656)
(0.591348 -0.00727175 0.0130071)
(0.566261 2.96896e-05 0.000155274)
(0.566948 -0.000822145 0.000434266)
(0.561358 0.00106122 0.00400745)
(0.562572 -0.000457421 0.000418921)
(0.563401 0.00101725 0.000875253)
(0.198217 -0.193517 0.00312006)
(0.566486 -0.00138035 -8.26313e-05)
(0.563349 0.00034167 0.000424224)
(0.560523 0.00209511 0.000593864)
(0.56125 -0.000673436 0.000590885)
(0.565982 -0.000484164 -0.000126834)
(0.56496 -0.00016293 -3.19365e-05)
(0.200756 -0.108523 -0.000928871)
(0.200406 0.20005 0.000135092)
(0.563529 -0.000937692 0.000580041)
(0.559895 0.000571322 -0.00116919)
(0.558115 -0.00148507 0.00229422)
(0.586948 0.007549 0.00243086)
(0.565341 5.53046e-05 -5.89963e-05)
(0.196926 -0.198437 -0.00164112)
(0.565526 -0.00116848 0.000409731)
(0.564888 -0.000178115 -0.000148904)
(0.566664 -0.000965988 -9.00395e-05)
(0.563096 -0.00123098 -0.000694249)
(0.54583 -0.118273 0.077147)
(0.56475 -0.000120013 -0.000240092)
(0.564994 -0.000258953 6.90576e-05)
(0.557595 0.000376581 0.0014089)
(0.564889 -0.00164589 -0.00373943)
(0.564272 -0.000618814 0.00149824)
(0.570066 0.00024857 0.000195625)
(0.200809 -0.200142 0.000135972)
(0.195989 -0.195354 0.00168601)
(0.56745 -5.32905e-08 -3.17427e-05)
(0.566974 -0.000899428 0.000500693)
(0.581558 0.00204276 0.00127583)
(0.587031 0.00650644 0.000881306)
(0.577935 -0.00122581 0.00144206)
(0.566047 -0.000283175 -0.00069052)
(0.299284 -0.213241 -0.0187784)
(0.574287 0.00141687 0.000550098)
(0.563467 0.00228483 0.00299728)
(0.586062 0.0172738 0.000863464)
(0.5675 0.000352288 0.000315871)
(0.565341 -0.000871365 0.00055538)
(0.566969 -0.00101087 0.000178104)
(0.56987 -0.00107879 0.000808551)
(0.560581 -0.00150068 0.000709886)
(0.56832 -0.000245699 -0.000613764)
(0.568045 0.00156816 -0.000579039)
(0.565012 -1.37228e-05 -0.000150428)
(0.562969 0.00119483 0.0036671)
(0.566216 0.0016381 -6.26598e-05)
(0.198723 0.198917 -0.000102678)
(0.195968 0.197806 0.0014991)
(0.567036 -0.000173764 -0.000428742)
(0.567202 -0.000486114 -0.00015938)
(0.56702 -0.000191078 -0.000276631)
(0.56907 0.000276014 -0.00145047)
(0.560498 -0.00111354 -0.000316586)
(0.562315 -0.000378446 0.00027188)
(0.567248 -0.000115894 -0.000229262)
(0.565191 7.30563e-05 0.000157991)
(0.56332 -0.00203965 0.000538667)
(0.565929 0.000294557 0.000230342)
(0.200736 0.200934 0.00131614)
(0.561475 -0.00328353 0.00169882)
(0.56694 0.00068906 -0.000104949)
(0.202035 0.202597 -0.000457729)
(0.566741 -0.00020464 0.000182961)
(0.195215 0.197028 -0.00207481)
(0.565279 0.00249726 -0.0020405)
(0.562549 0.00304171 -0.00305235)
(0.594095 -0.00978559 0.0188672)
(0.564565 -0.000552387 8.26423e-05)
(0.199743 -0.1994 0.00062201)
(0.600787 -0.0125088 0.0175254)
(0.555768 -0.000183224 0.000642877)
(0.564252 -4.32461e-06 -0.000334037)
(0.566696 -0.000323717 0.000454759)
(0.567172 0.000542939 -0.000200562)
(0.199172 0.199228 -0.000186184)
(0.548404 -0.000119909 -0.00208863)
(0.56406 -0.000934356 0.000322705)
(0.558968 0.000256668 -0.000700195)
(0.582608 -0.0106762 0.0168044)
(0.199614 -0.199994 -0.000180719)
(0.567464 0.000535963 0.000618161)
(0.562778 -0.000636044 0.000174209)
(0.566422 -6.57262e-05 0.00022927)
(0.557077 -0.00123803 -0.000443911)
(0.567956 0.000266496 -0.00013354)
(0.563848 0.00125002 0.000965241)
(0.566789 0.00258986 -0.00169571)
(0.564931 -0.000393713 0.000195786)
(0.565438 7.11251e-05 3.14701e-05)
(0.557807 0.000823254 -0.00119491)
(0.564891 -0.00017581 -0.000133412)
(0.564363 0.000209248 -6.96297e-05)
(0.540985 0.00127311 -0.00109177)
(0.562848 7.08095e-05 -0.000230719)
(0.562775 0.000131091 0.000276438)
(0.567645 0.000153337 0.000117344)
(0.561988 -0.00102966 0.000699352)
(0.569785 -0.00318178 -0.000969765)
(0.199482 -0.199203 -0.000145889)
(0.590019 0.00266569 0.00606619)
(0.546854 0.000619697 -0.000816971)
(0.554112 0.00239982 -0.00689916)
(0.56477 -0.000155037 0.000132044)
(0.562193 0.000374746 0.000761194)
(0.199411 -0.199035 3.05903e-05)
(0.566524 0.00109454 -0.000553884)
(0.559158 -0.000248654 0.000619842)
(0.20324 -0.194655 0.00034533)
(0.565663 -5.5773e-05 0.000275933)
(0.199991 0.200039 -5.04801e-05)
(0.196477 0.201287 0.000519371)
(0.563185 -6.44994e-05 9.04425e-05)
(0.56463 -0.000682312 0.0011874)
(0.564517 -0.000416009 0.000179937)
(0.490876 -0.00575562 0.00274042)
(0.567832 0.000244618 0.000293833)
(0.197989 0.198555 0.000298394)
(0.566001 0.000185489 -0.000326334)
(0.197307 0.199023 0.00130104)
(0.56291 9.00516e-05 -0.00055664)
(0.200085 -0.200252 -1.40542e-05)
(0.564341 -0.000398537 0.000391687)
(0.565281 0.000221558 5.44639e-06)
(0.198902 0.198356 -1.12069e-05)
(0.19902 -0.199214 0.000130292)
(0.201361 0.198084 -0.00338401)
(0.563075 -6.94943e-05 -0.000270839)
(0.565773 0.00133831 0.000399083)
(0.560205 0.00076912 -0.000373864)
(0.566723 -0.000263575 2.28158e-06)
(0.277723 0.142056 -0.00530468)
(0.563288 -0.000400158 0.0009512)
(0.1993 0.1995 2.99645e-05)
(0.199579 0.200002 -4.71088e-05)
(0.564873 0.00258735 0.000941982)
(0.560037 -0.000523314 7.60579e-05)
(0.199362 -0.196652 0.000736853)
(0.563763 0.000313067 0.00116779)
(0.57433 0.000257403 -1.86558e-06)
(0.379757 -0.147376 0.0155588)
(0.526826 -0.00158596 -0.000289039)
(0.551207 0.0162365 -0.0117537)
(0.562466 0.00263573 0.00163099)
(0.56106 -0.000248343 -0.00249734)
(0.563511 -0.00168472 0.00131302)
(0.562496 0.000484479 -0.000507017)
(0.563745 0.000123523 -0.000174343)
(0.565007 -1.48264e-05 -0.000428511)
(0.564695 -0.000537965 -0.000535609)
(0.553211 -0.0028942 -0.00061872)
(0.560762 0.00448299 0.000732584)
(0.575933 0.00422017 -0.00284534)
(0.581579 0.00304116 -0.000787275)
(0.564362 0.000353466 -0.00135758)
(0.530754 0.000403153 -0.00299952)
(0.571574 0.00238297 -0.00162659)
(0.19892 -0.199131 1.21367e-06)
(0.560195 0.000617388 -0.00129858)
(0.199602 -0.199555 0.00019657)
(0.561409 -5.01756e-05 0.000225043)
(0.584044 0.00159703 0.00227119)
(0.567119 1.00804e-05 -0.000125517)
(0.567397 -0.0274442 0.0126929)
(0.532963 -0.00247448 0.000889098)
(0.53524 0.00013168 -0.00651472)
(0.561619 -0.000529544 0.000226865)
(0.562995 -0.000257537 0.000704808)
(0.563946 0.00123229 0.00237719)
(0.587803 0.0127306 0.0121619)
(0.563686 -3.1764e-05 8.21834e-05)
(0.564009 -0.000239438 0.000163568)
(0.200004 -0.19986 0.000343444)
(0.561632 -6.11346e-05 -0.000232014)
(0.558135 -0.00161658 2.18963e-05)
(0.199438 0.199208 -3.91854e-05)
(0.5643 -0.0014696 0.000766186)
(0.575298 0.0179577 0.00854118)
(0.572381 -0.00464027 0.00668614)
(0.565001 7.90357e-05 -0.00135395)
(0.561309 -0.00027349 0.00151325)
(0.200479 -0.200423 -0.000920751)
(0.205313 -0.202251 0.000306386)
(0.574327 0.00551371 -0.00158315)
(0.565845 -0.000373981 -0.000498491)
(0.563244 -0.00104681 -0.00402103)
(0.202961 0.200382 -0.00178362)
(0.565186 -0.000605196 -0.000388529)
(0.200613 -0.199905 0.000297664)
(0.562048 -0.000449669 -0.00017566)
(0.563762 -0.000804987 -0.00100834)
(0.516662 -0.00742766 -0.00331969)
(0.580706 -0.00171925 0.00291513)
(0.200022 0.19974 -4.2409e-05)
(0.565446 -0.00103856 0.000613403)
(0.554061 -0.000115141 0.000319668)
(0.56241 -9.1237e-05 -0.00190609)
(0.566137 -0.000689431 -0.000185955)
(0.563971 0.00100526 -0.000934963)
(0.565132 -0.00122011 -0.000119769)
(0.562646 0.0016476 9.73606e-05)
(0.56235 0.000224952 -2.77195e-06)
(0.58069 0.00134231 0.00229428)
(0.199645 -0.199553 0.000249357)
(0.547043 0.000391727 -0.000331055)
(0.561612 -0.000214491 0.00110074)
(0.577659 -0.00120231 0.00145922)
(0.564667 -0.000140535 -7.79452e-05)
(0.555183 -0.00149505 0.00154724)
(0.576998 0.000115871 0.000600897)
(0.200501 -0.199437 -0.000183189)
(0.560178 0.00513607 0.00197294)
(0.559697 0.00733129 0.00688135)
(0.567505 -0.000214998 -0.000144154)
(0.563841 0.000622884 -0.000606989)
(0.565737 0.000157018 7.20953e-06)
(0.560566 -0.00508361 -5.3624e-05)
(0.198388 0.198595 -0.000304685)
(0.199871 0.199796 2.70938e-06)
(0.198962 0.199801 2.63091e-05)
(0.563769 0.00213757 0.00288133)
(0.55409 -0.00312282 -0.00799961)
(0.504315 -0.00181852 0.000802601)
(0.577125 0.000992217 0.000564888)
(0.566687 -0.00296139 0.000959346)
(0.562955 -0.000508548 0.000678388)
(0.563174 0.000707705 -4.70036e-05)
(0.560034 0.00013301 0.000584672)
(0.563577 -0.000171849 0.000185218)
(0.202952 0.198924 -0.000333162)
(0.555889 -0.00674842 -1.55269e-05)
(0.562593 -0.000563102 -0.000108006)
(0.560191 0.000891573 0.00130097)
(0.562674 -0.000556484 0.00055149)
(0.571979 0.000470568 0.000490606)
(0.567419 0.000773025 9.71101e-05)
(0.560595 0.000669625 -0.000722458)
(0.590315 -0.00142847 0.00684846)
(0.574149 0.000896827 0.000254426)
(0.560036 -0.000556752 -0.00130392)
(0.571352 0.000352729 -0.000109797)
(0.559824 0.000803687 0.00145862)
(0.562212 -2.48232e-05 -0.000156757)
(0.556254 0.00348272 0.00266372)
(0.566557 -0.000212484 -0.000463109)
(0.197299 0.196543 0.000418443)
(0.198802 0.19875 -9.48116e-05)
(0.573653 -0.00181877 0.000787418)
(0.557074 0.000342184 0.000296705)
(0.566084 7.43491e-05 0.000486582)
(0.199187 0.200507 0.000238442)
(0.20001 -0.199959 -0.000256025)
(0.562843 -0.000758046 -0.000135413)
(0.200482 -0.200705 -1.22143e-05)
(0.564085 0.000286283 -7.41631e-06)
(0.567275 -1.35673e-05 -1.73277e-05)
(0.565727 -0.000248061 0.00011119)
(0.570645 0.000201377 0.000263944)
(0.560956 -0.00426935 -0.00125118)
(0.197936 0.200093 0.00148547)
(0.568058 -0.00071446 5.48602e-05)
(0.564752 -0.000195067 -1.62387e-05)
(0.198155 0.198359 0.000184471)
(0.563516 0.000322839 0.00048452)
(0.198279 0.2002 0.000328797)
(0.197313 0.196194 9.56338e-05)
(0.56681 0.00023346 -0.000497996)
(0.567469 0.000660627 -0.000131225)
(0.564249 -5.865e-05 4.46722e-05)
(0.199172 0.198919 -0.000636632)
(0.199054 0.199096 0.000119952)
(0.486566 -0.000410545 -0.000838392)
(0.565746 -0.000495003 0.00099027)
(0.566087 8.90879e-05 -0.000240304)
(0.56709 -0.000412056 -0.00037112)
(0.564115 0.00050077 -0.000737478)
(0.565903 0.000239101 -0.00045693)
(0.5638 0.0210336 -0.0140613)
(0.199761 -0.200313 -0.000235349)
(0.5643 -0.000494875 -4.48339e-05)
(0.56094 1.98043e-05 0.000173888)
(0.199429 0.199453 -4.03638e-05)
(0.200328 0.19868 -0.000271682)
(0.557026 -0.000216148 0.000149966)
(0.563786 -0.000379017 2.11303e-05)
(0.198436 -0.198837 0.000602316)
(0.566683 -0.00030522 -0.000100637)
(0.56494 0.000180931 -0.000141345)
(0.564964 -2.55797e-05 -0.00106179)
(0.590664 0.0430969 -0.0158851)
(0.563175 0.000475786 8.16041e-05)
(0.568918 -0.000423304 -3.02427e-05)
(0.559177 0.0242406 -0.00288846)
(0.637591 0.129763 -0.0577037)
(0.566481 1.24035e-05 0.000115665)
(0.255762 0.16004 -0.00745523)
(0.561745 0.000568088 -0.000141348)
(0.200367 -0.199997 -5.91011e-06)
(0.558195 9.30968e-05 0.000971354)
(0.199712 -0.19953 0.00062988)
(0.565374 0.00013728 -0.000486992)
(0.563709 0.000433805 -0.000422296)
(0.199501 0.20029 -0.000233389)
(0.560793 0.000598706 0.000716919)
(0.565818 -0.00061559 -0.000277612)
(0.568215 -0.000300517 -0.000267153)
(0.19942 0.199113 5.00995e-05)
(0.198756 -0.199014 -0.000229545)
(0.561738 -0.000555638 0.000781122)
(0.163167 0.115896 0.0440966)
(0.567017 -0.00121319 -0.000642397)
(0.200421 -0.199736 0.000193726)
(0.582375 -0.00103072 0.00728744)
(0.561787 0.000463056 -0.000116477)
(0.56717 9.13033e-05 -0.000290778)
(0.200404 -0.198004 -0.00141019)
(0.568141 -0.000298976 -0.000172077)
(0.565571 -0.000981498 0.000588726)
(0.207249 0.195985 -0.00111498)
(0.568367 0.000182177 -0.000722595)
(0.566341 0.000269521 -0.00121137)
(0.567654 0.000311924 7.10108e-05)
(0.56652 -0.000307186 -9.75761e-05)
(0.568047 -6.43906e-05 -0.000197308)
(0.566136 -0.000431444 -0.000483844)
(0.200167 -0.200659 -0.000272125)
(0.19247 0.193548 0.000609741)
(0.560583 0.00041469 0.000974943)
(0.565486 0.000831478 0.00220834)
(0.56475 -7.19536e-05 -0.000371022)
(0.568095 0.000101601 -0.000357703)
(0.199521 0.199448 2.1067e-05)
(0.566054 -0.000200796 -3.93329e-05)
(0.565387 0.000119251 -0.00100176)
(0.570976 -0.000287172 0.000411772)
(0.5667 0.000209955 -0.000268849)
(0.568432 -4.63316e-05 -0.00036238)
(0.56043 0.000818197 0.000755133)
(0.565377 0.000514715 -0.00110015)
(0.56507 0.00051328 -0.000799786)
(0.198827 0.198662 -0.000341995)
(0.558756 0.000460489 -0.000111531)
(0.227799 -0.191976 -0.00759989)
(0.553784 -0.00346726 0.000526202)
(0.196659 0.191303 -0.00190576)
(0.198307 0.198718 -5.77498e-05)
(0.565702 -2.62784e-05 0.000149457)
(0.564817 1.30492e-05 0.000234757)
(0.199235 0.198903 -5.88218e-05)
(0.555972 -0.000481913 0.00046676)
(0.565503 -0.00062553 4.60003e-05)
(0.566352 -0.000482899 -0.000124963)
(0.566294 2.86269e-05 -0.000528118)
(0.199196 0.198412 0.000748503)
(0.564946 0.000281226 7.16887e-05)
(0.56009 -4.97882e-05 0.000667727)
(0.560666 5.53182e-05 0.000586013)
(0.56714 0.000215943 -0.000310116)
(0.562514 3.39062e-05 0.000406171)
(0.567013 -9.66164e-05 -0.000373801)
(0.565604 7.68398e-06 -0.00011968)
(0.565819 0.000171467 -0.000114398)
(0.562454 -7.83392e-05 0.00028648)
(0.573731 -0.000821115 0.000499725)
(0.15731 0.0629751 -0.0719845)
(0.562888 -2.56321e-05 0.00037538)
(0.198254 0.198721 0.000269247)
(0.565484 0.0001753 0.000910351)
(0.566674 -0.000177287 -0.000690049)
(0.563002 0.00221955 -0.000405021)
(0.558049 -0.00216554 0.00389157)
(0.564439 -0.00100607 0.00208023)
(0.568197 0.000413636 6.49854e-05)
(0.567406 -9.8038e-05 -0.000808582)
(0.566886 -0.000265387 -0.000271646)
(0.567031 -0.000810811 -0.000894034)
(0.561138 -0.00110399 0.000856306)
(0.198003 0.199517 -0.00288005)
(0.566599 -0.000256283 0.000258299)
(0.565965 0.000338573 0.00033221)
(0.567831 -0.000319293 8.88961e-05)
(0.56602 -0.000100775 -0.000393921)
(0.566382 -0.000737039 -0.000627052)
(0.562733 -7.24719e-05 0.000389522)
(0.556538 0.0064919 -0.00107774)
(0.572286 0.000807175 0.000655215)
(0.55827 0.00181942 -0.000928932)
(0.562528 0.000334034 -0.000897718)
(0.199323 0.199328 8.16476e-05)
(0.20051 -0.199734 -2.75067e-06)
(0.566806 0.000177166 0.000173909)
(0.56776 0.000431727 0.000320374)
(0.562613 -0.000524418 0.000432868)
(0.558819 0.000708486 -0.0021361)
(0.561569 -0.000862701 5.94079e-05)
(0.198839 0.199069 -0.000328757)
(0.199095 0.199301 -0.00015577)
(0.566906 -0.000801119 -0.000864798)
(0.564127 -0.000437863 0.000146232)
(0.565614 -0.000279695 -0.000327165)
(0.565711 -1.67301e-05 -0.000190946)
(0.565037 -0.000141824 -0.000731115)
(0.566389 -0.000374175 -0.000199299)
(0.220715 -0.153337 -0.0146523)
(0.568011 0.000184191 -2.75877e-05)
(0.56182 -0.00114591 0.000861601)
(0.559944 0.000486481 -0.000851416)
(0.556666 3.3705e-05 -0.00177825)
(0.568204 -0.000140819 -0.000105867)
(0.541656 0.00367874 -0.0128243)
(0.557352 0.0160092 -0.0108715)
(0.568002 0.000108257 3.47286e-05)
(0.562169 -0.000872509 0.000839051)
(0.56062 -0.000285827 0.000358803)
(0.563121 -0.000625412 0.000639099)
(0.573252 0.000282869 -0.00102674)
(0.199319 0.19935 3.16696e-06)
(0.556612 0.00232062 -0.00216355)
(0.567147 -5.46951e-05 2.52696e-05)
(0.550704 -0.00211095 -0.00584967)
(0.566138 0.000123684 -0.000575118)
(0.566919 7.72939e-05 -0.000592728)
(0.19973 0.197602 -0.000812276)
(0.56321 -0.000958935 0.0041111)
(0.57333 -0.00044448 0.000108141)
(0.567093 1.46086e-06 -0.000575677)
(0.56113 0.000313766 0.000992987)
(0.553737 -0.000166716 -0.00167416)
(0.199309 0.20511 -0.00187082)
(0.197821 0.195524 -0.00103386)
(0.566093 0.000348364 0.000183333)
(0.566521 -0.00022135 -0.000162671)
(0.566539 -0.000106622 4.1569e-05)
(0.567697 -2.72449e-05 5.61897e-05)
(0.566365 0.000154425 1.92046e-06)
(0.565439 0.000556837 0.000448445)
(0.562494 -0.000642291 0.000808916)
(0.566455 0.00155432 -0.00272523)
(0.565635 -0.000236236 -0.000835672)
(0.566168 0.000864656 -0.000281255)
(0.564122 -0.0012758 0.00227626)
(0.561321 0.00117685 -0.000713476)
(0.562933 -0.000650402 0.000142519)
(0.566435 0.000197063 -0.000407347)
(0.198619 0.198617 0.00012715)
(0.566904 4.7087e-05 -0.000281961)
(0.200425 0.200582 -0.000122026)
(0.199605 0.199149 2.13575e-05)
(0.565824 0.00095099 -0.000461544)
(0.562725 8.36762e-05 0.000182477)
(0.566868 -0.00083133 0.000530055)
(0.200415 -0.200246 -3.56438e-05)
(0.564487 -8.38564e-06 0.000438156)
(0.560884 0.0010742 -0.00171795)
(0.567602 0.0005361 -0.00105662)
(0.199547 0.199647 9.21692e-05)
(0.565106 -0.000310991 -0.000203117)
(0.197084 0.198847 -0.000605878)
(0.563442 -0.000309771 0.00335054)
(0.198062 0.196977 -0.000119684)
(0.561743 -0.000266536 0.00104404)
(0.558428 -0.000240595 0.00106851)
(0.563686 -0.000146731 2.59797e-05)
(0.56563 0.000783629 -3.08909e-05)
(0.200337 -0.200253 0.000101898)
(0.198374 0.198349 -0.000171024)
(0.566857 0.002693 -0.00303245)
(0.555297 -0.00024535 0.00187105)
(0.567459 8.39269e-05 -0.000847941)
(0.566218 8.42716e-05 -0.000345056)
(0.565195 3.01124e-05 -0.000756388)
(0.563999 0.0011801 -0.000353551)
(0.574605 0.00323498 -0.00128285)
(0.199736 0.199933 -0.000270057)
(0.582028 0.00715066 -0.000899164)
(0.565189 -0.000522198 -0.000739034)
(0.541757 0.0635453 -0.0393067)
(0.198089 0.196662 0.000529576)
(0.56762 0.00126924 -0.00161566)
(0.546566 0.000438127 0.00145014)
(0.19941 0.197821 0.00170513)
(0.581603 0.00231986 0.00104717)
(0.56773 -0.000214762 -0.000518797)
(0.199674 -0.199562 -7.1148e-05)
(0.558474 3.67878e-06 0.00128544)
(0.596235 0.00847374 0.00149191)
(0.56655 -0.000506441 -0.000164027)
(0.562027 -0.00146057 0.00245521)
(0.576451 0.00510628 0.0274557)
(0.560329 0.000794472 -0.000498889)
(0.563961 -0.000141424 -0.000401591)
(0.560376 0.000103621 -0.00196783)
(0.539729 -0.000119519 -4.69505e-05)
(0.567006 -0.0229217 0.0259045)
(0.564202 0.000337064 0.000778787)
(0.555493 -0.00111142 -0.000207987)
(0.5664 6.81372e-06 -0.000175755)
(0.575442 -0.00146579 0.000985388)
(0.567317 -3.4368e-05 7.71438e-05)
(0.567613 0.00215639 -0.00157405)
(0.199415 0.199488 1.76576e-05)
(0.566519 0.000744009 -0.000321435)
(0.580697 0.000438539 0.0014707)
(0.591079 0.00569802 0.00836411)
(0.199738 -0.19976 -7.46153e-05)
(0.562276 -0.00107423 0.00109989)
(0.569029 0.000430829 -0.000191091)
(0.197201 0.195144 0.0004006)
(0.557991 0.000406189 -7.5944e-05)
(0.562281 0.000172129 -0.00047589)
(0.566031 0.000383264 -0.000678658)
(0.568925 0.000385016 8.14192e-05)
(0.562048 -0.000544819 -0.000350742)
(0.56538 -0.000243863 0.000195494)
(0.198913 0.199225 -0.000233268)
(0.562277 -0.000263478 -0.00175261)
(0.57069 7.64851e-05 -0.000295426)
(0.198979 0.198969 0.000237941)
(0.200023 0.199452 -0.000105413)
(0.565757 0.000465919 0.000220715)
(0.199436 0.199776 -0.000109913)
(0.564448 -0.000187908 0.000394338)
(0.560291 -0.00405503 -0.000311667)
(0.566079 0.000254779 -0.000326341)
(0.562365 -0.000593743 -0.00227692)
(0.562337 6.88216e-06 -0.00180731)
(0.283864 -0.0195011 0.0421439)
(0.199424 0.199669 0.000192946)
(0.571499 0.000345854 -1.5191e-05)
(0.566138 5.09133e-05 0.00015577)
(0.562955 0.000576444 -0.000471308)
(0.560644 0.00273005 -0.00192372)
(0.563175 -0.000121314 -0.000770664)
(0.199139 0.199303 -0.000233003)
(0.544444 -2.42501e-05 -0.000772276)
(0.560704 -0.000187702 -0.000903312)
(0.556091 0.001645 0.00420698)
(0.567079 -0.000234141 0.0011099)
(0.56379 -0.00105745 -0.00033214)
(0.554435 0.0165822 -0.0206954)
(0.566555 -0.00163621 5.2079e-05)
(0.551343 0.00592426 -0.011147)
(0.198632 0.195313 -0.00118955)
(0.199679 0.199597 0.000170136)
(0.19912 0.199174 1.05204e-05)
(0.566649 0.000254472 -0.000233984)
(0.566012 -0.000234385 -0.000539508)
(0.19913 0.198555 -0.000105333)
(0.564092 -0.000134184 0.000807788)
(0.557666 0.00380664 0.00296285)
(0.557162 -0.000753815 -0.000606569)
(0.501215 0.0707417 -0.0405077)
(0.559331 -0.000792085 -0.000485371)
(0.565768 0.000202068 0.000127018)
(0.199856 0.204351 0.000316802)
(0.556927 0.0130809 -0.0207603)
(0.199876 0.199842 0.00015965)
(0.198918 0.19838 0.000352208)
(0.566092 -0.000229125 -4.38078e-05)
(0.317983 0.243245 0.0367137)
(0.289901 -0.117867 -0.00409191)
(0.562681 -0.00131849 -0.00014833)
(0.194325 -0.197747 0.000260078)
(0.566148 0.000117677 -8.11684e-05)
(0.560741 -0.00254871 -0.00519783)
(0.570082 0.0192991 -0.0138833)
(0.56566 -0.000200928 0.000339739)
(0.57566 0.0110969 -0.00368616)
(0.56385 0.000402386 0.000196013)
(0.570619 -0.0364377 -0.0105139)
(0.199024 0.198994 4.21518e-05)
(0.198893 0.198033 0.000209866)
(0.564638 -0.000981037 -4.6099e-05)
(0.563577 -0.000700611 0.00106719)
(0.566998 -0.000414764 0.000181066)
(0.19587 0.198988 -0.00154667)
(0.560222 0.00113094 -2.85888e-06)
(0.565486 -0.000414513 8.48642e-05)
(0.565792 -6.85913e-05 -0.00027335)
(0.199252 0.199479 0.000835033)
(0.565532 0.00021719 -0.000604763)
(0.565722 -0.000237468 -0.000277939)
(0.510946 0.0571579 0.0378843)
(0.199116 0.199149 -0.000147137)
(0.645275 0.172849 -0.00635534)
(0.522303 0.0736297 -0.0534684)
(0.2002 -0.199484 4.36991e-05)
(0.199809 0.199083 0.000339916)
(0.1989 0.198508 2.88238e-05)
(0.200498 0.199834 0.000424261)
(0.199996 0.199735 -0.000792939)
(0.565849 0.000582646 -0.000107507)
(0.566214 -0.000150539 0.000212376)
(0.564936 0.000510012 0.00016407)
(0.199453 0.198443 0.000170718)
(0.565024 -0.000325953 -0.000143964)
(0.567447 1.40557e-05 0.000437895)
(0.19965 0.198943 0.000263307)