/*--------------------------------*- C++ -*----------------------------------*\
  =========                 |
  \\      /  F ield         | OpenFOAM: The Open Source CFD Toolbox
   \\    /   O peration     | Website:  https://openfoam.org
    \\  /    A nd           | Version:  10
     \\/     M anipulation  |
\*---------------------------------------------------------------------------*/
FoamFile
{
    format      ascii;
    class       volScalarField;
    location    "3";
    object      p;
}
// * * * * * * * * * * * * * * * * * * * * * * * * * * * * * * * * * * * * * //

dimensions      [0 2 -2 0 0 0 0];

internalField   nonuniform List<scalar> 
111485
(
9.03351
2.61501
3.036
8.93475
3.14158
8.79443
2.66322
2.31581
2.67014
3.93515
2.63744
3.394
2.68595
2.61426
2.69899
2.74218
0.868367
8.8125
2.66326
8.89684
8.87139
8.8774
2.6983
2.7133
3.1315
8.70523
3.7759
1.48439
3.02861
9.09613
5.20317
0.606577
8.9563
9.11963
8.75607
9.28157
5.15538
0.153505
6.03216
2.7798
9.23046
3.93597
2.77684
4.56818
5.74444
9.3159
4.31402
2.7053
3.92603
8.7007
8.70321
8.46208
8.70248
4.65304
8.70206
1.67635
2.69864
9.30077
4.32043
2.77465
2.78237
9.0314
2.14444
5.08656
8.57525
1.89329
7.6125
2.46618
2.1749
2.32879
5.54288
1.95437
8.5417
2.16514
9.21306
1.1228
8.93319
3.78063
8.87612
8.69203
5.28949
4.43907
8.99923
9.17491
2.13963
2.86234
6.64472
4.672
5.39207
0.801438
5.75607
2.8681
2.15087
0.317488
3.94184
9.16852
9.03932
4.6628
5.75234
4.87592
8.99873
3.79941
9.22345
3.72539
2.53323
8.64949
9.15956
0.707018
2.9305
5.70472
0.482474
1.93972
2.86212
3.53454
8.70334
1.05605
8.74173
9.30352
2.18936
8.90113
8.70201
8.21283
8.99851
9.30466
4.10986
8.86747
8.20905
0.816178
9.2407
6.09068
5.16851
4.657
9.20087
8.1619
8.26663
2.59939
8.95239
1.11999
2.38581
2.41026
3.98787
2.41201
2.40964
3.00101
4.19242
0.110528
8.94881
9.15185
9.2214
2.54109
3.00991
8.87602
5.20762
0.0107914
5.7125
2.5223
2.49536
2.67341
5.7543
9.29003
8.93549
2.51506
3.01817
5.77243
5.7457
0.980131
4.98726
9.29799
5.79023
5.80034
9.22186
9.13685
3.27249
9.07255
0.185067
0.0347167
8.65211
8.54233
8.72094
8.64531
8.53751
8.9281
2.54484
2.55162
2.5238
0.030392
3.78398
1.34719
5.13102
8.9881
1.1804
8.54683
9.04921
1.35748
3.92248
4.96313
1.79346
0.150067
9.21159
2.55708
2.97099
7.72219
4.42635
0.7726
9.2557
1.36636
3.61097
8.53732
4.93792
4.29577
2.98536
1.33389
8.52657
9.06339
1.34752
7.64616
4.66254
9.05977
1.36427
1.16211
3.99988
9.31486
1.515
4.85993
7.98216
9.06888
9.22862
5.52112
5.7383
8.59408
8.34804
1.17245
0.304899
1.91918
8.58871
8.58192
5.08249
9.23144
2.5351
1.16633
1.17492
1.16712
1.17522
9.23952
5.33873
0.926901
9.26445
8.98646
4.67251
1.95083
8.60328
0.582752
0.870676
9.14475
8.12048
4.37284
8.69629
8.5931
8.26751
8.79871
1.02021
1.15528
0.0916955
9.32187
0.889089
8.94817
9.02411
9.24557
5.1174
3.79483
2.04769
2.07442
3.5389
2.05132
2.09267
5.33825
0.300093
0.313582
8.63967
9.13626
5.36912
0.70991
3.97885
0.373228
8.91479
2.08316
2.55489
2.04001
3.60242
5.36463
2.03031
2.06523
4.41156
9.30742
3.76687
9.07376
8.84624
8.59998
5.51215
3.55293
2.75005
8.76341
9.30799
1.60707
0.509473
8.86434
9.07418
8.71124
1.15188
0.318747
2.48818
2.60532
2.82786
8.42116
9.17301
9.19133
1.61116
7.04696
2.76846
5.41306
5.05926
8.98968
9.02392
9.03652
8.26091
1.73495
3.10984
9.30106
1.71162
8.58551
8.69887
4.76159
1.72379
3.4994
1.69892
8.65112
8.25377
9.24513
1.71775
0.0905178
5.2528
8.68457
6.24291
5.25256
3.15513
1.52783
6.41559
2.84617
8.92165
2.84904
1.7528
5.36855
4.74675
3.18728
9.14382
9.19346
9.19408
8.9394
2.45912
1.48572
3.52243
2.84766
9.1145
3.32726
9.17641
9.03965
2.847
8.68252
8.20279
9.31126
9.29848
2.5273
9.30612
0.0712314
3.28575
8.87908
2.28387
1.80768
8.62857
1.77391
3.35331
1.78123
4.95811
0.150264
0.331763
8.6636
9.14818
4.54447
9.27624
3.4644
4.82354
8.62242
9.26323
1.6879
3.42889
0.292639
3.29639
8.93929
5.19339
3.39158
8.76425
4.56661
3.44503
9.06583
8.91664
0.0727157
3.13869
9.271
8.74728
7.84714
8.99579
3.20726
9.06196
8.97787
3.40844
5.19647
4.19856
3.13338
8.80488
8.26246
4.56496
8.3084
4.56506
4.58732
3.892
7.67099
8.33414
0.425586
5.75325
9.09169
4.75885
3.30363
9.31874
5.84788
3.98543
8.31604
3.50111
3.39535
0.167803
8.83302
0.203272
3.58639
0.160567
5.61671
8.20723
5.66459
9.20865
5.20134
0.111342
9.21197
3.50178
4.35076
8.14122
9.31491
8.42703
8.86966
3.15182
0.165438
3.45972
3.48161
4.92642
9.07286
3.55523
9.03867
3.13996
8.73449
9.03782
9.13268
3.49045
9.16135
9.06194
8.72357
9.04101
9.24491
4.37236
9.30775
8.45643
9.18219
9.07067
8.78673
9.19935
8.89868
3.5167
9.18796
4.41663
3.6117
5.81738
8.73368
4.40826
9.18734
9.02775
3.48491
3.46353
3.51134
5.42213
8.45201
4.02772
4.0363
0.219166
0.391255
3.59948
9.12735
0.225678
8.14175
4.07376
9.09431
4.07301
8.22039
0.448269
3.44855
8.64404
9.20229
0.397386
8.84401
4.0264
4.05907
9.25537
9.18334
8.64791
9.20161
5.59322
4.0153
8.65558
9.28856
3.1534
8.87904
4.04003
8.92005
4.24412
9.03506
3.94466
4.02732
1.74792
0.432091
8.68942
0.0685642
8.71695
9.09984
3.70526
9.0998
3.96177
8.65336
4.08129
9.10765
3.70519
8.8629
8.32731
5.81222
3.73819
4.0247
3.72674
4.04225
3.43256
9.21588
4.03872
3.72802
9.04108
5.47061
5.06088
4.03837
8.6541
8.57608
3.11263
4.14274
7.18945
8.4621
3.72622
3.11933
3.78471
3.79576
0.450224
6.80847
8.292
5.64763
7.00333
8.95051
4.00648
9.27982
8.34477
0.794105
6.79823
5.68093
6.42689
8.29639
3.8205
3.12839
8.72091
8.43182
3.11586
8.76955
8.86882
8.89953
8.71295
3.82309
9.17462
9.24614
3.85109
1.19868
7.93159
3.11483
8.43626
1.18021
8.69879
9.22904
3.84611
9.09116
8.74435
8.33352
0.110367
7.55275
3.9499
0.80401
8.75282
5.78029
3.97445
3.24068
4.96814
6.01096
3.17197
9.10806
3.93363
3.22974
9.25644
1.83826
4.43168
3.31206
0.110602
3.32808
3.31627
9.20356
4.03096
4.93909
8.3144
3.32485
4.04514
7.61392
0.799249
3.31661
4.06049
3.50409
3.52576
0.804862
8.65212
3.52987
3.97893
8.64313
3.76816
3.77619
0.857832
9.10586
0.0969303
9.27754
8.96568
9.14179
8.71365
3.22557
8.35849
5.5835
9.05255
8.78031
3.77334
3.79115
8.84029
4.04967
9.03054
9.24501
8.70904
4.14111
4.0167
8.34124
9.30396
9.08774
9.12021
5.07765
0.860984
8.27716
3.69463
5.73463
9.2558
3.69318
4.29978
0.449257
8.84471
9.06221
1.91064
0.844236
8.3181
9.21225
8.62605
1.41099
9.14212
8.75271
9.04756
3.65945
2.89175
8.88443
8.70283
8.62021
0.462676
9.28331
8.77096
4.16772
5.09418
8.3067
7.91676
6.32153
4.24829
0.0225445
8.57729
3.10299
4.36569
9.30916
8.69417
8.96153
9.0735
9.1863
8.90399
3.66679
9.02692
8.95745
8.66687
3.67717
0.838139
8.69618
8.69636
4.26283
0.846469
0.868885
8.78023
8.96878
0.8545
9.15903
3.70669
0.844667
0.879818
8.69923
8.99442
8.99376
9.13605
3.14028
8.98813
8.92205
4.65118
8.98481
1.48482
4.34267
8.61932
0.814503
8.52192
1.48316
3.8473
3.98707
4.21928
5.57868
8.40898
1.47238
4.26984
0.0202635
8.60844
5.32334
8.27128
0.248193
9.14957
4.39861
4.30153
4.39535
8.61231
9.00816
9.32
0.84728
8.44583
0.570792
8.52275
2.82273
0.231797
0.603805
0.852917
8.90702
8.70084
8.54075
0.865941
8.7433
8.41862
5.69074
9.28382
9.28018
8.9885
8.96683
0.618297
8.58887
9.0584
5.49971
8.43225
9.29565
8.26091
9.03619
4.39156
0.596253
8.88061
3.16676
6.35622
4.40722
5.79787
0.745259
9.19937
3.88146
5.01555
4.41136
9.18536
5.29266
0.619411
8.15063
0.577784
5.4272
5.61339
2.30428
0.40834
5.50286
0.113542
0.536877
9.13516
8.69933
0.405223
0.403658
9.24671
0.410813
3.46009
0.5307
8.6638
5.56965
9.15046
0.559202
0.535106
8.82338
0.264032
0.525123
5.57914
0.149609
8.63703
2.4837
5.59047
5.9223
5.54285
4.76956
9.11408
9.15232
4.66028
8.95845
3.55199
4.82008
8.15512
5.79459
5.68066
5.83753
8.96637
8.12617
1.27178
9.23911
9.02947
4.74663
8.72218
8.79384
5.70998
5.61634
8.96251
5.6156
9.06988
9.08782
9.25268
9.03852
8.68911
9.15219
4.79858
8.69418
9.22175
9.25519
5.54974
4.73583
2.93928
1.26
8.84528
8.74585
4.96221
9.02606
8.79283
7.91726
4.8577
1.64707
8.85419
8.781
8.7248
8.77145
9.19199
8.75127
4.93341
8.74391
5.59639
2.83423
9.11744
9.01328
8.692
5.6038
8.69344
8.93842
9.12983
5.64369
9.16555
4.92108
5.13253
5.5441
8.89035
7.66641
4.94158
2.73059
8.54667
5.61797
4.09807
8.7607
8.59907
8.21214
8.77875
1.26948
2.46095
5.05573
5.66762
8.83154
1.26277
8.57847
8.28272
8.20214
9.22908
2.22846
9.04571
8.68838
5.23168
1.64692
8.68907
3.99194
8.49217
5.05628
8.6773
9.09498
9.18331
8.9741
0.586391
2.43429
6.04713
8.84695
8.65214
0.596843
8.96319
8.37484
9.04364
3.65409
5.69893
3.1384
8.75713
5.29166
5.26187
8.72849
5.27636
8.71458
4.58624
4.12406
2.38782
5.26086
5.25285
8.99528
9.07626
9.0792
5.27362
9.32777
5.3277
9.27565
6.18011
8.73997
2.74948
2.83521
8.69261
8.93267
8.68801
9.27655
5.33264
8.68611
8.21485
0.591423
5.33822
8.63619
8.36345
8.5301
8.37293
8.71682
9.00539
5.3576
4.13556
8.93108
8.69415
5.69869
9.04357
5.35428
0.600336
8.63948
4.66185
8.98486
0.360612
8.68207
3.04357
8.81454
5.71733
5.63776
5.48428
4.68729
4.68409
7.53068
8.59111
4.71559
8.69829
2.22283
8.80716
9.18335
8.45964
9.17792
9.21345
9.24064
4.68901
4.68365
8.98761
8.12676
8.7607
4.75606
5.58588
9.07099
2.2344
5.55642
8.6949
0.780703
0.545842
2.12871
5.50983
8.9593
9.03923
9.12899
8.91118
2.24312
9.17096
4.7781
9.00966
4.80205
3.057
9.16317
4.7846
9.24097
8.94764
4.82635
5.08764
6.68597
9.0108
8.68044
8.76583
2.31549
8.5181
9.28345
8.59415
6.31526
8.24357
5.72608
8.36399
8.57723
8.59786
0.669064
0.590268
3.43321
2.55242
9.26936
4.8197
9.09897
9.24851
0.576297
8.68583
5.72435
4.80003
0.413156
4.87108
5.60945
3.40092
9.21139
5.48283
5.081
4.14928
4.94312
1.70704
7.80305
9.02715
3.28058
8.77532
8.78467
5.81433
3.92938
5.64365
9.09614
9.05599
5.22408
8.69324
8.69652
4.88931
8.68838
8.69293
2.01191
4.90904
5.02261
1.99514
1.0138
8.73679
8.98775
5.79588
1.97504
8.89874
8.68912
3.49894
8.71353
8.11424
8.26229
8.27909
7.46065
8.09441
8.8985
3.32776
8.763
4.99952
8.81411
7.16913
8.66919
8.67899
9.21862
8.95517
3.08314
8.96276
8.95571
8.32341
8.7871
9.20633
9.08976
1.87617
8.9747
1.70214
5.03164
8.67717
3.36951
8.86452
4.2463
5.59525
0.442962
0.456484
8.7015
0.494772
3.09279
5.47455
9.2415
5.13431
1.48213
0.224425
8.48997
0.285056
8.65816
9.208
8.79429
8.88776
0.285906
9.06966
8.80075
0.22513
5.12179
0.218455
9.25293
7.80287
3.37187
9.14902
5.80955
8.69246
0.481526
8.67426
8.70644
3.35165
8.81214
5.12942
9.04599
8.81371
1.46626
4.3432
1.07503
2.39024
5.65795
1.89772
8.82065
8.68018
2.87031
1.11799
1.85673
5.12038
8.96097
1.71845
8.93629
8.76531
2.9219
5.16641
8.72161
1.1414
9.20967
1.08571
0.9994
8.55188
8.89345
9.13565
2.86357
9.06372
9.06446
2.88963
1.08109
4.93363
0.266181
8.82543
9.18843
3.57566
2.90135
8.82776
2.88651
8.65937
2.87227
8.86708
8.84035
2.87075
8.96998
4.12847
2.63733
8.73238
8.89659
2.64303
8.11217
3.19654
9.02618
4.98384
9.04428
8.13548
8.07045
2.66013
8.33429
8.29059
2.45513
8.29154
7.3409
8.10869
8.65294
8.7706
5.48465
3.19858
9.06708
9.10173
3.16776
3.18278
8.72902
2.89796
8.91016
8.76667
3.69088
3.5178
0.0621803
8.86114
9.10382
9.07101
8.95769
8.72007
8.72545
9.1118
8.75162
8.76734
8.89707
9.07831
8.77374
9.00465
8.84491
8.77219
8.62257
8.84211
8.89447
8.98109
9.04169
9.21943
3.24328
9.0396
8.84773
9.24436
2.20789
9.31274
8.76389
6.92342
8.63255
8.59124
2.22304
8.70224
8.57404
7.09667
2.23638
9.00673
8.13785
8.29865
8.78962
4.55775
2.24952
2.25978
2.17378
1.32846
8.75738
8.80253
1.66116
1.74647
2.16713
8.93354
1.97616
4.40232
2.14149
0.34691
0.394308
2.18738
0.682617
2.13942
9.25079
2.43119
1.97258
3.04346
1.98134
9.14303
9.08948
9.19925
8.98806
9.13603
1.73188
2.00551
9.13129
8.7727
8.74568
8.62253
8.80569
8.80595
8.65647
8.77485
1.97793
5.58441
1.99787
3.33127
8.68037
8.56113
4.50118
5.71272
8.88706
8.95792
3.19523
9.27987
9.04869
1.95803
1.98743
1.98652
3.15273
4.46317
8.78443
0.0234401
2.37642
8.21814
8.77899
2.35162
8.76396
8.69318
6.75143
6.36881
3.36576
8.61841
9.26677
5.08969
2.41431
0.0347848
1.74161
7.07803
8.99649
4.74723
8.64993
9.27634
8.57208
3.15469
8.79946
1.7292
0.0758634
2.31933
2.40057
9.13085
1.52013
9.18136
8.54469
9.14573
8.73603
0.557352
7.41547
8.96545
8.91978
8.66563
1.73793
8.16945
1.55695
1.73502
0.540969
1.73781
8.62116
8.63088
8.21655
3.12142
1.30341
5.64483
8.69543
9.02896
8.1924
4.53949
3.3555
8.96212
1.29093
6.78054
2.41472
1.29663
8.95793
8.12792
1.30534
1.72942
9.09403
3.92368
3.80915
3.36459
1.53977
1.3629
1.40405
8.21039
0.508605
1.40768
1.19073
8.60035
2.31375
8.24115
3.06057
1.47288
9.31932
0.359658
1.40779
1.5354
1.82873
8.83296
6.6656
5.01765
7.34998
1.41628
8.47609
0.432122
1.40126
8.71111
8.98604
5.86737
5.50343
2.02436
8.79871
3.4259
5.66364
5.60541
5.19049
8.67202
9.27534
1.72197
8.72073
1.55208
5.57526
1.40354
0.419457
8.88796
4.17444
1.70997
8.76636
8.22096
1.08213
9.13638
1.08805
1.01816
9.03985
8.81976
2.42328
8.8247
8.85053
9.31533
0.413854
5.91369
3.13779
9.28024
3.05085
0.746235
8.6028
0.740844
0.779522
0.466463
5.53716
8.90911
1.53955
0.29783
0.761946
0.770334
0.487231
5.43326
2.79176
9.02399
0.067308
0.530051
8.95925
0.770084
9.25032
9.05244
9.2046
9.29239
8.91047
4.52667
9.18981
0.74318
3.68306
9.26
3.53222
8.64346
0.526446
8.76068
5.40145
8.53189
2.9436
4.70126
5.65733
0.803308
0.527226
3.04244
0.468608
0.817291
6.89754
0.803482
1.94607
0.823344
9.26114
1.72852
5.5245
0.833968
2.72153
5.56896
9.23992
8.25353
8.71623
3.08217
8.90255
7.94904
0.523387
8.67156
3.78169
8.76262
9.22601
8.96158
1.91248
3.2178
0.897444
4.81815
0.432033
1.63862
1.55135
1.96054
0.614131
1.54425
1.60938
8.64524
9.16853
9.31797
2.42877
1.69243
8.64717
8.95988
8.01036
1.55303
0.63
8.86821
1.6093
9.068
5.76649
3.09274
4.99955
8.95277
9.03736
1.92478
8.9845
4.11685
0.823868
8.49992
2.1635
2.72499
0.337036
8.72744
5.16543
8.31885
3.94245
3.13576
8.96521
9.22308
0.793485
7.83598
9.16296
1.03045
0.388446
9.01864
8.72987
8.28719
1.5648
7.9797
2.45147
4.54611
3.86843
9.03294
8.23728
4.45906
9.04198
9.08223
9.11778
8.89928
8.30574
8.54512
8.4846
8.76039
8.602
8.4804
8.68605
8.51128
4.1182
8.50847
8.14064
8.04453
8.85122
8.20964
9.03716
4.53405
8.35006
8.53083
4.65201
8.623
8.75199
8.61418
4.55282
8.69071
4.53333
5.00848
3.87081
8.40956
8.86533
4.52497
5.75268
8.65641
9.26046
2.42376
8.37161
2.4097
8.34222
9.10544
8.50732
2.40663
2.38796
9.09133
3.50849
8.65209
8.34186
5.39198
1.24519
4.5299
9.26598
2.41449
8.28985
3.79006
8.90454
8.73815
8.84463
8.21112
1.24075
1.51232
9.16894
5.65967
8.75573
8.76034
8.7528
8.90977
4.26438
4.27127
1.54389
5.86168
9.30756
3.10627
2.46325
1.13672
4.26623
9.2698
1.21767
4.24695
2.18868
5.76532
2.28678
8.71027
2.9274
4.32543
2.43969
4.34622
4.56091
8.71316
4.5973
8.61951
9.04732
2.00248
9.17124
3.08193
9.11229
8.69454
8.55771
8.73195
9.21564
4.33308
8.71393
3.59993
8.41072
9.12942
3.00667
4.15896
1.62169
3.48193
9.20326
6.15407
9.1738
3.80543
8.69226
3.00575
4.24849
4.31383
3.83805
8.68346
8.68634
8.65085
1.31169
9.13412
8.76937
1.31185
8.66498
8.80523
4.3008
8.6821
2.34867
5.73686
8.40293
8.43649
8.40932
1.5451
2.59511
8.90112
0.0513144
3.72555
8.35343
4.3809
9.13327
1.34343
3.04962
1.15606
8.87255
3.2174
1.67954
4.53652
4.21043
3.56376
8.96852
9.00721
5.51266
8.79564
8.90629
9.07885
1.35749
4.41
1.76475
2.79534
8.28864
3.20881
2.44761
2.62641
3.16166
3.21041
4.03372
3.53029
8.95752
8.94746
8.95018
3.54173
9.13552
3.73929
7.74957
3.5429
5.7249
1.36099
0.664831
8.81311
9.09113
3.55281
3.52964
9.04848
8.99444
9.29181
1.46693
3.52852
3.65017
3.68596
0.357247
2.44238
8.79512
9.19098
9.02525
0.291866
2.35347
0.0393733
2.66646
1.52506
3.69784
8.60276
9.02338
8.09225
8.671
0.374872
3.15046
8.99523
8.71136
8.64119
9.25882
9.2917
8.52934
3.83385
8.85344
4.68893
5.83877
8.76128
3.75798
0.113126
1.43245
9.14414
8.56568
3.8158
8.97912
3.83055
5.62055
1.55514
8.50907
7.89617
8.92
8.85073
8.803
8.49151
6.65557
8.71823
3.84501
1.76111
9.02788
9.01537
3.91859
8.78796
9.05839
2.13562
5.66772
8.75521
8.75007
8.55762
0.799023
8.98869
8.99991
6.33411
3.93544
3.91958
8.88385
8.75551
8.33005
3.93423
3.89157
3.9229
2.7742
8.86645
0.664317
0.136911
0.166957
9.24154
9.21398
9.02864
9.237
8.98952
2.13208
2.18651
1.75691
9.27106
9.12407
8.98136
9.09089
8.58352
4.778
0.273951
0.0650513
8.7135
8.96136
9.28079
5.63086
4.46427
5.13124
9.08311
5.3651
8.6518
8.69364
9.00195
2.12615
2.36139
8.77048
8.67522
2.90134
9.00518
1.56196
1.93853
6.84786
8.76234
8.67749
1.56809
4.83531
8.58929
6.79293
0.227115
3.1216
8.85784
8.78436
9.25561
9.02384
0.426178
1.0819
8.78653
4.82083
4.14311
5.97365
8.90338
8.79649
8.776
8.78695
3.20648
8.68192
8.91136
8.61941
0.715627
3.6305
0.885381
8.626
9.22294
4.14663
8.50686
9.01089
8.80437
8.8558
2.26791
8.5491
8.80621
8.81271
0.8818
2.36406
8.79239
9.15777
8.72155
2.74757
8.60707
8.69563
8.72743
9.17733
9.13235
5.75881
3.18162
9.32854
2.51499
3.1653
2.20522
9.28051
9.24161
8.95638
9.24505
8.79861
3.00149
8.90197
8.33409
8.45182
4.15465
8.46079
4.13112
8.99345
9.13046
4.96663
6.00965
8.3707
4.16798
8.89529
4.15549
8.68549
8.72295
8.79293
8.92403
8.75741
4.73728
8.76559
2.65438
9.16776
8.31047
9.13572
8.79496
0.831692
3.80942
8.94119
6.84423
9.30046
4.24956
4.73619
3.80404
9.31355
5.69059
3.79888
4.77175
3.22326
5.71743
3.84414
8.55727
8.83195
5.71818
1.32992
3.81519
8.6976
8.51681
8.12514
7.0196
9.28845
8.7265
9.16541
9.25166
9.31086
8.64583
3.76254
5.02937
1.76831
8.22723
5.31118
9.16591
3.04537
9.03073
9.30009
9.03347
8.5258
5.02926
8.5611
9.30512
8.89564
2.60725
8.92065
9.09021
4.93855
8.62971
7.81726
7.55703
7.45612
9.25698
7.52502
7.46317
7.51345
7.72738
8.84875
8.84849
2.58679
3.96903
8.32344
8.26134
8.88681
2.62327
8.67845
8.62422
4.98496
8.81205
8.97387
4.23628
5.02743
9.29275
8.76175
5.34058
8.27434
8.6693
5.76514
2.82586
2.74824
8.60321
2.78701
9.2107
1.7277
5.68976
2.77209
8.91853
5.70055
2.78376
8.61066
5.58258
8.7135
2.61324
8.451
2.58673
8.62543
4.73349
8.73497
8.61584
9.16476
5.46939
5.4808
9.2184
2.84529
4.73661
9.33036
8.91078
2.14764
0.108129
5.7258
9.27036
2.92709
2.88356
4.96863
5.63261
9.3077
5.72294
8.81982
5.52537
9.03093
5.42211
5.33368
8.71549
1.80039
8.6563
4.91486
8.9454
8.71753
8.76499
9.0405
8.78583
9.01795
3.96018
2.16693
5.49529
8.74808
8.02215
5.4807
8.77227
9.30551
8.69205
9.27106
8.73263
0.091831
8.91764
9.19544
8.82648
0.0819645
8.73833
8.97685
8.47482
0.41706
9.0315
0.419008
5.61586
3.8745
0.417656
0.437589
8.69186
8.77068
8.93883
0.430769
0.902321
8.60004
8.0278
0.450117
9.07958
9.21346
5.47255
8.71286
2.87988
8.75606
0.446299
4.90817
8.76545
8.8414
8.75958
9.17029
9.07503
4.92592
8.7685
0.460651
8.69041
8.86936
1.02302
9.17613
3.05661
8.57557
9.08819
4.00625
1.80292
5.53091
9.16757
9.17848
8.94946
1.79486
5.33068
8.67714
8.97614
8.52446
1.11921
8.76144
3.08144
5.51525
8.86056
8.80333
1.137
9.02284
8.50109
9.03122
8.61465
9.09911
5.5114
7.98415
8.6807
9.13543
8.04486
8.81005
8.11651
8.6845
8.73996
8.60767
1.80905
8.62166
1.10583
8.56337
8.78422
5.82897
1.11903
8.7604
8.62643
8.79154
1.0848
8.25351
8.90696
8.59113
8.78448
1.22169
8.75888
5.58624
9.29321
3.72557
8.31453
4.48174
8.68779
9.06668
3.5398
8.18365
8.75625
0.897052
3.64786
9.25173
9.16598
3.99214
4.57677
1.10051
1.10679
1.12052
4.0019
1.09296
4.65536
8.66405
5.5955
8.06773
8.03534
8.88567
8.65038
9.05461
1.08212
9.26691
9.30743
9.2468
5.24494
4.6319
7.96225
4.20897
9.19583
4.30309
8.64673
5.01441
1.18302
8.08754
3.65227
8.67068
8.69862
8.94671
1.21336
3.74873
8.9449
9.06909
1.22637
9.1657
5.6721
9.04351
5.36071
9.00739
8.94451
9.22924
8.9377
0.972473
8.93577
6.01803
9.16735
3.84664
8.88657
8.81519
7.44207
7.34538
8.79778
8.83091
9.02685
9.20515
3.64508
5.64749
7.72993
9.14613
3.73692
8.87977
9.13371
5.75394
2.81757
5.21307
8.95433
0.671741
3.9804
1.91925
2.99634
9.03986
9.30997
9.31109
9.18314
8.96587
8.93909
8.93808
8.67844
8.95459
8.93897
8.98756
8.92507
5.36081
8.9469
8.78968
8.8216
9.18391
8.89192
6.87242
8.86742
8.83337
3.00301
5.54108
8.69202
9.29013
8.97724
2.61585
9.28548
9.0196
5.51439
9.05255
8.7672
9.07511
9.13588
5.0041
9.01423
5.72169
9.13984
9.07649
8.84339
8.89687
8.81018
5.53015
5.55258
1.44622
9.19266
8.61541
9.22618
5.55985
8.76056
5.54675
5.56354
9.04028
8.60588
7.96481
5.68051
8.70695
8.34095
5.67531
8.00969
4.09567
9.15434
4.72982
7.99401
7.77767
8.99151
3.60058
9.06476
3.63154
4.99793
8.7238
3.64427
5.60693
9.01239
5.0327
8.79785
8.732
8.7794
8.71817
8.60981
8.91298
8.75845
9.2623
5.55812
8.37306
8.9229
9.06989
8.73292
8.69867
2.64203
7.27159
5.62313
5.84495
8.7696
3.42574
3.43811
8.95196
8.3463
8.62047
8.66042
8.67518
8.67089
8.13577
8.36765
4.30838
8.86146
9.27365
7.92523
8.10052
8.97706
3.59103
8.62105
8.72285
9.17325
5.28126
9.25029
8.87377
4.04958
9.02217
9.28049
8.59448
9.31403
4.07692
8.87813
8.85226
8.81749
8.61857
4.33166
5.28072
5.27127
3.59848
4.57739
4.5945
9.07076
8.18471
5.7461
4.46755
8.18308
5.75017
9.14354
5.59979
8.70608
5.29249
8.92688
8.74741
4.6009
5.48262
8.72458
4.45953
8.91284
9.0413
5.29456
5.02554
9.18999
8.91064
8.69186
8.95888
8.80522
8.20804
9.19676
9.03654
4.44141
9.20341
8.99948
8.89537
4.6087
8.77084
8.21955
8.99944
8.92862
8.46239
8.28597
4.60733
8.72136
8.30589
2.6917
9.17263
4.45875
4.41701
8.80354
2.78376
9.01249
8.53893
9.12035
8.28553
9.1787
9.27843
9.31932
9.28938
2.74436
9.22047
9.0962
9.21997
8.60362
8.91332
8.60994
5.36558
8.99396
9.15241
5.02203
8.94818
8.97534
9.30911
2.71017
8.8581
5.25498
8.23137
5.76921
0.324682
8.95507
8.18608
2.65805
8.09186
8.94725
5.64286
5.67617
0.0200633
4.83162
5.83693
5.5894
9.21921
8.69216
3.34423
5.4026
5.24155
3.24841
5.77603
9.15305
0.599556
3.34705
3.33688
9.31413
3.32857
0.507403
1.90789
3.16221
5.39482
3.46804
0.715487
3.10259
0.11382
1.41402
3.1763
8.22508
0.105552
0.0245391
3.6116
4.20668
0.17464
3.16593
0.121822
8.27076
5.48839
8.25134
1.69475
3.35739
4.28243
2.51615
8.25376
8.96671
3.10122
2.53824
5.42624
5.26953
0.86474
3.36264
7.52469
3.37265
8.99337
5.9342
5.44755
4.81538
1.92598
5.46914
5.57446
3.87381
2.38573
2.40594
1.73452
3.38671
0.126686
7.97123
7.7273
3.39762
8.79243
8.98693
3.21197
3.24643
0.267018
8.8253
4.88619
5.03499
2.3182
7.7647
8.99215
5.47058
0.0736433
5.45212
9.31105
0.8418
9.07421
2.49812
3.82954
4.67651
4.71903
8.81333
9.01045
5.10265
3.26101
3.25228
9.01564
2.62383
3.27342
4.21916
9.04773
2.35913
0.194771
8.23225
1.92376
5.54722
5.20165
8.66899
4.97133
5.82413
9.00826
4.04472
0.36399
6.47822
4.11793
4.11641
0.741482
3.58399
4.17613
0.263033
5.46556
5.26742
3.91646
0.662933
3.48259
5.60254
2.52158
4.14692
1.42172
3.17637
5.60932
0.758139
9.04
4.11628
4.10703
5.33405
1.01321
4.7919
8.68888
4.10299
1.91478
9.05378
4.87776
0.0826807
4.12945
3.98125
0.485717
0.0822874
3.54009
3.98476
4.92732
9.05008
8.98024
4.9525
9.24195
4.96252
4.81816
8.55964
0.495836
4.23154
2.63431
9.21959
1.91494
2.18506
4.87492
5.4536
2.15162
0.929908
2.66237
4.46368
8.98824
8.7281
5.33827
4.45402
4.85397
2.78506
8.72771
4.48588
3.83021
8.55061
2.6398
3.39032
0.227708
5.75719
4.60927
3.85951
0.793169
2.94619
9.24084
4.12933
2.11038
3.9257
5.73086
8.73196
4.64463
8.67054
8.93837
2.21825
3.8293
2.40841
5.94131
5.05018
6.49121
8.99005
3.8235
3.83977
2.45896
2.45285
8.76287
9.31445
9.30035
2.47132
2.46244
5.72714
1.89267
8.51761
8.74485
2.46046
2.73894
4.7455
2.45258
2.4474
2.94325
4.58835
7.39118
8.84835
3.76282
0.272074
8.74052
3.54684
2.92432
5.83825
3.74256
2.93262
4.92552
8.74224
2.52702
3.03968
9.22533
8.52949
0.167291
0.284219
1.03249
0.428204
2.93799
2.96235
0.723495
1.89341
2.71121
0.421079
8.72394
8.70673
0.0168008
0.477077
2.92945
5.64792
2.8427
2.8012
3.89394
2.38736
2.82678
8.90425
9.2247
5.61367
8.71258
8.22005
3.07152
1.94653
3.00957
5.497
8.37107
4.65655
5.66354
8.43653
5.67446
5.67329
2.82206
2.84367
0.191359
3.28602
5.42253
0.478602
8.95881
8.41941
5.17982
0.921567
2.46425
0.951587
4.87366
4.42043
5.34992
8.43272
3.0014
0.646666
2.60985
5.66542
4.64502
5.23196
5.67894
3.01849
0.688138
8.38936
4.27234
2.89496
6.87466
8.25651
8.06771
2.60817
8.20272
0.14799
2.59817
2.43568
3.28584
5.08274
7.59472
6.94902
8.64948
8.12886
4.93871
8.94606
8.94646
5.58461
8.97083
1.90135
2.53229
2.33126
1.7802
1.88671
3.36802
8.02551
0.91107
0.401622
4.37884
3.18654
1.77654
2.99601
8.97584
5.68747
1.73987
3.95231
8.95013
4.02651
3.13158
8.94319
8.7744
4.8506
1.7172
9.10977
3.53808
3.18568
4.86325
9.14283
8.93634
0.281496
5.62587
3.32582
8.95925
9.18943
8.94299
3.82812
6.79295
6.73893
1.19855
5.66274
9.28634
1.19536
5.65861
2.69461
0.310767
0.297615
1.29479
5.79664
0.336435
9.32282
1.36283
0.704009
0.107747
2.1655
0.506726
0.493178
0.522036
0.554496
0.130765
5.02984
5.7965
2.962
4.92802
5.44608
5.74613
0.541259
5.78453
0.544141
0.129251
1.57268
0.958726
4.85926
0.950462
5.82496
1.11638
8.49165
3.02992
7.20219
2.24156
3.37131
9.2264
4.14052
8.49847
3.52571
8.51249
8.61565
2.3267
4.24667
8.25394
0.923174
2.454
4.23081
8.74747
9.17362
4.92933
1.34782
5.60371
2.22375
0.744355
4.1359
5.286
3.93457
4.16509
8.07162
3.00279
8.99069
8.65658
1.67651
1.20997
5.53596
1.60705
1.06872
4.15268
4.30033
8.61491
5.33938
1.04538
4.103
8.60512
9.24199
3.01392
3.5314
7.9655
4.81654
0.0969731
3.63456
0.248774
0.869
2.24633
8.77727
7.44796
1.78859
5.18862
9.32877
1.6813
4.82415
3.81172
5.90531
1.78657
5.88109
3.01423
5.00322
7.59591
5.11515
8.87424
3.48678
4.21179
0.828678
0.0454456
8.1797
0.0654284
5.20961
3.99074
5.0615
8.36828
8.93917
1.8816
5.13716
3.99893
3.45045
4.78416
1.36053
0.26136
2.59668
0.292199
0.20332
4.84071
8.32429
5.56728
3.94308
0.0201471
4.71943
8.38164
8.82267
5.26159
5.49687
8.69481
5.51333
4.38258
8.39862
7.6497
7.72088
4.29712
1.75206
5.9574
7.83943
4.81583
1.99197
8.47848
0.481079
8.17864
3.80534
1.36695
9.13506
0.388518
4.74168
4.74009
1.2141
8.88238
5.67502
4.537
5.06209
4.7333
4.93009
5.04051
4.32018
5.73611
4.45292
0.708063
1.77913
8.72944
8.13258
8.07298
8.54435
4.0809
2.06678
1.81273
4.75274
1.04328
1.82767
3.62611
4.23892
4.05685
1.32161
4.35966
4.75519
3.82769
0.973669
8.90363
4.7125
4.70712
4.14146
4.3895
8.49146
2.44308
2.49966
3.41766
3.42714
2.74578
8.68094
2.71445
2.73254
8.20854
2.76274
3.91184
8.54962
2.76191
8.52794
9.3113
2.44163
4.25175
3.93134
2.73227
8.80331
0.431873
4.3848
9.3068
2.21347
2.8226
2.31495
4.01955
8.53714
4.26579
4.24764
3.71497
8.59335
1.94013
0.737937
3.79364
1.66716
2.10056
9.21011
8.55438
8.35262
0.142783
8.41442
1.89174
1.5724
0.516523
8.65333
0.579121
8.55723
8.90447
8.60609
2.32548
0.057879
5.673
3.7898
2.03287
8.38367
8.18271
4.79426
4.72013
1.5542
5.42322
2.04503
5.67155
8.89077
7.81393
7.85541
8.8963
7.87404
0.0857124
8.97991
1.89083
3.59602
2.04288
0.396593
2.43747
8.10173
1.60617
3.5994
4.20414
4.97107
8.12188
8.86066
4.35001
1.59985
5.79802
5.73629
5.37483
5.57077
5.71468
5.69461
1.20349
0.273114
1.20956
5.64233
1.18494
3.61762
3.89488
0.80195
1.18625
5.36311
5.73905
5.71568
5.60178
5.51912
0.829912
5.01522
9.28874
5.57831
5.33194
0.448998
0.27034
0.0991631
3.62239
2.72129
5.275
0.291807
5.50926
8.76324
1.90238
2.6017
2.95596
8.75878
2.20366
1.22076
0.309422
2.6651
9.27611
8.7126
3.95076
0.759285
0.723111
0.149119
8.57334
9.05372
9.08298
2.94577
3.52773
0.678495
9.04212
1.95045
8.70251
8.68835
0.297585
0.21095
8.73841
0.686055
0.705793
0.13522
9.2989
9.15698
1.26002
3.62417
8.70316
0.620721
0.566835
0.54955
8.68989
8.68652
8.68989
0.553902
0.621625
4.77331
0.562827
9.26429
0.520165
3.4112
4.81715
4.40575
8.52437
8.85243
0.508354
5.08465
4.95418
2.49066
8.54066
5.6683
8.98183
0.843408
5.40809
3.4484
8.56298
8.29856
5.15303
5.31942
8.24418
8.26598
9.00267
2.24037
8.45343
8.15476
3.5744
3.49681
8.99722
8.19722
3.03832
0.544128
0.548362
2.32564
1.95326
8.23752
3.61828
8.04159
7.99013
8.53684
2.45697
4.02334
0.556952
8.01939
8.69938
3.48882
5.37043
3.69902
4.0639
3.19855
2.77783
3.16402
0.556566
7.98004
3.42803
2.53723
0.558225
2.28727
4.03699
7.41001
2.26409
2.26659
2.25777
2.2603
0.773068
7.91282
8.40335
2.63176
8.40806
8.44705
3.17198
8.42489
1.88627
8.36726
8.39823
8.5894
8.25779
2.5125
0.822567
2.5271
8.32736
1.20383
2.3963
3.40269
8.38038
9.03908
2.5154
2.67669
5.5582
2.51947
8.2873
0.0275587
0.54582
0.432433
8.81207
8.59329
1.48926
1.25898
8.61081
8.40463
4.6801
0.0387813
8.33676
5.1413
4.6677
4.67729
2.78296
8.38246
3.16796
6.2728
0.284007
0.0833356
4.68777
4.6305
4.28669
1.76989
3.23177
8.28123
3.62377
3.23404
5.52729
5.04242
4.67492
8.35294
2.21783
3.30229
1.85436
2.81514
3.26202
5.40598
0.254586
4.94403
4.33984
4.68671
1.31546
4.71195
4.94222
3.21663
3.95363
8.6217
5.68277
9.30956
3.18951
3.32663
4.71461
4.95074
4.53825
3.2401
3.24291
5.22742
2.51098
0.839016
8.7635
7.91852
4.94895
4.9498
3.84688
4.9478
5.50622
5.14539
5.50068
5.50489
8.00431
0.817885
5.52253
5.49512
8.03565
0.0839502
7.88763
2.46688
3.24216
5.73197
2.20172
9.29811
3.12981
5.46986
0.300222
8.9593
5.48664
0.713004
4.24979
5.46457
5.47687
7.95405
8.9292
2.27892
3.41796
1.80211
3.41369
3.07261
3.47226
5.56855
8.18323
0.103521
8.10675
3.44523
0.818063
3.67457
9.12537
7.76702
5.13864
3.45329
2.48942
3.72486
8.94599
3.68497
3.72722
0.119538
3.71819
6.89823
6.42933
3.68346
8.88079
8.83169
2.20358
6.84791
5.08633
9.16993
1.65278
8.52424
5.58501
9.20119
1.02826
4.88703
5.67783
3.70029
3.89874
3.34241
4.6875
5.62179
0.303216
5.69283
2.05729
5.65391
8.53489
1.18735
8.78946
3.90491
3.95819
3.1053
2.74632
3.87779
0.116356
2.43127
3.86704
3.77211
5.8252
4.58271
5.14333
8.57448
3.86168
0.863477
5.63969
0.806276
3.88384
5.63449
1.19852
5.43342
3.45755
5.67024
3.47967
2.09384
3.92157
3.15494
8.83
8.80988
3.32996
3.39532
4.28637
9.01243
5.56737
0.246756
3.23205
2.44449
1.53904
2.5727
2.19024
3.38918
0.0110356
1.92673
4.54328
1.62056
2.93886
2.62994
2.41026
4.54162
3.87457
1.60308
5.84504
3.62872
5.78271
1.41107
4.11398
5.71226
1.81746
0.0555415
2.58129
3.39143
1.44652
1.19629
8.70321
4.0403
5.75137
5.75962
6.81001
4.04547
8.06342
2.22322
4.04303
0.566049
4.33261
8.71982
3.93954
4.57412
0.0586178
4.10687
5.66539
4.52775
8.94213
2.65629
0.355369
4.36824
5.63291
5.8019
8.70029
8.97001
6.20315
8.34145
4.54174
8.80497
5.75084
6.15552
8.29732
8.33069
0.307523
8.37642
8.9818
4.53371
2.56213
9.19111
3.0658
2.32209
3.21275
5.44408
8.98369
5.20204
4.58568
4.34897
5.98135
8.99289
5.50811
4.44047
4.98361
8.93323
2.61276
4.41124
8.70496
2.29235
8.91271
8.60287
5.50576
4.36672
9.04528
5.54494
5.46022
5.53041
5.42471
3.75928
5.32772
5.29126
3.95501
4.53648
9.26642
2.08517
0.741248
1.58447
0.225029
5.403
0.703118
2.25794
9.05448
8.78958
3.48478
5.40616
4.49832
2.12709
4.50412
2.41068
0.243738
8.98999
0.0173821
5.33318
0.603354
4.50375
1.41963
9.05214
5.1998
3.95751