/*--------------------------------*- C++ -*----------------------------------*\
  =========                 |
  \\      /  F ield         | OpenFOAM: The Open Source CFD Toolbox
   \\    /   O peration     | Website:  https://openfoam.org
    \\  /    A nd           | Version:  10
     \\/     M anipulation  |
\*---------------------------------------------------------------------------*/
FoamFile
{
    format      ascii;
    class       volScalarField;
    location    "3";
    object      SgRate;
}
// * * * * * * * * * * * * * * * * * * * * * * * * * * * * * * * * * * * * * //

dimensions      [1 -1 -3 -1 0 0 0];

internalField   nonuniform List<scalar> 
111485
(
4.00838e-08
5.80167e-08
1.49462e-07
1.40689e-07
2.16766e-07
2.9372e-08
7.70393e-08
3.42607e-08
8.91736e-08
1.39414e-07
1.58061e-07
8.62902e-08
1.35291e-07
0.0889795
1.60543e-08
2.66973e-07
0.0643266
0.000374104
2.50674e-08
1.63882e-07
0.0118147
3.06597e-08
4.01846e-08
1.09063e-07
8.16957e-07
0.00536637
1.04792e-07
2.3161e-07
7.55534e-08
0.0153353
1.05727e-06
1.28984e-07
7.18038e-08
2.86018e-07
0.000216986
2.66326e-05
0.0427864
0.063675
0.000751812
8.80046e-08
0.0123951
3.93637e-07
3.77169e-08
6.91285e-06
9.04555e-06
7.66653e-07
6.23159e-07
1.44479e-07
5.52534e-07
0.000819317
0.00117329
4.46853e-06
0.000737285
1.79393e-06
0.000423327
1.08618e-07
1.22718e-07
2.1368e-07
6.45387e-07
1.83717e-08
3.60283e-08
1.49331e-07
6.82229e-07
9.59876e-07
2.62007e-06
2.21292e-08
0.000130671
2.20379e-08
2.98274e-07
6.29057e-08
1.03736e-05
8.30652e-08
4.13128e-06
2.56699e-06
2.18356e-07
9.10779e-08
5.60232e-08
7.02185e-08
6.68916e-08
6.87816e-06
0.0834888
0.155544
9.18348e-08
4.15461e-08
1.97964e-07
1.86707e-07
0.0426029
7.4924e-07
6.57416e-05
7.47123e-08
5.33449e-07
4.99706e-08
7.08061e-08
1.19596e-06
5.69831e-08
6.6683e-08
0.00854919
2.34525e-06
0.000502524
4.10859e-05
4.06786e-08
2.73338e-07
6.0314e-07
2.56185e-08
2.05055e-07
5.77463e-06
5.89631e-08
6.49789e-08
3.65356e-07
0.000139865
9.35017e-08
3.46627e-07
3.34289e-08
2.74252e-07
0.0060395
1.00398e-07
0.0189025
2.07843e-06
1.00034e-07
1.7539e-06
0.00295948
6.07779e-05
0.0214707
4.94857e-07
1.07109e-06
0.00997504
3.3225e-05
1.5317e-08
1.0257e-07
7.21623e-05
2.73855e-05
2.75044e-06
0.0149046
5.49764e-05
2.64236e-05
7.14237e-08
3.52734e-08
1.20822e-07
1.46367e-07
1.18176e-06
1.9705e-06
2.0614e-07
0.0542864
4.1613e-08
1.04446e-06
2.13104e-07
7.63681e-07
1.13052e-07
1.04268e-07
4.55419e-08
1.34941e-07
0.00903871
0.0461267
9.14088e-07
2.05876e-05
1.61835e-08
7.89272e-08
2.06352e-07
0.000222467
1.83474e-06
4.04117e-08
4.93399e-08
1.85056e-07
2.4045e-05
2.69756e-05
5.79596e-07
1.58219e-07
0.00772414
0.000411849
4.72922e-05
6.45607e-08
7.27283e-08
0.0832041
8.85905e-08
3.31054e-08
2.20799e-08
3.95805e-07
3.69552e-06
0.00934488
1.86896e-06
3.26364e-06
4.05878e-08
4.91447e-08
5.76171e-08
9.96462e-08
6.27861e-06
1.35364e-07
4.67013e-08
4.45095e-05
4.62515e-08
5.36968e-07
1.39841e-06
2.85468e-06
8.0926e-08
1.66435e-07
2.82324e-06
1.26738e-07
3.0142e-07
4.75985e-07
5.52118e-08
8.08021e-08
0.000502853
3.17247e-06
1.57021e-08
4.91212e-07
5.76739e-08
5.7278e-08
3.37807e-06
1.58207e-06
7.41581e-07
8.03974e-08
4.18017e-07
2.81104e-06
1.3096e-07
7.43395e-08
9.22232e-05
7.69749e-08
1.48185e-07
8.89575e-08
8.50473e-08
4.76572e-08
1.69312e-07
7.31795e-08
4.82601e-06
8.70635e-05
1.19714e-07
4.95045e-08
1.03554e-05
0.0011189
7.85322e-06
3.00114e-05
7.78595e-08
3.37167e-08
0.0418592
1.08134e-05
6.56863e-06
0.0516468
7.73629e-08
7.45075e-08
4.79792e-08
1.25e-07
2.00584e-08
8.18624e-08
1.82765e-06
0.000239992
3.8518e-08
2.14893e-06
1.23687e-06
7.64252e-07
0.0393075
4.30819e-06
6.98962e-08
5.25396e-08
1.70503e-08
6.20483e-05
1.25207e-07
0.00195067
2.44518e-05
0.0328
0.01642
4.88068e-08
1.83056e-07
3.58549e-07
7.0393e-08
4.37516e-07
4.00668e-08
2.06301e-08
1.97863e-07
0.0638446
2.49378e-07
8.37981e-08
1.20234e-07
0.0498553
3.39182e-08
5.92005e-08
4.05963e-05
6.15828e-08
5.46062e-08
1.56372e-07
7.50946e-08
0.0445477
6.61682e-08
1.2904e-05
5.76743e-08
8.27706e-08
0.0651549
0.0782248
2.02662e-08
4.10393e-07
5.65598e-06
8.79969e-09
5.81301e-08
1.12604e-06
4.44251e-07
1.46993e-07
1.29706e-07
0.000111018
9.69042e-05
4.21558e-06
1.41507e-07
0.100358
0.0538823
0.0245233
1.10127e-08
1.59651e-07
1.18521e-05
1.11192e-07
0.00952011
4.4107e-08
1.89643e-07
4.58046e-08
1.46369e-07
4.4206e-08
9.49724e-06
1.41092e-08
1.43228e-08
1.86941e-07
0.00141964
0.0790655
6.21833e-07
9.58582e-05
1.47557e-07
3.99931e-08
2.51735e-07
2.69043e-05
3.8521e-07
7.67539e-08
5.98473e-07
7.40942e-08
2.59259e-05
0.0227538
9.82206e-07
7.21998e-08
6.81203e-08
1.6559e-07
0.0138101
1.40134e-05
4.65337e-07
1.88889e-07
1.75913e-07
4.7097e-07
1.04127e-07
0.0448218
5.66924e-05
1.41572e-07
2.75399e-07
8.83645e-05
4.80718e-08
0.0111896
6.04118e-08
5.08991e-09
1.94168e-06
1.5293e-07
1.52046e-07
3.82285e-06
4.14787e-08
5.04606e-07
3.3094e-07
1.41803e-07
0.105984
2.03313e-07
8.27191e-08
0.0151276
1.11526e-07
2.23066e-07
2.17058e-07
7.39905e-08
0.0162192
0.000157697
0.0145457
0.0141839
9.82439e-08
8.19034e-08
1.06731e-07
1.19404e-07
1.17025e-07
9.27112e-08
6.05981e-08
4.66037e-06
1.35133e-07
2.6391e-08
6.00742e-08
0.000154542
1.60489e-07
1.24051e-07
1.24067e-05
5.28096e-07
7.78836e-05
4.78018e-07
1.71224e-07
4.7179e-07
0.0087094
5.79716e-08
5.88225e-08
0.0463856
1.52086e-06
0.0886876
6.45185e-08
1.14849e-06
1.32543e-07
4.85353e-08
4.86541e-07
6.18156e-08
1.13971e-07
0.0101521
4.30637e-07
6.0913e-08
2.50077e-07
0.027684
0.000246756
6.11777e-08
1.00431e-07
4.45608e-07
8.00412e-08
2.42522e-07
1.11036e-05
0.0709849
3.52232e-07
3.84772e-08
2.66815e-05
1.69029e-05
2.98052e-05
2.49604e-06
5.21029e-05
1.64288e-07
0.000350235
1.50451e-05
0.0600818
5.94602e-05
8.98304e-08
7.30706e-07
5.07192e-08
1.15837e-07
0.000421344
2.16729e-06
2.56786e-05
1.80013e-08
3.89184e-08
3.1225e-06
7.80866e-08
0.10342
8.49204e-08
9.7246e-06
0.00120547
2.7238e-05
0.000370357
1.06531e-07
0.0765076
0.0971718
7.59651e-08
7.42186e-08
4.20175e-06
3.02357e-05
5.85319e-08
8.14034e-06
2.48021e-06
0.0879334
2.02868e-05
2.13776e-08
1.44755e-07
9.62605e-06
1.21494e-07
2.16652e-08
3.18256e-07
3.35359e-08
2.72151e-07
2.62755e-07
0.0166096
1.91056e-07
2.67747e-08
1.90991e-08
0.000108632
5.52043e-08
4.58003e-07
2.99688e-07
7.49478e-08
1.83651e-05
2.22124e-07
0.0235355
2.22102e-07
5.10607e-07
4.59453e-08
1.26267e-07
1.48834e-07
0.0740557
6.89487e-08
0.0702023
2.00773e-07
1.97248e-05
5.48448e-07
1.07939e-07
0.107941
0.0421191
2.49615e-08
9.30438e-07
1.04604e-05
2.56879e-08
3.25984e-07
1.43514e-07
1.26306e-05
0.0818219
1.21838e-07
2.97087e-07
3.01261e-05
6.2808e-07
0.0168309
1.20672e-07
3.70457e-05
5.42602e-07
1.155e-07
0.000197401
0.0232821
4.15109e-06
0.000664519
1.08545e-07
1.04887e-07
1.85084e-06
4.16382e-07
5.83892e-06
5.37568e-08
0.000516257
5.13503e-08
8.9312e-08
2.01512e-07
2.011e-07
5.2753e-08
2.74018e-07
1.04941e-07
2.55637e-07
2.64847e-08
0.0367099
0.0550529
9.54026e-08
7.39926e-08
0.0186412
0.0297282
2.20955e-08
1.95293e-07
2.12896e-07
3.06947e-07
8.77042e-07
5.17802e-06
2.8886e-08
0.0135343
7.92327e-08
0.00029023
1.35335e-05
1.23164e-05
2.23589e-07
3.90709e-07
4.95218e-08
5.21166e-07
6.49876e-08
6.64996e-07
2.74813e-06
3.26986e-07
5.95311e-08
0.0402752
9.47409e-06
8.60665e-07
3.37671e-07
0.000368826
1.33282e-07
1.19964e-05
0.000878041
0.000111574
1.67777e-07
2.23588e-07
4.10444e-07
1.41049e-07
0.0334389
5.61894e-05
2.19393e-05
0.00110044
0.0247236
7.39517e-08
5.67673e-07
1.29944e-06
1.19672e-05
1.51838e-07
0.000169165
0.000846105
0.000144764
5.43943e-05
8.51717e-07
1.22056e-07
3.04655e-07
6.11e-05
9.04791e-08
0.0482767
4.12249e-07
3.71063e-08
4.48823e-08
1.1378e-06
3.448e-07
0.0110423
4.74752e-08
1.89135e-08
0.0330174
0.0958874
1.88945e-05
6.59714e-08
0.0128464
8.13316e-08
2.21936e-07
1.70393e-07
9.15917e-08
1.27972e-05
3.51731e-06
0.0357911
1.50392e-07
5.55779e-08
0.0231081
6.69367e-06
0.0434469
1.35702e-07
6.3277e-06
1.39113e-05
0.0742698
0.0118671
7.20751e-08
9.14845e-08
1.68468e-06
1.39547e-07
1.09849e-06
2.77879e-07
7.07787e-06
5.22724e-08
1.43885e-07
1.78636e-07
4.7507e-08
7.05692e-05
1.02217e-05
8.82197e-08
7.25189e-07
0.000202054
4.66155e-08
5.92407e-08
1.36292e-06
2.09951e-07
7.26483e-08
8.48661e-08
1.11864e-06
1.50126e-07
6.88252e-07
5.44005e-05
4.79734e-08
1.0312e-07
4.90344e-08
2.4293e-07
5.47602e-06
1.74381e-06
7.44381e-08
0.0222203
1.03543e-07
0.0547091
1.68629e-05
0.0036974
1.77353e-07
0.00839405
7.38152e-08
1.42397e-07
0.00152138
3.7425e-07
1.78133e-07
7.19894e-08
0.00100072
0.080958
1.73355e-06
9.58255e-06
0.0130806
7.89844e-08
2.50567e-08
1.39541e-06
5.31486e-08
2.75342e-05
5.39186e-08
3.30009e-05
8.56942e-08
2.70412e-08
8.62108e-06
0.0489706
1.89103e-07
9.73196e-08
2.1577e-07
1.12556e-07
3.88675e-05
7.81688e-08
0.0180218
1.45069e-07
4.45794e-08
0.0594022
0.0129925
5.16186e-08
7.70232e-08
7.75907e-08
0.00157262
0.000287848
0.0535707
1.37365e-07
6.17897e-08
6.76615e-07
7.14147e-06
1.40991e-05
0.000176159
0.000110868
3.86004e-06
1.88585e-07
0.0182345
3.54043e-08
1.61365e-07
4.60874e-08
0.000185396
1.03699e-07
8.34796e-08
5.71187e-08
2.99113e-07
3.85803e-08
7.86497e-08
8.96744e-08
2.53779e-07
2.62252e-08
2.16898e-08
0.000726127
0.000127416
8.41843e-08
1.43348e-08
1.72958e-07
0.0228342
1.79418e-07
4.04049e-08
6.91102e-08
6.30145e-08
1.35067e-07
2.14904e-08
0.00212235
2.52355e-08
1.75879e-07
5.06865e-08
2.48843e-08
1.2397e-07
1.0699e-07
3.51039e-06
3.11803e-08
6.49199e-08
4.15071e-06
5.79637e-07
2.87922e-08
0.000180626
9.79188e-08
0.0714607
1.57041e-06
6.47223e-07
0.0647049
2.59602e-05
3.20119e-08
6.42541e-07
9.56143e-08
4.49246e-06
0.029493
0.000218734
4.49817e-08
1.47329e-07
3.59848e-06
7.06558e-06
1.17933e-05
2.40019e-05
7.78466e-08
7.47875e-08
6.15084e-08
1.14884e-05
1.02448e-06
1.01267e-06
1.49614e-07
1.13778e-07
3.87058e-08
4.15128e-07
6.35989e-08
0.00958413
4.68839e-06
3.14302e-08
3.84054e-08
1.96517e-05
3.44327e-05
5.2185e-07
2.93235e-07
0.012936
1.50932e-07
8.86806e-08
0.0183706
4.94223e-08
0.0220644
1.42294e-05
0.0106159
0.000192287
5.16065e-08
5.77287e-06
1.62244e-07
0.0145292
5.86643e-08
0.000414417
0.0483964
3.30536e-05
6.48177e-08
1.61513e-07
5.40139e-07
0.145526
0.0480361
8.76205e-08
0.0718077
9.40698e-08
5.04881e-05
2.86733e-07
3.74793e-06
0.000203663
7.35653e-08
1.69839e-07
8.69896e-07
3.38005e-07
1.59341e-07
0.013035
1.00683e-07
3.77453e-07
1.51403e-07
1.4717e-07
6.5194e-08
0.0611267
4.72757e-07
2.57916e-07
9.79555e-05
1.70574e-08
4.49547e-07
0.0629338
9.12102e-08
0.0578755
0.101855
0.000214687
3.1849e-06
5.81625e-07
2.12777e-07
9.47507e-06
8.74161e-05
0.00027582
2.48789e-05
1.31655e-06
0.0130713
8.34162e-06
2.3874e-08
5.00669e-08
3.13439e-05
0.000177405
0.000149948
0.00027198
5.57568e-05
4.10083e-08
2.11411e-05
4.63433e-07
1.19258e-07
0.000539785
0.101138
1.45181e-07
3.87179e-08
0.0010352
0.000972445
4.82159e-08
0.000157044
1.39978e-07
1.20914e-08
1.48683e-07
1.39903e-07
7.47477e-05
1.6967e-07
7.8901e-06
0.014869
1.01938e-07
5.46396e-07
0.00146659
0.0345865
8.5187e-08
2.38853e-07
0.00930022
1.05612e-07
2.50657e-05
1.34933e-08
9.80864e-08
0.000187977
0.03801
1.1717e-07
4.1701e-08
2.94713e-07
0.010232
3.33479e-08
0.0066217
1.55287e-07
2.92648e-05
2.41846e-08
0.000527606
1.23402e-07
7.00497e-08
3.7383e-07
0.000120416
0.000386692
0.000247202
4.16351e-08
7.53623e-07
0.00128124
0.0154928
1.94075e-05
0.000111705
0.000273612
2.63543e-07
0.000417699
2.0812e-06
1.14253e-07
9.77957e-07
5.29112e-05
5.07432e-07
0.0368
2.32649e-06
4.96374e-05
8.97907e-08
2.79357e-07
2.30541e-07
2.28903e-06
0.0241309
2.49697e-08
1.9178e-07
0.0175611
3.89859e-05
2.35839e-05
1.00324e-07
4.204e-08
1.91374e-07
8.29942e-05
4.61308e-06
3.05363e-08
0.000144585
5.40906e-07
7.47251e-06
1.61316e-05
5.78097e-06
2.13433e-07
1.65623e-06
8.0547e-08
1.4527e-07
2.19659e-07
5.49893e-05
5.82256e-08
2.35586e-07
8.82136e-08
1.26587e-07
1.59778e-05
2.06198e-07
5.21234e-08
0.000253065
1.5848e-07
0.0385567
0.000242721
3.35793e-05
1.9808e-05
4.17688e-05
1.09735e-07
8.35102e-06
2.11174e-07
0.0360703
9.74766e-06
2.69282e-05
1.5113e-07
1.7211e-08
6.17811e-08
0.0626508
0.0213594
1.26603e-05
7.22927e-08
4.82805e-05
0.0212519
0.0487267
2.63685e-07
0.000139471
7.91653e-08
1.49413e-05
5.30464e-07
1.79597e-05
2.62847e-05
3.4602e-05
0.0941864
9.66035e-07
2.40706e-05
1.3266e-05
2.48685e-05
2.11025e-05
5.61178e-08
2.41629e-07
3.71874e-07
1.02238e-06
7.63189e-08
0.0018063
0.000183931
1.72187e-07
2.49905e-07
0.145876
6.35949e-07
1.00015e-05
6.20178e-08
1.29376e-07
2.08736e-07
0.115957
4.42208e-08
0.0368619
0.00155635
1.51565e-05
3.88098e-06
2.89185e-06
0.000289272
8.50903e-07
8.65088e-07
0.00158533
7.60809e-08
0.0184758
1.04419e-06
2.67485e-05
6.28756e-07
0.0201917
1.07728e-07
1.11028e-06
3.53701e-05
8.86336e-08
0.000129766
0.0485017
7.38453e-06
0.000192491
1.21776e-07
3.21446e-08
1.49643e-05
0.000283085
1.67088e-08
0.0554815
8.34417e-08
3.38077e-06
3.96546e-07
0.0133867
2.82368e-06
4.30962e-07
5.70381e-08
1.97824e-06
1.49598e-06
4.44711e-08
0.048659
1.86807e-07
2.20372e-08
2.83835e-05
4.76311e-07
8.17397e-08
5.2139e-06
5.17305e-05
0.000263106
1.40681e-07
1.84009e-05
1.0701e-07
2.1915e-07
1.64324e-05
0.0109133
3.79939e-06
0.000249958
2.04114e-05
0.000318964
1.32485e-05
8.03683e-07
7.92893e-07
2.49737e-07
4.46676e-08
3.10493e-08
3.04926e-08
0.0139827
4.25229e-05
0.0137616
7.42946e-08
6.24704e-08
1.62659e-07
2.46849e-05
2.29089e-05
1.16131e-08
1.61623e-05
0.000165233
2.68589e-08
3.86734e-08
0.00228474
0.00232881
5.5693e-06
5.31072e-06
3.74294e-07
0.000277876
8.02579e-07
3.2915e-08
0.0266568
4.45539e-08
7.11714e-05
9.89374e-08
0.000292827
2.35948e-07
0.0135853
9.40039e-05
7.19318e-05
4.25583e-08
7.48168e-05
3.2135e-05
0.0190511
0.0807358
2.70873e-05
4.3809e-05
2.92572e-06
9.52005e-08
1.32407e-07
5.17644e-07
2.35932e-05
7.62204e-07
0.0100688
0.018888
4.56764e-08
4.51443e-07
0.000103619
0.0121207
9.45246e-06
0.000366395
0.000791115
0.0125905
0.0493577
0.0147203
1.45099e-05
8.02982e-08
0.000628694
2.5864e-07
2.40953e-08
1.80769e-07
2.34685e-07
4.37381e-08
1.75882e-07
6.18518e-08
2.59992e-05
2.08828e-07
4.4053e-08
5.24191e-07
6.81024e-08
0.0171505
2.0078e-06
5.64319e-06
0.0221484
0.083993
2.84851e-07
0.0589434
4.34157e-05
0.113111
8.78664e-08
0.00518122
8.49114e-08
7.06999e-08
0.084844
1.72442e-07
0.000258248
1.08825e-07
1.30326e-07
5.31058e-06
1.10303e-07
3.42026e-07
1.13473e-07
0.0226379
4.10769e-08
1.8943e-07
4.81046e-08
3.84878e-07
3.53723e-09
7.92113e-05
7.81074e-06
3.49797e-07
0.000127424
1.08413e-06
1.68471e-07
3.82809e-05
0.000182083
8.13225e-08
9.66416e-08
1.64309e-07
0.0879895
0.0128248
6.43873e-05
1.11923e-07
2.49183e-07
4.80969e-08
0.0585705
1.70172e-07
3.1957e-08
4.90159e-07
4.16517e-08
1.94687e-08
0.0103416
8.27301e-08
5.00073e-08
3.21465e-07
2.26102e-06
1.27787e-07
0.0521101
6.57758e-08
0.055772
2.0853e-08
1.75141e-06
3.11403e-08
3.75996e-08
3.51477e-07
8.05057e-08
4.77289e-07
1.52621e-06
2.29784e-08
2.40803e-08
6.73596e-08
0.0235222
6.45116e-08
2.29181e-08
6.43831e-08
7.39412e-06
1.40846e-07
0.0140332
8.94309e-07
9.28369e-08
1.41849e-07
2.29854e-07
1.04367e-07
4.51997e-07
1.05163e-07
8.02503e-08
1.39918e-07
1.47086e-07
1.70876e-07
1.69898e-06
2.69452e-07
4.47995e-08
5.97544e-08
2.38585e-08
0.000168635
0.0862021
4.70141e-08
1.3894e-06
6.81336e-07
0.000122258
4.58786e-05
1.05692e-07
2.89718e-05
0.0233615
4.87888e-08
1.61867e-05
0.000267602
0.0197517
3.82557e-07
0.0371075
7.18249e-05
2.39996e-07
0.0121673
2.20388e-07
1.5952e-07
2.03415e-07
1.58174e-07
0.0740236
2.25955e-08
0.0392663
1.38333e-07
7.81273e-08
0.114256
0.0167538
5.0155e-07
6.35133e-08
4.23156e-08
4.33092e-08
1.11895e-07
2.15108e-07
5.06621e-08
5.43697e-08
4.15623e-08
2.41624e-08
0.057415
0.0182246
0.01091
9.92032e-08
4.36681e-06
5.52592e-08
2.79042e-08
2.23441e-07
0.0106601
0.0262137
4.21896e-07
7.577e-08
2.07398e-08
2.35758e-07
2.91513e-07
1.59201e-06
0.046003
9.66087e-05
2.68724e-07
1.29444e-06
5.93824e-07
6.7974e-05
1.27666e-06
0.000254878
3.68732e-07
1.79874e-08
0.000154937
0.000148629
4.9665e-08
8.31257e-07
1.29686e-07
6.36598e-08
8.32966e-08
2.04229e-07
0.0273744
2.39014e-07
0.096732
3.97739e-07
5.04983e-07
0.0183418
1.19444e-07
1.41888e-06
1.86661e-07
9.31897e-08
2.86676e-07
1.83542e-07
3.35585e-07
2.85278e-07
1.73925e-06
8.44665e-08
7.83569e-08
1.72806e-07
1.80179e-07
2.55365e-08
8.06469e-08
3.42995e-08
2.01663e-08
1.82842e-07
2.88487e-07
7.568e-08
5.82499e-08
3.33625e-08
3.74521e-07
4.62367e-06
1.31851e-07
0.00704311
1.66392e-07
0.0608768
9.8279e-08
1.78022e-05
2.00639e-07
0.0882729
1.70202e-07
3.51991e-06
2.40304e-06
1.29494e-06
4.83609e-08
1.59845e-07
0.0686862
1.93048e-07
7.84885e-08
8.93661e-07
0.0696128
2.44075e-07
1.37929e-07
6.55606e-06
0.022608
1.6023e-06
3.40047e-08
0.000121039
0.0189657
1.55181e-08
0.0432187
5.29168e-08
0.000116262
9.9726e-05
0.0801111
2.68901e-06
6.03865e-07
1.3527e-06
6.87168e-08
3.24197e-06
1.71513e-07
0.000853262
5.61371e-08
6.12101e-05
0.000121654
0.0193738
2.62902e-06
0.0761831
4.21817e-08
4.17008e-07
3.93588e-07
5.82773e-08
2.35198e-07
1.12956e-06
5.68213e-08
1.29901e-07
2.42168e-06
1.23957e-07
0.0145646
2.21853e-08
0.000131957
6.31716e-09
4.37131e-08
0.000112524
7.57311e-07
0.00016353
5.91064e-08
1.04144e-07
2.34895e-08
2.99409e-07
7.3967e-06
1.94717e-06
7.11466e-05
3.93528e-08
9.42508e-08
0.00105817
0.000319465
3.75949e-08
5.02952e-05
5.13237e-07
2.20505e-07
5.42643e-08
0.0450556
3.71267e-05
8.75505e-08
3.0582e-07
1.0569e-07
6.37296e-05
6.94792e-08
7.11174e-08
5.7129e-08
9.89395e-07
9.08126e-08
5.00306e-07
0.0566933
3.21282e-07
3.02607e-08
8.05104e-05
3.36682e-08
3.25497e-08
5.53125e-08
2.29278e-05
8.62928e-08
3.53263e-05
0.0517793
3.34212e-08
6.3086e-08
4.77032e-08
1.23174e-07
9.8243e-08
2.75219e-07
0.00014272
0.000248304
6.86104e-05
0.000290493
1.55285e-07
1.79636e-05
2.62182e-07
1.37111e-08
0.00512879
1.82644e-07
0.0331473
9.4064e-05
3.86465e-08
0.000509866
3.24263e-08
7.06269e-06
0.000122593
5.61934e-07
0.000154675
6.95676e-07
7.57314e-08
1.30919e-05
1.0145e-07
3.58414e-05
8.6453e-08
3.16111e-07
1.16146e-06
4.9926e-07
3.64526e-08
0.0415655
9.35936e-05
4.15832e-08
3.3584e-06
3.90326e-07
5.09993e-08
5.84929e-08
0.00020118
0.0468578
0.00304163
6.69759e-08
5.06586e-08
0.0454068
0.0781274
8.42598e-08
0.0169495
1.37471e-07
4.21356e-08
2.13322e-06
5.99879e-08
8.23254e-08
7.73009e-08
7.20813e-06
0.0337854
0.11131
0.122724
3.20691e-07
1.91445e-07
1.42347e-07
2.90106e-06
0.117593
3.9406e-08
0.0642928
3.00073e-07
1.16989e-07
2.87295e-07
1.88074e-07
4.01082e-07
7.11511e-08
1.31669e-07
1.42809e-07
0.0413445
1.87332e-07
1.15759e-07
1.51041e-07
1.68079e-07
9.7689e-08
2.52582e-06
5.95782e-08
0.0307105
0.000139537
2.126e-06
3.89369e-08
7.91494e-06
2.38752e-06
1.2219e-07
9.17552e-08
1.69916e-07
2.20627e-08
4.41534e-08
0.00108759
2.21177e-07
3.85159e-07
4.15519e-08
2.76992e-07
4.59714e-08
2.49775e-05
2.47909e-08
3.70694e-08
1.42831e-06
1.22136e-06
1.78754e-05
0.00885868
5.32747e-08
0.0130876
0.00012856
0.11132
0.000250522
6.41271e-07
0.0761256
0.0194668
6.77594e-08
4.72669e-09
1.17869e-07
6.92734e-08
1.22595e-05
2.39925e-07
5.34872e-08
1.15751e-07
2.85339e-07
1.01295e-07
1.08959e-07
1.04037e-07
6.65004e-06
0.0225012
1.37268e-07
6.19671e-08
4.19567e-08
4.11674e-07
5.92406e-07
8.2115e-05
7.2363e-08
2.861e-08
3.88056e-06
1.52163e-07
0.0141549
6.03672e-05
2.57169e-08
2.36863e-06
6.15586e-08
7.71911e-08
3.13714e-07
7.14692e-08
1.66887e-06
1.75665e-07
6.6039e-06
8.88466e-08
3.51108e-07
4.51428e-07
0.0122425
1.55891e-05
2.85219e-05
4.61435e-07
8.96371e-08
1.13558e-07
5.13335e-07
5.43323e-08
0.000170225
2.52677e-07
0.0612977
3.87684e-06
6.23572e-08
0.011216
6.45909e-05
1.29119e-07
0.000341067
9.18109e-08
6.07923e-06
0.0685401
4.15847e-08
0.000100128
1.17374e-06
0.0135147
4.85953e-07
0.0150389
0.0264105
4.04464e-05
2.92479e-06
9.56685e-06
0.0348963
5.19852e-06
8.63438e-06
0.000108359
5.095e-06
3.64848e-07
6.43519e-06
0.000137838
0.000109834
0.000158345
4.14406e-05
2.38263e-07
6.42164e-06
0.000272891
3.61455e-06
6.62343e-07
8.05044e-05
6.69162e-05
4.02536e-06
4.30235e-06
8.12304e-05
2.86728e-06
4.76073e-05
1.06371e-06
6.48255e-06
0.000124882
9.42619e-06
0.000116642
0.0228084
4.48138e-07
2.23578e-07
1.73164e-05
1.5161e-07
2.65106e-05
2.64098e-07
0.00010664
2.82629e-08
2.72035e-08
8.09372e-08
4.65923e-08
4.83808e-06
0.000326278
0.000285941
0.114519
1.21172e-05
6.85299e-07
3.65772e-07
0.000117826
1.47128e-07
0.00957302
0.0413511
2.68093e-07
0.000244811
5.49467e-07
1.56052e-07
1.57805e-07
0.000371969
0.0224639
0.0430817
0.0255629
5.03904e-06
6.61051e-06
2.16921e-07
8.89597e-08
9.79633e-06
0.0125486
2.48766e-07
4.26839e-08
3.02068e-07
0.0696342
0.0123149
3.64322e-08
2.13251e-05
4.97466e-08
0.000145947
3.95597e-08
0.013346
3.63335e-07
1.65809e-05
1.68978e-07
3.71698e-07
5.92895e-07
0.0028897
4.63078e-06
5.80379e-06
4.99483e-07
3.97717e-07
1.39839e-06
2.73277e-07
4.19143e-08
0.000171142
0.0230916
0.0142072
3.22831e-07
5.4653e-06
0.00339987
1.16564e-07
1.1585e-05
0.0189038
9.48322e-08
0.0754657
2.67462e-07
4.02698e-08
0.0126725
4.05283e-05
2.13679e-08
9.89087e-08
0.00959131
8.42983e-08
4.05356e-06
4.49477e-07
8.69877e-08
2.84246e-05
1.03498e-05
1.66979e-05
0.0366169
2.11975e-07
0.083898
2.49638e-07
2.86151e-07
1.80628e-07
3.15079e-06
1.53743e-05
0.0800417
1.9972e-05
1.12713e-05
1.58681e-05
1.90535e-05
8.3446e-08
2.27646e-08
1.96879e-07
2.15851e-07
7.57661e-08
6.41894e-06
1.27052e-06
9.4656e-08
5.72874e-07
9.36931e-08
1.26618e-07
1.82292e-05
1.4662e-07
9.49439e-08
6.26755e-06
3.24875e-07
5.31939e-08
1.53606e-07
3.28187e-08
0.000435125
0.0265374
7.35563e-08
1.50657e-08
5.41558e-08
0.0929888
6.17334e-08
1.86127e-07
2.11808e-05
7.10543e-08
3.88987e-07
3.46863e-08
5.10395e-07
2.70701e-08
2.74811e-07
1.51862e-07
7.19752e-08
3.43354e-08
5.89545e-09
1.37639e-07
1.29946e-07
0.0933374
0.000162533
1.89196e-07
0.000586804
4.18877e-08
2.36304e-08
1.30669e-07
0.018668
2.80666e-08
2.25691e-08
6.62703e-07
4.88643e-08
4.33825e-08
0.141268
7.0017e-08
2.32609e-07
2.06391e-07
4.24263e-08
0.0345714
0.0486047
6.98941e-08
7.73294e-07
3.97754e-07
8.23828e-08
2.78183e-07
1.19325e-08
4.17302e-08
3.17198e-07
7.41496e-07
2.31155e-08
6.02387e-05
2.42425e-07
0.0492835
4.73607e-07
3.77871e-08
0.00234202
5.74111e-06
0.0191861
0.00941707
5.54596e-06
2.00712e-07
0.0290853
2.49154e-07
9.68266e-06
0.0135235
3.6765e-07
7.54037e-08
0.0522744
0.00590466
6.03045e-06
5.06148e-07
7.57054e-08
2.1851e-07
0.000478841
8.78234e-08
3.19316e-06
0.000113726
2.68802e-08
0.007386
0.0157235
1.25211e-05
0.0630872
0.00805251
9.58969e-08
6.27496e-08
4.6012e-07
2.51769e-07
2.10422e-07
0.0403468
8.50295e-08
5.96694e-08
3.74648e-06
0.0275187
0.0384585
0.0149289
8.32159e-08
9.80903e-08
3.16044e-08
4.8435e-05
8.02794e-07
5.41331e-07
8.01027e-06
2.86397e-07
4.96004e-05
1.52084e-06
1.40178e-06
8.12662e-07
0.126127
7.61039e-08
0.0469917
1.34844e-07
4.06478e-08
0.0160083
2.00571e-07
3.58061e-08
0.00724508
4.97725e-08
6.642e-08
2.73091e-08
2.11848e-07
3.66409e-07
6.60236e-08
8.33767e-08
4.76307e-08
6.93543e-06
0.0570375
0.0685501
4.31697e-06
7.98719e-07
6.05905e-08
0.0176016
0.0675892
1.17434e-05
1.98023e-07
1.46752e-07
0.00032152
7.21115e-05
0.00357647
3.24556e-08
1.66234e-07
1.52199e-07
0.0483711
2.57175e-05
3.82658e-07
0.0190354
0.0661317
1.09943e-07
0.00025857
0.067979
5.34536e-08
4.4338e-07
3.33352e-05
1.13391e-05
0.000148735
6.97738e-06
3.02682e-07
5.03962e-05
0.0301491
5.1981e-06
0.0184273
5.57454e-08
0.0591073
0.0385829
2.44664e-06
2.03519e-07
4.55894e-06
7.26885e-07
0.0104838
0.0245403
0.0261328
6.78005e-08
0.000109452
1.61098e-07
0.012614
7.15337e-08
0.050387
4.60949e-08
2.99318e-06
6.27894e-07
6.96827e-08
5.07158e-06
1.59433e-07
0.0251477
0.000250497
1.28259e-07
2.42486e-06
0.0165883
0.0160676
3.69033e-07
1.82916e-07
0.0269481
8.38241e-08
0.013185
1.54292e-07
6.99731e-05
0.000678183
0.0131504
3.91115e-08
0.0069654
1.10003e-05
1.41527e-07
0.0128009
1.39622e-08
0.10995
2.39641e-07
9.69213e-08
5.86525e-08
7.11555e-08
0.0169571
3.88934e-08
1.00973e-07
2.41503e-07
0.000237488
1.12064e-05
1.34105e-06
4.60638e-05
1.00171e-05
1.39223e-07
1.80107e-07
0.111543
9.92317e-06
9.92286e-06
1.42891e-05
6.19751e-07
1.99441e-06
3.09131e-05
0.00999013
0.027895
0.000117292
0.0424584
3.9521e-05
0.0542443
3.43292e-08
1.5962e-07
2.64802e-05
3.64173e-07
0.0247088
0.0562201
1.51388e-07
5.78452e-08
0.00131346
2.78312e-07
5.68162e-07
2.06963e-07
8.07702e-07
6.64747e-08
0.000262486
4.66109e-07
4.95301e-06
2.63321e-08
3.5317e-05
1.20968e-06
1.77133e-06
4.65955e-08
5.85812e-05
1.1146e-07
4.17648e-07
0.000542929
2.62639e-06
3.80595e-05
0.000130207
8.01859e-08
1.30614e-07
2.14303e-07
7.89822e-08
1.45137e-07
0.00723812
1.1476e-07
3.34298e-05
1.7053e-07
6.46944e-05
2.45301e-05
8.16945e-08
1.61387e-07
1.35295e-07
1.13927e-07
1.1481e-07
3.49758e-06
0.00031394
9.75853e-06
1.77225e-07
9.84196e-07
5.07557e-08
2.84525e-07
5.89528e-08
0.04572
3.13738e-06
0.000225688
0.000310095
0.000226949
3.70484e-08
0.000191996
0.000221982
0.00041819
0.000226204
4.68193e-08
1.45237e-07
2.33158e-07
1.8299e-07
2.16219e-05
0.00011155
0.0121048
8.01188e-08
8.69434e-06
1.91369e-06
8.89498e-05
0.0105028
8.47481e-08
2.06165e-06
6.02747e-05
0.00828666
6.02871e-08
0.0393376
4.36441e-05
1.14254e-07
2.35604e-05
2.84349e-08
1.2867e-07
8.19738e-07
1.84042e-07
5.01613e-08
1.21963e-07
0.000649187
5.11875e-08
4.34208e-08
0.000541827
5.94626e-08
3.35687e-06
0.000991569
0.00996353
8.88568e-08
1.87236e-05
1.21302e-07
1.2717e-05
0.0738513
0.0111912
3.34601e-07
1.08766e-07
0.0384905
0.0387461
6.35095e-07
3.279e-08
1.22842e-05
0.0174333
1.15991e-07
3.39976e-08
7.55947e-08
4.10065e-06
4.44391e-07
0.0835477
1.41251e-07
2.43297e-06
0.00120687
9.28443e-08
1.80732e-06
4.63466e-07
7.05045e-07
1.5125e-07
0.000784637
0.00127818
0.00873013
1.22714e-07
2.76392e-07
1.50252e-05
1.64708e-07
0.0216554
0.0459687
3.55974e-06
0.0422424
2.75365e-07
2.24144e-07
6.45902e-08
1.4499e-07
0.049568
7.22811e-05
9.66716e-08
0.0281308
0.013667
0.000202006
1.55856e-06
0.0110336
9.46481e-07
2.69075e-07
1.36378e-07
1.60517e-07
5.00309e-07
0.021237
0.0192454
8.2423e-06
3.18888e-07
4.14881e-08
3.38519e-07
0.0358811
2.68763e-07
1.7223e-06
1.66082e-06
3.8854e-06
0.037118
2.68183e-07
5.91961e-06
1.06598e-08
1.60411e-06
0.000175107
2.51159e-07
4.0272e-08
6.8355e-08
8.69592e-07
0.00389347
4.54093e-08
0.0374994
7.73684e-07
4.47929e-06
0.049297
1.1336e-07
0.0581073
6.89533e-08
3.82632e-08
8.56933e-07
0.0660946
4.18944e-07
2.93858e-05
6.66574e-06
1.002e-07
1.80898e-06
3.14234e-07
2.08932e-06
2.94321e-08
1.10238e-07
1.28761e-07
7.69817e-07
1.36733e-07
8.38646e-08
1.85334e-07
1.52151e-07
3.74632e-06
3.69099e-05
6.59064e-08
3.56973e-06
2.12768e-07
0.0359943
6.54347e-08
2.07522e-07
3.02588e-05
0.0125935
8.58294e-08
2.06183e-07
5.60468e-06
2.7704e-08
7.20955e-06
2.08797e-08
8.01966e-07
0.000107815
4.84166e-08
9.59157e-08
0.0228816
0.00806928
0.0188047
0.000554723
0.024882
3.57542e-06
9.55307e-08
0.0133099
1.7563e-07
0.0170215
0.068296
2.01011e-05
5.13856e-08
0.0637533
3.80251e-06
0.0434299
1.74926e-07
0.0407282
0.0117724
0.014349
0.0746237
1.58675e-07
0.0261767
1.65613e-06
4.44741e-07
1.13409e-07
5.35282e-05
1.23642e-06
0.000158626
7.02384e-08
3.21912e-07
9.2515e-05
0.0246558
4.97319e-08
1.495e-07
6.90969e-07
4.42319e-08
7.32863e-07
4.98294e-06
5.34245e-08
1.49766e-07
9.19935e-08
1.65568e-07
1.66078e-07
2.51077e-05
9.10073e-06
2.14961e-06
3.35782e-05
0.000141732
9.0231e-06
8.08645e-06
4.63255e-08
3.70917e-08
3.35421e-08
1.1476e-06
2.85332e-08
7.77514e-05
0.121603
0.0258895
3.81963e-06
6.6065e-08
4.94088e-07
0.0158233
0.0380073
2.59734e-07
7.89868e-05
1.48114e-07
0.000312788
0.0028545
9.73046e-08
4.43495e-08
3.27777e-07
1.69594e-07
1.66737e-07
3.28354e-08
9.54742e-08
0.0551433
0.0172364
3.07562e-06
1.47709e-07
4.65163e-08
0.0132687
8.97285e-08
3.14678e-08
3.19869e-07
0.000178107
2.17759e-07
2.04166e-07
2.28325e-06
0.00449465
0.000325265
0.0458944
0.0582341
0.00459174
0.0218992
2.54206e-07
2.85148e-07
9.01525e-07
0.0346879
2.29515e-07
3.68672e-07
1.43665e-07
5.63173e-07
8.60256e-05
1.16978e-07
1.73228e-05
2.27587e-07
2.8935e-08
5.86809e-07
9.61445e-08
1.03941e-07
1.99775e-07
1.71007e-07
6.08927e-07
2.5794e-07
4.86013e-08
3.10992e-08
0.0214454
0.0131957
1.89064e-07
0.0240264
5.15701e-08
8.47028e-08
7.94409e-06
4.23799e-08
0.0510324
0.0111167
6.46794e-08
1.19728e-05
0.000190159
1.65809e-08
0.000949224
7.24281e-08
0.0349484
0.00247236
0.0117265
1.38589e-07
4.51179e-08
0.0143184
1.10304e-06
0.000231314
2.99656e-08
0.0487656
2.63994e-07
1.53218e-07
0.0638512
0.0129914
3.25497e-05
2.0132e-07
0.0146929
0.0013932
8.68268e-07
0.00888413
0.0387178
0.000466117
7.14529e-08
3.11531e-08
2.38041e-07
0.0152738
0.000281894
0.0287169
6.55584e-05
0.0395837
0.0245703
1.20596e-05
0.024663
0.000266195
0.0175217
1.2746e-05
0.0216239
0.000106316
3.48716e-07
6.92146e-07
2.50261e-07
0.000144213
0.000289604
3.12257e-08
1.47405e-07
1.58741e-07
5.13419e-08
2.04042e-06
0.0192944
5.48205e-07
8.18204e-05
1.37867e-07
3.74979e-06
7.23463e-07
0.0279553
0.0235488
0.00837578
1.93784e-06
2.04634e-08
0.0338212
6.02671e-08
2.42337e-06
1.41039e-05
1.24446e-07
1.89051e-07
0.0191231
0.00262007
1.10846e-07
0.000401671
0.000632973
3.99842e-05
0.0516014
3.10174e-08
3.57123e-07
0.0146937
9.76964e-06
3.19815e-06
0.000175223
0.000152439
3.73876e-06
7.23643e-05
3.48047e-05
0.0524679
0.0213771
4.295e-08
0.000261163
9.87783e-05
1.67104e-07
8.36259e-08
3.95496e-06
4.93949e-08
3.65512e-07
1.1473e-06
0.0197314
3.67281e-08
1.67369e-06
8.69641e-08
0.0138714
1.6382e-05
0.0112706
5.39119e-07
1.46809e-06
8.63793e-05
0.0036519
8.93642e-06
4.20756e-06
6.49683e-07
1.91527e-06
1.86292e-07
4.74264e-05
6.57296e-05
6.09316e-08
3.74071e-05
1.11743e-05
6.13404e-06
2.72565e-05
0.000810579
1.75798e-06
0.0318286
8.67736e-08
8.70782e-07
0.0121587
6.05653e-08
1.96235e-05
0.00224963
0.0103497
1.51351e-05
8.92733e-07
1.76399e-07
6.54902e-07
1.47745e-06
1.53254e-08
2.41091e-08
9.81126e-05
6.96503e-08
0.0109403
4.28105e-05
2.33668e-08
6.03653e-08
4.62901e-06
9.02507e-08
7.68632e-08
5.76812e-07
1.40146e-05
0.0470008
5.52011e-05
3.53987e-07
6.13565e-08
6.82522e-06
2.1315e-05
1.96291e-05
0.0122717
2.31686e-05
5.81862e-08
7.20258e-07
0.0913229
0.0887753
0.026493
5.95945e-08
1.04707e-07
0.0131295
0.0120834
0.000122445
0.0257938
0.021692
2.04329e-06
4.70072e-08
2.97795e-07
2.02745e-07
3.28524e-07
2.17559e-07
5.08809e-06
6.8339e-08
4.8897e-06
8.41034e-06