/*--------------------------------*- C++ -*----------------------------------*\
  =========                 |
  \\      /  F ield         | OpenFOAM: The Open Source CFD Toolbox
   \\    /   O peration     | Website:  https://openfoam.org
    \\  /    A nd           | Version:  10
     \\/     M anipulation  |
\*---------------------------------------------------------------------------*/
FoamFile
{
    format      ascii;
    class       surfaceScalarField;
    location    "20";
    object      phi;
}
// * * * * * * * * * * * * * * * * * * * * * * * * * * * * * * * * * * * * * //

dimensions      [0 3 -1 0 0 0 0];

internalField   nonuniform List<scalar> 
214403
(
-0.000467231
0.000358368
1.96837e-05
8.91787e-05
-0.000224005
-0.000756221
6.36832e-05
0.000916542
-0.000693412
4.81736e-06
-9.43144e-06
0.000698026
0.000615815
-0.000414054
-0.00103221
0.000830451
0.00083185
-0.00105169
0.00025062
-3.07797e-05
-0.00035542
0.000370295
-3.69193e-06
-1.11836e-05
-5.79909e-05
-0.000109898
-0.000623806
0.000791695
-0.00114895
0.000654283
-0.000172803
0.000667471
-0.00157604
0.00111434
0.00112317
-0.000661458
0.000958591
0.00011374
-0.0010717
-6.29281e-07
0.000340744
-0.000674819
0.000139168
0.000194907
-0.000700207
0.000220181
0.000363014
0.000117013
3.19387e-05
-0.000774137
0.000932395
-0.000190196
-0.000671322
0.000676041
-4.71842e-06
0.000129584
0.000806858
-0.00103457
9.81265e-05
-0.000809336
0.00067646
0.000205269
-7.23925e-05
-0.000821629
0.000800233
2.13954e-05
0.000267997
-7.70407e-06
-5.28615e-05
-0.000207431
0.00106195
-0.000635224
-0.00141188
0.000985151
-5.24045e-06
-0.000214462
6.3001e-06
0.000213402
0.00044279
-0.000432411
-1.03792e-05
-0.000816591
-0.000282544
0.00028096
0.000818175
-0.000154363
0.000923344
-0.000744539
-2.4442e-05
0.000454456
4.8019e-05
0.000158703
-0.000661178
-0.000692191
-0.00033338
0.000896388
0.000129183
0.000638625
-0.000808605
4.99373e-06
0.000164986
0.000218309
-0.000190933
0.000715493
-0.000742869
0.000519306
0.000678305
-0.000817034
-0.000380577
0.00075605
-0.000474125
-2.14195e-05
-0.000260505
-0.000406631
0.000414488
-7.85709e-06
0.000162889
-0.000341762
0.000916966
-0.000738093
0.000954374
4.55655e-05
-0.000164891
-0.000835048
-0.000389272
-0.000399372
0.000408978
0.000379666
-7.92963e-05
-0.000447082
0.000396101
0.000130278
0.000288011
-0.000192653
-0.000625735
0.000530377
-0.000113933
0.000564226
-0.000203899
-0.000246393
0.00108634
-2.88264e-05
-0.00105751
-0.000463245
0.000904293
-0.000441048
7.84216e-05
-0.000988976
0.000577147
0.000333407
0.000166027
-6.67966e-05
0.000406844
-0.000506075
0.00037578
-3.92234e-06
-0.000371858
0.000693748
-1.5103e-05
0.000122473
-0.000801118
-0.000878631
0.000110427
0.000934231
5.84996e-05
5.87231e-05
0.000583733
-0.000700956
-0.000280598
-0.00182158
0.00176694
0.000335239
0.000393659
7.13933e-05
8.89807e-05
-0.000554033
0.000286604
0.000217221
-0.000701026
0.000197201
0.000903472
0.000541145
-0.000990162
8.20606e-05
0.000767138
-0.00015545
0.000126292
-0.000473304
-0.000278342
0.000625354
0.000214924
0.000330306
9.86455e-05
-0.000643876
0.000123366
-9.26004e-05
-0.000283514
0.000252748
0.000475844
-0.000861142
0.000600222
0.000806987
-0.000759549
-0.000260212
0.000212775
0.000736915
-0.00013478
-0.000581999
0.000788671
-3.29879e-05
-0.000173685
0.000598919
-0.000765832
8.72232e-06
0.00015819
-0.000548698
3.6205e-05
0.00087672
-0.000364227
-0.0010365
-0.00097355
0.000817664
0.00119238
-0.00055524
0.0005586
0.000109785
-0.000113145
8.74121e-05
-0.000709449
-0.000594881
-1.23666e-05
0.000309307
0.00029794
-0.0009045
0.000388802
0.000585078
-6.938e-05
0.0010663
-0.000859978
5.55999e-05
-0.000261924
4.8512e-05
1.79489e-05
-0.000684623
0.000618162
3.54222e-05
-0.000193874
0.000958045
-0.000799593
-0.00238815
0.00025928
0.000270381
0.00185849
-0.00021734
0.000641549
-0.000204022
-0.000220187
0.000313626
-0.000165519
-0.000668931
0.000520824
7.5102e-05
0.000467077
-0.000593447
5.12684e-05
-1.03145e-05
0.000573379
0.000199971
-0.000763035
-0.000113744
-1.80297e-05
-0.000236359
0.000368133
-0.000623896
0.000680367
-2.50567e-05
-3.14148e-05
2.13099e-05
-0.000612184
-0.000441288
0.000390665
0.000118765
-6.81418e-05
-0.00114596
-7.22932e-05
0.000558199
0.000660054
-0.000338816
-0.000144357
0.000288229
0.000194944
0.000509833
-0.00171033
0.000237348
0.000963153
-0.000260141
0.000523666
-0.000285972
2.24471e-05
0.000369658
-0.000287248
3.55969e-05
-0.000118007
8.72355e-06
-0.000717781
0.000709057
2.40196e-06
0.000581957
-0.000584359
0.000501784
-9.81792e-05
6.64695e-05
-0.000470074
-0.000315048
0.000449605
0.000148898
-0.000283454
-0.000217444
0.00092447
-0.000222093
-0.000484933
0.000437234
-0.000745212
-2.84635e-05
0.000336442
0.000501876
0.000514024
-0.0010159
0.000738018
-0.000829028
0.000212031
-0.000121021
7.34784e-05
-0.00013224
0.00096003
-0.000901268
2.73988e-05
-0.000154934
0.000691076
-0.000563541
0.000165757
0.00144595
0.00041538
-0.00202708
-0.00126968
0.00111662
0.000724354
-0.000571292
5.83018e-05
0.000446079
-0.000600134
9.57534e-05
0.000598298
0.000661522
-0.000214886
-0.00104493
0.00110005
-0.00066823
-2.1671e-05
-0.000410146
4.91496e-05
-0.000144137
-0.000452543
0.000547531
-0.000457128
2.53809e-06
0.00045459
0.000668403
2.3362e-05
4.62537e-05
0.000834268
6.75088e-05
-0.00127455
0.000372774
-0.000667041
0.000147164
0.000119001
0.000400876
-0.000432065
0.000107159
5.31587e-05
0.000271747
0.000103532
7.37954e-05
-0.000878247
0.00070092
-0.000175976
-0.00102454
0.000653275
0.000547236
0.000419822
-0.00049675
-0.000323839
0.000400767
0.000677499
-6.86743e-06
-0.000677168
6.53691e-06
0.000507419
-0.000718055
-0.000246633
0.000457269
0.00131635
-0.000398266
-0.000205069
-0.000713013
0.000762419
-1.56199e-06
-0.000699663
-6.1194e-05
-0.000384936
0.000453302
0.000943982
-0.00101235
0.000825204
-0.000290309
-0.000793387
0.000258492
0.000152415
-0.000224827
0.000970661
-0.000898249
-0.00108821
0.000990991
0.000940592
-0.000843377
4.92208e-05
-0.000847955
0.000327016
0.000471718
0.00105998
-5.68933e-05
-2.1524e-05
-0.000981565
0.000766749
-0.000149525
0.000147738
-0.000764961
-0.000865853
-0.000788032
0.00093257
0.000721314
-0.000168783
0.000484063
0.000131236
-0.000446516
-0.000362783
1.95507e-05
0.000701529
-0.000358297
-8.26758e-05
0.000930935
-0.00086652
1.82613e-05
-0.000824234
0.000765468
0.000148974
-9.02093e-05
-2.76198e-05
-0.000480764
0.00114701
0.00014631
-0.000484793
-0.000356618
0.000695102
-0.00038277
5.0252e-06
0.000377744
0.000117421
0.000533512
-0.000492976
-0.000157956
0.000872821
-0.00050303
-0.000134362
-0.000235429
8.60981e-06
-0.000266125
0.000257515
-0.00048296
-0.000130305
0.000183142
0.000430123
5.07577e-05
0.000278764
-0.000625894
0.000296372
0.00109542
-9.89632e-05
0.000428086
-0.00142455
7.42557e-05
-9.88909e-05
-0.00128826
0.0013129
8.28185e-05
-0.000372744
-0.000487222
0.000777147
3.17776e-05
0.000674824
-3.81989e-05
2.71795e-06
-0.000406062
0.000403344
0.000806095
-0.000299854
-0.000359931
-0.000488398
0.000406317
-0.000400879
0.000906693
-0.000754321
-9.20151e-05
-6.03567e-05
8.88478e-05
-0.000420049
0.000183674
0.000147527
-0.000739119
-0.000223644
0.000150285
0.000812478
0.000614865
-0.000999347
0.000658535
-0.000274053
-2.75603e-05
0.000902691
-0.000903749
2.86181e-05
-2.85583e-06
0.000817728
-0.000810219
-4.65321e-06
-0.00114837
0.000916577
-0.000735947
0.000967741
0.000957234
-0.000926324
-3.091e-05
-0.000878899
0.00117724
-0.000215261
-8.30832e-05
-0.000786485
0.00019026
-6.17618e-05
0.000657986
-0.00128737
9.87847e-05
0.000827289
0.000361298
0.000225037
-0.000307296
0.000171107
-0.000324623
0.000369453
0.000593895
-0.000638725
-0.000336578
-0.000151242
0.000192833
0.000294987
-0.000466945
0.000305318
-0.000589205
0.000750832
0.000140441
1.17259e-05
-0.00103107
-0.000469131
0.000468087
1.04435e-06
0.000496019
-0.000476635
-1.9384e-05
-0.00076153
-5.03639e-05
-0.00020021
0.000186378
-0.00100018
0.00116384
-0.000350036
0.000450161
0.000773937
-0.000984857
-0.00023924
0.000859825
-0.000934004
2.55471e-05
4.86321e-05
0.000457302
0.000118629
-0.000472389
-0.000103542
-0.000718995
-4.30349e-05
0.000948408
0.000426545
-3.088e-05
-0.000520084
0.000124419
0.000480616
-0.000411641
0.00047424
-0.000543215
-0.000818959
0.00015423
0.00111489
-0.000276243
-0.000387603
0.00127986
-0.000616015
-0.000389014
-0.000435344
0.000105363
0.000118026
0.000312538
-0.000819578
-0.000555587
-4.9011e-05
0.000892281
-0.000287683
8.68776e-05
0.000138306
0.000497849
-0.000723033
-0.000259106
0.000634647
-0.000375541
0.000208587
-0.00100594
0.000362008
0.000601336
0.000418466
-0.000901776
-0.000831865
9.96542e-06
0.00103663
-0.00021473
0.000147183
0.000126454
0.000394595
-0.000668233
0.000571579
-0.000576499
4.91964e-06
0.000210632
-7.95507e-05
0.000707097
-0.000838178
0.000753992
-0.000237616
0.000360866
-0.000877242
0.00139389
-0.000451632
0.00104178
-0.00198403
0.000221997
0.000413974
-0.000171637
-0.000464334
-0.000644958
0.000265525
0.000337234
4.21989e-05
0.000460726
-0.000347244
-9.50217e-06
-0.00010398
-0.000287086
-0.00036193
0.00105613
-0.000407109
-0.000517063
0.000672093
0.000266962
-0.000421992
0.000780029
-4.26513e-05
-0.000256762
-0.00118355
0.000781797
-6.51915e-05
-0.00112991
0.00104238
0.000484467
-0.000396935
0.000720687
-0.000811798
-0.00011721
0.000208321
0.000402279
-0.00073052
-0.000380287
-0.000418569
-0.000383991
0.000217418
0.000585142
-0.000594984
0.000184875
0.000587633
-0.000177524
0.000694277
-0.000659872
-0.000455444
0.000421039
4.25763e-06
-6.13937e-06
-0.000663125
0.000665006
1.58582e-05
-0.000566192
-2.1482e-05
0.000571815
-0.00016794
-0.00099408
0.000156647
-0.000574811
0.000516543
-9.83792e-05
-0.000380341
-0.000160325
-5.43188e-05
-1.22551e-05
0.000957767
1.30788e-05
-0.00229254
0.00161354
0.00116586
-0.000486863
-0.000678419
4.65244e-05
2.41662e-05
0.000607729
-0.000134741
0.0021452
-0.00252652
0.000516055
0.000109588
0.000168949
-0.000379127
0.00010059
-0.00145191
0.000782347
0.000100573
0.00056899
-1.71611e-05
-0.000962059
-0.000137069
0.00111629
-0.000388252
0.001447
-0.00100212
-5.6623e-05
0.000650898
0.000945409
-0.000874995
-0.000721312
-0.000778119
0.000742329
0.00092046
-0.00088467
0.000308116
0.000430501
-0.000536103
-0.000202514
0.000298433
-0.000200898
-0.000477876
-0.00154453
-6.13397e-05
0.0012609
0.000344969
0.000463332
7.28879e-05
-0.000270695
0.000465788
0.000624383
-0.000576336
-0.000513835
-0.000773665
0.000172392
0.000753764
-0.000152492
9.1629e-05
0.000242045
0.000843569
-0.000890066
0.000878513
8.50971e-05
-7.35446e-05
0.000565399
0.000443928
-0.000399165
-1.58072e-05
-0.00011225
0.000527222
-0.000588003
-0.000117188
0.000333863
-0.00112541
0.000475158
0.000316386
3.49697e-05
0.000615064
-0.000682777
3.27437e-05
-0.000231249
4.47243e-05
-0.000214983
0.000401508
0.00094676
-0.000677007
2.86807e-05
-0.00053801
-0.0004213
0.00056614
0.000393169
0.00203914
-0.00218133
0.000712759
-0.000570567
-0.000400784
0.000497826
0.000200728
-0.00029777
-0.000894853
0.000388273
0.000779279
-0.000272699
-0.000385894
0.000561648
0.000722258
-0.000898013
0.00107683
-0.000416385
-0.000710224
4.97746e-05
1.8555e-05
-0.000258426
0.000628585
-0.000388714
-0.00010915
0.000108258
-0.000830972
0.000780139
0.000252547
-0.000835147
-0.000197539
0.000973599
-0.000801696
-0.000214938
0.000200631
0.000294867
-0.000703358
0.00020786
-0.000410732
-0.000750805
0.000668512
0.000493025
-0.000122637
-0.000318932
-9.64402e-05
0.000401893
-0.000427698
0.000921214
-0.000895409
9.7312e-05
-0.00111418
0.00101687
0.000367778
-0.000483814
0.000316667
0.000210491
0.00012258
0.000172655
-0.000505727
-2.23754e-05
-0.000928938
0.000951314
-0.000520013
6.90134e-05
-0.000168617
0.000619616
-6.16655e-05
0.000705762
-0.000642829
-1.2676e-06
-0.000477012
-0.000252418
0.000275604
0.000453827
-0.000177577
-0.000422072
-0.000391896
-0.000575855
0.000479849
0.000487903
2.13191e-05
-0.000590793
0.000997805
-0.000410415
-5.31961e-05
-0.000534195
0.000543915
-5.29266e-05
-0.000396964
-9.40249e-05
-8.74201e-05
0.000760523
-0.000948058
0.000274955
0.000479236
1.85223e-05
0.000233405
-0.000731164
-1.76991e-05
-0.000395571
0.000190991
0.00022228
-0.000280576
0.000364797
0.000703593
-0.000787815
-0.000990895
-0.00025005
-0.000271163
0.000888991
-0.000855522
2.06249e-05
0.000267415
0.000567482
8.16655e-05
-0.000300322
-0.000534492
0.000753148
-0.000399194
-0.000779235
0.000196605
0.000981823
-0.000349732
-0.000386198
0.000401484
0.000334447
-0.000917912
0.000883736
0.00093487
-0.000900693
-0.000127743
-0.000223149
-0.00067201
0.0010229
-0.000923117
8.68183e-05
0.000938352
-0.000102054
-0.000161102
0.000423065
-0.000261963
-0.000372339
0.000688585
-0.000518399
0.000202154
-1.47224e-05
0.00120344
-0.000448702
-0.000740015
-0.000431784
-0.000207589
0.000863287
-0.000223914
0.00013917
-0.000364685
0.000825348
-0.000599834
3.89265e-05
0.000551825
-9.67259e-05
-3.28326e-06
-0.00087956
0.000879377
3.46613e-06
0.00103294
-0.000182924
-0.00150956
0.000659543
-0.000953726
-9.30333e-05
0.00119021
-0.000143453
-0.000515542
0.000779189
6.4022e-05
-0.000327669
0.00045242
-0.000448018
-4.40232e-06
-0.000537898
5.20929e-05
-0.000464554
0.000950359
-0.000772847
0.00106528
-0.000222045
-7.03863e-05
0.000483402
-0.00020255
-0.000582259
0.000301406
-0.000932797
0.000940464
-7.66759e-06
0.00076924
-0.00111794
9.09524e-05
0.000257743
-0.00087106
-0.000238673
0.00148964
-0.000379908
0.000642613
-2.56916e-05
-0.00013553
-0.000481391
-0.000366946
-0.000621712
0.00139055
-6.45634e-05
-0.00091779
0.000554655
0.00141351
-0.00157657
-0.000149677
0.00031274
0.000395588
0.000188659
-0.000437064
-0.000410399
0.000426827
-1.64287e-05
-0.000164605
0.000921614
-5.92895e-05
-0.00069772
-0.00020133
0.000238707
0.000800849
-0.000838227
0.000523115
0.00122608
-0.000716463
-0.00103273
0.00092193
-0.00110613
0.000351591
-0.000167386
0.00081541
1.14224e-05
-0.000826833
1.50409e-05
0.00079395
-0.000808991
0.000897046
-0.00108475
0.000956945
1.02914e-05
-8.37863e-06
0.00069496
-0.000696873
1.75105e-05
0.00127302
-0.00126759
-2.29351e-05
-0.000108568
-0.000320989
-0.000650317
0.00107987
-0.000396875
-0.000237658
7.94682e-05
0.000754227
-0.00130946
0.000475766
-0.000620172
-0.000162464
0.000664766
0.000117871
-0.000750895
0.000829463
-0.000221459
0.000142892
0.000115263
0.000601285
-0.000204426
-0.000512122
-0.000282724
6.69539e-05
0.000488355
-0.000272585
1.72989e-06
0.000233472
-0.000296922
6.17198e-05
-0.000317141
0.000781002
-0.000452401
-1.14593e-05
0.0002327
-0.000735821
-0.000429676
5.61921e-06
-0.000685539
0.00067992
-0.000261469
-0.000250987
0.000116273
0.000396183
0.000375277
-0.000216363
-0.000158914
0.000958579
-0.000952592
-0.000194017
0.00018803
-8.69164e-05
-0.000571393
0.00052764
0.00013067
-2.4316e-06
3.25886e-06
0.000526266
-0.000527094
0.000263797
-0.000216755
-0.000838638
0.000791596
0.000607197
-1.52356e-05
-0.000591961
-0.000869996
-0.000562662
0.000838981
0.000593677
0.000509953
0.000796002
-0.00137052
0.000481776
-0.00017358
0.000271937
-0.000580132
-0.000193324
0.000193711
-0.00106772
0.00106733
0.000301432
-0.000593946
-0.000577078
0.000869593
-6.05768e-05
-0.000133441
0.000629189
-0.000435171
0.000438021
-0.000538362
0.000195044
-9.47025e-05
0.000251346
-0.000416197
-0.000402018
0.000566868
-0.000788523
0.000887741
-0.000235597
0.000136379
0.000912292
0.00117164
-0.00129144
-0.000792491
-0.000696601
0.000693902
2.69954e-06
-7.9194e-05
0.000824043
-0.00102601
0.000281159
3.07247e-05
-5.16213e-05
-0.000791741
0.000812637
0.000759929
3.17928e-05
-0.000874253
8.25311e-05
-0.000340038
-0.000574467
0.000722583
0.000191922
-0.000822451
0.00116557
-0.000412623
6.95044e-05
-0.000323325
-0.000397176
0.000235708
-4.88138e-05
-8.67439e-06
-0.000568958
0.000626447
-0.00185753
8.01043e-06
0.000166232
0.00168329
7.16669e-05
-0.000460298
-0.000239065
0.000627696
0.00116092
-9.57841e-05
-0.000376109
-0.000689026
-0.000199401
-0.000438375
8.07303e-05
0.000557046
0.000333458
-1.16335e-06
-0.000332294
0.0005471
0.000291416
-0.000181469
-0.000657047
0.000422988
-0.000334598
0.000831661
-0.000920051
2.68394e-05
0.000866841
-0.000286659
-0.000607021
0.000210004
0.000301181
0.000649734
-0.000404541
3.09314e-05
0.000373609
-0.000529718
7.60872e-05
0.000139807
8.82386e-05
-0.000728431
0.000500385
-0.000705719
0.00103292
0.000311241
0.0010647
-0.000224626
-0.00115132
-0.000679427
0.00066471
-0.00105337
0.00106808
-9.92593e-05
-0.000497113
0.00017408
0.000422292
-0.000559415
0.00106129
0.000318024
-0.000384357
9.1411e-05
-2.50776e-05
-0.000348119
-0.00111032
0.00034731
0.00111113
0.000727453
-0.000725691
-7.49107e-06
5.72936e-06
0.000586843
-0.0006857
0.000145588
-4.67317e-05
0.000150849
0.000592336
-0.00105484
0.000311655
2.54881e-06
0.000496463
-0.000499012
0.000329647
-0.000844513
0.000665716
-0.000317812
0.000854598
0.00071891
-0.0012557
0.000242331
-0.00024799
-0.00114967
0.00115533
-0.00034837
0.000576385
-0.00115624
0.000928222
-0.000825827
0.000657424
0.000862303
-0.000693901
-0.00050623
0.000693269
-0.000447939
0.0002609
-0.000111716
0.000486455
7.94469e-05
-0.000454186
0.000235865
-0.000343611
0.000354146
-0.000246401
0.000465566
0.000173345
0.000153302
-0.000792213
0.00129611
-0.000879228
-5.34024e-05
-0.000363474
5.48668e-07
-0.000628583
0.000628034
0.000395102
-0.000576801
-0.00176815
0.00194985
-7.91436e-05
-0.000856759
-0.000259401
0.0011953
-5.07094e-05
-0.000384376
0.000435085
0.000119827
0.000568799
-9.01242e-05
-0.000598502
-0.000155476
-0.00056111
0.000452952
0.000263634
0.000454422
-0.00038081
-0.000668493
0.00113138
-0.000880872
0.000255093
0.000269832
-0.000524925
0.000857576
-1.04298e-06
-9.82584e-05
-0.000758275
-0.00016748
-0.000285189
0.000452669
0.000297622
0.000197135
0.00170947
-0.00205641
-0.000725457
0.0010724
0.00025641
0.000546336
-0.000417887
-0.000384858
-0.000594865
0.00114505
0.000756656
-0.00130684
0.000674055
0.000234006
-9.02693e-05
-0.000817792
0.00109101
-0.000727387
0.000469408
-0.000833035
-0.00062434
0.000285624
-0.000782092
0.00112081
-0.0010168
0.00182154
-0.000713034
-9.17028e-05
-2.91063e-05
-0.00042396
-0.000585072
0.00103814
0.000822898
0.000340544
-0.000965665
-0.000197777
0.000442259
-0.00117964
0.000744345
-6.95959e-06
-0.00103972
-3.94965e-05
0.000679378
0.000399844
-0.000208288
0.000540114
0.000235273
-0.000567099
-0.000131927
0.000528667
0.00042686
-0.0008236
-0.0010825
0.000557226
-5.09745e-05
0.000576245
9.54778e-05
-0.00028786
0.000574351
-0.00038197
0.000470383
-0.000236659
0.000167904
-0.000401627
0.000445939
8.49022e-05
4.3671e-05
-0.000574512
-0.000642909
0.00069001
0.000255392
-0.000302492
-0.000155703
0.000835294
1.66653e-05
-0.000696256
0.000674888
-0.000396064
-0.000261815
-1.70088e-05
0.000568552
3.79722e-06
-0.000572349
0.000416159
0.000322308
-7.30664e-05
-0.000665401
0.000199692
0.000525655
0.000447275
-0.00117262
-1.0525e-06
-0.000942271
0.000943324
-0.00049008
0.00189545
-0.000276921
-0.00112845
-8.47445e-06
0.000709291
-0.000700817
-4.64344e-05
-0.000500039
8.97555e-05
0.000456718
-0.000927775
0.000471914
0.00036057
9.5291e-05
0.000189368
0.000157743
-0.00108602
0.000738907
0.000541736
0.000855812
-0.000319838
-0.00107771
0.000834593
-0.000286664
-0.000798979
0.000251049
-0.00104235
0.00059429
0.00158852
-0.00114045
-2.75109e-06
0.000408543
-0.000408521
2.72958e-06
-0.000421635
0.000417206
4.42923e-06
-0.00105746
1.53393e-05
0.000447256
0.000118601
0.000256227
0.000701692
-0.00107652
0.000538062
-0.000639187
0.000412977
-0.000311853
-0.000541297
0.000474033
-1.78991e-05
8.51626e-05
-0.000106586
-0.000882078
0.00112602
-0.000137356
-0.000399578
0.000192399
0.000632525
-0.000425345
0.000676364
-0.000261369
9.99079e-05
-0.000514902
-0.000438583
-7.63555e-05
0.000513374
1.56401e-06
-7.9065e-05
-4.2216e-06
0.000751098
-0.000667811
9.27761e-05
-7.85631e-05
0.000733481
-0.000747694
-0.000660375
0.000924076
-0.000968528
0.000704827
4.9178e-06
-0.000830657
0.000825739
-0.000296525
2.57566e-05
0.000747644
-0.000476876
-0.00055671
0.000650837
-0.000887486
0.000793359
-0.000572233
4.40527e-05
0.000171562
-0.000270887
0.000731586
4.0899e-05
-0.000501598
-0.000193311
2.74661e-05
-0.000322553
-0.000288587
-0.000934664
0.000939157
0.000284094
-0.000415429
-4.89883e-05
-0.000104168
0.000568586
-0.0014286
0.00048263
0.000142507
0.000803464
-0.000439084
0.00103466
-0.000520533
-7.50393e-05
0.000306628
0.000120427
-0.000620365
0.000620414
0.00063141
-0.00125182
8.41912e-05
0.00136178
-0.000313899
-0.00113207
-1.77162e-05
-2.48584e-05
-0.000615944
0.000658518
-0.000655899
0.00107993
-0.000434587
1.05534e-05
0.000621829
-0.000392664
-0.000563443
0.000334279
0.000158488
-2.11916e-05
0.000194229
0.00095302
0.000261957
-0.00137404
0.000159066
-0.000660968
-8.55887e-05
0.000216794
0.000529763
0.000244717
-0.000274114
-0.000367779
0.00115186
-0.000775007
0.000602449
-0.000979303
-0.000127528
0.000742996
-0.00128454
0.000669075
0.000443873
-0.000562208
-5.68577e-05
0.000175193
-0.000482543
-0.00016783
-1.63481e-05
0.000666721
-0.000366472
-0.000345369
0.000711841
9.25377e-05
-0.000988876
0.000876722
1.96163e-05
0.000375922
-0.00036368
-0.000378715
-0.000612519
0.000776327
-0.000148561
-1.52459e-05
0.000868495
0.000238062
-0.000934467
-0.00017209
-0.000336951
-0.000493976
-5.70642e-05
0.000887991
0.000574637
-0.000174604
0.000666218
-0.00106625
-0.000625061
-3.53146e-05
-0.00074466
0.000399291
9.42537e-05
-0.000819804
0.000262142
0.000463408
0.000243758
-0.000873521
0.000480566
0.000149197
0.000129431
3.4883e-05
-0.000652563
0.000488249
9.73873e-05
0.000421376
-2.95932e-05
0.000753992
-0.000149081
-0.000575317
-0.000294063
-3.27175e-05
-0.000275518
0.000602299
-0.00017514
-0.000235873
0.000451045
-4.00318e-05
-0.000682674
-9.51665e-06
-0.00115121
0.000414391
0.000604887
0.00164285
-1.34756e-05
0.000223998
-0.00185337
-0.000717874
0.00111602
0.000226123
-0.000624269
-0.000204457
0.00011128
0.000706207
-0.00061303
8.37731e-05
0.000237667
-0.0001839
-0.000137539
-0.00123271
-0.00025426
0.00106642
0.00042055
2.78349e-05
0.000534047
-0.000107459
1.59809e-05
0.000263144
-0.000825119
0.000545994
-0.000499024
-1.74625e-06
0.000183968
0.000316802
-0.000716529
0.000885263
-0.000140899
0.000403156
-0.000363372
-3.97842e-05
-0.000581265
8.39185e-05
-0.000453077
0.000950424
-0.000269327
0.000405075
-0.000312232
0.000176484
-0.000579643
0.00065223
-0.000269433
0.000196845
0.000251519
-4.17617e-05
-0.000586627
0.000376869
-0.000259399
0.00162705
-0.0021901
-0.000225179
-0.000157302
0.000153983
0.000228498
0.000753429
-0.00117725
-5.35061e-05
0.000477326
-0.000311577
0.000232377
0.00040079
-0.000321591
-9.38268e-05
0.000492831
-0.00013498
-0.000264024
-0.000554039
0.000122992
0.000129534
0.000301514
-0.000322639
2.7679e-05
0.00029496
0.000711175
-0.000338649
-0.000360766
-1.17597e-05
5.45821e-05
0.000371348
-0.000563704
0.000137774
-0.000380688
-0.000461129
0.000470291
0.000371526
-0.00020217
0.000520376
-0.000445846
0.000127641
0.000183979
-0.00034842
0.000240024
-7.5583e-05
0.000683168
1.93938e-05
-0.000702562
0.000588624
-0.000725289
0.000359183
-0.000222518
-0.000920893
-2.59668e-05
0.00094686
0.000372389
-0.000308945
7.20148e-05
-0.000135458
-3.09131e-05
0.000654365
-0.00071312
8.9668e-05
-0.000320785
0.000401605
0.000103159
-0.000373229
0.000799786
0.000739013
-0.00061992
0.000614653
5.26698e-06
1.46436e-05
-0.000983399
0.000968755
0.00132848
0.000159448
-0.000283107
-0.00120482
0.000275798
-0.00108173
-0.000132368
0.000938302
0.000205814
0.000242818
0.000139381
-0.000588012
-0.000372099
-0.000372811
5.68863e-06
0.000739221
-0.000177309
0.000243552
-0.000438342
-0.000815407
0.000148409
0.00106994
-0.000402946
-0.0016057
0.001177
0.000517816
-8.9119e-05
0.000708274
6.01545e-06
-0.000714289
-0.000411289
-0.000553447
0.000357845
0.000606891
-0.000404372
-0.000585674
0.000174638
-0.000574143
0.000312363
0.000359167
0.000236985
-0.000308464
-0.000565007
0.000636486
-0.000389914
2.63339e-07
0.00038965
-0.000931896
0.000378004
0.000384917
0.000168975
0.000229701
-0.000617136
-0.000186708
0.000798209
-0.000254045
-1.9414e-05
-0.000524751
-0.000536088
0.000889434
0.000527798
-0.000881143
-0.000163429
-0.000338754
0.00012968
0.000372503
-0.00022082
-0.000177617
0.000398438
-0.000395593
-0.000829126
-0.000380983
0.000189504
2.42109e-06
0.000382592
-0.000574518
0.000760416
-0.000554181
-0.000800089
0.000593854
-0.000281941
0.000100775
0.000570036
-0.00038887
0.000522655
-0.000367889
-5.19232e-05
-0.000102843
-0.000598827
9.71903e-05
0.000467868
3.37683e-05
-0.000369841
0.000848154
-0.000925152
0.000360783
2.67608e-05
0.000537609
0.000879841
-0.000708882
-0.000551196
0.000380236
-0.000705081
0.000146784
0.00131871
-0.000670995
-0.000442942
0.000721982
0.000391955
-7.88477e-05
0.000698257
-0.000264745
-0.000354664
4.07101e-05
-0.000420583
-0.000277116
0.000656989
0.000795182
-0.000524471
-3.23064e-05
-0.000238404
0.000251496
0.000187623
-0.000616428
-0.000167159
0.000189116
0.000466671
-0.000488628
-0.000142446
0.000739714
-0.000911256
0.000313989
-0.000454606
0.000109592
0.000110071
0.000234943
-0.00097266
0.000988802
-1.6142e-05
0.0006653
-0.00065559
-9.70926e-06
0.000271345
-0.00104652
-0.000402385
0.00117756
0.000238623
0.000452986
0.000106601
-1.1136e-05
0.000387572
-0.000376436
0.000643565
0.000573838
-0.0012174
-0.000691336
0.000422018
0.000298338
-2.90201e-05
-0.000388299
0.000127986
0.000315629
-5.53162e-05
-0.00118708
0.000554211
0.000651331
-1.84626e-05
-0.000375928
-0.00041959
0.000405605
0.000608981
-9.63664e-05
-0.000391805
-0.00012081
-0.000639048
0.000688633
-0.000419426
0.000116082
-0.000736578
-3.66412e-05
0.000657137
-8.48582e-07
-0.00036835
0.000369199
0.00177731
1.22129e-05
0.00018975
-0.00197928
-6.83263e-05
-0.000133929
-0.000985869
0.00118812
0.000302901
-0.000410078
-0.000189427
0.000296604
0.000120343
0.000917446
-0.0003719
-0.000665889
0.000999962
-0.00100003
-2.04095e-06
2.11072e-06
-0.000562246
-0.0005072
0.000792746
0.0002767
0.000327476
0.000250079
-0.00065217
7.46154e-05
4.79371e-06
0.000608148
-0.000621588
8.64637e-06
-0.000836133
0.000268244
0.000677542
-0.000109653
0.000626253
0.00037826
-0.000633786
-0.000370728
1.53814e-05
-0.000572834
0.000289624
-0.00014876
0.000859098
-0.000452533
-5.88958e-05
-7.06132e-05
0.000582042
-0.000775408
4.12535e-05
0.000734155
0.00113241
0.000486899
-0.000366132
-0.00125318
-0.000739139
1.58808e-05
0.00073864
-6.59197e-05
-0.000171301
-0.000438364
0.000675584
-7.9941e-05
-8.87669e-05
-0.000239092
0.0004078
0.000186265
-0.000944836
0.000712207
4.63637e-05
0.000583053
-9.16335e-05
-0.000566973
7.55538e-05
-0.000703447
0.000141313
4.34158e-05
0.000518718
-0.000274248
0.000181944
-0.000382351
0.000474656
0.000158744
0.000103262
-0.000936973
0.000674966
3.31989e-05
-0.000634386
-4.46583e-05
0.000645845
0.000627725
8.23023e-05
-1.08716e-05
-0.000699155
-0.000750548
0.000174789
0.000679291
-0.000539208
-0.000713891
0.0012531
0.00102934
-0.000522329
0.000226217
-0.000733231
8.1486e-05
0.000573762
-0.000352347
-0.000838833
0.000150941
0.000299933
0.000387959
0.00103533
-0.00107279
3.74608e-05
-0.000643006
-0.000218
0.000449927
0.000411079
-0.000816717
-0.00063423
0.000425288
0.00102566
0.000831226
-0.000868203
-0.000106476
0.000143453
-0.000120129
0.00040407
-0.000318704
3.47632e-05
-0.00106519
0.000347916
0.00024469
0.000472582
-0.0015563
0.00192563
0.000332421
-0.000701758
0.000690826
-0.00150875
-8.4723e-05
0.000902644
-0.000621672
0.000801634
-0.00147306
0.0012931
-0.000643414
0.00141073
0.000142039
-0.000909355
5.75982e-05
0.000681489
-0.00015938
-0.000579707
0.00103632
-0.000777025
-2.62671e-05
-0.000233031
-0.000178087
-0.000170856
0.000261275
8.76686e-05
-0.000479868
-0.00100541
0.000861077
0.000624199
-0.000694575
0.000925247
0.000805651
0.000578368
-0.00042507
-0.000529817
0.000376519
0.000204256
-0.000264339
-0.000116763
0.000176845
0.000451569
-0.000446436
-0.000595972
0.000590839
-0.000183451
0.000526339
-3.81272e-05
-0.000304761
-0.000743816
-0.0001189
0.000920315
-0.000549941
-0.000135171
0.000679848
5.26492e-06
0.000234864
-0.000524739
0.000289876
0.000183477
-0.000243844
0.000906541
-0.000846173
0.000710233
-0.00100033
0.000145225
0.000144876
0.000459778
-0.000495075
3.52966e-05
-0.000713998
1.94223e-05
0.000626969
-0.000239395
-0.000605537
0.000217964
0.000201436
0.000162074
0.000709068
-0.00107258
0.000450417
-0.000488845
3.84279e-05
-5.30269e-06
0.000543006
-0.000613849
7.61452e-05
-0.000784168
-7.57852e-05
0.00104343
-0.000330874
-5.6636e-05
7.64613e-05
0.000311048
4.5709e-05
-0.000378315
0.000279181
5.34252e-05
0.000620018
-0.000593543
-0.000146604
7.26815e-05
0.00105172
-0.000664826
-0.000459573
-0.000358726
0.000752899
-0.000394173
-0.000974584
0.000373242
-0.000228347
0.000829689
0.000768655
-0.000695873
-0.00113797
-0.000382123
-0.000456617
0.00157007
-0.000731333
-0.00109771
0.000698418
0.000995754
-0.000596458
-2.39771e-05
-0.000933779
0.000957756
0.00148625
3.33984e-06
-0.000856386
-0.000633204
0.000860377
-0.000554208
-7.5284e-05
-0.000230885
-0.000626551
0.000442529
-0.000109343
0.000293364
8.84416e-06
-0.000643427
0.000634583
-0.000461609
0.000475096
-1.34861e-05
-0.00034218
-0.000362437
-0.000928512
0.00163313
-0.000874657
0.000190927
-9.77731e-05
0.000781503
0.000207071
0.000335909
0.000897016
-0.000809085
-0.000669375
0.000581443
-0.000249035
-0.000512467
0.000565215
0.000196288
-0.000517338
-0.000263328
0.000781442
-7.7521e-07
0.000170604
-9.76879e-05
-0.000478249
0.000405333
0.000571126
2.50792e-05
-0.000730171
0.000133966
0.000176475
-0.000122688
0.000193085
-0.000232892
0.000231922
-0.000192115
0.000468161
0.000457989
-0.000467998
-0.000458152
0.000228526
0.000533137
-0.000552079
-0.000209585
0.000476852
0.00020674
-0.000376965
0.000603525
-0.000732035
0.00015359
-0.000800967
0.000560284
0.000301052
-6.03686e-05
0.000936345
-0.000312251
-0.00098282
-0.000256022
0.000681643
0.000343034
0.000663601
-0.000323404
-0.000558537
-0.00015229
-9.01407e-05
-0.000892501
0.000834739
7.89461e-05
-2.11832e-05
-5.56854e-05
0.00111429
-0.000115576
-0.000943027
-0.000730475
0.000149075
0.000325377
-0.000113976
-0.000719147
0.000202295
0.000630827
0.00066624
9.2588e-05
-1.5698e-06
-0.000757259
-0.000993045
-8.41188e-06
6.43538e-06
0.000995022
-0.000261572
0.000282944
-0.000467021
0.00044565