/*--------------------------------*- C++ -*----------------------------------*\
  =========                 |
  \\      /  F ield         | OpenFOAM: The Open Source CFD Toolbox
   \\    /   O peration     | Website:  https://openfoam.org
    \\  /    A nd           | Version:  10
     \\/     M anipulation  |
\*---------------------------------------------------------------------------*/
FoamFile
{
    format      ascii;
    class       volScalarField;
    location    "20";
    object      SgP;
}
// * * * * * * * * * * * * * * * * * * * * * * * * * * * * * * * * * * * * * //

dimensions      [1 -1 -3 -1 0 0 0];

internalField   nonuniform List<scalar> 
111485
(
1.40377e-09
1.68757e-06
5.68404e-07
5.71056e-12
1.3726e-07
2.49762e-09
2.82961e-07
1.06715e-08
2.57816e-07
2.40258e-08
5.38743e-07
2.12909e-08
1.37436e-07
0.00519023
1.40701e-07
2.69195e-07
0.00390439
1.60637e-05
1.73935e-08
2.51734e-08
0.000692798
2.32545e-10
5.14582e-08
1.78503e-07
9.65386e-07
2.17908e-09
2.13716e-08
2.88039e-07
5.03136e-08
0.000902627
6.43013e-08
6.94902e-10
6.35959e-09
2.55499e-08
1.34701e-05
1.80201e-06
0.00241761
0.00377709
4.26789e-05
7.16709e-08
0.000722328
1.61707e-08
5.6237e-08
2.02808e-06
2.86683e-07
3.90991e-08
1.22246e-07
1.51921e-08
1.29046e-07
1.45679e-08
2.86929e-08
3.58357e-07
1.01887e-08
1.75094e-07
3.48183e-08
2.53084e-09
2.88529e-08
4.18563e-10
8.72513e-07
8.59792e-09
1.90267e-08
5.81946e-09
2.11991e-06
1.09819e-07
1.50014e-07
4.76619e-07
6.79328e-06
2.44523e-08
1.55693e-06
3.27435e-06
9.70271e-07
2.16866e-06
2.14198e-07
1.89338e-06
5.78022e-09
1.94165e-09
1.12334e-09
1.51753e-08
1.9826e-09
5.03313e-07
0.0049675
0.00922244
9.278e-10
2.18144e-09
3.77346e-07
7.36896e-07
0.00249491
1.41069e-07
4.38075e-06
1.42971e-07
2.8916e-08
1.36285e-07
9.66854e-07
7.21658e-09
4.03737e-08
4.24225e-10
0.000505057
2.72664e-07
3.09275e-05
8.27499e-06
5.71386e-10
5.61905e-08
3.54576e-08
2.30575e-07
1.3182e-07
2.55384e-07
1.9257e-10
5.49573e-09
2.89377e-07
1.17378e-05
7.73978e-07
2.15832e-08
2.44086e-07
1.36876e-06
5.63254e-09
3.22282e-09
1.56113e-09
1.64877e-07
5.09658e-07
1.5912e-10
1.1475e-09
3.35997e-06
0.00124902
4.51687e-08
8.30521e-07
0.000530848
1.97622e-06
2.99565e-07
1.75676e-11
5.5677e-06
2.82958e-06
3.67144e-07
0.000884789
3.17007e-06
1.47997e-06
3.4984e-09
2.03433e-10
1.57369e-08
2.32792e-07
4.53236e-07
1.37236e-06
3.54588e-09
0.00331546
1.73643e-06
5.89076e-07
5.97032e-08
2.32639e-10
8.16184e-10
2.22212e-09
2.00188e-08
5.8438e-07
0.000530883
0.00197881
1.79533e-07
1.18825e-06
1.48268e-09
7.76472e-08
3.14321e-06
1.6168e-05
1.09077e-07
7.07337e-11
5.23012e-09
7.17245e-07
1.1181e-06
1.34925e-06
1.04121e-06
1.19713e-07
0.000451772
2.74573e-05
2.20725e-06
4.10313e-11
2.10041e-09
0.00348107
2.99099e-11
4.08038e-09
7.19764e-08
7.99721e-09
1.60116e-07
4.10115e-09
9.67622e-08
1.50926e-07
5.00141e-09
2.68801e-08
7.28102e-09
5.44416e-08
4.17044e-07
1.95553e-07
8.44383e-07
6.42246e-06
5.55965e-09
1.1423e-06
9.01158e-08
1.316e-07
4.38157e-07
1.05805e-07
2.33744e-07
4.64619e-08
1.0854e-08
2.00858e-08
1.62708e-07
3.55683e-08
2.80091e-05
1.44541e-06
9.38107e-09
3.05502e-08
1.08746e-07
2.16997e-07
1.99492e-07
2.89186e-07
6.72158e-08
8.30816e-08
1.57987e-07
1.43157e-07
1.21079e-10
1.74591e-06
5.06015e-06
6.88306e-09
3.14792e-10
2.56523e-07
4.00049e-07
1.9428e-08
1.35316e-09
2.38293e-07
2.66081e-07
5.05433e-06
1.15334e-10
2.22444e-11
6.61247e-07
7.37822e-05
4.10806e-07
1.72748e-06
2.986e-07
1.48785e-08
0.00262014
6.53722e-07
2.45037e-07
0.00284585
1.38348e-09
1.00749e-06
5.12546e-07
4.87706e-07
6.54283e-07
1.26754e-07
7.49332e-08
3.32134e-05
7.10981e-09
1.44422e-07
1.49012e-09
1.09776e-07
0.00244915
3.58583e-07
4.2378e-07
3.85797e-07
2.52944e-11
3.63795e-06
1.52089e-08
5.71479e-09
1.21276e-06
0.00180409
1.53284e-09
1.06274e-07
1.05146e-06
1.62895e-08
6.55588e-11
1.37435e-07
1.53442e-11
9.69336e-10
1.2452e-08
0.00296662
6.62128e-08
6.6459e-07
2.12179e-08
0.00310966
4.18124e-07
1.77763e-08
4.21156e-06
4.9975e-08
1.62017e-08
9.4159e-09
1.83217e-09
0.00202801
1.27167e-08
7.75464e-07
4.15833e-07
2.81019e-11
0.0040226
0.00482524
3.64911e-08
6.21273e-06
5.77715e-07
6.58271e-08
1.58335e-07
2.44312e-07
1.64545e-10
1.32917e-07
3.20522e-10
6.30394e-06
4.94119e-06
2.86233e-07
3.5458e-08
0.00609929
6.04858e-09
0.00144089
1.88225e-08
9.31677e-08
2.21554e-10
2.20239e-09
0.000461975
6.32226e-08
2.81163e-08
1.39093e-07
2.87184e-06
7.37671e-09
4.57234e-07
7.73148e-10
3.91383e-09
1.04587e-07
7.7339e-05
0.00442066
5.85656e-08
1.40201e-05
1.73422e-10
1.02592e-09
4.48647e-10
1.49259e-06
3.23006e-08
1.49913e-08
5.71652e-08
1.11009e-08
1.32328e-06
0.00112861
9.75933e-08
1.33075e-08
5.57182e-08
3.82181e-08
0.0007957
9.27078e-07
1.07582e-08
2.27857e-08
3.64503e-09
2.39914e-07
2.69487e-09
0.00264758
4.35777e-06
8.33722e-09
8.65178e-08
4.86418e-06
1.23645e-08
0.000652043
2.60251e-09
2.46612e-07
1.06112e-07
8.83374e-09
3.48547e-07
1.75632e-07
6.85747e-09
9.12784e-09
1.92486e-08
5.74536e-08
0.00664865
5.51783e-07
1.30488e-09
0.000882313
3.09096e-07
4.19439e-10
8.77672e-09
2.07313e-09
0.000880192
1.23789e-05
0.000856222
0.000824261
6.43396e-09
2.16555e-10
2.42774e-08
5.86714e-08
3.56523e-11
1.6935e-07
5.18889e-08
2.83285e-07
6.23884e-07
2.57575e-06
9.15705e-08
1.25887e-05
2.15255e-08
1.00417e-07
8.82937e-07
1.23025e-08
1.25629e-05
5.51641e-09
2.27093e-07
5.78374e-08
0.0005038
1.99465e-09
1.52666e-09
0.00272364
1.38841e-07
0.00538745
7.80672e-09
1.13644e-07
6.14527e-08
1.33013e-10
9.76735e-08
8.09885e-07
1.78317e-09
0.000596539
5.95826e-08
4.8206e-08
1.66365e-08
3.3114e-10
1.31492e-05
3.55582e-10
1.68094e-07
6.68752e-08
1.7296e-12
1.78131e-08
9.03675e-07
0.00433056
2.55824e-06
3.89955e-11
1.44005e-06
1.75256e-06
1.76037e-06
6.65861e-07
1.17663e-05
4.4431e-08
1.95542e-05
9.18024e-07
0.00371807
4.1745e-06
3.80601e-09
1.34556e-07
2.65297e-08
1.94481e-09
2.43316e-05
3.90556e-06
1.39159e-06
2.91029e-08
3.09403e-08
2.47551e-07
3.64437e-09
0.00631659
3.48032e-08
6.22977e-07
8.44129e-05
1.69298e-06
2.5059e-05
1.23023e-09
0.00449365
0.00597538
4.11553e-10
6.43477e-07
5.23982e-06
1.99416e-06
6.19466e-11
4.74688e-07
4.26461e-10
0.00500689
1.3688e-06
3.70645e-07
2.03744e-06
5.39008e-07
4.63932e-09
8.90045e-08
1.3514e-08
1.33378e-06
2.93189e-09
1.79441e-08
0.000977564
1.76096e-06
1.79239e-09
2.04643e-09
7.29645e-06
1.54113e-09
3.14536e-08
7.94041e-08
6.74841e-11
1.06014e-06
1.6672e-09
0.00138479
8.47485e-09
4.47085e-08
3.12774e-09
4.26093e-06
8.87469e-09
0.00397023
4.07428e-07
0.00416087
5.20196e-10
1.13849e-06
4.68541e-08
6.10325e-11
0.00647367
0.00251581
5.29792e-07
6.9947e-08
5.65305e-07
1.47532e-08
2.54168e-07
7.89537e-09
6.64383e-07
0.00507557
1.05644e-09
2.40119e-08
1.94945e-06
3.26102e-07
0.00098691
1.04105e-07
2.01611e-06
2.68088e-08
2.60439e-08
1.31099e-05
0.00136538
2.09254e-07
9.63165e-09
2.19702e-08
7.64073e-08
6.0323e-08
2.30972e-08
4.04139e-07
2.10503e-11
3.06183e-05
2.01964e-09
6.53011e-09
4.78999e-09
1.72949e-06
5.01977e-10
1.47419e-07
4.12039e-09
1.64527e-07
1.32609e-09
0.00205247
0.00198965
4.56747e-07
3.87143e-09
0.00108549
0.0015536
5.63403e-09
4.17634e-09
2.68755e-07
3.84472e-09
2.70396e-06
2.87771e-07
2.2972e-07
0.000795454
3.56658e-08
9.06628e-11
8.21009e-07
7.71483e-07
1.13074e-06
2.20482e-08
3.37525e-07
2.60869e-07
2.62764e-08
1.8776e-08
4.12967e-07
6.24775e-07
1.52493e-10
0.0022594
1.30676e-06
8.73493e-07
3.4475e-08
2.07428e-05
6.50415e-07
8.69422e-06
4.06066e-05
6.14519e-06
4.46503e-08
1.72179e-06
2.27617e-07
4.23094e-07
0.00205439
3.52482e-06
1.31289e-06
6.49371e-05
0.00135817
5.94466e-09
1.1492e-06
8.13621e-08
6.14398e-07
1.21684e-08
8.80352e-06
4.98167e-05
9.54649e-06
2.95272e-06
4.6278e-07
1.92218e-08
6.43032e-09
3.46183e-06
2.87546e-08
1.4508e-09
5.38829e-11
9.04462e-09
7.99877e-10
3.93426e-07
2.99646e-11
0.000651099
2.74329e-07
5.67513e-07
0.00181177
0.00563595
1.01866e-06
4.07302e-08
0.000691468
6.91673e-10
3.90162e-07
3.29101e-09
9.93162e-09
8.02063e-07
4.31006e-07
0.00208411
5.15425e-07
2.72162e-09
6.43789e-08
6.05285e-07
0.00253002
1.36866e-07
5.37341e-07
1.04079e-06
0.0034635
0.000696067
5.47187e-08
3.20009e-07
1.31935e-07
5.01781e-08
1.51406e-07
1.64689e-08
5.9316e-07
7.12325e-08
3.4628e-08
2.15243e-08
7.52384e-08
1.277e-05
5.43048e-07
6.08524e-08
7.44496e-08
1.22825e-05
2.80219e-09
9.05224e-09
2.94853e-07
8.61759e-08
3.01348e-07
1.84126e-08
7.04785e-08
3.93125e-08
5.43235e-07
3.14809e-06
2.87484e-07
5.78928e-07
3.72553e-08
9.50807e-09
6.59e-07
9.93212e-08
2.14672e-09
0.00129589
6.19742e-10
0.00241463
1.01216e-06
0.000230812
1.31871e-08
0.000492524
8.31072e-08
2.18311e-07
3.2217e-10
1.8545e-07
6.00027e-09
4.13982e-10
2.01093e-08
0.00497988
2.17318e-06
5.63259e-07
0.000762504
2.26778e-09
4.14142e-10
1.12922e-07
3.97407e-08
1.49027e-06
9.53618e-09
2.40292e-06
6.48462e-10
1.29631e-07
2.3119e-06
0.0030018
9.28322e-12
3.6806e-09
2.80993e-08
5.13325e-10
2.27505e-06
9.09726e-09
0.0010454
1.35649e-08
1.1293e-09
4.47133e-09
0.000759283
8.86506e-08
2.95696e-06
1.87251e-11
8.43334e-05
1.55811e-05
0.00323352
2.53214e-10
2.55602e-09
8.36357e-08
4.73081e-07
7.52024e-07
9.57571e-06
6.50389e-06
4.59927e-06
8.2431e-08
0.00105398
5.32369e-07
1.99498e-08
1.45574e-09
2.43676e-08
4.94185e-09
3.75248e-09
1.14168e-09
2.62803e-11
3.38845e-08
1.36255e-09
8.46568e-09
1.90342e-08
2.99202e-09
9.3438e-09
4.78415e-09
1.48027e-08
4.25629e-09
3.07233e-07
3.46481e-07
8.7515e-09
7.26044e-10
4.72422e-07
2.14756e-11
1.56309e-06
3.48062e-08
8.88446e-08
2.94568e-09
8.42196e-11
2.16517e-10
4.48838e-11
3.1743e-07
2.08896e-09
1.18509e-08
3.86037e-07
2.18255e-10
3.3926e-07
1.41936e-06
6.94438e-08
1.54526e-08
9.46703e-06
4.92318e-08
0.00443657
1.99674e-06
2.06153e-07
0.00376531
1.47798e-06
2.1591e-07
5.36163e-07
7.43138e-09
3.45385e-07
0.00169267
1.23206e-05
1.51359e-08
3.91651e-09
2.45739e-07
1.53704e-06
1.76839e-06
1.36719e-06
7.62156e-11
4.73587e-13
1.6643e-08
6.72726e-07
5.60588e-08
6.95547e-08
3.26809e-06
2.84462e-08
5.23628e-07
1.77973e-10
2.86545e-09
0.000558345
1.97951e-07
7.21703e-09
2.08349e-09
8.88758e-07
2.25533e-06
3.38362e-08
8.19122e-09
0.000759991
3.57544e-11
5.40914e-07
0.00106067
6.47977e-10
0.0012528
7.65061e-07
0.000617688
8.86028e-06
5.54332e-09
5.22352e-07
3.9586e-07
0.000852466
1.02836e-06
2.26093e-05
0.00285738
2.06293e-06
2.75758e-07
2.11226e-08
1.14898e-08
0.0085544
0.00286176
3.18691e-09
0.00418709
2.69648e-07
2.96386e-06
6.37394e-07
3.71178e-07
2.08102e-05
6.92917e-07
2.3014e-07
1.28745e-07
2.05005e-08
1.38921e-08
0.000765768
3.45323e-09
9.34469e-07
5.94084e-07
9.86691e-10
7.2533e-08
0.00383013
6.61004e-08
6.27232e-09
1.06399e-05
8.1644e-10
1.38761e-08
0.00390807
7.82923e-09
0.00328852
0.00630723
2.29293e-05
3.56426e-07
1.87596e-08
6.3111e-08
1.05075e-06
4.6351e-06
2.04022e-05
5.4055e-06
7.8858e-08
0.0007628
1.98437e-06
6.04886e-10
6.18563e-06
5.19863e-06
1.15475e-05
8.34455e-06
1.60847e-05
3.06201e-06
1.0124e-10
1.30174e-06
1.1629e-08
1.38052e-08
2.66257e-05
0.00614125
4.34606e-09
5.60772e-09
5.73058e-05
6.19543e-05
4.28052e-11
1.12021e-05
9.87509e-09
2.29623e-10
3.46081e-10
7.70032e-09
1.06429e-07
8.23865e-09
1.37146e-06
0.000856327
5.60397e-11
1.36599e-08
7.90626e-05
0.00205639
1.44437e-06
1.17677e-09
0.000544609
6.9942e-11
2.46682e-06
5.47468e-10
8.504e-10
1.07687e-05
0.00229204
4.19683e-08
2.00669e-09
3.27422e-09
0.000593828
8.50637e-09
0.000388429
4.64674e-09
2.15812e-06
1.34041e-10
3.85694e-05
4.54045e-08
4.39625e-11
1.79243e-08
9.64224e-09
2.73037e-05
1.63224e-08
3.52915e-09
3.52932e-08
8.50196e-05
0.000907108
1.32966e-06
1.05708e-05
2.04175e-05
4.01785e-09
2.253e-05
1.80574e-07
3.43639e-09
4.95054e-08
4.26242e-06
3.7988e-07
4.61098e-09
1.56696e-07
2.78685e-06
4.14137e-09
1.39829e-08
1.60516e-08
3.27018e-07
0.00125621
9.68922e-11
1.66103e-09
0.00101243
2.12153e-06
1.34492e-06
2.92168e-10
2.52245e-08
2.86022e-09
1.94918e-08
4.42602e-07
1.03696e-06
1.77557e-08
4.71778e-07
4.42307e-07
1.4681e-06
3.96949e-07
9.43842e-11
6.2408e-08
7.96171e-11
1.02846e-08
1.60388e-06
3.02075e-06
3.64075e-09
8.68102e-09
1.82258e-08
8.2141e-11
7.83124e-07
9.30201e-09
1.26601e-06
1.5274e-05
1.4276e-06
4.75069e-09
2.68725e-05
2.09853e-06
1.32144e-06
2.79204e-06
8.73426e-10
2.69193e-06
6.31698e-08
0.00217648
6.2025e-07
1.80299e-06
8.94832e-09
1.31402e-11
1.29419e-09
0.00328486
0.00125597
9.85975e-07
8.16862e-12
2.42068e-06
6.44401e-10
0.00307551
3.36709e-06
1.53398e-08
2.53497e-09
4.84877e-08
1.55983e-08
1.68602e-06
4.41286e-08
2.0988e-06
0.00558375
9.06178e-08
1.2914e-06
5.23767e-07
1.33752e-06
9.19818e-07
7.92683e-09
1.19824e-11
7.89839e-08
5.72179e-07
4.75886e-09
3.75505e-09
1.08848e-05
6.84131e-09
5.6564e-08
0.00737263
2.75986e-08
1.21747e-06
1.28033e-11
4.47412e-08
3.74183e-09
0.00590073
3.909e-10
0.00214952
0.000105603
2.36911e-06
3.2804e-07
3.02583e-07
1.7837e-05
4.60018e-08
1.03856e-07
4.8341e-08
9.08839e-09
1.2933e-08
3.82992e-08
1.52659e-06
5.64458e-08
0.00118882
4.63502e-09
9.65842e-08
5.78425e-06
9.29027e-11
7.26864e-06
4.57998e-09
8.51796e-07
1.41074e-05
2.35041e-09
4.0753e-09
1.16659e-06
9.77e-09
1.36029e-07
0.00339726
1.05077e-08
1.82405e-07
1.32825e-10
0.000778554
1.59159e-07
1.22191e-08
1.16742e-08
8.10082e-08
1.32607e-07
1.41805e-09
0.00270463
2.04103e-08
5.03803e-11
2.28466e-06
8.1888e-09
1.33354e-10
8.21188e-07
1.59411e-05
1.46842e-05
4.4182e-10
3.39734e-08
8.41871e-10
1.05091e-06
8.68549e-07
0.000643251
1.06171e-07
1.44221e-05
1.25372e-06
2.06271e-05
5.22547e-07
5.39092e-08
2.20327e-08
1.81721e-08
9.15885e-07
3.99858e-08
1.46751e-07
0.000820171
5.22385e-06
0.000801461
4.26997e-11
1.49597e-07
1.79908e-09
1.40462e-06
1.68476e-06
9.10961e-08
8.86133e-07
9.05971e-06
2.75635e-06
1.54195e-11
0.000114152
0.000144139
1.8652e-06
7.71177e-07
2.0093e-08
1.59098e-05
3.69362e-08
7.06868e-08
7.13083e-09
1.18073e-09
4.38426e-06
1.50619e-07
1.64164e-05
1.51762e-08
0.000792904
1.13406e-05
1.60457e-08
1.97321e-08
1.11949e-05
5.89121e-08
0.00104032
0.00506017
2.31433e-06
4.23493e-06
1.19541e-07
6.45477e-10
4.70343e-10
2.912e-09
1.23788e-06
8.71806e-08
0.000582785
0.00102661
5.73963e-07
4.57644e-09
5.65475e-06
0.000704161
4.61525e-07
2.11274e-05
4.42024e-05
0.000739204
0.00216267
0.000859543
2.62032e-06
1.57053e-10
3.58956e-05
3.18669e-08
3.42589e-09
4.58656e-09
5.52955e-09
5.25391e-07
1.29583e-09
3.30276e-09
1.5872e-06
2.33975e-09
2.47121e-10
1.71504e-08
3.41149e-09
0.00100099
1.11587e-07
6.18615e-07
0.00129161
0.00463907
1.99198e-09
0.00333587
3.32606e-06
0.00706029
1.90267e-07
1.37483e-09
1.65256e-09
8.1789e-07
0.00464605
3.77231e-11
2.29316e-05
2.51586e-09
1.09876e-07
2.89982e-07
2.71076e-07
2.64259e-08
5.83665e-09
0.00131169
2.5924e-09
1.08165e-07
4.74557e-09
9.23203e-09
1.60719e-08
8.88137e-06
1.64414e-06
1.98462e-08
6.54732e-06
4.09672e-07
9.89659e-09
2.31282e-06
2.20259e-08
4.24354e-07
3.8202e-09
2.33498e-09
0.00449606
0.000743948
7.84173e-06
6.0108e-09
6.77889e-10
2.94806e-08
0.0034443
8.32256e-09
2.07812e-07
1.50445e-08
4.12145e-08
5.29304e-10
0.000597322
2.59641e-06
3.21354e-09
2.06364e-08
3.2105e-07
3.16458e-09
0.00330701
3.65245e-10
0.000756226
1.55288e-06
9.27231e-08
3.19835e-10
3.52075e-08
2.49544e-08
2.47999e-09
5.32666e-08
7.49168e-08
2.24552e-11
1.22198e-10
1.73901e-06
0.00136757
2.60832e-10
6.63624e-07
7.99792e-08
1.81824e-06
5.01382e-09
0.000821963
3.21234e-08
1.14568e-06
1.02997e-06
7.66931e-09
1.13576e-06
4.87686e-08
2.95366e-07
3.46229e-09
6.45117e-09
2.56776e-07
1.39951e-09
3.29114e-06
9.95076e-07
1.25056e-09
5.76392e-09
2.67301e-06
9.50612e-06
0.00545527
2.49706e-09
1.12171e-07
3.95396e-08
6.61115e-06
3.54182e-06
5.49626e-07
1.5552e-06
0.00135973
7.67928e-08
9.54447e-07
1.41608e-05
0.0011544
1.53363e-08
9.32324e-10
7.33402e-06
2.05646e-08
0.000707509
4.9067e-09
1.98102e-07
2.29887e-08
4.36017e-09
0.00410329
1.18626e-09
1.0873e-08
1.48727e-08
4.71866e-07
0.0059882
0.000971275
8.77412e-09
2.44428e-09
7.24757e-11
1.11103e-08
1.06781e-08
1.74661e-08
2.98688e-09
1.33684e-10
3.90573e-09
1.92122e-10
5.39296e-09
0.00106599
0.000635179
2.06036e-10
2.61469e-07
4.08984e-09
8.40087e-09
2.10597e-09
0.00062297
0.0015455
1.84747e-07
4.37746e-09
1.38432e-09
1.65516e-08
3.49125e-08
8.8273e-08
5.81877e-09
6.43896e-06
4.99761e-09
5.40577e-08
9.24453e-08
3.18556e-06
9.71578e-08
1.36999e-05
4.38444e-08
4.88763e-09
8.34172e-06
7.94135e-06
6.08198e-09
4.94462e-07
6.64479e-08
2.51033e-07
8.69095e-07
2.04378e-07
7.3911e-08
3.46412e-09
0.00610379
2.17914e-08
1.11066e-06
0.00106923
2.5947e-06
2.68467e-07
3.90365e-07
1.03684e-07
9.97245e-09
5.70185e-07
1.57538e-06
1.5929e-06
8.0386e-08
8.23561e-07
8.00853e-08
3.85849e-08
1.60069e-08
1.49293e-10
7.89526e-09
5.61443e-10
9.78911e-12
2.75859e-09
1.67256e-08
1.28958e-07
2.37354e-09
3.56259e-11
8.11175e-09
3.10093e-07
6.46824e-09
2.12491e-10
1.47197e-08
4.15412e-08
2.45894e-09
1.88525e-06
1.47193e-07
0.0043644
2.2443e-09
2.05332e-07
3.68932e-07
7.94822e-08
4.00715e-10
1.04454e-08
0.00396019
9.41134e-09
2.9277e-10
6.72647e-08
0.00420283
1.65443e-08
1.12749e-06
1.11942e-06
2.99172e-08
2.18036e-07
3.33415e-07
6.92692e-06
2.67291e-10
8.80625e-07
1.0557e-07
3.5712e-09
5.21021e-06
7.24753e-06
0.00348034
1.35912e-07
3.03671e-08
1.90204e-07
7.41892e-07
2.65044e-07
1.30339e-08
4.39191e-05
3.90588e-09
1.2904e-05
6.88087e-06
0.00113131
1.42741e-07
0.0045699
4.8772e-09
1.92946e-08
1.13804e-07
4.29361e-07
9.74277e-07
7.15811e-08
2.89499e-06
9.62376e-10
1.66073e-07
4.14093e-10
2.19087e-10
2.63709e-08
7.71487e-06
5.47441e-09
3.60781e-10
8.13763e-06
5.9304e-09
9.66615e-06
5.55873e-08
1.9018e-08
4.08941e-08
3.26782e-09
3.67553e-07
9.80983e-08
3.74605e-06
9.58159e-09
1.47673e-07
6.31631e-05
3.11709e-08
3.22637e-10
2.6817e-06
6.43384e-08
6.25166e-07
8.98532e-10
0.00267491
2.29619e-06
9.74819e-07
3.85972e-08
6.27072e-09
3.79998e-06
1.19885e-07
2.99393e-09
8.05536e-11
1.2851e-06
1.40511e-06
1.57385e-06
0.003541
9.91788e-08
1.89418e-07
4.71845e-06
1.13775e-07
9.176e-08
2.84019e-08
1.23756e-06
5.1543e-08
2.26802e-06
0.00325395
2.6335e-07
3.16432e-13
5.20869e-08
1.01827e-06
3.44581e-07
5.31979e-09
1.13064e-05
1.52547e-05
8.58954e-06
1.7386e-05
3.67138e-07
9.02702e-07
3.11969e-07
3.75048e-07
6.37079e-09
4.20783e-10
0.00187557
9.50485e-06
3.50063e-08
2.56761e-05
1.0832e-07
5.23174e-07
8.93124e-06
8.64047e-08
4.97222e-08
5.96325e-08
7.12829e-10
7.82775e-07
5.89775e-07
2.28458e-06
6.33281e-07
6.16914e-09
8.48624e-09
4.19338e-07
3.20605e-08
5.50896e-10
5.99905e-06
9.24957e-08
1.82483e-07
9.59596e-07
2.8569e-08
2.81488e-09
9.77589e-06
0.00243854
1.34705e-08
4.11503e-10
1.02645e-10
0.00251019
0.0043857
6.97912e-09
0.00100116
1.61997e-07
4.46541e-07
1.4607e-07
1.80845e-07
2.64115e-07
3.77481e-07
6.05436e-07
0.00195956
0.00642232
0.00739409
2.29121e-07
6.11623e-07
3.39301e-07
1.45513e-07
0.00648441
6.28417e-10
0.00337229
6.39833e-07
6.37775e-10
6.97848e-09
1.0161e-08
7.41336e-09
1.44796e-09
3.73068e-09
1.19604e-09
0.00242401
1.22935e-09
7.5364e-07
3.6382e-06
4.29681e-10
8.98955e-08
1.24028e-07
1.32351e-07
2.05217e-09
1.08687e-05
1.03105e-07
2.08017e-08
1.48838e-06
1.02445e-07
5.94666e-07
1.89082e-07
2.01986e-08
5.77367e-09
4.20487e-07
5.96695e-05
8.96975e-07
9.557e-09
3.43112e-07
1.96551e-08
4.26433e-07
2.39074e-06
2.38278e-07
9.98913e-08
8.84651e-08
2.2281e-08
1.05918e-06
8.828e-09
2.25943e-07
0.000764449
7.35134e-06
0.00575425
1.29859e-05
1.82817e-06
2.69229e-10
0.00114893
7.89902e-10
1.27516e-06
1.34812e-07
2.46396e-07
1.62051e-06
1.13471e-08
8.28538e-09
6.95395e-07
1.90065e-08
8.47745e-10
4.4837e-07
1.23145e-08
4.53489e-07
0.00131566
4.52961e-09
6.83926e-07
2.72521e-08
2.18589e-08
3.01272e-10
4.29277e-06
1.88432e-06
6.20634e-08
7.08302e-09
2.6632e-08
0.000831531
3.94298e-06
2.20673e-07
3.16723e-07
6.50713e-11
3.71354e-12
1.35222e-08
3.10983e-10
8.65759e-07
7.05948e-09
3.94042e-07
3.61779e-08
6.25098e-09
6.76648e-08
6.45123e-10
1.09515e-06
1.53159e-06
8.29812e-07
8.67913e-09
2.08206e-09
1.99027e-08
4.39183e-08
9.92896e-06
2.89051e-08
0.00302601
4.93029e-07
3.98334e-09
6.20855e-09
4.10955e-06
3.14413e-07
1.98714e-05
3.2808e-08
1.92366e-06
0.00412893
2.62541e-10
5.75802e-06
3.58255e-07
0.000796131
2.88445e-08
0.000886352
0.00154927
2.19199e-06
1.35862e-07
3.27663e-07
8.04386e-10
2.76186e-07
4.6602e-07
6.2668e-06
3.24233e-07
9.00925e-08
4.40663e-07
7.04761e-06
6.29581e-06
8.2135e-06
2.75665e-06
1.87063e-09
1.73685e-06
1.48186e-05
1.03413e-07
6.23906e-08
4.23137e-06
3.57701e-06
2.87431e-07
3.16778e-07
4.52854e-06
2.79863e-07
7.00375e-06
4.5237e-06
3.82766e-07
6.59854e-10
6.42682e-07
8.0676e-06
0.00123974
4.73946e-08
2.13242e-08
8.07371e-07
2.70217e-08
1.41333e-06
1.51304e-08
6.82711e-06
9.79403e-09
1.62681e-06
4.50023e-09
3.19487e-09
2.39667e-07
1.64498e-05
2.30174e-05
0.00593711
2.45182e-07
2.95641e-08
1.87401e-09
7.71323e-06
4.21676e-07
0.000562506
0.00131326
1.82381e-11
1.39994e-05
1.17237e-06
7.87005e-08
1.04469e-08
2.26426e-05
2.02492e-08
0.000799701
4.04967e-09
2.73693e-10
5.27953e-07
2.03313e-08
3.62221e-08
6.92269e-07
0.00073695
3.72502e-07
1.63436e-08
1.60116e-06
0.00388351
0.000719259
1.18249e-07
5.3382e-06
4.4286e-07
1.00763e-05
7.89125e-08
0.000698385
9.0272e-07
3.50686e-06
3.01349e-09
8.45199e-09
8.68506e-08
1.39715e-08
3.85241e-07
3.30992e-08
1.22129e-08
4.59472e-08
8.35965e-08
1.7967e-06
5.4613e-10
1.19254e-08
0.00134083
1.64524e-10
1.63486e-09
8.06069e-07
8.48938e-09
4.37371e-06
6.2454e-07
0.00110274
3.91667e-07
0.00458851
2.78702e-07
3.58439e-07
0.000745019
3.12651e-06
9.30562e-12
1.67907e-08
0.000523479
2.51091e-07
1.5711e-06
3.27643e-07
1.41045e-09
1.32614e-07
1.49883e-07
1.98678e-08
0.00228476
3.5587e-08
2.28851e-08
5.63134e-08
1.2292e-08
1.09894e-09
1.71787e-06
5.9476e-08
0.00485433
1.63212e-06
6.39402e-07
7.87475e-07
1.00372e-06
3.61332e-07
6.03389e-08
1.13792e-10
9.99689e-09
1.55947e-06
3.8213e-07
7.32512e-08
5.62865e-09
2.98494e-07
1.81991e-08
1.03195e-06
6.23541e-09
1.30002e-08
2.87094e-08
5.84481e-07
4.24879e-07
6.36968e-07
4.67476e-09
4.95539e-09
3.21738e-05
7.02168e-09
1.50136e-09
1.5801e-10
2.22572e-08
0.00544391
5.28642e-09
3.29124e-06
1.29048e-06
4.29386e-07
3.08319e-09
1.73162e-08
3.86285e-06
1.41169e-07
4.81036e-09
7.90407e-07
2.18461e-09
1.67536e-09
5.80034e-10
1.53468e-06
4.88521e-09
0.00576588
9.2882e-06
6.90875e-07
3.44012e-05
9.49289e-09
2.41286e-07
9.5196e-10
0.00110659
1.57437e-07
1.07724e-07
3.35429e-08
2.09854e-08
1.25708e-09
0.00844833
3.33484e-07
8.61875e-06
1.20688e-06
1.38206e-08
0.0021837
1.56416e-08
6.42363e-09
1.05894e-08
1.02922e-08
4.66214e-07
5.51689e-09
4.7102e-07
6.08356e-07
9.62377e-06
5.56725e-08
3.11038e-10
3.21115e-06
9.56839e-09
0.00272354
5.29351e-08
5.97009e-09
2.78191e-08
3.58728e-07
0.00114294
0.000558916
3.42235e-07
9.46132e-07
0.00167381
6.03854e-08
5.72719e-07
0.000784295
2.25371e-07
5.96185e-08
0.00304179
0.000348768
1.71452e-07
6.4014e-07
1.73905e-09
7.35357e-07
3.02613e-05
1.7772e-07
1.81365e-07
6.50266e-06
3.38247e-10
0.000430889
2.54725e-09
4.98919e-07
0.00343858
2.60003e-09
2.21632e-07
1.067e-07
9.00743e-09
1.02595e-08
9.88501e-07
1.22238e-08
2.79608e-09
6.11264e-07
2.1466e-07
8.84011e-10
0.000432151
0.000820545
1.91646e-07
7.19301e-12
1.36575e-10
2.60489e-06
2.90521e-07
9.35998e-08
5.19467e-09
1.00434e-08
2.49143e-06
1.38823e-06
8.75611e-07
1.64285e-06
0.00659463
1.21956e-10
0.00260674
1.59031e-07
4.31184e-08
0.000939761
2.85964e-08
9.87108e-10
0.000426421
7.36676e-11
1.26817e-07
1.06579e-07
5.40719e-08
1.72486e-08
6.51291e-09
1.80105e-10
6.29351e-10
3.69328e-07
0.00231333
0.00382687
5.75202e-07
6.75107e-08
4.82368e-12
0.00104275
0.00397845
5.77777e-06
2.47521e-08
6.38748e-09
2.16713e-05
4.02859e-06
3.63157e-09
5.83981e-10
1.67347e-08
1.28484e-07
2.39199e-09
1.75694e-07
1.41319e-06
0.00111285
0.00384812
9.16206e-07
1.42137e-05
2.25585e-10
1.16984e-08
4.91379e-07
2.42411e-06
5.28972e-07
7.85377e-06
2.11429e-07
2.54988e-07
2.05643e-09
9.66439e-09
2.76933e-07
0.00108574
1.09244e-08
0.00317438
7.82626e-10
2.07331e-07
4.47334e-08
3.4568e-07
5.86589e-10
3.31934e-11
1.10138e-08
1.16957e-09
4.85156e-08
6.03021e-06
6.59385e-09
0.000690416
3.40784e-07
0.00280652
2.19393e-08
4.61478e-08
3.05017e-08
3.81939e-08
2.04171e-07
2.24003e-10
1.01457e-09
8.57344e-10
7.27356e-08
1.52533e-07
0.000963345
0.000937473
1.18688e-07
1.54166e-08
1.07533e-10
5.39777e-11
4.35408e-10
2.08398e-08
3.61911e-06
7.57939e-09
3.05878e-10
1.05101e-10
0.000407931
7.51084e-07
9.11072e-07
0.000756395
1.42435e-08
0.00550668
1.49301e-07
1.44548e-08
1.79342e-11
4.84748e-09
0.00100054
1.55907e-11
4.42556e-07
9.06416e-10
1.13583e-05
7.73156e-07
1.62427e-06
2.42107e-06
4.98567e-07
6.90783e-10
4.40334e-10
0.00633571
6.91687e-07
6.08646e-07
4.40121e-06
1.6287e-08
1.62973e-06
1.58799e-06
5.14413e-08
9.24166e-08
5.74623e-06
6.28215e-09
1.19673e-05
0.000728443
3.6958e-08
6.9625e-09
1.45688e-06
1.46532e-08
0.000635782
0.00336588
4.33593e-07
7.59395e-10
6.83003e-05
5.82857e-09
2.46653e-07
3.48241e-08
2.34417e-06
4.85175e-11
1.73522e-05
1.71912e-06
2.52807e-06
4.54226e-07
2.12356e-06
5.06735e-07
1.17841e-07
2.67018e-11
3.2108e-06
1.15481e-06
1.09076e-06
2.0784e-08
1.71512e-07
2.10625e-06
7.79478e-06
1.93287e-10
3.86402e-10
1.62305e-09
1.91089e-11
2.18034e-09
0.000395297
8.02083e-06
2.52284e-06
1.20199e-06
3.75194e-06
1.65223e-06
6.36336e-12
3.36062e-07
3.70522e-10
9.48065e-09
1.46113e-09
4.21043e-07
3.81607e-05
4.10559e-07
2.38975e-09
4.7548e-09
2.99565e-08
7.5198e-09
2.59881e-09
0.00259587
1.94035e-07
1.16484e-05
1.77175e-05
1.29952e-05
1.30877e-09
1.0025e-05
1.21771e-05
2.26032e-05
1.24359e-05
6.4002e-10
4.28321e-11
3.10532e-08
2.15213e-07
1.19077e-06
6.35974e-06
0.000705775
4.17314e-07
5.62749e-07
7.35502e-08
1.02198e-05
3.9436e-09
9.5451e-11
2.13246e-06
7.02851e-06
0.000488565
2.22182e-10
0.00207786
2.09e-06
1.43973e-08
1.50484e-06
1.02166e-07
2.14084e-06
4.95472e-08
2.06574e-06
5.76525e-09
1.55182e-07
3.9912e-05
7.83363e-07
1.47171e-08
3.23051e-05
9.40567e-07
1.83632e-07
6.01993e-05
1.35656e-09
1.98903e-07
9.40351e-07
1.68711e-06
1.25956e-08
0.00338192
2.69001e-09
2.8886e-08
4.13521e-09
0.00208606
0.00207003
4.50692e-08
5.01348e-08
3.07133e-06
0.00102865
1.07465e-08
1.68946e-07
4.93089e-07
2.05198e-07
2.62813e-08
0.00356766
1.97507e-07
3.59111e-07
7.67554e-05
1.50094e-09
1.15975e-07
3.40884e-08
4.43948e-08
5.09461e-10
4.54154e-05
6.63965e-05
1.66251e-09
2.13121e-08
3.11224e-08
1.76553e-06
3.51791e-10
0.000737169
1.08869e-08
2.26061e-07
1.4625e-08
1.37192e-08
4.61689e-08
7.36614e-07
2.97721e-08
9.28542e-08
4.24939e-06
2.31394e-08
2.60821e-08
0.000800092
2.16852e-08
5.55336e-08
5.90132e-08
4.21963e-07
3.33455e-11
4.69065e-10
4.48111e-11
1.87125e-07
1.16913e-08
0.00112139
3.60702e-07
3.27336e-07
8.91567e-10
4.38816e-07
0.00206864
1.65391e-06
1.98604e-07
9.68586e-07
2.05212e-07
6.26305e-09
6.96296e-09
3.75728e-07
3.3699e-08
4.73326e-08
8.83358e-06
1.5213e-07
2.09589e-09
5.70251e-09
2.98223e-08
1.33329e-08
1.20663e-07
9.55912e-10
1.26217e-07
2.7963e-07
5.06407e-09
2.66545e-11
0.000852916
1.42989e-10
1.15013e-10
4.7896e-07
0.00105457
4.8494e-07
3.96073e-08
6.22959e-10
2.42699e-07
1.02614e-07
5.21742e-07
9.34678e-08
1.97814e-09
3.28838e-08
1.45005e-08
1.04008e-07
1.10749e-09
6.67972e-10
8.25229e-09
5.42396e-08
3.48873e-07
2.57226e-08
3.60499e-09
1.29795e-07
1.11883e-06
2.62941e-09
5.76055e-07
9.94577e-09
1.7125e-08
5.81744e-10
9.62694e-07
2.95042e-09
3.65329e-07
5.40694e-11
4.53826e-07
5.23072e-10
2.94457e-08
6.10217e-06
2.52715e-09
1.09316e-09
0.00126332
9.73348e-10
0.00104101
9.97338e-09
1.17312e-08
2.01357e-07
4.19116e-07
0.000774573
1.50071e-06
0.000922697
0.001121
1.80869e-06
1.85603e-07
0.000752149
1.91854e-07
5.06581e-10
3.79078e-07
0.00236723
0.000688219
0.000781297
5.68149e-10
1.98957e-07
1.50529e-10
1.18417e-07
1.79494e-08
1.23551e-07
3.13763e-06
1.56052e-07
1.97052e-08
3.9544e-09
6.64041e-08
5.39832e-06
1.18781e-09
1.90055e-07
6.26245e-07
3.95825e-08
1.26245e-11
1.19977e-06
6.27075e-07
6.02292e-07
4.0157e-07
4.01275e-07
9.31632e-08
2.97738e-07
2.81383e-06
1.57825e-07
1.15204e-07
2.23346e-06
8.30771e-06
1.35301e-10
1.76945e-08
3.88233e-09
1.06401e-06
1.86417e-09
4.95833e-08
6.26992e-12
7.42218e-06
0.00693056
0.00150821
2.55843e-06
3.87129e-10
2.05923e-07
0.000918471
0.00179212
2.34876e-08
4.88498e-06
4.85169e-08
1.07388e-08
7.58307e-09
2.39746e-09
2.79476e-07
7.60745e-07
8.72579e-09
8.64715e-10
2.98632e-07
1.05493e-08
0.00311376
0.00100849
2.14006e-07
2.30865e-10
3.06675e-09
0.000786964
4.7612e-10
5.16115e-07
1.01018e-08
1.08499e-05
3.2673e-10
1.28377e-07
8.15655e-09
3.82788e-09
2.00119e-05
0.00268426
0.0012055
2.50453e-08
0.00127911
7.0115e-10
2.54623e-07
2.97506e-08
0.00200999
7.81555e-09
3.06324e-06
4.26216e-10
5.40519e-08
4.9653e-06
2.64173e-08
2.71782e-06
4.83145e-09
1.5691e-07
6.06437e-07
2.99232e-07
7.60942e-08
1.08685e-08
7.12519e-09
6.05366e-08
2.41307e-08
4.17898e-09
2.49415e-09
0.0012514
0.000691131
2.81533e-09
0.00139196
2.05243e-10
5.59858e-09
7.48514e-07
1.18516e-08
1.03072e-10
0.000647777
2.37352e-09
6.85767e-11
1.07614e-05
1.5854e-10
3.03639e-11
1.03733e-06
0.00156448
3.75831e-09
0.000694135
7.75984e-10
3.88414e-08
0.00083276
1.24154e-07
1.68279e-05
2.01034e-11
3.01924e-09
2.30391e-08
3.89067e-09
0.0036956
0.000756747
1.95408e-06
8.65681e-10
0.000864218
1.62506e-10
6.54972e-09
8.56735e-10
0.00174689
3.41338e-05
2.74064e-07
2.50257e-11
1.7282e-08
0.000899341
1.86055e-05
7.58578e-09
4.71339e-06
0.00185109
0.00143098
6.49305e-07
0.0014491
1.8165e-05
0.000795288
7.25282e-07
0.0011414
6.00414e-06
7.80337e-08
3.51825e-08
4.33387e-08
7.83314e-06
1.64264e-05
9.5641e-11
1.05866e-07
1.8535e-09
7.52003e-07
1.57785e-07
2.78274e-08
1.62322e-07
5.40022e-06
4.61286e-09
1.77119e-07
6.8803e-09
4.77509e-10
1.89656e-09
8.87839e-10
8.9109e-08
1.99851e-09
1.33052e-08
2.06011e-09
2.65227e-07
7.62751e-07
7.28965e-11
4.80493e-11
1.06654e-09
2.17915e-09
2.23807e-08
2.10658e-05
4.00915e-05
1.91197e-06
1.35686e-10
5.59262e-07
1.48545e-07
0.000861766
5.27998e-07
3.00427e-07
9.40545e-09
1.6766e-08
5.0765e-08
3.91888e-06
2.01238e-06
0.00315638
0.00124968
1.46564e-09
1.42305e-05
5.5301e-06
8.49907e-10
4.69961e-08
8.98513e-08
1.92477e-09
3.88444e-08
7.67387e-08
0.00115007
2.67769e-11
1.56206e-06
3.07221e-09
0.000814037
9.76046e-07
0.000664158
6.22969e-07
8.43208e-10
1.15714e-09
8.8698e-09
4.84291e-07
3.43917e-07
7.20724e-08
1.6044e-07
1.90728e-08
1.44474e-05
5.34466e-06
2.51972e-10
2.01352e-06
9.61479e-07
8.44414e-07
1.70564e-06
5.71592e-05
8.0971e-08
0.00169897