/*--------------------------------*- C++ -*----------------------------------*\
  =========                 |
  \\      /  F ield         | OpenFOAM: The Open Source CFD Toolbox
   \\    /   O peration     | Website:  https://openfoam.org
    \\  /    A nd           | Version:  10
     \\/     M anipulation  |
\*---------------------------------------------------------------------------*/
FoamFile
{
    format      ascii;
    class       volScalarField;
    location    "1.5";
    object      SgRate;
}
// * * * * * * * * * * * * * * * * * * * * * * * * * * * * * * * * * * * * * //

dimensions      [1 -1 -3 -1 0 0 0];

internalField   nonuniform List<scalar> 
111485
(
2.48913e-07
2.24294e-07
6.84392e-07
5.12285e-07
1.42758e-06
1.52122e-07
5.32752e-07
1.90313e-07
5.39763e-07
5.13523e-07
9.91877e-07
4.54806e-07
7.45461e-07
0.0262184
1.35882e-07
3.47618e-07
0.0191082
0.000112579
1.5478e-07
5.32111e-07
0.00379677
1.98615e-07
1.91066e-07
3.73053e-07
2.4694e-06
2.89311e-07
6.17191e-07
1.04533e-06
4.84951e-07
0.0049829
9.00629e-07
6.99882e-07
2.22069e-07
7.17118e-07
5.41085e-05
9.21472e-06
0.0119863
0.019097
0.00022553
9.02604e-07
0.00356832
2.16264e-06
2.76214e-07
2.8424e-07
2.06532e-06
1.60991e-06
1.34417e-07
3.36357e-07
5.7964e-07
9.10886e-07
6.80956e-07
7.82715e-07
2.46647e-07
3.4655e-07
1.10591e-06
6.68419e-07
4.95988e-07
1.54405e-06
2.45474e-07
9.39195e-08
1.9833e-07
3.6694e-07
1.37616e-06
8.89359e-08
1.06557e-06
1.33817e-07
3.77555e-05
1.12129e-07
9.77256e-07
5.06625e-07
1.00084e-06
4.87157e-07
1.76555e-06
1.85461e-06
0.00476519
5.70734e-07
2.56326e-07
2.79592e-07
3.67562e-07
3.10395e-06
0.0247007
0.0446888
9.47209e-07
0.111689
1.00643e-06
1.13187e-06
0.0128669
1.87645e-07
9.8615e-07
3.73282e-07
1.20603e-07
2.9279e-07
5.64e-07
2.77996e-06
4.75656e-07
0.0574146
0.00267711
2.60919e-07
0.00012654
7.32738e-07
2.84916e-07
1.08393e-06
2.95458e-07
1.13241e-07
5.14161e-07
2.24036e-06
2.56442e-07
3.39379e-07
2.23229e-06
2.87277e-05
6.11747e-07
1.04608e-07
1.97511e-07
1.63958e-06
5.88763e-07
4.92582e-07
2.45684e-07
1.595e-06
3.40001e-07
6.7581e-07
1.16343e-07
2.20312e-05
0.00638227
8.0334e-07
2.35454e-07
0.00303667
1.05156e-05
6.12528e-08
0.000142642
1.6034e-05
6.09294e-07
4.49203e-07
0.114375
1.84723e-05
9.53134e-06
4.86684e-07
2.90603e-07
7.3634e-07
1.04716e-06
3.32515e-06
3.66144e-07
1.40853e-06
0.0162334
2.18111e-07
3.61894e-07
3.69047e-07
4.8673e-06
0.0364606
4.1357e-07
2.99614e-07
7.46117e-07
0.00285877
0.0233115
4.75647e-07
9.13081e-06
9.2628e-08
4.62782e-07
6.22671e-07
4.80047e-05
8.5517e-07
2.44904e-07
2.46443e-07
1.04202e-06
9.1296e-06
4.43541e-06
1.23354e-06
3.66007e-07
0.00229771
8.00315e-05
7.79823e-06
4.21742e-07
0.00209721
0.0246993
6.78382e-07
2.49459e-07
1.55331e-07
6.53959e-07
1.07826e-06
3.70534e-07
8.20897e-07
1.95375e-06
3.10525e-07
3.11693e-07
3.46205e-07
6.02582e-07
3.30898e-06
4.02525e-07
2.06253e-07
1.0807e-07
1.10453e-07
5.9416e-07
6.31049e-07
2.10912e-06
6.69966e-07
3.21813e-07
2.06455e-07
6.03569e-07
1.38704e-06
0.00296755
3.13249e-07
4.1294e-07
0.000160107
5.56711e-07
1.05387e-07
3.39924e-07
1.75362e-07
2.98889e-07
7.46197e-07
1.47673e-07
2.23359e-07
4.06491e-07
9.25619e-07
6.74351e-07
7.30132e-07
2.29675e-07
2.59569e-05
2.18713e-07
1.02888e-06
1.38261e-07
5.4048e-07
2.19889e-07
6.60821e-07
3.64943e-07
2.71369e-06
3.00971e-05
4.87637e-07
2.92374e-07
6.08421e-07
0.000191969
3.89774e-06
7.51535e-06
5.25797e-07
3.56336e-07
0.0124747
3.27462e-06
2.50068e-06
0.0155338
5.39082e-05
4.60038e-07
2.50818e-07
8.19647e-07
1.67134e-07
6.34969e-07
2.29386e-06
1.44731e-06
2.55731e-07
1.6631e-06
8.26233e-06
3.04758e-07
0.0116692
2.21162e-06
3.61428e-07
3.18093e-07
0.0114543
2.8414e-05
2.08593e-07
4.88638e-07
1.05334e-05
0.00959157
3.72798e-07
3.29855e-07
1.01111e-06
7.89906e-08
4.00311e-07
1.89432e-06
1.57587e-07
5.27005e-08
2.7056e-05
0.0288795
8.56597e-07
2.86791e-07
3.56102e-07
0.0148935
1.51475e-07
1.74799e-07
1.67196e-06
9.36943e-07
1.93166e-07
1.18699e-07
0.00113167
0.0240218
3.34553e-07
4.28803e-06
2.53065e-07
5.71032e-07
0.0193369
0.0231208
9.20094e-08
1.51798e-06
2.229e-07
4.9653e-08
3.15032e-07
3.83077e-08
2.11963e-06
3.33585e-07
7.97046e-07
3.29008e-05
3.75422e-05
6.99405e-07
3.88394e-07
0.0297293
5.04332e-07
0.0072118
1.38215e-07
3.63886e-07
5.36726e-07
6.86235e-07
0.00252105
1.30173e-07
6.59634e-07
2.14109e-07
9.83763e-07
2.755e-07
5.58562e-06
1.24966e-08
0.179996
2.86931e-07
0.00041384
0.0235269
3.54018e-07
2.36031e-06
8.78129e-07
2.24523e-07
1.51017e-06
8.82383e-06
1.80029e-06
4.41495e-07
8.66208e-07
4.67374e-07
1.25509e-05
0.00610762
7.86437e-08
4.16457e-07
4.65386e-07
8.71577e-07
0.0042481
5.16288e-06
7.30308e-07
9.09354e-07
6.81296e-07
1.10634e-07
6.63482e-07
0.0134132
1.70745e-06
5.99937e-07
9.54196e-07
2.02186e-05
2.15246e-07
0.00335196
4.6633e-07
5.60833e-08
8.06717e-07
1.62042e-08
6.59557e-07
4.59057e-06
0.0951048
7.45579e-07
1.15129e-06
5.12165e-07
0.0315083
1.02558e-06
5.49643e-07
0.00455204
3.86244e-07
1.17511e-06
3.137e-07
4.91771e-07
0.00502758
5.44429e-05
0.00431782
0.00422871
5.66098e-07
7.90318e-07
8.54977e-08
6.85828e-07
7.1487e-07
8.8244e-07
4.09449e-07
2.47732e-06
9.89321e-07
1.58119e-07
3.04821e-07
3.196e-07
4.1092e-07
8.00424e-07
2.86973e-06
0.0141464
5.57135e-07
2.44659e-06
9.43607e-07
7.1017e-07
0.00257286
2.10643e-07
3.99634e-07
0.013709
2.25996e-07
0.026449
2.24844e-07
7.10222e-07
6.80637e-07
4.13745e-07
6.66853e-06
2.28818e-07
6.15056e-07
0.00327092
3.30814e-07
3.28274e-07
5.46797e-07
1.48646e-06
8.28423e-05
3.91893e-07
5.56446e-07
2.10154e-06
6.12939e-07
1.45622e-06
4.92425e-07
0.020833
2.14035e-06
2.75683e-07
1.02679e-05
4.95775e-08
1.04389e-05
1.24301e-07
5.29241e-07
9.45084e-07
0.00011025
3.57698e-06
0.0178686
1.33991e-05
2.64659e-07
1.57411e-06
3.55907e-07
6.55159e-07
0.000107531
2.63429e-07
7.85542e-06
9.02717e-08
2.43106e-07
8.61427e-07
6.3018e-07
0.0306751
4.50784e-07
2.11772e-06
0.000104572
1.26612e-05
5.01895e-05
0.0119091
0.0252836
0.0285918
5.70556e-07
4.30352e-07
1.59267e-07
8.91076e-06
3.46143e-07
2.29305e-06
5.59293e-08
0.0260124
7.55189e-06
1.44337e-07
8.46745e-07
9.63163e-07
2.94516e-07
1.44539e-07
3.26409e-07
1.9516e-07
4.62857e-07
3.72587e-07
0.00564132
1.23686e-06
0.0614733
1.8448e-07
2.42373e-05
2.62251e-07
1.53664e-06
3.61705e-07
4.79461e-07
4.67031e-06
1.32735e-06
0.00750213
8.67424e-07
0.0498203
1.53599e-07
6.8564e-07
5.51712e-07
0.0233049
2.85647e-07
0.0201425
1.32156e-06
6.23068e-07
4.84191e-07
7.0282e-07
0.0321086
0.0124623
1.89466e-07
7.16452e-07
4.4705e-06
1.05398e-07
1.8959e-07
1.91042e-07
8.51278e-06
0.0240874
0.000919709
1.55518e-07
5.86044e-06
2.83049e-07
0.00501424
2.81953e-07
1.00419e-05
2.41285e-07
5.94008e-07
3.38753e-05
0.00677754
5.10934e-06
1.61912e-07
9.15241e-08
1.81285e-07
2.7193e-06
1.86637e-07
2.64873e-06
3.11867e-07
7.79673e-05
3.9193e-07
6.98055e-08
7.65572e-07
1.08513e-06
2.95389e-07
2.886e-07
5.10321e-07
4.25999e-07
1.32406e-07
0.0111406
0.0176453
5.69426e-07
2.66209e-07
0.00553353
0.00888154
7.49721e-08
5.20266e-07
1.196e-06
1.35122e-06
1.47999e-07
2.27177e-06
2.43317e-07
0.00431637
5.98508e-07
6.25343e-07
3.52496e-06
2.87162e-06
5.65582e-07
6.83735e-07
1.57205e-07
1.57237e-07
2.47601e-07
7.70237e-07
7.72203e-07
7.45429e-07
4.80768e-07
0.0144445
1.63873e-07
6.52506e-07
4.60767e-07
9.95893e-05
7.91221e-07
1.80301e-06
0.00026832
2.57397e-05
4.0332e-07
1.10691e-06
1.06238e-06
4.73389e-07
0.0099702
1.36095e-05
8.98514e-06
0.000176714
0.00726816
4.93306e-07
1.74936e-07
1.52798e-06
5.55275e-06
8.83658e-07
5.34164e-05
0.000142559
4.06045e-05
1.77535e-05
4.07008e-06
4.70627e-07
1.18991e-06
1.85213e-05
4.31519e-07
9.65522e-07
2.58224e-06
4.03327e-07
1.45829e-07
4.97353e-06
2.07798e-06
0.00332549
3.01512e-07
1.44356e-07
0.00983735
0.0283875
7.94791e-06
4.15927e-07
0.00378839
4.60036e-07
1.21566e-06
5.64716e-07
7.47239e-07
4.44293e-06
1.02621e-06
0.010874
3.53561e-07
3.18406e-07
4.95472e-07
1.38175e-06
0.0131917
7.87652e-07
1.16037e-06
2.3228e-06
0.0218655
0.00353517
4.27903e-07
4.89123e-07
1.2288e-06
9.99846e-08
1.33237e-06
1.55826e-06
2.29721e-06
3.03629e-07
8.2148e-07
0.0876285
2.97507e-07
3.37395e-07
3.56442e-06
4.9547e-07
3.11341e-07
6.16519e-05
2.03731e-07
3.40249e-07
1.13941e-06
9.66205e-07
6.93988e-07
4.12001e-07
5.97764e-07
9.01554e-07
3.75411e-07
1.51656e-05
3.34967e-07
3.50703e-07
3.73151e-07
8.37533e-07
3.15815e-06
1.26989e-06
3.20364e-07
0.00669156
3.30806e-07
0.0162644
5.43021e-06
0.000826607
1.14673e-06
0.00246158
1.61736e-07
3.96548e-07
4.32172e-07
2.66784e-07
3.019e-07
8.16291e-06
4.51585e-06
0.0236059
2.64148e-07
2.99003e-06
0.00391861
4.00074e-07
1.84584e-07
2.08957e-07
2.51995e-07
1.02504e-05
3.14852e-07
5.41564e-06
6.31239e-07
9.16824e-08
1.92115e-07
0.0145402
1.54489e-06
6.0901e-07
1.52595e-06
6.70375e-07
1.34503e-05
6.6092e-07
0.00529826
8.50459e-07
0.0210245
9.76519e-07
0.00386237
2.91038e-07
4.05486e-07
5.18986e-07
0.000486855
7.71439e-05
0.0160828
8.49342e-07
3.47231e-07
6.65316e-07
6.45877e-07
7.83141e-06
5.83032e-05
3.58317e-05
2.64348e-07
1.22407e-06
0.0054022
2.21039e-07
2.34847e-07
5.56752e-07
3.90153e-07
6.77459e-07
2.98757e-07
3.50981e-07
1.70731e-06
1.69251e-07
5.94441e-07
5.60125e-07
2.77734e-07
1.3417e-07
1.44806e-07
1.00967e-06
1.34877e-06
5.13637e-07
9.1695e-08
1.16902e-06
1.4311e-06
1.00279e-06
3.3246e-07
0.034928
1.92622e-07
5.31403e-07
1.5507e-07
3.39751e-06
3.1232e-07
1.02277e-06
2.09477e-07
1.67351e-07
6.91011e-07
7.3148e-07
2.06868e-07
3.0384e-07
4.21583e-07
3.50866e-07
4.09191e-07
2.88535e-07
5.90774e-05
5.38252e-07
0.0210436
1.96505e-07
3.15079e-07
0.0206271
9.46223e-06
1.93177e-07
1.46617e-07
5.74555e-07
6.03464e-07
0.0118497
6.05691e-05
2.21408e-07
6.36795e-07
1.97313e-07
5.2786e-07
2.13262e-07
5.04701e-06
4.53974e-07
4.6355e-07
3.06254e-07
4.09052e-06
1.0832e-07
1.17266e-06
5.26135e-07
5.77009e-07
1.87404e-07
2.47449e-06
3.1785e-07
0.00283481
1.9279e-06
1.98041e-07
2.87373e-07
9.9374e-06
4.06463e-06
7.03936e-07
2.49574e-06
0.00418086
9.72868e-07
5.11054e-07
0.00545765
2.15868e-07
0.00662042
7.12163e-06
0.00314621
4.51095e-05
3.4757e-07
4.62395e-07
9.61856e-07
0.0046527
3.37036e-07
0.000112886
0.0152029
8.21787e-06
3.39531e-07
1.90923e-07
2.55481e-06
0.0401831
0.0150883
0.0780755
0.0212059
6.81241e-07
1.48999e-05
9.68429e-07
9.52874e-08
1.12044e-05
5.25629e-07
3.59128e-07
3.89648e-07
6.87513e-07
8.73383e-07
0.00383772
2.62963e-07
7.033e-07
4.95081e-07
1.09081e-06
1.81376e-07
0.0181456
1.68619e-06
4.59979e-07
3.89822e-06
1.83468e-07
9.89941e-07
0.0186519
5.99693e-07
0.0171063
0.0300286
7.94153e-06
1.68601e-06
8.85638e-07
1.22374e-06
1.18981e-06
2.91247e-05
4.27788e-05
3.92246e-07
8.99641e-07
0.0039741
1.87989e-07
1.53401e-07
7.63979e-07
5.41351e-07
5.49102e-05
3.90244e-05
6.52968e-05
1.27422e-05
2.50163e-07
9.99714e-06
2.5381e-06
2.04847e-05
0.000158491
0.0296478
4.68792e-07
2.70884e-07
0.000268151
9.99097e-05
3.17607e-07
9.88418e-06
7.34791e-07
6.55155e-08
1.06853e-05
2.14348e-07
1.00381e-06
0.0162551
6.19841e-07
0.00442408
6.01835e-07
1.09074e-06
0.000430846
0.0110868
3.34265e-07
1.40717e-06
0.00272857
5.567e-07
1.65313e-06
7.92768e-08
6.33964e-07
6.46328e-05
0.0106133
8.46461e-07
2.33677e-07
4.61151e-07
0.00311512
2.09767e-07
0.0019687
6.77729e-07
2.38176e-06
1.94457e-07
3.80655e-05
7.76602e-07
4.29669e-07
1.63788e-06
2.71494e-07
3.17953e-05
1.97498e-06
2.90954e-07
4.96433e-07
0.000146654
0.00456571
2.55726e-07
6.66581e-07
1.88874e-05
1.02745e-06
0.000125973
2.40975e-07
7.63288e-07
3.92473e-07
2.36752e-06
5.4048e-07
1.51567e-06
9.81851e-07
2.52263e-05
5.89396e-07
1.52349e-06
1.61845e-06
1.01543e-06
0.00852607
1.80884e-07
1.30652e-06
0.00522174
1.52662e-05
7.51654e-06
5.46528e-07
2.84468e-07
1.22525e-06
3.76752e-07
1.93217e-06
1.7059e-07
1.27992e-07
4.65558e-07
3.92484e-06
3.39969e-07
3.33287e-06
1.12653e-06
2.17707e-06
6.51733e-07
2.39589e-07
2.15915e-06
1.39925e-05
2.7375e-07
1.2284e-07
8.22643e-07
6.89634e-07
1.00438e-05
6.62784e-07
5.69332e-07
6.56965e-05
8.68497e-07
7.45022e-08
2.33518e-06
2.54515e-07
7.60411e-06
5.13349e-07
5.67916e-07
2.7844e-07
3.93263e-07
0.0107338
1.19453e-06
1.07007e-06
4.76585e-07
2.44787e-07
3.48243e-07
0.0245035
0.0062968
1.09572e-06
4.53681e-07
1.89472e-05
5.94795e-07
0.0143596
1.01695e-06
1.24345e-06
4.53609e-07
5.22769e-06
4.35423e-07
7.73507e-07
8.48842e-07
6.97278e-06
0.0278989
3.96013e-07
8.38997e-06
6.83059e-06
8.51413e-06
1.08198e-05
5.05088e-07
1.27154e-06
4.63046e-07
5.02576e-07
5.21445e-07
5.4037e-07
2.82209e-05
6.8799e-07
1.22245e-06
0.0436025
7.61687e-07
3.58136e-07
6.13432e-07
8.32485e-07
9.26824e-07
0.0344822
2.44313e-07
0.0119958
0.000154272
6.89558e-07
3.96246e-07
7.77124e-07
8.83167e-05
6.32811e-07
4.21882e-07
1.24494e-06
3.79078e-07
3.90456e-07
1.72327e-06
7.82707e-06
1.00939e-06
0.00594447
2.21283e-07
4.39064e-07
2.34393e-07
8.59188e-07
4.95611e-05
5.15342e-07
7.62197e-07
2.10165e-05
5.82252e-07
1.42345e-07
4.07832e-07
1.17622e-06
7.78292e-08
0.0164864
3.92232e-07
3.90857e-07
2.08637e-06
0.00397423
1.34475e-06
1.80512e-06
2.06006e-07
1.44668e-06
8.49648e-07
3.87869e-07
0.0153384
8.73486e-07
1.09925e-07
4.86383e-07
8.87944e-07
4.33292e-07
5.27797e-08
5.91464e-08
6.54733e-05
6.0686e-07
5.19752e-07
4.67386e-07
4.45695e-07
5.38748e-06
0.00328087
3.30883e-06
7.35392e-05
7.18562e-06
8.44792e-05
7.53335e-06
7.89538e-07
5.70539e-07
1.21751e-06
2.75526e-07
1.91773e-07
1.718e-07
0.00419228
4.2438e-06
0.00409622
4.36562e-07
4.66497e-07
9.93418e-07
9.48507e-06
1.80916e-06
1.31865e-07
9.17903e-07
2.03835e-05
1.34132e-07
2.26339e-07
0.000356552
0.000521626
2.02888e-07
4.23809e-07
1.47359e-06
8.42168e-05
4.01853e-07
1.60287e-07
2.87962e-07
1.95778e-07
1.11642e-05
5.59794e-07
6.17991e-05
6.88416e-07
0.00399288
5.57034e-07
7.38024e-07
4.6334e-07
5.49822e-07
1.11388e-06
0.0056608
0.023973
2.35136e-07
2.54653e-07
2.1374e-06
4.21137e-07
5.56755e-07
3.89328e-06
7.21652e-06
3.64547e-07
0.00304245
0.00568774
2.95082e-07
1.53127e-06
2.76481e-05
0.00370046
3.79842e-06
0.000125406
0.000271913
0.00369588
0.0146551
0.00437154
4.20581e-07
4.61119e-07
0.000207652
1.12034e-06
2.15773e-07
4.87878e-07
1.27428e-06
2.23251e-07
8.37945e-07
3.2423e-07
6.65345e-06
6.65398e-07
3.09324e-07
1.12756e-06
5.31015e-07
0.00507263
7.10524e-06
7.02996e-08
0.00649109
0.0247795
1.97246e-06
0.0178542
9.43683e-06
0.0334942
2.20775e-07
2.07431e-07
2.6436e-07
3.23797e-07
0.0258437
0.000211829
1.83519e-06
6.23056e-07
2.78931e-07
2.12757e-06
7.42637e-07
2.59927e-07
1.55104e-07
0.00683702
2.19823e-07
1.06133e-06
1.33046e-07
2.7209e-06
8.54971e-09
2.41288e-07
4.59123e-06
3.33427e-07
4.27867e-05
3.2942e-06
4.48544e-07
7.06189e-06
3.5799e-07
4.32975e-07
4.67832e-07
6.03934e-07
0.0262815
0.00386878
1.02646e-06
2.78098e-07
1.329e-06
2.67624e-07
0.0168584
4.19118e-07
1.47294e-07
2.07322e-06
2.76273e-07
1.25848e-07
0.00294893
3.97353e-07
4.60753e-07
6.07176e-07
2.37009e-07
8.32864e-07
0.0155573
2.69113e-07
0.00418571
1.2768e-07
3.87276e-07
2.05095e-07
3.44617e-07
3.88692e-07
5.39856e-07
2.85892e-06
3.6944e-07
1.35212e-07
1.35847e-07
3.34761e-07
0.00703506
2.52566e-07
1.26414e-07
2.51942e-07
3.02024e-07
7.0463e-07
0.00414535
6.20773e-07
4.32505e-07
8.18999e-07
1.08182e-06
4.41056e-07
1.21304e-06
5.98322e-07
3.32319e-07
8.77503e-07
7.70979e-07
1.39363e-06
2.60936e-07
7.5075e-07
3.35062e-07
5.74091e-07
2.13034e-07
5.22344e-05
0.0254998
1.26459e-07
1.82739e-07
3.43111e-07
3.85312e-05
1.25065e-05
6.3724e-07
1.16843e-05
0.00703421
2.93193e-07
6.50995e-06
8.2431e-05
0.00577714
5.07164e-07
1.18565e-06
3.76963e-06
1.46965e-06
0.00362392
4.31471e-07
7.68477e-07
8.35111e-07
9.93877e-07
0.0221006
9.61971e-08
1.47139e-07
2.63568e-07
5.73122e-07
0.0337036
0.0049662
1.19708e-06
4.14556e-07
3.03941e-07
1.43801e-07
4.73201e-07
7.64511e-07
3.71685e-07
3.49662e-07
1.99856e-07
1.60905e-07
2.28018e-07
0.00525475
0.00325589
6.0579e-07
7.63859e-07
4.05983e-07
2.50172e-07
7.75368e-07
0.00316799
0.00802428
1.9411e-06
4.63423e-07
1.12807e-07
2.79535e-07
1.76393e-06
1.38909e-06
3.33225e-07
2.33751e-05
5.25737e-07
1.04833e-06
3.30791e-06
2.207e-05
5.87095e-07
6.3279e-05
2.20818e-06
1.74599e-07
4.21995e-05
4.33226e-05
2.70808e-07
6.44892e-07
7.79276e-07
3.78736e-07
5.72221e-07
1.77354e-06
3.63015e-06
7.63375e-07
0.028817
1.17811e-06
1.55757e-06
0.00544545
9.90202e-07
1.77278e-07
9.99305e-07
3.01557e-07
3.97131e-07
3.18789e-07
1.40663e-06
1.56084e-06
5.84762e-06
4.32591e-07
4.00637e-07
1.00178e-06
9.66806e-07
1.47867e-07
4.18505e-07
9.6795e-08
1.99783e-07
2.57125e-07
1.10428e-06
3.00036e-07
2.20285e-07
2.93306e-07
2.06592e-06
4.71053e-07
5.63779e-07
2.89727e-07
1.29381e-07
3.80621e-07
4.46232e-07
2.75215e-06
1.14721e-06
0.0264032
6.9637e-07
1.25196e-06
8.61845e-07
3.55082e-07
2.90381e-07
8.70828e-07
0.0202967
1.00012e-06
4.72617e-07
6.19353e-07
0.0206204
3.90264e-07
6.72666e-07
7.8904e-07
5.92446e-07
1.4724e-06
1.78844e-07
3.23028e-05
7.06937e-07
1.24212e-07
7.43229e-07
1.73287e-07
3.86133e-05
2.89555e-05
0.0237222
2.99696e-06
9.77989e-07
1.03287e-06
3.9839e-07
1.99528e-06
9.06007e-07
0.000263132
3.25708e-07
4.44922e-07
3.0715e-05
0.00580942
2.27088e-06
0.022494
2.96442e-07
1.00543e-06
1.96577e-06
2.38338e-07
6.61007e-07
0.000377459
3.91125e-07
0.0923035
1.76672e-06
0.0042839
3.64955e-07
1.12581e-07
2.64699e-05
6.0458e-08
5.47071e-08
2.2608e-05
1.88219e-06
4.56765e-05
3.55393e-07
6.55676e-07
1.34076e-07
1.60697e-06
2.7197e-06
9.29028e-07
3.19594e-05
2.53572e-07
4.46519e-07
0.00027025
2.7733e-07
2.10834e-07
1.35772e-05
2.11239e-06
8.11705e-07
4.52539e-07
0.0134102
1.21729e-05
4.23683e-07
7.65694e-07
6.58416e-07
2.24269e-05
3.4548e-07
5.30032e-07
3.67318e-07
8.98252e-07
1.52739e-07
2.24309e-06
0.0169709
1.82288e-06
1.53826e-07
2.45481e-05
1.93179e-07
1.92651e-07
3.57552e-07
8.59536e-06
5.34516e-07
7.45197e-06
0.0153847
1.73426e-07
3.82273e-07
1.65041e-07
6.83118e-07
5.5351e-07
1.25851e-06
4.68148e-05
5.25578e-05
9.11437e-07
8.64055e-05
9.65577e-07
6.51112e-06
7.31665e-07
1.21029e-07
2.70266e-07
8.3438e-07
0.00964591
7.36699e-07
2.36295e-07
0.000155519
1.27787e-07
1.10241e-06
4.43514e-05
2.96295e-07
5.21542e-07
4.97293e-07
3.50156e-07
2.60082e-06
5.53443e-07
4.37488e-06
6.0758e-07
8.66708e-07
2.91643e-07
9.87101e-08
2.14565e-07
5.03708e-07
3.62665e-05
2.33727e-07
0.000509059
1.92623e-06
3.30587e-07
2.79715e-07
5.87521e-05
0.0137878
5.0664e-07
2.85376e-07
2.96366e-07
0.0135109
0.0225573
5.17695e-07
0.00506624
6.10639e-07
2.73983e-07
6.58428e-07
5.57042e-07
1.19046e-07
4.31995e-07
5.52966e-07
0.0101113
0.0331307
0.0362702
1.7674e-06
1.14888e-06
1.95307e-06
7.6909e-07
0.0350271
3.5724e-07
0.0190858
1.05431e-06
9.42424e-07
1.67883e-06
7.55715e-07
2.24612e-06
0.0449956
5.35249e-07
7.68573e-07
0.0119217
1.00301e-06
4.47248e-07
5.07001e-07
8.55279e-06
5.82902e-07
1.39648e-06
3.08632e-07
1.80198e-06
1.24731e-06
1.97496e-06
2.27722e-07
1.03332e-07
1.31717e-06
8.29712e-07
4.88832e-07
7.99879e-07
7.83792e-08
2.5938e-07
0.000310247
1.25211e-06
1.3156e-06
2.65067e-07
1.21441e-06
1.3435e-07
1.77045e-06
1.1061e-07
1.52669e-07
8.3742e-07
0.000141071
6.10939e-06
5.71244e-07
2.58241e-07
0.00418775
3.62823e-05
0.0331959
8.48253e-05
6.933e-07
1.46056e-06
0.00627736
4.65146e-07
5.32855e-08
6.70725e-07
3.23746e-07
2.12536e-07
1.05575e-06
3.33901e-07
1.43853e-06
5.38156e-07
6.41362e-07
5.19022e-07
7.13105e-07
1.99404e-06
0.00666364
2.15074e-07
2.84173e-07
2.01707e-07
3.82673e-07
3.26494e-06
2.06967e-05
1.77676e-07
1.53357e-07
1.04299e-06
6.81938e-07
0.00460425
7.81861e-06
1.75232e-07
5.53687e-07
4.75602e-07
5.76134e-07
7.9473e-07
5.49571e-07
5.46665e-07
7.06154e-07
2.11453e-06
2.47754e-07
1.75667e-06
1.30827e-06
3.77685e-07
3.37326e-07
7.69624e-06
2.1788e-07
5.34988e-07
7.3111e-07
0.00101012
3.79914e-07
5.8711e-05
0.0200969
0.0181418
3.53915e-06
3.23456e-07
5.77181e-07
1.81798e-05
8.64862e-07
9.0264e-05
4.56134e-07
6.03101e-07
0.0202508
2.58122e-07
2.42608e-05
5.81507e-07
0.00432815
6.47675e-07
0.00479443
0.0084766
2.00151e-05
1.05029e-06
6.43598e-06
1.0744e-07
2.27921e-06
3.3509e-06
2.9825e-05
1.1459e-06
2.34647e-07
2.30867e-06
4.63277e-05
3.14903e-05
5.38529e-05
1.00412e-05
1.59736e-06
4.16835e-07
8.53908e-05
2.0686e-06
5.62553e-07
2.61013e-05
1.22531e-05
7.36444e-07
2.86182e-06
2.627e-05
2.56723e-06
1.1657e-06
1.31067e-07
2.47314e-06
1.99259e-07
2.11894e-07
2.96119e-05
0.00673367
5.23772e-07
1.29328e-06
5.50897e-06
8.47424e-07
1.37332e-05
1.68197e-07
2.9722e-05
1.6967e-07
2.45362e-07
4.35057e-07
2.46509e-07
1.37583e-06
9.81046e-05
2.25239e-06
0.0339281
5.1361e-07
4.50232e-07
1.87365e-06
3.25074e-05
1.02354e-06
0.00275215
0.00702638
1.77966e-06
7.26666e-05
1.51003e-06
8.76171e-07
0.117984
9.95148e-05
3.78867e-07
0.00430131
2.02584e-06
3.0346e-07
5.31922e-07
8.11692e-08
4.91843e-07
2.3003e-06
0.00375071
1.52942e-06
1.79618e-07
1.8106e-06
0.0214747
0.00365253
2.30278e-07
2.21308e-07
2.93833e-07
2.77688e-05
1.53146e-07
0.00375764
1.84398e-06
4.1615e-07
8.61471e-07
2.43403e-07
5.71018e-07
4.81316e-07
5.90987e-07
1.20171e-06
4.38158e-07
5.83678e-07
0.144578
1.56425e-06
7.87546e-05
1.00812e-06
0.00680568
6.9604e-07
0.0275548
3.43192e-07
5.45454e-07
4.36735e-07
3.73929e-06
0.00572832
6.27395e-07
0.0222953
9.51928e-07
2.2419e-07
0.145276
1.45577e-05
0.0723299
3.73402e-07
0.00282894
5.23231e-07
7.20124e-07
4.73057e-07
5.44866e-07
2.82466e-06
1.92461e-06
1.14187e-07
0.0108739
1.71036e-07
1.17353e-07
9.42126e-07
4.99179e-07
1.50058e-06
7.19505e-07
7.55298e-07
0.0236849
5.30652e-06
4.71058e-06
7.6635e-06
6.80442e-06
5.41091e-07
1.56144e-07
4.09204e-07
4.05606e-07
6.46231e-07
2.29168e-06
4.05592e-07
0.000695383
2.72616e-06
5.3809e-07
3.64226e-07
3.80771e-07
7.42391e-07
5.1972e-07
3.69701e-07
4.25772e-07
3.01119e-07
7.73414e-07
4.33048e-07
1.79878e-05
7.4738e-07
5.50568e-07
1.50763e-07
2.369e-07
0.0263849
3.58091e-07
6.9591e-07
6.61696e-06
4.40207e-07
2.15446e-06
2.69837e-07
2.81924e-06
1.47092e-07
9.92641e-07
5.21575e-07
4.30606e-07
2.3908e-07
3.04873e-08
4.0816e-07
8.25186e-07
0.0275139
5.15477e-05
1.07155e-06
0.000140514
3.51856e-07
7.25853e-08
6.14372e-07
0.00578369
1.88486e-07
1.10373e-07
2.43356e-07
4.069e-07
3.4567e-07
0.0416888
3.62702e-07
4.90122e-07
6.22398e-07
2.25927e-07
0.0102516
2.97606e-07
0.121894
1.1197e-06
3.45092e-07
4.99288e-07
1.82875e-06
5.93907e-08
2.00195e-07
4.77662e-07
3.62747e-07
1.87358e-07
1.79038e-05
3.89188e-07
0.0146928
1.06202e-06
3.95172e-07
9.11186e-07
1.80556e-06
0.00569216
0.00280432
3.92296e-06
2.45108e-07
0.00918902
1.03445e-06
4.44109e-06
0.00403298
6.54856e-07
4.42675e-07
0.0155571
0.00245711
4.65535e-06
2.75414e-07
5.39135e-07
5.16348e-07
0.000111345
5.18348e-07
1.57441e-06
2.75515e-05
2.26955e-07
0.00237164
2.99938e-07
5.47742e-06
0.0186481
1.02708e-07
2.97434e-07
3.13721e-07
7.13279e-07
1.39893e-06
1.64598e-07
1.96288e-07
4.91802e-07
3.23913e-07
4.51295e-07
3.90506e-07
0.0023702
0.00447708
3.60257e-07
6.53117e-07
1.44972e-07
1.46769e-05
1.02438e-07
1.66263e-07
6.85042e-07
1.46828e-06
1.88215e-05
3.91072e-07
6.98433e-07
1.86525e-07
0.0374007
5.30717e-07
0.0139174
4.25695e-07
2.30654e-07
0.00476492
0.00550121
1.94541e-07
0.00217714
5.60408e-07
4.16772e-07
1.52251e-07
7.9863e-07
2.41734e-06
0.000247759
4.35232e-07
3.26155e-07
2.59862e-06
0.0224849
0.020372
1.51232e-06
1.13856e-06
3.70733e-07
0.00515897
0.0203085
1.09965e-06
1.35833e-07
8.2373e-07
8.85143e-05
2.06389e-05
9.81916e-07
1.26125e-07
8.49396e-07
8.66609e-07
7.61661e-07
2.07078e-06
1.16294e-06
0.00607786
0.0196641
5.51391e-07
7.46983e-05
6.81907e-07
2.68954e-07
2.06309e-06
1.10851e-06
3.62487e-06
4.01044e-05
2.78153e-06
1.79338e-06
2.50036e-07
1.78364e-07
1.07789e-05
0.00584856
3.08172e-07
0.0175372
1.56215e-06
1.90736e-07
3.64102e-07
1.34721e-06
4.39082e-07
5.82267e-07
2.33843e-07
5.51256e-07
2.75779e-07
2.68501e-05
5.78119e-07
0.00380671
3.38789e-07
0.0150007
1.94078e-07
5.1775e-07
0.000281586
2.22015e-07
3.05867e-06
6.98659e-07
2.28592e-07
1.65817e-06
9.64244e-07
4.92861e-07
0.00494118
0.00476064
1.95538e-06
1.14367e-06
5.26269e-07
0.0416686
2.41879e-07
7.57371e-07
1.16334e-05
6.06699e-07
6.18301e-08
0.0986798
0.00339934
2.69586e-06
9.28095e-07
0.00380945
7.13295e-08
0.0327478
1.18222e-06
6.7987e-07
1.74176e-05
2.69435e-07
0.00505991
2.64968e-07
5.36617e-07
4.20315e-07
9.13227e-05
1.79855e-06
3.49161e-08
1.1018e-05
2.74432e-06
9.87293e-07
1.28919e-06
0.0314889
2.4546e-06
5.7977e-06
8.77011e-08
1.90023e-06
3.34604e-07
6.0625e-06
1.29846e-06
7.0973e-07
3.47904e-05
3.17356e-07
2.39451e-07
0.0039913
1.74753e-07
2.29606e-07
8.12649e-06
0.0011481
0.00346968
0.0165023
2.91272e-07
3.35756e-07
0.000382831
4.82028e-07
1.68684e-07
1.89634e-07
3.67616e-06
3.93318e-07
4.89433e-05
5.11251e-07
2.5312e-07
1.60155e-07
7.17954e-06
5.56224e-07
6.69588e-07
2.55198e-07
2.13098e-05
1.60944e-07
4.43321e-07
1.01641e-06
1.24692e-06
1.07128e-05
3.07774e-05
6.01871e-07
6.03865e-07
0.1028
6.4834e-05
4.73332e-07
0.0021786
4.62712e-07
1.6992e-07
7.33723e-07
1.6153e-05
9.32272e-07
0.0472915
1.29335e-06
1.03657e-06
1.18696e-07
5.55245e-07
6.56634e-07
2.55523e-07
1.04158e-05
9.75828e-07
4.9677e-07
1.2664e-07
8.74075e-07
5.59587e-07
0.0129462
1.02191e-06
8.02794e-05
9.60027e-05
7.13964e-05
3.84735e-06
5.43913e-05
8.71793e-05
0.000131225
7.04538e-05
3.05934e-07
9.42725e-07
3.4863e-07
4.59805e-07
6.75072e-06
3.05494e-05
0.00355236
2.84459e-07
3.47028e-06
8.97112e-07
6.07827e-07
4.98838e-07
5.60313e-07
1.20349e-06
3.85975e-07
0.00247627
3.37878e-07
0.01335
1.35529e-05
6.15201e-07
6.29637e-06
1.43687e-07
9.31663e-07
5.98259e-07
1.04683e-06
0.0107294
3.52984e-07
0.000117226
3.3e-07
7.71823e-08
0.000102596
2.94845e-07
1.43014e-06
8.68792e-05
8.78341e-08
5.7008e-07
6.07853e-06
3.08074e-07
1.20952e-06
0.0262793
1.10333e-07
2.59764e-07
4.61271e-07
0.0123306
0.0111621
0.00357411
2.06049e-07
6.40029e-08
0.00515822
2.37827e-07
1.53402e-07
1.11108e-07
2.28218e-06
5.08174e-07
0.0247258
6.13965e-07
3.42908e-07
0.000382299
5.24963e-07
2.60146e-07
1.01221e-06
3.57204e-07
1.08962e-06
0.000212763
0.000334819
4.52179e-07
7.72763e-07
5.91545e-07
3.55269e-07
8.40347e-07
0.00399918
5.42436e-07
2.24267e-06
2.68139e-07
2.44802e-07
2.052e-07
2.28159e-07
2.64008e-07
2.25133e-06
1.81831e-05
1.77364e-07
8.19142e-07
0.00411123
5.698e-07
4.95185e-06
2.33291e-06
2.01722e-07
2.3917e-07
0.0977873
1.08485e-06
2.03767e-07
2.99758e-07
0.00566788
3.20687e-06
5.2838e-07
2.09334e-07
6.60027e-07
0.0103545
2.37544e-07
7.11808e-07
4.25926e-07
1.18298e-06
1.50004e-07
1.32942e-06
1.32637e-06
8.30202e-08
2.32098e-06
5.569e-05
1.4553e-06
2.23993e-07
0.00080059
9.98617e-07
1.42906e-07
2.98442e-07
1.31479e-07
1.06772e-06
1.58782e-06
1.03367e-06
8.38911e-07
0.00462896
0.127749
2.58862e-07
2.18002e-07
0.00566581
1.80474e-06
7.18771e-07
2.4304e-07
5.54413e-07
1.01984e-06
1.19813e-06
1.00303e-06
1.97399e-07
3.96176e-07
2.50613e-07
6.83436e-07
0.244993
0.106189
1.19299e-06
8.50752e-07
2.34097e-07
5.20235e-07
3.58671e-07
2.42929e-06
1.31334e-06
6.92724e-07
1.60258e-07
5.66755e-07
3.46279e-07
1.73685e-06
5.14922e-07
6.53248e-07
2.13957e-06
1.85296e-07
1.18833e-06
2.4513e-07
4.21694e-07
3.26166e-05
1.52851e-07
0.00141098
0.00679049
1.44018e-07
0.0056195
4.02821e-07
8.40674e-08
3.18273e-06
8.47059e-07
0.00386088
7.62179e-07
0.00505984
0.00625642
4.50266e-06
2.12909e-07
0.00403888
2.72727e-06
6.6894e-07
9.48994e-07
0.0120945
0.00375915
0.00426774
1.32885e-07
7.06455e-07
4.81953e-07
1.03125e-06
5.70055e-07
3.35902e-07
1.97388e-05
5.51881e-07
1.92583e-07
4.16716e-07
1.49826e-06
2.90601e-05
1.00732e-07
4.01499e-07
8.83508e-07
1.44065e-05
0.0602083
2.69027e-06
9.5189e-07
3.05071e-07
5.40722e-07
6.0386e-07
4.77e-07
8.35862e-07
1.29854e-07
1.32355e-06
6.73667e-07
7.37111e-06
4.43027e-05
5.23147e-07
2.87344e-07
2.97023e-07
2.58903e-07
3.26571e-07
1.58683e-06
0.000102826
4.28837e-07
0.0388311
0.00769988
2.83931e-07
0.220131
5.29131e-07
0.00470756
0.0157709
1.63972e-06
2.04557e-05
6.87474e-07
2.04974e-07
1.62754e-06
6.10479e-07
1.7152e-07
5.24877e-07
6.25496e-07
7.33239e-07
1.70657e-07
0.0821976
0.0156661
0.00556
5.86751e-07
1.0212e-06
3.52703e-07
0.0039229
5.65228e-07
1.63667e-07
1.77601e-06
4.71325e-05
1.55149e-06
1.66417e-06
7.60555e-07
1.1437e-06
9.58975e-05
0.0139737
0.00641314
3.29479e-07
0.00699824
0.00838903
1.20651e-06
1.43912e-06
0.0104806
0.00914481
8.16878e-07
9.65432e-07
2.865e-07
1.75417e-05
7.22948e-07
4.95105e-07
1.22009e-06
3.56088e-07
9.22937e-07
4.37501e-07
6.82726e-07
3.98618e-07
1.02064e-06
7.15011e-07
0.0981519
3.26559e-07
1.68397e-07
0.00630935
0.00379039
1.12285e-06
0.00711713
3.64834e-07
3.74748e-07
6.41471e-07
1.96832e-07
3.87091e-07
0.00314448
0.0788578
4.5872e-07
5.66285e-05
1.15055e-07
5.38939e-07
4.50922e-07
0.0198703
6.94447e-07
0.00345087
8.3441e-07
2.36242e-07
0.00421404
6.55831e-07
1.15477e-05
3.10939e-07
5.59694e-07
1.59847e-07
0.00293851
0.0177191
0.00382739
9.02102e-06
0.00488668
0.00468244
2.76803e-07
4.96582e-07
7.66246e-07
0.0205381
3.1228e-05
4.06341e-07
0.0542865
8.6512e-08
0.00873767
2.51021e-05
4.698e-07
4.7264e-06
0.0202198
0.00733467
2.80548e-06
0.00718487
3.80673e-05
0.00435222
4.22331e-06
0.0074761
4.00272e-05
8.63787e-07
2.91976e-07
1.72705e-07
5.0381e-05
8.54235e-05
1.77861e-07
1.15118e-06
6.76402e-07
4.72541e-07
3.84161e-07
4.61389e-06
2.29455e-06
9.51761e-06
5.50527e-07
5.39782e-07
4.90655e-06
8.89875e-08
1.31049e-06
8.21751e-08
1.98438e-06
1.56106e-07
9.61419e-07
6.49535e-07
6.18413e-07
4.9888e-06
3.61973e-07
1.11572e-06
7.93211e-07
1.05946e-06
7.16689e-07
0.000116841
8.91643e-05
1.03404e-05
1.74426e-06
2.10192e-07
7.04993e-07
0.00468305
3.11383e-06
6.98499e-07
1.23164e-07
5.12763e-07
7.18317e-07
3.11103e-05
1.09067e-05
0.0159809
0.00677376
3.02574e-07
7.58107e-05
3.46612e-05
8.77437e-07
5.66016e-07
1.17031e-06
4.95448e-07
0.145334
2.75921e-07
0.00592403
2.27383e-07
8.13193e-07
4.52851e-07
0.00406235
3.89758e-06
0.00337395
1.99946e-07
8.91738e-07
1.50046e-07
4.68302e-07
2.51394e-06
1.94141e-06
6.13457e-07
3.32175e-07
1.2e-06
5.26571e-07
5.57751e-07
3.64145e-07
1.55081e-05
3.58764e-06
2.33996e-06
1.02398e-05
0.000147767
0.00514362
0.00943921
8.48114e-07
5.282e-07
0.00383147
3.38835e-07
3.33811e-07
0.000292046
3.32584e-07
1.99927e-07
1.12344e-06
1.25017e-06
5.54475e-07
4.29112e-07
0.146218
2.86349e-07
4.11045e-07
4.80813e-07
2.32096e-07
1.22709e-05
0.083764
4.12665e-07
1.58259e-06
0.0758011
1.22865e-07
1.71486e-06
2.84735e-07
2.76058e-07
2.07019e-05
1.91508e-06
2.11341e-07
2.34229e-06
5.61519e-06
2.0756e-07