/*--------------------------------*- C++ -*----------------------------------*\
  =========                 |
  \\      /  F ield         | OpenFOAM: The Open Source CFD Toolbox
   \\    /   O peration     | Website:  https://openfoam.org
    \\  /    A nd           | Version:  10
     \\/     M anipulation  |
\*---------------------------------------------------------------------------*/
FoamFile
{
    format      ascii;
    class       volScalarField;
    location    "1.5";
    object      SgT;
}
// * * * * * * * * * * * * * * * * * * * * * * * * * * * * * * * * * * * * * //

dimensions      [1 -1 -3 -1 0 0 0];

internalField   nonuniform List<scalar> 
111485
(
1.18288e-10
2.8913e-12
1.34735e-11
2.3244e-12
2.75775e-12
6.75014e-12
8.59576e-12
7.46548e-12
4.60735e-14
7.56264e-13
1.2442e-11
4.02378e-13
5.21522e-13
3.67146e-13
1.50649e-11
3.26989e-12
3.3907e-12
4.1104e-11
3.62863e-12
8.31474e-11
8.24005e-12
2.50464e-12
9.82173e-12
4.11556e-12
4.78813e-12
7.18747e-12
3.37132e-13
2.07482e-12
2.73227e-12
1.64439e-07
1.34128e-11
2.19492e-12
3.33663e-11
1.60303e-10
8.82279e-12
1.02629e-11
5.82273e-12
6.03265e-14
1.66729e-11
6.69517e-11
2.07693e-10
2.13471e-12
3.98156e-12
1.07325e-12
1.81742e-11
1.0013e-09
2.33017e-12
1.14465e-12
2.28606e-12
1.10986e-11
1.14331e-11
9.85479e-12
2.24795e-12
8.73373e-14
1.1162e-11
1.35443e-11
1.80789e-12
5.32219e-12
5.30116e-12
2.74916e-11
2.22332e-11
1.59893e-11
4.30731e-13
7.76894e-12
8.27335e-12
3.56285e-12
4.41477e-12
9.10523e-12
7.0457e-13
6.79365e-12
3.82057e-11
3.99505e-12
3.73899e-11
2.16121e-12
0.00476397
7.94782e-13
1.5393e-12
9.60594e-13
4.09105e-12
1.28118e-10
1.17565e-10
1.86272e-12
1.55114e-10
0.111688
3.07023e-11
4.4558e-12
3.84967e-11
4.61589e-13
1.16521e-11
3.20289e-12
2.02282e-11
5.23279e-12
1.598e-11
3.47921e-14
3.25065e-13
0.0574142
1.07049e-12
7.09316e-12
3.26364e-11
1.23743e-11
2.11577e-11
1.11979e-13
1.72999e-11
1.05367e-13
3.75361e-12
6.47025e-11
4.29576e-11
7.04677e-12
1.1807e-11
8.31214e-12
7.8661e-14
2.71885e-12
3.32442e-12
3.79382e-12
4.64301e-12
7.85618e-12
3.13866e-12
3.76949e-12
4.04627e-12
6.10527e-12
1.99072e-12
9.57684e-12
2.37333e-11
1.78937e-12
1.24012e-12
2.86581e-11
2.3887e-12
4.23916e-12
0.000142012
6.12766e-12
1.2106e-11
7.26776e-12
0.109994
2.53579e-11
5.53271e-13
1.60359e-11
1.2729e-11
3.83064e-12
5.27499e-13
3.53407e-12
4.6318e-14
4.5243e-13
6.25252e-12
1.34048e-11
2.85811e-13
6.61161e-13
1.76343e-11
0.0364598
2.41405e-10
4.87065e-12
4.58504e-12
2.59943e-13
3.30722e-12
8.47734e-12
8.53832e-12
3.36956e-12
9.88835e-12
6.07774e-12
4.50426e-12
3.43844e-09
3.68892e-12
1.43077e-12
7.15689e-13
2.86206e-12
6.67105e-12
1.05823e-11
2.84631e-12
3.78907e-12
1.06549e-11
8.28781e-12
2.53494e-10
0.00209666
5.85493e-12
2.07818e-12
3.12156e-13
6.35143e-12
5.18135e-12
4.91228e-11
8.85969e-12
4.1132e-11
3.34966e-12
1.3587e-11
1.44054e-11
2.49356e-13
2.87008e-12
5.47063e-11
8.9438e-13
1.12035e-11
1.13996e-12
1.74624e-11
2.10958e-12
4.03241e-12
4.96451e-11
2.50312e-11
6.32477e-13
7.85578e-12
1.52918e-12
2.8561e-13
0.00296704
7.93646e-12
3.67391e-12
3.46909e-12
2.60911e-12
3.67626e-13
1.2165e-07
5.05226e-13
1.28581e-12
9.82952e-12
1.4008e-11
1.45248e-13
5.24247e-12
1.08886e-11
5.2694e-12
6.51932e-11
5.75903e-12
3.50796e-12
1.2995e-11
3.65368e-11
2.83201e-12
4.08887e-12
1.82455e-12
1.98472e-11
9.28121e-13
1.17411e-12
8.62461e-12
5.50832e-12
2.13929e-11
5.47757e-12
1.39872e-11
8.87021e-12
1.71032e-11
2.10571e-12
2.48909e-13
4.44609e-12
4.8154e-12
3.17326e-12
5.73861e-13
5.35869e-05
5.03927e-13
9.46525e-12
1.1582e-11
8.19791e-12
6.19101e-13
7.22328e-11
3.04885e-11
3.20534e-12
1.05318e-10
2.36143e-11
9.97353e-12
4.76811e-12
1.37391e-11
2.30084e-14
1.47016e-12
0.0114541
7.83967e-11
2.34384e-13
4.6012e-12
6.61815e-11
1.73387e-11
1.88632e-12
1.30613e-12
1.89356e-11
7.24548e-12
2.73365e-11
3.08247e-12
6.21119e-12
5.95688e-11
2.64308e-05
8.39084e-12
2.26038e-12
1.78824e-12
3.08307e-12
5.84375e-13
2.89767e-13
7.54395e-13
6.61921e-11
4.2999e-12
1.31208e-12
4.09356e-12
0.00113119
1.36485e-10
3.78595e-12
6.24727e-13
1.38897e-12
1.33507e-12
5.67967e-13
5.06934e-12
2.51136e-12
6.58414e-12
3.37952e-11
5.07455e-12
8.13724e-12
8.78805e-13
4.32941e-12
1.58818e-13
4.34269e-11
7.33889e-11
4.96105e-11
9.80874e-11
6.53294e-13
6.9566e-13
8.73276e-12
1.80294e-13
1.13834e-11
3.92702e-11
1.48767e-11
1.2668e-08
6.95023e-11
7.14981e-13
1.14611e-11
1.4589e-13
5.26417e-13
2.45568e-11
2.72512e-11
3.47387e-10
0.179996
5.94951e-13
3.61788e-12
1.09527e-11
8.52489e-11
2.73316e-11
3.92758e-12
8.85585e-12
1.70165e-11
7.38476e-11
3.31231e-11
6.59075e-12
2.4242e-12
1.62504e-11
2.95945e-11
2.07227e-11
4.90665e-11
9.95882e-12
3.43794e-12
2.37568e-11
2.25529e-11
2.35513e-11
2.66079e-11
3.45e-11
1.13263e-12
5.08244e-12
1.63141e-13
4.67279e-11
2.52026e-12
2.14419e-11
1.22625e-11
2.58178e-11
2.29965e-12
8.87042e-13
1.03029e-11
8.1077e-12
1.90695e-11
1.35102e-11
3.16915e-11
1.72364e-10
0.0951042
1.86342e-09
3.28073e-12
3.28338e-12
8.14177e-13
4.3504e-12
1.65307e-11
4.26404e-11
1.49011e-11
9.87741e-12
1.3049e-11
4.09377e-11
3.1435e-12
2.9745e-11
4.11361e-11
3.03705e-13
3.73913e-13
1.58851e-13
2.0921e-12
9.37311e-13
2.81136e-12
5.85899e-13
2.01621e-11
5.89791e-11
3.3833e-11
6.02673e-13
2.32434e-12
3.26152e-12
7.08943e-12
6.81045e-13
4.62935e-11
0.014144
1.23917e-11
9.41365e-12
1.57171e-12
3.05585e-11
1.18853e-11
5.17795e-12
1.08458e-11
5.0426e-13
5.09047e-12
1.09323e-12
1.3269e-11
6.82808e-12
1.21579e-12
7.27968e-13
8.18229e-12
4.02956e-13
1.12827e-10
3.37134e-11
6.19025e-12
6.70935e-13
6.39415e-12
1.53516e-12
1.18031e-10
5.44927e-11
5.49563e-12
1.81254e-10
3.84864e-12
2.61848e-13
9.16721e-12
7.9629e-14
8.10318e-13
3.05885e-12
1.69369e-11
2.59197e-11
1.53287e-12
2.52947e-11
1.63919e-11
1.13335e-13
5.0065e-11
7.01876e-13
2.67362e-12
1.47001e-11
9.86013e-08
2.51749e-12
4.05832e-12
1.86894e-11
9.4789e-12
6.56081e-12
4.20394e-11
8.59237e-13
1.66847e-12
4.08393e-12
1.75613e-11
2.22721e-12
9.24697e-13
1.75249e-12
1.22434e-10
5.04099e-11
6.50538e-12
0.0119087
1.02576e-10
9.95974e-12
3.39299e-10
1.27762e-12
4.00556e-12
6.36908e-11
2.40897e-11
1.12595e-11
3.20276e-11
3.70656e-12
8.08099e-12
2.26836e-12
7.40408e-14
1.23304e-11
1.49045e-11
5.46202e-13
2.6285e-11
2.67864e-12
9.69293e-12
6.62856e-12
0.000335408
1.26612e-11
0.061473
3.79075e-10
1.16504e-11
1.89219e-11
8.19545e-11
1.36779e-13
1.7097e-12
1.35713e-11
4.55278e-11
5.09362e-10
1.09957e-10
0.0498201
7.28905e-12
5.40474e-12
2.89391e-10
6.02523e-12
5.62077e-13
8.742e-12
3.49022e-12
7.64523e-13
4.08152e-10
1.67781e-12
5.25858e-12
4.75484e-12
4.31016e-13
4.39349e-12
2.85278e-12
1.73418e-12
2.68181e-12
6.00713e-13
3.27765e-12
1.89674e-13
0.000918995
2.27052e-12
1.41846e-10
8.48521e-14
2.39455e-10
3.28438e-12
6.21962e-11
7.02962e-12
1.20477e-13
6.59132e-12
3.72959e-11
3.87172e-12
2.66858e-12
2.79149e-13
2.36691e-13
3.54939e-12
1.9134e-10
8.30598e-11
6.56699e-11
1.51362e-12
2.31636e-13
6.63404e-13
1.93251e-12
3.64501e-12
1.77982e-11
2.21424e-12
1.2021e-12
3.24092e-13
4.32129e-11
1.45871e-13
1.75903e-14
1.91225e-12
5.38687e-12
1.03251e-11
6.84474e-12
1.71104e-11
3.54938e-11
5.56693e-13
7.91247e-12
1.89469e-13
1.77697e-11
4.62019e-13
6.45664e-06
6.71229e-13
2.33418e-11
1.50742e-11
8.64314e-11
1.76407e-11
8.91236e-14
7.4739e-12
5.37055e-14
1.60996e-14
3.45012e-10
1.12679e-14
7.11897e-12
9.33213e-12
2.00385e-11
4.59059e-11
6.51617e-13
4.75335e-11
4.97893e-11
1.30625e-11
6.88029e-13
4.43482e-12
5.04729e-12
1.23317e-12
3.60831e-13
4.0214e-12
8.94587e-13
4.23118e-12
7.90842e-12
4.08269e-12
7.04231e-12
1.03466e-11
1.05785e-11
4.71265e-13
2.57381e-12
5.8788e-11
2.62239e-13
5.1769e-12
6.97346e-11
2.96679e-11
1.42961e-10
4.80346e-13
2.94906e-12
1.07591e-11
3.3794e-11
5.63681e-13
1.86914e-11
3.59463e-12
4.70332e-13
3.2995e-11
1.07126e-11
2.19359e-10
1.05455e-07
6.50535e-14
5.04409e-13
2.98888e-11
1.75244e-12
7.31479e-12
2.73605e-12
5.31391e-12
3.2853e-11
2.46051e-13
2.27742e-11
3.06561e-11
1.35119e-10
4.88484e-12
6.64114e-11
2.24192e-13
1.27203e-12
1.00217e-12
2.77638e-11
1.08296e-12
3.55128e-12
7.24024e-13
1.07156e-11
2.57397e-12
7.23885e-11
1.76978e-12
8.30747e-13
2.44591e-07
1.23007e-13
6.49406e-12
4.9214e-12
4.21123e-12
3.53707e-12
3.56155e-12
0.0876271
8.60863e-13
6.71486e-12
8.85299e-12
2.20599e-12
1.37268e-12
3.34518e-11
6.10412e-13
1.47676e-12
9.57132e-13
1.88255e-12
3.63296e-12
4.41445e-12
8.85815e-11
6.21143e-13
4.35422e-13
1.30151e-11
4.28669e-13
3.87615e-13
1.50293e-12
2.68188e-11
9.59216e-12
1.98244e-07
1.41831e-11
1.04081e-10
7.00151e-13
2.23367e-12
4.03571e-11
9.74373e-12
5.29385e-11
1.8197e-11
5.56739e-14
1.9342e-12
2.45535e-11
1.01171e-13
1.05845e-11
7.93785e-06
1.05122e-11
1.14702e-13
2.1517e-13
4.06301e-11
3.00319e-11
9.67965e-11
1.78902e-11
3.33661e-11
2.17297e-12
4.28416e-11
1.10482e-12
8.8951e-12
3.06669e-11
2.11604e-12
7.97989e-12
8.85859e-12
6.99699e-13
4.71507e-11
4.73982e-12
3.04355e-12
3.54652e-11
5.23217e-10
3.31673e-11
1.2959e-13
0.0210243
8.65633e-12
2.31997e-12
2.71852e-12
5.11233e-12
5.46378e-12
4.30576e-11
1.25654e-10
9.9741e-12
4.14894e-12
5.22267e-11
2.3163e-13
2.78017e-12
1.59891e-11
1.17941e-11
1.81219e-12
3.01027e-12
3.24554e-12
5.24186e-11
1.81702e-12
1.82766e-14
2.99598e-13
4.41375e-12
2.55918e-12
3.67064e-11
2.5456e-11
1.22628e-11
6.74221e-13
1.19534e-11
3.11745e-11
1.43112e-11
2.94393e-12
2.83446e-12
8.12125e-12
3.64582e-12
1.93874e-12
3.57086e-13
1.07789e-12
1.73518e-11
1.06069e-11
1.30236e-14
0.0349275
4.2919e-13
6.55829e-14
4.06771e-12
5.79043e-12
9.45051e-12
1.49953e-12
6.65534e-11
1.62679e-11
3.51945e-12
7.85901e-12
6.02083e-12
5.23961e-11
2.05828e-11
2.33823e-12
9.89195e-12
7.81945e-12
4.47084e-12
2.55867e-11
8.52092e-13
6.98508e-13
2.49464e-12
1.23771e-12
1.87824e-11
1.11111e-11
8.46904e-14
1.10464e-11
5.29213e-12
6.19434e-12
7.05956e-11
3.89538e-12
5.17565e-10
1.93229e-13
1.34363e-12
5.70346e-13
6.05285e-11
3.1352e-11
8.30812e-11
3.17852e-12
6.17482e-12
5.92364e-12
1.61899e-11
3.77203e-12
2.53362e-12
9.25176e-13
2.41581e-12
5.3195e-12
3.04267e-11
1.66182e-12
2.71823e-12
4.5846e-12
2.41174e-13
5.41111e-11
4.4185e-12
1.08979e-11
1.19284e-11
4.99251e-13
3.21584e-12
1.45184e-11
1.70398e-11
4.49128e-12
1.7508e-12
6.96818e-12
2.46071e-10
3.51271e-12
2.03077e-12
4.426e-12
1.72847e-11
1.88254e-11
1.87922e-11
2.4502e-13
6.61329e-12
2.60224e-12
3.76482e-11
9.1147e-13
5.0026e-12
6.36333e-14
0.0780748
2.30062e-11
1.56392e-12
3.48626e-11
6.40329e-13
2.98731e-10
2.12696e-11
4.17088e-12
1.43373e-12
3.22544e-10
4.19803e-12
3.26792e-13
1.34072e-10
3.60184e-12
8.42599e-12
1.03735e-12
5.49098e-12
1.37843e-12
1.16996e-12
9.11794e-12
2.67467e-11
2.07242e-11
5.91621e-11
6.40449e-13
6.99078e-12
2.42616e-11
1.91989e-12
3.61161e-13
5.10032e-11
1.55005e-12
1.50747e-11
7.82491e-13
2.39589e-11
1.1671e-11
2.97467e-10
1.00104e-11
2.01436e-12
1.72487e-11
9.79621e-12
1.6734e-11
3.98575e-12
1.90202e-11
3.13494e-11
5.04626e-11
4.18306e-11
8.99854e-12
9.18663e-13
1.81694e-10
5.04892e-11
2.01326e-05
2.5685e-11
6.60723e-13
2.9669e-11
2.35535e-11
2.40421e-11
2.30429e-12
1.21028e-11
8.81901e-12
5.77445e-11
3.55171e-11
9.72282e-06
4.73152e-12
3.12846e-12
0.0162544
1.12789e-11
4.22028e-12
8.02969e-11
4.61944e-11
1.77928e-11
1.57655e-12
4.13755e-12
9.78295e-12
2.3708e-12
2.92406e-12
2.63416e-12
1.12356e-11
4.80241e-12
4.90434e-12
3.14965e-15
3.3335e-12
3.39794e-12
3.34351e-11
1.55157e-11
5.37146e-12
9.28699e-11
1.27017e-12
1.7577e-11
4.28456e-12
3.6152e-12
3.14582e-12
7.68618e-11
5.65825e-12
3.17579e-12
5.41389e-11
3.06608e-12
4.03107e-12
3.13333e-10
6.47213e-11
1.50494e-10
6.33371e-12
4.91661e-11
9.08635e-11
1.21445e-11
7.12412e-11
2.10063e-11
3.87261e-12
2.3127e-11
1.00767e-11
1.99184e-14
1.9191e-11
1.64394e-12
2.1228e-11
3.15675e-11
1.68663e-11
1.69752e-12
1.31653e-11
5.40263e-13
5.08946e-13
1.02394e-11
4.17181e-12
8.4922e-12
7.50918e-13
4.93885e-11
6.71214e-13
3.86855e-12
1.05034e-11
1.48423e-11
2.48968e-12
4.80634e-12
3.21401e-13
1.16502e-10
1.58072e-11
1.28444e-10
2.20599e-11
3.09253e-10
5.40543e-12
5.40968e-12
2.21989e-11
5.13675e-12
5.78922e-12
9.05754e-12
6.04155e-12
4.49475e-12
1.95891e-11
5.97434e-12
7.6711e-14
5.06598e-12
3.62219e-13
8.69191e-12
3.96066e-11
2.89447e-11
7.98316e-11
7.19499e-12
1.05798e-11
1.26639e-11
8.32763e-13
3.33001e-12
2.64899e-12
6.87423e-11
3.03592e-11
2.66424e-11
3.56597e-10
3.11171e-11
2.41231e-13
1.02015e-11
1.9656e-08
3.03935e-12
1.34018e-12
2.8201e-12
3.73135e-11
6.38042e-12
2.84598e-12
7.48952e-12
5.87495e-12
1.33221e-11
1.28882e-11
1.14521e-11
6.44366e-12
1.22468e-11
6.09593e-11
3.20456e-11
1.55396e-11
5.58737e-11
2.57095e-12
2.65098e-12
1.03346e-11
8.22912e-13
2.43886e-12
1.04144e-12
1.73207e-11
1.79377e-11
5.60401e-12
2.8403e-12
1.02212e-11
5.5074e-12
6.76219e-12
4.85e-13
8.11909e-12
4.71585e-13
4.89666e-11
2.57282e-12
6.65483e-11
4.78548e-11
5.77897e-12
1.28568e-11
2.29473e-11
2.03633e-12
8.86109e-12
6.86438e-13
9.80906e-13
2.76668e-12
1.9774e-09
4.95714e-12
1.80764e-10
9.45843e-11
2.44284e-11
3.48623e-12
1.54194e-11
1.1888e-11
3.93457e-11
1.18435e-10
5.08512e-12
3.40592e-11
1.21581e-09
2.96113e-12
1.46988e-11
5.80523e-12
2.55263e-13
1.94346e-13
2.80855e-12
3.81312e-12
3.42015e-12
8.75783e-11
1.40407e-10
6.50064e-11
3.29871e-11
1.98918e-10
7.63352e-12
3.69286e-12
1.28117e-11
1.17243e-11
4.74833e-10
1.54575e-11
9.58985e-12
3.89539e-12
2.87482e-12
1.76587e-11
1.18185e-10
2.67514e-12
2.89137e-12
2.55066e-12
1.59299e-12
6.30512e-12
2.26356e-07
1.09148e-11
1.30984e-11
4.96331e-12
1.43859e-11
7.38089e-12
1.7778e-11
1.19737e-11
2.60748e-12
3.67976e-12
1.57355e-13
1.75438e-12
2.04106e-07
1.00993e-12
2.33955e-10
1.73057e-11
6.75841e-12
7.2941e-12
1.76574e-11
2.79641e-11
9.02798e-12
5.4509e-12
3.46592e-13
1.31291e-12
6.22898e-11
1.55691e-12
1.68585e-11
1.70381e-12
1.28874e-11
2.87549e-12
2.49786e-11
4.18449e-11
7.5842e-13
3.73162e-11
7.13992e-12
2.62269e-12
9.76634e-13
7.7791e-12
4.47197e-11
6.50468e-12
1.1681e-11
7.71344e-12
4.95339e-12
5.02025e-11
4.32724e-12
1.15815e-11
7.34646e-13
1.70017e-11
1.70249e-11
9.05691e-12
6.97788e-12
3.19831e-12
2.16471e-11
1.11729e-11
2.26199e-11
1.07979e-12
9.14318e-12
5.11543e-13
1.71336e-11
3.74226e-11
1.11728e-10
5.82049e-11
1.29953e-12
1.30954e-10
2.6481e-13
5.90098e-13
2.41126e-11
5.25161e-11
5.78003e-13
9.22663e-11
9.69129e-11
3.89448e-11
2.04021e-10
2.20623e-11
5.31887e-13
1.51783e-12
2.61826e-11
1.00244e-10
1.05949e-11
1.41475e-10
1.80618e-10
4.94982e-13
5.19055e-12
2.38043e-14
1.38915e-11
2.07908e-12
1.75721e-12
5.36731e-12
6.8967e-13
4.62519e-11
4.19192e-12
4.55998e-12
6.44075e-12
4.87748e-13
1.53688e-12
2.4202e-11
0.000210831
3.35348e-11
1.09561e-12
4.2557e-13
7.72283e-11
2.74349e-13
2.55182e-11
2.84464e-10
1.18189e-11
9.9384e-13
4.07004e-13
1.95249e-11
7.46756e-12
2.86327e-12
1.31867e-12
8.42506e-12
7.94998e-12
2.35643e-12
5.55588e-12
1.47073e-10
2.62558e-12
1.17342e-11
1.07564e-12
4.61437e-12
8.61903e-12
1.26563e-12
1.25533e-11
7.10947e-12
4.10436e-11
1.55012e-12
8.45754e-12
3.59664e-14
3.65225e-12
9.28744e-13
1.62815e-11
2.9812e-11
8.0436e-13
8.91818e-11
2.43464e-11
5.9711e-13
1.46525e-12
1.50136e-11
2.02906e-11
1.62345e-12
7.01016e-12
2.19571e-12
1.36738e-11
1.16617e-11
2.5519e-12
1.85538e-12
1.95502e-10
2.16413e-12
2.59044e-12
6.86579e-12
1.2826e-11
8.77892e-11
7.07e-12
2.55921e-12
8.37457e-12
6.92696e-12
9.06828e-14
1.10472e-13
7.75398e-13
1.57878e-12
4.64132e-10
3.66796e-12
6.28879e-12
3.06834e-13
8.22591e-12
1.62607e-10
3.32892e-12
1.31366e-11
6.21591e-11
1.20038e-12
1.60757e-11
5.3587e-13
1.66814e-11
9.23868e-12
3.26268e-12
1.15839e-11
2.69263e-12
1.4175e-12
1.05167e-11
1.93601e-12
5.96927e-11
2.16322e-11
1.95419e-11
2.2003e-12
5.16486e-11
7.78239e-13
1.80201e-11
1.56837e-12
3.0976e-11
2.01367e-11
2.24302e-11
1.33253e-12
2.29646e-10
2.30323e-12
1.10888e-11
5.75415e-12
1.21809e-12
2.33179e-14
2.11781e-11
2.81869e-12
1.00359e-11
4.83781e-12
1.32174e-12
3.96409e-13
4.60048e-11
4.71669e-11
6.17993e-11
3.00665e-10
1.03287e-12
1.6594e-11
8.71318e-12
2.96683e-11
9.42512e-13
1.69783e-11
3.76523e-12
3.00174e-12
9.92934e-12
4.7129e-12
3.45154e-12
1.76416e-12
3.7331e-12
2.32904e-12
1.18387e-11
7.60539e-12
9.08508e-12
9.80357e-05
2.29548e-11
7.0951e-12
2.25359e-13
5.84902e-11
4.12336e-12
1.02086e-11
9.04592e-12
7.31352e-12
1.45435e-11
4.32291e-13
3.098e-12
1.86471e-11
6.64537e-13
1.32709e-11
3.99032e-12
7.88636e-12
1.04921e-11
1.16461e-12
7.03315e-11
1.27805e-12
1.99488e-12
2.85566e-12
1.11645e-13
9.33542e-13
9.35497e-11
1.06984e-11
5.79278e-13
1.21813e-12
1.30368e-12
2.55672e-11
3.8191e-12
7.09739e-13
5.61465e-12
6.2245e-13
7.80873e-12
3.38063e-12
5.52699e-12
3.39089e-12
4.34926e-06
2.18862e-12
6.30428e-13
1.39383e-13
1.79384e-12
1.96364e-10
7.57756e-11
9.82768e-12
5.43717e-12
1.89604e-10
4.05614e-12
4.78051e-13
1.57183e-10
3.94764e-12
3.16692e-12
3.00243e-12
1.06434e-12
4.21201e-12
1.43019e-11
5.90156e-11
4.6246e-11
9.57342e-12
9.60787e-13
5.58539e-12
2.76393e-12
6.7456e-11
8.15345e-13
9.95668e-11
1.56542e-11
1.22881e-12
4.8351e-12
2.48708e-07
2.27329e-11
2.52252e-12
4.36765e-13
1.58242e-11
7.04171e-13
8.09658e-12
2.07859e-12
3.73281e-11
8.50971e-12
1.82711e-11
1.1633e-12
9.1411e-12
3.37112e-11
6.26374e-12
3.86204e-12
3.9855e-11
1.87039e-13
3.16778e-11
9.57306e-09
1.14723e-10
2.77292e-12
4.68203e-11
4.15431e-12
1.74978e-11
1.83642e-11
6.01012e-14
7.48188e-12
3.82419e-09
1.81012e-11
4.10454e-12
7.49341e-12
1.83384e-12
2.182e-12
3.2835e-11
7.64493e-12
0.000376704
1.11858e-12
0.0923027
2.16161e-11
0.00428314
9.92378e-13
3.71698e-13
4.27501e-11
2.5227e-11
2.47129e-12
1.87696e-11
8.07204e-13
1.0107e-10
1.70936e-12
1.81541e-11
3.81369e-12
2.30525e-11
1.67439e-11
2.79368e-11
9.27316e-12
1.82695e-12
1.88382e-12
3.48022e-11
1.90213e-13
5.89853e-12
3.17266e-12
1.7446e-12
7.05737e-12
7.93767e-12
1.34492e-11
6.43244e-11
3.03332e-12
1.57299e-12
1.54285e-11
9.52512e-12
2.08101e-13
1.29988e-11
2.06459e-11
1.42457e-14
1.19053e-12
5.50102e-12
2.49547e-12
3.45518e-12
7.82658e-12
4.63531e-11
4.0731e-12
8.84704e-13
8.09497e-12
7.00856e-11
7.73464e-12
3.02317e-11
3.1791e-12
4.41822e-12
2.1285e-11
6.81054e-13
1.93211e-12
4.46145e-12
1.51748e-12
2.02699e-11
6.79229e-12
4.09424e-11
1.69195e-11
8.21889e-13
2.32423e-12
8.06486e-12
1.64675e-12
4.87269e-13
3.20176e-12
1.61239e-11
2.16691e-11
7.14806e-12
2.19723e-11
7.4792e-12
1.46934e-10
3.82122e-12
1.85254e-10
1.00084e-11
3.82449e-09
8.57278e-13
1.16069e-11
3.08852e-12
2.61075e-10
1.08983e-12
3.48334e-12
1.9117e-12
7.06169e-13
2.62389e-11
2.23109e-12
3.05482e-11
1.73357e-12
0.000506119
2.25898e-11
8.99801e-12
8.38266e-11
2.17502e-11
4.4745e-13
6.27353e-12
8.01269e-12
2.36336e-12
1.79159e-12
3.27741e-11
3.01072e-13
1.24315e-08
6.6751e-12
4.45762e-12
1.67739e-11
4.16493e-12
3.64685e-12
8.904e-12
4.47876e-11
1.07324e-12
3.97411e-13
2.11968e-13
1.75533e-12
1.11535e-11
1.66316e-11
1.19711e-10
2.02004e-12
5.19086e-12
4.32776e-13
9.36295e-12
8.20352e-14
3.00869e-12
1.96727e-12
3.56395e-11
0.0449952
1.59567e-12
1.50169e-12
3.55596e-13
2.58025e-11
1.33413e-11
9.87215e-12
7.48444e-06
8.91478e-13
7.42072e-11
1.48211e-11
4.54027e-12
6.10569e-11
3.35999e-12
2.01441e-12
1.52186e-12
2.04039e-11
9.70339e-13
9.98499e-12
4.49645e-12
1.01465e-11
2.44811e-12
2.83801e-12
4.53328e-14
1.07057e-12
1.63656e-12
8.66988e-07
2.70186e-11
3.17417e-11
2.60214e-12
2.39424e-12
5.65361e-12
0.000139005
1.45425e-11
5.61707e-13
9.79649e-13
6.38146e-12
2.20869e-12
8.23968e-12
2.3182e-11
1.65545e-12
2.26611e-12
0.000467442
1.43913e-11
9.37146e-12
5.02122e-12
5.1885e-12
8.41816e-12
5.82785e-12
1.9865e-11
1.3917e-12
1.21249e-13
3.69178e-12
3.11637e-13
8.62224e-12
2.69184e-11
3.49123e-10
1.30652e-11
2.49808e-12
8.94297e-12
2.07126e-11
2.29892e-12
8.23995e-12
5.89637e-12
2.33404e-12
3.76541e-11
1.67289e-12
1.30789e-10
1.68186e-12
6.71954e-12
5.77779e-11
2.04457e-13
4.22965e-11
3.66744e-13
9.23891e-12
1.32791e-13
1.25727e-12
6.22671e-12
3.2936e-12
1.69365e-11
2.21733e-13
1.78406e-12
9.60854e-12
6.04375e-12
5.11843e-14
2.01736e-12
1.47565e-11
0.00100884
6.03286e-13
9.30767e-12
0.0200965
9.36622e-12
4.47991e-12
5.84566e-11
2.21731e-12
6.19309e-11
1.10813e-12
3.70125e-12
9.5564e-12
1.84762e-11
2.79237e-13
1.66692e-11
3.76797e-11
5.85393e-13
2.22545e-11
1.18025e-10
1.58924e-05
1.66601e-11
5.20229e-11
3.07748e-11
3.65142e-12
9.95607e-12
7.93131e-11
7.32606e-11
3.01169e-12
2.68941e-11
1.69076e-13
2.53261e-11
2.02725e-11
1.36543e-11
5.90278e-11
5.09144e-11
5.45608e-11
7.93849e-12
4.30702e-12
7.5604e-12
6.05898e-13
3.3016e-12
1.47414e-11
9.05802e-12
1.05697e-11
6.22157e-11
7.87045e-12
3.76892e-11
4.50599e-13
1.39644e-11
8.41083e-12
2.68399e-11
4.48612e-11
4.59119e-12
3.98075e-07
2.60194e-12
3.122e-11
1.17419e-11
1.03738e-12
9.38131e-11
6.20505e-11
1.29175e-12
2.05109e-11
4.84454e-08
1.49205e-12
1.01855e-10
4.16568e-13
4.13699e-11
1.96101e-12
3.80385e-12
2.6666e-12
1.9172e-12
1.60571e-11
8.49552e-12
6.26351e-12
2.22865e-11
5.22922e-12
6.3314e-12
5.7985e-12
1.03111e-12
0.117983
4.00021e-11
4.47224e-13
7.55434e-12
6.66849e-11
2.67626e-12
1.79675e-12
3.84358e-13
1.23514e-12
3.26238e-10
4.45287e-11
5.5311e-12
2.05026e-12
3.54389e-12
1.43781e-12
1.00644e-11
2.67117e-11
1.34248e-12
2.21493e-12
2.44871e-11
1.69431e-12
5.10012e-12
3.28757e-11
1.7916e-12
5.18369e-13
3.29425e-12
2.1498e-12
1.41673e-12
1.78361e-13
9.54355e-12
1.78058e-11
2.2652e-12
0.144578
2.66344e-12
7.85343e-05
6.42996e-12
8.86485e-11
1.16444e-11
0.027552
4.09418e-12
4.72761e-12
3.79409e-11
4.39371e-12
3.03397e-11
4.90834e-13
1.33056e-13
1.07595e-11
4.0693e-12
0.141452
1.47659e-12
0.0723298
2.71681e-13
2.10197e-13
2.23825e-12
1.8046e-12
1.69782e-13
8.84664e-13
2.61149e-12
4.74511e-12
2.14194e-12
2.61501e-12
1.21529e-09
2.43348e-13
2.05294e-11
5.24734e-12
2.55086e-11
8.80362e-13
1.02743e-11
4.94241e-12
1.23515e-10
3.99695e-12
3.63322e-12
1.0796e-11
6.7742e-13
2.91938e-12
7.56392e-12
5.99694e-12
1.54794e-13
2.87905e-11
4.07414e-12
0.000695113
1.82078e-11
6.05828e-13
1.90884e-12
4.50287e-12
3.81935e-12
3.3326e-12
9.94102e-13
1.79536e-12
3.79318e-13
3.12788e-11
4.05196e-11
8.10493e-11
1.40541e-11
8.54304e-13
6.34359e-08
1.31229e-11
2.82264e-12
1.205e-11
2.52406e-12
2.51275e-12
1.87498e-12
3.75794e-13
2.64566e-11
8.27956e-12
1.10736e-12
1.10069e-12
1.59249e-12
2.51889e-11
1.5644e-11
2.09338e-11
5.63166e-12
4.14776e-10
7.52587e-13
4.95272e-11
1.87021e-12
5.62465e-11
1.14428e-11
5.02788e-13
9.63394e-12
7.52465e-08
7.25008e-13
3.92339e-13
9.14081e-11
7.46864e-12
8.63158e-11
3.61296e-11
1.57166e-13
1.00398e-12
1.57484e-12
1.0497e-12
2.22793e-12
1.84516e-11
0.121894
2.243e-11
3.59038e-12
1.58277e-12
9.95726e-13
2.16127e-12
2.9587e-11
2.31731e-12
2.01118e-11
1.70076e-11
4.85743e-13
9.887e-13
1.51102e-12
3.96093e-13
3.59751e-11
9.11196e-12
2.80269e-11
8.09657e-07
9.92744e-12
4.18007e-11
1.50739e-12
6.98415e-11
2.52635e-12
1.17184e-10
2.18727e-11
6.78037e-13
2.97059e-12
4.86669e-11
0.000576597
1.80446e-11
1.08521e-12
2.25824e-12
3.37789e-12
3.43121e-11
1.84429e-13
3.79196e-12
3.60108e-12
3.95635e-12
4.72766e-12
4.87039e-12
7.93179e-13
5.48679e-12
1.04524e-11
4.1347e-13
9.71692e-13
2.07834e-11
5.84106e-11
1.52069e-13
1.9943e-11
1.15032e-11
2.3017e-12
6.42287e-11
4.44537e-12
2.1434e-11
7.89533e-13
3.72828e-12
1.58022e-11
9.9536e-12
5.38274e-12
5.60787e-14
2.44232e-13
2.30282e-12
4.20691e-11
5.13833e-11
4.83565e-14
1.30555e-14
2.00595e-13
7.70027e-13
1.10411e-11
1.28576e-11
2.67631e-12
6.80999e-12
1.43869e-11
0.00550045
1.62516e-11
2.73157e-07
1.01691e-12
3.67199e-12
2.70388e-12
1.52118e-12
1.57164e-06
0.000247246
5.14285e-12
1.32828e-07
5.7791e-12
1.81935e-13
1.55005e-12
2.0245e-11
1.60362e-12
3.3544e-12
3.66259e-06
2.2837e-12
1.413e-12
1.29928e-11
9.17823e-12
1.35939e-12
2.07302e-12
2.88205e-11
7.04654e-13
1.05089e-11
3.74632e-13
4.94355e-12
7.77544e-12
1.02034e-11
2.21399e-11
2.51591e-13
1.65614e-12
3.70626e-12
5.16274e-12
2.67276e-11
1.02488e-12
7.36743e-13
7.48565e-12
3.3042e-11
2.02731e-12
7.67504e-13
8.12908e-12
7.43272e-11
5.60495e-06
1.66036e-11
2.30558e-12
1.68502e-12
2.57769e-11
5.36481e-11
1.05984e-12
8.26177e-12
8.80075e-13
2.70004e-12
3.25834e-13
1.19415e-12
2.21393e-13
4.97542e-12
1.76664e-11
5.11575e-13
1.82632e-11
1.63939e-13
8.97839e-12
4.36428e-13
0.000281052
8.09924e-13
3.10395e-12
7.79142e-13
2.54895e-13
2.73206e-11
3.63727e-12
1.23767e-11
5.28351e-12
4.88076e-12
6.09132e-12
5.32511e-13
1.06762e-11
0.0416682
5.08382e-12
6.27586e-12
5.15275e-12
1.04185e-11
1.54982e-12
0.0986797
0.00116306
2.54327e-12
4.86732e-12
3.29727e-12
2.03844e-13
1.53144e-12
2.88124e-11
3.96768e-07
1.70478e-05
2.91694e-11
3.60969e-08
1.53699e-12
2.57108e-12
2.06509e-11
1.11733e-12
4.50021e-13
1.38683e-12
1.39061e-10
9.36436e-13
1.0946e-11
4.59636e-10
6.06669e-11
2.2792e-11
3.53028e-11
2.71384e-12
2.50688e-11
1.13625e-12
1.34304e-11
1.87506e-11
8.95899e-12
6.58674e-12
5.13007e-13
1.16806e-11
1.13712e-11
2.65835e-13
9.07484e-11
2.69591e-11
0.00114781
7.51119e-12
1.29396e-13
2.37214e-13
1.65965e-12
2.90763e-11
3.22389e-12
1.33734e-13
1.42211e-13
3.01129e-13
2.39615e-13
7.51494e-11
3.31686e-13
9.88684e-12
1.37494e-12
1.27682e-11
1.83822e-12
1.23397e-11
1.82845e-12
2.19529e-11
3.23233e-12
2.42778e-13
7.60405e-12
1.69867e-12
6.9113e-12
9.27809e-12
3.05583e-09
1.65646e-12
0.102799
6.43651e-05
4.82489e-12
2.03906e-12
4.53684e-13
1.43462e-10
9.80522e-12
1.89577e-11
7.08864e-13
0.0472909
7.18503e-12
5.93235e-11
1.79538e-12
1.5271e-12
7.69484e-12
1.89006e-11
4.60507e-12
9.94572e-14
1.0782e-11
1.00487e-12
9.28462e-11
1.73796e-07
1.06965e-10
5.0522e-11
2.25824e-11
2.55605e-11
3.23787e-11
3.46292e-06
4.82948e-12
4.5657e-11
8.09373e-11
1.21569e-12
7.20861e-12
1.74505e-12
3.32354e-12
3.1693e-13
1.0361e-11
1.09052e-11
1.7621e-13
6.80336e-14
2.91315e-11
1.16609e-11
2.55862e-12
2.51468e-11
4.17333e-12
5.69481e-14
3.92481e-11
4.56611e-11
3.61597e-12
1.59029e-11
1.15245e-10
1.81103e-11
5.73146e-12
7.91061e-13
2.5847e-12
5.9277e-12
1.3581e-11
0.0107291
1.76864e-13
1.10965e-10
1.11264e-12
1.49333e-11
1.33852e-10
3.37628e-12
6.1882e-11
9.53114e-12
3.66575e-13
2.16026e-12
3.3785e-12
1.68359e-12
5.38803e-12
3.75792e-13
8.28643e-12
8.68629e-12
9.54837e-10
1.1073e-12
9.93416e-13
0.0035733
1.68459e-12
1.20549e-12
2.26795e-11
2.12508e-11
8.85102e-13
1.61096e-12
1.85766e-11
8.95474e-08
1.61526e-11
2.17021e-12
3.03133e-12
2.76126e-11
1.47992e-11
3.99467e-11
3.31138e-12
8.78986e-11
2.81936e-11
2.20644e-11
4.07711e-12
4.68305e-12
1.42952e-12
2.16453e-11
1.13746e-10
7.27461e-12
3.11517e-11
4.92793e-12
4.47556e-11
2.0216e-12
8.45987e-12
6.31417e-13
2.48387e-12
8.73635e-11
1.03276e-10
1.06273e-11
3.75345e-11
3.51011e-11
2.01918e-13
4.41776e-12
2.80561e-08
6.19064e-11
7.99537e-13
6.42805e-13
0.0977864
1.23213e-12
1.44165e-12
3.72392e-11
1.02511e-12
1.78493e-11
2.59747e-12
6.07799e-12
1.27731e-12
1.51302e-11
4.90178e-13
9.07114e-12
7.47992e-12
8.83292e-12
4.24075e-11
2.94822e-11
6.49952e-12
7.15721e-12
4.01881e-13
2.39557e-10
3.48326e-13
9.40834e-09
0.000800262
9.70377e-11
3.79873e-12
1.31349e-12
1.58276e-11
2.80008e-12
3.65501e-12
4.00663e-11
8.15242e-13
1.90391e-12
0.127749
8.4685e-09
9.30333e-12
1.45703e-11
3.57916e-12
1.50197e-11
1.78179e-12
6.16014e-12
1.13013e-10
8.80438e-12
4.53473e-11
5.21911e-08
1.75678e-12
8.68573e-13
8.53232e-11
0.244992
0.106189
2.0672e-11
3.65846e-12
6.52649e-12
6.46699e-12
3.07187e-11
5.73877e-12
2.83631e-11
2.06501e-11
4.78272e-12
5.35331e-11
5.47736e-11
1.91416e-12
3.89993e-12
1.23869e-10
1.40113e-11
1.0844e-11
5.96619e-12
4.13248e-10
7.68449e-11
1.80113e-11
7.09744e-11
0.00141054
6.46931e-12
6.94527e-12
5.25302e-12
4.10854e-11
8.90614e-12
6.3529e-11
9.33694e-12
2.84056e-11
4.99025e-11
5.43092e-11
3.3647e-12
1.24199e-11
4.6638e-13
4.20904e-12
9.34762e-12
4.06604e-12
1.00101e-11
2.26865e-13
5.62832e-13
3.76052e-11
1.82718e-12
4.84826e-13
8.91804e-13
5.53452e-11
4.52782e-10
7.74118e-13
4.04228e-13
3.55246e-12
2.79569e-12
2.41795e-10
1.57294e-12
4.06683e-12
2.4926e-12
9.95644e-12
2.06653e-12
1.38907e-05
0.0602079
1.50349e-13
1.13276e-11
2.83858e-12
9.05969e-12
2.58698e-12
3.99534e-14
2.97052e-12
1.61256e-11
2.91286e-11
3.45901e-11
3.11926e-13
3.33074e-12
7.5748e-13
3.1042e-11
3.78229e-11
7.03944e-12
1.14631e-07
3.26216e-12
0.000102674
4.78785e-12
2.5949e-12
6.92323e-13
1.30786e-13
0.22013
3.99102e-13
1.7388e-12
3.38611e-11
9.13788e-13
1.54601e-12
4.31598e-12
5.16384e-13
1.78642e-11
3.78659e-12
1.21298e-12
1.60552e-11
2.60102e-11
1.40245e-11
7.92724e-12
0.0821974
7.40452e-11
2.10369e-11
2.40446e-12
9.23098e-12
2.39211e-11
3.96173e-06
2.66836e-11
3.17356e-12
2.94733e-12
9.07659e-11
1.10326e-10
2.80011e-12
5.81442e-12
7.13116e-12
1.02309e-11
7.83221e-11
1.269e-11
1.5183e-11
1.82745e-12
0.00838755
6.07714e-12
2.26155e-10
1.35303e-12
0.00914439
8.3236e-12
5.1607e-12
1.42288e-10
4.78159e-12
6.76549e-13
7.11727e-12
4.65167e-11
2.19674e-13
5.06162e-13
8.86497e-13
1.41552e-12
4.8149e-11
7.05175e-12
9.91828e-11
0.0981516
1.91295e-12
3.54169e-11
1.00389e-10
5.65674e-12
6.43275e-11
9.07434e-11
5.82778e-12
1.64894e-12
1.26074e-11
1.5332e-12
6.72324e-13
6.65729e-11
0.0788576
1.40657e-11
1.95066e-11
2.50203e-12
3.30139e-12
2.64264e-11
7.18868e-11
9.76196e-12
3.4092e-09
1.40378e-12
3.51638e-12
5.34926e-12
6.5242e-11
9.01275e-11
2.11283e-12
6.57927e-12
2.4946e-09
0.00293711
1.00823e-11
1.46521e-11
7.86482e-11
0.00488554
2.85379e-09
1.22635e-12
4.52901e-11
2.39037e-12
1.08618e-10
3.54699e-11
3.46452e-11
0.0542864
1.19851e-11
0.0041808
6.64139e-11
1.50657e-11
6.38363e-11
9.72647e-11
1.24176e-11
1.20496e-12
2.21307e-12
9.49878e-11
5.78723e-13
7.59703e-12
5.69827e-12
9.34925e-11
5.09553e-14
4.75796e-10
8.81395e-12
3.87273e-11
3.34098e-11
5.94292e-11
1.87336e-12
9.22649e-12
6.03555e-12
3.31466e-12
4.6797e-11
6.62605e-14
1.43792e-11
5.07318e-12
4.08587e-13
2.06571e-11
1.09111e-12
1.06517e-11
5.37302e-12
7.40247e-12
3.71914e-12
3.698e-11
4.89994e-07
6.70907e-10
1.96354e-12
9.05534e-12
5.37328e-09
6.02842e-13
7.03584e-13
1.65821e-11
1.97446e-11
1.64624e-10
5.14805e-12
1.95711e-12
5.24811e-13
5.13825e-13
2.97551e-12
2.39627e-11
4.92255e-11
1.06154e-12
7.69769e-13
3.58271e-11
9.47349e-12
1.41956e-11
1.61028e-14
1.06541e-11
6.79147e-08
1.89725e-11
7.17214e-12
1.92093e-11
1.73336e-12
1.40343e-12
2.05359e-11
0.145333
9.83334e-12
2.13198e-07
2.53693e-12
3.86311e-13
7.46704e-12
8.30713e-12
7.98114e-12
4.37344e-11
1.95457e-12
2.09366e-12
7.29908e-12
5.6587e-12
1.13657e-11
2.65101e-13
1.66126e-11
5.80768e-11
1.09846e-12
1.19456e-11
1.81526e-12