/*--------------------------------*- C++ -*----------------------------------*\
  =========                 |
  \\      /  F ield         | OpenFOAM: The Open Source CFD Toolbox
   \\    /   O peration     | Website:  https://openfoam.org
    \\  /    A nd           | Version:  10
     \\/     M anipulation  |
\*---------------------------------------------------------------------------*/
FoamFile
{
    format      ascii;
    class       volScalarField;
    location    "12";
    object      SgRate;
}
// * * * * * * * * * * * * * * * * * * * * * * * * * * * * * * * * * * * * * //

dimensions      [1 -1 -3 -1 0 0 0];

internalField   nonuniform List<scalar> 
111485
(
1.5943e-09
9.92032e-07
6.14664e-07
4.90571e-12
1.764e-07
2.51277e-09
2.63459e-07
2.14717e-08
1.93655e-07
2.59473e-08
4.51168e-07
2.05194e-08
1.34588e-07
0.00502781
1.22177e-07
3.87033e-07
0.00375554
2.03477
2.3442e-08
2.40766e-08
0.000692791
2.07469e-10
5.77595e-08
2.82487e-07
7.16002e-07
2.1771e-09
1.66157e-08
7.03461e-10
4.56118e-08
0.000902687
0.00712076
2.29524e-08
6.38907e-09
2.55492e-08
0.00951581
1.80201e-06
0.00534381
0.00372884
4.26095e-05
7.82554e-08
0.000722329
1.67118e-08
6.42072e-08
2.10908e-06
0.000256991
3.90992e-08
1.28742e-07
1.46692e-08
1.08087e-07
1.46611e-08
2.79155e-08
3.58226e-07
9.82901e-09
1.95796e-07
3.51132e-08
1.84144e-08
3.98328e-08
4.18564e-10
7.58939e-07
1.12253e-08
2.12823e-08
5.81988e-09
4.87218e-07
0.00235205
1.50085e-07
5.85542e-08
0.316654
3.02889e-08
1.70538e-07
7.59777e-07
0.00501817
1.10064e-07
2.13671e-07
4.11762e-07
5.77979e-09
7.92074e-09
1.09863e-09
1.39456e-08
1.99487e-09
4.88489e-07
0.00496652
0.00957307
9.33242e-10
2.17801e-09
1.1429e-07
5.35194e-07
0.00249349
1.73736e-07
0.0110035
2.17138e-08
9e-05
1.19912e-07
1.4075e-07
7.13217e-09
2.9564e-08
4.243e-10
0.000505044
3.05001e-07
3.21794e-05
8.18728e-06
5.76556e-10
4.97963e-08
3.54583e-08
2.2568e-07
1.2216e-07
2.59144e-07
1.92504e-10
1.62961e-08
7.3664e-08
1.16116e-05
2.64642e-09
3.76896e-08
1.99874e-07
1.37962e-06
5.62411e-09
1.5984e-09
1.56327e-09
1.64877e-07
2.59429e-07
1.57118e-10
1.13344e-09
3.36198e-06
0.001249
4.51686e-08
7.49364e-07
0.000533071
1.97736e-06
8.49942e-09
1.75365e-11
4.30376e-05
0.00750938
4.02127e-07
0.000884786
3.16953e-06
1.47597e-06
7.62322e-09
2.01746e-10
1.83151e-09
1.97547e-07
2.52011e-07
1.4201e-06
1.33834e-09
0.00326393
1.56355e-06
5.448e-07
3.93265e-08
2.31232e-10
8.15397e-10
2.22199e-09
2.03533e-08
5.87355e-07
0.000530751
0.00261014
1.14524e-07
1.40195e-06
2.67396e-09
7.36336e-08
1.605e-06
1.63357e-05
1.09078e-07
7.71098e-11
3.73665e-09
8.83769e-07
2.16121e-06
1.41567e-06
2.45606e-08
3.33287e-07
0.000451772
2.97961e-05
2.10916e-05
4.10297e-11
2.08419e-09
0.003495
2.70647e-11
3.20507e-09
1.64903e-09
7.98229e-09
1.63308e-07
4.01733e-09
1.02567e-07
1.47696e-07
4.96223e-09
2.30041e-08
5.50482e-09
5.60556e-08
4.18288e-07
2.18132e-07
1.20699e-08
6.36537e-06
5.75621e-09
3.67769e-08
9.06494e-08
1.31592e-07
1.71813e-09
1.1786e-07
9.17507e-05
3.79882e-08
3.02616e-10
2.00857e-08
9.16482e-08
2.18726e-08
6.6034e-05
1.63016e-06
3.55156e-09
3.05504e-08
1.44702e-08
1.91788e-07
2.01708e-07
2.89185e-07
6.56733e-08
6.36569e-08
1.47293e-08
1.42935e-07
1.07682e-10
4.22828e-08
5.04411e-06
1.45899e-08
2.98827e-10
1.24292e-08
1.07454e-09
1.73041e-08
1.35315e-09
3.92232e-09
4.03196e-06
5.05832e-06
1.15946e-10
2.21936e-11
0.0123958
7.37962e-05
4.10174e-07
1.72396e-06
9.32278e-10
3.77839e-09
0.0024708
6.52648e-07
2.51509e-07
0.00391287
1.38015e-09
5.33359e-07
9.1097e-09
5.00107e-09
3.19812e-09
5.60733e-09
7.49342e-08
3.39108e-05
5.26561e-09
1.44423e-07
1.46558e-09
1.02242e-07
0.00232622
3.58538e-07
4.22435e-09
1.30534e-08
2.54863e-11
3.63038e-06
1.48032e-08
5.67865e-09
1.20687e-06
0.00185028
1.6289e-09
1.00099e-09
1.01968e-08
1.75555e-08
6.55603e-11
1.18778e-08
1.54878e-11
9.6761e-10
1.24518e-08
0.00297279
6.09536e-08
7.88393e-08
4.73639e-08
0.00319532
6.93789e-08
2.80568e-08
1.15228e-05
4.66752e-09
1.0058e-08
9.51615e-09
1.8305e-09
0.00202364
3.14239e-09
8.14353e-07
3.85417e-09
2.76793e-11
0.00383128
0.00481433
1.20546e-08
5.87393e-06
6.32308e-07
5.49904e-08
1.05858e-08
2.58269e-07
1.6457e-10
1.37302e-07
3.03074e-10
6.72595e-06
4.94295e-06
0.0207873
3.68381e-08
0.00609116
6.05902e-09
0.00144089
1.31622e-08
3.5245e-08
2.4759e-10
2.20443e-09
0.000461935
1.62081e-09
1.57449e-08
9.99449e-08
1.66763e-06
1.23509e-08
4.5649e-07
7.73076e-10
3.91404e-09
1.17348e-08
7.76982e-05
0.00447558
0.00668431
1.33591e-05
1.71779e-10
1.01931e-09
4.48107e-10
1.49509e-06
2.52426e-08
1.2117e-08
5.71652e-08
6.03295e-09
1.32052e-06
0.00112862
2.72573e-06
5.92931e-09
5.22213e-08
9.38022e-09
0.000795596
9.28093e-07
1.0758e-08
1.22287e-08
5.54791e-09
0.00406874
2.64815e-09
0.00264624
4.41656e-06
6.39088e-09
2.31577e-09
3.62488e-05
1.39801e-08
0.000652043
5.07144e-09
7.25275e-09
8.10057e-05
2.27466e-07
4.66576e-07
1.7563e-07
6.85403e-09
9.12671e-09
2.17495e-08
7.79773e-08
0.00617309
4.80968e-07
3.80882e-09
0.00088229
4.13496e-07
4.19495e-10
8.77337e-09
3.97062e-09
0.000880225
0.0421726
0.000856222
0.000824261
2.59996e-09
2.16553e-10
2.75639e-08
1.61608e-08
3.47948e-11
1.20106e-07
1.87524e-08
2.81952e-07
1.94693e-08
2.1868e-06
1.70067e-08
0.00021739
3.31608e-08
3.19789e-08
9.00584e-07
1.22997e-08
1.45107e-05
5.51641e-09
2.86395e-07
6.88066e-06
0.000503748
1.99464e-09
1.92774e-08
0.00269889
1.2029e-07
0.00563755
7.80484e-09
0.000942817
4.91196e-08
1.31178e-10
1.11979e-07
1.09503e-06
1.81976e-09
0.00059684
4.9089e-08
4.86561e-08
1.66272e-08
3.224e-10
1.31544e-05
3.60458e-10
8.66836e-08
6.68744e-08
1.68559e-12
1.24812e-08
9.61341e-07
0.00439636
2.43612e-06
3.85204e-11
1.44488e-06
2.06062e-06
1.77545e-06
7.64353e-07
1.32797e-05
6.19638e-08
0.856595
9.69412e-07
0.00351117
0.00599611
3.80238e-09
5.43224e-07
2.61452e-08
1.94484e-09
2.43319e-05
3.30655e-06
1.3908e-06
3.29033e-08
3.44854e-08
2.6835e-07
3.66404e-09
0.00603137
3.23385e-08
6.44343e-07
0.00788526
1.68657e-06
0.000141044
1.23003e-09
0.0044887
0.00567825
4.1306e-10
6.89202e-07
5.33379e-06
1.99969e-06
6.19556e-11
4.77818e-07
4.04489e-10
0.00535746
1.18996e-06
3.63446e-07
2.28598e-06
5.56508e-07
4.63163e-09
6.62926e-08
1.35113e-08
1.39309e-06
2.9322e-09
1.79399e-08
0.000977556
1.65069e-06
1.80005e-09
2.14075e-09
7.5988e-06
1.5374e-09
3.14541e-08
7.17638e-08
6.74832e-11
1.06109e-06
1.66712e-09
0.00138474
8.47343e-09
4.47085e-08
3.12638e-09
4.03077e-06
8.87475e-09
0.00419186
3.80591e-07
0.00481508
5.31296e-10
1.46354e-06
4.68564e-08
6.05751e-11
0.00643764
0.00250184
5.61215e-07
0.0148859
5.63104e-07
1.87082e-08
3.11199e-07
7.04555e-09
5.60515e-07
0.00507793
1.0557e-09
2.20274e-08
1.95105e-06
3.5648e-07
0.00098681
1.31303e-07
2.01412e-06
2.22141e-08
3.48397e-08
1.34594e-05
0.00136537
1.37926e-07
9.48986e-09
2.932e-08
1.00914e-07
6.03229e-08
2.31114e-08
4.04659e-07
2.11766e-11
3.20747e-05
3.82579e-09
6.54148e-09
4.78988e-09
1.91609e-06
4.86863e-10
1.80086e-07
4.12799e-09
1.56628e-07
1.3073e-09
0.00202645
0.00214406
1.12123e-08
3.3292e-09
0.00108548
0.00174127
5.63998e-09
4.15874e-09
2.6924e-07
3.74109e-09
1.83886e-06
2.90879e-07
2.51057e-07
0.000795449
2.96568e-08
9.06787e-11
8.20165e-07
0.0399647
1.217e-06
2.3806e-08
3.97427e-07
2.94165e-07
2.41367e-08
1.8773e-08
4.56914e-07
7.19127e-07
1.54246e-10
0.00225661
0.000976254
9.80901e-07
3.44627e-08
0.0046373
7.30198e-07
9.24602e-06
0.000971284
6.15711e-06
5.51326e-08
2.02031e-06
2.66068e-07
4.86174e-07
0.001957
0.000545175
1.31274e-06
7.42368e-05
0.598294
5.9218e-09
9.85725e-07
8.13622e-08
6.13007e-07
1.44795e-10
0.00236564
4.99932e-05
3.71314e-05
2.9362e-06
5.34985e-07
2.01744e-08
6.8706e-09
3.47129e-06
3.51661e-08
1.50267e-09
5.13347e-11
9.05017e-09
7.96376e-10
4.16763e-07
3.01118e-11
0.000651098
2.98295e-07
1.10977e-08
0.00180952
0.00591231
1.01906e-06
5.51656e-09
0.00069148
6.91716e-10
4.4697e-07
3.28814e-09
9.93048e-09
8.02322e-07
2.48674e-07
0.00208341
5.59304e-07
5.52137e-11
6.44448e-08
0.114873
0.00250836
1.60761e-07
2.67093e-05
0.000300133
0.00339318
0.000696103
5.29208e-08
3.89729e-07
1.31935e-07
9.17911e-09
1.40761e-07
2.03868e-08
4.78781e-07
8.96426e-08
4.17545e-08
2.15249e-08
7.53281e-08
0.000109871
5.45535e-07
8.44368e-08
9.19293e-08
1.22768e-05
3.847e-10
1.29096e-08
2.15543e-07
9.06846e-08
3.21008e-07
2.71545e-09
7.00176e-08
5.18969e-08
6.06659e-07
3.16208e-06
3.03916e-07
5.81134e-07
4.33244e-09
9.5319e-09
3.44983e-07
9.93215e-08
2.16083e-09
0.00129591
6.01078e-10
0.00245621
1.01383e-06
0.000336016
1.33175e-08
0.000492518
8.22473e-08
2.7823e-07
3.12863e-10
2.02492e-07
6.00165e-09
4.1408e-10
2.01561e-08
0.00509826
1.86051e-06
5.6064e-07
0.000762504
2.2705e-09
3.9152e-10
0.000114653
3.43718e-09
1.49019e-06
1.28243e-08
3.09369e-06
6.48486e-10
1.7292e-07
2.77853e-06
0.0028714
1.08188e-11
3.68258e-09
3.1829e-08
2.22312e-08
2.27462e-06
9.11383e-09
0.00104531
1.84103e-11
1.12827e-09
4.45959e-09
0.000759245
1.26832e-07
2.40488e-06
1.84807e-11
4.1012
0.169218
0.00311912
2.53197e-10
2.57206e-09
8.32418e-08
0.00133256
7.51006e-07
1.5532e-05
0.0985123
3.89805e-06
4.83246e-10
0.00105396
5.96999e-07
2.49802e-08
1.45572e-09
2.38603e-08
4.86993e-09
3.73318e-09
1.14167e-09
2.56709e-11
3.92591e-08
1.36132e-09
8.48889e-09
1.92299e-08
3.08314e-09
2.48623e-09
4.78668e-09
1.49903e-08
4.56986e-09
1.85927e-09
1.1899e-08
8.84811e-09
7.13383e-10
1.8643e-09
2.14641e-11
1.17434e-06
4.82108e-09
8.13782e-09
2.78067e-09
8.24349e-11
2.10146e-10
4.29135e-11
3.64584e-07
2.06453e-09
1.17557e-08
4.43058e-07
2.26016e-10
1.86662e-09
1.54287e-06
6.87974e-08
5.45396e-09
0.567286
5.15354e-09
0.00457486
1.85675e-06
2.18863e-07
0.00376282
1.47673e-06
1.54562e-09
4.92872e-07
2.56867e-09
3.46216e-07
0.00169248
0.573382
5.3388e-10
3.9075e-09
2.55689e-07
1.54889e-06
1.8576e-06
1.36448e-06
8.62529e-11
4.73668e-13
1.21495e-08
6.71461e-07
6.07116e-08
6.87934e-08
2.68337e-06
2.23139e-09
2.42298e-09
9.84904e-10
2.87035e-09
0.000558351
2.004e-07
1.97597e-10
2.08323e-09
8.91674e-07
0.00654635
3.38366e-08
8.19125e-09
0.000760009
3.68077e-11
1.36474e-09
0.00106061
6.45552e-10
0.00125167
7.64967e-07
0.000617688
8.85149e-06
5.53721e-09
6.10824e-07
5.9801e-10
0.000852475
7.46389e-07
2.8609e-05
0.00285138
3.09002e-05
3.86148e-09
2.11218e-08
1.29781e-08
0.0087888
0.00285526
3.18747e-09
0.00418751
1.78444e-09
2.94042e-06
4.56931e-09
1.47373e-05
2.08439e-05
2.68585e-07
1.08459e-08
0.000236161
3.02363e-08
1.41153e-08
0.000765767
3.41148e-09
9.44857e-09
2.56616e-09
9.86685e-10
3.36998e-09
0.0039383
1.44107e-08
6.18278e-09
0.000256047
8.13666e-10
1.35834e-08
0.00366721
7.84978e-09
0.00339088
0.00594902
2.30221e-05
2.11636e-07
1.91705e-08
1.97636e-08
3.13368e-06
0.00043925
2.08743e-05
5.32279e-06
7.88597e-08
0.000762818
1.94278e-06
6.02454e-10
6.99117e-06
5.14245e-06
2.06374e-05
1.14858e-05
1.72924e-05
5.75865e-06
1.03682e-10
1.30876e-06
1.37711e-08
1.38049e-08
0.00116071
0.00615364
4.33892e-09
5.6719e-09
5.76442e-05
0.00010385
4.15836e-11
0.000500913
9.85748e-09
2.30055e-10
3.45679e-10
7.69625e-09
1.06774e-07
8.24105e-09
1.32795e-06
0.000856339
5.60626e-11
1.3656e-08
8.25905e-05
0.00205581
1.3281e-06
2.24428e-08
0.000544601
6.81036e-11
2.47068e-06
5.53184e-10
8.50807e-10
1.0744e-05
0.0023265
2.07227e-09
1.99704e-09
3.24255e-09
0.000593819
8.48197e-09
0.000388428
4.62208e-09
2.19884e-06
1.30526e-10
0.00201777
5.20343e-08
4.37924e-11
1.79208e-08
9.44488e-09
0.00108797
1.6644e-08
3.71936e-09
3.5293e-08
0.00230915
0.000907092
1.35323e-06
1.0742e-05
0.0308419
4.09381e-09
5.21223e-05
1.8721e-07
6.53329e-09
4.71472e-08
0.000387179
3.74658e-07
4.77626e-09
1.5573e-07
2.78423e-06
4.132e-09
7.62828e-08
5.69132e-09
7.57797e-07
0.00127706
1.03411e-10
2.27003e-08
0.00101241
2.12114e-06
1.35859e-06
2.92356e-10
2.79216e-08
2.73727e-09
1.95076e-08
4.17554e-07
1.87006e-09
1.78383e-08
4.30781e-07
4.42098e-07
1.45263e-06
3.87809e-07
9.50878e-11
6.2408e-08
8.03934e-11
4.56592e-09
6.21341e-07
0.235417
3.66329e-09
8.63549e-09
5.26495e-08
9.1586e-11
7.81638e-07
9.29709e-09
1.08068e-06
0.000158809
1.55543e-06
4.87533e-09
0.0744156
0.00874962
1.32752e-06
0.0235606
8.51225e-10
2.56722e-06
7.21901e-08
0.00218257
2.48208e-06
1.90953e-06
8.96182e-09
1.35247e-11
1.02546e-09
0.0184166
0.00125597
0.0444631
8.16779e-12
0.131114
6.47043e-10
0.00305689
3.00121e-06
1.56544e-08
2.53603e-09
4.838e-08
1.55983e-08
0.0556863
4.42871e-08
2.09496e-06
0.00552281
0.00880035
1.29352e-06
5.23909e-07
1.34067e-06
9.21494e-07
7.96463e-09
1.14569e-11
0.0317921
6.38983e-07
4.74433e-09
3.67874e-09
1.26097e-05
6.83972e-09
0.0259705
0.00845368
2.71187e-08
1.436e-06
1.39308e-11
7.74662e-09
3.75976e-09
0.00613869
3.96525e-10
0.00214963
0.00430189
4.38855e-05
3.60589e-07
3.41415e-07
1.90031e-05
4.59021e-08
9.98227e-08
4.89283e-08
4.26328e-09
1.33367e-08
3.82998e-08
1.52539e-06
5.64426e-08
0.00118882
4.6351e-09
1.37999e-07
6.34339e-06
9.42752e-11
7.27175e-06
4.76629e-09
1.0804e-06
1.49685e-05
2.35232e-09
5.14806e-09
3.9837e-06
9.92338e-09
9.20497e-10
0.00323151
2.6323e-08
0.000757867
1.35016e-10
0.000778648
1.592e-07
1.21861e-08
2.85905e-08
8.10116e-08
5.34246e-07
1.38671e-09
0.00288584
1.87488e-08
5.04319e-11
3.32533e-06
8.18669e-09
1.32765e-10
2.64004e-06
1.7087e-05
0.0084264
4.48911e-10
3.34785e-08
8.41705e-10
1.72203e-07
8.69058e-07
0.000643251
1.06808e-07
1.46411e-05
1.25376e-06
2.2699e-05
5.23066e-07
5.3875e-08
2.19775e-08
1.65442e-08
1.69577e-08
3.71601e-08
1.227e-07
0.000820171
6.64585e-06
0.000801465
4.2732e-11
1.69277e-08
1.80368e-09
2.55428e-06
2.54373e-06
2.33196e-08
1.55022e-05
8.7215e-06
2.24869e-06
1.54102e-11
0.000121841
0.00014381
1.61158e-06
7.76489e-07
1.50523e-08
1.5766e-05
3.69336e-08
9.11352e-08
7.07542e-09
1.18393e-09
9.62382e-06
1.44946e-07
1.63636e-05
1.51759e-08
0.000792903
1.12362e-05
1.60516e-08
1.97781e-08
2.54329e-05
5.90104e-08
0.00104034
0.0047852
7.33205e-05
0.00078729
2.34047e-07
1.86846e-08
4.63714e-10
3.04235e-09
0.000820847
6.94853e-08
0.000582778
0.00102655
5.52037e-07
4.72332e-09
5.67001e-06
0.0007041
4.62012e-07
2.10682e-05
2.44522
0.000739206
0.00238278
0.00085956
0.000197916
1.54114e-10
3.58686e-05
3.17214e-08
3.64776e-09
4.5865e-09
5.46341e-09
3.99922e-07
1.31271e-09
3.27904e-09
1.58043e-06
2.31818e-09
2.47051e-10
1.71513e-08
2.03822e-08
0.00100099
4.6617e-09
0.00032385
0.00129153
0.00499225
2.00081e-09
0.00354137
0.00743647
0.00661924
7.7045e-08
1.37762e-09
1.00252e-08
6.35862e-07
0.0405114
3.76579e-11
0.000977234
1.03643e-09
3.70835e-09
2.89533e-07
2.12542e-09
2.7579e-08
5.8363e-09
0.0013117
2.59851e-09
3.0299e-10
4.75383e-09
9.20969e-09
1.40157e-08
0.00578433
5.76977e-07
1.98457e-08
6.56094e-06
3.34962e-07
9.89705e-09
4.02393e-05
2.20322e-08
3.56103e-08
3.81001e-09
2.27418e-09
0.00489577
0.000743942
0.00332097
6.00812e-09
7.11475e-10
1.53286e-08
0.0036236
6.80698e-09
9.54878e-08
0.132013
2.15217e-09
5.05001e-10
0.000597549
1.94595e-06
1.67135e-08
6.37906e-08
1.38041e-06
3.15143e-09
0.00304798
3.69065e-10
0.000756224
1.22172e-06
0.000520508
3.28242e-10
3.69646e-09
2.49545e-08
8.77874e-09
1.92414e-08
7.52041e-08
2.30818e-11
1.22367e-10
1.06147e-06
0.00136758
2.46653e-10
5.78681e-07
3.26072e-09
1.77562e-06
1.57699e-09
0.000821955
3.21213e-08
9.6362e-07
8.49751e-07
7.65673e-09
1.13107e-06
4.39613e-08
2.17938e-07
3.44126e-09
6.45817e-09
2.55983e-07
1.3687e-09
2.1773e-06
8.67009e-07
1.2515e-09
5.71705e-09
1.92553e-06
9.50125e-06
0.00551431
2.4962e-09
2.08258e-05
3.95324e-08
6.62293e-06
3.59088e-06
3.89395e-07
1.55375e-06
0.00135967
6.52959e-08
9.52831e-07
0.000209669
0.00115433
1.52334e-08
9.25728e-10
7.23194e-06
2.55173e-08
0.000707508
4.90793e-09
3.00762e-07
2.57203e-08
4.48543e-09
0.00416098
1.20566e-09
1.08758e-08
1.645e-08
5.15942e-07
0.00669576
0.000971268
8.65298e-09
2.44083e-09
7.55139e-11
1.10779e-08
1.06082e-08
1.74634e-08
2.97734e-09
1.33619e-10
3.92393e-09
1.93487e-10
5.32338e-09
0.00106596
0.000635197
2.05833e-10
2.61163e-07
4.09586e-09
8.36788e-09
2.10985e-09
0.000622969
0.0015455
2.46271e-07
4.39116e-09
1.39214e-09
1.65515e-08
2.4289e-08
8.82731e-08
5.71743e-09
0.24581
5.01752e-09
5.4178e-08
3.63855e-08
3.17776e-06
9.74799e-08
0.00509899
3.97083e-08
4.89858e-09
0.00157989
0.0023104
6.09327e-09
4.99242e-07
5.37322e-08
7.99622e-08
1.58287e-07
1.46379e-08
7.40734e-08
3.45227e-09
0.00564444
5.46397e-08
4.41393e-07
0.00106924
2.20684e-07
2.85064e-07
2.46975e-07
2.38311e-08
5.35379e-08
2.96562e-07
1.95491e-08
5.49742e-07
8.03859e-08
4.59593e-07
4.12235e-08
2.68987e-08
7.00827e-08
1.47853e-10
7.17382e-09
5.62145e-10
1.04593e-11
2.75911e-09
5.86241e-08
4.57407e-08
2.41575e-09
3.46835e-11
8.13162e-09
3.10427e-07
6.4745e-09
2.11805e-10
1.46163e-08
4.14986e-08
2.71199e-08
0.0077751
6.96455e-08
0.00477396
2.23211e-09
2.04813e-07
3.71483e-07
1.53221e-05
4.08546e-10
1.0477e-08
0.00423052
9.40508e-09
2.9595e-10
2.78595e-08
0.00403235
1.61205e-08
1.24175e-06
1.27081e-06
3.00654e-08
1.91366e-07
2.3292e-07
6.91428e-06
3.01071e-10
3.74484e-07
1.05554e-07
3.66385e-09
0.0148916
0.917731
0.00383721
1.36028e-07
3.0367e-08
3.06722e-05
5.8456e-07
1.66539e-07
5.36435e-08
0.00425366
3.8105e-09
1.37483e-05
6.92358e-06
0.00113131
1.42352e-07
0.00481275
4.87103e-09
5.55016e-08
1.79652e-09
2.02045e-07
5.44359e-07
7.15828e-08
2.09457e-08
9.61956e-10
1.66131e-07
4.14286e-10
2.20908e-10
2.46293e-10
0.763427
5.47428e-09
3.69956e-10
1.19368e-05
1.78596e-08
0.0006542
2.30498e-08
9.57129e-09
1.03694e-09
3.75341e-08
3.66914e-07
9.78281e-08
3.74621e-06
5.99265e-09
3.31326e-09
6.48342e-05
3.09611e-08
3.23189e-10
2.68671e-06
6.25045e-08
4.86118e-07
8.96276e-10
0.00263877
0.052513
4.79122e-07
1.93991e-08
6.06671e-09
3.79176e-06
5.71962e-09
6.39773e-09
8.32332e-11
1.05805e-06
1.53143e-06
1.21972e-06
0.00328128
1.549e-08
8.7614e-10
4.70061e-06
1.12459e-08
2.39201e-08
3.41018e-10
1.22268e-06
1.73293e-08
2.26271e-06
0.00328191
1.7372e-09
3.16012e-13
2.5204e-09
3.9641e-09
3.19837e-09
2.47787e-08
1.14864e-05
0.000136819
8.42276e-06
0.027829
2.89342e-09
9.00721e-07
2.04778e-08
4.27348e-09
6.44922e-09
4.23014e-10
0.00187012
0.00248158
1.98964e-08
1.00587
1.00536e-07
0.0931746
8.94536e-06
0.00889112
4.96002e-08
5.96388e-08
1.01565e-08
7.83783e-07
1.50972e-09
0.000332316
6.54887e-09
2.3642e-08
8.4775e-09
3.96168e-07
5.48924e-10
5.57432e-10
0.0451211
1.37098e-08
1.82486e-07
5.39873e-09
1.2263e-09
2.81408e-09
9.79958e-06
0.00244444
1.31844e-08
4.3588e-10
1.02654e-10
0.00265232
0.0200786
1.06933e-08
0.00100116
1.76298e-07
3.2031e-09
1.46623e-07
1.78783e-08
2.09348e-08
4.4532e-09
0.0154454
0.00195953
0.00650184
0.00717102
4.15068e-09
9.57674e-09
3.88922e-08
0.0173175
0.00691481
6.27313e-10
0.00377073
1.2252e-07
5.87855e-10
1.20674e-08
1.01572e-08
7.15678e-09
1.44809e-09
3.73068e-09
1.19339e-09
0.00254928
1.23005e-09
3.13177e-08
3.62474e-06
4.2969e-10
7.82515e-08
1.26293e-07
3.28666e-09
1.91119e-09
0.00915546
1.00751e-07
2.09724e-08
1.71648e-06
0.00122624
4.15394e-09
1.35882e-08
2.03444e-08
2.33619e-08
1.03717e-09
5.60359e-05
9.29128e-09
2.12506e-08
3.93631e-09
1.96551e-08
1.86295e-08
1.15751e-05
3.87832e-09
1.83508e-07
0.000193386
2.227e-08
1.05963e-06
8.79548e-09
2.19641e-07
0.000764445
0.000132461
0.00647618
0.000492127
1.82484e-06
2.68155e-10
0.00114893
8.03148e-10
3.24216e-08
8.6747e-08
8.12616e-08
2.67852e-06
1.98414e-08
1.20699e-08
1.99492e-09
4.14833e-08
1.23693e-09
2.65148e-08
2.98785e-08
4.56032e-07
0.00131566
4.5297e-09
4.38217e-07
5.34521e-09
2.19596e-08
3.00938e-10
4.29481e-06
2.89671e-08
7.48186e-10
7.09527e-09
3.40429e-08
0.00083163
4.15703e-06
2.21277e-07
1.43177e-05
6.35304e-11
3.67454e-12
3.23973e-08
3.06203e-10
7.6894e-07
1.42992e-08
3.93534e-07
4.84894e-08
1.93557e-08
7.76047e-08
6.43834e-10
0.00791939
1.52895e-06
9.22181e-07
1.52645e-08
2.07458e-09
1.99031e-08
1.23953e-08
9.92929e-06
2.89001e-08
0.00358762
1.6785e-07
3.95207e-09
6.27569e-09
4.1365e-06
2.4834e-08
0.00064972
3.48095e-08
1.96673e-06
0.00434464
3.31479e-10
6.23187e-06
3.66899e-07
0.000796189
2.8844e-08
0.000886365
0.00154927
2.18609e-06
1.37666e-07
3.25873e-07
7.87326e-10
2.81158e-07
4.66768e-07
6.28547e-06
3.27072e-07
6.89326e-08
4.44213e-07
0.000114128
6.24909e-06
6.89317e-05
2.742e-06
1.85441e-09
1.82961e-06
0.00834886
1.05248e-07
6.33332e-08
4.24432e-06
3.60049e-06
2.85331e-07
3.73979e-07
4.54752e-06
3.30114e-07
0.000534963
4.16704e-06
3.81194e-07
6.55799e-10
7.99104e-07
8.07503e-06
0.0012393
4.74007e-08
4.05924e-08
8.09351e-07
3.39477e-08
1.41431e-06
1.51309e-08
7.08517e-06
9.48532e-09
1.02732e-06
4.53833e-09
2.95937e-09
2.34747e-07
0.00155636
0.0690966
0.00668525
3.1188e-07
2.95647e-08
5.18554e-09
0.000668456
4.21313e-07
0.000562507
0.00131332
1.91994e-11
0.0106652
3.68817e-08
1.98607e-09
1.04483e-08
2.32396e-05
2.02239e-08
0.000799679
4.19298e-09
2.70496e-10
6.40845e-07
2.22464e-08
2.53407e-10
0.283169
0.00073695
2.56918e-07
2.73064e-08
1.5403e-08
0.00411646
0.00071926
1.37892e-08
6.26592e-06
1.47288e-07
1.02059e-05
9.84068e-08
0.00069839
7.64831e-07
4.18283e-06
6.15139e-09
1.01769e-08
8.72403e-08
1.41874e-08
4.56879e-07
3.34517e-08
1.22122e-08
3.22857e-08
8.36007e-08
1.35279e-06
5.51248e-10
1.20581e-08
0.00134068
1.56413e-10
1.63483e-09
9.71866e-07
8.44497e-09
4.76724e-06
6.23715e-07
0.00110276
2.87032e-07
0.0046211
8.44328e-08
4.20458e-07
0.000745019
0.530284
9.36354e-12
1.9627e-08
0.000523488
1.67683e-07
1.82242e-06
3.56973e-07
1.81653e-09
1.33066e-07
1.49771e-07
2.0041e-08
0.00214307
3.55874e-08
2.30096e-08
2.46943e-09
1.20893e-08
1.08837e-09
2.04208e-06
5.89523e-08
0.00468435
1.64702e-06
6.39919e-07
7.85962e-07
1.00612e-06
3.24626e-09
5.62794e-08
8.29209e-11
2.6275e-08
1.61204e-06
3.82353e-07
7.69603e-08
5.63755e-09
6.14581e-09
2.35175e-08
3.39571e-08
6.25004e-09
1.24136e-08
1.87808e-08
6.46458e-07
5.09682e-07
5.98256e-07
4.57919e-09
3.63275e-09
0.0841122
6.9363e-09
1.52734e-09
1.51776e-10
8.81393e-10
0.00576514
4.07301e-09
1.90589e-06
1.28737e-06
5.03937e-07
6.26505e-09
1.73616e-08
2.87484e-06
1.71935e-07
6.89401e-09
8.77361e-07
2.23344e-09
1.68919e-09
5.85159e-10
1.80461e-06
4.88662e-09
0.00592107
9.31308e-06
6.70802e-07
4.09506e-05
7.2689e-09
1.84324e-09
9.70408e-10
0.00110658
1.93525e-07
1.16301e-07
3.35409e-08
2.0983e-08
1.25706e-09
0.00825888
3.52812e-07
9.3927e-06
1.43208e-06
3.02879e-09
0.00212944
1.5687e-08
6.43139e-09
1.0587e-08
4.72865e-08
8.84096e-08
4.20672e-10
3.6734e-07
5.14298e-08
1.03832e-05
5.58998e-08
3.45101e-10
3.21539e-06
9.57058e-09
0.0028769
5.59806e-08
6.11919e-09
2.79011e-08
3.573e-07
0.00114294
0.000558916
3.32784e-07
1.05871e-06
0.00167389
5.94475e-08
0.507017
0.000784224
1.68125e-07
2.09827e-10
0.0030605
0.000348768
1.71751e-07
7.10703e-07
1.7629e-09
7.93293e-07
3.06701e-05
5.6957e-10
1.79172e-07
6.49231e-06
3.33862e-10
0.000430882
2.54065e-09
4.94377e-07
0.15868
2.63231e-09
2.33918e-07
4.09833e-08
9.01175e-09
1.00453e-08
1.12082e-06
1.1999e-08
2.80007e-09
1.27769e-07
0.010066
8.83178e-10
0.000432076
0.00082038
1.37333e-08
5.95414e-12
1.38008e-10
0.000223384
3.14815e-07
1.02662e-07
5.19396e-09
1.00182e-08
2.4916e-06
1.5063e-06
9.91707e-07
1.84358e-06
0.00673818
1.21158e-10
0.00274572
1.02999e-08
1.48307e-09
0.000939761
2.85965e-08
9.88124e-10
0.000426421
7.44009e-11
1.48648e-08
2.98875e-08
3.9716e-08
1.72488e-08
6.53195e-09
1.78217e-10
6.50189e-10
3.69009e-07
0.00248497
0.00400711
3.17466e-07
6.75051e-08
5.0607e-12
0.00104275
0.00397573
6.05435e-06
0.00146367
6.39019e-09
2.21518e-05
4.04333e-06
3.66551e-09
5.8514e-10
1.29532e-08
7.26407e-08
2.41016e-09
1.75829e-07
8.3399e-07
0.00111283
0.0038591
7.638e-08
1.81483
2.08354e-10
1.16896e-08
6.8007e-09
3.67229e-06
5.3206e-07
0.590652
3.9851e-07
2.72413e-07
2.11136e-09
9.62053e-09
2.76932e-07
0.00108574
3.54938e-09
0.00345699
8.10308e-10
6.37202e-06
5.55019e-08
0.579874
6.07318e-10
3.35701e-11
1.08817e-08
1.18933e-09
4.53573e-08
6.06825e-06
6.64445e-09
0.000690406
1.86173e-09
0.00301155
2.09667e-09
4.63447e-08
3.04456e-08
4.42116e-08
2.0168e-07
2.18331e-10
1.04838e-09
8.54541e-10
7.65209e-08
1.53299e-07
0.000963345
0.000937459
5.92492e-09
3.04052e-08
1.07888e-10
5.43553e-11
4.3477e-10
2.78836e-08
3.72216e-06
8.15706e-09
3.05356e-10
1.04996e-10
0.000407936
0.00156828
1.16758e-06
0.000756395
1.19398e-08
0.00574908
3.31485e-08
1.44547e-08
1.79499e-11
4.86032e-09
0.00100054
1.53059e-11
3.24572e-07
9.04618e-10
0.0142402
7.71413e-07
1.8577e-06
2.40605e-06
5.90066e-07
6.56611e-10
4.49026e-10
0.0068027
0.10132
6.09116e-07
5.05182e-06
1.62926e-08
1.85635e-06
1.59875e-06
5.16337e-08
9.24342e-08
5.98726e-06
6.29422e-09
1.17013e-05
0.000728433
5.71643e-08
6.96218e-09
1.46289e-06
1.46509e-08
0.000635737
0.00329583
5.23869e-07
7.68704e-10
0.0043402
5.82859e-09
2.22812e-07
3.52156e-08
1.9823e-06
4.85154e-11
6.18057e-05
1.75536e-06
2.70835e-06
4.09566e-07
2.41403e-06
5.67738e-07
1.1773e-07
2.64878e-11
3.33258e-06
4.08572e-08
1.24725e-06
2.08239e-08
1.71543e-07
2.10624e-06
0.49675
1.93325e-10
3.77189e-10
1.61932e-09
1.90956e-11
2.18032e-09
0.000477678
8.73367e-06
0.0020973
4.20039e-08
3.73869e-06
0.0288714
6.45226e-12
3.16306e-07
3.81779e-10
9.48064e-09
1.45899e-09
4.16343e-07
0.00286427
4.16634e-07
2.38978e-09
4.74542e-09
4.62355e-08
7.50698e-09
2.58313e-09
0.00280223
1.95352e-07
0.0575492
0.114243
0.485656
1.3108e-09
0.168113
0.999722
1.11711
0.612815
6.46518e-10
4.34783e-11
3.51072e-08
2.17343e-07
1.17471e-06
0.00522286
0.000705805
4.94954e-07
5.64403e-07
7.3199e-08
0.000546263
3.93335e-09
9.19859e-11
2.12438e-06
0.000424888
0.000488565
2.12744e-10
0.00609568
2.08484e-06
1.44005e-08
6.53378e-06
1.08792e-07
1.16424e-06
5.06499e-08
9.41386e-07
5.80758e-09
5.51902e-09
5.16493e-05
5.41423e-07
1.45981e-08
3.75061e-05
6.99037e-07
1.84494e-07
9.18356e-05
1.35112e-09
2.76417e-07
9.39484e-07
9.79192e-07
1.22908e-08
0.00359883
2.70352e-09
2.90941e-08
4.13839e-09
0.00209814
0.0020655
4.50702e-08
6.19072e-08
3.21679e-06
0.00102865
1.0796e-08
3.33149e-08
2.75351e-08
0.107768
2.62815e-08
0.00375143
3.1664e-07
1.1568e-06
7.92522e-05
1.50092e-09
0.0257531
3.40967e-08
0.083807
5.04149e-10
5.04639e-05
6.6829e-05
1.63336e-09
1.91678e-09
3.16047e-08
2.21773e-05
3.5639e-10
0.000737452
1.08792e-08
2.26051e-07
1.46006e-08
1.37186e-08
3.442e-08
1.31777e-07
0.0388385
9.30808e-08
4.24643e-06
0.00891405
2.60266e-08
0.000800092
2.17964e-08
5.55337e-08
5.90122e-08
9.18341e-08
3.4575e-11
4.7675e-10
4.65103e-11
3.1926e-08
1.18888e-08
0.00112139
3.60525e-07
3.75049e-08
8.9184e-10
2.12407e-08
0.123673
1.69559e-06
1.41845e-07
1.06524e-07
2.05387e-07
6.33351e-09
6.89997e-09
4.20016e-07
3.32327e-09
4.73949e-08
8.79015e-06
5.51964e-09
2.08298e-09
5.63806e-09
0.0619259
1.34436e-08
1.26411e-07
9.39154e-10
4.33671e-09
3.7147e-07
5.05077e-09
2.77204e-11
0.000852869
1.42993e-10
5.93725e-11
6.04975e-07
0.00105452
2.06895e-08
3.94758e-08
6.17792e-10
1.06356e-08
1.02621e-07
4.42941e-07
9.55095e-08
2.08444e-09
2.65286e-08
3.19478e-08
0.0417718
1.10863e-09
6.67545e-10
8.26867e-09
4.07097e-08
0.000674365
2.55172e-08
3.60643e-09
1.29164e-07
3.04769e-09
2.53875e-09
4.93555e-07
0.019533
1.63908e-08
5.80355e-10
1.61363e-09
2.95081e-09
3.643e-07
5.05869e-11
4.55502e-07
6.95335e-10
0.0258
6.09778e-06
2.57752e-09
1.08366e-09
0.00126461
1.01685e-09
0.00104118
9.7447e-09
1.18103e-08
2.01137e-07
6.89693e-09
0.00077455
4.62091e-08
0.000922683
0.00112109
0.42357
1.6018e-08
0.000752068
1.95452e-07
5.16828e-10
1.30157e-08
0.00236708
0.000688237
0.000781374
5.80139e-10
5.60632e-09
1.56174e-10
0.00589182
1.79494e-08
1.18525e-07
3.14402e-06
1.5864e-07
1.98362e-08
3.88789e-09
7.93323e-08
5.3972e-06
1.19113e-09
5.17374e-09
5.62521e-07
3.95834e-08
1.26485e-11
1.1141e-06
6.14072e-07
8.75618e-09
1.43408e-08
3.84565e-09
8.9105e-08
6.5788e-09
2.824e-06
1.57421e-07
0.0264441
2.22274e-06
8.29182e-06
1.33729e-10
1.64896e-08
3.85794e-09
7.164e-08
1.86404e-09
4.95833e-08
6.28245e-12
0.00623206
0.00694718
0.0015075
2.3187e-06
3.86549e-10
2.06407e-07
0.000918464
0.0019375
2.2193e-09
4.88288e-06
5.02023e-08
1.01863e-08
7.58834e-09
2.40846e-09
1.34374e-08
9.57192e-07
8.40068e-09
8.8544e-10
8.76959e-09
1.05473e-08
0.363113
0.0010085
0.0112294
2.36957e-10
3.03039e-09
0.000786964
4.69659e-10
1.97325e-09
1.01002e-08
3.99737e-05
3.25288e-10
1.43357e-07
8.17419e-09
3.88782e-09
1.99717e-05
0.00268319
0.00120551
2.77135e-08
0.00127919
7.01229e-10
2.72926e-07
0.0378316
0.00200894
7.81545e-09
2.90491e-06
4.51614e-10
5.40456e-08
2.0977e-05
1.07386e-08
3.09651e-06
4.84844e-09
2.25094e-09
6.67729e-07
4.74099e-08
5.67987e-08
1.09011e-08
7.12518e-09
6.05365e-08
2.41307e-08
4.13752e-09
2.50685e-09
0.0012514
0.000691112
2.82495e-09
0.00139194
1.71021e-10
5.61625e-09
0.00477325
1.18715e-08
9.59314e-11
0.000648173
2.37464e-09
8.779e-11
1.03407
1.573e-10
3.12702e-11
9.29175e-07
0.0190518
3.69109e-09
0.000694136
7.89263e-10
6.03009e-08
0.00083276
1.24148e-07
0.0295193
1.96882e-11
3.05145e-09
2.30367e-08
3.89302e-09
0.00385892
0.000756742
5.32369e-05
8.64975e-10
0.000864184
1.61453e-10
6.67843e-09
8.2695e-10
0.0351222
0.0486218
3.9062e-09
2.51689e-11
1.70431e-08
0.00089934
0.0115686
7.68244e-09
0.00321438
0.0452241
0.00143096
6.50134e-07
0.00144865
6.89342e-05
0.000795313
7.25514e-07
0.00210412
6.00041e-06
7.67292e-08
3.51796e-08
2.46504e-07
7.81611e-06
1.72973e-05
7.81415e-11
1.14339e-07
1.85349e-09
7.69266e-07
2.63758e-05
2.80668e-08
1.9635e-07
9.68071e-05
4.61472e-09
5.60516e-05
6.75815e-09
4.79085e-10
1.8942e-09
8.84926e-10
8.92989e-08
2.05556e-09
1.3202e-08
2.0605e-09
0.496797
7.61128e-07
7.2354e-11
4.85359e-11
1.09716e-09
2.1509e-09
3.07029e-08
0.763742
0.00100129
5.11443e-06
1.2972e-10
6.40723e-07
1.57727e-07
0.000861663
5.27438e-07
2.99567e-07
9.46717e-09
1.66419e-08
5.10343e-08
3.91952e-06
2.00478e-06
0.00314965
0.00124968
1.46567e-09
8.68476e-05
7.29599e-06
8.19363e-10
4.00447e-08
8.9866e-08
2.19128e-09
3.88435e-08
0.000923798
0.00115009
2.65097e-11
1.60274e-06
3.05874e-09
0.000814037
9.70957e-07
0.000664158
6.35109e-07
8.42128e-10
1.15915e-09
8.72329e-09
4.87695e-07
3.81721e-07
0.00360781
0.00637748
1.66337e-08
1.55749e-05
6.39099e-06
2.51281e-10
2.01304e-06
0.225302
8.40639e-07
1.70472e-06
0.0010974
8.09471e-08
0.00169943
5.76339e-09
0.0102292
0.000713279
6.96995e-10
5.13116e-06
0.000172366
2.12314e-09
1.9955e-06
5.51631e-10
4.40421e-09
0.00195626
1.25185e-06
1.60481e-09
2.34456e-09
2.44768e-08
3.0952e-10
1.76778e-09
1.98194e-06
4.40796e-10
1.88463e-11
5.8143e-07
9.1133e-11
2.53957e-09
3.55715e-09
4.92991e-06
8.89731e-09
3.03588e-06