/*--------------------------------*- C++ -*----------------------------------*\
  =========                 |
  \\      /  F ield         | OpenFOAM: The Open Source CFD Toolbox
   \\    /   O peration     | Website:  https://openfoam.org
    \\  /    A nd           | Version:  10
     \\/     M anipulation  |
\*---------------------------------------------------------------------------*/
FoamFile
{
    format      ascii;
    class       volScalarField;
    location    "1";
    object      p;
}
// * * * * * * * * * * * * * * * * * * * * * * * * * * * * * * * * * * * * * //

dimensions      [0 2 -2 0 0 0 0];

internalField   nonuniform List<scalar> 
111485
(
37.8547
13.9367
16.1918
37.3198
16.7597
36.6463
14.1963
12.3394
14.2356
21.0105
14.0596
18.1087
14.3208
13.9356
14.3892
14.6262
4.60592
35.2923
14.1994
37.1164
36.9753
37.0848
14.3866
14.4617
16.6984
36.1146
20.1519
7.89528
16.1537
38.1977
27.9107
3.2106
37.4343
38.3792
35.2315
39.2873
27.6251
0.767401
32.3353
14.8198
38.919
21.0145
14.8031
24.4037
31.1171
39.353
23.0515
14.4175
20.9636
35.992
36.0167
35.2094
35.9981
24.8852
35.9846
8.9221
14.3877
39.3275
23.0743
14.7942
14.8346
37.8395
11.4845
27.2798
35.4411
10.0812
33.8863
13.1448
11.5809
12.4127
29.8486
10.4046
35.4061
11.5516
38.8175
5.96088
37.3819
20.1773
37.0785
35.5108
28.4487
23.7259
37.7355
38.6158
11.3984
15.2642
33.0509
24.997
28.9568
4.22383
31.0787
15.2961
11.4601
1.65339
21.0425
38.5809
37.8826
24.9474
31.9636
26.0162
37.6675
20.2788
38.9406
19.8831
13.502
35.4793
38.5803
3.744
15.628
30.9781
2.54832
10.3342
15.2628
18.8602
36.1045
5.60131
36.2947
39.3528
11.6728
37.137
36.0972
34.8118
37.7269
39.3455
21.9346
35.4513
34.8435
4.32784
38.9703
32.0453
27.7607
24.9015
38.7582
34.7502
34.9246
13.859
37.484
5.94148
12.7189
12.839
21.2921
12.8666
12.8339
16.0045
22.3874
0.53483
37.465
38.493
38.8993
13.5481
16.0506
37.0064
27.912
0.0399688
31.4177
13.4497
13.2998
14.2472
31.4214
39.2318
37.3232
13.409
16.0972
31.4763
31.4879
5.1981
26.7316
39.2743
31.5442
31.5324
38.9078
38.4118
17.4525
38.1173
0.954836
0.178982
35.8145
35.4363
36.1777
35.5863
35.4474
37.2832
13.5676
13.6017
13.455
0.0669214
20.1979
7.15691
27.4914
37.6095
6.26043
35.473
37.9552
7.21479
20.9521
26.5883
9.54668
0.774253
38.8092
13.6295
15.8466
34.0636
23.6408
4.09213
39.0622
7.25909
19.2693
35.4178
26.4587
22.9599
15.9214
7.09956
35.4019
38.0167
7.15831
34.0973
24.9454
38.0509
7.24198
6.16946
21.3565
39.3769
8.05535
26.0613
34.4988
38.0999
38.9427
29.7041
31.4279
35.4181
34.9561
6.22493
1.59239
10.356
35.4003
35.5075
27.2482
38.9187
13.512
6.19307
6.23861
6.19761
6.24028
39.0013
28.6196
4.91141
39.1252
37.6633
25.0155
10.3823
35.3994
3.09011
4.61051
38.4544
34.7382
23.3694
36.0141
35.2517
34.5939
36.5836
5.4108
6.13608
0.489159
39.4058
4.72131
37.393
37.8075
38.9917
27.4359
20.2578
10.8934
11.0499
18.8906
10.9215
11.1483
28.6192
1.56727
1.63045
35.8776
38.4095
28.8673
3.75856
21.3646
1.95452
37.2103
11.0828
13.625
10.8672
19.2251
28.8237
10.8146
10.9977
23.5998
39.3695
20.1085
38.1254
35.4256
35.2048
29.6738
18.9614
14.6734
36.4036
39.2863
8.55517
2.68411
36.9402
38.0781
36.0269
6.1075
1.64569
13.26
13.8879
15.081
35.1641
38.6436
38.7038
8.57795
33.4546
14.7654
29.1102
27.1301
37.6807
37.8038
37.8732
34.8918
9.2338
16.5859
39.3413
9.11027
35.3196
36.0544
25.4832
9.17395
18.677
9.04218
35.3922
34.9035
39.0393
9.14217
0.463607
28.1867
36.014
32.6703
28.2329
16.8292
8.11965
32.5533
15.1757
37.3235
15.1917
9.32998
28.8264
25.4034
16.9978
38.5008
38.7139
38.7623
37.343
13.1122
7.90073
18.803
15.1856
38.3234
17.7534
38.6674
37.875
15.1817
35.5881
34.5613
39.2945
39.3884
13.4724
39.3562
0.357201
17.5294
37.0959
12.171
9.62613
35.4436
9.43724
17.8914
9.48055
26.5464
0.751404
1.72913
35.4362
38.4726
24.2858
39.1746
18.4846
25.8289
35.6644
39.1291
8.98208
18.2774
1.55126
17.5767
37.4128
27.8811
18.0979
36.4895
24.3988
18.3803
38.0293
37.2205
0.363264
16.7407
39.1966
36.3167
34.2103
37.6509
17.1091
38.0607
37.5536
18.1902
27.8594
22.3946
16.7132
36.7012
34.8798
24.3937
34.9938
24.3965
24.4904
20.7676
33.9243
35.0293
2.90081
31.2127
38.1684
25.4635
17.6236
39.4011
31.9755
21.2698
34.982
18.6806
18.1184
0.84164
36.8471
0.793064
19.1393
0.799587
30.2426
34.8752
31.1937
38.8033
27.9236
0.758647
38.8552
18.6851
23.2448
34.7695
39.3696
35.1508
36.9689
16.7868
0.791083
18.4595
18.5774
26.3634
38.1215
18.9712
37.864
16.7493
36.3436
37.8683
38.3712
18.6238
38.5438
38.01
35.3035
37.8979
39.02
23.3576
39.3678
35.1089
38.7031
38.0706
36.6129
38.7396
37.1993
18.7646
38.7371
23.5849
19.2733
31.2203
36.3147
23.5462
38.7206
37.8259
18.6044
18.4702
18.7367
29.1455
35.2168
21.5034
21.5445
1.1445
2.10216
19.199
38.3621
1.20444
34.7537
21.7485
38.2329
21.7435
34.8756
2.37009
18.3983
35.162
38.7281
2.15949
36.8309
21.4965
21.6771
39.0803
38.6821
35.4635
38.8024
31.3595
21.4416
35.9105
39.2561
16.8177
37.0925
21.5706
37.3125
22.6805
37.8638
21.0495
21.4896
9.30208
2.28598
36.1119
0.575982
36.2404
38.2658
19.7747
38.261
21.1703
35.4836
21.7914
38.2514
19.7656
36.9299
35.0349
31.2702
19.9507
21.4902
19.8809
21.5829
18.3219
38.8758
21.563
19.8956
37.9518
29.4205
27.1345
21.5412
35.8094
34.9759
16.6039
22.1204
33.4534
34.951
19.8832
16.6378
20.1839
20.2611
2.21406
32.9897
34.9768
31.2533
33.2838
37.406
21.3748
39.1936
35.0931
4.20206
32.9759
31.4819
32.5864
35.0064
20.3922
16.6886
36.2358
34.9724
16.6231
36.4183
37.0371
37.1991
36.2053
20.4033
38.659
39.0677
20.5544
6.36535
34.4556
16.6516
35.146
6.26777
35.9853
38.9436
20.5264
38.2173
36.3711
35.0801
0.518815
34.0123
21.0853
4.2539
36.3169
31.2405
21.1802
17.2883
26.5514
31.8229
16.9166
38.3086
21.0063
17.2291
39.0511
9.78632
23.6855
17.6717
0.543718
17.7586
17.6963
38.7523
21.5168
26.4758
34.9972
17.7402
21.6082
34.08
4.22737
17.6958
21.6868
18.6946
18.8082
4.25439
35.7057
18.8309
21.2474
35.2277
20.1028
20.1463
4.53921
38.2935
0.451378
39.1451
37.5525
38.4702
36.2125
17.211
35.0895
31.4379
37.9635
36.654
20.1479
20.2354
36.8128
21.6222
37.8404
38.9979
36.0328
22.1153
21.4398
35.0649
39.3948
38.1989
38.3698
27.1972
4.55563
34.9687
19.7175
31.1917
39.0839
19.7099
22.9687
2.28535
36.913
38.0639
10.1864
4.46396
35.0349
38.8594
35.7672
7.5006
38.4376
36.3427
37.9868
19.528
15.4207
37.1221
35.0946
35.0396
2.27064
39.2325
36.5213
22.2609
27.2961
34.9916
34.2518
32.3364
22.6934
0.118502
35.5258
16.5511
23.3169
39.3741
35.9548
37.5314
38.1245
38.7187
37.2259
19.5661
37.8201
37.5088
35.8903
19.6206
4.43526
36.0214
35.9497
22.7758
4.48029
4.60048
36.4897
37.5653
4.52246
38.5305
19.7809
4.48265
4.65887
36.0767
37.644
37.641
38.4594
16.7493
37.6729
37.3227
24.8606
37.5908
7.8957
23.1925
35.6873
4.30427
34.953
7.88689
20.5422
21.281
22.5373
31.5812
35.1045
7.82923
22.8278
0.105658
35.4179
31.3659
34.6319
1.29398
38.524
23.5051
22.9798
23.4796
35.2818
37.7182
39.4008
4.48928
35.203
3.07601
35.4186
15.0526
1.20462
3.19854
4.51169
37.2438
36.121
35.3997
4.58343
36.3695
35.1741
30.6738
39.24
39.2134
37.6126
37.558
3.27684
35.5782
38.0442
31.4383
35.1573
39.278
34.7922
37.9276
23.4692
3.15676
37.029
16.8949
32.5776
23.5202
31.4876
3.94899
38.7883
20.7227
26.8315
23.583
38.6741
31.7746
3.2887
34.7489
3.06966
29.1829
30.2022
12.2788
2.1738
29.6324
0.55167
2.83205
38.4785
36.1195
2.15056
2.14342
39.0386
2.18172
18.4639
2.78496
35.9552
29.9506
38.534
2.96584
2.84238
36.7982
1.46995
2.75346
30.0688
0.85333
35.8701
13.2387
30.1327
31.8509
29.9254
25.507
38.3529
38.5305
24.9125
37.5158
18.9508
25.8052
34.5194
31.7435
31.6405
31.7305
37.5562
34.7328
6.75625
38.9632
35.5629
25.4036
36.2666
36.6427
31.6371
31.2915
37.5353
30.218
38.1049
38.2016
39.039
37.8857
35.8802
38.4934
25.6964
36.1037
38.9061
39.0768
31.8222
25.3609
15.6767
6.6941
36.8934
36.3897
26.5565
37.8729
36.6333
34.3912
25.9981
8.76312
36.9613
36.5841
36.253
36.5237
38.8206
36.4189
26.4111
36.3702
30.2246
15.1125
38.3564
37.7354
35.9259
30.1646
35.9491
37.3397
38.401
30.5063
38.6172
26.364
27.5282
29.9006
37.1576
33.9717
26.4436
14.5597
35.5065
30.3374
21.8788
36.3653
35.6452
34.7437
36.5641
6.74629
13.115
27.0882
30.8469
36.8413
6.70891
35.5753
34.9754
34.7451
38.9462
11.8711
37.9777
35.892
28.0653
8.76231
35.8995
21.3075
35.4182
27.1382
35.5379
38.2395
38.7469
37.5311
3.09145
12.9777
31.8688
36.9238
35.826
3.16786
37.5421
35.139
37.9135
19.5035
31.0444
16.7396
36.3743
28.3785
28.2097
35.472
28.2557
36.2098
24.5412
22.0241
12.7359
28.227
28.2135
37.7095
38.139
38.155
28.2527
39.3904
28.7107
39.158
32.1272
36.2697
14.6555
15.1153
35.9233
37.3767
35.8597
39.1915
28.7141
35.8466
34.7452
3.16318
28.6816
35.4018
35.1193
35.1175
35.1359
36.2317
37.7639
28.788
22.0808
37.298
36.03
31.4364
37.9053
28.7583
3.17019
35.7177
24.9443
37.5907
1.90445
36.0408
16.2295
36.7509
31.3529
30.6138
29.537
25.0537
25.042
33.8764
35.6642
25.2202
35.9856
11.8425
36.6339
38.6669
35.0813
38.6649
38.8167
39.0084
25.0686
25.0826
37.6061
34.6158
36.3699
25.459
30.0476
38.0638
11.9025
29.9715
35.9488
4.13419
2.88553
11.3355
29.681
37.522
37.9433
38.3858
37.2632
11.9488
38.7307
25.5492
37.7847
25.7052
16.3006
38.5974
25.5966
39.0257
37.4604
25.8391
27.2758
32.9337
37.7908
35.8321
36.5025
12.3385
35.3224
39.1302
35.705
32.55
34.8882
31.2857
35.131
35.6685
35.6463
3.54095
3.12764
18.318
13.606
39.1511
25.8135
38.2593
39.0497
3.03634
36.0979
31.4514
25.7241
2.17728
26.0085
31.4243
18.1456
38.8533
31.4423
31.2639
22.1474
26.4604
9.08269
34.1622
37.8287
17.5009
36.4537
36.5958
31.394
20.9734
31.6258
38.2628
38.2479
28.0261
35.9367
36.1231
26.2169
35.8766
35.9356
10.5917
26.2937
26.9354
10.5877
5.37623
36.3327
37.6679
31.4733
10.5184
37.1983
35.8999
18.6672
36.2033
34.5997
34.9411
34.9841
33.9023
34.3934
37.1925
17.7451
36.4929
26.7952
36.7486
33.5938
35.9032
35.9987
38.8912
37.4974
16.4433
37.538
37.5002
35.0536
36.6142
38.825
38.2146
9.99285
37.5735
9.06541
26.9715
35.9861
17.9706
37.0152
22.6838
30.2196
2.34826
2.40167
36.0951
2.61127
16.4948
29.4755
38.9745
27.5532
7.88036
1.17477
35.4081
1.49544
35.8263
38.8395
36.6445
37.1402
1.49439
38.1048
36.6945
1.17463
27.5691
1.13155
39.0638
34.2914
17.9917
38.5222
31.5473
35.9343
2.54237
36.0112
36.1852
17.8603
36.7413
27.4402
37.9259
36.7447
7.79551
23.2176
5.70787
12.7368
30.472
10.1047
36.7831
35.4987
15.3069
5.93162
9.88548
27.4662
37.5279
9.13676
37.3974
36.5115
15.5832
27.6965
36.2419
6.06095
38.8633
5.7632
5.28702
35.4846
37.1703
38.4551
15.2708
38.0717
38.0763
15.41
5.73982
26.435
1.39044
36.7771
38.7247
19.0821
15.4726
36.8125
15.3922
35.8106
15.3158
37.0261
36.8906
15.309
37.5769
22.0506
14.0522
36.3071
37.1874
14.084
34.5715
17.0361
37.8146
26.7068
37.8958
34.6267
34.6025
14.1789
35.0517
34.93
13.0873
34.9808
33.6107
34.7052
35.8187
36.4256
29.6006
17.0552
38.0392
38.2784
16.9006
16.9724
36.2831
15.4559
37.2598
36.399
19.6994
18.7743
0.107024
36.9993
38.2867
38.1127
37.5112
36.2558
36.281
38.3359
36.4254
36.5024
37.1932
38.1532
36.4418
37.7594
36.9161
36.5256
35.5002
36.8981
37.176
37.6424
37.9224
38.9438
17.2981
37.9444
36.9274
39.0153
11.763
39.3836
36.3835
33.1146
35.7996
35.6897
11.8426
35.3201
35.5412
33.3197
11.9142
37.7689
34.4993
34.6826
36.6205
24.3673
11.9847
12.0401
11.5841
7.06159
36.3145
36.6939
8.84374
9.30039
11.5676
37.3891
10.521
23.5152
11.4021
1.81351
2.06516
11.6556
3.62157
11.3909
39.009
12.9577
10.4946
16.2322
10.5525
38.4955
38.2117
38.7925
37.6098
38.4618
9.21446
10.6842
38.4288
36.5302
36.3866
35.4573
36.702
36.6211
35.9066
36.4501
10.5316
30.19
10.6417
17.7631
36.0714
35.3769
24.0675
30.9251
37.1365
37.5155
17.0411
39.1694
37.9935
10.3853
10.6128
10.5863
16.8162
23.8821
36.4661
0.108967
12.6644
34.7608
36.4738
12.5313
36.3624
36.0887
32.8676
32.3904
17.9482
35.5175
39.1451
27.2735
12.8676
0.137166
9.27169
33.3314
37.6545
25.381
35.2389
39.1583
35.5521
16.8264
36.6674
9.19232
0.391915
12.3613
12.7841
38.3691
8.08524
38.6481
35.5314
38.459
36.2562
2.94582
33.6475
37.5524
37.2393
35.1505
9.24389
34.5521
8.28078
9.23515
2.85632
9.24859
35.4467
35.6853
34.8756
16.6496
6.93023
31.5788
35.9674
37.8321
34.7352
24.2637
17.907
37.5361
6.9194
32.9493
12.8686
6.88819
37.4438
34.6369
6.94185
9.20141
38.2304
20.9332
20.3326
17.9499
8.21574
7.25081
7.46542
34.7172
2.6857
7.48371
6.32373
35.1592
12.3287
34.7643
16.3299
7.83222
39.3939
1.88398
7.48357
8.16556
9.73666
35.3959
32.8271
26.8668
33.5857
7.5282
35.1472
2.28035
7.44916
36.0998
37.6635
32.0145
29.5874
10.7848
35.2899
18.2781
30.5843
31.5569
27.861
35.8998
39.1301
9.16533
35.5021
8.25394
30.0254
7.46488
2.20113
37.0676
22.2889
9.09984
36.412
34.5868
5.74097
38.3848
5.77449
5.40031
37.8881
35.3914
12.9216
36.7259
36.9437
39.4069
2.17598
31.5357
16.7373
39.111
16.273
3.94773
35.5645
3.92153
4.12089
2.45843
29.854
37.2547
8.19142
1.53095
4.02167
4.07768
2.56414
29.2732
14.8791
37.803
0.428263
2.80062
37.4538
4.07541
39.0632
38.01
38.7754
39.2751
37.1875
24.1825
38.7399
3.92851
19.6571
39.0734
18.848
35.5888
2.78003
36.3673
29.079
35.4541
15.7
25.1395
30.5189
4.25148
2.78105
16.2285
2.46542
4.32561
33.306
4.25222
10.3852
4.35692
39.084
9.19824
29.6727
4.41355
14.5054
30.0408
38.9626
34.8785
36.1345
16.4398
37.1478
34.2762
2.76503
35.1292
20.1907
36.4033
38.937
37.5312
10.1829
17.1646
4.75311
25.7808
2.27434
8.72352
8.23001
10.4565
3.26321
8.20197
8.56978
35.5068
38.6853
39.3988
12.9468
9.0058
35.8145
37.524
34.4683
8.258
3.34576
36.9618
8.56822
38.041
31.36
16.495
26.7741
37.4168
37.8765
10.2663
37.5903
21.9792
4.36208
35.2988
11.5234
14.5283
1.77242
36.2008
27.7566
34.9515
21.0428
16.7266
37.4821
38.8626
4.2033
34.3322
38.5095
5.44531
2.02079
37.7741
36.2339
34.8534
8.32208
34.3151
13.0699
24.3297
20.653
37.8514
34.6817
23.8025
37.9122
38.1645
38.3065
37.1261
34.9235
35.4274
35.3128
36.3785
35.495
35.399
35.2451
35.3576
21.9762
35.3273
34.5201
34.541
35.3889
34.7239
37.8692
24.2637
34.7303
35.3725
24.879
35.1597
35.3292
35.4863
24.3425
35.2968
24.2459
26.835
20.6548
35.202
36.9419
24.1845
31.3499
35.8699
39.092
12.92
35.0991
12.8471
35.057
38.3155
35.0052
12.8268
12.7273
38.1701
18.7214
35.509
34.7283
29.0716
6.5957
24.2055
39.1535
12.8705
34.6909
20.2321
37.2291
36.2627
36.912
34.5775
6.59546
8.04053
38.5816
31.4266
36.342
36.3395
36.3259
37.1843
22.7658
22.8244
8.21074
31.3971
39.3946
16.5677
13.1281
6.03497
22.788
39.103
6.47064
22.6661
11.6605
31.378
12.1857
36.0392
15.6189
23.1271
13.0047
23.2343
24.3878
36.0828
24.6188
35.7547
37.9255
10.6593
38.5912
16.4361
38.283
35.934
35.4794
36.221
38.8397
23.1831
36.1187
19.2175
35.1594
38.4183
16.0356
22.2018
8.62627
18.5795
38.743
32.0194
38.6093
20.3144
35.931
16.0309
22.6967
23.0399
20.4849
35.8295
35.8271
35.7807
6.98213
38.4271
36.4327
6.98172
35.9698
36.7035
22.9674
35.815
12.5278
31.263
35.1902
35.1512
35.0724
8.21589
13.8344
37.1389
0.263275
19.8793
35.1201
23.4141
38.3922
7.14518
16.2668
6.1214
36.9811
17.1558
8.93951
24.2428
22.4784
19.0189
37.5015
37.7079
29.6578
36.5738
37.2417
38.1025
7.21119
23.5191
9.39297
14.9049
34.942
17.1197
13.0471
14.0017
16.866
17.1259
21.534
18.8337
37.5112
37.4569
37.4732
18.8945
38.4548
20.0094
34.2545
18.9036
31.4957
7.24014
3.51917
36.7459
38.1654
18.9568
18.833
37.9169
37.7132
39.2469
7.80495
18.8261
19.4878
19.6678
1.87251
13.0313
36.5627
38.7013
37.8142
1.50107
12.5421
0.199334
14.2167
8.1122
19.7341
35.5623
37.7994
34.6055
35.937
1.96553
16.8019
37.65
36.066
35.4871
39.0569
39.3
35.3558
20.4652
36.8775
25.0829
31.3593
36.4578
20.0568
0.581581
7.61422
38.3857
35.4792
20.3685
37.5594
20.4472
31.6719
8.27249
35.3094
34.3492
37.3119
36.8582
36.6142
35.3094
32.8215
36.1291
20.5223
9.37195
37.8193
37.7577
20.9192
36.517
38.0446
11.3752
30.6537
36.3651
36.3394
35.5422
4.21704
37.613
37.6734
32.3818
21.0042
20.9359
37.0461
36.4268
34.98
21.0031
20.7966
20.9496
14.8034
37.027
3.49133
0.703421
0.87024
39.0796
38.8312
37.828
39.0184
37.617
11.3579
11.6488
9.34953
39.108
38.3462
37.5724
38.1681
35.4398
25.5586
1.29536
0.327476
36.2082
37.4643
39.1084
31.4513
23.8738
27.5235
38.1751
31.5184
35.2623
36.0632
37.6883
11.3225
12.5849
36.4298
35.8743
15.4706
37.6994
8.31565
10.328
32.9842
36.3931
35.9599
8.34449
25.7326
35.393
32.9636
1.14565
16.6504
36.9034
36.5019
39.0429
37.7889
2.24273
5.74656
36.5135
25.8087
22.1139
31.7122
37.15
36.5739
36.4628
36.5152
17.1047
35.1931
37.1935
35.7579
3.78429
19.3915
4.68682
35.6858
38.8817
22.1388
35.3522
37.7314
36.6129
36.8936
12.0845
35.4899
36.7179
36.7396
4.66564
12.5989
36.5558
38.5228
36.1916
14.6472
35.1162
36.0167
36.2208
38.6286
38.3892
31.1063
16.9726
39.3854
13.4032
16.8606
11.7492
39.1756
38.9765
37.4341
39.0546
36.666
16.0076
37.1425
34.6863
35.1969
22.1866
35.0686
22.0647
37.6377
38.4227
26.5906
31.787
35.1527
22.2688
37.1071
22.1674
35.4041
36.1539
36.4762
35.503
36.3543
25.3327
36.4147
14.1519
38.6245
34.9716
38.3979
36.5712
4.41597
20.3439
37.4242
33.0786
39.3322
22.7227
25.3427
20.3118
39.396
30.9646
20.278
25.581
17.1941
31.3686
20.5427
35.4233
36.8433
31.532
7.07134
20.3672
35.9923
35.3082
34.7338
33.2018
39.2256
36.2785
38.5651
39.0303
39.3473
35.0893
20.1045
26.9551
9.40216
34.7124
28.5202
38.5667
16.2431
37.8404
39.2819
37.9151
35.3556
26.989
35.5528
39.3615
37.1093
13.897
37.2463
38.1604
26.4734
35.478
34.1119
33.8094
33.6884
39.0556
33.771
33.687
33.7535
34.0128
36.9321
36.9315
13.7906
21.2072
35.0189
34.6291
37.141
14.001
35.4842
35.6174
26.7533
36.6542
37.5318
22.6315
26.9713
39.3021
36.47
28.7574
34.9144
35.986
31.3375
15.0685
14.6433
35.6178
14.86
38.8091
9.19538
31.0151
14.7805
37.2316
31.0276
14.8432
35.4402
31.3988
36.1372
13.9339
35.1783
13.7833
35.7466
25.319
36.2399
35.7507
38.6086
31.4284
31.4986
38.8284
15.1722
25.3182
39.3928
37.1902
11.4412
0.564305
30.8094
39.1228
15.6182
15.3795
26.6169
31.3869
39.3284
30.8609
36.7622
29.7715
37.8411
31.4923
31.4309
36.1613
9.58497
35.8261
26.307
37.4468
36.1669
36.3831
37.8622
36.5483
37.7917
21.1511
11.5432
29.6163
36.3176
34.5213
29.5145
36.429
39.3894
35.9698
39.1402
36.1761
0.450371
37.2278
38.7263
36.8133
0.406417
36.2765
37.6149
35.2932
2.16925
37.9015
2.22157
31.1368
20.6838
2.17947
2.33172
35.5295
36.4253
37.3432
2.20096
4.77754
35.7081
34.5816
2.37798
38.1025
38.8227
29.465
36.1342
15.3587
36.3539
2.39665
26.2846
36.3915
36.8952
36.3764
38.5883
38.0829
26.3513
36.427
2.44889
35.9005
36.9638
5.42692
38.6817
16.3016
35.5255
38.1499
21.39
9.59356
29.7536
38.5755
38.6353
37.4009
9.5556
28.6264
35.8246
37.61
35.4228
5.93833
36.3906
16.4373
29.6676
36.9204
36.6147
6.03674
37.7972
35.2918
37.9001
35.4648
38.2617
29.6911
34.4492
36.0082
38.4032
34.5716
36.6513
34.6431
36.0021
36.2748
35.5086
9.62606
35.5012
5.87378
35.347
36.5206
31.3346
5.9399
36.3976
35.4687
36.5459
5.75771
34.966
37.17
35.651
36.5109
6.49398
36.3817
30.1355
39.2556
19.8839
35.0181
23.955
35.9609
38.0382
18.8896
34.8136
36.3471
4.75005
19.4663
39.0053
38.567
21.3097
24.4652
5.84029
5.88619
5.94916
21.3592
5.80103
24.8913
35.7602
30.1841
34.5936
34.5677
37.0532
35.7774
37.9718
5.74297
39.1132
39.348
39.0047
28.1906
24.7754
34.4418
22.4875
38.7254
22.9839
35.8728
26.871
6.28021
34.5997
19.4892
35.905
36.0731
37.4521
6.44583
20.007
37.3753
38.1024
6.51478
38.5661
30.5459
37.8413
28.7906
37.7143
37.4427
38.9371
37.405
5.15515
37.3945
31.8132
38.622
20.5354
37.06
36.6816
33.8702
33.778
36.5605
36.7639
37.8207
38.7824
19.4529
30.43
34.1937
38.4574
19.9665
37.0993
38.4316
31.4355
15.0227
27.9568
37.4904
3.54857
21.2444
10.2197
15.9811
37.8916
39.3431
39.3462
38.6583
37.5552
37.4129
37.4084
35.9865
37.4913
37.4097
37.6066
37.3441
28.8023
37.4531
36.5356
35.4778
38.6613
37.0883
33.1073
37.0319
36.7711
16.0189
29.7905
36.0394
39.2706
37.5496
13.9435
39.2076
37.8026
29.6472
38.0121
36.4129
38.0824
38.4046
26.8253
37.8071
30.8217
38.4235
38.1002
36.8253
37.115
36.6519
29.7346
29.9254
7.68926
38.7118
35.6628
38.8406
29.9361
36.3815
29.8625
29.9094
37.9468
35.332
34.4747
30.9574
36.1074
35.0405
30.9171
34.5679
21.8744
38.5106
25.3056
34.5401
34.1259
37.628
19.2124
38.0778
19.3755
26.7769
36.1652
19.4536
30.4032
37.7437
26.9865
36.6587
36.2453
36.4883
36.1758
35.5817
37.2742
36.3701
39.0905
29.9307
35.0901
37.2554
38.0557
36.2314
36.0422
14.0826
33.4942
30.2697
31.6451
36.4284
18.2791
18.3481
37.4123
35.0836
35.4916
35.8535
35.8845
35.7707
34.7133
34.9944
23.0229
36.9237
39.1451
34.2405
34.4999
37.6133
19.1606
35.6142
36.2462
38.6081
28.344
39.021
37.0665
21.6126
37.8533
39.2716
35.3928
39.3006
21.7729
37.0127
36.8752
36.6884
35.403
23.1958
28.3357
28.2816
19.1985
24.4653
24.5677
38.1098
34.8235
31.0165
23.8778
34.8261
31.0127
38.4476
31.5621
36.1492
28.4203
37.2738
36.3875
24.5875
31.3855
36.1767
23.828
37.1978
37.8919
28.433
26.9289
38.7008
37.2613
35.9486
37.517
36.6245
34.7793
38.7347
37.8705
23.7319
38.7718
37.6778
37.1113
24.6279
36.4189
34.7906
37.731
37.3568
35.3048
34.8736
24.6264
36.2518
34.96
14.3508
38.6182
23.8504
23.5496
36.6065
14.8428
37.7422
35.4944
38.2275
35.0253
38.6759
39.2067
39.4117
39.2321
14.6173
38.863
38.1933
38.8657
35.4722
37.2074
35.4355
28.8218
37.641
38.4897
26.9088
37.3928
37.605
39.3757
14.441
36.9029
28.2836
34.8645
31.4695
1.69979
37.4995
34.8381
14.1713
34.7041
37.4568
30.4676
30.9172
0.104976
25.9302
31.6673
31.6105
38.8681
36.096
17.8416
29.0444
28.135
17.3379
31.405
38.5498
3.1716
17.8586
17.8065
39.3977
17.7628
2.68021
10.1574
16.8722
28.9992
18.5065
3.75716
16.5475
0.600481
7.51782
16.9409
34.8014
0.428888
0.135771
19.2699
22.4696
0.903061
16.8732
0.620581
34.8207
29.5406
34.7916
9.01886
17.9147
22.8759
13.4116
34.8201
37.5639
16.5452
13.529
29.1983
28.2609
4.58285
17.9419
33.7925
17.9955
37.638
31.8044
29.2751
25.7823
10.2569
29.4804
30.065
20.6794
12.7157
12.8479
9.23383
18.0693
0.433704
34.2951
34.1972
18.1171
36.5423
37.6008
17.1344
17.3194
1.38981
36.7284
26.1939
26.9811
12.3525
34.0697
37.6311
29.5619
0.379547
29.3338
39.3497
4.45547
38.0741
13.324
20.4413
25.0283
25.2365
36.6651
37.7285
27.3188
17.3973
17.348
37.7734
13.9871
17.4661
22.5465
37.9837
12.5671
1.01117
34.7024
10.2422
31.6721
27.9415
36.0219
26.6081
31.3363
37.7197
21.5903
1.90801
32.6929
22.0047
21.9821
3.92716
19.1233
22.3057
1.37175
29.5313
28.2741
20.9014
3.50862
18.5946
30.1957
13.4403
22.1128
7.56153
16.9422
30.2124
3.99339
37.8908
21.9949
21.9389
28.676
5.3506
25.6339
36.0472
21.9079
10.2017
37.972
26.1715
0.440862
22.053
21.2437
2.56217
0.510525
18.8896
21.2701
26.3803
37.9453
37.565
26.5159
39.0155
26.5846
25.7995
35.5255
2.61789
22.6015
14.0355
38.8619
10.1962
11.6535
26.131
29.358
11.462
4.92705
14.1933
23.8654
37.6097
36.2248
28.6523
23.8038
26.0866
14.85
36.2237
24.0046
20.4445
35.4835
14.0723
18.0803
1.32641
31.0956
24.6403
20.6096
4.20062
15.7123
39.0012
22.0375
11.2444
20.9596
30.9346
36.2456
24.8491
35.7034
37.3442
11.818
20.4386
12.8294
31.6367
27.1179
32.942
37.6794
20.4664
20.4964
13.0931
13.079
36.3812
39.4006
39.3384
13.1711
13.1231
30.9179
10.0746
35.4101
36.3123
13.1451
14.6031
25.3942
13.0602
13.042
15.6968
24.5192
33.7796
36.9315
20.0867
1.41829
36.2894
18.9248
15.5946
31.3271
19.9738
15.6375
26.3788
36.299
13.4798
16.2178
38.9249
35.4547
0.850388
1.32034
5.48978
2.25348
15.6683
15.7996
3.82132
10.0681
14.4557
2.24222
36.2057
36.1203
0.0877384
2.50297
15.6232
30.3385
15.1584
14.9371
20.79
12.7288
15.0753
37.2242
38.9123
30.2029
36.1448
34.8575
16.379
10.3662
16.0544
29.5384
35.0096
24.9195
30.4008
35.1737
30.4846
30.6416
15.0475
15.1639
0.994524
17.535
29.1992
2.55078
37.4508
35.1572
27.8039
4.88493
13.1137
5.0457
26.1574
23.6334
28.7439
35.1949
16.008
3.3818
13.9107
30.4696
24.8481
28.1002
30.6844
16.0954
3.6476
35.0941
22.8234
15.4395
33.0002
34.87
34.6105
13.9058
34.7926
0.768245
13.8471
12.9782
17.5276
27.2883
33.8508
33.1058
35.2896
34.4806
26.4313
37.45
37.4556
31.5689
37.5189
10.1227
13.496
12.4207
9.47863
10.045
17.9692
34.4011
4.83107
2.10248
23.4035
16.9993
9.44174
15.9794
37.6063
30.6723
9.25933
21.1921
37.4711
21.4885
16.7154
37.4333
36.465
25.9872
9.13924
38.214
18.8736
16.9984
26.0222
38.4443
37.3981
1.47102
30.4062
17.7441
37.5201
38.7549
37.4326
20.4389
32.9323
33.0156
6.37264
30.8177
39.2105
6.34657
30.7536
14.3676
1.63289
1.54572
6.87903
31.6673
1.7673
39.3842
7.24306
3.71731
0.553042
11.5388
2.67703
2.60308
2.74864
2.93039
0.655808
26.9666
31.4923
15.796
26.4117
29.316
31.3157
2.86336
31.4091
2.88012
0.662309
8.35993
5.08354
26.014
5.03909
31.6314
5.93717
35.2301
16.1617
33.3872
11.9432
17.9925
38.9318
22.1192
35.2584
18.8106
35.3076
35.552
12.4039
22.679
34.8077
4.89228
13.0795
22.6019
36.3228
38.61
26.3208
7.18361
30.2376
11.8463
3.9304
22.0835
28.3437
20.9969
22.2318
34.5196
16.0153
37.6877
35.6647
8.92125
6.4254
29.7753
8.54979
5.66855
22.1711
23.0068
35.7224
28.6779
5.55059
21.9043
35.6505
38.9714
16.0747
18.839
34.4355
25.7767
0.477855
19.3839
1.50699
4.60062
11.9686
36.4766
33.6912
9.52089
27.8367
39.3946
8.94675
25.823
20.3466
31.7202
9.51173
31.6425
16.0768
26.7637
33.9996
27.3768
36.9925
18.6043
22.4886
4.38088
0.233454
34.7555
0.332603
27.9686
21.2957
27.1845
34.748
37.4119
10.0122
27.5662
21.3504
18.411
25.5801
7.23146
1.36385
13.8411
1.5266
1.05557
25.9199
34.9422
29.9811
21.0598
0.103392
25.2506
34.9679
36.7935
31.1406
29.5496
35.4092
29.6493
23.4245
35.1277
34.0676
34.0396
22.9614
9.32516
31.6538
34.1605
25.681
10.6073
35.2243
2.25699
34.5753
20.3272
7.26623
38.4146
2.11103
25.3604
25.3553
6.44648
37.1123
30.7146
24.3171
27.1259
25.307
26.3473
27.0106
23.0701
30.9166
23.7965
3.75083
9.46836
36.2125
34.6873
34.4498
35.4186
21.7743
11.0109
9.63386
25.4224
5.52969
9.72445
19.3507
22.6409
21.6627
7.02116
23.2835
25.4561
20.4292
5.16404
37.1516
25.2249
25.2012
22.1124
23.4569
35.2903
13.0227
13.3246
18.2363
18.2847
14.636
36.0191
14.4711
14.5606
34.7559
14.729
20.8946
35.445
14.7259
35.3492
39.394
13.0374
22.7271
20.9847
14.5644
36.6911
2.25817
23.4857
39.3613
11.7944
15.0422
12.3349
21.465
35.3469
22.7833
22.6992
19.8234
35.4718
10.3314
3.91374
20.2453
8.87111
11.1798
38.7616
35.5869
35.0321
0.723076
35.1858
10.0721
8.37569
2.72269
35.6027
3.06405
35.3385
37.1536
35.3835
12.3875
0.316616
30.5849
20.2255
10.826
34.7886
34.5837
25.6644
25.2578
8.26627
29.2312
10.9056
30.8553
37.0772
34.1554
34.1482
37.1857
34.1861
0.43838
37.5639
10.0682
19.196
10.8877
2.08238
12.9915
34.6769
8.54277
19.2099
22.4503
26.6009
34.7377
36.919
23.2534
8.51292
31.3954
31.3614
28.892
30.0015
30.956
30.7282
6.39203
1.43189
6.43178
31.3735
6.29352
19.3042
20.794
4.23457
6.29979
28.8289
31.5066
31.3235
31.3738
31.3814
4.38505
26.8747
39.2608
31.4284
31.4243
2.36396
1.4041
0.515158
19.3299
14.4931
31.3947
1.52665
29.614
36.3337
10.1301
13.8713
15.7672
36.3572
11.7386
6.49447
1.62593
14.2033
39.1554
36.0577
21.0925
4.00793
3.82665
0.771793
35.4072
37.9641
38.1732
15.71
18.8223
3.60127
37.8994
10.3857
36.0003
35.8857
1.54962
1.0925
36.3497
3.64036
3.7396
0.746887
39.3296
38.5263
6.69427
19.3329
35.9915
3.29979
2.94834
3.00344
35.8375
35.8158
35.884
3.00877
3.30946
25.5535
2.94085
39.1544
2.746
18.2008
25.78
23.5347
35.3809
36.8756
2.62777
27.2605
26.5394
13.2753
35.4565
30.5991
37.6353
4.46741
29.082
18.3989
35.5195
34.8805
27.5798
28.5189
34.7846
34.841
37.7485
11.9278
35.1495
34.7268
19.0726
18.6582
37.7204
34.6754
16.2107
2.81276
2.89927
12.3937
10.4046
34.7228
19.3068
34.4805
34.4553
34.9743
13.0971
21.4739
2.94856
34.5241
35.1596
18.6131
28.8595
19.7386
21.6888
17.0646
14.8145
16.8778
2.84183
34.4877
18.2904
13.5252
2.87367
12.1753
21.5614
33.802
12.0635
12.0783
12.0353
12.0534
4.09228
34.3934
35.2259
14.0294
35.1758
35.2354
16.9297
35.2394
10.0451
35.1457
35.2159
35.4905
34.854
13.3907
4.36472
13.4668
34.9729
6.39302
12.7673
18.155
35.0971
37.8849
13.4061
14.2695
29.9301
13.4293
35.0181
0.140266
2.85203
2.27838
36.7389
35.4354
7.91854
6.68052
35.4963
35.1879
25.0261
0.196052
35.0298
27.5983
24.9777
25.0335
14.8438
35.1733
16.898
32.2133
1.45505
0.312587
25.0556
24.7873
22.8969
9.4199
17.2386
34.8741
19.3377
17.2516
29.8393
27.0252
25.0194
34.9517
11.8156
17.6164
9.87282
15.0272
17.4039
29.1258
1.15408
26.4856
23.1894
25.0672
6.98958
25.1874
26.448
17.1589
21.088
35.3619
31.0269
39.35
17.014
17.7478
25.2478
26.5263
24.2375
17.2719
17.2972
28.0536
13.3826
4.44028
36.4848
34.4335
26.5268
26.5516
20.5345
26.4893
29.6289
27.6162
29.5976
29.4518
34.5323
4.31305
29.5183
31.9572
34.5026
0.444471
34.3525
13.1505
17.2956
31.1228
11.7084
39.3107
16.6992
29.4658
1.99675
37.5215
29.5398
3.7696
22.6794
29.4088
29.437
34.4801
37.36
12.1308
18.2349
9.6142
18.2194
16.3944
18.5219
29.906
34.8028
0.466057
34.7311
18.3582
4.33218
19.6164
38.3497
34.272
27.5965
18.4258
13.272
19.8807
37.4498
19.6675
19.8932
0.527883
19.8481
33.1713
32.7261
19.6708
37.0194
36.8331
11.7416
33.0272
27.3197
38.5894
8.7944
34.9386
31.1683
38.7942
5.45504
26.1714
30.8786
19.7487
20.8121
17.833
25.1133
30.2989
1.58752
30.9258
10.9579
30.7178
35.4755
6.29531
36.6229
20.8424
21.1178
16.5639
14.6428
20.6971
0.44825
12.9575
20.6442
20.1317
31.7067
24.4986
27.5977
34.9772
20.6104
4.57764
31.3091
4.23188
20.7337
31.3987
6.36379
29.1979
18.4479
31.4357
18.5672
11.1507
20.9253
16.825
36.8387
36.7229
17.7661
18.1237
22.8951
37.7988
31.3885
1.2826
17.2413
13.0304
8.18707
13.7099
11.669
18.0571
0.0529854
10.2609
24.3148
8.62048
15.6788
14.0173
12.8542
24.2715
20.6805
8.52954
31.6631
19.3614
31.6956
7.51084
21.9739
31.5823
9.66349
0.0839599
13.7586
18.0943
7.69139
6.35448
36.1652
21.5611
31.5926
31.4844
32.9574
21.5974
34.565
11.8458
21.5678
2.99667
23.1714
36.1828
21.0245
24.4724
0.563063
21.9519
31.6641
24.245
37.4284
14.1616
1.83056
23.3123
30.4137
32.011
36.1655
37.5759
32.2993
34.9348
24.3088
36.6211
31.1145
32.0284
34.6597
34.8151
1.62698
34.8749
37.5731
24.2367
13.6565
38.6494
16.3495
12.3754
17.1441
31.5321
37.5818
27.9437
24.5476
23.2451
31.954
37.6354
29.587
23.7256
26.7102
37.3824
13.9288
23.5725
36.096
12.2143
37.2013
35.3904
29.6818
23.3369
37.8984
29.653
29.298
29.7254
29.1683
20.0671
28.6108
28.4261
21.1125
24.2436
39.1044
11.103
3.92026
8.42875
1.1859
29.0308
3.70978
12.0296
37.9677
36.5293
18.6013
29.0827
24.0297
11.3324
24.0724
12.8482
1.29603
37.6837
0.0915239
28.6211
3.21511
24.076
7.55358
37.9589
27.8515
21.1273
27.8779
32.2145
37.8511
10.5631
39.2023
4.23128
38.9607
24.1297
27.8483
22.942
17.448
20.907
1.04531
22.7975
37.8826
24.2089
24.2125
35.7927
35.8664
1.51382
20.7182
38.158
0.044361
35.8946
9.01806
27.8798
35.9317
2.4597
17.6676
19.758
35.9653