/*--------------------------------*- C++ -*----------------------------------*\
  =========                 |
  \\      /  F ield         | OpenFOAM: The Open Source CFD Toolbox
   \\    /   O peration     | Website:  https://openfoam.org
    \\  /    A nd           | Version:  10
     \\/     M anipulation  |
\*---------------------------------------------------------------------------*/
FoamFile
{
    format      ascii;
    class       surfaceScalarField;
    location    "1";
    object      phi;
}
// * * * * * * * * * * * * * * * * * * * * * * * * * * * * * * * * * * * * * //

dimensions      [0 3 -1 0 0 0 0];

internalField   nonuniform List<scalar> 
214403
(
-0.00177603
0.00134662
8.43976e-05
0.000345016
-0.000820443
-0.00282066
0.000216418
0.00342468
-0.00261973
4.9347e-06
-2.48043e-05
0.00263959
0.00230022
-0.00152021
-0.00387643
0.00309642
0.00305419
-0.00384735
0.000901509
-0.000108357
-0.00133481
0.00139477
-2.44914e-05
-3.54706e-05
-0.000210585
-0.000417668
-0.00230638
0.00293464
-0.00416906
0.00238353
-0.000625386
0.00241091
-0.0058609
0.00413578
0.00420893
-0.00248381
0.0034408
0.00041903
-0.00389234
3.25132e-05
0.00128671
-0.00254958
0.000528304
0.000734568
-0.00251494
0.000778769
0.00130519
0.000430984
0.00012248
-0.00294457
0.00356586
-0.000743775
-0.00254025
0.00253076
9.49155e-06
0.000497553
0.00300989
-0.00388204
0.000374595
-0.00296318
0.00245697
0.000750018
-0.0002438
-0.00302305
0.00293813
8.49245e-05
0.000991601
-1.41393e-05
-0.00026715
-0.000710311
0.00384802
-0.00229293
-0.00513452
0.00357943
-2.2991e-05
-0.000807232
2.38997e-05
0.000806323
0.00166966
-0.00160225
-6.74128e-05
-0.00306614
-0.00105186
0.00105189
0.00306611
-0.000570926
0.00339341
-0.00272927
-9.3214e-05
0.00166247
0.000167048
0.000558741
-0.00238826
-0.00253944
-0.00121304
0.00328887
0.000463606
0.00240953
-0.00304579
3.6402e-05
0.000599855
0.000783175
-0.000676667
0.00257289
-0.0026794
0.0019688
0.00254889
-0.00308545
-0.00143225
0.00276247
-0.00171966
-8.72808e-05
-0.000955527
-0.00153276
0.00156688
-3.41172e-05
0.000664383
-0.00129531
0.00324976
-0.00261883
0.00346961
0.000168744
-0.000610316
-0.00302804
-0.00147531
-0.00149798
0.00154331
0.00142998
-0.000294451
-0.001674
0.00147568
0.000492774
0.00107553
-0.000755468
-0.00243513
0.00211507
-0.00042027
0.00211082
-0.000763593
-0.000926954
0.00387958
-2.44052e-05
-0.00385517
-0.00172575
0.00340226
-0.00167651
0.000306585
-0.00374301
0.00218675
0.00124967
0.000597106
-0.00024143
0.00148979
-0.00184546
0.00140139
-1.43582e-05
-0.00138703
0.00248668
-6.16237e-05
0.000451873
-0.00287693
-0.00321283
0.000390277
0.00341966
0.000237558
0.000242592
0.00217119
-0.00265134
-0.000905813
-0.00677779
0.00647766
0.00120594
0.00149638
0.000289306
0.000314768
-0.00210045
0.00102524
0.000798235
-0.00253713
0.000713653
0.00328607
0.00195833
-0.00358193
0.000286832
0.00275775
-0.000557903
0.000488342
-0.00176978
-0.00103808
0.00231952
0.000843766
0.00124255
0.000355031
-0.00244134
0.000469394
-0.000357238
-0.00107375
0.000961595
0.00183656
-0.00331132
0.00231853
0.0029075
-0.0027622
-0.000919893
0.000774592
0.00279968
-0.000474779
-0.00213992
0.0028894
-0.000115373
-0.000634108
0.00217687
-0.00280318
4.67734e-05
0.000579541
-0.0020806
0.000158699
0.00331174
-0.00138984
-0.00404648
-0.00403038
0.00327338
0.00480348
-0.00201785
0.00202311
0.000397846
-0.000403101
0.000311989
-0.00257127
-0.0022374
-4.38602e-05
0.00115639
0.00112487
-0.00358452
0.00153314
0.00229464
-0.000243257
0.00383368
-0.00304505
0.00015595
-0.000944576
0.000179485
7.37025e-05
-0.00260067
0.00234749
0.000144607
-0.00078082
0.00381391
-0.00317769
-0.00904588
0.00109792
0.000969188
0.00697877
-0.000771732
0.00232351
-0.000736083
-0.000815694
0.0012879
-0.00066345
-0.00271599
0.00209154
0.000314427
0.00200325
-0.0025321
0.000214424
-3.51987e-05
0.0021818
0.000728077
-0.00287468
-0.000456346
-7.71687e-05
-0.000963564
0.00149708
-0.00234901
0.00256857
-9.35476e-05
-0.000126006
9.90847e-05
-0.0023957
-0.00165593
0.00147545
0.000446337
-0.000265851
-0.0041864
-0.00026383
0.00203244
0.0024178
-0.00127937
-0.00053119
0.00106213
0.000748429
0.00183111
-0.0061635
0.000820285
0.0035121
-0.000997975
0.00198015
-0.0010842
0.000102026
0.00139196
-0.00107486
0.000147895
-0.000464997
7.98138e-05
-0.00270522
0.00262541
5.12682e-06
0.00210565
-0.00211077
0.00189129
-0.000362016
0.000237879
-0.00176716
-0.001188
0.00170034
0.000564697
-0.00107703
-0.00082113
0.00355671
-0.000871229
-0.00186435
0.00173488
-0.00299916
-8.52182e-05
0.0013495
0.00189521
0.00197239
-0.00386761
0.00269664
-0.00303784
0.000807463
-0.000466266
0.00015863
-0.000492436
0.0037144
-0.00338059
0.000117129
-0.000568062
0.00258149
-0.00213056
0.000681458
0.00530926
0.00144485
-0.00743557
-0.00462991
0.00404389
0.00264513
-0.00205911
0.000220674
0.00176435
-0.00234478
0.000359761
0.00225578
0.0025064
-0.000801601
-0.00396057
0.00395965
-0.00242841
-6.27324e-05
-0.0014685
0.000171745
-0.000527951
-0.00168279
0.002039
-0.00169758
-1.70294e-06
0.00169929
0.00247398
7.48592e-05
0.000147803
0.00314308
0.000253617
-0.00474735
0.00135065
-0.00258614
0.000522861
0.000457937
0.00160534
-0.0016194
0.000405352
0.000190415
0.00102363
0.00033806
0.000298284
-0.00319952
0.00256318
-0.000684466
-0.00388183
0.00248838
0.00207792
0.00154879
-0.00182947
-0.00120172
0.00148239
0.00250543
-9.23206e-06
-0.0025044
8.20104e-06
0.00192225
-0.00271854
-0.000912651
0.00170894
0.00497934
-0.0015312
-0.000782525
-0.00266562
0.00276296
-4.5919e-06
-0.00254056
-0.000217812
-0.00154419
0.0018102
0.00372888
-0.00399489
0.00321274
-0.00103219
-0.00312374
0.000943189
0.000602194
-0.000880786
0.00374828
-0.00346969
-0.00397778
0.0036224
0.00343399
-0.00307861
0.00019532
-0.00333979
0.00128467
0.0018598
0.00421612
-0.000210472
-0.0001169
-0.00388875
0.00291788
-0.000575886
0.00055955
-0.00290155
-0.00357568
-0.00327941
0.0038685
0.00298659
-0.000628052
0.00182889
0.000492198
-0.00169304
-0.00136379
7.13711e-05
0.00263841
-0.00134599
-0.000287175
0.00347699
-0.00321596
2.61435e-05
-0.00313336
0.00290924
0.000568323
-0.000344207
-9.37385e-05
-0.00180152
0.0043048
0.000542509
-0.00180143
-0.00133074
0.00258967
-0.00143679
9.84154e-06
0.00142695
0.000454103
0.00200992
-0.00186387
-0.000600151
0.00332308
-0.00194891
-0.000509034
-0.000865136
6.3839e-05
-0.00101693
0.000953096
-0.00183624
-0.000508235
0.00070131
0.00164316
0.00020901
0.00115981
-0.00257293
0.00120411
0.00418655
-0.000371412
0.00160621
-0.00542135
0.000261631
-0.000426527
-0.00477
0.0049349
0.000340723
-0.00128654
-0.00189519
0.00284101
9.97285e-05
0.00247236
-9.81168e-05
9.49987e-06
-0.00149184
0.00148234
0.00306082
-0.0011431
-0.00137521
-0.0018386
0.00153835
-0.00153599
0.00328462
-0.00274231
-0.000341459
-0.000200844
0.000339413
-0.00158434
0.000706384
0.000538547
-0.00269989
-0.000827669
0.000554263
0.00297329
0.00227308
-0.00366117
0.0024486
-0.00106051
-7.42985e-05
0.00342401
-0.0034211
7.13873e-05
2.02748e-05
0.00382882
-0.00383694
-1.21513e-05
-0.00415848
0.0033476
-0.0026931
0.00350398
0.00351395
-0.00342853
-8.5415e-05
-0.0034125
0.00454406
-0.000804361
-0.000327196
-0.00291543
0.00071322
-0.000214625
0.00241684
-0.00483622
0.00035632
0.00311207
0.00136783
0.000847055
-0.00116455
0.000656904
-0.00123718
0.0013773
0.00225142
-0.00239154
-0.0012506
-0.00057401
0.000711865
0.00111274
-0.0017198
0.00112009
-0.00214088
0.00274059
0.000508674
5.97225e-05
-0.0039809
-0.00176623
0.0017654
8.26481e-07
0.00277469
-0.00271162
-6.30719e-05
-0.0028424
-0.000180949
-0.000752164
0.000616148
-0.00371192
0.00427777
-0.00118199
0.00162926
0.00280894
-0.0035736
-0.000864596
0.00311834
-0.00339805
0.000104249
0.000175455
0.00178988
0.000463403
-0.00185431
-0.000398972
-0.00271369
-0.000123515
0.00345335
0.00160957
-0.00011331
-0.00196077
0.000464511
0.0018168
-0.00151711
0.00173185
-0.00203154
-0.00295667
0.000546716
0.00403922
-0.00106296
-0.00140671
0.00473343
-0.00226376
-0.00140304
-0.00161405
0.000303409
0.000356384
0.00121783
-0.00297725
-0.00217266
-0.000179631
0.00348299
-0.0011307
0.000304504
0.000586005
0.00177202
-0.00266253
-0.000978737
0.00238709
-0.00140836
0.000624389
-0.00366485
0.0014264
0.00217289
0.00153895
-0.00335546
-0.00316926
5.53046e-05
0.00391664
-0.000802686
0.000530426
0.000479754
0.00149119
-0.00250137
0.00255724
-0.00254733
-9.91643e-06
0.000791823
-0.000311253
0.00266856
-0.00314913
0.00277829
-0.000875733
0.00133558
-0.00323814
0.00533175
-0.00170825
0.00397597
-0.00759947
0.000848042
0.00156771
-0.000648358
-0.00176739
-0.00240639
0.000989066
0.00126568
0.000151646
0.00172937
-0.00129611
-5.35281e-05
-0.000379735
-0.00106977
-0.00137695
0.00399041
-0.00154369
-0.00193429
0.00250947
0.0010096
-0.00158477
0.00293222
-0.000154219
-0.000961193
-0.00433578
0.00286298
-0.000247005
-0.00410534
0.00381541
0.00175076
-0.00146083
0.0026226
-0.0029617
-0.000412607
0.000751708
0.00150369
-0.00272382
-0.00141214
-0.00161359
-0.00149406
0.000835539
0.00227211
-0.00226901
0.000715878
0.00225678
-0.000703649
0.00292666
-0.00277124
-0.001968
0.00181258
1.30057e-05
-1.8746e-05
-0.00250321
0.00250895
6.72781e-05
-0.00228081
-7.49691e-05
0.0022885
-0.000626608
-0.00371408
0.000582261
-0.00216818
0.00194703
-0.000361118
-0.00145185
-0.000598595
-0.000218558
-4.43194e-06
0.00343377
1.14545e-05
-0.00836658
0.00588434
0.00425391
-0.00177166
-0.00257496
0.000172145
8.98506e-05
0.00231297
-0.00052695
0.00799013
-0.00940881
0.00194563
0.000407577
0.000636761
-0.00142467
0.000380337
-0.00553448
0.00297383
0.000390311
0.00217034
-5.87749e-05
-0.00368092
-0.000546995
0.00428669
-0.00145283
0.00545561
-0.003827
-0.000175777
0.00244876
0.00353857
-0.00328361
-0.00270372
-0.00287159
0.00273389
0.00338058
-0.00324289
0.00116521
0.00161286
-0.00201983
-0.000758242
0.00115023
-0.000761568
-0.00184051
-0.00562099
-0.000220856
0.00458503
0.00125681
0.00172333
0.000280331
-0.00101459
0.00175422
0.00237645
-0.00218114
-0.00194953
-0.00280356
0.000637852
0.0027189
-0.000553196
0.000320912
0.000959642
0.00326351
-0.00342636
0.00336212
0.000326464
-0.000262227
0.00211768
0.00165747
-0.00148949
-4.7564e-05
-0.00043722
0.00197428
-0.00224002
-0.000470453
0.00130088
-0.00419707
0.00168351
0.00121268
9.69139e-05
0.00221129
-0.00243689
0.000128689
-0.000888227
0.000179661
-0.000811366
0.00151993
0.00361896
-0.00258561
0.000116876
-0.00202804
-0.00161022
0.00215479
0.00148348
0.007284
-0.00786576
0.00261426
-0.0020325
-0.00151211
0.00188012
0.000752305
-0.00112031
-0.00366663
0.00157072
0.00318336
-0.00108746
-0.0014747
0.00211085
0.0026353
-0.00327145
0.00398303
-0.00147389
-0.00271753
0.000208393
7.70362e-05
-0.000997952
0.00236359
-0.00144268
-0.000403522
0.000352139
-0.00311788
0.00279442
0.000877366
-0.00301885
-0.00065294
0.00376272
-0.00309941
-0.000786823
0.00073511
0.00113027
-0.00264124
0.000775863
-0.00158122
-0.00283489
0.00259988
0.00181623
-0.000466211
-0.0012185
-0.000343326
0.00149142
-0.00158081
0.00340103
-0.00331164
0.000364078
-0.00407223
0.00370815
0.00138864
-0.00185021
0.00119668
0.000797727
0.000469256
0.000648503
-0.00191549
1.6036e-05
-0.00353774
0.00352171
-0.00194931
0.000265025
-0.000646893
0.00233117
-0.000252279
0.00283001
-0.00255997
-1.77689e-05
-0.00182528
-0.000983734
0.00106566
0.00174335
-0.000665949
-0.00162554
-0.00148583
-0.00219577
0.00182912
0.00185249
9.32522e-05
-0.00224503
0.00376825
-0.00153768
-0.000210562
-0.00202001
0.00271815
-0.000375603
-0.00196178
-0.000380766
-0.000312628
0.00282671
-0.00353027
0.00101619
0.00180981
7.52629e-05
0.000874484
-0.00275956
-7.28527e-05
-0.00151241
0.000731833
0.000853432
-0.00102454
0.00132388
0.00250319
-0.00280252
-0.0036137
-0.000974704
-0.00100608
0.00336942
-0.00339743
8.60135e-05
0.00105544
0.00225598
0.000318486
-0.00114916
-0.00199069
0.00282137
-0.00151235
-0.00296606
0.000753274
0.00372513
-0.00133575
-0.00144461
0.00150045
0.0012799
-0.00334694
0.00321737
0.00335756
-0.00322799
-0.0004835
-0.00083171
-0.00252414
0.00383935
-0.00337026
0.0003522
0.00344555
-0.000427489
-0.000637509
0.00158239
-0.000944877
-0.0014165
0.00263078
-0.00196168
0.000747393
-4.8364e-05
0.0044998
-0.00169352
-0.00275792
-0.00164044
-0.0008154
0.00328043
-0.000824592
0.000513723
-0.00134703
0.00303897
-0.00220566
0.000149695
0.00207555
-0.000362159
6.52426e-06
-0.00328693
0.00328438
-3.97801e-06
0.00388107
-0.000701334
-0.00569785
0.00251811
-0.00360395
-0.000335337
0.0045026
-0.000563312
-0.00192829
0.00294663
0.000224439
-0.00124278
0.00234507
-0.00236637
2.12978e-05
-0.0019495
0.000202822
-0.00165162
0.00339829
-0.00289026
0.00400449
-0.00080991
-0.000304323
0.00180317
-0.000740927
-0.00218775
0.00112551
-0.00335726
0.00338982
-3.25557e-05
0.00289045
-0.00418531
0.000321291
0.000973568
-0.00317596
-0.000875237
0.00545125
-0.00140005
0.00237555
-0.000152942
-0.000475772
-0.00174683
-0.00135153
-0.00229988
0.00514284
-0.000239637
-0.00338496
0.00204378
0.00529981
-0.00593381
-0.000567345
0.00120134
0.00146904
0.000708704
-0.00164732
-0.00247376
0.00248674
-1.29803e-05
-0.000603981
0.00338284
-0.000221797
-0.00255707
-0.000704014
0.000842803
0.00289537
-0.00303416
0.0019871
0.00473026
-0.00272878
-0.00398858
0.00350399
-0.00416736
0.0013348
-0.000671431
0.00298792
2.83723e-05
-0.00301629
4.14397e-05
0.00289323
-0.00293467
0.00334502
-0.00403661
0.00358205
5.39817e-05
-3.89302e-05
0.00293284
-0.00294789
-6.30446e-05
0.00508202
-0.00509898
8.00056e-05
-0.000392448
-0.0011702
-0.00241333
0.00397597
-0.00150564
-0.000876504
0.00030506
0.00274507
-0.00483268
0.00178254
-0.00235716
-0.000612654
0.00251816
0.000451649
-0.00301274
0.00331707
-0.000888962
0.000584636
0.000444706
0.00228036
-0.00077829
-0.00194677
-0.00104069
0.000221917
0.00187993
-0.00106116
-5.50103e-07
0.000845017
-0.00111336
0.000268897
-0.00117775
0.00278951
-0.00158383
-2.79228e-05
0.000836488
-0.00264987
-0.00154388
1.91539e-05
-0.002512
0.00249285
-0.000992664
-0.000939839
0.000429968
0.00150254
0.00142321
-0.00081719
-0.000606023
0.00352546
-0.00352119
-0.000699996
0.000695727
-0.000325596
-0.00217704
0.0020045
0.000498131
-1.28354e-05
1.88793e-05
0.0019845
-0.00199055
0.000961186
-0.000799452
-0.00313058
0.00296885
0.00230844
-8.457e-05
-0.00222387
-0.00334604
-0.00217313
0.00322827
0.00229089
0.00189225
0.00293692
-0.00506881
0.00186225
-0.000653203
0.00103732
-0.00224637
-0.000758219
0.000750524
-0.00426965
0.00427735
0.00108137
-0.00214224
-0.00208341
0.00314428
-0.000213648
-0.000525847
0.0023773
-0.00163781
0.00164424
-0.00201347
0.000738061
-0.000368828
0.000927542
-0.00156488
-0.00149779
0.00213513
-0.00293725
0.00329881
-0.000865083
0.000503516
0.00343059
0.00447299
-0.0049168
-0.00298678
-0.00268367
0.00267642
7.25118e-06
-0.000296519
0.00287975
-0.00368808
0.00110485
6.28969e-05
-9.80407e-05
-0.00347774
0.00351289
0.00287565
0.000134953
-0.00331293
0.000302324
-0.00130111
-0.00215803
0.00272446
0.000734672
-0.00303999
0.00430897
-0.00154295
0.000273968
-0.00120833
-0.00149758
0.000904475
-0.000171957
-3.90573e-05
-0.0020711
0.00228211
-0.00671125
3.16829e-05
0.000583473
0.00609609
0.000275744
-0.00174155
-0.000908992
0.0023748
0.00426431
-0.00034637
-0.0013937
-0.00252425
-0.000753282
-0.00168128
0.000360732
0.00207383
0.00125733
1.49387e-05
-0.00127227
0.00197055
0.00102036
-0.000663006
-0.00232791
0.00156526
-0.00123591
0.0030633
-0.00339266
9.95303e-05
0.00310581
-0.0010208
-0.00218454
0.000781739
0.00111369
0.00236888
-0.00153603
0.000112172
0.00142386
-0.00201156
0.000294994
0.000527306
0.000331402
-0.00275424
0.00189553
-0.00256729
0.00378618
0.00115626
0.00393126
-0.000826007
-0.00426152
-0.00241804
0.00243788
-0.00383309
0.00381325
-0.000372043
-0.00187991
0.000660857
0.00159109
-0.00210788
0.00400309
0.00123621
-0.00144861
0.000350266
-0.000137861
-0.00126084
-0.00400785
0.00124282
0.00402587
0.00267636
-0.00265383
-4.00463e-05
1.75166e-05
0.00219056
-0.00258081
0.000530756
-0.000140512
0.000536016
0.00214386
-0.00382705
0.00114717
1.78402e-05
0.00188169
-0.00189953
0.00120855
-0.00307746
0.00240493
-0.00120566
0.00323517
0.00272565
-0.00475516
0.000754552
-0.000893271
-0.00408368
0.0042224
-0.00117085
0.00200963
-0.00413486
0.00329608
-0.00308561
0.00243005
0.00317932
-0.00252376
-0.00189493
0.00259411
-0.00168191
0.000982735
-0.000413283
0.00183427
0.000299887
-0.00172088
0.000883297
-0.00130032
0.00133388
-0.000916859
0.00176117
0.000659424
0.000592156
-0.00301275
0.00469674
-0.003186
-0.000193958
-0.00131678
-6.15736e-06
-0.00228427
0.00229043
0.00141618
-0.00209722
-0.00643277
0.00711381
-0.000306668
-0.00309344
-0.000935927
0.00433604
-0.000196948
-0.00145533
0.00165228
0.000449086
0.00208166
-0.000357527
-0.00217322
-0.000579913
-0.00211476
0.00169251
0.00100216
0.00169548
-0.0014298
-0.00250308
0.00409095
-0.00318907
0.00095922
0.00103785
-0.00199707
0.00322253
9.23674e-06
-0.000404783
-0.00282698
-0.000623572
-0.0010767
0.00170028
0.00111059
0.000748228
0.00628726
-0.00754467
-0.00264491
0.00390231
0.000939156
0.00208153
-0.0015737
-0.00144698
-0.00222044
0.00425989
0.00279818
-0.00483763
0.00262762
0.000909388
-0.000348102
-0.00318891
0.0041277
-0.0027809
0.00176396
-0.00311077
-0.00245954
0.001133
-0.00318375
0.00451029
-0.00381352
0.00677811
-0.00267093
-0.000293656
-0.000150889
-0.00158207
-0.00221798
0.00395095
0.0031025
0.00128541
-0.00361068
-0.000777228
0.00174153
-0.00461258
0.00287089
1.62664e-07
-0.0038608
-0.000155917
0.00251631
0.00150041
-0.000837896
0.00217416
0.000947253
-0.00228352
-0.000487166
0.001945
0.00157379
-0.00303162
-0.00418457
0.00213502
-0.000175453
0.002225
0.000332412
-0.00106629
0.00213335
-0.00139947
0.00176177
-0.000885681
0.000618521
-0.00149461
0.0018738
0.000405177
0.000174409
-0.00245339
-0.0023686
0.00257987
0.000947759
-0.00115903
-0.000595115
0.00309432
5.50156e-05
-0.00255422
0.00241103
-0.00138986
-0.000919992
-0.000101176
0.00216209
2.95796e-06
-0.00216505
0.00155699
0.00121635
-0.000273156
-0.00250018
0.000733611
0.00189158
0.00162127
-0.00424646
4.66721e-05
-0.00355547
0.00350879
-0.0018685
0.00717355
-0.00105618
-0.00424888
-4.44418e-05
0.00255806
-0.00251362
-0.000168541
-0.00188281
0.000336663
0.00171468
-0.00331362
0.00173898
0.00126199
0.000312645
0.000698137
0.00055685
-0.00394301
0.00268803
0.00205143
0.00319964
-0.00119144
-0.00405963
0.0030259
-0.000987325
-0.00288344
0.000844869
-0.0039007
0.0022667
0.0061449
-0.0045109
5.46922e-06
0.00155072
-0.00156039
4.19902e-06
-0.00158518
0.00157212
1.30652e-05
-0.00393753
5.59654e-05
0.00166112
0.000435038
0.000942811
0.00258958
-0.00396743
0.002002
-0.00240128
0.0015756
-0.00117632
-0.00203027
0.00175962
-4.45639e-05
0.000315213
-0.000400412
-0.00332786
0.00424268
-0.000514409
-0.00150835
0.000709961
0.00237839
-0.00157999
0.00250614
-0.000969751
0.000361711
-0.0018981
-0.00165177
-0.000281653
0.00192127
1.2155e-05
-0.000295248
-3.86266e-06
0.00280881
-0.0025097
0.000330581
-0.000269957
0.00261276
-0.00267339
-0.00254776
0.00359006
-0.00385822
0.00281591
-1.12633e-05
-0.00301594
0.00302721
-0.00111229
7.9311e-05
0.00284129
-0.00180832
-0.00206772
0.00243441
-0.00335372
0.00298703
-0.00212931
0.000157456
0.000641111
-0.000954291
0.00275328
0.00014773
-0.00194672
-0.000704362
8.68379e-05
-0.00122108
-0.0010386
-0.00354083
0.00354307
0.00103636
-0.00159575
-0.000174913
-0.000440542
0.0022112
-0.00517293
0.00174521
0.000515736
0.00291199
-0.00168534
0.00393365
-0.00196973
-0.000278579
0.00116021
0.000490775
-0.00235535
0.00229221
0.00231076
-0.00460297
0.000367922
0.00498993
-0.00122218
-0.00413567
-6.57162e-05
-9.30694e-05
-0.00232603
0.00248482
-0.00237157
0.00385775
-0.00157406
8.78893e-05
0.00224133
-0.00140311
-0.00202444
0.00118622
0.000598246
-8.02814e-05
0.000732326
0.00364113
0.000993598
-0.00521213
0.000577405
-0.00284176
-0.000301226
0.000889015
0.00225397
0.000886084
-0.00101485
-0.00136881
0.0041328
-0.0028089
0.00221734
-0.00354124
-0.000460934
0.00271127
-0.00470849
0.00245816
0.00163064
-0.00206678
-0.000207249
0.00064339
-0.00182624
-0.00064085
-4.55979e-05
0.00251269
-0.0013555
-0.00126195
0.00261745
0.000322351
-0.00354296
0.00314395
7.6655e-05
0.00138629
-0.00134895
-0.00139283
-0.00329901
0.0041668
-0.000719043
-0.00014874
0.00331194
0.000910111
-0.00353767
-0.000684388
-0.00158427
-0.0026488
-0.00037505
0.00460812
0.00219059
-0.000676403
0.00254504
-0.00405924
-0.002531
-1.67524e-05
-0.00272162
0.00145966
0.000350281
-0.00307466
0.000975322
0.00174906
0.000932889
-0.00339042
0.00185515
0.000602382
0.000628766
0.000111009
-0.00301675
0.00227698
0.000367026
0.00160917
-0.000105693
0.00283758
-0.000565866
-0.00216602
-0.00112456
-9.75766e-05
-0.00103809
0.00226023
-0.000657804
-0.000891112
0.00169129
-0.000142379
-0.00249443
-4.50121e-05
-0.00425078
0.00152709
0.00223652
0.00610729
-7.59293e-05
0.000851811
-0.00688317
-0.00293606
0.00443538
0.000937222
-0.00243654
-0.000822043
0.000405815
0.00257787
-0.00216164
0.000318223
0.000893066
-0.000694974
-0.000516315
-0.00461844
-0.0009588
0.00397757
0.00159967
9.50978e-05
0.00200027
-0.00039989
7.87435e-05
0.000989666
-0.0031108
0.00204239
-0.00188806
4.49046e-06
0.000700035
0.00118353
-0.00269297
0.00330229
-0.000514221
0.00151837
-0.00135182
-0.000166542
-0.00224608
0.000262292
-0.00172737
0.00371115
-0.00100008
0.00151533
-0.00118039
0.000665135
-0.00219262
0.00247503
-0.00102068
0.000738273
0.000971682
-0.000185522
-0.00218998
0.00140382
-0.000957244
0.00613927
-0.00822202
-0.000840485
-0.000590379
0.000573065
0.000857799
0.00285489
-0.00444096
-0.000191451
0.00177752
-0.00116249
0.000863347
0.00151091
-0.00121176
-0.000361555
0.00187763
-0.000533906
-0.000982171
-0.00208578
0.000458116
0.000496613
0.00113105
-0.00121143
9.74823e-05
0.00111395
0.00271366
-0.00128462
-0.00138514
-4.38974e-05
0.000222655
0.00139657
-0.00213422
0.000514994
-0.00143738
-0.00173113
0.00176735
0.00140116
-0.000857175
0.0021547
-0.00181671
0.000519178
0.000704718
-0.00131199
0.000897564
-0.000290293
0.00270994
8.54277e-06
-0.00271848
0.00216743
-0.00266971
0.00131822
-0.000815941
-0.00339421
-3.71384e-05
0.00343135
0.00138229
-0.00115609
0.000283854
-0.000510057
-6.66999e-05
0.00272051
-0.00301705
0.000363242
-0.00121273
0.00152525
0.000392195
-0.00140688
0.00295493
0.00276092
-0.0023086
0.00226898
3.96217e-05
6.6795e-06
-0.00362049
0.00361381
0.00490167
0.000575297
-0.0010191
-0.00445787
0.0010525
-0.0038546
-0.00053178
0.00333388
0.000732049
0.000908099
0.000555943
-0.00219609
-0.00134957
-0.00133435
3.25856e-06
0.00268066
-0.000653305
0.000886522
-0.00158278
-0.00300123
0.000546499
0.00393829
-0.00148356
-0.0059757
0.00438715
0.00192419
-0.000335638
0.00259534
-2.04586e-05
-0.00257488
-0.00154508
-0.00211158
0.00134846
0.0023082
-0.00148426
-0.00215455
0.000637578
-0.00216375
0.00116828
0.00136249
0.000869782
-0.0011529
-0.00206797
0.00235109
-0.00146022
-7.10612e-06
0.00146733
-0.00336267
0.00138817
0.0013777
0.000596792
0.000868376
-0.00232149
-0.000710633
0.00293042
-0.00092526
-6.89979e-05
-0.00193617
-0.0019681
0.00326584
0.00189116
-0.00318889
-0.000614426
-0.00130552
0.000533682
0.00138627
-0.000825178
-0.000660827
0.00148601
-0.00146376
-0.00309829
-0.00141365
0.00071688
1.23818e-05
0.0014218
-0.00215106
0.0027563
-0.00197955
-0.00288996
0.0021132
-0.00103998
0.000378879
0.0020646
-0.0014035
0.0019654
-0.00139368
-0.000179264
-0.000392458
-0.00222917
0.000387797
0.00173893
0.000102434
-0.00140043
0.00317178
-0.00348962
0.00138305
8.57243e-05
0.00202085
0.00379865
-0.00287146
-0.00234024
0.00141305
-0.00252749
0.000559347
0.00472444
-0.00247871
-0.00166087
0.00268251
0.00145707
-0.000287677
0.00263088
-0.00100747
-0.00133573
0.000163956
-0.00177867
-0.00115364
0.00276836
0.00299681
-0.00197426
-0.000122164
-0.000900385
0.000912017
0.00068657
-0.00225189
-0.000634726
0.000721416
0.00174868
-0.00183537
-0.000509366
0.00269681
-0.0033623
0.00117486
-0.00170455
0.000421562
0.000405178
0.000877815
-0.00385398
0.00384457
9.41812e-06
0.00319472
-0.00315562
-3.91021e-05
0.00106504
-0.00409798
-0.00158318
0.00461611
0.000869784
0.00165993
0.000400714
-4.0074e-05
0.00146803
-0.00142795
0.00258366
0.00229454
-0.0048782
-0.00261845
0.00159683
0.0011297
-0.000108081
-0.00147108
0.000482503
0.00119687
-0.000208293
-0.00437989
0.00204644
0.00240255
-6.91005e-05
-0.00140521
-0.00157625
0.00152124
0.00265592
-0.000455592
-0.00165475
-0.000545582
-0.00241768
0.00261493
-0.00159768
0.000404692
-0.00268207
-0.000126014
0.00240339
-1.56783e-05
-0.00138012
0.00139579
0.00632414
0.000102921
0.000651911
-0.00707897
-0.000236949
-0.000532193
-0.00372179
0.00449093
0.00114984
-0.00157669
-0.000704074
0.00113093
0.000433412
0.00334103
-0.0013457
-0.00242875
0.00370538
-0.00367554
3.9392e-05
-6.92271e-05
-0.00206804
-0.0018621
0.00291723
0.00101291
0.00119839
0.000882623
-0.00236363
0.000282619
9.35003e-06
0.00225186
-0.00229364
3.24338e-05
-0.00300974
0.000969419
0.00243955
-0.000399224
0.00234615
0.00142448
-0.00237737
-0.00139326
4.66095e-05
-0.0021053
0.00101022
-0.000531785
0.00322694
-0.00172818
-0.000224065
-0.000267336
0.00221958
-0.00318986
5.0431e-05
0.00313942
0.00403945
0.00183824
-0.00133075
-0.00454694
-0.00276772
5.00408e-05
0.00276429
-0.00025317
-0.000642867
-0.00164189
0.00253793
-0.000326958
-0.000337349
-0.000868291
0.0015326
0.000714064
-0.00360703
0.00271816
0.000174808
0.00271058
-0.000366731
-0.00267025
0.000326398
-0.00273192
0.000570386
0.000216097
0.00194544
-0.0010071
0.000686548
-0.0014464
0.00176695
0.00057131
0.000402151
-0.0033971
0.00242364
9.99214e-05
-0.00244788
-0.000135164
0.00248312
0.00230139
0.000341071
-8.23804e-05
-0.00256008
-0.00274314
0.000623785
0.00245741
-0.00200069
-0.00263759
0.00463828
0.0039005
-0.00195613
0.000842455
-0.00278682
0.000321771
0.00214829
-0.00132023
-0.00314074
0.000716125
0.000950507
0.00147411
0.00389965
-0.00396378
6.41316e-05
-0.00240637
-0.000817502
0.00169364
0.00153023
-0.0034531
-0.00265044
0.00179523
0.00430832
0.00314071
-0.00325793
-0.000412863
0.000530083
-0.000478647
0.00152619
-0.00119603
0.000148486
-0.00391433
0.00127037
0.000908903
0.00173506
-0.00585669
0.00713318
0.0012827
-0.0025592
0.00262795
-0.00571051
-0.000158413
0.00324097
-0.0023818
0.0030205
-0.00548049
0.00484179
-0.00246112
0.00537056
0.000529553
-0.003439
0.000197008
0.00249208
-0.000607596
-0.00208149
0.00379249
-0.00285802
-7.11883e-05
-0.000863283
-0.000661785
-0.00062999
0.000971831
0.000319944
-0.001743
-0.00370145
0.00317633
0.00226812
-0.00255477
0.00339605
0.00295122
0.00219788
-0.00159832
-0.0020303
0.00143074
0.000772046
-0.0009988
-0.000435404
0.000662157
0.00169145
-0.00168843
-0.0022249
0.00222188
-0.000694978
0.00196478
-0.000136591
-0.00113321
-0.00266647
-0.000477592
0.00334107
-0.00206829
-0.000513835
0.00254638
3.57459e-05
0.000880691
-0.00196733
0.00108664
0.00069423
-0.000886426
0.0033347
-0.00314251
0.00283828
-0.00400479
0.000596931
0.000569579
0.00171863
-0.00187577
0.000157138
-0.00259619
4.14208e-05
0.00233084
-0.000916097
-0.00225292
0.000838182
0.000743513
0.000594215
0.00259743
-0.00393516
0.00166227
-0.0018286
0.00016632
-2.04018e-05
0.00204204
-0.00232178
0.000300138
-0.00285576
-0.000247932
0.00379792
-0.00124188
-0.000202941
0.000282871
0.00116195
0.000178026
-0.00140095
0.00105178
0.000171138
0.00234284
-0.00225654
-0.000564944
0.000284577
0.00402111
-0.00254375
-0.00176193
-0.0013859
0.00287671
-0.00149081
-0.00364287
0.00136765
-0.000798661
0.00307388
0.00284511
-0.00256476
-0.00419468
-0.0014456
-0.00169752
0.00591505
-0.00277193
-0.00408187
0.00254944
0.00376921
-0.00223677
-2.19556e-05
-0.00361981
0.00364176
0.00547925
-1.66072e-06
-0.00316897
-0.00230861
0.00316576
-0.00203632
-0.000345289
-0.000784155
-0.00231145
0.0016248
-0.00040957
0.00109622
1.02113e-05
-0.00266933
0.00265912
-0.0017315
0.00179272
-6.12266e-05
-0.00127796
-0.00129584
-0.00333183
0.00590562
-0.00319434
0.000684961
-0.000347854
0.00285723
0.000757738
0.00128816
0.00350471
-0.00316979
-0.00260845
0.00227353
-0.000872337
-0.00188195
0.00207213
0.000682158
-0.00188324
-0.00095401
0.00283609
1.16197e-06
0.000687692
-0.00038978
-0.00190566
0.00160775
0.00207441
0.000110853
-0.00265103
0.00046576
0.000629782
-0.000438607
0.000724866
-0.000875707
0.000859072
-0.000708231
0.00171056
0.00164239
-0.00169751
-0.00165544
0.00096657
0.00239176
-0.0024672
-0.00089113
0.00180618
0.000777166
-0.00142313
0.00221429
-0.00265185
0.000548412
-0.00305256
0.00212078
0.00117301
-0.000241226
0.00356903
-0.00118947
-0.00376545
-0.000932298
0.00250948
0.00126792
0.00242558
-0.00116529
-0.00211055
-0.000607491
-0.00033452
-0.00326654
0.00304691
0.000266886
-4.72634e-05
-0.000165621
0.00412757
-0.000416346
-0.00354561
-0.00268744
0.000558305
0.00119684
-0.00045211
-0.00272099
0.000783229
0.00238987
0.00244696
0.000328622
-1.25807e-05
-0.002763
-0.00389535
3.82043e-05
-2.95623e-05
0.0038867
-0.000973991
0.00105846
-0.00176002
0.00167555
-0.0025524
0.00317695
-0.000287202
-0.000337349
0.00332253
-0.00307535
-0.00279958
-0.00244559
0.00219727
-0.000696919
0.000945233
0.00198487
-8.78345e-05
-0.000626998
-0.00127004
-0.00380668
0.00367329
0.00179316
-0.00165977
0.00186033
0.000703405
-0.000239599
-0.00232414
0.000605696
0.00160305
-0.00200761
-0.000201138
-0.00118454
0.00120249
-1.79512e-05
-0.000694389
-0.00179033
0.00178974
0.00314771
-0.00312961
-1.81055e-05
-0.00152437
-0.00124933
0.00119702
-3.34324e-05
-0.00210541
-0.000326054
0.0024649
-0.000206592
-0.001656
0.00145075
0.000411845
0.00247037
-0.00281757
0.000347197
-0.00319782
0.00323864
0.00299147
-0.00303229
-0.00213203
0.00165069
-0.00111089
0.00159222
-0.000895407
0.000385099
0.000807006
-0.000296698
-6.5825e-05
0.0038474
-5.64163e-05
-0.00372515
-0.00203761
0.00098718
0.00100657
0.00117652
0.00148641
-0.00259438
-6.85495e-05
0.000129389
-0.00329422
-0.000146488
-0.00271089
0.00272976
-1.88662e-05
-0.00218598
0.00111766
-0.00238478
0.000626531
-0.00143208
0.000101479
0.00127786
0.000557629
0.00185874
3.67714e-05
-0.00158762
-0.000307891
0.00157501
-0.00389461
0.00311869
-0.000799093
0.000628388
-0.000855554
0.00313669
-0.00290953
0.00398362
0.0011644
-0.000609697
-0.00453832
-0.00102886
-0.00167469
-0.000542618
0.00324617
0.00119369
0.00493407
-0.00441173
-0.00171603
0.000566372
0.00377331
-0.00364278
-0.000696895