/*--------------------------------*- C++ -*----------------------------------*\
  =========                 |
  \\      /  F ield         | OpenFOAM: The Open Source CFD Toolbox
   \\    /   O peration     | Website:  https://openfoam.org
    \\  /    A nd           | Version:  10
     \\/     M anipulation  |
\*---------------------------------------------------------------------------*/
FoamFile
{
    format      ascii;
    class       volScalarField;
    location    "7.5";
    object      p;
}
// * * * * * * * * * * * * * * * * * * * * * * * * * * * * * * * * * * * * * //

dimensions      [0 2 -2 0 0 0 0];

internalField   nonuniform List<scalar> 
111485
(
8.11299
0.64098
0.742971
8.0919
0.762046
7.92942
0.649174
0.572262
0.654041
0.944082
0.641958
0.822062
0.658029
0.623978
0.659069
0.685232
0.225932
8.78869
0.655624
8.08357
8.07864
7.95286
0.65679
0.671329
0.756713
8.02083
0.917984
0.392168
0.740812
8.12705
1.18651
0.161235
8.09859
8.01208
8.63246
8.02503
1.19343
0.0763615
1.39697
0.682691
8.07608
0.942415
0.682967
1.0723
1.17367
8.18539
1.01737
0.667747
0.936451
8.07294
8.07152
7.65747
8.07808
1.08075
8.08191
0.422396
0.660787
8.06546
0.965726
0.679427
0.681682
8.11259
0.532554
1.16443
7.90953
0.473287
5.70453
0.603566
0.527433
0.573465
1.21632
0.489755
7.88992
0.524346
8.15749
0.291309
7.96731
0.904402
7.95191
8.23779
1.18353
1.03939
7.98285
8.14636
0.532178
0.695221
2.97263
1.08332
1.21374
0.213599
1.22197
0.700503
0.533896
0.109518
0.944217
8.14485
8.11453
1.09308
0.784916
1.22167
8.10549
0.916022
8.03111
0.887627
0.616085
8.1181
8.02819
0.182582
0.712015
1.10942
0.141478
0.491688
0.702255
0.850853
8.0184
0.276549
8.0389
8.06013
0.526106
8.08548
8.0198
7.06713
7.985
8.06625
0.983724
8.91829
7.03866
0.214058
8.16132
1.77448
1.16143
1.09057
8.15598
6.93906
7.18316
0.638504
7.97222
0.293829
0.575482
0.599927
0.926887
0.588164
0.595145
0.734038
0.988129
0.0491588
7.97127
8.14061
8.04822
0.620229
0.733386
8.07738
1.19562
0.0100739
0.884462
0.619239
0.611671
0.648436
1.00057
8.17589
8.09238
0.615866
0.730366
1.03509
0.939683
0.253064
1.14764
8.08453
1.06846
1.09575
8.0446
8.13672
0.790307
8.00405
0.0653094
0.0177468
7.93605
7.87202
8.0366
8.04239
7.84895
8.09069
0.625871
0.627615
0.619878
0.0633879
0.906534
0.348363
1.20066
8.10334
0.29387
7.87002
8.10783
0.354691
0.935632
1.15383
0.455826
0.04981
8.15803
0.626785
0.724944
5.90826
1.04423
0.205332
8.15996
0.353581
0.864392
7.86702
1.1429
1.01179
0.726201
0.336686
7.84134
8.11952
0.3498
5.64178
1.09171
8.00094
0.352313
0.309548
0.958495
8.17503
0.377148
1.12156
6.50336
8.00317
8.04645
1.23906
0.944401
7.96392
7.51756
0.311043
0.0908653
0.39777
7.96075
7.96317
1.16558
8.16002
0.614511
0.302882
0.305544
0.296577
0.302698
8.05008
1.1958
0.240616
8.05853
7.98129
1.08471
0.492045
8.00958
0.156774
0.23156
8.1392
6.81396
1.02932
8.04967
8.13316
7.42936
8.06213
0.266058
0.292773
0.0167313
8.17993
0.235155
8.09471
8.10969
8.16533
1.17222
0.903755
0.515105
0.510902
0.846989
0.509973
0.517736
1.21844
0.0832083
0.0921967
7.86089
8.13702
1.22737
0.187248
0.883625
0.110938
8.08817
0.520806
0.62345
0.507467
0.877469
1.20134
0.499056
0.511697
1.03973
8.06416
0.890857
8.00472
8.78404
8.18935
1.23247
0.847978
0.669459
8.04888
8.11175
0.406017
0.143066
8.07489
8.1208
8.0878
0.290463
0.101422
0.615273
0.642911
0.68674
7.54422
8.03418
8.15046
0.406694
4.10004
0.659846
1.21127
1.14929
7.98202
8.11032
8.11368
7.17669
0.436188
0.759274
8.05712
0.432979
8.00269
8.03229
1.11817
0.43497
0.842566
0.428847
8.17397
7.14835
8.04508
0.432541
0.0354003
1.19397
7.93225
1.89544
1.14651
0.770953
0.391082
2.53106
0.691488
7.96284
0.68821
0.443409
1.20802
1.10887
0.772031
8.02051
8.15152
8.03608
8.0954
0.610052
0.375755
0.833507
0.695921
8.0266
0.8094
8.03284
8.1198
0.692857
8.24117
7.24209
8.20896
8.02567
0.62273
8.0658
0.032078
0.802532
7.95226
0.554119
0.455488
8.06838
0.445877
0.813068
0.454998
1.15105
0.066053
0.0990533
8.18331
8.14054
1.07607
8.07114
0.83402
1.12157
7.92759
8.05461
0.424897
0.831973
0.0694577
0.80931
7.96868
1.18186
0.816879
7.9204
1.06932
0.817335
8.11879
8.08746
0.0348122
0.757459
8.04065
8.04329
6.3048
8.10418
0.777954
8.0015
8.10114
0.818377
1.17204
0.997933
0.767339
7.93307
7.19038
1.08794
7.27698
1.06837
1.09952
0.937289
5.85276
7.33865
-0.266181
1.131
8.12487
1.10325
0.801003
8.17435
1.04142
0.954892
7.30727
0.845451
0.817011
0.069725
7.94122
0.253939
0.863023
0.0758391
1.24034
7.02158
0.883794
8.15144
1.21072
-0.103649
8.04321
0.840116
1.0369
6.86821
8.1778
7.66741
8.07739
0.76851
0.0996037
0.838634
0.847056
1.13923
8.00437
0.815324
8.12346
0.772711
7.90593
8.12119
8.14839
0.840579
8.14399
8.11919
8.45903
8.11343
8.05689
1.03478
8.06565
7.69529
8.03025
8.1109
7.92415
8.15713
7.95803
0.84475
8.03005
1.0406
0.866853
1.33517
7.92023
1.0426
8.03725
8.11144
0.833774
0.822214
0.877452
1.20448
7.62439
0.952058
0.947924
0.0712564
0.0883551
0.863516
8.13548
0.0514517
6.87714
0.995922
8.00913
0.975599
7.06549
0.126272
0.839954
8.35467
8.08485
0.0782745
8.07052
0.957227
0.949061
8.05863
8.04531
8.12376
8.03873
0.577387
0.955069
7.89245
8.06518
0.763306
7.95346
0.946991
7.96326
1.00768
8.1133
0.953304
0.972858
0.461734
0.120802
7.88832
-0.0876721
7.90691
8.01093
0.888026
8.01165
0.950664
8.13035
0.989717
8.13057
0.906377
8.07633
7.31732
1.31018
0.868261
0.950876
0.900402
0.93675
0.818532
8.04578
0.944918
0.879341
7.99551
1.2728
1.16438
0.961707
7.94759
8.17712
0.773737
0.964551
4.54658
7.87464
0.893421
0.76451
0.910096
0.911706
0.225046
3.5709
7.23771
0.800187
4.06325
8.09546
0.968312
8.07219
7.34519
0.221022
3.53128
0.792516
2.60177
7.23864
0.907507
0.764208
7.9231
7.70838
0.766688
8.05988
7.95064
7.95934
7.91423
0.917094
8.03154
8.12703
0.92904
0.309429
6.43449
0.725807
7.61031
0.303116
8.0766
8.04809
0.917394
8.00766
7.92203
7.31734
0.0562114
5.37873
0.925592
0.205706
8.0625
1.2117
0.900451
0.783151
1.18088
1.64486
0.761835
8.01506
0.936886
0.782598
8.16647
0.458095
1.0488
0.805693
0.0495508
0.808144
0.805669
8.16213
0.964495
1.14293
7.29571
0.808349
0.97991
5.54416
0.202921
0.806589
0.976965
0.846376
0.860984
0.193831
8.00332
0.85561
0.953631
8.30577
0.900162
0.898256
0.230296
8.01404
0.0595641
8.18241
7.97568
8.03114
7.9129
0.786502
7.39421
0.521791
8.11494
7.88483
0.904478
0.906313
8.06892
0.959704
8.11063
8.16154
8.08075
0.989411
0.970333
7.34061
8.13246
8.00891
8.01739
1.16789
0.223228
7.1885
0.888056
1.06962
8.05507
0.89338
1.0179
0.174855
7.94401
8.00096
0.477495
0.232139
7.28573
8.04275
7.88223
0.352126
8.14077
8.04913
7.9988
0.882769
0.711264
7.95424
8.53723
8.30596
0.231445
8.0622
7.92461
0.977086
1.16714
7.27102
6.44158
2.38862
1.00904
0.00534493
7.85675
0.735358
1.0445
8.06372
8.075
7.97392
8.00445
8.03631
7.95911
0.89819
8.11087
7.97362
7.94337
0.893728
0.238523
8.04198
8.08609
1.00531
0.22472
0.23834
8.05484
7.97644
0.227897
8.14271
0.882599
0.222916
0.236795
8.02313
8.10472
8.10445
8.02103
0.780692
7.98189
7.96449
1.09088
8.10239
0.379495
1.04828
7.90433
0.232176
8.00954
0.373197
0.922794
0.939576
0.99975
0.392017
7.54358
0.368917
1.00925
0.00618064
8.01338
-0.302309
7.41191
0.076691
8.02651
1.03322
1.022
1.02879
8.18044
8.10787
8.17877
0.225311
7.61077
0.122088
7.73373
0.697498
0.0779021
0.15503
0.23449
7.95929
7.92328
7.89965
0.232024
7.91995
7.5449
1.24385
8.05995
8.06415
8.10449
7.97568
0.156932
7.86791
8.00068
0.155091
7.59432
8.0777
7.32167
7.99491
1.02385
0.157293
8.07851
0.77137
2.32029
1.02843
1.11326
0.199246
8.04067
0.926027
1.18446
1.03107
8.1483
-0.688038
0.15784
6.90693
0.126543
1.21357
1.27028
0.557526
0.120384
1.21535
0.0551475
0.150043
8.00486
7.91802
0.107652
0.0989446
8.0518
0.110898
0.834538
0.144825
7.89633
1.24518
8.02365
0.148629
0.137528
7.9386
0.0120472
0.147426
1.21919
0.0162351
7.85788
0.608921
1.22698
1.34962
1.21178
1.11369
8.00706
8.03155
1.10164
7.97354
0.873797
1.09857
7.07564
1.01046
0.712319
1.15309
7.9756
6.83479
0.324032
8.16067
9.34506
1.10304
7.90859
7.93032
0.798751
0.670868
7.97458
1.25281
8.00364
8.00721
8.16473
8.11303
8.10034
8.14031
1.1324
7.90846
8.04498
8.05816
0.19561
1.15331
0.705564
0.318616
7.95455
7.91768
1.1561
7.99188
7.93279
6.35014
1.12526
0.416116
7.94662
7.92382
7.92095
7.92463
7.99477
7.91852
1.1285
7.92168
1.18654
0.69116
8.01611
8.11698
8.08253
1.24995
8.0767
8.09333
8.03118
1.18667
8.02672
1.13093
1.17877
1.19104
7.95395
5.83924
1.15618
0.66472
7.84645
1.19242
0.973526
8.05968
7.86267
7.18139
7.92395
0.321859
0.60235
1.16213
1.09078
7.94144
0.321815
7.83296
7.20969
7.14563
8.04636
0.553015
7.99647
8.08982
1.20327
0.419362
8.08779
0.958509
7.62744
1.14952
8.1749
8.00972
8.01144
8.10056
0.160768
0.60092
1.7237
7.94613
7.93261
0.153337
7.97483
7.41734
8.11497
0.875497
1.08728
0.788627
8.0441
1.21479
1.21718
8.3856
1.22127
7.91652
1.06961
0.970522
0.581077
1.19661
1.12667
7.98311
8.00526
8.00562
1.21078
8.12203
1.19704
8.17006
2.03729
8.04744
0.676932
0.696682
8.09229
7.96689
8.10435
8.06314
1.19388
8.10983
7.18817
0.145117
1.19952
8.11337
7.38788
7.92954
7.40529
7.91195
7.98599
1.20817
0.995738
8.09108
8.03259
0.875187
8.12021
1.20839
0.164486
7.95588
1.09339
8.1027
0.102116
7.90909
0.741724
7.93604
0.947019
1.11268
1.20585
1.09299
1.09008
5.39989
7.82642
1.10606
8.07398
0.546303
8.06195
8.05409
7.7958
8.03918
8.06577
8.05049
1.08224
1.07369
8.10333
6.97393
8.05724
1.10071
1.2462
8.11981
0.557442
1.22006
8.08332
0.20875
0.150903
0.525238
1.21046
7.97395
7.99441
8.03937
7.96189
0.556307
7.977
1.12077
7.98769
1.12442
0.747072
8.0291
1.10922
8.03956
7.97088
1.12412
1.15677
3.21871
7.9881
8.09802
7.91868
0.573
7.77904
8.20884
7.81174
2.19916
7.12264
0.983298
7.38184
7.78082
7.93616
0.175673
0.145929
0.834622
0.627033
8.15474
1.12613
8.01105
8.0513
0.153812
7.88669
0.901732
1.12191
0.118104
1.13521
0.593578
0.813937
8.04111
0.197837
-1.01088
0.990273
1.1592
0.428591
6.09849
8.10805
0.789839
8.05869
7.92785
1.21792
0.932108
0.547041
7.99823
7.87199
1.19491
8.08264
7.90711
1.13445
8.09613
8.08913
0.570475
1.13883
1.13457
0.515996
0.263868
7.91952
7.98184
1.17268
0.495509
7.95899
8.092
0.86542
7.91901
6.93766
7.15472
7.1866
5.14619
6.97341
7.96052
0.81452
7.91395
1.14152
7.93729
4.3718
7.94312
7.92021
8.04299
7.97341
0.763839
7.97496
7.97318
7.28767
7.92662
8.04074
8.00571
0.470084
7.99082
0.426324
1.14456
7.9212
0.842857
7.9498
0.997628
1.18588
0.120968
0.129712
8.01953
0.135998
0.762289
1.19814
8.16177
1.15055
0.375245
0.0730487
7.63985
0.0820382
7.95035
8.03962
7.93416
7.95533
0.0839205
8.00345
7.92587
0.0693259
1.12846
0.0600965
8.05911
6.03693
0.833268
8.02711
1.12652
8.0804
0.127551
7.89774
7.90853
0.800609
7.93377
1.21597
8.11861
7.9367
0.374227
1.01619
0.277044
0.59027
1.25061
0.469663
7.93884
8.20601
0.699562
0.294145
0.469548
1.15811
7.97438
0.42997
7.96798
7.99593
0.702176
1.18644
7.92187
0.293277
8.03034
0.275962
0.263557
7.88239
7.95647
8.021
0.700187
8.0016
8.00206
0.706342
0.271624
1.14982
0.0790183
7.95557
8.0424
0.887097
0.718049
7.94425
0.702727
7.96248
0.69634
7.95099
7.94274
0.685767
7.97625
0.974467
0.656763
7.9204
7.9568
0.63948
6.89568
0.795831
8.11108
1.15132
8.12353
6.99592
6.80815
0.661636
7.32543
7.25597
0.5995
7.22688
4.97642
6.7925
7.93801
8.05905
1.17835
0.791298
8.03198
8.00986
0.764536
0.777081
7.92257
0.706944
7.96041
8.06183
0.891319
0.840661
0.118912
7.94811
8.0132
8.00396
7.97337
7.908
7.91175
8.00914
7.91692
7.92368
7.95642
8.00474
8.06029
7.98827
7.94517
7.92659
8.01673
7.94345
7.957
7.97989
8.01591
8.11197
0.794533
7.99557
7.94512
8.05657
0.551305
8.06878
8.06138
3.90141
7.8823
7.80194
0.550612
8.37678
7.83844
4.34194
0.550258
7.9871
7.07579
7.49477
7.92937
1.06997
0.552661
0.553359
0.527892
0.346792
8.0751
7.92847
0.413738
0.438422
0.52366
7.96527
0.496647
1.04484
0.536007
0.0988398
0.111982
0.528292
0.186088
0.528026
8.17274
0.602706
0.493859
0.741667
0.490152
8.02117
8.00738
8.03627
8.10316
8.01775
0.43646
0.50168
8.02048
7.92539
7.91842
8.04129
7.93514
8.0644
7.90037
8.0606
0.496345
1.17105
0.499348
0.825115
7.88392
7.88327
1.05515
1.17422
7.95492
7.97351
0.775233
8.17832
7.99732
0.521547
0.478293
0.489059
0.782108
1.04945
8.0788
0.0178009
0.589692
7.19
8.06004
0.575562
8.07126
7.91473
3.43713
2.49306
0.802599
8.00101
8.14761
1.18819
0.597937
0.0333571
0.438484
4.26928
8.10497
1.12766
8.31045
8.16918
7.83503
0.767545
7.93328
0.436033
0.0254121
0.568036
0.588323
8.14064
0.383578
8.14885
7.74824
8.13936
8.04098
0.151324
5.19187
7.97574
8.08858
8.41546
0.439466
7.15358
0.386761
0.43422
0.14556
0.436661
8.0449
8.02115
7.04465
0.759555
0.340497
0.63058
8.07546
8.11181
7.11891
1.07179
0.788318
7.97364
0.291485
3.52007
0.592881
0.332687
8.0967
6.96602
0.329035
0.436109
8.00995
0.947864
0.917794
0.806448
0.366512
0.345455
0.366616
7.19282
0.145889
0.358044
0.307957
8.14391
0.570668
7.26608
0.747595
0.36932
8.17852
0.102544
0.348967
0.382732
0.460128
8.78493
3.1884
1.16385
5.01169
0.351563
7.81724
0.1203
0.351895
8.04709
7.98079
1.10773
1.23358
0.505977
8.74611
0.829371
1.19873
0.484877
1.16933
8.0387
8.18301
0.433294
8.40964
0.392031
1.17278
0.354481
0.126326
8.08102
0.999787
0.430229
8.05338
7.25801
0.287623
8.14797
0.284202
0.268187
8.11516
8.77696
0.599592
8.06644
7.94528
8.06666
0.126327
1.43316
0.764303
8.21089
0.741553
0.201508
7.92734
0.200111
0.216846
0.13196
1.22932
7.96088
0.385607
0.117568
0.220704
0.202794
0.13536
1.18417
0.692199
8.11066
-0.019622
0.142894
8.09646
0.216884
8.05438
7.99935
8.15368
8.06816
8.08735
1.0867
8.03497
0.198974
0.869456
8.16657
0.860421
8.03636
0.144103
8.0576
1.16647
7.83206
0.714198
1.13271
1.21148
0.226873
0.143757
0.738444
0.133751
0.227435
3.70517
0.223036
0.470766
0.232748
8.16472
0.439948
1.24481
0.226716
0.6668
1.20884
8.16136
7.15803
8.04622
0.751251
8.08373
6.57997
0.145092
8.44435
0.921567
8.04653
8.13087
7.97461
0.473993
0.806343
0.234074
1.12265
0.124864
0.407928
0.398182
0.47869
0.159007
0.395117
0.403622
8.09361
7.99442
8.17173
0.5988
0.434284
7.92059
7.97413
6.68052
0.409769
0.165799
8.07653
0.404996
8.11864
1.06764
0.756507
1.14898
8.09611
8.11353
0.472219
8.10247
0.981855
0.221696
7.73739
0.537208
0.662849
0.101126
8.04433
1.15403
7.33618
0.926954
0.762467
8.09972
8.16501
0.210958
6.1184
8.16594
0.274677
0.120486
8.10985
8.03241
7.29189
0.389085
6.67488
0.601588
1.05736
0.930491
8.1129
7.29952
1.04149
8.11391
8.00989
8.13336
8.08521
7.3912
7.88834
7.75945
8.05316
8.03011
7.61488
8.44493
7.81739
0.989174
7.82337
7.06931
6.75325
8.87737
7.18025
8.11377
1.06095
7.60908
7.87366
1.08912
8.2868
8.59484
8.00376
1.05968
8.42199
1.064
1.13673
0.936872
7.49786
8.07805
1.06918
1.04607
8.00134
8.1585
0.599853
7.42825
0.596623
7.36387
7.99818
7.93703
0.593713
0.590848
8.12533
0.846867
8.10794
7.59748
1.15026
0.333015
1.06389
8.05165
0.598906
7.46808
0.89234
7.96085
8.04707
7.94397
7.26708
0.326786
0.386729
8.14578
0.757406
8.05885
8.06955
8.05766
8.08648
1.00383
0.994807
0.394686
1.39068
8.14352
0.752033
0.601034
0.310006
0.998618
8.09123
0.312227
1.01758
0.525812
1.07126
0.568668
8.08154
0.694457
1.01933
0.60569
1.02553
1.05649
8.06536
1.07146
7.94659
8.11924
0.497143
8.14962
0.760622
8.129
8.08947
7.82369
8.05208
8.15463
1.00492
8.04579
0.849555
7.51996
8.02138
0.739524
0.99836
0.413755
0.823483
8.16533
2.00631
8.14614
0.899583
8.09023
0.733938
0.99447
1.0222
0.918871
8.11138
8.11736
8.03413
0.337871
8.03049
8.04933
0.334454
7.89187
7.93357
1.0323
8.11059
0.573619
1.05495
7.48192
7.69346
7.64028
0.381288
0.638168
8.084
0.0185555
0.880172
7.34996
1.0385
8.13492
0.338033
0.743531
0.302123
8.0792
0.782779
0.41881
1.06752
1.00827
0.861704
8.10022
8.10721
1.24242
8.05674
7.95879
8.12193
0.336619
1.04286
0.443361
0.631593
7.24195
0.770991
0.601615
0.640586
0.713958
0.787285
0.956172
0.85831
7.97334
7.97107
7.97179
0.871948
8.01998
0.871322
5.8861
0.852274
0.933594
0.334173
0.169399
7.9352
8.12674
0.85463
0.850793
8.1281
7.97873
8.17204
0.367063
0.853604
0.878148
0.88543
0.10722
0.600425
8.06093
8.14882
8.11107
0.101918
0.571264
0.0105578
0.657561
0.389018
0.892786
8.00077
8.11078
6.79373
7.93221
0.113487
0.778297
8.101
8.06759
8.08352
8.16555
8.14254
7.87713
0.914712
8.07521
1.08862
1.31066
7.92835
0.89877
0.04614
0.356538
8.1736
7.92514
0.910624
8.10174
0.913915
0.454524
0.387531
7.83939
6.38417
7.96369
8.07635
8.05896
7.78556
3.18521
8.05405
0.930692
0.448493
8.11427
8.10941
0.933941
8.06352
8.00034
0.52697
1.16621
8.04315
8.04113
7.85904
0.218227
8.10336
8.1055
2.39445
0.925457
0.934754
8.07993
7.92677
7.44522
0.933358
0.927318
0.932235
0.671855
7.94968
0.197647
0.0411961
0.047897
8.00643
8.15047
8.11142
8.1216
8.10358
0.533033
0.53988
0.437338
8.17984
8.13358
8.10156
8.12417
7.93393
1.11656
0.149691
0.0296446
7.91298
8.09777
8.21104
0.607677
1.0394
1.1808
8.00528
-0.245964
8.32851
8.01272
8.10562
0.529485
0.589621
8.05657
8.06067
0.706336
8.10828
0.387751
0.490836
3.71122
8.05179
7.93836
0.393568
1.10873
8.04448
3.54759
0.0936704
0.777913
8.07543
8.06103
8.17031
8.1179
0.121381
0.281153
8.06204
1.1184
0.986326
1.58869
8.08448
8.0603
8.05683
8.0623
0.782994
8.4374
8.08691
7.94182
0.193348
0.865374
0.23754
8.00308
8.15518
0.983862
7.80519
8.10824
8.06426
8.0752
0.560331
7.86902
7.92309
7.93805
0.233824
0.584227
8.05745
8.14245
8.03089
0.672599
8.24196
8.0423
8.03362
8.14687
8.13612
1.22438
0.779702
8.21214
0.621615
0.775799
0.543632
8.17351
8.16176
8.09745
8.13005
7.93239
0.74653
8.08503
7.59347
7.63316
0.983435
7.81811
0.973738
8.10433
8.02039
1.18113
1.66411
7.38779
0.995678
8.0843
0.990198
8.28749
8.05866
8.09936
9.04346
8.05826
1.11041
8.05267
0.649642
8.0299
7.29736
8.14178
8.05666
0.21395
0.939897
7.96931
3.64772
8.06034
0.957625
1.1062
0.919509
8.06736
1.08981
0.895123
1.10766
0.791728
0.914993
0.90302
7.85652
7.94125
0.824521
0.337921
0.914648
8.06683
7.78709
6.82773
4.16118
8.17173
7.91856
8.14451
8.16399
8.17797
8.37119
0.916895
1.15164
0.44157
7.24154
1.20205
8.14432
0.740691
8.11218
8.1788
7.994
7.86967
1.12612
7.86885
8.05928
8.08285
0.640059
8.08695
8.12621
1.14655
8.05002
6.24203
5.56019
5.28196
8.16638
5.46396
5.3248
5.42425
6.00376
7.94506
7.94529
0.630932
0.941041
7.31883
7.39427
7.95209
0.633826
8.28086
7.96315
1.11812
8.06602
8.10046
0.988174
1.14913
8.14405
7.92387
1.26141
7.29765
7.8938
1.08896
0.68558
0.6944
7.9722
0.686767
8.15451
0.427304
1.05636
0.678364
8.08818
1.06043
0.684066
8.09386
0.52866
8.03678
0.641532
7.72055
0.651865
7.96916
1.10077
8.04833
7.85585
8.02818
0.156158
0.161592
8.16471
0.690341
1.14675
8.2163
8.08636
0.51302
0.0366604
1.28008
8.17229
0.717269
0.706215
1.15701
0.690785
8.1772
1.24355
7.94422
1.20934
8.11253
-0.0438302
-0.27552
8.02786
0.451881
7.94167
1.14532
7.96984
8.03089
8.0639
8.1289
8.04142
8.09924
0.945095
0.543278
1.20071
8.0581
6.71461
1.20766
8.0614
8.13998
8.06406
8.16146
8.07156
0.0366543
8.08804
8.151
7.93982
0.0304506
8.03728
7.9787
7.73453
0.125203
7.99317
0.105484
0.754649
0.888916
0.124917
0.0922056
8.30695
8.05907
8.09168
0.154836
0.241118
7.82883
6.68411
0.119101
8.12394
8.15582
1.21397
8.03497
0.705338
8.0537
0.100254
1.13502
8.06045
7.94303
8.054
8.14601
8.12104
1.16417
8.05371
0.122324
8.09196
8.07884
0.264429
8.02573
0.74069
7.93733
8.12552
0.952238
0.459738
1.23487
8.14492
8.14742
8.09497
0.457174
1.21112
8.0942
7.97782
7.82191
0.277013
8.04814
0.751412
1.22228
8.0748
8.05914
0.281509
8.10602
7.81895
7.99318
8.08724
8.01056
1.20536
6.60682
7.92119
8.1369
6.74572
8.0606
6.93254
8.01625
8.04379
7.97022
0.450547
8.01904
0.279216
8.00123
8.05396
1.34921
0.273009
8.04488
8.0475
8.06115
0.280383
7.10997
8.08641
7.90618
8.05683
0.308143
8.04592
1.20164
8.17248
0.887886
7.28486
1.05591
8.05008
8.11942
0.854867
6.97247
8.05755
0.238258
0.87239
8.17775
8.14491
0.945487
1.0578
0.286254
0.276375
0.27036
0.956371
0.285192
1.08781
8.09086
1.1915
6.72708
6.63326
8.0814
8.02764
8.11667
0.28714
8.16701
8.17104
8.16292
1.16506
1.07859
6.4675
0.979758
8.15211
1.0164
7.89153
1.16621
0.329951
6.78725
0.880126
8.028
8.01922
7.97105
0.330013
0.892747
8.09396
8.00261
0.319542
8.14423
1.25985
8.14845
1.22422
8.10726
7.97088
8.14129
7.96829
0.254449
7.96819
1.6656
8.03006
0.920386
8.08096
8.06221
5.10552
4.83732
8.0751
8.06629
8.11138
8.15214
0.876162
1.24735
5.8551
8.14182
0.896416
7.95225
8.02639
1.04154
0.6903
1.19994
7.97344
0.179495
0.940826
0.481095
0.730062
8.11494
8.17718
8.18083
8.14942
7.97595
7.96857
7.96898
8.00653
7.97348
7.96898
8.10313
7.96626
1.20667
7.97068
8.05959
8.68953
8.14841
8.08225
3.71819
7.95029
8.06887
0.719612
1.25675
8.01974
8.15421
8.10156
0.642893
8.08417
8.10104
1.23767
7.99908
8.05489
8.11978
8.13828
1.17204
7.98807
1.24181
8.14034
8.11093
8.07058
8.08283
8.06192
1.24238
1.22782
0.364987
8.15028
7.90357
8.18512
1.24011
8.05263
1.23058
1.27022
7.9944
8.05474
6.46257
1.04465
8.02769
7.36731
1.05367
6.53355
0.974532
8.04871
1.10584
6.5037
6.10565
8.10384
0.864297
8.00217
0.864658
1.15716
8.05069
0.878319
1.12572
8.10712
1.15743
7.9345
8.03413
8.05165
8.02776
8.01576
7.96097
8.05234
8.16408
1.21677
7.4431
8.08914
8.11971
8.04528
8.04167
0.645369
4.82443
1.24811
1.18497
8.05419
0.835355
0.829872
8.09497
7.3523
8.01802
8.02327
8.05433
8.10196
6.87594
7.4844
1.01781
8.07702
8.17091
6.51944
6.96467
7.97878
0.857128
8.02852
7.92349
8.14579
1.19829
8.1647
7.95187
0.95998
7.99112
8.02849
7.99215
8.21332
0.96659
8.08001
8.07337
8.06425
8.05838
1.01995
1.2139
1.22047
0.863293
1.07486
1.07292
8.00365
6.97145
1.25394
1.04911
6.96414
1.25601
8.13533
0.498322
7.92383
1.19899
8.0919
7.92316
1.08056
0.227233
8.04821
1.04722
8.08902
8.11763
1.19372
1.16597
8.14826
7.96163
8.07266
7.97382
8.06055
7.15033
8.15037
8.11367
1.04147
8.15199
8.10261
8.08152
1.08867
8.06384
7.18568
7.98518
7.96616
7.61078
7.28115
1.08765
7.91536
7.29402
0.651333
8.13941
1.03842
1.04158
8.06377
0.666249
8.10794
7.74596
8.18175
7.18007
8.03379
8.15134
8.17159
8.17281
0.672216
8.1571
8.12791
8.15427
7.97306
8.08703
8.01235
1.20521
8.1044
8.14325
1.15573
8.09503
7.97902
8.0645
0.677591
8.07586
1.13519
7.10446
1.0833
0.0920662
7.97057
6.9685
0.648052
6.74212
7.97137
1.20201
1.06802
0.000393245
1.11692
1.18816
0.426776
8.05978
7.90889
0.816175
1.21973
1.19319
0.788929
1.09621
8.0231
0.158181
0.801976
0.806525
8.06808
0.805284
0.13802
0.476922
0.763932
1.20079
0.842724
0.204448
0.742819
0.0270384
0.358322
0.77073
7.1976
0.0979782
0.0112688
0.86374
0.994747
0.0602871
0.770986
0.0411616
7.33253
1.23357
7.28824
0.4322
0.815468
0.989568
0.611828
7.28015
7.9746
0.7543
0.622233
1.20418
1.21652
0.225512
0.80778
5.46713
0.816447
8.10438
1.41339
1.22127
1.11983
0.484299
1.20807
1.2011
0.928364
0.57728
0.564036
0.443466
0.812327
0.14205
6.59518
5.91426
0.816694
8.06269
8.10335
0.773382
0.79793
0.0816073
8.06834
1.11725
1.16596
0.572013
6.10056
8.10383
1.15577
0.0247331
1.21983
8.17756
0.222424
8.12221
0.608773
0.915902
1.08602
1.09754
8.06418
8.10966
1.19561
0.793528
0.807646
8.10421
0.636097
0.791406
0.988703
7.99926
0.58518
0.0668773
7.27456
0.478899
0.225597
1.16743
7.87511
1.1479
1.31436
8.10773
0.973982
0.102828
2.64332
0.979132
0.997291
0.197125
0.885482
0.974181
0.0806907
1.13765
1.17802
0.931385
0.179708
0.822293
1.21279
0.622548
0.981009
0.377627
0.777422
1.22392
0.211051
8.11437
0.989261
0.979149
1.20011
0.266195
1.12004
7.92476
0.984436
0.476449
8.11407
1.11696
0.0194601
0.989512
0.954077
0.131815
-0.0172192
0.864106
0.944251
1.14189
8.11666
8.10151
1.15159
8.0503
1.15566
1.15674
7.87895
0.135095
0.999126
0.599617
8.15409
0.48088
0.534954
1.12304
1.20083
0.529877
0.24025
0.646243
1.06607
8.10324
8.03222
1.20815
1.04633
1.1259
0.684997
8.03193
1.04852
0.933894
7.87762
0.631862
0.822366
-0.00868573
1.21426
1.08425
0.897635
0.22237
0.704848
8.05607
0.99302
0.509545
0.940242
1.22367
8.03372
1.0998
8.14127
8.09369
0.542667
0.911751
0.584659
1.52972
1.12366
2.64267
7.9843
0.901392
0.946959
0.655336
0.596591
8.05848
8.06747
8.0559
0.599288
0.602098
1.20371
0.475059
7.80856
8.03914
0.590015
0.665973
1.10704
0.60196
0.594941
0.7281
1.06068
5.05897
7.94491
0.900737
0.0821328
8.03764
0.837191
0.719474
1.34814
0.907323
0.71209
1.1516
8.0383
0.622291
0.73651
8.04437
7.8246
0.0674933
0.123927
0.258204
0.118702
0.718244
0.72047
0.201276
0.478306
0.6706
0.114333
8.03121
8.02152
0.0105826
0.138362
0.708514
1.28153
0.69853
0.663951
0.931848
0.591348
0.692889
7.96185
8.05006
1.26194
8.02705
7.15459
0.748582
0.48242
0.72127
1.24852
7.48367
1.09354
1.29938
7.59932
1.28574
1.20168
0.694024
0.700412
0.0622141
0.806774
1.19017
0.133989
8.09705
7.55191
1.18141
0.240718
0.577351
0.247347
1.0891
1.03446
1.20188
7.57468
0.7431
0.205268
0.638445
1.26753
1.08603
1.18155
1.20369
0.728229
0.184596
7.48292
1.01927
0.716223
3.78476
7.17438
6.71164
0.656919
7.04386
0.0459623
0.640816
0.596325
0.807638
1.1372
5.6596
3.98433
8.22912
7.05249
1.14995
7.97041
7.97043
0.390566
8.09775
0.479972
0.623277
0.569224
0.445239
0.470795
0.812784
6.71508
0.236551
0.115191
1.02877
0.776247
0.452393
0.729242
7.97821
1.20644
0.442021
0.874538
7.97178
0.965463
0.749285
7.9699
8.04964
1.10309
0.433355
8.15835
0.858909
0.7744
1.10423
8.13865
7.96798
0.0844383
1.19023
0.815606
7.97383
8.02232
7.96994
0.924052
3.56915
3.35907
0.285105
1.0711
8.17655
0.308594
1.08764
0.662693
0.0963113
0.0794112
0.327673
1.02906
0.0989289
8.10465
0.327735
0.198722
0.0395376
0.538177
0.137382
0.142319
0.140538
0.150182
0.0537745
1.15691
1.11086
0.724509
1.1205
1.20766
1.04471
0.138764
1.11952
0.150582
0.0468628
0.396378
0.26262
1.12673
0.25614
1.12635
0.285096
7.74589
0.736649
4.63038
0.550303
0.804605
8.04565
0.980898
7.74749
0.842589
7.77244
8.04581
0.598866
1.00166
7.21496
0.23845
0.606032
1.00157
8.04031
8.14604
1.19734
0.325419
1.20778
0.546444
0.202867
0.974747
1.21953
0.938931
0.985264
6.85208
0.729714
7.982
8.04234
0.426271
0.314918
1.25535
0.414058
0.282283
0.993258
1.01606
7.95038
1.19747
0.263228
0.972806
7.95855
8.16585
0.731257
0.848446
6.55806
1.12428
0.0469714
0.871766
-0.0419697
0.234691
0.558092
8.05079
5.25839
0.44934
1.18931
8.11925
0.434989
1.12138
0.90456
1.33882
0.445613
1.30878
0.731234
1.17333
5.53352
1.19159
8.07894
0.837878
0.995042
0.21994
0.0198094
6.99272
0.0267588
1.18688
0.94988
1.12872
7.65295
7.96864
0.474271
1.17758
0.957365
0.832076
1.11724
0.339425
0.0794989
0.634793
0.104595
0.0667897
1.12485
7.37437
1.23584
0.931366
0.00579662
1.10095
7.53472
7.93844
-0.517104
1.22991
8.31108
1.21481
1.03262
7.58478
5.67055
5.97697
0.998672
0.437943
1.56393
6.30584
1.0929
0.502893
7.79099
0.288718
7.17673
0.901833
0.348846
8.04388
0.0709876
1.11854
1.11529
0.313229
7.95357
1.16051
1.05756
1.15728
1.12168
1.16832
1.17893
1.0286
1.24641
1.05106
0.187025
0.445115
8.04537
6.88524
6.8992
7.89019
0.95657
0.512461
0.459443
1.09051
0.26604
0.462517
0.869719
1.00334
0.961367
0.336215
1.03855
1.07509
0.919647
0.256134
8.08485
1.09951
1.0822
0.982815
1.04721
7.79035
0.594803
0.601809
0.847779
0.826077
0.668166
7.91599
0.671605
0.665646
7.16623
0.684194
0.932666
7.88845
0.662214
7.87702
8.06346
0.587128
0.973541
0.940483
0.66514
7.93591
0.129429
1.0211
8.06561
0.558503
0.689231
0.572223
0.954789
7.90898
0.997914
0.998895
0.907899
7.941
0.505739
0.19718
0.91141
0.421851
0.514708
8.17537
7.75046
7.402
0.0558256
7.52007
0.477247
0.391075
0.141871
8.06175
0.155634
7.9017
8.08545
8.02886
0.578135
0.00307705
1.20461
0.91412
0.514086
7.70437
7.1752
1.1177
1.09686
0.407807
1.17627
0.509915
1.06641
8.08392
6.21845
6.32647
7.95709
6.3855
0.0335394
8.1016
0.485839
0.856578
0.51171
0.106868
0.602032
6.77823
0.386345
0.861126
0.997188
1.15797
6.81466
8.07686
1.02984
0.397539
1.17528
0.974963
1.20908
1.21918
1.16242
1.21547
0.334489
0.0753957
0.326881
0.72722
0.305523
0.871068
0.926641
0.218999
0.306643
1.19763
0.922317
0.979434
0.597958
0.3412
0.205696
1.15961
8.06361
0.511173
-0.283288
0.131353
0.0847931
0.0244942
0.872282
0.679917
-0.444501
0.0902369
1.23711
8.08276
0.4829
0.62727
0.71292
8.05809
0.531532
0.30013
0.0931087
0.649231
8.17308
8.07415
0.938165
0.190472
0.194294
0.041672
7.9878
8.11705
8.00745
0.718357
0.864169
0.17839
8.11704
0.481846
8.07621
8.09143
0.0964896
0.0704772
7.91579
0.182458
0.191467
0.0122708
8.05622
8.14205
0.320413
0.873815
8.08323
0.160053
0.184883
0.0929498
8.12416
8.129
8.1036
0.0885066
0.159232
1.12201
0.181707
8.04366
0.142909
0.815967
1.12329
1.04169
7.85309
8.07249
0.17744
1.17337
1.14511
0.614216
7.85236
1.20871
7.98068
0.222107
1.21647
0.825369
7.89952
7.39426
1.17816
1.2415
7.27104
7.31082
7.98562
0.573488
7.74496
7.01286
0.853367
0.838937
7.98446
7.17334
0.741258
0.183422
0.170314
0.578315
0.486743
7.27349
0.875706
6.78018
6.64089
8.05032
0.599006
0.964359
0.157727
6.67473
8.50572
0.849161
1.21499
0.905697
0.972365
0.765472
0.683656
0.763542
0.190813
6.57371
0.816381
0.602232
0.186697
0.572804
0.954758
5.11101
0.551884
0.555983
0.555707
0.555181
0.205817
6.40238
7.46322
0.643159
7.51097
7.58443
0.767062
7.52377
0.477905
7.3799
7.45461
7.92327
7.20505
0.61607
0.216714
0.618143
7.36039
0.314379
0.586766
0.799611
7.46249
8.1143
0.62429
0.651672
1.23229
0.623341
7.17884
0.00616706
0.172964
0.121551
7.93562
7.95897
0.375186
0.317175
7.98492
7.49076
1.08831
0.0124928
7.3486
1.18828
1.07689
1.08573
0.68032
7.41705
0.765109
2.27598
0.098708
0.0952649
1.10788
1.07025
1.01202
0.438276
0.788786
7.27372
0.877377
0.786771
1.19975
1.16132
1.08937
7.44232
0.536154
0.802657
0.462859
0.670009
0.793172
1.18078
0.163415
1.1284
1.02374
1.09924
0.332058
1.10142
1.16381
0.778565
0.950041
8.0921
1.03822
8.17351
0.774247
0.805339
1.10072
1.13959
1.09591
0.782605
0.789851
1.17261
0.615838
0.226158
7.92022
6.33019
1.14342
1.15052
0.919953
1.16076
1.22974
1.16171
1.2345
1.30565
6.55172
0.212274
1.3245
-0.128924
6.76229
0.0402306
6.35757
0.59989
0.772729
1.1194
0.564015
8.06396
0.761598
1.18917
-0.159069
7.97348
1.21468
0.191595
1.01607
1.21021
1.22358
6.40808
7.96559
0.561952
0.824451
0.451333
0.824525
0.744266
0.82575
1.26009
6.98045
0.0769271
6.77368
0.858259
0.21067
0.887601
8.13593
5.92829
1.1619
0.836391
0.612576
0.887306
7.97096
0.892127
0.892682
0.0774574
0.891574
3.76616
2.49997
0.909792
8.08521
7.94341
0.544321
3.68243
1.14526
8.1452
0.4179
8.04016
0.65472
8.04069
0.268837
1.13125
1.09208
0.886188
0.934273
0.806571
1.06711
1.20935
0.090012
1.11775
0.513559
1.1067
7.74158
0.308383
7.9272
0.940454
0.95002
0.749066
0.671948
0.928616
0.131313
0.59815
0.905558
0.914705