/*--------------------------------*- C++ -*----------------------------------*\
  =========                 |
  \\      /  F ield         | OpenFOAM: The Open Source CFD Toolbox
   \\    /   O peration     | Website:  https://openfoam.org
    \\  /    A nd           | Version:  10
     \\/     M anipulation  |
\*---------------------------------------------------------------------------*/
FoamFile
{
    format      ascii;
    class       volScalarField;
    location    "7.5";
    object      SgP;
}
// * * * * * * * * * * * * * * * * * * * * * * * * * * * * * * * * * * * * * //

dimensions      [1 -1 -3 -1 0 0 0];

internalField   nonuniform List<scalar> 
111485
(
1.66145e-09
8.21092e-05
2.06316e-05
1.54804e-09
5.97146e-06
2.31026e-08
1.06421e-05
1.28907e-07
9.07383e-06
2.00462e-06
1.88502e-05
8.63517e-07
5.10385e-06
0.243827
4.80334e-06
1.26226e-05
0.174496
0.00087232
7.42951e-07
4.34493e-08
0.0318582
7.20566e-10
2.03719e-06
8.669e-06
2.85401e-05
1.68266e-08
5.17326e-07
8.91397e-06
8.78045e-07
0.0412322
2.79996e-06
3.78707e-07
1.94884e-07
1.19822e-06
0.000632789
7.42904e-05
0.113666
0.168995
0.00204991
6.25985e-07
0.0352344
9.5266e-07
2.22623e-06
8.50181e-05
1.86297e-05
1.28692e-06
4.68758e-06
4.81426e-07
5.25794e-06
3.52182e-07
1.0627e-06
1.43484e-05
4.55789e-07
7.4561e-06
1.22177e-06
1.16775e-07
1.97528e-06
2.2756e-08
3.52262e-05
3.12673e-07
4.38531e-07
2.13223e-07
6.52944e-05
5.29722e-06
5.70174e-06
1.23513e-05
0.000345549
1.6571e-06
4.83786e-05
9.70793e-05
4.2801e-05
5.60873e-05
1.0048e-05
6.64018e-05
2.54544e-08
1.45258e-06
9.49695e-09
5.81772e-07
2.54192e-08
2.62553e-05
0.233391
0.436222
2.82459e-08
5.41056e-09
1.14374e-05
2.67208e-05
0.11841
7.43079e-06
0.000205763
2.28195e-06
1.04466e-06
5.56753e-06
3.36664e-05
2.87824e-07
1.36918e-06
1.04222e-08
0.0231665
8.99205e-06
0.00128929
0.000427364
2.14919e-09
2.21418e-06
1.59317e-06
1.05831e-05
5.04139e-06
1.34633e-05
1.31379e-08
3.93847e-07
9.0973e-06
0.000579482
2.46594e-05
9.99963e-07
9.11777e-06
5.50326e-05
8.53367e-08
5.32423e-08
1.79012e-08
5.34341e-06
1.75647e-05
4.5226e-09
7.94414e-08
0.000160107
0.0609483
1.77582e-06
4.35767e-05
0.0243707
8.96676e-05
7.46045e-06
1.67552e-09
0.000255968
0.000112105
1.3878e-05
0.0403961
0.000147627
6.64806e-05
5.80783e-07
3.86544e-09
2.10049e-07
7.87228e-06
1.88742e-05
5.44401e-05
1.88331e-07
0.149005
6.66272e-05
3.16821e-05
1.73406e-06
2.52347e-08
2.77386e-09
4.03508e-08
2.08505e-07
2.30193e-05
0.0244424
0.0965445
6.38182e-06
3.22661e-05
3.63559e-07
4.25201e-06
0.00010032
0.000665682
4.64278e-06
2.76283e-09
4.91046e-07
2.96188e-05
6.10393e-05
5.41034e-05
2.73891e-05
4.72728e-06
0.0219239
0.00125239
0.00010604
2.28328e-09
1.22893e-08
0.169976
2.19936e-09
1.37932e-07
1.91064e-06
4.99952e-07
8.92412e-06
3.3413e-08
4.80939e-06
8.10473e-06
2.92262e-08
1.62937e-06
3.94717e-07
1.86286e-06
1.68885e-05
7.48665e-06
3.18578e-05
0.000294578
1.4444e-07
3.22907e-05
5.09056e-06
6.07599e-06
2.26016e-05
4.08186e-06
9.74857e-06
1.3621e-06
5.34975e-07
7.38017e-07
5.61863e-06
1.51892e-06
0.00136283
6.36918e-05
5.04601e-07
1.49315e-06
3.20211e-06
8.25374e-06
9.80751e-06
1.39268e-05
1.73719e-06
3.12704e-06
7.10069e-06
6.89286e-06
1.04089e-08
4.89117e-05
0.000259197
2.93455e-07
1.27513e-08
8.8611e-06
1.29983e-05
6.83927e-07
8.04642e-08
6.90743e-06
1.34753e-05
0.000233919
1.66211e-08
1.24458e-09
2.50081e-05
0.00338221
1.98013e-05
7.68833e-05
1.22172e-05
1.15394e-06
0.120372
3.23143e-05
1.52738e-05
0.13401
3.7285e-08
3.87756e-05
1.46713e-05
1.68851e-05
2.08403e-05
3.74877e-06
3.34923e-06
0.00150302
6.93661e-07
6.30972e-06
5.36714e-08
4.17348e-06
0.112675
1.54119e-05
1.04398e-05
1.59603e-05
5.05108e-10
0.000161414
3.30736e-07
2.19385e-07
5.65544e-05
0.0841474
2.2305e-08
3.37606e-06
3.18227e-05
1.6873e-06
6.25427e-09
7.7236e-06
3.63426e-10
3.96888e-08
4.14703e-07
0.141329
3.35952e-06
2.36852e-05
1.09006e-06
0.146691
1.54519e-05
8.76228e-07
0.000191421
2.58716e-06
7.54588e-07
4.40306e-07
6.90066e-09
0.0965676
3.93154e-07
3.35142e-05
1.21838e-05
2.1858e-09
0.17949
0.219496
1.22989e-06
0.000234281
2.63258e-05
2.42645e-06
6.28796e-06
9.60836e-06
5.55845e-08
5.06342e-06
6.5042e-09
0.000301458
0.000223279
1.06895e-05
1.55423e-06
0.286676
1.51314e-08
0.0696256
7.8577e-07
3.93215e-06
6.2051e-09
9.37876e-08
0.0211024
2.7421e-06
7.42209e-07
4.37161e-06
0.00010766
4.57033e-07
2.5283e-05
2.75504e-08
2.00056e-08
3.69301e-06
0.00363317
0.209091
2.61522e-06
0.000612775
3.15287e-09
9.7412e-09
1.45332e-08
7.11608e-05
5.14712e-07
5.7151e-07
1.73249e-06
6.12721e-07
6.06403e-05
0.0520518
4.09088e-06
1.07264e-07
1.5109e-06
1.65471e-06
0.0389486
4.18923e-05
6.41553e-07
6.24698e-07
2.45435e-07
5.63943e-06
2.9941e-08
0.124628
0.000127783
4.35146e-07
2.37363e-06
0.000249386
2.88172e-07
0.0316785
4.15128e-07
7.48776e-06
5.31522e-06
3.07245e-07
1.62886e-05
7.62136e-06
1.067e-07
4.90222e-07
5.67878e-07
1.66599e-06
0.299505
2.15371e-05
1.18432e-07
0.0428802
1.27029e-05
2.35936e-08
3.50762e-07
3.1636e-07
0.0403451
0.000508552
0.0392978
0.0401987
1.96938e-07
2.37884e-08
1.08369e-06
2.09616e-06
3.33912e-09
5.21688e-06
2.30892e-06
1.29103e-05
2.08322e-05
9.91353e-05
3.61942e-06
0.000572226
3.80666e-07
3.18092e-06
3.53741e-05
5.70346e-07
0.000535194
3.38407e-07
1.18528e-05
2.0499e-06
0.0245858
9.3691e-08
6.53761e-08
0.128078
3.4161e-06
0.253747
6.88058e-08
3.61129e-06
2.58439e-06
6.05163e-09
3.92043e-06
3.43022e-05
8.0065e-09
0.0274344
1.5238e-06
1.95399e-06
3.86922e-07
2.54102e-08
0.000628319
6.20365e-09
6.95245e-06
2.56527e-06
1.25862e-09
6.9964e-07
2.97538e-05
0.204194
9.89578e-05
2.56002e-09
6.72834e-05
8.19427e-05
8.15373e-05
3.06269e-05
0.000503063
2.12682e-06
0.00093264
4.30972e-05
0.167986
0.000171644
4.2848e-08
5.52893e-06
9.17596e-07
1.57368e-07
0.00117661
0.000156352
7.04557e-05
1.17412e-06
9.67878e-07
7.82987e-06
3.21965e-08
0.288136
9.0102e-07
2.70022e-05
0.00369485
7.581e-05
0.0010747
4.06284e-08
0.211455
0.272517
2.82277e-08
2.46073e-05
0.000204806
8.62237e-05
2.72195e-09
2.46443e-05
3.44491e-09
0.237155
5.88119e-05
1.46113e-05
7.91171e-05
1.76186e-05
1.38873e-07
1.18588e-06
4.54361e-07
5.25929e-05
1.46141e-07
5.2017e-07
0.0448777
6.88395e-05
2.74125e-08
1.18736e-09
0.000320893
7.13809e-08
1.1966e-06
2.94927e-06
1.81261e-08
5.22442e-05
6.05889e-08
0.0635357
5.79558e-08
1.43734e-06
1.6423e-08
0.000170006
3.58439e-07
0.186856
1.53986e-05
0.196344
6.80298e-09
5.29155e-05
2.00113e-06
3.55055e-09
0.305647
0.118463
1.9179e-05
2.64514e-06
2.62062e-05
8.84164e-07
9.49576e-06
4.20012e-07
3.43621e-05
0.239094
1.36849e-08
1.97045e-06
9.04025e-05
1.33983e-05
0.0478161
4.29722e-06
9.74952e-05
1.61066e-06
1.02472e-06
0.000624317
0.0663313
1.16791e-05
1.56892e-08
9.79966e-07
3.57e-06
3.05568e-06
9.33161e-07
1.65647e-05
2.73456e-09
0.00145476
5.68105e-08
2.69094e-07
1.96284e-07
6.48955e-05
2.77364e-09
6.9414e-06
3.17005e-08
6.1081e-06
6.02771e-10
0.0967337
0.0977181
1.39621e-05
2.89161e-07
0.0528472
0.0692007
1.47135e-08
2.06673e-07
1.03723e-05
6.47816e-08
0.000113324
1.44345e-05
1.04235e-05
0.0365211
1.24578e-06
4.14443e-09
3.93352e-05
3.17285e-05
4.88574e-05
9.52463e-07
1.2076e-05
8.53029e-06
7.10806e-07
7.98371e-07
1.86328e-05
2.57683e-05
1.66428e-09
0.106343
5.62852e-05
3.47985e-05
1.05996e-06
0.000999757
2.48001e-05
0.000360668
0.0024928
0.00032131
4.3582e-06
6.88603e-05
9.29864e-06
1.69756e-05
0.0947987
0.000167937
6.21743e-05
0.00304041
0.06423
3.86528e-08
4.67957e-05
3.58582e-06
3.40485e-05
7.29783e-07
0.000438681
0.00235208
0.000367825
0.000139624
2.03423e-05
1.71074e-06
7.09421e-08
0.00016664
2.58195e-06
4.29229e-08
9.26575e-09
1.74477e-08
5.06306e-08
8.68568e-06
1.19567e-08
0.0297601
1.02641e-05
1.53388e-05
0.0838201
0.264289
5.09644e-05
2.25431e-06
0.031854
4.94885e-08
1.50609e-05
1.56153e-07
1.20753e-08
4.00287e-05
1.70398e-05
0.0995871
2.07562e-05
3.81651e-07
2.30024e-06
2.36162e-05
0.119325
5.23807e-06
2.23522e-05
5.52258e-05
0.166763
0.0336461
2.01253e-06
1.3737e-05
4.9328e-06
1.76862e-06
5.01203e-06
9.83434e-07
2.42089e-05
3.0454e-06
1.60474e-06
9.21563e-07
3.2708e-06
0.000531357
2.71594e-05
3.34459e-06
3.47871e-06
0.000553451
2.47241e-06
4.40453e-07
1.14261e-05
2.4633e-06
1.24669e-05
2.96386e-06
2.79387e-06
2.44993e-06
2.3474e-05
0.00016114
1.12595e-05
1.59417e-05
1.8326e-06
4.48211e-07
2.79396e-05
3.88177e-06
7.1484e-09
0.0629721
2.89767e-08
0.116966
4.91109e-05
0.00996341
7.86899e-08
0.023872
1.18399e-06
1.02223e-05
1.11339e-09
5.6028e-06
2.78904e-07
1.53371e-08
7.9989e-07
0.233954
9.30123e-05
2.46823e-05
0.0352722
8.94098e-08
2.35714e-09
3.66519e-06
1.49485e-06
7.06395e-05
4.26868e-07
0.000104887
4.7354e-08
5.73933e-06
9.94953e-05
0.138811
7.18715e-09
1.23532e-08
2.30538e-06
7.18381e-07
0.000111834
2.7435e-07
0.0511059
7.39637e-07
2.28299e-08
1.97713e-07
0.0369192
4.91702e-06
0.000101386
1.85354e-09
0.00425249
0.000846202
0.150683
2.90363e-08
1.39555e-08
2.99168e-06
1.94406e-05
3.36698e-05
0.000487692
0.000284428
0.000189773
2.7691e-06
0.0515307
1.97752e-05
5.97945e-07
4.34421e-08
1.04934e-06
2.22653e-08
4.78699e-09
5.35562e-08
5.96088e-09
2.62288e-06
4.02902e-08
1.02892e-08
4.60015e-07
1.64452e-07
5.74003e-07
1.20537e-07
5.2723e-07
1.93361e-07
1.06594e-05
1.10401e-05
1.6791e-08
7.7538e-09
1.59067e-05
1.45331e-09
6.18935e-05
1.37041e-06
2.15943e-06
9.54352e-08
1.37329e-09
1.98411e-09
1.66894e-09
1.13784e-05
3.78577e-08
5.16718e-08
1.69556e-05
6.23186e-09
1.08552e-05
6.58927e-05
1.87379e-06
2.05299e-06
0.000439084
2.39701e-06
0.208745
8.3335e-05
6.75758e-06
0.17515
6.93339e-05
5.37287e-06
2.10016e-05
5.21177e-07
1.68066e-05
0.0753379
0.000576806
4.34318e-07
3.9258e-08
1.00754e-05
6.68972e-05
7.75431e-05
7.74021e-05
5.04931e-09
1.46778e-09
1.0343e-06
3.27135e-05
3.68178e-06
3.24602e-06
0.000136526
1.26633e-06
1.6545e-05
9.05916e-08
2.10377e-08
0.0272306
9.31477e-06
2.43473e-07
8.7391e-09
4.25817e-05
0.000109703
1.43637e-06
2.59995e-07
0.0348654
1.84546e-09
1.68885e-05
0.0518937
1.65766e-08
0.0604608
3.61488e-05
0.0301236
0.000506902
8.1118e-08
1.9903e-05
1.37343e-05
0.0392744
3.99707e-05
0.00109929
0.134498
0.000112381
6.69564e-06
7.69562e-07
9.22855e-07
0.403688
0.1347
2.9723e-08
0.199903
9.01307e-06
0.0001372
1.87623e-05
1.753e-05
0.00096326
2.7872e-05
8.25994e-06
5.88644e-06
2.69011e-07
8.71284e-07
0.0370796
5.859e-08
3.18613e-05
1.78264e-05
6.98987e-08
2.11942e-06
0.179954
1.7218e-06
2.77687e-07
0.000499281
1.49496e-08
1.90853e-06
0.175883
2.03201e-08
0.14714
0.283964
0.00106217
1.32191e-05
9.5646e-07
1.97919e-06
4.74815e-05
0.000196057
0.000957211
0.000236738
3.52008e-06
0.0368771
8.59121e-05
1.31179e-09
0.00023268
0.000227502
0.000510053
0.000394696
0.000728551
0.000145505
2.70359e-09
5.77191e-05
1.0771e-06
3.32249e-07
0.00132957
0.289778
1.54767e-07
2.46634e-08
0.00273016
0.00280175
1.16255e-09
0.000506998
9.7499e-08
7.72896e-09
1.89085e-08
3.73961e-07
3.81407e-06
1.55532e-07
5.98999e-05
0.0421448
7.03913e-09
5.09268e-07
0.00378591
0.0965624
5.26075e-05
3.08402e-07
0.0264653
2.80704e-09
0.000106712
3.15591e-09
3.02377e-09
0.000487629
0.107797
2.01053e-06
1.20924e-08
8.76853e-08
0.0290473
1.19618e-08
0.0188096
3.8162e-08
8.41668e-05
2.32403e-09
0.00165737
2.37822e-06
4.73932e-09
6.2527e-07
5.17341e-07
0.00117868
5.4177e-07
1.66872e-08
1.70777e-06
0.00375569
0.043984
5.90148e-05
0.000478791
0.000907237
7.638e-08
0.00110048
8.05136e-06
3.52961e-07
3.16266e-06
0.000184965
1.64127e-05
1.56557e-07
7.44565e-06
0.000123681
6.10446e-08
8.05981e-07
5.31469e-07
1.28156e-05
0.0607817
1.46741e-09
5.15384e-07
0.0495841
0.000102504
6.3634e-05
8.80214e-09
7.78219e-07
2.83169e-08
8.67017e-07
2.16599e-05
3.35625e-05
4.7795e-07
2.27584e-05
2.28487e-05
6.63437e-05
1.36116e-05
2.66628e-08
3.23896e-06
2.06582e-09
3.57584e-07
4.45626e-05
0.00014858
2.8505e-08
5.08664e-07
1.92338e-06
3.51925e-09
4.0572e-05
3.74699e-07
5.0588e-05
0.000694808
5.70939e-05
4.53526e-08
0.00115884
9.79787e-05
5.32466e-05
0.000131063
4.64589e-08
0.00012113
2.18308e-06
0.0977121
2.72981e-05
8.057e-05
4.79601e-08
9.92333e-10
1.75676e-08
0.155806
0.0608015
3.72839e-05
5.08813e-09
0.00011916
3.55962e-08
0.143246
0.000113685
5.55753e-07
5.07029e-08
2.43429e-06
5.39519e-07
7.13831e-05
1.78371e-06
0.000101134
0.2612
2.96756e-06
6.13772e-05
2.89402e-05
5.93935e-05
4.37872e-05
1.2524e-08
7.47026e-09
1.71881e-06
2.6386e-05
1.53466e-08
1.65077e-07
0.000530256
3.32363e-07
1.04818e-06
0.359638
1.77472e-06
5.53457e-05
1.83848e-09
1.55556e-06
2.23068e-07
0.276085
5.47176e-09
0.0999581
0.0046783
0.000107206
1.37356e-05
1.22363e-05
0.00079117
2.24058e-06
3.45474e-06
1.77039e-06
6.89609e-07
4.03984e-08
1.61823e-06
7.08673e-05
1.94983e-06
0.0574526
2.29908e-07
3.50061e-06
0.000248807
2.76609e-09
0.000319703
8.33043e-08
3.16781e-05
0.000663949
5.39338e-08
1.31725e-06
5.42008e-05
5.10661e-07
3.94735e-06
0.151945
4.26187e-07
7.88446e-06
1.29062e-08
0.0379174
7.44458e-06
1.83651e-07
1.52406e-07
4.18144e-06
5.73664e-06
2.33924e-09
0.126983
1.04093e-06
2.12923e-09
0.000105235
3.85241e-07
3.20025e-09
3.62162e-05
0.000780188
0.000758325
1.42552e-08
9.58427e-07
4.70584e-08
3.54346e-05
4.2404e-05
0.0294147
5.64496e-06
0.000758195
5.72732e-05
0.000936418
2.64649e-05
2.79184e-06
8.48657e-07
5.17181e-07
2.12066e-05
1.44481e-06
5.23592e-06
0.0377392
0.000213187
0.0390214
2.54493e-09
3.70668e-06
1.01865e-07
5.47483e-05
8.57026e-05
6.41553e-06
4.0322e-05
0.000487561
0.00010449
3.3564e-09
0.00606759
0.00688365
6.45763e-05
3.71615e-05
3.02502e-07
0.000758948
1.50882e-06
2.35317e-06
1.06921e-07
4.42465e-09
0.000205883
6.96196e-06
0.00082972
5.30019e-07
0.0386082
0.000515477
5.8553e-07
7.21243e-08
0.000467186
2.2807e-06
0.0477796
0.232379
0.00010781
0.00019424
1.8594e-06
2.32908e-07
1.09211e-07
2.80706e-08
5.49133e-05
3.69556e-06
0.0284265
0.0473228
2.26219e-05
1.89593e-08
0.000265406
0.0341188
2.34424e-05
0.000969754
0.00211068
0.0358919
0.103868
0.0417704
0.000101068
4.30304e-09
0.00170518
5.79218e-07
1.13201e-07
1.74129e-07
1.89344e-08
2.04654e-05
7.27782e-09
6.59512e-09
7.57193e-05
4.9058e-08
6.09837e-09
8.23584e-07
3.47117e-07
0.0487767
3.16471e-06
2.43888e-05
0.0629834
0.219747
5.62075e-09
0.156931
0.000135634
0.322244
3.74792e-07
7.68641e-08
8.97528e-08
3.18275e-05
0.219105
5.88532e-09
0.000963819
4.2655e-08
2.75459e-06
1.39678e-05
6.5556e-06
8.941e-07
2.13773e-07
0.0641067
1.28785e-08
3.96753e-06
1.01869e-07
4.73415e-07
1.10737e-06
0.000378418
6.69847e-05
9.77443e-07
0.000328815
1.54978e-05
3.52058e-07
0.000115282
6.27109e-07
1.00798e-05
1.24495e-07
8.53147e-08
0.214407
0.036224
0.000330941
2.37029e-07
4.19803e-09
2.44162e-06
0.162143
2.40495e-07
7.46114e-06
7.48067e-07
1.67547e-06
9.49553e-10
0.0294343
8.26023e-05
5.1201e-07
4.20347e-07
1.38531e-05
7.62168e-09
0.14944
5.19459e-09
0.0347679
5.67294e-05
4.76224e-06
1.78403e-08
1.70536e-06
1.06928e-06
7.36954e-07
2.81916e-06
4.18212e-06
8.22715e-10
2.82381e-09
7.01363e-05
0.0665515
2.77301e-09
2.39389e-05
2.6322e-06
7.27711e-05
1.9696e-07
0.0399232
1.9204e-06
3.91548e-05
4.0269e-05
1.03338e-07
4.33818e-05
1.54835e-06
1.23903e-05
2.86609e-08
9.28594e-09
7.87105e-06
7.72089e-09
0.000130048
3.29878e-05
2.90865e-08
6.70848e-08
0.000101555
0.00046295
0.253259
8.30709e-08
4.31839e-06
1.54629e-06
0.000306174
0.00014015
1.95198e-05
7.04869e-05
0.0657792
2.86038e-06
4.58493e-05
0.000695107
0.0556143
9.28336e-07
2.09824e-08
0.000335008
3.20094e-06
0.0343841
2.12479e-07
6.10154e-06
3.26885e-06
3.79587e-08
0.194162
1.11111e-08
1.37899e-07
7.21706e-07
2.05624e-05
0.265636
0.0474713
4.35677e-07
1.47384e-08
2.50428e-09
1.01184e-07
9.64727e-08
5.03049e-07
8.39628e-08
2.65622e-09
4.96075e-08
5.31301e-09
1.6128e-07
0.0520133
0.0308707
7.14793e-09
1.15701e-05
6.11102e-09
3.79725e-08
9.31306e-09
0.0302519
0.0705954
5.00414e-06
2.98613e-08
6.20161e-09
6.6762e-07
9.43517e-07
3.38223e-06
1.16298e-07
0.00028371
2.78722e-07
2.77565e-06
2.13954e-06
0.000160333
4.3556e-06
0.000665938
1.40102e-06
2.12411e-08
0.000408673
0.000402239
1.90028e-08
1.87564e-05
3.24175e-06
9.5881e-06
3.14687e-05
8.09294e-06
3.23999e-06
1.29937e-07
0.27471
4.36281e-07
3.23071e-05
0.0520742
7.70803e-05
9.94541e-06
1.23056e-05
1.26535e-06
1.17239e-06
1.91258e-05
4.72695e-05
4.63247e-05
3.02572e-06
2.97141e-05
5.45456e-06
2.53645e-06
1.41832e-06
5.73998e-09
5.87634e-08
2.26354e-08
1.18819e-09
1.62877e-07
4.94418e-08
5.80299e-06
2.56781e-08
2.28907e-09
1.32343e-07
1.42519e-05
2.35735e-08
1.47953e-08
6.63868e-07
9.00437e-07
6.78886e-07
7.22796e-05
4.7497e-06
0.208588
1.20242e-07
9.79898e-06
1.27144e-05
3.14252e-06
3.94345e-09
2.39949e-08
0.18731
4.44445e-07
2.91142e-09
2.14183e-06
0.186764
1.2137e-06
4.51079e-05
4.71205e-05
9.09572e-07
6.57803e-06
1.2963e-05
0.000317292
1.6481e-08
3.25453e-05
4.2743e-06
1.33742e-07
0.000273345
0.000323655
0.167579
5.87055e-06
1.21467e-06
5.60823e-06
2.80979e-05
1.02774e-05
9.37382e-08
0.00217801
1.63725e-08
0.000510182
0.000348301
0.0523165
7.72206e-06
0.214683
1.68682e-08
1.04587e-07
3.13277e-06
1.81884e-05
4.84027e-05
2.86107e-06
8.84344e-05
2.99735e-08
7.80233e-06
3.98285e-09
5.46304e-09
9.92326e-07
0.000393457
6.82336e-08
3.43948e-09
0.000354573
1.5445e-07
0.000445532
2.64785e-06
1.41816e-06
1.42679e-06
2.4409e-07
1.74063e-05
3.47629e-06
0.0001747
4.3827e-07
5.35707e-06
0.00281227
9.55813e-07
8.6732e-09
0.000130625
2.27987e-06
2.88976e-05
6.09655e-09
0.118954
0.000101134
4.68857e-05
1.42476e-06
2.46132e-09
0.000163293
3.49253e-06
1.85111e-07
2.43363e-09
4.61012e-05
5.36368e-05
5.77055e-05
0.161753
2.02714e-06
5.08414e-06
0.000205786
3.65411e-06
4.10378e-06
1.18546e-06
6.95118e-05
2.2737e-06
9.90142e-05
0.152033
9.29568e-06
1.17686e-09
1.06054e-06
2.76988e-05
1.39229e-05
1.71782e-07
0.000404466
0.000718042
0.000371104
0.000743429
1.10706e-05
4.3751e-05
5.88812e-06
9.75615e-06
9.0114e-08
2.16599e-08
0.0855136
0.000433987
1.46155e-06
0.00138249
3.83085e-06
2.04135e-05
0.000358704
2.64716e-06
1.96186e-06
2.67181e-06
1.97508e-07
3.47961e-05
1.75364e-05
0.000123918
1.49805e-05
3.05693e-07
9.72352e-09
1.93545e-05
9.15678e-07
1.67211e-08
0.000265213
2.28188e-06
7.02232e-06
2.65745e-05
2.02134e-06
3.95324e-08
0.000489023
0.115826
4.22735e-08
6.99844e-09
1.60783e-08
0.119839
0.206021
3.81704e-07
0.0456758
4.16497e-06
1.4599e-05
6.90602e-06
5.77437e-06
1.12561e-05
9.56172e-06
2.49221e-05
0.0957491
0.287422
0.329292
9.74212e-06
1.87861e-05
5.65821e-06
5.94039e-06
0.302503
1.12586e-08
0.149833
5.04844e-06
3.28487e-09
9.79285e-07
3.8344e-07
4.57972e-08
3.47278e-08
1.99958e-07
1.088e-08
0.113955
5.39943e-08
2.04664e-05
0.000143942
1.18875e-08
3.61293e-06
6.21833e-06
4.29132e-06
1.0408e-07
0.000487229
5.29859e-06
5.22919e-07
5.46632e-05
3.76595e-06
1.65434e-05
4.41672e-06
1.05401e-06
2.31301e-07
1.47334e-05
0.00282891
2.84305e-05
9.59747e-07
9.66212e-06
7.2372e-07
1.38067e-05
8.0622e-05
7.35294e-06
1.96335e-06
4.30024e-06
1.11728e-06
4.89265e-05
8.79509e-08
6.12728e-06
0.0353078
0.000350994
0.278327
0.000635593
8.00949e-05
2.94427e-08
0.0527076
1.47096e-09
3.17401e-05
1.06322e-05
5.93353e-07
6.91516e-05
8.91591e-07
7.86767e-07
2.5723e-05
6.3843e-07
1.59472e-07
1.07264e-05
5.53751e-07
1.87104e-05
0.0639352
3.01738e-07
2.4586e-05
1.53003e-06
6.05971e-07
2.22388e-08
0.000215621
6.15411e-05
1.88807e-06
7.73119e-09
5.02918e-07
0.0380387
0.000170699
7.07925e-06
1.2304e-05
3.93146e-09
1.16822e-09
7.31753e-07
2.12365e-09
3.62662e-05
1.11004e-07
1.83936e-05
1.29807e-06
4.80236e-07
2.91071e-07
4.14101e-08
4.00795e-05
7.62479e-05
3.50962e-05
4.98648e-07
2.42057e-08
8.57381e-07
1.40721e-06
0.000452989
8.96407e-07
0.137662
1.47892e-05
1.50545e-08
3.90082e-08
0.000193667
8.43743e-06
0.00095158
2.99657e-07
7.21663e-05
0.194404
1.01429e-09
0.000273196
2.11115e-05
0.0364246
1.43348e-06
0.0406675
0.0711727
9.74548e-05
7.15066e-06
1.6639e-05
1.22611e-08
1.37986e-05
2.26773e-05
0.00030886
1.53259e-05
3.98916e-06
2.19767e-05
0.000352908
0.00028613
0.00040304
0.000106427
1.56566e-08
6.8104e-05
0.000730765
5.62119e-06
2.32062e-06
0.000205054
0.000175114
1.14818e-05
1.54614e-05
0.000214314
1.25706e-05
0.000303526
0.000178459
1.6341e-05
6.91743e-09
2.81086e-05
0.000341768
0.0572532
1.75298e-06
4.24324e-07
4.12402e-05
1.75917e-07
7.11523e-05
7.46149e-07
0.000323271
3.63369e-07
5.4517e-05
9.45526e-09
9.63227e-08
9.75133e-06
0.000779502
0.00100382
0.285067
3.35335e-05
1.57499e-06
1.31595e-07
0.000336832
1.7608e-05
0.0273639
0.0603065
7.20167e-09
0.000658361
3.44392e-05
3.67781e-06
1.70926e-08
0.000965741
4.86321e-07
0.0366111
5.49611e-08
9.05554e-09
2.42073e-05
7.50524e-07
9.05768e-07
3.538e-05
0.0338637
1.4008e-05
1.65572e-07
4.62517e-05
0.1824
0.0349827
3.71619e-06
0.000226068
1.97695e-05
0.000461397
1.91397e-06
0.0320532
2.67818e-05
0.000147708
1.72656e-07
7.11053e-07
3.22339e-06
4.82533e-07
2.00769e-05
2.21572e-06
6.96281e-07
2.03665e-06
3.55411e-06
7.02272e-05
2.00866e-08
3.03731e-07
0.0652871
1.08161e-08
3.72271e-08
3.47712e-05
6.26859e-08
0.000138439
3.00026e-05
0.0533313
1.59697e-05
0.216379
7.63902e-06
1.53165e-05
0.0341775
0.000128426
3.93335e-10
2.07038e-06
0.0239703
1.0893e-05
6.2371e-05
1.26768e-05
8.041e-08
5.3725e-06
6.01426e-06
6.70402e-07
0.104823
8.92914e-07
7.7219e-08
1.4663e-06
5.44962e-07
8.21262e-09
6.95683e-05
2.1139e-06
0.22576
6.53836e-05
2.9761e-05
3.84558e-05
4.84599e-05
9.19842e-06
2.15336e-06
1.8193e-09
5.21526e-07
5.65193e-05
1.78615e-05
5.12779e-06
6.37044e-08
9.24234e-06
1.33134e-06
2.8436e-05
1.89102e-08
1.84589e-07
6.16593e-07
2.41589e-05
1.6963e-05
2.39209e-05
2.94164e-08
1.2241e-08
0.00138106
1.46552e-08
1.57421e-09
3.89668e-09
1.24222e-06
0.256312
5.07515e-07
7.31534e-05
5.81714e-05
1.56347e-05
1.61679e-07
8.9069e-07
0.000156123
5.71244e-06
1.70202e-07
2.94922e-05
3.0939e-09
1.16658e-09
2.58114e-09
7.59848e-05
7.61845e-08
0.272019
0.000442708
2.52565e-05
0.00154863
4.75399e-07
7.50817e-06
1.50029e-08
0.0507296
6.56929e-06
4.60179e-06
1.30958e-06
2.71501e-07
9.35322e-08
0.395073
1.19819e-05
0.000332229
5.32679e-05
7.36746e-07
0.100867
2.748e-07
2.69043e-07
5.13605e-07
4.80544e-07
1.43921e-05
2.28017e-07
1.68917e-05
1.50892e-05
0.00037834
2.61434e-06
7.39284e-10
0.000158604
3.48667e-07
0.130001
2.48348e-06
1.66099e-07
1.12663e-06
1.68674e-05
0.0519158
0.0254692
1.41078e-05
3.70265e-05
0.0775173
2.48654e-06
2.17239e-05
0.0383285
8.68572e-06
2.81844e-06
0.142664
0.0159595
1.01113e-05
2.63462e-05
1.35782e-08
3.10555e-05
0.00140215
5.70164e-06
9.41725e-06
0.000313909
2.56779e-09
0.01981
1.3414e-08
2.51167e-05
0.162115
1.1209e-07
9.26336e-06
1.67585e-06
3.54318e-07
3.79382e-08
3.7953e-05
3.90826e-07
9.20972e-08
2.23645e-05
1.17387e-05
1.23222e-08
0.0199389
0.0376243
3.31816e-06
2.45908e-09
2.31782e-09
0.000121814
1.09825e-05
4.60197e-06
5.54957e-09
6.76566e-08
0.000110788
5.46788e-05
3.77375e-05
6.50038e-05
0.302086
1.83632e-09
0.116496
6.50008e-06
2.48427e-06
0.0454981
9.59715e-07
2.14204e-08
0.0195316
3.02157e-09
4.2003e-06
4.42049e-06
5.11758e-06
9.30205e-07
8.21827e-09
6.48321e-09
1.45223e-08
1.74406e-05
0.11259
0.180441
2.0384e-05
2.04499e-06
1.15243e-09
0.0477139
0.187351
0.000222291
7.28754e-07
1.13714e-07
0.0008175
0.000200869
2.06645e-07
8.93434e-09
1.50119e-06
5.93867e-06
1.86002e-08
9.576e-06
4.81339e-05
0.051342
0.171979
3.02967e-05
0.000702373
1.06274e-08
2.79411e-07
1.81706e-05
0.00014476
2.82382e-05
0.00037031
7.2536e-06
1.07138e-05
1.25274e-08
7.01091e-08
1.10012e-05
0.0498494
7.69085e-07
0.151389
2.18094e-08
9.92838e-06
1.761e-06
1.4155e-05
1.16137e-08
7.39246e-09
8.27679e-08
3.69947e-08
1.21287e-06
0.00026624
8.37944e-09
0.0319056
1.19979e-05
0.132611
8.77676e-07
2.09002e-06
1.41305e-06
1.49466e-06
1.08026e-05
2.1507e-08
1.30808e-08
1.7878e-08
2.17739e-06
7.9252e-06
0.0471046
0.0456032
4.31608e-06
6.16179e-07
1.2903e-08
1.91572e-09
2.27519e-08
1.37539e-06
0.000204033
1.7284e-07
3.67759e-08
5.27806e-09
0.018785
2.39857e-05
3.5391e-05
0.0345615
8.66734e-07
0.258713
7.24982e-06
3.96066e-07
1.86433e-09
2.19264e-07
0.045763
5.98937e-10
1.5436e-05
1.83398e-08
0.000580357
3.73867e-05
6.78067e-05
0.000121406
2.36833e-05
1.13466e-08
1.036e-08
0.298679
2.85301e-05
2.93381e-05
0.0001852
4.22141e-07
6.75259e-05
8.31121e-05
2.60312e-06
2.81463e-06
0.000248688
6.85354e-08
0.000532818
0.0335115
1.07786e-06
1.73593e-07
7.00042e-05
7.88058e-07
0.0291806
0.149543
1.72151e-05
3.74681e-09
0.00343778
2.95195e-07
1.69498e-05
1.23945e-06
8.38978e-05
8.57646e-09
0.000744608
6.53653e-05
0.000104855
1.50989e-05
9.81187e-05
2.30237e-05
4.89226e-06
2.22597e-09
0.000132126
2.81946e-05
4.35166e-05
5.04139e-07
8.12248e-06
0.000102965
0.000370848
8.33151e-09
6.81391e-08
4.08914e-08
2.49833e-09
1.17126e-07
0.0184314
0.000319285
0.000117791
3.23401e-05
0.000170317
7.00907e-05
1.72434e-09
8.39737e-06
6.59738e-09
4.54995e-07
1.3922e-08
1.81384e-05
0.00166517
1.37012e-05
1.12769e-07
1.31834e-08
1.2169e-06
1.01434e-07
5.74399e-09
0.121714
7.60722e-06
0.000555411
0.000828465
0.000620942
2.96046e-09
0.000555031
0.000606279
0.00110354
0.000606537
1.6943e-09
3.08884e-09
2.17087e-06
6.24093e-06
5.71859e-05
0.000275328
0.0343719
7.06723e-06
2.65512e-05
3.64038e-06
0.000455888
2.60839e-08
4.07958e-09
8.69091e-05
0.000298132
0.0223401
1.06657e-08
0.0982812
0.000105209
2.70783e-07
7.45662e-05
3.47792e-06
5.90138e-05
1.90719e-06
6.73918e-05
2.16221e-09
6.7864e-06
0.00183807
2.73601e-05
6.23915e-08
0.0014886
3.29576e-05
9.41317e-06
0.00273499
6.09228e-08
5.93648e-06
4.69002e-05
6.33167e-05
7.84845e-07
0.162371
4.1809e-08
7.83195e-07
2.39545e-08
0.0982825
0.100983
1.77304e-06
1.46828e-06
0.00012536
0.0471308
1.77991e-08
6.75913e-06
1.23152e-05
9.71452e-06
1.08379e-06
0.165546
6.23736e-06
1.29162e-05
0.00298768
1.32609e-07
5.42688e-06
1.25603e-06
1.9317e-06
2.39182e-09
0.00205777
0.00336869
1.1196e-07
6.13271e-07
1.16317e-06
8.32775e-05
1.50834e-08
0.034053
1.9015e-07
8.76485e-06
9.69078e-07
4.37526e-07
3.00837e-06
2.8049e-05
1.03899e-06
4.54526e-06
0.000203741
1.20431e-06
1.1158e-06
0.0368207
6.90292e-07
3.07288e-06
2.26876e-06
1.37673e-05
7.46681e-10
2.42257e-10
3.27199e-09
5.50583e-06
5.69247e-08
0.0547516
1.84559e-05
7.3534e-06
5.47574e-09
1.70925e-05
0.0976321
5.81385e-05
8.87835e-06
3.64091e-05
1.03114e-05
1.91635e-07
8.26611e-08
1.9242e-05
2.35494e-06
2.47884e-06
0.000454058
6.21258e-06
3.91912e-08
1.66946e-08
1.78228e-06
5.32788e-08
4.8575e-06
1.85513e-08
8.01857e-06
1.32351e-05
1.8048e-07
4.86083e-09
0.0391385
3.01005e-09
1.70763e-09
1.84444e-05
0.0483291
1.31685e-05
1.7862e-06
1.54182e-08
6.42635e-06
4.44104e-06
1.62814e-05
5.07709e-06
1.44569e-08
1.23551e-06
9.57426e-07
4.19331e-06
1.36758e-08
1.14214e-08
8.79409e-09
2.90224e-06
1.37546e-05
8.36189e-07
1.77485e-08
6.27761e-06
3.13981e-05
2.40457e-08
1.81188e-05
2.8903e-07
5.60111e-08
2.36797e-08
2.29607e-05
2.30068e-07
1.67856e-05
2.2166e-09
2.07536e-05
4.09654e-09
1.37405e-06
0.000289503
1.16145e-07
8.25104e-09
0.0583875
2.92171e-08
0.0480893
2.08723e-07
3.60262e-08
8.36774e-06
1.47922e-05
0.037954
3.21682e-05
0.0427178
0.0519538
8.00629e-05
6.60323e-06
0.034561
9.20699e-06
1.4344e-08
1.71162e-05
0.114809
0.0316877
0.036131
5.90055e-09
7.06776e-06
1.67975e-08
4.49862e-06
8.55957e-07
6.03121e-06
0.000141715
5.97607e-06
4.17573e-07
7.25703e-09
3.21983e-06
0.000246465
2.28128e-08
5.88058e-06
2.64342e-05
1.69538e-06
4.42974e-10
4.77634e-05
2.06984e-05
1.82692e-05
8.06872e-06
1.00832e-05
1.69216e-06
6.2452e-06
0.000121172
7.50114e-06
5.94076e-06
0.000103902
0.000385103
7.34045e-09
5.62804e-07
2.45645e-08
1.02216e-05
6.63683e-08
2.03102e-06
6.55542e-10
0.000323301
0.32652
0.0727059
0.000109174
2.85073e-09
9.35659e-06
0.0447776
0.0859014
6.94886e-07
0.000226487
1.92165e-06
4.39296e-07
3.45052e-07
2.78489e-09
7.62393e-06
3.09263e-05
4.82024e-08
1.24853e-08
1.07272e-05
1.48156e-07
0.146501
0.0461927
9.64643e-06
1.00802e-08
8.8977e-09
0.0360159
4.38981e-09
1.59398e-05
1.93397e-08
0.000513161
4.77729e-09
4.00471e-06
2.95404e-08
1.35678e-08
0.000904186
0.127342
0.0553341
1.47238e-08
0.0590684
4.30405e-08
9.81559e-06
1.32702e-06
0.096635
2.27668e-07
0.000115549
5.42603e-09
1.55593e-06
0.000232302
1.66797e-06
0.000123987
1.43142e-08
3.9812e-06
2.47048e-05
1.31484e-05
3.83949e-06
3.03197e-07
2.74464e-07
2.76124e-06
5.40181e-07
2.83917e-09
2.00909e-09
0.060958
0.0318384
2.64585e-08
0.0683258
2.29453e-09
1.86904e-08
3.80909e-05
6.64886e-09
1.45807e-09
0.0321208
3.51706e-08
2.02368e-09
0.00051479
2.59376e-09
1.31558e-09
3.70226e-05
0.0767618
1.39169e-07
0.0317821
1.28391e-08
3.49514e-06
0.0407373
5.17265e-06
0.000723544
7.18694e-10
5.25979e-08
8.90197e-07
1.11393e-07
0.174054
0.0369201
9.11212e-05
2.85218e-08
0.0396331
9.10065e-10
1.0122e-08
6.58974e-09
0.0852193
0.00147095
7.43294e-06
1.98171e-09
1.08597e-06
0.0412287
0.000751149
3.75485e-07
0.0002228
0.0898902
0.0697621
3.03913e-05
0.0696411
0.000781649
0.0365609
3.53082e-05
0.0542877
0.000288449
3.65845e-06
1.28381e-06
1.72869e-06
0.000385393
0.000766028
7.86827e-10
2.46495e-06
7.93977e-08
3.26357e-05
6.02634e-06
9.53226e-07
6.42463e-06
0.000249307
1.56233e-07
7.11214e-06
6.78304e-08
1.66149e-08
4.38131e-08
4.06263e-08
4.25166e-06
2.62899e-08
5.17008e-08
5.58979e-08
8.76026e-06
3.6281e-05
1.14523e-09
4.29834e-09
6.7062e-08
1.19517e-07
8.91565e-07
0.00105014
0.0017546
0.000106542
2.12734e-08
2.46196e-05
4.61226e-06
0.0396902
2.70285e-05
1.08904e-05
4.41257e-07
9.00019e-07
2.06139e-06
0.000187495
9.861e-05
0.148658
0.0575202
6.15586e-08
0.000691718
0.000248477
5.89081e-09
1.94262e-06
4.24821e-06
3.78778e-08
1.39544e-06
3.27171e-06
0.0532485
5.51713e-10
6.53478e-05
2.51629e-08
0.0394657
4.42016e-05
0.0304041
2.62372e-05
7.56904e-09
6.74098e-09
2.99719e-08
2.12639e-05
1.98542e-05
3.7489e-06
7.20072e-06
7.10663e-07
0.00060662
0.000234839
2.61467e-09
9.80247e-05
3.78735e-05
3.96432e-05
7.96182e-05
0.0024627
3.49682e-06
0.0825237
7.11205e-08
4.65018e-06
0.0328405
1.23651e-08
0.000207108
0.0061426
2.45709e-08
8.22616e-05
2.70836e-08
1.82868e-07
2.20869e-06
2.91704e-06
4.38599e-08
3.81567e-09
5.57508e-07
4.72648e-09
2.95457e-09
0.000105282
1.82836e-08
2.53118e-09
2.28039e-05
8.33551e-09
8.22422e-08
2.11302e-07
0.000170619
1.75547e-07
0.000138712
1.13553e-07
4.76933e-08
1.89801e-05
5.52909e-05
0.000183307
0.0349597
6.74388e-05
3.11564e-05
1.96499e-06
0.264662
0.257308
9.14212e-08
2.19259e-05
1.73353e-08
0.0371879
0.0325671
0.000335039
0.0731685
0.0586504
6.06206e-06
2.47436e-09
8.75307e-05
1.46722e-08
7.96901e-09
3.59721e-07
1.3203e-05
9.36815e-09
1.45511e-05