/*--------------------------------*- C++ -*----------------------------------*\
  =========                 |
  \\      /  F ield         | OpenFOAM: The Open Source CFD Toolbox
   \\    /   O peration     | Website:  https://openfoam.org
    \\  /    A nd           | Version:  10
     \\/     M anipulation  |
\*---------------------------------------------------------------------------*/
FoamFile
{
    format      ascii;
    class       volScalarField;
    location    "7.5";
    object      SgRate;
}
// * * * * * * * * * * * * * * * * * * * * * * * * * * * * * * * * * * * * * //

dimensions      [1 -1 -3 -1 0 0 0];

internalField   nonuniform List<scalar> 
111485
(
1.66149e-09
0.00858584
0.0224305
1.54805e-09
0.0468041
2.31026e-08
0.0433022
0.00614635
0.0179487
0.00106863
0.0429417
0.0094117
0.00432742
0.244296
0.00587845
0.0312129
0.176245
2.49297
0.0100456
4.34498e-08
0.0318582
7.20567e-10
0.0257008
0.0350046
0.00842502
1.68266e-08
0.040661
0.00194084
0.0168999
0.0412322
0.0429779
0.0174096
1.94884e-07
1.19822e-06
0.00876575
7.42904e-05
0.123855
0.172771
0.00204996
0.0225831
0.0352344
0.0714401
0.0153376
0.00141364
6.55682e-05
1.28692e-06
0.0312904
0.000716521
0.0480763
3.52182e-07
1.0627e-06
1.43484e-05
4.55789e-07
0.0469362
1.22177e-06
0.0420608
0.00348966
2.2756e-08
5.80324e-05
0.00475312
0.0157832
2.13223e-07
0.00401338
0.090942
5.70174e-06
0.00362271
0.309122
0.0961232
0.000927635
0.00582895
5.24544e-05
0.00582157
1.0048e-05
0.00247582
2.54546e-08
0.000742407
9.49695e-09
0.0410188
2.54192e-08
2.62553e-05
0.233399
0.469895
2.82459e-08
5.41057e-09
0.00838714
0.00421981
0.11841
0.0235106
0.000256947
0.00663093
0.000478566
0.0397279
0.0105089
7.4024e-05
0.0542347
1.04223e-08
0.0231665
0.00162902
0.00128931
0.00177023
2.14923e-09
0.0193865
1.59317e-06
0.0197077
0.00454314
1.34633e-05
1.31379e-08
0.00782449
0.00375938
0.000579571
0.00890939
0.00488452
0.00340422
0.00299773
8.5337e-08
3.33804e-05
1.79012e-08
5.34341e-06
0.0112894
4.52269e-09
7.94414e-08
0.000160107
0.0609483
1.77582e-06
0.00174187
0.0243732
8.96676e-05
0.00167322
1.67553e-09
0.000324883
0.00126587
0.0301899
0.0403961
0.000147627
6.64806e-05
0.0492823
3.86545e-09
0.0416135
0.0232101
0.00228555
0.000266488
0.00195369
0.170649
0.00303733
0.00367837
0.0121837
2.52348e-08
2.77387e-09
4.03508e-08
0.0269023
0.0018366
0.0244424
0.0965447
0.00528875
3.27776e-05
0.0106159
0.0161164
0.010381
0.000665775
4.64278e-06
2.76284e-09
0.0526957
0.0237602
6.37045e-05
5.43836e-05
0.00472806
0.00375573
0.0219239
0.00125858
0.000160844
2.28329e-09
1.22893e-08
0.170108
2.19937e-09
0.0072615
0.00230182
4.99952e-07
8.92412e-06
3.3413e-08
4.80939e-06
8.10473e-06
2.92262e-08
0.00139345
0.00674847
0.0286233
0.00442916
0.00710703
0.00325221
0.000385992
1.4444e-07
0.00376221
5.09056e-06
6.07599e-06
0.00553423
0.0106254
0.0254265
0.011293
0.00377712
7.38017e-07
0.00643114
0.000649492
0.00140795
0.0127185
0.00233395
1.49315e-06
0.00337695
0.0262522
9.80751e-06
0.00021808
0.00737724
0.00237638
0.00033799
6.89286e-06
1.0409e-08
0.00667558
0.000259197
0.119822
1.27513e-08
0.00570191
0.0186883
0.120054
8.04642e-08
0.00251926
0.0131488
0.000233919
1.66211e-08
1.24458e-09
0.160982
0.0033826
1.98013e-05
7.68833e-05
0.00851249
0.00876302
0.135392
3.23143e-05
1.52738e-05
0.13402
3.72851e-08
0.00238785
0.00827997
0.0146347
0.00990792
0.00924691
3.34923e-06
0.00150332
0.000568241
6.30972e-06
5.36714e-08
0.0309424
0.134196
1.54119e-05
0.00552404
0.00971447
5.05139e-10
0.000161414
0.000123928
2.19385e-07
5.65544e-05
0.0841858
2.23051e-08
0.0151091
0.0111559
0.00357268
6.25428e-09
0.0109756
3.63432e-10
3.96888e-08
4.14703e-07
0.141329
0.0222997
0.00530185
0.00493928
0.184338
0.0109711
0.00160991
0.000802131
0.0345284
0.00950103
4.40306e-07
6.90069e-09
0.0965679
0.021931
0.0236194
0.0122629
2.18582e-09
0.186038
0.221552
0.00279038
0.000236162
3.02494e-05
0.0130717
0.00198824
0.00179206
5.55845e-08
0.000794898
6.5042e-09
0.000301612
0.000223279
0.257506
0.0699453
0.299703
1.51315e-08
0.0696256
0.00852851
0.00205461
6.20524e-09
9.37876e-08
0.0211024
0.000372552
0.0630348
0.0036956
0.0148349
0.0194281
2.5283e-05
2.75504e-08
2.00056e-08
0.00348862
0.00363317
0.209953
0.189544
0.000613218
3.15287e-09
9.74124e-09
1.45332e-08
7.11608e-05
0.0584844
0.0122853
1.73249e-06
0.00504834
6.06403e-05
0.0520518
0.0653041
0.00559799
0.0113599
0.00834587
0.0389486
4.18923e-05
6.41553e-07
0.00892502
0.0173087
0.00444716
2.9941e-08
0.124628
0.000325304
0.00185008
0.00762783
0.000296136
0.0289865
0.0316785
0.0380357
0.00324794
0.00754377
0.0239322
0.0136378
7.62136e-06
1.067e-07
4.90222e-07
5.67878e-07
0.0321812
0.308892
0.035992
0.0682247
0.0428802
0.0194461
2.35936e-08
3.50762e-07
0.0159347
0.0403451
0.057211
0.0392978
0.0401987
0.0228781
2.37884e-08
0.0150727
0.00038206
3.33912e-09
0.00107407
0.0155043
1.29103e-05
0.00769018
0.0104582
0.0074769
0.00113612
0.00329974
0.0076617
3.53741e-05
5.70346e-07
0.00218335
3.38407e-07
0.00566037
0.112503
0.0245858
9.3691e-08
0.0266721
0.128185
0.00736668
0.274684
6.88059e-08
0.0429061
0.0193227
6.05163e-09
0.000746732
0.00271146
8.00655e-09
0.0274344
0.012737
0.0048333
3.86922e-07
2.54102e-08
0.000628338
6.20369e-09
0.011595
2.56527e-06
1.25868e-09
0.0172272
3.1733e-05
0.217374
0.0277146
2.56003e-09
6.72834e-05
0.0013159
8.15373e-05
0.000171427
0.0131396
0.120448
0.8836
4.30972e-05
0.170669
0.000528354
4.28483e-08
0.0364726
0.0326474
1.57368e-07
0.00117662
0.000258143
7.04557e-05
0.0245271
0.0258683
0.0143545
3.21965e-08
0.288743
0.0179925
0.022872
0.00369562
7.581e-05
0.0010747
4.06284e-08
0.211469
0.305574
2.82277e-08
0.00914061
0.000292295
8.62237e-05
2.72196e-09
2.46443e-05
3.44498e-09
0.240874
0.0099187
0.00646928
0.00249007
0.00316149
1.38873e-07
0.00233673
4.54361e-07
0.0380707
1.46141e-07
5.2017e-07
0.0448777
0.0344914
2.74125e-08
1.18743e-09
0.000321141
7.13809e-08
1.1966e-06
0.000989823
1.81261e-08
5.22442e-05
6.05889e-08
0.0635357
5.79559e-08
1.43734e-06
1.6423e-08
0.00791009
3.58439e-07
0.187284
0.00181832
0.197535
6.80299e-09
0.000807056
2.00113e-06
3.55056e-09
0.30838
0.120286
0.0279579
0.0231524
2.62062e-05
0.0019333
0.0771675
0.00882845
0.00117512
0.242324
1.36849e-08
0.0238194
9.04025e-05
0.00448085
0.0478161
0.0726285
9.74952e-05
0.0221129
0.000226239
0.000624519
0.0663313
0.00216789
1.56892e-08
0.0794001
0.0464749
3.05568e-06
9.33161e-07
1.65647e-05
2.73457e-09
0.00145476
0.0553093
2.69094e-07
1.96284e-07
0.002955
2.77364e-09
0.0322033
3.17005e-08
0.000356174
6.02845e-10
0.0972654
0.0977191
0.00120069
0.0127922
0.0528472
0.0694817
1.47135e-08
2.06673e-07
0.0152783
6.47816e-08
0.000147114
1.44345e-05
0.00148468
0.0365211
0.0643235
4.14446e-09
3.93352e-05
0.0148218
0.00342146
0.0015727
0.00399236
0.00618389
0.0213964
7.98371e-07
0.0226705
0.0065282
1.66429e-09
0.106343
0.0365184
0.0137154
1.05996e-06
0.00578472
0.00625049
0.00189142
0.00369044
0.000321311
0.0138587
0.00106766
0.000177614
0.0254483
0.109365
0.000985988
6.21743e-05
0.00304041
0.696177
3.86528e-08
0.000472684
3.58582e-06
3.40485e-05
0.00719729
0.00360745
0.00235226
0.000379436
0.000139624
0.0173397
0.0107491
7.09421e-08
0.00016664
0.00123091
4.29229e-08
9.26575e-09
1.74477e-08
5.06307e-08
0.0148917
1.19567e-08
0.0297601
0.00942435
0.00271821
0.0838201
0.274071
5.09644e-05
0.00805089
0.031854
4.94885e-08
0.0555009
1.56153e-07
1.20753e-08
4.00287e-05
0.0049758
0.0995871
0.0313611
0.0065128
2.30024e-06
0.0780252
0.12185
0.0272316
0.026107
0.000835788
0.166847
0.0336461
0.05493
0.0429022
4.9328e-06
0.000330791
0.0404757
0.00727461
0.00158456
0.0267478
0.0253038
9.21563e-07
0.0104258
0.00053692
2.71594e-05
0.0331619
0.000274503
0.000553451
0.0109491
0.0391565
0.00146483
0.0200092
0.0179798
0.007694
2.79387e-06
0.00968854
0.000354125
0.00016114
0.0156159
0.0160791
0.0348017
4.48211e-07
0.00219189
3.88177e-06
7.1484e-09
0.0629721
2.89767e-08
0.116981
4.91109e-05
0.00996341
7.869e-08
0.023872
7.0687e-05
0.0410687
1.11346e-09
0.0351544
2.78904e-07
1.53373e-08
7.9989e-07
0.27343
0.000567999
2.46823e-05
0.0352722
8.94098e-08
2.35714e-09
0.225367
0.0697745
7.06395e-05
0.00185552
0.000107906
4.7354e-08
0.03597
0.00756536
0.152038
7.18715e-09
1.23532e-08
0.000344717
0.00103101
0.000111834
2.7435e-07
0.0511059
0.00639623
2.28299e-08
1.97713e-07
0.0369192
0.0401792
0.00202368
1.85354e-09
4.10174
0.237311
0.161748
2.90363e-08
1.39555e-08
0.0572283
0.000381266
3.36698e-05
0.000494541
0.143212
0.0029641
0.0121407
0.0515307
0.0557996
0.00172151
4.34421e-08
1.04934e-06
2.22653e-08
4.78699e-09
5.35562e-08
5.96088e-09
0.0208483
4.02903e-08
1.02892e-08
4.60015e-07
0.0115931
0.024445
1.20537e-07
5.2723e-07
0.105532
0.0131908
0.00908659
1.67914e-08
7.7538e-09
0.0347198
1.45332e-09
0.00198875
0.0023694
0.00363199
9.54352e-08
1.37337e-09
1.98421e-09
1.66894e-09
0.0151624
3.78577e-08
5.16718e-08
0.000911406
6.23188e-09
0.0219778
0.00172998
1.87379e-06
0.0362216
0.490252
0.00231075
0.238749
0.000265356
0.0460477
0.17515
6.93339e-05
0.0219626
0.0718935
0.0067205
1.68066e-05
0.0753379
0.660878
0.0105999
3.9258e-08
0.0029561
0.00290499
0.00141861
7.74021e-05
5.04943e-09
1.46778e-09
0.0130228
3.27135e-05
0.00270288
3.24602e-06
0.00133796
0.00120926
0.0343809
0.00062699
2.10377e-08
0.0272306
9.31477e-06
0.0195609
8.73911e-09
4.25817e-05
0.000161224
1.43637e-06
2.59995e-07
0.0348654
1.84546e-09
0.00919987
0.0518937
1.65766e-08
0.0604608
3.61488e-05
0.0301236
0.000506902
8.1118e-08
2.34906e-05
0.00166274
0.0392744
0.00377029
0.00110785
0.134499
0.000182325
0.00416673
7.69562e-07
1.01851e-05
0.413564
0.135071
2.97231e-08
0.199903
0.000811841
0.0001372
0.00949848
0.0002508
0.00096514
0.0235388
0.00896708
0.00222809
0.00692128
0.00220874
0.0370796
5.85901e-08
0.0281975
0.0252457
6.98987e-08
0.0070648
0.235665
0.0303234
2.77688e-07
0.00195268
1.49496e-08
0.0113132
0.190607
2.03201e-08
0.148423
0.284503
0.00106351
0.00416376
9.5646e-07
0.0480234
6.42842e-05
0.00186478
0.000992572
0.000251619
3.52008e-06
0.0368771
0.0079317
1.31179e-09
0.000342373
0.000522646
0.000679263
0.000394749
0.000728627
0.000146549
2.70359e-09
5.77191e-05
0.021486
3.32249e-07
0.00174315
0.291921
1.54767e-07
2.46634e-08
0.00273069
0.00280175
1.16255e-09
0.000511032
9.7499e-08
7.72896e-09
1.89086e-08
3.73962e-07
3.81407e-06
1.55532e-07
0.000385251
0.0421448
7.03914e-09
5.09268e-07
0.00379219
0.0966178
0.00179743
0.00893356
0.0264653
2.80704e-09
0.000296961
3.15591e-09
3.02378e-09
0.000487629
0.12687
0.0408268
1.20925e-08
8.76853e-08
0.0290473
1.19618e-08
0.0188096
3.8162e-08
0.00766496
2.32404e-09
0.00165741
0.0262478
4.73932e-09
6.25271e-07
5.17341e-07
0.00119958
5.4177e-07
1.66872e-08
1.70777e-06
0.00376318
0.043984
0.00481279
0.000479899
0.000907241
7.638e-08
0.00115674
0.00245118
0.0443487
3.16266e-06
0.000191245
0.00592697
1.56557e-07
7.44565e-06
0.000123681
6.10447e-08
0.0075705
0.00211762
0.00364264
0.0607819
1.46741e-09
0.0250857
0.0495841
0.000102504
6.3634e-05
8.80214e-09
0.0258395
2.83169e-08
8.67017e-07
2.36906e-05
0.0535588
4.7795e-07
0.00262885
2.28487e-05
0.00106383
1.36116e-05
2.66628e-08
3.23896e-06
2.06585e-09
0.00284905
0.00069931
0.348926
2.8505e-08
5.08664e-07
0.00247227
3.51925e-09
4.0572e-05
3.74699e-07
0.0394234
0.000702006
0.028868
4.53528e-08
0.00116747
0.000137226
5.32466e-05
0.000227479
4.64589e-08
0.00163266
0.0260792
0.117888
0.00142318
0.000345214
4.79601e-08
9.92336e-10
1.75676e-08
0.155824
0.0608015
0.0064593
5.08815e-09
0.176342
3.55963e-08
0.185761
0.00319029
5.55753e-07
5.07029e-08
2.43429e-06
5.39519e-07
0.0362937
1.78371e-06
0.000101134
0.274479
0.00609582
6.13772e-05
2.89402e-05
5.93935e-05
4.37872e-05
1.2524e-08
7.47026e-09
0.0229348
0.00046953
1.53466e-08
1.65077e-07
0.000530658
3.32363e-07
0.0014406
0.359725
1.77472e-06
0.00307893
1.83852e-09
0.0003066
2.23068e-07
0.276989
5.47178e-09
0.0999582
0.00468032
0.000847103
0.0163568
0.0309078
0.000792239
2.24058e-06
0.000459083
1.77039e-06
0.00449839
4.03985e-08
1.61823e-06
7.08673e-05
1.94983e-06
0.0574526
2.29908e-07
0.00644772
0.00728697
2.76613e-09
0.000319703
8.33044e-08
0.000700132
0.000678772
5.3934e-08
0.018413
0.000251738
5.10661e-07
0.024448
0.160842
0.00345466
0.0126593
1.29062e-08
0.0379174
7.44458e-06
1.83651e-07
0.0367398
4.18144e-06
0.107348
2.33924e-09
0.127231
0.000728755
2.12924e-09
0.00090489
3.85241e-07
3.20025e-09
0.00264319
0.000780215
0.0078398
1.42552e-08
9.58427e-07
4.70584e-08
0.000732611
4.2404e-05
0.0294147
5.64496e-06
0.000758579
5.72732e-05
0.000945824
2.64649e-05
2.79184e-06
8.48657e-07
0.0192439
0.0120795
0.0179853
0.034466
0.0377392
0.000224318
0.0390214
2.54493e-09
0.0108999
1.01865e-07
5.73892e-05
0.00037087
0.00667825
0.000351108
0.000487562
0.00232566
3.35641e-09
0.00606759
0.00688365
0.00017364
0.000999861
0.0147958
0.000759014
1.50882e-06
0.0307356
1.06921e-07
4.42468e-09
0.00022561
0.0727482
0.000829792
5.30019e-07
0.0386082
0.000515907
5.8553e-07
7.21243e-08
0.000480942
2.2807e-06
0.0477796
0.272456
0.000288972
0.000334362
0.0230268
0.00733226
1.09211e-07
2.80706e-08
6.5496e-05
0.00432876
0.0284265
0.0473228
0.0107227
1.89593e-08
0.000265406
0.0341188
2.34424e-05
0.000969754
2.57796
0.0358919
0.104063
0.0417704
0.0184858
4.30304e-09
0.00170518
5.79218e-07
1.13201e-07
1.74129e-07
1.89344e-08
0.003371
7.27783e-09
6.59512e-09
7.57193e-05
4.9058e-08
6.09837e-09
8.23584e-07
0.00988943
0.0487767
0.0114816
0.00272912
0.0629834
0.221218
5.62075e-09
0.157369
0.000137416
0.326943
0.0158611
7.68641e-08
9.53389e-05
0.00850938
0.219112
5.88537e-09
0.000965783
0.0185414
0.00329044
1.39678e-05
0.0242578
8.941e-07
2.13773e-07
0.0641067
1.28785e-08
0.00725165
1.01869e-07
4.73415e-07
0.00762326
0.000378551
0.00177221
9.77443e-07
0.000328815
0.000625245
3.52058e-07
0.000216045
6.27109e-07
0.0233291
1.24495e-07
8.53147e-08
0.214457
0.036224
0.000450057
2.37029e-07
4.19803e-09
0.00608598
0.16256
0.0052253
0.0168494
0.217469
0.0199391
9.49554e-10
0.0294343
0.00256341
0.00668994
0.0359845
0.0121297
7.62169e-09
0.161424
5.19459e-09
0.0347679
0.00827708
0.0102421
1.78403e-08
0.013263
1.06928e-06
0.0032711
0.0085257
4.18212e-06
8.22716e-10
2.82381e-09
0.00263214
0.0665515
2.77302e-09
0.0038169
0.0215739
7.68925e-05
0.00830783
0.0399232
1.9204e-06
0.0001164
0.000810603
1.03338e-07
0.00917227
1.54835e-06
0.00222937
2.8661e-08
9.28596e-09
0.0112648
7.72091e-09
0.000171207
0.00320294
2.90865e-08
6.70848e-08
0.00390528
0.00046295
0.306994
8.30709e-08
0.268007
1.54629e-06
0.000306174
0.00014015
0.00672433
7.04869e-05
0.0657792
0.00523931
4.58493e-05
0.000908693
0.0556143
9.28336e-07
2.09824e-08
0.000335143
0.000732575
0.0343841
2.12479e-07
0.0359147
0.000880586
3.79587e-08
0.194624
1.11111e-08
1.37899e-07
2.13441e-06
0.00326035
0.266607
0.0474713
4.35677e-07
1.47384e-08
2.50428e-09
1.01184e-07
9.64727e-08
5.03049e-07
8.39628e-08
2.65623e-09
4.96075e-08
5.31301e-09
1.6128e-07
0.0520133
0.0308707
7.14793e-09
1.15701e-05
6.11102e-09
3.79725e-08
9.31309e-09
0.0302519
0.0705954
0.0183407
2.98613e-08
6.20161e-09
6.6762e-07
0.00627827
3.38223e-06
1.16298e-07
0.23405
2.78722e-07
2.77565e-06
0.0219263
0.000160333
4.3556e-06
0.00643581
0.0236543
2.12411e-08
0.00223283
0.00340492
1.90028e-08
0.0121293
0.038482
0.016465
0.00286195
0.00970507
3.23999e-06
1.29937e-07
0.277816
0.0113472
0.00272874
0.0520742
0.00583276
0.00158485
0.0189739
0.0111332
0.000409096
0.0136022
0.00163694
0.00906528
3.02572e-06
0.0260146
0.00774621
0.00183263
0.00121187
5.73998e-09
5.87634e-08
2.26354e-08
1.18824e-09
1.62877e-07
0.01003
0.0124818
2.56781e-08
2.28907e-09
1.32343e-07
1.42519e-05
2.35736e-08
1.47954e-08
6.63868e-07
9.00437e-07
0.00452175
0.000201239
0.0198608
0.208652
1.20242e-07
9.79898e-06
0.0318273
7.73189e-06
3.94346e-09
2.39949e-08
0.194204
4.44445e-07
2.91142e-09
4.36754e-06
0.193773
0.0130344
0.0304142
0.0304003
9.09572e-07
0.0142673
0.000339639
0.000317292
1.6481e-08
0.010684
4.2743e-06
1.33742e-07
0.0214961
1.0168
0.167732
5.87055e-06
1.21467e-06
0.0144173
0.0223145
0.0171626
0.0051529
0.00490736
1.63725e-08
0.000510991
0.000348303
0.0523165
7.72206e-06
0.231169
1.68682e-08
0.00194661
0.0254171
0.0157139
0.0102204
2.86107e-06
0.00466196
2.99735e-08
7.80233e-06
3.9829e-09
5.46305e-09
0.00261286
0.786752
6.82336e-08
3.43948e-09
0.000358278
0.0236151
0.00117954
0.00616488
0.0320763
0.00320557
0.0176371
1.74063e-05
3.47629e-06
0.0001747
0.0298909
0.0050022
0.00281229
9.55813e-07
8.67322e-09
0.000130625
0.0203854
0.00250792
6.09656e-09
0.123129
0.0505435
0.00728155
0.0055544
2.46134e-09
0.000163293
0.00614711
0.0224007
2.43363e-09
0.000337115
0.0133082
0.000940478
0.171149
0.00421087
0.00721328
0.000205786
0.00336405
0.0204496
0.0365705
6.95125e-05
0.0226004
9.90142e-05
0.168136
0.00010271
1.17686e-09
0.00196764
0.00580901
0.000327203
0.0107093
0.000404719
0.000876782
0.000389719
0.0301678
0.00308003
4.3751e-05
0.0351046
0.000849361
9.0114e-08
2.16599e-08
0.0855137
0.000442499
0.00106139
1.04645
0.0331984
0.00894707
0.00035893
0.0395261
1.96186e-06
2.67181e-06
0.00416213
3.47961e-05
0.00257352
0.00504297
0.00167729
0.0047491
9.72354e-09
0.000215837
0.103213
1.67211e-08
0.0303436
0.00660422
7.02232e-06
0.00301245
0.000486648
3.95326e-08
0.000489027
0.115903
4.22736e-08
6.99844e-09
1.60783e-08
0.122736
0.209856
0.0135547
0.0456758
0.00491734
0.0287014
6.90602e-06
0.00678993
0.0105059
0.022714
0.00135582
0.0957491
0.288093
0.339548
0.00877541
0.00731036
0.035862
0.151433
0.305622
1.12588e-08
0.149836
0.0523233
3.2849e-09
0.000339577
3.8344e-07
4.57972e-08
3.47279e-08
1.99958e-07
1.088e-08
0.117007
5.39943e-08
0.00550886
0.00148448
1.18875e-08
0.00419784
6.21834e-06
0.0139819
1.0408e-07
0.000502443
5.29859e-06
0.0201566
0.000176305
5.33296e-06
0.00314569
0.0252389
0.0164481
0.00363936
0.0211959
0.00282891
0.0182143
0.0511611
0.00798345
7.2372e-07
0.00116055
0.000370984
0.00478655
0.0114416
0.000643556
1.11728e-06
4.89265e-05
8.79509e-08
0.003768
0.0353078
0.000438962
0.278472
0.00151712
0.000308969
2.94428e-08
0.0527076
1.47096e-09
0.00727241
0.0197341
0.00148395
7.58481e-05
0.00175599
0.00615905
0.00223261
0.000877674
0.00695987
0.00587923
0.0023232
1.87104e-05
0.0639352
3.01738e-07
0.0131192
0.00982886
6.05971e-07
2.22388e-08
0.000215621
0.00787066
0.0190267
7.7312e-09
0.00193405
0.0380387
0.000171255
0.00502703
0.0792001
3.9315e-09
1.16824e-09
0.00379749
2.1237e-09
0.000109293
0.0112788
1.83936e-05
0.00983738
0.0319255
0.0166981
4.14101e-08
0.00107694
7.62479e-05
0.000114671
0.0461416
2.42059e-08
8.57381e-07
0.0107661
0.000452989
8.96407e-07
0.137696
0.00124412
1.50546e-08
3.90082e-08
0.000193667
7.61436e-05
0.00227468
0.0034315
0.02169
0.20282
1.01434e-09
0.000273733
0.000605155
0.0364246
1.43348e-06
0.0406675
0.0711727
9.74548e-05
7.15066e-06
1.6639e-05
1.22611e-08
1.37986e-05
2.26773e-05
0.000308862
1.53259e-05
0.000353357
2.19767e-05
0.000498122
0.00028613
0.000461231
0.000106427
1.56566e-08
0.0241577
0.00949963
5.62119e-06
0.0847129
0.000205058
0.000175114
1.14818e-05
0.00102076
0.000214314
0.00235214
0.000308112
0.00114873
1.6341e-05
6.91744e-09
0.000993902
0.000341805
0.0572532
1.75298e-06
0.0375472
4.12402e-05
0.0355393
7.11523e-05
7.46149e-07
0.000324063
0.0268144
0.00795948
9.45526e-09
0.000293079
9.75133e-06
0.00252902
0.0010189
0.286653
3.63218e-05
1.57499e-06
0.0194125
0.00131326
0.00463634
0.0273639
0.0603065
7.20167e-09
0.0102357
0.00308609
0.044727
1.70926e-08
0.000966074
4.86321e-07
0.0366111
5.49611e-08
9.05554e-09
0.00277007
0.00168006
0.00209025
0.290042
0.0338637
0.0270908
0.0338807
0.0154374
0.183711
0.0349827
0.00603327
0.0039786
0.00476403
0.000461922
0.00931943
0.0320532
0.00169237
0.00117419
0.0313254
1.58805e-06
0.00282803
4.82533e-07
0.0161282
2.21572e-06
6.96281e-07
0.0015303
3.55411e-06
0.00664732
2.00867e-08
3.03731e-07
0.0652871
1.08161e-08
3.72272e-08
0.000701533
6.2686e-08
0.000744921
3.00026e-05
0.0533313
0.018169
0.221657
0.00792875
0.00779717
0.0341775
0.526622
3.93402e-10
0.0662911
0.0239703
0.0176603
0.020334
0.00202276
0.0533662
5.3725e-06
6.01426e-06
6.70402e-07
0.106859
8.92914e-07
7.7219e-08
0.0156816
5.44962e-07
8.21263e-09
0.00467029
2.1139e-06
0.236798
6.54634e-05
2.9761e-05
3.84558e-05
4.84599e-05
0.00157081
0.00586271
1.81938e-09
0.0211911
0.000341004
1.78615e-05
0.0928784
6.37044e-08
0.0140995
0.0169466
0.0032489
1.89104e-08
0.0168451
0.00910305
0.000740991
0.00455486
0.0111782
2.94164e-08
1.22411e-08
0.00138264
1.46552e-08
1.57421e-09
3.8967e-09
0.0182006
0.301506
0.00431939
0.00182093
5.81714e-05
0.0435897
0.0433778
0.00386486
0.00260031
0.00767556
0.019537
0.00232299
3.09391e-09
1.16658e-09
2.58114e-09
0.00606297
7.61845e-08
0.297006
0.000442708
0.000740921
0.00154901
0.00229901
0.0238349
1.50029e-08
0.0507296
0.00224504
0.000344782
1.30958e-06
2.71501e-07
9.35322e-08
0.395118
0.000246377
0.000452088
0.000736071
0.00811114
0.185005
2.748e-07
2.69043e-07
5.13605e-07
0.00351861
0.0185
0.018129
0.0306833
0.00213918
0.00285932
2.61434e-06
7.39321e-10
0.000158604
3.48667e-07
0.137732
0.0197477
1.66099e-07
1.12663e-06
1.68674e-05
0.0519158
0.0254692
1.41078e-05
0.011916
0.0775173
0.00112179
0.349546
0.0383285
2.40775e-05
0.0200132
0.14301
0.0159595
1.01113e-05
0.00438607
1.35783e-08
0.0128023
0.0014032
0.0226178
9.41725e-06
0.000313909
2.56779e-09
0.01981
1.3414e-08
2.51167e-05
0.343345
1.1209e-07
0.00508139
0.00118893
3.54318e-07
3.79387e-08
0.00190394
3.90826e-07
9.20972e-08
0.0139408
7.54951e-05
1.23222e-08
0.0199389
0.0376243
0.0145932
2.45915e-09
2.31791e-09
0.000463515
0.00229047
0.00275314
5.54962e-09
6.76566e-08
0.000110788
0.00330613
0.00163119
0.0110877
0.30522
1.83632e-09
0.117073
0.0127058
0.00597422
0.0454981
9.59715e-07
2.14204e-08
0.0195316
3.02168e-09
0.0274483
0.0066492
0.00489948
9.30205e-07
8.21827e-09
6.48331e-09
1.45223e-08
1.74406e-05
0.112591
0.180713
0.0019987
2.04499e-06
1.15265e-09
0.0477139
0.187351
0.0306214
0.103786
1.13714e-07
0.000817501
0.000200869
2.06645e-07
8.93442e-09
0.00308927
0.0063117
1.86002e-08
9.576e-06
0.00266733
0.051342
0.172719
0.000953244
2.04129
1.06274e-08
2.79411e-07
0.0130604
0.000586721
2.82382e-05
0.641863
0.000463561
0.00661006
1.25275e-08
7.01091e-08
1.10012e-05
0.0498494
0.00608926
0.151489
2.18094e-08
0.0221346
0.0169343
0.84281
1.16137e-08
7.39246e-09
8.27682e-08
3.69947e-08
0.00593522
0.000266291
8.37951e-09
0.0319056
0.0160929
0.133378
0.00532477
2.09002e-06
1.41305e-06
0.0266685
1.08026e-05
2.1507e-08
1.30808e-08
1.7878e-08
0.0216196
7.9252e-06
0.0471046
0.0456032
0.0233999
0.0127532
1.29031e-08
1.91575e-09
2.27519e-08
0.0142585
0.000204161
1.7284e-07
3.67759e-08
5.27816e-09
0.018785
0.00223601
0.00967966
0.0345615
0.00197845
0.259598
0.00415424
3.96066e-07
1.86442e-09
2.19264e-07
0.045763
5.98942e-10
0.0203529
1.83401e-08
0.0155199
3.73867e-05
0.00139767
0.000121406
0.00205497
1.13466e-08
1.03601e-08
0.308146
0.189057
2.93381e-05
0.00320699
4.22141e-07
0.000384258
8.31121e-05
2.60312e-06
2.81463e-06
0.000249038
6.85354e-08
0.000892671
0.0335115
0.033563
1.73593e-07
7.00042e-05
7.88058e-07
0.0291806
0.14955
0.000139236
3.74681e-09
0.0078784
2.95195e-07
0.00318132
0.0185581
0.0011741
8.57646e-09
0.000748424
0.000444389
0.000106583
0.00483494
9.8503e-05
0.00141554
4.89226e-06
2.22598e-09
0.000132509
0.00452553
0.000255699
5.04139e-07
8.12248e-06
0.000102965
0.485681
8.33155e-09
6.81391e-08
4.08914e-08
2.49845e-09
1.17127e-07
0.0185003
0.000477434
0.00102546
7.43601e-05
0.000170317
0.00118249
1.72437e-09
0.00596946
6.59742e-09
4.54995e-07
1.3922e-08
1.81384e-05
0.00167988
1.37012e-05
1.12769e-07
1.31835e-08
0.0144934
1.01434e-07
5.744e-09
0.131251
7.60722e-06
0.0526973
0.0937517
0.462327
2.96048e-09
0.198037
1.1854
1.42243
0.651325
1.6943e-09
3.08884e-09
0.00467794
0.0046993
5.71859e-05
0.00555315
0.0343719
0.0301737
2.65512e-05
3.64038e-06
0.00103444
2.6084e-08
4.07976e-09
9.5848e-05
0.000330297
0.0223401
1.06657e-08
0.0982829
0.000105209
2.70783e-07
9.51348e-05
0.00747673
0.00130021
1.90719e-06
0.00681973
2.16235e-09
0.00284918
0.00183848
0.00632871
6.23915e-08
0.0014886
0.00502308
9.41317e-06
0.002735
6.09228e-08
0.0311063
4.69002e-05
0.00956392
7.84845e-07
0.162371
4.1809e-08
7.83195e-07
2.39545e-08
0.0982825
0.100983
1.77304e-06
0.0114759
0.00760784
0.0471308
1.77991e-08
0.0318702
0.018715
0.177066
1.08379e-06
0.165607
0.0237862
0.0453048
0.00298772
1.32609e-07
0.0567337
1.25603e-06
0.215097
2.39187e-09
0.0020578
0.00336873
1.1196e-07
6.74743e-05
1.16317e-06
0.018161
1.50834e-08
0.034053
1.9015e-07
8.76485e-06
9.69078e-07
4.37526e-07
0.000248151
0.00166244
0.131423
4.54526e-06
0.000203741
0.0394741
1.1158e-06
0.0368207
6.90292e-07
3.07288e-06
2.26876e-06
0.00465567
7.46684e-10
2.4229e-10
3.27199e-09
0.00260181
5.69249e-08
0.0547516
1.84559e-05
0.002654
5.47574e-09
0.00455686
0.307609
0.00454499
0.00514172
0.0209865
1.03114e-05
1.91635e-07
8.26612e-08
0.0029218
0.00180995
2.47884e-06
0.000454058
0.00047288
3.9192e-08
1.66947e-08
0.312014
5.32789e-08
0.0207974
1.85514e-08
0.00206806
0.0033966
1.8048e-07
4.86083e-09
0.0391385
3.01005e-09
1.70769e-09
0.0185829
0.0483291
0.00352134
1.7862e-06
1.54183e-08
0.00574198
4.44104e-06
0.012892
5.07709e-06
1.44569e-08
0.00204908
7.84659e-05
0.128502
1.3676e-08
1.14214e-08
8.79409e-09
0.0036976
0.166103
8.36189e-07
1.77485e-08
6.27761e-06
0.00098373
2.40458e-08
0.0196507
0.0265198
5.60115e-08
2.36797e-08
0.0054205
2.30068e-07
1.67856e-05
2.2166e-09
2.07536e-05
4.09656e-09
0.061403
0.000289503
1.16146e-07
8.25104e-09
0.0583875
2.92171e-08
0.0480893
2.08723e-07
3.60262e-08
8.36774e-06
0.00793027
0.037954
0.00674737
0.0427178
0.0519538
0.554187
0.00238305
0.034561
9.20699e-06
1.4344e-08
0.00186852
0.114809
0.0316877
0.036131
5.90062e-09
0.00553538
1.67975e-08
0.00322057
8.55957e-07
0.00979805
0.000141715
0.0544391
4.17573e-07
7.25714e-09
0.0184401
0.000246465
2.28128e-08
0.0268664
0.000323857
1.69538e-06
4.42984e-10
0.0362409
0.0104789
0.00566058
0.000544165
0.001286
0.0161847
0.000698844
0.00521304
7.50114e-06
0.0237806
0.000103902
0.000385103
7.34045e-09
5.62805e-07
2.45645e-08
0.00794836
6.63684e-08
2.03102e-06
6.55588e-10
0.000324864
0.32653
0.0727059
0.00263509
2.85081e-09
0.00363145
0.0447776
0.0859024
0.00478351
0.000226487
0.039919
4.39296e-07
3.45052e-07
2.78489e-09
0.002435
0.00130757
4.82024e-08
1.24853e-08
0.00194047
1.48156e-07
0.764662
0.0461927
0.0872605
1.00802e-08
8.89771e-09
0.0360159
4.38982e-09
0.00908635
1.93397e-08
0.000555985
4.77729e-09
0.00877463
2.95404e-08
1.35679e-08
0.000904186
0.127342
0.0553341
1.47242e-08
0.0590684
4.30405e-08
0.00405665
0.192303
0.096635
2.27668e-07
0.000514112
5.42603e-09
1.55593e-06
0.00023392
0.0162391
0.000281632
1.43142e-08
0.000381379
0.00350782
0.00470715
0.00796457
3.03197e-07
2.74464e-07
2.76124e-06
5.40181e-07
2.83917e-09
2.00909e-09
0.060958
0.0318384
2.64585e-08
0.0683258
2.29455e-09
1.86904e-08
0.0703414
6.64886e-09
1.45808e-09
0.0321208
3.51706e-08
2.0237e-09
1.04296
2.59376e-09
1.31558e-09
0.00167053
0.0767618
1.39169e-07
0.0317821
1.28392e-08
0.0209592
0.0407373
5.17265e-06
0.000723583
7.18694e-10
5.2598e-08
8.90197e-07
1.11393e-07
0.282145
0.0369201
0.000279095
2.85218e-08
0.0396331
9.10072e-10
1.01221e-08
6.58975e-09
0.0852194
0.001471
0.000146596
1.98174e-09
1.08597e-06
0.0412287
0.00075125
3.75485e-07
0.000223066
0.0898902
0.0697621
3.03913e-05
0.0696411
0.000781661
0.0365609
3.53082e-05
0.0542877
0.000288449
0.0302086
1.28381e-06
0.00600037
0.000385393
0.000768006
7.86841e-10
0.0014733
7.93977e-08
0.00399615
0.0215208
9.53226e-07
0.00241086
0.000259894
1.56233e-07
0.008881
6.78304e-08
1.6615e-08
4.38131e-08
4.06263e-08
4.25166e-06
2.62899e-08
5.17008e-08
5.5898e-08
0.24749
3.6281e-05
1.14524e-09
4.29836e-09
6.7062e-08
1.19517e-07
0.0304955
0.788888
0.00175709
0.000119356
2.12735e-08
0.0017733
0.00122739
0.0396902
2.70285e-05
1.08904e-05
4.41257e-07
9.00019e-07
2.06139e-06
0.000187495
9.861e-05
0.149037
0.0575202
6.15587e-08
0.000834384
0.000250764
5.89081e-09
0.025681
4.24821e-06
3.78779e-08
1.39544e-06
0.159633
0.0532485
5.51713e-10
0.0227772
2.51629e-08
0.0394657
4.42016e-05
0.0304041
0.0495193
7.56905e-09
6.74103e-09
2.9972e-08
2.12639e-05
0.00571289
0.227794
0.0288119
0.0440254
0.00379663
0.000433473
2.61467e-09
9.80247e-05
0.120278
0.00140538
7.96182e-05
0.00246276
3.49682e-06
0.0825237
7.11206e-08
0.209962
0.0328405
1.23651e-08
0.000407771
0.0061426
2.45709e-08
0.010929
2.70836e-08
1.82868e-07
0.198381
0.0263421
4.38599e-08
3.81567e-09
5.57508e-07
4.72648e-09
2.95457e-09
0.000105282
1.82836e-08
2.53121e-09
0.0031803
8.33554e-09
8.22424e-08
2.11302e-07
0.000182152
1.75547e-07
0.000138712
1.13553e-07
4.76933e-08
1.89801e-05
5.52909e-05
0.00304312
0.0349597
6.74388e-05
0.00441864
1.96499e-06
0.265036
0.261996
9.14212e-08
0.00302661
1.73353e-08
0.0371879
0.0325671
0.000335039
0.0731685
0.0586504
6.06206e-06
2.47438e-09
0.00207989
1.46723e-08
7.96905e-09
3.59721e-07
1.3203e-05
9.36817e-09
1.45511e-05
0.0387414
4.40807e-09
3.22232e-08
0.338243
1.29958e-09
0.0139834
6.78489e-06
0.00114323
4.72025e-09
0.000362476
0.000123382
0.199306
0.00965457
0.0194014
0.000153839
0.0378066
0.000224185
0.0610488
0.000120608
0.000194991
0.010627
0.0489385
0.000271754
0.00109505
3.49581e-06
1.09607e-07
0.000968036
0.000234313
0.0186104
0.0110691
0.000131773
1.45239e-06
0.00561503
0.00450429
0.0167214
2.04004e-09
0.0114081
0.0149203
0.00275113
0.00122004
0.000821425
0.00356791
0.0187082
0.0377572
0.00666598
0.0115794
0.00744099
7.49889e-05
0.00259371
0.00340971
0.000900772
0.00303996
0.014151
0.0124103
0.0209398
0.00010163
0.00935149
0.000347375
0.0048248
0.00254453
0.000394525
0.00274389
0.000167523
0.0613605
0.00399061
0.00120097
0.00011356
0.000603876
0.0159345
0.00213778
0.170782
0.00315827
5.7778e-09
0.193172
0.0403485
0.0232248
0.00687845
0.0203342
0.000358809
0.00876958
0.389114
0.00175534
0.00185056
0.00210102
0.149737
0.00135078
0.0631364
6.88313e-05
4.96931e-08
1.04819e-08
0.0020392
0.00231246
0.0116393
0.0607318
0.00797768
0.0578615
0.0558431
0.0460167
2.27854e-08
0.00880521
0.0030712
0.0314229
8.99229e-07
0.00575403
9.40404e-08
0.190413
0.0110381
0.00671998
0.185621
6.74914e-09
6.18926e-08
0.00182911
0.00141705
0.000628028
1.22604e-07
0.00646002
0.000841149
0.0835279
8.39601e-07
0.0215777
0.0036085
0.000286342
0.000189323
0.00197536
0.00150505
1.92536e-07
0.00152268
4.44385e-05
9.40007e-09