/*--------------------------------*- C++ -*----------------------------------*\
  =========                 |
  \\      /  F ield         | OpenFOAM: The Open Source CFD Toolbox
   \\    /   O peration     | Website:  https://openfoam.org
    \\  /    A nd           | Version:  10
     \\/     M anipulation  |
\*---------------------------------------------------------------------------*/
FoamFile
{
    format      ascii;
    class       volScalarField;
    location    "7.5";
    object      SgT;
}
// * * * * * * * * * * * * * * * * * * * * * * * * * * * * * * * * * * * * * //

dimensions      [1 -1 -3 -1 0 0 0];

internalField   nonuniform List<scalar> 
111485
(
3.05393e-14
0.00850373
0.0224099
1.16057e-14
0.0467981
7.3994e-16
0.0432915
0.00614622
0.0179396
0.00106663
0.0429228
0.00941084
0.00432232
0.000468724
0.00587364
0.0312003
0.00174855
2.4921
0.0100449
4.82782e-13
1.21782e-14
9.49663e-16
0.0256988
0.0349959
0.00839648
6.44442e-15
0.0406605
0.00193192
0.016899
3.26489e-16
0.0429751
0.0174093
8.52116e-13
1.40024e-15
0.00813296
2.89645e-15
0.010189
0.00377616
4.99638e-08
0.0225825
1.15455e-14
0.0714392
0.0153354
0.00132862
4.69385e-05
8.82571e-14
0.0312858
0.00071604
0.0480711
1.15022e-14
5.35754e-15
2.04717e-13
4.46925e-15
0.0469288
4.29427e-14
0.0420607
0.00348768
5.8468e-15
2.28062e-05
0.00475281
0.0157828
1.63583e-14
0.00394809
0.0909367
6.20174e-14
0.00361036
0.308777
0.0961215
0.000879256
0.00573187
9.65341e-06
0.00576549
4.95341e-14
0.00240942
1.40694e-13
0.000740954
5.12524e-15
0.0410183
5.05654e-15
4.53897e-13
8.64815e-06
0.0336723
2.85514e-15
8.61588e-15
0.00837571
0.00419309
4.15911e-10
0.0235031
5.11846e-05
0.00662865
0.000477521
0.0397223
0.0104752
7.37362e-05
0.0542333
1.27694e-13
6.50367e-14
0.00162002
1.77355e-08
0.00134286
4.52052e-14
0.0193843
1.25162e-15
0.0196971
0.0045381
7.44815e-14
5.47126e-16
0.0078241
0.00375028
8.91825e-08
0.00888473
0.00488352
0.00339511
0.0029427
2.1509e-13
3.33272e-05
1.51648e-14
3.06854e-15
0.0112718
8.26265e-14
6.29252e-15
2.70025e-13
1.00437e-15
1.83978e-15
0.00169829
2.4782e-06
3.61292e-15
0.00166576
1.28539e-14
6.89147e-05
0.00115376
0.0301761
9.88566e-15
6.76388e-13
3.27094e-14
0.0492817
5.62505e-15
0.0416133
0.0232022
0.00226667
0.000212048
0.0019535
0.0216443
0.00297071
0.00364669
0.012182
1.19113e-14
2.36131e-15
7.0112e-15
0.0269021
0.00181358
4.75321e-14
1.73365e-07
0.00528237
5.11435e-07
0.0106156
0.0161122
0.0102807
9.34671e-08
2.51222e-15
7.81292e-15
0.0526952
0.0237306
2.66522e-06
2.80261e-07
0.00470067
0.003751
3.72999e-15
6.19742e-06
5.48048e-05
4.3346e-15
2.82036e-14
0.000132787
2.60691e-15
0.00726136
0.00229991
3.89816e-15
3.87296e-14
2.12381e-14
1.75932e-13
5.01941e-15
2.86594e-14
0.00139182
0.00674808
0.0286215
0.00441227
0.00709955
0.00322035
9.14149e-05
4.80242e-15
0.00372992
9.1748e-15
1.26711e-14
0.00551163
0.0106213
0.0254168
0.0112917
0.00377658
7.08295e-14
0.00642552
0.000647973
4.51203e-05
0.0126548
0.00233344
2.84804e-14
0.00337375
0.0262439
6.21367e-14
0.000204154
0.0073755
0.00237325
0.00033089
1.80753e-14
1.4421e-13
0.00662667
7.18121e-12
0.119822
9.96275e-15
0.00569305
0.0186753
0.120054
1.99377e-14
0.00251236
0.0131353
2.62068e-13
7.05951e-15
1.45337e-15
0.160957
3.83495e-07
6.6502e-14
2.84066e-14
0.00850028
0.00876187
0.0150203
2.75071e-14
3.5695e-13
1.00472e-05
9.05382e-14
0.00234907
0.0082653
0.0146178
0.00988708
0.00924316
2.48026e-15
2.91078e-07
0.000567547
4.268e-15
3.24933e-15
0.0309382
0.0215212
2.22554e-14
0.0055136
0.00969851
3.01643e-14
5.2552e-13
0.000123597
6.63017e-15
5.5335e-14
3.83737e-05
1.56506e-14
0.0151057
0.0111241
0.00357099
1.08076e-14
0.0109679
5.72651e-15
3.45517e-14
3.3341e-14
2.37853e-08
0.0222963
0.00527817
0.00493819
0.0376465
0.0109557
0.00160903
0.00061071
0.0345258
0.00950027
1.29251e-14
3.61882e-14
2.85633e-07
0.0219306
0.0235859
0.0122507
1.42071e-14
0.00654744
0.00205594
0.00278915
1.88145e-06
3.92362e-06
0.0130693
0.00198195
0.00178245
1.76506e-14
0.000789835
6.64095e-16
1.53972e-07
7.13497e-13
0.257495
0.0699437
0.0130277
3.70962e-14
2.80365e-15
0.00852772
0.00205068
1.36862e-13
4.22928e-14
5.16636e-14
0.00036981
0.0630341
0.00369123
0.0147272
0.0194277
7.98449e-14
4.56218e-15
4.81295e-14
0.00348493
1.70492e-12
0.000862361
0.189541
4.43692e-07
5.59815e-18
3.97912e-14
5.3751e-14
7.08485e-13
0.0584839
0.0122847
5.05951e-15
0.00504773
2.82032e-13
1.67794e-14
0.0653
0.00559789
0.0113584
0.00834422
2.98249e-13
4.18779e-13
2.177e-15
0.0089244
0.0173084
0.00444152
3.43174e-15
2.30493e-10
0.000197521
0.00184965
0.00762546
4.67502e-05
0.0289862
3.30422e-15
0.0380353
0.00324046
0.00753846
0.0239319
0.0136215
3.29482e-15
1.11418e-13
1.04997e-14
1.6545e-14
0.0321795
0.00938758
0.0359705
0.0682246
9.46307e-15
0.0194334
3.45676e-16
3.50971e-14
0.0159343
1.75115e-14
0.0567025
2.74923e-14
1.68663e-16
0.0228779
5.39696e-16
0.0150716
0.000379963
4.2344e-17
0.00106885
0.015502
5.23997e-14
0.00766934
0.0103591
0.00747328
0.000563889
0.00329936
0.00765852
4.75119e-13
4.5677e-14
0.00164815
4.57496e-15
0.00564852
0.112501
3.631e-14
9.66708e-15
0.026672
0.000107723
0.00736327
0.0209376
8.27398e-15
0.0429025
0.0193202
1.17739e-15
0.000742812
0.00267716
5.76258e-14
7.34299e-14
0.0127355
0.00483135
6.74152e-15
2.86346e-16
1.93216e-08
3.35529e-14
0.011588
5.82966e-16
6.31905e-14
0.0172265
1.97917e-06
0.0131801
0.0276156
3.96798e-15
2.70455e-13
0.00123395
4.69191e-14
0.0001408
0.0126366
0.120446
0.882668
5.27058e-15
0.00268319
0.00035671
2.74706e-13
0.0364671
0.0326465
6.29461e-15
9.36373e-09
0.000101791
3.03383e-13
0.024526
0.0258674
0.0143467
4.98615e-15
0.000606464
0.0179916
0.022845
7.77703e-07
1.4007e-13
4.99209e-10
6.1815e-15
1.3878e-05
0.0330574
4.11355e-15
0.009116
8.74881e-05
1.30527e-13
1.18429e-14
9.4471e-14
6.47273e-14
0.00371941
0.00985989
0.00645467
0.00241096
0.00314387
5.54267e-15
0.00233554
5.9767e-14
0.0380181
8.59024e-15
2.6073e-14
7.22659e-14
0.0344225
4.11668e-14
7.21506e-14
2.48675e-07
1.19612e-14
6.0368e-16
0.000986874
6.99063e-15
3.11443e-13
1.08945e-16
9.13854e-15
8.90436e-14
4.12094e-14
3.33789e-15
0.00774009
5.59964e-15
0.000427492
0.00180292
0.00119096
5.4391e-15
0.000754141
3.8874e-15
1.43006e-14
0.00273323
0.00182217
0.0279387
0.0231498
5.11989e-14
0.00193241
0.077158
0.00882803
0.00114076
0.00323043
2.03228e-14
0.0238174
3.29939e-13
0.00446745
4.73616e-15
0.0726242
2.14151e-13
0.0221113
0.000225214
2.02546e-07
2.8234e-15
0.00215621
5.84295e-14
0.0793991
0.0464713
1.87044e-15
4.35e-15
2.1573e-13
2.22349e-15
1.33132e-09
0.0553092
1.05918e-15
9.52346e-15
0.00289011
2.05617e-15
0.0321964
4.20453e-17
0.000350065
7.34874e-14
0.000531627
9.70123e-07
0.00118673
0.0127919
1.30237e-15
0.000280948
1.93859e-14
2.08473e-15
0.0152679
4.82933e-15
3.37901e-05
6.84029e-14
0.00147426
2.13086e-13
0.0643223
2.81649e-14
1.92176e-13
0.01479
0.0033726
0.00157175
0.00398029
0.00617535
0.0213957
1.49385e-14
0.0226519
0.00650243
2.94061e-15
7.72935e-08
0.0364621
0.0136806
1.73925e-13
0.00478496
0.00622569
0.00153075
0.00119764
2.2123e-10
0.0138543
0.000998795
0.000168316
0.0254313
0.0145661
0.00081805
7.02005e-14
2.95953e-09
0.631947
3.81937e-14
0.000425888
2.08651e-15
3.564e-13
0.00719656
0.00316876
1.80268e-07
1.16113e-05
5.19259e-13
0.0173193
0.0107474
8.88917e-15
8.41443e-11
0.00122833
2.13595e-14
3.02814e-15
3.43953e-17
6.49481e-14
0.014883
6.37423e-15
3.19639e-14
0.00941409
0.00270287
8.92627e-14
0.00978266
1.17851e-13
0.00804863
1.07213e-14
1.56277e-15
0.0554858
3.90033e-15
1.54371e-14
7.40807e-13
0.00495876
1.30449e-13
0.0313403
0.00651241
1.59362e-14
0.0780016
0.00252523
0.0272263
0.0260846
0.000780562
8.37215e-05
5.91462e-15
0.054928
0.0428885
5.4545e-14
0.000329023
0.0404707
0.00727363
0.00156035
0.0267447
0.0253022
2.07816e-14
0.0104226
5.5634e-06
8.57736e-14
0.0331585
0.000271024
1.33614e-14
0.0109467
0.039156
0.00145341
0.0200068
0.0179674
0.00769104
3.35554e-13
0.00968609
0.000330651
2.22194e-11
0.0156046
0.0160632
0.0347999
2.40973e-15
0.00216395
9.56244e-15
1.61047e-15
3.75551e-15
1.54308e-15
1.53069e-05
2.44677e-13
1.77248e-10
1.3265e-13
2.40193e-15
6.9503e-05
0.0410585
7.78443e-14
0.0351488
9.33255e-15
1.74718e-13
8.41466e-14
0.0394766
0.000474986
3.43493e-13
3.25179e-14
2.87373e-15
5.01299e-16
0.225364
0.069773
3.2545e-13
0.00185509
3.01949e-06
2.13515e-15
0.0359643
0.00746587
0.0132273
7.39711e-16
1.09361e-14
0.000342412
0.00103029
3.07865e-13
1.61264e-14
9.63515e-14
0.00639549
2.73275e-16
1.46909e-13
3.01264e-15
0.0401743
0.0019223
4.50114e-16
4.09749
0.236464
0.0110649
1.50515e-16
1.49403e-14
0.0572253
0.000361825
1.02574e-13
6.84921e-06
0.142928
0.00277433
0.0121379
2.64477e-13
0.0557798
0.00172092
3.08495e-15
2.48729e-14
3.24541e-15
3.91103e-15
5.69007e-15
8.14152e-16
0.0208457
9.62349e-14
7.5798e-15
4.34449e-14
0.0115929
0.0244445
1.86501e-14
1.79942e-14
0.105532
0.0131802
0.00907555
3.50316e-13
3.16457e-15
0.0347039
1.15178e-14
0.00192685
0.00236803
0.00362983
4.21122e-15
8.36438e-14
9.51237e-14
9.70703e-17
0.015151
3.44964e-15
1.26068e-15
0.00089445
2.00526e-14
0.0219669
0.00166409
5.99971e-14
0.0362195
0.489813
0.00230836
0.0300041
0.000182021
0.0460409
1.52225e-10
8.78006e-13
0.0219572
0.0718725
0.00671998
1.78953e-14
9.09842e-10
0.660301
0.0105994
3.2833e-15
0.00294602
0.00283809
0.00134106
4.76758e-14
1.18921e-13
4.79928e-15
0.0130218
4.88832e-13
0.0026992
1.04764e-13
0.00120143
0.001208
0.0343644
0.000626899
5.54118e-16
6.22256e-15
4.96755e-14
0.0195607
6.87981e-15
2.31745e-14
5.15206e-05
3.52329e-15
1.51379e-15
2.79043e-15
1.13001e-15
0.00918298
9.39085e-15
2.26227e-15
5.34808e-10
1.9045e-13
1.84701e-15
1.33195e-13
4.8968e-15
3.58766e-06
0.00164901
7.83154e-15
0.00373032
8.56277e-06
3.41145e-07
6.99432e-05
0.00416004
1.54257e-15
9.26226e-06
0.00987574
0.00037152
8.07906e-14
4.92226e-09
0.000802828
8.32867e-14
0.00947971
0.00023327
1.8806e-06
0.023511
0.00895882
0.00222221
0.00692101
0.00220787
1.89416e-15
2.00563e-14
0.0281656
0.0252279
8.8024e-15
0.00706268
0.0557108
0.0303217
9.44219e-14
0.0014534
1.09465e-14
0.0113113
0.0147245
2.88453e-14
0.00128236
0.000539491
1.34567e-06
0.00415054
3.47368e-14
0.0480215
1.68027e-05
0.00166872
3.53611e-05
1.48813e-05
5.66333e-16
2.50093e-15
0.00784579
1.21291e-15
0.000109692
0.000295143
0.00016921
5.35413e-08
7.50767e-08
1.04455e-06
9.98402e-16
4.12916e-13
0.0214849
9.18119e-14
0.000413576
0.00214298
2.57977e-14
1.65671e-14
5.27654e-07
7.41606e-10
1.23106e-15
4.0341e-06
1.59207e-15
1.99527e-15
2.6507e-14
4.73751e-14
3.00588e-15
4.24898e-14
0.000325351
1.64561e-14
3.77627e-15
2.19377e-14
6.27379e-06
5.53637e-05
0.00174482
0.00893325
1.41105e-15
6.4359e-15
0.000190249
1.14189e-15
1.05496e-14
9.6042e-14
0.019073
0.0408248
7.79618e-15
8.90523e-15
4.47596e-14
1.97632e-15
1.15905e-15
8.81081e-16
0.00758079
5.35774e-15
3.69079e-08
0.0262454
1.39308e-15
7.85426e-14
2.52887e-15
2.08933e-05
4.48226e-14
3.80842e-14
3.03299e-15
7.48783e-06
1.02846e-15
0.00475378
1.10743e-06
4.1398e-09
1.98669e-15
5.62666e-05
0.00244313
0.0443484
3.1527e-13
6.28009e-06
0.00591056
1.78408e-14
6.37994e-15
6.27422e-13
1.74885e-14
0.00756969
0.00211708
0.00362982
1.74762e-07
1.47751e-15
0.0250851
3.84099e-14
1.43851e-13
3.00285e-13
3.9867e-15
0.0258387
1.41727e-15
2.82356e-14
2.03072e-06
0.0535253
1.54184e-14
0.00260609
1.67853e-13
0.000997488
2.00383e-13
3.30761e-15
9.70805e-16
3.06453e-14
0.00284869
0.000654748
0.348778
1.79632e-15
8.34285e-14
0.00247035
4.40922e-16
2.50944e-13
1.54011e-13
0.0393728
7.19797e-06
0.0288109
1.23856e-13
8.63626e-06
3.92477e-05
4.41375e-13
9.64154e-05
2.60729e-14
0.00151153
0.026077
0.0201764
0.00139588
0.000264644
4.3678e-16
2.30571e-15
3.64379e-15
1.77253e-05
3.56649e-15
0.00642202
2.6861e-14
0.176223
8.56999e-15
0.0425157
0.00307661
4.51794e-14
1.88706e-15
1.01824e-13
1.78616e-15
0.0362224
3.80064e-14
5.1844e-13
0.0132795
0.00609286
3.28315e-13
2.94205e-13
2.5775e-13
2.61695e-13
1.24648e-14
1.86322e-15
0.0229331
0.000443144
1.93308e-14
8.45913e-15
4.01344e-07
1.38876e-14
0.00143955
8.68492e-05
2.49001e-14
0.00302359
4.15696e-14
0.000305044
1.19867e-14
0.000904445
1.31738e-14
9.91806e-08
2.0238e-06
0.000739897
0.0163431
0.0308955
1.06837e-06
1.21639e-14
0.000455629
8.74072e-16
0.0044977
2.78162e-14
3.29419e-15
1.41795e-13
4.4009e-16
1.74339e-15
3.20877e-15
0.00644422
0.00703816
4.04687e-14
2.43149e-13
3.40423e-14
0.000668454
1.48228e-05
2.20418e-13
0.0184117
0.000197537
6.42756e-15
0.0244441
0.00889694
0.00345424
0.0126514
1.18149e-15
1.74184e-14
1.54409e-15
4.02263e-15
0.0367397
3.20783e-15
0.107343
9.91965e-16
0.000248111
0.000727714
2.13826e-15
0.000799655
3.33136e-15
5.62298e-16
0.00260697
2.69861e-08
0.00708148
5.58963e-15
9.56387e-15
6.03228e-15
0.000697177
3.27742e-14
3.13033e-15
6.34719e-14
3.84068e-07
1.48274e-13
9.40599e-06
3.9392e-14
4.11988e-14
1.89293e-15
0.0192433
0.0120583
0.0179838
0.0344608
5.36277e-14
1.11311e-05
9.88573e-16
3.40877e-16
0.0108962
2.33098e-14
2.6409e-06
0.000285167
0.00667184
0.000310786
9.06462e-10
0.00222117
2.16669e-15
9.20081e-10
6.59702e-10
0.000109064
0.000962699
0.0147955
6.62484e-08
4.17872e-14
0.0307332
5.24459e-15
2.61058e-14
1.97269e-05
0.0727412
7.18865e-08
4.2078e-15
1.89093e-15
4.30145e-07
5.79616e-15
2.85756e-15
1.37563e-05
8.22135e-15
4.16944e-14
0.0400769
0.000181162
0.000140122
0.0230249
0.00733203
3.72405e-15
3.22566e-16
1.05827e-05
0.00432506
1.63965e-15
2.03864e-14
0.0107
4.18471e-14
2.64142e-14
1.56024e-13
2.1562e-13
4.57037e-13
2.57584
7.06159e-17
0.000194105
2.17187e-14
0.0183847
9.84197e-16
1.34082e-12
1.52732e-13
6.93663e-14
1.06531e-14
8.96357e-15
0.00335053
4.75767e-16
7.07116e-16
8.07977e-14
5.39861e-15
4.73674e-15
4.67156e-15
0.00988908
4.13615e-15
0.0114785
0.00270473
2.14625e-15
0.00147126
8.36655e-16
0.000437859
1.78216e-06
0.00469881
0.0158608
1.03284e-14
9.52492e-05
0.00847755
6.5783e-06
5.70622e-14
1.96487e-06
0.0185413
0.00328768
2.23201e-13
0.0242513
7.82105e-14
1.99969e-15
2.39798e-15
2.71555e-15
0.00724768
2.74183e-15
3.74168e-15
0.00762215
1.33355e-07
0.00170523
1.44196e-15
7.21729e-14
0.000609747
8.40203e-16
0.000100763
2.60288e-14
0.023319
1.88384e-14
1.7475e-14
5.05284e-05
6.15032e-15
0.000119116
5.91777e-14
3.00378e-15
0.00608354
0.000417061
0.00522506
0.0168419
0.217468
0.0199374
1.06583e-15
8.00319e-13
0.00248081
0.00668942
0.0359841
0.0121158
3.00083e-15
0.0119834
1.7612e-15
2.46949e-14
0.00822035
0.0102373
1.32937e-14
0.0132613
1.41129e-15
0.00327037
0.00852288
2.47803e-14
2.92655e-16
5.58738e-16
0.002562
7.11471e-15
8.62337e-15
0.00379296
0.0215712
4.12135e-06
0.00830763
1.01041e-14
2.57162e-15
7.72457e-05
0.000770334
8.69536e-15
0.00912889
4.29237e-13
0.00221698
5.31683e-15
1.64654e-14
0.0112569
1.76957e-14
4.11591e-05
0.00316995
1.29042e-14
4.13305e-16
0.00380373
2.71406e-11
0.0537346
4.52029e-14
0.268003
8.85654e-14
1.28532e-13
1.55592e-14
0.00670481
2.62094e-13
1.0623e-14
0.00523645
1.14693e-13
0.000213586
3.65551e-13
4.0232e-14
1.06719e-14
1.35063e-07
0.000729374
2.18851e-16
2.93164e-15
0.0359086
0.000877317
4.44332e-15
0.000461928
2.52382e-16
3.2657e-14
1.41271e-06
0.00323979
0.000971478
1.5967e-14
5.44562e-15
4.55074e-15
3.19339e-16
1.25772e-14
8.61236e-15
2.13906e-15
2.31027e-15
1.00751e-14
5.2686e-15
4.02096e-15
1.76841e-14
5.11847e-15
2.53257e-15
6.77191e-16
3.94365e-15
2.62206e-16
2.23838e-15
2.78234e-14
6.16651e-16
4.22496e-15
0.0183356
3.08923e-15
9.64137e-16
8.91239e-16
0.00627732
5.84325e-15
1.98001e-14
0.233766
1.54978e-13
3.10295e-15
0.0219242
1.37175e-12
2.25153e-15
0.00576987
0.0236529
3.72404e-15
0.00182416
0.00300269
6.03005e-14
0.0121105
0.0384787
0.0164555
0.00283048
0.00969698
5.40751e-14
1.01348e-14
0.00310596
0.0113467
0.00269643
1.07689e-16
0.00575568
0.0015749
0.0189616
0.011132
0.000407923
0.0135831
0.00158967
0.00901895
1.19474e-14
0.0259849
0.00774075
0.00183009
0.00121046
2.79458e-15
3.48106e-15
2.62246e-15
5.44999e-14
1.80975e-15
0.01003
0.012476
4.10721e-15
1.51715e-15
8.48845e-14
1.71858e-15
7.71073e-15
2.98894e-14
8.11313e-15
3.79855e-14
0.00452108
0.00012896
0.0198561
6.43931e-05
6.4539e-15
3.72764e-13
0.0318145
4.58937e-06
1.20764e-15
1.28386e-14
0.00689435
4.88584e-14
9.25023e-16
2.22571e-06
0.00700907
0.0130332
0.0303691
0.0303532
2.52844e-14
0.0142608
0.000326676
5.39234e-14
9.57882e-15
0.0106515
2.7225e-14
3.41706e-15
0.0212228
1.01647
0.000153653
5.30846e-14
7.04919e-15
0.0144117
0.0222864
0.0171523
0.0051528
0.00272935
1.84852e-14
8.09569e-07
2.43661e-09
1.30007e-14
4.08373e-14
0.0164859
9.34431e-16
0.0019465
0.025414
0.0156958
0.010172
2.67876e-13
0.00457353
1.69212e-14
7.85684e-14
5.14247e-14
5.1074e-15
0.00261187
0.786359
3.07776e-15
6.63457e-15
3.70501e-06
0.023615
0.000734008
0.00616223
0.0320749
0.00320414
0.0176368
1.83205e-14
6.66153e-14
8.0846e-14
0.0298904
0.00499684
2.45574e-08
9.24342e-15
2.38275e-14
4.74119e-13
0.0203831
0.00247903
5.19522e-15
0.0041753
0.0504424
0.00723466
0.00555297
2.13288e-14
6.99232e-14
0.00614362
0.0224005
1.06226e-15
0.000291014
0.0132545
0.000882772
0.00939592
0.00420885
0.00720819
1.16528e-13
0.0033604
0.0204455
0.0365693
6.82169e-10
0.0225982
1.43692e-13
0.0161024
9.34144e-05
1.32868e-15
0.00196658
0.00578131
0.00031328
0.0107091
2.53175e-07
0.00015874
1.86156e-05
0.0294244
0.00306896
1.88998e-14
0.0350987
0.000839605
1.96347e-15
8.26774e-16
3.40709e-08
8.51221e-06
0.00105993
1.04507
0.0331946
0.00892665
2.26e-07
0.0395234
5.87124e-15
2.03687e-14
0.00416193
2.00812e-14
0.00255599
0.00491905
0.00166231
0.0047488
1.56172e-14
0.000196483
0.103212
4.83223e-15
0.0300784
0.00660194
5.85698e-14
0.00298587
0.000484627
1.78787e-13
4.55981e-09
7.679e-05
6.30293e-14
9.04347e-16
4.12679e-15
0.00289695
0.00383437
0.0135543
1.90762e-15
0.00491317
0.0286868
9.23304e-14
0.00678415
0.0104947
0.0227045
0.0013309
1.72534e-15
0.000670726
0.0102565
0.00876566
0.00729158
0.0358563
0.151428
0.00311897
1.72968e-13
3.46087e-06
0.0523182
3.50121e-14
0.000338598
1.9501e-16
1.48203e-15
8.6119e-14
6.17242e-15
8.826e-16
0.00305129
4.42026e-16
0.00548839
0.00134054
6.74276e-14
0.00419423
5.47012e-13
0.0139776
8.93326e-15
1.52131e-05
2.08858e-13
0.0201561
0.000121642
1.56701e-06
0.00312915
0.0252345
0.016447
0.00363913
0.0211812
4.24305e-12
0.0181858
0.0511602
0.00797379
5.24055e-14
0.00114675
0.000290362
0.0047792
0.0114397
0.000639255
1.5955e-13
2.70529e-13
8.90499e-15
0.00376187
7.25692e-14
8.79678e-05
0.000145376
0.000881522
0.000228874
1.5792e-14
9.5632e-14
7.04612e-16
0.00724067
0.0197235
0.00148335
6.69653e-06
0.00175509
0.00615826
0.00220688
0.000877035
0.00695971
0.00586851
0.00232265
6.86926e-14
8.36488e-16
1.05112e-14
0.0130946
0.00982733
1.24567e-13
3.73962e-16
7.4167e-13
0.00780912
0.0190249
1.66754e-14
0.00193355
2.60978e-14
5.56273e-07
0.00501995
0.0791878
4.61536e-14
2.00416e-14
0.00379676
5.59063e-14
7.30266e-05
0.0112787
4.97371e-14
0.00983609
0.031925
0.0166978
9.48093e-15
0.00103686
4.46802e-14
7.95751e-05
0.0461411
1.13246e-13
1.23205e-13
0.0107647
3.38235e-13
2.66831e-15
3.42014e-05
0.00122933
2.63608e-14
6.97355e-15
2.34715e-14
6.77062e-05
0.0013231
0.0034312
0.0216178
0.00841586
4.65897e-14
5.36872e-07
0.000584043
1.84432e-15
3.36037e-15
1.1706e-14
1.37666e-14
2.74693e-14
2.81206e-14
5.64182e-14
2.86209e-14
8.22504e-14
1.47529e-13
2.35273e-09
8.33976e-14
0.000349368
2.69852e-13
0.000145213
2.61413e-13
5.81913e-05
7.46101e-14
4.05138e-14
0.0240896
0.00876887
3.85007e-14
0.0847106
3.86304e-09
1.22548e-10
3.82151e-15
0.00100529
3.23961e-13
0.00233957
4.58528e-06
0.000970268
5.40783e-14
8.00335e-15
0.000965793
3.76479e-08
7.61396e-15
2.29466e-14
0.0375468
2.04902e-13
0.0355391
3.4278e-14
7.28999e-16
7.92179e-07
0.026814
0.00790497
6.44321e-15
0.000292983
2.80007e-13
0.00174951
1.50797e-05
0.00158615
2.78826e-06
3.3923e-15
0.0194124
0.000976432
0.00461873
3.09209e-15
4.54964e-14
2.53855e-15
0.00957732
0.00305165
0.0447233
1.82391e-14
3.32486e-07
4.10718e-15
1.16396e-14
6.19262e-15
4.42628e-15
0.00274586
0.00167931
0.00208935
0.290007
1.71518e-14
0.0270768
0.0338806
0.0153911
0.00131085
2.39604e-15
0.00602955
0.00375254
0.00474426
5.24447e-07
0.00931751
4.21194e-14
0.00166559
0.00102648
0.0313252
8.76999e-07
0.00282481
3.03597e-14
0.0161081
1.16448e-13
2.0167e-13
0.00152826
1.7869e-13
0.00657709
8.00771e-14
3.4629e-14
3.88359e-13
9.92161e-15
5.42748e-14
0.000666762
3.41986e-14
0.000606482
5.15905e-14
7.2328e-15
0.018153
0.00527736
0.00792111
0.00778185
8.552e-15
0.526493
6.67393e-14
0.0662891
5.87473e-15
0.0176494
0.0202716
0.00201009
0.0533661
1.09208e-14
1.35877e-14
3.61464e-15
0.00203555
9.29056e-15
3.18867e-15
0.0156802
3.38079e-14
6.03342e-15
0.00460072
2.54225e-14
0.0110383
7.98707e-08
1.33811e-14
4.72822e-14
2.06762e-14
0.00156161
0.00586056
7.26506e-14
0.0211906
0.000284485
7.78729e-14
0.0928733
5.81508e-15
0.0140903
0.0169452
0.00322046
1.37581e-13
0.0168449
0.00910243
0.000716832
0.0045379
0.0111542
1.03346e-14
1.28332e-13
1.58146e-06
4.82227e-14
2.26107e-15
2.01605e-14
0.0181994
0.0451947
0.00431888
0.00174778
2.42776e-14
0.0435741
0.0433776
0.00386397
0.00244419
0.00766985
0.0195368
0.0022935
5.0975e-15
1.94684e-15
1.96349e-15
0.00598698
2.70489e-15
0.0249869
7.14246e-14
0.000715665
3.80638e-07
0.00229854
0.0238274
4.59912e-16
8.33248e-14
0.00223847
0.00034018
3.49907e-14
1.24488e-15
1.04647e-14
4.55391e-05
0.000234395
0.000119859
0.000682803
0.0081104
0.0841383
1.5234e-14
1.42674e-14
1.58681e-14
0.00351813
0.0184856
0.0181287
0.0306664
0.00212409
0.00248098
1.78614e-14
3.68375e-14
2.24703e-13
1.67069e-14
0.00773184
0.0197452
2.23928e-14
2.69949e-15
9.49592e-14
1.3635e-14
5.7258e-14
8.2475e-14
0.011879
2.92027e-13
0.0011193
0.349524
1.22743e-14
1.53918e-05
0.0200104
0.000345909
6.294e-15
3.48713e-14
0.00435972
1.03813e-14
0.0127712
1.05102e-06
0.0226121
6.10951e-14
2.91915e-12
4.80415e-16
1.49138e-15
5.29738e-14
6.73035e-14
0.18123
1.80245e-14
0.00507213
0.00118725
5.25527e-15
4.2413e-13
0.00186598
3.14415e-14
3.44982e-15
0.0139184
6.37565e-05
5.79841e-14
2.6185e-13
1.25874e-14
0.0145899
6.90944e-14
8.9988e-14
0.000341701
0.00227948
0.00274854
5.37368e-14
1.53218e-14
1.42998e-14
0.00325146
0.00159345
0.0110227
0.00313468
1.05773e-15
0.000576665
0.0126993
0.00597173
1.70938e-16
2.15186e-13
1.20263e-14
1.58478e-14
1.0666e-13
0.0274441
0.00664478
0.00489436
8.18964e-15
6.6381e-15
9.7306e-14
4.04416e-14
3.10869e-15
8.2284e-07
0.000271489
0.00197831
1.99115e-15
2.24817e-13
5.95311e-14
2.94028e-09
0.0303991
0.103786
3.68501e-15
1.50339e-09
3.03785e-12
7.58883e-14
8.6159e-14
0.00308777
0.00630576
3.15437e-14
7.16557e-14
0.0026192
1.32705e-13
0.000739234
0.000922947
2.04059
4.78675e-15
3.71616e-14
0.0130422
0.000441961
8.33983e-15
0.641493
0.000456308
0.00659934
5.03532e-14
8.3913e-15
4.47648e-14
5.20149e-15
0.00608849
0.000100116
7.99757e-14
0.0221247
0.0169326
0.842796
2.75453e-14
1.83902e-15
2.39246e-13
1.87781e-14
0.005934
5.08933e-08
7.11728e-14
3.60883e-14
0.0160809
0.000766891
0.00532389
3.71644e-15
2.23429e-14
0.026667
4.40413e-14
3.54692e-14
2.23225e-15
1.2826e-14
0.0216175
5.53182e-14
2.82182e-15
3.5535e-15
0.0233955
0.0127526
1.84449e-14
3.4568e-14
1.77651e-14
0.0142571
1.28486e-07
2.85188e-15
2.97047e-14
9.71005e-14
9.61182e-14
0.00221203
0.00964427
5.71894e-16
0.00197758
0.000885096
0.00414699
5.70413e-14
8.8646e-14
9.4189e-16
7.20471e-15
4.77885e-15
0.0203375
2.31225e-13
0.0149395
2.24273e-14
0.00132986
7.00332e-14
0.00203128
6.44451e-14
1.04527e-14
0.00946732
0.189029
2.49137e-13
0.00302179
8.35366e-14
0.000316732
2.86153e-14
1.19277e-14
2.36202e-14
3.49597e-07
3.50318e-14
0.000359853
9.20214e-14
0.0335619
2.17554e-15
3.48731e-13
4.19332e-15
9.17771e-14
6.59342e-06
0.000122021
5.62346e-16
0.00444062
4.58831e-15
0.00316437
0.0185569
0.0010902
1.35579e-16
3.81618e-06
0.000379024
1.72838e-06
0.00481984
3.84254e-07
0.00139252
9.39741e-14
7.24553e-15
3.83172e-07
0.00449733
0.000212182
7.30257e-15
1.88069e-14
8.25287e-14
0.48531
4.07774e-14
5.42253e-15
2.24173e-14
1.26295e-13
1.21606e-13
6.89084e-05
0.000158149
0.000907673
4.202e-05
5.72727e-14
0.0011124
2.79901e-14
0.00596106
4.65606e-14
5.2035e-15
1.19444e-15
2.5804e-14
1.47071e-05
1.46922e-14
2.31498e-15
2.53551e-14
0.0144922
1.30926e-14
3.77777e-15
0.00953772
7.99776e-14
0.0521419
0.0929232
0.461706
2.48981e-14
0.197482
1.1848
1.42133
0.650718
6.18091e-15
5.62719e-16
0.00467576
0.00469306
4.95203e-14
0.00527782
1.07858e-15
0.0301666
5.29908e-14
3.10205e-14
0.000578549
8.51425e-14
1.79425e-13
8.93883e-06
3.21645e-05
2.85407e-14
4.90902e-15
1.73922e-06
7.61248e-14
5.2755e-14
2.05686e-05
0.00747325
0.0012412
9.45159e-14
0.00675233
1.3735e-13
0.00284239
4.0958e-07
0.00630135
6.83935e-15
5.46187e-09
0.00499012
1.07239e-13
1.27431e-09
1.34779e-15
0.0311004
6.5114e-15
0.00950061
6.60763e-14
8.36591e-08
3.50412e-15
6.31333e-14
4.23029e-15
4.0161e-10
2.6047e-10
7.13042e-15
0.0114745
0.00748248
4.42039e-14
8.00119e-15
0.0318635
0.0187027
0.177057
3.66124e-14
6.10449e-05
0.02378
0.0452919
4.85944e-08
9.2997e-15
0.0567282
4.2598e-15
0.215095
5.32626e-14
3.25677e-08
3.36225e-08
6.44177e-14
6.68611e-05
1.27276e-13
0.0180778
2.37511e-15
1.62695e-14
9.64345e-15
7.00135e-14
1.07347e-13
2.71761e-14
0.000245142
0.00163439
0.131422
1.55512e-14
1.40256e-13
0.0394729
1.58591e-14
3.22172e-16
6.34952e-15
7.39224e-14
2.88901e-14
0.0046419
3.03105e-15
3.27042e-14
3.82282e-16
0.00259631
2.20907e-13
2.08276e-15
5.9365e-15
0.00264665
1.76053e-15
0.00453976
0.209977
0.00448685
0.00513285
0.0209501
5.27433e-14
1.04852e-14
6.51171e-14
0.00290256
0.0018076
4.70201e-15
1.5937e-12
0.000466668
7.46216e-13
9.27599e-14
0.312012
2.40687e-15
0.0207926
1.88717e-14
0.00206004
0.00338337
5.75324e-15
1.43525e-15
2.08539e-15
7.06853e-16
5.89484e-14
0.0185644
1.49891e-14
0.00350817
4.18226e-15
2.59406e-14
0.00573556
1.67184e-14
0.0128757
7.52396e-14
2.92679e-14
0.00204784
7.75085e-05
0.128497
1.90296e-13
1.62498e-14
6.60758e-15
0.0036947
0.166089
1.93069e-14
1.39876e-16
2.13548e-13
0.000952332
2.12532e-14
0.0196326
0.0265195
3.70884e-13
5.3972e-15
0.00539754
1.91538e-13
6.08871e-14
2.45774e-16
3.5687e-14
1.56165e-14
0.0614016
6.00825e-13
1.46005e-13
2.63295e-15
5.04945e-14
4.09782e-14
1.43188e-14
1.05115e-13
8.1977e-15
1.13967e-13
0.00791548
4.43771e-14
0.0067152
2.40229e-13
8.40074e-14
0.554107
0.00237645
1.34375e-14
1.69522e-14
1.9782e-14
0.0018514
1.17489e-13
3.83726e-14
1.41139e-13
6.50165e-14
0.00552832
2.22208e-15
0.00321607
1.53109e-14
0.00979202
4.62398e-14
0.0544331
7.98832e-14
1.13746e-13
0.0184369
4.951e-14
2.81788e-14
0.0268605
0.000297423
3.03521e-14
1.09304e-14
0.0361932
0.0104582
0.00564231
0.000536097
0.00127591
0.016183
0.000692598
0.00509186
1.24996e-14
0.0237746
3.13799e-14
2.61624e-14
5.55256e-15
8.17676e-14
7.83265e-14
0.00793813
1.7835e-13
1.93091e-14
4.5725e-14
1.56289e-06
1.02675e-05
5.85609e-13
0.00252591
7.69595e-14
0.0036221
6.74953e-15
9.38195e-07
0.00478281
5.33409e-13
0.039917
9.67862e-15
3.13383e-14
1.19054e-15
0.00242738
0.00127665
1.08017e-14
2.73535e-15
0.00192975
1.90675e-13
0.618161
5.07281e-14
0.0872508
1.89014e-14
9.93869e-15
1.49662e-13
2.75385e-15
0.00907041
3.86338e-15
4.28235e-05
1.00001e-15
0.00877063
1.24539e-14
4.38502e-14
5.40448e-12
1.04575e-13
1.03867e-14
3.69893e-13
1.59798e-13
2.79899e-15
0.00404684
0.192302
1.64512e-13
8.12851e-15
0.000398563
1.13613e-15
1.50188e-15
1.61736e-06
0.0162374
0.000157645
1.28127e-14
0.000377397
0.00348311
0.00469401
0.00796073
1.30807e-13
1.19094e-13
3.64602e-15
9.70442e-15
7.31051e-17
1.62593e-15
1.86437e-14
1.33512e-14
6.86483e-15
5.64039e-15
1.90952e-14
1.75987e-15
0.0703034
1.83059e-15
1.72578e-15
1.32479e-09
2.23941e-14
1.44659e-14
1.04244
2.97441e-15
3.42685e-15
0.0016335
1.33356e-09
3.2362e-14
6.99978e-14
2.01125e-14
0.0209557
8.35368e-16
5.60803e-14
3.81506e-08
5.72059e-16
5.16557e-14
8.34355e-15
9.34389e-15
0.108092
9.47834e-16
0.000187974
7.01998e-15
1.58755e-14
7.04383e-15
1.11899e-13
1.11474e-14
2.45885e-08
4.33793e-08
0.000139163
2.62308e-14
4.42454e-14
3.16006e-14
1.0126e-07
9.11073e-15
2.65968e-07
1.56002e-08
2.05446e-15
5.958e-15
7.37246e-14
1.11031e-08
1.07535e-14
6.73567e-14
1.55044e-09
6.32326e-13
0.0302049
4.53513e-15
0.00599864
3.02201e-13
1.9789e-06
1.44047e-14
0.00147084
2.13327e-15
0.00396351
0.0215148
4.6075e-15
0.00240443
1.05875e-05
4.97219e-15
0.00887389
3.52608e-15
3.43353e-14
6.23924e-14
1.41682e-14
7.23162e-14
8.60477e-17
6.33094e-16
8.0674e-14
0.247481
1.54624e-14
9.17949e-15
1.68534e-14
2.11867e-14
3.30387e-15
0.0304946
0.787838
2.49264e-06
1.28135e-05
1.13729e-15
0.00174868
0.00122278
1.8755e-13
1.4276e-13
4.50047e-13
4.17561e-15
2.21022e-14
7.32248e-15
8.07219e-14
4.52908e-14
0.000378916
4.09937e-13
4.86731e-14
0.000142666
2.2865e-06
1.91016e-15
0.025679
3.00142e-14
6.48099e-14
6.48228e-14
0.15963
2.42539e-13
9.4589e-17
0.0227119
1.2609e-15
9.23993e-15
1.46854e-14
2.66487e-14
0.0494931
4.98686e-15
5.43659e-14
2.86828e-14
1.2124e-14
0.00569303
0.22779
0.0288047
0.0440247
0.00319001
0.000198634
7.04091e-16
1.1708e-13
0.12024
0.00136574
4.85131e-13
6.32525e-08
1.68974e-13
2.18779e-11
6.94348e-14
0.209957
6.44158e-14
6.16887e-15
0.000200663
8.34133e-11
1.63555e-14
0.0108467
5.72946e-15
2.75411e-13
0.198379
0.0263392
2.25646e-14
3.26286e-16
4.36331e-15
7.44611e-16
1.13569e-15
4.07002e-14
1.67381e-14
2.05146e-14
0.00315749
2.64645e-14
1.44811e-13
5.46039e-14
1.15324e-05
3.78759e-14
1.27797e-13
4.45601e-15
5.26108e-17
2.63278e-13
9.91802e-15
0.00285982
6.16623e-15
3.20971e-14
0.00438749
7.06372e-15
0.000373952
0.00468795
9.2527e-14
0.00300469
6.84734e-15
8.52713e-14
2.21601e-15
2.20561e-13
4.38915e-15
2.38989e-14
1.82673e-14
1.05852e-14
0.00199236
8.87671e-14
3.88205e-14
1.21689e-14
7.48479e-14
2.07985e-14
1.467e-13
0.0387143
6.66939e-15
1.29453e-15
0.338236
6.02187e-14
1.45593e-15
4.78283e-15
0.00108738
4.23211e-15
4.71193e-06
8.59066e-14
5.86146e-05
0.00964755
1.65102e-14
4.598e-13
0.0377916
2.80479e-13
7.81483e-15
9.83529e-05
5.26646e-07
0.0106261
1.75581e-06
6.12628e-07
1.15552e-07
2.82265e-15
4.97855e-14
0.000897461
0.000149966
0.0186046
0.0110588
3.3433e-05
2.38344e-14
0.00561434
0.00448922
0.0167213
7.70768e-15
0.0113986
0.0149192
0.00274423
0.00113456
0.000769616
0.00354413
0.0187049
0.0377454
0.00662909
0.0115781
0.00743256
3.68175e-14
0.00258828
0.00340599
0.000728637
0.00300384
0.0141504
0.0124074
0.0209349
6.79052e-14
0.00934342
4.03442e-13
0.00480816