/*--------------------------------*- C++ -*----------------------------------*\
  =========                 |
  \\      /  F ield         | OpenFOAM: The Open Source CFD Toolbox
   \\    /   O peration     | Website:  https://openfoam.org
    \\  /    A nd           | Version:  10
     \\/     M anipulation  |
\*---------------------------------------------------------------------------*/
FoamFile
{
    format      ascii;
    class       volScalarField;
    location    "7.5";
    object      T;
}
// * * * * * * * * * * * * * * * * * * * * * * * * * * * * * * * * * * * * * //

dimensions      [0 0 0 1 0 0 0];

internalField   nonuniform List<scalar> 
111485
(
303.15
285.127
301.116
303.15
298.648
283.15
299.186
293.37
296.567
286.293
300.701
296.33
300.378
284.581
300.19
286.73
299.03
299.08
294.382
303.15
303.15
283.15
297.534
288.693
301.607
303.15
293.334
300.532
289.087
303.15
300.857
293.933
303.15
283.15
283.473
283.15
302.353
298.182
283.149
296.881
283.15
289.782
297.296
302.896
303.187
303.15
287.529
288.551
289.813
303.15
303.15
283.15
303.15
299.137
303.15
294.02
287.909
283.15
283.329
295.747
296.15
303.15
302.191
300.398
283.15
284.674
300.777
291.579
302.222
302.558
303.167
301.991
303.15
302.235
303.15
295.046
283.15
293.661
283.15
283.15
283.245
293.45
283.15
303.15
300.527
284.302
283.15
301.662
303.131
299.566
283.416
289.76
301.047
300.173
290.051
303.15
303.15
301.662
303.149
283.439
303.15
286.767
283.15
285.285
285.698
283.15
283.15
292.633
301.501
283.146
299.025
288.343
301.391
301.749
303.15
302.084
303.15
283.15
300.407
303.15
303.15
283.15
283.15
283.15
283.408
303.152
283.15
301.952
303.15
283.18
303.096
302.051
303.15
283.15
283.15
292.833
283.15
294.753
299.1
301.305
303.138
297.144
299.274
284.849
302.325
298.367
283.15
303.15
283.15
297.456
285.039
303.15
303.145
287.753
283.156
294.057
295.978
302.538
283.154
303.15
303.15
292.522
286.315
283.153
283.157
301.459
283.719
283.15
283.153
283.154
283.15
303.15
283.216
283.15
291.175
287.307
283.15
303.15
303.15
283.15
303.15
303.15
297.948
293.826
296.109
290.312
301.46
300.733
283.194
303.15
301.665
303.15
303.15
300.494
286.32
301.519
301.27
296.148
303.15
300.91
284.65
283.161
300.873
296.791
303.15
300.728
288.456
303.15
283.237
300.283
284.899
300.996
303.15
303.15
301.007
283.15
293.09
283.15
300.92
299.092
290.535
303.15
301.799
300.654
283.15
283.15
283.15
289.678
283.158
283.15
303.15
299.034
292.007
290.225
283.15
303.15
303.113
303.15
284.381
300.421
299.633
299.899
299.779
283.15
283.143
299.331
283.15
283.15
288.853
288.689
283.15
301.25
299.359
303.15
283.15
301.129
303.15
303.15
303.125
303.15
288.199
285.773
291.416
303.15
298.832
303.15
303.15
303.15
283.148
298.22
301.205
299.727
291.289
299.775
296.623
283.218
290.867
292.223
283.15
303.15
283.149
292.16
298.908
286.473
303.15
298.37
297.562
299.209
302.97
283.166
297.487
299.661
302.07
283.15
283.657
283.15
283.149
303.15
283.967
290.341
286.433
303.15
283.15
298.029
285.557
303.15
303.15
303.15
284.784
290.834
301.211
284.502
293.291
283.15
283.15
303.15
298.779
303.15
283.868
289.811
283.153
283.15
303.15
303.15
283.15
294.752
289.997
283.15
296.175
283.15
303.15
301.174
297.732
294.1
296.275
283.15
283.15
283.15
297.06
291.656
302.424
283.15
283.15
283.15
290.131
297.401
283.223
290.73
283.15
293.061
299.871
284.233
298.849
285.272
283.15
303.15
283.15
303.15
290.648
296.376
288.172
292.27
283.15
286.388
283.15
303.15
294.1
303.15
301.974
303.15
283.15
292.232
283.15
289.363
284.703
283.15
284.008
298.391
283.15
300.464
284.795
299.214
303.034
291.661
285.942
283.15
303.15
303.147
283.15
301.114
300.957
283.15
283.15
294.49
284.392
298.723
296.941
283.15
295.379
296.244
283.15
302.136
283.918
303.15
303.15
288.745
298.823
283.15
303.15
303.15
303.15
300.798
283.15
303.15
294.065
283.171
286.987
300.101
283.15
283.15
302.673
283.15
302.516
301.521
298.087
289.706
283.15
294.485
303.386
303.15
298.851
292.389
303.15
283.15
283.316
283.15
290.233
286.235
292.266
283.15
293.479
296.699
293.662
303.147
283.15
303.15
303.15
283.168
293.352
283.15
284.39
303.134
283.15
303.15
303.15
303.15
301.874
291.081
286.101
284.258
284.352
283.15
285.808
303.15
300.827
283.15
303.15
303.15
300.745
303.15
303.15
283.151
303.15
283.15
300.79
283.15
283.15
283.15
303.15
283.15
303.15
283.15
283.704
283.15
303.134
301.912
283.785
283.15
303.093
283.15
303.15
284.726
284.702
286.213
297.794
283.15
297.708
297.814
292.911
287.218
285.278
303.15
292.35
283.15
300.029
283.15
297.001
283.15
292.697
298.696
303.15
283.15
287.198
303.15
295.776
299.278
283.15
283.15
283.15
283.15
303.15
293.922
283.15
283.15
283.25
283.15
299.99
283.15
284.871
303.15
283.443
303.122
284.789
292.507
283.15
301.64
283.15
283.15
285.783
283.15
283.267
283.15
299.842
303.15
290.938
303.15
283.15
302.457
284.489
300.244
285.689
300.241
289.52
283.15
300.763
284.572
283.15
283.139
300.495
301.685
283.15
282.355
301.169
303.067
283.116
303.15
287.611
302.257
284.423
285.451
288.665
282.47
283.15
303.15
301.001
303.15
283.587
283.15
283.15
292.345
282.651
303.15
303.122
283.15
286.36
299.78
283.15
283.15
299.8
303.15
283.15
283.15
283.15
286.226
283.15
303.15
284.874
284.34
303.15
299.902
283.15
288.935
303.15
283.15
286.244
283.15
283.15
283.15
285.674
283.15
285.533
292.521
303.15
300.541
283.458
298.908
301.049
283.374
283.472
283.15
289.189
298.667
303.15
302.24
296.135
297.112
284.702
297.671
297.411
303.15
300.338
303.137
283.15
297.386
284.937
283.15
292.943
295.984
284.945
298.975
300.78
292.911
283.15
299.107
283.476
303.15
300.73
302.056
294.699
283.15
286.887
303.15
283.15
283.15
283.15
283.316
283.15
303.15
303.15
283.15
300.556
299.449
303.15
285.712
303.15
303.15
303.15
290.125
283.443
283.15
303.15
283.15
283.15
287.038
292.96
283.15
295.401
283.134
283.15
295.568
302.275
288.219
283.15
283.15
300.549
292.687
283.15
283.15
283.15
294.158
303.15
303.15
283.15
296.489
302.402
283.15
282.623
301.999
286.914
283.15
283.15
287.532
302.99
283.15
283.16
287.758
283.808
289.129
283.15
285.817
300.402
283.15
303.15
283.15
283.15
283.15
283.15
295.926
303.15
283.15
283.15
295.542
292.397
303.15
303.15
290.038
298.848
298.738
303.15
283.15
298.416
303.15
283.889
299.305
298.826
303.15
303.15
303.15
283.15
286.1
283.15
283.15
302.738
303.15
298.174
302.313
283.15
294.65
283.263
296.887
292.093
283.448
290.011
283.15
283.15
297.303
288.308
290.538
283.15
283.15
298.427
295.414
283.15
283.949
284.679
283.486
303.15
303.15
303.15
290.424
283.15
300.399
283.15
284.39
297.576
298.87
292.869
283.15
283.15
303.15
295.953
283.15
283.15
303.109
283.15
283.15
303.15
283.15
299.645
283.15
283.15
283.15
283.15
283.15
303.15
283.15
283.174
298.654
303.15
302.558
283.129
283.405
283.091
285.723
283.15
284.472
290.686
283.405
303.15
283.15
300.098
283.15
300.59
283.165
283.143
286.266
297.959
283.234
291.348
297.63
283.15
283.15
299.451
300.088
283.15
297.739
291.362
297.166
283.15
283.25
283.15
297.516
296.591
283.15
300.504
297.256
283.149
300.208
283.15
295.711
283.144
303.118
283.162
283.16
283.15
283.15
284.52
283.15
302.978
283.62
283.08
303.148
303.149
303.147
283.15
283.15
294.372
303.15
303.135
283.887
283.15
283.15
303.155
303.15
283.15
303.164
283.15
283.15
303.15
303.15
303.15
303.15
283.383
283.15
283.15
283.15
303.159
283.313
283.914
294.031
283.15
283.15
283.345
283.15
283.15
283.15
287.321
294.093
283.15
283.15
283.15
283.15
283.15
283.15
284.03
283.15
303.151
291.71
283.15
303.15
303.15
303.153
303.15
303.15
283.15
303.168
283.15
283.727
283.144
303.152
283.15
303.066
284.488
292.406
303.15
303.13
284.518
303.15
283.15
303.15
283.15
294.603
293.639
284.725
303.148
283.15
293.76
283.15
283.15
303.15
283.15
295.231
283.15
303.15
283.163
298.118
303.15
284.458
283.15
283.613
283.15
283.15
283.15
303.15
286.173
283.497
284.538
283.15
283.15
285.961
283.15
283.15
303.15
284.432
303.163
298.743
303.15
303.129
303.13
283.15
303.133
283.15
283.473
289.347
301.014
283.85
283.166
283.15
283.15
283.15
303.18
283.15
302.93
303.15
293.382
303.15
288.697
283.852
303.15
283.15
303.15
283.15
301.889
303.15
303.15
286.784
300.711
283.15
283.15
283.15
283.15
283.15
283.15
300.959
283.599
303.15
303.15
303.156
303.15
300.361
284.434
283.15
302.18
303.15
301.747
283.15
302.628
283.15
283.148
303.152
283.33
302.202
300.391
283.147
283.15
289.47
303.15
293.783
303.15
283.15
303.15
283.15
283.15
283.15
300.942
302.126
303.15
303.15
303.15
302.934
283.149
303.15
293.286
283.081
303.15
297.219
297.96
296.884
283.394
283.15
283.15
283.15
283.15
295.014
283.15
295.104
283.15
303.071
289.868
283.15
302.893
283.15
283.15
302.779
283.148
302.914
283.15
303.15
283.15
302.474
283.15
303.15
283.15
283.147
283.15
283.174
283.15
283.15
303.15
292.576
300.989
296.289
297.274
303.15
303.121
283.15
283.15
286.01
283.15
283.158
302.879
298.51
302.961
303.15
283.382
283.15
303.15
283.15
303.002
283.349
298.126
283.15
303.15
288.181
303.15
283.15
283.121
295.274
283.147
283.15
283.15
283.148
303.15
283.15
303.143
303.15
303.15
290.258
303
303.017
289.327
293.842
283.15
283.15
303.099
289.403
283.15
303.15
284.831
283.15
303.15
283.15
283.15
283.15
297.999
283.15
302.95
283.15
300.639
283.15
283.15
283.15
283.15
283.15
283.15
285.148
283.15
283.15
283.15
283.15
283.15
283.15
292.425
283.15
298.194
302.962
283.15
302.367
283.15
302.571
303.145
291.807
288.513
303.15
291.682
284.871
303.116
303.15
303.139
294.793
288.553
283.15
287.843
283.15
283.15
283.15
283.15
287.576
283.15
283.15
291.163
303.137
285.226
283.15
283.15
302.554
283.15
283.19
303.15
299.68
283.15
283.15
302.841
283.15
303.178
303.15
283.15
288.978
298.127
292.35
285.852
292.864
294.183
283.15
283.15
302.346
290.271
293.199
284.499
283.15
294.136
283.15
303.15
300.851
298.9
283.15
297.153
283.15
292.477
297.731
303.15
283.15
283.15
301.867
283.15
283.15
300.65
295.855
283.201
290.864
283.15
283.15
302.818
300.667
283.15
300.799
283.15
300.666
283.15
283.15
300.951
283.15
283.231
301.729
283.15
283.15
302.513
283.15
287.958
303.15
290.651
303.15
303.15
303.15
301.075
283.15
283.15
299.76
283.15
302.992
283.15
283.15
303.15
283.151
288.237
283.15
283.15
288.095
288.277
283.15
283.723
283.15
303.15
302.484
283.762
301.735
283.15
283.15
283.15
283.15
283.15
283.15
283.15
283.15
283.15
283.15
283.15
303.15
283.15
283.15
283.15
283.15
283.15
283.15
283.15
283.15
303.15
286.987
283.15
283.15
283.15
295.096
283.15
303.15
303.059
283.15
283.15
295.105
283.15
283.15
302.038
295.568
283.15
303.56
303.57
283.15
301.579
294.353
297.851
301.644
298.602
303.15
283.15
296.163
292.159
301.594
283.15
302.264
302.458
301.082
287.874
287.031
301.257
301.745
301.932
303.15
285.999
297.939
285.642
297.653
283.15
283.15
283.15
303.15
283.15
292.413
298.299
283.15
283.15
283.15
283.15
283.15
303.15
283.15
303.15
291.991
303.136
299.363
302.859
283.15
283.15
285.441
283.169
283.15
283.15
301.757
303.15
283.15
298.538
299.838
297.913
298.838
300.944
303.15
290.637
302.618
303.15
303.15
300.495
303.15
283.15
282.897
295.783
302.958
283.15
303.15
289.836
286.314
296.696
292.614
302.528
303.15
303.138
303.15
303.15
283.15
299.036
283.15
292.193
290.564
299.955
284.77
303.15
302.092
303.15
283.15
303.15
303.15
291.377
300.109
283.15
303.15
303.136
292.17
303.05
299.735
293.334
288.103
293.38
283.15
303.15
283.15
291.554
298.754
303.151
303.15
303.15
303.15
297.701
302.591
283.15
300.362
301.271
285.018
299.921
303.15
303.15
299.117
293.432
283.15
302.917
299.862
302.635
292.397
297.795
298.669
303.15
286.828
297.937
291.825
283.15
289.411
303.15
288.408
301.286
303.15
288.56
301.466
300.192
293.614
283.148
283.16
283.249
301.903
301.146
303.15
288.464
301.635
303.15
283.15
303.15
303.208
299.063
291.421
296.888
303.243
283.149
297.806
303.15
303.15
293.295
303.15
300.244
283.317
301.505
291.05
303.15
283.677
293.737
303.15
283.024
299.134
303.15
301.022
286.248
303.15
303.15
284.008
303.15
283.15
283.15
285.721
299.628
291.491
303.15
285.315
297.964
283.15
299.337
299.365
288.725
303.128
283.15
301.425
299.181
299.335
300.456
288.361
291.034
302.508
303.15
301.701
288.619
303.15
299.345
283.15
283.15
303.15
283.15
303.15
297.586
283.15
300.877
283.685
303.15
283.855
283.15
289.605
303.15
303.146
303.15
294.28
303.012
303.124
300.162
290.027
289.478
290.147
298.865
303.15
299.756
292.581
299.322
303.15
283.883
283.476
299.639
287.272
283.536
303.15
283.15
303.15
285.427
303.15
303.286
284.661
303.287
302.97
303.15
303.15
283.15
300.783
300.709
285.78
303.095
286.735
296.153
301.835
292.929
288.625
302.054
296.58
283.15
283.15
303.15
285.876
289.594
283.15
283.15
303.15
301.966
289.223
303.15
296.849
303.15
283.156
285.283
301.208
303.15
303.15
292.711
303.15
283.313
290.235
283.15
297.527
294.717
295.632
303.15
302.754
283.15
302.714
293.728
303.15
303.15
288.471
283.15
303.15
301.947
284.6
303.15
303.15
283.15
302.373
303.391
289.742
299.882
298.186
303.15
303.158
302.633
303.15
283.15
303.15
303.15
303.15
303.15
303.15
303.15
303.15
283.15
303.15
303.15
283.36
303.15
303.303
303.15
303.161
303.15
303.15
301.048
303.677
303.15
292.25
303.15
303.15
283.15
302.607
303.15
302.215
303.119
283.303
283.15
303.15
302.623
283.149
303.15
303.15
291.692
283.15
292.928
283.15
283.15
283.152
291.547
284.846
303.15
296.784
283.15
303.626
303.134
284.305
302.639
283.15
292.502
303.086
301.738
283.15
303.15
283.15
303.93
284.794
296.684
303.15
303.15
303.15
303.15
303.15
303.15
302.427
302.845
297.647
292.423
303.15
287.366
292.964
284.986
303.205
283.15
286.862
302.794
284.761
283.147
287.412
303.15
283.407
302.945
292.866
302.878
301.961
303.15
302.288
303.15
303.15
298.327
303.15
284.58
303.15
303.15
283.15
303.15
303.15
302.878
303.15
283.309
283.15
283.15
286.003
284.92
300.816
286.288
303.15
295.307
303.15
290.59
303.15
287.375
300.812
301.58
293.539
303.15
303.15
303.15
289.499
283.15
303.15
289.257
283.15
283.15
301.904
303.15
286.126
283.148
283.15
303.15
303.15
300.641
298.465
303.15
294.078
303.044
283.15
298.718
303.15
286.225
288.264
302.141
303.15
296.515
296.564
302.97
301.968
301.718
303.15
303.15
303.147
303.15
283.15
303.15
289.274
300.287
294.255
302.198
283.15
300.53
291.717
298.52
283.628
298.564
289.877
302.229
283.15
283.15
283.15
302.272
283.15
290.609
283.15
301.362
303.16
289.43
297.787
283.15
303.15
301.349
301.326
303.15
283.15
303.15
286.214
301.555
302.994
302.407
297.933
288.375
303.15
303.15
303.15
294.888
286.172
290.299
296.17
283.972
302.978
303.15
303.15
283.15
283.15
285.286
299.798
303.15
303.15
283.15
303.15
303.15
303.15
300.416
303.15
285.474
293.09
283.15
283.256
293.544
285.553
303.15
303.15
301.977
303.15
299.399
283.146
297.586
303.15
303.15
283.15
303.15
303.15
303.15
305.48
303.15
301.929
301.066
303.15
303.15
301.711
303.15
283.15
287.287
303.12
303.15
303.15
303.15
298.462
303.15
303.15
302.577
302.542
301.871
303.15
283.15
303.15
302.12
302.567
301.624
302.604
283.15
301.032
287.951
297.336
283.15
303.15
303.15
303.15
303.15
294.557
287.521
299.549
303.15
303.15
303.15
303.15
283.15
303.149
285.036
285.116
283.15
303.15
303.15
283.147
299.732
295.239
283.15
303.15
303.15
303.15
303.15
289.485
289.86
303.15
303.15
302.428
303.15
301.369
283.975
292.155
303.15
283.15
301.073
303.127
303.15
303.401
301.51
287.079
303.15
303.15
303.15
303.15
293
284.298
303.15
302.737
298.313
290.229
303.15
303.15
303.15
303.15
299.751
303.151
303.15
303.15
298.773
302.624
288.812
303.15
303.15
298.015
303.15
303.15
303.15
303.15
288.849
303.15
283.15
283.15
296.513
291.256
303.15
303.15
303.15
297.29
303.147
303.15
303.15
303.15
303.15
303.45
301.002
303.15
287.428
302.693
299.684
303.15
303.15
303.15
303.15
283.15
285.843
303.15
302.831
283.15
302.246
303.15
303.139
303.15
283.15
302.005
286.172
283.15
302.867
303.15
302.468
283.15
303.15
303.15
303.151
303.15
283.284
303.15
290.871
283.15
283.15
303.15
303.15
299.326
302.415
283.15
302.505
283.15
284.19
288.168
302.724
283.15
303.154
302.997
303.136
284.495
283.156
302.999
283.15
283.15
283.156
302.231
302.355
303.15
283.15
283.15
296.179
303.15
283.15
303.15
303.15
303.15
303.102
303.057
302.951
302.508
303.15
302.942
303.15
284.885
303.15
303.15
283.15
303.15
303.113
303.15
283.15
303.15
288.302
303.15
303.15
303.196
283.15
303.178
302.477
297.559
303.15
290.435
295.862
284.164
290.956
283.15
283.15
287.184
284.384
283.15
303.691
283.15
286.383
303.15
283.15
303.155
303.15
303.15
303.026
303.155
303.15
283.15
303.141
303.15
283.15
283.101
298.914
302.732
303.15
301.9
303.15
285.572
303.151
301.27
303.15
303.15
301.125
303.15
303.15
303.15
287.695
303.15
285.163
303.15
303.147
303.15
283.15
283.15
303.15
303.15
303.15
288.785
302.59
303.15
303.15
288.932
286.568
291.741
303.15
302.726
287.683
287.63
303.15
303.15
288.121
283.15
292.224
303.15
303.152
303.149
303.15
300.784
283.15
302.37
283.15
303.15
303.15
303.15
303.15
303.15
284.384
302.273
291.376
303.15
303.15
290.898
303.15
303.15
303.15
303.15
303.15
300.511
303.15
303.15
283.15
299.882
303.15
283.15
303.15
301.536
283.15
300.308
290.783
302.71
300.364
299.85
303.15
303.15
303.15
301.198
288.955
283.15
303.15
300.615
303.15
303.15
292.325
303.15
287.587
303.15
298.336
284.413
303.15
283.15
303.15
303.15
303.15
285.406
303.15
300.752
303.15
303.15
300.054
283.15
284.81
303.15
303.15
288.349
301.49
296.745
303.15
303.15
303.15
301.505
292.498
303.15
283.15
303.15
300.983
303.15
284.833
296.63
303.15
303.15
301.361
303.15
303.15
283.15
303.15
283.15
294.953
303.15
283.15
303.15
303.15
303.15
303.15
303.15
303.15
283.15
301.453
283.15
302.172
303.15
303.15
296.342
300.746
303.15
283.15
303.15
301.127
283.15
303.15
303.15
303.15
300.723
303.15
297.958
303.15
285.995
283.15
286.797
303.15
303.15
298.718
283.15
303.15
288.292
283.255
303.15
303.15
285.211
283.894
301.054
301.874
301.392
293.304
301.863
283.885
303.15
298.024
283.15
283.15
303.15
303.15
303.15
301.444
303.15
303.15
303.15
303.133
283.17
283.15
283.597
303.15
302.07
283.15
303.143
296.517
283.15
294.768
303.15
303.15
283.15
300.165
283.96
303.15
283.15
300.216
303.15
297.976
303.15
295.553
303.15
283.15
303.15
283.15
299.471
283.15
283.236
283.15
286.25
303.15
303.15
283.15
283.15
303.15
303.15
303.15
303.15
284.901
284.932
283.15
303.15
283.239
283.15
283.15
303.155
290.18
283.571
283.15
301.688
284.994
300.443
288.435
303.15
303.15
303.15
303.15
283.15
283.15
283.15
303.15
283.15
283.15
303.15
283.15
297.443
283.15
303.15
283.15
303.15
303.15
283.555
283.15
303.15
302.025
303.149
303.15
303.15
303.15
288.729
283.15
303.15
303.149
283.15
303.15
303.15
303.15
295.46
283.15
283.191
303.15
303.15
303.15
303.15
303.15
303.15
303.147
284.186
303.15
283.15
303.15
303.15
303.15
303.148
303.149
283.15
283.15
283.15
303.15
303.15
283.15
303.15
283.15
287.779
283.15
301.889
283.15
303.154
303.15
284.629
283.15
284.479
297.623
303.15
284.709
303.171
303.15
297.637
283.15
303.15
303.15
303.15
303.15
283.15
303.15
303.15
299.361
283.15
303.15
303.15
303.15
303.15
292.347
291.273
303.168
283.167
303.15
301.909
302.393
303.15
283.15
283.15
303.15
303.15
303.15
283.15
283.15
283.83
303.15
303.15
303.19
303.151
283.15
289.111
303.15
283.15
303.15
288.262
303.15
283.15
302.165
283.15
283.15
283.15
303.15
299.789
303.15
303.15
303.15
283.15
284.533
293.804
295.487
289.816
303.125
303.029
283.15
283.15
301.205
283.704
283.15
303.149
303.15
303.15
283.15
294.79
303.15
283.15
302.992
303.15
303.15
283.813
303.15
303.15
288.604
289.812
303.15
283.15
303.15
283.15
303.15
303.15
303.15
303.15
283.967
303.15
303.15
303.15
302.946
303.15
303.15
283.15
283.15
283.15
283.15
302.957
283.15
283.15
301.063
303.15
284.798
284.959
303.15
301.244
303.15
283.15
303.15
283.15
283.15
303.15
303.15
303.15
302.719
303.15
303.15
303.15
283.15
303.15
283.15
286.474
303.15
303.15
291.771
303.15
283.15
283.15
302.481
303.15
303.148
283.15
303.2
286.835
283.15
283.15
299.368
283.15
283.15
303.064
303.16
293.097
303.166
303.151
303.152
283.15
283.15
302.672
283.477
285.989
301.012
283.16
283.15
290.729
301.674
301.599
283.15
300.387
290.243
300.102
302.289
302.815
284.769
296.074
299.431
286.098
293.89
300.285
303.15
297.525
298.157
302.804
283.708
292.988
301.294
287.154
303.15
301.152
303.15
300.686
301.59
283.674
285.108
303.15
283.15
302.315
301.769
283.145
303.171
288.25
302.721
301.986
300.945
303.15
303.218
301.283
295.307
300.373
289.312
302.942
301.711
302.199
302.375
284.304
302.546
301.731
283.181
303.15
302.914
303.15
303.15
302.147
302.19
294.855
303.15
284.783
292.43
292.296
301.232
303.15
284.084
285.227
284.445
303.15
299.272
303.15
296.417
295.546
300.857
303.143
303.15
303.15
302.027
301.363
302.806
303.15
292.65
302.782
290.252
283.15
298.36
293.9
303.15
300.455
283.15
283.208
283.15
302.623
303.11
303.15
302.995
298.763
283.148
300.651
302.294
295.053
283.556
296.055
297.32
283.486
303.135
284.859
295.888
283.329
297.168
300.608
300.39
300.659
302.033
290.298
301.741
303.15
302.764
302.7
302.7
296.126
302.915
283.15
302.092
293.286
303.15
283.443
286.548
301.324
302.62
290.275
284.803
287.813
302.648
296.571
303.15
303.15
295.173
283.15
292.811
283.439
303.15
290.168
290.394
283.932
303.15
297.264
298.455
284.311
301.367
294.111
289.815
300.563
303.118
303.15
303.15
283.585
302.66
283.355
285.958
303.15
303.033
303.047
303.15
285.442
300.893
298.41
283.262
299.691
302.408
300.621
287.139
283.15
303.108
301.858
283.783
283.148
303.15
303.084
303.15
303.15
284.265
302.587
296.387
283.055
283.152
303.15
283.15
302.974
303.054
302.578
301.559
303.15
283.15
283.15
301.947
302.003
283.229
295.723
303.15
303.15
301.756
285.671
283.269
301.815
301.912
301.818
284.431
303.15
283.15
298.591
297.795
303.15
302.729
302.137
284.999
285.105
302.18
303.066
303.15
298.449
284.45
283.15
303.15
300.402
301.485
302.129
289.736
302.138
285.827
300.562
300.184
290.353
298.094
303.15
303.15
301.149
284.638
302.148
283.151
300.639
301.782
283.669
288.237
302.459
283.15
283.15
283.029
303.15
303.15
300.144
298.876
302.32
283.146
283.15
284.007
283.15
283.15
283.151
303.088
301.044
299.34
296.42
283.383
303.104
300.447
303.15
283.15
302.611
288.999
301.007
292.33
283.537
303.066
283.148
283.15
302.849
301.463
302.637
283.157
291.51
284.984
303.15
284.319
301.066
283.15
283.315
285.081
284.496
283.15
283.15
301.765
283.15
289.769
302.581
302.731
301.83
283.494
299.034
290.715
283.15
303.303
292.254
283.15
283.15
283.15
303.15
301.167
302.475
299.212
301.58
299.856
289.094
283.155
290.66
289.772
303.069
291.345
300.34
292.134
283.15
286.393
301.2
301.663
283.15
284.068
299.85
283.15
303.15
283.191
301.37
303.15
284.039
302.297
303.029
303.15
283.15
292.627
303.153
301.788
283.15
283.15
283.15
302.235
297.85
303.141
302.207
303.165
303.15
288.842
303.165
290.456
300.454
300.423
297.067
283.159
301.837
283.15
290.427
301.633
289.909
290.42
299.297
301.054
301.772
287.036
290.696
285.142
283.176
302.264
286.184
283.149
283.145
300.4
283.076
300.573
287.36
295.875
299.833
289.473
299.696
283.121
298.85
283.15
290.181
289.972
298.713
283.344
283.15
300.677
283.15
302.813
283.15
303.15
286.405
286.534
283.15
299.414
298.589
287.19
303.15
303.15
301.797
289.493
303.037
283.78
301.745
287.339
303.147
284.246
288.371
303.15
301.531
283.15
283.15
287.525
287.411
283.145
285.406
301.678
286.38
301.289
303.15
285.294
301.895
291.339
303.15
303.15
301.715
302.109
303.15
293.206
293.916
283.695
297.005
287.21
290.18
303.15
302.935
297.465
285.148
283.15
287.681
292.033
299.783
283.167
283.812
282.907
302.035
303.131
283.15
303.136
303.15
300.658
293.263
299.309
294.342
283.15
291.512
296.256
285.674
283.217
292.739
283.15
300.173
303.165
292.821
284.157
303.145
291.615
298.943
288.484
300.15
290.844
287.54
283.15
303.142
285.375
290.424
293.683
283.15
283.15
283.15
303.141
283.15
283.136
286.536
303.15
283.15
303.164
283.175
290.859
289.606
303.378
302.929
290.107
303.15
297.561
303.171
302.092
287.546
283.15
293.53
303.146
303.099
286.52
283.15
283.15
283.482
286.205
303.062
303.145
287.608
289.593
283.516
283.164
289.677
293.051
303.15
283.15
303.107
303.15
302.391
284.986
302.321
303.098
284.143
283.844
284.126
302.877
302.222
297.162
294.162
303.077
291.477
290.681
303.15
303.102
302.637
285.556
283.399
303.15
286.01
283.405
302.95
301.732
302.245
283.15
300.527
301.963
303.15
302.211
285.436
303.15
298.13
303.15
283.15
300.912
302.707
286.431
302.556
283.15
285.384
303.015
283.15
302.343
285.355
294.961
284.373
303.15
303.031
302.898
286.549
283.15
287.192
284.35
289.922
286.009
302.355
303.15
283.15
283.15
292.682
283.15
301.017
302.279
289.968
283.15
293.72
283.15
303.15
283.15
300.055
299.095
283.151
285.374
301.709
303.102
303.155
292.192
294.51
301.406
283.23
301.782
283.145
303.15
303.149
299.625
283.15
301.781
295.369
303.15
300.911
287.373
301.925
284.837
288.441
283.15
302.332
287.831
298.618
303.087
283.15
303.15
291.796
302.279
283.077
283.147
286.985
298.579
303.15
284.653
301.221
301.166
301.418
303.152
300.207
287.754
284.983
301.793
300.169
283.764
283.095
303.158
303.149
303.15
297.884
283.162
283.15
303.15
303.149
289.892
298.705
300.106
287.877
302.814
303.15
286.208
301.657
303.15
300.923
283.821
301.569
303.15
284.679
301.29
295.056
302.777
303.15
303.15
285.271
295.66
296.941
287.757
303.15
303.15
283.15
287.285
302.436
296.721
303.15
285.713
303.15
303.15
300.196
288.651
283.15
296.086
296.436
298.754
283.15
303.15
292.411
287.286
303.15
298.467
300.887
300.792
303.15
303.15
303.15
300.62
298.832
302.816
300.3
283.15
292.446
287.813
290.898
300.698
303.15
303.15
301.102
303.103
286.723
296.38
303.15
303.148
283.15
286.407
299.138
285.656
303.15
303.15
283.36
303.128
303.15
303.15
283.15
290.442
303.15
303.15
284.672
299.381
283.15
303.15
284.638
301.552
300.468
287.063
294.797
303.15
283.526
303.15
303.15
283.291
300.724
290.492
300.669
303.15
303.135
302.213
293.046
299.896
301.424
284.47
283.484
300.902
298.886
303.15
302.788
284.221
300.183
301.541
287.897
303.15
297.417
301.567
301.647
301.69
292.489
303.15
283.15
299.247
283.15
283.15
287.762
283.15
284.025
283.15
283.15
283.15
283.15
302.773
287.773
302.727
283.15
296.175
290.887
284.815
283.15
303.15
302.705
301.762
303.187
302.663
283.15
295.395
300.575
289.872
283.15
283.15
299.903
285.75
283.15
283.15
303.149
290.597
283.15
287.272
303.15
303.152
284.326
283.15
288.442
293.246
300.603
294.065
302.966
285.771
302.55
295.237
286.345
283.15
283.571
291.764
303.095
289.314
302.677
283.15
292.288
287.772
300.979
301.297
285.022
303.115
285.145
297.293
302.999
303.147
285.017
303.146
303.014
293.407
302.706
283.15
303.15
303.15
294.914
291.231
283.156
301.187
284.701
284.171
284.684
303.145
288.336
300.749
283.15
283.15
302.532
303.151
294.706
302.911
303.18
299.949
303.215
302.906
283.15
301.555
302.9
283.15
303.15
301.227
303.15
284.408
298.916
283.166
291.812
283.15
287.591
303.027
300.173
283.15
303.035
290.494
301.311
303.132
303.082
283.15
283.15
301.931
302.067
283.822
302.845
302.452
302.44
303.141
283.15
294.322
283.15
302.822
287.809
302.995
303.15
283.15
302.851
285.259
291.443
302.121
283.15
302.61
302.06
301.705
302.517
303.053
303.195
303.017
303.15
283.15
301.519
298.046
303.092
303.15
290.283
285.202
303.15
283.15
285.526
303.183
303.163
302.928
301.209
284.325
303.101
290.841
293.826
303.148
289.146
303.162
283.15
290.267
283.15
300.089
298.342
284.874
288.295
299.714
296.194
295.313
299.294
293.899
303.152
293.988
296.611
283.158
299.492
293.5
303.15
299.372
299.268
303.15
291.713
303.17
301.717
303.15
286.957
286.018
302.809
289.68
283.15
283.15
300.412
301.197
283.765
283.15
303.15
300.329
302.369
300.819
300.173
302.801
292.486
289.664
286.667
292.309
284.321
290.74
283.316
295.725
290.365
294.018
287.286
284.285
303.162
283.283
303.147
285.801
300.798
283.151
300.264
297.978
288.713
302.136
285.412
299.257
283.15
302.961
283.156
283.11
288.009
299.761
303.15
300.323
303.029
299.908
302.777
303.15
301.343
284.978
295.529
302.093
303.149
283.712
283.15
290.591
285.102
285.78
303.153
303.149
283.15
283.15
283.177
303.15
293.512
303.15
303.155
295.083
303.442
303.15
300.194
303.15
303.15
293.706
290.603
303.15
289.836
302.139
289.568
303.15
303.15
286.13
283.35
290.427
303.217
303.15
303.146
285.497
283.271
283.15
289.05
287.718
303.15
284.323
303.15
303.15
303.132
287.362
303.15
303.147
283.285
303.152
302.681
287.937
283.151
283.625
297.457
290.841
303.15
285.955
284.607
301.474
287.093
302.241
290.169
293.901
303.15
303.15
284.028
303.152
302.964
295.768
302.965
302.76
287.155
283.15
285.528
283.224
297.65
302.636
285.596
303.15
283.845
286.734
303.129
283.177
303.15
286.647
283.15
299.839
303.15
299.831
300.053
283.31
283.374
302.36
291.464
301.423
303.15
301.46
301.805
303.15
303.15
298.447
293.675
283.15
289.074
303.15
294.952
283.376
303.15
296.978
298.902
289.027
303.15
302.771
294.791
295.618
284.476
303.161
299.162
296.345
283.998
303.128
302.817
287.512
298.632
289.461
290.582
289.736
283.15
302.97
303.151
303.15
303.169
293.364
296.527
302.986
301.35
303.15
284.398
303.15
303.051
302.867
303.15
293.813
296.269
303.15
285.457
303.1
303.15
303.097
303.156
286.134
293.612
291.081
288.402
292.922
303.15
301.456
291.723
295.498
293.482
303.141
303.15
300.618
303.186
284.344
303.186
303.15
303.15
303.143
303.15
285.02
303.15
284.287
303.147
303.15
290.407
303.145
292.714
295.602
303.135
295.676
285.799
283.442
303.128
302.951
284.767
283.15
297.086
303.15
285.583
302.92
302.137
303.029
298.538
287.172
303.15
298.502
289.912
299.442
283.15
283.656
303.15
303.145
303.188
293.696
303.15
292.535
289.338
303.193
303.15
284.89
299.208
293.509
299.955
302.51
301.541
300.618
303.15
284.718
296.977
302.397
285.74
298.056
292.187
284.533
292.004
303.15
286.85
292.202
289.685
299.702
303.15
286.394
284.066
303.15
302.501
288.148
302.062
283.15
303.15
300.033
301.812
289.495
302.094
301.975
301.966
303.15
289.669
285.165
302.054
302.31
297.353
303.15
283.203
303.15
302.093
303.15
302.846
303.15
291.891
303.15
296.805
283.15
289.763
303.15
283.15
291.607
301.655
300.671
289.238
300.754
303.15
302.517
303.15
302.338
285.448
303.15
300.655
290.322
303.15
301.026
303.15
303.15
292.879
283.15
285.581
293.294
301.131
303.15
291.7
294.217
288.288
289.528
288.038
299.259
300.23
301.009
287.446
287.109
301.464
283.15