/*--------------------------------*- C++ -*----------------------------------*\
  =========                 |
  \\      /  F ield         | OpenFOAM: The Open Source CFD Toolbox
   \\    /   O peration     | Website:  https://openfoam.org
    \\  /    A nd           | Version:  10
     \\/     M anipulation  |
\*---------------------------------------------------------------------------*/
FoamFile
{
    format      ascii;
    class       volVectorField;
    location    "7.5";
    object      U;
}
// * * * * * * * * * * * * * * * * * * * * * * * * * * * * * * * * * * * * * //

dimensions      [0 1 -1 0 0 0 0];

internalField   nonuniform List<vector> 
111485
(
(1.35006 -1.34972 0.000555631)
(3.8971 -0.00809622 -0.0195447)
(3.84348 0.00969727 0.011422)
(1.3493 -1.34984 5.65721e-05)
(3.9858 0.0175405 0.000939668)
(1.3882 1.38711 -0.000243069)
(3.91729 0.00970115 0.00275194)
(4.02764 -0.00822677 0.00553358)
(3.92094 -0.0025186 0.00243056)
(4.01436 -0.0402194 -0.0158266)
(3.86454 0.00800321 0.01004)
(4.03749 -0.00838805 0.0177171)
(3.81057 0.00301672 0.00997708)
(3.84856 -0.00792289 -0.0247319)
(3.89657 0.0141617 0.00792115)
(3.98052 -0.0249142 -0.0169685)
(3.94201 0.00191603 0.00265079)
(1.39163 -0.121866 0.213968)
(3.98882 0.00977973 -0.00791288)
(1.34669 -1.34514 -9.24115e-05)
(1.34782 -1.34749 -0.00126345)
(1.38923 1.38918 0.000158504)
(3.94908 0.0111803 0.000113823)
(4.0165 -0.0234166 -0.00718707)
(3.95762 0.0150211 -0.00609854)
(1.35917 -1.35415 -0.00158991)
(4.05416 -0.016099 0.0190507)
(3.86985 -0.00262016 -0.00210281)
(4.00444 0.00449919 -0.00938467)
(1.34783 -1.34796 0.000379429)
(4.05698 0.0659254 -0.0177422)
(3.98878 -0.003728 0.00112861)
(1.34351 -1.34598 0.00183416)
(1.38925 1.39183 -0.00297583)
(1.39854 0.572342 0.224474)
(1.39754 1.40703 -0.0206318)
(4.03662 0.0644174 -0.0263395)
(3.89024 0.00642758 0.0332258)
(4.00151 1.20981 0.0688702)
(3.99712 0.0175278 0.00220148)
(1.37292 1.38554 -0.0108511)
(4.03504 0.00720866 -0.0236988)
(3.99709 0.0186752 0.00681872)
(3.85477 -0.0217267 0.000435211)
(4.0362 -0.0705334 -0.0371247)
(1.3528 -1.34301 0.00644674)
(4.03562 -0.0186792 0.0179911)
(4.01031 -0.0221995 -0.00624987)
(4.03631 0.000608024 -0.0193469)
(1.34067 -1.32388 0.00645238)
(1.3391 -1.32628 0.00808019)
(1.58078 1.32731 0.0239881)
(1.33333 -1.32892 0.00455917)
(4.03435 0.0184691 -0.0316516)
(1.3302 -1.32564 0.000737327)
(3.97506 0.00743031 -0.00426253)
(3.98103 -0.0148759 -0.00764872)
(1.38998 1.3881 0.00104553)
(3.65051 -0.00874129 -0.0614353)
(4.0018 0.0159054 -0.00162882)
(4.00053 0.0171565 -0.00051439)
(1.34585 -1.34854 0.00152723)
(3.73101 0.00332576 0.0216432)
(4.0576 -0.00994776 0.0298578)
(1.43841 1.30337 0.00325315)
(3.69159 0.00589499 -0.00643779)
(2.8232 -0.235903 0.100742)
(4.00877 -0.010673 0.00458334)
(3.64231 -0.000380485 0.0121966)
(3.49405 -0.00645331 0.000402657)
(3.87988 0.0356149 -0.0171421)
(3.61541 -0.00927182 0.0140956)
(1.45902 -1.31737 -0.0303867)
(3.69246 0.00531999 0.025153)
(1.34929 -1.34878 -0.0002839)
(3.99311 -0.00478814 0.00904293)
(1.38912 1.38919 -0.000597042)
(4.03057 -0.00803781 0.0198782)
(1.38882 1.38827 0.000108069)
(1.25743 1.2271 -0.0415461)
(3.89725 -0.0574857 0.0381222)
(4.02927 0.0165433 0.00254016)
(1.38703 1.38589 6.97589e-05)
(1.34943 -1.34925 0.000499301)
(3.78799 -0.0017416 0.00676826)
(3.65708 0.00915379 -0.0144816)
(3.11048 2.01483 -0.543468)
(3.9847 0.0473717 0.00501716)
(3.84324 0.0986288 0.0834748)
(3.8857 0.00619423 0.00595921)
(4.10682 0.078031 -0.050993)
(3.98252 -0.00708063 0.00589718)
(3.74624 -0.00691679 0.00912125)
(3.84818 0.00017178 0.00135932)
(4.03733 0.0113955 -0.0210413)
(1.3496 -1.3488 -0.000192325)
(1.34876 -1.34849 0.000784732)
(3.98253 0.0442805 0.0147324)
(4.1187 -0.813487 0.0563527)
(3.74106 0.0124646 0.0224549)
(1.34967 -1.34933 0.000906847)
(3.99476 -0.0203492 0.00169073)
(1.39644 1.39922 0.00758591)
(3.96557 0.000111691 -0.00335303)
(3.93473 -0.0155582 -0.0204752)
(1.36237 1.21743 -0.028759)
(1.38929 1.38902 -0.000283786)
(3.99315 -0.00624784 -0.000715588)
(3.71617 -0.0196816 0.00371002)
(3.55142 -0.104583 -0.108788)
(3.80079 3.86704e-05 0.00231508)
(3.97186 0.00441691 -0.00212728)
(3.71849 -0.00279959 0.0132325)
(3.66708 -0.0174548 0.00706428)
(1.36114 -1.35436 0.000745384)
(3.57772 -0.00274416 0.00612078)
(1.35449 -1.3502 -0.0016598)
(1.39654 1.39073 0.00573839)
(3.90933 0.0117184 0.00961681)
(1.3494 -1.34874 0.000390638)
(1.35935 -1.35368 -0.00139263)
(1.83375 1.44022 0.0880968)
(1.37938 1.38623 -0.00236375)
(1.3934 1.38992 -0.00322739)
(3.82754 -0.00811526 0.0164837)
(1.08457 -0.77318 -0.196445)
(1.74865 1.50255 0.0530331)
(3.60458 -0.00103257 0.0111486)
(1.34953 -1.34869 -0.000722687)
(4.01715 0.293249 -0.108504)
(4.02052 0.0743155 -0.0406967)
(3.97498 0.0455044 0.015654)
(1.3457 -1.34147 -0.00644321)
(1.7949 1.56159 0.159059)
(1.67654 1.49493 0.0707578)
(4.00108 0.0105841 -0.00650054)
(1.3902 1.39002 -0.000455834)
(3.97255 0.0065217 0.000411071)
(3.95665 0.0110605 0.00880175)
(3.89499 0.0147578 0.0152544)
(3.10194 0.000362682 0.0124378)
(3.99092 0.0196452 0.00446368)
(3.95854 0.0207302 0.0128859)
(3.78128 0.00189031 -0.014733)
(3.94386 -0.00745006 0.00256365)
(3.88375 -0.00544265 0.00534511)
(1.38989 1.39067 -0.000432529)
(1.34918 -1.34951 0.000334368)
(1.38715 1.38781 0.00261422)
(3.98152 0.015793 0.00141277)
(3.78431 0.0039857 -0.013242)
(1.34803 -1.34708 9.60153e-05)
(2.62775 -0.0135088 0.0252525)
(3.89824 0.0140394 0.0109725)
(4.2646 0.163679 0.0755686)
(4.00171 0.0100268 -0.0073226)
(3.98092 0.0110963 -0.00280279)
(3.73387 0.00233967 -0.00658008)
(4.29785 0.20365 0.050726)
(1.34242 -1.35478 0.00555607)
(1.34731 -1.34885 0.00104097)
(3.99264 0.00970718 -0.00863588)
(3.91684 -0.0118595 -0.0131485)
(4.32497 0.230688 0.0550552)
(4.26358 0.202457 0.0760868)
(3.7301 0.0040436 0.0152709)
(3.99414 0.0459985 -0.0175075)
(1.37305 1.38464 0.00030349)
(4.37851 0.285232 0.0680278)
(4.17263 0.201291 0.0618832)
(1.38896 1.38916 0.000812807)
(1.34766 -1.34756 0.000347213)
(3.26869 0.00401183 -0.0252378)
(1.38972 1.39041 0.000247383)
(3.95375 -0.00491236 0.000176371)
(3.83483 0.000930818 -0.00576285)
(1.38973 1.35684 -0.00739865)
(1.45506 -1.33805 0.0124356)
(1.35233 -1.34582 -0.00223181)
(1.36744 1.29045 -0.0129883)
(1.46524 -1.35055 0.023291)
(1.34681 -1.34858 0.00117478)
(3.97712 0.0131392 0.00337108)
(3.97441 0.00827232 -0.00687593)
(3.9621 0.00934325 -0.00452567)
(3.92399 -0.019894 0.0159772)
(3.78794 -0.00869008 0.00399001)
(3.79158 0.00415152 0.00930369)
(3.39282 0.0383541 -0.00130009)
(1.34877 -1.3439 -1.05717e-05)
(3.69515 -0.000548483 0.00217273)
(1.45286 -1.34904 0.0136301)
(1.36049 -1.36279 -0.000442607)
(3.823 0.0052466 0.0100011)
(4.01598 -0.0452738 -0.0159391)
(3.98181 0.0078035 -0.0179619)
(3.84868 -0.00110324 0.00168684)
(3.87993 0.00230126 0.00335762)
(1.3468 -1.34404 0.0033087)
(3.83089 -0.0140657 0.00669729)
(3.81312 -0.00451023 -0.0198362)
(2.65745 0.835247 0.110786)
(3.90416 -0.0295966 0.00314218)
(3.95372 -0.0023917 0.00263367)
(1.35399 -1.34733 -0.00226923)
(3.80897 0.00701357 0.01016)
(3.99087 0.00897808 -0.000986069)
(1.47542 -1.33442 0.00498563)
(3.84015 0.00905874 0.0132422)
(4.02601 -0.00701946 0.0170946)
(3.78127 0.00205612 -0.0150149)
(3.7996 0.00763116 0.0139263)
(1.46305 -1.35471 0.0178654)
(1.34839 -1.34868 -0.000536799)
(3.80012 0.00760815 0.0146164)
(2.48401 1.55285 -0.153396)
(4.06863 0.0170887 -0.0371773)
(1.38927 1.38974 -0.00112686)
(3.82162 0.00494424 0.0121419)
(3.81119 0.00173944 0.00317808)
(4.04412 -0.0117787 0.0247756)
(1.35081 -1.34989 0.000877009)
(3.62473 -0.00013823 0.00575494)
(4.01019 0.0562955 0.0281091)
(2.19331 1.46793 -0.161084)
(1.38996 1.38962 -0.000716081)
(1.38896 1.38926 0.00056054)
(4.0985 -0.0220957 0.0373332)
(3.82854 0.0868246 -0.00954544)
(1.46339 1.23388 -0.028196)
(1.67156 -1.29816 0.0501368)
(3.82786 0.00138742 0.00521633)
(3.94179 0.00533241 0.00042372)
(4.00277 0.00852714 0.00334735)
(1.44447 1.25634 -0.0358446)
(1.42782 -1.31718 -0.00482639)
(3.86235 0.0452014 -0.0523398)
(1.34919 -1.349 0.000911825)
(3.67679 0.00219656 -0.02015)
(3.78847 0.00224413 0.0115294)
(3.8265 0.000349495 0.00741539)
(3.83204 0.00531475 0.00794118)
(3.84499 0.00484062 0.00757264)
(1.3856 1.38572 0.00492911)
(2.93462 -0.00744619 -0.109354)
(3.89697 0.00659612 0.0121433)
(1.38301 1.38608 -0.00260228)
(1.38864 1.38965 -0.000418067)
(4.06779 -0.0457946 -0.00323281)
(3.97112 0.0158822 -0.00582581)
(1.42459 1.21414 -0.0381807)
(3.67892 -0.00495771 0.00231943)
(3.88381 0.00806752 0.00802816)
(1.34952 -1.34904 -0.000506683)
(1.7629 1.6608 -0.0112476)
(4.00993 0.0366865 -0.0164392)
(1.35296 -1.33633 -4.55994e-05)
(1.49254 -1.06611 -0.026066)
(2.05513 -0.727148 -0.0716792)
(1.35014 -1.34664 -0.000389446)
(3.90226 -0.00433108 -0.00453518)
(3.80621 -0.00712384 -0.00467433)
(3.95238 0.00309963 -0.00987248)
(1.34869 -1.34881 -0.000289483)
(3.91586 0.00940855 0.00680935)
(1.34972 -1.34994 -0.000287657)
(1.3494 -1.35053 0.0005532)
(1.34721 -1.34231 0.00239291)
(2.7292 0.00955585 -0.0394385)
(4.02435 -0.0180156 0.0208747)
(3.84099 0.0122949 0.016551)
(3.90306 0.0104503 0.00864916)
(4.05125 -0.0213856 -0.0011613)
(3.88313 0.00751303 0.00785311)
(3.98352 0.0128645 0.00492761)
(4.01842 0.0641438 -0.00573405)
(3.91961 0.00415585 -0.00102066)
(3.94916 0.00496338 0.000162072)
(1.41232 1.38892 -0.00131506)
(1.34738 -1.34752 -0.00135701)
(2.49959 0.0145379 -0.059916)
(3.96864 -0.00536617 0.00218118)
(4.0283 0.0306458 0.03461)
(3.80436 -0.00462236 -0.00314608)
(1.34943 -1.34881 0.000943614)
(3.96524 0.0105844 0.00654233)
(3.98918 0.0187981 0.00860873)
(3.89457 0.00502243 0.00555469)
(3.47308 -0.0023162 -0.016787)
(3.60873 -0.0400897 -0.0875341)
(3.95084 0.011007 0.00186417)
(3.88722 0.00845505 0.00768412)
(3.97764 0.0306076 -0.0187127)
(1.39009 1.39083 0.00125203)
(3.66378 0.0174562 -0.0005803)
(1.38897 1.38946 -0.000387275)
(1.13072 0.859167 -0.181703)
(1.51707 -0.978187 -0.0966453)
(4.12308 -0.0360263 0.0538923)
(4.05183 -0.0211012 -0.000982978)
(3.95625 -0.00207174 -0.000118989)
(1.35119 -1.34807 -0.000888863)
(1.38506 1.39274 0.010905)
(3.95571 0.0105324 0.00546052)
(3.82868 0.00368575 -0.00339197)
(1.34894 -1.34799 -0.000380944)
(1.35008 -1.34901 0.00133917)
(1.32147 -1.32852 0.0093917)
(3.80659 0.00273538 -0.000727286)
(3.93727 0.00116608 -0.00376621)
(3.7722 0.000297923 0.011406)
(3.66221 0.00639455 -0.0134991)
(4.01442 0.00892165 -0.00831623)
(1.59519 1.36941 0.0356512)
(1.38685 1.39004 0.00263535)
(1.34957 -1.34753 -0.000487446)
(3.94386 0.0119408 0.0090404)
(2.57501 -2.18321 -0.15377)
(3.7835 -0.0040252 0.00402988)
(4.0971 -0.0276438 0.0864223)
(3.31922 0.00230742 -0.0653594)
(1.38892 1.39018 2.93982e-05)
(1.34826 -1.34926 0.000746652)
(1.34904 -1.34979 -0.000557396)
(1.75587 1.47185 0.0909428)
(3.98628 0.0104015 -0.000638897)
(4.02795 -0.020297 0.0030258)
(1.39284 1.39636 0.000491855)
(3.95491 0.00746821 -0.00143267)
(1.46903 1.18692 0.0847601)
(1.35632 -1.34048 -0.00139053)
(4.06722 -0.0128864 0.0319569)
(3.94796 0.0110802 0.00551287)
(4.04852 -0.00416109 0.0103685)
(3.9571 0.00851263 -0.00230098)
(1.34051 1.18728 0.0723078)
(1.7388 1.49422 0.0968252)
(1.3872 1.38856 -0.00232666)
(3.95133 0.0106221 0.00514447)
(3.94652 0.00745946 0.000675671)
(4.04048 0.072212 -0.0246828)
(1.37788 1.3744 0.00291238)
(2.76159 2.44484 -0.58637)
(3.78717 0.0361402 0.030729)
(4.02541 -0.0168024 0.00908513)
(3.96549 0.0126653 0.0083801)
(3.77166 0.37934 -0.031056)
(4.0124 0.00837881 -0.00961734)
(1.38731 1.38662 0.000320213)
(4.01541 0.010006 -0.00625316)
(3.85786 0.00277845 0.00611119)
(4.07275 -0.0904896 0.00119345)
(4.078 -0.02362 0.0473604)
(3.94356 -0.0279798 -0.0242373)
(1.38481 1.39135 -0.00520227)
(1.34719 -1.34821 -0.00198372)
(1.39261 1.38452 0.00529688)
(1.34111 -1.34471 -0.000557084)
(4.02017 -0.0166403 0.000770196)
(3.99862 -0.00216631 0.00107287)
(3.98437 0.0156154 -0.0131978)
(4.00981 0.0097587 -0.0115597)
(1.38074 1.38243 -0.00566147)
(3.97463 -0.0245394 -0.00770346)
(1.38807 1.3887 0.00127384)
(1.34404 -1.34797 -0.000313061)
(4.01144 0.0103262 -0.00855187)
(1.24714 -1.24834 0.0182376)
(2.22047 -0.409837 -0.0282302)
(1.33448 -1.32947 0.000842416)
(1.40194 1.38363 0.0111309)
(3.9699 0.00546881 -0.00468121)
(1.38932 1.38856 0.000580246)
(3.92951 0.00592678 -0.00194444)
(3.75416 0.00163723 -0.0154856)
(1.39077 1.39059 -0.000357757)
(3.63427 -0.00135926 -0.0155241)
(3.90344 0.00427352 0.00508022)
(1.39929 1.22611 -0.0463046)
(3.89641 0.0165403 0.0169588)
(3.7087 0.0163874 -0.00254138)
(3.91635 0.0167222 0.00546694)
(3.66001 0.0136547 0.0452799)
(3.94856 0.00823376 0.00243165)
(3.79333 0.00136741 -0.00364305)
(1.36954 1.16961 -0.00579335)
(1.34672 -1.34378 0.0075343)
(3.40733 0.00783874 0.0795863)
(1.38071 1.38493 -0.00784756)
(3.92012 0.0184569 0.0188381)
(4.07011 -0.0197591 0.0383422)
(1.40106 1.33822 0.0117278)
(1.38667 1.39246 -0.000872891)
(4.00933 -0.00352646 0.0029585)
(3.86583 -0.016974 -0.031874)
(3.87374 0.0176424 -0.000756133)
(4.03163 0.0106465 -0.00277001)
(1.38951 1.38813 -0.000103238)
(4.08825 -0.0107689 0.0627557)
(4.01725 -0.0120049 0.0189617)
(1.39228 1.38976 -0.000114162)
(3.95305 0.0604146 0.0492306)
(3.77087 -0.0144011 -0.0350714)
(1.34876 -1.34756 -0.000434165)
(1.34858 -1.34783 -0.000446378)
(3.92473 0.00807124 -0.00312446)
(3.94727 0.00317677 -0.0050864)
(1.39589 1.396 -0.00183689)
(1.35095 -1.34815 -0.0017389)
(2.36903 -1.28404 0.288871)
(1.34915 -1.3498 0.000462026)
(3.95397 -0.000877461 0.00666585)
(1.38198 1.38687 0.002768)
(1.34924 -1.34992 0.000180304)
(4.04924 -0.00373464 0.0131483)
(3.67514 -0.0434479 -0.102868)
(4.00717 -0.019532 0.0038411)
(3.86873 -0.00112238 0.00680405)
(1.39128 1.38987 0.000262101)
(1.807 1.39161 0.0683618)
(3.87375 0.0482625 0.0751383)
(1.69361 1.49302 0.0798347)
(3.85923 0.0171167 0.0291967)
(3.84211 -0.0284302 0.00297277)
(4.00226 -0.0126634 -0.00937656)
(2.79424 0.0759251 0.10024)
(1.66489 1.43247 0.0723029)
(3.99687 0.00364485 -0.0379078)
(4.06693 0.123879 -0.0404796)
(1.34793 -1.34986 0.00208083)
(4.04129 0.0101385 -0.0375247)
(4.04162 -0.0182005 0.01347)
(1.35119 -1.35068 0.00164325)
(3.90267 0.215849 -0.120581)
(3.4428 -0.000603827 -0.0447112)
(1.75737 1.3795 0.0576989)
(4.02037 -0.00703415 0.0136865)
(3.97727 0.00543113 -0.00547)
(3.94985 0.00741757 -0.00236701)
(1.38977 1.38743 -0.000474643)
(3.93913 -0.00962727 0.0267136)
(4.04318 -0.0011726 0.0115027)
(3.92334 0.0346344 -0.00439287)
(2.483 -0.0347567 0.0397508)
(1.69383 1.59762 -0.033713)
(2.3379 -0.0594022 0.0792727)
(1.34825 -1.34985 0.00115951)
(3.65516 -0.118225 -0.114511)
(3.9407 -0.0102173 -0.0262469)
(1.3902 1.38933 0.00164783)
(3.76327 0.00741298 -0.0256336)
(3.12361 -0.00758767 0.0544401)
(1.80654 1.596 -0.016485)
(1.34936 -1.34863 0.000292196)
(1.57771 -1.34155 0.0420334)
(1.34901 -1.34843 0.000321352)
(3.94115 0.0232442 -0.00492494)
(3.95117 0.0171761 -0.00626804)
(3.91562 -0.0110505 -0.0102713)
(3.69809 0.00758798 -0.0170577)
(4.01235 -0.0788306 -0.0150357)
(1.38891 1.38342 -0.00280164)
(3.89573 -0.000777857 -0.0071827)
(1.35286 -1.34257 0.000162658)
(3.85436 0.0135485 0.00923864)
(1.39358 1.39348 -0.000416027)
(1.34865 -1.34776 -4.58912e-05)
(1.33812 -1.34206 -0.0020429)
(3.79903 -0.0225559 0.005408)
(1.34584 -1.34726 -0.00054399)
(1.34993 -1.34983 0.000643611)
(1.37028 0.904683 -0.0598458)
(1.34979 -1.3505 0.000315536)
(1.3756 1.39471 0.0128112)
(3.885 -0.0138028 -0.00606246)
(1.39015 1.38821 8.77433e-05)
(1.6477 1.21586 0.00113457)
(1.39102 1.39054 0.00153547)
(1.34779 -1.34391 -0.000874613)
(1.39037 1.38663 -0.00115888)
(1.3456 -1.33838 -0.00676619)
(1.38565 1.38626 6.18278e-05)
(3.56211 -0.00306164 -0.0258982)
(1.3927 1.38559 0.00580322)
(3.64139 0.0500381 0.0715789)
(3.97004 0.00536539 -0.000309213)
(4.0957 -0.160059 -0.0267181)
(1.39008 1.38494 -0.000103271)
(3.4693 0.0104517 0.0544726)
(1.39257 1.38775 0.00165459)
(1.34954 -1.3502 -0.000684508)
(3.91662 -0.0361755 -0.0390901)
(3.91727 -0.0296922 -0.0295405)
(3.91778 -0.00695221 -0.0108715)
(4.1023 0.0102221 -0.0665914)
(1.59914 1.34207 -0.0433124)
(4.00801 0.00256236 -0.0197033)
(4.00814 0.00278447 -0.0177859)
(3.95379 0.00453174 0.000282249)
(3.91452 0.00261806 0.000315325)
(3.97594 -0.0381805 -0.0242127)
(1.34666 -1.34712 -0.000525867)
(3.95891 0.00360696 -0.000232319)
(1.82208 1.58509 -0.0114785)
(3.95293 0.0126007 -0.00221291)
(1.38947 1.38867 -0.000207355)
(4.02358 0.00854209 -0.0183634)
(1.80128 1.49369 0.0138705)
(3.95962 0.00080254 -0.0055204)
(3.98122 -0.0172754 0.0140927)
(1.55415 -0.790463 -0.00666829)
(1.39163 1.39335 0.0149949)
(3.91836 0.00464243 0.00756281)
(1.34897 -1.34814 -0.000112763)
(4.04089 0.0156537 -0.0231264)
(4.01349 0.0169636 -0.0178286)
(1.38902 1.38575 -0.0115218)
(1.38735 1.38722 0.00311961)
(1.36126 1.21592 -0.0348464)
(1.38873 1.39019 0.000552036)
(2.80773 -0.15016 0.0771546)
(4.04199 0.0136879 -0.0228955)
(1.40767 1.37403 -0.00164686)
(1.38733 1.38944 0.00130525)
(3.50445 0.00261456 -0.00917472)
(1.38942 1.39 -0.000431533)
(3.98429 0.0141187 -0.0127093)
(1.38929 1.38912 0.000792872)
(3.94363 -0.0232005 -0.0145965)
(1.3499 -1.34966 0.000535318)
(3.71369 -0.0186733 -0.0522355)
(3.11067 -0.0109609 0.00266795)
(3.74412 0.00827882 -0.00672531)
(3.96048 0.00223285 -0.00680772)
(1.39864 1.38727 -0.00376413)
(3.66452 0.00524893 -0.0052328)
(1.39273 1.38741 0.000997783)
(1.39017 1.39051 -0.00361285)
(3.92489 -0.0111348 -0.0046013)
(1.38991 1.38882 -0.000437713)
(3.38375 -0.000226451 -0.0330156)
(1.34513 1.23697 -0.0385947)
(3.98563 0.014187 -0.0116743)
(1.34863 -1.34835 -0.000113473)
(4.01527 0.00770114 -0.00864777)
(1.34977 -1.34858 -0.000159316)
(1.65103 1.46026 0.0416196)
(4.08189 0.14451 -0.0111454)
(3.91068 -0.0317246 -0.0378249)
(3.96481 0.0158193 0.00135591)
(3.99967 -0.0422754 -0.0276152)
(3.94956 0.0078995 -0.00226986)
(4.0444 -0.0232989 -0.00401004)
(1.38116 1.3921 -0.00654022)
(3.96211 0.0225199 0.010406)
(3.92617 -0.0338492 -0.0374506)
(1.38941 1.38999 -0.000966596)
(3.34927 -0.0480445 -0.133383)
(4.05729 -0.0282416 -0.0198736)
(3.89551 0.0145959 0.0153861)
(1.37722 1.35768 -0.00811403)
(1.72061 0.331053 -0.273623)
(3.81599 0.00979453 0.0117564)
(3.15573 -0.0130259 0.0306938)
(3.22956 0.821248 -0.00507045)
(1.74337 -0.895209 -0.0714231)
(4.02907 -0.0438539 -0.00893319)
(3.79537 0.0139189 0.0257994)
(3.9109 -0.0350638 -0.0375044)
(3.97657 -0.0213012 -0.00906148)
(3.92145 0.0217354 0.0107938)
(3.47341 0.438627 -0.0227687)
(1.7209 1.45805 0.0116979)
(3.54002 -0.134158 0.0304553)
(3.42837 -0.308369 0.0665819)
(1.3476 -1.34833 0.000406089)
(3.51767 0.022067 -0.0103786)
(1.39712 1.37134 -0.00705488)
(1.63412 1.4842 0.0140146)
(3.93372 0.00613183 -0.000544748)
(3.4976 0.582209 -0.0189552)
(4.22418 -0.361272 -0.0670613)
(3.81087 -0.663665 0.0146908)
(1.63015 1.54888 -0.114313)
(4.00921 -0.0233732 -0.00736665)
(3.96858 0.0221069 0.0173223)
(1.3867 1.38296 -0.000258687)
(1.7916 0.986482 -0.0406002)
(3.9703 0.0280952 0.0173749)
(1.34812 -1.34398 0.000934009)
(1.38917 1.38887 -0.000108792)
(1.38795 1.38766 0.000282173)
(1.39079 1.38281 0.00130788)
(4.01003 -0.0390593 -0.0166483)
(1.38961 1.38935 0.000709737)
(1.35492 -1.35469 0.00700431)
(3.93976 -0.0237678 -0.018821)
(3.68583 -0.000411829 -0.00662908)
(1.98063 -1.73625 -0.0909022)
(3.97082 0.0273427 0.0166058)
(1.61739 1.30347 0.0297364)
(3.97353 -0.0103185 -0.00597063)
(1.32724 -1.32693 -0.00606354)
(1.38676 1.3895 -0.000773533)
(3.99856 -0.0241312 -0.00743044)
(1.39007 1.3822 -0.00522058)
(1.38905 1.38597 0.000701131)
(1.59486 1.5275 0.0451769)
(3.80632 -0.00347127 0.000143118)
(2.29881 1.92417 -0.254961)
(3.94316 -0.0158415 -0.00743056)
(3.93492 0.00621697 -0.0016974)
(1.33933 -1.33074 -0.010531)
(4.10487 -0.0134059 0.126797)
(3.76052 -0.021616 -0.0526392)
(3.92646 0.000553832 -0.00233598)
(3.99313 0.0704108 0.00932556)
(4.00199 0.0381605 -0.0845118)
(3.48618 0.000290253 -0.0297774)
(1.38817 1.38768 0.000819689)
(4.00382 0.00172387 0.0109709)
(3.97371 0.0160321 -0.000522385)
(1.33718 -1.35462 0.00236536)
(3.75782 0.000115857 -0.00348634)
(4.02214 0.0253193 -0.00576822)
(4.00888 0.0178755 -0.00591458)
(3.70093 -0.0165171 -0.0317638)
(4.0076 0.0191362 -0.00423953)
(4.01073 0.0198539 -0.00299933)
(1.35306 -1.33542 0.00812716)
(4.01338 -0.00781396 0.0188436)
(3.34604 -0.0201696 -0.00562852)
(1.67991 1.45823 0.0911726)
(4.00551 0.0156989 -0.00896432)
(3.83732 0.00316376 -0.0087387)
(2.23766 1.81999 -0.275073)
(3.93427 0.00332293 -0.0007977)
(4.00784 0.0127165 -0.0116129)
(3.83893 0.000519242 -0.0150814)
(3.98063 0.0204105 -3.18809e-06)
(3.93678 0.0401035 0.0143031)
(3.94286 -0.00504192 0.00572577)
(1.35927 1.32867 0.00133616)
(3.97931 0.021407 0.00136451)
(3.74698 -0.0238581 -0.0474435)
(1.50676 -0.910344 0.0347644)
(3.96307 0.0341449 0.0231157)
(3.92168 0.03526 0.0344749)
(3.9563 0.00736714 0.000130434)
(1.38888 1.38546 0.00149396)
(3.86872 0.0205252 -0.034575)
(1.34986 -1.34366 0.00392473)
(1.38956 1.38948 -0.000644587)
(1.38496 1.37435 4.05997e-05)
(1.39174 1.38432 0.00148082)
(3.39658 0.00159086 -0.0147835)
(1.6568 1.42617 0.0578703)
(3.01952 -0.213777 0.248126)
(1.34554 -1.34577 0.000116654)
(1.38857 1.40605 -0.00017984)
(3.97924 0.0368118 0.0220376)
(3.98517 0.00949317 -0.0160246)
(1.34982 -1.34976 0.000154988)
(3.99482 -0.0236899 -0.00391675)
(1.34964 -1.34816 0.00429282)
(1.35028 -1.34926 -0.00051248)
(1.32896 -1.33004 0.00409282)
(4.05659 -0.0301994 -0.00719604)
(3.41815 0.0175018 -0.00921696)
(1.64009 1.47624 0.0173509)
(1.36353 -1.34835 0.00344253)
(1.38758 1.39199 -0.00192108)
(1.38902 1.38995 -0.000532959)
(4.07781 0.00812417 -0.0434918)
(3.9454 0.00445851 0.00188593)
(1.65628 1.55708 0.0726764)
(4.02885 0.0119728 -0.0209988)
(3.76239 -0.0530135 -0.151777)
(1.38709 1.38802 -0.000138478)
(4.01819 0.0103945 -0.0178968)
(3.69839 0.00256595 0.0196253)
(3.92514 0.0181436 -0.022322)
(1.39004 1.3895 5.19654e-05)
(1.38836 1.38749 -5.3857e-05)
(3.89269 0.0143583 0.0191651)
(3.96077 0.00793321 -0.00235719)
(1.64527 1.49458 0.0234257)
(1.38512 1.38531 0.00037512)
(1.41145 1.36744 -0.00520605)
(3.9387 -0.00869161 0.00188502)
(1.34832 -1.34837 -0.00176889)
(1.34977 -1.34468 0.000898083)
(1.38532 1.38605 0.000811414)
(4.01685 0.0117632 -0.0151091)
(3.55944 -0.0161106 0.00553812)
(1.38991 1.39001 6.77099e-05)
(1.5516 0.295223 0.277901)
(1.70834 -0.198752 -0.0575779)
(3.90817 0.018154 0.000855587)
(1.38771 1.39066 -0.000751352)
(1.38968 1.38721 -0.000518866)
(4.04331 -0.0368549 -0.00980818)
(3.87536 0.065176 0.0564906)
(1.66934 1.49077 0.0707884)
(2.43806 0.784877 0.0573781)
(3.8143 0.0792991 0.109041)
(3.66631 0.00957859 -0.0252892)
(3.8799 0.00181665 -0.00105138)
(1.44263 1.35269 -0.00290361)
(3.861 0.011688 -0.000981867)
(3.99806 -0.0255849 0.0263013)
(1.39275 1.38899 -0.00190722)
(1.341 -1.31954 0.00152855)
(1.38566 1.38646 -0.000281385)
(1.38804 1.38847 -0.000417849)
(1.38972 1.39206 -0.00152411)
(1.39051 1.39036 -0.000184653)
(4.02537 0.0121832 -0.0163649)
(1.34827 -1.34814 0.0011745)
(1.38797 1.38827 7.73623e-05)
(1.38202 1.36362 -0.000564903)
(4.02815 0.0126677 -0.0212223)
(3.95476 0.00598974 0.000700613)
(1.35468 -1.33773 0.000213613)
(1.33397 -1.32091 0.00174485)
(4.05937 -0.0177608 0.033099)
(3.85654 0.0010572 0.00300157)
(3.85168 0.00266723 0.00471867)
(1.34993 -1.34626 -0.000619324)
(1.38722 1.38867 0.000468887)
(3.85492 0.00165638 0.00408058)
(1.34973 -1.34858 0.000143765)
(3.82324 0.00928928 0.000603767)
(3.89853 0.00766151 0.0113276)
(3.90921 0.00692827 0.00561372)
(1.35782 -1.34817 0.00376171)
(1.34881 -1.34982 0.000781316)
(1.34885 -1.34972 0.00049241)
(1.3897 1.39046 0.000487399)
(3.9528 -0.0150977 -0.0093092)
(1.38843 1.3895 0.000738002)
(1.38737 1.38754 0.000381101)
(3.94447 0.0119831 -0.0149988)
(1.34887 -1.34943 0.000809982)
(3.87072 -0.00332059 0.0039455)
(3.55944 -0.0290419 0.0110729)
(1.4015 1.35558 0.00714769)
(3.95134 0.00662997 -0.00525199)
(1.87188 0.269735 -0.0432705)
(3.90667 0.00220682 0.00144131)
(4.05471 -0.0126957 0.00854845)
(3.59997 0.0126967 0.00342447)
(4.04497 -0.00182275 0.0251183)
(2.93931 0.0593234 -0.113019)
(1.65651 1.32395 0.0275117)
(3.89815 -0.000479501 0.0011803)
(4.05873 0.0291678 0.00547948)
(3.94936 -0.00584844 -0.0029376)
(1.4232 1.23691 -0.0433075)
(1.80122 0.171862 -0.0929576)
(2.12799 -0.163528 0.0742556)
(3.89869 0.0023034 -0.000664796)
(1.3875 1.38934 0.0018638)
(3.84205 -0.00942444 -0.0269004)
(3.9219 -0.00488938 -0.00693938)
(3.80949 -0.0315401 -0.0580594)
(1.47218 -1.04767 -0.0771064)
(1.34942 -1.34982 0.000655364)
(1.34886 -1.34908 -0.000183736)
(3.97201 -0.00851338 0.000415272)
(1.61969 1.34036 -0.0170454)
(3.78796 0.00948538 0.00519893)
(1.5075 1.37312 0.0181414)
(3.77277 -0.00708136 -0.0224813)
(3.88148 -0.00476266 0.00137784)
(3.82944 -0.000985621 0.00514653)
(3.95738 0.007186 -0.000946645)
(1.38833 1.38768 -0.000503707)
(1.38252 1.37904 -0.00261937)
(1.44653 -1.31839 0.00679029)
(3.95181 0.00707215 -0.000281154)
(1.39047 1.38688 -0.000268922)
(1.60391 1.37993 -0.0609635)
(4.06589 0.0735733 -0.063049)
(1.39511 1.3933 -0.00106059)
(1.38359 1.38988 0.00434491)
(1.34634 -1.34121 -0.00342026)
(1.38976 1.3904 0.000684779)
(3.79636 -0.0027998 0.00849613)
(1.42495 1.35246 0.00261513)
(1.38991 1.38825 0.000200815)
(3.23054 0.453372 -0.324463)
(1.62629 1.31208 -0.017545)
(1.38429 1.38504 -0.0112949)
(1.93599 -1.15242 0.0688435)
(1.38976 1.3876 -0.00124773)
(3.15368 0.0105822 -0.0257143)
(3.88432 -0.00297817 0.00377796)
(1.34847 -1.3479 -0.000396908)
(3.81505 0.00624726 -0.0116627)
(3.83202 0.61381 -0.0846124)
(3.78383 -0.0352483 -0.0579496)
(4.15035 0.147611 0.00050975)
(3.76554 0.00098336 -0.00301302)
(1.3896 1.38023 0.00392003)
(3.92349 -0.0356071 -0.0392263)
(4.07007 -0.0113106 0.008515)
(3.78271 -0.035486 -0.0581524)
(1.34902 -1.34841 -0.000793886)
(4.1163 1.08017 0.286977)
(3.78525 0.00347843 0.00587548)
(1.85519 1.47828 -0.0878455)
(3.76689 -0.00169862 0.00220824)
(4.09744 0.0482241 -0.0383623)
(3.92153 0.0750536 0.00350903)
(3.87868 -0.0109691 -0.0139492)
(3.87282 0.011135 -0.00107364)
(4.12971 0.0564421 -0.0217147)
(3.9688 -0.00202476 -0.00550929)
(3.95688 -0.00187297 0.00254427)
(1.38038 1.38491 0.00551137)
(1.38592 1.37931 0.00437555)
(3.80987 0.00818838 0.00176286)
(3.75815 0.00330552 0.0029659)
(1.3867 1.39011 -0.00042975)
(3.85422 0.00313526 -0.000644086)
(4.04946 -0.0149944 0.00385049)
(3.97179 -0.00430453 0.00209459)
(1.39386 1.37982 -5.45862e-05)
(3.90611 0.0755806 0.0166353)
(1.38788 1.38663 0.000225552)
(3.9602 -0.00139152 0.00224572)
(3.97578 -0.00145288 0.00156565)
(1.38856 1.38775 -0.000328884)
(3.78883 0.0141097 -0.0177006)
(3.96817 0.00069519 2.52859e-05)
(3.892 0.0698137 0.00538712)
(3.82552 -0.00014856 0.00957106)
(1.41649 1.38912 -0.00212908)
(3.98416 -0.0092916 0.0121319)
(3.90493 0.085656 0.000548649)
(4.11999 -0.101179 0.0238445)
(3.47999 0.0413408 0.013138)
(3.12603 0.00898062 -0.0426166)
(1.39149 1.37723 -0.00242664)
(1.38669 1.38573 0.00179862)
(3.8426 0.0487229 0.00585194)
(1.3895 1.39024 -0.000129997)
(3.39513 -0.00838088 -0.0131675)
(3.85097 -0.0197301 -0.0280358)
(2.34308 0.317285 -0.0859488)
(4.27655 -0.275291 0.100396)
(3.77331 -0.171702 0.0461358)
(4.20125 -0.154565 0.038741)
(1.38952 1.39036 -6.68259e-05)
(1.89081 1.60308 0.0134761)
(3.96918 0.00740496 -0.00498787)
(1.34367 -1.3485 -0.00453623)
(0.754495 -0.530883 0.215752)
(3.94855 -0.0725015 -0.0561778)
(1.38963 1.38613 -0.00263202)
(1.39038 1.38809 -0.000349863)
(3.53026 -0.0720771 -0.00601126)
(2.87976 -0.18744 0.0388306)
(1.38974 1.38999 0.000110756)
(3.57148 -0.0651244 0.00947076)
(1.38855 1.38694 0.000736508)
(1.38902 1.391 -0.00241849)
(1.34866 -1.34935 0.00015037)
(1.35077 -1.34726 0.00282851)
(1.3248 -1.31485 0.00407158)
(1.34866 -1.34641 0.000119609)
(3.57819 0.026479 -0.0133877)
(1.38736 1.37989 -0.000485223)
(1.38893 1.38916 0.000551993)
(1.38143 1.38947 0.00250339)
(3.32202 -0.740307 -0.196305)
(3.75878 -0.0298022 -0.0659565)
(3.65581 -0.000971235 -0.0331598)
(3.96995 0.00624125 -0.00502667)
(1.38436 1.37531 -9.31867e-05)
(1.39319 1.38759 -0.000167405)
(3.81783 -0.0635156 -0.0760437)
(1.38944 1.38995 -0.00158778)
(1.38929 1.38755 0.000138466)
(2.22043 1.26754 0.0465797)
(4.06554 -0.0519169 -0.00340846)
(3.96012 0.00765668 -0.00246937)
(1.38818 1.38779 -0.000428414)
(1.39002 1.38672 0.00188744)
(1.38672 1.38231 -0.00229278)
(1.38843 1.3857 -0.000127979)
(1.39178 1.39108 -0.0012925)
(1.39186 1.38848 0.000575962)
(3.98245 -0.0882104 -0.05474)
(1.39016 1.38618 -0.000393769)
(2.76439 0.0389476 0.0912413)
(3.99956 -0.00854363 0.0105852)
(1.38853 1.39088 -0.000448976)
(1.34052 -1.34647 -0.00344276)
(1.33216 -1.31915 0.000974184)
(3.37022 0.039401 0.181726)
(1.32521 -1.32401 -0.00525763)
(1.34745 -1.34837 0.000733264)
(1.38284 1.38441 -0.0089416)
(3.61338 -0.0538309 0.000438213)
(1.3868 1.38732 -0.000716945)
(3.9529 -0.0492767 -0.0307768)
(3.18767 0.0450227 -0.0179743)
(2.60494 0.00328595 0.104185)
(1.38631 1.38775 0.000347912)
(2.71886 -0.705789 0.0571013)
(3.98486 -0.00844172 0.00197235)
(4.00365 0.00867461 -0.00901128)
(1.44535 -1.37846 -0.0162889)
(3.86786 -0.0653199 -0.00970663)
(3.93974 -0.00707151 -0.00576189)
(1.34876 -1.33942 0.00123473)
(1.43526 1.35952 0.00594689)
(1.89817 -1.4658 -0.118885)
(1.38464 1.38526 -0.000389167)
(3.97763 0.0054289 -0.00155481)
(3.97168 -0.00319666 0.00679976)
(4.04832 -0.0469133 0.0196642)
(2.66681 -0.00229494 0.144892)
(1.38989 1.38925 -0.000276503)
(3.97964 0.00603827 -0.0020458)
(1.43277 1.36264 -0.00377912)
(1.73923 1.46927 -0.00744861)
(1.80769 -1.40961 -0.0566346)
(1.38928 1.38924 0.000580949)
(3.98578 0.00934643 -0.00230287)
(1.38623 1.38447 0.00036179)
(1.33589 -1.31378 0.000222275)
(3.65325 -0.0488941 -0.0888871)
(3.91364 -0.0064479 0.00297183)
(1.33573 -1.31434 -0.00378286)
(3.92892 0.00605324 -0.00283481)
(1.48234 1.44845 -0.00944526)
(3.98942 -0.0332046 -0.015985)
(1.30851 1.24934 0.0143798)
(1.38992 1.38988 -0.00024812)
(1.39758 1.39304 0.00502455)
(1.34933 -1.34993 0.000630229)
(3.89017 0.00470223 -0.0047422)
(3.51809 0.00501634 -0.0130092)
(4.01732 -0.0095866 0.0735397)
(1.38563 1.3862 0.00064283)
(1.38554 1.35853 0.00875195)
(3.87642 0.00517821 -0.00241751)
(1.39037 1.39038 -0.000461653)
(1.61313 1.46053 0.0187376)
(1.34926 -1.34794 0.00033917)