/*--------------------------------*- C++ -*----------------------------------*\
  =========                 |
  \\      /  F ield         | OpenFOAM: The Open Source CFD Toolbox
   \\    /   O peration     | Website:  https://openfoam.org
    \\  /    A nd           | Version:  10
     \\/     M anipulation  |
\*---------------------------------------------------------------------------*/
FoamFile
{
    format      ascii;
    class       volScalarField;
    location    "9.2";
    object      T;
}
// * * * * * * * * * * * * * * * * * * * * * * * * * * * * * * * * * * * * * //

dimensions      [0 0 0 1 0 0 0];

internalField   nonuniform List<scalar> 
111485
(
303.15
285.102
300.962
303.15
298.395
283.15
298.903
293.373
296.299
286.243
300.5
296.179
300.194
284.567
299.959
286.754
299.29
297.771
294.017
303.15
303.15
283.15
297.219
288.687
301.538
303.15
293.175
300.606
288.843
303.15
300.725
294.296
303.15
283.15
283.447
283.15
302.279
297.57
283.149
296.579
283.15
289.587
296.997
302.88
303.192
303.15
287.36
288.546
289.629
303.15
303.15
283.15
303.15
298.898
303.15
293.471
287.887
283.15
283.321
295.422
295.822
303.15
302.043
300.25
283.15
284.546
300.227
291.509
302.099
302.523
303.162
301.887
303.15
302.095
303.15
295.345
283.15
293.434
283.15
283.15
283.238
293.369
283.15
303.15
300.294
284.204
283.15
301.535
303.116
299.062
283.332
289.558
300.845
300.364
289.753
303.15
303.15
301.536
303.149
283.414
303.15
286.645
283.15
285.16
285.741
283.15
283.15
293.043
301.441
283.146
298.882
288.059
301.278
301.69
303.15
301.968
303.15
283.15
300.107
303.15
303.15
283.15
283.15
283.15
283.398
303.151
283.15
301.799
303.15
283.176
303.086
301.926
303.15
283.15
283.15
292.475
283.15
294.185
298.759
301.071
303.137
296.785
298.941
284.763
302.271
297.765
283.15
303.15
283.15
297.104
284.919
303.15
303.144
287.299
283.156
293.686
295.597
302.518
283.154
303.15
303.15
292.143
286.233
283.153
283.157
301.163
283.683
283.15
283.152
283.152
283.15
303.15
283.205
283.15
291.514
287.153
283.15
303.15
303.15
283.15
303.15
303.15
297.614
293.461
295.75
289.742
301.363
300.397
283.19
303.15
301.428
303.15
303.15
300.131
286.27
301.39
301.316
295.714
303.15
300.866
284.589
283.16
300.758
297.035
303.15
300.39
288.177
303.15
283.225
300.159
284.797
300.663
303.15
303.15
300.677
283.15
292.734
283.15
300.582
298.679
290.341
303.15
301.74
300.512
283.15
283.15
283.15
289.479
283.157
283.15
303.15
298.615
291.336
289.906
283.15
303.15
303.106
303.15
284.325
300.053
299.227
299.477
299.346
283.15
283.144
298.822
283.15
283.15
288.74
288.345
283.15
301.165
298.842
303.15
283.15
301.007
303.15
303.15
303.12
303.15
288.248
285.853
290.758
303.15
298.302
303.15
303.15
303.15
283.148
298.06
300.952
299.388
291.179
299.446
296.202
283.21
290.3
291.545
283.15
303.15
283.149
292.418
298.718
286.444
303.15
297.958
297.226
298.853
302.959
283.166
297.062
299.326
301.992
283.15
283.604
283.15
283.149
303.15
283.881
290.242
286.303
303.15
283.15
297.552
285.231
303.15
303.15
303.15
284.578
290.208
301.04
284.394
292.99
283.15
283.15
303.15
298.315
303.15
283.817
289.456
283.153
283.15
303.15
303.15
283.15
294.316
289.942
283.15
295.668
283.15
303.15
301.046
297.257
293.948
295.777
283.15
283.15
283.15
296.568
290.979
302.357
283.15
283.15
283.15
290.062
296.906
283.212
290.451
283.15
292.759
299.524
284.196
298.648
285.251
283.15
303.15
283.15
303.15
290.648
296.622
287.919
291.909
283.15
286.344
283.15
303.15
293.777
303.15
301.745
303.15
283.15
291.913
283.15
288.755
284.614
283.15
283.978
297.988
283.15
300.118
284.658
298.806
303.022
291.03
285.987
283.15
303.15
303.143
283.15
300.964
300.827
283.15
283.15
294.676
284.36
298.152
296.802
283.15
295.078
296.078
283.15
302.042
283.893
303.15
303.15
288.23
298.554
283.15
303.15
303.15
303.15
300.716
283.15
303.15
293.916
283.171
286.95
299.937
283.15
283.15
302.603
283.15
302.451
301.422
297.815
288.716
283.15
293.883
303.38
303.15
298.603
292.273
303.15
283.15
283.305
283.15
290.004
286.09
291.621
283.15
292.841
296.548
293.034
303.147
283.15
303.15
303.15
283.169
292.7
283.15
284.312
303.133
283.15
303.15
303.15
303.15
301.814
290.497
285.981
284.183
284.309
283.15
285.686
303.15
300.711
283.15
303.15
303.15
300.652
303.15
303.15
283.151
303.15
283.15
300.651
283.15
283.15
283.15
303.15
283.15
303.15
283.15
283.661
283.15
303.125
301.838
283.742
283.15
303.083
283.15
303.15
284.703
284.664
286.104
297.479
283.15
297.449
297.562
292.261
286.796
285.26
303.15
291.732
283.15
299.832
283.15
296.75
283.15
292.048
298.549
303.151
283.15
286.776
303.15
295.463
299.053
283.15
283.15
283.15
283.15
303.15
293.645
283.15
283.15
283.237
283.15
299.785
283.15
284.786
303.15
283.433
303.121
284.627
291.871
283.15
301.436
283.15
283.15
285.68
283.15
283.254
283.15
299.637
303.15
290.628
303.15
283.15
302.372
284.463
300.055
285.647
300.053
289.449
283.15
300.601
284.542
283.15
283.14
300.309
301.571
283.15
282.456
301.041
303.062
283.119
303.15
287.556
302.157
284.399
285.379
288.18
282.564
283.15
303.15
300.569
303.15
283.545
283.15
283.15
291.73
282.679
303.149
303.116
283.15
286.262
299.555
283.15
283.15
299.569
303.15
283.15
283.15
283.15
286.144
283.15
303.15
284.815
284.214
303.15
299.663
283.15
289.23
303.15
283.15
286.139
283.15
283.15
283.15
285.357
283.15
285.433
291.926
303.15
300.334
283.446
298.672
300.922
283.309
283.456
283.15
288.933
298.405
303.15
302.252
296.017
296.843
284.706
297.407
297.163
303.15
300.221
303.135
283.15
297.108
284.817
283.15
292.334
295.682
284.839
298.731
300.602
292.295
283.15
298.872
283.467
303.15
300.562
301.953
294.045
283.15
286.476
303.15
283.15
283.15
283.15
283.3
283.15
303.15
303.15
283.15
300.388
299.21
303.15
285.608
303.15
303.15
303.15
290
283.417
283.15
303.15
283.15
283.15
286.785
292.341
283.15
295.094
283.137
283.15
295.269
302.21
287.758
283.15
283.15
300.22
292.051
283.15
283.15
283.15
293.95
303.15
303.15
283.15
296.198
302.37
283.15
282.383
301.728
286.516
283.15
283.15
287.439
302.962
283.15
283.16
287.212
283.75
288.752
283.15
285.676
300.278
283.15
303.15
283.15
283.15
283.15
283.15
295.627
303.15
283.15
283.15
295.241
291.775
303.15
303.15
289.818
298.386
298.284
303.15
283.15
297.958
303.15
283.823
298.791
298.311
303.15
303.15
303.15
283.15
286.045
283.15
283.15
302.698
303.15
297.778
302.267
283.15
294.012
283.258
296.394
291.942
283.416
289.746
283.15
283.15
296.842
288.02
290.807
283.15
283.15
297.743
294.933
283.15
283.901
284.579
283.474
303.15
303.15
303.15
290.712
283.15
300.023
283.15
284.367
297.559
298.473
292.223
283.15
283.15
303.15
295.331
283.15
283.15
303.096
283.15
283.15
303.15
283.15
299.289
283.15
283.15
283.15
283.15
283.15
303.15
283.15
283.171
298.741
303.15
302.526
283.131
283.398
283.095
285.5
283.15
284.446
290.495
283.398
303.15
283.149
299.705
283.15
300.222
283.144
283.144
286.185
297.452
283.203
291.852
297.963
283.15
283.15
299.026
299.771
283.15
297.315
291.244
297.528
283.15
283.243
283.15
297.84
296.961
283.15
300.034
297.61
283.149
299.739
283.15
295.611
283.145
303.126
283.162
283.16
283.15
283.15
284.414
283.15
302.968
283.585
283.064
303.147
303.149
303.147
283.15
283.15
293.757
303.15
303.186
283.868
283.15
283.15
303.154
303.149
283.15
303.165
283.15
283.15
303.15
303.15
303.15
303.15
283.361
283.15
283.15
283.15
303.157
283.304
283.885
293.408
283.15
283.15
283.334
283.15
283.15
283.15
287.226
293.556
283.15
283.15
283.15
283.15
283.15
283.15
284.005
283.15
303.15
291.539
283.15
303.15
303.15
303.153
303.15
303.15
283.15
303.171
283.15
283.693
283.144
303.152
283.15
303.062
284.385
292.047
303.15
303.128
284.44
303.15
283.15
303.15
283.15
293.999
293.44
284.628
303.148
283.15
293.214
283.15
283.15
303.15
283.15
294.807
283.15
303.15
283.163
298.129
303.15
284.369
283.15
283.573
283.15
283.15
283.15
303.15
285.838
283.467
284.22
283.15
283.15
285.624
283.15
283.15
303.15
284.319
303.164
298.519
303.15
303.127
303.128
283.15
303.13
283.15
283.439
289.117
301.001
283.797
283.167
283.15
283.15
283.15
303.184
283.15
302.899
303.15
292.657
303.15
288.71
283.821
303.15
283.15
303.15
283.15
301.778
303.15
303.15
286.395
300.536
283.15
283.15
283.15
283.15
283.15
283.15
300.791
283.577
303.15
303.15
303.157
303.15
300.167
284.41
283.15
302.104
303.15
301.615
283.15
302.563
283.15
283.148
303.152
283.31
302.101
300.208
283.147
283.15
289.334
303.15
293.342
303.15
283.15
303.15
283.15
283.15
283.15
300.791
302.044
303.15
303.15
303.15
302.897
283.15
303.15
292.852
283.085
303.15
297.488
298.285
296.455
283.373
283.15
283.15
283.15
283.15
294.596
283.15
294.836
283.15
303.056
289.825
283.15
302.854
283.15
283.15
302.734
283.148
302.917
283.15
303.15
283.15
302.383
283.15
303.15
283.15
283.148
283.15
283.171
283.15
283.15
303.15
292.966
301.078
296.092
296.988
303.15
303.115
283.15
283.15
285.681
283.15
283.158
302.839
298.76
302.941
303.15
283.358
283.15
303.15
283.15
302.992
283.316
298.277
283.15
303.15
288.076
303.15
283.15
283.126
295.066
283.147
283.15
283.15
283.149
303.15
283.15
303.142
303.15
303.15
289.933
302.986
302.993
289.001
293.221
283.15
283.15
303.088
289.07
283.15
303.15
284.72
283.15
303.15
283.15
283.15
283.15
297.411
283.15
302.939
283.15
300.485
283.15
283.15
283.15
283.15
283.15
283.15
285.003
283.15
283.15
283.15
283.15
283.15
283.15
291.976
283.15
298.345
302.932
283.15
302.32
283.15
302.51
303.145
292.281
288.776
303.15
292.147
284.773
303.108
303.15
303.14
295.035
288.655
283.15
287.876
283.15
283.15
283.15
283.15
287.5
283.15
283.15
291.631
303.135
285.305
283.15
283.15
302.515
283.15
283.183
303.15
299.875
283.15
283.15
302.819
283.15
303.178
303.15
283.15
289.036
297.942
292.689
285.649
292.507
294.099
283.15
283.15
302.282
290.577
292.75
284.399
283.15
294.354
283.15
303.15
300.723
298.705
283.15
297.393
283.15
292.745
297.185
303.15
283.15
283.15
301.767
283.15
283.15
300.489
296.112
283.195
291.208
283.15
283.15
302.795
300.507
283.15
300.627
283.15
300.481
283.15
283.15
300.787
283.15
283.227
301.584
283.15
283.15
302.424
283.15
287.902
303.15
290.379
303.15
303.15
303.15
300.934
283.15
283.15
299.516
283.15
302.99
283.15
283.15
303.15
283.151
288.191
283.15
283.15
288.054
288.233
283.15
283.674
283.15
303.15
302.41
283.722
301.554
283.15
283.15
283.15
283.15
283.15
283.15
283.15
283.15
283.15
283.15
283.15
303.15
283.15
283.15
283.15
283.15
283.15
283.15
283.15
283.15
303.15
286.945
283.15
283.15
283.15
294.671
283.15
303.15
302.886
283.15
283.15
294.676
283.15
283.15
301.801
295.154
283.15
303.662
303.597
283.15
301.494
293.924
297.518
301.458
298.108
303.15
283.15
296.355
291.75
301.4
283.15
302.136
302.408
300.852
288.029
287.31
301.039
301.767
301.769
303.15
285.85
297.512
285.52
297.215
283.15
283.15
283.15
303.15
283.15
291.962
297.885
283.15
283.15
283.15
283.15
283.15
303.15
283.15
303.15
292.112
303.113
298.992
302.838
283.15
283.15
285.404
283.167
283.15
283.15
301.692
303.15
283.15
298.123
299.483
297.493
298.619
300.782
303.15
291.026
302.58
303.15
303.15
300.304
303.15
283.15
282.989
295.524
302.947
283.15
303.15
289.576
286.142
297.118
292.161
302.38
303.15
303.136
303.15
303.15
283.15
298.927
283.15
291.78
290.432
299.666
284.76
303.15
301.912
303.15
283.15
303.15
303.15
291.474
299.511
283.15
303.15
303.133
291.76
303.029
299.321
292.776
288.312
292.884
283.15
303.15
283.15
291.21
298.271
303.151
303.15
303.15
303.15
297.459
302.553
283.15
299.941
301.116
284.853
299.486
303.15
303.15
298.655
292.935
283.15
302.902
299.72
302.603
291.953
297.277
298.22
303.15
286.974
298.152
291.31
283.15
289.033
303.15
288.383
301.043
303.15
288.695
301.266
300.112
293.146
283.149
283.159
283.237
301.618
300.904
303.15
288.81
301.469
303.15
283.15
303.15
303.209
298.731
290.74
296.749
303.255
283.149
297.497
303.15
303.15
292.759
303.15
300.291
283.303
301.305
291.516
303.15
283.66
293.18
303.15
283.055
298.647
303.15
300.672
286.241
303.15
303.15
283.991
303.15
283.15
283.15
285.907
299.215
291.146
303.15
285.214
297.454
283.15
298.816
298.851
288.959
303.097
283.15
301.496
299.61
298.817
300.058
288.651
290.747
302.477
303.15
301.541
288.705
303.15
298.827
283.15
283.15
303.15
283.15
303.15
297.434
283.15
300.502
283.63
303.15
283.787
283.15
289.827
303.15
303.144
303.15
294.134
302.993
303.117
299.852
290.399
289.43
290.576
298.403
303.15
299.377
292.149
298.914
303.15
283.869
283.45
299.234
287.155
283.509
303.15
283.15
303.15
285.32
303.15
303.33
284.68
303.361
302.953
303.15
303.15
283.15
300.534
300.622
285.486
303.085
286.993
295.642
301.869
292.48
288.137
302.074
296.072
283.15
283.15
303.15
285.803
289.689
283.15
283.15
303.15
301.981
288.656
303.15
296.366
303.15
283.156
285.18
301.085
303.15
303.15
292.257
303.15
283.3
290.603
283.15
297.122
294.616
296.071
303.15
302.706
283.15
302.659
293.385
303.15
303.15
288.78
283.15
303.15
301.791
284.431
303.15
303.15
283.15
302.342
303.469
289.485
299.677
298.025
303.15
303.159
302.601
303.15
283.15
303.15
303.15
303.15
303.15
303.15
303.15
303.15
283.15
303.15
303.15
283.34
303.15
303.341
303.15
303.16
303.15
303.15
300.925
303.677
303.15
291.99
303.15
303.15
283.15
302.553
303.15
302.124
303.114
283.288
283.15
303.15
302.922
283.149
303.15
303.15
291.351
283.15
292.571
283.15
283.15
283.153
291.197
284.835
303.15
296.634
283.15
303.754
303.133
284.309
302.587
283.15
292.148
303.084
301.671
283.15
303.15
283.15
304.113
284.814
296.864
303.15
303.15
303.15
303.15
303.15
303.15
302.337
302.803
297.601
291.987
303.15
287.118
292.624
284.968
303.206
283.15
286.905
302.747
284.757
283.148
287.471
303.15
283.38
302.915
292.512
302.841
301.895
303.15
302.222
303.15
303.15
297.913
303.15
284.464
303.15
303.15
283.15
303.15
303.15
302.84
303.15
283.296
283.15
283.15
285.797
284.906
300.892
286.08
303.15
294.663
303.15
290.439
303.15
287.128
300.668
301.472
293.331
303.15
303.15
303.15
289.796
283.15
303.15
289.55
283.15
283.15
301.814
303.15
286.185
283.148
283.15
303.15
303.15
300.645
298.166
303.15
293.403
303.037
283.15
298.552
303.15
286.41
288.224
302.137
303.15
296.278
296.726
302.95
301.872
301.651
303.15
303.15
303.147
303.15
283.15
303.15
289.554
300.061
294.315
302.124
283.15
300.347
291.38
298.204
283.601
298.301
289.578
302.156
283.15
283.15
283.15
302.202
283.15
290.466
283.15
301.253
303.162
289.707
298.032
283.15
303.15
301.241
301.219
303.15
283.15
303.15
286.426
301.43
302.975
302.33
297.994
288.43
303.15
303.15
303.15
294.216
285.952
289.772
295.851
283.953
302.953
303.15
303.15
283.15
283.15
285.415
299.568
303.15
303.15
283.15
303.15
303.15
303.15
300.241
303.15
285.349
292.407
283.15
283.247
293.338
285.691
303.15
303.15
301.878
303.15
299.214
283.147
297.553
303.15
303.15
283.15
303.15
303.15
303.15
305.157
303.15
301.83
301.107
303.15
303.15
301.609
303.15
283.15
287.233
303.102
303.15
303.15
303.15
297.907
303.15
303.15
302.459
302.483
301.769
303.15
283.15
303.15
302.036
302.504
301.515
302.526
283.15
300.634
287.479
297.433
283.15
303.15
303.15
303.15
303.15
294.345
287.562
299.644
303.15
303.15
303.15
303.15
283.15
303.148
284.763
285.14
283.15
303.15
303.15
283.148
299.576
294.908
283.15
303.15
303.15
303.15
303.15
289.6
289.65
303.15
303.15
302.393
303.15
301.438
283.947
291.835
303.15
283.15
301.156
303.123
303.15
303.007
301.308
286.806
303.15
303.15
303.15
303.15
293.271
284.142
303.15
302.69
298.039
289.365
303.15
303.15
303.15
303.15
299.526
303.151
303.15
303.15
298.238
302.583
288.33
303.15
303.15
297.722
303.15
303.15
303.15
303.15
288.798
303.15
283.15
283.15
295.915
291.073
303.15
303.15
303.15
296.981
303.146
303.15
303.15
303.15
303.15
303.404
300.866
303.15
287.324
302.639
299.368
303.15
303.15
303.15
303.15
283.15
285.647
303.15
302.845
283.15
302.172
303.15
303.133
303.15
283.15
301.917
285.658
283.15
302.823
303.15
302.414
283.15
303.15
303.15
303.151
303.15
283.269
303.15
290.837
283.15
283.15
303.15
303.15
298.812
302.376
283.15
302.406
283.15
284.09
287.976
302.702
283.15
303.155
302.986
303.134
284.387
283.156
302.981
283.15
283.15
283.156
302.068
302.286
303.15
283.15
283.15
295.292
303.15
283.15
303.15
303.15
303.15
303.108
303.045
302.928
302.444
303.15
302.901
303.15
284.814
303.15
303.15
283.15
303.15
303.11
303.15
283.15
303.15
288.309
303.15
303.15
303.165
283.15
302.826
302.044
296.652
303.15
289.251
294.411
283.781
289.909
283.15
283.15
287.207
284.316
283.15
303.825
283.15
286.41
303.15
283.15
303.156
303.15
303.15
303.012
303.155
303.15
283.15
303.138
303.15
283.15
283.105
298.723
302.699
303.15
301.839
303.15
285.705
303.152
301.173
303.15
303.15
301.037
303.15
303.15
303.15
287.685
303.15
285.141
303.15
303.147
303.15
283.15
283.15
303.15
303.15
303.15
288.701
302.546
303.15
303.15
288.567
286.494
291.18
303.15
302.698
287.667
287.526
303.15
303.15
287.645
283.15
291.882
303.15
303.152
303.149
303.15
300.51
283.15
302.299
283.15
303.15
303.15
303.15
303.15
303.15
284.328
302.244
291.021
303.15
303.15
290.552
303.15
303.15
303.15
303.15
303.15
300.134
303.15
303.15
283.15
299.437
303.15
283.15
303.15
301.359
283.15
299.942
290.817
302.682
300.004
299.419
303.15
303.15
303.15
300.813
288.462
283.15
303.15
300.302
303.15
303.15
291.95
303.15
287.472
303.15
297.803
284.308
303.15
283.15
303.15
303.15
303.15
285.235
303.15
300.475
303.15
303.15
299.683
283.15
284.745
303.15
303.15
288.088
301.529
296.398
303.15
303.15
303.15
301.546
292.255
303.15
283.15
303.15
300.653
303.15
284.768
296.279
303.15
303.15
301.124
303.15
303.15
283.15
303.15
283.15
294.533
303.15
283.15
303.15
303.15
303.15
303.15
303.15
303.15
283.15
301.495
283.15
302.071
303.15
303.15
296.047
300.461
303.15
283.15
303.15
300.868
283.15
303.15
303.15
303.15
300.719
303.15
297.64
303.15
285.82
283.15
286.725
303.15
303.15
298.477
283.15
303.15
287.839
283.244
303.15
303.15
285.067
283.844
300.838
301.722
301.173
293.132
301.728
283.843
303.15
297.677
283.15
283.15
303.15
303.15
303.15
301.195
303.15
303.15
303.15
303.129
283.169
283.15
283.555
303.15
302.008
283.15
303.142
296.074
283.15
294.554
303.15
303.15
283.15
299.869
283.923
303.15
283.15
299.895
303.15
297.634
303.15
295.273
303.15
283.15
303.15
283.15
299.404
283.15
283.225
283.15
286.192
303.15
303.15
283.15
283.15
303.15
303.15
303.15
303.15
284.872
284.724
283.15
303.15
283.232
283.15
283.15
303.154
289.841
283.534
283.15
301.487
284.862
300.451
288.153
303.15
303.15
303.15
303.15
283.15
283.15
283.15
303.15
283.15
283.15
303.15
283.15
297.249
283.15
303.15
283.15
303.15
303.15
283.304
283.15
303.15
301.936
303.149
303.15
303.15
303.15
288.709
283.15
303.15
303.149
283.15
303.15
303.15
303.15
295.22
283.15
283.18
303.15
303.15
303.15
303.15
303.15
303.149
303.147
284.095
303.15
283.15
303.15
303.149
303.15
303.148
303.149
283.15
283.15
283.15
303.15
303.15
283.15
303.149
283.15
287.693
283.15
301.802
283.15
303.154
303.15
284.602
283.15
284.445
297.354
303.15
284.686
303.173
303.15
297.362
283.15
303.15
303.15
303.15
303.15
283.15
303.15
303.15
299.134
283.15
303.15
303.15
303.15
303.15
292.303
290.295
303.17
283.165
303.15
301.801
302.306
303.15
283.15
283.15
303.15
303.15
303.15
283.15
283.15
283.819
303.15
303.15
303.198
303.151
283.15
288.832
303.15
283.15
303.15
288.063
303.15
283.15
302.109
283.15
283.15
283.15
303.15
299.658
303.15
303.15
303.15
283.15
284.498
293.583
295.19
289.52
303.12
303.016
283.15
283.15
301.004
283.691
283.15
303.149
303.15
303.15
283.15
294.529
303.15
283.15
302.977
303.15
303.15
283.792
303.15
303.15
288.388
289.526
303.15
283.15
303.15
283.15
303.15
303.15
303.15
303.15
283.944
303.15
303.15
303.15
302.926
303.15
303.15
283.15
283.15
283.15
283.15
302.939
283.15
283.15
300.949
303.15
284.763
284.923
303.15
301.108
303.15
283.15
303.15
283.15
283.15
303.15
303.15
303.15
302.656
303.15
303.15
303.15
283.15
303.15
283.15
286.359
303.15
303.15
291.601
303.15
283.15
283.15
302.41
303.15
303.147
283.15
303.19
286.64
283.15
283.15
299.18
283.15
283.15
303.045
303.161
293.307
303.167
303.151
303.152
283.15
283.15
302.639
283.451
285.811
300.828
283.157
283.15
291.026
301.553
301.45
283.15
300.198
290.682
300.128
302.195
302.738
284.676
295.455
299.186
286.246
293.274
300.085
303.15
297.942
297.54
302.785
283.656
292.329
301.128
287.321
303.15
301.034
303.15
300.705
301.481
283.63
284.965
303.15
283.15
302.273
301.674
283.146
303.173
288.536
302.671
301.816
300.807
303.15
303.233
301.106
295.035
300.412
288.914
302.907
301.623
302.182
302.262
284.205
302.496
301.578
283.179
303.15
302.892
303.15
303.15
302.087
301.992
294.238
303.15
284.657
292.291
292.315
300.877
303.15
284.003
285.178
284.384
303.15
298.752
303.15
296.356
295.35
300.732
303.142
303.15
303.15
301.931
301.246
302.78
303.15
292.593
302.739
289.929
283.15
298.332
293.971
303.15
300.494
283.15
283.203
283.15
302.566
303.096
303.15
302.979
298.361
283.148
300.483
302.212
295.307
283.534
295.825
297.039
283.458
303.133
284.724
296.303
283.318
296.826
300.485
300.228
300.334
301.992
289.768
301.56
303.15
302.713
302.643
302.645
296.484
302.88
283.15
302.003
293.416
303.15
283.432
286.829
301.179
302.593
290.507
284.812
287.686
302.618
296.354
303.15
303.15
294.989
283.15
292.659
283.429
303.15
290.55
290.288
283.908
303.15
297.267
298.479
284.218
301.221
294.156
290.16
300.52
303.106
303.15
303.15
283.525
302.605
283.348
285.777
303.15
303.016
303.035
303.15
285.406
300.786
297.82
283.245
299.546
302.365
300.493
286.879
283.15
303.106
301.808
283.733
283.137
303.15
303.071
303.15
303.15
284.171
302.522
296.358
283.035
283.153
303.15
283.15
302.947
303.042
302.495
301.393
303.15
283.15
283.15
301.805
301.862
283.214
295.861
303.15
303.15
301.602
285.477
283.258
301.665
301.766
301.715
284.402
303.15
283.15
298.446
297.737
303.15
302.698
302.073
284.685
284.959
302.103
303.052
303.15
298.115
284.426
283.15
303.15
300.567
301.198
302.006
289.593
302.065
285.642
300.121
300.263
290.326
297.505
303.15
303.15
300.919
284.453
302.083
283.151
300.485
301.697
283.619
288.29
302.414
283.15
283.15
283.029
303.15
303.15
299.918
298.924
302.28
283.147
283.15
283.928
283.151
283.15
283.151
303.074
300.915
299.152
295.855
283.367
303.096
300.117
303.15
283.15
302.551
289.215
300.766
292.684
283.501
303.059
283.148
283.15
302.833
301.191
302.609
283.155
291.262
284.863
303.15
284.254
301.026
283.15
283.308
284.928
284.139
283.15
283.15
301.622
283.15
289.354
302.522
302.7
301.77
283.479
298.26
289.986
283.15
303.346
292.07
283.15
283.15
283.15
303.15
301.193
302.408
299.154
301.456
299.906
288.84
283.155
290.975
290.149
303.058
291.062
299.969
292.052
283.15
286.289
301.07
301.534
283.15
283.971
299.623
283.15
303.15
283.187
301.268
303.15
284.015
302.252
303.019
303.15
283.15
292.78
303.153
301.681
283.15
283.15
283.15
302.189
297.547
303.143
302.187
303.167
303.15
288.363
303.167
290.428
300.21
300.17
296.574
283.156
301.689
283.15
290.578
301.398
289.437
290.475
298.96
300.676
301.585
287.166
291.131
285.009
283.172
302.21
286.123
283.149
283.144
300.193
283.079
300.284
286.983
296.043
299.414
289.182
299.256
283.121
299.126
283.15
289.986
289.003
298.646
283.328
283.15
300.558
283.15
302.797
283.15
303.15
286.479
286.478
283.15
298.969
298.547
287.032
303.15
303.15
301.721
289.778
302.994
283.723
301.565
287.074
303.147
284.189
288.185
303.15
301.414
283.15
283.15
287.555
287.015
283.145
285.239
301.484
286.23
301.17
303.15
285.101
301.736
291.18
303.15
303.15
301.607
302.038
303.15
293.011
294.267
283.677
296.374
286.781
290.001
303.15
302.771
296.991
285.006
283.15
287.716
291.899
299.634
283.163
283.745
282.947
301.94
303.116
283.151
303.133
303.15
300.557
293.048
298.795
293.815
283.15
291.928
295.96
285.586
283.21
291.517
283.15
300.257
303.164
292.524
284.094
303.144
291.84
298.594
288.221
300.342
291.319
287.309
283.15
303.142
285.341
289.873
293.461
283.15
283.15
283.15
303.141
283.15
283.137
286.421
303.15
283.15
303.167
283.172
291.099
288.923
303.537
302.91
289.846
303.15
296.956
303.177
301.994
287.25
283.15
292.9
303.145
303.093
286.18
283.15
283.15
283.473
286.007
303.053
303.144
287.505
289.466
283.48
283.162
289.84
293.2
303.15
283.15
303.095
303.15
302.324
285.007
302.332
303.093
284.052
283.767
284.031
302.849
302.174
297.379
293.971
303.069
291.259
291.017
303.15
303.097
302.577
285.427
283.376
303.15
285.933
283.383
302.928
301.662
302.167
283.15
300.316
301.839
303.15
302.146
285.403
303.15
297.873
303.15
283.15
300.664
302.68
286.324
302.482
283.15
285.157
303.009
283.15
302.301
285.368
294.858
284.335
303.15
303.016
302.871
286.498
283.15
287.114
284.245
289.768
285.72
302.243
303.15
283.15
283.15
293.115
283.15
301.036
302.153
290.349
283.15
294.007
283.15
303.15
283.15
300.047
298.536
283.151
285.266
301.715
303.071
303.156
291.817
294.165
301.187
283.208
301.79
283.145
303.15
303.142
299.015
283.15
300.798
294.738
303.15
300.933
287.3
301.942
284.89
288.187
283.15
302.212
287.719
298.388
303.074
283.15
303.15
291.624
302.152
283.077
283.147
286.728
298.314
303.149
284.477
301.012
300.983
301.238
303.153
299.866
287.633
284.915
301.568
299.87
283.723
283.104
303.16
303.149
303.15
297.315
283.163
283.15
303.15
303.149
289.888
298.891
300.26
287.767
302.797
303.15
286.417
301.541
303.15
300.941
283.793
301.44
303.15
284.53
301.369
295.489
302.761
303.15
303.15
285.162
295.022
296.333
287.361
303.15
303.15
283.15
287.196
302.394
296.121
303.15
285.535
303.15
303.15
300.437
288.695
283.15
295.505
295.832
299.049
283.15
303.15
292.644
287.206
303.15
297.911
300.472
300.378
303.15
303.15
303.15
300.185
298.284
302.795
299.852
283.15
292.855
287.648
290.559
300.544
303.15
303.15
300.724
303.096
286.536
296.056
303.15
303.147
283.15
286.418
298.882
285.565
303.15
303.15
283.339
303.121
303.15
303.15
283.15
290.492
303.15
303.15
284.564
299.256
283.15
303.15
284.61
301.301
300.135
286.966
294.909
303.15
283.491
303.15
303.15
283.311
300.503
290.368
300.366
303.15
303.129
302.167
292.593
299.765
301.336
284.441
283.451
300.82
298.345
303.15
302.743
284.121
299.69
301.352
287.657
303.15
297.384
301.381
301.469
301.509
292.855
303.15
283.15
299.154
283.15
283.15
287.726
283.15
283.998
283.15
283.15
283.15
283.15
302.748
288.12
302.695
283.15
295.644
290.904
284.719
283.15
303.15
302.67
301.722
303.161
302.628
283.15
294.753
300.23
290.136
283.15
283.15
299.785
285.919
283.15
283.15
303.149
290.533
283.15
287.114
303.149
303.152
284.304
283.15
288.16
292.339
300.771
294.559
302.954
285.6
302.49
295.203
286.246
283.15
283.532
291.578
303.071
289.079
302.648
283.15
292.333
287.723
301.001
301.24
284.871
303.104
284.885
297.015
302.981
303.146
285.115
303.145
303.002
293.257
302.669
283.15
303.15
303.15
294.713
290.994
283.155
301.074
284.671
284.142
284.6
303.145
288.32
300.425
283.15
283.15
302.496
303.15
294.514
302.896
303.182
299.778
303.223
302.878
283.15
301.26
302.874
283.15
303.15
301.289
303.15
284.293
298.718
283.163
291.492
283.15
287.552
303.01
299.707
283.15
303.021
290.868
301.168
303.125
303.077
283.15
283.15
301.919
301.98
283.792
302.804
302.405
302.358
303.141
283.15
293.663
283.15
302.78
287.833
302.985
303.15
283.15
302.814
285.093
291.439
302.026
283.15
302.574
301.973
301.54
302.474
303.043
303.211
303.008
303.15
283.15
301.493
297.773
303.086
303.15
289.881
284.858
303.15
283.15
285.283
303.184
303.165
302.914
301.108
284.249
303.096
290.628
294.176
303.148
288.996
303.164
283.15
289.794
283.15
299.921
298.074
284.756
288.133
299.575
296.615
295.237
299.126
293.712
303.154
293.781
296.326
283.16
299.337
293.804
303.15
298.856
299.092
303.15
291.125
303.172
301.654
303.15
286.894
286.002
302.794
289.626
283.15
283.15
300.32
301.112
283.711
283.15
303.15
300.188
302.305
300.579
299.822
302.779
292.527
289.596
286.602
292.441
284.295
290.353
283.302
295.65
290.383
293.89
287.044
284.267
303.163
283.27
303.148
285.579
300.686
283.151
300.362
298.347
288.7
302.082
285.373
299.027
283.15
302.949
283.154
283.117
287.617
299.616
303.15
300.318
303.016
299.885
302.754
303.15
301.228
284.94
294.863
302.029
303.149
283.702
283.15
290.244
285.22
285.732
303.128
303.148
283.15
283.15
283.176
303.15
293.423
303.15
303.148
294.177
303.433
303.15
300.389
303.15
303.15
293.629
290.557
303.15
289.788
302.038
289.514
303.15
303.15
285.907
283.331
290.271
303.226
303.15
303.145
285.451
283.243
283.15
288.932
287.554
303.15
284.292
303.15
303.15
303.132
287.301
303.15
303.147
283.275
303.152
302.654
287.88
283.152
283.594
297.282
290.699
303.15
285.911
284.412
301.298
287.074
302.195
290.538
293.798
303.15
303.15
284
303.147
302.941
295.822
302.937
302.734
287.136
283.15
285.29
283.217
297.072
302.576
285.354
303.15
283.784
286.686
303.124
283.175
303.15
286.352
283.15
300.086
303.15
299.682
299.842
283.252
283.357
302.312
290.778
301.308
303.15
301.369
301.721
303.15
303.15
298.282
293.353
283.15
288.725
303.15
295.168
283.354
303.15
296.84
298.661
288.945
303.15
302.751
294.145
295.304
284.452
303.161
298.62
296.05
283.969
303.122
302.795
287.331
298.37
289.772
290.747
289.695
283.15
302.939
303.152
303.15
303.175
293.012
296.237
302.973
301.262
303.15
284.437
303.15
303.039
302.852
303.15
293.483
296.177
303.15
285.355
303.094
303.15
303.088
303.158
286.038
293.27
291.058
288.363
293.35
303.15
301.174
291.35
295.293
293.407
303.141
303.15
300.521
303.189
284.23
303.19
303.15
303.15
303.143
303.15
284.92
303.15
284.208
303.146
303.15
290.167
303.144
292.419
295.455
303.133
295.255
285.967
283.442
303.124
302.931
284.659
283.15
297.051
303.15
285.481
302.908
302.018
303.015
298.369
287.02
303.15
298.641
289.856
299.299
283.15
283.608
303.15
303.145
303.19
294.01
303.15
292.376
289.291
303.195
303.15
284.77
298.698
293.16
299.53
302.462
301.567
300.339
303.15
284.701
296.897
302.352
285.559
298.298
292.226
284.451
291.577
303.15
286.605
291.763
290.085
299.386
303.15
286.424
284.076
303.15
302.413
288.103
302.086
283.15
303.15
299.781
301.669
288.946
301.962
301.893
301.786
303.15
289.264
285.111
301.94
302.218
297.082
303.15
283.2
303.15
301.962
303.15
302.791
303.15
291.611
303.15
296.436
283.15
289.388
303.15
283.15
292.142
301.41
300.366
289.156
300.447
303.15
302.481
303.15
302.356
285.186
303.15
300.353
290.344
303.15
300.761
303.15
303.15
293.132
283.15
285.526
293.164
300.88
303.15
291.112
293.788
288.138
289.613
288.073
299.174
300.227
300.752
287.335
287.069