/*--------------------------------*- C++ -*----------------------------------*\
  =========                 |
  \\      /  F ield         | OpenFOAM: The Open Source CFD Toolbox
   \\    /   O peration     | Website:  https://openfoam.org
    \\  /    A nd           | Version:  10
     \\/     M anipulation  |
\*---------------------------------------------------------------------------*/
FoamFile
{
    format      ascii;
    class       volVectorField;
    location    "9.2";
    object      U;
}
// * * * * * * * * * * * * * * * * * * * * * * * * * * * * * * * * * * * * * //

dimensions      [0 1 -1 0 0 0 0];

internalField   nonuniform List<vector> 
111485
(
(2.90923 -2.9098 0.00350952)
(8.5092 -0.0222854 -0.0493387)
(8.38364 0.0199508 0.0260383)
(2.90977 -2.91054 0.000230765)
(8.71052 0.0383578 -0.00338799)
(3.0563 3.05468 0.000263667)
(8.56165 0.025121 0.00218595)
(8.79455 -0.0251471 0.0121588)
(8.5662 -0.0048268 0.00612837)
(8.76629 -0.0954062 -0.0410449)
(8.43403 0.0208302 0.0250348)
(8.82431 -0.0216941 0.0405576)
(8.3114 0.00718126 0.0186705)
(8.39504 -0.0174875 -0.0615493)
(8.50908 0.0336532 0.0178697)
(8.6904 -0.0587937 -0.047656)
(8.55292 -0.00952269 0.0128235)
(3.00112 -0.216208 0.444265)
(8.73357 0.0252218 -0.019375)
(2.88902 -2.88514 -0.00147304)
(2.89424 -2.89377 -0.00337538)
(3.06394 3.06293 -0.000261423)
(8.63797 0.0294808 -0.00885038)
(8.77347 -0.0594376 -0.017388)
(8.5937 0.0331261 -0.00987426)
(2.93278 -2.91969 -0.00333344)
(8.86526 -0.043963 0.0457589)
(8.38832 -0.0126712 0.00367264)
(8.75973 0.0152444 -0.0199179)
(2.89939 -2.90038 -7.23765e-05)
(8.82761 0.143268 -0.03754)
(8.72159 -0.019416 0.0024826)
(2.88709 -2.89335 0.00427315)
(3.06026 3.06656 -0.00752389)
(3.06858 1.28549 0.490514)
(3.07941 3.10001 -0.0450072)
(8.78496 0.14351 -0.057831)
(8.49944 0.031131 0.074453)
(8.7514 2.65243 0.147704)
(8.72406 0.0422472 0.00325412)
(3.02276 3.05022 -0.0213008)
(8.82054 0.0100773 -0.0510094)
(8.71472 0.0440314 0.015105)
(8.40774 -0.050635 0.0015335)
(8.7905 -0.153979 -0.078832)
(2.91714 -2.89561 0.0152781)
(8.81968 -0.040257 0.0408886)
(8.76093 -0.0549169 -0.0165299)
(8.82109 0.00398753 -0.0382939)
(2.89297 -2.85838 0.0160291)
(2.87734 -2.85027 0.0182188)
(3.47876 2.92748 0.050524)
(2.86838 -2.85722 0.00935579)
(8.80639 0.0402746 -0.0748459)
(2.86112 -2.8491 0.00098664)
(8.70539 0.0233262 -0.0079726)
(8.70796 -0.0371935 -0.0176684)
(3.06392 3.05797 0.00174124)
(7.94138 -0.0177397 -0.140076)
(8.74864 0.0355831 -0.00528431)
(8.74712 0.0395528 -0.00376687)
(2.90019 -2.90589 0.0037417)
(8.10936 0.00883686 0.0536221)
(8.84867 -0.0227887 0.0687714)
(3.15902 2.86383 0.00464995)
(7.979 0.0183675 -0.015411)
(6.13582 -0.485318 0.214809)
(8.77582 -0.0310961 0.0125464)
(7.91371 0.0034027 0.0234432)
(7.48522 -0.01488 0.00429831)
(8.46594 0.0517774 -0.042983)
(7.85195 -0.00869761 0.0258124)
(3.14143 -2.82756 -0.065374)
(8.02138 0.0151323 0.0629459)
(2.90642 -2.90539 -4.72981e-05)
(8.73379 -0.0203661 0.00968079)
(3.06303 3.0631 -0.000530816)
(8.8107 -0.0188434 0.0466637)
(3.06218 3.06028 -0.000405162)
(2.75833 2.6914 -0.0911852)
(8.49128 -0.131482 0.0891918)
(8.76915 0.0345733 0.00770108)
(3.05173 3.0445 -0.000142056)
(2.90685 -2.907 0.00163645)
(8.25842 -0.00169694 0.0157874)
(7.91342 0.021655 -0.0327629)
(6.80159 4.41654 -1.18446)
(8.68858 0.10234 0.00922357)
(8.37037 0.215364 0.184461)
(8.47627 0.0108114 0.0255557)
(8.96644 0.179852 -0.114065)
(8.71932 -0.0150257 0.0138237)
(8.15558 -0.0132823 0.0321768)
(8.29073 -0.00930917 0.00937308)
(8.83098 0.0267134 -0.0554914)
(2.90673 -2.9064 -0.000689479)
(2.90177 -2.90076 0.00155012)
(8.68518 0.0955989 0.0298393)
(8.94706 -1.76408 0.125227)
(8.13562 0.0300385 0.0535727)
(2.90663 -2.90712 0.001432)
(8.73525 -0.0475371 0.00471857)
(3.07627 3.08139 0.0168841)
(8.6634 0.000624042 -0.00478368)
(8.58726 -0.0445191 -0.0551591)
(3.00521 2.68895 -0.0631886)
(3.06289 3.06183 -0.000574102)
(8.72897 -0.0239506 -0.00238122)
(8.0647 -0.0442342 0.0101698)
(7.72879 -0.229925 -0.245125)
(8.25386 -0.00651176 0.0152006)
(8.67208 0.0122023 -0.00479215)
(8.08741 -0.00489895 0.032733)
(7.96234 -0.0416159 0.0177356)
(2.93476 -2.91895 0.00237803)
(7.65574 -0.007299 0.0231052)
(2.91813 -2.90876 -0.00356191)
(3.07667 3.0636 0.0127074)
(8.52248 0.0335263 0.0247821)
(2.90895 -2.90693 0.00104719)
(2.93413 -2.91872 -0.00142746)
(4.02579 3.16925 0.188007)
(3.03115 3.04388 -0.00586162)
(3.06943 3.0621 -0.00727683)
(8.33038 -0.0210078 0.0407976)
(2.31537 -1.62902 -0.435661)
(3.83876 3.30263 0.116364)
(7.73207 -0.00212266 0.0376669)
(2.9064 -2.90525 -0.00102548)
(8.77261 0.661496 -0.237731)
(8.75653 0.16941 -0.0869062)
(8.6692 0.0980471 0.0289367)
(2.89362 -2.88636 -0.0142846)
(3.94295 3.42968 0.353288)
(3.67966 3.28408 0.154869)
(8.7564 0.0263652 -0.0162455)
(3.06522 3.06492 -0.00094853)
(8.69104 0.0204322 0.00127835)
(8.63425 0.0399863 0.0234114)
(8.48737 0.0385927 0.036331)
(6.65164 0.000745647 0.0277361)
(8.7035 0.0450147 0.0105887)
(8.62966 0.0445723 0.0282007)
(8.22511 0.00870774 -0.0344477)
(8.59789 -0.0165531 0.0089751)
(8.5035 -0.00440769 0.0214192)
(3.0659 3.06616 -0.000632499)
(2.90671 -2.90796 0.000266435)
(3.05737 3.05905 0.00639479)
(8.70794 0.0385572 0.00679088)
(8.2291 0.0146407 -0.0311645)
(2.89625 -2.89478 0.00184792)
(5.68636 -0.0334091 0.0574149)
(8.48989 0.0407853 0.0191573)
(9.30049 0.375832 0.163717)
(8.75518 0.0260004 -0.0170373)
(8.71544 0.0269406 -0.00674602)
(8.07513 0.00257514 -0.0157464)
(9.38725 0.460048 0.11343)
(2.89059 -2.91785 0.0112505)
(2.90467 -2.90732 0.00276136)
(8.74032 0.0251076 -0.0167983)
(8.56247 -0.0305928 -0.0316828)
(9.4494 0.518325 0.123398)
(9.32052 0.453707 0.16998)
(8.10318 0.0120441 0.0414766)
(8.72088 0.108919 -0.0395025)
(3.02487 3.05015 0.00050804)
(9.56078 0.641793 0.152238)
(9.11994 0.461969 0.141174)
(3.06085 3.06267 0.000850109)
(2.90137 -2.90075 0.000218358)
(6.95138 0.00856493 -0.0540833)
(3.06417 3.0655 0.000396825)
(8.67604 -0.0188724 -0.00352828)
(8.3472 0.00456864 -0.0192262)
(3.06341 2.99011 -0.0167941)
(3.14368 -2.88477 0.031323)
(2.90077 -2.88581 -0.00511566)
(3.01928 2.85191 -0.0294843)
(3.15994 -2.90875 0.0510864)
(2.90431 -2.90611 0.00261154)
(8.68654 0.03368 0.0090098)
(8.70205 0.0207716 -0.0163429)
(8.67076 0.0266965 -0.00901583)
(8.56101 -0.0254765 0.0307336)
(8.24988 -0.0202831 0.00674777)
(8.27864 0.0140501 0.0262492)
(7.34149 0.0955817 0.0101507)
(2.90169 -2.89158 1.02481e-05)
(8.01653 0.00131366 0.0103462)
(3.13622 -2.90824 0.0317252)
(2.9279 -2.93299 -0.00147353)
(8.34849 0.0159223 0.0298496)
(8.77045 -0.106373 -0.0394547)
(8.68564 0.0174479 -0.0397541)
(8.33889 -0.00973369 0.0110747)
(8.4926 -0.00635354 0.0099626)
(2.90125 -2.89656 0.00719417)
(8.32917 -0.0378921 0.00585676)
(8.30592 -0.00879227 -0.0524356)
(5.82061 1.86412 0.237397)
(8.51444 -0.0684892 0.00547355)
(8.63521 -0.0144133 0.0077428)
(2.91518 -2.89878 -0.0046887)
(8.31247 0.0205463 0.0297347)
(8.72621 0.0207308 -0.00720722)
(3.19064 -2.87559 0.0143757)
(8.37342 0.0209009 0.0319703)
(8.7896 -0.00648141 0.0447533)
(8.22489 0.00930118 -0.0358394)
(8.28798 0.0217831 0.0390045)
(3.15701 -2.91822 0.0412769)
(2.89974 -2.89993 -0.000793705)
(8.28571 0.0222146 0.0419161)
(5.4402 3.41868 -0.337022)
(8.89053 0.0386051 -0.0871437)
(3.06263 3.0637 -0.00188302)
(8.33743 0.0165874 0.0348463)
(8.34389 0.00624134 0.00509185)
(8.84118 -0.0282214 0.0552378)
(2.90882 -2.90751 0.00113083)
(7.78312 -0.0021842 0.0209376)
(8.73474 0.125565 0.065581)
(4.80914 3.23391 -0.352485)
(3.06421 3.06474 -0.00226503)
(3.06089 3.06257 0.000841089)
(8.93221 -0.0577501 0.0851296)
(8.33946 0.198651 -0.0238377)
(3.21872 2.71982 -0.0622809)
(3.60775 -2.79262 0.114672)
(8.36912 0.00840106 0.0150704)
(8.64259 0.014704 -0.000793712)
(8.72817 0.0191506 0.00818657)
(3.17223 2.76347 -0.0813582)
(3.06864 -2.82286 -0.0102041)
(8.40331 0.100324 -0.119614)
(2.90606 -2.90587 0.00173565)
(7.96748 0.0105697 -0.0509821)
(8.275 0.00562364 0.0344103)
(8.36559 0.00409119 0.0188114)
(8.37635 0.0170605 0.0215499)
(8.41031 0.00936794 0.0288717)
(3.05257 3.05319 0.00946167)
(6.33149 -0.0188475 -0.246579)
(8.51022 0.0190854 0.0330425)
(3.04786 3.05308 -0.00367969)
(3.0627 3.06465 0.000309445)
(8.8704 -0.108024 -0.0104443)
(8.66824 0.0390028 -0.0130434)
(3.13535 2.67343 -0.0831722)
(7.89042 -0.00337003 0.0240817)
(8.49384 0.0240751 0.0223185)
(2.90837 -2.90693 -0.000873354)
(3.86872 3.64769 -0.0234211)
(8.72678 0.0800131 -0.035051)
(2.91955 -2.88148 0.00156041)
(3.23142 -2.28956 -0.0545828)
(4.44668 -1.54877 -0.157236)
(2.91155 -2.90319 -0.0014703)
(8.54403 -0.015303 -0.0165611)
(8.3059 -0.0130778 -0.0163715)
(8.65096 0.0138921 -0.0217401)
(2.90475 -2.90521 -0.000210586)
(8.56204 0.0241068 0.0201198)
(2.90976 -2.91052 0.000219217)
(2.90904 -2.91003 0.000730923)
(2.90115 -2.88983 0.00478419)
(5.83917 0.0224779 -0.0909361)
(8.79387 -0.0425574 0.0497523)
(8.36927 0.0310991 0.0433524)
(8.52907 0.028543 0.0135448)
(8.82577 -0.0511896 -0.0020613)
(8.4892 0.0128203 0.0145729)
(8.70199 0.0313907 0.0110103)
(8.76495 0.149345 -0.0143304)
(8.5786 0.0123268 -0.00343204)
(8.65247 0.015197 -0.00433219)
(3.11568 3.06609 -0.00186013)
(2.89738 -2.89753 -0.00380874)
(5.33518 0.0351285 -0.130043)
(8.70125 -0.0196258 0.0023108)
(8.77053 0.066406 0.0711515)
(8.28007 -0.0106307 -0.0135413)
(2.90939 -2.90769 0.000773954)
(8.65561 0.0274344 0.0159832)
(8.69169 0.0442891 0.0213434)
(8.51602 0.0196773 0.0107326)
(7.48631 -0.00778195 -0.0400664)
(7.84863 -0.0887629 -0.197162)
(8.64192 0.0269846 0.00999369)
(8.50506 0.0240914 0.0151457)
(8.65975 0.0668029 -0.0422753)
(3.06323 3.06346 0.000374402)
(7.94415 0.0445262 -0.00274389)
(3.06217 3.06255 -0.000939158)
(2.48712 1.89564 -0.394737)
(3.2789 -2.09421 -0.214344)
(9.00181 -0.0839948 0.115462)
(8.82834 -0.0512503 -0.00173774)
(8.61904 -0.00367162 0.00182647)
(2.91124 -2.90383 -0.000857223)
(3.0499 3.06778 0.0252584)
(8.64538 0.0290983 0.0143033)
(8.27548 0.0183232 -0.0115606)
(2.89784 -2.89716 0.000818379)
(2.90948 -2.90733 0.0023931)
(2.84194 -2.85756 0.0193604)
(8.21075 0.0113289 -0.00446686)
(8.6134 0.00952372 -0.00890948)
(8.2192 0.00211564 0.0310118)
(7.95018 0.0139119 -0.0425752)
(8.78061 0.0200003 -0.0209665)
(3.50718 3.01138 0.0837122)
(3.05667 3.06401 0.00557188)
(2.90616 -2.90255 -0.00135831)
(8.60901 0.0334927 0.0231669)
(5.57977 -4.72873 -0.342807)
(8.20213 -0.00979478 0.0125979)
(8.93737 -0.0628737 0.196628)
(7.19499 0.00547013 -0.149743)
(3.06443 3.06385 -0.00041597)
(2.90447 -2.90768 0.00204948)
(2.90931 -2.91046 -0.00142922)
(3.85736 3.23771 0.198325)
(8.72114 0.0264011 -0.0033596)
(8.79473 -0.0513839 0.00897476)
(3.0685 3.07637 0.000995409)
(8.66319 0.0241863 -0.00151849)
(3.23425 2.62351 0.184112)
(2.91156 -2.87847 -0.00713825)
(8.87538 -0.0304889 0.0731664)
(8.64032 0.0322016 0.0159349)
(8.82989 -0.0122663 0.0210444)
(8.66645 0.0247627 0.000521578)
(2.94524 2.61351 0.15853)
(3.81846 3.28791 0.209166)
(3.05614 3.06004 -0.00437892)
(8.653 0.0303652 0.0115152)
(8.64072 0.0248604 -0.00200879)
(8.79979 0.156446 -0.0522044)
(3.02854 3.02163 0.00553141)
(6.04205 5.34991 -1.27985)
(8.25067 0.0820829 0.075522)
(8.80254 -0.041902 0.0214455)
(8.66278 0.0313602 0.0196086)
(8.24482 0.860371 -0.0695668)
(8.78005 0.0193717 -0.0249477)
(3.05113 3.05113 0.00136964)
(8.78184 0.0214131 -0.0133011)
(8.4364 0.0119912 0.0176508)
(8.88205 -0.210171 -0.00181221)
(8.90344 -0.0535947 0.109054)
(8.60544 -0.0696502 -0.0635481)
(3.0496 3.063 -0.0114382)
(2.90294 -2.90615 -0.00548692)
(3.0687 3.05079 0.0116569)
(2.8845 -2.89283 -0.000567715)
(8.78346 -0.041458 0.000642835)
(8.7043 -0.0129834 0.0033928)
(8.70736 0.0419559 -0.032987)
(8.77411 0.0246215 -0.0274427)
(3.03805 3.04114 -0.0131685)
(8.68629 -0.0641567 -0.0235465)
(3.05971 3.06059 0.00110406)
(2.89599 -2.90429 0.000140903)
(8.77525 0.025104 -0.017976)
(2.67405 -2.67698 0.0385827)
(4.82001 -0.852268 -0.0675347)
(2.8728 -2.86207 0.00241663)
(3.08875 3.04769 0.0244167)
(8.69217 0.0157858 -0.0120996)
(3.06215 3.06045 0.00111483)
(8.58517 0.0245368 -0.00513303)
(8.16504 0.00472073 -0.0379287)
(3.06753 3.06764 -0.00068553)
(7.8616 -0.00344642 -0.0373905)
(8.54448 0.015248 0.0122819)
(3.08624 2.70887 -0.099085)
(8.50697 0.0382829 0.0426453)
(8.04297 0.0428436 -0.00374182)
(8.56168 0.0405936 0.012027)
(7.97776 0.0313105 0.101146)
(8.64024 0.0248766 0.00424213)
(8.25147 0.00218706 -0.0161711)
(3.02892 2.59159 -0.0130203)
(2.89673 -2.89136 0.0173731)
(7.39237 0.0118542 0.173666)
(3.04138 3.05196 -0.0173422)
(8.54733 0.0461914 0.0405473)
(8.88155 -0.0450909 0.0889191)
(3.07615 2.94181 0.0245561)
(3.05555 3.06848 -0.000866553)
(8.75874 -0.0176514 0.00671934)
(8.44195 -0.0398377 -0.0870733)
(8.4636 0.0452433 0.00141162)
(8.77307 0.0203247 -0.00774915)
(3.06277 3.05832 -0.00149317)
(8.92039 -0.0254812 0.144329)
(8.78681 -0.0300385 0.0442327)
(3.07191 3.06669 -1.2733e-05)
(8.59939 0.133708 0.109076)
(8.21162 -0.0334757 -0.0887968)
(2.90216 -2.90183 -0.000632325)
(2.89877 -2.89872 0.000947714)
(8.57542 0.0262492 -0.00878015)
(8.62681 0.00758451 -0.0129991)
(3.07507 3.07519 -0.0038847)
(2.90474 -2.89875 -0.0044843)
(5.13426 -2.75845 0.630585)
(2.90855 -2.91051 0.000608633)
(8.62402 -0.00334152 0.0155689)
(3.04228 3.05379 0.00705258)
(2.9095 -2.91041 0.000236905)
(8.8341 -0.0128113 0.0282627)
(8.00436 -0.0935172 -0.231512)
(8.73778 -0.0522381 0.0118272)
(8.44189 -0.000985016 0.0162096)
(3.06956 3.06743 0.000188107)
(3.96871 3.06256 0.153326)
(8.43931 0.113035 0.161105)
(3.72005 3.28291 0.173496)
(8.41304 0.03606 0.0660863)
(8.37957 -0.0715343 0.00702344)
(8.748 -0.025459 -0.0233288)
(6.08826 0.199322 0.226307)
(3.65041 3.14813 0.157547)
(8.73646 0.0141824 -0.0827526)
(8.85356 0.274759 -0.0931457)
(2.90441 -2.90967 0.00537522)
(8.82312 0.0231466 -0.0874569)
(8.83466 -0.0392245 0.0324599)
(2.90986 -2.90925 0.00298404)
(8.51224 0.488445 -0.260609)
(7.44201 8.00356e-05 -0.102356)
(3.86087 3.04003 0.127739)
(8.79982 -0.0219679 0.036058)
(8.69295 0.0138153 -0.00976065)
(8.64487 0.0235482 -0.00631524)
(3.06223 3.05958 -0.000867411)
(8.60662 -0.0128812 0.0596698)
(8.83188 -0.00364205 0.0284577)
(8.57473 0.0840328 -0.00850538)
(5.41083 -0.0729665 0.0909439)
(3.7194 3.5088 -0.072006)
(5.10536 -0.130475 0.171319)
(2.9037 -2.90762 0.00213396)
(7.9339 -0.269042 -0.262618)
(8.60851 -0.01447 -0.0567041)
(3.06364 3.0614 0.0048486)
(8.18924 0.0206243 -0.0627761)
(6.74601 -0.017441 0.123639)
(3.96352 3.50852 -0.0360257)
(2.90661 -2.90466 0.000185433)
(3.40795 -2.89098 0.0941601)
(2.90886 -2.9077 -0.000347536)
(8.5448 0.047603 -0.00601447)
(8.63285 0.0464255 -0.0148745)
(8.55574 -0.0244879 -0.0248803)
(8.03589 0.0221635 -0.0449827)
(8.7602 -0.178964 -0.0371433)
(3.06109 3.04792 -0.00584071)
(8.49896 0.000322835 -0.021346)
(2.9152 -2.89383 0.000374238)
(8.41133 0.0315031 0.020296)
(3.073 3.07338 -0.00131871)
(2.90667 -2.9041 1.68865e-05)
(2.87699 -2.88513 -0.00387606)
(8.26602 -0.0555859 0.0119666)
(2.89611 -2.89723 -0.00245094)
(2.90822 -2.90846 0.00124362)
(3.02013 2.01833 -0.122669)
(2.90876 -2.91058 0.00101189)
(3.03029 3.07225 0.0288868)
(8.47207 -0.0313932 -0.0132615)
(3.06423 3.05998 0.0011279)
(3.62927 2.68222 0.00504643)
(3.0646 3.06645 0.00367376)
(2.89772 -2.88789 -0.0010757)
(3.06362 3.05255 -0.00423174)
(2.89661 -2.88194 -0.014753)
(3.04555 3.04785 3.28869e-05)
(7.70862 0.00215587 -0.066115)
(3.06828 3.05204 0.0122122)
(7.90574 0.117582 0.160392)
(8.65371 0.0114686 -0.00350587)
(8.92543 -0.366555 -0.0605331)
(3.07085 3.05546 -0.000640945)
(7.53131 0.0217364 0.125662)
(3.06831 3.0576 0.00295577)
(2.90939 -2.91057 -0.00127626)
(8.52884 -0.0812173 -0.0876051)
(8.54094 -0.0658882 -0.0792532)
(8.55983 -0.0185915 -0.0236307)
(8.94312 0.0229139 -0.152261)
(3.51788 2.96287 -0.0974224)
(8.7627 0.0100433 -0.0465456)
(8.75811 0.0151984 -0.0419993)
(8.65651 0.0157647 -0.000224339)
(8.5157 0.009632 0.00284141)
(8.67045 -0.0884484 -0.0608157)
(2.89613 -2.89766 -0.000802303)
(8.66435 0.0120774 9.66451e-05)
(4.00357 3.48926 -0.025599)
(8.63332 0.0219896 -0.0113615)
(3.05939 3.056 -0.00110404)
(8.79128 0.0288444 -0.0387971)
(3.96023 3.29183 0.0301588)
(8.67285 0.00770052 -0.0126264)
(8.69858 -0.0414665 0.0317729)
(3.35896 -1.68578 -0.0206107)
(3.06458 3.06674 0.03414)
(8.52788 0.0152772 0.0150086)
(2.90572 -2.90475 0.000631827)
(8.82892 0.0364634 -0.0575137)
(8.76389 0.033967 -0.0373128)
(3.0614 3.05227 -0.0243954)
(3.05479 3.05361 0.0075374)
(2.99689 2.68936 -0.0598191)
(3.06115 3.06342 0.00147442)
(6.12917 -0.327946 0.166516)
(8.83398 0.0303494 -0.0551933)
(3.10689 3.0338 -0.00220722)
(3.05731 3.0616 0.00302387)
(7.5326 0.00995824 -0.0179526)
(3.06604 3.06566 0.000171677)
(8.69705 0.0243358 -0.0315663)
(3.06382 3.06312 0.000288548)
(8.61396 -0.050335 -0.0375354)
(2.90995 -2.90975 0.00072336)
(8.07943 -0.0409838 -0.122896)
(6.67271 -0.0268881 0.00733773)
(8.09368 0.0255819 -0.017426)
(8.67587 0.0098898 -0.0136653)
(3.07526 3.0527 -0.0100158)
(7.86441 0.00808047 -0.00112283)
(3.06907 3.0582 0.00275453)
(3.06453 3.06538 -0.00831653)
(8.57583 -0.0231288 -0.0137786)
(3.06061 3.05698 -0.00140197)
(7.29504 0.00117724 -0.0744081)
(2.95533 2.72103 -0.0900656)
(8.70872 0.0218171 -0.0279908)
(2.89926 -2.90233 0.000287711)
(8.78265 0.021734 -0.0193193)
(2.91089 -2.90819 0.000406165)
(3.6335 3.21739 0.0930858)
(8.88118 0.320269 -0.0231069)
(8.53248 -0.0730497 -0.0919107)
(8.66151 0.0362779 0.000155669)
(8.73305 -0.0990626 -0.0648145)
(8.62224 0.0165446 -0.00913032)
(8.8192 -0.0626913 -0.00618853)
(3.0419 3.06522 -0.0136251)
(8.6565 0.0490606 0.0269463)
(8.56745 -0.0859602 -0.0887092)
(3.06302 3.06485 -0.00168138)
(7.26901 -0.106465 -0.281431)
(8.85178 -0.063861 -0.044702)
(8.49985 0.0362452 0.0320255)
(3.03048 2.98917 -0.0171333)
(3.76506 0.757384 -0.594641)
(8.31858 0.0211562 0.0272979)
(6.80434 -0.0269407 0.0692033)
(7.06005 1.82382 -0.0147943)
(3.77337 -1.90982 -0.157207)
(8.80218 -0.101356 -0.0229073)
(8.2597 0.0317758 0.061289)
(8.5269 -0.080527 -0.088647)
(8.69067 -0.0488281 -0.0185387)
(8.54772 0.0501499 0.0211435)
(7.59262 0.991749 -0.0442136)
(3.78343 3.21208 0.0264297)
(7.71761 -0.291407 0.0668721)
(7.45117 -0.64691 0.157225)
(2.90335 -2.90492 0.00141201)
(7.60127 0.0533781 -0.022427)
(3.07904 3.0212 -0.015822)
(3.59097 3.2662 0.0306115)
(8.6202 0.0197297 -0.00437268)
(7.64336 1.29725 -0.0429449)
(9.1969 -0.781348 -0.141751)
(8.28787 -1.42933 0.0290143)
(3.58137 3.40409 -0.250461)
(8.76598 -0.0543096 -0.0173104)
(8.64918 0.0505056 0.0391329)
(3.05655 3.04798 -0.00148506)
(3.93906 2.19575 -0.0908725)
(8.64894 0.0650322 0.0405054)
(2.90694 -2.89601 0.00309003)
(3.06291 3.0616 -0.000637044)
(3.05341 3.05226 -0.0002769)
(3.06664 3.05075 0.00358923)
(8.76306 -0.0906573 -0.0416044)
(3.06379 3.06301 0.00192813)
(2.91681 -2.91665 0.0154147)
(8.6063 -0.0531834 -0.0431845)
(7.91437 -0.00321418 -0.0242698)
(4.28073 -3.74714 -0.198145)
(8.64946 0.0635144 0.039056)
(3.56305 2.88239 0.0646854)
(8.69625 -0.0356407 -0.0195861)
(2.85009 -2.84804 -0.013341)
(3.05621 3.06231 -0.00226744)
(8.74104 -0.0557827 -0.0160301)
(3.06251 3.0449 -0.01188)
(3.06433 3.05723 0.00169893)
(3.50785 3.35735 0.0969127)
(8.21862 -0.00650313 -0.00556353)
(5.03622 4.21834 -0.558927)
(8.61352 -0.0361612 -0.0175051)
(8.61649 0.0190402 -0.0064629)
(2.88122 -2.86249 -0.0229847)
(8.93781 -0.0266385 0.284933)
(8.18908 -0.0503131 -0.123012)
(8.58184 0.00157584 -0.00422904)
(8.68644 0.15688 0.015547)
(8.73299 0.0853139 -0.187341)
(7.50573 0.00382393 -0.0707901)
(3.05785 3.05456 0.0017454)
(8.75188 0.0094995 0.0240892)
(8.6856 0.0370229 -0.0075588)
(2.87861 -2.9167 0.00575021)
(8.07764 -0.00586872 -0.00224948)
(8.76656 0.0484854 -0.017645)
(8.76514 0.0402422 -0.0146051)
(7.95914 -0.0345502 -0.0790513)
(8.76208 0.0383861 -0.0161012)
(8.76672 0.0458755 -0.00515524)
(2.91234 -2.87371 0.0177368)
(8.76513 -0.0185217 0.0446538)
(7.25226 -0.0454343 -0.0133653)
(3.68695 3.20361 0.20324)
(8.76106 0.0328447 -0.0214399)
(8.36002 0.00957533 -0.0199049)
(4.90123 3.99327 -0.60157)
(8.61734 0.0166427 -0.00242982)
(8.76523 0.0276605 -0.0266602)
(8.3632 0.00275482 -0.0350393)
(8.69432 0.037875 0.0044766)
(8.59512 0.0855979 0.0377316)
(8.6357 0.00836175 0.00697891)
(2.99672 2.92897 0.00446942)
(8.69283 0.0456546 0.00574541)
(8.15916 -0.053911 -0.110662)
(3.25684 -1.95155 0.0764478)
(8.65053 0.0747073 0.0461722)
(8.53959 0.0711246 0.0697936)
(8.66865 0.0263611 0.00137317)
(3.05828 3.05107 0.00270458)
(8.40216 0.0488588 -0.0801161)
(2.90644 -2.89383 0.00722524)
(3.0638 3.06402 -0.00208322)
(3.04758 3.02659 -0.00124986)
(3.06848 3.05081 0.000663901)
(7.27339 0.00445521 -0.0333939)
(3.64633 3.14167 0.126573)
(6.565 -0.463268 0.54222)
(2.89175 -2.89293 -0.000228724)
(3.0568 3.09776 -0.00462181)
(8.65998 0.0873422 0.0446198)
(8.71361 0.0226596 -0.0404945)
(2.90859 -2.90885 3.70075e-05)
(8.7227 -0.0530511 -0.00602892)
(2.90672 -2.90474 0.00846907)
(2.90872 -2.9067 -0.0011172)
(2.85988 -2.86031 0.00856911)
(8.85286 -0.072193 -0.00998698)
(7.36943 0.0422745 -0.0201427)
(3.60928 3.25321 0.0405049)
(2.93591 -2.90334 0.00781619)
(3.0589 3.06886 -0.00405562)
(3.06072 3.06261 -0.000727155)
(8.90892 0.0178873 -0.0979756)
(8.64827 0.0181894 -0.00113088)
(3.63656 3.42014 0.157206)
(8.81074 0.0279531 -0.0482073)
(8.19498 -0.114818 -0.340911)
(3.05724 3.05863 -0.00156562)
(8.78774 0.0242266 -0.0419256)
(8.05626 0.00652618 0.0431742)
(8.5525 0.0453263 -0.051654)
(3.06825 3.06663 -0.000224771)
(3.05917 3.05662 0.000343764)
(8.49096 0.0515855 0.0519544)
(8.67889 0.0207141 -0.00335806)
(3.61699 3.29128 0.051395)
(3.04923 3.05025 0.000265618)
(3.09811 3.01005 -0.00755632)
(8.62496 -0.016275 0.0076289)
(2.90422 -2.90416 -0.00321073)
(2.89997 -2.88883 0.00224094)
(3.0454 3.04593 0.000141685)
(8.78495 0.0270879 -0.0368344)
(7.67879 -0.0383574 0.0136737)
(3.06659 3.0669 7.56442e-05)
(3.40218 0.694701 0.595165)
(3.69246 -0.386821 -0.146119)
(8.49626 0.0458727 -0.00264761)
(3.05755 3.06257 -0.00137293)
(3.06357 3.05806 -0.002355)
(8.81316 -0.111264 -0.0174423)
(8.44226 0.143643 0.135703)
(3.66798 3.27913 0.154563)
(5.33101 1.74287 0.124496)
(8.32834 0.190134 0.243801)
(7.96394 0.0244209 -0.0559708)
(8.46925 0.00558446 -0.00711396)
(3.16545 2.97306 -0.00757373)
(8.41979 0.0252376 -0.00356549)
(8.72703 -0.0588236 0.0626241)
(3.06861 3.06108 -0.00327726)
(2.88524 -2.83527 0.00499446)
(3.04721 3.0489 0.000445247)
(3.05759 3.05732 -0.000626242)
(3.06328 3.06816 -0.00361161)
(3.06736 3.06848 -0.000628624)
(8.80246 0.0258252 -0.0390342)
(2.90655 -2.90586 0.00188231)
(3.05552 3.05616 0.000463017)
(3.04585 3.00592 -0.00404186)
(8.81047 0.0278431 -0.0493993)
(8.67329 0.020223 -0.000310555)
(2.91975 -2.87914 -0.000704615)
(2.87121 -2.84234 0.0037858)
(8.87984 -0.0427953 0.0768009)
(8.43687 0.0028305 0.00837685)
(8.42436 0.00682997 0.0126291)
(2.90769 -2.89996 -0.00161175)
(3.05357 3.05369 0.00208024)
(8.43096 0.00470481 0.0119121)
(2.90854 -2.90612 0.00038503)
(8.32858 0.0232521 0.00227737)
(8.51979 0.013981 0.0297725)
(8.54224 0.0297795 0.00986274)
(2.91595 -2.89427 0.00828315)
(2.90789 -2.90937 0.00056328)
(2.9074 -2.90934 0.000198465)
(3.06385 3.06416 0.00087221)
(8.63688 -0.041519 -0.0240863)
(3.06033 3.06332 0.00129285)
(3.05474 3.05202 -0.00012369)
(8.59508 0.0232806 -0.0342081)
(2.90811 -2.90907 0.00123883)
(8.46889 0.00114021 0.00987875)
(7.72758 -0.0668602 0.0263213)
(3.0813 2.97753 0.0159512)
(8.664 0.0227771 -0.00367017)
(4.08523 0.62608 -0.107956)
(8.55085 0.00907981 0.0046224)
(8.83987 -0.0304014 0.0209685)
(7.79713 0.0320672 0.0111597)
(8.84071 -0.00149978 0.0577844)
(6.38145 0.139834 -0.242331)
(3.64299 2.91678 0.058793)
(8.5315 0.00515243 0.00324061)
(8.87541 0.0701266 0.010922)
(8.66558 -0.020804 -0.0088852)
(3.13646 2.73034 -0.0914894)
(3.87885 0.384808 -0.197883)
(4.62011 -0.31357 0.154745)
(8.54127 0.0123317 0.00664603)
(3.05493 3.05944 0.00406926)
(8.37531 -0.0194841 -0.0618093)
(8.55603 -0.00808772 -0.0189109)
(8.30449 -0.0738549 -0.134118)
(3.17709 -2.24391 -0.170647)
(2.90866 -2.90979 0.00142591)
(2.90559 -2.90561 -4.71439e-05)
(8.70641 -0.0284623 -0.00334739)
(3.5694 2.96029 -0.0383464)
(8.26358 0.0288388 0.0135177)
(3.3217 3.02602 0.0421963)
(8.22071 -0.0178251 -0.0594043)
(8.45283 -0.0178035 0.00877973)
(8.36491 -0.0103764 0.0298799)
(8.67574 0.0218214 -0.00505316)
(3.05462 3.05459 -0.00101513)
(3.04136 3.03192 -0.00567981)
(3.10638 -2.82915 0.0139645)
(8.66172 0.027643 0.00418454)
(3.0673 3.05854 -0.00060588)
(3.53386 3.04133 -0.13415)
(8.8497 0.165792 -0.139503)
(3.07276 3.06899 -0.00180265)
(3.04876 3.0638 0.00924375)
(2.89208 -2.88316 -0.00476277)
(3.06533 3.06616 0.000900315)
(8.27396 -0.00323246 0.0282678)
(3.12545 2.96893 0.0060441)
(3.06411 3.06101 0.00092243)
(7.03012 0.996366 -0.729748)
(3.5821 2.90114 -0.0397594)
(3.04931 3.0509 -0.0253759)
(4.19218 -2.46562 0.154263)
(3.06165 3.05807 -0.00331619)
(6.75 0.0268561 -0.0597373)
(8.43595 -0.0146565 0.0233278)
(2.89698 -2.89733 -0.000164382)
(8.29025 0.00856691 -0.022109)
(8.38208 1.36418 -0.188521)
(8.24408 -0.080258 -0.132772)
(9.06997 0.341463 0.00884089)
(8.15209 0.00716541 -0.013225)
(3.06074 3.03972 0.00968321)
(8.55796 -0.0823682 -0.0924942)
(8.86333 -0.0314885 0.01836)
(8.24181 -0.080786 -0.133225)
(2.90587 -2.90678 -0.00022614)
(8.98753 2.36273 0.629782)
(8.2541 0.0122285 0.0126599)
(4.07247 3.25504 -0.19251)
(8.1972 0.00340934 0.00921087)
(8.94873 0.11313 -0.0850179)
(8.53921 0.173348 0.00941889)
(8.47146 -0.0256372 -0.0337773)
(8.47503 0.0285007 0.00105564)
(9.01943 0.133398 -0.0498855)
(8.69731 -0.0152537 -0.0140369)
(8.61126 -0.0119669 0.00889401)
(3.03727 3.0489 0.0114627)
(3.04831 3.03332 0.00943161)
(8.31298 0.022654 0.0117912)
(8.17295 0.0105246 0.0105767)
(3.05638 3.06364 -0.00131244)
(8.42998 0.00816581 0.000297734)
(8.83093 -0.0421239 0.00543569)
(8.63385 -0.0210777 0.00760215)
(3.0619 3.03056 -0.00114163)
(8.50974 0.173033 0.0381779)
(3.05414 3.05166 0.000169286)
(8.6158 -0.0117775 0.00770067)
(8.64394 -0.0135414 0.0057512)
(3.06163 3.06032 -0.000290784)
(8.25995 0.044859 -0.0212575)
(8.62071 -0.00987879 0.00127092)
(8.475 0.161566 0.0139611)
(8.33925 0.00209249 0.034085)
(3.12375 3.06526 -0.00467065)
(8.71482 -0.0234429 0.0260262)
(8.50093 0.197223 0.00238283)
(8.96177 -0.206409 0.0578753)
(7.54292 0.0990098 0.0260299)
(6.73106 0.0213244 -0.0953565)
(3.06355 3.03207 -0.00548926)
(3.05345 3.05066 0.0022173)
(8.36005 0.115672 0.015087)
(3.06551 3.0657 -0.0010093)
(7.29611 -0.0207599 -0.0181576)
(8.39997 -0.0450063 -0.0659213)
(5.12785 0.724466 -0.185916)
(9.30064 -0.594575 0.227057)
(8.20806 -0.365655 0.110203)
(9.137 -0.324138 0.091196)
(3.06489 3.06508 -0.000934323)
(4.15158 3.527 0.0291987)
(8.69575 0.0215306 -0.00670558)
(2.8939 -2.90556 -0.0098674)
(1.59278 -1.11126 0.476784)
(8.6042 -0.165466 -0.128998)
(3.05144 3.04397 -0.00605709)
(3.0669 3.06337 0.000297911)
(7.6813 -0.148232 -0.00275301)
(6.28136 -0.407002 0.0839272)
(3.06604 3.06636 -0.000398094)
(7.77766 -0.144822 0.025573)
(3.05283 3.05027 0.00127042)
(3.0616 3.06644 -0.00504993)
(2.90522 -2.90548 -0.000566496)
(2.90894 -2.90248 0.00593372)
(2.85085 -2.8264 0.00956966)
(2.90298 -2.89728 -0.000349912)
(7.76066 0.064646 -0.0293204)
(3.04045 3.02017 -0.00363825)
(3.06062 3.06197 0.00104637)
(3.04432 3.06044 0.00545026)
(7.22852 -1.59317 -0.414454)
(8.18909 -0.0679732 -0.150133)
(7.92683 0.000169815 -0.0829307)
(8.69644 0.0202892 -0.00749392)
(3.04619 3.02653 -3.85006e-05)
(3.07424 3.06301 0.000168001)
(8.33024 -0.143183 -0.174564)
(3.06386 3.06485 -0.00355517)
(3.06125 3.05818 0.000897885)
(4.86711 2.80541 0.101802)
(8.86888 -0.121823 -0.00776962)
(8.67939 0.0201755 -0.00777636)
(3.05993 3.05922 -0.000291767)
(3.05788 3.05254 0.0044841)
(3.04632 3.03801 -0.00397111)
(3.05119 3.04489 -0.000425089)
(3.06462 3.06339 -0.00334682)
(3.07161 3.06285 0.00185989)
(8.68469 -0.203493 -0.128424)
(3.06844 3.05957 -5.55985e-05)
(6.02587 0.0868298 0.202684)
(8.75796 -0.0199219 0.0228413)
(3.06136 3.06573 -0.000844668)
(2.88559 -2.89721 -0.00789109)
(2.86568 -2.83619 0.00328424)
(7.34133 0.0864059 0.397745)
(2.84528 -2.84208 -0.0116788)
(2.90388 -2.90628 0.00294336)
(3.0442 3.04934 -0.0191379)
(7.86828 -0.123171 0.0079455)
(3.05174 3.05069 0.000275958)
(8.63251 -0.113544 -0.0715777)
(6.87403 0.113001 -0.0354055)
(5.67194 0.00717214 0.226729)
(3.05294 3.05523 0.000881355)
(5.90569 -1.50681 0.119836)
(8.70003 -0.0159459 0.00276568)
(8.76417 0.0221035 -0.0225157)
(3.12349 -2.97948 -0.0337299)
(8.42533 -0.136292 -0.0221241)
(8.60072 -0.0165743 -0.00915338)
(2.9091 -2.88875 0.00281594)
(3.16369 3.00208 0.0147917)
(4.11001 -3.16519 -0.265365)
(3.04529 3.0443 0.00104443)
(8.7002 0.0170944 -0.00224341)
(8.69262 -0.0110625 0.0102602)
(8.83971 -0.106997 0.0440109)
(5.81624 -0.00641029 0.318571)
(3.06717 3.06544 -0.000328706)
(8.70314 0.0172496 -0.00381399)
(3.14278 2.99171 -0.00750686)
(3.82463 3.23747 -0.0133062)
(3.91284 -3.04309 -0.126526)
(3.06122 3.06172 0.00120112)
(8.72302 0.026298 -0.00556491)
(3.05193 3.04492 0.00196029)
(2.87502 -2.82322 0.00148879)
(7.95183 -0.109536 -0.199802)
(8.53748 -0.0190312 0.0102187)
(2.87708 -2.82921 -0.00803466)
(8.57667 0.0153259 -0.00362599)
(3.26066 3.18894 -0.0189553)
(8.71103 -0.0745785 -0.0387267)
(2.88037 2.75616 0.0273555)
(3.0645 3.06644 -0.00138719)
(3.0772 3.06681 0.0100263)
(2.90946 -2.91002 0.000787142)
(8.43157 0.0133312 -0.0134917)
(7.54265 0.0162196 -0.0346772)
(8.73718 -0.0233013 0.186707)
(3.04867 3.05143 0.0019989)
(3.04407 2.98954 0.0205911)
(8.38381 0.016212 -0.0149219)
(3.06492 3.06507 -0.00112405)
(3.55667 3.22043 0.044467)
(2.90648 -2.90453 0.000207705)
(8.34154 0.0537585 -0.00545391)
(8.88219 -0.219025 -0.0647151)
(8.69998 0.0217831 -0.00924386)
(2.9023 -2.89641 0.00673638)
(6.8875 -0.0104795 0.191961)
(7.19007 0.00690141 0.184645)
(2.75386 2.43364 0.0170447)
(7.77441 0.0996296 0.156198)
(3.06582 3.04994 0.00296219)
(8.21161 0.0774054 -0.00750582)
(8.82075 -0.014954 0.0511536)
(8.54264 0.00567431 -0.0147533)
(8.83149 -0.112063 0.0134253)
(8.11316 -0.178675 -0.251908)
(3.06423 3.06092 0.000758217)
(3.06487 3.06465 -0.000190634)
(3.0576 3.06171 -0.000629422)
(7.11139 0.070167 0.256248)
(3.03529 3.00826 0.00333015)
(8.63067 0.0363087 -0.0158205)
(2.90522 -2.90489 -0.00022631)
(8.55343 -0.260246 0.181995)