/*--------------------------------*- C++ -*----------------------------------*\
  =========                 |
  \\      /  F ield         | OpenFOAM: The Open Source CFD Toolbox
   \\    /   O peration     | Website:  https://openfoam.org
    \\  /    A nd           | Version:  10
     \\/     M anipulation  |
\*---------------------------------------------------------------------------*/
FoamFile
{
    format      ascii;
    class       volScalarField;
    location    "5.3";
    object      p;
}
// * * * * * * * * * * * * * * * * * * * * * * * * * * * * * * * * * * * * * //

dimensions      [0 2 -2 0 0 0 0];

internalField   nonuniform List<scalar> 
111485
(
31.8683
1.1826
1.39057
31.8332
1.4182
31.0793
1.21152
1.08531
1.22314
1.71549
1.18763
1.50474
1.2339
1.11034
1.2332
1.31035
0.468096
35.1413
1.23679
31.8207
31.8137
31.1306
1.21899
1.28678
1.3905
31.6518
1.67337
0.815705
1.37853
31.8955
1.96688
0.331048
31.8534
31.2313
34.4089
31.1726
2.04105
0.270962
2.34361
1.28194
31.4522
1.70279
1.28694
1.88084
1.55793
32.0262
1.80485
1.27198
1.71079
31.8985
31.8891
30.041
31.92
1.87887
31.9402
0.814424
1.23273
31.3489
1.54461
1.2699
1.27669
31.8695
1.01828
1.95481
31.1467
0.91326
21.5171
1.11837
0.954345
1.06752
1.914
0.907778
31.1521
0.958154
31.9593
0.582235
31.1565
1.64091
31.1235
32.6095
1.91042
1.81046
31.1867
31.9319
1.01547
1.29029
9.28207
1.86841
1.97594
0.4299
1.74783
1.303
1.02427
0.307892
1.69496
31.9301
31.8704
1.91064
-0.231916
2.37349
31.8548
1.68121
31.2456
1.5951
1.13908
32.0811
31.2755
0.385185
1.32247
1.26667
0.284177
0.956573
1.32195
1.55468
31.6441
0.570382
31.7142
31.3229
0.946344
31.8256
31.6502
27.4408
31.1898
31.3517
1.7801
35.7004
27.3006
0.430747
31.959
4.10488
1.88869
1.90594
31.9599
26.8771
27.9474
1.18399
31.1654
0.600929
1.07139
1.14923
1.60218
1.09914
1.11437
1.38279
1.74895
0.166902
31.164
31.9203
31.3286
1.15047
1.3732
31.8046
2.02605
0.0387322
0.173249
1.16026
1.14171
1.1855
0.694891
31.9959
31.8348
1.14817
1.33289
0.842821
0.412354
0.486292
1.94525
31.4413
0.983843
1.11357
31.31
31.9132
1.44538
31.2278
0.182941
0.0700216
31.215
31.0694
31.7183
31.7266
30.9703
31.8303
1.16883
1.17634
1.16407
0.250071
1.66108
0.692933
2.08757
31.8515
0.575804
31.0588
31.8339
0.718204
1.68509
1.9868
0.908533
0.123502
31.9632
1.19499
1.3962
22.3357
1.85532
0.431513
31.9434
0.710509
1.56544
31.0484
1.96138
1.80441
1.35405
0.655545
30.9392
31.8802
0.689651
21.1271
1.90947
31.2213
0.711562
0.622117
1.73847
31.9747
0.73337
1.89832
24.9415
31.2269
31.3134
2.00302
0.441106
31.4027
29.5338
0.639986
0.222387
0.535183
31.3905
31.466
1.9673
31.9585
1.12321
0.608333
0.63001
0.576555
0.620802
31.3221
1.93611
0.461741
31.3458
31.1817
1.84848
0.952382
31.6017
0.337263
0.481277
31.918
26.2989
1.82339
31.796
32.2462
29.1588
31.7844
0.565454
0.556545
0.0106035
31.9923
0.495023
31.8381
31.8608
31.9736
1.974
1.6309
0.989952
0.914267
1.54284
0.961873
0.965161
2.0368
0.185502
0.25191
30.8685
31.9124
2.05691
0.359173
1.3788
0.254982
31.8304
1.00494
1.17313
0.974726
1.63467
1.95928
0.975524
0.900185
1.83345
31.3385
1.59124
31.2312
35.0752
32.498
1.97134
1.52696
1.23658
31.7441
31.5666
0.804992
0.306478
31.7999
31.8773
31.9567
0.575342
0.270875
1.16567
1.21059
1.27137
29.538
31.2966
31.9396
0.78562
14.5051
1.19346
1.96312
1.9003
31.1845
31.8625
31.8711
27.9262
0.8356
1.41212
31.3095
0.832544
31.5824
31.7064
1.9607
0.83801
1.54503
0.83205
32.3433
27.7976
31.2949
0.826289
0.102601
1.99086
31.1737
4.50267
1.74159
1.44186
0.783037
7.39638
1.27595
31.1443
1.2755
0.858131
1.97507
1.93081
1.41433
31.2531
31.9452
31.2881
31.8448
1.14028
0.73981
1.49467
1.2993
31.304
1.4885
31.2881
31.8974
1.28493
32.6963
28.3327
32.135
31.1654
1.17233
31.3474
0.0878121
1.49019
31.1265
1.02024
0.884407
31.8644
0.848616
1.50182
0.908826
1.98206
0.201406
0.231648
32.3806
31.9219
1.90916
31.3952
1.53843
1.93635
31.1966
31.3264
0.820053
1.46295
0.128844
1.52432
31.1595
1.96322
1.48491
31.0598
1.87013
1.44943
31.8768
31.8248
0.111322
1.39354
31.2555
31.7265
24.1844
31.8519
1.43817
31.223
31.8491
1.492
1.91561
1.79363
1.43326
31.0902
27.9889
1.95404
28.362
1.87189
2.00028
1.71865
22.1594
28.6503
-1.5323
1.35581
31.8826
1.89574
1.49071
31.9694
0.810256
1.73302
28.5001
1.55073
1.48591
0.210985
31.1087
1.04128
1.56299
0.241041
1.96338
27.2226
0.262495
31.9333
2.10431
-0.555484
31.3088
1.5239
1.87066
26.543
31.9863
30.1912
31.8084
1.41543
0.349222
1.53506
1.56988
1.94825
31.2305
1.41587
31.9138
1.45864
31.0124
31.9032
31.9665
1.53772
31.9289
31.8785
33.6404
31.8678
31.3504
1.84347
31.345
30.2281
31.2721
31.8369
31.0569
31.9652
31.1414
1.54146
31.2675
1.849
1.56388
2.24663
31.0829
1.86186
31.3006
31.865
1.5526
1.59286
1.68065
1.94071
29.8958
1.73704
1.73025
0.199011
0.122265
1.57655
31.9132
0.104778
26.592
1.86033
31.2309
1.77779
27.4213
0.277949
1.56192
33.2459
31.5143
0.0701586
31.7938
1.7248
1.7026
31.3465
31.3424
32.1163
31.2979
-1.1042
1.7155
31.0081
31.3562
1.41086
31.1314
1.70559
31.1488
1.80941
31.8683
1.75825
1.78911
0.952678
0.262232
30.9643
-0.41363
31.0304
31.2398
1.58064
31.2423
1.73088
32.1422
1.80128
31.9003
1.70439
31.809
28.5395
2.14534
1.52598
1.69138
1.65913
1.64287
1.48568
31.3238
1.66739
1.59977
31.2113
2.17082
1.97507
1.7357
31.2661
32.4165
1.48391
1.66813
16.3259
31.1204
1.56266
1.43628
1.66534
1.65873
0.75536
12.0427
28.1936
-0.106944
14.2335
31.8413
1.78225
31.3943
28.6507
0.50154
11.8506
-0.164063
7.80704
28.181
1.62422
1.4244
31.1066
30.3017
1.43163
31.79
31.1265
31.1424
31.0688
1.67075
31.2822
31.7962
1.71018
0.615257
24.7627
1.27197
29.839
0.59816
31.915
31.321
1.65877
31.231
31.0865
28.5266
0.217087
19.958
1.62702
0.437206
31.8151
1.70223
1.48836
1.43368
2.12665
3.556
1.39567
31.2478
1.68475
1.4435
31.9709
0.878821
1.8479
1.49401
0.178568
1.47729
1.48088
31.9863
1.74311
1.96654
28.4451
1.47856
1.81518
20.6943
0.419024
1.49469
1.79236
1.57112
1.58891
0.332593
31.5378
1.57306
1.72819
33.0168
1.64532
1.61006
0.492458
31.2504
0.209614
32.0344
31.1723
31.2968
31.0638
1.46955
28.8682
-1.37967
31.8668
30.8527
1.66749
1.64472
31.7897
1.72244
31.8622
31.9562
31.9252
1.70891
1.7801
28.6342
31.7881
31.2387
31.2508
1.97999
0.447632
27.9623
1.61998
1.05254
31.335
1.64634
1.81415
0.485095
31.1124
31.2209
0.916782
0.49365
28.3938
31.3074
30.9831
0.672385
31.9282
31.7545
31.2205
1.60651
1.34099
31.132
34.0046
33.0146
0.712949
31.3464
31.0745
1.76169
1.9615
28.3363
24.7232
6.75835
1.82017
0.0230903
30.9028
1.31167
1.89171
31.3377
31.9118
31.1665
31.2289
31.296
31.1391
1.66122
31.8631
31.1691
31.243
1.64689
0.489679
31.7575
31.9647
1.76749
0.472466
0.519463
31.7615
31.1766
0.486735
31.9251
1.59801
0.465558
0.522643
31.6678
31.8552
31.8543
31.2605
1.4886
31.1837
31.1413
1.91421
31.851
0.764524
1.92841
31.0897
0.526583
31.6944
0.737273
1.688
1.66284
1.78121
-2.02413
29.5451
0.721857
1.79751
0.0248472
31.6142
-5.11543
29.0817
0.190893
31.2804
1.81926
1.80258
1.80183
32.4628
31.8611
31.9874
0.467983
29.8316
0.166352
30.3599
1.31204
0.217517
0.287063
0.487599
31.145
31.1231
31.2268
0.483286
31.0731
29.5366
1.91693
31.3374
31.3597
31.8587
31.1716
0.310823
30.9442
31.2228
-3.04077
29.7637
31.4123
28.6892
31.2136
1.78423
0.304569
31.8087
1.43096
6.44552
1.79345
1.20026
0.426777
31.308
1.65671
2.09555
1.79636
31.9333
-6.90197
0.284216
26.7248
0.235175
1.95371
2.09031
1.0285
0.280624
1.906
0.177985
0.318145
31.19
31.0974
0.213188
0.165587
31.3271
0.228082
1.55199
0.310182
31.0239
2.0077
31.2629
0.303681
0.277553
31.1032
-0.150335
0.329097
1.87562
-0.00284466
30.8613
1.16339
1.90093
2.26517
1.86466
1.92839
31.2111
31.3001
1.95688
31.1682
1.64612
1.83102
27.5573
0.758368
-0.543876
1.41453
31.1721
26.4083
0.649377
31.9558
37.5817
1.91029
31.0355
31.085
-0.162834
-0.691566
31.1704
2.01999
31.2283
31.2314
31.9672
31.8677
32.0348
31.9191
2.00633
31.0569
31.3113
31.3501
-2.85336
2.13596
1.31436
0.636761
31.165
31.0606
1.99182
31.2044
31.0958
24.2817
1.94129
0.799085
31.1164
31.063
31.0989
31.0753
31.0964
31.0612
1.89436
31.0809
1.71728
1.29181
31.2525
31.9009
31.9498
1.99952
31.9206
31.8377
31.3147
1.68713
31.2664
1.9156
1.99059
1.77426
31.126
22.128
2.01402
1.23315
30.9176
1.74576
1.73681
31.7962
30.9102
28.066
31.0665
0.645214
1.12539
1.97576
1.2205
31.1097
0.639964
30.7915
28.0662
27.9088
31.3139
1.06998
31.2174
31.9875
2.05813
0.784119
31.977
1.74183
29.881
1.90857
32.3197
31.2376
31.182
31.8489
0.359236
1.14579
4.00615
31.1194
31.2025
0.316031
31.1698
28.9557
31.8722
1.5852
1.18034
1.53664
31.7262
2.05077
2.08326
33.2846
2.09222
31.0792
1.85935
1.71954
1.05484
1.98864
1.67043
31.1859
31.2306
31.229
2.04243
31.5992
1.93419
31.977
5.24548
31.7546
1.27172
1.30731
31.9956
31.159
32.0538
31.3659
1.91641
32.081
28.0936
0.293696
1.93887
32.0717
28.8278
31.2769
28.9034
31.0554
31.1919
1.96934
1.85322
31.8321
31.7158
0.204454
31.8962
1.96481
0.357733
31.3149
1.9216
31.8516
0.196754
31.0668
1.38473
31.0964
0.457452
1.34707
1.87469
1.90485
1.89388
20.0799
30.7442
1.94507
31.9007
1.05827
31.7767
31.3827
30.7608
31.3159
31.4166
31.3247
1.8498
1.80446
31.8528
27.1499
31.7861
1.88404
2.00406
31.875
1.07567
1.89351
31.951
0.438129
0.319438
1.01792
1.88113
31.1683
31.2066
31.3556
31.1481
1.05189
31.0271
1.96626
31.1971
1.95248
1.41034
31.2802
1.91338
31.2762
31.1628
1.94258
1.91588
10.4938
31.1992
32.0307
31.0491
1.07924
30.576
32.1524
30.6721
5.92995
27.6868
0.650091
28.806
30.5387
31.3236
0.358336
0.265114
1.55035
1.17439
31.9113
1.9557
31.2445
31.3221
0.309767
30.9563
0.25369
1.94569
0.30974
1.96595
-1.03929
1.47406
31.301
-2.80238
-8.25864
1.77803
2.03476
0.827444
23.1821
31.8521
1.45384
31.7838
31.0819
1.68595
1.66926
-1.45168
31.1825
30.6143
2.01266
31.9492
31.0484
1.9492
32.0176
31.9797
1.24515
1.96359
1.86096
1.05087
0.539237
31.0762
31.1825
1.52195
0.958842
31.1411
31.997
1.65115
31.093
26.9871
27.8062
27.954
18.9301
27.1197
31.1465
1.52011
31.0303
1.90694
31.1032
15.4961
31.2359
31.1224
31.3058
31.1702
1.45096
31.172
31.169
28.3996
31.0703
31.302
31.2223
0.903293
31.2373
0.815396
1.90567
31.1324
1.64168
31.1254
1.75881
1.78556
0.261641
0.289345
31.6494
0.297149
1.4418
1.8609
31.9608
1.86958
0.73749
0.191775
29.9351
0.191601
31.281
31.2957
31.1046
31.1322
0.203702
31.2281
31.0561
0.172238
1.77978
0.0972073
31.3551
22.8728
1.58076
31.2809
1.2475
31.9389
0.251053
31.0213
31.0449
1.47145
31.0855
2.17437
31.8863
31.1022
0.735917
1.73255
0.56085
1.12013
1.98071
0.896202
31.1059
32.4673
1.30455
0.577423
0.917457
1.90048
31.1708
0.825846
31.1574
31.4977
1.30482
2.00676
31.0988
0.57419
31.252
0.564135
0.531436
31.1082
31.135
31.2607
1.31111
31.2225
31.2262
1.32002
0.565383
2.00661
0.19921
31.1777
31.3219
1.68199
1.37141
31.1249
1.30137
31.339
1.28759
31.1281
31.1142
1.22226
31.1718
1.73891
1.259
31.0839
31.1357
1.17506
26.706
1.50026
31.8647
1.96673
31.9117
27.2469
26.4141
1.27063
28.5625
28.2741
1.11598
28.1316
18.3025
26.2353
31.2428
31.7854
1.7586
1.47456
31.3673
31.235
1.36894
1.4381
31.0966
1.325
31.1418
31.8036
1.63027
1.56606
0.464103
31.1202
31.2477
31.2262
31.168
31.0363
31.049
31.2216
31.0501
31.0733
31.1295
31.2267
31.7913
31.2003
31.1115
31.0837
31.6214
31.1117
31.1368
31.1802
31.3017
31.7516
1.50387
31.2127
31.1141
31.3465
1.05849
31.3593
31.8019
13.5224
30.9759
30.6325
1.04068
33.2609
30.8152
15.4837
1.02863
31.1957
27.5931
29.4478
31.0841
1.88143
1.0253
1.03279
0.950234
0.679566
31.8661
31.0674
0.795863
0.844251
0.948465
31.1459
0.940796
1.86767
1.02299
0.22444
0.256823
0.950694
0.393394
0.99928
31.9991
1.14245
0.983181
1.3821
0.948115
31.258
31.2308
31.2862
31.8522
31.2466
0.837841
0.952526
31.2555
31.0775
31.0647
31.7388
31.0983
31.7896
31.0485
31.7914
0.936958
1.9699
0.952702
1.59076
30.9479
31.0388
1.84984
1.56554
31.1323
31.1697
1.42231
32.0122
31.2136
1.08015
0.893478
0.929977
1.49894
1.85574
31.8729
0.0751298
1.11777
28.1029
31.7855
1.06344
31.8517
31.0871
11.4598
7.29919
1.516
31.5483
31.8747
2.06844
1.13039
0.129577
0.841823
15.1332
31.8524
2.02173
33.0309
31.9717
30.7909
1.39544
31.0924
0.843618
0.0618137
1.05152
1.1018
31.9322
0.759263
31.939
30.408
31.9185
31.7292
0.328232
19.2381
31.1728
31.8275
33.5068
0.852575
27.9389
0.748874
0.831399
0.307965
0.840854
31.7608
31.6961
27.3272
1.40591
0.674902
-0.896451
31.9127
31.865
27.7941
1.9089
1.39768
31.165
0.506338
11.8332
1.1246
0.643013
31.8374
27.1173
0.638704
0.839126
31.2388
1.74121
1.68528
1.46494
0.656086
0.663475
0.748477
28.1108
0.352194
0.688546
0.622332
32.2224
1.06977
28.4273
1.41733
0.72113
31.9866
0.234498
0.667699
0.70374
0.915382
35.0827
10.3387
2.00588
18.449
0.673453
30.8487
0.268042
0.687534
31.7703
31.1819
1.16509
1.99195
1.00467
34.9398
1.53351
1.72499
-1.64738
1.91569
31.7613
32.0372
0.828553
33.4529
0.780941
1.65396
0.685744
0.30372
31.8139
1.81191
0.82341
31.764
28.3584
0.58172
31.9642
0.57321
0.560428
31.8748
35.0972
1.14466
31.7876
31.1148
31.3443
0.286719
2.62437
1.41539
32.163
1.37482
0.431718
31.2128
0.426992
0.476002
0.292203
1.91601
31.1459
0.741923
0.331531
0.501005
0.415096
0.299213
1.81333
1.31789
31.8637
-0.128997
0.308302
31.8412
0.484101
31.3328
31.219
31.9466
31.3688
31.8315
1.98458
31.2881
0.414402
1.54592
31.9706
1.61761
31.6915
0.302819
31.7874
1.75378
30.9092
1.32472
2.06038
1.7971
0.521866
0.30714
1.38196
0.304443
0.543361
12.7699
0.488173
0.872754
0.540252
31.9619
0.90409
1.97123
0.506307
1.24175
1.83052
31.9598
27.845
31.7625
1.40262
31.816
25.4061
0.311914
33.6356
1.72413
31.7349
31.8293
31.1714
0.931345
1.58735
0.504572
1.95242
0.28671
0.768555
0.798452
0.908367
0.323384
0.784312
0.78389
31.9681
31.1118
31.9571
1.12515
0.868247
31.153
31.1698
25.8583
0.850134
0.334521
31.8075
0.783181
31.8764
1.00571
1.41888
1.95065
31.8424
31.8684
0.879346
31.8514
1.76674
0.465066
30.3857
1.02728
1.24927
0.242459
31.7476
1.8541
28.6276
1.63203
1.40861
31.8509
31.9885
0.44233
23.2358
32.0303
0.587284
0.281667
31.8651
31.6893
28.4444
0.730937
25.8255
1.10943
1.83685
1.70307
31.868
28.5808
1.81764
31.8666
31.2482
31.9073
31.8308
28.9648
31.1441
30.5732
31.767
31.7565
29.8243
33.6361
30.8365
1.7942
30.8678
27.5667
26.1772
35.5342
28.0476
31.8697
1.85092
29.9383
31.0869
1.89892
32.9373
34.295
31.566
1.83695
33.5304
1.87329
1.90122
1.73219
29.3203
31.8143
1.89912
1.01765
31.5903
31.934
1.12
29.0219
1.10861
28.7446
31.1707
31.3349
1.1122
1.11837
31.887
1.54186
32.0358
29.9258
1.67062
0.705803
1.86315
31.31
1.11154
29.3262
1.59056
31.1431
31.7535
31.1118
28.4407
0.677828
0.774527
31.9312
-0.319539
31.7952
31.8337
31.7915
31.8259
1.7696
1.72164
0.764996
2.47705
31.835
1.39422
1.14181
0.63151
1.74952
31.4948
0.637559
1.8575
0.9428
1.13178
1.07883
31.9278
1.24448
1.79586
1.12356
1.83393
1.81673
31.8572
1.86627
31.358
31.8897
0.956246
31.949
1.43566
31.8913
31.9836
30.7522
31.7793
31.9442
1.73648
31.7653
1.52345
29.4306
31.27
1.34676
1.81771
0.818236
1.46329
32.0018
5.19491
31.9315
1.62885
31.9882
1.33046
1.74365
1.82319
1.66891
32.0886
32.1148
31.7523
0.680854
31.3088
31.742
0.670964
30.9984
31.0926
1.88178
32.0863
0.987872
1.11851
29.2507
30.2949
30.0684
0.731543
1.19462
31.8187
0.0494309
1.59106
28.6636
1.84265
31.9063
0.666128
1.40223
0.663298
31.8179
1.45694
0.798752
1.87908
1.81709
1.59214
31.8506
31.856
2.02976
31.7597
31.1395
31.8795
0.644571
1.85106
0.860421
1.10856
28.2064
1.4152
1.12273
1.19359
1.1537
1.47415
1.71148
1.583
31.17
31.1653
31.164
1.64769
31.2583
1.52205
22.205
1.5513
0.464732
0.632539
0.353464
31.0946
31.8942
1.5597
1.54379
31.9294
31.1655
31.9757
0.694996
1.54036
1.62036
1.62985
0.243323
1.1075
31.7814
31.9343
31.866
0.288097
1.05541
0.0461158
1.24943
0.775641
1.62625
31.6159
31.8642
26.2392
31.1849
0.272268
1.46035
31.8356
31.8665
31.9137
31.9694
31.8387
31.1094
1.65106
31.8083
1.87654
2.12759
31.0987
1.63885
0.144172
0.681763
32.0765
31.2901
1.64366
31.8496
1.64607
-1.85566
0.741712
30.9262
24.54
31.1488
31.8128
31.7652
30.6915
10.3352
31.8025
1.72405
0.884926
31.8781
31.8646
1.68056
31.7983
31.2224
0.984605
1.74057
31.7253
31.718
30.9822
0.439901
31.8525
31.8546
6.8849
1.63282
1.6874
31.811
31.0939
29.2079
1.66895
1.66675
1.66626
1.24417
31.1233
0.469483
0.108859
0.156898
31.1153
31.9281
31.8642
31.7771
31.8532
1.00171
1.02555
0.859408
32.0303
31.9071
31.8491
31.8818
31.2474
1.94825
0.521107
0.10308
31.0607
31.8443
32.1655
-1.08862
1.79842
2.00461
31.2233
-4.8143
33.1202
31.6211
31.8549
1.0077
1.15336
31.7744
31.8561
1.3162
31.8634
0.738786
0.950689
12.6383
31.7588
31.2111
0.774331
1.88637
31.8376
11.9283
0.309807
1.47738
31.807
31.7898
31.9939
31.8997
0.279547
0.5707
31.793
1.92967
1.75108
3.33258
31.8214
31.7759
31.7698
31.793
1.47249
33.6018
31.8252
31.3483
0.397893
1.52962
0.495003
31.6194
31.9403
1.77747
30.7792
31.8642
31.7934
31.808
1.06984
31.0504
31.0528
31.1083
0.482046
1.12189
31.766
31.9247
31.6896
1.25787
32.7365
31.7613
31.6977
31.9325
31.9141
1.77365
1.47666
32.1381
1.17953
1.44598
1.02601
31.9886
31.9604
31.8521
31.8106
31.0917
1.34834
31.8246
29.8962
29.9379
1.75943
30.8624
1.71759
31.8538
31.2607
2.09252
3.66295
28.8302
1.80007
31.823
1.78415
32.8573
31.8263
31.961
36.2658
31.7916
1.94562
31.7536
1.19837
31.28
28.4571
31.934
31.758
0.444811
1.79312
31.1591
12.3736
31.3264
1.57992
1.9221
1.70194
31.3487
1.2007
1.57355
1.90805
1.49143
0.314757
1.5865
30.9077
31.108
-0.121084
0.662277
1.65751
31.8692
30.6101
26.377
14.6794
31.9763
31.0756
31.9295
31.9644
31.9904
33.3061
1.73074
1.93465
0.868343
28.3251
1.98352
31.928
1.37544
31.8667
32.0034
31.211
31.0914
1.82096
31.0242
31.3177
31.8196
1.201
31.8187
31.8921
1.9815
31.7807
23.8957
20.8652
19.6333
31.9713
20.4465
19.8402
20.2646
22.8396
31.1134
31.1159
1.17443
1.68698
28.5441
29.0032
31.1311
1.1649
32.8825
31.3675
1.81344
31.7954
31.8487
1.7193
1.9219
31.8456
31.0782
2.22993
28.5422
31.0023
1.11382
1.26473
1.3759
31.4856
1.30534
31.9474
0.805496
1.03513
1.27319
31.8266
1.05163
1.30035
32.0544
-1.32186
31.7197
1.20921
30.4181
1.26916
31.465
1.894
31.7602
30.8643
31.2727
-2.98198
-2.95554
31.9904
1.29457
2.11047
32.1565
31.8234
0.915799
0.0994622
2.06468
31.9914
1.35786
1.32563
2.00804
-0.596786
31.9893
1.89195
31.138
1.87435
31.867
-3.89771
-4.90122
31.6804
0.868558
31.2522
1.98821
31.1581
31.6855
31.8146
31.9388
31.6971
31.8161
1.71338
1.04667
1.84673
31.7909
25.9927
1.88114
31.7993
31.821
31.8598
31.9419
31.8733
0.120424
31.8272
31.9408
31.1054
0.098242
31.7092
31.181
30.464
0.310792
31.2074
0.186491
-0.331103
1.50328
0.293589
0.113753
32.9928
31.7857
31.8294
0.417871
0.511948
30.7479
25.8616
0.236653
31.8893
31.9506
1.91279
31.7148
1.31565
31.7719
0.146519
1.94634
31.7967
31.1099
31.7691
31.9323
31.8777
2.06964
31.7653
0.245357
31.9964
31.8091
0.511334
31.2541
1.36556
31.3419
31.8901
1.71131
0.887261
1.99688
31.9304
31.9344
31.8401
0.904088
2.01786
32.0163
31.1753
30.8559
0.571508
31.7413
1.40079
1.93241
31.804
31.7661
0.570282
31.8425
30.85
31.2066
32.0219
31.239
1.86777
25.5306
31.1264
31.913
26.1464
31.7685
26.9697
31.6416
31.7381
31.4102
0.859684
31.634
0.52631
31.6492
31.7536
2.31811
0.58415
31.7265
31.7676
31.7831
0.520484
27.6109
31.8263
31.1864
31.768
0.608062
31.7342
1.80556
31.9777
1.5951
28.3819
1.8625
31.7985
31.877
1.55902
26.9977
31.7884
0.502083
1.57306
32.0285
31.9309
1.68847
1.8131
0.566819
0.520253
0.520606
1.71635
0.585915
1.90114
32.0033
1.76551
25.9363
25.5191
31.8165
31.7192
31.8734
0.569926
31.9692
31.9594
31.9621
1.84833
1.87768
24.7931
1.70487
31.9448
1.82207
31.0132
2.0147
0.64551
26.2057
1.61186
31.7095
31.6414
31.1648
0.607897
1.60414
31.839
31.2249
0.594299
31.9261
2.00965
32.0281
2.05602
31.86
31.1638
31.8745
31.1574
0.529858
31.1564
3.65321
31.2796
1.66186
31.812
31.7722
18.7516
17.5594
31.8502
31.7823
31.8658
31.9397
1.60217
1.95783
22.0781
31.9292
1.63848
31.1252
31.2878
0.927948
1.24756
2.03638
31.1702
0.389094
1.67071
0.922703
1.34197
31.8729
31.988
32.0041
31.9407
31.1742
31.1582
31.1607
31.6233
31.1705
31.1614
31.8519
31.1553
1.9701
31.1616
31.7766
34.6432
31.9355
31.8187
12.6744
31.1249
31.7915
1.29705
2.10324
31.6567
31.8943
31.8503
1.21215
31.4505
31.8215
2.01929
31.2189
31.7698
31.8744
31.9183
2.03173
31.1956
1.88296
31.9279
31.8342
31.7936
31.8162
31.7743
2.04798
1.91631
0.709007
31.9391
31.0931
32.0797
2.00378
31.7619
1.90244
2.15734
31.2007
31.814
24.7619
0.981783
31.6799
28.7557
1.02804
25.0706
1.76827
31.3784
1.92165
24.9431
23.3139
31.8528
1.58318
31.2259
1.54862
1.98302
31.7833
1.60086
1.43162
31.8538
1.95004
31.1
31.6957
31.7469
31.6754
31.6882
31.1479
31.7614
31.9573
1.86899
29.0897
31.8286
31.8755
31.7478
31.7529
1.2065
17.6091
1.99493
1.49906
31.7656
1.56632
1.51921
31.8399
28.6826
31.6236
31.6919
31.831
32.051
26.5873
29.2934
1.77811
31.8145
31.983
25.1407
27.1044
31.1791
1.54809
31.742
31.1076
31.9305
1.97915
31.9704
31.1276
1.70867
31.2032
31.1892
31.5292
32.1535
1.72672
31.8152
31.8004
31.7842
31.8206
1.81694
2.04461
2.07815
1.56606
1.89588
1.86777
31.2267
27.0081
1.92072
1.85076
26.967
1.93801
31.9002
-1.46633
31.1204
1.97451
31.8363
31.0837
1.89957
-2.64378
31.7658
1.84268
31.8356
31.8842
1.9557
2.00783
31.9306
31.1469
31.9021
31.1684
31.7721
27.9137
31.937
31.8692
1.82499
31.9394
31.8414
31.8112
1.92967
31.8116
28.0603
31.1901
31.1403
29.8199
28.3928
1.92627
31.0702
28.435
1.19039
31.903
1.79833
1.85912
31.7872
1.22197
31.8564
30.4017
32.1323
27.9192
31.286
31.8897
31.9566
31.9808
1.26677
31.9522
31.8974
31.9392
31.431
31.8222
31.6103
1.93456
31.8537
31.9342
1.95227
31.8399
31.1809
31.3402
1.30955
31.8102
1.67608
27.597
1.12224
0.202412
31.1582
26.985
1.20823
25.983
31.1673
1.7531
1.10658
0.0125984
1.90665
1.58562
-1.81147
31.3841
31.0604
1.49553
2.00572
1.98523
1.47566
1.1455
31.26
0.329718
1.44216
1.46514
31.3514
1.48092
0.296813
0.910213
1.41463
1.91561
1.41736
0.46348
1.34475
0.0455914
0.704501
1.42762
28.1075
0.369038
0.0404493
1.56833
1.75126
0.156253
1.42636
0.100191
28.7194
1.98366
28.5274
0.880653
1.50919
1.6973
1.11154
28.4789
31.1661
1.39118
1.15617
1.89606
2.0602
0.460018
1.46774
20.4678
1.51668
31.8542
2.55776
1.98314
1.93205
0.937684
1.89292
1.8041
1.68853
1.06616
0.971883
0.864877
1.48507
0.526751
25.4133
22.4929
1.48231
31.7918
31.8527
1.41312
1.50261
0.204054
31.7945
1.88028
2.00236
1.07232
23.2852
31.8487
1.63823
0.0589096
1.96018
31.9896
0.483099
31.8828
1.13301
1.66553
1.87739
1.90176
31.7811
31.8674
2.09156
1.48098
1.52869
31.8398
1.19677
1.5338
1.74759
31.2244
1.08859
0.146132
28.4723
0.910863
-2.85652
1.8939
30.9143
1.95468
2.15335
31.8596
1.77953
0.216062
7.88076
1.72883
1.82356
0.393327
1.64712
1.70093
0.0491476
1.55815
1.86213
1.69228
0.368742
1.46657
1.84174
1.17197
1.77597
0.799122
1.43691
1.88016
0.477094
31.8711
1.79165
1.74888
1.94032
0.567062
1.95302
31.1363
1.77327
0.92589
31.8584
1.86476
0.015155
1.7747
1.74902
0.286228
-0.123921
1.59993
1.68085
1.95909
31.8741
31.8498
1.99913
31.321
2.01455
2.09347
31.0899
0.292705
1.80737
0.999951
31.9388
0.933271
1.02321
1.90975
1.88316
0.986718
0.494837
1.1932
1.90736
31.8526
31.69
1.99348
1.82331
1.92064
1.29543
31.6883
1.8476
1.7383
31.0863
1.14917
1.50462
-0.199267
1.73407
1.9115
1.54845
0.484921
1.35793
31.3485
1.82668
0.936862
1.70472
1.79128
31.6938
1.95643
32.2371
31.8358
1.01818
1.63031
1.09207
3.062
1.79288
7.94834
31.195
1.5668
1.78815
1.36442
1.11173
31.7907
31.348
31.3062
1.11472
1.13771
1.6983
0.912639
30.811
31.7101
1.08056
1.22255
1.92036
1.13594
1.10932
1.40552
1.84729
18.697
31.1167
1.64909
0.176418
31.705
1.49678
1.38505
2.29906
1.66819
1.34177
2.01838
31.7074
1.16661
1.34137
31.3059
30.874
0.199961
0.395362
0.513125
0.261135
1.36847
1.4265
0.464141
0.941106
1.28936
0.235137
31.6884
31.6567
0.0437876
0.301919
1.35806
2.11678
1.32258
1.22667
1.69008
1.12121
1.30452
31.1501
31.3362
2.0762
31.6786
27.919
1.38588
0.916944
1.29262
2.06326
29.2876
1.92125
2.19453
29.7902
2.11867
1.73111
1.30953
1.32974
0.153567
1.5212
1.85132
0.282465
31.8425
29.5816
1.97703
0.493027
1.09636
0.49553
1.74878
1.80673
1.94462
29.6768
1.41639
0.487116
1.19042
2.03371
1.89768
1.941
1.74367
1.34438
0.381632
29.2743
1.84822
1.35555
13.0028
27.9164
25.8868
1.2764
27.3379
0.0998791
1.22554
1.1129
1.53069
1.8353
21.3094
13.9031
32.5885
27.4837
1.99323
31.1611
31.1612
-2.03721
31.8367
0.935425
1.15084
0.964151
0.866501
0.909926
1.49603
25.9308
0.475657
0.24695
1.7889
1.40382
0.881755
1.35492
31.1776
1.73857
0.870443
1.37213
31.1653
1.73787
1.35703
31.1627
31.7385
1.83841
0.835402
32.0372
1.58536
1.44621
1.82673
31.9168
31.158
0.205206
1.72192
1.52573
31.1685
31.2289
31.1625
1.68026
12.0394
11.1481
0.531993
1.12452
32.0011
0.618392
1.20769
1.25289
0.216812
0.146371
0.643069
0.795499
0.247845
31.5209
0.599022
0.459145
0.105495
1.03347
0.270051
0.339672
0.261175
0.302223
0.163578
1.97367
1.18776
1.35038
1.8476
1.90106
0.920113
0.274516
1.24608
0.307765
0.154065
0.787266
0.562619
1.93462
0.531788
1.24401
0.55801
30.4376
1.35979
16.7535
1.02632
1.44753
31.3111
1.75686
30.4409
1.51412
30.5462
31.8203
1.21542
1.74765
28.1058
0.469753
1.16106
1.78354
31.7151
31.9305
2.21695
0.608228
1.89224
1.03135
0.437772
1.72871
2.07482
1.68715
1.77025
26.6154
1.35597
31.1832
31.7191
0.84363
0.633593
2.07649
0.814062
0.56486
1.79888
1.81409
31.3839
1.93809
0.538489
1.76736
31.4188
31.9813
1.35268
1.53893
25.315
1.95818
0.150335
1.59522
-0.371064
0.503153
1.06655
31.743
19.5278
0.878482
2.00039
31.585
0.874069
1.93881
1.62276
2.17773
0.831786
2.05641
1.34969
2.04685
20.6581
2.06997
31.8124
1.52528
1.78597
0.474596
0.0841846
27.1078
0.0781876
1.97526
1.71635
1.80964
30.1211
31.1669
0.924942
2.00623
1.74076
1.52412
1.94943
0.65491
0.110357
1.17102
0.279849
0.163082
1.93914
28.8014
1.93058
1.65635
0.0286655
1.9141
29.5234
31.1024
-6.07697
1.9882
32.958
1.90346
1.82482
29.8151
21.2689
22.7391
1.7087
0.845636
3.21177
24.186
1.81415
0.976373
30.7341
1.04974
28.0381
1.6099
0.661907
31.3686
0.0612131
1.98174
1.96693
0.637637
31.1293
1.53452
1.84242
1.94587
2.00077
2.09303
2.06753
1.85233
1.90469
1.86119
0.384815
0.856039
31.7523
26.6384
26.8154
31.1493
1.68132
0.981717
0.909227
1.84861
0.528727
0.906305
1.57936
1.78516
1.71761
0.662642
1.84875
1.77548
1.68056
0.524506
31.8216
1.91029
1.83392
1.76096
1.89354
30.7135
1.08154
1.10754
1.64708
1.51398
1.24608
31.1025
1.27536
1.23053
27.9721
1.28819
1.67252
31.1393
1.19302
31.0927
31.333
1.08049
1.63712
1.69548
1.24344
31.1017
0.316562
1.78191
31.3454
1.09103
1.27917
1.08213
1.70404
31.2438
1.75616
1.75834
1.66761
31.2791
0.985213
0.402451
1.65275
0.816435
0.964766
32.0435
30.4104
28.9191
0.164346
29.4266
0.931043
0.747203
0.304745
31.801
0.329219
31.1268
31.8217
31.6881
1.09869
-0.028182
1.74011
1.67661
1.00918
30.3927
28.0311
1.95694
1.89512
0.828236
1.78003
0.981517
1.08235
31.8254
23.8002
24.2754
31.1339
24.542
0.0977325
31.8504
0.972439
1.54917
1.01325
0.209094
1.1212
26.1541
0.703245
1.57011
1.79906
2.0104
26.3134
31.8112
1.79873
0.757913
1.49984
0.592254
1.96066
1.85147
1.51346
1.77357
0.679824
0.141308
0.652692
-0.443797
0.637378
1.59234
1.6595
0.481855
0.613399
1.92726
0.324922
0.66824
-1.01996
-2.16202
0.469193
1.98804
31.3477
-1.41587
-4.94377
0.309554
0.205371
0.0511285
1.59099
1.32233
-5.64454
0.21902
2.01138
31.9019
0.948687
1.27453
1.30443
31.7883
0.949921
0.584391
0.236367
1.18734
31.9901
31.9005
1.68848
0.401865
0.405048
0.0859351
31.5834
31.8742
31.2362
1.34626
1.61061
0.359149
31.8797
0.89932
31.9124
31.9967
0.255707
0.186603
31.0595
0.372437
0.399248
-0.0151663
31.3085
31.9204
0.635485
1.59659
31.9439
0.331993
0.452152
0.0650239
32.1449
32.1697
32.0479
0.0571129
0.331389
1.97422
0.45762
31.2732
0.309902
1.47602
1.96134
1.85185
30.9863
31.7964
0.492531
2.00649
1.95842
1.15428
30.9838
1.77789
31.1839
0.44813
1.97677
1.48426
31.173
28.9792
1.97431
2.14578
28.4547
28.611
31.1917
1.12715
30.5295
27.303
1.54384
1.52165
31.1909
28.0306
1.35727
0.474433
0.369767
1.08055
0.934967
28.4778
1.61362
26.2971
25.6847
31.8755
1.11679
1.78235
0.327945
25.8299
33.9003
1.58892
1.96942
1.69029
1.76066
1.41286
1.2779
1.38501
0.541429
25.3812
1.47788
1.0638
0.521948
1.10239
1.69902
18.9309
0.952376
1.04747
1.05529
1.0472
0.429081
24.6364
29.1686
1.20943
29.3832
29.7426
1.43453
29.4444
0.929082
28.7905
29.1296
31.1853
28.053
1.1565
0.444038
1.11969
28.7321
0.626329
1.09346
1.40541
29.1777
31.87
1.1686
1.22756
1.87042
1.17039
27.9095
0.0507821
0.391201
0.276255
31.0966
31.3743
0.778195
0.609773
31.4814
29.303
1.8856
0.0355507
28.6808
2.03429
1.83487
1.87383
1.28856
28.97
1.40711
6.31246
0.2752
0.383973
1.96493
1.82679
1.79705
0.820677
1.48797
28.3612
1.60105
1.47792
1.81918
1.9599
1.8941
29.1034
0.981501
1.4984
0.886098
1.23149
1.46666
1.81857
0.575839
1.8844
1.81779
1.92924
0.679776
1.92686
2.05452
1.43582
1.74707
31.9766
0.963487
31.9707
1.42333
1.48783
1.91245
1.93711
1.9741
1.41783
1.43819
1.90217
1.15421
0.478262
31.0609
24.1773
1.95758
2.00703
1.67132
2.03425
1.97796
1.90009
2.00576
2.33378
25.1544
0.436703
2.40957
-4.54766
26.2076
0.164324
24.4211
1.10971
1.35832
1.30011
1.08426
31.3449
1.4125
1.81287
-0.955363
31.1672
1.91804
0.403875
1.8668
1.92324
1.9612
24.5981
31.1515
1.06095
1.51997
0.912575
1.52297
1.37576
1.49582
2.064
27.0516
0.290606
26.1265
1.65863
0.440996
1.62877
31.9127
22.3943
1.91473
1.54294
1.15324
1.5854
31.1653
1.64632
1.60457
0.259718
1.58603
12.9332
7.34377
1.71888
31.8353
31.1283
1.04218
12.5404
1.86803
31.9292
0.811912
31.8163
-0.753097
31.3047
0.544304
1.9333
1.20932
1.58641
1.69627
1.47431
1.77577
1.79254
0.219908
1.31291
0.983606
1.30552
30.3867
0.625845
31.0721
1.72412
1.73421
1.37909
1.26245
1.67192
0.516006
1.10944
1.59142
1.65408
1.31044
1.85908
2.04213
32.3556
1.61608
0.478954
-0.376013
0.430178
1.65327
-0.612288
0.622473
2.04059
1.52109
-0.191537
1.51188
1.01401
1.71534
1.40774
31.1126
31.1008
1.46149
1.54393
1.8218
31.1996
-1.51723
0.271613
1.48666
1.11833
0.750035
1.20639
1.01623
1.55755
0.0629335
0.952512
1.85805
0.801257
1.30582
1.21187
1.09955
1.88819
1.69681
0.786272
1.73507
1.59428
0.729109
0.636047
1.73307
-0.30979
0.915359
0.692337
1.16115
1.50417
0.820326
0.618928
31.0324
1.72173
0.31758
0.665725
12.172
1.72304
26.3788
1.07547
1.63626
0.249714
1.79971
31.6871
1.6924
1.76602
-0.67325
1.78594
-0.848589
1.83911
31.1597
1.22622
0.388495
1.90717
1.72473
0.309117
30.988
31.1745
5.09025
29.4443
1.86945
31.7712
1.67296
5.17637
29.4283
29.6576
0.327383
30.157
31.8564
1.8471
1.16616
32.0724
1.42274
1.00911
1.39257
-3.67788
31.8553
1.999