/*--------------------------------*- C++ -*----------------------------------*\
  =========                 |
  \\      /  F ield         | OpenFOAM: The Open Source CFD Toolbox
   \\    /   O peration     | Website:  https://openfoam.org
    \\  /    A nd           | Version:  10
     \\/     M anipulation  |
\*---------------------------------------------------------------------------*/
FoamFile
{
    format      ascii;
    class       surfaceScalarField;
    location    "5.3";
    object      phi;
}
// * * * * * * * * * * * * * * * * * * * * * * * * * * * * * * * * * * * * * //

dimensions      [0 3 -1 0 0 0 0];

internalField   nonuniform List<scalar> 
214403
(
-0.00661493
0.00507265
0.00028003
0.00126225
-0.00325548
-0.0109473
0.000931366
0.0132714
-0.0100003
6.65039e-05
-0.000136179
0.01007
0.00870691
-0.00585364
-0.0145943
0.011741
0.0119902
-0.0151598
0.00360994
-0.000440357
-0.00523187
0.00544948
-5.31547e-05
-0.000164458
-0.000837899
-0.00158155
-0.00899766
0.0114171
-0.0165871
0.00944055
-0.00249227
0.00963886
-0.0227453
0.0160651
0.0162058
-0.00952554
0.0138488
0.00164409
-0.0154795
-1.33948e-05
0.00491796
-0.00974003
0.00200329
0.00281878
-0.0100915
0.0031732
0.00523027
0.00168805
0.000465331
-0.0111753
0.0134604
-0.00275046
-0.00970585
0.00976527
-5.94272e-05
0.00187204
0.0116456
-0.0149281
0.00141049
-0.011759
0.00983
0.00297828
-0.00104932
-0.0118373
0.0115471
0.000290195
0.0038392
-2.99447e-05
-0.000940458
-0.0028688
0.0153019
-0.00915756
-0.0203456
0.0142013
-7.43881e-05
-0.00304884
8.9599e-05
0.00303363
0.00628811
-0.00614069
-0.000147427
-0.0120102
-0.00415497
0.00413116
0.012034
-0.00222581
0.0133105
-0.0107359
-0.00034878
0.00656371
0.000688697
0.00228909
-0.00954149
-0.0100005
-0.0048074
0.0129468
0.00186102
0.00903317
-0.0114404
6.76175e-05
0.00233962
0.00315064
-0.00275604
0.0103194
-0.010714
0.00746562
0.0097636
-0.0117621
-0.00546711
0.0109069
-0.00684038
-0.000310034
-0.00375651
-0.00575863
0.00587015
-0.00011151
0.00237873
-0.0049565
0.0132272
-0.0106494
0.0137854
0.000653358
-0.00240427
-0.0120345
-0.00552378
-0.00566913
0.00580563
0.00538728
-0.00116672
-0.00658031
0.00582916
0.00191787
0.00430054
-0.00293487
-0.00917083
0.00780516
-0.00166507
0.0083068
-0.00300102
-0.00364071
0.0156613
-0.000385354
-0.0152759
-0.00673238
0.0131309
-0.00639855
0.0012073
-0.0144062
0.00834873
0.00485022
0.00239817
-0.00096422
0.00586843
-0.00730237
0.00555317
-5.84185e-05
-0.00549475
0.0100017
-0.000215562
0.00177235
-0.0115585
-0.0126863
0.00159382
0.0134907
0.000844755
0.000863426
0.00842506
-0.0101332
-0.00402547
-0.0262769
0.0254876
0.00481472
0.00560716
0.00101242
0.00126766
-0.00788725
0.00414028
0.00313149
-0.0101148
0.00284298
0.0130425
0.00781521
-0.014294
0.00118059
0.0110695
-0.00224841
0.00178806
-0.00669447
-0.00394125
0.00884766
0.00304754
0.00468208
0.00139414
-0.00912375
0.00180465
-0.00135613
-0.00416873
0.00372021
0.00674659
-0.0122103
0.00851128
0.011627
-0.0109475
-0.00375435
0.00307489
0.0104427
-0.00190804
-0.00839201
0.0113777
-0.000482711
-0.00250295
0.00864154
-0.0110511
0.000127825
0.00228171
-0.00806734
0.000533624
0.0128913
-0.00535758
-0.0149796
-0.0140911
0.0118266
0.017244
-0.00800331
0.00805451
0.00158293
-0.00163413
0.00126331
-0.0102308
-0.00841887
-0.000175302
0.0043764
0.00421777
-0.0131115
0.00562917
0.0084831
-0.00100075
0.0153784
-0.0123875
0.000791138
-0.00378208
0.000705292
0.000258277
-0.0100853
0.00912169
0.000509595
-0.00279369
0.0138125
-0.0115284
-0.0341218
0.00357429
0.0038167
0.0267308
-0.00313773
0.00924105
-0.00292541
-0.00317791
0.00454803
-0.0023919
-0.00970979
0.00755365
0.00109207
0.00680117
-0.00864324
0.000749999
-0.000166766
0.00831344
0.00289016
-0.0110368
-0.00165028
-0.000262725
-0.00344279
0.0053558
-0.00884626
0.00966623
-0.000364958
-0.000455016
0.000309444
-0.00887294
-0.00624951
0.00553567
0.00168004
-0.000966207
-0.0165173
-0.00104369
0.00805882
0.00950222
-0.00498292
-0.00212391
0.00423958
0.00286724
0.00735064
-0.0246506
0.00341701
0.0138829
-0.00382776
0.00770295
-0.00420744
0.000332261
0.00548822
-0.00426213
0.000542385
-0.00176847
0.000125887
-0.0103636
0.0102378
3.46649e-05
0.00841058
-0.00844525
0.00739231
-0.00144514
0.000979023
-0.00692619
-0.00446435
0.00636958
0.00211117
-0.00401641
-0.00313665
0.0133653
-0.00321374
-0.00701493
0.00631791
-0.0107701
-0.00040763
0.00485986
0.00720431
0.00760758
-0.0148119
0.0106398
-0.0119575
0.00306378
-0.00174606
0.00103602
-0.00191943
0.0138897
-0.0130063
0.000400015
-0.00223619
0.0100035
-0.00816728
0.00237905
0.0209209
0.00602536
-0.0293253
-0.0182984
0.0160965
0.0104375
-0.00823557
0.000840146
0.00646031
-0.00868286
0.0013824
0.00854949
0.00950041
-0.00310958
-0.0149403
0.0158634
-0.00963983
-0.000312509
-0.00591108
0.000696675
-0.00204157
-0.00641122
0.00775611
-0.00648851
3.69666e-05
0.00645154
0.00964171
0.000332795
0.000665288
0.0119904
0.00100854
-0.0182462
0.00524735
-0.00961777
0.00212095
0.00171044
0.00578639
-0.00612266
0.00151805
0.000752621
0.00385199
0.00149322
0.00106844
-0.0126702
0.0101085
-0.0025888
-0.0150668
0.00960581
0.00804974
0.00605985
-0.00716927
-0.00467156
0.00578098
0.00979141
-0.000104021
-0.00979027
0.000102877
0.0074716
-0.0105603
-0.00365934
0.00674803
0.0193469
-0.00585589
-0.00301531
-0.0104757
0.0109997
-1.89556e-05
-0.0101151
-0.00086563
-0.00555838
0.00654388
0.0136359
-0.0146214
0.0119047
-0.00417929
-0.0114504
0.00372497
0.00219584
-0.00320654
0.0139478
-0.0129371
-0.0157096
0.0143175
0.0135734
-0.0121812
0.000708757
-0.0122535
0.00472855
0.00681621
0.0153397
-0.000807951
-0.000315155
-0.0142166
0.0108539
-0.00211457
0.00209896
-0.0108382
-0.0125704
-0.011434
0.013532
0.0104724
-0.00238681
0.00684825
0.0018563
-0.00631774
-0.00533244
0.000290723
0.0103352
-0.00529352
-0.00119305
0.0134534
-0.0125213
0.000260957
-0.0116557
0.0108244
0.00210696
-0.00127563
-0.000391561
-0.00680002
0.0162247
0.00213764
-0.00711344
-0.00520495
0.0101808
-0.00564322
7.37308e-05
0.00556949
0.0017304
0.00786846
-0.00727868
-0.00232018
0.0126014
-0.00726661
-0.00193213
-0.00340269
9.41671e-05
-0.00373949
0.00364533
-0.00708096
-0.00191005
0.00266307
0.00632794
0.000734928
0.00404428
-0.00907267
0.00429346
0.0154974
-0.00139975
0.00605643
-0.0201541
0.0011029
-0.00137658
-0.0186742
0.0189479
0.00120384
-0.00535257
-0.00706886
0.0112176
0.000452085
0.00973262
-0.000542999
3.91139e-05
-0.00575137
0.00571226
0.0118148
-0.00438509
-0.00529211
-0.00716228
0.00597906
-0.00589773
0.0130737
-0.0108792
-0.00132088
-0.000873576
0.00130548
-0.0061733
0.002699
0.00216882
-0.0106637
-0.00323132
0.00216861
0.0117264
0.00888224
-0.0144322
0.0095098
-0.0039598
-0.000396733
0.0130402
-0.0130572
0.000413691
-3.98877e-05
0.0119125
-0.0118031
-6.95395e-05
-0.0165853
0.0132357
-0.0106243
0.0139738
0.0138297
-0.0133838
-0.000445872
-0.0127019
0.0170076
-0.00310486
-0.00120088
-0.0113416
0.00272859
-0.000855984
0.00946901
-0.0186792
0.00143632
0.0120099
0.00523295
0.00330502
-0.00451409
0.00251454
-0.00459929
0.0052289
0.00841229
-0.00904191
-0.00494902
-0.00222091
0.00283206
0.00433788
-0.0067325
0.00440236
-0.00849976
0.0108299
0.00202211
0.000165274
-0.0148893
-0.00666408
0.00664974
1.43394e-05
0.00725078
-0.00697156
-0.000279222
-0.0109508
-0.000716347
-0.00291302
0.00269635
-0.0144125
0.0167784
-0.00506229
0.00648782
0.0111626
-0.0141974
-0.00345303
0.0123953
-0.0134631
0.000362036
0.000705732
0.00662174
0.00171866
-0.00684259
-0.00149781
-0.0104405
-0.000579027
0.0137159
0.00603809
-0.000436391
-0.00736068
0.00175898
0.0068031
-0.00582564
0.00671098
-0.00768844
-0.0118028
0.00221853
0.0160721
-0.00399087
-0.00559003
0.0184697
-0.00888877
-0.00568693
-0.00626971
0.00151616
0.00169095
0.00450539
-0.0118833
-0.0080588
-0.000712298
0.0129527
-0.00418162
0.00125538
0.00198469
0.00719171
-0.0104318
-0.0038188
0.00934729
-0.00552849
0.00302722
-0.0145649
0.00526799
0.00867832
0.00606132
-0.0130487
-0.0122269
0.00014781
0.0152355
-0.00315641
0.00208678
0.00178813
0.00558566
-0.00946057
0.0082971
-0.00836075
6.36423e-05
0.00309513
-0.0011689
0.0103904
-0.0123167
0.0109225
-0.00346119
0.00524979
-0.0127111
0.0201316
-0.00647856
0.0150212
-0.0286742
0.00327269
0.00609173
-0.00253089
-0.00683353
-0.00913669
0.00375848
0.00478811
0.000590106
0.00654664
-0.00493153
-0.00013541
-0.0014797
-0.00420887
-0.00533083
0.0155308
-0.00599109
-0.00733209
0.00952142
0.0037952
-0.00598453
0.011045
-0.000603865
-0.003638
-0.0170728
0.0112878
-0.000947503
-0.0162814
0.0150225
0.00697642
-0.00571756
0.0103873
-0.011706
-0.00168996
0.00300868
0.00585507
-0.0105843
-0.00554021
-0.00604712
-0.00554808
0.00313587
0.00845933
-0.00862929
0.00267946
0.00852079
-0.00257096
0.00999116
-0.00950799
-0.00655262
0.00606944
6.18469e-05
-8.76267e-05
-0.00940108
0.00942686
0.000227318
-0.00822808
-0.000312506
0.00831327
-0.00237843
-0.0140904
0.0022144
-0.00814889
0.00732935
-0.00139486
-0.00552128
-0.00232603
-0.00078199
-0.00018133
0.0138373
0.000192827
-0.0330727
0.0232648
0.0168184
-0.00701041
-0.00978412
0.000666308
0.000353166
0.00876465
-0.00194109
0.0309783
-0.0364658
0.00742856
0.00155274
0.00239509
-0.00537457
0.00142674
-0.0209398
0.011282
0.00145969
0.00819813
-0.000246605
-0.0138951
-0.00198039
0.0161221
-0.00573691
0.0209166
-0.0144989
-0.000680781
0.00939441
0.0136607
-0.012626
-0.0104292
-0.0112101
0.0106786
0.0132591
-0.0127276
0.0043687
0.0061044
-0.00760353
-0.00286957
0.00432647
-0.00291785
-0.00692989
-0.022275
-0.000881748
0.0181869
0.00496985
0.00656832
0.00100915
-0.003819
0.00672129
0.00899793
-0.00830798
-0.00741124
-0.0111254
0.00247909
0.0108515
-0.00220523
0.00131946
0.00350016
0.012188
-0.0129126
0.0127477
0.00123729
-0.00107239
0.00801675
0.00629277
-0.00566872
-0.000224053
-0.00159512
0.00748789
-0.00853466
-0.00169847
0.00474724
-0.0164069
0.00697931
0.00468036
0.000499628
0.00887576
-0.009847
0.000471611
-0.00340112
0.000658407
-0.00316603
0.00590875
0.0137351
-0.00981886
0.00041018
-0.00778402
-0.0060912
0.00819295
0.00568227
0.0294047
-0.0314517
0.0102685
-0.0082215
-0.00567392
0.00705008
0.00283988
-0.00421604
-0.0129472
0.00562422
0.0112854
-0.00396246
-0.00559241
0.00811905
0.010445
-0.0129716
0.0156512
-0.00604013
-0.0103572
0.000746093
0.000271437
-0.00379733
0.00923635
-0.00571046
-0.00160545
0.00159106
-0.0122125
0.0112665
0.00365654
-0.012062
-0.00286103
0.0141551
-0.0116135
-0.00312066
0.00295787
0.00437129
-0.0103554
0.00302625
-0.00585012
-0.0106999
0.00951418
0.00703584
-0.00177677
-0.00461078
-0.00139647
0.00577691
-0.00617106
0.0132983
-0.0129042
0.0013995
-0.0161009
0.0147014
0.00545222
-0.00714174
0.00464739
0.0029918
0.00172697
0.00245414
-0.0071729
-0.000305292
-0.0134296
0.0137349
-0.00736434
0.000978416
-0.00238998
0.0087759
-0.000880912
0.0101948
-0.0092864
-2.74563e-05
-0.00690749
-0.00365678
0.00398833
0.00657594
-0.00257532
-0.00610895
-0.00566962
-0.00833567
0.00695273
0.00705256
0.000306595
-0.00855153
0.0146751
-0.00603361
-0.000781419
-0.00786005
0.00784575
-0.000752739
-0.00572271
-0.0013703
-0.00127037
0.0109968
-0.0137042
0.00397772
0.00707446
0.000272077
0.00344397
-0.0107905
-0.000259381
-0.00581574
0.00281025
0.00326487
-0.00404679
0.00526481
0.0101705
-0.0113885
-0.0143101
-0.0036921
-0.00398877
0.0131331
-0.012299
0.000293375
0.00384818
0.0081574
0.00118584
-0.0043481
-0.00772904
0.0108913
-0.00564713
-0.0110228
0.00278157
0.0138883
-0.00510811
-0.0056642
0.00588619
0.00488613
-0.0132588
0.0127621
0.0134726
-0.0129759
-0.00180624
-0.00315299
-0.00950298
0.0144622
-0.0130148
0.00130878
0.0132456
-0.00153958
-0.00226807
0.00605603
-0.00378796
-0.00526977
0.00974145
-0.00733276
0.00286108
-0.000220933
0.0173974
-0.0064697
-0.0107068
-0.00623721
-0.00301192
0.0125039
-0.00325472
0.00200668
-0.00526374
0.0119438
-0.00868674
0.000550536
0.00780652
-0.00136762
-4.40525e-05
-0.0127173
0.0127111
5.02453e-05
0.0146042
-0.00258697
-0.0213454
0.00932817
-0.0134881
-0.00132159
0.0168409
-0.00203128
-0.00731953
0.0110587
0.000907699
-0.00464684
0.00651398
-0.00643846
-7.55272e-05
-0.00775605
0.000750744
-0.00669083
0.0136961
-0.0111921
0.015425
-0.00321475
-0.00101811
0.00697479
-0.00292478
-0.00840986
0.00435986
-0.0134762
0.0135927
-0.000116534
0.0111069
-0.0161504
0.00130495
0.00373848
-0.0125753
-0.0034424
0.0215047
-0.00548706
0.00928886
-0.000390508
-0.00194991
-0.00694844
-0.00529122
-0.008975
0.0200431
-0.000941027
-0.013239
0.00800895
0.0207572
-0.023152
-0.00220249
0.00459731
0.00561071
0.00267462
-0.00619855
-0.00588923
0.00613932
-0.000250091
-0.00237914
0.0133001
-0.000844311
-0.0100766
-0.00289982
0.00343988
0.0115639
-0.012104
0.00756065
0.0177599
-0.0103833
-0.0149373
0.013038
-0.0156428
0.00497366
-0.00236884
0.0117818
0.000164213
-0.011946
0.000218125
0.0114669
-0.011685
0.0129338
-0.0156543
0.0138274
0.000138864
-0.000117429
0.0100971
-0.0101185
0.000260913
0.018352
-0.0182878
-0.00032515
-0.00156664
-0.00463101
-0.00937568
0.0155733
-0.00573819
-0.00343739
0.00115149
0.0108643
-0.0188982
0.00688236
-0.00912265
-0.00239241
0.00978126
0.0017338
-0.010839
0.0119681
-0.0031975
0.00206841
0.00169811
0.00884317
-0.00300902
-0.00753225
-0.00426876
0.00105077
0.00726109
-0.0040431
-1.34174e-05
0.0033121
-0.00416385
0.000865163
-0.00460782
0.0112749
-0.00650078
-0.00016633
0.00336722
-0.0106327
-0.00621073
7.57336e-05
-0.00991382
0.00983809
-0.00370273
-0.00355303
0.0016476
0.00560816
0.0055198
-0.00318438
-0.00233542
0.0138557
-0.013757
-0.00281122
0.00271251
-0.00126427
-0.00821128
0.00757343
0.00190212
-3.48737e-05
4.68955e-05
0.00747455
-0.00748657
0.00372943
-0.00306535
-0.0118657
0.0112016
0.00860811
-0.000219151
-0.00838896
-0.012535
-0.00811852
0.0120961
0.00855741
0.00733652
0.0114884
-0.019766
0.00696947
-0.00250858
0.00392561
-0.0083865
-0.00279252
0.00277887
-0.0154004
0.015414
0.00434592
-0.00856041
-0.00832543
0.0125399
-0.000877408
-0.0019609
0.00923806
-0.00639975
0.00643872
-0.007913
0.00286734
-0.00139307
0.00355794
-0.00589796
-0.00570118
0.00804119
-0.0114119
0.0128426
-0.00341116
0.00198053
0.0130262
0.0167484
-0.0184455
-0.0113291
-0.010059
0.0100153
4.36427e-05
-0.00112618
0.0118748
-0.0148306
0.00408194
0.000459396
-0.000750196
-0.0114319
0.0117227
0.0111708
0.000468647
-0.0128531
0.00121364
-0.00481412
-0.00813718
0.0102328
0.0027185
-0.0116308
0.0164803
-0.00583601
0.000986457
-0.00474974
-0.00581533
0.00345162
-0.000708154
-0.000121014
-0.00820861
0.00903778
-0.0268183
0.000102531
0.00239761
0.0243182
0.00105746
-0.00679375
-0.00351647
0.00925276
0.0167509
-0.0013777
-0.00542221
-0.00995095
-0.00296461
-0.00642724
0.00123897
0.00815287
0.00473557
-1.70182e-05
-0.00471856
0.00787732
0.00419497
-0.00261378
-0.00945851
0.00609709
-0.00482649
0.0120216
-0.0132922
0.000392432
0.0125104
-0.00413394
-0.00876888
0.00303445
0.004335
0.00938141
-0.00596777
0.000429292
0.00553848
-0.0077624
0.00110261
0.00205715
0.00130057
-0.0107255
0.00736777
-0.0101854
0.0149048
0.0045128
0.0153911
-0.00325831
-0.0166455
-0.00979319
0.00961121
-0.0152112
0.0153931
-0.00146255
-0.0073361
0.00256588
0.00623278
-0.00810787
0.0153122
0.00455913
-0.00530607
0.00118782
-0.000440888
-0.00502467
-0.0160155
0.00501449
0.0160256
0.0105197
-0.0104973
-9.71029e-05
7.47177e-05
0.00850703
-0.00993692
0.00211409
-0.000684209
0.00218316
0.00854165
-0.0152194
0.00449457
3.72273e-05
0.00731158
-0.00734881
0.00475772
-0.0121923
0.00961771
-0.00460369
0.0123602
0.0104139
-0.0181704
0.00350815
-0.00357797
-0.0166285
0.0166983
-0.00501394
0.00830683
-0.0166656
0.0133727
-0.0119361
0.00950312
0.0124591
-0.0100261
-0.00745353
0.0102114
-0.00659825
0.00384038
-0.00158516
0.00690562
0.00112435
-0.00644481
0.00347031
-0.00506043
0.00521835
-0.00362822
0.00660402
0.00245724
0.00217227
-0.0112335
0.0186985
-0.0126935
-0.000766658
-0.00523831
-7.99143e-06
-0.00906866
0.00907665
0.0056839
-0.00831141
-0.0254852
0.0281127
-0.00114187
-0.0123492
-0.00374198
0.017233
-0.000747801
-0.00566208
0.00640988
0.0017317
0.00820791
-0.00130023
-0.00863938
-0.00228416
-0.00824563
0.00665433
0.00387546
0.00643324
-0.0053885
-0.0094636
0.0163174
-0.0127015
0.00361389
0.00382901
-0.0074429
0.0123414
-0.000239483
-0.00146969
-0.0106322
-0.0023792
-0.00404705
0.00642625
0.00438931
0.00291667
0.0246369
-0.0296339
-0.01046
0.015457
0.00377079
0.00803132
-0.00614305
-0.00565907
-0.00862031
0.0165034
0.0109689
-0.018852
0.0097347
0.0033793
-0.00130135
-0.0118127
0.0160253
-0.0106863
0.00689538
-0.0122344
-0.00903012
0.00412867
-0.0113238
0.0162252
-0.0146777
0.0262989
-0.0103052
-0.00131592
-0.00039281
-0.00625369
-0.00862096
0.0152675
0.0119119
0.00492478
-0.0139779
-0.0028588
0.0063911
-0.0170332
0.0107474
-0.000105297
-0.0150317
-0.000569434
0.00983329
0.00576786
-0.00301597
0.00780019
0.00339266
-0.00817689
-0.00190886
0.00765658
0.00616112
-0.0119088
-0.015687
0.00806676
-0.000757433
0.00837764
0.00142454
-0.00424927
0.00844918
-0.00562446
0.006675
-0.00335778
0.00238256
-0.00569978
0.00643702
0.00123747
0.000633712
-0.00830821
-0.0094719
0.0101608
0.00376673
-0.00445561
-0.00225076
0.0120494
0.000242771
-0.0100414
0.00972395
-0.00570864
-0.00376956
-0.00024576
0.00837504
6.21958e-05
-0.00843723
0.00612291
0.00473974
-0.00107597
-0.00978668
0.00287189
0.00757474
0.00647479
-0.0169214
-1.23333e-05
-0.0136193
0.0136316
-0.00709894
0.0274966
-0.0040179
-0.0163798
-0.000126841
0.0102478
-0.0101209
-0.000682188
-0.00735779
0.00132121
0.00671876
-0.0133817
0.00681823
0.00517948
0.001384
0.00273184
0.00226948
-0.0156387
0.0106374
0.00795553
0.0125698
-0.00469724
-0.0158281
0.0120376
-0.00412462
-0.0115225
0.00360944
-0.015042
0.00858055
0.0229443
-0.0164828
-3.91508e-05
0.00578541
-0.00578548
3.92243e-05
-0.0059849
0.00592272
6.21721e-05
-0.0152889
0.000234791
0.0064338
0.00171036
0.00369266
0.0101133
-0.0155163
0.00795036
-0.00945641
0.00609966
-0.00459361
-0.00767337
0.00671957
-0.000254041
0.00120784
-0.00159391
-0.0126208
0.0161351
-0.00192045
-0.00565128
0.00272143
0.00894678
-0.00601693
0.00975802
-0.00376174
0.00143796
-0.00743423
-0.00645441
-0.00112517
0.00755557
2.40133e-05
-0.0011181
-5.99952e-05
0.0106207
-0.00944262
0.00134385
-0.001133
0.0105869
-0.0107978
-0.00952847
0.0133199
-0.0139602
0.0101688
6.12082e-05
-0.0120007
0.0119395
-0.00427654
0.000374137
0.0107828
-0.00688041
-0.00817393
0.00955618
-0.0130332
0.011651
-0.0083857
0.000636275
0.00254447
-0.00389585
0.010553
0.000589227
-0.00724636
-0.00280785
0.00038945
-0.00474388
-0.00415383
-0.0134941
0.0135551
0.00409282
-0.00601026
-0.00070183
-0.00151275
0.00822485
-0.0205932
0.00695782
0.00203303
0.0116024
-0.00648981
0.014933
-0.00743704
-0.00100616
0.00453236
0.00178174
-0.00912194
0.00896175
0.00913757
-0.0180993
0.00121256
0.0196814
-0.00455457
-0.0163394
-0.00025139
-0.000350646
-0.00871925
0.00932128
-0.00944935
0.0155614
-0.00627349
0.0001614
0.00896261
-0.0056595
-0.00812346
0.00482035
0.00224778
-0.000301467
0.0027515
0.0137823
0.00384217
-0.0199203
0.00229586
-0.00956657
-0.00124236
0.00313456
0.00767437
0.00359895
-0.00400185
-0.00541242
0.0165971
-0.0111711
0.00869312
-0.0141191
-0.00183857
0.0107169
-0.0185336
0.00965526
0.00643335
-0.00813229
-0.000823731
0.00252267
-0.00709718
-0.00247039
-0.00024001
0.00980758
-0.0053062
-0.00501549
0.0103217
0.00133321
-0.0142538
0.0126393
0.000281296
0.00545882
-0.00526592
-0.0054991
-0.00889499
0.0112892
-0.00215383
-0.00024042
0.0127184
0.00349596
-0.0136989
-0.00251545
-0.0049235
-0.00718488
-0.000823382
0.0129318
0.00813442
-0.0024749
0.00943239
-0.0150919
-0.0090247
-0.000503774
-0.0107918
0.00577632
0.0013858
-0.0120584
0.00385834
0.0068143
0.00352081
-0.0126125
0.00694498
0.00214668
0.00188542
0.000494378
-0.00945903
0.00707923
0.00143792
0.00617233
-0.000419841
0.0106681
-0.00210763
-0.00814065
-0.00418002
-0.000435611
-0.00391123
0.00852686
-0.00247688
-0.00333635
0.0063792
-0.00056597
-0.00986224
-0.000138228
-0.0166588
0.00598259
0.00876735
0.0237006
-0.000198968
0.00323783
-0.0267395
-0.0103855
0.0161299
0.00327356
-0.00901791
-0.00295717
0.00161958
0.0102006
-0.008863
0.00123206
0.00349772
-0.00270573
-0.00202405
-0.0178304
-0.00369338
0.0153873
0.00613651
0.000391734
0.00755835
-0.00151685
0.000231364
0.00379221
-0.0118981
0.00787451
-0.00733504
-2.57243e-05
0.00270369
0.00465708
-0.0101353
0.0125251
-0.0019981
0.00571876
-0.00515652
-0.000562242
-0.00841005
0.00120817
-0.00653367
0.0137356
-0.00381271
0.00573782
-0.00442258
0.00249748
-0.00820843
0.00924364
-0.00381957
0.00278437
0.00367193
-0.000605978
-0.00868145
0.0056155
-0.00367081
0.0230131
-0.0309731
-0.00331766
-0.00231543
0.00226725
0.00336584
0.010887
-0.016999
-0.000768561
0.00688056
-0.0045819
0.00341882
0.00589298
-0.0047299
-0.00136506
0.00724296
-0.00199482
-0.00388307
-0.00814559
0.00180723
0.00190414
0.00443422
-0.00457528
0.000393086
0.00418219
0.0104767
-0.00498883
-0.00531574
-0.000172093
0.000773786
0.00526969
-0.0079988
0.00195533
-0.00560888
-0.00679827
0.00693282
0.00547433
-0.00292126
0.00753146
-0.00645337
0.00184317
0.00270986
-0.00512893
0.00353467
-0.0011156
0.00985977
0.0002666
-0.0101264
0.00848977
-0.0104559
0.00517524
-0.00320915
-0.0133229
-0.000384433
0.0137074
0.00546791
-0.0045352
0.00105817
-0.00199088
-0.000432194
0.00945195
-0.0103179
0.00129814
-0.00472112
0.0059106
0.00152038
-0.00527902
0.0113097
0.0104497
-0.00895542
0.00887653
7.88822e-05
0.000243767
-0.0141559
0.0139121
0.0191297
0.00230404
-0.00406538
-0.0173683
0.00399972
-0.0155985
-0.001932
0.0135308
0.00302728
0.00357443
0.00202153
-0.00862324
-0.00536347
-0.00536975
7.24338e-05
0.0106608
-0.00256004
0.0035166
-0.00632003
-0.0117875
0.00213014
0.0154733
-0.00581586
-0.0231527
0.0169551
0.00746434
-0.00126672
0.0102367
8.43185e-05
-0.010321
-0.00584104
-0.00786143
0.00508287
0.0086196
-0.00584004
-0.00847773
0.00253023
-0.00839342
0.00455504
0.00527631
0.00341621
-0.00444343
-0.00815772
0.00918494
-0.00573702
3.28809e-06
0.00573373
-0.0134202
0.00545534
0.00554186
0.00242304
0.00337879
-0.00904011
-0.00273209
0.0115226
-0.00365701
-0.000289081
-0.00757648
-0.00774129
0.0128268
0.00761147
-0.0126969
-0.00228759
-0.00479426
0.00178168
0.00530018
-0.00325543
-0.00261839
0.00587382
-0.00569237
-0.0119679
-0.00549243
0.0026855
3.51002e-05
0.00541923
-0.00813984
0.0109627
-0.00798395
-0.0115445
0.00856575
-0.00406842
0.00145062
0.00821832
-0.00560052
0.00768855
-0.00541245
-0.000762062
-0.00151404
-0.00881599
0.00143162
0.00688616
0.000498205
-0.00545948
0.0125383
-0.0135961
0.00530098
0.000392898
0.00790225
0.01279
-0.0102238
-0.00804802
0.00548185
-0.0101758
0.00212014
0.0190184
-0.00985636
-0.00650036
0.0106087
0.00574798
-0.00115133
0.0102666
-0.00389539
-0.00521989
0.000586999
-0.00608371
-0.00401068
0.00950739
0.0116884
-0.00771102
-0.000474387
-0.00350303
0.00362248
0.00270682
-0.00888934
-0.00245782
0.00278206
0.00686028
-0.00718452
-0.002046
0.0106808
-0.0131635
0.0045287
-0.00643455
0.00155251
0.00155698
0.00332506
-0.0140543
0.0142945
-0.000240239
0.00970035
-0.0095632
-0.000137144
0.0039032
-0.0150656
-0.00578544
0.0169478
0.00344513
0.0065477
0.00152974
-0.000164364
0.00571219
-0.00554782
0.00921202
0.00825505
-0.0174671
-0.0101693
0.00620821
0.0043881
-0.000426969
-0.00571064
0.00188204
0.00464274
-0.000814142
-0.0171299
0.00799523
0.00939615
-0.000261488
-0.00553408
-0.00617211
0.00596917
0.00881682
-0.00139097
-0.00567619
-0.00174967
-0.00942723
0.0101814
-0.00621363
0.00167122
-0.0106098
-0.000543283
0.00948182
-1.29697e-05
-0.00522835
0.00524132
0.0256093
0.000194389
0.00273201
-0.0285357
-0.000964341
-0.00189297
-0.0139396
0.0167969
0.00443271
-0.00600193
-0.00279437
0.00436359
0.00172919
0.0132539
-0.00536231
-0.00962075
0.014442
-0.0144492
-3.14126e-05
3.86075e-05
-0.00810625
-0.00731498
0.0114331
0.00398814
0.00473038
0.00361704
-0.00942514
0.00107772
6.64797e-05
0.00877447
-0.00896604
0.000125098
-0.0120697
0.0038676
0.0097811
-0.00157905
0.00924615
0.00558951
-0.00936058
-0.00547508
0.000219294
-0.00825907
0.0041918
-0.00215077
0.012401
-0.0066589
-0.000866037
-0.00103686
0.0085618
-0.0111517
0.000580753
0.0105709
0.0163241
0.00705111
-0.00528756
-0.0180877
-0.0106608
0.000229518
0.0106506
-0.000972545
-0.002531
-0.00646291
0.00996645
-0.00125955
-0.0012832
-0.00344369
0.00598644
0.00268667
-0.0136318
0.0102782
0.000666907
0.00847617
-0.00132201
-0.00824788
0.00109373
-0.0104574
0.00218266
0.000839436
0.00743533
-0.00398576
0.00261553
-0.00541392
0.00678415
0.00229133
0.00145295
-0.0134934
0.00974917
0.000471413
-0.0091551
-0.000636667
0.00932035
0.00907392
0.00118996
-0.000156497
-0.0101074
-0.0108308
0.00252372
0.00980035
-0.00777366
-0.0103193
0.0180929
0.0150008
-0.00762725
0.00323307
-0.0106066
0.00118003
0.00840874
-0.00515606
-0.0121438
0.00223064
0.0043073
0.00560583
0.0149878
-0.0154477
0.000459891
-0.00910141
-0.00309027
0.00637123
0.00582046
-0.0117928
-0.0091577
0.00614115
0.0148093
0.0122133
-0.0127553
-0.0015612
0.00210314
-0.00177519
0.00593213
-0.00467622
0.000519278
-0.0153422
0.00499779
0.00352635
0.00681802
-0.0225691
0.0280916
0.00466925
-0.0101918
0.010089
-0.0218666
-0.00112911
0.0129067
-0.00897347
0.0114168
-0.0211568
0.0187135
-0.00939347
0.0206862
0.00205632
-0.013349
0.000827693
0.00983481
-0.00229637
-0.00836614
0.0149565
-0.0112186
-0.000377092
-0.00336079
-0.00261852
-0.00251403
0.00384336
0.00128919
-0.00705626
-0.0146918
0.0125447
0.00920334
-0.010032
0.0133623
0.0116262
0.00818855
-0.00601934
-0.00750244
0.00533324
0.00300478
-0.00388827
-0.00171686
0.00260034
0.00664848
-0.00657693
-0.00875859
0.00868704
-0.00269592
0.00773494
-0.000559782
-0.00447923
-0.0107426
-0.00171596
0.0132862
-0.00808241
-0.00198729
0.00999204
7.76646e-05
0.00333016
-0.00743976
0.0041096
0.00264495
-0.00351234
0.0130854
-0.012218
0.0102479
-0.0144157
0.0020908
0.00207697
0.00653403
-0.00704974
0.000515711
-0.010306
0.000274018
0.00919257
-0.00350469
-0.00887248
0.0031846
0.00289579
0.00234602
0.010287
-0.0155288
0.00638468
-0.0069318
0.000547114
-7.90009e-05
0.00798813
-0.00903005
0.00112093
-0.0113192
-0.00109028
0.0150544
-0.00487066
-0.000832284
0.00112522
0.00457773
0.000673052
-0.0055604
0.00410188
0.000785472
0.00911487
-0.00872389
-0.00216617
0.00105164
0.0151167
-0.00952276
-0.00664559
-0.0051923
0.0109673
-0.00577495
-0.014066
0.00538723
-0.00329873
0.0119775
0.0110817
-0.0100409
-0.0163829
-0.00541288
-0.00647608
0.0222555
-0.0103665
-0.0158316
0.010084
0.0143777
-0.0086302
-0.000349666
-0.0135049
0.0138546
0.021425
4.27222e-05
-0.0123469
-0.0091208
0.0124219
-0.00800049
-0.00110305
-0.00331838
-0.0090606
0.00642973
-0.00162069
0.00425155
0.000122622
-0.00932423
0.00920161
-0.00678789
0.00698667
-0.00019878
-0.00494182
-0.00522681
-0.0133849
0.0235535
-0.0126056
0.00274896
-0.00140867
0.0112653
0.00293528
0.00476358
0.0129691
-0.0117014
-0.00967708
0.00840936
-0.00359157
-0.00740635
0.0081666
0.00283132
-0.0074607
-0.00379446
0.0112663
-1.11884e-05
0.00244875
-0.00140973
-0.00692535
0.00588633
0.00823461
0.000366808
-0.0105282
0.00192678
0.00254061
-0.0017667
0.00273841
-0.00330372
0.00329137
-0.00272606
0.00673804
0.00659607
-0.00673698
-0.00659712
0.00331351
0.00774146
-0.00801089
-0.00304409
0.00700359
0.00303583
-0.00550707
0.00870174
-0.0105505
0.00221561
-0.0115735
0.00809153
0.00435711
-0.000875118
0.0137177
-0.00454559
-0.0143644
-0.0036422
0.00980334
0.00492057
0.0095673
-0.00466002
-0.0080642
-0.00219966
-0.00130966
-0.0128618
0.0120358
0.00113085
-0.000304856
-0.000801114
0.0160798
-0.00166576
-0.0136129
-0.010418
0.00211943
0.00465638
-0.00167714
-0.0105925
0.00297661
0.00929308
0.00960874
0.00133333
-2.68654e-05
-0.0109152
-0.0143509
-0.000117776
9.6122e-05
0.0143726
-0.00370535
0.00404982
-0.00659727
0.0062528
-0.00987775
0.0124953
-0.00129342
-0.00132416
0.0129826
-0.0121234
-0.0107369
-0.00959943
0.00865779
-0.00274665
0.00368829
0.00773013
-0.000348321
-0.00243162
-0.00495019
-0.0145252
0.0140053
0.00686677
-0.00634688
0.00691936
0.00263534
-0.000878666
-0.00867604
0.00247642
0.00627861
-0.00785026
-0.000904772
-0.00464719
0.0046747
-2.75053e-05
-0.00272027
-0.00694488
0.00696923
0.0105575
-0.0104675
-9.00567e-05
-0.00591785
-0.00471976
0.00463568
-0.00062235
-0.00710379
-0.000781907
0.00850805
-0.000809771
-0.00623549
0.00557385
0.00147141
0.0097361
-0.0110662
0.00133006
-0.0124695
0.0128016
0.011714
-0.012046
-0.00840203
0.0064904
-0.00442068
0.00633232
-0.00337451
0.00144199
0.00305583
-0.0011233
-0.000354962
0.0151684
-0.000133446
-0.01468
-0.00770376
0.00373475
0.00379371
0.00440711
0.00560886
-0.00978525
-0.000230714
0.000423514
-0.012158
-0.000475881
-0.0109634
0.0109638
-4.22238e-07
-0.00738462
0.00371835
-0.00812652
0.00248857
-0.00550649
0.000223549
0.00483302
0.00209857
0.0072318
0.000140883
-0.00618443
-0.00118825
0.00605409
-0.0151104
0.0121139
-0.0030576
0.00251313
-0.00342615
0.0127441
-0.011831
0.0156187
0.00459775
-0.00240447
-0.017812
-0.00396585
-0.00649506
-0.00210731
0.0125682
0.00472646
0.0196989
-0.0177855
-0.00663988
0.0022698
0.0142783
-0.0137823
-0.00276585
-0.00489484
0.000646763
0.0100321
-0.00578402
-0.00172618
0.0140144
-0.00756176
0.0101404
-0.00800758
-0.0031231
0.000990295
0.00331909
0.00868094
-0.012
0.00809682
0.00179726
-0.00107848
-0.0088156
-0.00744504
0.00595004
0.000598504
0.0008965
-0.000725325
-0.0105755
0.000618496
0.0106823
-0.00775891
-0.000984541
-0.000324164
0.00906762
0.00445486
-0.00987616
9.8221e-05
0.00388244
0.0058955
8.40767e-05
0.00640998
-0.00649405
0.000797012
0.0112995
-0.0288693
0.0167727
0.00320158
-0.00806893
0.00766641
-0.00279906
0.00459544
0.00524562
-0.00363304
-0.00620802
4.55492e-05
-0.00576008
0.00571453
-0.00312843
-0.00222174
0.0126742
-0.00732408
-0.00387986
0.0129596
-0.0111845
0.00210468
0.0140921
-0.00979176
-0.00945618
0.00515589
-0.00578998
0.00393445
0.00179999
5.55422e-05
-0.000802697
0.00447898
-0.00239682
-0.00127946
0.0151938
-0.0118747
0.00704199
-0.000814655
-0.0115266
0.00529925
-0.00321481
0.00300653
0.00360196
-0.00339368
0.000180429
0.0145328
-8.79298e-05
-0.0146253
-0.0106125
-0.00349527
0.0143855
-0.000277734
-0.00300936
-0.00129338
0.00330762
0.00428267
-0.00629691
0.00858597
0.00604047
-0.0128383
-0.00178815
-0.00264339
-0.00172688
-0.0115074
0.0158777
0.0151373
-0.0119721
-0.0210919
0.0179268