/*--------------------------------*- C++ -*----------------------------------*\
  =========                 |
  \\      /  F ield         | OpenFOAM: The Open Source CFD Toolbox
   \\    /   O peration     | Website:  https://openfoam.org
    \\  /    A nd           | Version:  10
     \\/     M anipulation  |
\*---------------------------------------------------------------------------*/
FoamFile
{
    format      ascii;
    class       volScalarField;
    location    "5.3";
    object      SgT;
}
// * * * * * * * * * * * * * * * * * * * * * * * * * * * * * * * * * * * * * //

dimensions      [1 -1 -3 -1 0 0 0];

internalField   nonuniform List<scalar> 
111485
(
1.37248e-17
9.95024e-06
2.75239e-05
4.83725e-18
5.80239e-05
2.61919e-18
5.35722e-05
7.21211e-06
2.24418e-05
1.40714e-06
5.38779e-05
1.11525e-05
5.47686e-06
9.70692e-07
7.63736e-06
3.71473e-05
1.62823e-06
0.00304381
1.24292e-05
2.04407e-16
3.2928e-17
1.61175e-18
3.04536e-05
4.20471e-05
1.037e-05
1.23026e-18
4.80468e-05
2.13823e-06
1.90891e-05
9.68075e-19
5.40011e-05
2.22236e-05
6.92712e-17
1.41296e-18
9.0332e-06
7.1012e-17
1.29284e-05
4.87848e-06
5.5903e-11
2.72751e-05
6.99893e-18
8.50898e-05
1.88246e-05
1.60441e-06
6.16565e-08
1.93375e-16
3.70725e-05
8.62414e-07
5.68052e-05
6.24988e-18
1.17241e-17
3.77437e-17
1.62741e-18
5.85358e-05
8.8418e-18
5.17796e-05
3.93666e-06
3.2926e-18
2.73051e-08
5.69689e-06
1.92083e-05
6.97712e-18
5.33295e-06
0.000113416
8.2505e-18
4.04648e-06
0.000375447
0.000113998
1.22751e-06
6.85483e-06
1.25986e-08
7.31401e-06
1.3538e-18
3.23601e-06
3.01005e-17
8.22855e-07
7.69738e-18
5.00951e-05
3.42248e-18
1.21221e-16
8.5059e-09
3.99979e-05
5.60437e-18
9.1946e-17
1.05433e-05
4.93265e-06
5.16132e-13
2.93691e-05
6.60282e-08
8.53497e-06
4.49521e-07
4.90945e-05
1.3417e-05
7.21562e-08
6.42537e-05
1.46438e-18
2.07326e-18
1.99588e-06
2.4754e-11
1.49779e-06
2.22737e-17
2.23918e-05
1.09162e-18
2.29445e-05
5.65071e-06
6.80702e-18
2.28559e-18
9.09309e-06
4.53809e-06
9.36347e-11
7.00773e-06
5.7845e-06
4.21432e-06
3.61158e-06
1.73031e-17
3.88728e-08
1.3157e-18
6.43787e-17
1.46808e-05
4.57444e-18
2.95585e-18
3.07641e-17
9.90678e-19
8.33893e-18
2.0994e-06
3.25869e-09
8.2946e-18
1.91649e-06
1.55845e-18
6.22656e-08
1.52759e-06
3.74026e-05
1.28475e-17
1.2998e-16
3.85651e-17
5.87034e-05
3.48548e-18
5.04045e-05
2.94463e-05
3.1863e-06
2.61399e-07
2.38804e-06
2.6542e-05
3.42404e-06
4.6139e-06
1.52479e-05
1.2808e-18
4.60075e-17
4.40625e-17
3.29069e-05
2.01346e-06
1.00019e-17
2.2536e-10
5.94822e-06
5.55268e-10
1.26247e-05
1.97868e-05
1.23906e-05
9.31856e-11
3.46416e-17
4.6758e-18
6.28693e-05
2.86611e-05
2.69688e-09
3.92629e-10
6.63322e-06
4.3162e-06
5.52103e-18
6.54514e-09
5.92632e-08
4.1655e-18
4.1392e-17
1.65302e-07
3.40193e-19
7.01185e-06
2.60417e-06
1.87584e-18
1.91816e-17
9.78054e-18
3.1121e-17
6.67918e-18
2.3731e-18
1.70252e-06
8.16553e-06
3.48631e-05
5.06605e-06
8.63935e-06
4.56727e-06
1.00382e-07
1.92453e-18
5.43655e-06
1.11037e-18
2.47455e-18
7.46888e-06
1.28117e-05
3.16005e-05
1.30339e-05
5.72269e-06
5.44487e-17
7.69708e-06
6.44257e-07
5.34255e-08
1.57229e-05
2.77475e-06
3.90969e-17
4.28282e-06
3.15722e-05
1.2966e-17
2.20526e-07
9.00698e-06
2.56809e-06
4.0779e-07
2.58961e-18
5.00901e-17
9.35915e-06
1.00011e-14
0.000145064
9.64755e-19
7.65056e-06
2.37272e-05
0.000144868
7.23054e-17
3.5658e-06
1.6354e-05
3.18273e-16
1.6726e-18
9.2e-18
0.000187145
3.87731e-10
1.02478e-17
7.34097e-19
1.12269e-05
9.44386e-06
1.81325e-05
4.2518e-18
4.78291e-18
1.4157e-08
4.26474e-17
3.06543e-06
1.06525e-05
1.85803e-05
1.35052e-05
1.15667e-05
1.98802e-17
3.33315e-10
7.24157e-07
1.37058e-17
8.37501e-19
3.67977e-05
2.50847e-05
3.11454e-18
7.19489e-06
1.2377e-05
1.76654e-18
9.91618e-17
1.66749e-07
4.93034e-18
1.70909e-18
5.04141e-08
7.01717e-18
1.82197e-05
1.33511e-05
4.49258e-06
1.19201e-16
1.37674e-05
2.38368e-18
1.18418e-17
1.79452e-17
2.82783e-11
2.7217e-05
7.12802e-06
6.1064e-06
4.42562e-05
1.41474e-05
1.9586e-06
6.92977e-07
3.99043e-05
1.09051e-05
1.42071e-18
1.1715e-16
3.31026e-10
2.67609e-05
2.8742e-05
1.47797e-05
1.12818e-19
8.23673e-06
2.52886e-06
3.50812e-06
4.07845e-09
4.4166e-09
1.58133e-05
2.61538e-06
2.27794e-06
1.96093e-17
8.56656e-07
3.50155e-18
1.20331e-10
2.36078e-16
0.000301362
8.20723e-05
1.49222e-05
5.24964e-19
6.46194e-18
1.05897e-05
2.0547e-06
4.32447e-17
8.27996e-19
3.52008e-18
3.88519e-07
7.16561e-05
4.51632e-06
1.72884e-05
2.29081e-05
9.04101e-18
6.8896e-18
2.68322e-17
4.49748e-06
1.93865e-15
1.19039e-06
0.000224673
4.55382e-10
3.51269e-18
5.57606e-18
7.29518e-18
1.15054e-16
7.07728e-05
1.45241e-05
4.53741e-18
6.11162e-06
5.5209e-17
3.28679e-18
8.12631e-05
6.81832e-06
1.33125e-05
1.08905e-05
6.50671e-17
6.64869e-17
4.82539e-18
1.09997e-05
2.25001e-05
5.90836e-06
1.17049e-18
3.01116e-13
2.12956e-07
2.48786e-06
9.43219e-06
5.03828e-08
3.40292e-05
3.36257e-18
4.48651e-05
4.0857e-06
9.29598e-06
2.92207e-05
1.66946e-05
9.56093e-18
7.34482e-17
3.89407e-17
5.02348e-18
3.8074e-05
1.12619e-05
4.15762e-05
8.06566e-05
1.61444e-17
2.30863e-05
6.32625e-19
1.6043e-17
1.9328e-05
4.85591e-18
7.54726e-05
9.0727e-17
3.28602e-18
2.79334e-05
3.50933e-18
1.66946e-05
3.66802e-07
1.09518e-18
1.26393e-06
1.91496e-05
8.44359e-18
1.02414e-05
1.17543e-05
9.46472e-06
6.95102e-07
3.36624e-06
7.08663e-06
6.54921e-17
2.69516e-18
2.00372e-06
2.22122e-17
6.93775e-06
0.00013879
1.47783e-17
1.72531e-17
3.20611e-05
1.40514e-07
9.57628e-06
2.58965e-05
5.21047e-18
5.211e-05
2.30808e-05
4.11463e-19
9.42857e-07
3.09021e-06
1.05294e-17
1.08216e-17
1.36303e-05
6.20906e-06
7.81871e-18
5.30919e-19
3.03852e-11
1.2006e-17
1.39426e-05
5.64874e-19
1.19046e-17
2.05737e-05
2.25247e-09
1.53514e-05
3.4301e-05
3.28857e-19
5.35683e-17
1.59027e-06
1.31077e-17
1.63499e-07
1.56353e-05
0.000146457
0.00104349
1.51985e-17
3.24848e-06
4.98123e-07
3.84003e-17
4.53476e-05
3.84965e-05
1.03731e-16
1.00904e-11
1.16058e-07
4.21127e-17
2.98474e-05
2.99928e-05
1.72352e-05
1.31018e-18
7.89939e-07
2.21778e-05
2.75905e-05
9.86588e-10
4.24669e-17
6.77038e-13
2.57288e-17
1.73134e-08
3.77258e-05
3.48837e-18
1.061e-05
1.04507e-07
6.84614e-17
3.99913e-18
1.24821e-17
3.90101e-18
4.73099e-06
1.15488e-05
8.00639e-06
2.67885e-06
3.51147e-06
7.95643e-18
2.49233e-06
2.52109e-17
4.6646e-05
5.37812e-19
3.19494e-18
3.09383e-18
4.20293e-05
2.70535e-18
2.96097e-18
2.75686e-10
1.3232e-17
9.10957e-19
1.19564e-06
2.13188e-17
2.6773e-17
3.76832e-18
7.0132e-19
8.86151e-18
7.87605e-18
3.28649e-18
8.93209e-06
2.50788e-18
5.7032e-07
2.19713e-06
1.35854e-06
2.76254e-18
9.22856e-07
5.58014e-18
4.22211e-18
3.43035e-06
2.25405e-06
3.34893e-05
2.89185e-05
5.31584e-18
2.42936e-06
9.45229e-05
1.022e-05
1.26437e-06
4.02813e-06
1.40529e-16
2.80465e-05
7.29633e-17
5.66071e-06
4.61274e-19
8.86798e-05
3.697e-17
2.59591e-05
2.83693e-07
3.02138e-10
1.02143e-17
2.47294e-06
3.77159e-18
9.56358e-05
5.71805e-05
5.72924e-18
3.62962e-18
2.88572e-17
5.35369e-18
1.66871e-12
6.55632e-05
2.06386e-18
7.83979e-18
3.1662e-06
8.24723e-19
3.91695e-05
4.10983e-18
3.91827e-07
5.42524e-18
6.21777e-07
1.17561e-09
1.27875e-06
1.57019e-05
3.66839e-17
4.59392e-07
4.87687e-18
2.2829e-18
1.86208e-05
5.68945e-19
3.88941e-08
1.62798e-17
1.86355e-06
1.23098e-17
7.80227e-05
7.948e-19
7.41311e-17
1.96555e-05
4.20561e-06
2.01263e-06
4.83342e-06
7.82117e-06
2.51063e-05
2.33952e-18
2.82638e-05
7.75214e-06
2.05046e-18
9.5525e-11
4.52247e-05
1.70581e-05
4.00989e-17
5.28751e-06
7.52753e-06
1.8927e-06
1.39471e-06
2.73153e-13
1.64573e-05
1.34085e-06
1.76567e-07
2.9747e-05
1.6638e-05
8.63472e-07
1.46003e-17
3.78256e-12
0.000768886
1.90632e-17
4.57087e-07
1.94911e-18
7.85181e-17
8.81934e-06
3.6519e-06
2.34405e-10
1.56022e-08
1.53781e-16
2.05269e-05
1.3191e-05
1.33822e-18
9.69888e-14
2.49031e-06
5.91959e-18
9.31546e-18
6.77991e-19
1.13647e-17
1.67361e-05
1.07057e-17
1.00188e-16
1.09572e-05
2.48771e-06
4.46184e-17
1.23417e-05
1.07304e-17
1.02435e-05
1.99719e-18
7.04133e-18
6.52334e-05
6.98753e-19
2.67735e-18
1.13034e-16
5.49439e-06
5.8805e-17
3.63537e-05
7.52733e-06
2.01207e-18
9.88995e-05
3.0734e-06
3.32927e-05
3.24892e-05
7.64178e-07
9.95524e-08
3.96063e-18
6.59646e-05
5.36835e-05
1.53163e-16
3.74285e-07
4.78619e-05
8.81694e-06
1.79117e-06
3.25566e-05
3.0814e-05
1.07633e-16
1.26516e-05
5.87348e-09
1.85537e-17
4.04505e-05
3.21273e-07
3.7504e-17
1.31342e-05
4.7532e-05
1.69556e-06
2.46032e-05
2.25704e-05
8.48334e-06
7.11548e-17
1.18832e-05
4.08882e-07
2.94823e-14
1.95541e-05
2.01946e-05
4.28437e-05
4.42666e-18
2.34415e-06
3.2298e-17
2.77169e-18
1.10609e-18
5.31905e-18
1.80295e-08
7.25442e-17
2.49443e-13
1.09018e-17
1.61953e-19
8.27376e-08
5.06698e-05
2.12323e-17
4.00946e-05
5.3749e-17
4.10434e-17
5.05409e-18
4.72329e-05
5.22882e-07
4.17382e-17
1.93332e-16
2.4588e-18
1.92334e-18
0.000262381
8.28682e-05
1.79573e-17
2.27845e-06
3.10682e-09
3.82902e-17
4.39481e-05
9.28828e-06
1.50591e-05
8.34749e-19
2.74999e-18
4.85539e-07
1.28634e-06
6.41769e-17
1.39131e-17
1.55684e-17
8.58851e-06
1.93141e-18
1.87858e-17
1.68377e-18
4.89187e-05
2.27849e-06
2.64057e-19
0.00479974
0.000318904
1.25487e-05
5.92197e-19
1.27168e-17
6.71061e-05
4.46288e-07
6.01284e-17
9.02023e-09
0.000155841
3.13004e-06
1.38541e-05
3.52081e-17
6.56308e-05
2.12468e-06
6.54526e-18
2.95189e-18
1.85892e-19
1.14898e-18
3.42301e-18
3.34178e-18
2.54318e-05
9.20811e-18
2.12294e-18
6.21673e-18
1.40163e-05
2.81057e-05
1.45092e-17
3.54675e-18
0.000127006
1.67507e-05
1.12617e-05
4.83896e-17
9.54759e-19
4.3432e-05
4.56034e-18
2.25375e-06
3.05601e-06
4.51037e-06
1.35189e-17
7.76454e-18
2.36962e-17
6.02201e-19
1.83167e-05
2.13122e-18
6.01889e-19
1.13167e-06
7.66357e-18
2.67454e-05
2.06343e-06
2.37932e-17
4.42314e-05
0.000533424
2.95338e-06
3.51664e-05
1.89961e-07
5.44295e-05
1.64979e-13
9.19206e-17
2.74926e-05
8.54265e-05
7.31659e-06
6.22388e-18
1.03394e-12
0.000834396
1.20513e-05
6.67894e-18
3.22713e-06
3.29566e-06
1.50887e-06
2.43427e-17
8.08628e-18
1.1256e-16
1.55735e-05
3.28683e-17
3.00937e-06
1.97191e-17
1.55838e-06
1.61694e-06
4.28214e-05
6.80014e-07
1.61241e-18
2.71801e-18
2.47627e-18
2.43939e-05
1.16618e-18
2.126e-18
6.86024e-08
1.65486e-18
5.25641e-18
4.84908e-19
1.33555e-19
1.13103e-05
1.68524e-17
9.25827e-19
5.83548e-13
1.40036e-17
6.94722e-18
4.44762e-17
5.71253e-18
3.6536e-09
1.9026e-06
4.96587e-18
4.5302e-06
9.36134e-09
3.74975e-10
7.68723e-08
5.02778e-06
9.73331e-18
1.13875e-08
1.16158e-05
4.79889e-07
3.82643e-17
1.76825e-12
9.52247e-07
1.24795e-17
1.12434e-05
2.40904e-07
2.10468e-09
2.89156e-05
1.08877e-05
2.68271e-06
6.25879e-06
2.3989e-06
4.9326e-18
1.00723e-17
3.78803e-05
3.05555e-05
1.64224e-17
9.65746e-06
6.48887e-05
3.37981e-05
4.0802e-17
1.63751e-06
5.86371e-19
1.23246e-05
1.65043e-05
9.16592e-18
1.80734e-06
5.56602e-07
1.52051e-09
5.65721e-06
3.84445e-18
5.78739e-05
1.89558e-08
1.9351e-06
4.07588e-08
1.54016e-08
9.83635e-19
4.24572e-18
8.89348e-06
3.52881e-18
1.331e-07
3.28938e-07
2.35207e-07
5.99531e-11
9.49228e-11
1.03104e-09
9.1712e-19
5.59365e-17
2.73638e-05
1.244e-16
3.1718e-07
2.54264e-06
6.17477e-18
1.28181e-18
6.58312e-10
9.90187e-13
5.81145e-19
5.2355e-09
8.83693e-18
2.05079e-18
1.16564e-17
2.03307e-17
1.57102e-17
4.73556e-17
3.57469e-07
3.13308e-18
9.62364e-18
8.81005e-17
7.77779e-09
6.7044e-08
2.19412e-06
1.1069e-05
1.38911e-19
1.34472e-18
2.21028e-07
4.16608e-18
2.16328e-18
2.18449e-17
2.26275e-05
5.03699e-05
4.16399e-18
1.14051e-17
2.93472e-18
9.69849e-18
5.49587e-19
6.75425e-19
8.84827e-06
1.92691e-18
5.06487e-11
3.20952e-05
2.44759e-18
5.54378e-18
2.60024e-18
2.76494e-08
7.96857e-19
4.00935e-18
6.71164e-19
9.7017e-09
5.77947e-18
5.53771e-06
1.21753e-09
6.07343e-12
7.30846e-19
7.70481e-08
2.64018e-06
5.29658e-05
7.77348e-18
8.10609e-09
7.0715e-06
4.75358e-18
1.5122e-18
2.97817e-18
8.25523e-18
9.84324e-06
2.0925e-06
4.15541e-06
2.08789e-10
1.64961e-19
2.68578e-05
1.20618e-17
1.9603e-17
1.79955e-18
1.94781e-18
3.10769e-05
5.38597e-18
3.86697e-18
2.29723e-09
6.04568e-05
3.64544e-18
3.05437e-06
4.95302e-17
1.10614e-06
1.77378e-16
4.83813e-18
3.78527e-18
2.30043e-17
3.0381e-06
7.60631e-07
0.00038631
7.97164e-19
1.45677e-17
2.54429e-06
6.28145e-19
3.22446e-17
1.86637e-17
4.58537e-05
9.47157e-09
3.69631e-05
6.9839e-18
1.0837e-08
5.03454e-08
6.76782e-17
1.24206e-07
8.06911e-18
1.6268e-06
3.1096e-05
2.39983e-05
1.56782e-06
3.07355e-07
1.21028e-18
5.18168e-20
8.35553e-18
2.28313e-08
4.04962e-18
8.0629e-06
8.61372e-17
0.000211829
2.51648e-18
4.96864e-05
3.8517e-06
5.7085e-17
2.74881e-18
6.52988e-18
7.66781e-18
4.5405e-05
1.36751e-17
4.49683e-18
1.46517e-05
7.68538e-06
4.8933e-17
2.65164e-17
6.15273e-17
3.21146e-17
6.53119e-18
8.18231e-19
2.88334e-05
5.32821e-07
1.90978e-17
5.2066e-18
5.35518e-10
2.3005e-17
1.83957e-06
1.33849e-07
6.20078e-18
3.83717e-06
2.43695e-18
4.24039e-07
5.6329e-18
1.21197e-06
1.00261e-17
1.05806e-10
2.47015e-09
8.29937e-07
2.02175e-05
3.82008e-05
1.35032e-09
2.14069e-18
5.65265e-07
1.18931e-17
5.33436e-06
7.58236e-19
1.17474e-17
2.99529e-17
5.57927e-18
1.92035e-17
2.3573e-17
8.02239e-06
8.90812e-06
1.83249e-17
3.19702e-17
2.95592e-17
8.11165e-07
1.70007e-08
1.57214e-18
2.19112e-05
2.29162e-07
2.22158e-17
2.76252e-05
9.75216e-06
4.12928e-06
1.4483e-05
6.34147e-19
9.25543e-18
1.48028e-17
9.33847e-18
4.38472e-05
9.13574e-18
0.000132467
1.93722e-18
3.30914e-07
8.7413e-07
4.13455e-19
1.0154e-06
2.23728e-18
2.53973e-18
3.32034e-06
2.885e-11
9.70125e-06
1.58289e-18
1.30063e-18
1.16584e-18
9.25176e-07
1.72917e-17
1.88221e-18
7.6215e-18
4.09046e-10
4.59852e-17
9.78498e-09
1.63811e-17
1.53574e-17
4.09659e-18
2.17365e-05
1.17457e-05
2.16699e-05
4.24603e-05
2.73196e-17
1.60044e-08
7.17831e-18
2.25669e-17
1.21789e-05
2.81657e-18
2.82421e-09
3.81627e-07
7.81163e-06
3.82698e-07
1.15285e-12
2.4645e-06
5.91004e-18
1.25942e-12
7.56586e-13
1.3573e-07
1.06515e-06
1.73384e-05
8.22381e-11
1.00665e-16
3.67119e-05
4.42328e-18
2.55354e-18
2.05009e-08
8.90662e-05
8.07589e-11
3.33958e-18
5.46095e-19
4.20812e-10
1.68873e-18
6.33754e-18
1.79072e-08
2.01055e-18
3.82467e-17
4.81317e-05
2.29585e-07
1.78477e-07
2.72058e-05
8.68806e-06
2.38278e-18
1.34395e-18
1.43318e-08
4.94569e-06
3.25021e-18
1.45096e-18
1.213e-05
9.27346e-19
4.16923e-20
5.29289e-17
7.27439e-17
4.87214e-16
0.00308679
1.04854e-18
2.4363e-07
1.40542e-17
2.30745e-05
7.00031e-19
2.30571e-15
5.07151e-17
2.10473e-17
2.54002e-18
1.63083e-17
3.65657e-06
4.91571e-19
2.35097e-18
4.50319e-17
6.90199e-18
1.41534e-17
7.84444e-18
1.1739e-05
4.63717e-18
1.31402e-05
3.35459e-06
2.71215e-18
1.89379e-06
5.65662e-18
5.50191e-07
2.22022e-09
4.72882e-06
1.64003e-05
1.94324e-18
1.09182e-07
9.85127e-06
8.98737e-09
7.26372e-18
2.30929e-09
2.19552e-05
5.58625e-06
4.13723e-17
3.13032e-05
3.67686e-18
9.7245e-18
9.74397e-18
4.70119e-19
9.73361e-06
8.7765e-18
1.03621e-18
9.8019e-06
2.17067e-10
3.18034e-06
2.16297e-18
7.42013e-17
7.75167e-07
6.29928e-18
1.01549e-07
7.14904e-18
2.7223e-05
1.92248e-18
1.29797e-18
6.4944e-08
9.26664e-19
1.50353e-07
3.24715e-17
8.35459e-19
5.96179e-06
4.94904e-07
5.80517e-06
1.9213e-05
0.000263391
2.40853e-05
8.62757e-19
1.23209e-16
3.28131e-06
8.06931e-06
4.31877e-05
1.37965e-05
2.26435e-18
1.43101e-05
1.47404e-18
1.2317e-17
1.02809e-05
1.25929e-05
9.75485e-18
1.54673e-05
1.15449e-17
3.30126e-06
1.03567e-05
4.71806e-18
1.62143e-18
9.81818e-19
3.16253e-06
1.41555e-17
5.71889e-18
4.72848e-06
2.48649e-05
4.56831e-09
9.03211e-06
1.88775e-18
2.26561e-18
9.0152e-08
8.81531e-07
7.09356e-18
1.18752e-05
7.16213e-17
3.01684e-06
2.53482e-19
2.15972e-19
1.41755e-05
3.59281e-18
4.84537e-08
4.03271e-06
1.14709e-17
2.07552e-18
4.91282e-06
4.87891e-14
6.35601e-05
5.43349e-17
0.00031711
9.51212e-18
2.99025e-17
6.22858e-18
8.47049e-06
4.96448e-17
4.35901e-18
6.42325e-06
2.41363e-17
2.72068e-07
4.55792e-17
8.32155e-18
1.01653e-18
1.46043e-10
9.13493e-07
1.86295e-19
3.03656e-18
4.2513e-05
1.10897e-06
2.59854e-18
5.44332e-07
1.07857e-19
2.07773e-18
1.76283e-09
3.37519e-06
1.46917e-06
6.94274e-18
3.23129e-18
1.25046e-17
1.71887e-18
1.00321e-17
2.95931e-18
2.70063e-19
8.17432e-19
2.04938e-18
1.64902e-18
1.91249e-19
3.52448e-18
1.03294e-17
7.95467e-19
1.30481e-20
1.95867e-18
3.05658e-19
1.04666e-17
4.80017e-18
3.05735e-18
7.09785e-18
2.13612e-05
1.3155e-17
3.64086e-19
2.13966e-18
7.63233e-06
2.01801e-17
6.55575e-18
0.000307858
2.08351e-17
1.02424e-18
2.71364e-05
9.46324e-16
3.95024e-19
7.827e-06
2.86555e-05
9.8449e-19
2.53145e-06
3.99872e-06
1.63336e-17
1.50628e-05
4.65084e-05
2.06335e-05
3.78391e-06
1.2427e-05
2.41703e-17
1.25096e-18
3.44887e-06
1.26324e-05
3.58219e-06
2.31486e-18
7.35536e-06
1.96945e-06
2.42756e-05
1.25002e-05
7.81673e-07
1.76878e-05
1.28203e-06
1.1393e-05
1.08999e-16
3.05804e-05
9.75328e-06
2.04625e-06
1.50567e-06
1.45427e-18
1.38126e-18
1.2624e-18
6.80946e-18
1.80563e-19
1.10598e-05
1.57871e-05
2.2135e-18
2.01658e-19
3.2444e-17
6.79716e-19
3.09158e-18
4.17161e-18
6.54232e-18
1.30739e-17
5.32375e-06
1.74573e-07
2.50731e-05
7.46213e-08
2.45304e-18
5.58811e-17
3.77544e-05
6.63402e-09
1.28472e-18
8.39639e-18
8.42359e-06
5.35787e-17
2.88666e-18
4.6887e-09
9.08493e-06
1.57946e-05
3.81478e-05
3.78184e-05
1.33779e-17
1.67814e-05
3.69215e-07
1.34322e-18
5.7886e-19
1.33476e-05
1.26796e-17
2.66015e-18
2.31013e-05
0.00123053
1.94787e-07
4.24662e-17
2.24697e-17
1.94132e-05
2.50314e-05
2.03678e-05
6.62726e-06
3.97156e-06
2.30832e-18
1.16182e-09
3.01828e-12
6.49971e-17
4.98607e-18
2.00783e-05
7.91042e-19
2.35361e-06
3.01035e-05
1.98273e-05
1.37687e-05
2.38485e-17
6.71608e-06
7.74153e-18
1.36126e-17
3.39054e-17
4.23379e-20
2.94188e-06
0.000988905
4.29115e-18
1.70297e-18
4.69284e-09
2.745e-05
1.03074e-06
7.92823e-06
3.8489e-05
5.49198e-06
2.31061e-05
1.03603e-17
6.90566e-18
1.10885e-17
3.59758e-05
6.50111e-06
3.08644e-11
9.34348e-19
7.8636e-18
2.95361e-19
2.52679e-05
3.17801e-06
1.8352e-18
5.51642e-06
6.42699e-05
8.22876e-06
6.97205e-06
9.09184e-18
3.96244e-19
7.90028e-06
2.65451e-05
1.45287e-18
3.60575e-07
1.6366e-05
1.11842e-06
1.08364e-05
5.30033e-06
9.23654e-06
7.53961e-18
3.99096e-06
2.36432e-05
4.30344e-05
6.17927e-13
2.67145e-05
5.33828e-17
1.92054e-05
1.68461e-07
2.23575e-17
2.94746e-06
8.25371e-06
4.13527e-07
1.30289e-05
1.01583e-09
1.74388e-07
1.94209e-08
4.10417e-05
4.0472e-06
5.97327e-18
4.5113e-05
1.38372e-06
2.94099e-18
1.03978e-18
4.44553e-11
9.9861e-09
1.1724e-06
0.00126792
3.99594e-05
1.23162e-05
2.55901e-10
4.92627e-05
1.86395e-17
4.15427e-17
4.68427e-06
4.22125e-18
2.4454e-06
5.47611e-06
2.35905e-06
5.37765e-06
1.69721e-17
2.47816e-07
0.000124656
6.98058e-18
3.11533e-05
8.35422e-06
3.02691e-17
4.37007e-06
2.09001e-07
1.13605e-17
6.50809e-12
1.0482e-07
1.29633e-17
8.25883e-19
1.84557e-17
5.01749e-06
5.04754e-06
1.62496e-05
2.84398e-17
5.89277e-06
3.72118e-05
7.84825e-18
8.88699e-06
1.37777e-05
2.83599e-05
1.69549e-06
8.97811e-19
6.75446e-07
1.07971e-05
1.16235e-05
9.91951e-06
4.35945e-05
0.000184136
3.80288e-06
2.57034e-17
7.33267e-09
5.90565e-05
6.39767e-18
4.57622e-07
1.32607e-17
9.9308e-19
1.87345e-17
7.15996e-18
7.08382e-18
3.63368e-06
1.41023e-17
7.769e-06
1.45513e-06
4.54978e-17
4.65039e-06
2.66185e-17
1.64164e-05
5.84502e-18
2.02915e-08
1.47972e-17
2.49274e-05
1.63246e-07
2.29244e-09
4.50571e-06
3.30546e-05
1.94272e-05
4.42616e-06
3.00014e-05
5.75581e-15
2.47011e-05
6.15893e-05
1.02595e-05
4.44376e-17
1.3355e-06
3.28714e-07
6.18354e-06
1.25281e-05
7.28535e-07
2.4331e-17
4.78984e-17
9.15817e-19
4.31201e-06
1.3247e-17
1.52842e-07
2.55417e-07
1.26334e-06
3.10131e-07
5.65351e-18
1.15389e-16
2.23297e-18
9.50428e-06
2.41336e-05
1.48415e-06
9.44382e-09
2.1636e-06
7.65903e-06
2.23308e-06
9.52155e-07
8.0001e-06
6.60322e-06
2.89307e-06
2.54149e-17
4.32458e-18
1.18631e-16
1.55226e-05
1.2316e-05
3.14802e-17
1.64717e-18
3.49214e-17
9.17028e-06
2.18376e-05
2.09918e-18
2.38325e-06
2.18749e-18
6.49893e-10
5.65705e-06
9.72343e-05
1.57062e-17
8.07904e-19
4.26834e-06
2.3904e-18
7.62815e-08
1.34624e-05
5.98993e-18
1.20267e-05
3.74178e-05
2.05011e-05
2.2054e-18
1.30633e-06
9.98392e-18
9.00227e-08
5.53516e-05
1.20453e-17
6.80661e-18
1.25639e-05
2.30798e-16
9.37371e-18
4.54171e-08
1.17412e-06
1.64126e-17
8.06239e-19
1.49959e-17
6.67969e-08
1.46827e-06
3.67631e-06
2.7423e-05
1.04222e-05
1.50464e-17
7.17681e-10
6.90303e-07
4.64984e-18
6.94038e-18
3.65365e-18
1.84334e-17
8.95079e-18
1.07075e-17
1.3609e-17
6.1662e-18
5.55435e-18
2.55708e-17
2.57783e-12
6.51927e-18
4.13573e-07
6.33642e-18
2.01686e-07
7.88605e-18
6.5509e-08
2.00381e-17
1.54301e-18
3.01564e-05
1.03395e-05
1.13308e-17
0.000101768
5.60471e-12
1.97516e-13
2.82641e-18
1.41309e-06
7.66884e-15
2.92831e-06
6.47752e-09
1.04598e-06
2.91462e-17
1.16064e-17
9.29621e-07
3.72926e-11
7.4705e-19
3.18606e-17
4.4052e-05
9.89049e-17
4.18582e-05
1.68055e-17
4.8307e-18
1.58755e-09
3.16186e-05
9.42078e-06
2.72494e-18
3.68042e-07
5.27639e-17
2.6229e-06
1.87238e-08
2.09739e-06
9.56491e-07
1.11671e-17
2.29399e-05
1.2274e-06
5.72548e-06
2.40033e-19
1.33846e-18
1.03475e-18
1.46741e-05
4.51766e-06
5.71882e-05
1.21135e-17
4.39729e-10
9.43993e-19
8.59868e-19
9.65149e-18
1.07705e-18
3.40623e-06
2.22959e-06
3.18724e-06
0.000353169
2.06917e-16
3.18296e-05
4.01042e-05
1.99328e-05
1.74471e-06
5.86142e-18
6.2094e-06
4.69622e-06
5.50194e-06
5.107e-10
1.14945e-05
4.54319e-18
1.84637e-06
1.29129e-06
3.67756e-05
1.16988e-09
3.50538e-06
3.42975e-18
2.0463e-05
1.46561e-17
1.50456e-19
1.84023e-06
2.79512e-18
7.39453e-06
1.53992e-18
2.15985e-18
1.13769e-16
1.82769e-18
7.24259e-18
8.34073e-07
3.05906e-18
6.64748e-07
1.57399e-17
3.25387e-18
2.09848e-05
6.23269e-06
8.70732e-06
8.84313e-06
1.02726e-17
0.000651652
4.72167e-18
7.90686e-05
1.46009e-18
2.06883e-05
2.5157e-05
2.51726e-06
6.40612e-05
8.68553e-18
7.72507e-18
3.71356e-18
2.4557e-06
3.89851e-17
5.27841e-18
2.00331e-05
2.62173e-18
4.2741e-18
5.67782e-06
4.70554e-18
1.45161e-05
8.442e-11
9.79667e-18
1.58331e-18
1.54232e-17
1.78575e-06
7.40469e-06
7.03172e-18
2.56969e-05
3.55996e-07
1.4347e-17
0.000115105
5.36624e-17
1.80222e-05
2.04083e-05
3.77558e-06
1.03255e-17
2.00891e-05
1.07025e-05
8.9571e-07
5.65691e-06
1.38466e-05
4.43784e-18
7.49828e-18
1.92716e-09
7.46065e-18
1.63313e-19
9.56161e-18
2.21977e-05
4.95522e-05
4.95497e-06
2.28518e-06
1.03535e-17
5.45043e-05
5.16035e-05
4.78173e-06
2.91513e-06
1.01701e-05
2.3694e-05
2.83886e-06
5.09897e-18
5.41129e-18
2.85723e-18
7.33673e-06
4.50475e-18
2.86248e-05
3.82263e-17
8.43323e-07
5.20938e-10
2.9365e-06
2.50571e-05
2.38837e-18
1.16044e-17
2.7011e-06
3.97957e-07
3.18921e-17
8.99857e-19
3.93047e-17
3.60715e-08
3.25435e-07
1.51427e-07
8.65748e-07
1.10069e-05
9.95123e-05
4.766e-18
1.75452e-17
1.00863e-16
4.2703e-06
2.11995e-05
2.2696e-05
3.8734e-05
2.15264e-06
3.07925e-06
2.49882e-18
2.10398e-17
1.7514e-16
2.62742e-18
1.08601e-05
2.49153e-05
4.6117e-18
1.62336e-18
2.80051e-17
4.15869e-17
9.63915e-17
1.03379e-17
1.48491e-05
8.03358e-17
1.19373e-06
0.000435407
9.56068e-19
1.71466e-08
2.55456e-05
7.74032e-07
8.96976e-19
2.12527e-18
5.29113e-06
7.11975e-18
1.56424e-05
1.25804e-09
2.71668e-05
9.44194e-18
1.76652e-15
8.05094e-19
4.29966e-18
7.40871e-18
4.30039e-17
0.000220501
4.58366e-18
6.28167e-06
1.34798e-06
5.53818e-17
6.49181e-17
2.14482e-06
1.14761e-17
1.5205e-18
1.57108e-05
1.09025e-07
3.98057e-18
2.90788e-17
1.19779e-18
1.86316e-05
1.16556e-17
3.87165e-18
4.22027e-07
2.79592e-06
3.30301e-06
1.80407e-17
1.75321e-18
4.47406e-18
4.06484e-06
1.97098e-06
1.40208e-05
3.99227e-06
4.84017e-19
8.72322e-07
1.41997e-05
7.20775e-06
4.35355e-18
8.67509e-18
2.86587e-17
4.13097e-17
1.89337e-17
3.48359e-05
6.60716e-06
5.96543e-06
8.0009e-17
4.32351e-17
1.01557e-17
4.48747e-18
2.06099e-18
9.97776e-10
2.87657e-07
2.61184e-06
2.11734e-18
2.70595e-17
1.56271e-17
3.15295e-12
3.79008e-05
0.0001268
2.76123e-18
2.13073e-12
6.06482e-15
5.95561e-18
2.80372e-17
4.26161e-06
7.72911e-06
7.95008e-18
2.46383e-17
3.19895e-06
1.00536e-17
7.93388e-07
1.28391e-06
0.00243788
3.15651e-18
1.33913e-17
1.38621e-05
5.50101e-07
2.02739e-20
0.000767485
6.41561e-07
7.63766e-06
3.52104e-17
1.00251e-17
3.61309e-17
2.36636e-17
8.82301e-06
1.131e-07
1.43613e-18
2.78999e-05
2.10797e-05
0.00100776
1.70649e-17
4.81592e-19
3.37148e-19
2.13482e-18
7.13798e-06
6.78521e-11
1.08466e-17
9.80678e-18
2.10129e-05
1.05934e-06
5.82565e-06
3.27882e-18
1.54596e-17
3.24773e-05
3.92239e-19
1.68262e-17
2.73959e-19
6.1521e-18
2.56444e-05
2.48155e-17
2.32495e-18
4.5081e-18
2.87915e-05
1.43879e-05
3.55392e-18
1.61059e-17
6.31179e-19
1.74546e-05
1.71784e-10
2.85374e-18
5.68595e-19
1.38783e-18
7.99897e-18
2.69986e-06
1.19149e-05
1.70741e-17
2.38424e-06
1.17481e-06
5.16779e-06
4.62528e-16
1.09401e-16
4.04772e-18
9.44146e-18
1.43239e-19
2.36149e-05
5.11663e-17
1.7342e-05
5.35221e-18
1.63737e-06
2.36376e-18
2.50324e-06
1.12684e-17
2.6326e-17
1.21561e-05
0.000210867
5.40487e-17
3.76282e-06
1.15154e-17
4.06411e-07
1.66296e-17
2.732e-17
1.63281e-17
4.73026e-10
6.36672e-18
3.87569e-07
1.20122e-17
4.04709e-05
5.28819e-18
2.6033e-17
2.60999e-17
3.79836e-17
8.74752e-09
1.47501e-07
2.19816e-18
5.77218e-06
2.13381e-18
3.46652e-06
2.19708e-05
1.32977e-06
1.04831e-17
4.81231e-09
4.59506e-07
2.15923e-09
5.29526e-06
4.00437e-10
1.73909e-06
8.26671e-17
7.21591e-19
4.54119e-10
6.15445e-06
2.51472e-07
4.52449e-18
4.12866e-18
1.48296e-17
0.000618438
2.17888e-17
3.37347e-18
2.47034e-17
3.7685e-17
3.16051e-17
5.74524e-08
1.86882e-07
1.08024e-06
6.99615e-08
4.50276e-16
1.52443e-06
4.31889e-18
6.7376e-06
8.1318e-17
1.62798e-18
3.40524e-18
2.93965e-17
2.25472e-08
3.82547e-18
4.8567e-17
7.10458e-18
1.68452e-05
1.07532e-16
2.74367e-18
1.22822e-05
1.7744e-17
6.91713e-05
0.000123154
0.000588995
8.47228e-17
0.000234725
0.0013975
0.00156837
0.00077148
7.61378e-18
4.12129e-19
5.57497e-06
5.48852e-06
4.56648e-18
7.66334e-06
3.30579e-18
3.67289e-05
1.07759e-17
5.72277e-19
7.20085e-07
1.46312e-17
1.30422e-17
1.07721e-08
4.09906e-08
3.29336e-18
6.3218e-19
2.52454e-09
2.60788e-17
1.28625e-17
2.37193e-08
9.18234e-06
1.57888e-06
6.8172e-18
8.28549e-06
1.33731e-17
3.95746e-06
4.62058e-10
7.79098e-06
5.56906e-17
1.1456e-11
6.06365e-06
9.15063e-18
1.62545e-12
1.06339e-18
3.69684e-05
1.87362e-18
1.13191e-05
1.18536e-18
1.7705e-10
9.90241e-18
5.53341e-18
1.24933e-17
5.37368e-13
2.60821e-13
7.27116e-18
1.38123e-05
9.40801e-06
6.84884e-17
1.70719e-17
3.7504e-05
2.04489e-05
0.000208566
1.64051e-17
7.12443e-08
2.83738e-05
5.25996e-05
6.07393e-11
6.8444e-17
6.4704e-05
7.48932e-18
0.000256171
1.52345e-17
4.31027e-11
4.40675e-11
3.78101e-18
5.76955e-08
1.75048e-17
2.34061e-05
2.36404e-18
1.17808e-17
4.75169e-18
1.24198e-17
4.12337e-18
8.42234e-18
3.39747e-07
2.0129e-06
0.000154665
1.67066e-17
2.47758e-17
4.6594e-05
1.24561e-17
1.58657e-18
8.03551e-18
9.41074e-17
2.87481e-17
6.25888e-06
9.08129e-19
1.91229e-17
2.51266e-20
3.4822e-06
4.95304e-17
1.99225e-18
9.53009e-18
3.41939e-06
2.35581e-18
6.43597e-06
0.000253454
5.45846e-06
5.80076e-06
2.84471e-05
1.03169e-17
1.15585e-17
2.93538e-18
3.29218e-06
2.01262e-06
3.26908e-19
2.80367e-16
6.13521e-07
1.26437e-17
7.68118e-17
0.000372754
3.95362e-19
2.48343e-05
8.2791e-18
2.55535e-06
3.88992e-06
6.64502e-18
2.25627e-20
8.9749e-19
1.06611e-17
1.13603e-18
2.15766e-05
1.3248e-17
4.85799e-06
2.20432e-18
3.26528e-18
7.219e-06
5.8078e-18
1.47957e-05
6.04559e-18
2.50536e-18
2.6239e-06
8.56839e-08
0.000154704
5.60479e-19
2.54042e-19
3.97426e-18
4.02998e-06
0.000198463
1.70206e-18
1.44857e-18
2.77251e-17
1.55985e-06
3.53502e-18
2.27256e-05
3.30154e-05
5.85325e-17
1.25668e-18
7.48667e-06
1.60666e-17
2.56077e-17
1.21363e-18
1.09515e-17
1.96056e-17
7.42647e-05
3.68868e-17
2.48454e-17
3.62547e-17
9.87422e-19
6.05586e-18
1.14617e-18
5.46097e-19
7.47985e-19
3.65163e-17
8.55338e-06
4.23441e-18
8.71258e-06
4.60773e-17
2.73616e-17
0.000649018
2.82587e-06
6.70117e-18
1.05436e-17
1.42018e-18
2.48509e-06
2.67373e-17
1.47049e-18
5.27961e-17
9.68748e-18
7.52365e-06
4.08759e-19
4.5848e-06
6.22484e-17
1.11314e-05
7.13715e-17
6.40889e-05
2.13325e-18
4.08709e-18
2.23745e-05
4.25013e-17
6.67534e-19
3.03863e-05
3.21505e-07
1.74909e-17
3.71472e-17
4.21321e-05
1.18887e-05
6.7388e-06
8.41681e-07
1.84976e-06
1.89177e-05
1.01047e-06
5.75696e-06
6.55425e-18
3.01261e-05
2.02208e-17
9.07054e-18
1.41799e-19
8.08405e-18
2.50069e-17
1.06704e-05
8.12121e-17
1.58766e-17
7.35349e-18
2.08349e-09
1.17118e-08
9.70492e-17
2.76568e-06
2.97665e-17
4.55158e-06
5.31111e-18
1.14492e-09
4.11163e-06
3.54357e-16
4.88537e-05
1.04822e-18
9.53436e-18
1.27678e-18
3.08532e-06
1.51618e-06
1.37484e-17
1.94585e-18
2.59892e-06
9.99384e-18
0.000730575
9.671e-18
0.000107905
7.30267e-18
7.72163e-19
5.98319e-18
3.07213e-18
1.05916e-05
7.63549e-18
4.72127e-08
7.42953e-18
1.08564e-05
1.08677e-18
8.05761e-19
7.34575e-15
2.07031e-16
8.02397e-18
4.72772e-17
1.0954e-17
5.35333e-17
4.85451e-06
0.000222533
2.94288e-18
2.09378e-17
4.33276e-07
4.39965e-19
5.14146e-18
1.6833e-09
1.91276e-05
1.74768e-07
2.3665e-17
6.86709e-07
3.89095e-06
5.49984e-06
9.44089e-06
7.07295e-18
5.7409e-17
2.70927e-16
5.69669e-18
2.55702e-18
3.85804e-18
5.85235e-18
8.18446e-18
1.47449e-17
2.03933e-17
8.27915e-18
6.68959e-20
8.3326e-05
2.2899e-18
3.1163e-18
9.72894e-13
9.08477e-18
4.20015e-18
0.00123413
1.36988e-18
2.22353e-18
2.01484e-06
1.78057e-12
4.33215e-18
7.31854e-17
1.6274e-18
2.50538e-05
3.65801e-17
2.66216e-17
5.13078e-11
4.26751e-19
5.05306e-18
1.32561e-18
2.12533e-17
0.000125686
6.11605e-19
2.09723e-07
1.56332e-17
7.56749e-19
2.5554e-18
2.81347e-18
9.17704e-19
2.72279e-11
4.86279e-11
1.34932e-07
2.58066e-18
1.96525e-17
1.44835e-16
1.11593e-10
1.6118e-18
3.16629e-10
1.68361e-11
1.30278e-18
1.73761e-18
4.23936e-18
8.5785e-12
6.00226e-19
2.10533e-17
2.22344e-12
9.64088e-17
3.56232e-05
4.30192e-18
7.41237e-06
2.53455e-17
2.5062e-09
4.452e-18
1.71543e-06
3.77896e-18
4.89389e-06
2.67498e-05
1.21216e-17
2.92777e-06
1.35428e-08
2.64706e-17
1.11633e-05
2.77545e-18
6.04697e-20
2.09828e-18
4.83111e-18
4.77214e-18
7.97591e-19
2.38088e-17
2.34111e-17
0.000308715
1.31468e-18
1.43108e-18
1.07366e-18
4.56188e-18
5.49256e-18
3.57631e-05
0.000932791
3.23456e-09
1.43826e-08
1.43302e-18
2.17143e-06
1.48514e-06
6.20617e-18
1.42981e-17
7.39983e-17
2.18211e-18
7.10232e-19
1.0042e-17
7.37746e-18
1.89922e-17
4.74006e-07
1.76953e-17
7.56189e-17
2.04406e-07
3.12723e-09
4.01281e-18
3.03616e-05
1.51518e-18
7.63118e-18
2.00946e-17
0.000195582
3.56439e-17
3.2228e-19
2.80289e-05
3.74219e-18
3.85888e-17
8.35633e-18
1.38578e-16
6.08118e-05
8.84251e-19
9.04893e-19
1.59781e-18