/*--------------------------------*- C++ -*----------------------------------*\
  =========                 |
  \\      /  F ield         | OpenFOAM: The Open Source CFD Toolbox
   \\    /   O peration     | Website:  https://openfoam.org
    \\  /    A nd           | Version:  10
     \\/     M anipulation  |
\*---------------------------------------------------------------------------*/
FoamFile
{
    format      ascii;
    class       volScalarField;
    location    "5.3";
    object      T;
}
// * * * * * * * * * * * * * * * * * * * * * * * * * * * * * * * * * * * * * //

dimensions      [0 0 0 1 0 0 0];

internalField   nonuniform List<scalar> 
111485
(
303.15
285.15
301.051
303.15
298.525
283.15
299.036
293.46
296.464
286.303
300.601
296.284
300.3
284.604
300.07
286.807
299.335
298.691
294.205
303.15
303.15
283.15
297.371
288.759
301.565
303.15
293.289
300.652
288.975
303.15
300.77
294.361
303.15
283.15
283.464
283.15
302.304
297.744
283.149
296.696
283.15
289.72
297.11
302.895
303.189
303.15
287.468
288.617
289.762
303.15
303.15
283.15
303.15
299.049
303.15
293.649
287.959
283.15
283.327
295.56
295.962
303.15
302.1
300.347
283.15
284.603
300.584
291.622
302.149
302.551
303.166
301.94
303.15
302.149
303.15
295.417
283.15
293.583
283.15
283.15
283.243
293.431
283.15
303.15
300.398
284.251
283.15
301.61
303.126
299.207
283.379
289.697
300.937
300.403
289.925
303.15
303.15
301.611
303.149
283.427
303.15
286.734
283.15
285.236
285.784
283.15
283.15
293.109
301.499
283.146
298.988
288.162
301.351
301.742
303.15
302.019
303.15
283.15
300.214
303.15
303.15
283.15
283.15
283.15
283.409
303.152
283.15
301.86
303.15
283.179
303.084
302.005
303.15
283.15
283.15
292.637
283.15
294.354
298.883
301.155
303.138
296.914
299.058
284.817
302.302
297.941
283.15
303.15
283.15
297.249
284.985
303.15
303.144
287.441
283.156
293.851
295.753
302.539
283.154
303.15
303.15
292.323
286.306
283.153
283.157
301.253
283.703
283.15
283.153
283.153
283.15
303.15
283.209
283.15
291.589
287.261
283.15
303.15
303.15
283.15
303.15
303.15
297.751
293.644
295.927
289.911
301.438
300.507
283.191
303.15
301.506
303.15
303.15
300.248
286.331
301.478
301.351
295.887
303.15
300.923
284.635
283.161
300.848
297.106
303.15
300.5
288.332
303.15
283.232
300.232
284.856
300.765
303.15
303.15
300.779
283.15
292.95
283.15
300.686
298.82
290.465
303.15
301.787
300.577
283.15
283.15
283.15
289.596
283.158
283.15
303.15
298.757
291.534
290.019
283.15
303.15
303.11
303.15
284.362
300.172
299.361
299.609
299.48
283.15
283.143
298.964
283.15
283.15
288.827
288.471
283.15
301.236
298.992
303.15
283.15
301.045
303.15
303.15
303.122
303.15
288.335
285.901
290.941
303.15
298.448
303.15
303.15
303.15
283.148
298.174
301.043
299.513
291.273
299.571
296.337
283.214
290.483
291.742
283.15
303.15
283.149
292.51
298.804
286.525
303.15
298.088
297.35
298.989
302.967
283.165
297.213
299.453
302.021
283.15
283.63
283.15
283.149
303.15
283.938
290.331
286.374
303.15
283.15
297.691
285.322
303.15
303.15
303.15
284.638
290.387
301.127
284.447
293.122
283.15
283.15
303.15
298.451
303.15
283.844
289.671
283.152
283.15
303.15
303.15
283.15
294.456
290.028
283.15
295.839
283.15
303.15
301.132
297.41
294.047
295.945
283.15
283.15
283.15
296.728
291.166
302.383
283.15
283.15
283.15
290.153
297.05
283.219
290.585
283.15
292.891
299.647
284.223
298.782
285.298
283.15
303.15
283.15
303.15
290.732
296.673
288.06
292.083
283.15
286.408
283.15
303.15
293.92
303.15
301.901
303.15
283.15
292.095
283.15
288.92
284.666
283.15
284.008
298.137
283.15
300.229
284.723
298.941
303.033
291.208
286.052
283.15
303.15
303.145
283.15
301.05
300.914
283.15
283.15
294.746
284.395
298.316
296.859
283.15
295.261
296.203
283.15
302.089
283.915
303.15
303.15
288.381
298.692
283.15
303.15
303.15
303.15
300.769
283.15
303.15
294.014
283.171
287.005
300.053
283.15
283.15
302.64
283.15
302.492
301.498
297.986
289.34
283.15
294.056
303.384
303.15
298.759
292.382
303.15
283.15
283.311
283.15
290.158
286.178
291.805
283.15
293.023
296.648
293.215
303.147
283.15
303.15
303.15
283.169
292.884
283.15
284.353
303.135
283.15
303.15
303.15
303.15
301.836
290.667
286.058
284.222
284.345
283.15
285.761
303.15
300.809
283.15
303.15
303.15
300.726
303.15
303.15
283.151
303.15
283.15
300.751
283.15
283.15
283.15
303.15
283.15
303.15
283.15
283.682
283.15
303.129
301.869
283.767
283.15
303.089
283.15
303.15
284.741
284.703
286.177
297.679
283.15
297.616
297.724
292.454
286.916
285.303
303.15
291.911
283.15
299.956
283.15
296.919
283.15
292.237
298.664
303.151
283.15
286.896
303.15
295.642
299.19
283.15
283.15
283.15
283.15
303.15
293.809
283.15
283.15
283.242
283.15
299.91
283.15
284.841
303.15
283.441
303.123
284.69
292.058
283.15
301.516
283.15
283.15
285.749
283.15
283.259
283.15
299.766
303.15
290.809
303.15
283.15
302.412
284.497
300.173
285.701
300.172
289.532
283.15
300.705
284.582
283.15
283.14
300.449
301.644
283.15
282.396
301.126
303.067
283.117
303.15
287.626
302.208
284.433
285.44
288.322
282.503
283.15
303.15
300.798
303.15
283.563
283.15
283.15
291.916
282.661
303.15
303.12
283.15
286.341
299.661
283.15
283.15
299.672
303.15
283.15
283.15
283.15
286.217
283.15
303.15
284.864
284.263
303.15
299.759
283.15
289.295
303.15
283.15
286.217
283.15
283.15
283.15
285.453
283.15
285.499
292.11
303.15
300.448
283.456
298.812
300.982
283.349
283.467
283.15
289.079
298.545
303.15
302.276
296.089
296.98
284.752
297.543
297.281
303.15
300.297
303.137
283.15
297.258
284.878
283.15
292.52
295.85
284.895
298.869
300.695
292.478
283.15
298.997
283.476
303.15
300.654
302.005
294.237
283.15
286.594
303.15
283.15
283.15
283.15
283.307
283.15
303.15
303.15
283.15
300.467
299.359
303.15
285.676
303.15
303.15
303.15
290.096
283.428
283.15
303.15
283.15
283.15
286.934
292.53
283.15
295.274
283.135
283.15
295.449
302.256
287.89
283.15
283.15
300.327
292.234
283.15
283.15
283.15
294.097
303.15
303.15
283.15
296.366
302.403
283.15
282.496
301.893
286.624
283.15
283.15
287.51
302.981
283.15
283.161
287.509
283.776
288.904
283.15
285.757
300.37
283.15
303.15
283.15
283.15
283.15
283.15
295.803
303.15
283.15
283.15
295.416
291.957
303.15
303.15
289.959
298.535
298.431
303.15
283.15
298.106
303.15
283.858
298.934
298.46
303.15
303.15
303.15
283.15
286.11
283.15
283.15
302.717
303.15
297.928
302.306
283.15
294.199
283.258
296.562
292.046
283.431
289.9
283.15
283.15
297.008
288.181
290.891
283.15
283.15
298.183
295.117
283.15
283.928
284.634
283.482
303.15
303.15
303.15
290.799
283.15
300.145
283.15
284.399
297.66
298.629
292.409
283.15
283.15
303.15
295.515
283.15
283.15
303.104
283.15
283.15
303.15
283.15
299.423
283.15
283.15
283.15
283.15
283.15
303.15
283.15
283.172
298.815
303.15
302.548
283.13
283.406
283.094
285.592
283.15
284.48
290.618
283.407
303.15
283.149
299.834
283.15
300.338
283.157
283.143
286.263
297.618
283.216
291.905
298.006
283.15
283.15
299.167
299.886
283.15
297.475
291.349
297.571
283.15
283.247
283.15
297.886
297.007
283.15
300.169
297.654
283.149
299.877
283.15
295.733
283.144
303.119
283.162
283.16
283.15
283.15
284.465
283.15
302.977
283.605
283.077
303.148
303.149
303.147
283.15
283.15
293.936
303.15
303.144
283.889
283.15
283.15
303.155
303.15
283.15
303.164
283.15
283.15
303.15
303.15
303.15
303.15
283.371
283.15
283.15
283.15
303.159
283.31
283.906
293.59
283.15
283.15
283.342
283.15
283.15
283.15
287.303
293.736
283.15
283.15
283.15
283.15
283.15
283.15
284.03
283.15
303.15
291.674
283.15
303.15
303.15
303.153
303.15
303.15
283.15
303.169
283.15
283.715
283.144
303.152
283.15
303.065
284.443
292.219
303.15
303.129
284.492
303.15
283.15
303.15
283.15
294.179
293.592
284.691
303.148
283.15
293.382
283.15
283.15
303.15
283.15
294.964
283.15
303.15
283.163
298.221
303.15
284.424
283.15
283.597
283.15
283.15
283.15
303.15
285.933
283.482
284.419
283.15
283.15
285.718
283.15
283.15
303.15
284.376
303.164
298.669
303.15
303.129
303.13
283.15
303.133
283.15
283.455
289.257
301.028
283.829
283.168
283.15
283.15
283.15
303.181
283.15
302.922
303.15
293.054
303.15
288.778
283.845
303.15
283.15
303.15
283.15
301.857
303.15
303.15
286.504
300.656
283.15
283.15
283.15
283.15
283.15
283.15
300.908
283.591
303.15
303.15
303.157
303.15
300.295
284.452
283.15
302.156
303.15
301.68
283.15
302.596
283.15
283.148
303.152
283.32
302.163
300.33
283.147
283.15
289.432
303.15
293.521
303.15
283.15
303.15
283.15
283.15
283.15
300.898
302.099
303.15
303.15
303.15
302.916
283.149
303.15
293.031
283.082
303.15
297.558
298.326
296.605
283.383
283.15
283.15
283.15
283.15
294.742
283.15
295.009
283.15
303.065
289.906
283.15
302.876
283.15
283.15
302.765
283.148
302.924
283.15
303.15
283.15
302.423
283.15
303.15
283.15
283.147
283.15
283.172
283.15
283.15
303.15
293.031
301.122
296.232
297.143
303.15
303.119
283.15
283.15
285.775
283.15
283.158
302.863
298.811
302.958
303.15
283.37
283.15
303.15
283.15
303.001
283.336
298.328
283.15
303.15
288.169
303.15
283.15
283.123
295.203
283.147
283.15
283.15
283.149
303.15
283.15
303.143
303.15
303.15
290.049
302.999
303.007
289.12
293.403
283.15
283.15
303.096
289.192
283.15
303.15
284.778
283.15
303.15
283.15
283.15
283.15
297.765
283.15
302.949
283.15
300.6
283.15
283.15
283.15
283.15
283.15
283.15
285.08
283.15
283.15
283.15
283.15
283.15
283.15
292.132
283.15
298.394
302.954
283.15
302.339
283.15
302.546
303.145
292.34
288.841
303.15
292.206
284.832
303.113
303.15
303.139
295.101
288.742
283.15
287.963
283.15
283.15
283.15
283.15
287.602
283.15
283.15
291.689
303.137
285.357
283.15
283.15
302.533
283.15
283.187
303.15
299.921
283.15
283.15
302.832
283.15
303.178
303.15
283.15
289.146
298.014
292.761
285.738
292.707
294.227
283.15
283.15
302.323
290.651
292.903
284.452
283.15
294.416
283.15
303.15
300.809
298.788
283.15
297.455
283.15
292.828
297.338
303.15
283.15
283.15
301.827
283.15
283.15
300.587
296.184
283.197
291.279
283.15
283.15
302.815
300.605
283.15
300.721
283.15
300.58
283.15
283.15
300.88
283.15
283.229
301.654
283.15
283.15
302.464
283.15
287.98
303.15
290.554
303.15
303.15
303.15
301.019
283.15
283.15
299.635
283.15
302.995
283.15
283.15
303.15
283.151
288.269
283.15
283.15
288.13
288.31
283.15
283.698
283.15
303.15
302.449
283.749
301.631
283.15
283.15
283.15
283.15
283.15
283.15
283.15
283.15
283.15
283.15
283.15
303.15
283.15
283.15
283.15
283.15
283.15
283.15
283.15
283.15
303.15
287.016
283.15
283.15
283.15
294.842
283.15
303.15
302.985
283.15
283.15
294.853
283.15
283.15
301.941
295.327
283.15
303.594
303.579
283.15
301.562
294.098
297.671
301.531
298.25
303.15
283.15
296.407
291.886
301.477
283.15
302.187
302.435
300.942
288.099
287.36
301.125
301.805
301.833
303.15
285.938
297.654
285.594
297.362
283.15
283.15
283.15
303.15
283.15
292.111
298.016
283.15
283.15
283.15
283.15
283.15
303.15
283.15
303.15
292.19
303.128
299.121
302.85
283.15
283.15
285.453
283.167
283.15
283.15
301.717
303.15
283.15
298.253
299.601
297.627
298.766
300.884
303.15
291.09
302.607
303.15
303.15
300.404
303.15
283.15
282.933
295.682
302.957
283.15
303.15
289.741
286.237
297.158
292.31
302.474
303.15
303.138
303.15
303.15
283.15
298.978
283.15
291.916
290.558
299.79
284.802
303.15
301.973
303.15
283.15
303.15
303.15
291.582
299.844
283.15
303.15
303.135
291.896
303.043
299.445
292.962
288.38
293.049
283.15
303.15
283.15
291.403
298.421
303.151
303.15
303.15
303.15
297.594
302.57
283.15
300.062
301.208
284.921
299.615
303.15
303.15
298.797
293.096
283.15
302.914
299.824
302.621
292.092
297.429
298.368
303.15
287.035
298.203
291.489
283.15
289.194
303.15
288.457
301.131
303.15
288.779
301.344
300.191
293.303
283.149
283.16
283.242
301.784
300.993
303.15
288.865
301.537
303.15
283.15
303.15
303.208
298.868
291.143
296.854
303.247
283.149
297.696
303.15
303.15
292.936
303.15
300.347
283.312
301.38
291.573
303.15
283.675
293.361
303.15
283.035
298.795
303.15
300.777
286.316
303.15
303.15
284.017
303.15
283.15
283.15
285.948
299.429
291.339
303.15
285.279
297.614
283.15
298.962
298.996
289.035
303.11
283.15
301.524
299.635
298.962
300.18
288.706
290.92
302.496
303.15
301.614
288.778
303.15
298.973
283.15
283.15
303.15
283.15
303.15
297.52
283.15
300.615
283.654
303.15
283.821
283.15
289.914
303.15
303.145
303.15
294.266
303.002
303.121
299.969
290.466
289.513
290.636
298.564
303.15
299.513
292.297
299.052
303.15
283.896
283.467
299.375
287.25
283.524
303.15
283.15
303.15
285.388
303.15
303.307
284.726
303.306
302.963
303.15
303.15
283.15
300.631
300.661
285.568
303.091
287.044
295.802
301.898
292.634
288.287
302.102
296.226
283.15
283.15
303.15
285.872
289.777
283.15
283.15
303.15
302.012
288.816
303.15
296.507
303.15
283.156
285.247
301.112
303.15
303.15
292.416
303.15
283.309
290.669
283.15
297.256
294.723
296.116
303.15
302.733
283.15
302.689
293.573
303.15
303.15
288.847
283.15
303.15
301.853
284.491
303.15
303.15
283.15
302.374
303.429
289.599
299.811
298.084
303.15
303.158
302.627
303.15
283.15
303.15
303.15
303.15
303.15
303.15
303.15
303.15
283.15
303.15
303.15
283.351
303.15
303.314
303.15
303.16
303.15
303.15
301.023
303.677
303.15
292.164
303.15
303.15
283.15
302.586
303.15
302.168
303.117
283.294
283.15
303.15
302.938
283.149
303.15
303.15
291.491
283.15
292.714
283.15
283.15
283.153
291.342
284.877
303.15
296.74
283.15
303.67
303.134
284.347
302.621
283.15
292.29
303.085
301.723
283.15
303.15
283.15
303.991
284.861
296.936
303.15
303.15
303.15
303.15
303.15
303.15
302.387
302.826
297.705
292.225
303.15
287.249
292.764
285.023
303.205
283.15
286.976
302.773
284.811
283.148
287.532
303.15
283.393
302.931
292.657
302.861
301.949
303.15
302.247
303.15
303.15
298.044
303.15
284.52
303.15
303.15
283.15
303.15
303.15
302.861
303.15
283.302
283.15
283.15
285.898
284.937
300.93
286.185
303.15
295.019
303.15
290.553
303.15
287.255
300.767
301.547
293.466
303.15
303.15
303.15
289.861
283.15
303.15
289.614
283.15
283.15
301.879
303.15
286.235
283.148
283.15
303.15
303.15
300.698
298.309
303.15
293.604
303.044
283.15
298.626
303.15
286.454
288.301
302.171
303.15
296.39
296.789
302.962
301.934
301.695
303.15
303.15
303.147
303.15
283.15
303.15
289.619
300.102
294.422
302.171
283.15
300.447
291.522
298.328
283.619
298.445
289.753
302.203
283.15
283.15
283.15
302.247
283.15
290.573
283.15
301.33
303.161
289.774
298.094
283.15
303.15
301.318
301.296
303.15
283.15
303.15
286.465
301.509
302.987
302.376
298.078
288.493
303.15
303.15
303.15
294.409
286.053
289.95
296.021
283.984
302.967
303.15
303.15
283.15
283.15
285.459
299.67
303.15
303.15
283.15
303.15
303.15
303.15
300.355
303.15
285.422
292.851
283.15
283.251
293.497
285.733
303.15
303.15
301.941
303.15
299.335
283.146
297.655
303.15
303.15
283.15
303.15
303.15
303.15
305.336
303.15
301.893
301.147
303.15
303.15
301.678
303.15
283.15
287.317
303.116
303.15
303.15
303.15
298.068
303.15
303.15
302.544
302.52
301.835
303.15
283.15
303.15
302.09
302.54
301.586
302.562
283.15
300.748
287.628
297.514
283.15
303.15
303.15
303.15
303.15
294.497
287.619
299.691
303.15
303.15
303.15
303.15
283.15
303.148
284.841
285.19
283.15
303.15
303.15
283.147
299.685
295.123
283.15
303.15
303.15
303.15
303.15
289.674
289.797
303.15
303.15
302.414
303.15
301.467
283.976
292.023
303.15
283.15
301.188
303.127
303.15
303.234
301.388
286.945
303.15
303.15
303.15
303.15
293.366
284.19
303.15
302.718
298.214
289.863
303.15
303.15
303.15
303.15
299.628
303.151
303.15
303.15
298.399
302.599
288.479
303.15
303.15
297.905
303.15
303.15
303.15
303.15
288.896
303.15
283.15
283.15
296.087
291.223
303.15
303.15
303.15
297.095
303.147
303.15
303.15
303.15
303.15
303.435
300.953
303.15
287.422
302.668
299.495
303.15
303.15
303.15
303.15
283.15
285.744
303.15
302.835
283.15
302.221
303.15
303.137
303.15
283.15
301.946
285.967
283.15
302.846
303.15
302.451
283.15
303.15
303.15
303.151
303.15
283.275
303.15
290.926
283.15
283.15
303.15
303.15
298.955
302.41
283.15
302.469
283.15
284.141
288.101
302.722
283.15
303.155
302.996
303.136
284.444
283.156
302.993
283.15
283.15
283.156
302.125
302.331
303.15
283.15
283.15
295.805
303.15
283.15
303.15
303.15
303.15
303.105
303.052
302.944
302.477
303.15
302.923
303.15
284.864
303.15
303.15
283.15
303.15
303.112
303.15
283.15
303.15
288.379
303.15
303.15
303.18
283.15
303.069
302.345
297.228
303.15
289.998
295.354
284.012
290.572
283.15
283.15
287.266
284.364
283.15
303.737
283.15
286.461
303.15
283.15
303.157
303.15
303.15
303.019
303.155
303.15
283.15
303.139
303.15
283.15
283.104
298.853
302.723
303.15
301.891
303.15
285.743
303.152
301.246
303.15
303.15
301.11
303.15
303.15
303.15
287.758
303.15
285.189
303.15
303.147
303.15
283.15
283.15
303.15
303.15
303.15
288.795
302.58
303.15
303.15
288.721
286.583
291.477
303.15
302.722
287.735
287.609
303.15
303.15
287.92
283.15
292.092
303.15
303.153
303.149
303.15
300.61
283.15
302.327
283.15
303.15
303.15
303.15
303.15
303.15
284.373
302.277
291.238
303.15
303.15
290.764
303.15
303.15
303.15
303.15
303.15
300.257
303.15
303.15
283.15
299.577
303.15
283.15
303.15
301.436
283.15
300.065
290.838
302.702
300.125
299.556
303.15
303.15
303.15
300.926
288.613
283.15
303.15
300.411
303.15
303.15
292.174
303.15
287.567
303.15
297.968
284.365
303.15
283.15
303.15
303.15
303.15
285.33
303.15
300.572
303.15
303.15
299.806
283.15
284.792
303.15
303.15
288.231
301.558
296.606
303.15
303.15
303.15
301.576
292.402
303.15
283.15
303.15
300.756
303.15
284.816
296.49
303.15
303.15
301.208
303.15
303.15
283.15
303.15
283.15
294.788
303.15
283.15
303.15
303.15
303.15
303.15
303.15
303.15
283.15
301.524
283.15
302.119
303.15
303.15
296.207
300.563
303.15
283.15
303.15
300.959
283.15
303.15
303.15
303.15
300.779
303.15
297.836
303.15
285.918
283.15
286.793
303.15
303.15
298.595
283.15
303.15
287.973
283.249
303.15
303.15
285.139
283.88
300.926
301.783
301.252
293.239
301.787
283.869
303.15
297.899
283.15
283.15
303.15
303.15
303.15
301.278
303.15
303.15
303.15
303.132
283.17
283.15
283.573
303.15
302.051
283.15
303.143
296.244
283.15
294.701
303.15
303.15
283.15
299.982
283.949
303.15
283.15
300.009
303.15
297.798
303.15
295.434
303.15
283.15
303.15
283.15
299.489
283.15
283.232
283.15
286.256
303.15
303.15
283.15
283.15
303.15
303.15
303.15
303.15
284.915
284.856
283.15
303.15
283.235
283.15
283.15
303.155
290.012
283.553
283.15
301.561
284.927
300.506
288.302
303.15
303.15
303.15
303.15
283.15
283.15
283.15
303.15
283.15
283.15
303.15
283.15
297.353
283.15
303.15
283.15
303.15
303.15
283.438
283.15
303.15
301.991
303.149
303.15
303.15
303.15
288.787
283.15
303.15
303.149
283.15
303.15
303.15
303.15
295.321
283.15
283.187
303.15
303.15
303.15
303.15
303.15
303.149
303.147
284.136
303.15
283.15
303.15
303.15
303.15
303.148
303.149
283.15
283.15
283.15
303.15
303.15
283.15
303.15
283.15
287.767
283.15
301.86
283.15
303.154
303.15
284.64
283.15
284.481
297.518
303.15
284.724
303.172
303.15
297.525
283.15
303.15
303.15
303.15
303.15
283.15
303.15
303.15
299.26
283.15
303.15
303.15
303.15
303.15
292.386
290.841
303.169
283.167
303.15
301.864
302.351
303.15
283.15
283.15
303.15
303.15
303.15
283.15
283.15
283.837
303.15
303.15
303.194
303.151
283.15
288.989
303.15
283.15
303.15
288.182
303.15
283.15
302.153
283.15
283.15
283.15
303.15
299.753
303.15
303.15
303.15
283.15
284.534
293.729
295.374
289.69
303.125
303.026
283.15
283.15
301.102
283.708
283.15
303.149
303.15
303.15
283.15
294.689
303.15
283.15
302.989
303.15
303.15
283.815
303.15
303.15
288.525
289.704
303.15
283.15
303.15
283.15
303.15
303.15
303.15
303.15
283.965
303.15
303.15
303.15
302.942
303.15
303.15
283.15
283.15
283.15
283.15
302.954
283.15
283.15
301.03
303.15
284.802
284.964
303.15
301.191
303.15
283.15
303.15
283.15
283.15
303.15
303.15
303.15
302.686
303.15
303.15
303.15
283.15
303.15
283.15
286.432
303.15
303.15
291.719
303.15
283.15
283.15
302.449
303.15
303.148
283.15
303.197
286.746
283.15
283.15
299.3
283.15
283.15
303.054
303.16
293.397
303.166
303.151
303.152
283.15
283.15
302.664
283.468
285.916
300.916
283.159
283.15
291.109
301.622
301.525
283.15
300.293
290.741
300.183
302.244
302.786
284.735
295.633
299.314
286.294
293.46
300.181
303.15
297.976
297.719
302.802
283.679
292.525
301.207
287.378
303.15
301.126
303.15
300.757
301.551
283.65
285.039
303.15
283.15
302.296
301.735
283.145
303.172
288.604
302.699
301.92
300.897
303.15
303.225
301.198
295.22
300.458
289.156
302.932
301.655
302.205
302.309
284.25
302.528
301.649
283.183
303.15
302.907
303.15
303.15
302.134
302.044
294.441
303.15
284.724
292.394
292.403
301.11
303.15
284.05
285.241
284.415
303.15
298.903
303.15
296.422
295.482
300.817
303.143
303.15
303.15
302.001
301.321
302.8
303.15
292.692
302.763
290.12
283.15
298.397
294.084
303.15
300.538
283.15
283.205
283.15
302.603
303.105
303.15
302.987
298.505
283.148
300.566
302.258
295.383
283.55
295.974
297.187
283.476
303.134
284.794
296.351
283.324
297.026
300.572
300.34
300.442
302.033
290.089
301.63
303.15
302.74
302.674
302.668
296.524
302.895
283.15
302.06
293.492
303.15
283.442
286.874
301.258
302.617
290.596
284.86
287.78
302.643
296.485
303.15
303.15
295.106
283.15
292.762
283.44
303.15
290.616
290.362
283.933
303.15
297.363
298.53
284.266
301.321
294.239
290.227
300.578
303.111
303.15
303.15
283.563
302.64
283.356
285.872
303.15
303.024
303.043
303.15
285.459
300.825
297.988
283.254
299.642
302.401
300.575
287.012
283.15
303.108
301.854
283.764
283.142
303.15
303.079
303.15
303.15
284.215
302.559
296.417
283.043
283.152
303.15
283.15
302.961
303.05
302.532
301.469
303.15
283.15
283.15
301.869
301.924
283.223
295.914
303.15
303.15
301.674
285.569
283.263
301.735
301.831
301.778
284.434
303.15
283.15
298.511
297.839
303.15
302.723
302.12
284.872
285.031
302.151
303.057
303.15
298.243
284.463
283.15
303.15
300.607
301.293
302.057
289.73
302.113
285.735
300.245
300.297
290.405
297.677
303.15
303.15
301.007
284.514
302.13
283.151
300.589
301.757
283.641
288.353
302.448
283.15
283.15
283.028
303.15
303.15
300.028
298.993
302.316
283.147
283.15
283.968
283.151
283.15
283.152
303.081
301
299.278
296.043
283.377
303.103
300.232
303.15
283.15
302.587
289.314
300.859
292.752
283.519
303.064
283.148
283.15
302.848
301.28
302.635
283.157
291.419
284.928
303.15
284.293
301.087
283.15
283.313
285.001
284.332
283.15
283.15
301.693
283.15
289.518
302.555
302.722
301.808
283.493
298.759
290.37
283.15
303.312
292.187
283.15
283.15
283.15
303.15
301.23
302.445
299.24
301.519
299.957
288.984
283.155
291.051
290.211
303.064
291.254
300.084
292.142
283.15
286.348
301.141
301.592
283.15
284.014
299.723
283.15
303.15
283.19
301.33
303.15
284.041
302.279
303.027
303.15
283.15
292.891
303.153
301.747
283.15
283.15
283.15
302.228
297.726
303.142
302.222
303.165
303.15
288.509
303.165
290.507
300.312
300.273
296.725
283.158
301.754
283.15
290.675
301.478
289.61
290.557
299.09
300.788
301.657
287.233
291.191
285.088
283.174
302.251
286.183
283.149
283.145
300.29
283.077
300.388
287.113
296.114
299.547
289.354
299.391
283.121
299.162
283.15
290.094
289.606
298.741
283.338
283.15
300.642
283.15
302.812
283.15
303.15
286.532
286.543
283.15
299.112
298.606
287.133
303.15
303.15
301.781
289.845
303.021
283.749
301.635
287.209
303.147
284.233
288.303
303.15
301.488
283.15
283.15
287.631
287.135
283.145
285.315
301.556
286.321
301.206
303.15
285.214
301.798
291.287
303.15
303.15
301.677
302.088
303.15
293.117
294.339
283.702
296.55
286.901
290.14
303.15
302.868
297.144
285.088
283.15
287.793
291.964
299.741
283.166
283.773
282.923
301.995
303.126
283.151
303.135
303.15
300.618
293.189
298.946
294.013
283.15
291.993
296.14
285.654
283.213
292.321
283.15
300.291
303.164
292.7
284.126
303.145
291.928
298.729
288.367
300.379
291.376
287.44
283.15
303.142
285.387
290.055
293.608
283.15
283.15
283.15
303.141
283.15
283.136
286.504
303.15
283.15
303.165
283.173
291.161
289.354
303.428
302.925
289.997
303.15
297.127
303.173
302.049
287.374
283.15
293.081
303.146
303.098
286.283
283.15
283.15
283.483
286.118
303.061
303.145
287.584
289.564
283.5
283.162
289.933
293.285
303.15
283.15
303.103
303.15
302.367
285.053
302.355
303.097
284.093
283.798
284.075
302.861
302.215
297.447
294.067
303.076
291.4
291.091
303.15
303.101
302.615
285.499
283.39
303.15
286.004
283.395
302.943
301.688
302.214
283.15
300.418
301.9
303.15
302.192
285.45
303.15
298.019
303.15
283.15
300.76
302.701
286.404
302.519
283.15
285.238
303.017
283.15
302.335
285.409
294.981
284.37
303.15
303.023
302.881
286.561
283.15
287.199
284.293
289.882
285.811
302.288
303.15
283.15
283.15
293.176
283.15
301.079
302.202
290.415
283.15
294.088
283.15
303.15
283.15
300.084
298.698
283.151
285.331
301.744
303.09
303.156
292.051
294.381
301.269
283.224
301.818
283.145
303.15
303.145
299.418
283.15
301.468
294.94
303.15
300.978
287.379
301.965
284.935
288.3
283.15
302.259
287.816
298.515
303.08
283.15
303.15
291.733
302.201
283.075
283.147
286.876
298.461
303.149
284.583
301.093
301.064
301.311
303.152
299.984
287.733
284.969
301.642
299.983
283.751
283.099
303.159
303.149
303.15
297.484
283.162
283.15
303.15
303.149
290
298.944
300.305
287.861
302.814
303.15
286.467
301.587
303.15
300.987
283.815
301.516
303.15
284.591
301.404
295.54
302.776
303.15
303.15
285.225
295.213
296.513
287.5
303.15
303.15
283.15
287.284
302.428
296.303
303.15
285.623
303.15
303.15
300.466
288.789
283.15
295.688
296.015
299.088
283.15
303.15
292.737
287.287
303.15
298.076
300.59
300.497
303.15
303.15
303.15
300.309
298.446
302.813
299.981
283.15
292.922
287.754
290.766
300.65
303.15
303.15
300.836
303.101
286.642
296.228
303.15
303.148
283.15
286.496
299.041
285.629
303.15
303.15
283.351
303.125
303.15
303.15
283.15
290.573
303.15
303.15
284.625
299.325
283.15
303.15
284.649
301.386
300.248
287.058
294.972
303.15
283.506
303.15
303.15
283.302
300.605
290.464
300.47
303.15
303.132
302.204
292.877
299.863
301.404
284.476
283.467
300.86
298.503
303.15
302.768
284.166
299.829
301.43
287.789
303.15
297.469
301.457
301.542
301.582
292.924
303.15
283.15
299.243
283.15
283.15
287.801
283.15
284.029
283.15
283.15
283.15
283.15
302.769
288.167
302.718
283.15
295.806
290.984
284.772
283.15
303.15
302.694
301.766
303.174
302.654
283.15
294.959
300.344
290.217
283.15
283.15
299.872
285.961
283.15
283.15
303.149
290.659
283.15
287.219
303.15
303.152
284.335
283.15
288.312
292.932
300.81
294.608
302.964
285.69
302.525
295.318
286.323
283.15
283.55
291.721
303.087
289.236
302.672
283.15
292.415
287.797
301.046
301.267
284.948
303.111
284.964
297.179
302.989
303.148
285.158
303.146
303.011
293.386
302.683
283.15
303.15
303.15
294.86
291.159
283.155
301.16
284.707
284.171
284.65
303.145
288.396
300.533
283.15
283.15
302.529
303.151
294.645
302.91
303.181
299.901
303.217
302.898
283.15
301.349
302.893
283.15
303.15
301.334
303.15
284.347
298.86
283.165
291.599
283.15
287.625
303.023
299.843
283.15
303.031
290.937
301.239
303.13
303.081
283.15
283.15
301.945
302.035
283.816
302.827
302.439
302.402
303.141
283.15
293.852
283.15
302.804
287.918
302.994
303.15
283.15
302.841
285.173
291.518
302.082
283.15
302.602
302.031
301.613
302.506
303.054
303.205
303.016
303.15
283.15
301.537
297.922
303.09
303.15
290.012
285.051
303.15
283.15
285.368
303.183
303.164
302.927
301.185
284.294
303.1
290.731
294.245
303.148
289.126
303.163
283.15
289.931
283.15
300.036
298.24
284.817
288.257
299.681
296.659
295.349
299.244
293.84
303.153
293.88
296.492
283.159
299.451
293.883
303.15
299.004
299.214
303.15
291.305
303.171
301.709
303.15
286.966
286.028
302.81
289.708
283.15
283.15
300.401
301.143
283.742
283.15
303.15
300.279
302.347
300.684
299.942
302.797
292.621
289.679
286.691
292.523
284.325
290.477
283.309
295.725
290.464
293.979
287.179
284.305
303.162
283.276
303.147
285.651
300.767
283.151
300.394
298.383
288.777
302.113
285.44
299.145
283.15
302.959
283.155
283.113
287.868
299.722
303.15
300.365
303.025
299.961
302.774
303.15
301.311
284.98
295.051
302.077
303.149
283.716
283.15
290.413
285.263
285.787
303.142
303.149
283.15
283.15
283.177
303.15
293.489
303.15
303.153
294.774
303.432
303.15
300.427
303.15
303.15
293.691
290.656
303.15
289.871
302.089
289.597
303.15
303.15
286.041
283.34
290.381
303.22
303.15
303.146
285.505
283.26
283.15
289.048
287.667
303.15
284.327
303.15
303.15
303.132
287.367
303.15
303.147
283.283
303.152
302.678
287.951
283.151
283.62
297.357
290.804
303.15
285.954
284.471
301.37
287.163
302.235
290.605
293.93
303.15
303.15
284.026
303.151
302.956
295.881
302.952
302.753
287.225
283.15
285.377
283.221
297.233
302.61
285.428
303.15
283.819
286.749
303.127
283.176
303.15
286.466
283.15
300.119
303.15
299.785
299.98
283.311
283.367
302.343
290.968
301.342
303.15
301.439
301.783
303.15
303.15
298.401
293.546
283.15
288.874
303.15
295.225
283.367
303.15
296.968
298.781
289.028
303.15
302.77
294.332
295.453
284.487
303.161
298.774
296.242
284.002
303.126
302.813
287.444
298.537
289.843
290.848
289.775
283.15
302.957
303.151
303.15
303.171
293.228
296.425
302.981
301.332
303.15
284.466
303.15
303.048
302.867
303.15
293.662
296.267
303.15
285.423
303.098
303.15
303.095
303.156
286.11
293.416
291.169
288.44
293.412
303.15
301.264
291.566
295.427
293.467
303.141
303.15
300.597
303.187
284.272
303.188
303.15
303.15
303.143
303.15
284.985
303.15
284.258
303.146
303.15
290.318
303.144
292.54
295.584
303.135
295.416
286.01
283.444
303.127
302.941
284.717
283.15
297.157
303.15
285.549
302.921
302.072
303.022
298.436
287.118
303.15
298.708
289.941
299.406
283.15
283.63
303.15
303.145
303.189
294.083
303.15
292.492
289.393
303.194
303.15
284.84
298.856
293.31
299.666
302.5
301.596
300.445
303.15
284.741
296.953
302.379
285.65
298.343
292.342
284.5
291.75
303.15
286.748
291.902
290.141
299.508
303.15
286.473
284.104
303.15
302.452
288.176
302.112
283.15
303.15
299.896
301.729
289.103
302.015
301.921
301.85
303.15
289.428
285.165
301.99
302.261
297.226
303.15
283.202
303.15
302.016
303.15
302.831
303.15
291.747
303.15
296.636
283.15
289.602
303.15
283.15
292.192
301.49
300.472
289.244
300.551
303.15
302.511
303.15
302.377
285.261
303.15
300.459
290.465
303.15
300.856
303.15
303.15
293.207
283.15
285.578
293.309
300.97
303.15
291.282
293.97
288.26
289.686
288.138
299.245
300.262
300.844