/*--------------------------------*- C++ -*----------------------------------*\
  =========                 |
  \\      /  F ield         | OpenFOAM: The Open Source CFD Toolbox
   \\    /   O peration     | Website:  https://openfoam.org
    \\  /    A nd           | Version:  10
     \\/     M anipulation  |
\*---------------------------------------------------------------------------*/
FoamFile
{
    format      ascii;
    class       volScalarField;
    location    "4.2";
    object      p;
}
// * * * * * * * * * * * * * * * * * * * * * * * * * * * * * * * * * * * * * //

dimensions      [0 2 -2 0 0 0 0];

internalField   nonuniform List<scalar> 
111485
(
32.4344
2.53445
2.94585
32.3508
3.03223
31.718
2.57645
2.27116
2.59161
3.73734
2.54588
3.24977
2.60434
2.49319
2.61154
2.67442
0.908275
35.1374
2.59961
32.3192
32.2996
31.8119
2.60056
2.68286
3.00989
32.0715
3.61776
1.56909
2.93979
32.4914
4.68649
0.633216
32.3805
32.0466
34.5087
32.097
4.72241
0.319878
5.54173
2.70043
32.3028
3.72679
2.70347
4.23871
4.63462
32.725
4.03034
2.6645
3.72497
32.2775
32.2683
30.6314
32.2965
4.28822
32.3141
1.66356
2.62754
32.2582
3.83348
2.68854
2.6972
32.4344
2.11817
4.60729
31.6446
1.87033
22.8013
2.39646
2.08069
2.27732
4.83688
1.92913
31.5508
2.0709
32.61
1.14601
31.868
3.58713
31.8046
32.9566
4.68889
4.10692
31.9339
32.5659
2.10547
2.76112
11.8509
4.29667
4.79972
0.830281
4.81917
2.77826
2.11794
0.441056
3.71879
32.5601
32.4382
4.33107
3.04824
4.83911
32.4037
3.63945
32.1224
3.50981
2.43197
32.4796
32.1101
0.739696
2.81962
4.38094
0.555687
1.93951
2.78594
3.36505
32.0655
1.10301
32.1433
32.2369
2.08
32.3255
32.0675
28.2615
31.9378
32.2619
3.89392
35.6441
28.1408
0.849951
32.6247
7.03248
4.59479
4.3212
32.606
27.7499
28.7279
2.52235
31.8876
1.16056
2.29388
2.37269
3.67542
2.33179
2.33873
2.9019
3.9107
0.207135
31.8846
32.5433
32.1908
2.43044
2.90547
32.2941
4.73542
0.0393202
3.47121
2.44219
2.42066
2.59971
3.93858
32.6833
32.3537
2.43677
2.88157
4.0749
3.69462
0.994545
4.5389
32.3335
4.20625
4.31914
32.1759
32.5279
3.1286
32.0144
0.271117
0.0738159
31.7481
31.4806
32.1361
32.1771
31.3922
32.3463
2.46669
2.48026
2.39862
0.237122
3.59376
1.37265
4.75325
32.3975
1.16586
31.4736
32.4141
1.39855
3.70625
4.56024
1.80622
0.210432
32.6127
2.50127
2.89499
23.625
4.14282
0.813866
32.619
1.40016
3.4256
31.4602
4.51924
4.01708
2.87144
1.33751
31.3625
32.4608
1.37073
22.5441
4.32064
32.002
1.39311
1.2059
3.79727
32.6786
1.49885
4.4308
25.9965
32.0109
32.1831
4.89717
3.71186
31.8704
30.0586
1.22848
0.383811
1.56153
31.8562
31.8408
4.61241
32.6194
2.42774
1.20088
1.21628
1.17702
1.20702
32.1972
4.75865
0.926945
32.2345
31.9214
4.274
1.93981
32.0439
0.627018
0.919071
32.5377
27.2468
4.08433
32.1887
32.5211
29.6966
32.2357
1.04978
1.15042
0.0718641
32.6975
0.938848
32.3619
32.4209
32.6401
4.64479
3.58554
2.02696
2.06738
3.3631
2.02291
2.04763
4.82036
0.352654
0.38344
31.4418
32.5266
4.84933
0.744537
3.47743
0.417894
32.3366
2.06781
2.48408
2.03005
3.4761
4.76876
1.99219
2.03645
4.1147
32.2522
3.52923
32.0169
35.142
32.7466
4.86859
3.35773
2.64628
32.1806
32.4459
1.62454
0.556223
32.2846
32.4646
32.3302
1.15803
0.409119
2.43446
2.5481
2.72874
30.1787
32.1343
32.5817
1.60293
16.4181
2.62356
4.80046
4.5454
31.9265
32.4235
32.4379
28.7058
1.7148
3.02102
32.224
1.70233
32.0219
32.1107
4.42241
1.71666
3.34273
1.69263
32.7151
28.5927
32.1775
1.69988
0.130982
4.71856
31.7319
7.54101
4.48146
3.05248
1.55405
10.0645
2.75094
31.849
2.75719
1.74188
4.7837
4.38853
3.05178
32.0792
32.5873
32.1408
32.3632
2.40482
1.4922
3.3048
2.76079
32.1057
3.19471
32.1292
32.4617
2.75608
32.9541
28.9663
32.8155
32.1012
2.46208
32.2591
0.123721
3.17217
31.8096
2.19448
1.80153
32.2816
1.75193
3.22025
1.78985
4.55408
0.258282
0.390016
32.7423
32.5429
4.24832
32.2815
3.32499
4.4362
31.7148
32.2146
1.67511
3.22993
0.266735
3.21064
31.8752
4.67528
3.22105
31.6829
4.23214
3.22742
32.4599
32.3332
0.135565
3.00768
32.1601
32.155
25.1921
32.3986
3.09131
32.0034
32.3874
3.25024
4.63232
3.95479
3.04259
31.7331
28.7593
4.30126
29.1077
4.22709
4.35228
3.72185
23.3891
29.3728
-1.05274
4.46396
32.478
4.36134
3.18233
32.6761
4.11259
3.78491
29.229
3.34507
3.23197
0.275732
31.7672
1.00865
3.40167
0.2968
4.9168
28.0774
3.46832
32.5853
4.78907
-0.417807
32.1703
3.33288
4.11643
27.4632
32.6891
30.6653
32.2937
3.03606
0.392016
3.31023
3.35531
4.5112
32.0162
3.25156
32.4757
3.0636
31.6249
32.465
32.5729
3.33228
32.5561
32.4577
33.8491
32.4361
32.2241
4.09892
32.2582
30.7835
32.1191
32.4269
31.6936
32.6083
31.8329
3.35258
32.1177
4.14204
3.42618
5.25477
31.6843
4.1484
32.1467
32.4282
3.3476
3.36312
3.47206
4.77583
30.5012
3.81133
3.80556
0.277414
0.337722
3.42931
32.5238
0.201295
27.499
3.95249
32.0302
3.87029
28.2531
0.500914
3.32669
33.4121
32.3364
0.293005
32.2666
3.80166
3.79865
32.2269
32.1793
32.5077
32.1522
2.24509
3.78648
31.5729
32.2561
3.02531
31.8146
3.79023
31.8536
3.99452
32.4354
3.77083
3.85919
1.83262
0.47495
31.5551
-0.335124
31.6285
32.0421
3.48844
32.0443
3.78327
32.5335
3.9021
32.5038
3.5944
32.2896
29.2706
5.18521
3.46003
3.76987
3.56307
3.73304
3.25325
32.1822
3.75448
3.52079
31.9826
5.01205
4.60424
3.81444
31.791
32.699
3.07474
3.82086
18.1558
31.4861
3.4792
3.03291
3.60927
3.61474
0.895906
14.2668
28.9551
3.13995
16.215
32.3647
3.83176
32.286
29.3757
0.869216
14.0764
3.10234
10.358
28.9474
3.59722
3.02231
31.6946
30.8303
3.01937
32.2239
31.8023
31.8354
31.6582
3.63641
32.1235
32.4866
3.68575
1.22812
25.7229
2.90463
30.4414
1.19429
32.2903
32.1892
3.63205
32.0281
31.6931
29.2629
0.223157
21.4944
3.65955
0.868094
32.2356
4.78734
3.55863
3.10341
4.68361
6.51961
3.02839
32.0559
3.71403
3.10547
32.6441
1.81737
4.13902
3.18849
0.211496
3.18258
3.18251
32.6288
3.81924
4.52697
29.1825
3.17925
3.88362
22.1585
0.873643
3.18648
3.87394
3.40933
3.39382
0.875866
32.0255
3.39384
3.77808
33.2108
3.5788
3.55551
0.907674
32.0544
0.237325
32.7102
31.9016
32.1178
31.6535
3.12014
29.5685
2.00567
32.4428
31.516
3.60805
3.59273
32.2603
3.80119
32.4272
32.6259
32.3075
3.85574
3.84425
29.3584
32.5115
32.0335
32.0617
4.61912
0.889542
28.7482
3.5157
4.21918
32.2169
3.53825
4.03075
0.687455
31.7764
32.0019
1.89267
0.902944
29.1405
32.1687
31.5361
1.3935
32.5447
32.1867
31.9926
3.48394
2.82282
31.8173
34.1215
33.2153
0.894628
32.2451
31.6986
3.91116
4.61992
29.0843
25.7572
9.41158
3.99667
0.0265272
31.4346
2.9246
4.13856
32.2531
32.2855
31.8943
32.0161
32.1424
31.836
3.53142
32.4265
31.8938
31.7781
3.52499
0.884143
32.1559
32.3341
3.9847
0.892569
0.946754
32.2058
31.9067
0.911407
32.5514
3.49132
0.879725
0.959791
32.0741
32.4021
32.401
32.0817
3.08611
31.9228
31.8458
4.318
32.3926
1.49603
4.15892
31.6208
0.892095
32.0485
1.47696
3.65454
3.7233
3.9584
1.52743
30.1754
1.45799
3.99916
0.0381577
32.0582
-1.26474
29.6512
0.301989
32.1074
4.09648
4.04079
4.08049
32.7172
32.4143
32.6921
0.884878
30.4427
0.481393
30.9376
2.75758
0.313889
0.603499
0.905124
31.8444
31.6966
31.6162
0.935021
31.6815
30.1752
4.91445
32.2369
32.2538
32.403
31.9019
0.622092
31.4752
32.0012
0.613371
30.3773
32.3091
29.2862
31.9775
4.05281
0.603461
32.2998
3.04498
9.22829
4.07895
4.3901
0.788436
32.1599
3.66242
4.68002
4.08412
32.5733
-2.76085
0.643146
27.6191
0.499803
4.79617
5.03003
2.20897
0.479394
4.80589
0.211664
0.571499
32.0202
31.6717
0.425745
0.388762
32.2054
0.437012
3.30404
0.570993
31.5912
4.92854
32.0923
0.579031
0.53973
31.7558
0.040657
0.5853
4.8229
0.0683775
31.4353
2.429
4.85464
5.33038
4.79708
4.39654
32.0256
32.1245
4.36189
31.8935
3.46157
4.34329
28.3024
3.95426
2.77343
4.55093
31.903
27.3288
1.28649
32.6219
37.3471
4.37532
31.6355
31.7228
3.12228
2.61466
31.8973
4.9656
32.0126
32.027
32.6381
32.4354
32.3888
32.5423
4.48087
31.6379
32.1771
32.2253
0.704241
4.5639
2.81516
1.27162
31.8219
31.6722
4.571
31.9654
31.7311
25.3891
4.4608
1.6343
31.7865
31.6934
31.6915
31.7007
31.9772
31.6756
4.47557
31.6886
4.69315
2.74175
32.0624
32.4519
32.3201
4.94041
32.2919
32.3567
32.1227
4.68926
32.1051
4.48283
4.66667
4.71025
31.8177
23.3304
4.57661
2.63571
31.3503
4.73043
3.85201
32.2243
31.4547
28.715
31.6972
1.28443
2.39089
4.60563
4.30464
31.7667
1.27595
31.3394
28.842
28.571
32.1825
2.20354
31.9889
32.3499
4.77815
1.63229
32.3416
3.79224
30.5101
4.54846
32.7053
32.0365
32.044
32.3853
0.653752
2.39106
6.92966
31.7842
31.7362
0.606997
31.8969
29.6518
32.4424
3.46674
4.2826
3.13105
32.1604
4.80602
4.81376
33.5524
4.83543
31.668
4.23525
3.85055
2.29689
4.73413
4.46666
31.9306
32.0194
32.0201
4.79055
32.4844
4.73692
32.6592
8.02936
32.1759
2.66825
2.76943
32.3579
31.868
32.4056
32.2566
4.72347
32.4261
28.7432
0.587589
4.74506
32.4644
29.5371
31.7228
29.6062
31.6486
31.9429
4.77886
3.95402
32.3484
32.1178
3.43129
32.4636
4.778
0.645828
31.8274
4.32856
32.3935
0.384499
31.6387
2.94009
31.7433
3.72241
4.39514
4.76536
4.32952
4.31701
21.5697
31.3085
4.38798
32.2798
2.18246
32.2332
32.214
31.1675
32.1541
32.2605
32.1998
4.28053
4.24275
32.3963
27.8839
32.2155
4.35248
4.93648
32.4603
2.21057
4.82682
32.3203
0.823875
0.579547
2.08388
4.78533
31.894
31.9767
32.1575
31.8483
2.19589
31.9048
4.43595
31.9502
4.45031
2.95736
32.1142
4.38824
32.1566
31.8807
4.4449
4.57135
12.8211
31.9527
32.3814
31.674
2.26755
31.1217
32.8154
31.2475
8.75941
28.4919
3.87495
29.5193
31.1263
31.7278
0.696268
0.569536
3.30934
2.47817
32.5991
4.45102
32.0452
32.2022
0.603242
31.5476
3.54641
4.43858
0.49795
4.49163
2.30612
3.21911
32.1617
0.716509
-4.08295
3.91883
4.58879
1.69921
24.4077
32.4175
3.13383
32.2207
31.7137
4.80725
3.71718
2.04394
31.9899
31.4863
4.73304
32.3177
31.631
4.48332
32.376
32.345
2.23357
4.50338
4.48274
2.05281
1.0467
31.6806
31.9231
4.62584
1.96143
31.8334
32.3577
3.42729
31.6811
27.7387
28.6063
28.7423
20.5623
27.8688
31.8384
3.22084
31.6587
4.51102
31.75
17.4631
31.7758
31.6845
32.1693
31.8943
3.033
31.8996
31.8937
29.1486
31.7034
32.1601
32.0192
1.86058
31.9623
1.69084
4.52475
31.6926
3.35131
31.8001
3.95139
4.75229
0.481217
0.512941
32.0657
0.537441
3.02496
4.7483
32.6266
4.55536
1.4865
0.287576
30.5579
0.324005
31.8065
32.1557
31.7403
31.82
0.32908
32.0127
31.7019
0.269113
4.47354
0.227045
32.2335
24.1261
3.29707
32.106
4.43869
32.3097
0.496815
31.5937
31.6357
3.19143
31.7339
4.8177
32.4565
31.7486
1.47843
4.01521
1.10518
2.34071
4.95468
1.86197
31.7564
32.8277
2.80568
1.13207
1.85682
4.58266
31.8984
1.69853
31.871
31.9687
2.75257
4.70248
31.6896
1.15319
32.1191
1.11458
1.03459
31.5194
31.8253
32.0819
2.78359
32.004
32.0079
2.79755
1.11189
4.55455
0.324934
31.8199
32.1648
3.52609
2.85395
31.7775
2.77227
31.8542
2.75191
31.8049
31.7744
2.70149
31.9045
3.86496
2.59806
31.6866
31.8285
2.53225
27.5737
3.1372
32.4262
4.55525
32.4778
27.9718
27.2217
2.62779
29.2919
29.0184
2.37378
28.8992
19.8644
27.174
31.7625
32.2219
4.65824
3.11636
32.1279
32.0377
2.99907
3.07649
31.6925
2.81798
31.8407
32.2348
3.52832
3.36326
0.46293
31.7927
32.0511
32.0137
31.8934
31.6355
31.6499
32.0331
31.6669
31.6963
31.8232
32.0168
32.2266
31.9483
31.7782
31.7073
32.0722
31.7751
31.8283
31.9182
32.0603
32.4342
3.1532
31.9809
31.7804
32.22
2.18266
32.2742
32.2312
15.564
31.5322
31.2121
2.17878
33.5104
31.3541
17.3305
2.17754
31.9475
28.2871
29.9787
31.7192
4.23258
2.18032
2.19522
2.08255
1.34659
32.2924
31.7136
1.63966
1.72934
2.06841
31.8585
1.95345
4.13871
2.11891
0.391091
0.441358
2.08772
0.74168
2.09365
32.6647
2.38516
1.98665
2.94256
1.96119
32.0832
32.0256
32.1424
32.3956
32.0692
1.71401
1.97504
32.0738
31.7025
31.676
32.1715
31.7407
32.2428
31.606
32.2278
1.95095
4.90912
1.97004
3.28243
31.5359
31.5364
4.17537
4.63985
31.8193
31.8959
3.09108
32.6918
31.9875
2.06434
1.90057
1.94748
3.10513
4.16133
32.3038
0.0820506
2.33508
28.7503
32.2267
2.27634
32.2735
31.6616
13.7126
9.91775
3.24322
32.0061
32.5659
4.70288
2.36671
0.130331
1.72591
17.0158
32.4003
4.46775
33.2231
32.6542
31.3344
3.01249
31.7314
1.71707
0.100568
2.24535
2.34306
32.5425
1.51613
32.5755
30.9948
32.538
32.1513
0.597079
20.7383
31.8991
32.3379
33.6526
1.73022
28.5995
1.54344
1.71484
0.576846
1.71911
32.1905
32.0694
28.1712
3.00596
1.34814
2.44844
32.2846
32.4288
28.467
4.25713
3.1336
31.8929
1.18755
14.0392
2.35982
1.30741
32.367
27.8604
1.31259
1.71177
32.0377
3.76197
3.637
3.19345
1.44682
1.36004
1.44941
28.7538
0.579688
1.40364
1.20437
32.5774
2.26019
29.0412
2.95948
1.45693
32.6911
0.40843
1.38434
1.5031
1.83905
35.1422
12.714
4.60644
20.0203
1.38909
31.2553
0.479264
1.39475
32.1728
31.9204
4.34823
4.8784
2.03525
34.9765
3.29227
4.73332
1.87239
4.62276
32.1461
32.7111
1.70374
33.6252
1.55026
4.62597
1.40648
0.502807
32.3077
3.96553
1.69003
32.1983
29.033
1.1159
32.5729
1.11428
1.05738
32.4432
35.0959
2.36955
32.2525
31.7819
32.2623
0.480714
5.6567
3.02653
32.8227
2.93874
0.796997
31.7127
0.78198
0.858375
0.529458
4.83184
31.846
1.52022
0.469012
0.867868
0.796455
0.53425
4.68195
2.73545
32.4251
-0.0757021
0.567352
32.3704
0.856951
32.2124
31.9956
32.5946
32.2688
32.3339
4.30474
32.1377
0.788119
3.44507
32.6454
3.42255
32.1456
0.570827
32.216
4.60976
31.3378
2.8374
4.46848
4.79211
0.900071
0.564704
2.93793
0.524833
0.932954
14.8449
0.878177
1.87484
0.942411
32.6384
1.75779
4.86044
0.911482
2.62719
4.78129
32.6242
28.6315
32.1693
2.9832
32.3174
26.3046
0.569118
33.769
3.66656
32.1711
32.504
31.8983
1.88509
3.17757
0.948639
4.44776
0.505011
1.60172
1.57653
1.91263
0.628871
1.55426
1.60088
32.3867
31.9745
32.6654
2.36802
1.71269
31.6903
31.8956
26.7126
1.62496
0.656182
32.2912
1.60115
32.4609
4.20912
3.00673
4.54702
32.3678
32.4363
1.86626
32.3931
3.88535
0.869936
30.9484
2.12517
2.63631
0.399488
32.1636
4.55987
29.3429
3.66943
3.02084
32.3814
32.6417
0.84198
24.4536
32.6444
1.10856
0.467846
32.4229
32.1136
29.1619
1.53549
26.6806
2.36727
4.18361
3.68739
32.4334
29.1835
4.12432
32.4354
32.0374
32.5148
32.3271
29.5444
31.5468
31.0254
32.1992
32.1011
30.4588
33.7674
31.2656
3.91482
31.2911
28.2661
27.0123
35.4914
28.6969
32.4372
4.19463
30.4205
31.4908
4.30077
33.1342
34.3688
32.019
4.19748
33.6775
4.21806
4.51013
3.71378
29.9843
32.297
4.23523
4.2119
31.9966
32.6139
2.36227
29.7071
2.34102
29.4551
31.9859
31.7488
2.34546
2.33821
32.4822
3.34142
32.4437
30.4116
4.53578
1.31437
4.20307
32.2036
2.349
29.8623
3.54869
31.84
32.1738
31.776
29.0625
1.2893
1.53041
32.5624
2.95955
32.2202
32.27
32.216
32.3302
3.9742
3.93739
1.54722
5.50332
32.5543
2.99746
2.40467
1.20715
3.95596
32.3611
1.24747
4.03968
2.07215
4.31517
2.24767
32.309
2.75227
4.03406
2.36148
4.06975
4.17767
32.2505
4.24129
31.769
32.4599
1.97485
32.5786
3.01766
32.4967
32.3487
31.294
32.1944
32.598
3.98441
32.1719
3.36759
30.0796
32.0854
2.91777
3.96034
1.64114
3.25868
32.6418
8.00521
32.5649
3.58237
32.3502
2.90016
3.94729
4.05187
3.63869
32.4334
32.4572
32.1279
1.33862
32.1206
32.1824
1.33369
31.5697
31.7365
4.091
32.43
2.24218
4.28844
29.9212
30.7578
30.55
1.51259
2.52763
32.3191
0.061012
3.48342
29.3912
4.11389
32.5208
1.34745
2.95589
1.23321
32.302
3.1073
1.64913
4.21909
3.9849
3.41808
32.3837
32.4091
4.9297
32.2118
31.8354
32.4693
1.3408
4.12673
1.74895
2.54093
28.961
3.06983
2.37247
2.53904
2.81609
3.12039
3.79367
3.39444
31.895
31.8843
31.8846
3.4448
32.0775
3.45479
23.5278
3.36442
3.66996
1.33362
0.68958
31.7422
32.4869
3.37443
3.35595
32.4954
31.9134
32.6666
1.46395
3.34454
3.47923
3.5098
0.414943
2.36824
32.2312
32.5755
32.4286
0.426495
2.26242
0.0534623
2.60731
1.53248
3.53393
31.9816
32.4251
27.1635
31.7319
0.444296
3.0695
32.3852
32.2561
32.3362
32.6428
32.548
31.5117
3.6249
32.2854
4.31015
5.18749
31.7148
3.56535
0.179472
1.39398
32.6744
31.6834
3.60414
32.389
3.61845
1.69516
1.5367
31.3436
25.5295
31.8541
32.2895
32.2204
31.1299
12.694
32.2049
3.70197
1.75204
32.4401
32.4204
3.70354
32.241
32.0005
2.08259
4.75546
32.1583
32.1518
31.4142
0.841617
32.3963
32.4036
9.52815
3.66454
3.71687
32.3039
31.7078
29.7625
3.69981
3.67496
3.6919
2.6633
31.7986
0.754946
0.16449
0.194042
32.0233
32.5818
32.4269
32.4657
32.3974
2.08634
2.14147
1.72068
32.7031
32.5171
32.3891
32.4777
31.7339
4.42137
0.588976
0.119772
31.6519
32.3744
32.8254
2.35046
4.11301
4.67492
32.0177
-1.08681
33.3049
32.037
32.4058
2.09194
2.33893
32.2111
32.2285
2.80323
32.4151
1.52539
1.9336
14.7742
32.1916
31.7582
1.55671
4.3887
32.1659
14.1296
0.38238
3.07643
32.2855
32.2304
32.6631
32.4578
0.483612
1.11338
32.2346
4.4285
3.88888
6.29201
32.3221
32.2265
32.2111
32.2352
3.11897
33.7396
32.3302
31.7611
0.756817
3.41461
0.932747
31.9986
32.5987
3.91066
31.2139
32.4183
32.2439
32.2852
2.21845
31.4681
31.7023
31.7515
0.933195
2.32071
32.2144
32.5504
32.1097
2.66428
32.9529
32.1583
32.1204
32.568
32.5271
4.82821
3.09005
32.8275
2.45648
3.07681
2.15407
32.6732
32.6268
32.3803
32.4985
31.7305
2.93349
32.3251
30.3673
30.5374
3.89763
31.2618
3.8549
32.3999
32.0788
4.6488
6.59615
29.5442
3.94319
32.3199
3.92455
33.1675
32.2253
32.3842
36.1561
32.2182
4.39593
32.1854
2.56598
32.118
29.1881
32.5468
32.2086
0.858473
3.73296
31.8745
14.5213
32.238
3.78989
4.37263
3.65394
32.265
4.2934
3.54698
4.38388
3.14173
3.59471
3.58234
31.4297
31.7649
3.23074
1.33392
3.61774
32.2465
31.1496
27.3035
16.6173
32.6661
31.6737
32.5587
32.6354
32.6904
33.4675
3.64242
4.55167
1.74674
28.9492
4.7637
32.5578
2.93452
32.4297
32.6946
31.9768
31.4931
4.45111
31.4501
32.2335
32.3173
2.53347
32.3317
32.4863
4.55037
32.2124
24.9518
22.2204
21.1127
32.6438
21.8445
21.2877
21.6814
24.0025
31.78
31.7813
2.50025
3.73878
29.2727
29.5681
31.8183
2.51967
33.113
31.8606
4.42122
32.2511
32.3849
3.91525
4.54226
32.5544
31.6959
4.99999
29.1459
31.5759
4.29347
2.70182
2.7287
31.8755
2.72869
32.5983
1.68864
4.15358
2.68713
32.3375
4.16746
2.71542
32.3645
2.05017
32.1333
2.55647
30.8702
2.5478
31.8655
4.34996
32.1785
31.4261
32.1089
0.553886
0.583435
32.6398
2.75863
4.53795
32.8449
32.3292
2.03277
0.157416
5.06526
32.669
2.8644
2.80631
4.57849
2.69333
32.6873
4.91648
31.7831
4.78722
32.4316
-0.262829
-1.17487
32.0986
1.7931
31.7738
4.53019
31.8783
32.1136
32.2425
32.4994
32.1528
32.381
3.73363
2.14921
4.74753
32.2165
26.8404
4.76859
32.2304
32.5407
32.2384
32.6259
32.2761
0.143663
32.3359
32.5844
31.7601
0.117813
32.1364
31.9168
30.9243
0.504468
31.9719
0.408489
2.95474
3.52
0.48829
0.354358
33.2148
32.221
32.3501
0.595806
0.955511
31.3156
26.7216
0.472213
32.4778
32.6038
4.79027
32.1264
2.78353
32.2015
0.388459
4.49139
32.2274
31.7726
32.2011
32.5641
32.465
4.61001
32.2005
0.481685
32.3588
32.2987
1.03444
32.1003
2.9307
31.7345
32.4832
3.77303
1.80166
4.89435
32.56
32.57
32.364
1.80782
4.80438
32.3669
31.9107
31.2873
1.1359
32.1785
2.9791
4.8343
32.2852
32.2221
1.12112
32.4053
31.2703
31.9711
32.3386
32.0406
4.77555
26.4166
31.688
32.5281
26.9758
32.2276
27.7247
32.0478
32.1624
31.88
1.78533
32.082
1.09406
31.9961
32.2012
5.35348
1.15546
32.1642
32.1992
32.2296
1.11985
28.4367
32.3274
31.6069
32.2131
1.21843
32.1691
4.76539
32.6692
3.51296
29.1266
4.17839
32.1866
32.4596
3.38208
27.8673
32.2146
0.947658
3.45576
32.691
32.5602
3.74116
4.18902
1.14721
1.08199
1.0867
3.78051
1.13027
4.30814
32.352
4.73719
26.8963
26.5225
32.3094
32.0971
32.4488
1.10949
32.647
32.6617
32.631
4.60533
4.27167
25.8572
3.88217
32.5885
4.0461
31.5706
4.61592
1.2659
27.1374
3.48545
32.0999
32.0556
31.8833
1.30593
3.53239
32.3599
32.0091
1.26977
32.556
4.99291
32.5781
4.83931
32.4114
31.8809
32.545
31.8704
1.0077
31.8703
6.60576
32.1176
3.64427
32.306
32.2345
20.3989
19.3271
32.2899
32.2502
32.429
32.5891
3.47373
4.93034
23.4057
32.5479
3.55504
31.8091
32.1025
4.0948
2.72906
4.74716
31.894
0.693337
3.72438
1.89998
2.89897
32.4411
32.6873
32.702
32.578
31.9027
31.8727
31.8737
32.0318
31.8941
31.8742
32.3948
31.8614
4.75741
31.8808
32.2233
34.7645
32.5739
32.3132
14.8264
31.8015
32.2603
2.84614
4.98339
32.0653
32.5958
32.3903
2.54777
32.3337
32.3873
4.90319
31.9946
32.2042
32.4625
32.5327
4.61528
31.9505
4.91047
32.5433
32.4278
32.2669
32.3146
32.2317
4.92627
4.8523
1.43783
32.5813
31.6213
32.7214
4.91129
32.195
4.8558
5.03303
31.9704
32.2222
25.8345
4.09718
32.0914
29.464
4.13452
26.1249
3.87242
32.1932
4.37029
26.0061
24.3939
32.3981
3.43493
32.008
3.42474
4.57778
32.1914
3.47042
4.45099
32.4105
4.56842
31.7378
32.1209
32.1918
32.0965
32.0499
31.8514
32.195
32.6341
4.81517
29.7676
32.3403
32.4606
32.1674
32.1544
2.55831
19.2754
4.9487
4.67231
32.2026
3.32343
3.29127
32.3648
29.4047
32.0775
32.0802
32.2035
32.3949
27.4919
29.9362
3.99354
32.2963
32.6631
26.0567
27.8399
31.9142
3.39418
32.1021
31.6959
32.5637
4.73272
32.6398
31.8076
3.80076
31.9641
32.1099
31.976
32.8329
3.8281
32.3052
32.2769
32.2453
32.2388
4.04517
4.7916
4.80495
3.41615
4.25433
4.23918
32.0127
27.8781
4.95758
4.15903
27.8443
4.95932
32.5212
1.92958
31.6979
4.74294
32.3481
31.6943
4.27095
0.855948
32.1784
4.15043
32.3407
32.452
4.72419
4.61557
32.5731
31.8464
32.2757
31.8943
32.2275
28.5784
32.5813
32.4365
4.12519
32.5879
32.3928
32.3096
4.30223
32.2434
28.6992
31.938
31.8401
30.4443
29.1217
4.30031
31.6641
29.1708
2.56838
32.5393
4.1086
4.13756
32.2399
2.64157
32.4128
30.9827
32.7103
28.7197
32.1321
32.5851
32.6659
32.6696
2.65114
32.6082
32.4929
32.5964
31.8973
32.3294
32.0546
4.7571
32.4005
32.555
4.56201
32.3636
31.917
32.2554
2.68987
32.2879
4.4567
28.4114
4.27199
0.365303
31.8825
27.8627
2.57092
26.9601
31.8848
4.74512
4.20827
0.00527233
4.41672
4.6918
1.62218
32.2377
31.6393
3.21337
4.83233
4.71956
3.13836
4.32615
32.0909
0.631249
3.1652
3.18908
32.2674
3.19328
0.543667
1.89423
3.04014
4.74592
3.24935
0.815202
2.9451
0.106004
1.41813
3.05668
28.7391
0.392071
0.0503896
3.41833
3.9444
0.230824
3.0477
0.160396
29.3056
4.86604
29.1307
1.72279
3.23125
3.91862
2.42396
29.0842
31.898
2.98013
2.45748
4.74575
4.80035
0.899496
3.19684
21.8414
3.24363
32.4005
5.59293
4.83745
4.42677
1.91491
4.77839
4.75479
3.67736
2.29721
2.20023
1.74274
3.21292
0.560366
26.3668
23.6592
3.22032
32.2356
32.3954
3.06405
3.16609
0.322935
32.2578
4.42202
4.61491
2.25657
24.3929
32.3948
4.56326
0.0906112
4.82245
32.6893
0.89259
32.47
2.41133
3.63508
4.29765
4.34241
32.2395
32.4211
4.73309
3.15289
3.20466
32.4006
2.5362
3.16049
3.91968
31.9996
2.30253
0.264457
29.0858
1.90862
0.831195
4.61729
31.5012
4.53757
5.19892
32.4142
3.85466
0.409966
10.5288
3.85869
3.93949
0.77137
3.48146
3.85539
0.275392
4.49162
4.62385
3.71288
0.700069
3.25827
4.79066
2.46181
3.91769
1.4761
3.07053
4.8406
0.83769
32.4399
3.91459
3.87116
4.73619
1.04595
4.43248
31.7021
3.88863
1.89554
32.437
4.38814
0.0418326
3.90516
3.77433
0.523194
-0.0625039
3.41466
3.7397
4.51014
32.4485
32.3892
4.5627
32.1969
4.58506
4.59086
31.5076
0.533768
3.97693
2.39296
32.596
1.90806
2.138
4.44163
4.75488
2.08565
0.962792
2.55239
4.21234
32.3959
32.1138
4.78194
4.13233
4.39382
2.70905
32.1134
4.16642
3.70721
31.4987
2.51909
3.23956
-0.0366574
4.79722
4.28895
3.55664
0.875536
2.88532
32.2206
3.9386
2.01865
3.72569
4.84012
32.1199
4.35085
32.5533
32.3579
2.14877
3.6063
2.33716
6.0446
4.44627
10.4653
31.9368
3.55571
3.75584
2.61593
2.37221
32.22
32.2651
32.2207
2.37098
2.3926
4.75616
1.87446
31.2476
32.1414
2.34274
2.62995
4.37831
2.39164
2.3623
2.92793
4.21739
20.2132
31.7821
3.58256
0.313508
32.1344
3.28696
2.83192
5.34056
3.5956
2.77939
4.56739
32.1379
2.44061
2.90306
32.1735
31.3061
0.278981
0.482966
1.03463
0.468613
2.83586
2.87498
0.821275
1.8997
2.67309
0.446627
32.111
32.0773
0.0463682
0.551527
2.78114
5.07163
2.76759
2.65134
3.70063
2.34214
2.74796
31.8453
32.1992
5.00996
32.0952
28.5957
2.9617
1.90155
2.84839
4.93307
29.9333
4.33092
5.14658
30.4031
5.08796
4.74328
2.7527
2.77348
0.250379
3.20054
4.7069
0.516557
32.3716
30.2147
4.67104
0.959393
2.3599
0.979349
4.30179
4.0991
4.75305
30.3029
2.94993
0.80492
2.53629
5.01024
4.29597
4.67407
4.7586
2.88894
0.731273
29.9333
4.03141
2.84403
15.1105
28.6937
26.8476
2.60717
28.1671
0.185758
2.5489
2.35522
3.19199
4.49805
22.6218
15.9168
32.9169
28.1878
4.54684
31.879
31.8785
1.52143
32.3727
1.89681
2.44409
2.22472
1.75909
1.86343
3.22013
26.8531
0.930905
0.439113
4.05388
3.04117
1.77543
2.88808
31.9131
4.76078
1.75268
3.45157
31.8865
3.82121
2.97265
31.8805
32.1819
4.3687
1.72236
32.6219
3.39295
3.06324
4.3605
32.5353
31.8716
0.333592
4.71463
3.21718
31.8946
32.0869
31.8801
3.65521
14.2263
13.3914
1.14605
4.21279
32.6856
1.21828
4.28324
2.63283
0.382715
0.307103
1.29894
4.05347
0.398994
32.4158
1.28967
0.783977
0.155297
2.13364
0.540277
0.57415
0.517044
0.576141
0.212792
4.58908
4.37914
2.88197
4.424
4.76736
4.11805
0.536462
4.41738
0.607232
0.182821
1.58133
1.02867
4.45461
0.999971
4.4434
1.10836
30.9865
2.91911
18.4977
2.18141
3.18334
32.1798
3.88911
30.9934
3.32544
31.0928
32.1645
2.38545
3.95166
28.8537
0.930294
2.41647
3.9707
32.147
32.5646
4.74148
1.31181
4.8471
2.1639
0.806153
3.86017
4.82373
3.71695
3.91242
27.393
2.89546
31.9261
32.1829
1.67609
1.23915
4.96684
1.64522
1.08856
3.93708
4.03459
31.7916
4.73655
1.07671
3.87418
31.8169
32.6456
2.8954
3.34152
26.2207
4.45316
0.18827
3.4571
-0.171122
0.923373
2.21201
32.1878
21.0059
1.77746
4.7055
32.4741
1.70034
4.43892
3.58507
5.2841
1.75555
5.16716
2.89164
4.63887
22.1092
4.71703
32.299
3.3178
3.94773
0.884931
0.0925263
27.9625
0.107281
4.69651
3.7793
4.4639
30.6165
31.8744
1.87883
4.67301
3.79616
3.29407
4.42349
1.34185
0.286361
2.51043
0.413134
0.2616
4.44942
29.492
4.85765
3.69044
0.0326286
4.35598
30.1393
31.7545
-2.10417
4.87016
33.257
4.79949
4.08708
30.3266
22.6651
23.8813
3.97916
1.73257
6.17127
25.1993
4.31557
1.98561
31.1559
1.17961
28.6915
3.57075
1.37591
32.1727
0.274211
4.42524
4.41225
1.24871
31.8139
4.58995
4.19044
4.58239
4.43914
4.63003
4.68285
4.07077
4.93582
4.15899
0.728505
1.75613
32.1683
27.5343
27.5817
31.5512
3.79155
2.04638
1.80958
4.31523
1.04577
1.82878
3.44959
3.9747
3.80863
1.3341
4.10479
4.25495
3.648
1.00894
32.325
4.34877
4.28171
3.89262
4.16121
31.1479
2.35319
2.38514
3.36395
3.27207
2.63756
31.6681
2.65725
2.6258
28.6288
2.69691
3.68837
31.5449
2.61201
31.4928
32.2502
2.33822
3.85518
3.7157
2.61458
31.7428
0.514599
4.06383
32.2585
2.21136
2.73841
2.26611
3.78643
31.629
3.96237
3.95571
3.57147
31.7616
1.98008
0.78024
3.60755
1.65971
2.04086
32.6814
31.0015
29.6082
0.222744
30.0754
1.88773
1.5523
0.554131
32.2453
0.612689
31.6115
32.3252
32.1181
2.25747
-0.00132084
4.76369
3.62305
2.0397
30.8311
28.6867
4.42204
4.33084
1.60084
4.64855
2.02017
4.2021
32.3184
24.8528
25.2989
31.8272
25.5315
0.134448
32.3892
1.92722
3.40467
2.04984
0.418314
2.37423
27.1027
1.51551
3.42647
3.96574
4.58461
27.2491
32.2915
4.0476
1.56883
4.64199
3.83638
4.78389
4.79945
4.57107
4.79918
1.31883
0.287311
1.29197
2.83695
1.205
3.44477
3.67625
0.875149
1.20691
4.73962
3.6097
3.85019
2.32071
1.29993
0.86199
4.59031
32.2488
1.97058
-1.21676
0.52071
0.33354
0.119048
3.45042
2.68518
-1.85117
0.359969
4.89371
32.3152
1.91022
2.60434
2.81409
32.2173
2.08865
1.19973
0.373761
2.59271
32.6715
32.2871
3.71372
0.79597
0.749089
0.162811
31.9382
32.4506
32.0276
2.85257
3.44813
0.693718
32.4495
1.89892
32.2908
32.3554
0.387305
0.277732
31.666
0.711885
0.738779
0.0618332
32.2219
32.547
1.26937
3.44507
32.3196
0.635449
0.732165
0.382443
32.4847
32.506
32.3998
0.36889
0.634746
4.43793
0.729627
32.1717
0.561725
3.22527
4.44557
4.12891
31.4022
32.2742
0.708395
4.6469
4.53015
2.4487
31.4052
4.78251
31.9218
0.880312
4.81208
3.25637
31.5812
29.545
4.65933
4.90495
29.0665
29.2128
31.9412
2.2689
30.9667
28.0284
3.38427
3.32208
31.9363
28.6802
2.91986
0.724351
0.686223
2.27468
1.92742
29.0859
3.47084
27.1042
26.552
32.2089
2.3785
3.84396
0.649101
26.6995
34.0047
3.37287
4.80948
3.59174
3.85527
3.05511
2.69718
3.01522
0.777113
26.2854
3.25157
2.37857
0.766612
2.2652
3.78718
20.4177
2.18898
2.19748
2.2011
2.1962
0.808434
25.6089
29.854
2.5503
30.0363
30.3679
3.077
30.1028
1.89615
29.5082
29.8183
31.6758
28.815
2.43893
0.848554
2.44214
29.4355
1.21486
2.32068
3.16296
29.8474
32.4383
2.46447
2.58697
4.79348
2.48119
28.7116
0.0587141
0.674328
0.486229
31.7433
31.8424
1.49538
1.23618
31.9454
29.967
4.30539
0.0518503
29.3966
4.7027
4.25578
4.29348
2.69742
29.6704
3.0281
9.01619
0.387903
0.372251
4.38078
4.23468
4.01404
1.70615
3.13414
29.091
3.47166
3.13343
4.74531
4.58657
4.31097
29.7683
2.12056
3.18875
1.83262
2.67626
3.13781
4.66956
0.65057
4.45384
4.06324
4.34972
1.33694
4.3634
4.61963
3.08835
3.7746
32.3719
4.08244
32.6729
3.04955
3.19393
4.3555
4.50949
4.31494
3.08292
3.10291
4.63729
2.44077
0.891886
31.684
25.3109
4.52658
4.54776
3.64659
4.59205
4.86378
4.59778
4.88443
5.17199
26.1916
0.84866
5.24634
-0.581344
27.032
0.188683
25.4201
2.37654
3.0654
4.42147
2.20108
32.2524
3.01452
4.7044
-0.637867
31.8929
4.80572
0.757384
4.03572
4.79595
4.83723
25.682
31.8622
2.22776
3.27542
1.78721
3.27162
2.95657
3.28419
4.97576
27.9139
0.308272
27.0869
3.42051
0.771018
3.51548
32.521
23.6957
4.59763
3.31496
2.4154
3.50752
31.8842
3.53524
3.5362
0.299786
3.52816
15.0111
9.95168
3.61071
32.322
31.7825
2.1735
14.6797
4.52858
32.5615
1.65132
32.1621
2.55528
32.159
1.05881
4.47054
4.2983
3.50448
3.70151
3.19101
4.21933
4.76248
0.358367
4.3909
2.03708
4.36781
30.9683
1.2178
31.7089
3.73107
3.7644
2.97823
2.67116
3.6763
0.507411
2.35521
3.59011
3.5989
4.44776
4.22646
4.71387
32.6507
3.61053
0.901092
2.90394
0.828852
3.65424
2.68957
1.21953
4.87866
3.29591
3.07551
3.30307
2.08755
3.73739
3.02072
31.7687
31.7442
3.16455
3.27745
4.03177
31.9536
1.86704
0.352489
3.14221
2.37846
1.52947
2.51138
2.13314
3.28806
0.0611956
1.91593
4.21136
1.61669
2.81094
2.55987
2.3385
4.23692
3.68998
1.60165
4.82623
3.46511
3.92152
1.38359
3.85052
3.06459
1.83292
0.627447
2.48347
3.24179
1.51508
1.22093
31.6223
3.80643
3.61964
3.90922
14.3561
3.81314
27.1904
2.20171
3.73591
0.580835
4.03993
32.1061
3.71
4.1705
-0.541852
3.90153
2.49488
4.1837
31.8765
2.58106
0.527482
4.15012
4.7215
3.54877
31.5825
31.9041
7.9618
29.9665
4.22211
32.2261
4.74107
7.99421
29.9561
30.1739
0.453749
30.6009
32.3959
4.19405
2.48036
32.6965
2.97031
2.21002
3.03114
-0.0709227
32.3963
4.70995
4.19552
4.06664
5.96491
32.3964
4.93278
4.1264
4.52491
31.8656
2.55203
4.11254
32.106
2.1948
32.3346
32.3565
4.75837
4.0811
32.4772
5.27605
4.85855
4.91194
4.81717
3.59433
4.76774
4.70704
3.73529
4.21454
32.654
2.10654
0.775953
1.45208
0.24222
4.85469
0.74113
2.20395
32.4528
32.2318
3.30973
4.77832
4.28171
2.08952
4.31075
2.37602
0.252736
31.9239
0.0011769
4.80647