/*--------------------------------*- C++ -*----------------------------------*\
  =========                 |
  \\      /  F ield         | OpenFOAM: The Open Source CFD Toolbox
   \\    /   O peration     | Website:  https://openfoam.org
    \\  /    A nd           | Version:  10
     \\/     M anipulation  |
\*---------------------------------------------------------------------------*/
FoamFile
{
    format      ascii;
    class       volScalarField;
    location    "4.2";
    object      SgT;
}
// * * * * * * * * * * * * * * * * * * * * * * * * * * * * * * * * * * * * * //

dimensions      [1 -1 -3 -1 0 0 0];

internalField   nonuniform List<scalar> 
111485
(
2.62826e-17
1.0185e-05
2.66964e-05
1.15554e-17
5.61018e-05
2.84397e-18
5.13378e-05
7.21511e-06
2.15457e-05
1.27254e-06
5.06964e-05
1.12726e-05
5.11954e-06
6.02819e-07
6.97729e-06
3.6698e-05
2.31941e-06
0.00295868
1.20867e-05
2.19593e-16
3.05554e-17
1.46994e-18
3.04103e-05
4.12677e-05
1.04812e-05
2.23133e-17
4.84798e-05
2.40472e-06
1.95628e-05
4.21622e-19
5.32454e-05
1.95854e-05
6.35245e-16
9.33606e-19
9.79716e-06
1.72131e-16
1.27917e-05
4.46589e-06
6.14098e-11
2.63034e-05
3.21214e-18
8.52362e-05
1.82302e-05
1.51258e-06
5.5324e-08
3.23332e-17
3.76682e-05
8.53739e-07
5.69984e-05
1.92247e-17
6.68535e-18
2.72598e-16
2.98461e-17
5.61132e-05
5.15072e-17
5.06121e-05
4.18645e-06
8.98654e-18
2.80832e-08
5.63913e-06
1.87893e-05
3.01823e-17
4.62127e-06
0.000110289
9.19642e-17
4.27885e-06
0.000371767
0.000115797
1.02687e-06
6.88662e-06
1.05295e-08
6.72994e-06
1.88369e-17
2.82233e-06
9.57056e-17
8.70001e-07
2.73937e-18
4.97321e-05
8.1548e-18
3.80011e-16
1.60169e-08
3.97342e-05
8.73598e-19
1.03101e-16
9.76237e-06
5.00278e-06
5.28418e-13
2.82778e-05
6.17348e-08
7.79247e-06
5.76715e-07
4.78999e-05
1.22101e-05
9.46607e-08
6.54889e-05
1.37238e-16
5.28373e-17
1.90001e-06
1.97636e-11
1.59778e-06
4.07092e-17
2.31365e-05
1.18734e-18
2.39888e-05
5.33732e-06
6.95656e-17
2.91999e-19
9.40756e-06
4.38591e-06
1.10831e-10
1.12101e-05
5.89446e-06
4.01744e-06
3.53873e-06
1.70975e-16
4.16129e-08
3.53409e-17
1.6945e-16
1.33583e-05
1.05679e-16
5.56863e-18
3.31012e-16
6.8347e-18
1.88487e-17
2.21851e-06
3.10484e-09
1.12838e-18
2.00367e-06
1.55434e-17
8.9966e-08
1.39449e-06
3.59856e-05
2.46554e-17
9.64328e-16
2.18449e-17
5.94613e-05
6.10597e-18
4.93372e-05
2.74831e-05
2.76067e-06
2.44146e-07
2.336e-06
2.57568e-05
3.5239e-06
4.52644e-06
1.44712e-05
2.01288e-18
1.78597e-17
6.4632e-17
3.16816e-05
2.14788e-06
3.58134e-17
1.99118e-10
6.24398e-06
5.91642e-10
1.28109e-05
1.91153e-05
1.27936e-05
1.13662e-10
4.60163e-18
2.2501e-17
6.37855e-05
2.86186e-05
3.28441e-09
3.62968e-10
5.59016e-06
4.45398e-06
2.92846e-17
7.67194e-09
6.4816e-08
6.63694e-19
3.22548e-17
1.62732e-07
1.71682e-19
8.65252e-06
2.75871e-06
6.73264e-18
7.39637e-17
2.18774e-17
2.30571e-16
4.01986e-18
4.10223e-17
1.59272e-06
8.02885e-06
3.41766e-05
5.24978e-06
8.42439e-06
3.82583e-06
1.06436e-07
3.05058e-17
4.41676e-06
7.7612e-18
6.13109e-18
6.57455e-06
1.26457e-05
3.02336e-05
1.37502e-05
4.35922e-06
4.76997e-17
7.70484e-06
7.23915e-07
5.44219e-08
1.50554e-05
2.71364e-06
1.38785e-16
3.94656e-06
3.1753e-05
1.03565e-16
2.39533e-07
8.79011e-06
2.7795e-06
3.86668e-07
1.94965e-17
2.63959e-16
7.85044e-06
8.93666e-15
0.000144798
4.24275e-18
6.77893e-06
2.22999e-05
0.000144624
6.24884e-18
2.84831e-06
1.59964e-05
3.52745e-16
3.33283e-18
2.27527e-18
0.000191164
4.55057e-10
9.79389e-17
7.94738e-18
1.00797e-05
1.09666e-05
1.81824e-05
4.92071e-17
1.94805e-16
1.27856e-08
1.34624e-17
2.7874e-06
9.88848e-06
1.75983e-05
1.19012e-05
1.10342e-05
6.84469e-18
3.54494e-10
6.6969e-07
6.18376e-18
1.67252e-18
3.6436e-05
2.56656e-05
6.05479e-17
6.61948e-06
1.1463e-05
2.65455e-17
7.15076e-16
1.71419e-07
4.31693e-18
1.45129e-17
4.6583e-08
2.31368e-17
1.81517e-05
1.32805e-05
4.16267e-06
3.86625e-17
1.29565e-05
6.00499e-19
2.52928e-17
1.22577e-17
3.17406e-11
2.71973e-05
6.31477e-06
5.71699e-06
4.4876e-05
1.2919e-05
2.00368e-06
7.13939e-07
4.1634e-05
1.16576e-05
1.69207e-17
4.70609e-17
3.5323e-10
2.5898e-05
2.81931e-05
1.46269e-05
1.40773e-17
7.83704e-06
2.52348e-06
3.28577e-06
5.00703e-09
4.69784e-09
1.52389e-05
2.39347e-06
2.22717e-06
6.61381e-17
9.25516e-07
1.82046e-18
2.24491e-10
2.52045e-16
0.000308357
8.28171e-05
1.58606e-05
4.32097e-17
2.92726e-18
1.01272e-05
2.41361e-06
4.19545e-17
4.42301e-17
8.47364e-17
4.88806e-07
7.79409e-05
4.29404e-06
1.75072e-05
2.29363e-05
9.64242e-17
4.76324e-18
2.94846e-17
4.18128e-06
1.97213e-15
1.39612e-06
0.000226242
5.40367e-10
2.90764e-19
6.33735e-17
5.23213e-17
8.56987e-16
6.92786e-05
1.464e-05
8.74275e-18
5.98997e-06
3.17066e-16
3.84985e-17
8.09828e-05
6.57531e-06
1.33557e-05
9.92819e-06
4.16223e-16
3.81832e-16
1.86758e-17
1.06164e-05
1.9997e-05
5.66737e-06
4.41375e-18
2.30289e-13
2.32705e-07
2.19837e-06
9.03916e-06
5.74109e-08
3.46932e-05
1.79579e-18
4.52501e-05
3.82754e-06
9.08488e-06
2.8636e-05
1.64386e-05
2.4024e-17
3.03675e-16
9.14352e-18
4.557e-18
3.79843e-05
1.07552e-05
4.32617e-05
8.16737e-05
8.57363e-19
2.31373e-05
1.68055e-18
5.78799e-17
1.92715e-05
1.33427e-17
6.62242e-05
2.00941e-16
1.07596e-17
2.7632e-05
9.02696e-18
1.79739e-05
4.29824e-07
4.5754e-19
1.27308e-06
1.83271e-05
6.01526e-17
9.14562e-06
1.22934e-05
8.87634e-06
6.46477e-07
3.97952e-06
9.23507e-06
5.04261e-16
5.68831e-17
1.8518e-06
2.83955e-17
6.62811e-06
0.000137498
5.9488e-17
1.6238e-17
3.12992e-05
1.32817e-07
8.7467e-06
2.65477e-05
1.71535e-18
5.06324e-05
2.37274e-05
8.2482e-19
8.99561e-07
3.1766e-06
2.28235e-17
7.04156e-17
1.5567e-05
5.80665e-06
1.82108e-17
8.74386e-18
2.20056e-11
6.11825e-17
1.39451e-05
3.89358e-18
5.31539e-17
2.09628e-05
2.4418e-09
1.59434e-05
3.30476e-05
4.85662e-18
2.15247e-16
1.46421e-06
3.17264e-17
1.55342e-07
1.48286e-05
0.000144942
0.00106245
8.48201e-18
3.18839e-06
4.20809e-07
2.25657e-16
4.4009e-05
3.95424e-05
5.78111e-17
1.13233e-11
1.2102e-07
3.18739e-16
2.97092e-05
3.09421e-05
1.63291e-05
5.80299e-18
7.06164e-07
2.29898e-05
2.67776e-05
9.66696e-10
1.86548e-16
5.96844e-13
9.53268e-18
1.8465e-08
3.91524e-05
2.37981e-17
1.09185e-05
9.92399e-08
2.49687e-16
1.24447e-17
3.06603e-17
1.00205e-16
4.88204e-06
1.18155e-05
7.84374e-06
2.82755e-06
3.76897e-06
6.53993e-18
2.75037e-06
7.37228e-17
4.52391e-05
8.33002e-18
2.7803e-17
4.46519e-17
4.10562e-05
5.81074e-17
1.08644e-16
2.99226e-10
1.68891e-17
1.36586e-17
1.15811e-06
5.29436e-17
2.71117e-16
8.63369e-18
2.99197e-18
1.29449e-16
1.21665e-16
8.65218e-18
9.24573e-06
2.25343e-17
5.17714e-07
2.17335e-06
1.53384e-06
1.21394e-17
8.59452e-07
2.54219e-17
3.09871e-17
3.31335e-06
2.2159e-06
3.35462e-05
2.80905e-05
3.35148e-17
2.38631e-06
9.10559e-05
1.06902e-05
1.36876e-06
3.92923e-06
6.66847e-17
2.80617e-05
4.32126e-16
5.3346e-06
1.39246e-17
8.63756e-05
2.76229e-16
2.64447e-05
3.73016e-07
2.0389e-10
4.40343e-18
2.72887e-06
2.02733e-17
9.53063e-05
5.57757e-05
6.55329e-18
4.46849e-18
2.34222e-16
1.45853e-18
1.52556e-12
6.5902e-05
3.50078e-19
1.95008e-17
3.37599e-06
8.05424e-19
3.80057e-05
5.06031e-18
4.10768e-07
9.89074e-17
6.41612e-07
1.09966e-09
1.41761e-06
1.52317e-05
2.14181e-17
3.31423e-07
1.85073e-17
2.91311e-18
1.85723e-05
4.80918e-18
4.07785e-08
6.42858e-17
1.79111e-06
2.09411e-16
7.81708e-05
2.7366e-17
1.34827e-16
1.83253e-05
4.13482e-06
1.91383e-06
4.84156e-06
7.41004e-06
2.53837e-05
5.19524e-18
2.68937e-05
7.85659e-06
1.37088e-18
9.58719e-11
4.349e-05
1.61383e-05
2.11579e-16
5.84309e-06
7.35808e-06
1.77601e-06
1.47876e-06
2.4859e-13
1.65031e-05
1.18534e-06
1.96902e-07
3.06507e-05
1.72774e-05
9.89596e-07
4.303e-17
3.73178e-12
0.000759748
5.73628e-17
4.98177e-07
8.60801e-18
3.84954e-16
8.68497e-06
3.85158e-06
2.11944e-10
1.37469e-08
7.19067e-16
2.0955e-05
1.27946e-05
4.45367e-18
1.12962e-13
2.24807e-06
2.45716e-17
5.66673e-18
3.31918e-18
8.67774e-17
1.76778e-05
3.44725e-18
2.5643e-17
1.13233e-05
3.43653e-06
8.70062e-17
1.18105e-05
1.47291e-16
9.47842e-06
1.6067e-17
2.11434e-17
6.65063e-05
7.39289e-18
3.87177e-17
7.0211e-16
6.13049e-06
1.54816e-16
3.77152e-05
7.92913e-06
1.94298e-17
9.35506e-05
3.09538e-06
3.26035e-05
3.1427e-05
9.78954e-07
1.01229e-07
3.83446e-18
6.64038e-05
5.12064e-05
9.72741e-17
4.19165e-07
4.80005e-05
8.52603e-06
1.86255e-06
3.17121e-05
3.01729e-05
1.62177e-17
1.27259e-05
5.98786e-09
1.14176e-16
3.9358e-05
3.27042e-07
6.83424e-17
1.29871e-05
4.7003e-05
1.75245e-06
2.35497e-05
2.15765e-05
9.31036e-06
4.36691e-16
1.13162e-05
4.07332e-07
1.56036e-14
1.86988e-05
1.91973e-05
4.17591e-05
4.7475e-18
2.69121e-06
5.02305e-17
5.86457e-18
1.44398e-17
2.55215e-18
1.84642e-08
3.78191e-16
2.10508e-13
8.62684e-17
1.9389e-17
7.8196e-08
4.92561e-05
2.39236e-17
4.21376e-05
6.22576e-18
2.35773e-16
1.07432e-16
4.76625e-05
5.6062e-07
3.55948e-16
6.71127e-17
1.72583e-18
6.37683e-19
0.000271454
8.38136e-05
2.63384e-16
2.22956e-06
3.71178e-09
6.44041e-18
4.32696e-05
8.79339e-06
1.65723e-05
2.9389e-18
7.96839e-18
4.23658e-07
1.25464e-06
3.15208e-16
5.09667e-18
1.12725e-16
7.48119e-06
4.90318e-18
1.96888e-16
1.04417e-17
4.80835e-05
2.27585e-06
9.20884e-19
0.00491623
0.000271806
1.37542e-05
1.84866e-17
1.57927e-18
6.77967e-05
4.17272e-07
9.00489e-17
7.63956e-09
0.00017131
3.29726e-06
1.45036e-05
2.25731e-16
6.70022e-05
2.03919e-06
2.71815e-17
3.97177e-17
1.57422e-18
6.75258e-19
2.50329e-18
4.00817e-19
2.47438e-05
8.74383e-17
3.503e-18
4.34874e-17
1.40167e-05
2.85008e-05
1.83264e-17
2.36115e-17
0.000126866
1.56148e-05
1.0593e-05
2.91145e-16
2.75337e-19
4.12363e-05
3.28148e-17
2.4139e-06
2.78795e-06
4.27449e-06
1.42421e-18
6.19797e-17
9.02964e-17
9.60912e-19
1.81681e-05
5.67689e-19
8.62249e-20
1.07795e-06
2.11461e-17
2.60256e-05
1.94958e-06
8.09608e-17
4.33686e-05
0.000601086
2.77965e-06
3.55843e-05
2.12278e-07
5.55033e-05
1.95137e-13
9.25693e-16
2.62308e-05
8.72629e-05
8.05757e-06
4.03828e-17
1.15575e-12
0.000786728
1.27514e-05
5.27301e-18
3.46134e-06
3.43367e-06
1.59557e-06
7.8256e-18
9.14781e-17
2.87246e-17
1.53143e-05
3.10673e-16
3.17766e-06
1.1637e-16
1.47592e-06
1.4464e-06
4.12056e-05
7.12993e-07
3.80154e-18
7.12388e-18
6.73043e-18
2.35187e-05
1.14237e-17
1.80974e-17
6.28013e-08
9.65133e-18
2.25141e-18
9.3356e-18
3.4948e-18
1.10451e-05
1.54479e-17
1.40778e-18
6.27456e-13
2.26687e-16
6.44084e-17
4.84619e-17
2.03275e-19
3.96211e-09
2.02416e-06
9.26714e-17
4.52613e-06
1.04727e-08
3.8126e-10
8.22587e-08
4.9699e-06
1.06951e-17
1.13644e-08
1.15559e-05
4.56469e-07
6.42003e-17
7.69908e-12
9.66238e-07
9.57941e-17
1.12889e-05
2.68664e-07
2.2369e-09
2.79194e-05
1.06558e-05
2.67663e-06
8.38995e-06
2.69538e-06
1.65245e-17
4.22491e-17
3.35733e-05
3.01702e-05
3.1685e-17
8.34938e-06
6.58684e-05
3.70149e-05
1.26192e-16
1.72569e-06
5.72321e-19
1.4085e-05
1.78186e-05
3.15191e-17
1.52622e-06
6.92195e-07
1.59217e-09
4.95493e-06
3.66373e-17
5.8549e-05
2.01281e-08
2.05165e-06
4.35191e-08
1.65578e-08
2.54255e-18
6.02292e-19
9.34925e-06
4.65712e-18
1.34397e-07
3.51745e-07
1.49193e-07
6.81775e-11
8.73062e-11
1.33593e-09
1.12175e-18
3.36883e-16
2.63094e-05
8.19327e-17
6.99287e-07
2.59739e-06
8.52284e-18
5.1467e-17
6.21641e-10
8.47374e-13
3.46488e-19
4.80348e-09
1.04657e-18
5.39269e-18
5.02175e-17
4.57355e-17
2.24859e-17
5.82876e-17
3.83017e-07
2.02967e-17
4.67499e-17
5.2234e-17
7.47646e-09
6.88006e-08
2.11899e-06
1.07834e-05
1.25524e-18
7.03172e-18
2.35613e-07
1.41819e-19
5.52846e-18
1.21847e-16
2.26496e-05
4.93591e-05
7.13431e-18
1.42946e-17
4.13548e-17
5.5342e-18
4.14213e-18
4.30294e-18
9.22698e-06
5.09856e-18
4.51616e-11
3.16512e-05
2.41373e-19
6.02065e-17
3.21333e-17
2.43874e-08
1.86703e-17
5.27959e-17
2.47588e-18
8.83945e-09
6.53901e-18
5.77214e-06
1.29134e-09
4.96188e-12
1.26813e-18
6.70626e-08
2.89375e-06
5.29191e-05
2.24289e-16
7.39982e-09
7.39888e-06
1.28686e-17
8.039e-18
3.62357e-16
2.29666e-17
9.33623e-06
2.79955e-06
4.35722e-06
2.12081e-10
3.6241e-19
2.81872e-05
3.07983e-17
7.04824e-17
3.12009e-16
1.86986e-18
3.09226e-05
6.0011e-18
3.7088e-17
2.50229e-09
6.54718e-05
4.21031e-17
3.22594e-06
2.30253e-16
1.20129e-06
2.97408e-16
4.06825e-18
1.56754e-17
3.30707e-17
3.33569e-06
7.77136e-07
0.000406255
8.40378e-18
1.90644e-16
2.59674e-06
5.16928e-19
3.26387e-16
5.79878e-17
4.79636e-05
8.41924e-09
3.44674e-05
6.00655e-17
9.92103e-09
4.54907e-08
6.07548e-16
1.09903e-07
4.24408e-17
1.79534e-06
3.15302e-05
2.51028e-05
1.68364e-06
3.26917e-07
3.35521e-18
1.01935e-18
1.01709e-18
2.07946e-08
1.63456e-17
7.53471e-06
2.17452e-17
0.000212898
6.01843e-18
5.03847e-05
3.72023e-06
4.47136e-17
3.56709e-18
5.99343e-17
1.04718e-17
4.27675e-05
4.66441e-17
3.36961e-16
1.60834e-05
7.31693e-06
2.90659e-16
3.63713e-16
4.31469e-16
3.57278e-16
2.75204e-17
1.6888e-18
2.74384e-05
5.40673e-07
2.76759e-17
2.35897e-18
4.6671e-10
2.07595e-17
1.7812e-06
1.00011e-07
3.61155e-17
3.59302e-06
4.57413e-17
3.63468e-07
1.09862e-17
1.07032e-06
1.20897e-17
1.21062e-10
2.40749e-09
8.90046e-07
1.9269e-05
3.65005e-05
1.26929e-09
1.51105e-17
5.16972e-07
1.6173e-17
5.29781e-06
2.06071e-17
8.14908e-19
1.70075e-16
5.67004e-18
9.52031e-18
4.22957e-18
7.62604e-06
8.35885e-06
2.74195e-17
6.44384e-17
6.42855e-17
7.4539e-07
1.82386e-08
2.00029e-16
2.22176e-05
2.41571e-07
4.27889e-17
2.97512e-05
1.09833e-05
3.93871e-06
1.51374e-05
8.65113e-19
1.16474e-17
5.20136e-19
6.73975e-18
4.3439e-05
3.47116e-17
0.000129319
1.38555e-18
3.0109e-07
8.67068e-07
9.46699e-18
9.33409e-07
6.1867e-18
3.81684e-18
3.09512e-06
3.10783e-11
8.67776e-06
4.98137e-18
1.34387e-17
3.35875e-18
8.10843e-07
5.23812e-17
6.26839e-17
1.18461e-16
4.61487e-10
1.56955e-16
1.10965e-08
6.20146e-17
5.11332e-17
4.2387e-18
2.3069e-05
1.51312e-05
2.15681e-05
4.13486e-05
6.03846e-17
1.37881e-08
4.11805e-18
2.05568e-17
1.33071e-05
2.30629e-17
3.07203e-09
3.50084e-07
8.00923e-06
3.5669e-07
1.04835e-12
2.69385e-06
5.07723e-18
1.04251e-12
8.61538e-13
1.26553e-07
1.17009e-06
1.73534e-05
8.02232e-11
1.78721e-17
3.64965e-05
2.6929e-17
1.98616e-17
2.42998e-08
8.87845e-05
8.90469e-11
6.70055e-19
8.1496e-19
4.64249e-10
7.01801e-18
4.5173e-18
1.62283e-08
6.69947e-17
7.24331e-17
4.79376e-05
2.08389e-07
1.61533e-07
2.75541e-05
8.74489e-06
1.15024e-17
1.89509e-18
1.05418e-08
5.1138e-06
5.63275e-18
7.3637e-17
1.27065e-05
1.39671e-16
3.73964e-17
2.45507e-16
2.64954e-16
6.04754e-16
0.00309244
8.83509e-18
2.4569e-07
2.14383e-17
2.16758e-05
4.9624e-18
1.58238e-15
2.20754e-16
1.33091e-16
1.48255e-17
9.94754e-18
3.94323e-06
1.64957e-18
6.89357e-18
1.15129e-16
9.10492e-18
2.00927e-17
9.74958e-19
1.18744e-05
1.2974e-18
1.43756e-05
3.1895e-06
3.58006e-18
1.95679e-06
1.16349e-18
5.13992e-07
2.09894e-09
5.58214e-06
1.89048e-05
2.26152e-17
1.11508e-07
1.05275e-05
8.0215e-09
4.60611e-17
2.03713e-09
2.13579e-05
3.88673e-06
2.41733e-16
2.88288e-05
9.67522e-17
1.41586e-17
6.19687e-18
6.39701e-18
8.62735e-06
1.55568e-17
1.03115e-17
8.93854e-06
1.57266e-10
2.01541e-06
2.96945e-18
5.2104e-17
7.95314e-07
7.93095e-19
1.22207e-07
1.14495e-17
2.82195e-05
1.32693e-17
1.44277e-17
6.60808e-08
2.36871e-17
1.40505e-07
3.59091e-17
2.08432e-17
7.30087e-06
4.87793e-07
6.33129e-06
2.06539e-05
0.000263245
2.39061e-05
1.32916e-18
1.29839e-15
2.91669e-06
7.96939e-06
4.23029e-05
1.45604e-05
2.68818e-18
1.39281e-05
2.12962e-18
1.41073e-17
9.75755e-06
1.205e-05
1.41052e-17
1.58862e-05
1.17783e-17
4.08447e-06
9.90915e-06
3.25487e-17
7.12461e-20
1.20603e-19
3.03892e-06
1.20789e-18
5.20694e-18
4.4903e-06
2.57847e-05
4.74676e-09
9.97004e-06
2.08234e-18
3.87156e-18
8.72765e-08
9.24051e-07
1.56034e-17
1.08464e-05
5.04214e-16
2.64996e-06
1.94181e-18
5.64405e-17
1.34093e-05
2.91854e-17
4.98522e-08
3.71142e-06
1.04075e-17
1.554e-18
4.47808e-06
3.11032e-14
6.34398e-05
5.54481e-17
0.000324866
6.94092e-17
3.61231e-17
1.59434e-17
7.90432e-06
2.81181e-16
1.11918e-17
6.19586e-06
9.11902e-17
2.5025e-07
2.84476e-16
4.65882e-17
3.91255e-18
1.65865e-10
8.64432e-07
1.63659e-17
5.89042e-18
4.23866e-05
1.05053e-06
4.05531e-18
6.0964e-07
2.07884e-18
7.64666e-17
1.58779e-09
3.65658e-06
1.18064e-06
1.85104e-17
6.77087e-18
5.26301e-18
1.44357e-18
3.46226e-17
3.10776e-17
6.21064e-19
1.12504e-18
1.73537e-17
4.54621e-18
6.40806e-19
8.82834e-17
5.0678e-18
3.3145e-18
6.21375e-18
4.41691e-18
1.24601e-17
3.7514e-18
5.47176e-18
8.4122e-18
4.94628e-17
2.16547e-05
3.89343e-18
1.52196e-17
2.72425e-17
7.4383e-06
7.36562e-17
9.60701e-18
0.000279623
1.95373e-16
8.79484e-18
2.61212e-05
7.78466e-16
4.82652e-20
6.89722e-06
2.82879e-05
9.91552e-19
2.10507e-06
3.51081e-06
4.9569e-17
1.45286e-05
4.62282e-05
1.95762e-05
3.32335e-06
1.15643e-05
1.56985e-16
2.00573e-17
3.72183e-06
1.329e-05
3.15841e-06
3.90431e-19
6.65679e-06
1.88977e-06
2.23875e-05
1.34435e-05
4.78996e-07
1.6066e-05
2.10251e-06
1.05039e-05
3.62769e-17
3.1166e-05
9.14361e-06
2.16288e-06
1.32902e-06
3.98082e-18
4.40347e-18
1.03365e-17
5.09752e-17
3.47328e-18
1.17807e-05
1.49138e-05
1.05129e-18
3.70859e-19
1.18735e-16
6.6083e-19
3.52886e-17
1.58898e-17
1.76205e-17
1.04778e-16
5.18547e-06
1.47786e-07
2.36025e-05
7.19665e-08
7.67636e-18
3.94783e-16
3.81784e-05
5.5442e-09
1.64263e-18
2.27207e-18
8.53562e-06
7.09352e-17
2.29525e-19
4.40355e-09
8.45168e-06
1.53926e-05
3.61873e-05
3.59519e-05
2.37797e-17
1.69316e-05
3.78218e-07
1.34388e-17
3.34058e-17
1.24816e-05
6.63129e-17
4.19614e-18
2.59192e-05
0.00122749
1.97406e-07
2.95998e-16
8.17268e-17
1.78668e-05
2.7197e-05
2.01753e-05
6.23971e-06
3.32528e-06
1.19076e-17
1.06716e-09
2.93636e-12
2.28958e-16
3.5282e-17
2.04607e-05
1.01851e-17
2.29536e-06
3.04285e-05
1.84558e-05
1.20544e-05
2.1389e-16
5.41633e-06
3.45182e-17
6.02533e-17
8.12008e-17
3.70683e-18
3.07632e-06
0.000943296
4.43927e-18
1.98993e-18
4.50156e-09
2.78003e-05
8.39259e-07
7.3426e-06
3.8222e-05
3.77428e-06
2.09697e-05
4.00416e-17
8.75614e-17
9.1227e-17
3.57117e-05
5.97549e-06
2.90308e-11
1.08256e-18
2.0583e-17
2.49119e-16
2.45039e-05
3.23101e-06
4.09323e-18
4.96726e-06
6.11461e-05
9.52788e-06
6.59633e-06
4.66416e-18
3.00071e-17
7.35455e-06
2.64035e-05
1.65008e-19
3.33694e-07
1.57909e-05
1.11238e-06
1.11037e-05
4.97449e-06
8.6781e-06
8.21239e-17
4.04161e-06
2.4235e-05
4.48024e-05
1.02133e-12
2.75155e-05
7.09802e-18
1.9038e-05
1.12871e-07
8.56376e-18
2.34477e-06
6.71779e-06
3.78999e-07
1.2651e-05
1.26051e-09
1.9067e-07
2.13586e-08
3.57652e-05
3.60356e-06
1.11206e-17
4.16432e-05
9.58906e-07
6.73879e-18
1.41024e-18
4.03908e-11
9.22737e-09
1.26419e-06
0.00125224
4.00159e-05
1.10752e-05
2.7078e-10
4.74288e-05
6.12932e-19
1.40654e-16
4.97428e-06
1.53031e-17
3.51433e-06
6.02177e-06
1.93841e-06
5.60433e-06
3.01056e-18
2.44325e-07
0.000123205
1.74207e-17
3.86117e-05
7.83063e-06
2.90211e-17
3.54318e-06
6.29453e-07
1.81148e-16
4.71467e-12
8.68258e-08
7.36957e-17
1.70933e-18
3.25285e-17
3.37835e-06
4.74491e-06
1.62521e-05
1.42556e-17
6.23067e-06
3.41206e-05
8.80408e-17
8.08465e-06
1.24627e-05
2.71409e-05
1.64677e-06
1.71012e-18
9.15461e-07
1.29254e-05
1.04106e-05
8.6776e-06
4.26924e-05
0.000181383
4.00058e-06
1.23533e-16
4.63655e-09
6.21974e-05
2.12549e-17
3.98987e-07
3.61188e-17
2.25326e-18
4.81304e-17
5.44401e-17
6.42731e-18
3.60913e-06
2.21607e-18
6.5277e-06
1.60124e-06
5.30943e-17
4.88969e-06
6.57278e-16
1.66905e-05
1.37867e-17
1.66982e-08
3.21188e-16
2.44411e-05
1.53649e-07
2.126e-09
3.68714e-06
2.9871e-05
1.96277e-05
4.23876e-06
2.48383e-05
4.5139e-15
2.13302e-05
6.03734e-05
9.34217e-06
5.63893e-17
1.35596e-06
3.5654e-07
5.7176e-06
1.34947e-05
7.54485e-07
1.99279e-16
2.48368e-16
3.80551e-18
4.59876e-06
7.76249e-17
9.5121e-08
1.66266e-07
9.05954e-07
3.11985e-07
3.67205e-17
2.93505e-17
1.87221e-18
8.54268e-06
2.44013e-05
1.7769e-06
8.79575e-09
2.10846e-06
7.29761e-06
2.93679e-06
1.0242e-06
7.98711e-06
7.22687e-06
2.70524e-06
6.02326e-17
2.82345e-18
2.5448e-17
1.55617e-05
1.14469e-05
1.85894e-16
1.02088e-18
2.6134e-16
9.3822e-06
2.29548e-05
3.67178e-17
2.22451e-06
2.62073e-17
6.22355e-10
6.04585e-06
9.46065e-05
1.38415e-17
1.3429e-17
4.5177e-06
2.44828e-17
8.54396e-08
1.29541e-05
5.13163e-17
1.1572e-05
3.82888e-05
1.8958e-05
4.76057e-18
1.13293e-06
7.3004e-17
8.77513e-08
5.58529e-05
1.03221e-16
6.11843e-18
1.293e-05
5.25763e-16
1.23235e-17
4.02703e-08
1.50092e-06
3.73749e-17
1.54523e-17
2.13467e-17
7.50704e-08
1.62904e-06
3.99479e-06
2.60565e-05
1.07383e-05
5.59686e-17
6.18931e-10
6.50523e-07
5.58704e-18
9.79634e-19
2.95179e-17
4.49838e-17
1.42604e-17
1.62364e-17
1.33584e-16
2.28879e-17
4.81718e-17
1.64363e-16
2.35759e-12
4.53139e-17
4.37016e-07
1.60254e-16
1.64575e-07
1.31494e-16
7.13467e-08
2.60353e-17
2.91622e-17
2.86589e-05
1.03702e-05
2.03795e-17
0.000103359
3.91988e-12
1.44313e-13
2.63857e-18
1.34363e-06
3.12288e-17
2.79443e-06
6.15869e-09
1.12749e-06
5.32894e-17
1.35818e-17
8.66582e-07
4.60599e-11
1.07997e-17
1.11204e-16
4.4638e-05
2.59091e-16
4.21954e-05
5.50441e-17
1.21616e-18
4.41973e-10
3.20573e-05
9.41717e-06
2.2737e-18
3.87132e-07
3.41624e-16
1.98748e-06
1.75059e-08
1.88677e-06
8.84602e-07
4.24414e-18
2.3184e-05
1.15575e-06
5.7784e-06
1.19541e-19
2.36862e-17
1.37608e-18
1.08344e-05
3.6054e-06
5.27429e-05
1.54203e-17
3.90345e-10
2.84925e-17
1.10266e-17
4.02244e-17
1.51479e-17
3.21044e-06
2.01857e-06
2.31659e-06
0.000350015
1.14502e-16
3.30518e-05
4.0002e-05
1.83034e-05
1.57797e-06
3.45881e-17
7.24869e-06
4.40304e-06
5.66895e-06
6.33449e-10
1.08651e-05
1.89285e-17
1.98785e-06
1.20068e-06
3.73924e-05
1.07167e-09
3.3311e-06
3.83977e-17
2.01378e-05
1.05532e-16
1.63564e-16
1.80442e-06
1.61216e-16
7.95567e-06
7.26873e-17
3.28562e-17
3.32047e-16
1.29685e-17
3.01768e-17
7.76576e-07
2.82563e-17
7.0363e-07
6.45944e-17
1.79339e-18
2.19477e-05
6.42859e-06
9.98165e-06
9.29397e-06
1.42301e-17
0.000642925
8.08913e-17
7.93627e-05
2.40301e-17
2.14737e-05
2.39755e-05
2.39159e-06
6.45867e-05
5.14052e-17
7.16379e-17
5.08386e-18
2.39101e-06
6.80174e-18
1.76183e-17
1.84797e-05
2.98947e-17
7.59271e-18
5.41643e-06
5.41899e-17
1.30166e-05
9.5278e-11
1.53514e-17
2.4494e-17
1.521e-17
1.94149e-06
6.95642e-06
3.4345e-17
2.47325e-05
3.29756e-07
4.94282e-17
0.000114708
3.65595e-17
1.67242e-05
2.00957e-05
3.90354e-06
1.17926e-16
1.99998e-05
1.06528e-05
8.46829e-07
5.38638e-06
1.3965e-05
3.82706e-18
1.34287e-16
1.85211e-09
3.38521e-17
8.37152e-19
2.54741e-17
2.13494e-05
4.87602e-05
5.1046e-06
2.05875e-06
4.22802e-17
5.18317e-05
5.19517e-05
4.61076e-06
3.1839e-06
9.15267e-06
2.38012e-05
2.70027e-06
8.0441e-18
3.55087e-18
3.1841e-18
6.94709e-06
1.66801e-18
2.95038e-05
1.32611e-16
8.36675e-07
4.44577e-10
2.70614e-06
2.9396e-05
1.74773e-18
8.08432e-17
2.63985e-06
3.88321e-07
2.17194e-17
4.3873e-18
4.20371e-17
5.05185e-08
2.9642e-07
1.39994e-07
8.11536e-07
9.5691e-06
9.89642e-05
5.52386e-17
4.60213e-17
8.07321e-18
4.19781e-06
2.17379e-05
2.14438e-05
3.65254e-05
2.56845e-06
2.88772e-06
1.25532e-17
7.30934e-17
2.03396e-16
8.43931e-18
9.21145e-06
2.36559e-05
2.16279e-17
9.2817e-17
1.53992e-16
7.60137e-17
5.50501e-17
5.01257e-17
1.41458e-05
3.97308e-16
1.3048e-06
0.000413053
1.6726e-17
1.80438e-08
2.40732e-05
3.97885e-07
1.36731e-17
5.05766e-17
5.07697e-06
1.73348e-17
1.52673e-05
1.28453e-09
2.70878e-05
4.26512e-17
2.59617e-15
1.04492e-18
4.70672e-18
8.48147e-17
6.80132e-17
0.000219209
3.17505e-17
5.93806e-06
1.44416e-06
2.82738e-17
3.38118e-16
2.14474e-06
3.67825e-17
1.43343e-18
1.67357e-05
8.94582e-08
4.21309e-17
1.38455e-16
1.4088e-17
1.71946e-05
4.91342e-17
8.02099e-17
3.90101e-07
2.65085e-06
3.18064e-06
3.67571e-17
2.46243e-17
7.31299e-18
3.82444e-06
1.85671e-06
1.31569e-05
3.6884e-06
2.44014e-18
6.8788e-07
1.53589e-05
7.25305e-06
1.00948e-17
1.23115e-16
1.01657e-17
2.00718e-17
9.6152e-17
3.26032e-05
7.973e-06
5.5461e-06
5.41007e-18
5.96701e-18
8.48012e-17
5.41333e-17
8.10886e-18
9.22221e-10
4.0122e-07
2.37462e-06
9.90481e-18
2.20927e-16
8.48451e-17
3.62093e-12
3.62848e-05
0.000123501
9.98936e-18
1.61614e-12
1.74013e-15
5.88401e-17
7.4939e-17
3.56341e-06
7.54058e-06
2.91158e-17
1.40522e-16
3.25438e-06
1.7399e-16
9.47457e-07
1.07762e-06
0.00244347
1.21704e-17
4.54028e-17
1.69293e-05
5.13041e-07
5.40125e-18
0.00077045
5.46538e-07
7.83567e-06
3.53013e-17
3.00132e-17
9.25927e-17
1.15835e-18
7.08016e-06
1.17508e-07
1.42243e-16
2.71197e-05
2.02336e-05
0.00101057
5.40904e-18
5.1618e-18
9.07924e-17
2.25741e-17
6.81052e-06
6.36089e-11
1.38199e-16
1.39197e-16
1.91249e-05
1.09712e-06
6.44114e-06
4.12268e-18
3.12839e-16
3.19779e-05
3.48415e-17
4.07306e-17
2.54468e-18
1.8134e-17
2.6315e-05
1.49493e-16
4.8094e-18
5.33038e-18
2.73383e-05
1.56092e-05
2.69113e-17
3.10206e-17
2.16593e-18
1.69428e-05
1.40101e-10
3.30968e-17
8.15044e-18
2.23266e-16
1.34364e-16
2.65956e-06
1.14158e-05
7.81078e-18
2.36387e-06
1.04978e-06
4.77334e-06
4.69345e-16
1.70563e-16
1.9795e-18
9.33738e-17
4.74179e-18
2.47128e-05
5.44789e-16
1.78573e-05
1.19246e-17
1.56014e-06
1.37192e-16
2.35388e-06
2.57746e-17
1.00896e-18
1.21872e-05
0.000230135
3.10514e-16
3.52968e-06
9.6887e-17
3.77933e-07
4.05274e-18
1.9831e-17
6.75876e-17
3.24448e-10
4.32095e-17
4.19993e-07
5.41616e-17
3.97636e-05
4.547e-19
3.96288e-16
2.37005e-18
5.09243e-17
7.72679e-09
1.45584e-07
4.92651e-18
5.35893e-06
4.65311e-18
3.75015e-06
2.24375e-05
1.25937e-06
2.26203e-17
4.44554e-09
4.35557e-07
1.98732e-09
5.73524e-06
4.38055e-10
1.6219e-06
3.00757e-16
3.46466e-18
4.43584e-10
5.29548e-06
2.42554e-07
7.63009e-17
2.44255e-17
8.91888e-17
0.000583314
1.92968e-16
3.58758e-18
1.4726e-17
1.51073e-16
6.36827e-17
8.26492e-08
1.80767e-07
1.08155e-06
4.77721e-08
4.30508e-16
1.41926e-06
2.22963e-17
7.2307e-06
8.52068e-17
5.04929e-17
1.1552e-18
5.68378e-17
2.06781e-08
2.81561e-17
1.1283e-16
8.79585e-17
1.71671e-05
7.72659e-17
1.31876e-17
1.2265e-05
1.38546e-16
6.06859e-05
0.000108366
0.000551006
2.0567e-17
0.000239351
0.001438
0.00174323
0.000786377
1.12251e-17
6.26299e-19
5.46774e-06
5.72331e-06
4.33565e-17
5.98119e-06
4.67808e-18
3.536e-05
5.30415e-17
4.13647e-17
6.6939e-07
1.1968e-16
1.36498e-16
1.02925e-08
3.77495e-08
4.4504e-17
3.75268e-18
2.24139e-09
5.83502e-17
2.56381e-17
2.48742e-08
9.02286e-06
1.45184e-06
1.0116e-16
7.97402e-06
2.1267e-16
3.3305e-06
4.87339e-10
7.42198e-06
1.16074e-17
6.0161e-12
5.93698e-06
4.5548e-17
1.46656e-12
5.15814e-18
3.65057e-05
4.97531e-18
1.137e-05
6.13741e-17
1.62149e-10
2.01448e-17
3.8612e-17
4.09514e-18
4.65535e-13
3.17138e-13
3.95275e-17
1.37006e-05
8.82809e-06
2.71433e-17
3.80621e-17
3.88435e-05
2.23553e-05
0.000211334
1.30881e-16
7.16818e-08
2.81032e-05
5.38261e-05
5.81671e-11
4.05074e-17
6.81253e-05
5.97642e-18
0.000257448
6.06282e-17
3.70449e-11
3.8444e-11
1.07311e-17
7.21728e-08
1.26801e-16
2.32627e-05
4.41014e-18
3.06246e-17
2.64879e-18
5.508e-17
1.28334e-16
1.03771e-17
3.40939e-07
1.87814e-06
0.000157757
4.3914e-17
7.99018e-17
4.73058e-05
2.8638e-17
5.62062e-19
2.21328e-17
8.51321e-17
1.28927e-17
5.55762e-06
1.17025e-17
5.65789e-17
2.96458e-19
3.12871e-06
1.96105e-16
1.38144e-17
7.12328e-18
3.16214e-06
6.62459e-19
5.4609e-06
0.000250494
5.21689e-06
6.11761e-06
2.4956e-05
7.13741e-17
5.91199e-17
3.33226e-17
3.46105e-06
2.17661e-06
4.0117e-18
1.01721e-15
5.82327e-07
5.7589e-16
7.15762e-17
0.000373686
1.80226e-17
2.48828e-05
1.89103e-17
2.44538e-06
4.07647e-06
1.28688e-16
6.94551e-19
4.78323e-17
6.19955e-18
3.99005e-17
2.24222e-05
1.66073e-16
4.13798e-06
9.45119e-18
2.12159e-17
6.77598e-06
9.88144e-18
1.57018e-05
7.90236e-17
8.87494e-18
2.49277e-06
1.08573e-07
0.000153888
4.78374e-16
5.51918e-17
4.43969e-18
4.97049e-06
0.000198934
8.16343e-18
4.96154e-18
3.60133e-16
1.12771e-06
6.20861e-17
2.40859e-05
3.1718e-05
3.1943e-16
1.26783e-17
6.33735e-06
1.41804e-16
4.64253e-17
2.15077e-18
5.1187e-18
3.47932e-18
7.36015e-05
1.60142e-16
2.28388e-16
1.30474e-17
3.00608e-17
3.18421e-17
9.68535e-19
4.84471e-17
2.06592e-17
1.98001e-16
1.04678e-05
1.68165e-16
7.9813e-06
5.00064e-17
2.71013e-17
0.000658548
2.80088e-06
1.27247e-17
4.67627e-17
2.66541e-17
2.21686e-06
8.21996e-17
6.57729e-17
2.39147e-16
1.11305e-16
6.34933e-06
5.34985e-18
3.83184e-06
1.04322e-16
1.16898e-05
2.5196e-17
6.47743e-05
2.11099e-16
1.03515e-16
2.15273e-05
2.71312e-17
5.42752e-17
3.20947e-05
3.33966e-07
4.47574e-17
2.242e-17
4.38032e-05
1.26165e-05
6.72011e-06
6.281e-07
1.4939e-06
1.89929e-05
7.81182e-07
6.09118e-06
4.73431e-17
2.84485e-05
5.23248e-17
1.85967e-17
1.07346e-17
7.09957e-17
7.966e-17
9.37899e-06
1.08814e-16
3.58299e-18
8.58052e-17
1.83865e-09
1.29563e-08
6.83256e-16
3.00089e-06
1.78265e-16
4.48824e-06
1.62713e-18
1.06087e-09
5.5715e-06
5.87416e-16
4.82747e-05
1.83561e-17
1.01997e-17
9.80217e-18
2.86267e-06
1.55154e-06
1.22853e-17
1.3136e-17
2.27601e-06
1.24806e-16
0.000735391
7.08909e-17
0.000104432
3.41643e-17
5.41132e-18
8.34496e-17
5.49635e-18
1.09662e-05
3.99454e-18
5.16771e-08
1.149e-18
1.04484e-05
4.64196e-17
2.3808e-17
6.65114e-15
4.62159e-16
3.03534e-17
3.27721e-16
3.31136e-16
8.86099e-18
4.87386e-06
0.000232922
1.94695e-16
7.13182e-19
4.62506e-07
3.82272e-20
6.94482e-18
1.97867e-09
1.98431e-05
1.85202e-07
6.80686e-18
4.39386e-07
4.13984e-06
5.71406e-06
9.74465e-06
6.29778e-17
4.45443e-17
5.91244e-17
3.01053e-17
2.23594e-18
5.4233e-19
1.63998e-17
1.98954e-17
2.90299e-17
5.29566e-18
2.86719e-18
2.59262e-18
8.40424e-05
3.27274e-18
1.55416e-17
1.90382e-12
2.00696e-16
2.47989e-17
0.00124918
1.62624e-18
3.0817e-18
1.90442e-06
1.73328e-12
4.20623e-17
2.23412e-16
2.59408e-17
2.45117e-05
5.92962e-17
4.97001e-17
4.5206e-11
1.60541e-18
5.13989e-17
6.45993e-18
1.1154e-17
0.00012519
7.45702e-18
2.28801e-07
3.02877e-18
2.1485e-17
3.70562e-17
2.9638e-17
6.24493e-18
3.12662e-11
5.3415e-11
1.69059e-07
6.06617e-17
5.31634e-17
7.49294e-17
1.21122e-10
1.16921e-17
3.05753e-10
2.04517e-11
2.29443e-18
2.14893e-17
1.24247e-16
1.38746e-11
1.70712e-17
5.27375e-17
1.87397e-12
6.10058e-16
3.62216e-05
1.29254e-17
7.16158e-06
2.93417e-16
2.35619e-09
2.3491e-17
1.74484e-06
7.21407e-19
4.81633e-06
2.55469e-05
1.13082e-18
2.90665e-06
1.252e-08
3.34712e-18
1.06179e-05
1.15627e-17
1.91249e-17
1.13783e-16
4.00531e-17
1.77767e-17
1.03546e-18
2.45365e-17
3.56746e-17
0.000299968
3.33056e-17
1.33767e-17
1.02084e-17
9.38213e-18
1.36047e-18
3.61273e-05
0.00094275
3.01776e-09
1.57484e-08
1.46493e-17
2.05463e-06
1.42124e-06
9.95901e-17
1.3837e-16
5.55555e-16
1.27198e-17
5.69455e-18
7.62949e-17
3.47197e-17
6.92577e-17
4.72713e-07
3.00261e-16
6.58393e-17
1.6177e-07
2.60574e-09
1.6964e-17
3.09679e-05
7.97525e-18
8.96019e-17
4.70971e-17
0.000193064
8.11473e-17
4.7918e-19
2.73828e-05
7.18273e-19
2.58271e-17
3.15695e-17
2.27825e-16
5.96482e-05
4.79188e-18
5.1259e-17
1.99265e-17
3.66853e-17