/*--------------------------------*- C++ -*----------------------------------*\
  =========                 |
  \\      /  F ield         | OpenFOAM: The Open Source CFD Toolbox
   \\    /   O peration     | Website:  https://openfoam.org
    \\  /    A nd           | Version:  10
     \\/     M anipulation  |
\*---------------------------------------------------------------------------*/
FoamFile
{
    format      ascii;
    class       volScalarField;
    location    "4.2";
    object      T;
}
// * * * * * * * * * * * * * * * * * * * * * * * * * * * * * * * * * * * * * //

dimensions      [0 0 0 1 0 0 0];

internalField   nonuniform List<scalar> 
111485
(
303.15
285.119
301.137
303.15
298.679
283.15
299.238
293.267
296.612
286.306
300.736
296.29
300.416
284.574
300.229
286.72
298.92
299.324
294.445
303.15
303.15
283.15
297.583
288.66
301.548
303.15
293.312
300.471
289.15
303.15
300.8
293.842
303.15
283.15
283.474
283.15
302.323
298.211
283.149
296.92
283.15
289.84
297.328
302.904
303.187
303.15
287.537
288.519
289.879
303.15
303.15
283.15
303.15
299.158
303.15
294.088
287.882
283.15
283.33
295.801
296.201
303.15
302.21
300.416
283.15
284.667
300.84
291.527
302.243
302.569
303.169
302.014
303.15
302.254
303.15
294.945
283.15
293.672
283.15
283.15
283.247
293.487
283.15
303.15
300.574
284.289
283.15
301.662
303.132
299.597
283.416
289.742
301.088
300.113
290.074
303.15
303.15
301.662
303.149
283.436
303.15
286.777
283.15
285.307
285.687
283.15
283.15
292.534
301.516
283.146
299.029
288.447
301.415
301.771
303.15
302.099
303.15
283.15
300.433
303.15
303.15
283.15
283.15
283.15
283.418
303.153
283.15
301.967
303.15
283.18
303.08
302.055
303.15
283.15
283.15
292.912
283.15
294.827
299.119
301.32
303.139
297.174
299.293
284.835
302.316
298.401
283.15
303.15
283.15
297.509
285.019
303.15
303.145
287.799
283.156
294.136
296.04
302.527
283.154
303.15
303.15
292.592
286.309
283.153
283.157
301.481
283.716
283.15
283.153
283.153
283.15
303.15
283.212
283.15
291.133
287.298
283.15
303.15
303.15
283.15
303.15
303.15
297.992
293.89
296.174
290.398
301.485
300.764
283.193
303.15
301.687
303.15
303.15
300.525
286.333
301.534
301.213
296.183
303.15
300.89
284.641
283.161
300.903
296.697
303.15
300.758
288.446
303.15
283.237
300.271
284.881
301.022
303.15
303.15
301.033
283.15
293.112
283.15
300.946
299.127
290.535
303.15
301.808
300.633
283.15
283.15
283.15
289.666
283.158
283.15
303.15
299.072
292.086
290.323
283.15
303.15
303.111
303.15
284.371
300.46
299.671
299.939
299.817
283.15
283.143
299.365
283.15
283.15
288.847
288.776
283.15
301.258
299.393
303.15
283.15
301.06
303.15
303.15
303.124
303.15
288.185
285.744
291.505
303.15
298.871
303.15
303.15
303.15
283.148
298.235
301.233
299.766
291.256
299.819
296.656
283.216
290.918
292.331
283.15
303.15
283.149
292.093
298.894
286.46
303.15
298.392
297.59
299.259
302.97
283.165
297.54
299.705
302.033
283.15
283.653
283.15
283.149
303.15
283.976
290.313
286.527
303.15
283.15
298.062
285.591
303.15
303.15
303.15
284.835
290.91
301.248
284.499
293.364
283.15
283.15
303.15
298.81
303.15
283.893
289.824
283.152
283.15
303.15
303.15
283.15
294.817
289.983
283.15
296.234
283.15
303.15
301.189
297.783
294.044
296.331
283.15
283.15
283.15
297.114
291.731
302.399
283.15
283.15
283.149
290.121
297.44
283.224
290.808
283.15
293.134
299.907
284.24
298.869
285.282
283.15
303.15
283.15
303.15
290.577
296.221
288.186
292.325
283.15
286.392
283.15
303.15
294.161
303.15
301.998
303.15
283.15
292.27
283.15
289.441
284.692
283.15
283.999
298.438
283.15
300.497
284.775
299.255
303.037
291.752
285.929
283.15
303.15
303.146
283.15
301.129
300.97
283.15
283.15
294.373
284.396
298.753
296.812
283.15
295.388
296.236
283.15
302.124
283.919
303.15
303.15
288.831
298.851
283.15
303.15
303.15
303.15
300.764
283.15
303.15
293.999
283.171
287.072
300.125
283.15
283.15
302.665
283.15
302.519
301.544
298.111
289.824
283.15
294.562
303.389
303.15
298.868
292.367
303.15
283.15
283.314
283.15
290.226
286.282
292.345
283.15
293.548
296.66
293.728
303.147
283.15
303.15
303.15
283.169
293.423
283.15
284.378
303.136
283.15
303.15
303.15
303.15
301.82
291.167
286.091
284.245
284.363
283.15
285.8
303.15
300.851
283.15
303.15
303.15
300.764
303.15
303.15
283.151
303.15
283.15
300.816
283.15
283.15
283.15
303.15
283.15
303.15
283.15
283.693
283.15
303.131
301.867
283.787
283.15
303.092
283.15
303.15
284.733
284.699
286.207
297.813
283.15
297.752
297.856
292.968
287.292
285.291
303.15
292.419
283.15
300.051
283.15
297.059
283.15
292.762
298.721
303.15
283.15
287.271
303.15
295.797
299.304
283.15
283.15
283.15
283.15
303.15
293.952
283.15
283.15
283.248
283.15
300.013
283.15
284.874
303.15
283.445
303.124
284.788
292.582
283.15
301.656
283.15
283.15
285.782
283.15
283.264
283.15
299.869
303.15
290.93
303.15
283.15
302.441
284.5
300.266
285.706
300.261
289.496
283.15
300.785
284.584
283.15
283.139
300.526
301.699
283.15
282.348
301.186
303.07
283.117
303.15
287.615
302.264
284.434
285.461
288.767
282.458
283.15
303.15
300.964
303.15
283.579
283.15
283.15
292.394
282.648
303.15
303.122
283.15
286.372
299.792
283.15
283.15
299.804
303.15
283.15
283.15
283.15
286.239
283.15
303.15
284.882
284.34
303.15
299.9
283.15
288.874
303.15
283.15
286.253
283.15
283.15
283.15
285.704
283.15
285.537
292.567
303.15
300.53
283.459
298.937
301.029
283.382
283.47
283.15
289.188
298.695
303.15
302.212
296.149
297.148
284.694
297.706
297.439
303.15
300.329
303.138
283.15
297.43
284.924
283.15
292.991
296.031
284.937
299.001
300.793
292.966
283.15
299.125
283.479
303.15
300.734
302.053
294.745
283.15
286.96
303.15
283.15
283.15
283.15
283.312
283.15
303.15
303.15
283.15
300.544
299.473
303.15
285.718
303.15
303.15
303.15
290.115
283.436
283.15
303.15
283.15
283.15
287.05
293.007
283.15
295.431
283.134
283.15
295.599
302.287
288.311
283.15
283.15
300.577
292.75
283.15
283.15
283.15
294.152
303.15
303.15
283.15
296.518
302.413
283.15
282.61
301.997
286.985
283.15
283.15
287.514
302.993
283.15
283.16
287.745
283.798
289.131
283.15
285.797
300.426
283.15
303.15
283.15
283.15
283.15
283.15
295.962
303.15
283.15
283.15
295.575
292.461
303.15
303.15
290.049
298.893
298.782
303.15
283.15
298.464
303.15
283.89
299.339
298.865
303.15
303.15
303.15
283.15
286.105
283.15
283.15
302.725
303.15
298.223
302.33
283.15
294.708
283.266
296.934
292.064
283.444
290.011
283.15
283.15
297.357
288.302
290.507
283.15
283.15
298.5
295.47
283.15
283.948
284.674
283.488
303.15
303.15
303.15
290.35
283.15
300.426
283.15
284.386
297.552
298.898
292.928
283.15
283.15
303.15
296.005
283.15
283.15
303.106
283.15
283.15
303.15
283.15
299.674
283.15
283.15
283.15
283.15
283.15
303.15
283.15
283.173
298.603
303.15
302.548
283.128
283.409
283.092
285.726
283.15
284.484
290.675
283.41
303.15
283.15
300.128
283.15
300.617
283.164
283.143
286.242
297.992
283.226
291.291
297.51
283.15
283.15
299.477
300.114
283.15
297.774
291.333
297.036
283.15
283.249
283.15
297.403
296.46
283.15
300.522
297.13
283.149
300.23
283.15
295.685
283.144
303.117
283.162
283.16
283.15
283.15
284.507
283.15
302.98
283.62
283.091
303.148
303.149
303.148
283.15
283.15
294.412
303.15
303.133
283.897
283.15
283.15
303.155
303.15
283.15
303.164
283.15
283.15
303.15
303.15
303.15
303.15
283.379
283.15
283.15
283.15
303.159
283.314
283.909
294.071
283.15
283.15
283.348
283.15
283.15
283.15
287.325
294.134
283.15
283.15
283.15
283.15
283.15
283.15
284.041
283.15
303.151
291.69
283.15
303.15
303.15
303.152
303.15
303.15
283.15
303.168
283.15
283.731
283.144
303.152
283.15
303.067
284.487
292.474
303.15
303.13
284.536
303.15
283.15
303.15
283.15
294.658
293.648
284.734
303.148
283.15
293.842
283.15
283.15
303.15
283.15
295.294
283.15
303.15
283.163
298.075
303.15
284.47
283.15
283.615
283.15
283.15
283.15
303.15
286.254
283.493
284.586
283.15
283.15
286.027
283.15
283.15
303.15
284.427
303.163
298.771
303.15
303.13
303.131
283.15
303.134
283.15
283.469
289.349
300.907
283.855
283.168
283.15
283.15
283.15
303.18
283.15
302.935
303.15
293.366
303.15
288.658
283.846
303.15
283.15
303.15
283.15
301.906
303.15
303.15
286.854
300.734
283.15
283.15
283.15
283.15
283.15
283.15
300.984
283.599
303.15
303.15
303.156
303.15
300.381
284.425
283.15
302.19
303.15
301.757
283.15
302.632
283.15
283.148
303.152
283.327
302.205
300.413
283.147
283.15
289.46
303.15
293.853
303.15
283.15
303.15
283.15
283.15
283.15
300.967
302.135
303.15
303.15
303.15
302.928
283.149
303.15
293.361
283.08
303.15
297.123
297.838
296.933
283.39
283.15
283.15
283.15
283.15
295.07
283.15
295.135
283.15
303.071
289.852
283.15
302.89
283.15
283.15
302.785
283.148
302.92
283.15
303.15
283.15
302.492
283.15
303.15
283.15
283.147
283.15
283.174
283.15
283.15
303.15
292.478
300.954
296.292
297.331
303.15
303.121
283.15
283.15
286.089
283.15
283.158
302.878
298.429
302.966
303.15
283.383
283.15
303.15
283.15
303.006
283.349
297.983
283.15
303.15
288.177
303.15
283.15
283.12
295.291
283.147
283.15
283.15
283.148
303.15
283.15
303.144
303.15
303.15
290.351
303.004
303.021
289.424
293.91
283.15
283.15
303.102
289.5
283.15
303.15
284.838
283.15
303.15
283.15
283.15
283.15
298.032
283.15
302.952
283.15
300.674
283.15
283.15
283.15
283.15
283.15
283.15
285.167
283.15
283.15
283.15
283.15
283.15
283.15
292.505
283.15
298.048
302.967
283.15
302.332
283.15
302.574
303.145
291.715
288.469
303.15
291.59
284.907
303.116
303.15
303.139
294.666
288.531
283.15
287.825
283.15
283.15
283.15
283.15
287.559
283.15
283.15
291.103
303.138
285.213
283.15
283.15
302.53
283.15
283.191
303.15
299.61
283.15
283.15
302.832
283.15
303.178
303.15
283.15
288.921
298.039
292.253
285.917
292.841
294.155
283.15
283.15
302.361
290.2
293.272
284.492
283.15
293.986
283.15
303.15
300.876
298.851
283.15
297.059
283.15
292.4
297.779
303.15
283.15
283.15
301.888
283.15
283.15
300.678
295.763
283.198
290.819
283.15
283.15
302.826
300.694
283.15
300.824
283.15
300.692
283.15
283.15
300.977
283.15
283.231
301.751
283.15
283.15
302.526
283.15
287.953
303.15
290.681
303.15
303.15
303.15
301.109
283.15
283.15
299.81
283.15
302.996
283.15
283.15
303.15
283.15
288.233
283.15
283.15
288.092
288.272
283.15
283.734
283.15
303.15
302.486
283.779
301.759
283.15
283.15
283.15
283.15
283.15
283.15
283.15
283.15
283.15
283.15
283.15
303.15
283.15
283.15
283.15
283.15
283.15
283.15
283.15
283.15
303.15
286.993
283.15
283.15
283.15
295.167
283.15
303.15
303.035
283.15
283.15
295.178
283.15
283.15
302.035
295.639
283.15
303.55
303.567
283.15
301.605
294.423
297.914
301.672
298.634
303.15
283.15
295.999
292.246
301.622
283.15
302.285
302.449
301.115
287.85
287.002
301.29
301.729
301.956
303.15
285.991
297.981
285.697
297.698
283.15
283.15
283.15
303.15
283.15
292.496
298.324
283.15
283.15
283.15
283.15
283.15
303.15
283.15
303.15
291.881
303.138
299.409
302.85
283.15
283.15
285.465
283.168
283.15
283.15
301.7
303.15
283.15
298.562
299.866
297.943
298.865
300.954
303.15
290.598
302.63
303.15
303.15
300.543
303.15
283.15
282.891
295.794
302.96
283.15
303.15
289.87
286.31
296.595
292.695
302.524
303.15
303.138
303.15
303.15
283.15
298.941
283.15
292.28
290.543
300
284.758
303.15
302.111
303.15
283.15
303.15
303.15
291.337
300.094
283.15
303.15
303.137
292.257
303.052
299.765
293.406
288.065
293.453
283.15
303.15
283.15
291.58
298.791
303.151
303.15
303.15
303.15
297.699
302.567
283.15
300.388
301.266
285.067
299.95
303.15
303.15
299.151
293.504
283.15
302.923
299.89
302.623
292.483
297.834
298.71
303.15
286.807
297.811
291.87
283.15
289.473
303.15
288.407
301.316
303.15
288.536
301.492
300.198
293.683
283.148
283.16
283.246
301.893
301.177
303.15
288.421
301.657
303.15
283.15
303.15
303.207
299.117
291.52
296.855
303.242
283.149
297.84
303.15
303.15
293.366
303.15
300.193
283.319
301.53
290.976
303.15
283.681
293.809
303.15
283.019
299.175
303.15
301.047
286.227
303.15
303.15
283.998
303.15
283.15
283.15
285.701
299.579
291.517
303.15
285.371
298.016
283.15
299.37
299.398
288.69
303.121
283.15
301.363
299.061
299.368
300.483
288.316
291.057
302.481
303.15
301.716
288.566
303.15
299.377
283.15
283.15
303.15
283.15
303.15
297.588
283.15
300.902
283.675
303.15
283.852
283.15
289.564
303.15
303.146
303.15
294.274
303.006
303.123
300.192
289.971
289.468
290.089
298.912
303.15
299.792
292.657
299.352
303.15
283.871
283.48
299.676
287.253
283.536
303.15
283.15
303.15
285.481
303.15
303.28
284.648
303.27
302.965
303.15
303.15
283.15
300.827
300.642
285.857
303.095
286.706
296.207
301.798
292.999
288.698
302.026
296.63
283.15
283.15
303.15
285.857
289.535
283.15
283.15
303.15
301.938
289.258
303.15
296.89
303.15
283.156
285.334
301.115
303.15
303.15
292.786
303.15
283.316
290.165
283.15
297.557
294.667
295.5
303.15
302.75
283.15
302.713
293.752
303.15
303.15
288.411
283.15
303.15
301.964
284.606
303.15
303.15
283.15
302.367
303.379
289.841
299.902
298.071
303.15
303.158
302.643
303.15
283.15
303.15
303.15
303.15
303.15
303.15
303.15
303.15
283.15
303.15
303.15
283.361
303.15
303.298
303.15
303.161
303.15
303.15
301.083
303.671
303.15
292.268
303.15
303.15
283.15
302.609
303.15
302.201
303.118
283.299
283.15
303.15
302.948
283.149
303.15
303.15
291.773
283.15
293.004
283.15
283.15
283.151
291.627
284.832
303.15
296.752
283.15
303.614
303.135
284.289
302.642
283.15
292.581
303.086
301.751
283.15
303.15
283.15
303.913
284.775
296.583
303.15
303.15
303.15
303.15
303.15
303.15
302.425
302.843
297.618
292.39
303.15
287.37
293.041
284.97
303.203
283.15
286.832
302.792
284.743
283.147
287.366
303.15
283.406
302.942
292.946
302.876
301.985
303.15
302.258
303.15
303.15
298.353
303.15
284.583
303.15
303.15
283.15
303.15
303.15
302.876
303.15
283.306
283.15
283.15
286.01
284.975
300.733
286.263
303.15
295.304
303.15
290.584
303.15
287.396
300.832
301.597
293.548
303.15
303.15
303.15
289.432
283.15
303.15
289.193
283.15
283.15
301.922
303.15
286.101
283.148
283.15
303.15
303.15
300.62
298.517
303.15
294.123
303.047
283.15
298.656
303.15
286.19
288.261
302.13
303.15
296.543
296.434
302.969
301.976
301.707
303.15
303.15
303.147
303.15
283.15
303.15
289.21
300.114
294.186
302.216
283.15
300.549
291.802
298.551
283.644
298.596
289.902
302.241
283.15
283.15
283.15
302.282
283.15
290.679
283.15
301.386
303.16
289.364
297.706
283.15
303.15
301.373
301.351
303.15
283.15
303.15
286.176
301.568
302.996
302.413
297.89
288.321
303.15
303.15
303.15
294.945
286.191
290.332
296.224
283.96
302.978
303.15
303.15
283.15
283.15
285.269
299.801
303.15
303.15
283.15
303.15
303.15
303.15
300.439
303.15
285.476
293.18
283.15
283.254
293.522
285.524
303.15
303.15
301.987
303.15
299.418
283.146
297.555
303.15
303.15
283.15
303.15
303.15
303.15
305.468
303.15
301.94
301.009
303.15
303.15
301.728
303.15
283.15
287.257
303.123
303.15
303.15
303.15
298.505
303.15
303.15
302.601
302.547
301.884
303.15
283.15
303.15
302.13
302.569
301.639
302.613
283.15
301.054
287.998
297.297
283.15
303.15
303.15
303.15
303.15
294.576
287.469
299.442
303.15
303.15
303.15
303.15
283.15
303.149
285.062
285.109
283.15
303.15
303.15
283.147
299.763
295.277
283.15
303.15
303.15
303.15
303.15
289.403
289.856
303.15
303.15
302.402
303.15
301.306
283.964
292.159
303.15
283.15
301
303.128
303.15
303.386
301.525
287.059
303.15
303.15
303.15
303.15
292.933
284.312
303.15
302.733
298.347
290.291
303.15
303.15
303.15
303.15
299.757
303.151
303.15
303.15
298.81
302.598
288.852
303.15
303.15
298.042
303.15
303.15
303.15
303.15
288.806
303.15
283.15
283.15
296.572
291.245
303.15
303.15
303.15
297.32
303.147
303.15
303.15
303.15
303.15
303.456
301.024
303.15
287.403
302.697
299.728
303.15
303.15
303.15
303.15
283.15
285.855
303.15
302.831
283.15
302.255
303.15
303.139
303.15
283.15
301.957
286.199
283.15
302.864
303.15
302.476
283.15
303.15
303.15
303.151
303.15
283.281
303.15
290.829
283.15
283.15
303.15
303.15
299.359
302.43
283.15
302.504
283.15
284.183
288.186
302.733
283.15
303.154
303.001
303.137
284.503
283.156
303.001
283.15
283.15
283.156
302.249
302.363
303.15
283.15
283.15
296.194
303.15
283.15
303.15
303.15
303.15
303.102
303.058
302.957
302.521
303.15
302.938
303.15
284.941
303.15
303.15
283.15
303.15
303.113
303.15
283.15
303.15
288.265
303.15
303.15
303.189
283.15
303.2
302.528
297.64
303.15
290.502
295.996
284.183
291.021
283.15
283.15
287.159
284.406
283.15
303.678
283.15
286.369
303.15
283.15
303.156
303.15
303.15
303.023
303.155
303.15
283.15
303.14
303.15
283.15
283.102
298.948
302.745
303.15
301.92
303.15
285.545
303.151
301.297
303.15
303.15
301.15
303.15
303.15
303.15
287.665
303.15
285.155
303.15
303.147
303.15
283.15
283.15
303.15
303.15
303.15
288.772
302.601
303.15
303.15
288.97
286.555
291.779
303.15
302.738
287.677
287.637
303.15
303.15
288.159
283.15
292.244
303.15
303.152
303.149
303.15
300.822
283.15
302.34
283.15
303.15
303.15
303.15
303.15
303.15
284.412
302.274
291.392
303.15
303.15
290.917
303.15
303.15
303.15
303.15
303.15
300.533
303.15
303.15
283.15
299.904
303.15
283.15
303.15
301.55
283.15
300.331
290.821
302.71
300.386
299.874
303.15
303.15
303.15
301.217
289.006
283.15
303.15
300.643
303.15
303.15
292.337
303.15
287.576
303.15
298.368
284.409
303.15
283.15
303.15
303.15
303.15
285.401
303.15
300.783
303.15
303.15
300.086
283.15
284.867
303.15
303.15
288.347
301.425
296.754
303.15
303.15
303.15
301.441
292.526
303.15
283.15
303.15
301.011
303.15
284.889
296.64
303.15
303.15
301.386
303.15
303.15
283.15
303.15
283.15
294.97
303.15
283.15
303.15
303.15
303.15
303.15
303.15
303.15
283.15
301.387
283.15
302.184
303.15
303.15
296.299
300.779
303.15
283.15
303.15
301.155
283.15
303.15
303.15
303.15
300.705
303.15
297.969
303.15
286.011
283.15
286.815
303.15
303.15
298.727
283.15
303.15
288.357
283.252
303.15
303.15
285.195
283.908
301.09
301.894
301.418
293.261
301.874
283.886
303.15
298.044
283.15
283.15
303.15
303.15
303.15
301.472
303.15
303.15
303.15
303.133
283.171
283.15
283.589
303.15
302.076
283.15
303.144
296.564
283.15
294.776
303.15
303.15
283.15
300.201
283.962
303.15
283.15
300.252
303.15
297.91
303.15
295.571
303.15
283.15
303.15
283.15
299.449
283.15
283.237
283.15
286.264
303.15
303.15
283.15
283.15
303.15
303.15
303.15
303.15
284.914
284.949
283.15
303.15
283.237
283.15
283.15
303.155
290.214
283.566
283.15
301.706
284.978
300.392
288.46
303.15
303.15
303.15
303.15
283.15
283.15
283.15
303.15
283.15
283.15
303.15
283.15
297.444
283.15
303.15
283.15
303.15
303.15
283.543
283.15
303.15
302.041
303.149
303.15
303.15
303.15
288.693
283.15
303.15
303.149
283.15
303.15
303.15
303.15
295.37
283.15
283.192
303.15
303.15
303.15
303.15
303.15
303.15
303.147
284.182
303.15
283.15
303.15
303.15
303.15
303.148
303.149
283.15
283.15
283.15
303.15
303.15
283.15
303.15
283.15
287.771
283.15
301.899
283.15
303.154
303.15
284.639
283.15
284.485
297.627
303.15
284.721
303.171
303.15
297.639
283.15
303.15
303.15
303.15
303.15
283.15
303.15
303.15
299.36
283.15
303.15
303.15
303.15
303.15
292.269
291.28
303.168
283.168
303.15
301.92
302.397
303.15
283.15
283.15
303.15
303.15
303.15
283.15
283.15
283.84
303.15
303.15
303.19
303.151
283.15
289.123
303.15
283.15
303.15
288.29
303.15
283.15
302.179
283.15
283.15
283.15
303.15
299.812
303.15
303.15
303.15
283.15
284.548
293.839
295.517
289.845
303.127
303.032
283.15
283.15
301.168
283.712
283.15
303.149
303.15
303.15
283.15
294.812
303.15
283.15
302.996
303.15
303.15
283.824
303.15
303.15
288.633
289.84
303.15
283.15
303.15
283.15
303.15
303.15
303.15
303.15
283.972
303.15
303.15
303.15
302.951
303.15
303.15
283.15
283.15
283.15
283.15
302.962
283.15
283.15
301.095
303.15
284.815
284.978
303.15
301.272
303.15
283.15
303.15
283.15
283.15
303.15
303.15
303.15
302.728
303.15
303.15
303.15
283.15
303.15
283.15
286.479
303.15
303.15
291.805
303.15
283.15
283.15
302.496
303.15
303.148
283.15
303.202
286.832
283.15
283.15
299.407
283.15
283.15
303.058
303.16
293.051
303.165
303.151
303.152
283.15
283.15
302.682
283.482
285.993
301.021
283.161
283.15
290.671
301.684
301.61
283.15
300.398
290.177
300.037
302.295
302.825
284.804
296.137
299.453
286.085
293.93
300.295
303.15
297.421
298.189
302.813
283.698
293.048
301.301
287.131
303.15
301.187
303.15
300.653
301.607
283.666
285.105
303.15
283.15
302.289
301.798
283.145
303.171
288.188
302.724
301.98
300.969
303.15
303.217
301.272
295.337
300.293
289.331
302.947
301.659
302.154
302.392
284.3
302.553
301.747
283.179
303.15
302.918
303.15
303.15
302.164
302.207
294.829
303.15
284.772
292.467
292.207
301.269
303.15
284.088
285.218
284.437
303.15
299.308
303.15
296.281
295.546
300.872
303.144
303.15
303.15
302.043
301.384
302.813
303.15
292.598
302.786
290.272
283.15
298.241
293.862
303.15
300.37
283.15
283.207
283.15
302.628
303.111
303.15
302.99
298.79
283.148
300.641
302.295
294.981
283.567
296.074
297.348
283.491
303.135
284.857
295.727
283.327
297.176
300.646
300.413
300.69
302.045
290.364
301.758
303.15
302.762
302.699
302.682
295.954
302.904
283.15
302.101
293.171
303.15
283.448
286.53
301.323
302.631
290.235
284.796
287.81
302.66
296.575
303.15
303.15
295.187
283.15
292.836
283.445
303.15
290.11
290.445
283.925
303.15
297.195
298.307
284.301
301.385
293.99
289.749
300.514
303.113
303.15
303.15
283.588
302.663
283.359
285.953
303.15
303.028
303.048
303.15
285.43
300.801
298.442
283.263
299.706
302.426
300.63
287.135
283.15
303.11
301.87
283.79
283.147
303.15
303.084
303.15
303.15
284.26
302.588
296.231
283.053
283.152
303.15
283.15
302.973
303.055
302.594
301.59
303.15
283.15
283.15
301.968
302.023
283.231
295.547
303.15
303.15
301.783
285.68
283.267
301.841
301.934
301.836
284.447
303.15
283.15
298.508
297.773
303.15
302.739
302.154
285.013
285.086
302.197
303.057
303.15
298.48
284.456
283.15
303.15
300.357
301.503
302.145
289.719
302.154
285.823
300.587
300.06
290.3
298.127
303.15
303.15
301.17
284.647
302.164
283.151
300.672
301.804
283.66
288.185
302.474
283.15
283.15
283.028
303.15
303.15
300.159
298.79
302.333
283.146
283.15
284
283.15
283.15
283.152
303.084
301.072
299.373
296.455
283.391
303.106
300.471
303.15
283.15
302.611
288.95
301.026
292.238
283.531
303.067
283.148
283.15
302.853
301.482
302.652
283.158
291.537
284.974
303.15
284.349
301.064
283.15
283.316
285.087
284.496
283.15
283.15
301.788
283.15
289.776
302.597
302.744
301.807
283.502
299.141
290.68
283.15
303.3
292.273
283.15
283.15
283.15
303.15
301.109
302.494
299.187
301.603
299.777
289.144
283.155
290.569
289.721
303.067
291.35
300.368
292.1
283.15
286.39
301.224
301.647
283.15
284.053
299.853
283.15
303.15
283.192
301.389
303.15
284.043
302.277
303.032
303.15
283.15
292.588
303.153
301.802
283.15
283.15
283.15
302.251
297.852
303.141
302.202
303.164
303.15
288.898
303.164
290.401
300.473
300.444
297.137
283.158
301.85
283.15
290.366
301.653
289.942
290.327
299.324
301.075
301.787
287.012
290.649
285.145
283.177
302.278
286.199
283.148
283.145
300.414
283.076
300.597
287.381
295.751
299.866
289.476
299.727
283.121
298.714
283.15
290.267
290.025
298.699
283.349
283.15
300.703
283.15
302.817
283.15
303.15
286.376
286.555
283.15
299.447
298.474
287.197
303.15
303.15
301.82
289.426
303.04
283.778
301.762
287.321
303.147
284.269
288.375
303.15
301.549
283.15
283.15
287.483
287.484
283.145
285.402
301.7
286.382
301.219
303.15
285.299
301.913
291.315
303.15
303.15
301.733
302.124
303.15
293.208
293.855
283.73
297.053
287.289
290.173
303.15
302.933
297.507
285.154
283.15
287.636
292.034
299.81
283.168
283.809
282.904
302.05
303.131
283.15
303.136
303.15
300.626
293.277
299.344
294.37
283.15
291.46
296.264
285.684
283.215
292.83
283.15
300.047
303.164
292.829
284.144
303.145
291.539
298.962
288.488
300.09
290.787
287.536
283.15
303.142
285.392
290.456
293.687
283.15
283.15
283.15
303.142
283.15
283.136
286.549
303.15
283.15
303.164
283.174
290.738
289.694
303.366
302.934
290.118
303.15
297.605
303.171
302.095
287.549
283.15
293.606
303.146
303.1
286.593
283.15
283.15
283.487
286.2
303.065
303.145
287.627
289.6
283.518
283.163
289.637
292.951
303.15
283.15
303.108
303.15
302.397
284.965
302.295
303.099
284.14
283.844
284.111
302.866
302.239
297.072
294.098
303.08
291.476
290.589
303.15
303.103
302.641
285.55
283.4
303.15
285.991
283.402
302.954
301.678
302.264
283.15
300.559
301.98
303.15
302.229
285.454
303.15
298.171
303.15
283.15
300.932
302.713
286.443
302.569
283.15
285.385
303.021
283.15
302.356
285.362
294.929
284.381
303.15
303.027
302.886
286.56
283.15
287.161
284.35
289.917
286.054
302.374
303.15
283.15
283.15
292.616
283.15
300.966
302.297
289.911
283.15
293.651
283.15
303.15
283.15
299.934
299.121
283.151
285.37
301.656
303.104
303.155
292.214
294.536
301.434
283.238
301.726
283.145
303.15
303.15
299.687
283.15
301.859
295.39
303.15
300.864
287.376
301.865
284.824
288.534
283.15
302.349
287.831
298.623
303.081
283.15
303.15
291.773
302.297
283.075
283.147
286.991
298.575
303.15
284.667
301.247
301.18
301.443
303.152
300.247
287.754
284.991
301.813
300.205
283.771
283.094
303.158
303.149
303.15
297.929
283.162
283.15
303.15
303.149
289.87
298.653
300.064
287.877
302.823
303.15
286.189
301.617
303.15
300.879
283.814
301.591
303.15
284.684
301.24
294.947
302.767
303.15
303.15
285.269
295.699
296.988
287.789
303.15
303.15
283.15
287.282
302.449
296.767
303.15
285.706
303.15
303.15
300.127
288.627
283.15
296.133
296.483
298.676
283.15
303.15
292.342
287.29
303.15
298.506
300.908
300.814
303.15
303.15
303.15
300.643
298.867
302.825
300.323
283.15
292.359
287.801
290.919
300.719
303.15
303.15
301.122
303.105
286.723
296.446
303.15
303.148
283.15
286.386
299.148
285.651
303.15
303.15
283.36
303.127
303.15
303.15
283.15
290.349
303.15
303.15
284.685
299.322
283.15
303.15
284.643
301.571
300.494
287.038
294.642
303.15
283.516
303.15
303.15
283.299
300.762
290.472
300.695
303.15
303.135
302.218
293.074
299.92
301.446
284.473
283.492
300.843
298.919
303.15
302.791
284.231
300.207
301.569
287.893
303.15
297.349
301.595
301.675
301.715
292.393
303.15
283.15
299.254
283.15
283.15
287.761
283.15
284.013
283.15
283.15
283.15
283.15
302.785
287.718
302.74
283.15
296.247
290.803
284.802
283.15
303.15
302.719
301.76
303.183
302.678
283.15
295.406
300.6
289.826
283.15
283.15
299.921
285.72
283.15
283.15
303.149
290.574
283.15
287.288
303.15
303.152
284.322
283.15
288.462
293.375
300.555
293.976
302.97
285.763
302.553
295.194
286.34
283.15
283.562
291.758
303.096
289.345
302.686
283.15
292.179
287.764
300.935
301.218
285.027
303.118
285.166
297.288
302.992
303.148
284.993
303.146
303.017
293.398
302.686
283.15
303.15
303.15
294.914
291.223
283.155
301.217
284.719
284.173
284.672
303.145
288.302
300.777
283.15
283.15
302.546
303.151
294.71
302.919
303.18
299.981
303.214
302.91
283.15
301.577
302.905
283.15
303.15
301.202
303.15
284.415
298.955
283.166
291.891
283.15
287.593
303.03
300.195
283.15
303.037
290.422
301.298
303.133
303.083
283.15
283.15
301.877
302.079
283.813
302.847
302.463
302.444
303.141
283.15
294.383
283.15
302.825
287.793
303
303.15
283.15
302.857
285.234
291.361
302.128
283.15
302.621
302.073
301.721
302.528
303.055
303.198
303.021
303.15
283.15
301.5
298.029
303.092
303.15
290.379
285.197
303.15
283.15
285.538
303.183
303.163
302.934
301.233
284.343
303.103
290.791
293.757
303.148
289.127
303.162
283.15
290.331
283.15
300.116
298.363
284.854
288.27
299.748
296.087
295.263
299.32
293.886
303.152
293.907
296.612
283.158
299.524
293.398
303.15
299.405
299.295
303.15
291.792
303.17
301.737
303.15
286.955
285.995
302.816
289.664
283.15
283.15
300.436
301.127
283.767
283.15
303.15
300.337
302.383
300.848
300.21
302.812
292.399
289.637
286.656
292.209
284.337
290.839
283.313
295.616
290.288
294.05
287.293
284.27
303.162
283.279
303.147
285.898
300.825
283.151
300.137
297.887
288.673
302.114
285.388
299.292
283.15
302.966
283.156
283.11
288.059
299.79
303.15
300.249
303.031
299.901
302.785
303.15
301.366
284.993
295.587
302.111
303.149
283.722
283.15
290.659
285.086
285.804
303.15
303.149
283.15
283.15
283.178
303.15
293.545
303.15
303.156
295.218
303.43
303.15
300.135
303.15
303.15
293.743
290.553
303.15
289.821
302.164
289.55
303.15
303.15
286.143
283.347
290.427
303.216
303.15
303.146
285.522
283.272
283.15
289.022
287.733
303.15
284.312
303.15
303.15
303.133
287.381
303.15
303.147
283.289
303.152
302.692
287.939
283.151
283.641
297.358
290.892
303.15
285.934
284.63
301.499
287.078
302.264
290.104
293.868
303.15
303.15
284.03
303.152
302.966
295.599
302.963
302.769
287.142
283.15
285.531
283.224
297.704
302.632
285.669
303.15
283.845
286.744
303.129
283.177
303.15
286.667
283.15
299.74
303.15
299.861
300.081
283.318
283.38
302.357
291.549
301.352
303.15
301.481
301.821
303.15
303.15
298.454
293.704
283.15
289.074
303.15
294.784
283.377
303.15
296.971
298.924
289.024
303.15
302.781
294.851
295.663
284.488
303.161
299.192
296.373
283.985
303.128
302.823
287.515
298.655
289.431
290.551
289.723
283.15
302.97
303.151
303.15
303.168
293.385
296.555
302.983
301.374
303.15
284.379
303.15
303.054
302.874
303.15
293.862
296.202
303.15
285.47
303.101
303.15
303.099
303.155
286.193
293.686
291.021
288.398
292.847
303.15
301.478
291.732
295.494
293.52
303.141
303.15
300.627
303.185
284.387
303.185
303.15
303.15
303.143
303.15
285.031
303.15
284.295
303.146
303.15
290.402
303.145
292.797
295.584
303.135
295.741
285.769
283.444
303.129
302.944
284.75
283.15
297.059
303.15
285.578
302.927
302.161
303.024
298.456
287.179
303.15
298.455
289.898
299.472
283.15
283.649
303.15
303.145
303.188
293.622
303.15
292.517
289.304
303.192
303.15
284.896
299.232
293.585
299.977
302.521
301.478
300.639
303.15
284.707
296.834
302.382
285.718
297.92
292.148
284.537
292.073
303.15
286.862
292.287
289.634
299.723
303.15
286.383
284.054
303.15
302.518
288.142
302.028
283.15
303.15
300.083
301.83
289.574
302.111
301.924
301.987
303.15
289.722
285.171
302.07
302.322
297.367
303.15
283.204
303.15
302.11
303.15
302.853
303.15
291.961
303.15
296.766
283.15
289.766
303.15
283.15
291.545
301.681
300.704
289.228
300.785
303.15
302.529
303.15
302.31
285.501
303.15
300.689
290.283
303.15
301.055
303.15
303.15
292.777
283.15
285.634
293.269
301.162
303.15
291.789
294.265
288.251
289.445
287.995
299.211
300.131
301.042
287.431
287.109
301.491
283.15
303.15
303.15
303.15