/*--------------------------------*- C++ -*----------------------------------*\
  =========                 |
  \\      /  F ield         | OpenFOAM: The Open Source CFD Toolbox
   \\    /   O peration     | Website:  https://openfoam.org
    \\  /    A nd           | Version:  10
     \\/     M anipulation  |
\*---------------------------------------------------------------------------*/
FoamFile
{
    format      ascii;
    class       surfaceScalarField;
    location    "7";
    object      phi;
}
// * * * * * * * * * * * * * * * * * * * * * * * * * * * * * * * * * * * * * //

dimensions      [0 3 -1 0 0 0 0];

internalField   nonuniform List<scalar> 
109758
(
-4.08431e-06
0.00122016
-0.00121608
-0.00124961
0.00128644
-3.68282e-05
0.000104624
-0.00114794
0.00104332
-0.00144113
8.63041e-05
0.00135482
0.00146501
-0.000168978
-0.00126116
-3.48713e-05
-0.00040529
0.000396321
8.9685e-06
-0.00110466
-6.36196e-06
0.00111103
0.00202678
-0.000257888
-0.000385343
-0.00138355
-2.40814e-05
0.000850184
1.47283e-05
-0.000840831
0.00046645
-7.24324e-05
0.000596752
-0.00099077
-4.48308e-06
0.000586883
-0.000582399
0.00187289
-0.00152601
-0.00143682
0.00108994
0.000320878
0.00125915
-0.00143782
-0.000142206
0.00118799
-0.00121917
3.11837e-05
-0.000976317
0.00110989
0.00133143
0.000691437
-0.000946134
-0.000684479
0.000939176
0.000819083
-0.0015736
0.00140348
-0.000648962
0.00148522
0.000242114
-0.00110237
-0.000624961
0.00149778
0.000227977
-0.0012099
-0.000515858
-0.0014318
0.000169783
-0.000108413
0.00137043
0.000215871
-0.000290545
7.4673e-05
-2.48607e-05
-0.00119857
0.00028499
0.00093844
-0.000274058
0.0008483
-0.000574242
0.000251248
-0.000301532
0.00102946
0.00116157
0.00042028
-0.000406032
-0.00117582
1.78162e-05
0.000563216
0.000904186
0.00124045
0.0015144
-0.00193952
-0.000815338
-0.00110348
0.00109196
1.15228e-05
3.3499e-05
0.00112807
0.00147673
-0.00101581
0.000785085
-0.001246
-0.00150051
0.00156966
-8.62904e-05
1.71351e-05
-4.98871e-05
0.000604478
-0.000554591
-1.45464e-05
0.000898742
-3.47619e-05
-0.000849434
-0.000833445
0.000828355
5.09001e-06
-0.000124034
-0.0013166
0.00110427
0.00033636
-0.00115955
0.00212041
-0.000718742
0.000577404
0.000167205
-0.000744609
0.000198207
0.00103762
-0.00147263
0.000236806
-0.000252755
-0.00111797
7.10332e-06
0.00136362
0.00113413
4.00513e-06
-0.00113814
0.0016749
-0.00110579
0.000734612
-0.00130372
-0.000392233
-0.000504916
0.000676485
0.000220664
-3.45786e-05
3.34241e-05
0.00167605
-0.00144826
0.0014265
1.33071e-05
8.45955e-06
0.000796984
-0.000798003
1.01911e-06
0.000334516
-0.00214676
-0.000333252
0.0021455
0.000997076
-0.000282281
-0.000251294
-0.000463502
-0.00111409
0.00138985
-0.000195412
-8.03463e-05
1.68186e-05
0.00102348
-0.00104029
-0.00224964
0.00014332
0.00018757
0.00191875
0.00107819
-0.000521643
0.000518965
-0.00107551
0.000398365
0.000616527
1.51288e-05
0.00139796
-0.00141309
-0.00105968
0.0010619
-2.21393e-06
-0.00121975
0.00125325
-0.000328787
-0.00175194
-0.000430181
0.00251091
-0.00228176
0.0031813
-0.000666689
-0.000232852
-0.0011132
0.000981901
0.00116605
-0.00103475
-0.00180291
0.000708252
-5.92029e-05
0.00115386
-0.00071654
0.000262688
0.000645107
-0.000191255
-0.00149508
0.00142349
7.15896e-05
-0.00323195
0.000189574
0.00163045
0.00141193
-0.000312869
0.00130051
-0.00124881
0.000261171
0.00156736
0.00151374
-0.00189108
-0.00113822
0.00151557
-0.00190336
0.000923423
0.000514893
0.000465046
0.00139194
-0.00154014
-0.000857616
0.00100581
-0.00147474
9.84469e-05
0.000348047
0.00102824
-0.00112184
-0.000798294
0.000445395
0.00107538
-7.6545e-05
-9.44375e-05
-0.000904396
0.00100265
-0.000587725
0.000369475
-0.000784404
0.00141618
5.17869e-05
0.000601496
-0.00206946
-0.000519054
0.000190966
0.000328088
-0.00211863
0.00135027
0.00158038
-0.000812027
0.000803016
-0.000759574
-4.34415e-05
-0.000628365
0.000201998
-0.00169226
0.0001076
-0.00088236
-0.000284921
-0.000271547
5.726e-05
-0.000864594
0.00107888
0.0017417
-0.00158218
-0.000333102
0.000173586
-0.00170434
0.00153551
-0.00105092
0.00119537
-0.000807831
-0.00100216
0.000614628
-0.000649952
0.00269623
-0.00134795
-0.000698336
-0.000152496
8.25124e-05
0.00152955
-0.00145957
3.70023e-05
0.00216948
0.000227742
-0.00243422
0.000863671
-0.00157226
-0.000132651
0.000841243
0.0012403
-0.000233533
-0.000899169
0.00012869
0.000992397
-0.00135991
0.000238823
0.000546841
0.00205076
0.000129997
-0.00272759
0.000959463
-0.0011291
0.000178891
-9.25119e-06
0.000655402
0.000736749
-0.00276584
0.00137369
0.000933346
-0.000103613
6.15108e-05
-0.000891244
0.00199619
-0.00149689
-0.00297663
0.00247733
0.00168409
-0.00189832
0.000843783
-0.000629549
2.01935e-05
-0.00159218
0.00146425
0.000107738
0.00164703
-0.00115312
-0.000363175
-0.000130734
0.000889247
2.05944e-05
-0.000909841
-0.00169518
0.000291879
0.00118564
0.00021766
0.0011157
0.000745279
0.00057211
-0.00243309
0.00091522
-0.00165094
0.00114833
0.0024909
-0.00144463
-0.0021946
0.000915362
-1.41782e-07
-0.000367105
0.00119239
0.00120026
-0.00202554
0.00104865
0.000301
-0.000148974
-0.00120067
8.15993e-05
0.00092261
-0.00100421
0.00141295
-0.000116423
5.54617e-05
-0.00135199
-0.000577818
-1.89727e-06
0.000579716
-0.00132551
0.00102301
-0.000799871
-0.000236821
0.00179453
-0.00188713
0.000329419
0.000431733
-0.000362696
-0.00145296
0.00138392
0.00028766
-0.00029334
-0.000681624
0.000687304
-0.000369112
-0.000988407
0.00123623
0.00012129
0.000449782
-0.00122208
0.00127141
-0.000499103
0.000925777
0.000281464
-9.27595e-06
-0.000549471
-9.87665e-05
0.000657513
0.000179843
0.000354463
-0.00204157
0.00150727
-0.00131131
0.000166163
0.00134748
-0.000202334
0.000975774
0.000158376
9.88427e-05
-0.00123299
0.000206014
0.00076976
0.0014354
0.000289858
-0.00156688
-0.000766595
-0.000873121
0.00130308
0.00033664
0.00135706
0.000183839
0.0001995
-0.0017404
-0.00147125
0.00125753
-0.000412941
0.000626657
0.00134972
0.00029169
-0.00104629
0.00117825
-0.00108749
0.000955527
0.00146428
-0.000211018
-0.000286999
-0.000966268
4.04018e-05
-0.00160555
0.00174092
-0.000175771
-0.00152898
-3.63021e-05
-0.000421848
0.00198713
0.000938762
0.000505926
-0.00148564
4.09556e-05
-0.00101961
9.50839e-05
0.000895364
2.9166e-05
0.000183651
5.68178e-05
-0.00187838
0.00163791
-0.000926868
-6.50241e-06
0.00093337
0.000192602
0.00132978
-0.00133873
-0.0010603
0.00142048
-0.000773289
0.00041311
-0.00121288
-0.000777092
0.00157869
0.000411278
0.00126131
0.000242845
-0.000717391
-0.000786767
-0.00200526
-2.79232e-05
-0.00028299
0.00231617
-0.00129142
-0.00077578
0.000564504
0.00150269
0.0017766
-0.00174077
-0.000112089
7.62624e-05
-0.000263926
-0.000788162
-0.000699852
0.00145903
0.00108111
0.000270171
-0.00281031
0.00211493
0.000268882
-0.00234681
0.000214844
0.0011053
-0.00132014
3.54473e-05
-0.0010873
0.00105186
-0.00103227
-0.000214142
0.000196876
0.00104953
9.20954e-05
0.00134389
-0.00128224
-0.00015375
-0.00221737
-0.00025465
0.000575868
0.00189615
0.0012262
-0.00129727
0.00110975
-0.00103869
0.000159082
0.00014328
0.000923841
-0.00087556
0.000848977
2.65832e-05
-0.000940256
2.76071e-05
0.00136606
-0.000453407
0.000266646
-0.000672648
-0.000494789
0.00090079
0.000674129
-0.000701997
2.78674e-05
-0.000964307
0.000913099
-0.000220339
-5.08612e-05
-0.00101411
-1.10657e-05
0.00107604
0.00171187
-0.000193217
-0.00108619
-0.000432461
-0.000409536
-0.00187117
0.00251149
-0.000230787
-0.00162326
0.000562158
-0.00135895
0.00151742
-0.000158465
-0.000732147
0.000661871
-0.00103093
0.0011012
0.000547624
-0.000670424
-0.000497506
0.000620306
-0.000919911
-0.00126121
0.00100199
0.00117913
5.03349e-05
0.00141449
-0.000141663
-0.00132316
-0.000353568
0.0016916
-0.000283901
-0.00105413
-0.00162418
0.00137526
-0.000100507
0.000349433
-0.00117126
0.000935344
-0.00101232
0.00124823
0.00121005
7.47474e-06
-0.00121753
-0.00179998
0.000388509
0.00175952
-0.000344163
0.00142374
-0.00107957
8.91791e-05
0.00146127
-0.00155045
0.000197321
0.00123321
-0.00189188
0.000461341
-0.000949017
-0.000987775
0.00105936
0.00087743
0.000691569
-0.000198506
0.00050959
-0.00141735
0.00148057
-3.82402e-05
-2.49801e-05
-0.00141507
1.47866e-05
-1.70589e-05
0.000750834
-0.000449924
0.00185063
-0.00215154
-6.94866e-05
0.0018104
-0.00174091
-0.00118324
0.000849674
-6.58751e-06
0.000340156
-0.000903569
-0.00109673
0.0020003
-0.000673726
-0.000254534
0.000928261
0.00100948
1.06842e-05
-0.00102016
-0.00159158
-2.56958e-05
0.00130763
0.000309651
-0.000465497
0.000655389
0.000861799
-0.00105169
-0.00177347
0.000483156
0.000824812
0.00172331
-0.00271384
0.000574583
0.000415943
-0.00144202
0.00145485
-3.90708e-05
2.62449e-05
0.00198139
-0.00198115
-1.34397e-05
1.31998e-05
-0.00112281
1.37601e-05
0.000278973
0.000830075
7.70319e-05
-0.00113893
0.00106189
-0.00123202
-0.00174862
0.0011865
0.00179414
0.000148852
0.0016123
-0.000746523
-0.00101463
1.92922e-05
-0.00156025
-2.2331e-05
0.00156329
0.000255311
0.00139836
0.000329513
-0.00198318
0.00020325
0.00139607
-0.00147414
-0.000125181
-7.42603e-05
-0.00109751
0.00137502
-0.000909062
-0.000770524
0.000389336
0.00129025
0.000845141
4.72281e-05
-0.00089237
0.00135814
0.00130338
-0.00157367
-0.00108785
1.89289e-05
-0.00108521
0.00106629
0.000301675
0.000130975
6.13545e-05
-0.000494005
-0.00144637
-2.27147e-05
0.000479824
0.000989261
-0.00104364
-0.000539154
0.00158279
0.000843758
-0.00110851
0.000389491
-0.000124739
-0.00144804
0.000183098
0.00132073
-5.5785e-05
-0.00147994
0.00179865
-0.00141329
0.00109458
-5.85648e-06
-0.000903206
-0.0011408
0.00110859
3.22089e-05
-0.00147988
-0.000771911
0.000146045
0.00210574
-0.000136891
0.00130384
-0.00116695
0.00103521
-0.000813688
-0.000221525
0.000927601
-0.000933458
-0.00111028
3.02044e-07
0.00110997
0.000508915
0.00138711
-1.37026e-05
-0.00188232
-0.0011498
0.000175483
0.00097432
-0.0012633
-0.000444589
0.00131581
0.000392083
-0.00191022
0.000263213
0.00186398
-0.000216978
0.000945846
-0.000918661
-2.71856e-05
-0.00072798
-0.00101887
0.00391217
-0.00216532
-0.00148215
0.000543732
-0.000374133
0.00131255
-0.000753173
-0.000181433
-0.00118144
0.00211605
-3.65192e-06
2.23555e-06
0.00130613
-0.00130472
0.00070906
-0.00209828
0.00285902
-0.00146979
-0.0012164
0.00121275
0.00155228
0.000399911
-0.00190257
-4.96202e-05
0.00110669
0.000151225
-0.00138901
0.000131092
0.00094655
0.000444155
-0.00158886
0.000198157
0.000919287
0.000187406
-0.000541455
0.00168961
-8.95188e-05
-0.00105863
0.000326234
-0.00148631
0.00190039
-0.000740306
-0.00167456
0.000121395
-5.7694e-07
0.00155374
0.000969503
0.00374424
-0.00059206
-0.00412169
0.000450956
0.000343329
-0.000597579
-0.000196706
0.000309846
0.00112278
-0.00050783
-0.000924799
-0.000904482
0.000883626
-0.000520598
-5.47774e-06
0.00169003
5.04981e-06
0.00133665
-0.00135296
0.000215628
-0.000199317
0.000315387
-0.000105105
0.000804465
-0.00101475
-0.00129679
0.00126291
0.000185113
0.000391973
-0.000767872
-0.000880177
0.00125608
0.000545415
0.00151148
-0.00151006
0.00112983
-0.00148086
0.000200792
0.000150238
0.0011136
-1.73735e-07
-0.00111342
0.00242036
-0.00249008
0.00201646
-0.00194674
0.000366297
-0.000943844
-0.000472067
0.00104961
0.000384902
0.000204411
-0.00163341
0.000973343
-0.000580922
0.00124099
-0.00200505
0.000449804
0.00169025
-0.000135003
-0.00156422
-0.000861669
0.00313495
-0.000157718
0.00191888
-0.000632662
-0.0011285
0.000924975
-0.000467292
0.00171158
-0.00216926
0.0001845
-0.000869376
0.000740035
-5.51593e-05
-0.00038392
-0.00125789
0.0014463
0.000195512
0.00108073
-0.000611188
-0.000439875
-2.96714e-05
0.000548094
0.000229926
0.000290871
-0.00106889
-0.000777785
0.000996969
-0.000219184
0.000889348
-0.000828659
0.000123811
3.11627e-05
-0.00135707
0.00132591
0.00104598
-0.00121858
-0.000211318
0.000264604
0.00118247
-0.000265266
-0.00118181
-3.28407e-06
-0.000961259
0.000964543
0.000525463
0.00161294
-0.00088375
-0.00125465
-8.34624e-05
-0.000629269
-0.000426101
0.00113883
-0.000295561
-0.0016185
1.0971e-05
0.00190309
-0.00102864
0.00041726
0.00125772
-0.000646339
7.61417e-05
0.00096984
-0.000860308
0.00093645
0.000926555
0.000248124
9.93894e-05
-0.00127407
-0.000487898
0.00218341
-0.000143232
-9.00506e-05
-0.000621615
0.00056632
0.000145346
-0.000207191
0.00243778
-0.000115653
0.00197621
-0.00102597
-0.00042478
0.00225344
-0.00027585
-0.00121024
0.00180718
-0.000321092
-0.0022803
0.0019161
0.000935276
-0.000571079
5.7315e-05
0.00104863
0.000870261
-0.000998109
-0.00131891
0.00139015
-0.000719306
-0.000990241
0.00191501
-0.000205462
0.00073874
0.000841523
-0.00158026
2.82537e-05
0.000169094
0.00222529
-0.00242264
-0.00116522
0.000984352
0.00142674
-0.00124588
0.00136
-0.00214954
0.00172861
-0.000939068
0.000449864
-2.2857e-05
-0.000427007
-0.00092311
-0.000516573
0.000172625
0.00126706
-0.000473356
-0.000678301
8.99034e-05
0.0011691
-0.000965979
-0.000293024
0.000985122
-0.00102515
4.00285e-05
0.000105813
-0.00130586
0.00137968
-0.000179633
0.00114603
-0.00282892
0.00139811
0.000284775
0.000656145
-0.000873961
0.000217816
0.000867352
-0.000111548
-0.00086006
0.000104256
-0.000174304
-0.00287535
0.00259537
0.000454288
-0.00113282
0.000195434
0.00132075
-0.000383369
-0.0011827
3.75585e-05
0.00114515
0.00118436
0.00019933
0.000785788
-0.000590222
-4.89498e-05
0.00152852
0.000103197
-0.00168444
0.00140694
-6.58088e-05
0.00116941
-0.0011036
-0.000814283
0.000504845
0.00135249
-0.00104305
-0.000185109
0.00154963
-4.43226e-05
-0.00132019
-0.00018772
0.00144376
-0.000976179
-0.000279859
-0.00100124
-2.4104e-05
0.00117978
-0.00015444
0.000832655
-0.00174035
0.000949833
-4.21349e-05
-0.000891557
0.000696975
-0.000716484
0.000911066
0.000863708
3.41483e-05
-0.000100872
0.000132046
-0.0012579
-0.000303207
0.00142906
-0.000258277
-0.00138112
0.000617394
0.001022
0.000492776
-2.12291e-05
0.00113441
0.000275728
-0.00138891
0.000581588
-0.000409771
0.00117378
-0.0013456
-0.0007532
0.000932938
0.00124313
-0.00142287
0.00203185
0.000510313
-0.00204939
4.39095e-07
-0.00120884
0.0012084
7.48277e-06
-0.00122751
0.00127555
-5.55238e-05
2.43979e-05
0.0013109
-0.00117776
-0.000157537
0.00039432
-0.00198935
-6.49605e-05
0.00165999
-0.00109974
0.00132019
-0.000220447
0.000201745
-9.19745e-05
0.00132257
-0.00143235
-0.00102585
0.000227851
-0.000708133
0.00107149
-0.00142846
0.00106511
-0.000327222
-8.10787e-05
0.0004083
0.00323617
-0.00157943
-0.000702367
-0.00095438
0.00130251
0.00333936
-0.0014057
0.00216206
-0.00199703
0.00018931
0.00109959
-0.000852267
0.00121914
-0.000386533
1.96635e-05
-0.000258623
5.06372e-05
0.00178837
-0.00126998
0.000477112
0.000975268
-0.000182398
-0.00105221
0.0017407
0.000130586
0.00121909
-0.00139594
0.000708087
-0.000531236
0.000181463
0.00245087
-0.00243058
0.000735123
6.3625e-07
-0.000735759
2.14319e-06
-0.000981598
0.000979455
0.00170458
0.000138292
-0.000381668
-0.00146121
0.0022301
-0.000718225
-0.000939759
-0.000572113
-0.000140092
-0.00280373
0.000845539
-8.20973e-06
-0.000679985
0.000688195
0.00146472
-0.0013437
-0.0013289
0.00120789
0.00106406
0.000443088
-0.00125184
0.000861743
-0.000530702
-0.00131579
0.000984753
-0.00105779
-8.74879e-06
-0.000811944
0.00187849
-0.0015841
-6.77543e-06
0.00159088
0.000992881
9.41546e-05
-0.00105599
-3.10416e-05
-0.00127404
-2.08007e-05
0.00129484
6.43068e-05
0.00106857
-0.00113288
-0.00078241
0.00173582
-0.000125824
-0.000827583
-0.00190529
0.0022956
0.00145016
-0.00184048
0.000901558
0.000768698
-0.000209448
0.00134154
-0.000865667
-0.000266424
-0.000227476
-7.88096e-05
-0.00115526
0.00146155
0.00130455
-0.00114695
0.000911751
-0.00106935
-0.0012402
0.00129063
-5.04384e-05
-0.00150525
0.000252306
0.00129181
-3.88752e-05
-0.00264385
0.000528803
0.00201212
0.000102931
0.000260889
-0.00033519
-0.0013089
0.0013832
0.00190152
0.000181185
-0.00109222
-0.000990483
0.00103594
-0.000786853
-0.00104289
0.000793809
0.00120788
1.10933e-05
-0.00121897
0.000109261
-0.00202713
0.00148359
0.000434281
0.000753812
0.000448175
-0.000300429
0.0002749
-0.000881593
0.00128509
-0.000678398
-0.000545319
0.000529487
-0.000121908
0.00013774
-0.00362878
0.00437481
0.00141225
-0.00215828
0.00182172
-1.15544e-05
-0.00182087
1.0698e-05
1.07424e-05
0.00145804
-0.00156942
0.000100642
-0.00219478
0.00192351
-0.00051114
0.000974057
0.00121932
-0.00110363
-0.00108975
-0.000967718
-6.94969e-05
-0.000105245
0.00114246
0.00100977
5.33252e-05
-0.0010631
0.00128756
-7.10596e-05
-0.0012165
-0.00227796
0.00214626
8.42526e-05
4.74527e-05
7.16774e-05
0.00146751
-7.28434e-05
-0.00146634
0.000903571
0.000455419
-0.00296003
0.00160104
-0.000631024
0.000630923
1.00609e-07
0.000922121
2.48658e-06
-0.000924608
-4.66933e-07
-0.000556875
0.000557342
-0.000532643
0.00108237
0.000728008
-0.00127774
3.5519e-06
-0.00114345
0.0008971
0.000242794
-0.0012834
-0.000525942
-0.000468623
3.31053e-06
-0.000886313
-0.00013208
0.00101508
-0.000687419
1.28432e-05
0.000674576
0.000234923
0.000731182
-0.000237899
-0.000728206
0.000502841
-0.000895072
0.000392232
-0.000243322
-0.00083182
-0.000309256
0.0013844
0.000708925
0.000938157
0.000137991
-0.00178507
0.0018598
-0.000676183
-0.000602389
-0.000581229
-6.80705e-05
-0.00153282
0.00178653
-0.000185643
0.00073532
0.000389403
0.000212252
-0.00133698
0.00232232
0.00103397
-0.00217706
-0.00117924
-2.8559e-06
0.000587586
-0.00058473
-0.00136909
4.17646e-05
0.00031401
0.00101332
-0.0013437
-0.000148571
0.00152829
-3.60138e-05
0.000374949
-0.000468411
0.00191518
-0.000476422
0.000629233
-0.000152811
0.000936647
2.68708e-05
-0.000963518
0.000191871
0.000120592
-0.00121653
0.000904065
0.00131913
-0.000130242
-0.00122959
4.07038e-05
-0.00110943
-3.77461e-06
0.000237637
0.000321726
-0.00146013
0.000900766
-0.00135846
9.82809e-05
0.00126018
-5.44405e-05
-0.000946799
-0.000122365
0.00208899
0.000145621
-0.00211225
0.00111833
-0.00118398
6.56499e-05
-0.00119565
0.00118365
1.2002e-05
0.000959002
-0.00108137
0.000262274
0.000877885
0.00108949
-0.00222965
-0.0011764
-0.000640125
0.00181652
-9.45868e-06
0.000837181
-0.000827722
-1.87878e-05
-0.000911733
0.000930521
0.00111656
-0.00110927
-7.28225e-06
-0.0012357
4.8067e-05
0.00124234
-5.47074e-05
0.000302632
-0.00139125
0.00106376
0.000695266
0.000583764
-0.00234313
0.0010641
0.000724017
4.96151e-06
-0.000728979
4.7727e-05
0.00136763
-0.00141536
0.000672325
1.80444e-06
-0.00154274
0.00137285
0.00130201
-0.00113212
-0.000969941
0.000122752
0.0012438
-0.000396613
0.001694
-0.0024406
0.000589569
0.000157023
-0.00219083
0.00048652
-0.00103805
0.00115245
-0.0001144
2.44412e-05
-0.00115919
0.00113475
-0.00100524
-1.87115e-05
0.00102395
-0.0011757
5.44571e-06
0.00117026
0.00112414
-0.00123253
0.000108398
1.25531e-05
0.00173676
-0.00174931
-0.00025727
-0.000233867
0.00124495
0.00123795
-0.0012938
-0.000884083
0.000939927
-0.000698759
0.000124431
0.00136374
-0.000789408
0.000666977
-0.00157214
-0.000100079
-7.24867e-05
0.00153641
-0.00146392
0.000454835
0.000424259
-0.000580095
-0.000298999
-0.000707907
0.00116061
-0.00139473
0.000942035
-0.00112311
-0.000427759
0.00155087
0.00227662
-0.00140355
-0.000873069
-0.000432559
0.00163515
0.00107104
-0.00227363
-0.00119026
0.00144229
-0.00143913
0.00118709
0.000508859
-0.000382355
-0.000584526
0.000458022
2.03661e-05
-1.31573e-05
-0.00127942
0.00127221
-0.000118727
-0.00180387
0.00192259
0.000404406
5.2891e-05
-0.00152399
0.0010667
-0.0014939
0.00115954
0.000334357
-0.000702812
-0.000351914
0.00101383
4.08956e-05
-0.000989096
0.000984732
4.36392e-06
0.000967195
-0.000820183
0.00121298
-1.12546e-05
-0.00158026
0.001583
8.51376e-06
0.00305312
-0.000789577
-0.00153104
-0.0007325
-0.000470668
0.00166418
7.72728e-06
-0.00120124
-0.000546109
0.00081857
0.000455233
-0.000727695
-0.00132476
0.000778045
0.00137622
-0.000829506
0.000727736
-0.000868888
-0.00034409
0.00153243
4.01407e-05
-0.00122848
0.000904561
-0.00099887
0.000103343
-0.00214095
2.43244e-05
-2.14581e-05
0.00213808
-0.00029693
-8.40632e-05
-0.000799599
0.00118059
-0.00108585
0.00139659
-0.00110999
0.000799253
-0.00248673
-0.000334196
0.00261373
-0.00160584
2.02724e-05
0.00160727
-2.16975e-05
0.00100649
0.000162802
-0.000678792
-0.000490497
-0.000312308
-0.00123276
0.000651267
0.000893798
0.00107064
-0.000419222
-0.00141118
0.000759764
-0.00138542
-0.00036056
-2.89853e-05
0.00177496
0.00111115
-0.000136354
-0.0010195
4.47008e-05
0.000938871
-0.000940788
1.91675e-06
-0.000745088
0.00242751
-0.00201598
0.000333564
0.000156281
0.00143146
-0.00230347
0.000715732
-0.000946384
-0.000308415
0.000995186
0.000259612
0.000330783
-0.000316838
-0.000960329
0.000817898
3.29825e-05
0.000160636
-0.00101152
-8.80317e-05
0.000616052
-0.00266897
-0.00138741
2.9326e-05
0.00177924
-0.000421153
-0.000995047
0.00116076
-0.000165716
0.000489398
-0.000459457
-0.00064904
0.000619099
-0.000699917
-0.00128736
0.000808078
0.0011792
-0.000577204
0.0017964
-0.00066192
-0.000557279
-0.0014823
1.03215e-05
-0.00129842
0.00161888
-3.90045e-05
3.54009e-05
-0.0012818
0.0012854
0.00121989
0.00130633
-0.00138752
-0.00113871
0.0009798
-0.00101041
3.06096e-05
0.00125279
-6.87351e-06
-0.00124592
0.0010713
-0.00124313
0.000351699
-0.000179872
-0.000312541
-0.000916883
0.00222461
-0.00164657
0.00141371
-0.000213793
0.000446657
0.00054665
-0.000745108
0.00176479
-0.00156633
-0.0015766
-0.00115076
0.00187472
0.000852649
-8.42588e-05
-0.00173803
0.000175718
0.00027491
-0.00145108
-1.10516e-05
0.00118722
0.00133606
0.000352558
0.00179018
-0.00156847
-0.000588699
0.00036699
-0.00133271
0.00132282
0.00107907
-0.00106919
0.00101655
0.000503714
-0.00115622
-0.000364052
0.000507839
-0.00111631
0.000928373
-0.000319902
0.00136992
-0.0011234
-0.00178486
0.00153834
0.00146168
-0.001626
8.00641e-05
-0.000890355
0.000893896
-3.54045e-06
0.000113599
-0.000103003
0.00151375
-0.00180759
0.00170336
-0.00140952
0.00112163
-0.00100803
0.00113183
-0.00122508
-3.70227e-05
0.000130267
-2.44719e-05
-0.000519477
0.000543949
-0.000123576
-0.00103678
0.00124375
-8.33935e-05
0.00191015
-0.00172089
0.000139158
-0.000328421
0.000207632
-0.00230437
0.000191444
0.00169643
-0.00173571
-0.000188297
0.00022758
0.00037152
0.00027905
0.000461328
-0.0011119
-0.000101017
0.000948625
0.000923142
-0.00177075
-8.05089e-05
-0.00117181
-0.000325931
0.00157825
-0.000570401
0.00170922
-0.00046471
-0.000674111
-0.00106887
0.000453272
0.0016869
0.0010414
-0.00210692
0.00023172
0.000833802
-0.000305166
7.13931e-05
0.0019302
0.000311207
0.0014168
-0.000484887
-0.00124312
-5.19814e-05
5.43423e-05
-0.00124021
0.00123785
0.00185861
0.00010445
-1.30839e-05
-0.00194998
0.00103224
0.000452098
-0.000410291
-0.00107405
-0.00112368
-0.000480057
0.000534868
9.19103e-05
0.0006482
-0.000657846
-8.2264e-05
0.000189659
1.65591e-05
-0.00144935
0.00100859
-0.000527328
-0.000136936
-0.000344331
0.00014817
0.00070159
-9.81258e-05
-0.000751634
-0.00111651
0.000960391
0.00119751
0.000743288
-0.00322903
0.000628994
0.00185675
0.000177129
-2.95977e-05
3.30058e-05
0.00127189
-0.0012753
0.00220463
-0.000708038
-0.000732186
-0.000764409
-0.00107622
1.31478e-05
0.00147899
-0.000415912
-0.000135596
-0.00103655
0.00125009
-7.79418e-05
0.00104216
-0.00141967
-0.000693591
0.0010711
-0.000983213
0.000955674
2.7539e-05
-2.97809e-05
0.00095382
-0.000924039
-0.000465918
-0.00108939
-0.000402379
0.00195769
-0.000810426
0.000907232
-9.68062e-05
-0.000152964
-0.00132768
-0.0003346
0.00181524
-0.00234445
0.00086456
-0.00127896
0.00275885
-0.00160481
3.40996e-05
0.00157071
0.000757899
0.000839191
-0.000811016
-0.000786075
0.000976152
-0.000559231
-0.000184668
-0.000232253
0.0013226
2.85652e-05
-0.00135116
0.00124721
-0.00372797
0.000136313
0.000845484
-3.13132e-05
-0.000814171
-0.0014408
-0.000571237
0.00193545
7.6588e-05
-0.00087632
0.00452859
-0.00277496
-0.000877315
-0.0026392
0.00317779
-0.000466393
-7.21977e-05
0.00157651
-0.000907794
0.0021903
-0.000772557
-0.00168327
0.00248595
-3.01241e-05
-5.02909e-06
-0.000121314
-0.000677329
0.000803673
0.00148809
0.00190626
-0.00216857
-0.00122577
-0.00152926
0.00180839
0.000495245
-0.000774373
0.00169241
-0.000310681
-0.000661807
-0.000719926
0.000146097
-0.00108258
-0.000188639
0.00112512
-0.00322544
9.95623e-05
0.00165044
0.00147543
-0.000592576
0.00225537
-0.000873185
-0.000789609
0.000382986
-0.000939291
0.00178978
-0.00123348
-0.000193153
-0.000553029
0.00104585
-0.000299663
-0.000916408
0.000975353
-6.3714e-05
4.76898e-06
0.00160181
-0.0018082
-8.68779e-05
0.000293272
-5.08445e-05
-0.00159961
0.00161271
3.77494e-05
0.000130368
-0.000116285
-0.00153141
0.00151733
0.00220669
-0.00036291
9.46492e-05
-0.00193843
-0.00145026
-0.000304976
0.000372136
0.0013831
0.00049162
-0.000491619
-1.19193e-09
0.00109008
-0.000741554
0.000726853
0.000226119
0.00209006
-0.00012525
-0.00219093
-0.000334334
0.000223938
0.000279909
-0.000169512
-0.00163009
-0.00202555
0.00292766
-0.00115806
0.00132611
0.00126298
-0.00143103
-6.50157e-05
0.00129276
-0.0016304
0.000402657
-0.00124065
-0.00129689
-8.19794e-05
-0.000333755
0.00171262
-7.26211e-06
-0.000662125
0.000669388
-7.70756e-06
-0.000950487
0.0022156
-0.0012574
0.000651006
0.000917884
0.00163257
-0.00081731
7.61146e-05
-0.000891374
0.000716251
-0.000199457
-0.00119545
0.000678652
0.000900605
4.27028e-05
-0.00137237
0.000429066
-0.000647969
0.000536628
0.00203175
-0.00192041
0.00174075
0.00124432
0.000163583
-0.00314866
-0.00155413
-9.77513e-05
0.000314252
0.00133763
-0.00130945
0.00139452
-8.50629e-05
-9.11226e-05
0.000865385
-0.000129783
-0.000644479
-0.000267959
0.00055118
-0.000283221
0.00108859
0.00155263
-0.000691591
-0.00194963
0.000932432
-0.000931377
-1.0555e-06
-0.00264367
0.000617376
0.00147647
0.000549825
0.000106896
-4.71504e-05
0.00128099
-0.00134073
0.000825167
2.74817e-06
-0.000827915
0.00168798
-0.00187346
-0.00120344
0.00138891
-0.00148778
-0.00287205
0.00171616
-0.000289186
0.000184703
0.0011865
-0.00108202
-0.00051126
0.00155461
-0.000163871
-0.000879478
0.000319422
-0.000844785
0.00124161
0.000978354
4.70673e-05
-0.00102542
0.0028924
-0.000699696
0.000172033
-0.00236474
0.0010921
0.000312521
0.000699864
-0.00167171
0.000803479
0.000168368
-0.00176332
4.98708e-05
0.00132258
0.000390869
-0.000327313
-0.000724125
0.000766603
0.000284835
0.00103154
-0.00132939
0.000297847
-0.000365141
-0.000709914
0.00107506
0.000911135
-0.000589377
-0.00103455
0.000712791
-0.000389836
-0.000216457
0.0015579
-0.000951603
-0.000766204
-0.00122415
0.000946993
0.00104336
-0.00149879
0.00137164
-2.73789e-05
0.000154528
-8.42207e-06
-0.000930869
-0.000225137
-0.000820275
0.00103482
1.05878e-05
0.00156811
-0.00147461
0.000428119
-0.000521617
0.00238076
-0.00236837
0.00107971
-0.000415406
0.000456017
-4.0611e-05
-0.000870494
0.00085901
1.1484e-05
-7.89131e-05
0.00109334
0.000373348
-0.00138778
-0.000692804
-0.00109198
-0.000430257
0.00221504
-0.000644581
-0.000495416
0.00223821
-0.00109821
0.00111166
0.00029791
-0.00148849
-0.000214087
0.00165127
-0.0007504
-0.000686781
0.000234315
-0.00109102
-0.000477556
0.00133426
-0.000303735
0.000187047
-0.00152143
0.00163811
0.00151956
-0.0011007
-0.00083814
-0.000630232
-0.000184395
0.00165277
0.000452285
-0.000228088
-0.00022609
1.89338e-06
-0.00178238
0.00207939
-0.000211592
-8.5416e-05
0.00058245
0.0006428
-0.000611347
-0.000613903
-0.000244679
0.00126695
2.69357e-05
-0.0010492
0.00141505
5.93735e-05
-0.00126371
-0.000210717
-0.000175117
-0.00173913
-0.000430889
0.00234514
-0.000150692
0.00126342
-0.00111272
0.00152583
0.00129547
-0.00173766
-0.00108364
0.00100309
-4.23216e-07
-0.00100267
0.000111998
-0.00133068
-0.000332804
0.00155149
0.00237916
-0.000340845
-0.00111702
-0.00092129
3.49869e-05
0.00239263
-4.84558e-05
0.0011756
-0.00112286
-5.27433e-05
-0.000421698
-0.000822482
0.00124418
0.00217338
-0.000579537
-0.00136586
-0.00101907
-0.000995523
0.00167375
9.4248e-05
0.000402703
-0.00156936
0.00107241
5.52257e-05
-0.00135263
0.000846757
0.000450646
-7.28686e-06
0.00117917
7.48564e-06
-0.00117937
-0.000230701
-3.21176e-05
-0.00111887
-0.000294622
0.00141349
-1.86312e-05
-0.00097082
0.000989451
0.00208019
0.000158752
-0.000133979
-0.00210496
0.000871474
-0.00161294
0.000388189
0.000353278
0.000550792
8.42365e-07
-0.000551634
-0.00158354
0.000258245
-6.40557e-05
0.00138935
0.000566736
4.17315e-05
0.0012357
-0.00184417
-0.00058097
0.000627879
-0.00174408
0.00169717
0.00017602
-0.000228915
-0.00163573
0.00168862
0.00116517
-0.00108814
-0.00250268
0.00028483
0.000739356
-0.000754182
-0.000764343
0.000779168
-0.000672336
0.000675185
-2.84864e-06
-0.00159783
-0.000564132
0.00240095
-0.000344302
-0.00149251
-0.00093036
-0.00028347
0.0012621
-4.82737e-05
0.000268719
0.00151738
-0.000581645
-0.00120446
-0.00300959
-0.00252433
0.00019623
0.00242023
-9.21396e-05
0.000179655
0.000130728
-0.0010444
0.000734016
0.00165771
-0.00153107
-0.00171074
0.00121644
0.000348735
-0.00156518
0.00173457
-0.000321358
-0.00124076
-0.000172453
-0.00103663
-5.83368e-05
-0.000701075
0.00179604
0.00169507
-0.00143345
-0.000504755
0.00024313
7.61467e-05
0.000527327
-0.00162612
0.00102265
4.9651e-06
0.000883011
0.000136843
-0.00102482
-0.000822687
0.00104773
0.00029581
-0.000520852
1.29384e-05
0.00145287
-1.18977e-05
-0.00145391
-0.00109742
0.00111036
-0.00102293
-2.25219e-06
0.00102518
-0.00167195
-0.000154147
0.000416172
0.00140992
0.00117466
-0.00114861
0.000687414
-0.000713458
0.000289975
0.00102216
-0.00110301
-0.00020913
-0.00141159
0.00206603
-0.000237936
-0.000416501
0.000824744
-0.00078763
-3.71145e-05
1.6369e-05
0.000652528
0.00171186
-0.00137967
0.00117626
0.000506253
-0.000302844
-0.000340572
0.000758878
-0.000418305
-3.48926e-05
0.00118632
-0.00115142
-0.00183438
0.000695637
0.000356234
0.000782506
-0.00333532
0.00243056
0.000921134
0.00248194
-0.000297206
-0.000424424
-0.00176031
0.000993416
0.000121303
0.000634621
-2.94364e-05
-0.000665033
5.98482e-05
0.000686743
-0.000538573
2.57677e-05
-0.00159318
0.00156742
-0.00275121
0.00196764
-0.000874347
0.00211072
-0.00142922
0.000192845
0.00143866
-0.00194635
0.000601941
0.00110631
-0.00202194
0.000390732
0.000524899
-0.00102748
0.00122886
-0.000201383
0.00215124
0.000450306
-5.56551e-06
-0.00259598
-0.00102493
0.00103296
-8.02345e-06
0.00280732
-0.00251676
0.000325498
0.001663
-5.48445e-05
-0.00160815
0.00119415
-0.00121717
2.30233e-05
-0.00119488
0.000134939
0.00105994
-0.000459679
-0.00113051
0.00039531
-0.00243983
0.00159995
0.00043952
0.000400361