/*--------------------------------*- C++ -*----------------------------------*\
  =========                 |
  \\      /  F ield         | OpenFOAM: The Open Source CFD Toolbox
   \\    /   O peration     | Website:  https://openfoam.org
    \\  /    A nd           | Version:  10
     \\/     M anipulation  |
\*---------------------------------------------------------------------------*/
FoamFile
{
    format      ascii;
    class       volScalarField;
    location    "7";
    object      SgT;
}
// * * * * * * * * * * * * * * * * * * * * * * * * * * * * * * * * * * * * * //

dimensions      [1 -1 -3 -1 0 0 0];

internalField   nonuniform List<scalar> 
59698
(
2.82139e-15
1.63548e-13
2.7947e-14
1.28845e-13
3.43562e-15
3.20621e-18
5.32358e-13
1.379e-13
0.0289354
6.72764e-13
0.000267278
2.51212e-13
2.48228e-18
9.52895e-16
5.33408e-16
1.13827e-14
1.40182e-13
2.86199e-13
1.23283e-14
7.45125e-14
3.93024e-15
6.44958e-15
1.72465e-14
5.42527e-17
7.65112e-16
9.83134e-14
9.52338e-14
3.49412e-14
3.49747e-15
3.45248e-15
1.12203e-15
2.63433e-15
3.74595e-14
7.66556e-15
3.83381e-15
1.98067e-13
1.7142e-14
1.05755e-14
6.094e-13
4.57909e-15
2.36111e-14
5.43914e-18
2.73336e-14
9.57382e-14
2.81808e-18
5.59692e-14
4.16906e-14
8.58204e-14
7.88698e-14
1.58342e-12
3.80645e-13
8.09742e-14
1.77532e-13
4.41892e-13
4.05612e-16
2.07418e-14
1.00367e-13
8.01364e-16
1.61788e-13
2.77109e-15
4.28505e-14
1.92145e-13
2.01354e-15
1.65382e-14
3.8416e-16
6.75639e-13
0.0164776
7.28613e-14
1.13215e-14
0.0416904
6.72846e-17
8.40701e-14
5.46005e-15
4.11027e-14
1.24469e-17
5.91559e-14
4.15777e-13
6.55797e-15
1.14404e-13
5.45107e-16
1.13766e-15
2.18112e-13
4.74988e-10
1.98947e-13
2.61002e-16
5.45199e-13
4.55784e-14
7.64943e-14
1.49866e-15
4.72194e-13
4.24791e-10
4.7949e-14
4.69429e-16
1.88179e-13
3.69255e-13
2.38779e-13
6.05598e-15
2.65713e-13
9.41206e-16
4.33717e-19
5.77862e-15
5.13881e-15
2.73185e-14
1.01305e-14
6.05343e-14
4.71727e-17
1.68868e-13
3.29837e-13
2.38663e-08
5.69348e-17
4.65768e-13
1.04434e-13
2.49072e-14
1.66142e-18
1.34988e-13
1.16057e-13
7.8771e-14
1.81263e-14
7.49445e-14
6.93543e-12
8.97698e-14
4.02002e-13
4.57751e-14
2.93708e-14
1.19504e-13
8.1548e-14
3.59595e-14
7.19383e-17
1.14037e-13
6.91067e-16
5.53819e-15
2.41721e-14
0.00269271
6.12301e-15
8.97287e-15
1.76466e-15
8.45334e-14
3.92599e-13
5.58956e-14
2.19005e-13
2.67913e-13
9.15348e-14
1.57129e-13
7.63681e-14
3.3652e-14
9.57427e-13
3.1525e-13
1.92965e-13
1.48028e-14
4.01716e-14
4.205e-14
4.89237e-05
3.49613e-14
3.03731e-13
3.96226e-13
6.84689e-13
4.86455e-14
6.20357e-14
2.00827e-14
8.34984e-17
4.08342e-15
1.98727e-13
3.42724e-14
2.33001e-15
8.81504e-15
2.02059e-14
7.9697e-14
1.26869e-14
8.12144e-14
9.24512e-14
1.75037e-16
7.98001e-16
2.31409e-15
4.79138e-16
7.17881e-15
1.31841e-13
2.41293e-17
5.29842e-16
1.57264e-07
1.30464e-15
5.52807e-15
6.05145e-14
2.2971e-14
3.29281e-13
7.68818e-15
4.17226e-15
7.48228e-14
4.10674e-13
4.87602e-14
3.69042e-13
2.51763e-13
4.06418e-14
3.91787e-14
5.56876e-14
5.35967e-15
1.29058e-13
1.16361e-14
1.9093e-15
5.45188e-14
2.49173e-14
1.16413e-15
1.52814e-15
3.42955e-15
1.29531e-13
1.08465e-14
2.26275e-13
1.49254e-15
2.44205e-13
1.78039e-15
3.75603e-15
8.49626e-15
4.0456e-14
6.56768e-14
1.43766e-16
8.19365e-15
2.46879e-13
8.59625e-13
5.54206e-14
1.53354e-14
5.95589e-15
5.3868e-15
4.94117e-15
9.40211e-14
2.2098e-14
1.68731e-13
1.00636e-14
2.23225e-14
6.43743e-14
6.71657e-16
5.68862e-15
1.49867e-16
3.51927e-14
2.458e-14
3.00301e-14
1.33427e-13
2.01747e-14
2.65938e-14
2.61206e-13
3.74513e-14
4.34087e-14
4.14301e-15
7.78792e-15
2.73242e-14
4.35062e-17
2.11517e-13
3.7524e-13
5.18166e-15
4.55481e-14
1.45164e-12
5.31441e-14
9.09594e-14
1.05135e-12
1.93918e-13
2.8995e-06
2.90033e-13
2.61146e-13
2.66946e-13
1.08082e-13
9.14665e-14
9.06184e-14
5.42495e-12
4.69745e-16
9.48904e-13
1.78622e-13
2.5371e-13
2.78579e-14
9.10442e-14
0.0216845
6.77082e-13
3.62105e-13
1.38762e-13
1.95248e-15
3.90512e-15
1.42894e-13
5.34599e-15
4.58383e-13
6.91648e-15
5.74541e-13
2.86186e-14
0.000326348
1.11969e-16
2.96317e-13
2.63174e-13
3.10913e-15
1.39291e-14
3.32641e-16
6.67844e-14
7.46436e-15
1.93388e-15
6.20396e-14
1.97709e-14
1.47379e-14
5.61217e-13
3.34792e-14
2.62155e-14
1.22981e-13
3.72979e-13
1.51739e-13
4.66289e-14
3.931e-14
2.61997e-13
3.04829e-18
1.2746e-18
7.06746e-13
9.37356e-14
3.86815e-14
2.64563e-15
1.23535e-12
3.45868e-13
1.60186e-13
5.16325e-14
1.73339e-13
5.9505e-13
2.4162e-18
5.20262e-14
7.01968e-13
7.95523e-19
8.28423e-13
1.51528e-18
8.61151e-13
1.47917e-13
1.44554e-14
6.68584e-13
7.05456e-17
4.48354e-15
5.52508e-14
5.38874e-13
7.19072e-13
1.29567e-12
5.37363e-17
1.24085e-14
1.38541e-13
1.51201e-14
7.1172e-16
0.000875224
8.25991e-15
5.65607e-14
8.46509e-13
1.24475e-14
3.62336e-14
1.35139e-13
6.33016e-13
7.63161e-14
1.02765e-12
1.7498e-14
5.10305e-14
6.91934e-13
2.95621e-15
4.13426e-15
5.72909e-14
5.69257e-14
9.44178e-13
3.48368e-15
3.40638e-18
6.30932e-15
1.54977e-14
1.37225e-15
3.79228e-13
1.47493e-12
4.87747e-10
4.31664e-13
7.69222e-13
8.39124e-07
3.03583e-13
8.12271e-17
5.1205e-19
3.20856e-14
1.57983e-13
1.89281e-14
4.17213e-15
2.4398e-14
1.25008e-15
2.09757e-13
3.47126e-19
2.81685e-14
1.28242e-15
1.70487e-13
5.23779e-14
3.33287e-17
0.0415554
1.97736e-19
3.05464e-13
7.78614e-14
2.16381e-14
6.94164e-14
3.51503e-16
1.80447e-12
5.81453e-17
1.46772e-15
1.08913e-13
8.37889e-13
2.53539e-17
4.12573e-14
9.18406e-16
1.28421e-14
1.40669e-15
9.16035e-14
1.58943e-13
3.90935e-14
6.1787e-13
1.18506e-14
3.06444e-14
1.4525e-13
6.51994e-14
1.5921e-13
2.4145e-14
5.72542e-16
2.10819e-15
3.08662e-13
1.92757e-14
6.80091e-15
0.039925
3.13811e-14
1.86562e-05
2.21092e-13
2.30032e-15
1.41784e-14
4.12276e-15
3.93145e-15
3.74333e-15
9.05005e-14
3.63128e-14
1.63238e-14
1.89931e-14
1.35305e-13
2.27531e-13
0.000460207
7.84192e-13
2.59295e-13
1.24486e-16
3.8418e-14
3.41632e-15
3.14586e-15
1.70735e-13
1.71858e-15
5.9159e-13
7.47132e-08
3.37527e-16
9.35761e-14
3.3746e-14
2.34265e-18
1.21455e-12
0.000160803
2.29938e-13
1.95859e-12
8.28058e-15
3.20009e-15
3.36602e-17
3.65014e-13
1.15682e-14
7.27716e-15
2.41698e-13
3.43563e-14
6.5129e-15
8.86701e-15
2.79249e-13
7.33566e-15
2.97147e-16
1.2258e-15
1.58264e-13
3.18284e-16
8.39746e-16
1.90345e-15
6.55206e-16
8.55905e-09
3.03621e-13
6.95938e-13
1.32614e-13
1.69917e-13
2.5087e-14
1.18214e-14
4.71802e-16
1.78633e-15
3.87307e-16
8.77273e-15
1.71549e-13
9.494e-15
4.30605e-15
2.8516e-13
1.12133e-13
2.73352e-15
3.76383e-14
4.60014e-13
6.72756e-16
2.58113e-15
3.94452e-13
1.21701e-14
5.40864e-14
5.03872e-15
5.21271e-14
7.62321e-15
3.17592e-15
1.00506e-15
6.71982e-14
1.00867e-13
8.60898e-14
2.49188e-13
1.71649e-14
6.15157e-15
9.62304e-17
1.08538e-17
6.40606e-16
4.70531e-14
4.04247e-13
1.1076e-15
0.000191884
1.21811e-13
1.09627e-10
9.50903e-15
2.41333e-14
1.61809e-13
1.76351e-14
1.49033e-14
9.11175e-19
9.79036e-14
2.17708e-15
8.14996e-18
1.03673e-14
9.45913e-19
4.98869e-18
3.8709e-14
1.0985e-13
4.03259e-16
3.27567e-17
5.51409e-18
7.51921e-15
8.02504e-15
2.35341e-13
3.32351e-14
5.62251e-15
2.86968e-13
1.0964e-14
2.63386e-17
1.37787e-13
5.17235e-14
5.37603e-17
1.66025e-18
1.67753e-15
1.13499e-14
1.46663e-07
7.77705e-14
2.5519e-14
1.75777e-12
6.34625e-16
1.05992e-13
2.687e-14
6.59622e-16
6.8892e-15
1.02261e-13
8.65198e-16
9.11336e-14
0.0048642
9.29381e-14
2.03019e-16
3.50702e-13
1.98186e-14
2.41313e-16
2.39396e-13
3.83322e-14
1.31704e-13
4.15652e-17
0.0459474
1.21748e-13
1.07347e-14
2.75427e-13
8.67827e-17
1.82526e-14
3.24603e-14
7.44122e-14
0.000528883
2.167e-13
4.76072e-13
1.93902e-15
1.22496e-12
1.08945e-12
6.10122e-13
6.55412e-14
6.46038e-14
5.37783e-14
5.23479e-16
3.83379e-18
1.20793e-12
4.78686e-15
1.12152e-14
6.76698e-13
7.17708e-16
2.32481e-13
1.06534e-14
5.47406e-16
5.65406e-13
8.21392e-13
1.53723e-14
1.36878e-13
5.55054e-14
1.5934e-17
6.60028e-14
1.9402e-10
6.80029e-15
4.01783e-19
5.66086e-16
9.26299e-14
1.66779e-13
1.10255e-16
4.62107e-14
2.4657e-12
1.0063e-12
2.52651e-14
7.26947e-18
7.14978e-13
5.48794e-14
4.12032e-14
2.47576e-14
3.33587e-14
9.20715e-13
8.47779e-13
2.98439e-13
3.59499e-14
6.9323e-15
1.85362e-14
1.49349e-14
1.63041e-16
2.60466e-13
2.21635e-13
1.21765e-15
1.63068e-13
2.17996e-13
1.75826e-14
4.86453e-13
6.12968e-13
2.33048e-13
2.40997e-14
9.52827e-16
1.13419e-13
7.73894e-14
3.01811e-14
4.29186e-12
1.30721e-12
8.67014e-15
1.36539e-14
5.41355e-15
9.71842e-13
2.67623e-14
1.74197e-16
0.0124832
2.6741e-13
1.31415e-14
5.54464e-13
8.50132e-13
4.90804e-13
3.25342e-15
5.00691e-17
3.3855e-13
6.45961e-15
1.57116e-13
2.4371e-12
3.96758e-14
6.67622e-15
1.2277e-13
1.70038e-14
6.76742e-14
6.41663e-13
1.18134e-13
1.2711e-13
4.02787e-15
3.16791e-14
5.17248e-14
9.03863e-15
8.85003e-15
4.45969e-13
3.08127e-16
5.72444e-18
4.00329e-14
4.11942e-14
5.35398e-14
1.1208e-14
5.77799e-13
8.31878e-19
5.85558e-13
2.49173e-15
1.19836e-14
2.97823e-13
1.54026e-13
1.42725e-18
5.50541e-18
6.13598e-14
1.78141e-14
2.67565e-13
5.58075e-14
3.92294e-13
7.4648e-16
5.70145e-14
4.79321e-15
5.00771e-14
4.90775e-15
1.49206e-13
1.64704e-14
8.01933e-13
3.07085e-14
2.85081e-17
6.66348e-14
3.20985e-16
8.28557e-17
1.65511e-13
2.3322e-13
8.81903e-14
0.00178769
8.13166e-14
5.49501e-13
2.24236e-14
1.53442e-17
1.27862e-13
1.19167e-18
4.28502e-13
1.3348e-15
3.50304e-14
4.29006e-14
1.67554e-14
4.94632e-13
0.00388789
3.0205e-16
8.132e-15
1.68946e-14
5.1761e-13
3.31479e-12
7.04816e-14
1.00567e-14
5.09939e-15
2.07343e-15
4.91647e-15
7.6067e-13
4.22576e-15
1.64637e-18
2.88734e-15
1.05899e-15
4.37548e-19
3.17167e-15
4.72976e-14
0.0235143
1.27043e-14
1.53203e-15
2.20283e-13
1.2582e-13
3.14385e-15
1.0889e-15
7.19799e-14
1.32612e-13
1.11466e-14
5.30343e-15
5.35184e-14
6.57628e-14
2.75192e-13
5.56806e-16
7.863e-13
1.63104e-14
6.39922e-17
3.36067e-13
9.82457e-15
2.00106e-15
0.0599694
9.17691e-13
2.87486e-14
3.34131e-17
1.0082e-14
3.35086e-14
4.28899e-13
1.51329e-16
3.3977e-14
7.08539e-13
2.00223e-15
6.6748e-15
3.29361e-15
3.89749e-17
7.61836e-17
2.1587e-13
3.32917e-16
1.12189e-15
9.38222e-13
3.14709e-14
3.63922e-15
2.15819e-14
1.33185e-14
1.53206e-17
5.17263e-14
1.14687e-13
1.38357e-14
1.54812e-13
6.18398e-15
9.44813e-18
2.8277e-16
2.98707e-14
4.99556e-14
2.36945e-15
3.51432e-15
3.2537e-14
8.37844e-13
6.90306e-14
2.68515e-15
4.55865e-16
8.25821e-16
2.32982e-12
2.3041e-12
1.00119e-15
1.74257e-15
4.3377e-14
2.77393e-16
5.93439e-15
7.72206e-13
1.34637e-13
2.79002e-16
3.48222e-15
1.49727e-16
8.87478e-17
5.60067e-14
3.78561e-16
9.27082e-15
2.17872e-15
2.88913e-16
1.67814e-14
7.74486e-15
2.67105e-15
1.70956e-13
6.42769e-16
2.85135e-13
4.91244e-15
7.69813e-16
2.93388e-16
2.99575e-13
5.55191e-13
2.65252e-15
3.15702e-17
1.06382e-14
2.45893e-14
2.57771e-14
2.26876e-16
2.60354e-13
2.00686e-13
9.99605e-15
1.10562e-15
1.42762e-14
6.25813e-15
0.00113705
2.46637e-16
2.61075e-16
2.62639e-15
7.06758e-16
7.19421e-14
3.4517e-13
5.0205e-13
6.49033e-17
1.23361e-14
8.76166e-14
3.16999e-16
1.18191e-14
6.37659e-17
1.05175e-12
2.96403e-16
9.01103e-15
1.68308e-14
7.7173e-14
1.12644e-13
1.70602e-13
3.51478e-14
3.1829e-17
2.78034e-14
1.67943e-13
8.07841e-17
3.93491e-13
6.07706e-16
4.91563e-15
4.1122e-15
5.64992e-13
8.24554e-16
6.86754e-15
4.34253e-18
5.6495e-13
3.85452e-18
1.93334e-13
3.83976e-14
8.43921e-14
3.20776e-13
4.01865e-14
1.89664e-13
4.74167e-12
6.54212e-18
8.92114e-17
1.71071e-13
8.87334e-14
1.24748e-13
1.74014e-14
1.99729e-15
3.03089e-14
3.46193e-14
7.13951e-14
2.96526e-18
3.61379e-14
3.75554e-14
7.83451e-13
1.23501e-14
0.00348621
3.99175e-18
9.2913e-14
8.0903e-15
5.71591e-18
1.67656e-13
5.86162e-13
1.20203e-17
3.31231e-14
1.9703e-13
5.22122e-14
5.28769e-14
1.99815e-17
5.93626e-14
9.83674e-14
3.336e-17
1.47942e-16
1.08731e-13
5.1967e-14
3.6688e-13
1.15454e-14
1.242e-13
1.84427e-13
2.57943e-15
1.06989e-13
1.96617e-13
8.54854e-15
1.30677e-13
1.75623e-14
3.20583e-13
1.59461e-15
2.90723e-14
9.71029e-16
2.22259e-15
5.21821e-16
2.66298e-14
2.60657e-14
9.14972e-13
2.18681e-14
2.98449e-17
1.01202e-16
3.43568e-14
7.08776e-13
1.2167e-13
9.71405e-15
3.46639e-13
2.74505e-13
1.277e-12
4.06664e-16
3.60853e-14
1.18701e-13
1.14284e-12
3.18844e-16
2.10923e-12
1.5823e-12
1.8527e-13
2.62047e-13
1.42195e-13
2.0464e-13
1.60092e-09
9.24244e-15
3.27528e-13
5.61091e-14
3.29869e-17
2.80766e-12
9.93284e-14
1.15372e-12
1.4022e-13
1.30322e-13
9.38739e-14
6.32697e-14
1.22014e-12
6.92273e-17
1.56917e-13
4.72837e-18
1.60061e-13
5.91356e-19
1.31791e-12
1.79565e-14
3.44085e-15
1.0387e-15
2.175e-13
2.95449e-13
1.25506e-14
3.41969e-14
7.37301e-14
4.02171e-14
2.0225e-13
2.13382e-12
3.87797e-14
9.75284e-13
1.03368e-14
2.3237e-15
9.4277e-13
1.63674e-15
6.6883e-14
6.98173e-17
7.98414e-16
1.03246e-12
1.97075e-14
2.76823e-13
7.83999e-05
0.00426401
5.22778e-13
3.85304e-14
1.21463e-13
1.08647e-12
1.64481e-14
4.31368e-15
3.25984e-17
4.41941e-13
1.20601e-13
4.23817e-15
2.66625e-18
1.13406e-13
3.1697e-14
1.69308e-15
9.05105e-13
1.40175e-12
4.12041e-16
3.06865e-14
7.22636e-14
7.83652e-16
1.82143e-13
7.77137e-15
1.19447e-13
2.30801e-14
3.8912e-15
1.07608e-14
3.95557e-15
1.21898e-14
4.07846e-13
9.00352e-17
1.80914e-14
1.72857e-14
2.57997e-13
4.78406e-17
4.67734e-14
3.978e-14
2.99026e-14
4.6459e-12
8.93277e-15
3.89277e-14
5.37364e-14
7.76627e-15
7.3283e-14
5.06729e-15
2.82912e-14
2.78032e-15
3.87084e-13
4.45978e-15
2.33922e-15
9.07483e-14
5.6525e-13
1.28957e-14
5.62308e-14
3.36842e-13
1.9333e-14
1.27145e-16
1.69836e-17
1.797e-14
6.29724e-17
7.29428e-13
1.04616e-13
1.26532e-13
9.04893e-13
5.89612e-14
2.6947e-05
1.50713e-09
4.60984e-15
4.94459e-13
6.22455e-15
6.41307e-06
1.15753e-12
9.55359e-15
1.46394e-10
5.26707e-15
4.35649e-13
9.18893e-15
1.07997e-13
8.02215e-13
2.43884e-14
3.52084e-14
1.50629e-12
9.85669e-19
2.8721e-13
1.00951e-12
4.79479e-13
4.10842e-14
1.2594e-14
1.08734e-12
3.25143e-14
2.34404e-15
3.36337e-14
4.86996e-14
1.82969e-15
8.60139e-14
9.87077e-15
1.55496e-15
1.67011e-13
8.21438e-14
5.52187e-16
4.82845e-14
3.11291e-15
6.67339e-14
1.18937e-13
3.29721e-18
2.81766e-15
1.12989e-13
1.42533e-17
1.6616e-14
3.61665e-15
8.09337e-14
2.78504e-14
8.98472e-13
3.16896e-13
4.50141e-18
7.84477e-15
9.97165e-15
3.11605e-13
7.94812e-13
1.19255e-12
3.55372e-18
1.13042e-16
2.45222e-13
6.91977e-14
7.24735e-16
6.54225e-13
5.39038e-13
8.98929e-14
6.56753e-13
2.79338e-15
4.07689e-14
1.74155e-13
8.24482e-14
1.3467e-15
5.29517e-13
8.92676e-14
6.18239e-13
4.59092e-17
3.72225e-13
1.47028e-13
1.60266e-13
2.29431e-14
2.63514e-14
1.2161e-15
6.16338e-15
1.67802e-14
6.17816e-14
2.51485e-14
4.89834e-15
2.05125e-14
2.69001e-13
2.3461e-13
8.33685e-15
4.34597e-16
4.03745e-14
3.2329e-14
8.98428e-13
5.95682e-14
6.71723e-14
8.7557e-14
1.34029e-13
9.60678e-15
3.73943e-18
1.30107e-15
1.14128e-14
1.20654e-13
5.7392e-13
1.04522e-13
7.12623e-14
8.58811e-14
1.77695e-16
1.41725e-14
8.74115e-14
6.31616e-14
1.41152e-12
1.07011e-13
9.67582e-14
8.06784e-18
4.22819e-14
5.19173e-14
2.63424e-13
2.87733e-13
4.29935e-15
3.02024e-15
6.58556e-14
5.97878e-17
4.59917e-14
6.67781e-14
5.00294e-14
4.15308e-14
6.16323e-15
1.11789e-16
4.68371e-17
6.97777e-13
1.35182e-13
3.50539e-15
0.00261414
2.25462e-14
5.62932e-14
6.7017e-14
4.6841e-18
3.15458e-16
5.06905e-13
1.37199e-13
8.40503e-14
2.51858e-14
4.96047e-15
9.16288e-14
3.08248e-17
8.78779e-16
1.52295e-05
3.50153e-13
1.307e-15
1.66515e-14
2.0096e-05
9.2795e-15
3.44998e-15
8.08498e-14
1.8644e-15
1.13132e-14
2.49142e-14
3.07486e-16
2.93305e-14
2.51542e-13
4.67287e-13
1.78953e-15
1.37467e-14
1.29851e-14
9.76122e-16
2.47369e-13
0.0039044
2.93668e-14
5.27615e-15
2.79308e-17
5.85841e-14
6.18336e-14
2.12939e-12
1.65496e-15
8.65374e-14
2.80563e-15
1.50545e-13
3.62267e-14
4.01956e-14
1.30177e-16
1.42541e-17
1.49614e-13
6.58576e-14
2.95603e-14
4.50812e-10
2.13495e-12
1.1107e-14
5.99705e-14
1.51643e-13
2.51326e-13
2.7537e-13
8.00969e-14
4.05087e-14
8.72795e-13
1.50663e-13
1.03989e-14
6.84647e-16
1.24332e-13
3.44064e-15
1.41216e-14
1.04387e-17
9.1829e-14
8.82895e-18
1.44657e-14
0.0223884
1.67276e-08
1.94294e-15
2.49373e-17
1.14795e-14
3.58582e-13
2.09517e-15
2.56535e-18
6.82237e-13
1.80469e-13
3.74012e-17
1.77542e-13
5.3536e-13
2.00281e-13
2.93412e-12
2.76353e-15
8.95923e-16
6.21415e-14
6.93371e-14
1.73556e-17
5.45955e-15
1.34416e-13
1.02206e-12
2.91965e-15
3.71518e-18
2.93728e-13
4.24859e-16
2.16133e-13
2.32413e-16
1.6225e-12
1.56946e-14
2.01129e-14
3.85938e-14
1.68619e-14
1.20613e-12
6.59363e-13
2.49133e-15
3.95877e-13
3.46538e-15
1.06827e-12
3.1388e-14
9.49349e-14
5.17727e-14
4.70488e-15
1.45767e-14
4.2147e-14
2.41666e-07
9.13878e-13
5.62796e-14
1.38165e-13
0.0155943
7.8109e-17
3.06367e-13
4.96675e-14
1.01667e-14
3.71041e-14
3.41433e-14
4.69605e-15
1.4409e-16
4.33139e-16
4.91615e-16
1.47967e-13
2.06152e-14
2.16254e-07
1.1788e-15
2.82547e-11
8.38545e-15
0.0372547
0.0174463
5.26021e-10
5.33339e-14
4.06124e-16
3.41401e-14
3.54198e-17
7.23856e-15
2.78205e-12
1.9207e-15
5.2014e-13
2.04913e-14
5.23895e-16
1.83845e-12
1.98705e-15
9.01604e-14
1.32212e-13
1.0675e-12
2.47865e-15
1.47461e-15
1.54101e-12
1.93629e-15
4.2247e-16
1.31953e-14
4.22151e-15
3.92088e-14
1.33076e-14
1.81065e-14
1.26828e-15
4.22956e-13
1.56244e-13
1.27543e-15
3.15922e-13
9.21354e-14
5.17457e-14
7.13044e-16
4.92222e-16
1.94253e-15
4.2708e-19
3.8928e-15
2.78016e-15
8.5976e-14
2.42052e-14
6.14279e-15
1.06309e-12
1.01454e-13
8.75295e-16
9.49057e-14
3.53187e-15
2.01698e-12
5.26595e-14
1.73877e-14
4.52102e-15
8.40914e-15
7.53457e-15
1.23051e-13
2.46227e-15
6.88823e-13
1.00507e-14
7.4349e-16
1.0633e-14
7.66195e-13
1.44519e-15
2.6853e-14
1.40742e-14
1.21477e-05
2.7928e-13
5.47681e-15
1.78037e-13
4.38848e-15
1.80602e-14
4.07517e-15
1.02559e-15
5.37596e-13
3.41139e-15
1.1616e-16
4.96968e-14
2.24025e-12
1.19411e-13
1.24961e-17
1.88025e-14
9.94326e-15
3.63357e-17
1.28119e-14
3.10246e-14
1.41633e-13
0.00293773
1.18353e-14
2.41376e-15
6.89125e-17
2.05128e-17
1.54821e-15
3.51154e-16
2.62384e-14
7.25644e-15
7.23435e-15
0.00034031
7.822e-16
1.22306e-12
2.01447e-13
1.30905e-18
3.31288e-15
1.48507e-17
1.29127e-14
9.32829e-13
3.59356e-17
4.03522e-14
8.18896e-13
4.11856e-15
8.58113e-13
1.15478e-12
2.13386e-12
1.636e-15
3.0724e-15
4.31145e-15
9.1983e-16
9.05552e-15
2.03636e-12
6.10407e-15
1.28418e-16
5.67494e-17
2.54785e-14
1.45349e-14
5.36504e-15
2.11953e-13
1.03328e-13
1.35681e-14
8.49094e-14
4.71774e-13
4.68024e-14
1.46173e-14
2.60981e-13
1.12557e-14
1.44715e-14
7.01208e-15
5.37176e-14
6.37745e-06
1.82756e-15
1.52495e-14
6.64809e-16
2.8981e-16
2.48727e-07
1.08599e-14
4.78487e-15
1.65414e-07
6.98975e-15
5.19503e-14
2.92111e-14
5.93094e-13
2.11331e-15
9.05312e-15
8.68435e-15
8.01248e-18
2.85251e-17
1.65352e-17
1.95656e-16
2.3252e-13
2.38674e-15
6.29958e-15
1.74886e-14
3.47356e-15
0.00865202
2.89354e-14
4.40961e-14
6.39989e-15
4.49369e-14
6.26813e-15
1.00939e-14
1.38337e-14
9.75774e-15
7.90462e-17
9.30012e-15
2.16526e-15
9.30018e-13
2.32924e-16
4.80499e-15
2.16146e-13
8.80063e-15
5.9595e-15
3.266e-17
2.00911e-15
1.66888e-14
1.97622e-13
2.109e-06
2.97292e-13
3.67664e-13
7.09243e-15
8.48936e-15
3.96335e-14
2.70318e-13
2.06274e-15
0.00913747
0.00341642
9.68796e-16
1.89835e-14
1.45533e-14
2.80122e-14
4.93638e-15
3.86467e-14
1.2559e-05
9.35367e-15
2.12103e-13
2.3785e-06
5.39657e-16
5.38784e-15
1.20249e-18
2.02922e-14
7.239e-15
2.52287e-09
5.22119e-14
7.43409e-16
0.0275813
2.4305e-15
2.5153e-14
6.87549e-16
1.0419e-14
0.00190795
1.74436e-14
2.9999e-13
0.000107892
1.13933e-16
8.29924e-13
9.84377e-15
1.65381e-12
0.000129196
1.97003e-14
1.40659e-11
6.81926e-14
1.2677e-13
4.71645e-15
2.14236e-18
3.69981e-13
3.19287e-07
1.18702e-15
1.18075e-14
0.0575844
2.85327e-08
1.95027e-08
3.89938e-14
3.04849e-15
1.11643e-13
1.14692e-15
0.00598069
9.75728e-15
3.68312e-13
1.1847e-13
0.000834469
3.3275e-16
4.75772e-14
1.88122e-17
1.01903e-12
1.4549e-17
1.57266e-13
4.69448e-13
9.39129e-17
3.16988e-14
4.76992e-17
7.75275e-18
5.62072e-13
2.82781e-14
2.136e-12
1.12926e-14
8.81133e-16
2.22436e-13
3.18077e-14
1.88664e-13
1.30735e-13
3.64599e-15
3.54085e-16
0.00324356
6.50744e-15
5.34426e-18
8.71861e-17
4.73484e-14
0.00128144
3.00925e-13
1.55865e-15
4.04229e-05
2.09497e-15
1.10777e-13
2.71165e-15
5.09095e-13
9.80582e-13
4.91213e-13
1.01055e-14
9.14327e-14
2.64147e-14
1.25373e-14
6.95133e-14
5.4427e-13
1.44027e-13
4.26409e-13
4.06248e-13
5.36053e-13
7.67005e-13
1.39569e-13
2.9854e-13
1.66338e-14
2.49786e-14
3.76507e-15
4.81728e-14
4.90778e-15
2.02896e-13
9.0484e-16
1.47239e-12
4.36855e-14
9.555e-14
3.10328e-14
3.26324e-15
5.93572e-14
1.23208e-13
1.5749e-15
3.27025e-14
3.92041e-13
2.14208e-15
7.13149e-15
3.48281e-15
2.20086e-14
1.09248e-14
1.55835e-13
5.51812e-15
6.81716e-16
1.71527e-13
8.06563e-13
3.38041e-13
1.6056e-15
9.35611e-14
3.11259e-13
8.62182e-16
4.34849e-14
5.08117e-15
5.96541e-13
4.52216e-15
1.21848e-15
1.14085e-13
8.08206e-15
1.94226e-14
2.76196e-17
1.88629e-15
8.66386e-15
2.25688e-16
5.05828e-13
2.31221e-14
1.543e-14
3.80231e-14
1.95711e-16
1.78336e-14
7.16119e-15
4.06514e-13
3.89898e-15
1.64589e-13
3.87537e-13
1.19842e-13
9.48646e-15
2.51733e-15
2.01165e-14
2.59113e-13
6.63614e-16
5.45217e-13
1.19153e-13
2.92935e-13
1.89975e-15
1.37042e-10
2.0268e-15
3.58898e-15
1.19856e-15
2.44309e-15
2.29625e-15
2.04574e-13
2.68637e-12
1.62016e-14
6.34488e-13
3.78126e-13
3.38391e-13
8.34372e-14
2.51636e-14
3.3191e-13
4.07296e-15
3.27873e-14
1.07871e-14
1.40483e-13
6.5063e-17
3.20795e-14
5.90248e-15
1.82815e-14
1.76981e-14
2.96163e-13
6.06843e-16
3.81765e-14
3.23927e-14
1.04926e-14
3.38974e-15
6.49563e-14
1.00037e-13
6.51107e-13
4.80525e-13
9.92e-13
6.08161e-14
6.7507e-13
2.72008e-16
7.21196e-14
2.11811e-14
5.16439e-14
1.21449e-14
3.05947e-12
1.8002e-14
6.17153e-13
2.22827e-14
3.10956e-14
2.59486e-15
4.6521e-14
1.35925e-12
5.09099e-15
4.46266e-15
3.32903e-14
3.14518e-13
9.24048e-15
4.61579e-13
2.84454e-13
6.945e-14
8.35964e-15
3.96714e-15
3.69333e-14
3.21359e-14
7.56141e-13
5.01891e-15
3.12275e-13
2.50253e-14
1.75727e-14
5.80765e-14
9.66081e-14
4.0746e-13
1.52379e-14
1.56646e-13
1.16058e-13
8.42756e-15
1.31425e-14
6.93947e-14
1.70791e-13
8.25928e-15
8.94937e-13
5.79856e-14
2.42329e-12
6.29234e-15
1.8623e-14
3.94108e-16
5.83929e-13
1.08229e-14
4.59145e-15
1.14573e-12
5.06811e-14
9.39328e-13
2.18832e-14
7.03085e-15
4.67084e-15
8.81786e-16
8.11542e-14
5.38736e-13
1.10995e-12
2.2572e-15
1.52055e-14
8.25175e-15
2.84554e-12
2.92532e-14
2.84584e-15
7.06673e-13
8.11605e-15
2.87442e-16
1.99746e-14
1.66145e-14
3.90175e-15
1.16167e-14
3.05201e-14
8.36003e-14
5.6998e-13
6.61805e-14
7.11766e-16
2.90442e-17
3.43204e-14
6.67816e-14
3.55819e-13
7.41591e-15
4.46741e-13
9.72376e-15
6.67388e-14
2.40452e-14
1.36306e-13
1.03141e-13
9.13989e-15
3.06522e-13
1.08365e-14
2.21396e-15
2.61682e-14
8.78158e-17
9.82582e-13
1.2403e-13
8.30658e-14
2.11926e-14
1.26194e-12
5.74051e-18
5.97866e-13
1.09446e-15
1.69777e-13
7.16306e-14
1.51713e-13
9.76305e-17
3.48598e-13
1.9281e-16
3.06577e-14
4.47986e-14
1.00356e-12
5.03052e-16
1.45814e-14
1.63963e-15
1.24047e-12
5.98528e-17
1.11004e-15
2.24752e-12
1.64253e-14
2.98399e-13
2.29634e-15
1.54002e-17
9.22017e-16
9.0987e-13
2.36037e-14
2.40529e-13
1.4914e-14
1.93496e-15
1.42402e-13
2.56119e-16
1.41147e-13
1.86155e-15
1.38271e-13
0.020337
8.01188e-14
7.45586e-15
5.54835e-14
2.67871e-13
2.3939e-13
1.696e-15
3.90355e-13
4.20083e-14
1.6776e-14
1.09725e-14
9.28103e-15
7.74655e-13
1.3511e-19
3.96985e-15
7.09179e-15
5.12427e-15
2.25756e-12
8.94979e-13
3.19792e-14
2.35346e-13
1.53173e-14
5.35106e-15
3.8036e-15
1.34977e-16
6.01422e-15
6.77598e-16
1.34676e-13
4.86935e-14
6.78541e-14
1.07029e-14
4.36944e-15
1.59157e-14
9.08376e-15
5.84126e-14
1.33989e-14
3.00039e-16
2.42683e-15
1.33634e-14
7.14219e-15
6.94163e-15
2.8066e-13
8.26982e-16
8.03812e-14
1.75384e-15
7.34054e-15
4.98921e-13
2.83041e-14
1.34877e-14
1.66675e-13
3.83052e-17
7.21532e-16
2.83835e-14
2.50256e-15
2.15626e-13
1.00052e-13
2.293e-17
1.58794e-13
2.2664e-10
4.35546e-13
3.10537e-16
1.66756e-13
2.26678e-15
7.38843e-14
1.95504e-13
5.9324e-15
1.75195e-12
1.18353e-14
5.46793e-15
1.43498e-14
1.26346e-15
5.06472e-13
9.5298e-14
4.22618e-15
1.25174e-15
1.33664e-14
2.0562e-13
1.77931e-13
1.58369e-14
2.30589e-13
2.73432e-13
1.15971e-12
1.31774e-14
3.64697e-14
3.0701e-13
3.11134e-14
3.97906e-13
1.51831e-13
4.40991e-15
7.52535e-13
2.51611e-14
8.63616e-14
3.03048e-13
3.58661e-13
8.73768e-15
6.49775e-14
5.63452e-14
2.91776e-13
2.46918e-13
1.02487e-14
2.40756e-13
3.39378e-14
3.27794e-14
1.70684e-14
2.76489e-13
9.67938e-15
3.40725e-15
1.34946e-13
3.83333e-16
7.64141e-14
5.38508e-14
1.17598e-13
6.92663e-14
4.77205e-06
3.67743e-13
2.04618e-13
2.35132e-13
3.24424e-12
8.21883e-15
6.73409e-13
2.24641e-14
2.31543e-15
3.53853e-14
5.45189e-13
1.57352e-14
1.0708e-13
3.76436e-14
3.58968e-15
5.9379e-14
3.48279e-14
3.15619e-13
2.02025e-13
5.57875e-14
1.66609e-14
4.69421e-13
9.36609e-14
1.83781e-13
1.2902e-13
1.91269e-13
7.24431e-13
9.82127e-14
1.82291e-14
5.7596e-14
1.41695e-15
1.10491e-13
1.90183e-13
1.06423e-12
9.7703e-14
4.0658e-15
1.6329e-14
4.29184e-18
7.5261e-15
3.57622e-14
2.65451e-14
6.73468e-16
7.28049e-16
2.10789e-13
4.97356e-14
9.56483e-13
8.73422e-15
1.93135e-14
4.42573e-14
2.19852e-13
2.00527e-14
9.79766e-14
2.36667e-13
1.17078e-13
7.7894e-13
1.40727e-14
6.86522e-13
8.92236e-16
7.76807e-18
2.0918e-13
1.09416e-14
6.87378e-14
3.90838e-14
2.40674e-13
1.11459e-13
6.99085e-14
1.13191e-12
1.21806e-13
1.42967e-14
3.6362e-13
9.43816e-15
1.98005e-14
5.2623e-13
1.26576e-15
2.55594e-13
9.585e-13
6.45495e-14
2.26893e-13
1.8985e-13
2.28979e-13
1.85131e-13
7.56155e-13
1.34282e-15
2.10835e-12
1.89616e-12
8.26428e-15
6.70137e-13
2.99233e-15
2.44138e-12
9.44609e-16
3.56865e-14
5.22937e-16
7.28254e-13
3.98139e-14
9.81495e-14
9.8877e-13
1.84816e-13
1.4229e-15
1.26608e-12
1.74906e-14
5.5329e-16
1.09255e-17
8.92341e-15
1.66398e-13
1.03694e-13
2.54861e-16
2.76046e-15
6.68528e-15
2.18423e-12
1.66436e-14
2.69644e-14
6.52677e-14
1.53858e-14
1.16131e-14
9.59943e-16
8.50628e-15
2.4566e-12
5.60121e-13
1.99433e-12
1.31495e-13
1.87307e-13
5.3669e-14
1.63905e-18
8.98282e-14
1.82569e-13
9.5955e-14
1.12899e-13
4.86053e-15
1.71304e-13
6.09559e-16
9.46836e-14
3.47204e-13
9.33495e-14
7.60592e-14
3.86681e-13
2.06371e-06
1.48771e-14
3.10862e-14
5.76742e-13
8.32387e-13
4.35152e-13
2.32731e-14
2.36717e-13
1.88664e-14
1.2399e-17
2.40952e-14
4.39927e-13
1.20758e-13
4.75392e-13
8.52028e-14
7.64371e-14
6.48865e-15
3.38882e-12
4.72062e-14
4.84079e-18
4.10529e-18
1.72864e-13
3.5536e-15
2.66177e-13
3.27154e-14
3.40398e-14
1.87034e-16
5.33985e-13
2.57282e-13
2.81163e-14
2.40708e-18
5.46653e-15
3.24364e-14
7.03663e-13
4.76208e-13
1.57774e-14
3.00523e-15
8.1005e-13
2.68011e-14
2.06106e-15
1.86077e-14
7.89151e-15
2.53285e-14
1.47343e-12
1.14892e-13
4.8908e-16
1.45093e-13
2.28419e-14
5.61644e-16
5.50793e-15
3.98539e-14
1.18162e-15
6.41606e-14
3.59721e-15
5.89252e-15
1.51757e-15
3.02719e-13
9.21413e-15
1.38032e-13
9.79828e-14
3.39267e-13
9.74754e-15
1.43105e-13
2.17729e-15
1.05546e-14
3.37198e-15
3.25768e-14
2.57039e-12
1.68821e-13
1.30828e-14
2.09611e-15
5.30113e-14
1.21413e-14
1.18843e-13
1.61265e-13
9.17828e-13
2.84412e-13
2.50197e-15
5.45723e-13
2.73539e-13
1.56186e-15
1.12491e-15
8.29727e-13
2.85747e-13
1.37933e-13
2.68663e-13
2.84821e-14
9.9114e-14
4.18947e-13
1.41807e-12
1.0663e-13
3.56876e-13
8.06603e-15
1.28243e-13
1.28834e-13
3.01194e-13
1.5637e-14
5.58949e-13
4.05707e-13
3.08864e-14
7.18869e-13
3.14527e-15
1.52577e-14
1.14705e-13
1.96021e-13
3.49709e-14
3.57661e-16
1.71018e-13
3.42411e-14
6.65289e-15
1.11351e-14
1.54345e-13
4.26472e-14
2.91013e-13
3.93357e-15
1.24065e-15
1.93788e-14
2.05661e-13
7.42016e-15
7.89594e-15
3.41314e-15
3.70193e-14
6.07855e-13
8.55448e-14
1.01914e-14
4.36103e-14
2.69791e-13
2.28785e-13
6.22454e-13
2.13706e-12
5.7517e-15
1.96008e-13
7.55578e-13
3.9361e-14
3.59406e-13
7.87671e-15
7.2838e-13
8.81999e-14
1.63301e-13
8.16296e-14
4.42265e-13
1.31986e-13
2.08235e-13
2.28487e-14
1.32778e-13
2.56184e-13
1.74256e-09
5.16476e-17
3.11435e-13
7.43951e-16
3.55856e-13
2.58184e-13
3.38957e-15
1.11394e-12
7.60856e-14
1.1863e-13
1.64824e-14
1.1626e-12
9.80467e-14
1.36984e-12
1.01374e-12
1.71214e-13
1.67112e-12
3.89383e-14
1.53062e-13
8.10922e-14
7.88627e-14
5.06797e-14
6.78979e-13
1.08276e-13
2.38598e-13
5.39053e-13
2.56108e-13
3.34857e-15
1.86154e-13
1.95844e-16
2.80157e-15
3.79157e-13
8.74134e-14
5.22317e-14
1.6166e-13
8.35839e-13
1.23762e-13
1.49365e-12
2.32668e-14
5.87587e-13
1.27742e-13
1.38661e-17
1.14676e-17
8.16561e-16
7.11388e-14
1.71024e-15
1.68588e-15
0.0172999
1.06771e-14
8.82058e-15
1.19616e-14
3.80713e-19
5.01616e-14
4.24294e-13
1.37348e-12
1.4112e-14
1.26145e-16
5.86512e-18
1.47956e-13
4.96223e-16
3.89126e-14
1.26875e-13
1.18601e-13
7.05286e-15
5.47298e-14
1.51139e-13
5.84936e-13
1.82973e-14
2.71401e-13
1.234e-18
7.92698e-15
3.47039e-17
1.31527e-06
1.2637e-14
1.49323e-14
2.6631e-14
2.7688e-13
8.86129e-14
3.81849e-17
5.79391e-15
4.74053e-14
4.47765e-14
2.09273e-13
1.05255e-14
0.00534047
4.42778e-14
3.06026e-13
1.4584e-13
1.51169e-12
6.06115e-13
9.54203e-16
2.06278e-14
8.66665e-14
6.75791e-14
2.24633e-15
1.35348e-14
8.79439e-13
6.90494e-17
5.3988e-14
1.75125e-13
2.51799e-13
1.32858e-13
1.26539e-15
2.33257e-14
2.20313e-14
2.11976e-13
8.74458e-13
1.23993e-13
1.41413e-12
5.12422e-13
2.39518e-15
1.20778e-13
2.21292e-18
7.27817e-14
1.41634e-13
1.21174e-13
1.96609e-13
1.39251e-13
1.1393e-13
2.63453e-17
0.000691849
1.55469e-13
1.93046e-13
5.8797e-13
5.15468e-13
1.69018e-13
1.82516e-15
3.40154e-16
7.23807e-14
1.81029e-14
2.226e-13
1.69174e-13
1.04547e-12
1.43548e-12
3.35311e-13
2.34191e-14
2.75559e-14
4.18485e-15
3.69377e-18
2.08618e-14
3.84794e-15
2.10003e-15
6.23121e-14
9.05466e-14
3.74225e-13
3.10545e-15
1.09772e-13
6.97402e-14
2.49416e-13
2.15693e-15
1.23771e-12
1.78253e-12
2.19686e-14
5.1973e-14
1.18359e-14
1.09422e-13
9.33181e-15
7.65635e-15
2.02925e-14
3.10035e-13
5.54866e-13
1.58618e-14
7.4828e-13
4.25577e-14
5.47787e-13
1.13497e-12
2.89569e-13
1.81214e-13
2.17799e-13
2.474e-12
5.18717e-14
5.5784e-13
9.14069e-13
6.63247e-14
5.69661e-14
3.1194e-18
1.65119e-13
9.60807e-14
5.36147e-13
1.04745e-15
1.73006e-12
1.01854e-12
4.88356e-16
2.24009e-12
9.20572e-16
7.67888e-14
5.68922e-14
4.20898e-13
6.29446e-14
2.3648e-13
4.50381e-14
8.64496e-13
2.22169e-13
2.65649e-18
1.93634e-14
3.55446e-12
7.13772e-16
8.49978e-13
4.87519e-14
3.62761e-14
2.51441e-15
1.57829e-14
9.85947e-15
6.57985e-15
4.9349e-14
6.86158e-15
2.39443e-13
1.87797e-13
2.1753e-13
2.01622e-15
2.53472e-14