/*--------------------------------*- C++ -*----------------------------------*\
  =========                 |
  \\      /  F ield         | OpenFOAM: The Open Source CFD Toolbox
   \\    /   O peration     | Website:  https://openfoam.org
    \\  /    A nd           | Version:  10
     \\/     M anipulation  |
\*---------------------------------------------------------------------------*/
FoamFile
{
    format      ascii;
    class       volVectorField;
    location    "7";
    object      U;
}
// * * * * * * * * * * * * * * * * * * * * * * * * * * * * * * * * * * * * * //

dimensions      [0 1 -1 0 0 0 0];

internalField   nonuniform List<vector> 
59698
(
(0.584603 0.00625886 -0.0018668)
(0.563586 -0.000805618 -0.000604818)
(0.565426 -0.000455517 0.00174088)
(0.57951 -0.00290532 -0.0017926)
(0.564067 0.00113333 -0.00335343)
(0.197727 0.198048 -0.006351)
(0.564924 0.000246709 0.000405339)
(0.564503 0.00135067 -0.000715922)
(0.199955 -0.199638 -0.0004797)
(0.201198 -0.200804 4.65469e-06)
(0.200265 -0.198986 -0.000643991)
(0.566424 -0.000193001 -0.000204061)
(0.199804 0.200495 -0.000568493)
(0.561435 -0.000659842 -0.000356642)
(0.563114 0.00145777 -0.00296132)
(0.20395 -0.197114 0.00176155)
(0.564689 0.000152189 2.96069e-05)
(0.566498 -0.00114034 0.000366772)
(0.566791 -0.000569 0.000482851)
(0.564231 -0.000195552 5.6427e-05)
(0.143107 -0.100026 -0.025136)
(0.537599 -0.00120532 -0.00365558)
(0.265258 -0.17311 -0.00669069)
(0.198824 -0.199921 -0.00136797)
(0.569903 0.000565085 0.00114567)
(0.566607 -0.00104706 0.000441613)
(0.565824 -0.000202784 -0.000317407)
(0.563058 -0.000136627 -0.000243566)
(0.570078 0.00189497 0.000979318)
(0.566018 7.92864e-05 -0.000200019)
(0.56344 -0.000808779 -0.00162058)
(0.198555 -0.198577 -0.000172526)
(0.201152 -0.197954 0.00227535)
(0.562943 4.04238e-05 -0.000284275)
(0.548889 0.0115582 -0.00749337)
(0.566518 -0.000736928 -0.00033918)
(0.274192 0.06437 -0.0383218)
(0.538664 0.000954517 0.000468398)
(0.562659 0.000241629 0.000164354)
(0.564886 0.000837647 -0.00216404)
(0.563725 5.26559e-05 0.000123545)
(0.194901 0.197809 -0.00173792)
(0.563506 0.000359647 -0.000398623)
(0.564394 0.000311448 -9.39915e-05)
(0.196724 0.19957 -0.000254683)
(0.561352 0.00334635 0.00401231)
(0.56646 -0.000783209 0.000421245)
(0.562351 -0.000302266 0.00164806)
(0.562525 0.000300659 0.000982599)
(0.565864 -0.000573667 0.000110013)
(0.567011 0.000197287 -0.000237524)
(0.566496 -0.000734155 0.00041685)
(0.565709 1.46808e-05 -0.000473263)
(0.560852 0.000138506 -0.000133014)
(0.571999 0.0029643 0.000872314)
(0.56671 -0.000395678 2.35981e-05)
(0.562334 -0.000982891 0.00071605)
(0.523463 -0.00201444 -0.00170247)
(0.564467 -0.000823722 -0.000283903)
(0.267638 0.120805 -0.0186108)
(0.559823 0.00459427 -0.00250595)
(0.564167 0.00123293 0.000539264)
(0.577632 0.0151571 0.00673028)
(0.566756 -0.000576152 0.000529862)
(0.561943 0.00040108 0.000766263)
(0.562077 0.000376444 0.00197915)
(0.199641 -0.199738 -0.00010466)
(0.566559 -0.000326168 -0.00041381)
(0.566434 -0.000265488 -0.000368883)
(0.199256 -0.19912 7.64384e-05)
(0.20844 0.182004 -0.0078844)
(0.564247 -0.000621375 -9.87829e-05)
(0.165868 0.118746 -0.0336908)
(0.592973 -0.0122352 0.0200453)
(0.202915 0.203542 -0.000371188)
(0.589999 -0.0250534 0.0215858)
(0.561482 0.00053698 0.000376911)
(0.563002 0.000461198 -0.00245066)
(0.566425 0.000830185 -0.000638722)
(0.571157 0.00186685 9.04936e-06)
(0.551547 -0.00222013 -0.000583535)
(0.567177 0.000225474 2.91467e-05)
(0.201275 -0.200779 -6.79783e-05)
(0.565557 -0.000618718 0.000541341)
(0.399782 -0.103003 0.0150951)
(0.563603 0.000299204 -0.000722234)
(0.5637 -0.0011516 0.00159273)
(0.558729 0.000569762 0.00670183)
(0.560193 0.000866158 0.000554568)
(0.561116 -0.000175783 0.00146969)
(0.199588 -0.199157 -0.000155354)
(0.56181 0.00109017 0.000722482)
(0.558556 -0.000980903 0.00121727)
(0.565817 -0.000304712 0.000267714)
(0.561705 0.00121325 0.00100995)
(0.563261 -0.00355837 0.00128584)
(0.5569 0.00015759 0.000768852)
(0.563078 0.000593155 0.000314768)
(0.55749 8.14346e-05 0.000763888)
(0.199676 0.200075 9.16677e-06)
(0.554586 0.00101885 0.000352373)
(0.567556 0.00539315 0.0059584)
(0.562944 -0.000342484 -0.000725604)
(0.563387 -0.00138972 -0.00457672)
(0.566861 -0.000382804 0.000702961)
(0.198825 0.198557 0.000131589)
(0.566198 -0.000967394 0.000529262)
(0.566592 -0.000460965 -0.000277048)
(0.200793 -0.200934 -6.39607e-05)
(0.1998 0.199694 -0.000358624)
(0.566165 -0.000654927 -0.000545746)
(0.571707 -0.0102885 -0.000552587)
(0.560182 0.00088152 0.00122133)
(0.200897 0.198779 -0.000338208)
(0.562209 3.40111e-05 -6.32537e-05)
(0.567169 -7.34269e-05 0.000130277)
(0.568311 0.00160119 -0.00151218)
(0.566348 0.00331096 0.000756792)
(0.565357 -0.000732589 0.00180879)
(0.20091 -0.200432 0.000453288)
(0.565405 1.89042e-05 -6.47682e-06)
(0.559536 -0.0062887 -0.00383016)
(0.564567 -0.00459486 0.00528888)
(0.564548 -1.85956e-05 0.000118067)
(0.564459 0.000183368 1.13462e-06)
(0.565674 -0.000229108 -0.000208846)
(0.566034 -0.000100131 -0.000145353)
(0.199565 -0.199512 0.000482239)
(0.562613 -0.000323228 -0.000349881)
(0.566139 0.000314231 -0.00193973)
(0.563941 0.000208062 0.000396296)
(0.566193 -0.000276716 -0.0011013)
(0.201324 -0.200423 5.11162e-05)
(0.579132 0.0065947 0.0004165)
(0.566608 0.000116808 -0.00013132)
(0.567222 -0.000118999 -0.000103124)
(0.568409 0.00381417 -0.00106928)
(0.201055 -0.200685 0.000300394)
(0.5666 -0.000209574 -0.000110379)
(0.567823 -0.000128578 -0.000232151)
(0.56575 -0.000256784 0.00088642)
(0.562803 0.00321674 -0.00102487)
(0.565318 -0.000886373 -0.000576793)
(0.566027 -0.000243202 -0.000297271)
(0.564922 0.00227754 -0.000463771)
(0.566694 -0.00030542 -6.44712e-05)
(0.564118 -0.00406207 0.000393227)
(0.567013 -0.00385516 -0.000503721)
(0.563277 0.000468038 0.000895347)
(0.560863 0.00123694 0.00065632)
(0.408944 0.144751 0.0730773)
(0.200065 -0.199673 0.000292949)
(0.563651 -0.0003732 0.000147753)
(0.558147 -0.00211219 -0.00358943)
(0.563577 -1.9095e-05 -0.000347564)
(0.561878 0.000175053 -0.000375276)
(0.566526 -0.000844412 -0.000275408)
(0.559715 -0.000887052 0.00297614)
(0.565035 2.25026e-05 -0.000247788)
(0.199653 0.199482 -0.000116809)
(0.564465 7.14326e-05 -9.8789e-05)
(0.563782 1.87074e-05 -3.43197e-05)
(0.561832 -0.00137543 -9.2451e-05)
(0.566847 0.00192893 -0.000724796)
(0.564297 -0.000919166 6.10364e-05)
(0.564422 -0.000497344 -0.000197029)
(0.566375 -5.81349e-05 -0.000510905)
(0.412971 0.0868391 0.00623534)
(0.564887 -0.00117401 -0.000607474)
(0.565894 0.000167858 -0.000177414)
(0.558281 0.00199013 -0.00270106)
(0.209833 0.173354 0.000663517)
(0.55196 0.00157824 -0.00248214)
(0.551665 0.00166221 -0.00241375)
(0.578537 0.00109196 -0.00568212)
(0.564124 2.56099e-05 0.000483975)
(0.199575 -0.198906 0.000797722)
(0.538361 0.00525035 0.00265047)
(0.198832 -0.198074 -0.00607685)
(0.564388 1.42785e-05 -3.67148e-05)
(0.509196 -0.00205565 0.00439592)
(0.560652 -8.02922e-05 0.000342929)
(0.563295 0.000311794 -0.000339485)
(0.565897 0.000157955 1.17075e-05)
(0.561714 0.000685048 -0.000558241)
(0.557518 0.000530311 0.000491605)
(0.559895 0.000733592 -0.000100713)
(0.560443 0.00364188 0.00123161)
(0.565542 1.09177e-06 0.000271404)
(0.564246 0.00157513 0.00069301)
(0.562897 -4.97031e-05 0.000261745)
(0.562294 -0.000157338 0.000441648)
(0.563633 0.00096242 0.000436197)
(0.562016 0.00038512 5.60749e-05)
(0.563211 0.000446073 5.11201e-05)
(0.559245 0.00291166 0.000292925)
(0.576375 0.00622329 -0.0139128)
(0.577101 0.00450895 -0.00237804)
(0.152053 -0.143924 -0.0200103)
(0.564378 -0.000397705 3.80006e-05)
(0.202902 0.205903 0.00214374)
(0.543935 0.00134056 0.00244667)
(0.565024 0.000420712 0.000394372)
(0.566624 -0.000383744 -0.000484273)
(0.56253 0.0017581 0.000812712)
(0.565824 0.000134594 6.99658e-05)
(0.564682 0.000230226 -0.000423212)
(0.558598 -0.00204584 0.00128075)
(0.553627 0.0112289 0.000249931)
(0.564197 -0.000256666 0.000506911)
(0.565306 0.000451274 0.000176246)
(0.565173 0.000106964 0.000261667)
(0.562106 0.000316577 0.00244706)
(0.199003 -0.197044 -0.0011024)
(0.565626 5.57155e-06 -0.000237014)
(0.561184 0.000662802 -0.000188578)
(0.566402 -0.000774108 -0.00020411)
(0.561062 -0.000604248 -0.00202897)
(0.565155 -0.00071108 -0.000119184)
(0.564625 0.000665315 -0.000653503)
(0.582056 0.0242676 0.0224908)
(0.564143 -5.72566e-05 0.000211969)
(0.563616 -6.82708e-05 0.000512532)
(0.566542 0.000321685 0.000613293)
(0.563529 -0.000455341 0.000144212)
(0.563845 0.00188768 0.000977561)
(0.563971 -1.63976e-05 0.000250726)
(0.565706 0.000728618 -0.000437407)
(0.578846 0.00296336 -0.000931511)
(0.593344 0.0119569 0.00962887)
(0.199261 0.198968 -0.000359393)
(0.562756 -0.000177977 0.000184272)
(0.565408 0.000213374 0.000116513)
(0.563968 7.78034e-05 -0.000157137)
(0.564346 -0.000184522 0.000194287)
(0.566174 -0.000457585 -2.41209e-05)
(0.563774 0.00159481 0.00170659)
(0.563998 0.00049753 -6.47004e-05)
(0.559756 0.00157169 0.00291974)
(0.563204 -0.00057669 0.00071979)
(0.565091 3.11703e-05 -7.74562e-05)
(0.562065 -0.00105316 -0.000665502)
(0.564296 7.90303e-05 1.5727e-06)
(0.197427 -0.19788 0.00334431)
(0.566256 -4.09884e-05 -0.000118973)
(0.565168 0.000449438 0.00344795)
(0.582653 0.00474076 0.016252)
(0.591613 -0.00760732 0.0125865)
(0.566001 0.000151755 0.000343625)
(0.566307 -0.000667759 0.000357027)
(0.562531 0.0010265 0.00340735)
(0.562247 -0.000522691 0.000578161)
(0.563835 0.000955061 0.000858397)
(0.198528 -0.194015 0.00296399)
(0.56676 -0.00142823 -0.000227522)
(0.562869 0.00026919 0.000600375)
(0.561967 0.00203302 0.000387741)
(0.56164 -0.000784307 0.000717592)
(0.564412 -0.000178727 3.29051e-05)
(0.565061 -1.21575e-05 -0.000148157)
(0.197004 -0.108378 -0.000387365)
(0.200037 0.19985 0.000397147)
(0.563002 -0.00130229 0.0007682)
(0.561465 0.000517567 -0.0013254)
(0.55966 -0.0015505 0.00209542)
(0.587191 0.00727571 0.00219716)
(0.564003 1.21287e-05 0.000138986)
(0.196875 -0.198239 -0.0013947)
(0.565953 -0.00129888 0.000373329)
(0.564978 -0.000115205 -0.000320221)
(0.56659 -0.000767607 -3.55174e-05)
(0.563207 -0.000687887 -0.000476132)
(0.545982 -0.117852 0.0772356)
(0.564901 -1.35633e-05 -0.00035949)
(0.563934 -0.000500547 -2.52738e-07)
(0.559033 1.09352e-06 0.00123021)
(0.563723 -0.0016167 -0.00371811)
(0.564922 -0.00103712 0.00134503)
(0.564918 -0.000165924 0.000214846)
(0.201273 -0.200496 0.000338606)
(0.195991 -0.195353 0.00168491)
(0.566504 0.000389246 0.00031912)
(0.566457 -0.000809551 0.000365089)
(0.580702 0.00295018 0.00143684)
(0.587365 0.00612264 0.000779308)
(0.57738 -0.000115585 0.001957)
(0.566147 -0.000190865 -0.000664358)
(0.299197 -0.21338 -0.0184027)
(0.574107 0.0017139 0.000571936)
(0.564475 0.00221726 0.00299065)
(0.586056 0.0172333 0.000750209)
(0.56586 0.000166706 0.000184546)
(0.565723 -0.000743094 0.00052056)
(0.566818 -0.000931947 0.000121501)
(0.570812 -0.00106498 0.000918591)
(0.561662 -0.00113987 -3.92444e-05)
(0.567293 -8.7374e-05 -0.000349451)
(0.56691 0.00125568 -0.000682628)
(0.565518 2.7631e-05 -0.000131808)
(0.562003 0.000901895 0.0042945)
(0.566258 0.00156091 -0.000165842)
(0.19873 0.198923 -9.11452e-05)
(0.195967 0.197802 0.00150162)
(0.566783 -0.000161099 -0.000327499)
(0.566685 -0.000413977 3.81999e-05)
(0.566496 -0.000119616 -0.000108356)
(0.569172 0.000387686 -0.00148492)
(0.561135 -0.00127436 -0.000460367)
(0.562862 -0.00031252 -0.000119073)
(0.566628 -3.58348e-05 -7.6228e-05)
(0.564437 0.000207245 0.000158801)
(0.563742 -0.00171028 0.000517751)
(0.566565 0.000717963 -0.000195019)
(0.200735 0.200933 0.00131494)
(0.560961 -0.00303249 0.00155024)
(0.565581 0.000749693 -0.000131642)
(0.202032 0.202598 -0.000460356)
(0.565825 -0.000159843 2.46652e-05)
(0.195216 0.197028 -0.00207591)
(0.564432 0.00253368 -0.0020871)
(0.561869 0.00311401 -0.00318287)
(0.594272 -0.0103295 0.0180802)
(0.564007 -0.000440049 -1.03089e-05)
(0.199744 -0.199393 0.000597544)
(0.600374 -0.0115959 0.0170345)
(0.564182 -0.000435428 0.000802298)
(0.564166 6.34293e-05 -0.000509152)
(0.565843 -0.000239769 0.000298981)
(0.565886 0.000624035 -0.000249176)
(0.199171 0.199235 -0.000200289)
(0.561946 -0.000196952 -0.00104989)
(0.563904 -0.000925318 0.000241397)
(0.564104 -3.30259e-05 -0.000234217)
(0.582602 -0.0109976 0.016415)
(0.199872 -0.199983 -6.65368e-05)
(0.565327 0.000189118 0.0006248)
(0.5625 -0.000466292 -3.72881e-06)
(0.565317 0.000370802 0.000302007)
(0.564218 -0.00124364 -0.000253618)
(0.564808 0.00025493 -0.000237875)
(0.563516 0.000989056 0.00138712)
(0.567501 0.00256112 -0.00162302)
(0.564073 -0.000383592 0.000171235)
(0.565962 0.000168726 0.000291528)
(0.566254 0.000988882 -0.00123095)
(0.565066 -5.97543e-05 -0.000256528)
(0.565668 0.000251982 0.000297029)
(0.540349 0.000784017 -0.000606621)
(0.5626 0.000232432 -0.000461514)
(0.563676 0.000247428 0.000123838)
(0.564022 3.97577e-05 4.19042e-06)
(0.562428 -0.00132903 0.000549584)
(0.569986 -0.00324468 -0.00101845)
(0.199481 -0.199204 -0.000146081)
(0.590697 0.00251376 0.00621697)
(0.554351 0.00147067 -0.000864047)
(0.554315 0.00273602 -0.00709318)
(0.565009 0.000127211 1.41568e-05)
(0.562258 0.000705124 0.00033447)
(0.199395 -0.199032 2.33478e-05)
(0.56679 0.00119689 -0.000728638)
(0.55979 -0.000234583 0.000435346)
(0.202459 -0.194182 0.000159377)
(0.566152 -4.61308e-06 0.000492071)
(0.19994 0.199979 -3.46441e-05)
(0.196477 0.201287 0.000519105)
(0.563092 0.000223393 -2.57144e-05)
(0.564309 -0.000697215 0.00119452)
(0.564583 -0.000244243 5.05503e-05)
(0.490911 -0.00591454 0.00218703)
(0.564485 0.000193169 0.000147058)
(0.198071 0.198585 0.000349069)
(0.564936 0.000239087 -0.000108547)
(0.19731 0.199025 0.00129842)
(0.564507 -2.43237e-05 -0.000294381)
(0.200082 -0.200254 -1.31455e-05)
(0.564458 -0.000222151 0.000284088)
(0.564049 0.000187058 -2.7094e-05)
(0.198928 0.19836 -1.04269e-05)
(0.199465 -0.199538 -1.40981e-05)
(0.201361 0.198084 -0.0033839)
(0.562445 -0.000325889 6.17703e-05)
(0.564826 0.00156673 0.000444643)
(0.561265 0.000867278 -0.00034635)
(0.566776 -8.44295e-05 0.000119651)
(0.277961 0.14175 -0.00515548)
(0.563612 -0.000643944 0.000807598)
(0.199301 0.199497 3.55518e-05)
(0.199026 0.199476 -0.000595514)
(0.564044 0.00283956 0.00101624)
(0.56066 -0.000654942 0.000132485)
(0.19936 -0.196652 0.000734351)
(0.563272 0.000296031 0.00120977)
(0.564778 -2.05974e-05 -0.00016238)
(0.379486 -0.148195 0.0151766)
(0.525732 -0.00177133 -0.00187351)
(0.551028 0.0160836 -0.0113296)
(0.563171 0.00281767 0.00138702)
(0.560051 -0.000464841 -0.00196305)
(0.563378 -0.00224424 0.00188591)
(0.563435 0.000305515 -0.000560451)
(0.564794 -4.24763e-05 0.000241514)
(0.56433 -0.000372571 0.000120426)
(0.565007 -0.000497525 -0.000568208)
(0.554465 -0.00276376 -0.00115361)
(0.56129 0.00494163 0.000193651)
(0.577038 0.00457538 -0.00303339)
(0.58235 0.0031048 -0.000625643)
(0.564565 0.000195605 -0.00115667)
(0.530936 0.000666643 -0.00393626)
(0.572751 0.00281505 -0.00194232)
(0.199829 -0.199796 -0.000157201)
(0.56139 0.000698758 -0.00137034)
(0.199503 -0.199685 0.000361418)
(0.562523 4.91618e-05 -7.34605e-05)
(0.58422 0.00166684 0.00216228)
(0.566283 -9.72289e-05 -6.32898e-05)
(0.567608 -0.028008 0.0125025)
(0.530501 -0.00376997 -0.000885107)
(0.535069 -0.0001511 -0.0060601)
(0.562536 -0.000744167 -0.000211624)
(0.563767 8.08811e-05 0.000649819)
(0.564207 0.00122839 0.00232933)
(0.588554 0.0131814 0.0120474)
(0.564213 0.000152548 -0.000190899)
(0.564257 -0.000247225 3.56736e-06)
(0.201136 -0.200364 0.000433383)
(0.562556 -0.000254649 -0.000640019)
(0.559188 -0.00180349 -6.09354e-05)
(0.199417 0.199213 -5.85134e-05)
(0.565563 -0.00148144 0.000771703)
(0.575285 0.0176519 0.00834538)
(0.572214 -0.00435128 0.00688371)
(0.565027 0.000177608 -0.00143327)
(0.562448 -0.000884984 0.00179475)
(0.20047 -0.200406 -0.000927839)
(0.205333 -0.202286 0.000506861)
(0.574759 0.00424396 -0.000680306)
(0.564952 -0.000260437 -0.000431146)
(0.560019 -0.00129602 -0.00371478)
(0.202961 0.200382 -0.0017836)
(0.564357 -0.000579313 -2.67364e-05)
(0.201347 -0.200344 0.000488946)
(0.562702 -0.000240987 -0.000462156)
(0.564693 -0.0011404 -0.00111121)
(0.516718 -0.00717483 -0.00293445)
(0.580543 -4.11308e-05 0.00293448)
(0.200021 0.199741 -4.12916e-05)
(0.565984 -0.000967955 0.000538311)
(0.563793 -0.000102147 0.000714676)
(0.561704 -0.000465827 -0.00135559)
(0.566088 -0.000754097 -9.46564e-05)
(0.564617 0.000921276 -0.00109437)
(0.565135 -0.00106779 -3.59336e-05)
(0.563414 0.00160093 6.99228e-05)
(0.56315 -7.10597e-05 -0.000239104)
(0.580348 0.00242375 0.00263713)
(0.199645 -0.199557 0.000253207)
(0.545535 0.0011093 0.00102001)
(0.563093 -7.95053e-05 0.00132901)
(0.577181 -0.00021968 0.00189991)
(0.565122 -6.25308e-05 -9.64984e-05)
(0.553719 -0.00115017 0.00217933)
(0.577073 0.000216195 0.000310677)
(0.200507 -0.19943 -0.000180073)
(0.561047 0.00496794 0.00188089)
(0.56055 0.00716362 0.0068328)
(0.564912 -0.000253544 -0.000446484)
(0.564515 0.000668585 -0.00077052)
(0.565004 0.000556624 0.000165856)
(0.560128 -0.00554572 6.73671e-06)
(0.198441 0.19864 -0.000114618)
(0.199721 0.199872 0.00012339)
(0.199021 0.199926 0.000151388)
(0.564522 0.00219719 0.00290514)
(0.555235 -0.00313622 -0.00796718)
(0.504405 -0.00183226 0.00110766)
(0.568596 -0.000248973 -1.30791e-05)
(0.565306 -0.00300415 0.000949311)
(0.562882 -0.000140971 0.000482239)
(0.564053 0.000621971 7.98023e-05)
(0.561016 7.31624e-05 0.000511007)
(0.563849 -0.000186685 -9.41568e-05)
(0.202566 0.198565 -0.000465459)
(0.556325 -0.00677516 -7.06315e-05)
(0.563033 -0.000673505 -0.000361263)
(0.560807 0.000803559 0.000980468)
(0.563147 -0.000669399 0.000255346)
(0.56662 0.000402074 8.66878e-05)
(0.564767 0.000496789 4.17349e-05)
(0.561355 0.000973179 -0.000265592)
(0.590368 -0.00108882 0.00661877)
(0.565341 0.00078562 6.66073e-06)
(0.560539 -0.000651335 -0.00150778)
(0.564304 4.71129e-05 5.30647e-05)
(0.560404 0.000669589 0.00118863)
(0.562771 -0.0004361 -0.000507853)
(0.556825 0.00330534 0.00245417)
(0.564072 -0.00031267 -0.000782511)
(0.197306 0.196538 0.000409162)
(0.198777 0.198721 -9.61671e-05)
(0.573516 -0.000922739 0.0003356)
(0.565347 -7.17201e-05 0.00126589)
(0.56601 -0.000145598 0.000364662)
(0.199202 0.200502 0.000238311)
(0.199955 -0.19981 -0.000326626)
(0.563202 -0.000859859 -0.000118566)
(0.200532 -0.200735 -1.43361e-05)
(0.564615 0.000236388 9.25995e-05)
(0.56432 -0.000318773 -0.000214422)
(0.5659 -0.000278378 0.000124441)
(0.566602 0.000206985 0.000259)
(0.561648 -0.00430606 -0.00118676)
(0.197936 0.200093 0.00148532)
(0.565723 -0.000738665 -9.65548e-05)
(0.565059 -0.000106075 4.20558e-05)
(0.198152 0.198362 0.000188303)
(0.56405 0.000448356 0.000509728)
(0.198282 0.200204 0.000324351)
(0.197313 0.196195 9.67496e-05)
(0.564016 -8.05308e-05 -0.000576579)
(0.566773 0.000386366 -9.79172e-05)
(0.564842 -3.96628e-05 0.0001159)
(0.199177 0.198979 -0.000622342)
(0.199054 0.199096 0.000121758)
(0.486896 -0.000239321 -0.000807215)
(0.565252 -0.000436566 0.00142073)
(0.565313 2.18432e-05 -0.000200424)
(0.565176 -0.000559344 -0.000509034)
(0.565093 0.000268337 -0.000845593)
(0.565543 0.000220035 -0.000384449)
(0.563955 0.0215124 -0.0143905)
(0.199761 -0.200313 -0.000235279)
(0.564477 -0.000425245 -7.04256e-05)
(0.56171 -0.000356016 -0.000488455)
(0.199438 0.199456 -4.73598e-05)
(0.200329 0.19868 -0.000271733)
(0.564898 -0.000153079 0.000190382)
(0.564215 -0.000453386 -1.88331e-05)
(0.198344 -0.19881 0.000580533)
(0.565206 -0.000328821 -0.00015323)
(0.565038 0.000217306 2.82099e-05)
(0.565071 -7.05487e-05 -0.000871377)
(0.590546 0.04285 -0.0162778)
(0.563921 0.000561206 -2.63522e-05)
(0.566388 -0.000279159 -0.000100498)
(0.559124 0.0241076 -0.00319987)
(0.637534 0.129724 -0.0580089)
(0.565311 -5.15401e-05 -2.51343e-05)
(0.254867 0.159107 -0.00775366)
(0.562276 0.000526983 -0.000247602)
(0.200788 -0.200371 0.000163742)
(0.559191 7.71753e-05 0.00080733)
(0.199714 -0.199531 0.000634375)
(0.563668 0.000471054 0.000123041)
(0.563927 0.000404356 -0.000531684)
(0.200065 0.200266 -0.000623558)
(0.562607 0.000709849 0.000865453)
(0.565662 -0.000494037 -0.000560973)
(0.567066 -0.000213166 -0.000343231)
(0.199408 0.199107 3.76315e-05)
(0.198956 -0.199033 3.93878e-05)
(0.562449 -0.000460797 0.000605526)
(0.163878 0.116934 0.0442226)
(0.56704 -0.00102712 -0.000782705)
(0.20042 -0.199736 0.00019335)
(0.582601 -0.00113543 0.00728982)
(0.562312 0.00041003 -0.000217074)
(0.566556 8.05466e-05 -0.000173424)
(0.201054 -0.198567 -0.00135173)
(0.567051 -0.000299689 -0.000113613)
(0.566047 -0.00106009 0.000552274)
(0.206897 0.195726 -0.0012099)
(0.566893 0.000327116 -0.000865353)
(0.565728 0.000203801 -0.00111772)
(0.566962 0.00030257 8.61789e-06)
(0.565828 -0.000280833 2.76029e-05)
(0.566482 -0.00013075 -0.000386114)
(0.567356 -0.000304508 -0.000474567)
(0.200167 -0.20066 -0.000273553)
(0.19247 0.193548 0.000609603)
(0.56165 0.00029586 0.000165678)
(0.564281 0.00158733 0.00287644)
(0.565013 2.96644e-05 -0.00042076)
(0.566744 0.000196359 -0.000368418)
(0.200058 0.200107 -0.000165505)
(0.565548 -0.000137067 -0.000218261)
(0.565372 0.000223096 -0.000860304)
(0.566239 0.000199758 -4.70813e-05)
(0.565287 0.000130276 -0.000311516)
(0.567189 4.32121e-05 -0.000444372)
(0.563068 0.000836099 0.000780654)
(0.565248 0.000532305 -0.00104235)
(0.565184 0.000666063 -0.000732728)
(0.19882 0.198817 -0.000232508)
(0.559672 0.000311217 -0.000288777)
(0.227627 -0.191792 -0.00767867)
(0.554283 -0.00372134 0.00022398)
(0.196659 0.191303 -0.00190566)
(0.198296 0.198823 0.000168957)
(0.564997 2.29785e-05 0.000300444)
(0.564591 0.000109183 -1.6139e-05)
(0.198449 0.198584 -0.000139576)
(0.557112 -0.000515468 0.000303124)
(0.565191 -0.000628881 0.000153842)
(0.56568 -0.000496439 -0.000165007)
(0.56579 0.000191711 -0.000480121)
(0.199184 0.198421 0.000759843)
(0.564562 0.000193246 0.000140987)
(0.561112 -0.00012928 0.000563372)
(0.5618 -5.20357e-05 0.000500419)
(0.566272 0.000180568 -0.000326795)
(0.56331 5.07835e-05 0.00026623)
(0.565956 -9.90063e-05 -0.000485995)
(0.564613 -0.000159565 -0.000379757)
(0.564985 0.000182233 -0.000401889)
(0.563263 -7.10605e-05 0.000169353)
(0.573314 -0.00076374 9.14292e-05)
(0.156342 0.0619224 -0.0710413)
(0.563695 -5.13195e-05 0.000247934)
(0.198444 0.199134 0.000428855)
(0.564835 0.000169707 0.000720541)
(0.565729 4.43757e-05 -0.000347862)
(0.562501 0.00239878 -0.000245467)
(0.559742 -0.00215252 0.0038637)
(0.564741 -0.000933586 0.00179163)
(0.563295 -0.000229957 0.000116771)
(0.566569 0.000194476 -0.000544234)
(0.565959 -4.12188e-05 -4.40331e-05)
(0.566119 -0.000529265 -0.000606381)
(0.562967 -0.000942436 0.00104791)
(0.198127 0.199734 -0.00289846)
(0.565602 -0.000161098 0.000358738)
(0.565515 0.000554125 0.000742123)
(0.566999 -0.000286294 0.000193737)
(0.564577 6.2868e-05 3.79166e-05)
(0.564796 -0.000497516 -0.000661101)
(0.563536 -8.88661e-05 0.000272215)
(0.557233 0.00647179 -0.00107057)
(0.572545 0.000966254 0.000707514)
(0.559437 0.00163332 -0.000871171)
(0.563233 9.60761e-05 -0.000773771)
(0.200012 0.200123 0.000361656)
(0.200739 -0.199933 -2.82638e-05)
(0.566477 0.000260966 0.000262918)
(0.566378 0.00019203 0.000414956)
(0.562237 -0.000963743 0.000906695)
(0.5599 0.000602905 -0.00223819)
(0.563136 -0.00041203 -0.000270606)
(0.19963 0.19988 -0.000256513)
(0.199086 0.199306 -0.000159627)
(0.56637 -0.000506808 -0.000571835)
(0.563989 -0.000197403 0.000140915)
(0.565002 -0.000112056 -3.31279e-05)
(0.565261 -3.76966e-05 -5.80415e-05)
(0.565227 -0.000341788 -0.000643173)
(0.565555 -0.000346012 -6.70908e-05)
(0.220749 -0.1536 -0.0142388)
(0.564917 0.000156751 -0.00011976)
(0.562575 -0.00126539 0.000902505)
(0.560945 0.000364982 -0.000914816)
(0.557938 -3.07681e-05 -0.00177656)
(0.566263 -0.000154225 -0.000242898)
(0.542061 0.00327731 -0.0128761)
(0.556235 0.0151366 -0.0105287)
(0.566449 0.000174403 0.000159037)
(0.561866 -0.000769536 0.000658621)
(0.560491 -0.000173008 0.000125298)
(0.563591 -0.000823894 0.000249087)
(0.573665 -0.000354365 -0.000604037)
(0.199325 0.199349 1.11407e-06)
(0.557364 0.00217168 -0.00240875)
(0.566307 -6.29956e-05 3.69205e-05)
(0.551542 -0.00227865 -0.00602366)
(0.565642 0.0002745 -0.000540991)
(0.566196 3.78595e-05 -0.00055809)
(0.199729 0.197602 -0.000812408)
(0.563577 -0.00106507 0.00400564)
(0.566192 -0.000204921 -0.000257057)
(0.566431 7.29371e-05 -0.000438845)
(0.561785 0.00026335 0.00107918)
(0.554558 -0.000286665 -0.00189726)
(0.199309 0.20511 -0.00187097)
(0.197822 0.195525 -0.00103317)
(0.565485 0.000247105 0.000167965)
(0.565764 -0.000208439 -5.93497e-05)
(0.566398 -0.000217278 0.000286524)
(0.566857 2.90272e-06 0.000176215)
(0.565733 9.98269e-05 -0.000195227)
(0.562725 -0.000821274 -0.000491391)
(0.563501 -0.000548484 0.000697011)
(0.563346 0.0021581 -0.00251484)
(0.565629 -0.00015356 -0.000976606)
(0.566023 0.000837765 -0.00025781)
(0.56434 -0.00129848 0.00233308)
(0.561807 0.000993855 -0.000998894)
(0.56341 -0.000853702 -0.000146264)
(0.565942 0.000252356 -0.000318346)
(0.198627 0.198608 0.000101634)
(0.566302 0.000127597 -0.000147356)
(0.200153 0.200465 -9.35787e-06)
(0.199594 0.199156 -1.33673e-05)
(0.565589 0.000964663 -0.000425958)
(0.563668 9.51796e-05 0.000195249)
(0.566153 -0.000713197 0.000554424)
(0.200742 -0.200524 0.000128977)
(0.562452 0.000528441 0.000265918)
(0.561734 0.000718945 -0.001681)
(0.566837 0.000556233 -0.000802168)
(0.199529 0.199642 8.54107e-05)
(0.564055 -0.000389956 -0.000144123)
(0.197085 0.198847 -0.000605385)
(0.564178 -0.000345825 0.0031872)
(0.198295 0.197219 0.000285908)
(0.562545 -0.000125427 0.0006066)
(0.563543 -9.39646e-06 0.000674188)
(0.563409 -5.32752e-05 -5.15555e-05)
(0.565841 0.000712376 -0.000220084)
(0.200944 -0.200762 0.000197548)
(0.19839 0.198456 -0.000116959)
(0.566913 0.00276476 -0.00325633)
(0.562326 0.000446185 0.00159856)
(0.567195 0.000330526 -0.000952094)
(0.565512 -7.11888e-05 -0.000286149)
(0.565528 -0.000180267 -0.000408366)
(0.565459 0.000287762 -0.000671323)
(0.574609 0.00321038 -0.00139874)
(0.199192 0.199495 -0.000623712)
(0.582111 0.00693436 -0.000966512)
(0.565767 -0.00067653 -0.000929472)
(0.541671 0.0634732 -0.0395601)
(0.19821 0.196924 0.00066373)
(0.560241 -0.000109303 -0.00150697)
(0.561179 -9.92439e-05 -0.000255519)
(0.19941 0.197822 0.00170558)
(0.582071 0.00243186 0.000906679)
(0.56716 0.000142713 -0.000336825)
(0.200227 -0.200017 -3.54283e-06)
(0.563304 0.000213755 0.000761961)
(0.596168 0.00813883 0.00136853)
(0.565075 -0.000116104 0.000119802)
(0.561305 -0.00136331 0.00213889)
(0.576489 0.00471832 0.0272026)
(0.563396 0.000770902 -0.000772849)
(0.564706 0.000101647 -0.000189242)
(0.561594 8.33952e-05 -0.00204876)
(0.540456 2.09297e-05 0.00118874)
(0.567142 -0.0234327 0.025719)
(0.564685 0.000191176 0.000900444)
(0.564497 -0.000640559 0.000550938)
(0.565764 5.60735e-05 -8.43471e-05)
(0.57515 -0.00111797 0.00102353)
(0.566273 -7.2015e-05 0.000164967)
(0.568607 0.00372441 -0.00212722)
(0.19943 0.199475 2.3332e-05)
(0.566302 0.00050844 -0.000228442)
(0.581058 0.000520659 0.00167317)
(0.590935 0.00584411 0.008294)
(0.199978 -0.200107 0.000103717)
(0.563496 -0.00130591 0.000635323)
(0.565999 -0.00016259 -0.000394481)
(0.197201 0.19514 0.000393939)
(0.563679 0.000285566 1.8684e-05)
(0.564123 0.000225453 -0.000415137)
(0.565825 0.000632337 -0.000286816)
(0.563421 0.000125438 0.00014894)
(0.564821 -0.000322489 -0.000313191)
(0.56455 -0.000171709 0.000199643)
(0.199454 0.199892 -0.000223172)
(0.563183 -0.000553965 -0.00205037)
(0.566133 -0.000115396 -0.000168627)
(0.198982 0.198967 0.000239135)
(0.20002 0.199452 -0.000103858)
(0.565338 0.000459194 0.000650013)
(0.199949 0.199806 -0.000490915)
(0.56409 -0.000334333 0.000403317)
(0.56159 -0.00409836 -0.00090073)
(0.565734 0.000393994 -6.09482e-05)
(0.562551 -0.00121093 -0.00257349)
(0.562526 -0.000496335 -0.00230984)
(0.284086 -0.0202527 0.0421974)
(0.199433 0.199675 0.000177529)
(0.565086 -5.29905e-05 0.000110185)
(0.56435 -7.20593e-05 -0.000211332)
(0.563085 0.000507301 -0.000547955)
(0.562157 0.00275607 -0.00180429)
(0.563963 -1.82826e-05 -0.00103021)
(0.199141 0.199307 -0.000232691)
(0.545188 -0.000273224 0.00103785)
(0.563048 0.000316672 -0.000207719)
(0.557175 0.0018003 0.00374431)
(0.565116 -0.000244038 0.00055735)
(0.565553 -4.46369e-05 -0.000290871)
(0.55631 0.0184708 -0.021505)
(0.565487 -0.00120408 -4.28737e-07)
(0.550925 0.00619225 -0.0113938)
(0.198856 0.195568 -0.000894408)
(0.199194 0.199615 7.65363e-06)
(0.198161 0.198426 -8.79417e-05)
(0.56551 0.000406156 -0.000106097)
(0.564782 -0.000209382 -0.000560381)
(0.19967 0.199471 0.000168531)
(0.563452 -0.000186472 0.000893231)
(0.55866 0.00399543 0.00243871)
(0.56271 -0.00051629 -0.000699382)
(0.501389 0.0705173 -0.0408431)
(0.559812 -0.000646453 -0.000690541)
(0.564636 0.000118641 0.000330173)
(0.199842 0.2045 0.000719409)
(0.557073 0.0128414 -0.0212049)
(0.199845 0.199835 0.000133984)
(0.199208 0.198789 0.000398733)
(0.565402 -0.00021495 -2.41041e-05)
(0.318204 0.243786 0.0366528)
(0.290203 -0.119144 -0.00426069)
(0.565027 -0.000996194 -0.000133847)
(0.194327 -0.197746 0.000259929)
(0.565564 7.71888e-05 -8.9996e-05)
(0.560979 -0.00237407 -0.00516219)
(0.570069 0.0198982 -0.0133095)
(0.565027 -0.000202016 0.00026897)
(0.575804 0.0106709 -0.00403348)
(0.564439 0.000681117 -8.90113e-05)
(0.570819 -0.0369749 -0.010856)
(0.198519 0.198861 -2.10266e-05)
(0.199256 0.197585 0.000854929)
(0.563436 -0.00125988 -0.000284457)
(0.563147 -0.000861115 0.00118717)
(0.565828 0.00011476 -0.00020991)
(0.195869 0.198989 -0.00154692)
(0.562554 0.000996754 -0.000148638)
(0.564152 -0.000224323 0.000609007)
(0.564362 2.0072e-06 0.000268473)
(0.199258 0.199486 0.000831008)
(0.564016 0.000553134 -0.000128588)
(0.564284 -8.88443e-05 0.000250666)
(0.511062 0.0571986 0.0375919)
(0.19901 0.199232 -3.657e-05)
(0.645193 0.172791 -0.00651313)
(0.522318 0.073523 -0.0537017)
(0.200763 -0.199977 0.000166752)
(0.200037 0.198706 0.000505756)
(0.199483 0.199483 0.00017148)
(0.20028 0.199658 0.000235467)
(0.200177 0.200132 -0.000649906)
(0.564877 0.000423046 -0.000103979)
(0.564734 0.000579772 0.000558114)
(0.564635 0.000512253 9.23347e-05)
(0.199868 0.199012 9.48412e-05)
(0.565261 -0.00020888 -0.000272303)
(0.567335 0.000391588 0.00027745)
(0.199909 0.199365 0.000361801)