/*--------------------------------*- C++ -*----------------------------------*\
  =========                 |
  \\      /  F ield         | OpenFOAM: The Open Source CFD Toolbox
   \\    /   O peration     | Website:  https://openfoam.org
    \\  /    A nd           | Version:  10
     \\/     M anipulation  |
\*---------------------------------------------------------------------------*/
FoamFile
{
    format      ascii;
    class       volScalarField;
    location    "6";
    object      p;
}
// * * * * * * * * * * * * * * * * * * * * * * * * * * * * * * * * * * * * * //

dimensions      [0 2 -2 0 0 0 0];

internalField   nonuniform List<scalar> 
111485
(
31.7016
0.778163
0.901347
31.6828
0.911404
30.8629
0.778173
0.717473
0.780101
1.07335
0.766239
0.956545
0.797021
0.694605
0.79516
0.861783
0.334659
35.1459
0.801273
31.6755
31.6727
30.9001
0.779174
0.858805
0.883967
31.5319
1.06223
0.584795
0.889271
31.7191
1.10277
0.237827
31.6997
30.9578
34.3802
30.8635
1.19044
0.257626
1.31655
0.839164
31.1668
1.06399
0.844781
1.13633
0.584773
31.8184
1.10636
0.841535
1.07441
31.79
31.7799
29.8421
31.8127
1.11713
31.8343
0.550565
0.798253
31.045
0.831689
0.828724
0.835423
31.7038
0.677323
1.11982
30.9768
0.612058
21.1106
0.738547
0.594046
0.698535
0.988508
0.587822
31.0372
0.613917
31.7667
0.406586
30.9164
1.02751
30.8932
32.487
1.03146
1.08312
30.9344
31.7442
0.670189
0.828434
8.44967
1.10317
1.08077
0.343917
0.776102
0.83965
0.687515
0.264937
1.05715
31.7432
31.7031
1.14878
-1.27355
1.59271
31.6942
1.06377
30.9519
0.991012
0.734182
31.9413
30.997
0.278425
0.848172
0.280899
0.210275
0.649396
0.860655
0.983236
31.5241
0.402383
31.5908
31.0174
0.611623
31.6806
31.5306
27.1679
30.9381
31.0474
1.11385
35.7291
27.0196
0.301049
31.7615
3.16451
1.031
1.14405
31.7687
26.5871
27.6888
0.770935
30.9219
0.426562
0.694323
0.771368
0.950192
0.719695
0.739225
0.89768
1.06624
0.157541
30.9206
31.7362
31.0398
0.741789
0.886674
31.6617
1.16748
0.0379632
-0.873685
0.756452
0.743897
0.752929
-0.333253
31.7917
31.6836
0.748025
0.845947
-0.181616
-0.630932
0.336055
1.12638
31.1431
-0.0347612
0.0963379
31.0196
31.7313
0.914116
30.9637
0.14727
0.072282
31.0316
30.9529
31.5979
31.5705
30.848
31.6805
0.761477
0.768994
0.761876
0.25732
1.04846
0.482285
1.22643
31.6925
0.383969
30.9404
31.6632
0.520893
1.04606
1.17584
0.629913
0.101128
31.7707
0.786349
0.917556
21.9458
1.13571
0.313974
31.7429
0.508308
0.976022
30.9305
1.15161
1.10729
0.871743
0.449515
30.8167
31.7096
0.476948
20.6646
1.14877
30.9594
0.497133
0.438313
1.08795
31.7652
0.493932
1.09856
24.5939
30.9626
31.0222
1.08865
-0.593286
31.2411
29.3814
0.454541
0.177219
0.212377
31.2298
31.3544
1.13126
31.7624
0.732185
0.426934
0.443641
0.393875
0.436086
31.0294
1.04979
0.304752
31.0491
30.9321
1.08131
0.643953
31.4482
0.279533
0.353608
31.7355
25.995
1.10978
31.682
32.1727
28.9897
31.6543
0.406301
0.370638
-0.00419211
31.7825
0.364428
31.6854
31.6964
31.776
1.11949
1.01331
0.665893
0.579964
0.979829
0.634935
0.632254
1.15535
0.148974
0.206489
30.6727
31.7305
1.16582
0.247462
0.717765
0.198573
31.6826
0.672221
0.762366
0.649299
1.05334
1.07599
0.652722
0.568746
1.11432
31.0334
0.98092
30.9661
35.04
32.4323
1.05353
0.956655
0.795179
31.6184
31.2724
0.538865
0.232468
31.6586
31.7051
31.8493
0.393291
0.227659
0.769173
0.790112
0.811999
29.3262
31.0158
31.7497
0.543962
13.8676
0.746883
1.06614
1.06351
30.9347
31.698
31.7047
27.6661
0.562467
0.917849
31.0038
0.561607
31.433
31.5897
1.18351
0.565021
0.975885
0.56459
32.2141
27.5313
30.9993
0.555902
0.0917766
1.12429
30.9833
3.51656
0.870831
0.933476
0.54215
6.54572
0.815589
30.9062
0.806002
0.581513
1.08549
1.15456
0.895724
30.9757
31.7551
31.0023
31.6938
0.749047
0.508035
0.926732
0.844257
31.035
0.948725
31.0059
31.7317
0.824709
32.625
28.1358
31.9328
30.8524
0.762039
31.0417
0.0718029
0.959039
30.8953
0.654027
0.599855
31.7173
0.568035
0.961195
0.631554
1.17102
0.188619
0.187303
32.2533
31.7388
1.16915
31.099
0.978125
1.14705
31.0195
31.0298
0.552559
0.909028
0.0851128
0.99363
30.918
1.10628
0.937788
30.8486
1.12582
0.892857
31.7044
31.677
0.097125
0.887484
30.9526
31.6009
23.8879
31.6914
0.923607
30.9605
31.6916
0.940799
1.05729
1.11295
0.92904
30.8723
27.7339
1.2162
28.1082
1.13348
1.25638
1.0887
21.7689
28.3921
-1.67502
0.387144
31.7075
1.11796
0.961316
31.7591
-0.256699
1.08533
28.2558
0.982622
0.936253
0.194304
30.8856
1.05403
0.986046
0.225793
1.02914
26.9376
-0.747029
31.7402
1.25119
-0.596605
31.0201
0.948078
1.16352
26.2424
31.7772
30.0569
31.6676
0.909036
0.339129
0.976782
1.00257
1.14124
30.9667
0.842234
31.749
0.953744
30.8051
31.7382
31.7875
0.970391
31.7436
31.7077
33.5604
31.6997
31.0578
1.13284
31.0395
30.0414
30.9881
31.6632
30.8405
31.775
30.9073
0.972456
30.9828
1.12677
0.979077
1.2866
30.8795
1.14274
31.0167
31.6999
0.98828
1.03593
1.11441
1.03821
29.6907
1.07529
1.0689
0.1676
0.0619257
0.9977
31.733
0.0686154
26.2861
1.20269
30.969
1.12131
27.1426
0.209801
1.00581
33.2052
31.2387
0.00311841
31.657
1.06986
1.04357
31.0524
31.0617
31.9782
31.0114
-2.16638
1.06104
30.8158
31.0554
0.900486
30.9007
1.04942
30.9108
1.11428
31.7028
1.12376
1.13648
0.681154
0.19652
30.7635
-0.443493
30.8268
30.9702
0.971493
30.9747
1.08545
32.0041
1.14019
31.7226
1.10753
31.6695
28.293
1.18644
0.913314
1.03645
1.05397
0.981253
0.932993
31.0352
1.0094
0.991002
30.9507
1.27441
1.14601
1.08094
31.0853
32.3124
0.984102
0.989748
15.7442
31.0155
0.950405
0.934141
1.0511
1.04293
0.713701
11.3305
27.9376
-1.13323
13.607
31.6882
1.13376
31.0975
28.4088
0.371295
11.1135
-1.19545
7.01156
27.923
1.00123
0.920261
30.908
30.1223
0.929791
31.6659
30.8977
30.9083
30.8683
1.04936
31.0002
31.5912
1.08665
0.429085
24.4692
0.762426
29.6345
0.411328
31.8064
31.0316
1.03351
30.9633
30.8801
28.2811
0.196994
19.4552
0.983508
0.352693
31.6932
0.724324
0.833619
0.909502
1.31861
2.61114
0.880889
30.9767
1.04862
0.921305
31.7713
0.586797
1.12119
0.957807
0.169721
0.939477
0.944636
31.7962
1.08867
1.15765
28.2009
0.940802
1.16061
20.2143
0.358425
0.958556
1.13398
1.00406
1.01884
0.328921
31.372
1.00237
1.08291
32.964
1.02687
0.977581
0.362699
30.9807
0.201977
31.8337
30.9267
31.0224
30.8632
0.950182
28.6306
-2.43813
31.6969
30.628
1.06133
1.03207
31.6523
1.06387
31.6964
31.7579
31.8181
1.03626
1.12875
28.3952
31.5726
30.9717
30.9829
1.14621
0.313406
27.7014
1.02235
0.0507166
31.0401
1.04972
1.11662
0.429418
30.8875
30.9585
0.631641
0.360204
28.1455
31.0188
30.787
0.454272
31.7454
31.6312
30.9618
1.01555
0.876464
30.9
33.9673
32.9474
0.666954
31.0459
30.8627
1.08497
1.12113
28.0818
24.3901
5.92615
1.12728
0.0190741
30.7208
0.804638
1.18518
31.0317
31.8052
30.9214
30.9643
31.0128
30.9036
1.07249
31.6978
30.9246
31.0593
1.05531
0.345039
31.6429
31.8595
1.07565
0.345076
0.387756
31.6333
30.9306
0.356269
31.7397
0.99622
0.304936
0.418677
31.5513
31.695
31.6943
30.9853
0.984548
30.9347
30.9025
1.15454
31.6926
0.533273
1.22346
30.9094
0.378151
31.5797
0.502929
1.06294
1.01227
1.09544
-3.18358
29.3329
0.48988
1.10254
0.0161694
31.4599
-6.35442
28.9019
0.155726
30.9981
1.10165
1.11569
1.08571
32.3931
31.6987
31.7778
0.343394
29.6246
0.0700881
30.1601
0.861106
0.191862
0.195463
0.348314
30.9093
30.9279
31.1179
0.347672
30.8666
29.3207
0.969151
31.0366
31.0609
31.6996
30.9258
0.210509
30.7633
30.9611
-4.19231
29.5559
31.1128
28.5124
30.9556
1.06874
0.2152
31.6652
0.924319
5.56417
1.07641
0.186168
0.314542
31.0226
1.02543
1.27372
1.07688
31.7442
-8.23427
0.189103
26.4267
0.151829
1.05268
1.15951
0.658456
0.22213
0.986492
0.170576
0.241322
30.9115
30.9015
0.151629
0.102446
31.0334
0.165663
0.985178
0.230179
30.8303
1.08163
30.985
0.21899
0.195695
30.882
-0.201035
0.251552
0.942749
-0.0277762
30.665
0.769423
0.965598
1.30295
0.936407
1.14956
30.9375
31.024
1.20183
30.9236
1.07341
1.03697
27.317
-0.250611
-1.58841
0.426113
30.9262
26.0923
0.447841
31.7583
37.6601
1.13375
30.8317
30.8688
-1.19613
-1.73255
30.9246
1.08572
30.9645
30.9646
31.7681
31.701
31.9342
31.7356
1.22378
30.8594
31.0211
31.0544
-3.9499
1.36805
0.839589
0.433337
30.9427
30.8531
1.17831
30.9473
30.8807
23.9164
1.14469
0.539549
30.8896
30.8489
30.8965
30.8629
30.8012
30.8522
1.08385
30.8745
0.772332
0.835071
30.9807
31.7394
31.8454
1.06762
31.8123
31.6862
31.043
0.736713
30.9851
1.10721
1.14808
0.839012
30.893
21.7563
1.20597
0.787761
30.7932
0.800925
1.07114
31.6732
30.7248
27.8692
30.8523
0.443674
0.739863
1.1452
0.244887
30.8871
0.437607
30.603
27.807
27.703
31.0226
0.716626
30.958
31.8854
1.19702
0.522685
31.8742
1.09492
29.6671
1.07317
32.1873
30.9693
30.8931
31.6912
0.269979
0.760827
3.06419
30.8945
31.0204
0.229078
30.925
28.7223
31.7049
0.992082
0.20044
1.0361
31.6011
1.177
1.21638
33.1876
1.2226
30.8789
1.11008
1.04678
0.673682
1.11894
0.789774
30.9351
30.9659
30.9644
1.17071
31.3031
1.04698
31.7741
4.38124
31.633
0.827487
0.85492
31.8911
30.9193
31.9543
31.0682
1.0283
31.983
27.9008
0.205556
1.05086
31.9355
28.5967
31.1319
28.6762
30.8537
30.9391
1.08046
1.18524
31.6817
31.6011
-0.814649
31.7297
1.07653
0.270076
31.1404
1.15826
31.6928
0.139554
30.872
0.895191
30.8773
-0.572986
0.383819
0.957172
1.14016
1.12883
19.5944
30.5518
1.1756
31.7897
0.705196
31.6452
31.1045
30.6413
31.0348
31.1339
31.0312
1.08265
1.0357
31.694
26.9268
31.6631
1.10696
1.0736
31.7031
0.721289
0.964294
31.8454
0.319266
0.24111
0.68055
0.959625
30.9239
30.9476
31.0862
30.9118
0.695088
30.7329
1.18668
30.9435
1.16761
0.906749
31.0005
1.13176
30.9813
30.9197
1.15404
1.07981
9.76289
30.9458
31.9311
30.8367
0.712522
30.3902
31.9556
30.4757
5.01916
27.4164
-0.377229
28.5694
30.3388
31.208
0.254997
0.175346
0.995559
0.769528
31.7069
1.1712
30.9757
31.027
0.217041
30.7549
-0.792855
1.16281
0.252646
1.16864
-2.10429
0.923056
31.0123
-3.91905
-9.61916
1.10368
1.22762
0.552608
22.8366
31.6862
0.922619
31.6584
30.8676
0.701953
1.05356
-2.47289
30.9111
30.3221
1.15271
31.8437
30.8498
1.14789
31.9163
31.8748
0.93886
1.15917
1.03271
0.738017
0.380144
30.8707
30.9327
0.536509
0.645708
30.9071
31.8948
1.09177
30.8928
26.7601
27.5404
27.6916
18.3971
26.8845
30.9127
0.983069
30.8172
1.08713
30.8838
14.8544
31.0513
30.9311
31.0163
30.9263
0.956898
30.9262
30.9247
28.1476
30.8552
31.0143
30.9543
0.606648
30.9931
0.543755
1.07766
30.9416
1.10232
30.8971
1.06965
0.824826
0.197037
0.221361
31.5299
0.223668
0.944909
0.945082
31.7632
1.01856
0.509273
0.16431
29.7236
0.148694
31.1013
31.0075
30.8893
30.8999
0.162797
30.9646
30.8375
0.144437
0.925983
0.0732493
31.0613
22.4622
1.03922
31.0041
0.238533
31.8335
0.168054
30.8264
30.8448
0.926519
30.866
1.33635
31.7188
30.8833
0.513361
1.02438
0.392235
0.739915
1.045
0.59413
30.8853
32.3399
0.841463
0.403228
0.625044
1.05405
30.9254
0.552117
30.9163
31.362
0.832183
1.16118
30.8981
0.393049
30.9618
0.395179
0.372814
30.9907
30.9017
30.9855
0.848771
30.9606
30.9625
0.85424
0.396445
1.20101
0.160311
30.96
31.0393
1.10594
0.906586
30.9039
0.835025
31.162
0.823619
30.8994
30.8907
0.754329
30.925
1.06758
0.839832
30.8798
30.9018
0.749476
26.4182
0.985327
31.6999
1.14914
31.7455
27.0272
26.1698
0.843374
28.3228
28.03
0.724226
27.8774
17.8215
25.9207
31.0626
31.6607
0.836523
0.959326
31.1111
30.9654
0.855214
0.922413
30.8946
0.85709
30.9044
31.6786
1.04013
0.998
0.472607
30.8925
30.9776
30.9633
30.9233
30.8325
30.8447
30.9491
30.8406
30.8615
30.8954
30.9612
31.6669
30.9473
30.8863
30.8715
31.4647
30.8869
30.9035
30.9317
31.0469
31.5492
0.982379
30.9541
30.8887
31.0542
0.708233
31.0534
31.6782
12.8783
30.7859
30.4345
0.685384
33.1685
30.6289
14.9014
0.670995
30.9422
27.3828
29.2888
30.8688
1.14032
0.66841
0.676675
0.592938
0.473188
31.7565
30.8491
0.52959
0.568303
0.601774
30.905
0.614758
1.15268
0.682429
0.173414
0.201139
0.598628
0.2871
0.657721
31.8017
0.757099
0.667559
0.893049
0.630838
30.9812
30.9632
30.9987
31.6931
30.9704
0.565051
0.636991
30.9887
30.8641
30.8568
31.5872
30.8802
31.6595
30.8582
31.6682
0.621619
1.03616
0.637603
1.05586
30.7476
30.8666
1.11478
0.59079
30.9003
30.925
0.905868
31.8104
30.9532
0.767094
0.576482
0.611875
0.994183
1.1268
31.7487
0.0752709
0.742557
27.9089
31.659
0.692243
31.7295
30.8906
10.7485
6.47693
0.970438
31.3885
31.6694
1.23663
0.747762
0.13027
0.567359
14.5463
31.6919
1.24944
32.9787
31.7686
30.6031
0.890537
30.8758
0.571187
0.0591578
0.679931
0.722297
31.7522
0.523686
31.7508
30.2083
31.7359
31.6085
0.240813
18.7657
30.927
31.679
33.4694
0.578214
27.7384
0.505062
0.556542
0.221364
0.564675
31.6097
31.591
27.0464
0.904744
0.470735
-1.95324
31.8056
31.6998
27.5875
1.17289
0.848418
30.9197
0.295979
11.1387
0.741188
0.436931
31.6827
26.8882
0.432571
0.565661
30.9717
1.10567
1.06868
0.919156
0.416685
0.452651
0.530035
27.9171
0.276458
0.471245
0.43648
32.1343
0.701991
28.2435
0.929226
0.485281
31.7769
0.181382
0.454419
0.457946
0.625833
35.0529
9.57928
1.18366
17.9554
0.46487
30.732
0.200076
0.483595
31.6613
30.933
0.19155
1.0761
0.685148
34.9288
0.979058
0.776823
-2.76155
1.04205
31.6521
31.837
0.556533
33.4078
0.544023
0.707821
0.525045
0.24225
31.6701
1.13481
0.553924
31.6385
28.1371
0.411137
31.7846
0.39963
0.400435
31.7081
35.1037
0.758909
31.6532
30.8895
31.0375
0.227328
1.71561
0.910003
31.9673
0.88311
0.319862
31.0405
0.312633
0.288788
0.21924
0.991256
30.9108
0.497866
0.288165
0.315519
0.286286
0.231834
0.898536
0.870643
31.6991
-0.148072
0.225565
31.6863
0.308426
31.0385
30.957
31.7549
31.0678
31.6861
1.25521
31.0026
0.302495
0.947695
31.7705
1.04814
31.5341
0.211255
31.6641
0.849013
30.7838
0.849795
1.30618
0.849832
0.401839
0.228195
0.894563
0.236731
0.420036
12.0696
0.36663
0.561208
0.416074
31.7612
0.635267
1.04669
0.379082
0.804712
0.894927
31.7627
27.581
31.6518
0.908765
31.67
25.1225
0.229699
33.5981
1.1116
31.6086
31.6292
30.9254
0.623244
1.07448
0.367486
1.16456
0.224136
0.515262
0.555147
0.595193
0.231788
0.543896
0.519785
31.8248
30.8223
31.7464
0.735888
0.604851
30.9696
30.9244
25.598
0.611395
0.240342
31.6667
0.521046
31.7022
-0.00860315
0.922247
1.13587
31.6892
31.7016
0.570741
31.6926
1.09324
0.344802
30.1943
0.683732
0.810605
0.195075
31.6281
0.996501
28.3878
0.9897
0.901869
31.6958
31.795
0.32236
22.8357
31.849
0.427438
0.227761
31.7013
31.5672
28.204
0.483755
25.564
0.717265
1.10609
1.07518
31.7009
28.4025
1.09156
31.6985
30.983
31.7286
31.6838
28.7953
31.0312
30.442
31.643
31.6564
29.609
33.6051
30.7116
1.12575
30.7455
27.3581
25.9231
35.5538
27.8533
31.7028
1.11291
29.7907
30.9721
1.14058
32.8849
34.2797
31.4081
1.09308
33.4926
1.13416
1.07529
1.1072
29.0941
31.6749
1.16169
8.51794e-05
31.4754
31.7321
0.734171
28.7879
0.72412
28.505
30.897
31.1965
0.73046
0.73926
31.7109
0.971973
31.893
29.7558
0.761476
0.515086
1.12383
31.0112
0.726675
29.1684
0.973901
30.9073
31.6331
30.887
28.2596
0.486882
0.537329
31.7456
-1.35613
31.6726
31.7281
31.6697
31.6787
1.07903
1.02703
0.520421
1.52078
31.6208
0.894164
0.751316
0.45208
1.05519
31.205
0.446102
1.17117
0.591194
0.115593
0.708598
31.819
0.767335
1.09055
0.734081
1.12391
1.07265
31.7459
1.12027
31.2403
31.7224
0.638841
31.7628
0.937698
31.7131
31.8776
30.5677
31.6601
31.7504
1.02169
31.65
0.944913
29.2106
30.997
0.861424
1.14307
0.554977
0.894957
31.8125
4.30752
31.7442
1.01072
31.8818
0.844355
1.06233
1.12902
1.03851
31.9911
32.0181
31.643
0.474622
31.0365
31.6155
0.467153
30.8034
30.8745
1.19097
31.9905
0.611028
0.110889
29.0207
30.1625
29.9289
0.490828
0.774462
31.6734
0.0462199
0.982369
28.4228
1.12923
31.7242
0.459808
0.913081
0.481784
31.6764
0.938154
0.52712
1.14019
1.13438
1.01735
31.6947
31.6945
1.12575
31.6302
30.9029
31.7064
0.436789
1.13477
0.583786
0.656775
27.9579
0.895138
0.732186
0.770292
0.632061
0.956198
1.05357
1.01232
30.9252
30.9227
30.9208
1.07499
30.9836
0.912448
21.7717
0.978637
-0.550184
0.42581
0.250555
30.875
31.7197
0.985779
0.97124
31.7634
30.9131
31.7705
0.462951
0.968561
0.99958
1.04524
0.193213
0.715122
31.6518
31.7446
31.7009
0.249289
0.679295
0.0536605
0.805896
0.537451
1.04027
31.5123
31.6991
25.934
30.9982
0.214493
0.954375
31.6745
31.7556
31.7688
31.7696
31.6278
31.0004
1.03044
31.6703
1.10723
1.16038
30.8896
1.03171
0.130198
0.459093
31.9002
31.1778
1.02894
31.6921
1.02482
-2.91201
0.492978
30.8093
24.2427
30.9105
31.6744
31.6336
30.5663
9.63723
31.6871
1.09977
0.613853
31.7133
31.7017
1.04443
31.6712
30.9609
0.643207
0.783622
31.6
31.5933
30.8581
0.333374
31.6933
31.6934
6.05137
0.992192
1.05023
31.6674
30.8853
29.0402
1.02992
1.03355
1.02916
0.7975
30.895
0.369276
0.181243
0.103776
30.8113
31.734
31.6991
31.5728
31.6938
0.657634
0.678803
0.585375
31.8307
31.727
31.6908
31.7066
31.0807
1.16695
0.491722
0.0997693
30.8597
31.6893
31.9697
-2.16841
1.06644
1.16145
30.9567
-5.97878
33.0709
31.5018
31.6936
0.670304
0.781841
31.6496
31.7502
0.849151
31.7019
0.492648
0.636773
12.0109
31.6337
31.0237
0.528035
1.10243
31.7452
11.2738
0.285025
0.977789
31.6683
31.6628
31.7953
31.7361
0.216825
0.403941
31.665
1.14013
1.07764
2.39893
31.6754
31.6468
31.6441
31.6655
0.954184
33.5653
31.6782
31.2302
0.291491
0.941772
0.359147
31.513
31.745
1.10596
30.6515
31.7015
31.6622
31.6694
0.708403
30.9297
30.8329
30.8899
0.339307
0.752287
31.6362
31.7398
31.5685
0.817491
32.674
31.6471
31.5762
31.7447
31.7332
0.810098
0.967366
31.9332
0.780801
0.934768
0.677536
31.7855
31.7628
31.6983
31.6064
30.8753
0.864866
31.6788
29.7509
29.7347
1.08634
30.7501
1.04438
31.6937
30.9886
1.28257
2.73552
28.5943
1.12577
31.6785
1.10919
32.7524
31.7078
31.8392
36.3073
31.669
1.17145
31.6279
0.771091
30.9991
28.2142
31.7532
31.6298
0.286319
1.1813
30.9172
11.6989
31.0216
0.886314
1.14788
1.08901
31.042
0.222492
0.957541
1.12632
0.975928
-0.727246
0.951479
30.7296
30.8856
-1.18557
0.45253
1.03757
31.7607
30.4266
26.0656
14.0655
31.7716
30.8723
31.7436
31.7653
31.7823
33.2594
1.17236
1.10775
0.599648
28.1374
1.10363
31.742
0.883123
31.7005
31.798
30.9533
30.982
0.989999
30.8984
31.0114
31.6747
0.782729
31.67
31.7163
1.17859
31.6298
23.5628
20.4402
19.1707
31.7722
20.0075
19.3889
19.8182
22.4734
30.8877
30.8907
0.756001
1.0394
28.2988
28.8293
30.8987
0.741906
32.8194
31.1973
0.989528
31.6634
31.6919
1.02718
1.09409
31.6349
30.868
1.35357
28.3728
30.8071
0.102083
0.806858
0.942482
31.3761
0.857651
31.7548
0.530931
0.0541987
0.827926
31.6789
0.0731055
0.853013
31.9667
-2.3932
31.6005
0.793485
30.2874
0.848539
31.3513
1.118
31.6401
30.6728
30.9921
-4.10127
-4.07626
31.7981
0.836257
1.34382
31.9519
31.6761
0.570902
0.069269
1.1107
31.7902
0.88645
0.864412
1.1931
-1.64133
31.7818
0.931689
30.9198
0.950597
31.7013
-5.04409
-6.08129
31.5594
0.58376
31.0718
1.18466
30.9154
31.563
31.6914
31.7742
31.5659
31.6503
1.0812
0.702095
0.927781
31.6715
25.7402
0.966045
31.673
31.6066
31.755
31.7388
31.7577
0.111815
31.6791
31.7504
30.8838
0.0909211
31.5862
30.9329
30.3303
0.251602
30.9496
0.12249
-1.37906
0.867672
0.234191
0.0444354
32.9325
31.6617
31.6773
0.361216
0.37339
30.5536
25.602
0.165552
31.716
31.7577
1.00023
31.5962
0.852952
31.6487
0.0743084
1.1422
31.675
30.8857
31.6478
31.7458
31.7056
1.26808
31.6394
0.174228
31.8938
31.6695
0.350028
30.9703
0.873414
31.2301
31.7145
1.05809
0.604218
1.07708
31.744
31.7463
31.6872
0.625169
1.13414
31.9166
30.9276
30.7296
0.394817
31.6161
0.906902
1.01266
31.6643
31.6351
0.391434
31.6775
30.7328
30.9496
31.9324
30.9702
0.945861
25.2614
30.9349
31.7312
25.8938
31.6357
26.7417
31.5245
31.6163
31.2458
0.573952
31.4775
0.350249
31.5539
31.624
1.3463
0.407596
31.6006
31.6168
31.6545
0.34679
27.3367
31.6802
31.0686
31.6395
0.417617
31.6085
0.864748
31.7723
0.989428
28.1433
1.1325
31.6878
31.7056
0.986243
26.7051
31.6656
0.363621
0.979124
31.8321
31.7456
1.03541
1.06248
0.392013
0.343337
0.341006
1.06995
0.413528
1.14136
31.9061
0.824804
25.6185
25.1876
31.6739
31.6119
31.7033
0.399474
31.7678
31.7506
31.7636
0.974439
1.11759
24.4429
1.01927
31.7542
1.12257
30.8234
1.19292
0.453205
25.8966
1.0421
31.5977
31.5228
30.9226
0.459827
0.995277
31.6863
30.9606
0.437994
31.74
1.07236
31.8668
1.16937
31.6979
30.9216
31.6757
30.9164
0.378174
30.9155
2.72317
30.999
1.03753
31.669
31.6389
18.2145
16.9809
31.723
31.6467
31.6994
31.7472
1.01229
1.01738
21.6419
31.7465
1.03384
30.8939
31.0146
-0.0691433
0.79603
1.1775
30.9265
0.284374
1.02159
0.615982
0.858902
31.7061
31.7801
31.7966
31.7525
30.9279
30.9163
30.9201
31.5064
30.9269
30.921
31.6927
30.9165
1.0836
30.9183
31.6478
34.595
31.7468
31.6748
11.992
30.8961
31.6561
0.808242
1.16383
31.5394
31.6858
31.6923
0.791947
31.1551
31.6554
1.10247
30.9584
31.6447
31.7014
31.7371
1.21101
30.9414
0.923
31.7463
31.6598
31.6569
31.6715
31.6432
1.11266
0.997873
0.480544
31.7489
30.9129
31.8897
1.06409
31.6378
1.02294
1.2109
30.9416
31.6678
24.4087
0.00465826
31.5609
28.5174
0.054565
24.7202
1.10571
31.1056
1.14873
24.5891
22.9787
31.693
1.00479
30.9632
0.965959
1.16292
31.6654
1.01157
0.474201
31.6907
1.12407
30.8838
31.5732
31.6187
31.5545
31.5862
30.9111
31.6371
31.756
0.939388
28.8609
31.6794
31.7036
31.6277
31.6375
0.782311
17.0801
1.05747
0.490607
31.6396
1.01541
0.966361
31.6862
28.4405
31.4691
31.5809
31.7259
31.952
26.2864
29.0759
1.04284
31.6757
31.7812
24.85
26.8837
30.9311
0.964599
31.64
30.9099
31.7435
1.1032
31.7715
30.8979
1.04945
30.9474
30.8813
31.3734
31.9518
1.06232
31.673
31.6623
31.6508
31.6738
1.10315
1.17219
1.20786
0.981356
1.15137
1.11902
30.963
26.7163
0.96616
1.12102
26.6757
0.981268
31.7169
-2.54509
30.9238
1.09711
31.6871
30.8767
1.15023
-3.76416
31.6482
1.11444
31.689
31.7176
1.07738
1.18393
31.7406
30.9105
31.7965
30.9238
31.6405
27.7132
31.747
31.7025
1.09968
31.7473
31.6801
31.6662
1.17918
31.687
27.8711
30.938
30.9009
29.6085
28.1486
1.17501
30.8679
28.1883
0.758529
31.7149
1.06927
1.1382
31.6566
0.774416
31.6937
30.2042
31.9622
27.6518
31.0027
31.6831
31.7455
31.7763
0.828711
31.7577
31.7223
31.7444
31.2685
31.6747
31.4559
1.04419
31.6936
31.7509
1.12715
31.687
30.932
31.0342
0.874817
31.6713
0.793919
27.3252
0.130821
0.153325
30.9142
26.6949
0.766313
25.669
30.9253
0.808741
0.127869
-0.00331261
1.11386
0.597747
-2.89717
31.0982
30.8634
0.952461
1.109
1.11956
0.949866
0.133175
30.9811
0.236784
0.899234
0.923238
31.0452
0.94161
0.221743
0.6043
0.902916
1.01862
0.845575
0.359126
0.841626
0.0274536
0.483941
0.914177
27.9262
0.36751
0.0383871
0.98446
1.06844
0.138143
0.915053
0.0857014
28.5435
1.07296
28.3482
0.610798
0.966989
0.997225
0.705492
28.2998
30.9188
0.889861
0.750281
0.993241
1.19197
0.32924
0.923133
20.0378
0.972984
31.6941
1.60525
1.08004
1.14449
0.630918
0.976909
0.866284
1.05929
0.688076
0.591846
0.590716
0.93662
0.520036
25.1052
22.1201
0.930167
31.6631
31.6938
0.893495
0.980172
0.166371
31.6605
1.07713
1.17661
0.706821
22.9319
31.6885
0.702308
0.0504133
1.05266
31.7816
0.358956
31.7105
0.733576
1.04462
1.11288
1.13249
31.6488
31.7051
1.25843
0.954294
1.00458
31.6754
0.774414
1.00763
1.06473
30.9716
0.718264
0.125051
28.2916
0.602734
-4.03751
1.03188
30.7152
1.13878
1.2015
31.6971
1.12272
0.16574
7.03251
1.05895
1.15885
0.288856
1.07009
1.02276
-0.00337255
0.617948
0.987228
1.07561
0.267759
0.905551
0.904758
0.767143
1.10235
0.580309
0.927513
0.941447
0.363969
31.7043
1.12407
1.08195
1.05537
0.411217
1.16952
30.9442
1.10934
0.617645
31.6885
1.06143
0.0041846
1.10549
1.10555
0.217581
-0.142645
1.02238
1.03229
1.15079
31.7054
31.6924
1.18857
31.0275
1.20277
1.31006
30.9689
0.220753
1.12391
0.568856
31.7441
0.628633
0.674016
1.10926
0.972206
0.6428
0.421264
0.764652
1.18128
31.6935
31.5681
1.10953
1.09489
1.12196
0.849935
31.5661
1.11539
1.12006
30.967
0.721329
0.955237
-0.248013
0.764458
1.15907
0.917669
0.365783
0.880219
31.0519
1.1581
0.598825
1.06801
0.827981
31.5712
1.20154
32.1503
31.6837
0.664365
1.00002
0.709788
2.11954
0.952669
7.17607
30.945
0.927279
1.16034
0.976101
0.720402
31.667
31.0415
31.0004
0.720413
0.744697
0.731819
0.613377
30.6848
31.586
0.684579
0.780278
1.14375
0.744617
0.71917
0.937978
1.09968
18.2289
30.8913
1.0384
0.133408
31.5814
0.91425
0.915736
1.33622
1.06065
0.866443
1.21361
31.5839
0.765127
0.849384
31.0174
30.7478
0.178914
0.366176
0.349687
0.198497
0.895817
0.9518
0.330435
0.638828
0.854903
0.168535
31.5668
31.5366
0.0457495
0.234753
0.888214
1.1805
0.865089
0.776457
1.05679
0.743683
0.850101
30.9157
31.0471
1.14123
31.5587
27.7154
0.889347
0.606896
0.803754
1.15348
29.0694
1.16121
1.25888
29.5825
1.17849
0.780003
0.854387
0.872201
0.127952
0.991949
0.945121
0.212978
31.6877
29.3676
1.12251
0.347029
0.702669
0.351457
0.940711
1.08639
1.05639
29.465
0.934466
0.386496
0.771246
1.09243
1.13977
1.07546
0.788388
0.855525
0.276741
29.0505
1.1581
0.893246
12.3346
27.6594
25.5675
0.862805
27.0651
0.119484
0.809817
0.720409
0.995394
0.992498
20.8925
13.2663
32.4834
27.2731
1.18498
30.9186
30.9183
-3.19487
31.6796
0.631794
0.747082
0.618555
0.586377
0.608524
0.948713
25.6267
0.331118
0.189238
1.07439
0.888683
0.602736
0.871849
30.93
0.77959
0.596278
0.716559
30.9213
1.08444
0.849477
30.9191
31.6094
1.04031
0.559988
31.865
1.01891
0.936216
1.02787
31.7342
30.9169
0.166067
0.771112
0.989765
30.9242
30.9415
30.9197
1.06004
11.3521
10.4446
0.337967
0.14742
31.7978
0.431798
0.233733
0.820169
0.170922
0.0990274
0.439665
-0.233773
0.20586
31.2216
0.374295
0.351066
0.074824
0.687296
0.19109
0.268972
0.178907
0.227532
0.150117
1.1478
0.176268
0.8721
1.03463
0.997975
-0.0990808
0.19492
0.236675
0.226918
0.20285
0.539597
0.410513
1.13808
0.380048
0.225598
0.383815
30.2508
0.868103
16.212
0.669778
0.901206
31.0205
1.08399
30.2528
0.944244
30.3602
31.7231
0.851869
1.06224
27.8565
0.326265
0.768284
1.09243
31.5909
31.7428
1.41918
0.409716
0.955112
0.678902
0.323764
1.05536
1.20363
1.05076
1.09067
26.3772
0.870804
30.9326
31.5598
0.579695
0.443533
1.15869
0.560173
0.397873
1.12352
1.1107
31.2673
1.05176
0.374336
1.10026
31.3045
31.7844
0.866872
0.965227
25.0387
1.17213
0.146143
1.00741
-0.431033
0.373129
0.708839
31.6139
19.0692
0.597662
1.14703
31.2878
0.608165
1.1506
1.00285
1.18894
0.550151
1.07106
0.863161
1.22957
20.1868
1.23273
31.6712
0.960844
1.09572
0.364206
0.0797342
26.8235
0.0711386
1.11134
1.06595
0.985272
29.9705
30.9233
0.625186
1.16062
1.08854
0.964841
1.16868
0.441869
0.0660012
0.74897
0.237359
0.13997
1.14611
28.5696
1.00125
1.00498
0.0242065
1.1433
29.3138
30.8816
-7.36207
1.07448
32.8534
0.984405
1.10984
29.6671
20.819
22.3892
1.00792
0.568886
2.26386
23.877
1.02852
0.661856
30.6109
1.01102
27.843
0.999016
0.444196
31.0989
-0.00312755
1.21162
1.1951
0.445906
30.898
0.566482
1.10135
1.10653
1.23191
1.29202
1.25505
1.15546
0.943403
1.13577
0.283133
0.571055
31.6335
26.3414
26.5844
31.0359
1.01695
0.65372
0.628147
1.07038
0.367022
0.617627
0.989239
1.0943
1.05752
0.455436
1.14019
0.992922
1.06218
0.380275
31.6756
1.14059
1.06197
1.08721
1.17898
30.5867
0.679073
0.703845
1.0985
0.958087
0.806407
30.911
0.839316
0.793281
27.7784
0.844894
1.03829
31.0236
0.746225
30.9796
31.0264
0.688512
0.937734
1.05449
0.806882
30.8848
0.256652
1.0636
31.0402
0.750544
0.823141
0.711932
1.05296
31.135
1.06008
1.06536
1.05961
31.112
0.653444
0.28977
1.03594
0.55264
0.629435
31.8546
30.2088
28.6865
0.147681
29.1861
0.629469
0.495913
0.228749
31.6466
0.240984
30.9598
31.6755
31.5367
0.734573
-0.0370197
0.783155
1.06202
0.685679
30.2385
27.8383
1.17809
1.12339
0.591427
0.872881
0.654226
0.0919304
31.6789
23.4766
23.9478
30.9004
24.2255
0.0932413
31.6928
0.672266
0.97697
0.685895
0.150347
0.732042
25.8384
0.452604
1.0203
1.11233
1.19656
26
31.6722
1.09047
0.506338
0.50071
-0.439206
1.06826
0.916864
0.552987
0.816003
0.479435
0.100021
0.449826
-1.48253
0.43335
1.02374
1.02731
0.365919
0.417038
1.03633
-0.710068
-0.339583
-2.08212
-3.25564
0.352602
1.16496
31.0465
-2.4782
-6.12723
0.245025
0.164436
0.0377308
1.01861
0.88916
-6.85109
0.176758
1.09761
31.7794
0.644439
0.713523
0.825975
31.667
0.596559
0.379604
0.192223
0.756937
31.7878
31.792
1.04778
0.283127
0.30897
0.241694
31.4828
31.7049
30.968
0.870645
1.03516
0.246063
31.7126
0.583934
31.8047
31.8939
0.213201
0.158544
30.8532
0.262558
0.2907
-0.040612
31.0033
31.7356
0.433587
1.02284
31.8373
0.239598
0.365458
-0.0327673
32.0511
32.0754
31.9505
-0.0400084
0.241423
1.19671
0.374494
30.9733
0.233755
0.923249
1.18983
1.13326
30.8662
31.6584
0.426506
1.17123
1.14498
0.757007
30.8592
0.824082
30.9356
0.311238
1.07913
0.928628
31.0573
28.8087
1.12653
1.27125
28.2721
28.4301
30.9383
0.768087
30.401
27.0823
0.963171
0.95491
30.9396
27.8333
0.866225
0.399421
0.285665
0.71123
0.625403
28.2935
1.02771
26.0491
25.4182
31.7671
0.72455
1.11995
0.240046
25.5646
33.8726
1.02468
1.07867
1.09078
1.10053
0.894645
0.833264
0.875603
0.466793
25.1021
0.919771
0.653361
0.445156
0.738693
1.04183
18.4616
0.63367
0.685032
0.696136
0.687288
0.30961
24.3376
28.938
0.785306
29.1571
29.5315
0.920995
29.2218
0.628929
28.5585
28.8988
31.0117
27.7985
0.753781
0.320401
0.712248
28.4959
0.442019
0.717061
0.853338
28.9517
31.704
0.765353
0.798272
0.943167
0.766204
27.642
0.0478179
0.304536
0.211587
30.8775
31.2118
0.547915
0.412599
31.3197
29.0517
1.12122
0.0340762
28.4317
1.1846
1.07002
1.1097
0.842864
28.7353
0.894435
5.46222
0.24146
0.3899
1.20176
1.06716
1.10271
0.575292
0.967104
28.1165
1.0073
0.955303
0.889717
1.128
1.13
28.8794
0.626894
0.964256
0.589611
0.761449
0.938759
0.914439
0.552968
1.07172
1.10942
1.1647
0.47102
1.1574
1.24942
0.914676
1.10627
31.8371
-0.0193313
31.762
0.909125
0.949331
1.14123
1.12357
1.23657
0.892643
0.913186
1.0357
0.754477
0.347084
30.8498
23.8036
1.14721
1.19904
1.04278
1.22669
1.06217
1.04788
1.09089
1.43175
24.8125
0.339298
1.50822
-5.80144
25.9654
0.153422
24.1206
0.716194
0.828114
0.31753
0.733085
31.0414
0.90728
0.895426
-1.05097
30.9225
1.00229
0.294894
1.18374
1.01158
1.04955
24.2266
30.9112
0.694076
0.966116
0.621095
0.964526
0.88035
0.929966
1.14354
26.7654
0.286179
25.8118
1.11183
0.326951
1.03436
31.7332
21.9644
1.06427
0.982724
0.755077
0.974924
30.9234
1.05051
0.998264
0.251261
0.982737
12.2884
6.52966
1.12608
31.6946
30.9065
0.682557
11.8666
1.02823
31.7424
0.552026
31.7031
-1.79484
31.0185
0.385993
1.13176
0.235277
0.985939
1.06468
0.93385
1.00404
0.861308
0.176647
0.344077
0.656459
0.337948
30.1859
0.442084
30.856
1.09195
1.09192
0.876243
0.820605
1.04127
0.522636
0.720088
0.961672
1.04242
0.313895
1.11273
1.198
32.2411
0.988682
0.346304
-1.41781
0.387911
1.02146
-1.65774