/*--------------------------------*- C++ -*----------------------------------*\
  =========                 |
  \\      /  F ield         | OpenFOAM: The Open Source CFD Toolbox
   \\    /   O peration     | Website:  https://openfoam.org
    \\  /    A nd           | Version:  10
     \\/     M anipulation  |
\*---------------------------------------------------------------------------*/
FoamFile
{
    format      ascii;
    class       volScalarField;
    location    "4.6";
    object      SgRate;
}
// * * * * * * * * * * * * * * * * * * * * * * * * * * * * * * * * * * * * * //

dimensions      [1 -1 -3 -1 0 0 0];

internalField   nonuniform List<scalar> 
111485
(
4.777e-17
1.01715e-05
2.69928e-05
1.04138e-17
5.74947e-05
2.84928e-19
5.26238e-05
7.22657e-06
2.21543e-05
1.34246e-06
5.27097e-05
1.11812e-05
5.33695e-06
8.37138e-07
7.44139e-06
3.72715e-05
2.15077e-06
0.00299868
1.23142e-05
1.28666e-16
1.06172e-16
6.12149e-19
3.01148e-05
4.18893e-05
1.03278e-05
6.95321e-18
4.84516e-05
2.16222e-06
1.95356e-05
6.92015e-19
5.34979e-05
2.17557e-05
1.9472e-16
2.17655e-18
9.49726e-06
1.50296e-17
1.28585e-05
4.5592e-06
5.88481e-11
2.67869e-05
6.38414e-18
8.51004e-05
1.86635e-05
1.54385e-06
5.71619e-08
8.12677e-18
3.75299e-05
8.56566e-07
5.68475e-05
6.54328e-18
1.42255e-17
6.84346e-17
2.3318e-17
5.72925e-05
6.38006e-17
5.19153e-05
4.08346e-06
9.82671e-18
2.77377e-08
5.68453e-06
1.91505e-05
6.90188e-18
5.11275e-06
0.000111353
4.96279e-17
4.16571e-06
0.000373125
0.000114229
1.16434e-06
6.75209e-06
1.1089e-08
7.14036e-06
6.21743e-19
3.10921e-06
3.5515e-17
8.4249e-07
5.43113e-18
4.99866e-05
6.82937e-18
2.21318e-16
1.27596e-08
3.99527e-05
3.58402e-18
2.50516e-17
1.03084e-05
5.04733e-06
5.1847e-13
2.87828e-05
6.39095e-08
8.17763e-06
5.20261e-07
4.8763e-05
1.30677e-05
8.055e-08
6.48376e-05
3.63032e-17
2.23583e-17
1.95091e-06
2.17569e-11
1.54953e-06
2.55496e-17
2.29045e-05
1.38799e-17
2.34443e-05
5.60642e-06
5.06708e-17
3.04112e-18
9.32474e-06
4.42019e-06
1.03975e-10
8.97282e-06
5.8467e-06
4.09284e-06
3.54174e-06
1.21033e-16
3.99934e-08
1.46149e-17
2.76121e-19
1.42658e-05
7.85317e-17
2.82873e-18
1.71982e-16
1.57623e-18
2.94059e-18
2.17098e-06
3.16235e-09
8.49234e-18
1.94581e-06
5.0504e-18
7.58072e-08
1.43991e-06
3.66731e-05
5.52811e-18
2.70321e-16
3.6818e-17
5.90036e-05
6.50226e-18
5.01664e-05
2.88461e-05
3.05356e-06
2.51883e-07
2.37858e-06
2.6354e-05
3.5167e-06
4.54336e-06
1.46865e-05
2.37057e-18
2.10205e-17
3.41174e-18
3.25541e-05
2.09626e-06
4.30891e-18
2.11201e-10
5.98646e-06
5.80479e-10
1.24991e-05
1.97722e-05
1.23075e-05
1.04989e-10
5.68707e-18
2.32404e-17
6.30183e-05
2.88769e-05
3.0407e-09
3.80122e-10
6.22668e-06
4.381e-06
5.80579e-18
7.22742e-09
6.30818e-08
3.36324e-18
2.36244e-17
1.68389e-07
2.1066e-18
7.96517e-06
2.68425e-06
2.81073e-18
3.62175e-17
7.15164e-18
1.22336e-16
1.52702e-18
1.22267e-17
1.66585e-06
8.15182e-06
3.45631e-05
5.23646e-06
8.48395e-06
4.32393e-06
1.03644e-07
5.91622e-18
5.0836e-06
3.58232e-18
1.13253e-17
7.16594e-06
1.27929e-05
3.09627e-05
1.30606e-05
4.93077e-06
4.60771e-17
7.60815e-06
6.87545e-07
5.39142e-08
1.52868e-05
2.72901e-06
1.31504e-17
4.22549e-06
3.18992e-05
3.35576e-17
2.30778e-07
8.85136e-06
2.6781e-06
4.07871e-07
9.86553e-18
4.93968e-17
8.84411e-06
9.48402e-15
0.000144781
1.68379e-18
7.33527e-06
2.3251e-05
0.00014481
5.19501e-18
3.38476e-06
1.59312e-05
2.75081e-16
1.1705e-18
5.12662e-18
0.000190141
4.28368e-10
4.13238e-17
1.59271e-17
1.07185e-05
1.06062e-05
1.82417e-05
3.87499e-17
8.77081e-17
1.32401e-08
5.62902e-17
3.06253e-06
1.04324e-05
1.82219e-05
1.27814e-05
1.12295e-05
8.13768e-18
3.45564e-10
7.05987e-07
2.46957e-17
4.96189e-18
3.66567e-05
2.53888e-05
3.65311e-17
7.00417e-06
1.20285e-05
1.86754e-17
3.6053e-16
1.70207e-07
8.34737e-18
3.39266e-18
4.74592e-08
1.4928e-17
1.7974e-05
1.32699e-05
4.16446e-06
1.60382e-17
1.30309e-05
1.741e-18
3.44903e-17
5.17244e-17
3.01803e-11
2.71213e-05
6.85347e-06
6.0083e-06
4.46252e-05
1.38042e-05
1.96227e-06
7.02405e-07
4.08307e-05
1.12629e-05
9.84672e-18
1.75239e-17
3.44317e-10
2.68337e-05
2.84964e-05
1.48252e-05
6.13503e-18
8.10753e-06
2.55453e-06
3.4627e-06
4.46843e-09
4.57985e-09
1.55842e-05
2.5599e-06
2.24051e-06
2.31653e-17
8.9504e-07
9.56544e-18
1.75663e-10
2.54926e-16
0.000306226
8.24198e-05
1.52947e-05
1.59007e-17
4.36518e-18
1.04063e-05
2.25462e-06
4.21179e-17
8.94551e-18
1.23246e-16
4.1814e-07
7.63164e-05
4.42262e-06
1.77079e-05
2.29694e-05
6.20775e-17
1.29797e-17
4.29383e-17
4.3559e-06
1.41877e-15
1.19331e-06
0.000226358
5.06684e-10
3.22924e-19
4.33602e-17
6.69589e-18
2.76194e-16
7.06404e-05
1.46402e-05
7.76341e-18
6.09461e-06
2.7383e-16
1.88075e-17
8.07003e-05
6.81739e-06
1.33023e-05
1.0615e-05
2.62947e-16
2.08866e-16
4.66143e-18
1.09133e-05
2.05856e-05
5.76732e-06
8.22372e-18
2.32581e-13
2.23347e-07
2.3059e-06
9.29732e-06
5.40753e-08
3.41922e-05
3.41195e-18
4.50199e-05
4.01838e-06
9.25198e-06
2.87927e-05
1.67094e-05
7.97985e-18
1.17245e-16
1.77559e-17
1.12178e-17
3.82987e-05
1.10427e-05
4.25232e-05
8.09162e-05
4.83917e-18
2.33016e-05
2.21272e-18
6.98985e-17
1.91367e-05
1.29528e-17
6.97857e-05
1.30806e-17
5.19953e-20
2.79112e-05
1.43629e-18
1.76353e-05
3.9298e-07
6.31428e-19
1.28437e-06
1.89075e-05
4.24994e-17
9.90335e-06
1.2122e-05
9.2864e-06
6.71686e-07
3.74014e-06
7.90256e-06
3.32936e-16
6.17043e-18
1.9212e-06
2.91778e-19
6.74319e-06
0.000137466
1.73776e-17
8.31915e-18
3.19482e-05
1.37437e-07
9.09335e-06
2.6179e-05
2.13582e-18
5.11685e-05
2.33148e-05
1.01822e-18
9.1978e-07
3.16503e-06
4.37463e-18
4.14328e-17
1.49809e-05
6.11113e-06
4.66969e-17
1.31735e-17
2.48802e-11
4.6259e-17
1.37951e-05
3.1417e-18
2.40524e-17
2.08179e-05
2.37356e-09
1.57284e-05
3.36087e-05
5.82873e-18
1.70592e-16
1.52147e-06
3.70877e-17
1.59002e-07
1.52001e-05
0.00014573
0.00105713
9.12537e-18
3.19887e-06
4.49778e-07
2.00098e-16
4.46517e-05
3.90831e-05
5.26801e-18
1.06849e-11
1.19718e-07
8.727e-17
2.98689e-05
3.05225e-05
1.57239e-05
1.77756e-18
6.92367e-07
2.26972e-05
2.6318e-05
9.88551e-10
1.00654e-16
6.37462e-13
2.22729e-18
1.81708e-08
3.8901e-05
1.88644e-18
1.08584e-05
1.01498e-07
1.06202e-16
1.27562e-18
4.73662e-17
9.34553e-17
4.78104e-06
1.15844e-05
7.99048e-06
2.78006e-06
3.66405e-06
1.11911e-17
2.62132e-06
7.51994e-17
4.56946e-05
5.88724e-18
1.59159e-17
1.55646e-17
4.12542e-05
5.95242e-17
6.38904e-18
2.92084e-10
9.57859e-18
4.8668e-17
1.17477e-06
1.11233e-17
1.64274e-16
2.39713e-18
9.61733e-18
9.23584e-17
1.47566e-17
1.45998e-18
9.18126e-06
5.48397e-18
5.41974e-07
2.16375e-06
1.48221e-06
1.76553e-17
8.89035e-07
1.70237e-18
5.71743e-18
3.39569e-06
2.25951e-06
3.37219e-05
2.84695e-05
5.9131e-18
2.40374e-06
9.27767e-05
1.05457e-05
1.33157e-06
4.00134e-06
1.15933e-17
2.76553e-05
1.91036e-16
5.5005e-06
1.56875e-17
8.74007e-05
1.60705e-16
2.6308e-05
2.7712e-07
2.50453e-10
3.39735e-17
2.72904e-06
5.19775e-18
9.54778e-05
5.63841e-05
2.74793e-17
1.60285e-17
1.5192e-16
4.38025e-19
1.61874e-12
6.57799e-05
4.68867e-18
1.24941e-17
3.29629e-06
4.21919e-19
3.85498e-05
1.29685e-18
4.05145e-07
8.33285e-18
6.37484e-07
1.12866e-09
1.31401e-06
1.54763e-05
9.91804e-18
3.96507e-07
3.75076e-17
3.41469e-19
1.87295e-05
1.92716e-18
4.02556e-08
4.56862e-17
1.82345e-06
3.616e-17
7.80017e-05
1.86317e-17
1.28816e-16
1.87874e-05
4.20928e-06
1.95937e-06
4.87213e-06
7.61273e-06
2.52484e-05
1.99255e-18
2.75285e-05
7.863e-06
3.58596e-18
9.61215e-11
4.42438e-05
1.65847e-05
1.71355e-16
5.6692e-06
7.33058e-06
1.82826e-06
1.45022e-06
2.59534e-13
1.65111e-05
1.27553e-06
1.86936e-07
3.03626e-05
1.72215e-05
9.31322e-07
7.39138e-17
3.74231e-12
0.000762417
4.74126e-17
4.7929e-07
4.57918e-18
2.32851e-16
8.87118e-06
3.77121e-06
2.21143e-10
1.43419e-08
3.34234e-16
2.0866e-05
1.31331e-05
3.22961e-18
9.33108e-14
2.4968e-06
2.88203e-17
4.70479e-18
9.23291e-19
6.07709e-17
1.72903e-05
4.90827e-18
2.92473e-17
1.12107e-05
2.74888e-06
9.18371e-17
1.21734e-05
7.92444e-17
1.01237e-05
6.40668e-18
1.36742e-17
6.61935e-05
2.51482e-18
3.09207e-17
5.30129e-16
5.8508e-06
1.17075e-16
3.73096e-05
7.81289e-06
1.4925e-17
9.57781e-05
3.11556e-06
3.27691e-05
3.18538e-05
8.87688e-07
1.02346e-07
2.69859e-17
6.61971e-05
5.25459e-05
2.30543e-17
3.75088e-07
4.80701e-05
8.56831e-06
1.78476e-06
3.24301e-05
3.06546e-05
1.53208e-17
1.2602e-05
5.94152e-09
2.31527e-17
3.99401e-05
3.26586e-07
3.90865e-17
1.29334e-05
4.71231e-05
1.73232e-06
2.40655e-05
2.20522e-05
8.91466e-06
3.51649e-16
1.16236e-05
4.13872e-07
1.97549e-14
1.91515e-05
1.97047e-05
4.27666e-05
1.59557e-18
2.57839e-06
6.8564e-18
3.49278e-18
1.1519e-17
5.86476e-18
1.86621e-08
1.30836e-16
1.95518e-13
1.08638e-16
3.96995e-18
7.99362e-08
5.00311e-05
1.68891e-17
4.14014e-05
6.85081e-17
1.07555e-16
7.5805e-17
4.74818e-05
5.45662e-07
1.57128e-16
1.16227e-17
6.99444e-18
1.50557e-18
0.000267257
8.40614e-05
2.09758e-16
2.24385e-06
3.47214e-09
1.72063e-17
4.35801e-05
9.02489e-06
1.56871e-05
2.44679e-18
4.51331e-18
4.63392e-07
1.32388e-06
1.95067e-16
9.18018e-18
1.01664e-16
8.36082e-06
9.69415e-19
1.26103e-16
3.49958e-18
4.84672e-05
2.23126e-06
7.67472e-19
0.00487541
0.000291754
1.32574e-05
1.78864e-18
4.14337e-17
6.75538e-05
4.30574e-07
6.50753e-17
8.04765e-09
0.000164934
3.23004e-06
1.41656e-05
2.41253e-16
6.6609e-05
2.07486e-06
1.73943e-18
5.88553e-18
1.50185e-19
4.94123e-18
5.58504e-18
1.94952e-18
2.50659e-05
2.50691e-17
4.43123e-18
8.48667e-17
1.40264e-05
2.80329e-05
1.26111e-17
1.95578e-17
0.000126916
1.64101e-05
1.08203e-05
2.2593e-16
1.99092e-20
4.27812e-05
3.23696e-18
2.32743e-06
2.89932e-06
4.40749e-06
1.22402e-18
1.75908e-17
5.8637e-17
1.02298e-18
1.83709e-05
2.735e-18
4.17958e-18
1.09393e-06
8.83792e-18
2.64926e-05
2.00381e-06
4.90339e-17
4.3847e-05
0.000573353
2.91923e-06
3.5401e-05
2.01972e-07
5.50582e-05
1.53641e-13
3.47646e-16
2.7135e-05
8.64741e-05
7.73753e-06
1.56803e-18
1.14345e-12
0.000803958
1.26504e-05
1.03146e-19
3.3735e-06
3.38853e-06
1.56253e-06
2.06463e-17
8.39384e-18
1.52571e-17
1.52599e-05
1.55881e-16
3.17822e-06
5.9604e-17
1.54616e-06
1.50261e-06
4.20866e-05
6.22612e-07
5.03018e-18
1.07861e-17
5.92821e-18
2.41374e-05
9.01938e-18
6.42807e-18
6.43083e-08
8.00214e-18
5.11093e-18
5.92938e-18
9.79434e-19
1.08217e-05
2.68952e-17
2.93223e-18
6.53558e-13
3.9087e-17
6.90566e-18
6.47789e-17
5.60519e-18
3.81999e-09
1.93613e-06
2.678e-17
4.47426e-06
9.88542e-09
3.77905e-10
8.0429e-08
4.98515e-06
2.65098e-18
1.1425e-08
1.16533e-05
4.66589e-07
4.14004e-17
4.65662e-12
9.35293e-07
4.83821e-17
1.13757e-05
2.5465e-07
2.17689e-09
2.90627e-05
1.0834e-05
2.67659e-06
7.33761e-06
2.52188e-06
4.98007e-18
1.64311e-17
3.55863e-05
3.04901e-05
2.24986e-17
8.88541e-06
6.53418e-05
3.46999e-05
8.92135e-17
1.68317e-06
3.80893e-18
1.28233e-05
1.67572e-05
3.3624e-17
1.64027e-06
6.14943e-07
1.55913e-09
5.22959e-06
2.1704e-17
5.7756e-05
1.95311e-08
2.00598e-06
4.24142e-08
1.60208e-08
1.89958e-18
2.2864e-17
9.13006e-06
1.10883e-18
1.30053e-07
3.41675e-07
1.88168e-07
6.12495e-11
9.20124e-11
1.19753e-09
1.53273e-18
2.44195e-16
2.70558e-05
7.98287e-17
5.22995e-07
2.58837e-06
1.37274e-17
1.89913e-17
6.39325e-10
9.51605e-13
1.60131e-18
4.98712e-09
1.09111e-17
3.83603e-18
4.13961e-18
1.06101e-17
5.7824e-18
2.61079e-17
3.7069e-07
3.62688e-17
2.34605e-18
5.68075e-18
7.58138e-09
6.88308e-08
2.18698e-06
1.11186e-05
6.30754e-19
9.62947e-18
2.31014e-07
6.42709e-19
1.51873e-17
4.51783e-17
2.27364e-05
5.00858e-05
5.60054e-18
1.70831e-17
4.50887e-17
1.7506e-17
1.21999e-18
6.92431e-18
9.10653e-06
1.20978e-17
4.79238e-11
3.19947e-05
3.81079e-18
7.63518e-17
9.94139e-18
2.58236e-08
4.96077e-18
1.26929e-17
5.49311e-18
9.20689e-09
3.85962e-17
5.69577e-06
1.25844e-09
5.49141e-12
5.88774e-19
6.96958e-08
2.7749e-06
5.30876e-05
7.07008e-17
7.70454e-09
7.30157e-06
1.60406e-17
7.07177e-18
3.83785e-17
3.54071e-17
9.96683e-06
2.21535e-06
4.27915e-06
2.11449e-10
1.22999e-18
2.66073e-05
3.40581e-17
1.44739e-16
2.16947e-17
9.34173e-19
3.10142e-05
8.06388e-18
1.21957e-17
2.41666e-09
6.1365e-05
1.15539e-18
3.14804e-06
1.55337e-16
1.16329e-06
1.86676e-16
2.13522e-18
1.20877e-17
7.61531e-17
3.17091e-06
7.81224e-07
0.000399586
5.62493e-19
8.45384e-17
2.47598e-06
3.58646e-18
1.59606e-16
8.02204e-17
4.68655e-05
8.82241e-09
3.60758e-05
6.1227e-17
1.03033e-08
4.75779e-08
3.60544e-16
1.16342e-07
1.53456e-17
1.71557e-06
3.14954e-05
2.40459e-05
1.63751e-06
3.20468e-07
3.22178e-18
3.08505e-18
4.32987e-18
2.16573e-08
1.08943e-18
7.80606e-06
6.68557e-18
0.000212503
4.14706e-18
5.00907e-05
3.86263e-06
3.95768e-17
3.45487e-19
3.20199e-17
3.02594e-18
4.40793e-05
2.23909e-17
5.75872e-17
1.54748e-05
7.4714e-06
1.40978e-16
1.68328e-16
1.2012e-16
1.39211e-16
7.6962e-17
1.78349e-19
2.80816e-05
5.43199e-07
1.58592e-17
4.59912e-18
4.97992e-10
4.14099e-18
1.7852e-06
1.25276e-07
3.33257e-17
3.7077e-06
1.00092e-17
3.88927e-07
1.42847e-17
1.15443e-06
2.99365e-17
1.14915e-10
2.43593e-09
8.63615e-07
1.97238e-05
3.73015e-05
1.2876e-09
7.67513e-18
5.32941e-07
4.60673e-18
5.32891e-06
1.46868e-17
1.87595e-17
1.10905e-17
5.2358e-18
1.66375e-18
1.59218e-17
7.80568e-06
8.61184e-06
2.52661e-17
8.80414e-17
4.7432e-17
7.8048e-07
1.76984e-08
2.01569e-17
2.20254e-05
2.37078e-07
7.4499e-18
2.91898e-05
9.91202e-06
4.08798e-06
1.48573e-05
9.45036e-20
1.47975e-17
2.04045e-17
1.54155e-18
4.3801e-05
1.66461e-17
0.000130691
1.21816e-18
3.1368e-07
8.71654e-07
9.30156e-19
9.71079e-07
1.61324e-19
4.99604e-18
3.19822e-06
3.00513e-11
9.02652e-06
3.12761e-18
7.09141e-18
5.2108e-18
8.85574e-07
3.03104e-17
4.16139e-18
4.34723e-17
4.35802e-10
8.62765e-17
1.04839e-08
2.91088e-17
3.07252e-17
3.36775e-18
2.20122e-05
1.29571e-05
2.16243e-05
4.20514e-05
1.42682e-17
1.47027e-08
4.39282e-18
2.39683e-18
1.27861e-05
2.12842e-17
2.99257e-09
3.6198e-07
8.03698e-06
3.69652e-07
1.13988e-12
2.57153e-06
7.48325e-18
1.12058e-12
8.68116e-13
1.30938e-07
1.11705e-06
1.72417e-05
8.13498e-11
9.42942e-17
3.68444e-05
2.79681e-17
1.14696e-17
2.26487e-08
8.84898e-05
8.65658e-11
1.07225e-17
7.76426e-18
4.47469e-10
4.45263e-18
1.11966e-18
1.72413e-08
6.98263e-18
3.1386e-17
4.83505e-05
2.1815e-07
1.70064e-07
2.74241e-05
8.79369e-06
2.42618e-17
7.06871e-19
1.18429e-08
5.00922e-06
1.76073e-18
1.09212e-17
1.24409e-05
4.19866e-17
5.91059e-17
9.72837e-17
1.2606e-16
4.39243e-16
0.0030926
6.43217e-19
2.40642e-07
1.63205e-17
2.23116e-05
3.38814e-18
1.89228e-15
1.96819e-16
7.07122e-17
4.6503e-18
4.02926e-18
3.81848e-06
5.00463e-19
8.3063e-19
5.6058e-17
9.42018e-18
2.92344e-17
1.03496e-17
1.18312e-05
4.59615e-19
1.32867e-05
3.2865e-06
6.51744e-18
1.90184e-06
6.25504e-18
5.29658e-07
2.14933e-09
5.26095e-06
1.77327e-05
1.0408e-17
1.11174e-07
1.01191e-05
8.35535e-09
1.65749e-17
2.15352e-09
2.18085e-05
4.68453e-06
1.55097e-16
3.02217e-05
1.08075e-16
1.20865e-18
2.11565e-17
4.55668e-18
9.11099e-06
1.5336e-17
7.48344e-18
9.38854e-06
1.7843e-10
2.58363e-06
1.27638e-18
6.78593e-17
7.73863e-07
2.57695e-18
1.12988e-07
3.30822e-18
2.74515e-05
1.86157e-17
1.02534e-17
6.46063e-08
2.0384e-17
1.45036e-07
7.53714e-17
5.63336e-18
6.38319e-06
4.90213e-07
6.02639e-06
1.96153e-05
0.000262952
2.40264e-05
7.2195e-18
7.46151e-16
3.11782e-06
8.02842e-06
4.30394e-05
1.42361e-05
3.65879e-18
1.42461e-05
2.98464e-18
1.87831e-18
9.98521e-06
1.22071e-05
3.38623e-17
1.55485e-05
9.2654e-18
3.39722e-06
9.98167e-06
1.81737e-17
1.29191e-18
5.05801e-18
3.07902e-06
6.94136e-18
8.13705e-18
4.59219e-06
2.49312e-05
4.67923e-09
9.47683e-06
1.01934e-17
2.7024e-17
8.76381e-08
8.74005e-07
2.52453e-17
1.15056e-05
4.31647e-16
2.91955e-06
3.21093e-18
1.14685e-17
1.38668e-05
8.0738e-19
4.96019e-08
3.90584e-06
5.27796e-17
9.88216e-19
4.74734e-06
3.92211e-14
6.39864e-05
9.60207e-17
0.000321745
9.14808e-18
5.75664e-17
5.38646e-17
8.23606e-06
1.28129e-16
3.11159e-18
6.31806e-06
4.04075e-17
2.60651e-07
1.92756e-16
3.90773e-17
5.14318e-18
1.61689e-10
8.94343e-07
8.40159e-18
2.86402e-18
4.27625e-05
1.08815e-06
1.1744e-17
5.61308e-07
1.41164e-17
4.45949e-17
1.67029e-09
3.5147e-06
1.31245e-06
2.41013e-17
5.2452e-19
2.86595e-18
5.40621e-19
2.20116e-17
3.31979e-17
8.09082e-18
3.39235e-18
1.30971e-17
9.55403e-18
3.79709e-18
3.83729e-17
2.58159e-17
5.68815e-18
3.35399e-18
3.49509e-18
6.02928e-18
1.51817e-18
2.9811e-18
9.61706e-19
2.66138e-18
2.16901e-05
4.40168e-18
5.29227e-18
3.70739e-18
7.57776e-06
9.25504e-18
8.22206e-18
0.000290653
1.24734e-16
2.51451e-18
2.68692e-05
3.6157e-16
3.63318e-18
7.24728e-06
2.85497e-05
7.66585e-20
2.26948e-06
3.69549e-06
8.93357e-17
1.47279e-05
4.63972e-05
2.03044e-05
3.6436e-06
1.2025e-05
5.28419e-17
1.24964e-17
3.47781e-06
1.27594e-05
3.44778e-06
4.61617e-18
7.14385e-06
1.91541e-06
2.3671e-05
1.28426e-05
6.1779e-07
1.7172e-05
1.52447e-06
1.10827e-05
2.03014e-17
3.10098e-05
9.56598e-06
2.10524e-06
1.47043e-06
5.16651e-18
1.17652e-17
7.82359e-18
1.86231e-17
7.58904e-18
1.11303e-05
1.55001e-05
3.32421e-18
2.07666e-18
2.01429e-16
9.60361e-19
1.37679e-17
1.35022e-17
8.14225e-18
3.46508e-17
5.25606e-06
1.56186e-07
2.46319e-05
7.28097e-08
1.06497e-17
2.99206e-16
3.81912e-05
6.04593e-09
3.50234e-18
3.3116e-18
8.39977e-06
2.08597e-18
5.40951e-18
4.24147e-09
8.88321e-06
1.56688e-05
3.72827e-05
3.67817e-05
2.69689e-17
1.67806e-05
3.73884e-07
9.41998e-17
1.19837e-17
1.30554e-05
2.30731e-17
1.47888e-17
2.4601e-05
0.00122672
1.92661e-07
1.22453e-16
8.93369e-19
1.83405e-05
2.57182e-05
2.02351e-05
6.60478e-06
3.55253e-06
9.04697e-18
1.08686e-09
2.95316e-12
1.43784e-18
6.81773e-17
2.01157e-05
2.82263e-18
2.33277e-06
3.06814e-05
1.93722e-05
1.34186e-05
9.51235e-17
6.27043e-06
1.49573e-17
4.46829e-17
2.92083e-17
2.61398e-18
2.99666e-06
0.00096266
3.89413e-19
7.38917e-18
4.40412e-09
2.75765e-05
9.12875e-07
7.73944e-06
3.8399e-05
4.61083e-06
2.30458e-05
3.61466e-17
3.1283e-17
5.72822e-17
3.61675e-05
6.21687e-06
2.95427e-11
2.24663e-18
3.05907e-17
1.51331e-17
2.48479e-05
3.16078e-06
5.0187e-19
5.32225e-06
6.22693e-05
8.51923e-06
6.89744e-06
2.1629e-18
1.38496e-17
7.68062e-06
2.65154e-05
1.94147e-18
3.47026e-07
1.59913e-05
1.10031e-06
1.09156e-05
5.21757e-06
9.01181e-06
4.17484e-17
3.91717e-06
2.3645e-05
4.40516e-05
7.36012e-13
2.68862e-05
3.77593e-17
1.91495e-05
1.46647e-07
1.9311e-18
2.6429e-06
7.82921e-06
3.96997e-07
1.30439e-05
2.74171e-10
1.83994e-07
2.04906e-08
3.77261e-05
3.93464e-06
2.44435e-17
4.35119e-05
1.25456e-06
3.33077e-20
1.04802e-18
4.2228e-11
9.4743e-09
1.18213e-06
0.00126045
3.98396e-05
1.14485e-05
2.62658e-10
4.81197e-05
1.10733e-18
1.32524e-17
4.72007e-06
1.63054e-18
2.55179e-06
5.80978e-06
2.24617e-06
5.54871e-06
1.55131e-19
2.49367e-07
0.000124412
5.23985e-18
3.54452e-05
8.26894e-06
4.14855e-17
4.03841e-06
3.02876e-07
1.71868e-17
5.31651e-12
1.03276e-07
8.25874e-17
3.0837e-18
1.69615e-18
4.33164e-06
4.81021e-06
1.62448e-05
1.8703e-17
5.97695e-06
3.60305e-05
5.23122e-17
8.47269e-06
1.30774e-05
2.81539e-05
1.66486e-06
7.08663e-18
7.01828e-07
1.15212e-05
1.09412e-05
9.4178e-06
4.3523e-05
0.000183301
3.82056e-06
5.54556e-17
4.77924e-09
6.06632e-05
3.05934e-17
4.28538e-07
5.86419e-19
4.1059e-19
3.26562e-17
6.69827e-18
1.33365e-18
3.63268e-06
7.06958e-18
7.17903e-06
1.52892e-06
1.58254e-17
4.80555e-06
4.32188e-16
1.67713e-05
9.3306e-18
1.83725e-08
1.21085e-16
2.47398e-05
1.56219e-07
2.13246e-09
4.20511e-06
3.20891e-05
1.96016e-05
4.35207e-06
2.75022e-05
4.86331e-15
2.32837e-05
6.13104e-05
9.96707e-06
1.39788e-17
1.37079e-06
3.45897e-07
6.0526e-06
1.30956e-05
7.38736e-07
7.90616e-17
1.35463e-16
2.72307e-18
4.42768e-06
3.66194e-17
1.09989e-07
2.28409e-07
1.06565e-06
3.09076e-07
3.8368e-17
1.12324e-16
4.08652e-18
9.24293e-06
2.4107e-05
1.5177e-06
8.92272e-09
2.09587e-06
7.60673e-06
2.32415e-06
9.66043e-07
7.53861e-06
6.65959e-06
2.88377e-06
4.52565e-17
9.92121e-18
1.05175e-17
1.58108e-05
1.22339e-05
1.30985e-16
7.33542e-18
1.4999e-17
9.16778e-06
2.2106e-05
5.02869e-17
2.36961e-06
3.01559e-18
6.34856e-10
5.83404e-06
9.53634e-05
6.35815e-18
5.49182e-19
4.33396e-06
7.81209e-18
8.11244e-08
1.33276e-05
1.39998e-17
1.18944e-05
3.76585e-05
2.00718e-05
2.08292e-18
1.19098e-06
4.27277e-17
8.85936e-08
5.54097e-05
3.31877e-17
2.60064e-17
1.26724e-05
3.40833e-16
6.77757e-17
4.34132e-08
1.36428e-06
1.34792e-17
5.91111e-18
3.37699e-17
7.19872e-08
1.54051e-06
3.81818e-06
2.66819e-05
1.05819e-05
1.66993e-17
6.62108e-10
6.62375e-07
7.47624e-18
1.18061e-18
3.0123e-17
1.70365e-17
2.56902e-17
9.7004e-18
4.21388e-17
1.89811e-17
4.70486e-17
1.14411e-16
2.58708e-12
3.911e-17
4.25971e-07
7.14532e-17
1.78983e-07
3.1003e-18
6.95597e-08
1.14453e-16
1.4361e-17
2.93093e-05
1.03473e-05
1.90295e-17
0.000102591
4.69507e-12
1.92614e-13
2.66907e-18
1.37703e-06
1.64423e-15
2.8576e-06
6.26467e-09
1.0932e-06
4.70392e-17
2.64407e-17
8.95799e-07
4.22775e-11
3.32775e-18
8.29937e-18
4.42934e-05
9.34291e-17
4.19955e-05
7.33255e-18
2.94467e-18
1.02738e-09
3.17364e-05
9.56682e-06
3.07119e-17
3.82049e-07
2.07962e-16
2.21757e-06
1.78291e-08
2.07683e-06
9.17368e-07
2.1139e-17
2.30045e-05
1.18328e-06
5.71242e-06
1.09292e-18
3.12258e-18
1.09161e-17
1.23277e-05
4.30288e-06
5.63135e-05
1.99162e-18
4.10927e-10
8.84261e-18
1.26536e-18
2.90231e-17
1.11854e-17
3.30408e-06
2.11641e-06
3.02332e-06
0.000350493
2.05204e-17
3.23638e-05
4.00382e-05
1.94602e-05
1.65515e-06
2.05439e-17
6.48186e-06
4.5437e-06
5.52478e-06
5.83491e-10
1.14127e-05
3.07414e-17
1.92322e-06
1.24316e-06
3.69848e-05
1.11502e-09
3.40443e-06
3.41806e-17
2.01568e-05
5.77257e-17
1.04671e-17
1.82224e-06
8.33407e-17
7.66822e-06
2.18873e-17
2.77077e-17
1.70676e-16
7.8189e-18
4.15019e-17
8.02634e-07
2.38267e-17
6.90554e-07
3.84509e-17
8.40927e-18
2.14695e-05
6.34552e-06
8.85396e-06
9.10041e-06
7.00798e-18
0.000645765
1.52886e-17
7.91754e-05
4.49074e-18
2.10694e-05
2.45168e-05
2.45194e-06
6.4235e-05
1.36043e-17
1.85575e-17
2.9387e-18
2.45651e-06
1.12388e-18
8.08114e-18
1.98809e-05
3.72372e-17
1.9387e-17
5.52924e-06
1.70465e-17
1.42443e-05
9.0427e-11
4.59114e-18
2.21981e-17
1.91966e-17
1.78488e-06
7.26003e-06
2.06937e-17
2.4674e-05
3.4102e-07
5.68846e-17
0.000114661
2.60726e-17
1.78926e-05
2.029e-05
3.73178e-06
6.78478e-17
2.01626e-05
1.0624e-05
8.62709e-07
5.50929e-06
1.37661e-05
7.28217e-18
3.40493e-17
1.87403e-09
4.25448e-17
2.95585e-18
7.79009e-18
2.19889e-05
4.87918e-05
4.97086e-06
2.18981e-06
7.67706e-18
5.33709e-05
5.16032e-05
4.75685e-06
2.99489e-06
9.90794e-06
2.37153e-05
2.75209e-06
3.74371e-18
1.13768e-19
2.14132e-18
7.09917e-06
1.08713e-17
2.90921e-05
9.62174e-17
8.39275e-07
4.83556e-10
2.88076e-06
2.61915e-05
3.10043e-18
2.65192e-17
2.6548e-06
3.91874e-07
1.65255e-17
1.07075e-17
1.28021e-17
3.76479e-08
3.09611e-07
1.45806e-07
8.34989e-07
1.02335e-05
0.000100032
6.20761e-17
1.09606e-17
4.28324e-17
4.14071e-06
2.17255e-05
2.20573e-05
3.80515e-05
2.2527e-06
2.97357e-06
8.35004e-18
1.98364e-17
2.18642e-16
1.91096e-17
1.01004e-05
2.4583e-05
2.32723e-17
3.38387e-17
7.58831e-17
2.90034e-18
5.56045e-18
8.62992e-18
1.44736e-05
3.15516e-16
1.25024e-06
0.000422403
1.24643e-17
1.77879e-08
2.46173e-05
6.30828e-07
1.02343e-18
2.77073e-18
5.15889e-06
1.2749e-17
1.53442e-05
1.30341e-09
2.69856e-05
2.61078e-17
1.6299e-15
9.074e-18
1.39356e-17
3.0293e-17
5.7892e-17
0.000218067
1.21043e-17
6.09386e-06
1.3319e-06
9.72882e-18
1.18719e-16
2.12578e-06
2.04435e-17
3.05574e-18
1.62436e-05
9.69163e-08
3.24151e-17
9.66531e-17
2.68886e-18
1.79874e-05
4.87285e-17
2.49403e-17
4.0342e-07
2.71638e-06
3.22579e-06
8.86287e-18
1.07806e-17
1.77301e-18
3.93736e-06
1.91162e-06
1.35887e-05
3.86515e-06
2.1452e-19
7.8155e-07
1.46736e-05
7.16613e-06
4.64185e-19
7.69452e-17
4.64739e-17
8.27514e-18
5.07431e-17
3.42649e-05
8.20679e-06
5.77006e-06
3.52682e-18
5.24617e-18
2.16385e-17
4.51839e-18
7.75226e-18
9.50833e-10
3.41198e-07
2.41654e-06
1.02993e-17
1.29436e-16
1.4193e-17
3.49031e-12
3.69604e-05
0.000124889
2.21971e-18
1.91896e-12
3.30619e-15
3.9372e-17
4.87973e-17
3.88978e-06
7.78332e-06
1.64533e-17
1.81261e-17
3.1747e-06
4.51629e-17
8.17711e-07
1.26013e-06
0.00244315
7.78301e-18
3.91716e-17
1.42855e-05
5.31911e-07
3.82994e-18
0.000768454
5.77475e-07
7.80448e-06
1.2853e-17
1.61604e-17
3.7661e-17
1.45892e-17
7.92124e-06
1.17592e-07
1.19842e-16
2.73505e-05
2.06339e-05
0.00100969
1.70539e-17
4.0583e-18
8.35946e-17
2.66103e-17
6.95768e-06
6.56228e-11
9.17765e-17
2.5332e-17
2.00693e-05
1.08075e-06
5.86514e-06
1.00139e-17
1.26867e-17
3.20984e-05
3.38081e-18
1.91595e-17
2.29175e-18
9.15471e-18
2.60647e-05
5.18756e-17
5.04187e-18
1.58179e-17
2.76216e-05
1.4748e-05
8.25408e-18
1.574e-17
3.77099e-18
1.73288e-05
1.52609e-10
9.07159e-19
4.96529e-18
1.33475e-17
1.89426e-16
2.67346e-06
1.16103e-05
1.59401e-18
2.40718e-06
1.12284e-06
5.07767e-06
1.0944e-16
7.83434e-18
9.45346e-18
2.69257e-18
2.51633e-18
2.42575e-05
4.41461e-16
1.76715e-05
1.38674e-18
1.59291e-06
3.92994e-17
2.4208e-06
2.30898e-17
9.96489e-18
1.20765e-05
0.000222022
1.55228e-16
3.64001e-06
6.01468e-17
3.90932e-07
3.0879e-17
2.57864e-18
4.82107e-17
4.56758e-10
3.17215e-17
4.04722e-07
2.65644e-17
4.03067e-05
2.46281e-18
1.21812e-16
3.67828e-18
2.06998e-17
8.03044e-09
1.44652e-07
4.96148e-19
5.51426e-06
7.34881e-18
3.6173e-06
2.23354e-05
1.28481e-06
3.32467e-19
4.59258e-09
4.43806e-07
2.07976e-09
5.5391e-06
4.28038e-10
1.67796e-06
1.38237e-16
4.24976e-18
4.50352e-10
5.92092e-06
2.46431e-07
1.23711e-17
4.27484e-18
4.05565e-17
0.00059801
7.27487e-18
2.42804e-17
1.14025e-17
6.36508e-17
1.00397e-19
7.33845e-08
1.82258e-07
1.11569e-06
6.34387e-08
3.08548e-16
1.45279e-06
6.66641e-18
6.94909e-06
1.66438e-16
1.7809e-18
6.05517e-18
1.97873e-17
2.14887e-08
2.6243e-17
2.46007e-18
7.74305e-17
1.7065e-05
1.39178e-16
2.65804e-18
1.21799e-05
8.22083e-17
6.35684e-05
0.000114973
0.00056847
7.26389e-18
0.00023648
0.00141869
0.00166169
0.000780253
3.19503e-17
2.08882e-18
5.58593e-06
5.61818e-06
1.95895e-17
6.59302e-06
1.09144e-18
3.65504e-05
3.03463e-17
1.84629e-17
6.90432e-07
8.60716e-17
1.001e-16
1.04151e-08
3.9188e-08
1.29589e-18
9.01588e-18
2.33887e-09
5.53144e-17
4.88826e-17
2.44449e-08
9.09732e-06
1.51696e-06
3.13595e-17
8.07785e-06
1.15808e-17
3.82692e-06
4.81535e-10
7.56371e-06
7.54469e-18
7.86264e-12
5.9577e-06
2.66691e-17
1.51457e-12
5.09947e-18
3.72569e-05
1.14845e-17
1.15043e-05
4.35063e-17
1.64984e-10
1.1052e-17
2.53164e-17
7.99013e-18
4.748e-13
2.44673e-13
4.87786e-17
1.39288e-05
9.11576e-06
5.27222e-18
5.36838e-17
3.79611e-05
2.1519e-05
0.000210709
2.08398e-17
6.97328e-08
2.83933e-05
5.33898e-05
6.0484e-11
2.20712e-18
6.69091e-05
1.42005e-17
0.000257035
5.96271e-17
4.05977e-11
4.15787e-11
1.76654e-17
6.33417e-08
1.37591e-16
2.3145e-05
8.46166e-18
1.95045e-17
1.97719e-18
2.47725e-17
1.14719e-16
5.97831e-17
3.40318e-07
1.96585e-06
0.000156498
2.28528e-17
2.49842e-17
4.69461e-05
2.74057e-17
3.63875e-20
6.43537e-18
3.31825e-17
1.88614e-17
5.86589e-06
1.36126e-17
4.22719e-17
1.21939e-19
3.25706e-06
9.7652e-17
9.69286e-18
2.7465e-18
3.28267e-06
6.58463e-19
5.86819e-06
0.000252058
5.30318e-06
6.08305e-06
2.64262e-05
2.54361e-17
1.69487e-17
4.97639e-17
3.43187e-06
2.02442e-06
3.68514e-18
3.73612e-16
5.82852e-07
1.18214e-16
4.51509e-17
0.000372993
2.36824e-17
2.50785e-05
1.75755e-17
2.47866e-06
4.00176e-06
3.12008e-17
2.24645e-18
2.08267e-17
5.18456e-18
7.93441e-17
2.21222e-05
4.70234e-17
4.52692e-06
1.40456e-17
3.00004e-17
7.09267e-06
3.54368e-18
1.51651e-05
1.55609e-17
4.05884e-18
2.58179e-06
8.75622e-08
0.000154302
4.20454e-17
6.25355e-18
2.50103e-17
4.13846e-06
0.000199373
6.07477e-18
1.98131e-18
1.46842e-16
1.37422e-06
7.65727e-17
2.3251e-05
3.22559e-05
2.84947e-16
5.6323e-18
7.05801e-06
8.92652e-17
3.31188e-17
2.06687e-18
1.28991e-17
3.61257e-18
7.38397e-05
4.24949e-17
1.60592e-16
1.32622e-17
3.74879e-18
1.6891e-17
4.09739e-17
7.4612e-17
1.28216e-17
1.03401e-16
8.7949e-06
8.3019e-17
8.49636e-06
2.80845e-17
2.10137e-17
0.000654574
2.83675e-06
2.76256e-17
2.24691e-17
1.8984e-17
2.39775e-06
5.11036e-17
1.01279e-16
1.05933e-16
5.8725e-17
7.29917e-06
1.98291e-18
4.07472e-06
1.29824e-17
1.14204e-05
3.70647e-17
6.47162e-05
4.09143e-17
1.78349e-17
2.19135e-05
6.18085e-17
2.62847e-17
3.07542e-05
3.32397e-07
1.09057e-17
2.08087e-17
4.31987e-05
1.23034e-05
6.75437e-06
7.58852e-07
1.71928e-06
1.89543e-05
9.65006e-07
5.96207e-06
3.0588e-17
2.91416e-05
3.75968e-17
6.35765e-18
6.81688e-18
1.45241e-17
4.41592e-17
1.02406e-05
6.59033e-17
4.87176e-19
2.32892e-17
1.90713e-09
1.24327e-08
1.92561e-16
2.88819e-06
8.13241e-17
4.50215e-06
4.00803e-18
1.10874e-09
4.50259e-06
3.37911e-16
4.84788e-05
5.76151e-18
4.01171e-18
5.01923e-18
3.03105e-06
1.54941e-06
4.24587e-18
6.84607e-18
2.49279e-06
4.90392e-17
0.000733067
9.07796e-18
0.000106354
2.84813e-17
1.16831e-18
6.99208e-17
1.5419e-18
1.06867e-05
8.28473e-18
5.01977e-08
6.48852e-18
1.07162e-05
5.29436e-17
3.9878e-18
6.60822e-15
3.6639e-16
2.05251e-17
2.92136e-16
2.9113e-17
6.43627e-17
4.88856e-06
0.000228166
2.72845e-17
8.27912e-18
4.51823e-07
2.80557e-18
2.93472e-18
1.90618e-09
1.93723e-05
1.79632e-07
1.13709e-17
5.65387e-07
4.02919e-06
5.45087e-06
9.55051e-06
6.47952e-17
1.86326e-18
1.27286e-17
4.43904e-18
1.2124e-18
5.96343e-19
3.60163e-18
8.77771e-18
1.72635e-18
2.68356e-19
9.67641e-18
9.36856e-19
8.37792e-05
3.98411e-18
4.4004e-18
1.50309e-12
1.56315e-17
1.61309e-17
0.00124385
4.05155e-18
3.18063e-18
1.94646e-06
1.87606e-12
1.97689e-17
1.43605e-17
1.13364e-17
2.48596e-05
1.28993e-18
8.27768e-17
4.73954e-11
2.79339e-19
1.56547e-17
1.48747e-17
1.74703e-17
0.000125174
2.68346e-18
2.23054e-07
3.47785e-18
2.76761e-17
1.87591e-17
5.50336e-18
3.7881e-18
2.94968e-11
5.07185e-11
1.45121e-07
2.53402e-18
3.88742e-17
5.04938e-17
1.16639e-10
1.25392e-18
3.07036e-10
1.8695e-11
1.82529e-17
1.16542e-17
1.77811e-17
1.17631e-11
8.98796e-18
3.49633e-17
1.9818e-12
3.71018e-16
3.59956e-05
7.72912e-18
7.24196e-06
1.39699e-16
2.41765e-09
3.63679e-18
1.74357e-06
3.19141e-18
4.89667e-06
2.60492e-05
6.10552e-18
2.93536e-06
1.29556e-08
2.28554e-17
1.08005e-05
5.69678e-18
8.67517e-18
7.51753e-17
1.85156e-17
1.29458e-17
1.05662e-19
5.16822e-18
3.34995e-17
0.000303011
2.73804e-18
2.30658e-17
1.02684e-17
2.57279e-18
1.56858e-18
3.59009e-05
0.000939832
3.12865e-09
1.53634e-08
1.28499e-18
2.10493e-06
1.44492e-06
5.38846e-17
1.35398e-16
2.69417e-16
5.31197e-18
5.88759e-18
7.95794e-18
1.39565e-17
1.8673e-17
4.76713e-07
1.97187e-16
4.55308e-18
1.7881e-07
2.8185e-09
2.50306e-17
3.07349e-05
9.88636e-18
8.13061e-17
4.41192e-17
0.000194386
7.67154e-17
3.72095e-19
2.75088e-05
9.33277e-19
3.37577e-17
1.29918e-17
6.49638e-18
5.99486e-05
7.09457e-18