/*--------------------------------*- C++ -*----------------------------------*\
  =========                 |
  \\      /  F ield         | OpenFOAM: The Open Source CFD Toolbox
   \\    /   O peration     | Website:  https://openfoam.org
    \\  /    A nd           | Version:  10
     \\/     M anipulation  |
\*---------------------------------------------------------------------------*/
FoamFile
{
    format      ascii;
    class       volScalarField;
    location    "4.6";
    object      T;
}
// * * * * * * * * * * * * * * * * * * * * * * * * * * * * * * * * * * * * * //

dimensions      [0 0 0 1 0 0 0];

internalField   nonuniform List<scalar> 
111485
(
303.15
285.161
301.089
303.15
298.586
283.15
299.107
293.454
296.532
286.316
300.651
296.313
300.349
284.61
300.126
286.798
299.214
299.064
294.298
303.15
303.15
283.15
297.452
288.755
301.564
303.15
293.321
300.633
289.042
303.15
300.788
294.19
303.15
283.15
283.47
283.15
302.315
298.032
283.149
296.77
283.15
289.778
297.182
302.901
303.187
303.15
287.516
288.612
289.818
303.15
303.15
283.15
303.15
299.106
303.15
293.778
287.965
283.15
283.329
295.644
296.046
303.15
302.132
300.392
283.15
284.63
300.748
291.646
302.177
302.56
303.168
301.963
303.15
302.18
303.15
295.344
283.15
293.646
283.15
283.15
283.245
293.447
283.15
303.15
300.451
284.275
283.15
301.638
303.13
299.381
283.401
289.75
300.983
300.271
290
303.15
303.15
301.638
303.149
283.432
303.15
286.769
283.15
285.271
285.776
283.15
283.15
292.954
301.52
283.146
299.009
288.239
301.384
301.763
303.15
302.044
303.15
283.15
300.281
303.15
303.15
283.15
283.15
283.15
283.414
303.153
283.15
301.903
303.15
283.18
303.081
302.032
303.15
283.15
283.15
292.728
283.15
294.542
298.955
301.205
303.139
296.99
299.13
284.84
302.313
298.23
283.15
303.15
283.15
297.33
285.015
303.15
303.145
287.666
283.156
293.941
295.84
302.542
283.154
303.15
303.15
292.415
286.329
283.153
283.157
301.337
283.71
283.15
283.153
283.153
283.15
303.15
283.211
283.15
291.355
287.277
283.15
303.15
303.15
283.15
303.15
303.15
297.827
293.733
296.013
290.25
301.465
300.584
283.192
303.15
301.563
303.15
303.15
300.331
286.344
301.507
301.343
296.056
303.15
300.934
284.652
283.161
300.879
296.998
303.15
300.578
288.402
303.15
283.235
300.261
284.881
300.846
303.15
303.15
300.859
283.15
293.037
283.15
300.767
298.914
290.519
303.15
301.796
300.616
283.15
283.15
283.15
289.653
283.158
283.15
303.15
298.855
291.847
290.107
283.15
303.15
303.11
303.15
284.377
300.26
299.455
299.709
299.584
283.15
283.143
299.135
283.15
283.15
288.85
288.553
283.15
301.248
299.163
303.15
283.15
301.055
303.15
303.15
303.123
303.15
288.288
285.869
291.326
303.15
298.635
303.15
303.15
303.15
283.148
298.221
301.098
299.588
291.284
299.643
296.435
283.215
290.715
292.093
283.15
303.15
283.149
292.39
298.85
286.487
303.15
298.181
297.42
299.065
302.97
283.165
297.31
299.526
302.03
283.15
283.642
283.15
283.149
303.15
283.963
290.34
286.419
303.15
283.15
297.815
285.457
303.15
303.15
303.15
284.706
290.691
301.168
284.473
293.204
283.15
283.15
303.15
298.569
303.15
283.86
289.769
283.152
283.15
303.15
303.15
283.15
294.578
290.032
283.15
295.954
283.15
303.15
301.17
297.521
294.067
296.058
283.15
283.15
283.15
296.842
291.544
302.394
283.15
283.15
283.149
290.165
297.184
283.222
290.664
283.15
292.974
299.718
284.237
298.839
285.304
283.15
303.15
283.15
303.15
290.728
296.612
288.125
292.178
283.15
286.418
283.15
303.15
294.006
303.15
301.959
303.15
283.15
292.175
283.15
289.255
284.688
283.15
284.017
298.221
283.15
300.31
284.755
299.034
303.034
291.582
285.988
283.15
303.15
303.145
283.15
301.089
300.952
283.15
283.15
294.708
284.405
298.569
296.86
283.15
295.344
296.245
283.15
302.108
283.923
303.15
303.15
288.681
298.76
283.15
303.15
303.15
303.15
300.781
283.15
303.15
294.031
283.171
287.047
300.097
283.15
283.15
302.653
283.15
302.506
301.523
298.055
289.612
283.15
294.335
303.387
303.15
298.817
292.407
303.15
283.15
283.313
283.15
290.216
286.222
292.158
283.15
293.371
296.674
293.549
303.147
283.15
303.15
303.15
283.169
293.249
283.15
284.373
303.135
283.15
303.15
303.15
303.15
301.834
291.003
286.09
284.239
284.359
283.15
285.794
303.15
300.845
283.15
303.15
303.15
300.756
303.15
303.15
283.151
303.15
283.15
300.786
283.15
283.15
283.15
303.15
283.15
303.15
283.15
283.691
283.15
303.13
301.874
283.781
283.15
303.09
283.15
303.15
284.747
284.711
286.207
297.75
283.15
297.687
297.793
292.76
287.125
285.307
303.15
292.233
283.15
300.005
283.15
296.992
283.15
292.515
298.709
303.15
283.15
287.102
303.15
295.724
299.249
283.15
283.15
283.15
283.15
303.15
293.883
283.15
283.15
283.245
283.15
299.963
283.15
284.865
303.15
283.444
303.123
284.721
292.348
283.15
301.61
283.15
283.15
285.778
283.15
283.262
283.15
299.819
303.15
290.884
303.15
283.15
302.431
284.506
300.221
285.715
300.218
289.538
283.15
300.746
284.591
283.15
283.139
300.492
301.673
283.15
282.365
301.16
303.069
283.117
303.15
287.637
302.231
284.44
285.46
288.578
282.477
283.15
303.15
300.906
303.15
283.572
283.15
283.15
292.096
282.653
303.15
303.121
283.15
286.369
299.711
283.15
283.15
299.721
303.15
283.15
283.15
283.15
286.24
283.15
303.15
284.881
284.287
303.15
299.809
283.15
289.227
303.15
283.15
286.247
283.15
283.15
283.15
285.608
283.15
285.528
292.281
303.15
300.498
283.459
298.872
301.011
283.369
283.472
283.15
289.148
298.611
303.15
302.273
296.11
297.048
284.718
297.612
297.34
303.15
300.326
303.138
283.15
297.332
284.908
283.15
292.701
295.931
284.923
298.934
300.74
292.672
283.15
299.058
283.479
303.15
300.693
302.028
294.435
283.15
286.833
303.15
283.15
283.15
283.15
283.311
283.15
303.15
303.15
283.15
300.502
299.419
303.15
285.707
303.15
303.15
303.15
290.121
283.433
283.15
303.15
283.15
283.15
287.002
292.707
283.15
295.353
283.134
283.15
295.526
302.272
288.132
283.15
283.15
300.401
292.452
283.15
283.15
283.15
294.127
303.15
303.15
283.15
296.441
302.415
283.15
282.571
301.95
286.832
283.15
283.15
287.525
302.988
283.15
283.16
287.649
283.789
289.036
283.15
285.793
300.409
283.15
303.15
283.15
283.15
283.15
283.15
295.881
303.15
283.15
283.15
295.494
292.164
303.15
303.15
290.025
298.679
298.568
303.15
283.15
298.249
303.15
283.874
299.114
298.632
303.15
303.15
303.15
283.15
286.125
283.15
283.15
302.723
303.15
298.016
302.319
283.15
294.414
283.258
296.671
292.074
283.438
289.972
283.15
283.15
297.111
288.247
290.672
283.15
283.15
298.384
295.305
283.15
283.941
284.66
283.486
303.15
303.15
303.15
290.691
283.15
300.275
283.15
284.408
297.615
298.763
292.619
283.15
283.15
303.15
295.715
283.15
283.15
303.106
283.15
283.15
303.15
283.15
299.534
283.15
283.15
283.15
283.15
283.15
303.15
283.15
283.173
298.766
303.15
302.553
283.129
283.409
283.092
285.648
283.15
284.489
290.662
283.409
303.15
283.149
299.965
283.15
300.465
283.161
283.143
286.289
297.811
283.221
291.578
297.845
283.15
283.15
299.327
300.003
283.15
297.622
291.366
297.389
283.15
283.248
283.15
297.724
296.828
283.15
300.372
297.476
283.149
300.092
283.15
295.764
283.144
303.118
283.162
283.16
283.15
283.15
284.487
283.15
302.98
283.614
283.083
303.148
303.149
303.147
283.15
283.15
294.092
303.15
303.135
283.897
283.15
283.15
303.155
303.15
283.15
303.164
283.15
283.15
303.15
303.15
303.15
303.15
283.376
283.15
283.15
283.15
303.159
283.313
283.916
293.746
283.15
283.15
283.346
283.15
283.15
283.15
287.327
293.851
283.15
283.15
283.15
283.15
283.15
283.15
284.039
283.15
303.151
291.72
283.15
303.15
303.15
303.153
303.15
303.15
283.15
303.168
283.15
283.726
283.144
303.152
283.15
303.067
284.469
292.314
303.15
303.13
284.516
303.15
283.15
303.15
283.15
294.34
293.646
284.718
303.148
283.15
293.546
283.15
283.15
303.15
283.15
295.066
283.15
303.15
283.163
298.219
303.15
284.448
283.15
283.608
283.15
283.15
283.15
303.15
286.097
283.489
284.512
283.15
283.15
285.873
283.15
283.15
303.15
284.402
303.163
298.729
303.15
303.129
303.13
283.15
303.133
283.15
283.463
289.323
301.02
283.845
283.168
283.15
283.15
283.15
303.181
283.15
302.929
303.15
293.243
303.15
288.762
283.854
303.15
283.15
303.15
283.15
301.882
303.15
303.15
286.682
300.695
283.15
283.15
283.15
283.15
283.15
283.15
300.947
283.597
303.15
303.15
303.157
303.15
300.341
284.444
283.15
302.173
303.15
301.722
283.15
302.611
283.15
283.148
303.152
283.324
302.185
300.374
283.147
283.15
289.461
303.15
293.623
303.15
283.15
303.15
283.15
283.15
283.15
300.934
302.117
303.15
303.15
303.15
302.923
283.149
303.15
293.133
283.081
303.15
297.421
298.174
296.705
283.387
283.15
283.15
283.15
283.15
294.843
283.15
295.087
283.15
303.068
289.904
283.15
302.884
283.15
283.15
302.776
283.148
302.922
283.15
303.15
283.15
302.444
283.15
303.15
283.15
283.147
283.15
283.173
283.15
283.15
303.15
292.869
301.065
296.285
297.215
303.15
303.12
283.15
283.15
285.935
283.15
283.158
302.871
298.659
302.961
303.15
283.376
283.15
303.15
283.15
303.004
283.343
298.291
283.15
303.15
288.198
303.15
283.15
283.121
295.265
283.147
283.15
283.15
283.148
303.15
283.15
303.143
303.15
303.15
290.135
303
303.017
289.204
293.598
283.15
283.15
303.1
289.277
283.15
303.15
284.806
283.15
303.15
283.15
283.15
283.15
297.926
283.15
302.952
283.15
300.642
283.15
283.15
283.15
283.15
283.15
283.15
285.118
283.15
283.15
283.15
283.15
283.15
283.15
292.24
283.15
298.357
302.961
283.15
302.342
283.15
302.561
303.145
292.108
288.697
303.15
291.99
284.86
303.115
303.15
303.139
295.046
288.634
283.15
287.893
283.15
283.15
283.15
283.15
287.58
283.15
283.15
291.406
303.137
285.289
283.15
283.15
302.537
283.15
283.189
303.15
299.807
283.15
283.15
302.835
283.15
303.178
303.15
283.15
289.141
298.032
292.676
285.791
292.796
294.25
283.15
283.15
302.341
290.574
293.01
284.475
283.15
294.37
283.15
303.15
300.847
298.828
283.15
297.396
283.15
292.762
297.536
303.15
283.15
283.15
301.856
283.15
283.15
300.632
296.116
283.198
291.053
283.15
283.15
302.821
300.649
283.15
300.766
283.15
300.627
283.15
283.15
300.924
283.15
283.23
301.688
283.15
283.15
302.484
283.15
287.991
303.15
290.633
303.15
303.15
303.15
301.057
283.15
283.15
299.695
283.15
302.995
283.15
283.15
303.15
283.151
288.277
283.15
283.15
288.136
288.317
283.15
283.712
283.15
303.15
302.467
283.762
301.719
283.15
283.15
283.15
283.15
283.15
283.15
283.15
283.15
283.15
283.15
283.15
303.15
283.15
283.15
283.15
283.15
283.15
283.15
283.15
283.15
303.15
287.026
283.15
283.15
283.15
294.941
283.15
303.15
303.022
283.15
283.15
294.952
283.15
283.15
302.001
295.424
283.15
303.567
303.571
283.15
301.589
294.198
297.749
301.573
298.388
303.15
283.15
296.361
292.003
301.52
283.15
302.214
302.445
300.994
287.975
287.203
301.174
301.785
301.869
303.15
285.973
297.751
285.63
297.462
283.15
283.15
283.15
303.15
283.15
292.231
298.11
283.15
283.15
283.15
283.15
283.15
303.15
283.15
303.15
292.167
303.135
299.202
302.853
283.15
283.15
285.467
283.168
283.15
283.15
301.716
303.15
283.15
298.346
299.679
297.723
298.825
300.922
303.15
290.808
302.619
303.15
303.15
300.451
303.15
283.15
282.912
295.747
302.96
283.15
303.15
289.813
286.277
296.852
292.43
302.507
303.15
303.138
303.15
303.15
283.15
298.977
283.15
292.036
290.544
299.856
284.809
303.15
302.012
303.15
283.15
303.15
303.15
291.498
300.001
283.15
303.15
303.135
292.013
303.048
299.548
293.088
288.26
293.169
283.15
303.15
283.15
291.491
298.54
303.151
303.15
303.15
303.15
297.648
302.573
283.15
300.175
301.245
284.96
299.727
303.15
303.15
298.912
293.218
283.15
302.919
299.867
302.626
292.231
297.572
298.469
303.15
286.935
298.151
291.603
283.15
289.283
303.15
288.455
301.182
303.15
288.665
301.385
300.202
293.415
283.148
283.16
283.245
301.855
301.043
303.15
288.691
301.57
303.15
283.15
303.15
303.208
298.94
291.347
296.882
303.244
283.149
297.787
303.15
303.15
293.061
303.15
300.335
283.317
301.422
291.331
303.15
283.68
293.491
303.15
283.026
298.926
303.15
300.873
286.3
303.15
303.15
284.024
303.15
283.15
283.15
285.838
299.531
291.427
303.15
285.311
297.78
283.15
299.152
299.178
288.9
303.118
283.15
301.506
299.346
299.149
300.306
288.567
291.006
302.498
303.15
301.683
288.739
303.15
299.158
283.15
283.15
303.15
283.15
303.15
297.551
283.15
300.739
283.666
303.15
283.837
283.15
289.783
303.15
303.146
303.15
294.306
303.005
303.123
300.054
290.29
289.516
290.421
298.696
303.15
299.618
292.402
299.162
303.15
283.897
283.475
299.487
287.285
283.531
303.15
283.15
303.15
285.421
303.15
303.292
284.698
303.287
302.965
303.15
303.15
283.15
300.685
300.664
285.692
303.093
286.904
295.93
301.888
292.74
288.475
302.095
296.357
283.15
283.15
303.15
285.895
289.762
283.15
283.15
303.15
302.006
289.004
303.15
296.64
303.15
283.156
285.278
301.123
303.15
303.15
292.522
303.15
283.313
290.549
283.15
297.349
294.743
295.871
303.15
302.744
283.15
302.701
293.661
303.15
303.15
288.737
283.15
303.15
301.893
284.549
303.15
303.15
283.15
302.382
303.399
289.663
299.86
298.091
303.15
303.158
302.638
303.15
283.15
303.15
303.15
303.15
303.15
303.15
303.15
303.15
283.15
303.15
303.15
283.357
303.15
303.304
303.15
303.161
303.15
303.15
301.056
303.673
303.15
292.241
303.15
303.15
283.15
302.598
303.15
302.185
303.118
283.297
283.15
303.15
302.943
283.149
303.15
303.15
291.573
283.15
292.798
283.15
283.15
283.152
291.426
284.883
303.15
296.769
283.15
303.634
303.134
284.346
302.632
283.15
292.375
303.086
301.744
283.15
303.15
283.15
303.945
284.857
296.897
303.15
303.15
303.15
303.15
303.15
303.15
302.407
302.835
297.71
292.33
303.15
287.311
292.843
285.02
303.204
283.15
286.958
302.783
284.816
283.147
287.521
303.15
283.399
302.937
292.741
302.869
301.972
303.15
302.257
303.15
303.15
298.138
303.15
284.549
303.15
303.15
283.15
303.15
303.15
302.869
303.15
283.305
283.15
283.15
285.95
284.96
300.911
286.237
303.15
295.193
303.15
290.591
303.15
287.319
300.802
301.574
293.524
303.15
303.15
303.15
289.798
283.15
303.15
289.552
283.15
283.15
301.901
303.15
286.225
283.148
283.15
303.15
303.15
300.694
298.382
303.15
293.933
303.046
283.15
298.65
303.15
286.411
288.306
302.167
303.15
296.442
296.754
302.967
301.956
301.709
303.15
303.15
303.147
303.15
283.15
303.15
289.561
300.111
294.419
302.192
283.15
300.492
291.603
298.399
283.628
298.508
289.832
302.222
283.15
283.15
283.15
302.265
283.15
290.617
283.15
301.361
303.16
289.716
297.98
283.15
303.15
301.348
301.327
303.15
283.15
303.15
286.417
301.541
302.991
302.394
298.004
288.476
303.15
303.15
303.15
294.729
286.105
290.168
296.102
283.985
302.972
303.15
303.15
283.15
283.15
285.374
299.719
303.15
303.15
283.15
303.15
303.15
303.15
300.399
303.15
285.457
293.044
283.15
283.253
293.529
285.701
303.15
303.15
301.964
303.15
299.383
283.146
297.659
303.15
303.15
283.15
303.15
303.15
303.15
305.432
303.15
301.917
301.137
303.15
303.15
301.704
303.15
283.15
287.33
303.12
303.15
303.15
303.15
298.263
303.15
303.15
302.578
302.533
301.86
303.15
283.15
303.15
302.11
302.554
301.613
302.58
283.15
300.891
287.836
297.408
283.15
303.15
303.15
303.15
303.15
294.549
287.609
299.676
303.15
303.15
303.15
303.15
283.15
303.148
284.974
285.136
283.15
303.15
303.15
283.147
299.732
295.22
283.15
303.15
303.15
303.15
303.15
289.643
289.854
303.15
303.15
302.416
303.15
301.45
283.983
292.126
303.15
283.15
301.166
303.128
303.15
303.349
301.469
287.011
303.15
303.15
303.15
303.15
293.208
284.23
303.15
302.729
298.282
290.116
303.15
303.15
303.15
303.15
299.677
303.151
303.15
303.15
298.586
302.601
288.609
303.15
303.15
297.975
303.15
303.15
303.15
303.15
288.917
303.15
283.15
283.15
296.297
291.276
303.15
303.15
303.15
297.169
303.147
303.15
303.15
303.15
303.15
303.448
300.989
303.15
287.455
302.68
299.566
303.15
303.15
303.15
303.15
283.15
285.795
303.15
302.833
283.15
302.238
303.15
303.137
303.15
283.15
301.958
286.108
283.15
302.855
303.15
302.464
283.15
303.15
303.15
303.151
303.15
283.278
303.15
290.936
283.15
283.15
303.15
303.15
299.135
302.422
283.15
302.492
283.15
284.163
288.16
302.73
283.15
303.154
302.999
303.136
284.471
283.156
302.997
283.15
283.15
283.156
302.162
302.347
303.15
283.15
283.15
296.042
303.15
283.15
303.15
303.15
303.15
303.103
303.055
302.953
302.49
303.15
302.932
303.15
284.889
303.15
303.15
283.15
303.15
303.113
303.15
283.15
303.15
288.374
303.15
303.15
303.186
283.15
303.145
302.453
297.448
303.15
290.283
295.692
284.106
290.823
283.15
283.15
287.26
284.386
283.15
303.701
283.15
286.455
303.15
283.15
303.155
303.15
303.15
303.022
303.155
303.15
283.15
303.14
303.15
283.15
283.102
298.909
302.733
303.15
301.912
303.15
285.72
303.151
301.277
303.15
303.15
301.139
303.15
303.15
303.15
287.76
303.15
285.199
303.15
303.147
303.15
283.15
283.15
303.15
303.15
303.15
288.821
302.591
303.15
303.15
288.801
286.562
291.665
303.15
302.73
287.733
287.637
303.15
303.15
288.064
283.15
292.182
303.15
303.152
303.149
303.15
300.668
283.15
302.338
283.15
303.15
303.15
303.15
303.15
303.15
284.393
302.284
291.329
303.15
303.15
290.856
303.15
303.15
303.15
303.15
303.15
300.429
303.15
303.15
283.15
299.779
303.15
283.15
303.15
301.497
283.15
300.201
290.797
302.709
300.26
299.722
303.15
303.15
303.15
301.084
288.753
283.15
303.15
300.523
303.15
303.15
292.267
303.15
287.6
303.15
298.172
284.39
303.15
283.15
303.15
303.15
303.15
285.369
303.15
300.673
303.15
303.15
299.898
283.15
284.815
303.15
303.15
288.304
301.548
296.694
303.15
303.15
303.15
301.565
292.486
303.15
283.15
303.15
300.838
303.15
284.839
296.578
303.15
303.15
301.267
303.15
303.15
283.15
303.15
283.15
294.898
303.15
283.15
303.15
303.15
303.15
303.15
303.15
303.15
283.15
301.513
283.15
302.139
303.15
303.15
296.273
300.631
303.15
283.15
303.15
301.024
283.15
303.15
303.15
303.15
300.768
303.15
297.916
303.15
285.964
283.15
286.816
303.15
303.15
298.656
283.15
303.15
288.124
283.251
303.15
303.15
285.174
283.896
300.973
301.817
301.304
293.269
301.818
283.881
303.15
297.983
283.15
283.15
303.15
303.15
303.15
301.34
303.15
303.15
303.15
303.132
283.17
283.15
283.582
303.15
302.069
283.15
303.144
296.341
283.15
294.763
303.15
303.15
283.15
300.047
283.96
303.15
283.15
300.079
303.15
297.883
303.15
295.534
303.15
283.15
303.15
283.15
299.485
283.15
283.235
283.15
286.272
303.15
303.15
283.15
283.15
303.15
303.15
303.15
303.15
284.923
284.911
283.15
303.15
283.237
283.15
283.15
303.155
290.098
283.559
283.15
301.626
284.959
300.506
288.376
303.15
303.15
303.15
303.15
283.15
283.15
283.15
303.15
283.15
283.15
303.15
283.15
297.43
283.15
303.15
283.15
303.15
303.15
283.506
283.15
303.15
302.015
303.149
303.15
303.15
303.15
288.79
283.15
303.15
303.149
283.15
303.15
303.15
303.15
295.36
283.15
283.19
303.15
303.15
303.15
303.15
303.15
303.15
303.147
284.153
303.15
283.15
303.15
303.15
303.15
303.148
303.149
283.15
283.15
283.15
303.15
303.15
283.15
303.15
283.15
287.784
283.15
301.886
283.15
303.154
303.15
284.648
283.15
284.49
297.58
303.15
284.731
303.171
303.15
297.591
283.15
303.15
303.15
303.15
303.15
283.15
303.15
303.15
299.326
283.15
303.15
303.15
303.15
303.15
292.383
291.103
303.169
283.167
303.15
301.891
302.372
303.15
283.15
283.15
303.15
303.15
303.15
283.15
283.15
283.841
303.15
303.15
303.192
303.151
283.15
289.06
303.15
283.15
303.15
288.242
303.15
283.15
302.172
283.15
283.15
283.15
303.15
299.796
303.15
303.15
303.15
283.15
284.545
293.794
295.455
289.768
303.126
303.029
283.15
283.15
301.146
283.712
283.15
303.149
303.15
303.15
283.15
294.764
303.15
283.15
302.992
303.15
303.15
283.824
303.15
303.15
288.589
289.778
303.15
283.15
303.15
283.15
303.15
303.15
303.15
303.15
283.971
303.15
303.15
303.15
302.946
303.15
303.15
283.15
283.15
283.15
283.15
302.958
283.15
283.15
301.064
303.15
284.815
284.977
303.15
301.228
303.15
283.15
303.15
283.15
283.15
303.15
303.15
303.15
302.701
303.15
303.15
303.15
283.15
303.15
283.15
286.468
303.15
303.15
291.764
303.15
283.15
283.15
302.466
303.15
303.148
283.15
303.2
286.787
283.15
283.15
299.351
283.15
283.15
303.058
303.16
293.203
303.166
303.151
303.152
283.15
283.15
302.675
283.477
285.966
300.959
283.16
283.15
290.964
301.651
301.561
283.15
300.339
290.538
300.181
302.265
302.811
284.765
295.88
299.374
286.168
293.599
300.226
303.15
297.688
298.023
302.809
283.69
292.848
301.245
287.243
303.15
301.163
303.15
300.751
301.58
283.659
285.071
303.15
283.15
302.298
301.76
283.145
303.171
288.51
302.71
301.96
300.934
303.15
303.22
301.248
295.299
300.451
289.258
302.94
301.663
302.205
302.335
284.269
302.54
301.715
283.18
303.15
302.912
303.15
303.15
302.153
302.067
294.616
303.15
284.749
292.429
292.398
301.217
303.15
284.073
285.221
284.427
303.15
299.078
303.15
296.415
295.536
300.854
303.144
303.15
303.15
302.024
301.351
302.808
303.15
292.702
302.773
290.199
283.15
298.392
293.986
303.15
300.531
283.15
283.206
283.15
302.619
303.109
303.15
302.99
298.653
283.148
300.607
302.278
295.286
283.558
296.039
297.269
283.485
303.134
284.828
296.183
283.327
297.119
300.606
300.38
300.515
302.046
290.253
301.685
303.15
302.752
302.687
302.678
296.422
302.901
283.15
302.082
293.471
303.15
283.447
286.684
301.292
302.626
290.461
284.822
287.815
302.652
296.542
303.15
303.15
295.155
283.15
292.807
283.444
303.15
290.433
290.414
283.941
303.15
297.373
298.512
284.285
301.357
294.224
290.126
300.584
303.112
303.15
303.15
283.576
302.652
283.359
285.918
303.15
303.026
303.046
303.15
285.472
300.826
298.256
283.26
299.686
302.415
300.596
287.077
283.15
303.109
301.868
283.777
283.145
303.15
303.081
303.15
303.15
284.236
302.573
296.405
283.05
283.152
303.15
283.15
302.966
303.052
302.551
301.508
303.15
283.15
283.15
301.9
301.955
283.228
295.877
303.15
303.15
301.709
285.616
283.265
301.769
301.864
301.806
284.445
303.15
283.15
298.521
297.821
303.15
302.732
302.139
284.957
285.067
302.173
303.057
303.15
298.315
284.471
283.15
303.15
300.476
301.417
302.085
289.737
302.134
285.781
300.4
300.274
290.401
297.915
303.15
303.15
301.106
284.58
302.15
283.151
300.636
301.783
283.652
288.339
302.462
283.15
283.15
283.027
303.15
303.15
300.082
298.997
302.331
283.147
283.15
283.987
283.15
283.15
283.152
303.084
301.038
299.333
296.277
283.382
303.106
300.348
303.15
283.15
302.603
289.229
300.91
292.641
283.526
303.066
283.148
283.15
302.854
301.375
302.645
283.157
291.498
284.95
303.15
284.313
301.083
283.15
283.315
285.038
284.425
283.15
283.15
301.725
283.15
289.649
302.569
302.731
301.817
283.499
298.978
290.554
283.15
303.305
292.24
283.15
283.15
283.15
303.15
301.224
302.462
299.257
301.544
299.951
289.055
283.155
290.952
290.003
303.066
291.332
300.17
292.147
283.15
286.382
301.167
301.619
283.15
284.036
299.771
283.15
303.15
283.191
301.349
303.15
284.048
302.284
303.03
303.15
283.15
292.771
303.153
301.774
283.15
283.15
283.15
302.243
297.806
303.142
302.221
303.165
303.15
288.626
303.165
290.503
300.395
300.361
296.881
283.158
301.808
283.15
290.645
301.555
289.786
290.551
299.2
300.936
301.723
287.145
290.907
285.123
283.176
302.268
286.202
283.149
283.145
300.35
283.076
300.485
287.265
296.075
299.655
289.42
299.512
283.121
299.089
283.15
290.149
289.861
298.762
283.343
283.15
300.68
283.15
302.817
283.15
303.15
286.518
286.559
283.15
299.232
298.603
287.179
303.15
303.15
301.804
289.785
303.034
283.762
301.69
287.276
303.147
284.251
288.357
303.15
301.52
283.15
283.15
287.629
287.249
283.145
285.349
301.604
286.364
301.214
303.15
285.259
301.836
291.319
303.15
303.15
301.707
302.108
303.15
293.168
294.092
283.713
296.853
287.057
290.192
303.15
302.911
297.251
285.129
283.15
287.789
292.004
299.786
283.167
283.787
282.912
302.019
303.129
283.15
303.136
303.15
300.637
293.255
299.118
294.223
283.15
291.704
296.221
285.68
283.214
292.623
283.15
300.268
303.164
292.781
284.141
303.145
291.873
298.861
288.433
300.246
291.085
287.493
283.15
303.142
285.399
290.286
293.669
283.15
283.15
283.15
303.142
283.15
283.136
286.538
303.15
283.15
303.164
283.173
291.113
289.547
303.386
302.929
290.062
303.15
297.396
303.172
302.072
287.426
283.15
293.391
303.146
303.099
286.387
283.15
283.15
283.487
286.166
303.062
303.145
287.616
289.593
283.512
283.163
289.832
293.259
303.15
283.15
303.106
303.15
302.383
285.055
302.352
303.098
284.107
283.813
284.096
302.864
302.232
297.398
294.092
303.078
291.458
290.992
303.15
303.102
302.629
285.534
283.396
303.15
286.027
283.4
302.948
301.691
302.234
283.15
300.469
301.929
303.15
302.211
285.462
303.15
298.087
303.15
283.15
300.813
302.71
286.436
302.536
283.15
285.314
303.02
283.15
302.346
285.407
295.007
284.382
303.15
303.026
302.884
286.575
283.15
287.225
284.313
289.92
285.88
302.312
303.15
283.15
283.15
292.887
283.15
301.076
302.228
290.238
283.15
293.933
283.15
303.15
283.15
300.075
298.968
283.151
285.36
301.739
303.099
303.156
292.144
294.461
301.312
283.233
301.815
283.145
303.15
303.148
299.586
283.15
301.701
295.203
303.15
300.974
287.395
301.959
284.888
288.364
283.15
302.284
287.843
298.573
303.081
283.15
303.15
291.764
302.228
283.075
283.147
286.94
298.534
303.15
284.635
301.137
301.128
301.347
303.152
300.062
287.763
284.988
301.712
300.049
283.765
283.096
303.158
303.149
303.15
297.676
283.162
283.15
303.15
303.149
289.952
298.801
300.172
287.889
302.82
303.15
286.33
301.607
303.15
300.984
283.824
301.548
303.15
284.623
301.378
295.288
302.778
303.15
303.15
285.257
295.407
296.727
287.65
303.15
303.15
283.15
287.31
302.442
296.509
303.15
285.661
303.15
303.15
300.308
288.703
283.15
295.876
296.223
298.873
283.15
303.15
292.684
287.305
303.15
298.277
300.748
300.653
303.15
303.15
303.15
300.473
298.647
302.821
300.147
283.15
292.727
287.793
290.852
300.688
303.15
303.15
300.984
303.104
286.689
296.307
303.15
303.148
283.15
286.47
299.103
285.654
303.15
303.15
283.356
303.127
303.15
303.15
283.15
290.558
303.15
303.15
284.654
299.34
283.15
303.15
284.658
301.477
300.363
287.089
294.942
303.15
283.513
303.15
303.15
283.302
300.657
290.486
300.575
303.15
303.134
302.217
292.983
299.904
301.433
284.485
283.476
300.863
298.711
303.15
302.778
284.19
300.016
301.473
287.855
303.15
297.478
301.499
301.582
301.622
292.788
303.15
283.15
299.271
283.15
283.15
287.806
283.15
284.035
283.15
283.15
283.15
283.15
302.776
288.051
302.727
283.15
295.974
290.974
284.797
283.15
303.15
302.703
301.776
303.181
302.663
283.15
295.218
300.466
290.072
283.15
283.15
299.89
285.919
283.15
283.15
303.149
290.606
283.15
287.265
303.15
303.152
284.344
283.15
288.384
293.188
300.683
294.272
302.968
285.733
302.54
295.333
286.35
283.15
283.558
291.77
303.092
289.304
302.68
283.15
292.4
287.805
301.042
301.263
284.986
303.114
285.081
297.254
302.991
303.148
285.134
303.146
303.014
293.423
302.687
283.15
303.15
303.15
294.912
291.22
283.155
301.193
284.719
284.18
284.671
303.145
288.402
300.628
283.15
283.15
302.538
303.15
294.706
302.915
303.18
299.948
303.215
302.905
283.15
301.444
302.9
283.15
303.15
301.265
303.15
284.372
298.917
283.166
291.69
283.15
287.632
303.027
300.033
283.15
303.035
290.796
301.271
303.132
303.082
283.15
283.15
301.944
302.057
283.823
302.836
302.454
302.421
303.141
283.15
294.206
283.15
302.813
287.868
302.997
303.15
283.15
302.85
285.212
291.51
302.105
283.15
302.613
302.053
301.686
302.519
303.056
303.201
303.019
303.15
283.15
301.544
297.991
303.091
303.15
290.131
285.138
303.15
283.15
285.428
303.183
303.163
302.931
301.213
284.316
303.101
290.786
294.023
303.148
289.169
303.162
283.15
290.091
283.15
300.079
298.306
284.845
288.304
299.724
296.366
295.369
299.29
293.892
303.152
293.912
296.569
283.158
299.496
293.777
303.15
299.184
299.263
303.15
291.465
303.171
301.73
303.15
286.979
286.047
302.817
289.713
283.15
283.15
300.429
301.146
283.755
283.15
303.15
300.312
302.362
300.736
300.017
302.804
292.615
289.684
286.656
292.504
284.336
290.602
283.313
295.723
290.455
294.009
287.24
284.306
303.162
283.278
303.147
285.73
300.802
283.151
300.368
298.107
288.779
302.121
285.446
299.186
283.15
302.963
283.156
283.111
287.985
299.768
303.15
300.364
303.028
299.948
302.78
303.15
301.34
284.993
295.407
302.096
303.149
283.722
283.15
290.502
285.183
285.803
303.147
303.149
283.15
283.15
283.177
303.15
293.509
303.15
303.155
295.03
303.431
303.15
300.289
303.15
303.15
293.706
290.668
303.15
289.871
302.113
289.601
303.15
303.15
286.106
283.344
290.417
303.217
303.15
303.146
285.522
283.268
283.15
289.088
287.718
303.15
284.338
303.15
303.15
303.132
287.382
303.15
303.147
283.287
303.152
302.687
287.961
283.151
283.633
297.371
290.847
303.15
285.976
284.539
301.406
287.113
302.253
290.464
293.962
303.15
303.15
284.035
303.152
302.962
295.856
302.958
302.76
287.176
283.15
285.473
283.223
297.481
302.622
285.503
303.15
283.834
286.759
303.128
283.177
303.15
286.527
283.15
300.001
303.15
299.83
300.045
283.315
283.372
302.355
291.332
301.349
303.15
301.462
301.804
303.15
303.15
298.441
293.631
283.15
288.989
303.15
295.177
283.373
303.15
296.987
298.841
289.044
303.15
302.777
294.558
295.533
284.494
303.161
299.002
296.315
284.004
303.127
302.818
287.493
298.602
289.615
290.69
289.774
283.15
302.964
303.151
303.15
303.169
293.315
296.497
302.983
301.36
303.15
284.46
303.15
303.051
302.872
303.15
293.742
296.278
303.15
285.454
303.1
303.15
303.097
303.156
286.147
293.502
291.185
288.445
293.142
303.15
301.359
291.653
295.482
293.482
303.141
303.15
300.607
303.186
284.301
303.187
303.15
303.15
303.143
303.15
285.014
303.15
284.282
303.146
303.15
290.38
303.145
292.614
295.623
303.135
295.516
285.968
283.443
303.128
302.944
284.743
283.15
297.116
303.15
285.576
302.925
302.1
303.024
298.452
287.163
303.15
298.596
289.946
299.454
283.15
283.64
303.15
303.145
303.188
293.913
303.15
292.527
289.417
303.193
303.15
284.875
299.093
293.397
299.836
302.512
301.588
300.566
303.15
284.748
296.943
302.386
285.693
298.283
292.326
284.522
291.849
303.15
286.816
292.034
290.033
299.627
303.15
286.465
284.088
303.15
302.473
288.181
302.105
283.15
303.15
299.955
301.757
289.385
302.042
301.927
301.89
303.15
289.52
285.178
302.012
302.278
297.307
303.15
283.203
303.15
302.042
303.15
302.844
303.15
291.823
303.15
296.728
283.15
289.681
303.15
283.15
291.831
301.545
300.536
289.26
300.616
303.15
302.523
303.15
302.372
285.336
303.15
300.522
290.465
303.15
300.912
303.15
303.15
293.151
283.15
285.61
293.311
301.021
303.15
291.555
294.109
288.375
289.664
288.129
299.256
300.257
300.897