/*--------------------------------*- C++ -*----------------------------------*\
  =========                 |
  \\      /  F ield         | OpenFOAM: The Open Source CFD Toolbox
   \\    /   O peration     | Website:  https://openfoam.org
    \\  /    A nd           | Version:  10
     \\/     M anipulation  |
\*---------------------------------------------------------------------------*/
FoamFile
{
    format      ascii;
    class       volScalarField;
    location    "77";
    object      SgT;
}
// * * * * * * * * * * * * * * * * * * * * * * * * * * * * * * * * * * * * * //

dimensions      [1 -1 -3 -1 0 0 0];

internalField   nonuniform List<scalar> 
59698
(
0.0130974
0.000152662
0.00021089
2.01421e-06
0.0304362
3.96386e-18
0.00213582
3.02575e-05
1.59565e-15
2.06627e-18
2.17895e-15
0.000299362
3.86971e-17
6.23006e-06
0.000358763
3.70668e-17
6.9837e-06
0.000146062
4.5158e-05
0.000250624
0.00138087
0.0142116
1.2037e-07
1.64943e-17
0.0422735
6.77632e-05
0.000342894
0.00762087
0.0068078
0.00746796
0.00479779
1.54471e-17
3.2368e-16
0.0125196
0.00243366
0.00016381
0.0189758
0.0204931
3.0928e-05
0.0226657
0.0086449
3.99028e-18
0.00371245
0.00064093
1.26592e-17
0.0322666
7.40372e-05
0.000730237
0.000249348
0.000173271
0.00151991
0.000119342
0.000337192
4.9328e-06
0.00925019
7.68601e-05
0.00132462
0.000212036
0.000805364
0.00283573
0.0034493
0.000501353
0.122619
7.04075e-05
0.0125663
0.00160625
4.83125e-17
0.00039963
5.58786e-05
6.02033e-16
7.94129e-10
0.000251284
3.57643e-06
0.0419497
4.35011e-18
0.0392978
0.000118864
0.0092332
0.000356833
0.00614206
0.00881632
0.000479685
1.83325e-16
1.6143e-05
0.00859832
0.000551684
3.70561e-06
4.19974e-05
0.0632076
0.000128948
2.74718e-16
0.00206579
0.0147325
9.8207e-06
7.32957e-05
0.000160594
0.00529014
6.1119e-05
0.000270775
9.24151e-18
0.0729868
0.00180068
0.0161836
0.0122005
0.000121385
8.47763e-16
4.40194e-05
3.67577e-05
7.46133e-17
2.47459e-17
0.000250178
4.65529e-06
0.0379226
2.77614e-18
2.61053e-05
4.501e-05
3.97519e-05
4.4819e-06
2.33843e-05
2.58588e-16
3.63847e-05
0.000708147
9.3893e-07
6.14375e-06
2.12663e-05
3.34761e-05
0.0108058
2.24558e-17
2.78228e-05
2.93908e-05
0.0416165
3.73147e-05
2.09001e-16
0.100268
0.00431664
0.0043823
1.65273e-06
1.48639e-17
0.000255595
0.000131394
0.000109222
1.55551e-06
0.000179696
0.00266981
9.81827e-06
0.000692686
5.84984e-06
2.17024e-05
1.72755e-06
0.0292924
4.2035e-05
7.65872e-15
0.00148667
7.3383e-06
0.000162013
0.000342363
4.75536e-05
3.27033e-07
0.0123949
4.36872e-16
0.000857256
5.10778e-05
0.0164403
0.00163978
0.00342918
0.0323757
0.000238267
0.0710083
0.00047679
0.000411479
0.0120096
2.34332e-08
0.0108411
0.0148549
0.0794658
0.000727827
1.5876e-17
5.09415e-05
5.58272e-16
0.00635515
0.00943596
0.0183101
0.0147889
1.98139e-05
0.0456321
0.0002363
0.0114464
9.95121e-05
6.52255e-06
0.0011822
0.000402514
6.70417e-05
0.002686
0.0387278
0.0040835
3.93441e-06
0.00981912
0.0554514
1.41147e-05
0.00770366
1.5473e-15
0.00627651
0.0210712
6.60064e-05
0.00690426
0.000327605
0.00615813
0.000799072
0.00511606
0.00797885
0.000134299
2.36701e-05
0.000160656
2.33936e-16
0.00406663
4.82588e-07
3.73906e-05
3.6389e-05
0.0127962
0.00665403
0.00563142
0.000512428
2.97258e-05
0.0664666
0.000821379
0.0236906
0.00732045
0.00323434
0.0069127
0.159056
4.60566e-16
0.00470169
0.00293652
0.00319035
1.38543e-05
0.00962712
0.0830574
1.91005e-05
7.23328e-07
0.000450417
1.10859e-05
0.00147128
0.0135022
2.37701e-18
0.00609525
0.000120678
0.00380136
0.229006
0.00122301
0.000427111
0.000703626
0.00163875
0.000628236
1.7811e-15
0.000618687
0.000692082
0.00600879
0.00128806
0.000496802
4.09596e-05
6.99483e-06
5.86284e-18
0.000389779
0.00320982
0.00113971
0.0477605
2.32118e-05
4.8034e-15
0.000165058
1.629e-05
0.000141649
0.0440013
0.000151789
1.8412e-05
0.0180394
0.000205794
1.59135e-07
0.00051173
0.00208079
6.59388e-17
5.09274e-16
0.000193392
0.000212403
0.10484
0.0458701
0.0203328
0.000135308
3.39245e-10
0.073104
0.000444417
0.0902494
1.60669e-05
0.000188186
0.000164807
0.000319595
3.21149e-06
0.00035691
0.000804314
0.00421199
1.11828e-05
0.00272162
3.07572e-17
2.29719e-17
0.000823694
6.46292e-05
5.27726e-05
0.0521046
0.00101472
2.02702e-06
0.000267691
7.84804e-05
7.07145e-05
3.83071e-05
8.19863e-18
2.46653e-05
0.00513939
6.95445e-18
0.000393343
8.48163e-18
0.000805408
0.000340254
0.323854
0.00032123
3.46637e-18
0.0481587
0.0105455
0.000328356
0.000353506
0.000442175
2.49031e-16
0.00659353
0.00415554
0.0203719
0.205937
2.66642e-16
1.88231e-05
9.86922e-06
0.000663015
0.0090869
0.00326669
0.0102446
3.88321e-06
2.86987e-05
0.00148025
9.6871e-05
6.77472e-06
0.000102588
0.0395414
4.7635e-05
1.44364e-05
0.00798735
9.16209e-05
0.0400645
9.92103e-18
0.245071
0.000253783
0.0140666
0.000125962
3.81406e-05
6.21052e-17
2.75131e-05
8.87442e-06
1.01024e-15
0.000893677
8.05091e-17
4.10131e-18
1.6184e-05
1.35456e-05
0.00015605
0.00165617
0.00189337
1.22835e-16
4.95367e-06
1.88552e-17
0.00619514
2.92645e-17
0.000153348
2.44582e-05
1.59368e-16
6.59171e-16
1.69629e-18
0.000102776
5.63545e-05
0.000526454
0.000140078
1.28778e-05
0.000211827
1.67735e-16
3.63309e-16
0.000143753
8.75907e-05
3.19739e-16
0.00127221
0.00262729
0.00128487
0.000480141
0.0478915
1.31506e-05
2.28547e-05
0.000145596
0.000410247
2.19249e-05
1.2656e-05
3.98645e-05
3.58011e-06
2.80289e-05
0.0817774
0.0254902
2.28748e-05
0.00541005
0.0315831
1.68322e-16
0.000145742
3.48076e-15
4.87095e-08
0.0589671
2.73312e-06
0.0104391
0.000503825
8.47278e-05
0.0001152
5.01074e-06
3.58403e-05
0.309539
3.7554e-05
1.30423e-05
4.34912e-15
0.00021871
4.68453e-05
1.21384e-15
0.000260685
0.000186715
0.0152154
0.00303002
0.00211681
6.4506e-17
1.55287e-15
0.211666
0.000123429
0.00105969
4.74937e-18
4.6535e-05
1.92225e-17
2.18488e-05
4.02823e-05
0.00238345
0.0701759
2.12267e-17
6.45804e-05
0.00907452
1.8218e-05
0.000125189
5.94652e-05
0.0327139
0.000284413
9.70507e-05
0.108524
3.35026e-18
0.00972011
2.87017e-05
0.0543448
8.69534e-06
0.0126198
0.0133364
1.62207e-16
0.000975496
0.000445963
0.00847375
3.34193e-05
0.00805147
0.000448607
2.80033e-16
1.16488e-15
1.55735e-16
0.000386589
0.000815838
0.00111434
0.0689341
0.00321912
0.000257625
3.50147e-05
0.00049933
3.93243e-05
1.85352e-15
0.0053241
4.54788e-05
5.56402e-05
9.38194e-05
0.065741
0.00179567
0.0230386
0.0661066
0.00109926
0.000163451
0.0546226
6.14625e-05
5.37339e-07
3.58675e-06
0.00945034
2.00477e-16
3.81584e-16
0.0641467
0.0071692
0.0045976
5.8379e-16
2.10352e-17
3.8383e-05
7.28736e-17
1.24731e-05
0.0031436
0.000585986
0.0748116
0.00734305
3.58396e-19
0.00909632
5.58265e-05
5.18663e-17
3.85484e-05
1.08068e-17
3.29008e-17
0.00542214
0.00378566
1.16901e-05
7.78432e-17
5.54817e-17
0.00127497
0.00955042
1.04253e-05
0.00731032
0.000196036
3.88204e-05
0.0389189
5.76496e-18
2.22803e-05
7.10174e-07
6.20941e-16
1.42148e-18
6.61559e-05
0.000138609
6.61499e-16
0.0097439
0.000357122
0.000148001
0.0677602
0.00819416
0.0135425
0.0100781
6.35129e-06
0.0117227
3.81604e-07
4.19555e-05
1.6279e-16
3.9181e-05
6.53193e-18
0.000282618
3.00712e-06
7.33715e-16
0.00116333
0.00688778
0.000450691
2.55341e-16
1.92034e-15
3.30887e-05
8.24196e-05
5.57084e-05
1.17535e-16
0.0747645
5.27127e-05
0.00551104
9.62508e-16
0.0028817
6.4292e-05
9.31043e-16
0.00259889
0.00286805
0.00338101
6.78749e-05
0.00402456
0.000114724
5.41688e-17
2.13486e-18
7.57374e-05
0.00197707
5.44895e-05
0.00404437
2.58556e-16
0.00243017
1.77847e-05
0.00414475
0.00268302
0.00216365
0.000159041
0.000371822
0.00016783
2.22825e-16
1.90174e-05
1.33748e-12
0.00168181
2.98e-18
1.30788e-16
0.0051545
3.36821e-05
4.44308e-17
3.01037e-05
0.00148578
0.00216351
0.000164867
4.45442e-17
7.47582e-05
6.38549e-07
8.1001e-06
0.000548679
1.01596e-05
0.00434034
0.00140809
0.00278999
2.21437e-05
0.225976
1.87847
2.0692e-05
3.70428e-16
0.000598709
0.0021422
0.000903378
6.14262e-05
4.88834e-05
0.0044488
0.00246309
0.00318896
0.00156595
7.40912e-05
5.74249e-16
9.22133e-05
0.00114548
0.000108002
0.0013273
0.000236421
2.4367e-05
5.22353e-05
0.106496
0.000238616
4.91849e-06
6.41163e-15
1.45703e-16
0.00243027
0.00380588
4.10507e-05
0.0003379
0.000120807
1.06824e-15
2.6614e-16
0.000176604
0.00829085
0.000807182
0.000588262
0.000114538
4.06256e-05
2.8294e-07
0.000325069
0.000208803
0.000309173
0.000814657
0.00088097
0.0197571
0.0899351
0.00136961
3.34387e-05
2.5237e-05
8.70764e-05
0.0415243
1.22129e-17
2.06056e-05
0.000460561
0.000109024
0.000144041
0.0016843
2.41706e-18
0.00823393
0.0473379
0.000145444
0.000422308
7.97155e-05
5.16604e-18
4.55593e-17
1.08533e-05
1.56594e-05
0.00215155
0.000195038
0.000191279
0.00857583
0.00441578
0.0361633
0.000808889
6.93798e-05
1.98111e-05
7.77767e-05
0.000241807
0.00117891
3.81399e-17
0.000159441
2.54504e-17
5.27198e-16
0.00660976
0.000821051
4.48927e-05
1.27133e-15
0.0063638
2.87651e-05
4.41344e-06
6.91897e-17
0.00156625
6.11421e-19
0.000503619
1.24315e-15
2.82896e-05
0.00195215
0.00918873
3.4427e-05
7.01516e-16
5.90244e-16
0.0603903
0.000805077
3.84959e-05
0.000956978
0.00145583
0.0257299
0.00690183
1.34534e-15
0.0559763
5.1832e-05
0.0025923
3.04323e-17
0.0076951
6.65649e-05
1.24212e-18
0.0111611
0.000185628
2.5354e-15
0.00308694
0.0605966
0.000585073
6.92192e-05
0.244852
6.22056e-06
0.000745572
0.00239869
0.00190602
0.00173075
5.23342e-06
0.0134191
1.89035e-05
0.0600717
0.00317469
0.022473
5.23094e-17
0.000212524
0.105133
0.23623
2.87652e-15
6.86174e-05
0.0500351
1.47119e-17
0.002256
0.005167
3.70552e-05
0.006081
0.00405543
5.95489e-05
9.70539e-16
0.00198505
0.0142444
1.7642e-16
1.2283e-16
3.84638e-05
1.09651e-15
0.0043389
3.85484e-05
0.000224031
0.00607724
0.00523378
1.23422
4.55522e-17
0.0246043
0.00974282
0.0210428
0.00105954
0.00478546
2.69724e-16
0.000957052
0.00159394
1.55768e-06
0.00655533
0.0111345
0.10354
0.000320037
0.00545599
1.36792e-15
3.34705e-16
2.64529e-15
0.00036625
0.000232725
3.75263e-15
6.27241e-05
1.78681e-06
0.00948303
0.000146387
0.000730657
2.80883e-06
7.20486e-17
0.00688465
4.36042e-16
2.9242e-16
6.12758e-05
8.1757e-11
6.47407e-05
0.0137336
1.58017e-16
1.19667e-06
0.0200906
0.210677
8.12372e-05
0.00871813
0.000129113
0.000660403
2.59998e-15
2.10107e-15
0.00166904
0.000843842
0.00747348
4.04416e-17
0.00627307
1.96064e-06
2.03564e-06
2.52804e-16
7.30695e-05
8.29488e-05
4.01229e-06
2.0921e-15
6.73064e-05
0.000211399
1.65311e-15
4.29245e-15
2.93967e-16
1.64899e-15
5.60434e-16
0.00203484
0.0001915
0.00153337
5.05225e-16
0.00406271
1.66008e-05
3.02327e-16
0.0158473
2.73145e-16
0.00015317
2.25917e-16
0.0355509
0.00488498
0.000882031
9.00159e-06
2.4679e-05
0.0106101
8.83746e-17
0.00984045
0.000131686
6.58669e-16
0.000484186
7.88281e-07
3.31929e-05
7.54444e-15
9.87563e-05
9.48032e-17
0.00879134
3.87271e-18
0.0020488
2.52409e-17
7.01355e-05
6.50588e-05
0.00165013
0.000598632
0.000177701
5.99743e-06
0.00202178
6.70138e-17
1.19076e-16
6.42423e-07
6.28808e-05
3.31455e-05
8.01125e-06
1.81791e-15
0.000267376
0.00372412
0.0182802
1.01583e-16
0.00105753
0.0029801
9.1467e-05
0.00281532
1.21881e-15
1.07426e-17
0.00448702
0.000148543
3.01164e-18
0.000184827
0.00162169
1.28155e-17
0.0026304
0.000106391
1.22252e-05
0.0654666
1.33595e-16
8.01179e-06
1.33232e-06
5.9655e-17
3.4992e-16
5.45244e-05
2.41612e-05
6.42284e-06
0.0202635
0.00399831
5.32448e-07
0.0409747
9.33258e-05
0.00132764
0.115534
0.000230468
0.00457554
0.00452569
0.032557
0.0588078
1.41337e-15
8.70957e-07
4.34763e-16
0.0246869
0.00026959
0.000347145
0.001421
7.60598e-18
1.03212e-16
0.00243111
0.000577529
1.57138e-05
0.00682215
0.00279351
1.59884e-06
8.40988e-05
0.0250951
0.000750915
0.00014202
4.70204e-05
7.12593e-14
5.68281e-05
0.000180406
0.0010718
2.03429e-05
4.8382e-05
1.72975e-07
2.26952e-16
0.00016415
0.000106824
0.00542942
5.40977e-17
0.000142124
0.00962109
0.00190876
0.000295329
0.000415223
0.0002647
0.000128565
0.000425192
6.15127e-16
2.49707e-16
1.15459e-16
0.000150944
7.25733e-19
0.000396195
0.0109396
0.0162473
0.0178107
7.55548e-06
8.52893e-06
0.00295727
0.00117373
0.00275481
0.0039402
0.000399527
4.63719e-05
0.000178538
4.36034e-05
0.011114
0.0565903
0.00198475
7.61301e-16
6.73334e-07
3.21246e-17
8.595e-05
0.00115009
0.000309595
0.00234849
6.29871e-15
1.16885e-15
0.000122852
0.00236775
0.00236383
0.000784296
6.48115e-06
0.0471589
1.35564e-16
1.58263e-05
2.86945e-06
0.0202332
1.74e-17
0.000398104
1.46123e-05
0.00107969
0.000453915
0.00160439
0.00115166
3.41902e-05
7.96883e-06
5.15019e-05
1.32807e-06
0.00549314
0.0095332
0.0100857
0.00816832
0.00524079
0.00591226
1.38833e-07
0.000148558
3.09924e-16
0.00596208
0.00475208
0.00222919
7.41418e-17
0.000118831
0.00390601
0.000245652
0.00160662
6.34585e-05
0.0147998
0.000126933
0.0406879
8.28269e-05
0.739308
7.55576e-06
4.26306e-17
1.35773e-05
2.25559e-05
2.79531e-16
2.29016e-10
0.00399883
0.00701368
0.00176366
0.00063674
0.00356113
7.89045e-17
5.58306e-17
0.0197599
5.91362e-17
0.000929389
0.00116178
0.00017711
0.000323666
0.00112606
3.74557e-16
6.29577e-16
0.00822975
0.000781022
0.0921077
8.37968e-16
0.000660951
0.0816659
2.2018e-16
0.00882804
0.00276567
0.0251599
1.54691e-05
0.00363017
3.48315e-05
6.73311e-06
0.00132282
5.77349e-18
0.00123379
4.22371e-05
0.000117211
0.000126167
9.19412e-06
1.90904e-05
0.00323989
0.0096723
1.30118e-17
0.00225331
0.000513961
0.000160188
0.0360577
0.0543368
0.00500211
0.000372967
0.00325412
0.457271
0.0240084
0.0262557
0.000460187
2.2404e-17
0.102443
0.000136771
1.21829e-16
1.50628e-06
0.0143439
0.000213635
0.00170715
0.000329572
0.00174779
4.90352e-17
0.00245146
0.00904004
0.00287775
0.000649133
0.000738982
5.39158e-18
5.02027e-17
0.000130843
0.00363896
1.9078e-17
0.00114444
0.000583783
0.00778414
0.000354343
0.115243
4.50364e-05
0.00118808
3.37602e-07
0.0056691
9.29378e-05
0.00110967
0.00256985
9.59391e-17
1.52841e-07
1.23468e-05
0.000137654
1.32384e-05
3.81937e-05
0.0185667
0.0101677
1.04164e-05
0.00150333
0.0841591
0.00109314
0.00399555
0.000114541
1.80333e-05
0.00372849
0.0363131
0.00903139
0.00264907
0.000183185
0.00191436
0.00336627
0.00297399
0.00374032
0.00536838
1.02248e-16
0.116667
0.0502213
0.000486261
1.02422e-06
3.04629e-05
0.000482473
3.40242e-06
0.0260844
0.00113147
7.11058e-07
0.00230505
0.000371788
6.36776e-17
0.00355818
1.09482e-16
0.00269082
2.67278e-05
0.00148277
0.00376607
9.24594e-05
0.0195592
0.000151107
9.6819e-17
0.00364244
0.000184192
0.000400577
0.00210482
0.011833
2.41676e-17
5.05291e-17
0.000375646
0.000264294
3.39318e-10
1.78069e-16
0.000190427
7.29747e-05
9.68651e-05
6.66332e-17
2.1077e-17
0.000852912
5.18144e-06
1.83609e-05
1.83422e-05
0.000315672
5.69098e-08
7.89531e-17
4.48494e-05
3.41175e-15
2.92561e-05
9.65683e-15
4.33592e-06
4.20036e-16
0.00390002
0.103339
5.29428e-05
0.00479256
0.00168219
0.00172334
7.65537e-18
3.50187e-06
4.40568e-05
0.00831235
0.0199361
0.00284807
5.00698e-05
3.86165e-16
8.50443e-05
1.6711e-15
0.00476021
0.00941661
3.24545e-17
0.00209365
0.00282924
0.00107506
0.00356444
1.79927e-05
0.0145733
0.00190712
0.00254555
9.40435e-05
5.13279e-17
2.00971e-16
5.28228e-05
0.00564169
8.25818e-06
4.84883e-18
3.49256e-05
0.00502878
0.000210808
0.00100969
0.00101824
6.02103e-05
3.37257e-07
4.84385e-05
0.00389622
9.72878e-05
9.0702e-05
0.0284527
0.00211212
0.000846621
6.12004e-05
7.80892e-18
0.00101549
1.19446e-17
0.0146949
4.54411e-16
7.07113e-16
0.00121745
1.57255e-17
0.000890438
0.000216897
5.53596e-12
1.69683e-17
0.000215405
0.000284172
3.03736e-16
0.00220059
6.95228e-06
0.000277574
0.000574382
2.36347e-05
2.83463e-16
0.0058948
0.000202641
3.4308e-17
0.0472993
6.54117e-05
3.27466e-05
0.000266908
1.52533e-17
1.62162e-05
2.42422e-17
8.79461e-05
4.77829e-16
9.58771e-06
0.00094729
0.000339466
0.00273706
0.00428132
0.00128557
1.52804e-05
0.0625968
4.13821e-06
2.20604e-14
0.00215023
0.000795643
0.00341191
1.11378e-05
4.4079e-14
0.350881
1.63732e-06
2.927e-15
3.47356e-05
0.0230063
0.00306352
2.66506e-15
3.83115e-17
2.07431e-05
0.000591841
0.0362469
0.00217454
0.00867366
0.0118365
1.25472e-16
5.27322e-16
3.5414e-16
3.65487e-05
0.0083184
4.45762e-16
0.0749976
9.25174e-17
0.000488465
1.51962e-15
1.73221e-15
5.24672e-16
0.000377945
0.00862349
0.0180825
3.58092e-17
0.00184933
0.00451358
4.58943e-17
0.00023932
0.000992597
0.00201008
0.000392992
0.000796231
0.00748894
0.0106524
0.000589929
0.00162543
0.00265632
3.69931e-05
5.23295e-18
8.13255e-16
0.0136639
0.0116504
0.00349905
0.0474421
0.00267513
0.000172198
0.00525107
0.000185422
1.67223e-14
0.00106803
0.0223085
0.000284518
0.0205499
0.0116564
0.0342295
4.24203e-19
0.101961
0.00885982
0.00172088
0.0046032
0.0644779
0.000404183
0.0028114
4.1879e-06
7.93489e-05
0.00809672
0.0011261
3.13132e-05
1.78491e-06
0.000104892
0.0249016
0.2962
0.000157185
0.00899427
0.00029027
0.000145056
2.38207e-15
0.188875
0.000621617
0.286767
0.778008
3.27149e-06
5.79956e-16
7.59064e-06
0.000183625
0.0106642
0.00562637
0.010173
0.0634062
0.0343714
0.00184587
1.35085e-05
0.0104247
0.0113413
3.9681e-16
0.000513293
2.02554e-16
0.000243913
0.000428975
5.69864e-18
0.138155
0.000201192
6.88497e-05
2.45699e-15
0.000262801
0.000180777
1.06997e-17
1.94811e-16
0.478782
0.0314298
0.18463
0.147054
0.0021847
2.64235e-16
0.00667939
0.00124963
2.79799e-05
1.08741e-17
0.0853519
4.69389e-17
3.26556e-06
6.97885e-05
7.57342e-17
0.0165127
4.74781e-05
0.00854849
5.31125e-05
6.49935e-05
0.000137878
0.000632196
0.00112766
0.01302
3.26794e-06
0.00113868
7.08976e-05
0.0149504
2.30524e-17
4.74392e-16
2.22231e-06
0.0134908
0.000151105
0.000165875
9.17647e-05
0.0315187
0.000502607
0.000197171
3.05044e-05
9.74033e-06
5.57973e-06
0.00305511
1.49239e-16
3.16088e-05
2.41777e-05
7.63835e-15
0.000126747
6.05707e-07
1.77634e-15
0.000211888
5.62264e-16
0.0107102
3.79976e-08
6.21171e-16
0.00190524
0.00169988
0.00953394
0.000577726
0.0103241
0.000304643
4.28437e-17
6.09606e-17
1.02416e-16
6.75529e-16
1.33e-16
5.30829e-05
1.65602e-07
1.52517e-05
0.00947845
0.00173753
3.46767e-15
0.017611
4.33485e-05
0.00020865
0.0145171
0.00626261
0.0123127
0.0130825
0.00335492
3.34954e-17
0.323093
0.0620755
0.000813453
2.74485e-17
0.0147455
0.000912811
0.0242227
0.00010319
2.7435e-17
0.0120723
5.40579e-06
0.00678306
2.74082e-16
0.000132147
0.00757035
1.63941e-05
0.0312465
0.355232
0.00114364
0.0550362
1.21274e-15
1.78576e-15
1.59799e-05
1.62728e-06
0.10184
1.29729e-05
0.00159976
0.000455554
3.77085e-16
0.00164139
1.76036e-05
4.34294e-16
6.13991e-16
0.0265391
9.10043e-18
5.78351e-05
0.0619629
1.06682e-13
0.002712
9.65126e-18
8.07068e-16
0.00106871
0.000153386
1.55936e-15
3.43493e-06
1.52649e-15
0.00248645
0.000523378
3.92083e-15
2.00628e-16
0.000858126
5.53451e-06
0.00279529
6.81138e-17
3.62389e-06
0.000628025
9.16162e-05
5.07679e-05
0.0318897
2.79428e-18
5.58741e-05
3.00324e-16
0.00163864
0.0337717
6.30272e-16
3.49882e-14
1.19021e-15
0.000169436
4.24935e-15
0.00196492
0.296878
2.04816e-16
2.95294e-06
4.14104e-05
9.40004e-17
3.39213e-15
1.04378e-16
0.000175666
9.36446e-16
0.000848609
3.23215e-16
0.000106097
0.000199681
2.39337e-16
0.0115075
4.31669e-17
4.63309e-19
0.00147956
0.000106034
0.00139408
0.0443972
4.09456e-15
0.000173224
0.000124125
8.55351e-05
0.00010683
2.65761e-05
1.96764e-15
2.29421e-15
4.25804e-05
2.51766e-15
4.1666e-16
1.1156e-05
3.23632e-16
8.5046e-05
0.0227293
1.43924e-15
0.0061529
0.000123695
0.0156059
2.0421e-05
0.00011921
4.62992e-05
0.00437904
2.82172e-05
0.00409638
0.0192949
2.189e-05
6.18142e-05
2.54379e-05
0.000149788
0.00085653
0.000348489
0.000106925
0.0163679
7.17508e-05
0.0104959
4.62114e-06
0.877833
0.440495
0.000109656
0.0409449
8.43863e-05
0.000391226
0.00940529
8.8109e-10
0.604928
0.0440618
0.00455687
0.000620413
0.028318
0.392932
8.94004e-05
0.0248885
0.00440621
0.00219316
0.124906
0.0439239
0.000576229
0.000960503
0.0259566
0.0486703
0.00412598
0.000311839
0.0309704
0.000205544
0.0139373
3.87413e-15
1.1114e-05
0.00658456
0.000214674
9.4496e-07
0.00390825
0.000125567
0.000127988
0.000295204
5.22313e-16
0.0078452
0.00602832
3.83758e-16
0.000444534
0.00171711
1.44066e-05
0.00404087
8.36875e-15
0.0115299
0.0636633
4.28816e-07
0.0329658
0.000140279
0.00115309
0.000143971
0.000451508
0.0300711
0.00416342
0.000222004
0.0273066
0.000303853
7.62761e-05
0.000365432
1.58025e-15
6.65291e-16
0.00536599
0.0259223
0.0147014
0.00514776
0.00549853
0.00104166
0.000133164
8.10452e-05
0.000136095
1.61971e-05
1.33555e-08
0.00175621
3.33277e-07
3.56705e-06
4.68581e-06
3.66176e-06
9.27192e-06
5.66084e-05
0.0102878
5.09412e-06
2.20123e-06
0.00341857
0.000275633
2.53606e-05
1.30243e-15
0.00683934
4.26401e-06
0.00510946
0.000449123
0.00430532
0.000119753
4.33637e-05
1.08403e-05
0.000117017
7.65559e-07
0.00153292
1.90893e-15
4.72165e-05
8.91289e-05
0.034594
0.000167153
0.00427141
1.55e-05
0.00017708
0.00031403
0.00837816
1.84916e-07
1.54483e-05
0.0036188
1.20224e-06
1.02405e-06
0.00190195
0.000365518
4.03474e-05
0.00299525
6.03101e-05
0.00600478
0.0290766
4.02829e-05
8.1169e-05
0.00297606
0.000330327
0.00427017
7.52286e-05
0.0061677
0.000352338
0.00280025
2.83701e-05
0.000730623
0.000922479
0.00721284
6.14925e-05
0.0201234
0.00612294
0.000237514
0.00138556
0.00158861
0.000251909
2.92476e-05
0.00248373
0.0218581
3.41245e-06
0.0376157
0.000202705
3.55972e-08
0.000109221
0.00188541
9.97909e-06
0.000877313
0.0137347
0.0213999
0.00206869
0.00961745
6.57749e-05
7.64194e-05
0.00439262
0.0143397
0.000448458
7.59969e-07
2.48373e-05
0.0822295
0.041824
0.000104323
5.0066e-05
1.42919e-07
7.75463e-06
0.000114053
0.0338015
0.00867626
0.0158578
3.88283e-05
0.00100627
2.8479e-05
0.0193604
2.94477e-17
0.0033727
2.53196e-05
0.00104917
0.0203041
7.44604e-05
0.000400232
3.59763e-05
2.65497e-05
5.96515e-06
1.6857e-06
0.023616
0.00022804
2.29766e-07
0.0199757
2.03725e-05
1.22618e-16
0.000437405
0.000363788
1.81304e-05
0.0134139
0.000466873
3.74728e-18
5.28217e-05
1.14962e-05
1.46703e-06
5.62848e-06
2.07113e-05
3.71981e-16
2.59017e-05
3.12829e-05
0.0115943
0.00288675
0.00037035
1.02624e-09
0.000289695
0.0603312
3.78481e-05
3.02097e-16
0.0181006
0.00281156
2.21851e-05
0.00332231
2.64521e-15
3.96733e-17
0.0182264
0.002167
0.0229305
0.000780552
0.0500837
0.0142304
0.000125465
0.0257637
1.55173e-05
0.0892053
0.00325678
1.24372e-15
3.52927e-05
0.256238
0.00483018
0.000999998
0.003105
0.000160131
0.00333257
0.0308439
0.00856355
0.00289454
0.144257
0.0037481
1.61468e-18
0.0178386
0.0640366
0.0349005
0.00132641
3.30281e-05
0.000211123
6.04311e-05
0.000679022
0.0190745
0.0196998
4.83293e-09
0.0524355
0.0230887
0.000618219
4.01363e-06
0.0137055
0.00325291
0.000723259
0.0506094
0.000532917
0.000112229
0.0107534
0.0108425
0.0217862
5.89793e-05
5.40102e-07
0.00158059
0.0163197
1.79337e-15
9.44416e-05
0.173126
0.0025834
0.00123854
0.000725385
4.35871e-05
0.00434401
1.41106e-16
0.0185894
1.69989e-06
0.0140794
3.2967e-05
0.00569545
3.0676e-17
0.0165015
1.96367e-11
0.000118674
0.00872513
1.28346e-05
0.00659968
0.00772396
3.34722e-05
0.0157634
0.000134287
0.0156793
0.00664152
0.00932478
0.0562873
0.00558642
0.0292031
0.0346085
0.0169539
4.37005e-05
0.0045387
0.000173606
0.000966991
0.000916822
0.00126947
0.00221787
0.000641681
8.93422e-06
3.30013e-05
2.85606e-06
0.00133812
0.00127734
0.0522702
0.00324031
2.99714e-05
0.00011054
2.36629e-05
0.000451922
8.93152e-06
0.00107257
0.0299152
0.00253388
0.00192764
5.23273e-05
0.0170028
4.78358e-07
3.27981e-05
1.88335e-06
0.000216245
0.0346683
0.00675336
0.000521013
0.000720196
0.00447914
0.000220498
8.79663e-05
0.00492665
4.36088e-16
1.49144e-05
8.4798e-05
2.54613e-05
4.58572e-05
4.72465e-05
0.00104534
0.00867006
0.101415
0.000249643
1.81813e-05
6.72799e-06
0.000327619
0.00836062
0.00240139
5.34535e-05
5.17213e-05
0.00318774
4.8639e-05
0.0101011
0.0751895
0.0449026
0.000173665
0.000523926
8.82909e-06
0.000115542
5.52125e-05
0.00392022
0.000451161
0.000758195
0.0142244
0.00192683
0.000278665
2.20668e-05
0.000408474
0.0297745
9.61786e-07
1.3243e-17
0.0110394
6.13287e-06
0.00056202
0.00469487
2.0212e-09
0.000105792
0.000513625
0.000145332
0.0226694
3.9989e-05
0.00011444
0.000300033
0.00510697
7.8123e-05
0.00069698
0.000108454
0.00127797
0.00952784
3.58302e-05
0.0285862
5.86961e-17
5.10595e-05
0.00241454
7.44031e-05
0.000338606
0.00347905
0.00119576
5.54201e-05
8.61026e-06
0.00181385
3.65545e-05
7.5767e-05
6.75064e-05
0.00331702
1.28581e-05
0.301046
0.00014474
0.000953651
8.51907e-05
3.09279e-05
0.000283861
0.000247085
0.00371918
4.96606e-05
0.000571646
7.40688e-05
0.000906135
0.0140439
0.00278424
0.111936
0.000865093
0.0100593
0.0103926
0.0123587
0.00126219
3.18109e-05
8.01878e-05
9.50093e-05
0.00010155
7.65894e-17
0.000257919
0.0115918
3.4703e-16
1.69087e-16
0.00375332
2.28497e-05
3.19421e-05
0.0150313
2.48947e-05
0.00011227
0.00191035
5.25322e-05
5.09218e-05
0.00158814
4.28092e-05
0.024247
0.0133516
0.0102435
0.00190446
0.000139617
0.00158731
0.000292894
5.90852e-06
4.19271e-05
9.57403e-19
0.000101218
0.0110068
0.00695162
5.31261e-05
7.45339e-06
5.46618e-08
0.000260553
1.41673e-06
0.000341431
0.0041213
8.3974e-06
4.08422e-05
1.27852e-15
4.89958e-05
0.00277103
6.69514e-05
0.000334927
0.00227667
5.3275e-05
9.97916e-05
6.37187e-06
2.15799e-17
0.0536396
0.000478313
0.000671564
3.62426e-05
1.62618e-07
0.00221629
2.11582e-06
0.00343701
4.01179e-05
4.14444e-19
2.46447e-17
2.82153e-05
0.0194723
0.00321467
0.0242035
0.0016073
0.0512508
0.000104503
2.30904e-06
0.000236519
5.16017e-18
0.000889374
7.57882e-05
6.40774e-06
0.000103507
5.06198e-05
0.0192359
0.000441037
0.00232473
0.00583591
7.27513e-05
0.0108093
0.00361033
5.09117e-05
0.000932722
0.0031753
0.0296726
0.000301981
1.40482e-16
0.063423
0.00888917
0.00640064
4.13313e-05
0.0622591
0.000273416
0.0151235
3.23607e-05
0.0173009
0.000197958
6.03899e-08
5.96156e-06
9.27725e-06
5.50881e-06
0.0402419
0.0145423
0.0145579
1.50006e-06
0.0023197
0.000106895
9.86019e-07
0.000948889
0.000104083
1.76351e-06
6.23952e-06
3.57144e-07
0.000130023
3.10058e-07
0.0360045
0.00308919
0.000346519
2.53139e-15
4.45948e-15
0.00168827
0.000456104
0.0015157
0.000732201
1.45993e-06
0.0140993
0.000252131
0.000665313
0.00204883
0.00125411
0.000126249
7.53214e-05
0.000176822
4.45888e-05
1.82007e-06
1.34605e-05
0.000108488
0.000666444
0.000103406
6.96048e-07
0.0168047
0.000216528
0.000586795
2.41631e-05
5.61958e-05
0.000489917
0.00694984
0.00293452
0.000582701
0.000214855
7.11951e-05
5.66623e-06
0.00439347
9.31035e-06
0.0074977
0.000392258
2.49172e-05
0.00188398
0.0956513
5.45604e-05
0.000193467
0.000519039
3.76492e-05
3.90014e-05
1.83572e-06
0.000199211
1.61274e-05
0.00138575
0.00374403
0.00058515
6.8881e-05
7.63833e-07
0.000464696
0.00952358
5.97158e-07
0.000141543
8.79506e-06
2.4623e-05
0.000369187
0.000182918
2.15835e-05
0.000293198
4.55451e-08
0.000101098
7.63956e-13
1.13863e-16
0.000198723
0.120228
7.89162e-06
0.00056671
0.000227077
0.000105619
0.0117393
8.33513e-06
0.00275243
0.000122174
7.93574e-05
0.000513801
1.92672e-05
0.000205875
1.82354e-06
3.91539e-06
0.000108723
0.000122445
0.0185766
0.000603705
0.000357035
0.00035842
3.40086e-06
4.46446e-05
0.00017999
0.0026558
3.07418e-05
6.41703e-17
2.98891e-06
0.00116555
1.48532e-05
0.0122798
0.000292507
8.11545e-08
0.000161569
0.000126764
0.0841269
0.000380077
6.49174e-06
3.27119e-17
5.22373e-18
0.000208613
0.000597627
0.0265176
0.00869779
1.92685e-15
3.06196e-05
0.0376797
0.0400129
8.39698e-18
0.0179212
0.00590428
0.000396482
0.000129689
1.06467e-16
2.95122e-17
0.000316695
1.45195e-17
0.00440556
1.49643e-05
0.000163053
2.61865e-05
5.67576e-05
0.00603004
7.72244e-05
3.99617e-05
3.91641e-05
2.77986e-17
0.000196179
7.23129e-18
1.04808e-16
1.00239
0.000185493
0.0193825
0.00305802
1.09093e-05
1.95787e-16
0.0156167
0.00188732
1.99142e-05
1.62426e-05
0.00329986
7.61092e-16
5.39981e-06
0.000397363
1.6961e-05
0.00222742
0.000555821
0.000487135
0.000532904
5.97719e-06
7.06359e-05
0.0198895
0.00283331
0.000592903
8.6653e-17
0.00355261
9.61396e-05
9.45144e-05
0.000245072
0.00926375
0.0126309
0.00412178
0.000754944
0.000178389
0.00252418
0.00191574
0.00204411
0.000469661
0.00022889
1.29814e-17
0.00367246
0.00168907
0.000126783
0.000108412
0.000751497
0.00158628
2.09124e-16
2.70829e-16
0.022653
1.10772e-05
0.000903847
0.000297516
0.0033084
0.00982936
3.29791e-07
8.86648e-05
0.00546536
0.000153708
0.000125174
7.27734e-05
4.35745e-06
1.274e-05
1.75529e-05
0.00362483
0.0128657
1.54406e-18
0.00606713
0.00161479
0.152195
0.000167634
0.00138449
3.06798e-05
0.00907046
1.14449e-05
8.58106e-05
2.58418e-05
0.0199319
1.19816e-05
0.000514069
0.000696603
1.95799e-05
0.0067931
6.4464e-05
0.00219416
0.0168393
0.00695514
5.4867e-05
3.79643e-05
0.0122203
0.000135656
4.42669e-05
0.00189906
0.000772651
0.0018881
2.11765e-05
0.000111892
0.00464524
0.00325651
6.3266e-05
2.81177e-05
0.000258073
0.00192152
2.56601e-17
7.59472e-05
2.50342e-06
0.000922916
0.0149714
0.00284607
0.00155058
0.00339104
0.000487135
0.0313623
0.00131977
0.00741586
0.000251453
1.04306e-05
0.000237309
2.75985e-05
0.000447693
5.88766e-06
6.11524e-17
0.00119828
0.000153336
0.0371876
0.00076537
0.00789353
5.39941e-05
0.00740098
0.000336426
0.0148105
0.0174705
0.00140597
0.00978121
1.0642e-05
0.000372805
2.85079e-06
0.00059893
0.000219015
0.000349388
6.19249e-05
0.000307605
9.82833e-05
0.00264321
2.10429e-05
5.58076e-05
5.96053e-05
5.00418e-16
0.0265332
0.000162124
1.60078e-05
3.38947e-05
3.10719e-05
0.000138734
0.00540235
8.59916e-05
3.3499e-07
3.43649e-05
0.00159165
0.00312297
0.000253141
0.0156949
0.0133285
1.38069e-17
0.000207319
0.00016255
9.99454e-05
0.000291797
0.000471573
0.000446864
2.37526e-05
0.000931527
0.000450283
0.00534009
6.3695e-16
0.00117663
0.000533773
0.00837793
0.00526316
0.00871491
2.06739e-05
0.0535115
0.0218789
0.0973407
2.04949e-05
0.000145224
3.69207e-05
0.000280454
0.00676527
0.0102683
0.0300585
0.0247011
9.24408e-06
1.57022e-05
0.00780814
0.000406017
0.0172849
0.301624
0.0172844
0.00034416
0.000448356
0.0161624
0.00159909
0.000242737
0.000727931
0.16232
1.38066
6.94187e-05
9.96379e-07
6.37323e-05
0.00345351
0.00105017
0.00185549
0.0026995
0.00196792
0.00211971
0.000880366
2.87405e-06
3.10767e-05
0.000207586
1.03143e-07
5.88595e-05
0.000442766
2.80869e-05
9.20702e-07
0.00320827
0.0109099
0.00403233
2.52258e-07
1.07622e-05
3.23099e-05
1.94844e-07
6.57599e-05
3.00542e-05
0.00877091
6.44688e-17
0.0313991
0.000107785
0.0486745
0.015003
0.000245808
0.00215131
9.99144e-06
0.00237811
0.000136709
0.000872609
0.0838372
1.10195e-05
2.33067e-18
5.82917e-10
4.35233e-05