/*--------------------------------*- C++ -*----------------------------------*\
  =========                 |
  \\      /  F ield         | OpenFOAM: The Open Source CFD Toolbox
   \\    /   O peration     | Website:  https://openfoam.org
    \\  /    A nd           | Version:  10
     \\/     M anipulation  |
\*---------------------------------------------------------------------------*/
FoamFile
{
    format      ascii;
    class       volScalarField;
    location    "28";
    object      SgRate;
}
// * * * * * * * * * * * * * * * * * * * * * * * * * * * * * * * * * * * * * //

dimensions      [1 -1 -3 -1 0 0 0];

internalField   nonuniform List<scalar> 
111485
(
1.53999e-09
0.00902489
0.0210342
5.52474e-12
0.0449905
2.50713e-09
0.0416397
0.00587503
0.0184112
0.00113
0.0418357
0.00915124
0.0042453
0.0060101
0.00593502
0.0316537
0.00519102
1.99767
0.0100398
2.51977e-08
0.00069277
2.32677e-10
0.0233883
0.0355169
0.00847342
2.14788e-09
0.0401163
0.00174366
0.0159448
0.000902605
0.0434758
0.0179675
6.31656e-09
2.5552e-08
0.00968246
1.80201e-06
0.0129698
0.00392475
4.2685e-05
0.0215829
0.000722329
0.0719996
0.0144254
0.000999626
3.69057e-05
3.90997e-08
0.0328093
0.000720115
0.047572
1.4545e-08
2.89522e-08
3.5755e-07
1.03117e-08
0.0444736
3.48068e-08
0.0431593
0.00355038
4.18562e-10
2.79079e-05
0.00449048
0.0149303
5.81828e-09
0.00402424
0.0885207
1.49964e-07
0.00359573
0.300936
0.0972653
0.000924834
0.00512838
7.55926e-06
0.00548671
2.13662e-07
0.00245056
5.78033e-09
0.00062096
1.11177e-09
0.0425211
1.98297e-09
4.96724e-07
0.00501893
0.0408293
9.25931e-10
2.18186e-09
0.00812012
0.00442672
0.00249505
0.0225414
5.08755e-05
0.00637367
0.000869169
0.0411125
0.0103354
0.00196207
0.0559703
4.24423e-10
0.000505026
0.00145326
2.91203e-05
0.00148779
5.061e-10
0.0195217
3.54574e-08
0.0214645
0.00483196
2.66075e-07
1.91665e-10
0.00744996
0.00318531
1.18891e-05
0.00151885
0.00501936
0.00313592
0.00264398
5.61561e-09
0.000114677
1.55998e-09
1.64877e-07
0.0113623
1.56643e-10
1.14491e-09
3.36126e-06
0.00124904
4.51687e-08
0.00233768
0.000533316
1.97836e-06
0.0013282
1.76001e-11
0.000178403
0.000990771
0.0280719
0.000884791
3.17093e-06
1.47634e-06
0.0491736
1.98582e-10
0.04105
0.0225746
0.00255645
0.000173272
0.00187116
0.0236606
0.00310732
0.00379483
0.00594469
2.29501e-10
8.28151e-10
2.2217e-09
0.0262475
0.00183084
0.000530775
0.00197859
0.0043131
1.66042e-06
0.010621
0.0154785
0.00942743
1.63407e-05
1.09077e-07
6.73065e-11
0.0526911
0.0252347
6.28773e-06
1.57668e-06
0.00319349
0.0036889
0.000451772
3.74467e-05
6.79178e-05
4.09157e-11
2.10604e-09
0.00362193
2.67048e-11
0.00371042
0.00126745
8.2255e-09
1.6466e-07
4.09774e-09
1.02743e-07
1.48109e-07
5.00292e-09
0.00134106
0.0067155
0.0277187
0.000580792
0.00641821
0.00334935
0.000101396
5.52495e-09
0.00372126
9.04831e-08
1.31596e-07
0.00582832
0.011078
0.0228103
0.0104194
0.000209836
2.00855e-08
0.00604615
0.000573069
7.31186e-05
0.0111887
0.00218534
3.05502e-08
0.0031688
0.0275331
2.01572e-07
0.000230464
0.00653275
0.00227993
0.000306527
1.41563e-07
1.1794e-10
0.00686293
5.06622e-06
0.123854
3.02359e-10
0.00601207
0.0181496
0.121877
1.35315e-09
0.00266531
0.0120111
5.02968e-06
1.16376e-10
2.21961e-11
0.16669
7.42003e-05
4.09733e-07
1.72662e-06
0.00860267
0.00873702
0.0183988
6.51715e-07
2.34345e-07
0.00285514
1.38618e-09
0.00272703
0.00792405
0.0146347
0.0102075
0.0090641
7.49332e-08
3.33337e-05
0.000571152
1.44422e-07
1.48064e-09
0.0306682
0.0236491
3.56979e-07
0.00177413
0.00877394
2.52881e-11
3.63823e-06
0.000153214
5.71074e-09
1.21079e-06
0.00184388
1.55902e-09
0.0155512
0.0117473
0.00325452
6.55738e-11
0.0099906
1.54122e-11
9.6935e-10
1.2452e-08
0.00297158
0.0225668
0.00553585
0.00465789
0.0400595
0.0109689
0.00151325
0.000595872
0.0279984
0.0105783
9.40272e-09
1.83175e-09
0.00203558
0.0224167
0.021516
0.0138327
2.68304e-11
0.0101777
0.00661884
0.00275806
1.23841e-05
4.97671e-06
0.0122199
0.00211558
0.00186497
1.64551e-10
0.000779496
3.28799e-10
6.86218e-06
4.94418e-06
0.266812
0.0682647
0.0198902
6.05121e-09
0.00144089
0.00831855
0.00195194
2.26647e-10
2.2026e-09
0.000461978
0.000389122
0.0310368
0.00334184
0.0154494
0.0182859
4.58094e-07
7.73325e-10
3.91471e-09
0.00352068
7.43285e-05
0.00573503
0.186922
1.44336e-05
1.75764e-10
1.01811e-09
4.48786e-10
1.49572e-06
0.0573173
0.0123228
5.71652e-08
0.00485922
1.3221e-06
0.00112862
0.0672284
0.00537225
0.0107191
0.00853221
0.00079575
9.29136e-07
1.07583e-08
0.00870451
0.0138864
0.00468497
2.70442e-09
0.00264787
0.000229402
0.00177983
0.0073656
6.82232e-05
0.0284782
0.000652054
0.0370484
0.0031632
0.00783884
0.0230837
0.0147344
1.7563e-07
6.85729e-09
9.1278e-09
1.97313e-08
0.032113
0.0149682
0.0371028
0.0669921
0.000882309
0.0201535
4.20521e-10
8.77317e-09
0.0161317
0.000880203
0.0398395
0.000856222
0.000824261
0.0237416
2.16558e-10
0.00826425
0.000335767
3.4583e-11
0.00112171
0.0151323
2.83671e-07
0.00791827
0.0106787
0.00745819
0.000447797
0.00140823
0.00451659
9.09103e-07
1.22976e-08
0.0013784
5.51639e-09
0.00500194
0.111932
0.000503791
1.99467e-09
0.0256185
0.00284771
0.00188202
0.027837
7.80722e-09
0.0390043
0.0197537
1.31814e-10
0.000696729
0.00281971
1.68478e-09
0.0005968
0.00849686
0.0048743
1.66373e-08
3.29289e-10
1.31618e-05
3.45881e-10
0.0105642
6.68806e-08
1.82022e-12
0.0177084
3.3866e-06
0.0189696
0.0266812
3.91089e-11
1.44025e-06
0.00108611
1.77313e-06
0.000108368
0.0108323
0.121705
0.905635
9.52587e-07
0.00656201
0.000238521
3.82106e-09
0.0350417
0.0330978
1.94485e-09
2.43471e-05
0.000112469
1.38986e-06
0.0256974
0.0268881
0.0136534
3.65295e-09
0.00738819
0.0206277
0.0149895
8.50475e-05
1.68288e-06
2.47799e-05
1.2301e-09
0.00451389
0.024742
4.12721e-10
0.00957908
7.33645e-05
2.00343e-06
6.19391e-11
4.7359e-07
4.36479e-10
0.00929724
0.0116409
0.00711114
0.00244446
0.00339197
4.64713e-09
0.00228586
1.35127e-08
0.0356375
2.93083e-09
1.79444e-08
0.000977568
0.0317924
1.78626e-09
2.06732e-09
7.62196e-06
1.54121e-09
3.14535e-08
0.00087523
6.74829e-11
1.06085e-06
1.66734e-09
0.00138479
8.47874e-09
4.47078e-08
3.12657e-09
0.00816205
8.87437e-09
0.0043619
0.00166315
0.00678957
4.74731e-10
0.000624585
4.68536e-08
6.06966e-11
0.00957656
0.00456152
0.0294006
0.0222319
5.65639e-07
0.0018703
0.072664
0.00936893
0.00102026
0.00873014
1.05622e-09
0.015379
1.93375e-06
0.00428082
0.000986904
0.0691117
2.00306e-06
0.0175583
0.000323299
1.3069e-05
0.00136538
0.00200459
9.67056e-09
0.075928
0.0443159
6.0323e-08
2.31026e-08
4.04348e-07
2.10495e-11
3.06642e-05
0.0546001
6.52698e-09
4.7898e-09
0.00288281
5.00124e-10
0.0304119
4.12304e-09
0.000351176
1.26828e-09
0.00263869
0.0019892
0.00112126
0.00950918
0.00108549
0.00704505
5.85364e-09
4.16242e-09
0.0162767
3.85547e-09
3.84135e-05
2.9579e-07
0.001476
0.000795451
0.0661511
9.21652e-11
8.23402e-07
0.0121856
0.00387587
0.00150473
0.00430643
0.00590938
0.0208786
1.87734e-08
0.0207356
0.00708251
1.48926e-10
0.00225836
0.0314783
0.0125495
3.42083e-08
0.00552013
0.00543693
0.00128652
0.00143181
6.15012e-06
0.0137961
0.000984785
0.000167252
0.0267835
0.0153616
0.00109552
1.31441e-06
6.5501e-05
0.621492
5.90661e-09
0.000419669
8.13619e-08
6.15604e-07
0.00672725
0.00364574
4.8903e-05
1.76213e-05
3.03999e-06
0.0185163
0.0099487
6.24055e-09
3.53811e-06
0.0020369
1.45175e-09
5.37303e-11
9.08914e-09
7.73984e-10
0.0152646
3.00969e-11
0.000651099
0.00987893
0.00241084
0.00181011
0.0149947
1.0178e-06
0.00850666
0.000691473
6.9166e-10
0.057153
3.30033e-09
9.94713e-09
8.02791e-07
0.00261395
0.00208426
0.0328439
0.00639431
6.4373e-08
0.0726705
0.00536215
0.0261392
0.0235701
0.000931088
0.00354585
0.000696085
0.0569142
0.0415906
1.31934e-07
0.000308146
0.0361998
0.00706536
0.000630022
0.0244474
0.0237634
2.1524e-08
0.0104629
1.6445e-05
5.47496e-07
0.0319687
0.000299622
1.2316e-05
0.0110451
0.0387543
0.00158859
0.0185301
0.0168439
0.00702006
6.90278e-08
0.00923586
0.000400814
3.15033e-06
0.0144689
0.0149082
0.0344808
9.51061e-09
0.00188524
9.93211e-08
2.14364e-09
0.00129589
6.31956e-10
0.00243026
1.01252e-06
0.000238159
1.31256e-08
0.000492524
5.12363e-05
0.0396732
3.23984e-10
0.0366139
5.99998e-09
4.14062e-10
2.01205e-08
0.0446381
0.00049873
5.66652e-07
0.000762504
2.27413e-09
4.15879e-10
0.23898
0.0677816
1.4897e-06
0.0017707
7.07408e-06
6.48504e-10
0.0349114
0.00649587
0.0173457
9.18532e-12
3.68112e-09
0.00039272
0.00106519
2.27573e-06
9.10274e-09
0.00104532
0.00704302
1.12873e-09
4.47722e-09
0.000759274
0.0385033
0.00161439
1.86954e-11
4.12141
0.143018
0.0141011
2.53218e-10
2.55968e-09
0.0567779
0.000303953
7.52838e-07
1.71724e-05
0.170024
0.00291647
0.00907649
0.00105399
0.0578025
0.00152094
1.45573e-09
2.45539e-08
4.94843e-09
3.77367e-09
1.14109e-09
2.62302e-11
0.0193359
1.36197e-09
8.44514e-09
1.92146e-08
0.0119275
0.0236067
4.734e-09
1.47969e-08
0.105657
0.0113369
0.00421865
8.78002e-09
7.2661e-10
0.0309198
2.14591e-11
0.00227586
0.00219961
0.00346663
2.93738e-09
8.4484e-11
2.24311e-10
4.53214e-11
0.0158571
2.0738e-09
1.18409e-08
0.000816815
2.21823e-10
0.0212386
0.00140709
6.92316e-08
0.0355109
0.59948
0.00235708
0.0338769
0.000202367
0.048
0.00376544
1.47832e-06
0.0219979
0.0766339
0.00188429
3.45517e-07
0.00169265
0.517884
0.00403879
3.91504e-09
0.00291615
0.00313642
0.00143593
1.36436e-06
7.68263e-11
4.74477e-13
0.0127434
6.73603e-07
0.00509816
6.95734e-08
0.0014605
0.00137141
0.0127294
0.000552218
2.85853e-09
0.000558338
2.01096e-07
0.019788
2.09097e-09
8.91142e-07
4.49578e-05
3.38361e-08
8.19119e-09
0.000759982
3.63153e-11
0.00263754
0.00106067
6.46647e-10
0.00125278
7.65178e-07
0.000617688
8.85924e-06
5.53753e-09
3.78496e-06
0.00179363
0.000852493
0.00333653
3.49271e-05
0.00285768
8.69796e-05
0.0044779
2.11224e-08
1.00783e-05
0.0178474
0.00323375
3.18736e-09
0.00418719
0.00253536
2.97994e-06
0.00275882
0.000300231
2.27935e-05
0.0252952
0.00321887
0.00215972
0.00227476
0.000702105
0.000765769
3.69032e-09
0.00397799
0.00103222
9.86699e-10
0.00339641
0.0574794
0.026067
6.34378e-09
0.0016708
8.16257e-10
0.00872266
0.0168799
7.82162e-09
0.00473914
0.00645367
2.43744e-05
0.00445022
1.87949e-08
0.0471515
2.03816e-05
0.00186547
6.06617e-05
1.91637e-05
7.88535e-08
0.000762801
0.00834175
6.00764e-10
9.58687e-05
0.000334184
2.22288e-05
8.4293e-06
1.60762e-05
4.30108e-06
1.06086e-10
1.28382e-06
0.0216691
1.38047e-08
0.00118451
0.0084894
4.34515e-09
5.60848e-09
5.78492e-05
6.28964e-05
4.22461e-11
1.45625e-05
9.88468e-09
2.2867e-10
3.46008e-10
7.69981e-09
1.06314e-07
8.23809e-09
0.000332128
0.000856379
5.60321e-11
1.36607e-08
8.38025e-05
0.00212684
0.00204544
0.00909644
0.000544609
6.94843e-11
0.000235294
5.35967e-10
8.54288e-10
1.07783e-05
0.0217897
0.0413155
2.00253e-09
3.26861e-09
0.000593823
8.51725e-09
0.000388429
4.6488e-09
0.00846144
1.35554e-10
3.86579e-05
0.0269384
4.29335e-11
1.79257e-08
9.76655e-09
4.259e-05
1.62289e-08
3.57612e-09
3.52938e-08
9.08774e-05
0.000907105
0.00530766
1.1544e-05
2.04102e-05
4.01343e-09
6.92136e-05
0.00260305
0.0434713
4.97379e-08
9.84748e-06
0.00721649
4.6127e-09
1.56776e-07
2.78907e-06
4.13831e-09
0.00794383
0.00174623
0.00395868
0.00125674
9.61229e-11
0.022268
0.00101243
2.12276e-06
1.36078e-06
2.91664e-10
0.0252656
2.85688e-09
1.95551e-08
3.0806e-06
0.0482637
1.77842e-08
0.00300241
4.42139e-07
0.00112568
3.94064e-07
9.24843e-11
6.24093e-08
8.12586e-11
0.0026814
0.000684611
0.339435
3.63675e-09
8.61365e-09
0.00215718
8.89471e-11
7.79506e-07
9.30164e-09
0.0422408
2.09267e-05
0.0286784
4.79785e-09
3.33873e-05
3.18389e-05
1.31745e-06
7.22444e-05
8.85163e-10
0.00182654
0.0276329
0.0220684
0.00164584
0.00032842
8.95054e-09
1.28594e-11
1.30108e-09
0.0032984
0.00125597
0.00544147
8.16997e-12
0.176037
6.44606e-10
0.0447392
0.00354813
1.52373e-08
2.53265e-09
4.84852e-08
1.55982e-08
0.0313282
4.40948e-08
2.09753e-06
0.0181806
0.00535845
1.29395e-06
5.2761e-07
1.33856e-06
9.26191e-07
7.88149e-09
1.15341e-11
0.0203923
0.000520276
4.74642e-09
3.7559e-09
1.09493e-05
6.84319e-09
0.0013279
0.00749877
2.72327e-08
0.00271281
1.23225e-11
0.00176668
3.78289e-09
0.00673161
3.90039e-10
0.00214951
0.000107494
0.000879471
0.0143937
0.0274109
1.88543e-05
4.59833e-08
0.000451373
4.83385e-08
0.00434264
1.29047e-08
3.82989e-08
1.52629e-06
5.64422e-08
0.00118882
4.63503e-09
0.00569654
0.00628081
9.37018e-11
7.33814e-06
4.58215e-09
0.000536255
3.17281e-05
2.35023e-09
0.0184631
0.000214311
9.75622e-09
0.0202396
0.00631435
0.00330634
0.0134715
1.31414e-10
0.000778553
1.59051e-07
1.22194e-08
0.0360158
8.1008e-08
0.103844
1.4156e-09
0.00292141
0.000729059
5.04803e-11
0.000672673
8.18959e-09
1.36114e-10
0.00227139
1.59452e-05
0.00591878
4.40422e-10
3.40453e-08
8.41573e-10
0.00069658
8.68827e-07
0.000643251
1.06547e-07
1.50804e-05
1.25447e-06
3.25211e-05
5.23857e-07
5.39486e-08
2.20964e-08
0.0177145
0.000278695
0.0176842
0.034284
0.000820171
1.48755e-05
0.000801461
4.27071e-11
0.0105715
1.7957e-09
4.49719e-06
0.000256981
0.0080395
0.000241367
8.41833e-06
0.00242738
1.54297e-11
0.000116556
0.000144166
9.51521e-05
0.00123677
0.0134965
1.55882e-05
3.69336e-08
0.0311678
7.1326e-09
1.18537e-09
3.40388e-05
0.0744862
1.65642e-05
1.51769e-08
0.000792904
1.19359e-05
1.6043e-08
1.97313e-08
2.13017e-05
5.88523e-08
0.00104032
0.0462903
0.000144019
0.000109794
0.0232243
0.00719612
5.19901e-10
2.90631e-09
4.94242e-06
0.00419958
0.000582786
0.00102662
0.0112408
5.76426e-09
5.69133e-06
0.000704193
4.61827e-07
2.11116e-05
2.52267
0.000739191
0.00233503
0.000859548
0.0153286
1.58332e-10
3.5919e-05
3.18524e-08
3.45487e-09
4.58644e-09
5.47798e-09
0.00336569
1.29975e-09
3.29574e-09
1.56116e-06
2.33753e-09
2.47233e-10
1.71502e-08
0.009959
0.00100099
0.0110208
0.00233649
0.00129167
0.0063763
1.99527e-09
0.00373535
4.83542e-06
0.0100378
0.0138271
1.3628e-09
0.000106359
0.00933873
0.00465039
3.76994e-11
2.39839e-05
0.0169699
0.0047114
2.89605e-07
0.0245365
2.77329e-08
5.83669e-09
0.00131167
2.59063e-09
0.00730634
4.75234e-09
9.23062e-09
0.0076649
8.99606e-06
0.00265207
1.98463e-08
6.55051e-06
0.000676323
9.8987e-09
0.000149899
2.20585e-08
0.00689091
3.77041e-09
2.32156e-09
0.00456441
0.000743948
0.000109336
6.01135e-09
6.76284e-10
0.00530679
0.00383603
0.00490117
0.0174644
0.217525
0.0197306
5.35138e-10
0.000602028
0.00237155
0.00669599
0.0351148
0.0133409
3.16081e-09
0.0144783
3.66761e-10
0.000756226
0.00763225
0.00960259
2.90392e-10
0.012421
2.49543e-08
0.00280785
0.00813536
7.50844e-08
2.25204e-11
1.21626e-10
0.00232365
0.00136758
2.57939e-10
0.00354613
0.0198676
5.81205e-06
0.00528794
0.000821964
3.21226e-08
5.592e-05
0.000656431
7.66377e-09
0.00924611
4.93703e-08
0.00244195
3.46609e-09
6.45482e-09
0.011119
1.36484e-09
4.8311e-05
0.00296719
1.24138e-09
5.76603e-09
0.00365403
9.50467e-06
0.059392
2.49791e-09
0.285333
3.95385e-08
6.66342e-06
3.70864e-06
0.00642415
1.56873e-06
0.00135971
0.00501546
9.50992e-07
0.00017587
0.00115443
1.53201e-08
9.32876e-10
7.51671e-06
0.00077495
0.000707508
4.90293e-09
0.035982
0.000942063
4.33548e-09
0.00469615
1.18188e-09
1.08739e-08
1.21441e-06
0.00369614
0.0150571
0.000971274
8.75489e-09
2.45298e-09
7.57992e-11
1.11165e-08
1.06737e-08
1.74655e-08
2.98725e-09
1.34445e-10
3.90704e-09
1.92547e-10
5.39337e-09
0.00106601
0.000635181
2.11641e-10
2.61741e-07
4.08691e-09
8.40804e-09
2.1e-09
0.000622969
0.0015455
0.0183607
4.36395e-09
1.38153e-09
1.65515e-08
0.00618493
8.82731e-08
5.81925e-09
0.194728
4.99332e-09
5.40454e-08
0.0219268
3.2002e-06
9.74677e-08
0.00438935
0.0232615
4.87647e-09
0.00127797
0.00217178
6.11528e-09
0.0111034
0.0373787
0.0165461
0.00287875
0.00973561
7.39166e-08
3.46481e-09
0.00858186
0.0103562
0.00268838
0.00106923
0.00561441
0.00135223
0.0186415
0.00909246
0.000606007
0.013598
0.024154
0.00842401
8.03865e-08
0.0265607
0.00756674
0.00181913
0.00116438
1.50169e-10
7.9366e-09
5.6114e-10
1.0197e-11
2.75775e-09
0.00879425
0.0122274
2.37432e-09
3.54558e-11
8.11165e-09
3.10585e-07
6.4633e-09
2.16553e-10
1.47672e-08
4.15397e-08
0.00409654
8.86457e-05
0.0194989
0.00442813
2.2458e-09
2.04827e-07
0.033172
2.92557e-06
4.04276e-10
1.04729e-08
0.0109691
9.41263e-09
2.9085e-10
3.79268e-06
0.0110104
0.0122675
0.0293515
0.027024
2.99144e-08
0.00947561
0.000261111
6.91407e-06
2.67248e-10
0.0101905
1.05564e-07
3.58605e-09
0.0276728
0.993872
0.00361819
1.36127e-07
3.03673e-08
0.0160858
0.0222006
0.00298554
0.00572736
0.00203442
3.95941e-09
1.3603e-05
6.8819e-06
0.00113131
1.43061e-07
0.0215354
4.87738e-09
0.0019604
0.018676
0.0155237
0.0119835
7.15802e-08
0.00515828
9.61977e-10
1.66045e-07
4.16818e-10
2.17776e-10
0.00278077
0.709896
5.47502e-09
3.60279e-10
1.24555e-05
0.0226946
0.000472871
0.00618339
0.0311625
0.00522881
0.0196345
3.6627e-07
9.82547e-08
3.74408e-06
0.0306331
0.00511979
6.34278e-05
3.10899e-08
3.11074e-10
2.68466e-06
0.0187104
0.00269026
8.91863e-10
0.0068746
0.0450585
0.00816956
0.00544362
6.1611e-09
3.74383e-06
0.00610995
0.0215424
7.9425e-11
0.000239441
0.0120328
0.00085879
0.0124822
0.00413149
0.00745241
4.71214e-06
0.00327336
0.0186449
0.0370857
1.23712e-06
0.0229444
2.26292e-06
0.0191688
0.000141903
3.16401e-13
0.00293619
0.00594478
0.000315653
0.0106559
1.15278e-05
0.000207056
2.58723e-05
0.0245922
0.00302464
8.99926e-07
0.0391625
0.000930963
6.38237e-09
4.24214e-10
0.00186832
1.44598e-05
0.000896858
1.0133
0.0325032
0.00777854
9.18036e-06
0.0370846
4.98037e-08
5.96493e-08
0.0038332
7.82037e-07
0.0023329
0.00615686
0.00171418
0.00358793
8.50936e-09
0.0002388
0.102039
5.49385e-10
0.0595947
0.00627746
1.82475e-07
0.00219351
0.000159086
2.81412e-09
9.77607e-06
0.00252455
1.34513e-08
4.15882e-10
1.02641e-10
0.0081218
0.0088797
0.0132444
0.00100116
0.00560523
0.0204793
1.46383e-07
0.00596638
0.00953171
0.0252333
0.00130303
0.00195957
0.00661034
0.00809844
0.00704027
0.00468999
0.0366753
0.146463
0.00960045
6.27667e-10
0.00433892
0.0510165
5.88953e-10
0.000335777
1.01695e-08
7.32284e-09
1.44785e-09
3.73061e-09
1.20362e-09
0.00508402
1.2292e-09
0.00168185
0.00144621
4.29681e-10
0.00408724
1.26321e-07
0.013816
2.05172e-09
1.78277e-05
1.03796e-07
0.0206387
0.000112755
1.36936e-06
0.000427477
0.0286876
0.0165592
0.0035621
0.0164421
5.24387e-05
0.00781141
0.0494958
0.00271912
1.9655e-08
0.00118156
0.000360596
0.00163652
0.0113068
0.000753863
2.22853e-08
1.0589e-06
8.80105e-09
0.00404537
0.000764441
5.52309e-05
0.00606989
0.000549774
0.00027351
2.68688e-10
0.00114893
7.86955e-10
0.00736505
0.0199727
0.00153432
8.95608e-06
0.00158955
0.00611209
0.00193022
0.000731083
0.0056618
0.00529055
0.00231604
4.55216e-07
0.00131566
4.52959e-09
0.013803
0.0101881
2.19688e-08
2.99826e-10
4.26261e-06
0.00703009
0.0174304
7.0989e-09
0.00189835
0.000831507
4.31566e-06
0.00524903
0.0740843
6.51453e-11
3.74969e-12
0.00343248
3.10872e-10
8.56171e-05
0.0110816
3.94157e-07
0.00939993
0.0313214
0.0179602
6.46406e-10
0.000661213
1.53435e-06
5.78775e-05
0.0454458
2.08274e-09
1.99045e-08
0.0105328
9.9363e-06
2.88991e-08
0.00292589
0.00102214
3.99405e-09
6.22864e-09
4.0961e-06
4.36286e-05
0.00125559
0.00305557
0.0201965
0.0136015
3.2406e-10
6.08848e-06
0.000421802
0.000796124
2.88467e-08
0.000886366
0.00154927
2.17666e-06
1.37011e-07
3.26284e-07
8.07159e-10
2.75066e-07
4.65966e-07
6.4094e-06
3.26816e-07
0.00041014
4.50844e-07
9.31942e-05
6.2926e-06
7.15558e-05
2.7471e-06
1.85253e-09
0.0220231
0.00805701
1.10738e-07
0.0867852
4.17866e-06
3.59335e-06
2.84634e-07
0.00104669
4.52248e-06
0.002191
1.17585e-05
0.000977846
3.84351e-07
6.55099e-10
0.000635627
8.11999e-06
0.00123981
4.73997e-08
0.0368461
7.99044e-07
0.0338884
1.41707e-06
1.51299e-08
7.92347e-06
0.0266366
0.00844245
4.51531e-09
0.000398871
2.35251e-07
0.00104663
3.51484e-05
0.0078061
0.000647165
2.95637e-08
0.0189984
0.000767021
0.00481117
0.000562507
0.00131328
1.84992e-11
0.00522099
0.00400387
0.0440567
1.04487e-08
2.2836e-05
2.02487e-08
0.000799704
4.04935e-09
2.71879e-10
0.00237851
0.00156297
0.00231528
0.279312
0.00073695
0.028695
0.0329444
0.0175534
0.00510703
0.000719259
0.00537478
0.00326866
0.00476435
1.09115e-05
0.00962213
0.000698384
0.00172351
0.000893128
0.0303532
8.08573e-07
0.00241162
1.39337e-08
0.016625
3.28162e-08
1.22132e-08
0.00143094
8.36006e-08
0.00695547
5.5674e-10
1.18938e-08
0.00134084
1.64573e-10
1.63488e-09
0.000591463
8.36507e-09
0.00060412
6.22767e-07
0.00110273
0.0187839
0.0105201
0.00722104
0.00808868
0.000745019
0.554319
9.2949e-12
0.0666651
0.000523479
0.0185438
0.0180505
0.00183116
0.0534067
1.32507e-07
1.49778e-07
1.9851e-08
0.00429459
3.55876e-08
2.2887e-08
0.0166692
1.2388e-08
1.0972e-09
0.00403905
5.94717e-08
0.0173785
1.741e-06
6.35046e-07
7.87346e-07
1.00292e-06
0.00143382
0.00574764
1.12829e-10
0.00782092
0.000243797
3.82583e-07
0.0941775
5.62817e-09
0.0153376
0.0170136
0.0021125
6.25696e-09
0.0154892
0.00824528
0.000598982
0.0041048
0.0111018
4.78165e-09
3.58765e-09
3.38169e-05
7.00215e-09
1.48806e-09
1.57793e-10
0.0182165
0.0413417
0.00401045
0.00175693
1.28829e-06
0.0416473
0.0429686
0.00365664
0.00300317
0.00796257
0.0200904
0.00204014
2.21213e-09
1.68246e-09
5.79991e-10
0.00504861
4.88507e-09
0.0299312
9.24923e-06
0.000629408
3.47287e-05
0.00235444
0.0110565
9.65889e-10
0.00110659
0.0019777
0.000278775
3.35477e-08
2.09795e-08
1.25706e-09
0.00842167
0.000257576
0.000114831
0.000635799
0.00714712
0.0858134
1.57213e-08
6.42141e-09
1.05875e-08
0.00205139
0.0188385
0.00437354
0.0310035
0.00189671
0.0021207
5.58038e-08
3.20333e-10
3.20913e-06
9.57466e-09
0.0124087
0.0190662
5.87955e-09
2.78043e-08
3.54732e-07
0.00114294
0.000558916
3.22776e-07
0.0109397
0.00167384
0.00108673
0.292039
0.000784308
1.57483e-05
0.00203357
0.00368021
0.000348768
1.72268e-07
0.00368049
1.71785e-09
0.0115945
3.16454e-05
0.0218879
1.72844e-07
6.48546e-06
3.37868e-10
0.000430888
2.54648e-09
4.93873e-07
0.177553
2.59813e-09
0.00441148
0.00105749
9.00836e-09
1.00939e-08
0.00146247
1.22246e-08
2.79651e-09
0.0141881
5.03144e-05
8.78345e-10
0.000432115
0.000820482
0.0139966
7.03479e-12
1.38305e-10
0.000246655
0.00196828
0.00224656
5.21793e-09
1.00067e-08
2.49101e-06
0.00295342
0.00140698
0.0103607
0.00933827
1.2202e-10
0.00278191
0.00813641
0.00129544
0.000939761
2.85961e-08
9.86668e-10
0.000426421
7.44011e-11
0.0282081
0.0071661
0.00426706
1.72485e-08
6.49579e-09
1.80325e-10
6.3945e-10
3.69201e-07
0.00231414
0.00421856
0.00148253
6.75088e-08
5.08375e-12
0.00104275
0.00397857
0.0275283
0.094739
6.38082e-09
2.2102e-05
4.05536e-06
3.62787e-09
5.85149e-10
0.00326522
0.00675991
2.39255e-09
1.75671e-07
0.00243756
0.00111284
0.00428211
0.00114619
2.00864
2.25869e-10
1.18183e-08
0.0120211
0.00036385
5.2883e-07
0.634546
0.0103261
0.00672623
2.05563e-09
9.66579e-09
2.76933e-07
0.00108574
0.00706491
0.00322496
7.82739e-10
0.0217065
0.0159783
0.838168
5.92613e-10
3.29305e-11
1.09988e-08
1.17097e-09
0.00536662
6.05823e-06
6.60541e-09
0.000690475
0.0122131
0.00386682
0.00477897
4.62867e-08
3.04645e-08
0.0256168
2.01084e-07
2.35998e-10
1.01442e-09
8.51394e-10
0.0226864
1.50667e-07
0.000963345
0.000937461
0.0216507
0.0126287
1.06332e-10
5.39125e-11
4.36673e-10
0.0133807
3.69431e-06
7.73261e-09
3.04788e-10
1.04449e-10
0.000407931
0.00217507
0.00864375
0.000756395
0.00205632
0.00633524
0.00392895
1.44541e-08
1.79414e-11
4.84021e-09
0.00100054
1.5654e-11
0.0213753
8.99807e-10
0.0155302
7.73679e-07
0.00115462
2.42065e-06
0.00169984
6.64517e-10
4.67241e-10
0.0164927
0.261361
6.08494e-07
0.00259698
1.62874e-08
0.00028732
1.58263e-06
5.14246e-08
9.24178e-08
5.90584e-06
6.28201e-09
0.000370712
0.000728451
0.0335063
6.96079e-09
1.45721e-06
1.46514e-08
0.000635792
0.00320915
0.000111385
7.66121e-10
0.00383504
5.82854e-09
0.00351728
0.0195599
0.000890938
4.85221e-11
2.02539e-05
0.000306818
3.89669e-06
0.00491202
2.61808e-06
0.00119571
1.17757e-07
2.6776e-11
3.53018e-06
0.004293
0.000170166
2.07672e-08
1.71537e-07
2.10627e-06
0.431296
1.93277e-10
4.15649e-10
1.62436e-09
1.9155e-11
2.18034e-09
0.000480792
0.000129657
0.00075526
5.37257e-05
3.75203e-06
0.000914868
6.37433e-12
0.00632455
3.82299e-10
9.48067e-09
1.46267e-09
4.31842e-07
6.22164e-05
4.30019e-07
2.38973e-09
4.7433e-09
0.0145142
7.51483e-09
2.60962e-09
0.0132
1.95836e-07
0.0364649
0.0655823
0.384269
1.3088e-09
0.204478
1.27456
1.80564
0.668891
6.4031e-10
4.27902e-11
0.00473546
0.00523624
1.19428e-06
0.00293379
0.000705786
0.0310781
5.62352e-07
7.18375e-08
0.000480271
3.94228e-09
1.00079e-10
8.93292e-06
3.49223e-05
0.000488565
2.18357e-10
0.00207862
2.08297e-06
1.43981e-08
2.15288e-05
0.00739987
0.00113254
4.92901e-08
0.0060535
5.55879e-09
0.00341565
4.00009e-05
0.00512564
1.4547e-08
3.22239e-05
0.00465233
1.84068e-07
5.84896e-05
1.35475e-09
0.0317663
9.38939e-07
0.0101983
1.26239e-08
0.00338057
2.70403e-09
2.88605e-08
4.13303e-09
0.00209573
0.00206589
4.50686e-08
0.0119563
0.00671777
0.00102865
1.0846e-08
0.0326982
0.0123279
0.173649
2.62813e-08
0.00344834
0.0240756
0.045579
7.76889e-05
1.50095e-09
0.0646893
3.40845e-08
0.213479
5.15401e-10
4.5798e-05
6.5944e-05
1.66448e-09
3.78363e-05
3.16519e-08
0.0198056
3.5172e-10
0.000737181
1.08851e-08
2.26052e-07
1.46263e-08
1.37191e-08
0.000365632
0.0014778
0.137716
9.28677e-08
4.23838e-06
0.0407837
2.60794e-08
0.000800092
2.17068e-08
5.5534e-08
5.90303e-08
0.00456429
3.26812e-11
4.74672e-10
4.51414e-11
0.0021108
1.17791e-08
0.00112138
3.59349e-07
0.00775623
8.82305e-10
0.00735137
0.198111
0.00380659
0.0151072
0.00366915
2.0516e-07
6.26326e-09
7.01261e-09
0.00954993
0.00164926
4.75851e-08
8.80942e-06
0.00327276
2.0849e-09
5.69902e-09
0.311757
1.33245e-08
0.0215732
9.54044e-10
0.000273264
0.00365918
5.06349e-09
2.6279e-11
0.000852918
1.42983e-10
1.1783e-10
0.0200353
0.00105457
0.00165205
3.95638e-08
6.20041e-10
0.00505126
1.02613e-07
0.0137728
9.53586e-08
1.90185e-09
0.00220278
7.79716e-05
0.123565
1.10713e-09
6.67959e-10
8.22899e-09
0.00364798
0.171012
2.57279e-08
3.60353e-09
1.27639e-07
0.000619373
2.61548e-09
0.021273
0.0233393
1.71085e-08
5.95923e-10
0.00286891
2.95047e-09
3.64654e-07
5.43614e-11
4.52747e-07
5.38634e-10
0.0601287
6.05248e-06
2.42434e-09
1.09777e-09
0.00126582
9.73553e-10
0.00104145
9.9403e-09
1.17338e-08
2.01361e-07
0.00754085
0.000774529
0.00364905
0.00092266
0.00112102
0.542801
0.00172993
0.00075215
1.95095e-07
5.07483e-10
0.00111238
0.00236739
0.000688207
0.000781283
5.61048e-10
0.00581176
1.53603e-10
0.00292678
1.79495e-08
0.0100156
3.16578e-06
0.0551801
1.96562e-08
3.98357e-09
0.0170838
5.39786e-06
1.18782e-09
0.0258369
0.000269694
3.95827e-08
1.26344e-11
0.0385905
0.0118342
0.00391845
0.000166531
0.000634993
0.0156154
0.000412307
0.0054405
1.57825e-07
0.0199412
2.23147e-06
8.30201e-06
1.39811e-10
1.78117e-08
3.86664e-09
0.0072198
1.86413e-09
4.95834e-08
6.27592e-12
7.92734e-06
0.00694484
0.00150835
0.00280873
3.87633e-10
0.0040819
0.000918472
0.00179277
0.00367948
4.8864e-06
0.0399051
1.07562e-08
7.65815e-09
2.40402e-09
0.00229045
0.00142194
7.71682e-09
8.59805e-10
0.001737
1.05478e-08
0.625471
0.00100849
0.0800436
2.30013e-10
3.06332e-09
0.000786964
4.74291e-10
0.00594028
1.00821e-08
7.16358e-05
3.25914e-10
0.00932184
8.13736e-09
3.84168e-09
2.00164e-05
0.00268406
0.0012055
2.66605e-08
0.00127918
7.01303e-10
0.00435307
0.227699
0.00200942
7.81549e-09
0.000398958
4.30378e-10
5.40548e-08
6.78029e-06
0.0165618
0.000172677
4.84027e-09
0.00319591
0.00368085
0.0044273
0.00843057
1.087e-08
7.12511e-09
6.05366e-08
2.41294e-08
4.18257e-09
2.49142e-09
0.00125142
0.000691105
2.79699e-09
0.00139195
1.7255e-10
5.59695e-09
0.070562
1.186e-08
1.03373e-10
0.000647836
2.37383e-09
6.91397e-11
1.05413
1.58971e-10
3.02276e-11
0.00139612
0.00156461
3.74295e-09
0.000694135
7.8041e-10
0.0206961
0.00083276
1.24149e-07
1.67446e-05
2.07236e-11
3.02032e-09
2.30393e-08
3.89498e-09
0.104893
0.000756759
0.00025017
8.65242e-10
0.000864183
1.65174e-10
6.61554e-09
8.54542e-10
0.00174353
3.43034e-05
0.000125015
2.48906e-11
1.72106e-08
0.000899342
1.87409e-05
7.58817e-09
4.832e-06
0.00185199
0.00143098
6.5045e-07
0.00144929
1.81089e-05
0.0007953
7.28208e-07
0.00114011
6.00268e-06
0.0302449
3.51848e-08
0.00546215
7.83239e-06
1.81367e-05
1.1509e-10
0.00156187
1.85219e-09
0.00448392
0.0193189
2.78349e-08
0.00264285
1.44179e-05
4.61401e-09
0.00817496
6.89002e-09
4.75438e-10
1.87218e-09
8.87037e-10
8.91731e-08
1.9962e-09
1.33073e-08
2.06061e-09
0.239202
7.62487e-07
7.40773e-11
4.82482e-11
1.06976e-09
2.17851e-09
0.0292933
0.779413
4.20035e-05
1.85357e-05
1.346e-10
0.00156523
0.00104518
0.000861677
5.26603e-07
3.0092e-07
9.4005e-09
1.67785e-08
5.07325e-08
3.90142e-06
2.01652e-06
0.00356825
0.00124967
1.46563e-09
0.000109124
7.05821e-06
8.63571e-10
0.0263931
9.03982e-08
2.02488e-09
3.88432e-08
0.16539
0.00115007
2.7044e-11
0.0215544
3.06769e-09
0.000814037
9.69944e-07
0.000664158
0.0481948
8.5448e-10
1.16207e-09
8.8516e-09
4.87115e-07
0.00644735
0.2306
0.0268439
0.0452204
0.00267526
0.000159486
2.54845e-10
2.01468e-06
0.106083
0.0015684
1.70425e-06
5.71015e-05
8.09467e-08
0.00169943
5.76767e-09
0.210804
0.000713291
6.86498e-10
0.000170701
0.000144552
2.12022e-09
0.0116469
5.45831e-10
4.40831e-09
0.202098
0.0280765
1.60483e-09
2.34702e-09
2.44847e-08
3.06904e-10
1.78712e-09
2.01393e-06
4.40883e-10
1.90732e-11
0.00343945
9.10548e-11
2.55844e-09
3.55032e-09
1.4404e-05
8.90916e-09
3.01963e-06
1.33749e-08
2.10457e-09
3.95895e-07
1.23553e-06
0.00242559
0.000714573
1.37526e-06
0.00419058
4.42601e-08
0.00603671
0.0105593
6.03057e-09
0.00277169
3.86956e-09
0.000768262
0.000710893
6.91861e-06
0.00150373
0.00127909
9.87348e-08
1.74616e-11
0.00183909
3.0752e-09
3.53993e-10
1.30684e-08
2.97453e-07
3.21532e-09
3.41509e-07
0.0401947
1.79331e-10
8.23108e-10
0.326039
6.05604e-11
0.000287443
1.76292e-07
0.000957458
4.41489e-10
1.1234e-05
2.53734e-06
0.00430487
0.00676906
0.000400354
3.39912e-06
0.0375873
4.55486e-06
0.00126109
8.75783e-05
4.75716e-06
0.00558221
0.000988841
5.4856e-06
2.07083e-05
8.55389e-08
2.81344e-09
0.000744312
0.000219436
0.0206197
0.0106449
3.72832e-05
3.39445e-08
0.00522915
0.0041248
0.0159503
2.90902e-12
0.0108022
0.0160232
0.00239262
0.00111847
0.000409951
0.00451689
0.0176221
0.0356664
0.00234489
0.0107347
0.00716539
1.43238e-06
0.00746125
0.00237077
0.000576064
0.00309845
0.00877234
0.0121458
0.0111559
1.91231e-06
0.0073231
7.79662e-06
0.00441469
0.00231777
0.00031366
0.00281324
3.24923e-06
0.00126206
0.00450411
0.00101705
6.37725e-06
1.70979e-05
0.0165238
0.0017984
0.145695