/*--------------------------------*- C++ -*----------------------------------*\
  =========                 |
  \\      /  F ield         | OpenFOAM: The Open Source CFD Toolbox
   \\    /   O peration     | Website:  https://openfoam.org
    \\  /    A nd           | Version:  10
     \\/     M anipulation  |
\*---------------------------------------------------------------------------*/
FoamFile
{
    format      ascii;
    class       volScalarField;
    location    "6.9";
    object      p;
}
// * * * * * * * * * * * * * * * * * * * * * * * * * * * * * * * * * * * * * //

dimensions      [0 2 -2 0 0 0 0];

internalField   nonuniform List<scalar> 
111485
(
31.5923
0.48832
0.558491
31.5845
0.556165
30.7066
0.475959
0.455515
0.477171
0.627888
0.465175
0.569853
0.493287
0.399906
0.488054
0.560069
0.239889
35.1505
0.498911
31.5802
31.5801
30.7338
0.471847
0.551088
0.527757
31.4524
0.634229
0.417389
0.548338
31.6053
0.507834
0.170447
31.5993
30.7597
34.3423
30.6392
0.598846
0.247137
0.585681
0.526941
30.9601
0.615164
0.532443
0.612443
-0.0838961
31.685
0.614231
0.536489
0.627157
31.7193
31.7085
29.6942
31.742
0.581748
31.7635
0.35969
0.493304
30.8245
0.332372
0.517095
0.523922
31.5964
0.433172
0.540979
30.853
0.397377
20.8303
0.459678
0.347195
0.432753
0.346155
0.374611
30.9623
0.366942
31.6426
0.282003
30.7431
0.597169
30.7271
32.3958
0.418853
0.572484
30.7528
31.6235
0.43156
0.504472
7.86808
0.564622
0.458575
0.255253
0.101048
0.515031
0.445181
0.234531
0.606815
31.6232
31.594
0.61279
-1.97258
1.04523
31.5896
0.63127
30.739
0.564983
0.449309
31.8385
30.7944
0.199234
0.516467
-0.405894
0.155109
0.430031
0.538193
0.582028
31.4439
0.288003
31.5092
30.7956
0.364307
31.5858
31.4515
26.9677
30.7564
30.8265
0.647328
35.7435
26.8158
0.209342
31.6348
2.49495
0.43431
0.608728
31.6458
26.3739
27.4966
0.475801
30.7459
0.298481
0.425288
0.49822
0.492805
0.443831
0.462108
0.559043
0.59034
0.148099
30.745
31.6175
30.8303
0.462446
0.546388
31.5685
0.569656
0.0375972
-1.60486
0.477177
0.461627
0.450453
-1.04929
31.6607
31.5845
0.467451
0.505621
-0.896955
-1.35782
0.235657
0.552546
30.9273
-0.748078
-0.614009
30.809
31.614
0.543586
30.7731
0.130657
0.0708226
30.8991
30.8745
31.5172
31.4566
30.7678
31.5799
0.49212
0.483075
0.509401
0.261743
0.618315
0.329659
0.635762
31.59
0.253093
30.8606
31.5524
0.368401
0.600446
0.60851
0.430121
0.0846022
31.6465
0.500759
0.582383
21.6389
0.628746
0.230041
31.6142
0.35439
0.556384
30.8516
0.584107
0.616118
0.53421
0.297299
30.7375
31.5991
0.324172
20.3366
0.614133
30.7696
0.34268
0.309039
0.633103
31.631
0.3229
0.539433
24.3456
30.7717
30.8108
0.450854
-1.31617
31.1244
29.2759
0.326252
0.146395
-0.0184319
31.1132
31.2839
0.548529
31.6366
0.44287
0.297561
0.314437
0.264277
0.306756
30.817
0.444208
0.261848
30.8338
30.7511
0.542708
0.423582
31.3374
0.225951
0.246013
31.6174
25.7624
0.609748
31.6076
32.1215
28.8784
31.5689
0.29377
0.246214
-0.0141652
31.6481
0.200427
31.5856
31.5892
31.649
0.526352
0.581042
0.435857
0.34196
0.576134
0.402648
0.393111
0.542323
0.118719
0.174829
30.5309
31.6132
0.552153
0.167464
0.254815
0.156847
31.5859
0.436532
0.473844
0.419542
0.646853
0.443662
0.424629
0.331409
0.608739
30.8117
0.547317
30.7741
35.0148
32.3847
0.413128
0.551681
0.483327
31.5353
31.0591
0.341742
0.174592
31.5671
31.5931
31.7841
0.261178
0.195672
0.481806
0.497272
0.485891
29.1611
30.8124
31.6271
0.354576
13.5088
0.431448
0.441636
0.477391
30.7545
31.5912
31.5966
27.4763
0.365557
0.549103
30.7824
0.367562
31.3222
31.5103
0.636705
0.369125
0.576399
0.372364
32.1206
27.3387
30.7849
0.359864
0.0856523
0.518431
30.8454
2.82952
0.260676
0.575571
0.367071
5.94246
0.488499
30.7343
0.480052
0.383684
0.469508
0.608941
0.533705
30.7746
31.6326
30.7951
31.5953
0.475895
0.342528
0.519283
0.521099
30.8402
0.573475
30.8016
31.6241
0.499464
32.58
27.9991
31.8033
30.6251
0.477685
30.8201
0.0672747
0.588873
30.7283
0.391286
0.397783
31.6104
0.363587
0.583855
0.427804
0.610782
0.176732
0.154861
32.1588
31.6208
0.648979
30.8862
0.583161
0.593266
30.8901
30.8145
0.36171
0.518737
0.134958
0.621515
30.7432
0.511909
0.552807
30.6962
0.604445
0.501412
31.5937
31.5804
0.0928534
0.532546
30.733
31.5188
23.6734
31.587
0.558735
30.7704
31.5889
0.552414
0.458037
0.634564
0.575472
30.7148
27.544
0.700388
27.9309
0.619428
0.732285
0.64643
21.5039
28.2346
-1.78677
-0.192542
31.5939
0.571577
0.587104
31.6244
-1.00147
0.631787
28.0785
0.573012
0.552148
0.180898
30.7258
1.06145
0.579788
0.213649
0.379779
26.7345
-1.43933
31.616
0.657191
-0.626618
30.8112
0.546932
0.666756
26.0237
31.6431
29.9629
31.5754
0.551822
0.329993
0.58801
0.607957
0.574514
30.7755
0.440739
31.6418
0.599611
30.6553
31.6307
31.672
0.572564
31.6242
31.5961
33.5019
31.5909
30.8456
0.632997
30.8179
29.9023
30.7821
31.5506
30.6853
31.6526
30.7379
0.572111
30.7762
0.62054
0.568768
0.613825
30.73
0.639046
30.8112
31.5926
0.590163
0.645124
0.733108
0.413481
29.5434
0.627101
0.618353
0.146947
0.00803368
0.58749
31.6168
0.0440829
26.074
0.742219
30.7748
0.658517
26.9459
0.158747
0.612208
33.1768
31.0388
-0.0521443
31.5669
0.612356
0.581947
30.8387
30.8583
31.8768
30.8036
-2.88383
0.605365
30.6766
30.8373
0.544712
30.7341
0.588909
30.7388
0.626624
31.5959
0.679813
0.678693
0.486809
0.14668
30.617
-0.455199
30.6797
30.7752
0.552097
30.78
0.633356
31.903
0.677919
31.6079
0.685712
31.5779
28.1154
0.528307
0.485293
0.580279
0.632924
0.520726
0.539388
30.826
0.549237
0.565913
30.7626
0.648344
0.562986
0.622019
30.9537
32.2365
0.634087
0.514026
15.3378
30.941
0.530829
0.582659
0.621635
0.61082
0.675932
10.8405
27.7534
-1.83054
13.1763
31.588
0.680019
30.8821
28.2313
0.280845
10.6245
-1.89207
6.46237
27.739
0.565316
0.566856
30.7633
29.9963
0.577991
31.5838
30.7325
30.7393
30.7233
0.61473
30.7958
31.4596
0.649362
0.293933
24.2766
0.405773
29.4866
0.280242
31.7369
30.8207
0.596385
30.7694
30.7307
28.1012
0.194077
19.0993
0.533528
0.261764
31.6129
0.060491
0.375499
0.541427
0.754331
1.9544
0.521936
30.7805
0.600791
0.5549
31.643
0.377887
0.595001
0.583543
0.158961
0.56266
0.569215
31.674
0.628683
0.590251
28.0202
0.564612
0.703753
19.8746
0.267791
0.583823
0.673654
0.605411
0.617898
0.24002
31.2508
0.597379
0.630888
32.9289
0.595277
0.543119
0.276973
30.7854
0.198812
31.7048
30.7491
30.8235
30.7182
0.587682
28.4616
-3.16318
31.5868
30.4661
0.635031
0.600953
31.5622
0.606303
31.5888
31.6303
31.7469
0.56258
0.672058
28.2138
31.4347
30.7786
30.7853
0.562775
0.23249
27.509
0.601716
-0.648167
30.8261
0.629847
0.62611
0.382268
30.7252
30.7686
0.456981
0.267526
27.962
30.8099
30.6502
0.296727
31.6278
31.5494
30.7743
0.600434
0.550459
30.7327
33.9429
32.9038
0.625687
30.8278
30.7103
0.610696
0.533875
27.9032
24.1545
5.34641
0.636122
0.0140204
30.5899
0.445783
0.691462
30.8096
31.7343
30.7445
30.773
30.8076
30.7339
0.659607
31.5908
30.748
30.9261
0.639904
0.256338
31.5685
31.7897
0.588858
0.251557
0.279554
31.5486
30.7527
0.256126
31.62
0.573185
0.219199
0.286793
31.4732
31.5909
31.5903
30.7857
0.631841
30.7545
30.7302
0.621406
31.5893
0.365398
0.72981
30.7775
0.284847
31.4969
0.334635
0.626175
0.555187
0.614563
-3.97557
29.177
0.321851
0.613812
0.0134249
31.3484
-7.21219
28.7774
0.130436
30.7972
0.596317
0.637288
0.58083
32.3471
31.5931
31.6436
0.251192
29.476
0.00360591
30.0197
0.542079
0.171001
0.12708
0.25802
30.7392
30.7872
31.0426
0.251973
30.7174
29.1659
0.309286
30.8183
30.8446
31.5969
30.7482
0.140121
30.629
30.7715
-5.02896
29.4068
30.8953
28.3896
30.7687
0.567343
0.147965
31.5717
0.567587
4.93016
0.57004
-0.522446
0.232319
30.8156
0.585977
0.702726
0.569614
31.6223
-9.16266
0.121606
26.2151
0.0858065
0.424556
0.513678
0.39518
0.178285
0.349541
0.162151
0.181515
30.7096
30.7597
0.105866
0.0559988
30.8202
0.119466
0.598224
0.170331
30.6905
0.437405
30.7834
0.155881
0.135124
30.7225
-0.257822
0.193153
0.292994
-0.0455437
30.5242
0.48951
0.315766
0.648276
0.293806
0.602569
30.7391
30.8237
0.665746
30.7471
0.671744
0.477745
27.1521
-0.926485
-2.28963
-0.240697
30.7484
25.8791
0.303724
31.6316
37.7146
0.588441
30.6838
30.7129
-1.89177
-2.44604
30.7483
0.438821
30.7737
30.7709
31.6402
31.5927
31.8664
31.617
0.67454
30.7168
30.8107
30.8395
-4.70154
0.830432
0.506534
0.291023
30.7824
30.7029
0.608067
30.762
30.7258
23.6531
0.584828
0.351693
30.726
30.6939
30.7475
30.7098
30.5872
30.702
0.514893
30.7252
0.121298
0.514654
30.7837
31.6344
31.775
0.421574
31.7437
31.5871
30.8464
0.0796712
30.7812
0.539223
0.557639
0.196316
30.7246
21.5033
0.639128
0.478834
30.713
0.14569
0.604893
31.5922
30.5902
27.7427
30.6978
0.29943
0.460592
0.563219
-0.426935
30.7264
0.294313
30.4646
27.6191
27.5764
30.8116
0.464249
30.7702
31.8153
0.597141
0.336236
31.8044
0.641616
29.5135
0.489634
32.089
30.7746
30.6837
31.5894
0.201525
0.486179
2.44617
30.7323
30.8884
0.162522
30.7477
28.5525
31.596
0.57487
-0.471934
0.684589
31.5177
0.56935
0.614064
33.1141
0.618213
30.7339
0.584264
0.575891
0.403641
0.513651
0.177007
30.7539
30.7742
30.7722
0.565383
31.088
0.430493
31.6443
3.71896
31.5538
0.520207
0.53429
31.8224
30.7444
31.8882
30.8467
0.412331
31.9172
27.7734
0.137716
0.43446
31.8342
28.4168
31.017
28.4959
30.7079
30.7563
0.462363
0.717852
31.5834
31.5244
-1.50807
31.6215
0.45879
0.202807
31.0136
0.623114
31.5899
0.100569
30.731
0.552049
30.7191
-1.29555
-0.283398
0.320394
0.602224
0.590975
19.2597
30.4128
0.635303
31.7246
0.452899
31.5582
30.9024
30.564
30.8312
30.9288
30.8186
0.543219
0.494511
31.5909
26.7812
31.582
0.559143
0.428373
31.5914
0.469535
0.320058
31.7757
0.234012
0.178889
0.438955
0.321554
30.7472
30.76
30.8907
30.7411
0.44192
30.5195
0.638048
30.7606
0.614282
0.574452
30.7977
0.580248
30.7672
30.7444
0.597856
0.494185
9.26311
30.7628
31.8648
30.6843
0.449104
30.256
31.8292
30.3359
4.3766
27.2225
-1.08552
28.393
30.1945
31.1309
0.180772
0.113678
0.606098
0.485563
31.5757
0.617487
30.7809
30.8132
0.146134
30.6089
-1.52163
0.610437
0.209277
0.608267
-2.81895
0.538582
30.8034
-4.6666
-10.5536
0.630884
0.661695
0.359558
22.6175
31.5785
0.550859
31.5758
30.7126
0.0119829
0.60674
-3.25911
30.7142
30.1101
0.55137
31.7748
30.7059
0.581752
31.8491
31.8061
0.720051
0.593879
0.454435
0.514389
0.264755
30.7222
30.7515
-0.137812
0.421679
30.7381
31.8265
0.695133
30.7483
26.6122
27.347
27.4985
18.0211
26.7244
30.7439
0.607063
30.664
0.511856
30.7255
14.404
30.9175
30.7925
30.8062
30.7497
0.622735
30.7495
30.7474
27.9668
30.6999
30.8061
30.7603
0.39437
30.8168
0.353791
0.498886
30.8032
0.72288
30.7323
0.584727
0.186382
0.147176
0.168924
31.4506
0.16839
0.605419
0.310593
31.6364
0.425843
0.340676
0.141193
29.5716
0.117131
30.9706
30.7986
30.7335
30.7321
0.132582
30.7736
30.6799
0.121123
0.331075
0.0557675
30.8481
22.1695
0.658344
30.8035
-0.467711
31.7635
0.118778
30.6851
30.6999
0.54567
30.708
0.752365
31.6101
30.725
0.259735
0.52572
0.272802
0.469435
0.392619
0.380219
30.726
32.2457
0.51753
0.279864
0.415664
0.459793
30.7482
0.357234
30.742
31.2727
0.502475
0.570538
30.7529
0.265925
30.7512
0.275279
0.252031
30.9108
30.7334
30.786
0.525432
30.7713
30.7723
0.529061
0.2757
0.635828
0.131099
30.8033
30.8344
0.701343
0.581067
30.745
0.509126
31.0332
0.500129
30.7342
30.7297
0.430691
30.7465
0.596933
0.542365
30.7316
30.7335
0.450009
26.2174
0.625684
31.593
0.576556
31.6377
26.883
26.0088
0.543227
28.1388
27.8432
0.444027
27.6879
17.4861
25.6985
30.9319
31.578
0.19278
0.598529
30.9258
30.77
0.494294
0.561796
30.7487
0.526431
30.7335
31.597
0.619491
0.597618
0.478588
30.7283
30.7819
30.7721
30.7474
30.6846
30.6968
30.7516
30.6899
30.7089
30.7267
30.769
31.5845
30.7651
30.7248
30.719
31.3507
30.7247
30.7355
30.7519
30.8626
31.4191
0.617496
30.767
30.726
30.842
0.459247
30.8309
31.5963
12.4407
30.6486
30.2933
0.432965
33.1005
30.4947
14.5049
0.416519
30.7597
27.2347
29.1805
30.7134
0.620376
0.41309
0.420402
0.345295
0.323917
31.6777
30.6911
0.340565
0.370571
0.354292
30.7308
0.397572
0.648703
0.441255
0.127426
0.170057
0.349358
0.211896
0.415414
31.6749
0.483011
0.441865
0.54925
0.405475
30.7805
30.769
30.7907
31.59
30.7702
0.36934
0.414427
30.7899
30.7108
30.7073
31.4775
30.7228
31.5733
30.7198
31.5856
0.395808
0.389421
0.420706
0.680606
30.6022
30.7416
0.597991
-0.0841926
30.7327
30.7486
0.543619
31.6808
30.7646
0.519558
0.351934
0.387825
0.639413
0.612229
31.6666
0.0748477
0.470509
27.7825
31.5751
0.424659
31.6493
30.7482
10.2639
5.90842
0.587841
31.2721
31.5378
0.655164
0.475635
0.130171
0.370726
14.1437
31.5874
0.706737
32.9455
31.6382
30.4671
0.536269
30.7197
0.375866
0.0543371
0.417771
0.453542
31.6359
0.365368
31.6296
30.0646
31.6177
31.5295
0.178562
18.442
30.7493
31.582
33.4441
0.381565
27.6001
0.313655
0.358987
0.164791
0.367445
31.5006
31.5197
26.8428
0.555596
0.325735
-2.6622
31.7347
31.5924
27.4576
0.65759
0.462714
30.7425
0.144645
10.6656
0.468649
0.290832
31.5818
26.7427
0.283679
0.369803
30.777
0.659639
0.636462
0.536007
0.241363
0.298435
0.373788
27.7897
0.213011
0.313657
0.303661
32.0343
0.439635
28.1217
0.599657
0.317438
31.6427
0.13812
0.294412
0.283635
0.419297
35.0267
9.08344
0.607983
17.6176
0.303775
30.6529
0.149706
0.325032
31.5786
30.7526
-0.512904
0.441657
0.459491
34.9207
0.588923
0.113009
-3.53532
0.446306
31.5789
31.7085
0.360976
33.3803
0.36068
0.0535734
0.367295
0.195707
31.5761
0.660276
0.359834
31.5555
27.9854
0.288567
31.6686
0.276961
0.28817
31.5996
35.1092
0.485437
31.5651
30.7267
30.8147
0.181557
1.05507
0.555654
31.8417
0.53528
0.238089
30.9154
0.226751
0.184911
0.165487
0.351015
30.7409
0.322057
0.258709
0.227027
0.196924
0.17786
0.271009
0.555083
31.5923
-0.156843
0.166485
31.5855
0.218221
30.8252
30.768
31.6313
30.8493
31.5906
0.716934
30.7959
0.216232
0.525905
31.642
0.647717
31.4196
0.149729
31.5828
0.220429
30.6988
0.516922
0.773173
0.192102
0.314244
0.16999
0.554804
0.184678
0.327117
11.6792
0.278088
0.337922
0.322764
31.6323
0.4437
0.413887
0.283929
0.496468
0.245853
31.6362
27.3909
31.566
0.569347
31.5745
24.9311
0.175198
33.5731
0.683221
31.5251
31.5007
30.7486
0.407329
0.713726
0.269503
0.61087
0.174462
0.332233
0.379217
0.371191
0.161523
0.368889
0.342281
31.718
30.6124
31.6114
0.462175
0.416638
30.8365
30.7477
25.4269
0.43767
0.172477
31.5745
0.341067
31.591
-0.714603
0.579628
0.564002
31.5885
31.5936
0.350756
31.5894
0.624804
0.255109
30.0565
0.437436
0.50271
0.159268
31.5504
0.399645
28.2161
0.539215
0.546217
31.5947
31.6706
0.235106
22.551
31.732
0.314703
0.188469
31.595
31.4863
28.0341
0.305673
25.3858
0.439452
0.597743
0.635503
31.5896
28.2773
0.580102
31.5903
30.7908
31.6131
31.5882
28.676
30.9552
30.356
31.5608
31.5928
29.4543
33.585
30.6298
0.658715
30.6644
27.2109
25.7557
35.5686
27.7241
31.5924
0.598914
29.692
30.8962
0.6083
32.848
34.2706
31.2935
0.570808
33.468
0.613275
0.497311
0.671079
28.9356
31.5834
0.643619
-0.708031
31.399
31.6025
0.459251
28.6239
0.449968
28.3328
30.6989
31.0968
0.458529
0.469746
31.5975
0.576134
31.7883
29.6685
0.132635
0.375438
0.604274
30.7944
0.451995
29.0569
0.542525
30.7365
31.552
30.7247
28.1305
0.34366
0.367461
31.6259
-2.05925
31.5914
31.6493
31.5896
31.5825
0.592103
0.537566
0.346486
0.870278
31.4837
0.569386
0.474656
0.321593
0.567429
30.9946
0.306443
0.688653
0.339247
-0.594755
0.448863
31.7484
0.426098
0.595707
0.457223
0.627839
0.549589
31.6712
0.591964
31.1616
31.6135
0.414244
31.6429
0.587661
31.5977
31.8087
30.4341
31.5813
31.6258
0.524137
31.574
0.536195
29.053
30.7989
0.522932
0.667919
0.370711
0.494662
31.6906
3.70259
31.6236
0.577194
31.8133
0.505271
0.577071
0.636231
0.602076
31.9269
31.9545
31.5741
0.326555
30.839
31.5318
0.319349
30.6646
30.7178
0.701087
31.9268
0.324551
-0.59225
28.8619
30.0707
29.8319
0.30986
0.459912
31.5784
0.0427445
0.557939
28.2426
0.626595
31.6072
0.309573
0.575468
0.355185
31.584
0.57341
0.333849
0.620615
0.654471
0.613263
31.593
31.5892
0.479916
31.5446
30.7319
31.5942
0.284138
0.629076
0.382927
0.339359
27.7701
0.529596
0.455221
0.47091
0.261609
0.592207
0.592644
0.612028
30.7486
30.7473
30.7451
0.672603
30.7845
0.484399
21.4619
0.576753
-1.23463
0.274013
0.179388
30.7163
31.6069
0.582734
0.5696
31.6555
30.7311
31.6387
0.289956
0.570151
0.583622
0.628321
0.156081
0.4451
31.5664
31.6223
31.594
0.220789
0.411205
0.0508685
0.501599
0.366911
0.619608
31.4418
31.5897
25.7067
30.863
0.173555
0.599794
31.5696
31.6814
31.6616
31.6413
31.4926
30.9252
0.593643
31.5795
0.567552
0.494854
30.7381
0.607127
0.12127
0.296804
31.7865
31.1022
0.595054
31.5895
0.589529
-3.68281
0.316399
30.7272
24.0277
30.7388
31.5837
31.5474
30.4807
9.13768
31.6138
0.663475
0.380543
31.6064
31.5955
0.597642
31.5873
30.7715
0.398647
0.121766
31.5172
31.5105
30.7765
0.2419
31.5894
31.5886
5.48077
0.54266
0.603274
31.5738
30.7343
28.9333
0.581501
0.589449
0.581957
0.482214
30.7301
0.313492
0.171087
0.0858608
30.5911
31.6092
31.592
31.4417
31.5905
0.411739
0.429677
0.353937
31.7025
31.6107
31.5878
31.5929
30.959
0.61718
0.476097
0.0949954
30.7144
31.588
31.844
-2.9325
0.551292
0.572825
30.7637
-6.76726
33.0383
31.4218
31.5885
0.430489
0.51614
31.5667
31.6804
0.525257
31.5966
0.313092
0.414558
11.5577
31.5511
30.8884
0.347853
0.537494
31.6841
10.7969
0.265587
0.643534
31.5774
31.579
31.6678
31.6298
0.169545
0.28124
31.5808
0.586944
0.604449
1.7504
31.58
31.5614
31.5603
31.5816
0.590997
33.5406
31.582
31.1509
0.21451
0.525661
0.262821
31.4399
31.6196
0.633806
30.5687
31.5958
31.5754
31.5786
0.453812
30.8476
30.6741
30.7323
0.226668
0.500548
31.5509
31.6207
31.4892
0.508166
32.6336
31.5696
31.4963
31.6238
31.6163
0.142764
0.609349
31.8018
0.49557
0.577495
0.4292
31.6552
31.6357
31.598
31.4753
30.7191
0.527915
31.5834
29.6545
29.5889
0.613174
30.6701
0.571476
31.59
30.7898
0.712105
2.09168
28.4166
0.651707
31.5838
0.635923
32.6692
31.6305
31.7586
36.3366
31.5879
0.624624
31.5446
0.473012
30.7955
28.0345
31.6365
31.5438
0.182933
0.75325
30.7425
11.2379
30.8005
0.396558
0.603369
0.658773
30.8196
-0.447902
0.523481
0.575548
0.610478
-1.45354
0.509859
30.6006
30.725
-1.92641
0.300575
0.604273
31.6886
30.2934
25.845
13.6507
31.6401
30.7251
31.6238
31.6374
31.6489
33.2303
0.750588
0.529613
0.404884
28.0126
0.491252
31.6221
0.538013
31.5931
31.6663
30.7667
30.9067
0.40868
30.8173
30.789
31.5799
0.490574
31.5726
31.6032
0.61131
31.5202
23.3329
20.1417
18.8422
31.6441
19.7002
19.074
19.5024
22.2169
30.7249
30.7281
0.464968
0.588865
28.1242
28.7147
30.7309
0.448003
32.78
31.0737
0.415089
31.5767
31.5897
0.541996
0.51586
31.4999
30.7167
0.744192
28.246
30.6655
-0.604218
0.487311
0.636959
31.3006
0.543456
31.6313
0.335026
-0.623875
0.515356
31.583
-0.605955
0.539638
31.9102
-3.10959
31.5226
0.502313
30.1986
0.557389
31.275
0.57253
31.5604
30.5343
30.7888
-4.855
-4.82858
31.6744
0.512659
0.804303
31.8207
31.5797
0.328052
0.0391089
0.446245
31.661
0.555422
0.532385
0.625921
-2.37346
31.6489
0.264469
30.7622
0.310604
31.5936
-5.81182
-6.86898
31.4796
0.380369
30.941
0.622556
30.741
31.4843
31.6101
31.6675
31.4796
31.5427
0.620685
0.45828
0.290592
31.592
25.5596
0.331343
31.5907
31.4694
31.6804
31.6085
31.6794
0.106038
31.5823
31.6273
30.724
0.0863623
31.5046
30.7539
30.2416
0.208512
30.7629
0.0761477
-2.08924
0.421743
0.19183
-0.00530831
32.8954
31.579
31.5779
0.320518
0.274995
30.4136
25.4269
0.1157
31.6041
31.6337
0.367161
31.5176
0.528965
31.5673
0.0230614
0.577086
31.5934
30.7238
31.5654
31.6257
31.5941
0.704524
31.5565
0.123062
31.8256
31.5772
0.235862
30.7645
0.526639
31.1544
31.6017
0.601016
0.401722
0.441245
31.624
31.6251
31.5874
0.423313
0.516731
31.8508
30.7485
30.6463
0.269717
31.5329
0.562628
0.37474
31.5725
31.5483
0.265156
31.5702
30.6471
30.7636
31.8744
30.7754
0.307043
25.0841
30.7962
31.6139
25.7283
31.5483
26.5914
31.4478
31.5368
31.1253
0.372736
31.3637
0.226212
31.4892
31.5387
0.689693
0.283252
31.5172
31.5073
31.57
0.224299
27.1335
31.5844
30.9907
31.5548
0.279458
31.5256
0.214202
31.6406
0.564847
27.9502
0.618434
31.6151
31.5944
0.584376
26.4963
31.584
0.265124
0.561426
31.7059
31.6258
0.579061
0.535884
0.269239
0.219459
0.215395
0.615308
0.292971
0.607474
31.8426
0.171995
25.3922
24.9506
31.5806
31.5406
31.593
0.278802
31.6386
31.6167
31.6362
0.366459
0.589353
24.1949
0.536167
31.6315
0.634771
30.6861
0.618784
0.324546
25.6768
0.622272
31.5239
31.4449
30.7474
0.320337
0.567901
31.5868
30.7697
0.297018
31.62
0.420172
31.7618
0.550028
31.5925
30.7467
31.5479
30.7422
0.270999
30.7419
2.07233
30.7956
0.599853
31.5738
31.5527
17.8349
16.5743
31.6393
31.5578
31.5917
31.6234
0.598804
0.364651
21.3339
31.6287
0.608901
30.7269
30.8165
-0.729985
0.478487
0.578879
30.7502
0.21015
0.566467
0.396112
0.522707
31.5977
31.6469
31.6637
31.631
30.7512
30.7411
30.7467
31.4299
30.7517
30.7482
31.5895
30.7438
0.459714
30.7413
31.5631
34.5554
31.6251
31.5803
11.5197
30.7311
31.5673
0.466458
0.547046
31.4643
31.5522
31.5897
0.498505
30.9407
31.5474
0.467761
30.7697
31.562
31.5882
31.6201
0.629202
30.7573
0.258972
31.6287
31.5467
31.5669
31.5768
31.5562
0.492315
0.342173
0.316238
31.6268
30.7817
31.7674
0.434822
31.5556
0.334848
0.599446
30.754
31.5636
24.1572
-0.675257
31.4822
28.3472
-0.625712
24.4695
0.642778
30.9078
0.605873
24.3368
22.7551
31.589
0.59364
30.7728
0.548828
0.58968
31.5864
0.597955
-0.18763
31.5849
0.546023
30.7273
31.4922
31.5342
31.4741
31.5176
30.74
31.5554
31.6266
0.296898
28.6974
31.5823
31.592
31.5503
31.5618
0.483291
16.7168
0.408978
-0.21162
31.5572
0.627125
0.575694
31.5855
28.2654
31.3541
31.5059
31.653
31.8912
26.0727
28.9226
0.537266
31.5844
31.6517
24.6581
26.7289
30.7497
0.5564
31.5723
30.7654
31.6228
0.492874
31.6434
30.7319
0.587779
30.7625
30.6578
31.2597
31.8225
0.597309
31.5797
31.5716
31.5632
31.5666
0.601347
0.563559
0.602134
0.571304
0.628869
0.592449
30.7718
26.5076
0.302311
0.60753
26.4651
0.326097
31.5986
-3.26756
30.7812
0.483694
31.5893
30.7267
0.62285
-4.499
31.5707
0.602158
31.5935
31.6093
0.463554
0.607048
31.6183
30.74
31.7243
30.7469
31.5537
27.5824
31.6245
31.5946
0.589789
31.6237
31.575
31.5713
0.651126
31.6056
27.7438
30.7556
30.7286
29.4566
27.9751
0.646148
30.7216
28.0122
0.454622
31.5937
0.55632
0.631476
31.5701
0.461502
31.5877
30.0621
31.8499
27.459
30.7974
31.5505
31.6103
31.6449
0.518663
31.6329
31.609
31.6191
31.1501
31.5783
31.3446
0.416727
31.5894
31.6326
0.549875
31.5874
30.7516
30.8121
0.572062
31.5803
0.180964
27.131
-0.536275
0.114912
30.738
26.483
0.462761
25.4327
30.7507
0.150448
-0.54712
-0.00590906
0.555982
-0.065549
-3.62239
30.8909
30.7206
0.572154
0.48821
0.515719
0.583204
-0.573848
30.7791
0.170256
0.519024
0.543865
30.823
0.564538
0.165385
0.384581
0.545154
0.395385
0.455088
0.284077
0.489122
0.0182748
0.3244
0.555059
27.7969
0.365161
0.0364546
0.574752
0.587752
0.121912
0.557417
0.0800768
28.4277
0.439606
28.229
0.422994
0.587943
0.504522
0.419091
28.1785
30.7404
0.537884
0.465144
0.364564
0.587683
0.232477
0.541501
19.7448
0.59217
31.59
0.957967
0.450722
0.591188
0.412846
0.344238
0.216994
0.619578
0.417401
0.310902
0.396795
0.55329
0.521127
24.888
21.8918
0.543222
31.5788
31.5903
0.528691
0.614553
0.139091
31.5721
0.512856
0.598734
0.44162
22.6928
31.584
0.0609928
0.0426683
0.421653
31.6482
0.268533
31.5995
0.452145
0.609068
0.576404
0.590628
31.5617
31.5998
0.676566
0.585383
0.637438
31.5687
0.478419
0.639374
0.582581
30.7857
0.446576
0.103085
28.163
0.384537
-4.85911
0.431111
30.5713
0.566893
0.543387
31.5915
0.662527
0.127081
6.44074
0.587176
0.689834
0.20688
0.662863
0.544638
-0.0401347
-0.0187301
0.379116
0.675769
0.194084
0.510655
0.253513
0.483824
0.629129
0.423357
0.567004
0.289729
0.282764
31.5958
0.654096
0.612043
0.438206
0.302135
0.620301
30.8047
0.640296
0.400749
31.5784
0.497185
-0.00768256
0.633068
0.654137
0.164871
-0.157397
0.610989
0.57674
0.585117
31.5957
31.5898
0.621381
30.8144
0.634566
0.759358
30.8889
0.165902
0.607184
0.270604
31.619
0.40963
0.429359
0.546859
0.341056
0.413853
0.317312
0.46571
0.670115
31.5899
31.4873
0.493348
0.583192
0.560895
0.536347
31.4851
0.600896
0.685941
30.8879
0.422399
0.571288
-0.269517
0.0857226
0.629785
0.474949
0.279235
0.547535
30.8375
0.689491
0.360522
0.625402
0.156173
31.49
0.669578
32.0904
31.5846
0.412414
0.563278
0.434717
1.46615
0.364712
6.64613
30.7642
0.487369
0.725259
0.701198
0.436782
31.5853
30.8191
30.7784
0.424042
0.444836
0.0584231
0.399251
30.5993
31.5043
0.386542
0.471567
0.599551
0.458484
0.433375
0.608446
0.578858
17.926
30.7278
0.610306
0.105891
31.5
0.506778
0.58721
0.662915
0.625785
0.534927
0.648885
31.5024
0.504042
0.506327
30.8073
30.6621
0.160081
0.337625
0.234874
0.150942
0.565066
0.621718
0.24381
0.423977
0.54777
0.118627
31.4864
31.4567
0.0470643
0.180954
0.559577
0.530465
0.544468
0.460647
0.616467
0.468519
0.531295
30.7457
30.8378
0.496148
31.4812
27.5812
0.542189
0.385422
0.462303
0.519777
28.915
0.626449
0.609733
29.434
0.525703
0.117598
0.534923
0.551354
0.10745
0.621648
0.317184
0.163355
31.5869
29.214
0.527909
0.246106
0.415676
0.239665
0.372732
0.580253
0.437738
29.3128
0.597254
0.318637
0.477162
0.437791
0.608969
0.471668
0.128642
0.514647
0.20084
28.8899
0.673286
0.56833
11.8694
27.4658
25.3346
0.569992
26.8581
0.104802
0.518939
0.442806
0.626159
0.402456
20.6057
12.8365
32.3906
27.1209
0.619476
30.7426
30.743
-3.99222
31.5779
0.414085
0.469238
0.347193
0.385234
0.395532
0.567651
25.4186
0.227866
0.145108
0.572999
0.528272
0.397461
0.534294
30.7508
0.11811
0.399596
0.257996
30.7452
0.62542
0.493821
30.744
31.525
0.479466
0.360933
31.7456
0.617138
0.577836
0.464619
31.6162
30.7427
0.136676
0.114399
0.614739
30.7474
30.7332
30.7446
0.626492
10.8911
9.96625
0.198497
-0.524075
31.6673
0.298154
-0.435906
0.515308
0.138722
0.0653969
0.292655
-0.952035
0.172806
31.0043
0.220001
0.275258
0.0652951
0.441718
0.136996
0.217044
0.128143
0.16411
0.140048
0.571268
-0.53108
0.53705
0.464771
0.369923
-0.809414
0.116906
-0.467223
0.157675
0.195022
0.3594
0.321125
0.577421
0.294816
-0.481845
0.258702
30.1159
0.526108
15.8376
0.419137
0.519016
30.8095
0.613633
30.1166
0.540897
30.2255
31.6594
0.568085
0.569524
27.6794
0.24903
0.492181
0.607336
31.5088
31.6221
0.857346
0.260992
0.30701
0.428491
0.242759
0.582534
0.596817
0.611993
0.616285
26.2234
0.531403
30.7517
31.4435
0.389552
0.308579
0.523852
0.377706
0.279941
0.648145
0.622391
31.1893
0.43498
0.258356
0.634746
31.2274
31.6579
0.526363
0.562532
24.8566
0.622284
0.138946
0.594791
-0.474356
0.280931
0.455058
31.5294
18.7573
0.398085
0.55242
31.0722
0.419102
0.599802
0.568277
0.501475
0.348422
0.383236
0.52234
0.65835
19.8509
0.648217
31.5785
0.561632
0.614116
0.270928
0.0755981
26.6206
0.0646488
0.518253
0.609611
0.398942
29.8589
30.7477
0.412318
0.570027
0.632206
0.577535
0.618165
0.288393
0.0333038
0.456194
0.207359
0.118642
0.588487
28.4043
0.35495
0.553614
0.0226544
0.601569
29.169
30.7221
-8.25167
0.440472
32.7734
0.348028
0.606153
29.5639
20.4966
22.1491
0.519954
0.369997
1.61776
23.6617
0.472757
0.436365
30.531
0.976103
27.7053
0.566258
0.28707
30.9036
-0.0544732
0.668719
0.651333
0.310692
30.731
-0.10678
0.580973
0.521031
0.690188
0.728038
0.656519
0.664237
0.275348
0.626627
0.204863
0.369151
31.556
26.1294
26.424
30.9598
0.549763
0.42128
0.42662
0.521979
0.250068
0.411404
0.57233
0.611281
0.595029
0.307143
0.640764
0.441767
0.627513
0.276577
31.5805
0.598578
0.51856
0.614143
0.679162
30.5017
0.399822
0.421568
0.713717
0.56855
0.496171
30.7714
0.533227
0.482785
27.6461
0.533077
0.593386
30.945
0.436117
30.9036
30.8037
0.403588
0.447448
0.608513
0.496723
30.7279
0.209757
0.560357
30.8188
0.498689
0.499196
0.451071
0.595815
31.0622
0.572461
0.580271
0.638363
30.9894
0.42257
0.207798
0.604946
0.363618
0.392572
31.733
30.0642
28.5185
0.135981
29.0466
0.41127
0.314925
0.172055
31.5342
0.17607
30.8366
31.5799
31.4273
0.47154
-0.0436317
0.117656
0.630368
0.457535
30.1587
27.7018
0.630036
0.580966
0.418325
0.238475
0.423155
-0.596764
31.5846
23.2522
23.7251
30.7313
24.0115
0.0863507
31.5902
0.446511
0.561219
0.455895
0.108463
0.456043
25.6126
0.273987
0.602465
0.632095
0.627636
25.7769
31.5816
0.593294
0.326223
-0.194146
-1.15828
0.447443
0.27226
-0.11345
0.153206
0.351349
0.0701886
0.316663
-2.19896
0.304377
0.608615
0.583868
0.278502
0.286877
0.419545
-1.43563
-1.02567
-2.79974
-3.99069
0.259391
0.588879
30.8294
-3.20084
-6.9102
0.195659
0.138205
0.0223542
0.611474
0.584859
-7.64899
0.143175
0.460213
31.7004
0.423131
0.417788
0.490757
31.5862
0.345102
0.239516
0.159134
0.45566
31.658
31.7167
0.600369
0.203267
0.230695
0.229823
31.4157
31.5949
30.7746
0.538389
0.631115
0.171537
31.604
0.360439
31.7324
31.8254
0.182652
0.139075
30.7003
0.186728
0.212901
-0.0512264
30.7815
31.6164
0.291485
0.610083
31.7669
0.173856
0.305885
-0.101518
31.9872
32.0136
31.8845
-0.109473
0.176696
0.650756
0.315475
30.7557
0.177573
0.540017
0.656094
0.628781
30.7882
31.5678
0.376769
0.588091
0.57476
0.471223
30.7805
0.165441
30.7558
0.217425
0.455883
0.538909
30.9777
28.698
0.532228
0.663016
28.1519
28.3117
30.7565
0.51181
30.3175
26.9398
0.557124
0.556554
30.7581
27.705
0.523817
0.344755
0.220959
0.441164
0.40314
28.1742
0.615329
25.8884
25.246
31.6879
0.440269
0.662562
0.169549
25.3896
33.8563
0.628599
0.458756
0.668903
0.637877
0.533306
0.517292
0.518147
0.408348
24.9235
0.528463
0.361017
0.386455
0.479965
0.581269
18.1611
0.427221
0.426452
0.440414
0.430774
0.224958
24.1426
28.771
0.488323
29.0037
29.3797
0.560527
29.062
0.41545
28.3749
28.7295
30.8849
27.617
0.471172
0.229994
0.42507
28.3275
0.305456
0.450918
0.464947
28.7902
31.5962
0.481394
0.497483
0.300112
0.482968
27.4495
0.04571
0.245756
0.162959
30.7195
31.0932
0.379928
0.273313
31.2021
28.9143
0.583778
0.0224822
28.2666
0.592229
0.532098
0.572336
0.52744
28.5653
0.533723
4.86983
0.217357
0.390821
0.661626
0.531833
0.612763
0.37198
0.603008
27.9423
0.589405
0.590702
0.247823
0.546771
0.592012
28.7198
0.376615
0.591042
0.378805
0.453126
0.568861
0.287436
0.539067
0.502786
0.613974
0.625212
0.318826
0.615821
0.683534
0.550901
0.657309
31.7353
-0.694557
31.6283
0.547494
0.572732
0.600675
0.555258
0.718643
0.526795
0.547328
0.432431
0.471462
0.252353
30.6974
23.5371
0.580066
0.633036
0.605812
0.659661
0.429367
0.455093
0.459774
0.810027
24.568
0.260954
0.88573
-6.68645
25.7887
0.164294
23.905
0.435253
0.457353
-0.370333
0.486355
30.8212
0.552712
0.260624
-1.11864
30.7458
0.36819
0.21456
0.70335