/*--------------------------------*- C++ -*----------------------------------*\
  =========                 |
  \\      /  F ield         | OpenFOAM: The Open Source CFD Toolbox
   \\    /   O peration     | Website:  https://openfoam.org
    \\  /    A nd           | Version:  10
     \\/     M anipulation  |
\*---------------------------------------------------------------------------*/
FoamFile
{
    format      ascii;
    class       volScalarField;
    location    "6.9";
    object      T;
}
// * * * * * * * * * * * * * * * * * * * * * * * * * * * * * * * * * * * * * //

dimensions      [0 0 0 1 0 0 0];

internalField   nonuniform List<scalar> 
111485
(
303.15
285.121
300.998
303.15
298.445
283.15
298.956
293.403
296.371
286.266
300.542
296.221
300.238
284.582
300.003
286.774
299.306
298.16
294.09
303.15
303.15
283.15
297.278
288.715
301.546
303.15
293.218
300.623
288.895
303.15
300.74
294.319
303.15
283.15
283.454
283.15
302.288
297.634
283.149
296.623
283.15
289.628
297.04
302.886
303.19
303.15
287.406
288.573
289.668
303.15
303.15
283.15
303.15
298.954
303.15
293.543
287.916
283.15
283.324
295.474
295.876
303.15
302.068
300.293
283.15
284.568
300.368
291.554
302.12
302.535
303.163
301.91
303.15
302.118
303.15
295.371
283.15
293.494
283.15
283.15
283.24
293.396
283.15
303.15
300.337
284.222
283.15
301.563
303.12
299.114
283.35
289.612
300.884
300.38
289.816
303.15
303.15
301.563
303.149
283.418
303.15
286.68
283.15
285.191
285.758
283.15
283.15
293.067
301.465
283.146
298.926
288.091
301.308
301.711
303.15
301.989
303.15
283.15
300.15
303.15
303.15
283.15
283.15
283.15
283.402
303.152
283.15
301.824
303.15
283.177
303.085
301.956
303.15
283.15
283.15
292.536
283.15
294.246
298.809
301.106
303.137
296.834
298.987
284.784
302.284
297.83
283.15
303.15
283.15
297.16
284.944
303.15
303.144
287.353
283.156
293.748
295.657
302.526
283.154
303.15
303.15
292.216
286.262
283.153
283.157
301.198
283.69
283.15
283.152
283.152
283.15
303.15
283.207
283.15
291.546
287.197
283.15
303.15
303.15
283.15
303.15
303.15
297.665
293.536
295.82
289.798
301.392
300.442
283.19
303.15
301.46
303.15
303.15
300.178
286.293
301.421
301.33
295.782
303.15
300.889
284.607
283.161
300.792
297.062
303.15
300.435
288.237
303.15
283.227
300.189
284.819
300.704
303.15
303.15
300.718
283.15
292.812
283.15
300.623
298.736
290.392
303.15
301.761
300.543
283.15
283.15
283.15
289.519
283.157
283.15
303.15
298.672
291.412
289.94
283.15
303.15
303.108
303.15
284.34
300.102
299.282
299.53
299.4
283.15
283.144
298.875
283.15
283.15
288.768
288.391
283.15
301.195
298.895
303.15
283.15
301.018
303.15
303.15
303.121
303.15
288.282
285.872
290.821
303.15
298.356
303.15
303.15
303.15
283.148
298.108
300.99
299.438
291.213
299.496
296.252
283.212
290.371
291.62
283.15
303.15
283.149
292.454
298.746
286.476
303.15
298.008
297.269
298.908
302.962
283.166
297.12
299.377
302.002
283.15
283.613
283.15
283.149
303.15
283.903
290.274
286.327
303.15
283.15
297.607
285.265
303.15
303.15
303.15
284.6
290.276
301.076
284.415
293.042
283.15
283.15
303.15
298.367
303.15
283.827
289.547
283.152
283.15
303.15
303.15
283.15
294.37
289.975
283.15
295.737
283.15
303.15
301.084
297.318
293.983
295.845
283.15
283.15
283.15
296.632
291.045
302.367
283.15
283.15
283.15
290.098
296.961
283.214
290.504
283.15
292.812
299.574
284.205
298.705
285.269
283.15
303.15
283.15
303.15
290.68
296.635
287.972
291.977
283.15
286.37
283.15
303.15
293.834
303.15
301.796
303.15
283.15
291.988
283.15
288.813
284.634
283.15
283.99
298.049
283.15
300.163
284.683
298.861
303.025
291.091
286.014
283.15
303.15
303.144
283.15
300.997
300.865
283.15
283.15
294.699
284.374
298.214
296.818
283.15
295.159
296.128
283.15
302.058
283.902
303.15
303.15
288.281
298.608
283.15
303.15
303.15
303.15
300.737
283.15
303.15
293.952
283.171
286.979
299.983
283.15
283.15
302.617
283.15
302.466
301.45
297.883
288.973
283.15
293.942
303.382
303.15
298.66
292.317
303.15
283.15
283.307
283.15
290.058
286.121
291.686
283.15
292.905
296.587
293.098
303.147
283.15
303.15
303.15
283.169
292.763
283.15
284.327
303.133
283.15
303.15
303.15
303.15
301.82
290.555
286.012
284.198
284.322
283.15
285.715
303.15
300.75
283.15
303.15
303.15
300.682
303.15
303.15
283.151
303.15
283.15
300.687
283.15
283.15
283.15
303.15
283.15
303.15
283.15
283.669
283.15
303.126
301.848
283.748
283.15
303.085
283.15
303.15
284.718
284.679
286.134
297.55
283.15
297.511
297.622
292.332
286.84
285.277
303.15
291.795
283.15
299.878
283.15
296.812
283.15
292.118
298.596
303.151
283.15
286.82
303.15
295.529
299.104
283.15
283.15
283.15
283.15
303.15
293.703
283.15
283.15
283.239
283.15
299.832
283.15
284.808
303.15
283.436
303.121
284.652
291.94
283.15
301.469
283.15
283.15
285.706
283.15
283.256
283.15
299.685
303.15
290.696
303.15
283.15
302.386
284.476
300.1
285.668
300.099
289.48
283.15
300.64
284.557
283.15
283.14
300.359
301.599
283.15
282.436
301.075
303.064
283.118
303.15
287.582
302.178
284.412
285.403
288.232
282.538
283.15
303.15
300.649
303.15
283.552
283.15
283.15
291.801
282.67
303.15
303.118
283.15
286.292
299.595
283.15
283.15
299.608
303.15
283.15
283.15
283.15
286.172
283.15
303.15
284.834
284.233
303.15
299.7
283.15
289.255
303.15
283.15
286.169
283.15
283.15
283.15
285.393
283.15
285.459
291.997
303.15
300.383
283.45
298.727
300.949
283.325
283.46
283.15
288.992
298.457
303.15
302.262
296.046
296.891
284.726
297.456
297.202
303.15
300.253
303.136
283.15
297.163
284.841
283.15
292.406
295.744
284.861
298.784
300.638
292.366
283.15
298.921
283.471
303.15
300.597
301.973
294.117
283.15
286.517
303.15
283.15
283.15
283.15
283.303
283.15
303.15
303.15
283.15
300.417
299.267
303.15
285.636
303.15
303.15
303.15
290.035
283.421
283.15
303.15
283.15
283.15
286.837
292.413
283.15
295.164
283.136
283.15
295.339
302.228
287.805
283.15
283.15
300.262
292.118
283.15
283.15
283.15
294.011
303.15
303.15
283.15
296.264
302.384
283.15
282.415
301.807
286.555
283.15
283.15
287.465
302.97
283.15
283.16
287.331
283.76
288.813
283.15
285.707
300.317
283.15
303.15
283.15
283.15
283.15
283.15
295.695
303.15
283.15
283.15
295.312
291.843
303.15
303.15
289.878
298.444
298.342
303.15
283.15
298.017
303.15
283.836
298.843
298.366
303.15
303.15
303.15
283.15
286.07
283.15
283.15
302.705
303.15
297.84
302.282
283.15
294.08
283.255
296.462
291.978
283.422
289.809
283.15
283.15
296.909
288.08
290.843
283.15
283.15
297.921
295.005
283.15
283.913
284.601
283.479
303.15
303.15
303.15
290.745
283.15
300.071
283.15
284.38
297.603
298.534
292.292
283.15
283.15
303.15
295.399
283.15
283.15
303.1
283.15
283.15
303.15
283.15
299.343
283.15
283.15
283.15
283.15
283.15
303.15
283.15
283.172
298.771
303.15
302.534
283.131
283.401
283.095
285.536
283.15
284.458
290.54
283.401
303.15
283.149
299.757
283.15
300.269
283.148
283.143
286.216
297.516
283.208
291.874
297.977
283.15
283.15
299.082
299.817
283.15
297.379
291.283
297.542
283.15
283.244
283.15
297.856
296.976
283.15
300.086
297.624
283.149
299.791
283.15
295.658
283.144
303.123
283.162
283.16
283.15
283.15
284.434
283.15
302.972
283.592
283.064
303.148
303.149
303.147
283.15
283.15
293.824
303.15
303.173
283.876
283.15
283.15
303.154
303.149
283.15
303.165
283.15
283.15
303.15
303.15
303.15
303.15
283.365
283.15
283.15
283.15
303.157
283.307
283.893
293.476
283.15
283.15
283.337
283.15
283.15
283.15
287.251
293.629
283.15
283.15
283.15
283.15
283.15
283.15
284.014
283.15
303.15
291.591
283.15
303.15
303.15
303.153
303.15
303.15
283.15
303.17
283.15
283.701
283.144
303.152
283.15
303.063
284.408
292.114
303.15
303.128
284.459
303.15
283.15
303.15
283.15
294.066
293.501
284.654
303.148
283.15
293.273
283.15
283.15
303.15
283.15
294.871
283.15
303.15
283.163
298.166
303.15
284.389
283.15
283.583
283.15
283.15
283.15
303.15
285.871
283.473
284.305
283.15
283.15
285.658
283.15
283.15
303.15
284.34
303.164
298.578
303.15
303.128
303.128
283.15
303.131
283.15
283.445
289.176
301.006
283.809
283.167
283.15
283.15
283.15
303.183
283.15
302.908
303.15
292.815
303.15
288.734
283.83
303.15
283.15
303.15
283.15
301.807
303.15
303.15
286.433
300.58
283.15
283.15
283.15
283.15
283.15
283.15
300.834
283.583
303.15
303.15
303.157
303.15
300.215
284.428
283.15
302.123
303.15
301.642
283.15
302.577
283.15
283.148
303.152
283.314
302.124
300.253
283.147
283.15
289.367
303.15
293.415
303.15
283.15
303.15
283.15
283.15
283.15
300.83
302.064
303.15
303.15
303.15
302.905
283.15
303.15
292.925
283.083
303.15
297.516
298.298
296.514
283.378
283.15
283.15
283.15
283.15
294.654
283.15
294.91
283.15
303.06
289.855
283.15
302.863
283.15
283.15
302.745
283.148
302.923
283.15
303.15
283.15
302.4
283.15
303.15
283.15
283.148
283.15
283.171
283.15
283.15
303.15
292.99
301.096
296.148
297.052
303.15
303.117
283.15
283.15
285.714
283.15
283.158
302.848
298.779
302.947
303.15
283.362
283.15
303.15
283.15
302.995
283.322
298.291
283.15
303.15
288.114
303.15
283.15
283.125
295.123
283.147
283.15
283.15
283.149
303.15
283.15
303.142
303.15
303.15
289.969
302.991
302.998
289.04
293.29
283.15
283.15
303.091
289.111
283.15
303.15
284.742
283.15
303.15
283.15
283.15
283.15
297.554
283.15
302.943
283.15
300.528
283.15
283.15
283.15
283.15
283.15
283.15
285.031
283.15
283.15
283.15
283.15
283.15
283.15
292.032
283.15
298.357
302.94
283.15
302.326
283.15
302.525
303.145
292.302
288.802
303.15
292.168
284.796
303.11
303.15
303.139
295.056
288.691
283.15
287.912
283.15
283.15
283.15
283.15
287.541
283.15
283.15
291.654
303.136
285.328
283.15
283.15
302.522
283.15
283.185
303.15
299.893
283.15
283.15
302.824
283.15
303.178
303.15
283.15
289.076
297.966
292.715
285.683
292.586
294.15
283.15
283.15
302.299
290.605
292.805
284.421
283.15
294.372
283.15
303.15
300.758
298.737
283.15
297.415
283.15
292.776
297.241
303.15
283.15
283.15
301.792
283.15
283.15
300.528
296.138
283.196
291.237
283.15
283.15
302.803
300.547
283.15
300.665
283.15
300.521
283.15
283.15
300.825
283.15
283.228
301.613
283.15
283.15
302.441
283.15
287.933
303.15
290.455
303.15
303.15
303.15
300.97
283.15
283.15
299.566
283.15
302.993
283.15
283.15
303.15
283.151
288.221
283.15
283.15
288.084
288.263
283.15
283.683
283.15
303.15
302.426
283.732
301.586
283.15
283.15
283.15
283.15
283.15
283.15
283.15
283.15
283.15
283.15
283.15
303.15
283.15
283.15
283.15
283.15
283.15
283.15
283.15
283.15
303.15
286.973
283.15
283.15
283.15
294.74
283.15
303.15
302.927
283.15
283.15
294.748
283.15
283.15
301.858
295.224
283.15
303.637
303.592
283.15
301.522
293.995
297.58
301.489
298.157
303.15
283.15
296.369
291.8
301.433
283.15
302.158
302.419
300.89
288.058
287.329
301.076
301.783
301.797
303.15
285.885
297.566
285.549
297.271
283.15
283.15
283.15
303.15
283.15
292.018
297.933
283.15
283.15
283.15
283.15
283.15
303.15
283.15
303.15
292.138
303.12
299.042
302.843
283.15
283.15
285.422
283.167
283.15
283.15
301.699
303.15
283.15
298.171
299.528
297.542
298.677
300.82
303.15
291.054
302.592
303.15
303.15
300.347
303.15
283.15
282.967
295.581
302.951
283.15
303.15
289.632
286.179
297.134
292.217
302.422
303.15
303.137
303.15
303.15
283.15
298.942
283.15
291.831
290.485
299.716
284.777
303.15
301.938
303.15
283.15
303.15
303.15
291.517
299.644
283.15
303.15
303.134
291.81
303.034
299.369
292.851
288.339
292.948
283.15
303.15
283.15
291.284
298.329
303.151
303.15
303.15
303.15
297.504
302.56
283.15
299.987
301.152
284.879
299.536
303.15
303.15
298.709
292.998
283.15
302.906
299.761
302.61
292.004
297.332
298.279
303.15
286.999
298.167
291.382
283.15
289.098
303.15
288.411
301.081
303.15
288.73
301.299
300.146
293.205
283.149
283.159
283.239
301.687
300.942
303.15
288.831
301.5
303.15
283.15
303.15
303.209
298.787
290.897
296.792
303.252
283.149
297.586
303.15
303.15
292.829
303.15
300.313
283.307
301.337
291.537
303.15
283.666
293.253
303.15
283.046
298.705
303.15
300.713
286.271
303.15
303.15
284.002
303.15
283.15
283.15
285.924
299.294
291.22
303.15
285.24
297.518
283.15
298.87
298.904
288.99
303.102
283.15
301.504
299.619
298.87
300.106
288.672
290.821
302.483
303.15
301.571
288.735
303.15
298.88
283.15
283.15
303.15
283.15
303.15
297.453
283.15
300.546
283.638
303.15
283.8
283.15
289.862
303.15
303.145
303.15
294.187
302.996
303.119
299.899
290.425
289.461
290.599
298.467
303.15
299.432
292.2
298.969
303.15
283.879
283.456
299.29
287.193
283.515
303.15
283.15
303.15
285.346
303.15
303.318
284.699
303.342
302.957
303.15
303.15
283.15
300.574
300.634
285.515
303.088
287.013
295.706
301.88
292.535
288.192
302.085
296.133
283.15
283.15
303.15
285.831
289.721
283.15
283.15
303.15
301.993
288.715
303.15
296.42
303.15
283.156
285.206
301.088
303.15
303.15
292.315
303.15
283.303
290.629
283.15
297.174
294.655
296.086
303.15
302.717
283.15
302.67
293.459
303.15
303.15
288.805
283.15
303.15
301.817
284.454
303.15
303.15
283.15
302.356
303.455
289.524
299.727
298.038
303.15
303.159
302.612
303.15
283.15
303.15
303.15
303.15
303.15
303.15
303.15
303.15
283.15
303.15
303.15
283.343
303.15
303.332
303.15
303.16
303.15
303.15
300.961
303.68
303.15
292.063
303.15
303.15
283.15
302.565
303.15
302.138
303.115
283.291
283.15
303.15
302.928
283.149
303.15
303.15
291.404
283.15
292.625
283.15
283.15
283.153
291.253
284.852
303.15
296.677
283.15
303.719
303.134
284.325
302.6
283.15
292.202
303.084
301.692
283.15
303.15
283.15
304.069
284.833
296.889
303.15
303.15
303.15
303.15
303.15
303.15
302.357
302.812
297.645
292.083
303.15
287.168
292.675
284.991
303.206
283.15
286.934
302.757
284.785
283.148
287.494
303.15
283.385
302.921
292.567
302.849
301.918
303.15
302.231
303.15
303.15
297.962
303.15
284.486
303.15
303.15
283.15
303.15
303.15
302.848
303.15
283.299
283.15
283.15
285.835
284.919
300.907
286.119
303.15
294.808
303.15
290.483
303.15
287.177
300.705
301.5
293.386
303.15
303.15
303.15
289.821
283.15
303.15
289.574
283.15
283.15
301.838
303.15
286.204
283.148
283.15
303.15
303.15
300.666
298.222
303.15
293.475
303.04
283.15
298.58
303.15
286.428
288.254
302.151
303.15
296.313
296.746
302.955
301.895
301.669
303.15
303.15
303.147
303.15
283.15
303.15
289.579
300.069
294.356
302.144
283.15
300.385
291.433
298.249
283.608
298.358
289.643
302.174
283.15
283.15
283.15
302.22
283.15
290.503
283.15
301.283
303.161
289.732
298.056
283.15
303.15
301.271
301.249
303.15
283.15
303.15
286.442
301.46
302.98
302.347
298.03
288.454
303.15
303.15
303.15
294.288
285.992
289.842
295.921
283.965
302.958
303.15
303.15
283.15
283.15
285.434
299.605
303.15
303.15
283.15
303.15
303.15
303.15
300.284
303.15
285.379
292.598
283.15
283.249
293.405
285.709
303.15
303.15
301.902
303.15
299.262
283.146
297.596
303.15
303.15
283.15
303.15
303.15
303.15
305.254
303.15
301.854
301.122
303.15
303.15
301.635
303.15
283.15
287.269
303.107
303.15
303.15
303.15
297.964
303.15
303.15
302.497
302.497
301.794
303.15
283.15
303.15
302.057
302.518
301.542
302.541
283.15
300.678
287.537
297.471
283.15
303.15
303.15
303.15
303.15
294.406
287.585
299.659
303.15
303.15
303.15
303.15
283.15
303.148
284.792
285.161
283.15
303.15
303.15
283.148
299.618
295.005
283.15
303.15
303.15
303.15
303.15
289.625
289.709
303.15
303.15
302.4
303.15
301.447
283.958
291.94
303.15
283.15
301.167
303.124
303.15
303.129
301.341
286.86
303.15
303.15
303.15
303.15
293.31
284.16
303.15
302.702
298.104
289.578
303.15
303.15
303.15
303.15
299.562
303.151
303.15
303.15
298.296
302.588
288.387
303.15
303.15
297.789
303.15
303.15
303.15
303.15
288.836
303.15
283.15
283.15
295.979
291.134
303.15
303.15
303.15
297.023
303.146
303.15
303.15
303.15
303.15
303.417
300.901
303.15
287.363
302.651
299.42
303.15
303.15
303.15
303.15
283.15
285.684
303.15
302.842
283.15
302.19
303.15
303.135
303.15
283.15
301.928
285.789
283.15
302.832
303.15
302.428
283.15
303.15
303.15
303.151
303.15
283.272
303.15
290.872
283.15
283.15
303.15
303.15
298.864
302.389
283.15
302.432
283.15
284.108
288.028
302.71
283.15
303.155
302.99
303.135
284.408
283.156
302.986
283.15
283.15
283.156
302.092
302.303
303.15
283.15
283.15
295.497
303.15
283.15
303.15
303.15
303.15
303.107
303.048
302.934
302.458
303.15
302.91
303.15
284.834
303.15
303.15
283.15
303.15
303.111
303.15
283.15
303.15
288.336
303.15
303.15
303.171
283.15
302.914
302.167
296.834
303.15
289.498
294.756
283.858
290.123
283.15
283.15
287.23
284.333
283.15
303.789
283.15
286.43
303.15
283.15
303.156
303.15
303.15
303.015
303.155
303.15
283.15
303.139
303.15
283.15
283.105
298.777
302.709
303.15
301.861
303.15
285.72
303.152
301.203
303.15
303.15
301.067
303.15
303.15
303.15
287.714
303.15
285.16
303.15
303.147
303.15
283.15
283.15
303.15
303.15
303.15
288.738
302.558
303.15
303.15
288.631
286.531
291.304
303.15
302.708
287.694
287.556
303.15
303.15
287.76
283.15
291.945
303.15
303.152
303.149
303.15
300.552
283.15
302.309
283.15
303.15
303.15
303.15
303.15
303.15
284.343
302.258
291.088
303.15
303.15
290.62
303.15
303.15
303.15
303.15
303.15
300.182
303.15
303.15
283.15
299.491
303.15
283.15
303.15
301.391
283.15
299.991
290.728
302.69
300.053
299.473
303.15
303.15
303.15
300.857
288.519
283.15
303.15
300.346
303.15
303.15
292.017
303.15
287.509
303.15
297.867
284.331
303.15
283.15
303.15
303.15
303.15
285.272
303.15
300.514
303.15
303.15
299.733
283.15
284.764
303.15
303.15
288.147
301.539
296.455
303.15
303.15
303.15
301.556
292.308
303.15
283.15
303.15
300.695
303.15
284.787
296.337
303.15
303.15
301.159
303.15
303.15
283.15
303.15
283.15
294.61
303.15
283.15
303.15
303.15
303.15
303.15
303.15
303.15
283.15
301.505
283.15
302.091
303.15
303.15
296.103
300.503
303.15
283.15
303.15
300.905
283.15
303.15
303.15
303.15
300.744
303.15
297.711
303.15
285.856
283.15
286.75
303.15
303.15
298.526
283.15
303.15
287.888
283.246
303.15
303.15
285.095
283.856
300.875
301.748
301.206
293.17
301.753
283.853
303.15
297.754
283.15
283.15
303.15
303.15
303.15
301.229
303.15
303.15
303.15
303.13
283.169
283.15
283.562
303.15
302.026
283.15
303.142
296.144
283.15
294.613
303.15
303.15
283.15
299.916
283.933
303.15
283.15
299.942
303.15
297.694
303.15
295.343
303.15
283.15
303.15
283.15
299.439
283.15
283.228
283.15
286.216
303.15
303.15
283.15
283.15
303.15
303.15
303.15
303.15
284.888
284.771
283.15
303.15
283.233
283.15
283.15
303.154
289.908
283.541
283.15
301.517
284.888
300.472
288.21
303.15
303.15
303.15
303.15
283.15
283.15
283.15
303.15
283.15
283.15
303.15
283.15
297.304
283.15
303.15
283.15
303.15
303.15
283.352
283.15
303.15
301.959
303.149
303.15
303.15
303.15
288.74
283.15
303.15
303.149
283.15
303.15
303.15
303.15
295.246
283.15
283.182
303.15
303.15
303.15
303.15
303.15
303.149
303.147
284.111
303.15
283.15
303.15
303.149
303.15
303.148
303.149
283.15
283.15
283.15
303.15
303.15
283.15
303.149
283.15
287.722
283.15
301.827
283.15
303.154
303.15
284.616
283.15
284.459
297.417
303.15
284.7
303.173
303.15
297.424
283.15
303.15
303.15
303.15
303.15
283.15
303.15
303.15
299.189
283.15
303.15
303.15
303.15
303.15
292.333
290.511
303.17
283.165
303.15
301.826
302.325
303.15
283.15
283.15
303.15
303.15
303.15
283.15
283.15
283.825
303.15
303.15
303.196
303.151
283.15
288.891
303.15
283.15
303.15
288.1
303.15
283.15
302.127
283.15
283.15
283.15
303.15
299.699
303.15
303.15
303.15
283.15
284.512
293.622
295.254
289.584
303.121
303.02
283.15
283.15
301.037
283.696
283.15
303.149
303.15
303.15
283.15
294.58
303.15
283.15
302.981
303.15
303.15
283.799
303.15
303.15
288.436
289.589
303.15
283.15
303.15
283.15
303.15
303.15
303.15
303.15
283.951
303.15
303.15
303.15
302.931
303.15
303.15
283.15
283.15
283.15
283.15
302.944
283.15
283.15
300.984
303.15
284.778
284.939
303.15
301.143
303.15
283.15
303.15
283.15
283.15
303.15
303.15
303.15
302.669
303.15
303.15
303.15
283.15
303.15
283.15
286.387
303.15
303.15
291.651
303.15
283.15
283.15
302.427
303.15
303.148
283.15
303.194
286.683
283.15
283.15
299.231
283.15
283.15
303.049
303.161
293.346
303.166
303.151
303.152
283.15
283.15
302.649
283.457
285.856
300.861
283.158
283.15
291.058
301.58
301.478
283.15
300.234
290.704
300.149
302.215
302.755
284.698
295.518
299.236
286.267
293.346
300.12
303.15
297.954
297.605
302.792
283.664
292.4
301.158
287.344
303.15
301.071
303.15
300.725
301.509
283.637
284.994
303.15
283.15
302.281
301.7
283.145
303.172
288.562
302.682
301.865
300.842
303.15
303.229
301.143
295.115
300.428
289.008
302.915
301.633
302.189
302.282
284.223
302.508
301.607
283.18
303.15
302.898
303.15
303.15
302.105
302.013
294.315
303.15
284.681
292.336
292.347
300.97
303.15
284.022
285.205
284.397
303.15
298.806
303.15
296.374
295.404
300.768
303.143
303.15
303.15
301.956
301.276
302.788
303.15
292.631
302.749
289.998
283.15
298.351
294.02
303.15
300.509
283.15
283.204
283.15
302.581
303.1
303.15
302.982
298.418
283.148
300.516
302.23
295.336
283.54
295.886
297.1
283.465
303.134
284.75
296.319
283.32
296.913
300.522
300.27
300.378
302.009
289.897
301.589
303.15
302.723
302.655
302.655
296.494
302.886
283.15
302.025
293.439
303.15
283.436
286.848
301.209
302.603
290.543
284.833
287.725
302.628
296.414
303.15
303.15
295.046
283.15
292.715
283.433
303.15
290.575
290.333
283.918
303.15
297.305
298.49
284.235
301.255
294.183
290.186
300.543
303.108
303.15
303.15
283.538
302.618
283.351
285.814
303.15
303.019
303.038
303.15
285.427
300.796
297.883
283.247
299.587
302.379
300.528
286.93
283.15
303.107
301.829
283.744
283.14
303.15
303.074
303.15
303.15
284.188
302.536
296.373
283.036
283.153
303.15
283.15
302.952
303.045
302.511
301.425
303.15
283.15
283.15
301.832
301.888
283.216
295.873
303.15
303.15
301.632
285.513
283.26
301.694
301.794
301.741
284.414
303.15
283.15
298.465
297.781
303.15
302.708
302.092
284.761
284.986
302.123
303.054
303.15
298.163
284.44
283.15
303.15
300.585
301.236
302.027
289.648
302.084
285.678
300.168
300.27
290.355
297.571
303.15
303.15
300.955
284.476
302.103
283.151
300.529
301.722
283.628
288.313
302.429
283.15
283.15
283.029
303.15
303.15
299.962
298.951
302.295
283.147
283.15
283.944
283.151
283.15
283.152
303.077
300.95
299.205
295.927
283.37
303.099
300.163
303.15
283.15
302.566
289.246
300.802
292.709
283.508
303.062
283.148
283.15
302.839
301.227
302.62
283.156
291.331
284.886
303.15
284.269
301.052
283.15
283.311
284.956
284.219
283.15
283.15
301.652
283.15
289.42
302.536
302.709
301.785
283.484
298.455
290.137
283.15
303.334
292.129
283.15
283.15
283.15
303.15
301.206
302.424
299.188
301.483
299.925
288.893
283.155
291.004
290.173
303.061
291.134
300.015
292.085
283.15
286.309
301.101
301.553
283.15
283.987
299.66
283.15
303.15
283.189
301.295
303.15
284.025
302.262
303.022
303.15
283.15
292.826
303.153
301.707
283.15
283.15
283.15
302.205
297.618
303.142
302.202
303.166
303.15
288.418
303.166
290.457
300.252
300.212
296.626
283.157
301.716
283.15
290.615
301.431
289.505
290.503
299.012
300.72
301.615
287.193
291.156
285.042
283.173
302.227
286.144
283.149
283.144
300.232
283.078
300.326
287.034
296.067
299.467
289.248
299.309
283.121
299.136
283.15
290.03
289.216
298.685
283.332
283.15
300.592
283.15
302.803
283.15
303.15
286.5
286.504
283.15
299.026
298.564
287.075
303.15
303.15
301.745
289.803
303.006
283.733
301.594
287.127
303.147
284.204
288.235
303.15
301.444
283.15
283.15
287.583
287.06
283.145
285.27
301.515
286.268
301.18
303.15
285.141
301.762
291.22
303.15
303.15
301.635
302.058
303.15
293.066
294.299
283.688
296.439
286.825
290.057
303.15
302.806
297.051
285.041
283.15
287.744
291.944
299.677
283.164
283.756
282.937
301.963
303.12
283.151
303.134
303.15
300.582
293.107
298.849
293.893
283.15
291.956
296.04
285.614
283.211
291.81
283.15
300.265
303.164
292.596
284.106
303.144
291.875
298.648
288.279
300.357
291.341
287.36
283.15
303.142
285.359
289.944
293.52
283.15
283.15
283.15
303.141
283.15
283.136
286.455
303.15
283.15
303.166
283.172
291.119
289.108
303.496
302.915
289.907
303.15
297.019
303.175
302.015
287.3
283.15
292.966
303.145
303.095
286.218
283.15
283.15
283.477
286.053
303.056
303.144
287.53
289.503
283.486
283.162
289.877
293.23
303.15
283.15
303.098
303.15
302.341
285.027
302.341
303.094
284.067
283.779
284.047
302.854
302.191
297.403
294.002
303.072
291.316
291.046
303.15
303.098
302.592
285.456
283.382
303.15
285.961
283.388
302.934
301.67
302.187
283.15
300.356
301.864
303.15
302.166
285.421
303.15
297.933
303.15
283.15
300.701
302.689
286.356
302.498
283.15
285.188
303.012
283.15
302.315
285.385
294.904
284.349
303.15
303.019
302.875
286.523
283.15
287.146
284.264
289.813
285.755
302.262
303.15
283.15
283.15
293.14
283.15
301.052
302.174
290.374
283.15
294.038
283.15
303.15
283.15
300.056
298.596
283.151
285.291
301.724
303.08
303.156
291.898
294.244
301.223
283.212
301.799
283.145
303.15
303.142
299.189
283.15
301.054
294.813
303.15
300.951
287.33
301.949
284.909
288.228
283.15
302.232
287.755
298.44
303.076
283.15
303.15
291.663
302.173
283.075
283.147
286.78
298.378
303.149
284.518
301.046
301.016
301.27
303.153
299.915
287.67
284.936
301.598
299.917
283.733
283.102
303.16
303.149
303.15
297.376
283.163
283.15
303.15
303.149
289.934
298.913
300.281
287.803
302.804
303.15
286.438
301.562
303.15
300.959
283.802
301.471
303.15
284.554
301.382
295.507
302.767
303.15
303.15
285.187
295.095
296.399
287.419
303.15
303.15
283.15
287.23
302.407
296.189
303.15
285.571
303.15
303.15
300.449
288.735
283.15
295.575
295.9
299.066
283.15
303.15
292.681
287.237
303.15
297.973
300.518
300.424
303.15
303.15
303.15
300.233
298.343
302.802
299.902
283.15
292.879
287.689
290.63
300.583
303.15
303.15
300.768
303.098
286.58
296.127
303.15
303.147
283.15
286.449
298.941
285.59
303.15
303.15
283.344
303.123
303.15
303.15
283.15
290.521
303.15
303.15
284.587
299.282
283.15
303.15
284.625
301.336
300.181
287.003
294.926
303.15
283.497
303.15
303.15
283.309
300.544
290.4
300.409
303.15
303.13
302.182
292.7
299.804
301.364
284.454
283.457
300.834
298.405
303.15
302.753
284.139
299.743
301.385
287.711
303.15
297.416
301.413
301.5
301.54
292.881
303.15
283.15
299.191
283.15
283.15
287.755
283.15
284.01
283.15
283.15
283.15
283.15
302.757
288.136
302.705
283.15
295.702
290.933
284.739
283.15
303.15
302.68
301.74
303.166
302.639
283.15
294.831
300.276
290.168
283.15
283.15
299.823
285.936
283.15
283.15
303.149
290.586
283.15
287.157
303.149
303.152
284.316
283.15
288.218
292.589
300.787
294.579
302.958
285.637
302.504
295.249
286.277
283.15
283.539
291.633
303.077
289.147
302.657
283.15
292.361
287.752
301.019
301.246
284.9
303.107
284.915
297.081
302.984
303.147
285.133
303.145
303.005
293.308
302.673
283.15
303.15
303.15
294.771
291.055
283.155
301.107
284.684
284.153
284.619
303.145
288.35
300.468
283.15
283.15
302.508
303.15
294.569
302.902
303.182
299.824
303.221
302.885
283.15
301.296
302.88
283.15
303.15
301.31
303.15
284.314
298.776
283.164
291.528
283.15
287.581
303.015
299.76
283.15
303.025
290.895
301.198
303.127
303.079
283.15
283.15
301.927
302.002
283.801
302.813
302.419
302.376
303.141
283.15
293.729
283.15
302.79
287.868
302.988
303.15
283.15
302.824
285.124
291.468
302.048
283.15
302.585
301.995
301.571
302.486
303.048
303.209
303.011
303.15
283.15
301.511
297.826
303.087
303.15
289.931
284.937
303.15
283.15
285.316
303.184
303.165
302.919
301.139
284.266
303.098
290.661
294.203
303.148
289.049
303.163
283.15
289.839
283.15
299.965
298.139
284.779
288.182
299.617
296.633
295.278
299.172
293.762
303.153
293.81
296.397
283.159
299.382
293.834
303.15
298.909
299.14
303.15
291.193
303.172
301.676
303.15
286.922
285.99
302.801
289.658
283.15
283.15
300.353
301.122
283.722
283.15
303.15
300.226
302.321
300.619
299.872
302.787
292.559
289.627
286.639
292.468
284.306
290.398
283.305
295.673
290.414
293.909
287.097
284.284
303.163
283.272
303.147
285.602
300.718
283.151
300.369
298.362
288.73
302.094
285.403
299.078
283.15
302.953
283.154
283.115
287.717
299.66
303.15
300.333
303.02
299.916
302.761
303.15
301.26
284.954
294.928
302.048
303.149
283.708
283.15
290.31
285.239
285.754
303.133
303.149
283.15
283.15
283.176
303.15
293.434
303.15
303.15
294.43
303.435
303.15
300.405
303.15
303.15
293.637
290.596
303.15
289.82
302.06
289.545
303.15
303.15
285.965
283.334
290.313
303.223
303.15
303.146
285.472
283.249
283.15
288.979
287.602
303.15
284.305
303.15
303.15
303.132
287.326
303.15
303.147
283.278
303.152
302.663
287.906
283.152
283.602
297.302
290.719
303.15
285.913
284.434
301.329
287.111
302.214
290.564
293.849
303.15
303.15
284.01
303.149
302.947
295.836
302.943
302.741
287.173
283.15
285.324
283.219
297.128
302.588
285.379
303.15
283.799
286.71
303.125
283.176
303.15
286.397
283.15
300.098
303.15
299.722
299.903
283.306
283.361
302.325
290.85
301.318
303.15
301.395
301.744
303.15
303.15
298.331
293.427
283.15
288.785
303.15
295.183
283.359
303.15
296.892
298.704
288.976
303.15
302.758
294.214
295.366
284.465
303.161
298.679
296.119
283.982
303.124
302.801
287.377
298.431
289.803
290.791
289.725
283.15
302.946
303.152
303.15
303.173
293.089
296.305
302.976
301.291
303.15
284.448
303.15
303.042
302.858
303.15
293.556
296.207
303.15
285.382
303.096
303.15
303.09
303.157
286.069
293.323
291.102
288.393
293.375
303.15
301.211
291.432
295.35
293.423
303.141
303.15
300.553
303.188
284.246
303.189
303.15
303.15
303.143
303.15
284.946
303.15
284.229
303.146
303.15
290.226
303.144
292.455
295.503
303.134
295.32
285.984
283.447
303.125
302.935
284.681
283.15
297.097
303.15
285.507
302.914
302.04
303.018
298.392
287.062
303.15
298.67
289.889
299.345
283.15
283.616
303.15
303.145
303.19
294.038
303.15
292.42
289.332
303.194
303.15
284.799
298.757
293.216
299.582
302.475
301.576
300.381
303.15
284.717
296.91
302.363
285.594
298.31
292.273
284.471
291.647
303.15
286.666
291.815
290.107
299.435
303.15
286.443
284.089
303.15
302.43
288.132
302.096
283.15
303.15
299.829
301.695
289.004
301.985
301.902
301.813
303.15
289.33
285.132
301.962
302.236
297.141
303.15
283.201
303.15
301.986
303.15
302.804
303.15
291.668
303.15
296.512
283.15
289.461
303.15
283.15
292.163
301.444
300.41
289.19
300.49
303.15
302.493
303.15
302.364
285.213
303.15
300.397
290.393
303.15
300.801
303.15
303.15
293.159
283.15
285.547
293.224
300.918
303.15
291.169
293.861
288.166
289.638
288.098
299.2
300.235
300.791
287.377
287.096
301.255