/*--------------------------------*- C++ -*----------------------------------*\
  =========                 |
  \\      /  F ield         | OpenFOAM: The Open Source CFD Toolbox
   \\    /   O peration     | Website:  https://openfoam.org
    \\  /    A nd           | Version:  10
     \\/     M anipulation  |
\*---------------------------------------------------------------------------*/
FoamFile
{
    format      ascii;
    class       volVectorField;
    location    "6.9";
    object      U;
}
// * * * * * * * * * * * * * * * * * * * * * * * * * * * * * * * * * * * * * //

dimensions      [0 1 -1 0 0 0 0];

internalField   nonuniform List<vector> 
111485
(
(2.89385 -2.89508 0.00370801)
(8.43855 -0.0217853 -0.0487252)
(8.31717 0.0197043 0.0259741)
(2.89489 -2.89559 0.000202257)
(8.64065 0.0378306 -0.00307596)
(3.0242 3.02252 0.000258272)
(8.4928 0.0247298 0.00203698)
(8.72242 -0.0239583 0.0123011)
(8.49694 -0.00530949 0.00612346)
(8.69502 -0.0937999 -0.0404072)
(8.36689 0.0200733 0.0247005)
(8.75338 -0.0212152 0.0408026)
(8.24518 0.00668049 0.0186002)
(8.32555 -0.0175639 -0.0603515)
(8.44127 0.0330956 0.0177718)
(8.61751 -0.0574107 -0.0467971)
(8.4865 -0.00854282 0.0122754)
(2.98351 -0.230452 0.44718)
(8.66288 0.0246659 -0.0190243)
(2.87411 -2.87021 -0.00147808)
(2.87924 -2.87891 -0.00328989)
(3.03173 3.03081 -0.000161418)
(8.56834 0.0292427 -0.00885607)
(8.70111 -0.0578924 -0.017026)
(8.52703 0.0339319 -0.0102491)
(2.9175 -2.9045 -0.00285398)
(8.79346 -0.04193 0.0457973)
(8.32559 -0.0126738 0.00255064)
(8.68852 0.014991 -0.0198297)
(2.88445 -2.8861 6.24285e-05)
(8.75869 0.143956 -0.0376054)
(8.64972 -0.0186074 0.00249398)
(2.87226 -2.87846 0.00425384)
(3.0282 3.03431 -0.00739649)
(3.03806 1.26488 0.488708)
(3.04701 3.06734 -0.0445855)
(8.71699 0.142951 -0.057446)
(8.42986 0.0307666 0.0737396)
(8.67915 2.62622 0.147215)
(8.65362 0.0420945 0.00376411)
(2.99093 3.01807 -0.0211715)
(8.74964 0.0102444 -0.0501651)
(8.64444 0.0439877 0.0152068)
(8.33969 -0.0506724 0.00109599)
(8.72237 -0.153535 -0.0789567)
(2.90274 -2.88123 0.0150956)
(8.74869 -0.041345 0.0417699)
(8.68878 -0.0535627 -0.0162576)
(8.74995 0.00396594 -0.0379415)
(2.87821 -2.84363 0.0162756)
(2.86302 -2.83575 0.018728)
(3.44417 2.89645 0.0503)
(2.85363 -2.84256 0.00952553)
(8.73597 0.0394226 -0.0729405)
(2.84632 -2.83481 0.000915888)
(8.63457 0.0228622 -0.00775086)
(8.63736 -0.0364239 -0.0175111)
(3.0316 3.02586 0.00174279)
(7.87852 -0.0178524 -0.138183)
(8.67772 0.0354515 -0.00496703)
(8.67624 0.0393268 -0.00346507)
(2.88539 -2.89096 0.00367065)
(8.04411 0.00911047 0.052752)
(8.77924 -0.0233341 0.068343)
(3.12614 2.8332 0.00460758)
(7.92187 0.0177938 -0.0150646)
(6.08973 -0.49031 0.215703)
(8.7043 -0.0315109 0.0120642)
(7.85207 0.00370272 0.0231496)
(7.43183 -0.0146721 0.00437796)
(8.39942 0.0515048 -0.04308)
(7.79109 -0.00903897 0.0217662)
(3.12393 -2.81311 -0.064797)
(7.95727 0.0143525 0.0611487)
(2.89144 -2.89047 -8.67706e-05)
(8.66206 -0.0198726 0.0091985)
(3.03102 3.03095 -0.000655326)
(8.73974 -0.0190219 0.0462005)
(3.02997 3.02822 -0.000458681)
(2.72814 2.66152 -0.0907993)
(8.42314 -0.129425 0.0876304)
(8.6989 0.0346151 0.00686979)
(3.01978 3.01251 -0.000191834)
(2.89192 -2.89198 0.00169145)
(8.19235 -0.00237962 0.0165014)
(7.8566 0.0218624 -0.0317027)
(6.74124 4.37514 -1.17603)
(8.62036 0.101952 0.009633)
(8.30499 0.214368 0.183561)
(8.40809 0.0100356 0.0252214)
(8.89281 0.176913 -0.113367)
(8.64914 -0.0150426 0.0144448)
(8.09134 -0.0129271 0.0313606)
(8.2298 -0.00933922 0.0079059)
(8.76067 0.0265386 -0.0541254)
(2.89185 -2.89133 -0.00077747)
(2.88696 -2.88576 0.0015387)
(8.61709 0.095209 0.0298209)
(8.88192 -1.75695 0.126523)
(8.07374 0.0297699 0.0525563)
(2.89177 -2.89224 0.00148958)
(8.66423 -0.0467656 0.00492111)
(3.04395 3.04905 0.0166827)
(8.59425 0.000528607 -0.00455088)
(8.51626 -0.0441048 -0.0542821)
(2.97342 2.65907 -0.0628535)
(3.03066 3.02957 -0.000600184)
(8.65609 -0.0228972 -0.0023678)
(8.00211 -0.0441354 0.0100926)
(7.669 -0.228025 -0.242789)
(8.19267 -0.00753589 0.0180071)
(8.6006 0.0122829 -0.0047088)
(8.02419 -0.0054805 0.0321728)
(7.90081 -0.0409283 0.016879)
(2.91969 -2.90392 0.0023744)
(7.60154 -0.00690943 0.0227024)
(2.90317 -2.89401 -0.00347665)
(3.04431 3.03136 0.012595)
(8.45582 0.0316757 0.0248436)
(2.89423 -2.89211 0.000958824)
(2.91885 -2.90321 -0.00133348)
(3.98744 3.13631 0.186365)
(2.99902 3.01182 -0.00562752)
(3.03714 3.02987 -0.00720656)
(8.26397 -0.0205344 0.0398742)
(2.30564 -1.62307 -0.435841)
(3.8011 3.26917 0.115423)
(7.67667 -0.00220854 0.0366135)
(2.89156 -2.89034 -0.00103222)
(8.70029 0.651624 -0.236997)
(8.68797 0.170483 -0.0865469)
(8.60132 0.0976397 0.0293063)
(2.87879 -2.87146 -0.0141217)
(3.90453 3.39512 0.350549)
(3.64342 3.25037 0.153628)
(8.68516 0.0259863 -0.0159271)
(3.033 3.0328 -0.000882245)
(8.61929 0.0201048 0.00132747)
(8.56388 0.0403923 0.0226936)
(8.41987 0.037863 0.0363216)
(6.60254 0.000728923 0.0271044)
(8.63291 0.0447109 0.0105744)
(8.56052 0.0441703 0.0280384)
(8.16192 0.00828472 -0.0337029)
(8.53187 -0.0162227 0.00777251)
(8.43431 -0.00454359 0.0209649)
(3.03357 3.03393 -0.000622463)
(2.89176 -2.89308 0.000281294)
(3.02517 3.02692 0.00629685)
(8.63735 0.0383199 0.00719175)
(8.16643 0.0141692 -0.0305458)
(2.88117 -2.87984 0.00161047)
(5.63603 -0.0329924 0.0568572)
(8.42237 0.0403293 0.018814)
(9.22539 0.370426 0.161898)
(8.6839 0.0256265 -0.0166196)
(8.64447 0.026435 -0.00642535)
(8.01705 0.00303883 -0.0161474)
(9.30988 0.453632 0.111388)
(2.87575 -2.90286 0.0112315)
(2.88978 -2.8925 0.00285201)
(8.66923 0.0245407 -0.0164845)
(8.49329 -0.0299925 -0.0310463)
(9.37137 0.51164 0.121123)
(9.24238 0.448125 0.166937)
(8.0399 0.0108601 0.0412353)
(8.65078 0.107198 -0.039021)
(2.99298 3.01804 0.000507316)
(9.4826 0.632947 0.149559)
(9.04609 0.4558 0.138478)
(3.02867 3.03053 0.000958211)
(2.88636 -2.88573 -6.83441e-05)
(6.90886 0.00696438 -0.0570224)
(3.0319 3.03328 0.0003978)
(8.60406 -0.0185321 -0.0034722)
(8.28341 0.00334581 -0.0173447)
(3.03111 2.95839 -0.0167469)
(3.12673 -2.87051 0.0316127)
(2.88551 -2.87096 -0.00454307)
(2.98741 2.82091 -0.0293826)
(3.14256 -2.8946 0.0497755)
(2.88936 -2.89123 0.00266325)
(8.61635 0.0333672 0.00938138)
(8.63144 0.0204038 -0.0161876)
(8.60043 0.026022 -0.00879308)
(8.48985 -0.0254389 0.03076)
(8.18473 -0.020675 0.00683217)
(8.21248 0.0135727 0.0253314)
(7.29034 0.0944041 0.00992086)
(2.88647 -2.87733 -0.00114825)
(7.95367 0.00108182 0.00986114)
(3.11927 -2.89326 0.0314744)
(2.91288 -2.91792 -0.00144458)
(8.2803 0.0154952 0.0288745)
(8.699 -0.104579 -0.0379337)
(8.61757 0.0173637 -0.0393837)
(8.27717 -0.0091006 0.0108256)
(8.42475 -0.00540097 0.0100773)
(2.88631 -2.88163 0.00721835)
(8.26633 -0.0351602 0.00917699)
(8.23914 -0.00829877 -0.0513427)
(5.76731 1.83831 0.241359)
(8.44605 -0.0685174 0.00553403)
(8.56627 -0.0136816 0.0078436)
(2.90019 -2.884 -0.00470141)
(8.24532 0.020413 0.0290079)
(8.65584 0.0200195 -0.00731252)
(3.17313 -2.85843 0.0139251)
(8.30717 0.0208922 0.0318288)
(8.71974 -0.00710064 0.0447187)
(8.16158 0.00897722 -0.0349305)
(8.22125 0.0225453 0.0387998)
(3.13963 -2.90389 0.0406375)
(2.88464 -2.88502 -0.000796479)
(8.2189 0.0239788 0.0417602)
(5.39091 3.38398 -0.334012)
(8.81881 0.038358 -0.0860082)
(3.03046 3.03138 -0.0019158)
(8.27058 0.0166368 0.0331225)
(8.27743 0.00554837 0.00459026)
(8.77 -0.0277288 0.054903)
(2.89389 -2.89254 0.00118119)
(7.72752 -0.00314049 0.0198774)
(8.66639 0.125195 0.0654989)
(4.76454 3.20048 -0.349404)
(3.03205 3.03243 -0.00218648)
(3.02883 3.03045 0.00089886)
(8.86 -0.0553944 0.0844788)
(8.27299 0.195086 -0.0241862)
(3.18602 2.69071 -0.0627973)
(3.58655 -2.77854 0.113616)
(8.30235 0.00782382 0.0147098)
(8.57199 0.0143814 -0.0010342)
(8.65601 0.0191103 0.00813352)
(3.13943 2.73302 -0.0806334)
(3.05128 -2.80932 -0.0108316)
(8.33812 0.100633 -0.119638)
(2.89107 -2.89096 0.0017476)
(7.90901 0.0101371 -0.0498027)
(8.20993 0.00517659 0.034129)
(8.29932 0.00370794 0.0185457)
(8.30957 0.0167411 0.0212881)
(8.34317 0.00885597 0.0283075)
(3.02047 3.0211 0.00944475)
(6.2887 -0.0178407 -0.24164)
(8.44047 0.0199906 0.0320465)
(3.01579 3.02103 -0.00380912)
(3.03093 3.03259 0.000343508)
(8.79888 -0.105937 -0.00982931)
(8.59679 0.0389527 -0.0128122)
(3.10298 2.64413 -0.0827287)
(7.83623 -0.00408965 0.0217779)
(8.42406 0.0235056 0.0225194)
(2.89342 -2.89205 -0.000905172)
(3.81753 3.62474 -0.0201083)
(8.65885 0.0803646 -0.0353794)
(2.90488 -2.8666 0.00154025)
(3.21336 -2.28029 -0.0543698)
(4.41687 -1.54255 -0.154962)
(2.89641 -2.88834 -0.00152787)
(8.47446 -0.0144179 -0.016928)
(8.24004 -0.0135028 -0.0159409)
(8.57976 0.0139839 -0.0224507)
(2.88981 -2.89023 -0.000253974)
(8.49164 0.0236975 0.0194468)
(2.89485 -2.89556 0.00014029)
(2.89408 -2.89511 0.000768618)
(2.88623 -2.87499 0.00476717)
(5.80573 0.0222746 -0.0898786)
(8.72373 -0.0419396 0.0485838)
(8.30206 0.0307341 0.042583)
(8.46028 0.0282985 0.0134924)
(8.7537 -0.049778 -0.00198029)
(8.42127 0.0127053 0.0148561)
(8.63103 0.0313896 0.0110316)
(8.69523 0.147784 -0.0142257)
(8.50883 0.0116927 -0.00369187)
(8.58132 0.0147607 -0.00452313)
(3.08325 3.03389 -0.00145514)
(2.88273 -2.88263 -0.00369793)
(5.30747 0.0346069 -0.130197)
(8.62965 -0.0189707 0.00243775)
(8.70114 0.066306 0.070991)
(8.21691 -0.0111911 -0.0132294)
(2.89448 -2.89278 0.000886672)
(8.58556 0.0273349 0.0158622)
(8.6212 0.0441407 0.0212864)
(8.44752 0.0192938 0.011156)
(7.43356 -0.00738249 -0.039831)
(7.7885 -0.0899365 -0.19454)
(8.57189 0.0265277 0.00996555)
(8.43689 0.0237151 0.0154699)
(8.59287 0.0670902 -0.0424269)
(3.03099 3.03139 0.000591324)
(7.88631 0.0438629 -0.00265912)
(3.0299 3.03018 -0.0010308)
(2.45938 1.87004 -0.393616)
(3.25971 -2.08741 -0.212157)
(8.92894 -0.0817388 0.118124)
(8.7563 -0.0497966 -0.00163206)
(8.54808 -0.0030325 0.00120445)
(2.89635 -2.88882 -0.00101437)
(3.01784 3.0355 0.0249335)
(8.57515 0.0296923 0.0147863)
(8.21271 0.0177736 -0.011395)
(2.88296 -2.88222 0.000577639)
(2.89459 -2.89242 0.0024265)
(2.82592 -2.84187 0.0208882)
(8.1481 0.0110348 -0.00451375)
(8.54308 0.00908097 -0.00900739)
(8.15464 0.00176943 0.029979)
(7.89476 0.0131484 -0.0419653)
(8.70911 0.0204852 -0.0203179)
(3.47022 2.98191 0.0812802)
(3.0245 3.03179 0.00549804)
(2.89119 -2.88759 -0.00129545)
(8.54157 0.0328873 0.022903)
(5.54008 -4.69306 -0.333785)
(8.13817 -0.0093829 0.0127139)
(8.8661 -0.0618219 0.195048)
(7.14305 0.00538865 -0.147913)
(3.03195 3.0321 -0.00014571)
(2.88962 -2.89266 0.00220982)
(2.89424 -2.89542 -0.00143806)
(3.81985 3.20404 0.19702)
(8.64957 0.0261516 -0.00324537)
(8.72518 -0.0488992 0.00851822)
(3.03621 3.04401 0.000980441)
(8.59297 0.0235474 -0.00182475)
(3.20111 2.59402 0.182751)
(2.89727 -2.86347 -0.00650486)
(8.80592 -0.0299234 0.0717802)
(8.57033 0.0316184 0.0158084)
(8.75824 -0.0113152 0.0208255)
(8.59647 0.0242621 2.91107e-05)
(2.914 2.58308 0.157485)
(3.78119 3.25432 0.208041)
(3.02404 3.02779 -0.00438862)
(8.58275 0.0299502 0.0114985)
(8.5707 0.0251539 -0.000888044)
(8.73135 0.156183 -0.0530448)
(2.99664 2.98962 0.00555935)
(5.98798 5.3009 -1.26952)
(8.18607 0.0812104 0.074342)
(8.73045 -0.0409358 0.0209488)
(8.59127 0.0315298 0.0195391)
(8.17689 0.850557 -0.0672653)
(8.70841 0.0196666 -0.0246031)
(3.01939 3.01905 0.00141154)
(8.70995 0.0213465 -0.0137415)
(8.36905 0.0115533 0.0174133)
(8.81035 -0.207076 -0.0013592)
(8.83328 -0.0533027 0.108011)
(8.53369 -0.0684327 -0.0624536)
(3.01746 3.03083 -0.0112888)
(2.88788 -2.89115 -0.00537589)
(3.03643 3.01862 0.0115572)
(2.8697 -2.87796 -0.000580583)
(8.71099 -0.0403878 0.000550493)
(8.63351 -0.0120483 0.00310094)
(8.63812 0.0412448 -0.0329765)
(8.70295 0.0240991 -0.0269408)
(3.00602 3.00919 -0.012959)
(8.61464 -0.0632153 -0.0230417)
(3.02755 3.02844 0.0012442)
(2.88122 -2.8894 0.000111725)
(8.70406 0.0247671 -0.0178097)
(2.6612 -2.66414 0.0383911)
(4.78551 -0.856556 -0.0653243)
(2.85801 -2.84733 0.00234687)
(3.05627 3.01566 0.0241895)
(8.6217 0.0149048 -0.011962)
(3.02996 3.02816 0.00115165)
(8.51545 0.0242156 -0.00265318)
(8.10258 0.00448479 -0.0370817)
(3.03535 3.03555 -0.000729433)
(7.80311 -0.00373477 -0.0371557)
(8.47569 0.0148055 0.0121266)
(3.05301 2.67932 -0.0987078)
(8.43814 0.0377237 0.0422505)
(7.9846 0.0421538 -0.00352066)
(8.49254 0.0398663 0.0121762)
(7.91713 0.0309422 0.100531)
(8.56838 0.0245151 0.00410153)
(8.1887 0.00223038 -0.0150982)
(2.99702 2.56235 -0.013001)
(2.88186 -2.87646 0.0172514)
(7.33652 0.011512 0.172372)
(3.00938 3.01976 -0.0171239)
(8.47911 0.0461403 0.0408949)
(8.81245 -0.0447262 0.087979)
(3.0441 2.91036 0.024586)
(3.02339 3.03625 -0.000926257)
(8.68711 -0.0167469 0.00665346)
(8.37148 -0.0390409 -0.0854373)
(8.39494 0.0444909 0.00129163)
(8.70286 0.0214908 -0.00816017)
(3.0306 3.02641 -0.00134994)
(8.85051 -0.0246095 0.142788)
(8.71659 -0.0294808 0.0433023)
(3.03969 3.03455 -1.4353e-05)
(8.53241 0.133127 0.108641)
(8.14666 -0.0327691 -0.0876981)
(2.88747 -2.88744 -0.000692766)
(2.88392 -2.88385 0.000789824)
(8.50459 0.0273706 -0.0103838)
(8.55768 0.00736251 -0.0126692)
(3.04271 3.0428 -0.00386406)
(2.8898 -2.88386 -0.00463319)
(5.09954 -2.7443 0.626006)
(2.89362 -2.89559 0.000565926)
(8.55692 -0.00310467 0.0155387)
(3.0103 3.02163 0.00689429)
(2.89452 -2.8955 0.000138706)
(8.7625 -0.0114911 0.0281829)
(7.9413 -0.0924764 -0.229011)
(8.666 -0.0507945 0.0112508)
(8.37473 -0.00128795 0.0163407)
(3.03747 3.03519 0.000246206)
(3.93033 3.03071 0.151597)
(8.37323 0.112162 0.160676)
(3.68356 3.24749 0.172506)
(8.34719 0.0356351 0.0657354)
(8.31169 -0.0709038 0.00709569)
(8.67767 -0.0257156 -0.0231752)
(6.03817 0.189418 0.225555)
(3.61664 3.11619 0.157084)
(8.66402 0.0138059 -0.0820948)
(8.78081 0.272733 -0.0871413)
(2.88949 -2.89468 0.00537804)
(8.75276 0.022453 -0.0861948)
(8.76288 -0.0384182 0.0323509)
(2.89492 -2.89428 0.00300648)
(8.44326 0.483752 -0.258894)
(7.38787 0.000189145 -0.100734)
(3.82351 3.00857 0.126527)
(8.7284 -0.0216582 0.0359564)
(8.62275 0.0137353 -0.00979276)
(8.57277 0.023131 -0.00619381)
(3.03006 3.02746 -0.000723342)
(8.53479 -0.0129161 0.0591755)
(8.76131 -0.0032107 0.0281921)
(8.50321 0.0831985 -0.00842332)
(5.35724 -0.073216 0.0901672)
(3.68227 3.47574 -0.0722732)
(5.05844 -0.129481 0.170056)
(2.88881 -2.89275 0.00214787)
(7.87045 -0.267162 -0.259633)
(8.53657 -0.0145028 -0.0562303)
(3.03145 3.02938 0.00468606)
(8.12559 0.0202118 -0.0617399)
(6.69341 -0.0175963 0.122282)
(3.92752 3.47547 -0.037809)
(2.89164 -2.8897 0.000205156)
(3.388 -2.87554 0.0932034)
(2.89386 -2.89264 -6.06819e-05)
(8.47897 0.0487854 -0.00646885)
(8.56072 0.0459941 -0.0146323)
(8.4868 -0.024044 -0.0242822)
(7.97468 0.0216532 -0.0438959)
(8.68948 -0.176741 -0.0368043)
(3.0288 3.01575 -0.00578961)
(8.43018 0.000207957 -0.0207399)
(2.90031 -2.8789 0.00038851)
(8.34447 0.0308279 0.0203644)
(3.04073 3.0411 -0.00132774)
(2.89179 -2.88923 9.47569e-05)
(2.86219 -2.87022 -0.00395539)
(8.20017 -0.0541171 0.0110285)
(2.88107 -2.8824 -0.00245507)
(2.89341 -2.89367 0.00119566)
(2.98998 1.99282 -0.123423)
(2.89391 -2.89562 0.00108726)
(2.99833 3.03985 0.0285467)
(8.40418 -0.0312849 -0.0130357)
(3.03193 3.02771 0.00100716)
(3.59146 2.65415 0.00489477)
(3.03242 3.03409 0.00367042)
(2.88274 -2.87304 -0.00102881)
(3.03148 3.02041 -0.00431251)
(2.88173 -2.86708 -0.014651)
(3.0135 3.01586 8.82293e-05)
(7.65233 0.0017213 -0.0647676)
(3.03603 3.01997 0.0120736)
(7.84565 0.116565 0.159098)
(8.58662 0.0119275 -0.00391288)
(8.85231 -0.361472 -0.0624058)
(3.03856 3.02354 -0.000856609)
(7.47345 0.0216801 0.124399)
(3.03607 3.02548 0.00292125)
(2.8944 -2.89555 -0.00130301)
(8.45824 -0.080617 -0.0859465)
(8.47002 -0.0650346 -0.0781359)
(8.49078 -0.0185207 -0.0227168)
(8.87184 0.0224635 -0.149475)
(3.48286 2.93148 -0.096428)
(8.69286 0.0101665 -0.0460207)
(8.68876 0.0154312 -0.0410185)
(8.58467 0.0153332 -9.7097e-05)
(8.44693 0.00938093 0.00288756)
(8.59824 -0.0867652 -0.0600888)
(2.88156 -2.88249 -0.00102032)
(8.59243 0.01176 0.000179235)
(3.96412 3.45308 -0.0255309)
(8.56468 0.0220219 -0.0116384)
(3.0271 3.02388 -0.00107266)
(8.72131 0.0277803 -0.0386467)
(3.9217 3.25828 0.0302724)
(8.60114 0.00738479 -0.0126312)
(8.62925 -0.0410193 0.0313927)
(3.33973 -1.68237 -0.0197977)
(3.03229 3.03449 0.0336971)
(8.45864 0.0149195 0.0151882)
(2.89104 -2.88982 0.000485888)
(8.75833 0.0359439 -0.0568485)
(8.69385 0.0342083 -0.0367396)
(3.0291 3.02015 -0.0242144)
(3.02257 3.02153 0.00740013)
(2.96515 2.65947 -0.0593334)
(3.02891 3.03117 0.00146184)
(6.07507 -0.326097 0.167872)
(8.7634 0.03136 -0.0548619)
(3.07436 3.00208 -0.00235628)
(3.02528 3.02939 0.00294779)
(7.48149 0.00949035 -0.0176331)
(3.0337 3.0336 -3.79845e-05)
(8.628 0.0241925 -0.0307394)
(3.03159 3.03087 0.00044075)
(8.54253 -0.0502919 -0.0365419)
(2.89489 -2.89422 0.000817857)
(8.01455 -0.0403148 -0.121348)
(6.62358 -0.0265796 0.00655574)
(8.03497 0.024827 -0.0171386)
(8.60401 0.00954168 -0.0135961)
(3.04304 3.0204 -0.00993336)
(7.80749 0.0080453 -0.00142669)
(3.03694 3.02611 0.00278882)
(3.03227 3.03311 -0.00823421)
(8.50659 -0.0222274 -0.0125213)
(3.02841 3.0249 -0.00135904)
(7.24375 0.0010072 -0.0736499)
(2.92368 2.69113 -0.0893255)
(8.63894 0.0224374 -0.0273868)
(2.88503 -2.8867 0.000167282)
(8.71158 0.0204976 -0.019167)
(2.89595 -2.89341 0.000396656)
(3.59788 3.18354 0.092773)
(8.81373 0.319001 -0.0230031)
(8.46206 -0.0724385 -0.090547)
(8.59175 0.0361685 0.000307816)
(8.66119 -0.097621 -0.063688)
(8.5534 0.0167485 -0.00852265)
(8.74704 -0.0610676 -0.00580138)
(3.00993 3.03305 -0.013536)
(8.58652 0.0489647 0.0264873)
(8.49686 -0.0851428 -0.0871548)
(3.03081 3.03254 -0.00180492)
(7.21697 -0.105834 -0.278978)
(8.78173 -0.0642611 -0.0437195)
(8.43333 0.0361111 0.0325135)
(2.99829 2.9574 -0.0169971)
(3.72932 0.744071 -0.596118)
(8.25271 0.0206076 0.0273253)
(6.75148 -0.0267459 0.0683534)
(6.99821 1.80076 -0.0151044)
(3.74899 -1.90274 -0.154625)
(8.73057 -0.0996932 -0.0227154)
(8.19475 0.0310946 0.0606565)
(8.45585 -0.0796052 -0.0873977)
(8.61948 -0.0482972 -0.0181719)
(8.47684 0.0494994 0.021022)
(7.5284 0.976764 -0.0426342)
(3.74635 3.17856 0.0264657)
(7.6544 -0.292414 0.0702503)
(7.39429 -0.645909 0.154709)
(2.88847 -2.89005 0.00137296)
(7.54841 0.0526122 -0.0223847)
(3.04671 2.98953 -0.0157607)
(3.55514 3.23259 0.0305264)
(8.55037 0.0191451 -0.00415444)
(7.58458 1.28212 -0.0445444)
(9.12129 -0.781546 -0.144023)
(8.22568 -1.42163 0.032393)
(3.5457 3.36954 -0.248595)
(8.69403 -0.0536673 -0.0170241)
(8.58031 0.0500765 0.0390272)
(3.02434 3.01595 -0.0013374)
(3.90089 2.16941 -0.0895852)
(8.58002 0.0645707 0.0404757)
(2.89214 -2.88118 0.00309063)
(3.03053 3.02929 -0.00063706)
(3.02129 3.02027 -0.00018583)
(3.03452 3.01858 0.00357416)
(8.69102 -0.0894023 -0.0410121)
(3.03148 3.03068 0.00183029)
(2.90182 -2.90164 0.0152927)
(8.53623 -0.0523195 -0.0424303)
(7.85961 -0.00247659 -0.0238696)
(4.25376 -3.72428 -0.196877)
(8.58053 0.0630965 0.0390405)
(3.52745 2.85147 0.0639625)
(8.6231 -0.0337862 -0.0187641)
(2.83549 -2.83325 -0.0132319)
(3.02409 3.03011 -0.00226108)
(8.66988 -0.0549229 -0.0158999)
(3.03042 3.01321 -0.0117087)
(3.03206 3.02498 0.00168992)
(3.4724 3.32305 0.0959683)
(8.15688 -0.00426638 -0.00416213)
(4.98894 4.17808 -0.554208)
(8.54425 -0.0355441 -0.0168362)
(8.54662 0.0184513 -0.00614694)
(2.86642 -2.84775 -0.0228599)
(8.86836 -0.0260789 0.280751)
(8.1231 -0.0496546 -0.121416)
(8.513 0.00115462 -0.00411281)
(8.61854 0.156055 0.015628)
(8.66119 0.0857837 -0.186098)
(7.45187 0.00348876 -0.0695106)
(3.02586 3.02287 0.00180634)
(8.68155 0.00921385 0.0243394)
(8.6157 0.0371052 -0.00750269)
(2.86382 -2.9017 0.00566916)
(8.02052 -0.00531583 -0.00291645)
(8.69716 0.0485455 -0.0172297)
(8.69447 0.0399647 -0.0141974)
(7.90171 -0.035045 -0.0773992)
(8.69179 0.0382707 -0.0155766)
(8.69611 0.0457821 -0.00501367)
(2.89732 -2.8589 0.0176606)
(8.69658 -0.0173308 0.042783)
(7.19213 -0.045015 -0.0139981)
(3.65004 3.17119 0.199136)
(8.69049 0.0327657 -0.0209951)
(8.29476 0.00962807 -0.0196065)
(4.85632 3.95469 -0.597331)
(8.54753 0.0161587 -0.00236125)
(8.69447 0.0267661 -0.0263347)
(8.29766 0.00267089 -0.0347615)
(8.62471 0.0381891 0.00486837)
(8.52698 0.0852425 0.0379587)
(8.56539 0.00846169 0.00684219)
(2.96491 2.89765 0.00441287)
(8.62377 0.0449068 0.00529206)
(8.09388 -0.0530561 -0.109693)
(3.23871 -1.94537 0.0755687)
(8.5823 0.0740065 0.0460387)
(8.47254 0.0704079 0.0696443)
(8.59773 0.02541 0.00135532)
(3.02621 3.01907 0.00264754)
(8.33509 0.0479541 -0.0792077)
(2.89157 -2.87897 0.0072555)
(3.03154 3.03166 -0.002158)
(3.01524 2.99464 -0.00129028)
(3.0364 3.01869 0.000773414)
(7.22628 0.00378311 -0.0310428)
(3.61033 3.10836 0.125916)
(6.5013 -0.459422 0.537925)
(2.87682 -2.8781 -0.000257612)
(3.02454 3.06521 -0.00465337)
(8.59166 0.0863115 0.0445446)
(8.64408 0.0218004 -0.039335)
(2.89367 -2.89357 -0.000182359)
(8.65235 -0.0537113 -0.00577176)
(2.89182 -2.88985 0.0083955)
(2.89376 -2.89179 -0.00111503)
(2.84484 -2.84573 0.00861694)
(8.78092 -0.0700047 -0.00920968)
(7.31948 0.041481 -0.0206129)
(3.57344 3.21935 0.0399799)
(2.92083 -2.88842 0.00776326)
(3.02706 3.03691 -0.00387475)
(3.02862 3.03045 -0.000738978)
(8.83674 0.0179272 -0.0976412)
(8.57753 0.0176826 -0.000882942)
(3.60037 3.38528 0.155896)
(8.73971 0.0271069 -0.0476881)
(8.13094 -0.114029 -0.3379)
(3.02504 3.0265 -0.00140182)
(8.71676 0.0233415 -0.0415822)
(7.9923 0.00592694 0.0425303)
(8.48159 0.0447729 -0.0509941)
(3.03581 3.03439 -0.000129347)
(3.02699 3.02443 0.000288924)
(8.42264 0.0508896 0.0514323)
(8.60784 0.020265 -0.00308915)
(3.58114 3.2573 0.0508682)
(3.01728 3.01841 0.000257183)
(3.06881 2.97486 -0.0121238)
(8.55489 -0.0166902 0.00737265)
(2.88934 -2.88928 -0.00323152)
(2.88487 -2.87393 0.00220798)
(3.01335 3.01387 8.17315e-05)
(8.71424 0.0263223 -0.0366069)
(7.62205 -0.037967 0.0151077)
(3.03444 3.03465 1.13229e-05)
(3.37093 0.676236 0.595029)
(3.6658 -0.392317 -0.143809)
(8.42631 0.0453583 -0.00235522)
(3.0254 3.0305 -0.0013739)
(3.03139 3.02594 -0.00234551)
(8.74168 -0.109637 -0.0163121)
(8.37622 0.142382 0.134549)
(3.63157 3.24487 0.15395)
(5.28497 1.71857 0.124761)
(8.25773 0.182792 0.241315)
(7.90392 0.024198 -0.0550459)
(8.4039 0.00499234 -0.00638493)
(3.13257 2.9415 -0.00740222)
(8.35303 0.0243328 -0.00405898)
(8.65801 -0.0583876 0.0619431)
(3.03631 3.02882 -0.00330184)
(2.87052 -2.82052 0.00509096)
(3.01517 3.0168 0.000459361)
(3.02544 3.02507 -0.000604443)
(3.03101 3.03592 -0.00359632)
(3.03521 3.03614 -0.000684026)
(8.73173 0.0250562 -0.0385416)
(2.89155 -2.89097 0.00195996)
(3.02336 3.02383 0.000496842)
(3.0138 2.97432 -0.00394186)
(8.73947 0.0271611 -0.0487307)
(8.60223 0.0196071 -0.000154881)
(2.90357 -2.86523 -0.000943109)
(2.85676 -2.82727 0.00393003)
(8.8079 -0.0421697 0.0760432)
(8.3687 0.0020124 0.00843291)
(8.35636 0.00615542 0.0126959)
(2.89261 -2.88494 -0.00157479)
(3.02138 3.02174 0.00206413)
(8.3629 0.00402236 0.0118522)
(2.89357 -2.89118 0.000431179)
(8.26343 0.0230918 0.00227192)
(8.4516 0.0134237 0.0306528)
(8.47201 0.0303712 0.0118949)
(2.90108 -2.87949 0.00811726)
(2.89299 -2.89451 0.000621304)
(2.89247 -2.89443 0.000159406)
(3.03148 3.03216 0.000915152)
(8.56577 -0.0408119 -0.0236334)
(3.02813 3.03167 0.0016)
(3.0225 3.01987 -8.57643e-05)
(8.52869 0.0236534 -0.0347105)
(2.89319 -2.89419 0.00118041)
(8.40031 0.0020054 0.00987956)
(7.66504 -0.0667248 0.026165)
(3.04895 2.94617 0.0160199)
(8.59288 0.0221219 -0.00353596)
(4.04874 0.615446 -0.105964)
(8.48134 0.00881759 0.00446804)
(8.76802 -0.0301291 0.022117)
(7.74032 0.0314717 0.0102137)
(8.76959 -0.00208898 0.0574541)
(6.33421 0.137302 -0.241563)
(3.6067 2.88604 0.0591928)
(8.46219 0.00533929 0.00309913)
(8.8038 0.0688517 0.010871)
(8.59372 -0.0201899 -0.00839476)
(3.10396 2.7007 -0.0910178)
(3.85428 0.379396 -0.19636)
(4.58498 -0.322888 0.156263)
(8.47272 0.0115743 0.00608858)
(3.02281 3.02721 0.00403801)
(8.30868 -0.0190498 -0.0606633)
(8.4868 -0.00772884 -0.0171816)
(8.23767 -0.0720456 -0.132457)
(3.15918 -2.23517 -0.168931)
(2.89366 -2.8949 0.00138195)
(2.89062 -2.89067 -8.56836e-05)
(8.63376 -0.0274173 -0.00289689)
(3.53343 2.92883 -0.0380515)
(8.1988 0.0281483 0.0122855)
(3.28713 2.99564 0.041892)
(8.15425 -0.0174464 -0.0587509)
(8.38757 -0.0170541 0.00786492)
(8.2982 -0.0102444 0.0292724)
(8.60471 0.0212248 -0.00497003)
(3.0225 3.02251 -0.00100865)
(3.0092 3.00025 -0.00545859)
(3.08968 -2.8151 0.0138668)
(8.59043 0.0266199 0.00402813)
(3.03509 3.02644 -0.000704191)
(3.4986 3.00928 -0.133357)
(8.78158 0.164816 -0.139074)
(3.04046 3.03669 -0.00185889)
(3.01659 3.03142 0.00916314)
(2.87689 -2.86778 -0.00475948)
(3.03298 3.03391 0.000981375)
(8.20884 -0.00351383 0.0273374)
(3.0928 2.93741 0.00585308)
(3.03194 3.02881 0.00099567)
(6.96744 0.983599 -0.717183)
(3.54637 2.87002 -0.0392865)
(3.01718 3.01874 -0.0250653)
(4.16598 -2.45365 0.152329)
(3.02953 3.02589 -0.00330183)
(6.70817 0.0264813 -0.0587485)
(8.37205 -0.0141237 0.0213193)
(2.88203 -2.88239 -0.000233103)
(8.22868 0.00875848 -0.0220919)
(8.30844 1.34762 -0.18321)
(8.17746 -0.0790495 -0.131836)
(8.995 0.336932 0.00714691)
(8.09297 0.00679314 -0.01279)
(3.02851 3.00779 0.00948909)
(8.48791 -0.0790469 -0.0901038)
(8.79134 -0.0289419 0.0194119)
(8.17498 -0.0796166 -0.131983)
(2.891 -2.89162 -0.000490329)
(8.9114 2.33855 0.624393)
(8.18916 0.0118323 0.0122549)
(4.0338 3.22076 -0.190993)
(8.13247 0.00459431 0.00918097)
(8.87578 0.111447 -0.0843509)
(8.47262 0.171352 0.00933625)
(8.40338 -0.0246314 -0.0325544)
(8.40677 0.0279397 0.000994304)
(8.94685 0.132257 -0.04892)
(8.62435 -0.0143926 -0.0136673)
(8.54272 -0.0114607 0.00861896)
(3.00532 3.01677 0.0113722)
(3.01637 3.00144 0.00927722)
(8.24718 0.0220734 0.0113626)
(8.10966 0.00901226 0.0104635)
(3.0242 3.03143 -0.00127994)
(8.3627 0.00816773 0.000190011)
(8.75925 -0.040686 0.00568624)
(8.56408 -0.0202589 0.00734202)
(3.02959 2.99837 -0.00114037)
(8.44334 0.17115 0.0378568)
(3.02206 3.01955 0.000256617)
(8.54712 -0.0112554 0.00747978)
(8.5739 -0.0127272 0.00558298)
(3.02952 3.02802 -0.000451143)
(8.1939 0.0441851 -0.0216443)
(8.55125 -0.00900135 0.00121382)
(8.4089 0.15983 0.0143533)
(8.27252 0.00182523 0.033591)
(3.0916 3.03289 -0.00472281)
(8.64437 -0.023163 0.0251913)
(8.435 0.195096 0.00235865)
(8.89381 -0.207035 0.0575659)
(7.48781 0.097777 0.0259286)
(6.68704 0.0209449 -0.0942121)
(3.03135 3.0002 -0.0053872)
(3.02137 3.0186 0.00229062)
(8.2965 0.113934 0.0148345)
(3.03331 3.03363 -0.000888405)
(7.24544 -0.0205551 -0.0202984)
(8.33264 -0.044355 -0.0647551)
(5.08184 0.712914 -0.186863)
(9.23169 -0.591532 0.223413)
(8.14591 -0.364956 0.107991)
(9.06764 -0.323977 0.0894644)
(3.0326 3.03296 -0.0008161)
(4.11318 3.49328 0.0285644)
(8.6244 0.0210869 -0.00695956)
(2.87898 -2.89049 -0.00983862)
(1.59171 -1.11395 0.470394)
(8.53345 -0.162834 -0.126829)
(3.01933 3.01189 -0.0060025)
(3.03478 3.03116 0.000262512)
(7.62226 -0.148189 -0.00355632)
(6.23023 -0.403902 0.0860065)
(3.0337 3.0341 -0.000454568)
(7.71279 -0.144109 0.0257113)
(3.02067 3.01807 0.00145227)
(3.02941 3.03426 -0.00496143)
(2.8903 -2.89062 -0.000504964)
(2.89401 -2.8876 0.00584753)
(2.83629 -2.81198 0.00947441)
(2.88812 -2.88239 -0.00033733)
(7.70356 0.0637746 -0.0288448)
(3.0082 2.98795 -0.00359808)
(3.02838 3.02976 0.00104492)
(3.01213 3.02793 0.00522387)
(7.17351 -1.58331 -0.412662)
(8.12288 -0.0673727 -0.148493)
(7.86597 -1.6995e-05 -0.0812262)
(8.6252 0.0195784 -0.00759545)
(3.01403 2.99456 -3.38011e-05)
(3.04194 3.03074 0.000158383)
(8.26296 -0.141554 -0.172373)
(3.03175 3.03264 -0.00361919)
(3.02916 3.02603 0.000757804)
(4.82148 2.77609 0.10058)
(8.79684 -0.119555 -0.00407277)
(8.60808 0.0206052 -0.00639057)
(3.02785 3.02695 -0.000298742)
(3.02569 3.02042 0.00445451)
(3.01421 3.00582 -0.00383371)
(3.01917 3.0127 -0.000362825)
(3.03243 3.03112 -0.00325759)
(3.03928 3.03094 0.00174283)
(8.61325 -0.200893 -0.12665)
(3.03609 3.02732 -9.39891e-05)
(5.97627 0.0858307 0.201805)
(8.68832 -0.0200706 0.023148)
(3.02917 3.03352 -0.000819191)
(2.87075 -2.88241 -0.00785547)
(2.85104 -2.82206 0.0037555)
(7.28493 0.0864182 0.395462)
(2.8308 -2.82744 -0.0115542)
(2.88907 -2.89143 0.00288017)
(3.01221 3.01721 -0.0189966)
(7.80308 -0.122215 0.00746081)
(3.01962 3.01861 0.000137167)
(8.56274 -0.111954 -0.0704648)
(6.82842 0.111579 -0.0349752)
(5.62264 0.00672942 0.225897)
(3.02073 3.02301 0.000922806)
(5.86412 -1.5023 0.11907)
(8.63012 -0.015988 0.00296717)
(8.69315 0.0218015 -0.0222237)
(3.10558 -2.96474 -0.0338008)
(8.35676 -0.135526 -0.0221434)
(8.53141 -0.0161879 -0.00933695)
(2.89429 -2.87385 0.00281749)
(3.13064 2.9703 0.0142346)
(4.08435 -3.1472 -0.263072)
(3.01313 3.01235 0.000978103)
(8.62876 0.0167849 -0.00248151)
(8.62282 -0.0107522 0.0103529)
(8.76826 -0.105647 0.0442469)
(5.76598 -0.00667737 0.317009)
(3.03486 3.03319 -0.000349927)
(8.63153 0.0169121 -0.00390553)
(3.1101 2.95994 -0.0074375)
(3.78719 3.20401 -0.0131429)
(3.88874 -3.02675 -0.125486)
(3.02905 3.02941 0.00121323)
(8.652 0.0250611 -0.00542213)
(3.01964 3.01285 0.00189845)
(2.85996 -2.80813 0.0013389)
(7.88957 -0.108385 -0.197771)
(8.47111 -0.0190101 0.0101757)
(2.86206 -2.81503 -0.00755338)
(8.50834 0.0149319 -0.00463567)
(3.22719 3.15578 -0.0186844)
(8.64059 -0.0738041 -0.037907)
(2.84922 2.7255 0.0272636)
(3.0323 3.03394 -0.00123662)
(3.04487 3.03462 0.00996496)
(2.89446 -2.89514 0.000785969)
(8.36383 0.0129038 -0.0133111)
(7.4917 0.0159461 -0.0341111)
(8.66588 -0.0245349 0.186841)
(3.01661 3.01943 0.00190699)
(3.01192 2.95752 0.020424)
(8.31788 0.0156337 -0.0144294)
(3.03284 3.03296 -0.00115005)
(3.52069 3.18698 0.0443685)
(2.89156 -2.88967 0.000230153)
(8.27626 0.0528479 -0.00526024)
(8.81044 -0.217761 -0.064228)
(8.63005 0.0213397 -0.0088518)
(2.88729 -2.88156 0.00675137)
(6.83438 -0.0102597 0.191133)
(7.13489 0.00704495 0.183783)
(2.72386 2.40544 0.016818)
(7.71446 0.0991878 0.155665)
(3.03376 3.01787 0.00305665)
(8.14881 0.0760621 -0.00783608)
(8.7495 -0.014966 0.0511575)
(8.47738 0.00627544 -0.0150632)
(8.76007 -0.110603 0.0137335)
(8.04704 -0.176833 -0.248921)
(3.03212 3.02892 0.000716058)
(3.03238 3.03224 -0.000141582)
(3.02524 3.02943 -0.000186157)
(7.05697 0.069571 0.254755)
(3.0033 2.97661 0.00332779)
(8.56351 0.0362845 -0.0152592)
(2.89027 -2.89 -0.000233757)
(8.48371 -0.262834 0.181536)