/*--------------------------------*- C++ -*----------------------------------*\
  =========                 |
  \\      /  F ield         | OpenFOAM: The Open Source CFD Toolbox
   \\    /   O peration     | Website:  https://openfoam.org
    \\  /    A nd           | Version:  10
     \\/     M anipulation  |
\*---------------------------------------------------------------------------*/
FoamFile
{
    format      ascii;
    class       surfaceScalarField;
    location    "0.5";
    object      phi;
}
// * * * * * * * * * * * * * * * * * * * * * * * * * * * * * * * * * * * * * //

dimensions      [0 3 -1 0 0 0 0];

internalField   nonuniform List<scalar> 
214403
(
-0.000662675
0.000496578
3.40429e-05
0.000132055
-0.00029871
-0.00101292
8.97276e-05
0.0012219
-0.000952981
1.19775e-06
-1.05846e-05
0.000962368
0.000852683
-0.000554876
-0.00138283
0.00108502
0.00110985
-0.00137841
0.000337607
-6.90497e-05
-0.000468074
0.000506091
-2.23666e-05
-1.56504e-05
-7.02226e-05
-0.000150785
-0.000832944
0.00105395
-0.00152147
0.000870896
-0.000228091
0.000878664
-0.00209878
0.00151326
0.00149573
-0.000910213
0.00123845
0.000146393
-0.00139806
1.32124e-05
0.000455731
-0.000929065
0.000180518
0.000292816
-0.000911492
0.000281469
0.000468711
0.000161312
5.0848e-05
-0.00106253
0.00127497
-0.000263286
-0.000897434
0.000893247
4.18731e-06
0.00017749
0.001081
-0.00141083
0.000152343
-0.00106324
0.000869318
0.000283667
-8.97485e-05
-0.00105866
0.00102696
3.17044e-05
0.000356501
-7.23277e-07
-0.000100558
-0.00025522
0.00137666
-0.000814066
-0.00184348
0.00128088
-1.45554e-05
-0.000285159
5.889e-06
0.000293826
0.000600414
-0.00055024
-5.01735e-05
-0.00110487
-0.000394148
0.00038847
0.00111055
-0.000190034
0.0012131
-0.000983027
-4.00439e-05
0.000601512
6.68199e-05
0.000183959
-0.000852291
-0.000908776
-0.000429816
0.00117354
0.000165056
0.000888254
-0.00108775
1.91669e-05
0.000180327
0.000279379
-0.000255397
0.00094395
-0.000967932
0.000711642
0.000897536
-0.00110164
-0.000507536
0.000993903
-0.000607955
-4.17841e-05
-0.000344164
-0.000545966
0.000558979
-1.30124e-05
0.000236871
-0.000471015
0.00118227
-0.000948123
0.00124405
5.96123e-05
-0.000224251
-0.00107941
-0.000529668
-0.000513889
0.000540411
0.000503145
-0.00011129
-0.000585925
0.000499152
0.000198062
0.000356389
-0.000246798
-0.00091669
0.000807098
-0.000130165
0.000733325
-0.00026643
-0.00033673
0.00142217
-2.76304e-05
-0.00139454
-0.00061573
0.0012356
-0.000619869
7.94385e-05
-0.00128923
0.000775813
0.000433974
0.000211929
-8.03402e-05
0.00053897
-0.000670559
0.000483239
7.25338e-06
-0.000490492
0.000883797
-1.53027e-05
0.000165811
-0.00103431
-0.00117495
0.000146397
0.00124048
0.000102257
8.7071e-05
0.000747929
-0.000937257
-0.00032847
-0.00240488
0.00228182
0.000451533
0.000574952
0.000100673
9.13466e-05
-0.000766971
0.000379169
0.000285647
-0.000928392
0.000263576
0.00117988
0.000696792
-0.00127516
0.00010869
0.000975875
-0.000200768
0.000155221
-0.000630572
-0.000373134
0.000848485
0.000325034
0.000428833
0.000115155
-0.000869021
0.000170613
-0.000127187
-0.000381949
0.000338523
0.000686855
-0.0012169
0.000855077
0.00105052
-0.000999586
-0.000337944
0.00028701
0.00100894
-0.000166862
-0.000795477
0.00104113
-2.9607e-05
-0.000216047
0.000771942
-0.000999612
2.91372e-05
0.000198533
-0.000785847
0.000104084
0.00120377
-0.00052201
-0.00145703
-0.00144393
0.00120452
0.00169644
-0.000713706
0.00071782
0.000139181
-0.000143295
0.000122867
-0.000916913
-0.000840805
-1.50509e-05
0.00040795
0.000447907
-0.0013048
0.000547274
0.000822487
-6.49572e-05
0.00137574
-0.00107898
4.84633e-05
-0.000345224
5.68572e-05
4.04268e-05
-0.000929143
0.000831859
5.04781e-05
-0.000277785
0.00136712
-0.00113981
-0.00327073
0.000429577
0.000343918
0.00249724
-0.000273001
0.000823245
-0.00025068
-0.000299564
0.000494795
-0.000244826
-0.000991702
0.000741733
0.000117694
0.000731504
-0.000918476
6.92781e-05
-1.45047e-05
0.000785109
0.000282815
-0.00105342
-0.000168487
-3.80331e-05
-0.000335711
0.000542231
-0.000857283
0.000939112
-2.31056e-05
-5.87229e-05
4.48923e-05
-0.0008549
-0.000586544
0.000533401
0.00015777
-0.000104628
-0.00150659
-9.25659e-05
0.000727997
0.000871154
-0.000448422
-0.000188905
0.000368228
0.000269099
0.000653812
-0.00221761
0.000290241
0.00127356
-0.000373327
0.000713073
-0.000371971
3.22248e-05
0.000485489
-0.00038892
6.62098e-05
-0.000162779
2.20618e-05
-0.000979073
0.000957011
6.75206e-06
0.000768403
-0.000775155
0.000693594
-0.000162139
9.39597e-05
-0.000625415
-0.00041401
0.000606604
0.000206084
-0.000398679
-0.000300363
0.00129467
-0.000337142
-0.000657165
0.000628823
-0.00110042
-1.26558e-05
0.00048425
0.000733284
0.000673973
-0.00140726
0.000978068
-0.00109505
0.000288568
-0.000171582
4.16259e-05
-0.000186885
0.00136433
-0.00121907
4.95183e-05
-0.000207978
0.000926508
-0.000768049
0.000233317
0.00181361
0.000452756
-0.00249968
-0.00167265
0.00141929
0.000952327
-0.000698971
7.61785e-05
0.000659409
-0.000857098
0.00012151
0.000819757
0.000910347
-0.000286046
-0.00144406
0.00142557
-0.00088059
-1.80188e-05
-0.00052696
7.66649e-05
-0.000208419
-0.000589184
0.000720938
-0.000613376
-2.12332e-05
0.000634609
0.000891529
3.04956e-05
5.60429e-05
0.00119723
9.50699e-05
-0.00171029
0.000417993
-0.000918636
0.000178804
0.000164714
0.000575118
-0.000581505
0.000145591
6.22728e-05
0.000373642
9.70631e-05
0.000132954
-0.00115063
0.000920611
-0.000257561
-0.00143016
0.000916596
0.00077112
0.000568022
-0.00066699
-0.000443309
0.000542277
0.000899781
-2.1686e-07
-0.00089393
-5.63406e-06
0.000701832
-0.000971133
-0.000313462
0.000582762
0.00179035
-0.00055555
-0.000343801
-0.000890998
0.000970082
7.82191e-06
-0.000901151
-7.67528e-05
-0.000572397
0.000666485
0.00136958
-0.00146367
0.00123999
-0.000335914
-0.00120389
0.000299823
0.000228992
-0.000335022
0.00134975
-0.00124372
-0.00141437
0.00129623
0.0012111
-0.00109295
6.26897e-05
-0.00120719
0.000455535
0.000688969
0.00148119
-7.26606e-05
-6.2794e-05
-0.00134573
0.00108072
-0.000202266
0.00020425
-0.00108271
-0.00127366
-0.00118719
0.00138701
0.00107385
-0.000216842
0.000665342
0.000184381
-0.000632881
-0.000483679
1.4691e-05
0.000929891
-0.000460903
-0.000106662
0.00125346
-0.00114011
-6.67951e-06
-0.00115312
0.00110055
0.000211147
-0.000158571
-1.26144e-05
-0.00064086
0.00154173
0.000176979
-0.000630608
-0.000463875
0.000917504
-0.000502174
9.6036e-06
0.000492571
0.00019331
0.000697454
-0.000663684
-0.000227079
0.00119772
-0.000715402
-0.000170066
-0.000312251
2.71285e-05
-0.000382465
0.000355336
-0.000666268
-0.000185526
0.000258764
0.00059303
7.27952e-05
0.000420495
-0.000924491
0.000431201
0.00157839
-8.31428e-05
0.000549244
-0.00204449
4.34434e-05
-0.000169175
-0.0016688
0.00179453
0.000128864
-0.000467675
-0.00067605
0.00101486
2.60592e-05
0.000898671
-3.32005e-05
-2.31767e-05
-0.000491171
0.000514348
0.00112161
-0.000461497
-0.000483129
-0.000656477
0.000548528
-0.000558319
0.00117611
-0.000994698
-0.000112667
-6.87469e-05
0.00012986
-0.000588315
0.000262173
0.000196282
-0.000947124
-0.000306141
0.000202307
0.00105096
0.000803278
-0.00132552
0.000904987
-0.000382745
-2.58268e-05
0.00125525
-0.00125158
2.2163e-05
5.02971e-06
0.00136988
-0.00138224
7.33337e-06
-0.00146969
0.00119721
-0.000961778
0.00123425
0.0012569
-0.00122923
-2.76736e-05
-0.00121163
0.00161382
-0.000282179
-0.000120014
-0.0010562
0.000269323
-6.75229e-05
0.000854397
-0.00172964
0.000125584
0.00110607
0.000497986
0.000308378
-0.000404341
0.000225824
-0.000435351
0.000469541
0.000830822
-0.000865012
-0.000431385
-0.000205223
0.00025351
0.000383098
-0.000620235
0.000398032
-0.000769451
0.000991654
0.000161759
3.81067e-05
-0.0014115
-0.000602627
0.000617785
-1.5158e-05
0.00100185
-0.000978385
-2.3468e-05
-0.00100531
-6.0311e-05
-0.000270129
0.00018541
-0.00128575
0.0014468
-0.000346461
0.000554271
0.0010362
-0.0012884
-0.000302074
0.00110647
-0.00121335
4.11826e-05
6.57032e-05
0.000635354
0.000165404
-0.000657211
-0.000143547
-0.000956891
-2.41361e-05
0.00116644
0.000586799
-4.32835e-05
-0.000704841
0.000161325
0.00066623
-0.000530355
0.000622758
-0.000758633
-0.00105406
0.00016074
0.00144759
-0.000383694
-0.000497627
0.00164607
-0.000764752
-0.000466556
-0.000557917
6.75817e-05
9.07789e-05
0.000465307
-0.00102264
-0.000797048
-6.50566e-05
0.00125195
-0.00038985
0.000100259
0.000231482
0.000637714
-0.000969455
-0.000337903
0.000842565
-0.000504661
0.000126395
-0.00120946
0.000525152
0.000734219
0.000520798
-0.00116424
-0.00115179
1.41019e-05
0.00140864
-0.000270951
0.000171047
0.000178011
0.000549171
-0.000898229
0.000921058
-0.00089998
-2.10778e-05
0.000231415
-0.000139063
0.00104715
-0.0011395
0.00100033
-0.000315685
0.00047852
-0.00116316
0.00189903
-0.000613323
0.00145822
-0.00274392
0.000316041
0.000568208
-0.000227667
-0.000656583
-0.000847574
0.000345058
0.000455358
4.71581e-05
0.00062853
-0.000477824
-1.99291e-05
-0.000130778
-0.000355717
-0.000509391
0.00142048
-0.00055537
-0.000658157
0.000873314
0.000346259
-0.000561416
0.00108412
-6.68802e-05
-0.000351005
-0.00158261
0.00104997
-8.75919e-05
-0.00148599
0.00140104
0.000609311
-0.000524362
0.000920494
-0.00105224
-0.000135105
0.000266848
0.000555813
-0.000997086
-0.000513482
-0.00057574
-0.000539508
0.000298019
0.000817229
-0.000799667
0.000258717
0.000803197
-0.000262246
0.00106632
-0.00100739
-0.000709058
0.00065013
4.77997e-06
5.64013e-06
-0.000885298
0.000874878
1.76523e-05
-0.000814617
-2.47946e-05
0.00082176
-0.000233238
-0.00127249
0.000208652
-0.000777889
0.000683174
-0.000113937
-0.000517195
-0.000198984
-8.34884e-05
6.21127e-06
0.00120808
2.4164e-05
-0.00302684
0.00214429
0.00151409
-0.000631538
-0.000910769
5.93663e-05
1.84336e-05
0.00083297
-0.000228313
0.00282954
-0.00332841
0.000727192
0.000155045
0.000213746
-0.000495726
0.000126935
-0.0019987
0.00106087
0.0001403
0.000797527
-2.41408e-05
-0.00132173
-0.000205337
0.00155121
-0.000489835
0.00195396
-0.00137098
-9.3143e-05
0.00084264
0.00127049
-0.00112976
-0.00098337
-0.00104095
0.00097941
0.00121308
-0.00115154
0.000415109
0.000551703
-0.000708015
-0.000258796
0.000422482
-0.000269503
-0.000670174
-0.00200135
-0.00011406
0.00165631
0.000459099
0.000602792
0.000110064
-0.000367797
0.000625758
0.00086408
-0.000785044
-0.000704794
-0.00102845
0.00024434
0.000980863
-0.000196748
9.01081e-05
0.000351616
0.0011721
-0.00123391
0.00120172
0.000117861
-8.56728e-05
0.000755303
0.000573368
-0.000528965
-1.69532e-05
-0.000161434
0.000707352
-0.000795538
-0.000179656
0.000515837
-0.00151427
0.000599544
0.000398889
3.57547e-05
0.000799211
-0.000883491
4.85255e-05
-0.000324768
7.41209e-05
-0.000299471
0.000550118
0.0013087
-0.000927863
4.16475e-05
-0.000702451
-0.000577105
0.00075798
0.000521577
0.00262064
-0.00282266
0.000929144
-0.000727122
-0.000553319
0.000686224
0.000268678
-0.000401582
-0.00132019
0.000562083
0.00115577
-0.000397665
-0.00054936
0.000742843
0.000946547
-0.00114003
0.00145068
-0.000597932
-0.000932961
8.02162e-05
5.3126e-06
-0.000332308
0.000871135
-0.000544139
-0.00015824
8.67418e-05
-0.00108029
0.00100777
0.000309797
-0.00109541
-0.000222162
0.00140353
-0.00115029
-0.000277372
0.000266708
0.000417872
-0.000947601
0.000263021
-0.000548168
-0.00101336
0.000928283
0.00063325
-0.000168131
-0.000436007
-9.8314e-05
0.000534626
-0.000573808
0.00122534
-0.00118616
0.000137053
-0.00148098
0.00134393
0.000506756
-0.000671208
0.00043116
0.000296581
0.000164301
0.000224901
-0.000685783
2.7758e-05
-0.00128066
0.0012529
-0.00069622
9.51737e-05
-0.000245324
0.00084637
-8.81095e-05
0.00102299
-0.000922688
-1.21933e-05
-0.000653124
-0.000351344
0.000376235
0.000628234
-0.000235937
-0.000585318
-0.000524192
-0.00079766
0.000658963
0.00066289
4.91908e-05
-0.00080932
0.0013437
-0.000517325
-0.000103764
-0.000722614
0.000990729
-0.000147486
-0.000709542
-0.000133701
-0.00010847
0.00100034
-0.00122525
0.000333376
0.000629405
5.24972e-05
0.000306075
-0.000987977
-1.45006e-05
-0.000567585
0.000277419
0.000304666
-0.000380043
0.000480029
0.000898994
-0.00099898
-0.00127732
-0.000379268
-0.00033309
0.00121911
-0.00120847
2.97243e-05
0.000364876
0.000813866
0.000116274
-0.000412755
-0.000712865
0.00100935
-0.000542116
-0.00106865
0.000271707
0.00133906
-0.000513189
-0.000527733
0.000545924
0.000494999
-0.00120755
0.00116
0.00121674
-0.0011692
-0.000168214
-0.000306891
-0.000893036
0.00136814
-0.00120279
0.000159046
0.00126807
-0.000224329
-0.000226565
0.000545982
-0.000319417
-0.000518467
0.000973504
-0.000716542
0.000261505
-4.7547e-06
0.00162474
-0.000622668
-0.000997315
-0.000590658
-0.000287883
0.00115145
-0.000272913
0.000189933
-0.000496359
0.00108928
-0.000782855
5.65549e-05
0.000748213
-0.000127323
5.1239e-06
-0.0012092
0.00121307
-8.99644e-06
0.00140525
-0.000217657
-0.00209253
0.000904943
-0.00131094
-0.000107459
0.00162605
-0.000207645
-0.000701851
0.00107319
7.77128e-05
-0.000449053
0.000832083
-0.00084525
1.3168e-05
-0.000694969
7.51442e-05
-0.000581164
0.00120099
-0.00104084
0.00145418
-0.000308271
-0.000105076
0.000646032
-0.000261692
-0.000800055
0.000415715
-0.0012252
0.00123987
-1.467e-05
0.00104374
-0.00150648
9.86292e-05
0.000364111
-0.00115837
-0.000315466
0.00198145
-0.000507618
0.000847766
-3.72753e-05
-0.000187213
-0.000623278
-0.000487849
-0.000806545
0.00182902
-8.22237e-05
-0.00121892
0.000727339
0.00183119
-0.00209221
-0.00016821
0.00042923
0.000508526
0.000251608
-0.000589086
-0.000890711
0.000888857
1.85504e-06
-0.000217945
0.00123142
-9.24035e-05
-0.000921072
-0.000261225
0.000298274
0.0010488
-0.00108585
0.000683368
0.00170859
-0.000981754
-0.00141021
0.00126617
-0.00150832
0.000483997
-0.000241855
0.00107332
2.16803e-05
-0.001095
1.30227e-05
0.00102325
-0.00103627
0.00118855
-0.00143285
0.00128803
4.13632e-05
-3.67195e-05
0.00103822
-0.00104286
-4.1192e-05
0.00186329
-0.00186633
4.42344e-05
-0.000144183
-0.000424482
-0.000860208
0.00142887
-0.000551562
-0.000308884
0.000124935
0.000989188
-0.0017467
0.000632574
-0.000905709
-0.000212078
0.000943713
0.000174075
-0.00107567
0.00119656
-0.000338151
0.000217254
0.00017105
0.000815517
-0.000275038
-0.000711529
-0.00035531
7.24273e-05
0.000669245
-0.000386362
8.45899e-06
0.000317193
-0.000417367
9.1715e-05
-0.000452735
0.00100717
-0.00054418
-1.02583e-05
0.00028848
-0.000952184
-0.000561492
9.40768e-07
-0.000886206
0.000885265
-0.000366298
-0.000326734
0.000149137
0.000543894
0.00053112
-0.000294072
-0.000237049
0.00125735
-0.00126188
-0.000255126
0.000259658
-0.000102749
-0.000777579
0.000704772
0.000175556
8.63336e-06
2.212e-05
0.000686106
-0.000716859
0.000317524
-0.000262999
-0.00110478
0.00105026
0.000831245
-5.20027e-05
-0.000779242
-0.00121163
-0.000787349
0.00117497
0.000824009
0.000681516
0.00105267
-0.00181641
0.000665445
-0.000227727
0.000354329
-0.000792047
-0.000251214
0.000239704
-0.00150634
0.00151785
0.000393032
-0.000766511
-0.000752412
0.00112589
-6.76754e-05
-0.000194944
0.000857651
-0.000595031
0.000576168
-0.000721439
0.000278126
-0.000132855
0.000311879
-0.000558809
-0.000514363
0.000761293
-0.00108233
0.00121165
-0.000319576
0.000190257
0.00123944
0.00163695
-0.00179664
-0.00107975
-0.000946467
0.000961355
-1.48877e-05
-0.000148805
0.00105107
-0.00127832
0.000376056
1.03946e-05
-3.6802e-05
-0.0012473
0.00127371
0.00107161
7.01675e-05
-0.00124274
0.000100961
-0.000462399
-0.00076706
0.000970496
0.000258964
-0.00100312
0.00148941
-0.000638366
0.000152076
-0.000432398
-0.000519382
0.000321172
-6.52026e-05
-1.64822e-05
-0.000715311
0.000796997
-0.00242423
-1.55972e-05
0.000225852
0.00221398
0.000101442
-0.000612628
-0.000332928
0.000844115
0.0015625
-0.000109128
-0.000538669
-0.000914703
-0.000277406
-0.000616757
0.00015102
0.000743144
0.000468315
8.36765e-06
-0.000476682
0.000704571
0.000358119
-0.000230456
-0.000832233
0.000551221
-0.000423585
0.00109832
-0.00122595
3.69354e-05
0.00110055
-0.000360852
-0.000776634
0.000317334
0.000423659
0.000821507
-0.000574762
1.85407e-05
0.000556221
-0.000725724
0.0001078
0.000194884
0.000109072
-0.00100222
0.000698267
-0.000894722
0.00133682
0.000422811
0.00140718
-0.000275243
-0.00155474
-0.000869089
0.000886037
-0.00141304
0.00139609
-0.00013934
-0.000691802
0.00026089
0.000570253
-0.000732371
0.00146565
0.000443769
-0.000525156
0.000134388
-5.30014e-05
-0.000457801
-0.00143194
0.000446861
0.00144288
0.000964992
-0.000934112
-1.47289e-05
-1.61507e-05
0.00077536
-0.000916441
0.000163933
-2.28525e-05
0.000190758
0.000764601
-0.00137213
0.000416767
3.28607e-05
0.000669193
-0.000702054
0.000439552
-0.00111369
0.000864898
-0.000434512
0.00117905
0.000972548
-0.00171708
0.000263328
-0.000312117
-0.00149363
0.00154242
-0.000400555
0.000723689
-0.0014894
0.00116626
-0.00109989
0.000855121
0.00114053
-0.000895761
-0.000666779
0.000917903
-0.000601176
0.000350052
-0.000143256
0.000662533
9.9492e-05
-0.000618768
0.000306979
-0.000447939
0.000452153
-0.000311193
0.000624537
0.000261351
0.000244512
-0.0011304
0.00168354
-0.00115141
-5.32307e-05
-0.000478898
-8.47922e-06
-0.000829232
0.000837711
0.000491992
-0.000729182
-0.00232729
0.00256448
-0.000106778
-0.00109723
-0.00033993
0.00154394
-7.21751e-05
-0.000529104
0.000601279
0.000181208
0.000742895
-0.00012931
-0.000794793
-0.000205499
-0.000730276
0.000569244
0.000366531
0.000626683
-0.000538716
-0.000928772
0.00146828
-0.00113551
0.000346335
0.000380231
-0.000726566
0.00115703
-2.37947e-05
-0.000139229
-0.000994003
-0.000206238
-0.000382666
0.000588904
0.000362232
0.000278489
0.00226375
-0.00272976
-0.000927768
0.00139378
0.000308329
0.000766114
-0.000550802
-0.00052364
-0.000802241
0.00154329
0.000976903
-0.00171795
0.00095007
0.000329995
-0.00013847
-0.0011416
0.00152318
-0.00104759
0.000602946
-0.00107854
-0.000852401
0.000403573
-0.00117179
0.00162062
-0.00134206
0.00241285
-0.00099893
-7.18603e-05
-7.67166e-05
-0.000526337
-0.000818152
0.00142121
0.00113046
0.00046138
-0.00130771
-0.000284138
0.000627321
-0.00164115
0.00100142
1.241e-05
-0.0013672
-5.91583e-05
0.000894831
0.000531524
-0.000302458
0.000770839
0.000340218
-0.000808598
-0.00016003
0.000687944
0.000559649
-0.00108756
-0.00148617
0.000760448
-5.22579e-05
0.000777984
0.000112112
-0.000371804
0.000746869
-0.000487178
0.000636889
-0.000318631
0.000209724
-0.000527983
0.000680103
0.000145979
4.63041e-05
-0.000872386
-0.000805013
0.000906968
0.000343204
-0.000445159
-0.00021409
0.0010987
1.89709e-05
-0.000903576
0.000864377
-0.000496512
-0.000333213
-3.46522e-05
0.000789299
-2.3311e-05
-0.000765988
0.000543682
0.000423993
-9.70696e-05
-0.000870605
0.000271924
0.000656901
0.000587915
-0.00151674
3.15116e-05
-0.00127386
0.00124234
-0.000660482
0.00260172
-0.000394043
-0.0015472
-1.79556e-05
0.000914827
-0.000896871
-4.82207e-05
-0.000662023
0.000127584
0.000582659
-0.00119396
0.000617552
0.000458484
0.000117921
0.000244318
0.000217056
-0.0014276
0.000966224
0.000738697
0.00118643
-0.000415809
-0.00150932
0.00109907
-0.000375004
-0.00104094
0.000316865
-0.00141298
0.000798113
0.00223561
-0.00162074
2.30496e-05
0.000575634
-0.000589033
-9.65167e-06
-0.000562808
0.000588543
-2.57357e-05
-0.00140934
1.11505e-05
0.000595946
0.000124157
0.000346959
0.000946726
-0.00141784
0.000682154
-0.000848154
0.000597271
-0.000431271
-0.000718192
0.000597871
1.57112e-05
0.00010461
-0.00013604
-0.00114557
0.0015033
-0.000221694
-0.00053771
0.000243877
0.000846764
-0.00055293
0.000897471
-0.000349176
0.000125171
-0.000673466
-0.000590056
-9.94411e-05
0.00069815
-8.65244e-06
-7.96985e-05
-2.97806e-05
0.0010257
-0.00091622
0.000115611
-8.96939e-05
0.000917182
-0.000943099
-0.000924172
0.00128359
-0.00136872
0.0010093
-1.39369e-05
-0.00108282
0.00109676
-0.000439069
1.10125e-05
0.00106401
-0.00063595
-0.000733561
0.000870468
-0.00124055
0.00110364
-0.000761145
7.65611e-05
0.000220708
-0.000350132
0.000993942
5.96484e-05
-0.000703458
-0.000249517
2.4784e-05
-0.000431744
-0.000377192
-0.00125968
0.00127719
0.00035968
-0.00056752
-4.91522e-05
-0.000176224
0.000792897
-0.00187402
0.000653385
0.000205437
0.0010152
-0.000631276
0.00141307
-0.000677561
-0.000104231
0.000420852
0.000178512
-0.000848881
0.000820321
0.00085693
-0.00167725
0.000148509
0.00176278
-0.000497688
-0.0014136
-1.12374e-05
-4.16716e-05
-0.000843344
0.000896253
-0.000848129
0.00137338
-0.00054038
1.51281e-05
0.000802651
-0.000512905
-0.000720693
0.000430947
0.000216108
-2.49588e-05
0.000260439
0.00140997
0.00035773
-0.00197165
0.000203951
-0.00103421
-0.000107827
0.000316395
0.000825646
0.000324916
-0.00036433
-0.000479968
0.00148718
-0.00103622
0.000803074
-0.00125404
-0.000153181
0.000961644
-0.00168919
0.000880731
0.000580929
-0.000746019
-6.94029e-05
0.000234492
-0.000684666
-0.000233249
3.75655e-05
0.000880349
-0.000487783
-0.000455961
0.000943744
0.000117751
-0.00124789
0.00111012
2.00283e-05
0.000523175
-0.000491257
-0.000519702
-0.00132595
0.00165846
-0.000303111
-2.93965e-05
0.00122588
0.000334314
-0.00131733
-0.000242866
-0.000707369
-0.00127055
-0.000187426
0.00216535
0.000789091
-0.000260266
0.000904609
-0.00143343
-0.000924692
5.19891e-07
-0.000972307
0.000516346
0.000129557
-0.00110779
0.000319579
0.00065865
0.000325235
-0.00120971
0.000674235
0.000210241
0.000236238
3.5921e-05
-0.00108156
0.000809399
0.000148906
0.000563783
-2.9991e-05
0.00101431
-0.000217628
-0.000766692
-0.000387641
-2.6122e-05
-0.000378524
0.000792286
-0.000230309
-0.00032601
0.000608399
-5.20799e-05
-0.000893447
-1.5329e-05
-0.0015438
0.000549872
0.000833897
0.00222189
-3.96566e-05
0.000300498
-0.00248274
-0.00107119
0.0015961
0.000337822
-0.000862728
-0.000300341
0.000139933
0.000949466
-0.000789058
0.000113413
0.000315963
-0.000246312
-0.000183064
-0.00165178
-0.000353253
0.00142249
0.000582545
3.0966e-05
0.000734502
-0.000138786
4.41702e-05
0.000332329
-0.00108789
0.000711394
-0.000698128
1.2358e-05
0.000263042
0.000422727
-0.000975554
0.00114737
-0.000140851
0.000545377
-0.000460003
-8.53744e-05
-0.000801035
4.77529e-05
-0.000605933
0.00135922
-0.000378764
0.000544727
-0.000424136
0.000258172
-0.000813102
0.0008977
-0.000370978
0.00028638
0.000370779
-8.61726e-05
-0.000792281
0.000507675
-0.000325261
0.00226664
-0.0029445
-0.000276171
-0.000200428
0.000182924
0.000293675
0.00102979
-0.00162288
-4.29563e-05
0.00063605
-0.000403579
0.000297536
0.000554938
-0.000448895
-0.000137294
0.000678711
-0.000207857
-0.00033356
-0.000769254
0.000186426
0.000176174
0.000406654
-0.000450137
2.62706e-05
0.000423866
0.000964808
-0.000456204
-0.000479849
-2.87545e-05
8.29103e-05
0.000492685
-0.000760652
0.000185057
-0.000508031
-0.000603395
0.000626039
0.000485387
-0.000315935
0.000769334
-0.000640063
0.000186664
0.000264076
-0.000467331
0.000319965
-0.000116709
0.000968646
-2.80635e-07
-0.000968365
0.000788637
-0.000959467
0.000457627
-0.000286797
-0.0011545
5.15349e-06
0.00114934
0.00046612
-0.00040935
0.000114217
-0.000170987
-2.34811e-05
0.000985826
-0.00109821
0.000135861
-0.000452605
0.000584655
0.000132026
-0.000543446
0.00104098
0.000991872
-0.000823424
0.000823099
3.25138e-07
6.71623e-06
-0.00130158
0.00129487
0.00176587
0.000200198
-0.000381481
-0.00158459
0.000399095
-0.00136116
-0.000215453
0.00117752
0.000250972
0.000325993
0.000189905
-0.00076687
-0.00049113
-0.000473479
3.93821e-06
0.000960671
-0.000229427
0.000312119
-0.000573822
-0.00109289
0.000201768
0.00142597
-0.000534844
-0.00210443
0.00154604
0.000694038
-0.000135647
0.000937999
-2.16787e-05
-0.00091632
-0.000538568
-0.000760638
0.000474865
0.000824341
-0.000535928
-0.000788524
0.000231558
-0.000736695
0.000397532
0.00048807
0.000325319
-0.000422496
-0.000744526
0.000841703
-0.00051814
-7.21478e-06
0.000525355
-0.001192
0.000497768
0.000480637
0.000213599
0.000321943
-0.000797792
-0.000260847
0.0010443
-0.000317545
-2.25281e-05
-0.00070423
-0.000707641
0.00114986
0.000659434
-0.00110166
-0.000232643
-0.000462316
0.000193232
0.000501726
-0.000284671
-0.000244914
0.000529585
-0.000526464
-0.00108192
-0.000496048
0.000252965
1.4147e-05
0.000487595
-0.000754707
0.000999941
-0.000707043
-0.00103749
0.000744595
-0.00038353
0.00013881
0.000746316
-0.000501596
0.000701634
-0.000490049
-4.25333e-05
-0.000169052
-0.000805022
0.000146125
0.000627071
3.18263e-05
-0.000509153
0.00113427
-0.00124472
0.000509379
4.1673e-05
0.000693671
0.00164353
-0.00116742
-0.000961054
0.000484942
-0.000889318
0.000201921
0.00168734
-0.000890256
-0.000593224
0.000975172
0.000508308
-9.68186e-05
0.000972295
-0.000357073
-0.000518403
5.78738e-05
-0.00065516
-0.000403268
0.00100055
0.00109467
-0.000711603
-3.87551e-05
-0.000344315
0.00032617
0.000249187
-0.000804784
-0.000225111
0.000267097
0.000609814
-0.0006518
-0.000165417
0.000947881
-0.00120355
0.000421088
-0.000597777
0.000163668
0.00012857
0.000305538
-0.00140215
0.00137903
2.31139e-05
0.00116344
-0.0011493
-1.41384e-05
0.000372584
-0.0014353
-0.000570184
0.0016329
0.000296623
0.000595261
0.000152419
-2.73313e-05
0.000528724
-0.000501392
0.000938968
0.000831621
-0.00177059
-0.000966797
0.000597279
0.000402682
-3.31631e-05
-0.000534369
0.000169839
0.000426733
-6.22031e-05
-0.00155952
0.000708251
0.000867922
-1.66509e-05
-0.000504874
-0.000562179
0.000548913
0.000958841
-0.000161544
-0.00058923
-0.000208068
-0.000880884
0.000961536
-0.000589805
0.000133005
-0.000956097
-3.76095e-05
0.000860702
7.50737e-06
-0.000486796
0.000479289
0.00217927
0.000137977
0.000157912
-0.00247516
-9.27624e-05
-0.000232235
-0.00131176
0.00163676
0.000410579
-0.000596014
-0.000235527
0.000420961
0.000128881
0.00119207
-0.000462563
-0.000858391
0.00132216
-0.00131461
1.21143e-05
-1.96663e-05
-0.000733268
-0.000672221
0.00104951
0.000355983
0.000430185
0.000320072
-0.000855213
0.000104956
8.79798e-06
0.000813202
-0.000823692
1.693e-06
-0.00106677
0.000339407
0.000865648
-0.000138287
0.000828905
0.000521827
-0.000866915
-0.000483818
2.48523e-05
-0.000749322
0.000348709
-0.000196476
0.00116992
-0.000606765
-8.92385e-05
-9.18054e-05
0.000787808
-0.00112264
1.46208e-05
0.00110802
0.00143699
0.000659411
-0.000464525
-0.00163187
-0.000990059
2.0206e-05
0.000994706
-0.0001014
-0.000236837
-0.000574445
0.000912682
-0.000101563
-0.000127174
-0.000314243
0.000542981
0.000262832
-0.00127634
0.000959
5.45116e-05
0.000969762
-0.000123885
-0.000960313
0.000114436
-0.000938976
0.000210986
1.94873e-05
0.000708503
-0.000367186
0.000257591
-0.000517251
0.000626847
0.000207173
0.000146447
-0.0012468
0.000893177
4.26429e-05
-0.000898582
-4.93462e-05
0.000905286
0.000818808
0.000120218
-2.78663e-05
-0.00091116
-0.000972852
0.000227396
0.000842519
-0.000728484
-0.000960769
0.00168925
0.00141184
-0.000697465
0.000303137
-0.00101751
0.000125638
0.000769135
-0.000484194
-0.0011577
0.00031591
0.000275628
0.000566158
0.00135314
-0.0014057
5.25613e-05
-0.000844435
-0.000288227
0.000607019
0.000525643
-0.00124105
-0.000954751
0.000641635
0.00155417
0.00115275
-0.0011933
-0.0001181
0.00015865
-0.00020546
0.000541983
-0.000409591
7.30687e-05
-0.00141603
0.000437709
0.000346171
0.000632153
-0.00208155
0.002475
0.000486195
-0.000879644
0.000870618
-0.00205637
9.00685e-05
0.00109568
-0.000836446
0.00107046
-0.00196787
0.00173385
-0.000888001
0.00192424
0.000166298
-0.00120254
5.26086e-05
0.000903336
-0.00020521
-0.000750735
0.00137589
-0.00103258
-2.29861e-05
-0.000320324
-0.000243003
-0.000203485
0.000337074
0.000109414
-0.000635844
-0.00130222
0.00111577
0.000822292
-0.000906632
0.00121281
0.00106972
0.000814079
-0.000567394
-0.000768292
0.000521606
0.000266445
-0.000377829
-0.000135482
0.000246866
0.000591671
-0.00060697
-0.000783721
0.00079902
-0.000254242
0.000689219
-5.8151e-05
-0.000376826
-0.000980014
-0.00017396
0.00120658
-0.000757435
-0.000196147
0.000932065
2.15173e-05
0.000322902
-0.00070129
0.000378388
0.000251532
-0.000313301
0.00118819
-0.00112642
0.00102522
-0.0014387
0.000213464
0.000200012
0.000627382
-0.000666606
3.92236e-05
-0.000917545
1.09132e-05
0.000840348
-0.000347077
-0.000795854
0.000302583
0.000265299
0.000211852
0.000942882
-0.00142003
0.000591893
-0.000687511
9.56176e-05
-6.39206e-06
0.000734105
-0.000832849
0.000105137
-0.00102992
-9.07859e-05
0.00137224
-0.000436713
-6.68575e-05
0.000104252
0.000399318
6.16863e-05
-0.000478561
0.0003838
3.30748e-05
0.000847747
-0.000848122
-0.000205086
9.89953e-05
0.00143098
-0.000905774
-0.0006242
-0.000511161
0.00104482
-0.000533659
-0.0013343
0.000481989
-0.000264791
0.00111711
0.0010606
-0.000941004
-0.00153563
-0.000502744
-0.000638094
0.00217677
-0.00103594
-0.00141114
0.000890083
0.00133982
-0.000818762
-1.19763e-05
-0.00129823
0.0013102
0.00194399
-1.51249e-05
-0.00113624
-0.00079263
0.00112283
-0.000711716
-0.000132309
-0.000278808
-0.000799523
0.000539837
-0.000118683
0.000378369
-3.54049e-06
-0.000950388
0.000953928
-0.000614027
0.000628698
-1.46711e-05
-0.000450355
-0.000453516
-0.00118823
0.0020921
-0.00112239
0.000247833
-0.000129943
0.0010045
0.000250246
0.000487764
0.00123821
-0.00113011
-0.000920468
0.000812374
-0.000299661
-0.000692362
0.000757791
0.000234233
-0.000664196
-0.000356194
0.00102022
1.7115e-07
0.000259499
-0.00015048
-0.000690815
0.000581798
0.000749578
2.70498e-05
-0.000950442
0.000173815
0.00024157
-0.000156188
0.000264094
-0.000313183
0.000290853
-0.000241764
0.000605689
0.000580784
-0.000605239
-0.000581235
0.000343301
0.000834087
-0.000871359
-0.000306029
0.000656887
0.000268626
-0.000504662
0.000819228
-0.00096065
0.000168472
-0.00110622
0.00075155
0.000445681
-9.10069e-05
0.0013013
-0.00043874
-0.00137372
-0.000317846
0.000919029
0.000459423
0.000886514
-0.00042348
-0.000741107
-0.000235091
-0.000130026
-0.00119331
0.00110128
9.47941e-05
-2.75851e-06
-5.78887e-05
0.00150189
-0.000142378
-0.00130162
-0.000983327
0.000221821
0.00044366
-0.000185421
-0.000959291
0.000287642
0.000857071
0.000883389
0.000113347
2.20968e-06
-0.000998946
-0.0014241
2.09405e-05
-6.28955e-06
0.00140945
-0.000348621
0.000395067
-0.000628565
0.000582118
-0.000900063
0.00113725
-0.000105817
-0.000131367
0.00117137
-0.00107199
-0.000999438
-0.000864242
0.000790615
-0.000261362
0.000334989
0.000693293
-2.00402e-05
-0.000225427
-0.000447826
-0.0013712
0.00133315
0.000630823
-0.000592782
0.000685679
0.000255115
-9.49879e-05
-0.000845807
0.000222068
0.000561131
-0.000715475
-6.77238e-05
-0.000418737
0.000425181