/*--------------------------------*- C++ -*----------------------------------*\
  =========                 |
  \\      /  F ield         | OpenFOAM: The Open Source CFD Toolbox
   \\    /   O peration     | Website:  https://openfoam.org
    \\  /    A nd           | Version:  10
     \\/     M anipulation  |
\*---------------------------------------------------------------------------*/
FoamFile
{
    format      ascii;
    class       volScalarField;
    location    "5.5";
    object      p;
}
// * * * * * * * * * * * * * * * * * * * * * * * * * * * * * * * * * * * * * //

dimensions      [0 2 -2 0 0 0 0];

internalField   nonuniform List<scalar> 
111485
(
31.8115
1.0272
1.21671
31.7824
1.23878
31.0043
1.05978
0.955242
1.07031
1.48949
1.03687
1.30984
1.08102
0.95451
1.07997
1.15148
0.421247
35.1426
1.08409
31.7719
31.7667
31.0511
1.06556
1.13481
1.21078
31.6127
1.45799
0.734326
1.20434
31.8351
1.65622
0.297996
31.8014
31.1382
34.3979
31.0679
1.742
0.266847
1.98841
1.12389
31.3552
1.47584
1.12969
1.61309
1.21441
31.9537
1.55597
1.11853
1.48469
31.8647
31.8525
29.9733
31.885
1.60683
31.9063
0.723813
1.07773
31.2459
1.28821
1.11083
1.11821
31.813
0.899771
1.65075
31.0868
0.807904
21.3755
0.98177
0.825871
0.935397
1.58429
0.791616
31.1138
0.838614
31.8926
0.521342
31.074
1.42268
31.044
32.5661
1.59828
1.55456
31.1004
31.8671
0.894952
1.12696
8.99454
1.59438
1.656
0.391778
1.4043
1.13893
0.908825
0.290357
1.47
31.8657
31.8132
1.63888
-0.578542
2.09402
31.8
1.46241
31.1459
1.38041
0.995224
32.0312
31.1808
0.346848
1.15415
0.92167
0.257222
0.849028
1.1585
1.35231
31.605
0.510372
31.6738
31.2194
0.823192
31.7768
31.6111
27.3469
31.1034
31.2486
1.54386
35.7195
27.2033
0.38513
31.8905
3.76595
1.58288
1.63536
31.8937
26.7775
27.8601
1.03755
31.082
0.540151
0.937932
1.01587
1.37084
0.963097
0.977149
1.21185
1.50719
0.163744
31.0803
31.8567
31.2305
1.00606
1.20149
31.757
1.71937
0.0373863
-0.192229
1.01772
1.00011
1.03176
0.337334
31.9248
31.7837
1.00633
1.16069
0.486575
0.0489388
0.435474
1.65216
31.3403
0.629585
0.759569
31.2113
31.8506
1.25635
31.1376
0.174155
0.0702618
31.1508
31.0326
31.679
31.6714
30.9321
31.7799
1.02452
1.0323
1.02149
0.253345
1.44366
0.620151
1.78445
31.7974
0.510207
31.0208
31.7755
0.652156
1.46018
1.69646
0.814758
0.113507
31.8966
1.04963
1.22688
22.2136
1.60141
0.390193
31.8737
0.642111
1.35551
31.0106
1.67115
1.55386
1.18376
0.586064
30.9007
31.8218
0.617057
20.9663
1.63721
31.1314
0.639012
0.558765
1.50656
31.9016
0.649627
1.61041
24.8198
31.1368
31.2145
1.68262
0.0832874
31.3446
29.4862
0.575683
0.208249
0.422167
31.3321
31.4274
1.66891
31.8904
0.980315
0.543742
0.565451
0.511189
0.556228
31.2228
1.64062
0.397981
31.2451
31.096
1.57504
0.844295
31.5463
0.308651
0.446883
31.8551
26.1992
1.57026
31.7594
32.2226
29.1008
31.7414
0.509447
0.491846
0.00404691
31.919
0.456205
31.7865
31.8047
31.905
1.67124
1.41152
0.873922
0.795484
1.34087
0.845915
0.84593
1.72414
0.171895
0.238005
30.8
31.8498
1.72348
0.318567
1.14404
0.235484
31.7806
0.885789
1.02803
0.860458
1.42885
1.64322
0.862413
0.78379
1.57787
31.2352
1.37434
31.1411
35.0624
32.4773
1.64923
1.32098
1.08078
31.7028
31.4669
0.705959
0.280027
31.753
31.8184
31.9302
0.511279
0.25737
1.02507
1.05546
1.11495
29.4667
31.2012
31.8739
0.708848
14.2567
1.03493
1.64451
1.60109
31.0989
31.8061
31.8142
27.8354
0.741038
1.2426
31.206
0.738857
31.5296
31.6685
1.68126
0.743021
1.34326
0.739824
32.2977
27.7043
31.1946
0.734018
0.0977098
1.68191
31.1072
4.1621
1.42673
1.26157
0.698734
7.1004
1.12145
31.0622
1.1255
0.761837
1.65713
1.65257
1.23035
31.1587
31.8794
31.191
31.7937
1.0029
0.659117
1.29338
1.1374
31.2124
1.29465
31.192
31.8408
1.1299
32.6732
28.2669
32.0645
31.0592
1.03016
31.2439
0.0821204
1.30125
31.0467
0.889677
0.785209
31.8117
0.750809
1.3093
0.812412
1.6918
0.197638
0.216385
32.3359
31.8588
1.64467
31.2947
1.33916
1.65438
31.1348
31.2259
0.726555
1.26612
0.113399
1.33524
31.0766
1.66013
1.2897
30.9865
1.60461
1.25187
31.8182
31.775
0.106713
1.21384
31.1527
31.6836
24.0919
31.7973
1.25643
31.1333
31.7956
1.29299
1.60888
1.55236
1.25452
31.0147
27.9023
1.6903
28.2705
1.60697
1.73313
1.49499
22.0219
28.5444
-1.58226
1.04538
31.8224
1.61831
1.30251
31.8959
0.430925
1.50282
28.414
1.34976
1.29122
0.2061
31.0313
1.0459
1.35611
0.236122
1.6316
27.1263
-0.0973108
31.8664
1.79865
-0.569096
31.2107
1.31867
1.62294
26.4443
31.9133
30.1491
31.7614
1.23571
0.346287
1.33773
1.3671
1.65974
31.1404
1.21176
31.8576
1.2797
30.9402
31.8469
31.9051
1.33595
31.8649
31.8201
33.6112
31.8105
31.2511
1.59365
31.2415
30.1633
31.1755
31.7773
30.9818
31.8994
31.0606
1.33872
31.1707
1.59601
1.35673
1.90897
31.0122
1.6115
31.204
31.8086
1.35168
1.39508
1.47844
1.61813
29.8233
1.4985
1.49387
0.188937
0.0995435
1.36881
31.8511
0.0929489
26.4848
1.62758
31.1415
1.54659
27.3245
0.25354
1.36398
33.2337
31.4206
0.0438739
31.7481
1.49291
1.46868
31.2465
31.247
32.0667
31.2005
-1.48723
1.48235
30.9407
31.2543
1.22982
31.0518
1.47432
31.067
1.56468
31.8118
1.53234
1.55748
0.858834
0.238844
30.8942
-0.423043
30.9595
31.1477
1.36803
31.1499
1.50257
32.0926
1.56773
31.8396
1.49136
31.7624
28.4536
1.80534
1.30888
1.45843
1.44422
1.4087
1.28667
31.2258
1.43474
1.38393
31.122
1.85251
1.67881
1.50396
31.2028
32.3698
1.30668
1.42746
16.1263
31.0873
1.33877
1.25799
1.44775
1.44055
0.739878
11.7949
28.1041
-0.472719
14.0105
31.7894
1.55155
31.2937
28.5677
0.460939
11.5827
-0.531708
7.53655
28.0901
1.40361
1.24554
31.0371
30.2388
1.2534
31.7493
31.0474
31.0618
30.9989
1.45087
31.1863
31.7249
1.48895
0.550271
24.6606
1.09147
29.7671
0.533566
31.88
31.2226
1.43649
31.1396
31.015
28.4426
0.214397
19.7823
1.3991
0.392236
31.7746
1.36581
1.25696
1.24718
1.83674
3.21529
1.21347
31.1556
1.45904
1.25802
31.9016
0.777233
1.5937
1.30335
0.171196
1.2862
1.29045
31.9205
1.5103
1.6774
28.3602
1.28739
1.58209
20.5264
0.373818
1.30436
1.55787
1.36923
1.38619
0.286774
31.4797
1.37014
1.49971
32.9998
1.42642
1.39284
0.448142
31.1584
0.206939
31.9645
31.0879
31.2035
30.9938
1.28473
28.7839
-1.75893
31.8088
30.7749
1.44406
1.42652
31.7438
1.47547
31.8057
31.8873
31.8905
1.47011
1.54872
28.5554
31.7128
31.1476
31.1617
1.68103
0.401065
27.8734
1.40704
0.703027
31.2351
1.43371
1.5689
0.464328
31.0347
31.1312
0.812044
0.450661
28.3093
31.2093
30.9139
0.595264
31.8651
31.714
31.1318
1.39608
1.17618
31.052
33.9917
32.9855
0.695141
31.2445
31.0008
1.52154
1.66065
28.2454
24.6124
6.46599
1.58415
0.0224498
30.8392
1.13246
1.64173
31.2341
31.8763
31.0823
31.1386
31.1997
31.0579
1.45098
31.8067
31.085
31.1788
1.43553
0.45216
31.7209
31.9305
1.51776
0.427628
0.4745
31.7192
31.0922
0.441709
31.8612
1.38375
0.404757
0.502734
31.6302
31.8007
31.8
31.1669
1.31
31.0982
31.0594
1.642
31.7972
0.683811
1.67998
31.0261
0.48212
31.6561
0.65536
1.46495
1.43175
1.53678
-2.44284
29.4715
0.641151
1.55119
0.0203686
31.5587
-5.55153
29.0186
0.177762
31.1814
1.56462
1.54612
1.5472
32.4408
31.8058
31.9143
0.423712
29.7586
0.13276
30.2882
1.14679
0.214623
0.253306
0.445458
31.0633
31.0548
31.1896
0.437905
31.0012
29.4605
1.5826
31.2354
31.2583
31.8046
31.0871
0.277177
30.8795
31.1333
-3.43103
29.6903
31.3108
28.6335
31.1254
1.5297
0.272021
31.7607
1.25158
6.14461
1.53808
0.846801
0.387984
31.211
1.43314
1.79894
1.54024
31.8679
-7.35088
0.251262
26.6207
0.203272
1.63213
1.76007
0.896975
0.260612
1.57856
0.175817
0.289919
31.0952
31.0289
0.191859
0.14333
31.2273
0.206869
1.35159
0.281276
30.9561
1.67872
31.1684
0.272447
0.247801
31.0266
-0.168347
0.301118
1.54397
-0.0110809
30.7924
1.02309
1.56879
1.93325
1.53353
1.64982
31.1179
31.2063
1.68669
31.0843
1.44369
1.54644
27.4744
0.407485
-0.905356
1.07158
31.0876
26.2939
0.578457
31.8873
37.6084
1.63233
30.9645
31.01
-0.519044
-1.06493
31.0859
1.68792
31.1383
31.1403
31.898
31.8107
32.0014
31.8562
1.726
30.9878
31.2126
31.2497
-3.22555
1.86145
1.14654
0.564301
31.0881
30.9884
1.701
31.1164
31.0211
24.154
1.65716
0.709142
31.0379
30.9887
31.0284
31.0015
30.9962
30.9883
1.60467
31.0089
1.38162
1.13004
31.1599
31.8459
31.916
1.66864
31.8862
31.7865
31.2222
1.34984
31.1705
1.62649
1.68748
1.43993
31.0457
22.0009
1.72507
1.07796
30.8776
1.4113
1.50043
31.7563
30.845
27.9999
30.9922
0.574194
0.987411
1.67909
0.87671
31.0326
0.568228
30.7252
27.9767
27.8364
31.215
0.947077
31.1287
31.9545
1.74993
0.690985
31.9437
1.51157
29.8057
1.60982
32.2737
31.1459
31.0838
31.7952
0.328046
1.01053
3.68354
31.0417
31.1383
0.285963
31.0857
28.8737
31.8151
1.37404
0.834776
1.35911
31.6851
1.73888
1.77369
33.2504
1.78179
31.0093
1.59178
1.48056
0.919137
1.67809
1.3557
31.1
31.1402
31.1388
1.73121
31.4991
1.61805
31.9064
4.91985
31.7148
1.11197
1.15418
31.9618
31.0766
32.0212
31.2649
1.59944
32.048
28.0254
0.26305
1.62203
32.024
28.7512
31.2255
28.8301
30.985
31.1053
1.65234
1.61532
31.7814
31.6785
-0.158558
31.8394
1.64813
0.327185
31.2535
1.64732
31.7975
0.177726
30.9987
1.2109
31.0205
0.101497
1.00731
1.54724
1.63055
1.61962
19.91
30.6766
1.66954
31.8667
0.935387
31.7331
31.288
30.7192
31.2203
31.3206
31.2252
1.57491
1.52981
31.7987
27.07
31.7457
1.60552
1.67317
31.8162
0.948799
1.56233
31.9165
0.396393
0.288684
0.896649
1.55307
31.0844
31.118
31.2639
31.0667
0.925329
30.927
1.68739
31.1101
1.67187
1.22585
31.1853
1.63362
31.1761
31.0794
1.66056
1.61528
10.236
31.1123
31.9983
30.9752
0.949738
30.5102
32.084
30.6031
5.61329
27.5918
0.288894
28.7252
30.4686
31.2857
0.32153
0.236908
1.35303
1.02956
31.8401
1.67579
31.1529
31.2221
0.277175
30.886
-0.111493
1.66565
0.287834
1.68057
-1.4241
1.27825
31.203
-3.20207
-8.7419
1.53865
1.74595
0.730826
23.1007
31.7955
1.26534
31.7428
31.0075
1.34426
1.46098
-1.76573
31.09
30.5148
1.70458
31.9151
30.979
1.66226
31.9844
31.9458
1.13759
1.67598
1.5649
0.941069
0.483808
31.0049
31.0968
1.17188
0.848968
31.0604
31.9632
1.45281
31.0231
26.9088
27.7157
27.8642
18.7447
27.0356
31.066
1.32818
30.9562
1.61568
31.027
15.2733
31.1714
31.0554
31.2076
31.0863
1.27601
31.0876
31.085
28.3105
30.9956
31.2042
31.1309
0.799814
31.1535
0.721516
1.60958
31.0657
1.45013
31.0466
1.51409
1.4536
0.238231
0.265027
31.6105
0.270826
1.26567
1.53471
31.8922
1.56526
0.656908
0.180541
29.8608
0.177935
31.2185
31.1978
31.0299
31.052
0.190293
31.1381
30.9802
0.162867
1.47466
0.0865514
31.2554
22.7296
1.38833
31.1867
0.89736
31.9048
0.221196
30.9531
30.9751
1.27678
31.0094
1.87431
31.8291
31.0264
0.645869
1.48358
0.502424
0.986371
1.65596
0.790611
31.0294
32.4219
1.14
0.516809
0.815543
1.59882
31.0865
0.729676
31.0746
31.4526
1.13833
1.71373
31.0287
0.511512
31.1534
0.505499
0.476045
31.0699
31.0546
31.1671
1.14729
31.1326
31.1362
1.15495
0.506363
1.71785
0.187923
31.1022
31.2259
1.47608
1.20685
31.0484
1.13606
31.2777
1.12327
31.049
31.037
1.05685
31.087
1.50014
1.11057
31.0129
31.055
1.02441
26.6042
1.31762
31.8085
1.67432
31.8549
27.1684
26.3253
1.11932
28.4847
28.1939
0.977733
28.0466
18.1346
26.1239
31.1796
31.7444
1.42481
1.29172
31.2797
31.1431
1.18638
1.25507
31.0261
1.15904
31.06
31.7627
1.42077
1.36429
0.46743
31.0416
31.1557
31.1363
31.0839
30.9651
30.9777
31.1288
30.9772
30.9995
31.0488
31.1359
31.7516
31.1134
31.0335
31.0099
31.5653
31.0338
31.0564
31.0951
31.2145
31.6813
1.31808
31.1243
31.0362
31.2473
0.935482
31.2556
31.7613
13.2984
30.9094
30.5629
0.91627
33.2274
30.7492
15.2804
0.903757
31.1089
27.5198
29.3971
31.0094
1.61522
0.900171
0.907899
0.822949
0.607964
31.8446
30.9915
0.701216
0.748434
0.82668
31.063
0.821661
1.61388
0.906502
0.207426
0.236216
0.823815
0.356631
0.881302
31.9305
1.00775
0.874528
1.20894
0.838018
31.1639
31.1395
31.1884
31.7981
31.1526
0.743198
0.841468
31.1665
31.0033
30.9922
31.6844
31.0226
31.7461
30.9817
31.7532
0.828076
1.63996
0.842541
1.3991
30.8778
30.9751
1.58795
1.21983
31.0523
31.0856
1.23805
31.942
31.1246
0.974025
0.78333
0.818825
1.32021
1.59739
31.8319
0.0748021
0.985499
28.0352
31.7439
0.931877
31.8137
31.0185
11.218
7.01881
1.32159
31.491
31.8032
1.76987
0.996804
0.130136
0.7465
14.9281
31.7978
1.74515
33.0124
31.9011
30.7242
1.2156
31.0172
0.749128
0.0609441
0.919611
0.975284
31.8703
0.676779
31.874
30.3383
31.8554
31.6893
0.295526
19.0717
31.0884
31.7774
33.4976
0.757315
27.8717
0.66488
0.735993
0.273109
0.743774
31.7068
31.6621
27.2309
1.22862
0.604069
-1.26599
31.8782
31.8086
27.7162
1.64329
1.20081
31.0807
0.433618
11.5882
0.989772
0.571535
31.785
27.0312
0.567268
0.74366
31.1473
1.51575
1.46589
1.27078
0.578664
0.591834
0.672321
28.0443
0.32463
0.613776
0.557363
32.1956
0.939944
28.3648
1.24104
0.637243
31.9134
0.216336
0.590346
0.617378
0.814547
35.0726
10.0824
1.71165
18.2757
0.600066
30.8108
0.241844
0.622885
31.7329
31.0965
0.806151
1.66586
0.892735
34.9357
1.33567
1.39176
-2.03677
1.61304
31.7258
31.9675
0.734455
33.4349
0.703707
1.31589
0.651678
0.281537
31.7657
1.57145
0.730563
31.7229
28.2804
0.522475
31.9024
0.513123
0.504965
31.8179
35.0995
1.00911
31.7428
31.0368
31.2404
0.26645
2.34281
1.23642
32.095
1.2008
0.392336
31.1516
0.387857
0.429395
0.265066
1.58729
31.0648
0.656727
0.313996
0.458968
0.372462
0.276165
1.48181
1.15982
31.8076
-0.135008
0.27715
31.7887
0.439259
31.2329
31.1287
31.8802
31.2668
31.7822
1.70919
31.1908
0.374568
1.33295
31.901
1.41509
31.6357
0.266649
31.7472
1.43129
30.8678
1.15639
1.79201
1.46405
0.478594
0.278948
1.20829
0.280826
0.498661
12.4966
0.444041
0.763826
0.496127
31.8921
0.810539
1.64289
0.461499
1.08517
1.49799
31.8914
27.7527
31.7243
1.22774
31.7669
25.3105
0.277977
33.6235
1.50658
31.6934
31.7598
31.0866
0.825308
1.4045
0.456701
1.67047
0.265414
0.684304
0.7143
0.79868
0.291548
0.701487
0.684677
31.9179
31.0134
31.8836
0.989359
0.775613
31.0886
31.0852
25.7619
0.767391
0.301758
31.7604
0.686563
31.8178
0.651761
1.24287
1.66446
31.7907
31.8114
0.77158
31.7975
1.52552
0.42237
30.3181
0.90477
1.09372
0.224776
31.7085
1.54838
28.5433
1.4043
1.22922
31.7984
31.9214
0.400776
23.096
31.9678
0.532033
0.263096
31.8092
31.6493
28.3594
0.64415
25.737
0.971221
1.5741
1.47876
31.811
28.5227
1.55939
31.8091
31.1577
31.8459
31.7824
28.9123
31.1083
30.5308
31.7262
31.7259
29.7486
33.6279
30.7951
1.55634
30.8277
27.5002
26.0817
35.5407
27.9804
31.8125
1.58625
29.8858
31.0481
1.62781
32.9217
34.2896
31.5095
1.57217
33.5181
1.61099
1.60646
1.50984
29.2396
31.7678
1.63759
0.629026
31.5528
31.8638
0.98388
28.9374
0.972529
28.6608
31.0774
31.2868
0.978323
0.98593
31.8267
1.33713
31.985
29.8528
1.34603
0.639678
1.59991
31.2087
0.975455
29.2764
1.37151
31.062
31.7128
31.0341
28.3898
0.611497
0.69127
31.8667
-0.68762
31.7544
31.8229
31.7516
31.7764
1.52403
1.47579
0.678968
2.14638
31.7601
1.21686
1.00411
0.568915
1.50395
31.3965
0.570948
1.61437
0.818094
0.762105
0.943842
31.8926
1.07594
1.54892
0.986227
1.58595
1.54942
31.8201
1.5989
31.3201
31.8326
0.844919
31.8847
1.26002
31.8301
31.9499
30.6872
31.7395
31.877
1.4876
31.7277
1.31698
29.353
31.1774
1.17479
1.57802
0.723639
1.26159
31.9363
4.88875
31.8667
1.40985
31.9544
1.15794
1.49794
1.57807
1.44578
32.0571
32.0836
31.7175
0.609924
31.216
31.7004
0.599633
30.9297
31.0168
1.64057
32.0535
0.852083
0.741832
29.1667
30.2531
30.0236
0.651227
1.04697
31.7698
0.0478792
1.37536
28.5822
1.58948
31.8432
0.592936
1.22744
0.601929
31.7703
1.27383
0.696189
1.6134
1.57512
1.38911
31.7978
31.8012
1.71417
31.7165
31.058
31.8203
0.571753
1.59634
0.766114
0.947128
28.1239
1.23038
0.984753
1.04271
0.970127
1.29047
1.47657
1.38009
31.0858
31.0819
31.0804
1.44416
31.1647
1.3044
22.0531
1.34774
0.106049
0.558961
0.317588
31.0186
31.8342
1.35581
1.34034
31.8727
31.0789
31.9042
0.613827
1.33682
1.40782
1.42053
0.224385
0.969794
31.7386
31.8687
31.8097
0.274204
0.922622
0.0465325
1.09778
0.692797
1.41678
31.5825
31.8078
26.1342
31.1195
0.251095
1.28086
31.7808
31.8298
31.8626
31.9
31.7652
31.0755
1.43035
31.7624
1.60195
1.78566
31.0261
1.42384
0.136118
0.604513
32.0158
31.2548
1.4246
31.7962
1.42507
-2.1942
0.654593
30.8921
24.4481
31.0667
31.7666
31.7215
30.651
10.0985
31.7644
1.50269
0.744248
31.8219
31.8092
1.45459
31.757
31.1331
0.864278
1.40087
31.6842
31.6771
30.9422
0.400496
31.7984
31.7997
6.59326
1.40576
1.46103
31.7629
31.0215
29.1502
1.44201
1.44238
1.43987
1.08531
31.0445
0.435195
0.139519
0.128831
31.0122
31.8608
31.8079
31.7061
31.7988
0.880634
0.903287
0.773274
31.9609
31.8451
31.7955
31.8216
31.1886
1.6685
0.508147
0.100618
30.9904
31.7918
32.0974
-1.45499
1.53746
1.70375
31.1323
-5.21295
33.1046
31.5823
31.8
0.888862
1.02219
31.7333
31.8222
1.15028
31.8084
0.653795
0.840428
12.4273
31.7178
31.1457
0.689335
1.60649
31.8082
11.7027
0.301446
1.30007
31.7608
31.7481
31.9249
31.844
0.25754
0.511514
31.7511
1.64796
1.51216
3.00447
31.7723
31.7328
31.7283
31.7511
1.28849
33.5895
31.7758
31.3101
0.35981
1.32151
0.448287
31.5853
31.8726
1.53949
30.738
31.8088
31.7502
31.7617
0.941772
31.011
30.9765
31.0326
0.434586
0.991775
31.7231
31.861
31.6502
1.10148
32.7143
31.7251
31.658
31.8675
31.8517
1.43545
1.29628
32.0666
1.04228
1.26432
0.902773
31.9179
31.8918
31.8001
31.7396
31.0167
1.17704
31.7758
29.844
29.866
1.5209
30.8293
1.47909
31.7994
31.1683
1.80066
3.33659
28.7503
1.56122
31.7745
1.54463
32.825
31.785
31.9208
36.2795
31.7512
1.6688
31.7122
1.04546
31.1844
28.3734
31.8717
31.7166
0.376995
1.5752
31.076
12.136
31.2231
1.335
1.64533
1.48374
31.2449
0.855449
1.35453
1.62826
1.31106
-0.0491778
1.36283
30.8448
31.031
-0.490822
0.604785
1.4373
31.8319
30.5452
26.2678
14.467
31.905
31.0047
31.8653
31.8953
31.9178
33.2883
1.5248
1.63916
0.774632
28.2579
1.67036
31.8637
1.20114
31.8098
31.9318
31.1228
31.0558
1.52421
30.9848
31.2139
31.7711
1.0505
31.7686
31.8316
1.69639
31.7265
23.7817
20.7203
19.4774
31.902
20.2973
19.6889
20.1133
22.712
31.0353
31.038
1.02429
1.45407
28.458
28.9473
31.051
1.01309
32.8619
31.3074
1.51909
31.7516
31.7955
1.47405
1.62592
31.7721
31.0051
1.91838
28.4929
30.9341
0.75913
1.10257
1.22205
31.4509
1.14633
31.8807
0.709248
0.689479
1.11504
31.7765
0.70412
1.14149
32.0265
-1.7098
31.681
1.0563
30.3758
1.11701
31.428
1.6159
31.7208
30.7973
31.1773
-3.38177
-3.35201
31.9238
1.13218
1.83544
32.0851
31.7742
0.794124
0.0842418
1.72648
31.9214
1.19051
1.15978
1.71771
-0.994348
31.9169
1.55137
31.0623
1.54473
31.8104
-4.29675
-5.31423
31.6408
0.768805
31.1891
1.70107
31.0746
31.6453
31.7752
31.8825
31.6538
31.7595
1.48969
0.926474
1.51802
31.7543
25.9153
1.55394
31.7595
31.7461
31.8252
31.8712
31.8333
0.117857
31.7773
31.8749
31.0287
0.0962395
31.6689
31.0958
30.4201
0.289001
31.1193
0.1637
-0.705558
1.27772
0.272388
0.0886183
32.9752
31.7448
31.7781
0.397461
0.464047
30.6796
25.7745
0.21111
31.8299
31.8836
1.58597
31.6762
1.15171
31.7312
0.120723
1.65902
31.7561
31.0324
31.7246
31.8679
31.8183
1.78324
31.7239
0.219984
31.9626
31.7623
0.455481
31.1576
1.19153
31.3061
31.8296
1.47868
0.7883
1.66917
31.8659
31.8694
31.7884
0.807481
1.70109
31.9838
31.0902
30.8154
0.509799
31.7005
1.22595
1.60289
31.7574
31.7228
0.50859
31.7862
30.813
31.1186
31.9934
31.1472
1.53834
25.4309
31.0594
31.8504
26.0563
31.7246
26.8902
31.6036
31.6979
31.3515
0.760796
31.5776
0.465771
31.6216
31.7106
1.96089
0.523297
31.6852
31.7132
31.7407
0.461435
27.5182
31.7772
31.1491
31.7256
0.543074
31.6929
1.47283
31.9061
1.37994
28.3094
1.60278
31.7632
31.8182
1.35519
26.8958
31.7478
0.454021
1.36125
31.9603
31.8668
1.45607
1.54526
0.506281
0.459325
0.45889
1.4887
0.525899
1.6303
31.9741
1.43055
25.8245
25.4027
31.7686
31.6846
31.8154
0.510939
31.8991
31.8865
31.8932
1.53618
1.60667
24.6705
1.46294
31.8788
1.57277
30.9468
1.72086
0.578809
26.0964
1.40087
31.6733
31.6028
31.0815
0.534271
1.38816
31.7872
31.1347
0.524153
31.8618
1.68617
31.973
1.73668
31.8049
31.0807
31.8054
31.0745
0.477576
31.0736
3.32863
31.1841
1.44048
31.7641
31.728
18.5643
17.3577
31.8083
31.7373
31.8092
31.8731
1.39201
1.62465
21.9252
31.8662
1.42335
31.0454
31.1948
0.590289
1.08476
1.72922
31.0864
0.353618
1.43993
0.814969
1.17057
31.8159
31.9155
31.9317
31.8758
31.0897
31.0753
31.078
31.5852
31.0866
31.0787
31.798
31.0733
1.65353
31.0783
31.7341
34.6265
31.8702
31.7704
12.434
31.046
31.7464
1.12347
1.75577
31.6181
31.8216
31.7965
1.06116
31.3504
31.7648
1.6925
31.1298
31.7285
31.8151
31.8559
1.73809
31.1085
1.54195
31.8653
31.7746
31.748
31.7676
31.7303
1.70463
1.59761
0.629932
31.8732
31.0299
32.0138
1.66127
31.7208
1.61866
1.80378
31.1122
31.7604
24.6386
0.63582
31.6407
28.672
0.683349
24.9477
1.53395
31.2856
1.6444
24.8184
23.1941
31.7984
1.37547
31.1361
1.3384
1.68906
31.7414
1.39077
1.09122
31.7982
1.6544
31.0251
31.6556
31.7046
31.636
31.6555
31.0663
31.7205
31.8873
1.54221
29.0093
31.7783
31.8166
31.7084
31.7155
1.05387
17.4257
1.6621
1.14717
31.7242
1.37099
1.32298
31.7878
28.5982
31.5695
31.656
31.7966
32.0213
26.4821
29.2167
1.52469
31.7677
31.9128
25.0426
27.0335
31.0939
1.34071
31.7094
31.0383
31.8659
1.66582
31.9014
31.0483
1.47413
31.1156
31.0849
31.4739
32.0833
1.49054
31.7677
31.7544
31.74
31.7683
1.56591
1.73434
1.76944
1.35817
1.62824
1.59949
31.1364
26.9065
1.58639
1.59105
26.8673
1.60207
31.837
-1.84865
31.0518
1.66183
31.786
31.0116
1.63095
-3.06962
31.7273
1.58352
31.7862
31.8273
1.64212
1.71275
31.8648
31.0655
31.8678
31.0844
31.7286
27.845
31.8713
31.8123
1.56688
31.8729
31.7866
31.7625
1.6608
31.7705
28.0028
31.1037
31.0575
29.7456
28.3066
1.6571
30.9997
28.3485
1.03709
31.838
1.53884
1.60325
31.744
1.06294
31.8008
30.3322
32.074
27.827
31.1896
31.8177
31.8828
31.9095
1.11086
31.8848
31.8372
31.8716
31.372
31.7725
31.5545
1.6165
31.7993
31.871
1.65687
31.7882
31.0956
31.2365
1.1558
31.7639
1.36114
27.5018
0.780129
0.184747
31.0743
26.887
1.05669
25.878
31.0842
1.42065
0.760976
0.00434371
1.62289
1.23347
-2.19162
31.287
30.9916
1.30185
1.68678
1.67566
1.28901
0.792565
31.1651
0.295916
1.24899
1.27239
31.2477
1.28903
0.269529
0.802829
1.23279
1.59587
1.21399
0.426592
1.16629
0.0356117
0.628687
1.24515
28.0564
0.369209
0.0399943
1.36127
1.50961
0.150543
1.24483
0.0932068
28.6627
1.65819
28.4708
0.788202
1.31631
1.44958
0.969808
28.4228
31.0814
1.2134
1.01184
1.57493
1.75027
0.413441
1.27413
20.3164
1.3233
31.7999
2.22856
1.66107
1.6505
0.830037
1.56686
1.47105
1.46501
0.931712
0.839533
0.769949
1.28972
0.524285
25.31
22.3513
1.28555
31.7495
31.7987
1.22878
1.31679
0.19076
31.7499
1.59311
1.70672
0.941452
23.1579
31.7943
1.31159
0.0554602
1.63693
31.9171
0.436801
31.8237
0.99094
1.44426
1.60359
1.62651
31.7372
31.8122
1.79353
1.29355
1.34216
31.7838
1.04512
1.34639
1.50622
31.1359
0.958331
0.126181
28.4155
0.802617
-3.27484
1.58489
30.8445
1.66268
1.82213
31.8043
1.54614
0.196644
7.58824
1.49185
1.58873
0.352658
1.44216
1.46579
0.0315803
1.23292
1.5499
1.47057
0.33279
1.26761
1.50953
1.02884
1.53711
0.721503
1.25751
1.54694
0.437199
31.8141
1.55558
1.51335
1.62499
0.509827
1.67263
31.069
1.53914
0.82002
31.8003
1.57734
0.010391
1.53762
1.5205
0.262033
-0.133269
1.39592
1.45067
1.67003
31.8165
31.7964
1.70889
31.2214
1.72387
1.81291
31.051
0.266919
1.56458
0.840775
31.8713
0.827064
0.901168
1.62329
1.55804
0.865309
0.444455
1.03953
1.65345
31.7986
31.6501
1.67868
1.5673
1.63493
1.13754
31.6484
1.58545
1.51834
31.0492
0.997349
1.30819
-0.216162
1.39495
1.64225
1.32488
0.443106
1.18936
31.2491
1.58917
0.818175
1.47741
1.45192
31.6537
1.68756
32.2094
31.7843
0.893482
1.40872
0.957249
2.73431
1.49293
7.66668
31.1093
1.34263
1.56678
1.22481
0.97389
31.7502
31.2443
31.2026
0.975674
0.999091
1.35767
0.807583
30.7691
31.6694
0.941043
1.06558
1.64284
0.998102
0.971906
1.23825
1.58095
18.5328
31.0388
1.43149
0.147021
31.6645
1.29373
1.21883
1.96206
1.45302
1.1743
1.73083
31.6668
1.02454
1.1671
31.2078
30.8315
0.193537
0.384996
0.456265
0.238503
1.20116
1.25829
0.424452
0.83512
1.13453
0.211524
31.6487
31.6175
0.045079
0.278492
1.19186
1.78516
1.1609
1.06647
1.46465
0.990165
1.14345
31.0692
31.238
1.74258
31.6396
27.8506
1.20942
0.808754
1.11918
1.73794
29.2105
1.64989
1.86439
29.7168
1.78694
1.39547
1.14865
1.16806
0.145874
1.33329
1.52833
0.257325
31.79
29.5063
1.67313
0.442531
0.958171
0.444217
1.46015
1.55291
1.6274
29.6021
1.24526
0.453169
1.04141
1.69916
1.62623
1.63258
1.4056
1.17168
0.344623
29.1949
1.60192
1.19164
12.7699
27.8301
25.7768
1.131
27.2468
0.110689
1.07807
0.970997
1.33832
1.53396
21.166
13.6865
32.5538
27.4151
1.70389
31.0779
31.078
-2.4496
31.7833
0.828735
1.00751
0.837853
0.769046
0.804442
1.30096
25.825
0.42615
0.226764
1.53691
1.22153
0.7835
1.18384
31.0925
1.39663
0.774685
1.13939
31.0809
1.50561
1.17706
31.0782
31.6949
1.55222
0.739192
31.9781
1.3829
1.26577
1.54122
31.8538
31.0751
0.19609
1.38448
1.33491
31.0847
31.1312
31.0783
1.45992
11.8016
10.897
0.459328
0.778479
31.9302
0.553199
0.862813
1.09807
0.199817
0.129441
0.572597
0.437816
0.231586
31.4195
0.528382
0.422016
0.100035
0.911918
0.243222
0.314372
0.229837
0.279718
0.157828
1.67705
0.836307
1.18043
1.55754
1.57863
0.564037
0.248279
0.893793
0.279592
0.182618
0.700834
0.509015
1.65011
0.477763
0.888721
0.498031
30.3716
1.18724
16.5721
0.899862
1.25364
31.2125
1.51751
30.3745
1.31336
30.4806
31.79
1.06562
1.50142
28.0181
0.418088
1.02109
1.53806
31.6743
31.8655
1.93143
0.53341
1.56184
0.90704
0.397777
1.48955
1.76394
1.4612
1.52843
26.53
1.18352
31.0973
31.6639
0.750884
0.567271
1.74956
0.725475
0.507278
1.55979
1.56876
31.3469
1.62238
0.48181
1.53003
31.3818
31.9129
1.18013
1.3353
25.2136
1.67542
0.151216
1.38607
-0.392693
0.457833
0.940146
31.6998
19.3665
0.780794
1.69523
31.4845
0.780898
1.65455
1.40246
1.83195
0.734552
1.71302
1.17692
1.75444
20.494
1.7707
31.7651
1.32468
1.53988
0.430563
0.0796868
27.0083
0.0761266
1.6689
1.48683
1.50944
30.0758
31.0829
0.819959
1.70313
1.50793
1.32357
1.67023
0.582742
0.0941655
1.02037
0.262734
0.15322
1.65559
28.7198
1.61201
1.42168
0.0271121
1.63823
29.4502
31.026
-6.52942
1.66273
32.9227
1.57588
1.57137
29.7682
21.1151
22.6223
1.46028
0.747237
2.87011
24.0847
1.53294
0.865789
30.6919
1.03462
27.9747
1.3927
0.586651
31.2767
0.0375425
1.70625
1.69064
0.570751
31.0494
1.19187
1.57815
1.64173
1.72572
1.80596
1.77038
1.60317
1.56332
1.60265
0.357667
0.758791
31.7131
26.5342
26.7385
31.1124
1.44658
0.866527
0.812876
1.57016
0.471851
0.8061
1.36948
1.54
1.48318
0.58993
1.59783
1.49571
1.4621
0.472685
31.7726
1.63478
1.55699
1.52211
1.64007
30.6718
0.935772
0.96755
1.45174
1.31574
1.08951
31.0353
1.12144
1.07456
27.9096
1.13121
1.45011
31.1021
1.03532
31.0549
31.2292
0.942896
1.38918
1.47065
1.08755
31.0264
0.294575
1.53061
31.242
0.977031
1.12001
0.954628
1.47553
31.2096
1.50993
1.51249
1.45443
31.2189
0.868444
0.363328
1.43541
0.724677
0.847829
31.978
30.3395
28.8372
0.157782
29.3348
0.825489
0.659786
0.277579
31.7465
0.298303
31.0674
31.7726
31.6333
0.969303
-0.0308376
1.401
1.45851
0.894798
30.3231
27.9694
1.67816
1.6187
0.74754
1.45673
0.866234
0.732929
31.7769
23.6912
24.161
31.0536
24.4267
0.0944716
31.7969
0.867502
1.34129
0.897435
0.187801
0.984293
26.0439
0.617099
1.36405
1.55746
1.72196
26.2042
31.7652
1.54739
0.671061
1.15132
0.230936
1.64215
1.52201
1.17369
1.43673
0.610696
0.125749
0.583081
-0.82463
0.571596
1.38411
1.43535
0.436621
0.546952
1.60886
-0.0318449
0.312034
-1.4052
-2.56329
0.426421
1.6938
31.2455
-1.80087
-5.36083
0.286055
0.185391
0.0480053
1.38271
1.16836
-6.06996
0.20478
1.68717
31.8597
0.841617
1.03299
1.13422
31.7491
0.825367
0.506215
0.220019
1.03429
31.9197
31.8645
1.4614
0.363845
0.371681
0.135083
31.5511
31.8164
31.1446
1.1781
1.40682
0.319583
31.8226
0.788957
31.8773
31.9636
0.237885
0.175674
30.9875
0.334902
0.363054
-0.0260439
31.2051
31.8566
0.565563
1.38824
31.9092
0.297269
0.422055
0.0304373
32.1124
32.1394
32.0148
0.0224021
0.297423
1.69571
0.428041
31.1715
0.282879
1.27951
1.6788
1.59801
30.9503
31.7502
0.468617
1.70821
1.66718
1.01351
30.9453
1.44038
31.0987
0.400313
1.65397
1.28651
31.1361
28.9251
1.67122
1.83376
28.396
28.5651
31.105
1.00206
30.4854
27.2262
1.33732
1.32078
31.1048
27.9615
1.18359
0.447136
0.341265
0.947008
0.82474
28.4115
1.4046
26.2066
25.5879
31.8388
0.978517
1.54352
0.299208
25.7305
33.8896
1.38718
1.65177
1.47743
1.52643
1.22899
1.12038
1.20279
0.514241
25.2789
1.27903
0.918799
0.494155
0.974414
1.46552
18.751
0.826327
0.921257
0.93039
0.921863
0.388131
24.5266
29.0883
1.05813
29.3008
29.6684
1.25328
29.3661
0.823551
28.7152
29.0497
31.1234
27.9632
1.01305
0.400571
0.974484
28.6491
0.561471
0.959948
1.2119
29.0981
31.8131
1.0249
1.07572
1.53774
1.02639
27.8175
0.0506905
0.361236
0.252902
31.0206
31.3153
0.698171
0.542318
31.4231
29.2018
1.61132
0.0344729
28.5862
1.73295
1.56053
1.59983
1.12763
28.889
1.22532
6.01237
0.261387
0.387203
1.69102
1.55538
1.55104
0.757914
1.30293
28.2745
1.38917
1.29267
1.48937
1.66107
1.62019
29.0238
0.857461
1.30845
0.782504
1.0544
1.27983
1.49652
0.565009
1.59646
1.56887
1.65513
0.609596
1.65144
1.76358
1.25228
1.51933
31.9264
0.616222
31.8979
1.24201
1.29654
1.63661
1.64393
1.71083
1.23121
1.25141
1.59301
1.01465
0.432862
30.9875
24.0461
1.66795
1.71703
1.448
1.74566
1.65197
1.5949
1.6799
2.01104
25.0347
0.402463
2.08763
-4.97761
26.1356
0.190286
24.3271
0.971693
1.16943
0.958826
0.959776
31.2421
1.23359
1.48612
-0.987603
31.0831
1.59199
0.36702
1.62405
1.59895
1.63643
24.4635
31.069
0.929222
1.32304
0.808437
1.32337
1.20029
1.29422
1.73631
26.9548
0.289329
26.0202
1.46508
0.405878
1.41729
31.8508
22.2435
1.61027
1.34291
1.01197
1.36944
31.0821
1.4341
1.38943
0.257542
1.37138
12.7064
7.05747
1.50759
31.7887
31.0513
0.910479
12.3022
1.56857
31.8646
0.72108
31.7754
-1.12661
31.2074
0.488636
1.64644
0.865012
1.37194
1.47218
1.28207
1.4997
1.4685
0.205785
0.970182
0.868851
0.964021
30.3152
0.56504
30.997
1.49968
1.50623
1.20088
1.1057
1.44806
0.518906
0.97197
1.36805
1.4384
0.955178
1.59228
1.74465
32.3065
1.39348
0.433002
-0.7498
0.399589
1.42882
-0.989162
0.557873
1.71977
1.32206
-0.561132
1.31196
0.897659
1.4896
1.22929
31.0357
31.0252
1.26898
1.34874
1.57415
31.1127
-1.91668
0.261387
1.30144
0.98116
0.658182
1.05977
0.893811
1.36228
0.0635237
0.846892
1.59359
0.709917
1.13679
1.06172
0.964346
1.62556
1.47239
0.697586
1.38595
1.38351
0.373285
0.561127
1.49432
-0.681261
0.81584
0.700043
1.01118
1.30877
0.742644
0.552793
30.9623
1.48875
-0.0418821
0.311043
11.9364
1.49022
26.2909
0.948968
1.40239
0.216882
1.5508
31.6479
1.46799
1.49875
-0.686836
1.5495
-1.22324
1.57499
31.0768
1.07588
0.373368
1.65589
1.38725