/*--------------------------------*- C++ -*----------------------------------*\
  =========                 |
  \\      /  F ield         | OpenFOAM: The Open Source CFD Toolbox
   \\    /   O peration     | Website:  https://openfoam.org
    \\  /    A nd           | Version:  10
     \\/     M anipulation  |
\*---------------------------------------------------------------------------*/
FoamFile
{
    format      ascii;
    class       volScalarField;
    location    "5.5";
    object      SgRate;
}
// * * * * * * * * * * * * * * * * * * * * * * * * * * * * * * * * * * * * * //

dimensions      [1 -1 -3 -1 0 0 0];

internalField   nonuniform List<scalar> 
111485
(
1.63689e-17
9.90018e-06
2.76484e-05
9.50142e-19
5.82138e-05
2.929e-18
5.37536e-05
7.20712e-06
2.25262e-05
1.40542e-06
5.40995e-05
1.11791e-05
5.50658e-06
9.94248e-07
7.66536e-06
3.70657e-05
1.63582e-06
0.00305497
1.24365e-05
5.03849e-17
1.78486e-17
2.69401e-19
3.05499e-05
4.1999e-05
1.04102e-05
2.2937e-18
4.79216e-05
2.15017e-06
1.89533e-05
3.43971e-18
5.42841e-05
2.23006e-05
6.38147e-17
4.17901e-18
8.92516e-06
3.04735e-17
1.30167e-05
4.89372e-06
5.4604e-11
2.74762e-05
1.88679e-19
8.49626e-05
1.87892e-05
1.61362e-06
6.23438e-08
2.33296e-17
3.69615e-05
8.61506e-07
5.6748e-05
8.63988e-19
2.13743e-17
2.31347e-17
9.01461e-18
5.88759e-05
1.04039e-17
5.18399e-05
3.90846e-06
2.67886e-18
2.73535e-08
5.68946e-06
1.91784e-05
1.25671e-17
5.37083e-06
0.000114033
8.14775e-18
4.01912e-06
0.000375684
0.000113889
1.23623e-06
6.88468e-06
1.29284e-08
7.3481e-06
1.80992e-17
3.25828e-06
1.96511e-18
8.23466e-07
3.02581e-18
5.01021e-05
4.36441e-18
5.09089e-17
7.25285e-09
3.99547e-05
1.25343e-18
2.86084e-17
1.05906e-05
4.90293e-06
5.21238e-13
2.95402e-05
6.67904e-08
8.56608e-06
4.38584e-07
4.91053e-05
1.34869e-05
7.18255e-08
6.40935e-05
2.14774e-18
2.01122e-17
2.00947e-06
2.52641e-11
1.48117e-06
2.99478e-17
2.22815e-05
1.04119e-17
2.28277e-05
5.64888e-06
1.43628e-17
8.04145e-19
9.0852e-06
4.568e-06
9.12521e-11
6.89765e-06
5.75848e-06
4.24114e-06
3.62976e-06
2.3012e-17
3.90009e-08
5.68636e-18
2.35146e-17
1.47365e-05
5.21339e-17
8.75866e-19
9.90914e-18
1.02873e-17
4.8682e-18
2.09066e-06
3.40452e-09
9.09553e-19
1.92579e-06
2.72329e-18
5.90435e-08
1.55012e-06
3.76261e-05
4.62177e-18
5.94909e-17
2.37158e-18
5.86541e-05
1.58014e-17
5.0423e-05
2.95328e-05
3.20568e-06
2.62771e-07
2.39141e-06
2.65777e-05
3.39811e-06
4.64514e-06
1.52901e-05
1.8085e-18
1.6406e-17
1.27404e-17
3.29995e-05
1.99461e-06
7.65523e-18
2.2984e-10
5.92751e-06
5.49649e-10
1.26207e-05
1.98673e-05
1.24295e-05
9.19218e-11
4.81021e-18
9.68506e-18
6.27762e-05
2.85418e-05
2.62904e-09
4.06955e-10
6.67161e-06
4.30005e-06
6.65012e-18
6.40141e-09
5.82183e-08
3.48309e-19
5.33008e-18
1.64069e-07
3.42184e-19
6.94676e-06
2.59292e-06
1.53276e-18
1.07616e-17
7.00648e-19
2.3311e-17
8.69579e-18
5.5016e-18
1.70565e-06
8.16635e-06
3.49358e-05
5.04367e-06
8.66571e-06
4.60456e-06
9.96018e-08
6.61612e-18
5.48142e-06
1.28687e-17
1.90882e-18
7.54435e-06
1.27667e-05
3.18402e-05
1.30559e-05
5.76352e-06
8.72539e-18
7.72357e-06
6.35671e-07
5.3422e-08
1.58095e-05
2.77448e-06
1.65869e-17
4.30661e-06
3.14747e-05
4.35643e-17
2.17523e-07
9.06251e-06
2.54672e-06
4.0988e-07
3.32165e-18
1.87966e-17
9.43841e-06
1.01281e-14
0.000145318
7.40269e-18
7.69529e-06
2.38112e-05
0.000144786
3.20142e-18
3.59449e-06
1.62472e-05
2.36422e-16
2.22607e-18
1.03543e-18
0.000186649
3.76307e-10
7.7987e-18
6.45024e-18
1.12671e-05
9.42355e-06
1.80687e-05
8.39637e-18
1.84315e-17
1.4445e-08
9.98501e-18
3.06029e-06
1.07015e-05
1.86301e-05
1.35774e-05
1.16111e-05
3.96518e-18
3.29747e-10
7.27024e-07
1.33524e-17
5.52919e-18
3.66551e-05
2.50091e-05
1.12227e-17
7.25419e-06
1.2422e-05
2.16494e-18
3.22039e-17
1.67233e-07
4.18609e-18
8.02129e-18
4.96385e-08
1.02017e-17
1.81839e-05
1.33201e-05
4.49186e-06
5.37221e-18
1.37926e-05
6.89682e-19
1.28346e-17
3.97934e-18
2.75551e-11
2.72858e-05
7.17491e-06
6.12353e-06
4.4192e-05
1.42032e-05
1.9589e-06
6.91997e-07
3.97851e-05
1.08625e-05
8.53315e-19
8.24627e-18
3.27323e-10
2.67799e-05
2.88511e-05
1.47278e-05
3.04401e-18
8.24527e-06
2.53763e-06
3.51574e-06
4.16565e-09
4.38792e-09
1.58555e-05
2.62178e-06
2.29727e-06
3.23995e-17
8.49739e-07
4.16777e-18
1.17557e-10
2.54971e-16
0.000300227
8.19024e-05
1.4885e-05
4.25218e-18
3.01209e-18
1.06157e-05
2.04279e-06
1.72743e-17
7.45997e-18
3.21108e-17
3.85273e-07
7.14553e-05
4.53686e-06
1.7148e-05
2.28553e-05
6.25697e-18
1.25899e-18
1.44995e-17
4.5039e-06
1.03201e-15
1.20188e-06
0.000224175
4.44305e-10
3.54884e-19
2.34866e-17
2.43642e-18
4.31827e-17
7.08431e-05
1.44921e-05
4.04824e-18
6.12716e-06
1.51204e-17
1.45724e-17
8.16577e-05
6.83345e-06
1.33109e-05
1.09271e-05
4.93619e-17
2.58717e-17
3.8308e-18
1.10201e-05
2.24376e-05
5.96215e-06
7.31818e-19
3.21854e-13
2.10707e-07
2.50887e-06
9.42848e-06
4.93943e-08
3.40494e-05
1.81267e-18
4.48496e-05
4.10202e-06
9.25525e-06
2.93284e-05
1.66329e-05
4.02816e-17
1.67036e-18
2.93698e-17
1.27081e-18
3.80029e-05
1.13538e-05
4.13777e-05
8.06786e-05
6.13772e-18
2.29925e-05
3.34628e-19
6.35244e-17
1.94408e-05
5.21662e-18
7.70995e-05
1.889e-17
8.92038e-19
2.79203e-05
3.07213e-18
1.6591e-05
3.63783e-07
1.22221e-18
1.25689e-06
1.91952e-05
1.09284e-17
1.0309e-05
1.16769e-05
9.49962e-06
7.03891e-07
3.29754e-06
7.02139e-06
2.09451e-17
1.05437e-18
2.02183e-06
2.85754e-18
6.97958e-06
0.000139348
8.38101e-18
1.35632e-17
3.2096e-05
1.39764e-07
9.6043e-06
2.58955e-05
1.08567e-18
5.22692e-05
2.31095e-05
1.39558e-18
9.57364e-07
3.06726e-06
1.02609e-17
3.37931e-17
1.35701e-05
6.22646e-06
2.43861e-18
2.87831e-18
3.1291e-11
1.9722e-17
1.40063e-05
9.0184e-19
4.77258e-18
2.05748e-05
2.2213e-09
1.52989e-05
3.44637e-05
2.06083e-18
1.49535e-17
1.60848e-06
3.16208e-18
1.64457e-07
1.5703e-05
0.000146594
0.00103983
4.09797e-18
3.25392e-06
5.05223e-07
7.86529e-17
4.56021e-05
3.8456e-05
1.53783e-18
9.88152e-12
1.16446e-07
1.35789e-17
2.98134e-05
2.98793e-05
1.74469e-05
8.52035e-18
7.98151e-07
2.21991e-05
2.756e-05
9.85832e-10
3.22872e-17
6.77086e-13
3.72468e-18
1.70285e-08
3.76632e-05
1.93585e-18
1.05492e-05
1.04919e-07
4.80882e-17
6.63048e-18
4.23865e-17
4.46764e-17
4.74819e-06
1.16491e-05
7.9812e-06
2.65593e-06
3.47933e-06
2.43196e-17
2.47558e-06
5.24482e-17
4.68711e-05
3.74752e-18
1.51845e-17
9.60143e-18
4.22017e-05
2.29722e-17
9.7054e-19
2.71853e-10
6.67598e-18
2.05731e-17
1.19853e-06
1.81872e-17
2.87551e-17
5.7806e-19
3.03463e-18
2.86572e-17
1.32645e-18
1.59469e-18
8.86952e-06
2.97401e-18
5.75963e-07
2.21023e-06
1.29304e-06
6.11848e-18
9.28438e-07
1.21755e-17
3.36117e-18
3.42059e-06
2.23996e-06
3.33659e-05
2.90292e-05
6.28636e-18
2.44349e-06
9.47497e-05
1.02522e-05
1.26014e-06
4.01142e-06
2.04359e-17
2.79629e-05
5.60124e-17
5.68304e-06
1.03656e-17
8.89471e-05
2.67693e-17
2.59565e-05
2.84491e-07
3.10319e-10
7.62286e-18
2.47505e-06
3.17986e-18
9.57665e-05
5.73355e-05
2.16189e-18
1.12929e-17
3.53758e-17
7.00388e-18
1.645e-12
6.56048e-05
1.01826e-18
1.79905e-17
3.13783e-06
3.75793e-18
3.92495e-05
3.33689e-18
3.93864e-07
1.01716e-17
6.15783e-07
1.18238e-09
1.27039e-06
1.57131e-05
3.26677e-17
4.65807e-07
3.34677e-18
1.68195e-18
1.85499e-05
9.25627e-18
3.90396e-08
7.94359e-18
1.87353e-06
3.68275e-18
7.80409e-05
2.06005e-17
1.01282e-17
1.98362e-05
4.16639e-06
2.01824e-06
4.82397e-06
7.84986e-06
2.50612e-05
7.45836e-18
2.83343e-05
7.7023e-06
5.59962e-18
9.54998e-11
4.55448e-05
1.71445e-05
2.7652e-17
5.13033e-06
7.57289e-06
1.90293e-06
1.37844e-06
2.75184e-13
1.64465e-05
1.35417e-06
1.74923e-07
2.95902e-05
1.66102e-05
8.49941e-07
1.73289e-17
3.83596e-12
0.000771053
2.10879e-17
4.541e-07
1.70543e-18
1.18343e-16
8.81228e-06
3.62416e-06
2.36874e-10
1.59568e-08
5.74356e-17
2.04106e-05
1.32221e-05
3.9843e-19
1.06445e-13
2.46141e-06
2.73871e-17
4.25419e-18
2.78243e-18
9.0716e-18
1.66104e-05
4.97272e-18
4.44773e-19
1.09072e-05
2.47289e-06
3.19636e-17
1.24358e-05
5.41606e-18
1.02387e-05
1.46471e-17
2.7966e-18
6.5037e-05
1.58582e-18
8.42706e-18
3.68256e-17
5.46439e-06
3.47941e-17
3.61889e-05
7.52246e-06
3.11491e-18
9.97472e-05
3.04087e-06
3.34018e-05
3.25709e-05
7.45353e-07
9.89286e-08
7.48293e-18
6.59488e-05
5.38989e-05
1.49754e-17
3.75151e-07
4.80197e-05
8.80497e-06
1.78112e-06
3.27468e-05
3.09379e-05
1.08759e-17
1.27043e-05
5.86868e-09
4.845e-18
4.05335e-05
3.2029e-07
7.48107e-17
1.31218e-05
4.75416e-05
1.68963e-06
2.46671e-05
2.26256e-05
8.46548e-06
3.86918e-17
1.19026e-05
4.02915e-07
2.73419e-14
1.96819e-05
2.03317e-05
4.28646e-05
4.79235e-18
2.32776e-06
2.30975e-17
1.69125e-19
9.56194e-18
9.51944e-18
1.78722e-08
1.17626e-17
2.58163e-13
6.74568e-17
8.6308e-19
8.26559e-08
5.08458e-05
1.18603e-17
3.991e-05
2.83259e-17
1.27938e-17
3.0221e-17
4.71085e-05
5.1981e-07
3.57521e-17
9.64045e-18
9.2871e-19
2.21137e-18
0.000261158
8.28737e-05
2.25984e-17
2.2867e-06
3.03148e-09
6.30097e-18
4.40252e-05
9.33073e-06
1.49727e-05
2.20535e-19
5.38934e-18
4.90261e-07
1.28877e-06
7.81053e-17
1.53591e-18
1.94657e-17
8.61648e-06
2.00445e-18
1.94749e-17
1.00602e-17
4.90294e-05
2.29224e-06
7.88448e-19
0.0047857
0.000326048
1.24967e-05
1.05094e-18
1.10711e-17
6.68886e-05
4.50911e-07
6.47929e-18
8.37481e-09
0.000153649
3.11842e-06
1.37918e-05
1.41676e-17
6.53997e-05
2.13408e-06
9.28385e-18
4.77623e-18
2.43148e-19
2.23609e-18
1.92272e-19
2.30488e-18
2.55182e-05
2.45976e-17
1.10122e-17
1.08244e-17
1.40114e-05
2.80615e-05
4.55434e-18
5.89987e-18
0.000126988
1.67989e-05
1.12771e-05
4.71195e-17
1.96003e-18
4.35581e-05
9.16697e-19
2.23805e-06
3.06358e-06
4.52106e-06
5.12972e-18
3.30737e-18
1.47389e-18
5.50292e-20
1.82594e-05
2.61183e-18
5.95359e-18
1.14296e-06
1.56774e-17
2.68187e-05
2.07081e-06
1.25468e-17
4.42552e-05
0.000520951
2.96846e-06
3.51034e-05
1.88625e-07
5.42887e-05
1.52303e-13
1.68942e-17
2.75688e-05
8.528e-05
7.31516e-06
7.00566e-18
9.72996e-13
0.000839336
1.20395e-05
4.22448e-18
3.17306e-06
3.27872e-06
1.51307e-06
3.66906e-17
7.64343e-18
1.3049e-18
1.56329e-05
1.97832e-18
3.0236e-06
6.5456e-18
1.55811e-06
1.62233e-06
4.29559e-05
6.77557e-07
8.64932e-19
1.04576e-17
6.71722e-18
2.44276e-05
5.9927e-18
8.43972e-18
7.01301e-08
2.267e-19
1.75728e-18
6.07464e-18
2.7641e-19
1.13967e-05
1.09816e-17
6.67756e-19
5.98851e-13
5.24303e-18
3.51395e-18
9.39924e-17
6.17281e-18
3.64158e-09
1.90205e-06
3.75592e-17
4.55567e-06
9.05902e-09
3.77081e-10
7.57408e-08
5.0074e-06
1.3762e-17
1.12893e-08
1.1672e-05
4.69635e-07
1.58252e-17
1.746e-12
9.59995e-07
1.61332e-18
1.12904e-05
2.39339e-07
2.08808e-09
2.8839e-05
1.09238e-05
2.6936e-06
6.20674e-06
2.39513e-06
1.37592e-17
3.61891e-18
3.80664e-05
3.06464e-05
3.09011e-17
9.70089e-06
6.47712e-05
3.37755e-05
3.33654e-17
1.62311e-06
1.80803e-19
1.23037e-05
1.65001e-05
5.81041e-18
1.81493e-06
5.53471e-07
1.50773e-09
5.68779e-06
4.62424e-18
5.79442e-05
1.87914e-08
1.91981e-06
4.04807e-08
1.53226e-08
2.07757e-18
3.01065e-18
8.86353e-06
6.43009e-19
1.34077e-07
3.25526e-07
2.47923e-07
5.93511e-11
9.32168e-11
9.59792e-10
4.14296e-19
7.83048e-17
2.74232e-05
1.79993e-17
2.8257e-07
2.52274e-06
1.9494e-17
6.26983e-18
6.72896e-10
9.79299e-13
5.87773e-19
5.30007e-09
8.87512e-18
1.18132e-18
3.87201e-18
6.6776e-18
4.16842e-17
3.05858e-17
3.54779e-07
4.88564e-18
3.08488e-18
2.71349e-18
7.72818e-09
6.62936e-08
2.19296e-06
1.10636e-05
7.21486e-19
5.99757e-18
2.17903e-07
2.0836e-18
3.30714e-18
3.53487e-17
2.25396e-05
5.0399e-05
9.79027e-18
3.97362e-19
9.43761e-18
1.06713e-17
1.03103e-18
8.47228e-19
8.76845e-06
5.02413e-18
5.21034e-11
3.20812e-05
5.85036e-18
3.88176e-17
6.52426e-18
2.821e-08
6.12287e-18
1.60388e-18
4.90371e-19
9.83098e-09
1.7358e-17
5.48975e-06
1.20734e-09
6.19962e-12
1.31155e-18
7.78961e-08
2.60937e-06
5.28875e-05
6.54909e-18
8.25537e-09
7.07553e-06
1.00156e-17
1.49003e-18
4.18916e-17
1.17963e-18
9.83869e-06
2.07234e-06
4.12454e-06
2.06504e-10
7.77251e-19
2.68619e-05
1.15022e-17
6.06152e-18
5.56828e-17
4.28024e-18
3.11462e-05
1.06083e-17
3.11993e-17
2.27782e-09
6.04919e-05
7.17663e-18
3.03254e-06
2.27713e-17
1.09203e-06
4.53171e-17
4.90438e-18
3.56155e-18
2.18219e-17
3.0218e-06
7.55004e-07
0.000381331
5.11329e-18
8.02434e-18
2.52746e-06
6.37929e-18
2.66118e-17
2.88593e-17
4.56778e-05
9.59055e-09
3.71464e-05
1.88281e-17
1.09865e-08
5.13023e-08
7.6289e-17
1.26624e-07
9.62238e-20
1.61186e-06
3.1002e-05
2.40405e-05
1.55386e-06
3.04147e-07
2.05578e-18
3.11508e-18
1.0946e-17
2.32319e-08
8.01124e-18
8.13468e-06
7.9538e-18
0.000211843
8.08848e-19
4.96152e-05
3.84371e-06
2.84988e-17
1.67215e-18
2.49566e-17
2.78458e-18
4.56667e-05
3.32322e-17
5.2088e-17
1.4583e-05
7.71851e-06
2.57909e-17
5.52879e-17
2.95849e-17
4.30837e-17
4.30149e-18
1.86242e-18
2.90071e-05
5.2366e-07
9.66661e-18
2.54101e-18
5.41076e-10
7.30756e-18
1.84597e-06
1.33342e-07
5.16668e-18
3.86253e-06
7.61337e-18
4.27823e-07
2.20055e-18
1.22211e-06
5.64682e-18
1.03691e-10
2.47941e-09
8.20407e-07
2.03034e-05
3.83743e-05
1.36198e-09
4.91008e-19
5.64519e-07
1.87719e-17
5.35689e-06
2.71176e-18
6.14629e-18
3.85289e-17
2.80049e-18
3.84255e-18
6.70762e-18
8.07833e-06
8.97289e-06
2.70442e-18
1.97699e-16
3.21304e-17
8.18185e-07
1.68654e-08
2.79538e-18
2.18931e-05
2.27833e-07
9.34181e-18
2.76258e-05
9.74746e-06
4.14651e-06
1.4405e-05
1.88058e-18
2.57888e-17
5.32557e-18
8.97701e-18
4.3893e-05
3.96045e-18
0.000132937
1.88457e-18
3.36313e-07
8.73362e-07
7.02957e-18
1.02797e-06
3.53302e-18
2.78485e-18
3.36369e-06
2.85831e-11
9.92337e-06
3.49556e-18
8.59075e-19
4.02845e-19
9.31965e-07
1.94132e-18
1.67039e-17
8.27083e-18
3.96e-10
5.10428e-18
9.60137e-09
6.90222e-17
1.94053e-17
7.05829e-18
2.17285e-05
1.17188e-05
2.17129e-05
4.25436e-05
6.39326e-17
1.63798e-08
8.665e-19
5.90221e-18
1.21218e-05
2.05548e-18
2.77926e-09
3.87214e-07
7.81678e-06
3.87065e-07
1.14599e-12
2.44147e-06
2.93632e-18
1.2719e-12
7.12428e-13
1.36468e-07
1.04944e-06
1.73898e-05
8.25776e-11
5.21325e-17
3.66143e-05
1.03345e-17
5.96609e-18
2.00951e-08
8.91776e-05
7.85005e-11
3.15035e-18
5.6339e-18
4.16357e-10
2.49775e-17
2.08682e-18
1.82798e-08
1.8139e-17
2.87022e-17
4.79911e-05
2.33059e-07
1.80968e-07
2.71523e-05
8.69016e-06
4.25047e-18
3.5334e-19
1.4963e-08
4.93056e-06
1.04216e-18
8.85031e-18
1.20677e-05
5.54381e-18
1.6629e-17
2.505e-17
3.69115e-17
3.20403e-16
0.00308619
5.43101e-18
2.45263e-07
4.79985e-19
2.32548e-05
6.0936e-18
1.79148e-15
4.238e-17
1.88116e-17
7.06397e-18
1.05941e-17
3.61992e-06
6.88747e-21
1.17002e-17
5.51659e-17
6.72511e-18
3.85785e-18
1.64555e-17
1.17077e-05
9.53367e-19
1.31275e-05
3.38385e-06
2.06756e-18
1.90175e-06
6.27483e-18
5.52373e-07
2.23913e-09
4.69229e-06
1.62493e-05
4.10555e-18
1.09291e-07
9.7774e-06
9.1371e-09
7.53918e-18
2.35232e-09
2.1994e-05
5.61757e-06
2.82353e-17
3.13167e-05
9.82957e-18
9.17379e-18
1.13896e-17
1.62164e-18
9.75686e-06
1.91888e-17
4.80211e-18
9.8278e-06
2.30802e-10
3.1989e-06
3.43032e-18
9.08029e-17
7.79039e-07
1.17291e-18
9.92566e-08
6.43094e-18
2.72544e-05
9.34269e-19
2.74752e-18
6.51921e-08
5.81331e-18
1.51619e-07
5.98812e-17
4.28978e-19
5.92518e-06
4.97089e-07
5.78372e-06
1.91326e-05
0.000263347
2.41085e-05
1.06472e-18
9.48822e-17
3.30893e-06
8.07528e-06
4.31569e-05
1.3692e-05
3.44121e-18
1.43348e-05
3.20299e-18
2.37974e-18
1.03418e-05
1.26915e-05
6.47855e-18
1.54851e-05
1.18546e-18
3.29716e-06
1.03732e-05
1.60645e-17
1.95651e-19
1.64749e-20
3.18144e-06
1.25657e-17
2.24366e-17
4.75575e-06
2.49047e-05
4.53843e-09
8.99856e-06
2.33918e-18
4.8333e-18
9.08628e-08
8.86135e-07
6.53017e-19
1.19082e-05
5.12425e-17
3.02248e-06
2.72699e-18
3.58372e-18
1.42222e-05
4.66683e-18
4.85812e-08
4.06498e-06
4.61999e-19
2.19491e-18
4.95314e-06
5.25898e-14
6.33592e-05
2.46227e-17
0.000315998
1.24171e-17
4.70202e-17
1.29027e-16
8.52193e-06
2.03984e-17
1.23079e-18
6.44799e-06
1.31725e-17
2.74695e-07
4.88311e-17
1.19374e-17
1.0273e-17
1.42921e-10
9.13038e-07
9.29973e-19
1.30251e-18
4.23899e-05
1.10837e-06
1.05053e-17
5.44346e-07
1.13622e-17
2.08797e-17
1.77808e-09
3.34936e-06
1.48329e-06
1.33775e-17
1.07963e-18
2.97228e-18
2.37009e-19
3.76516e-17
1.04199e-17
7.89298e-19
3.40995e-18
3.02511e-18
1.06456e-17
2.41012e-18
9.74531e-18
1.78515e-17
6.91373e-18
8.44381e-19
3.66147e-18
2.65971e-18
2.36368e-18
8.56202e-18
8.5838e-19
9.44367e-18
2.12608e-05
1.93985e-17
3.724e-18
6.85745e-18
7.65817e-06
1.05609e-17
2.02277e-18
0.000311939
4.02688e-18
9.00264e-19
2.71612e-05
4.68562e-16
1.4893e-18
7.94697e-06
2.87152e-05
4.01214e-19
2.58258e-06
4.0615e-06
8.11599e-18
1.51424e-05
4.65342e-05
2.06882e-05
3.80862e-06
1.2514e-05
2.07237e-17
5.38782e-18
3.45468e-06
1.26062e-05
3.60425e-06
4.27854e-18
7.39897e-06
1.98341e-06
2.43806e-05
1.24437e-05
7.90773e-07
1.77679e-05
1.27314e-06
1.1461e-05
5.20792e-18
3.04368e-05
9.78733e-06
2.03378e-06
1.50669e-06
7.5531e-18
1.98796e-18
5.57342e-18
9.76872e-18
7.10444e-18
1.1044e-05
1.58331e-05
1.34741e-18
8.39811e-19
4.65976e-17
1.53096e-18
2.15326e-18
4.39841e-18
8.00043e-18
1.33509e-17
5.33354e-06
1.78021e-07
2.51652e-05
7.52446e-08
1.83999e-19
5.24387e-17
3.75299e-05
6.55218e-09
1.07418e-17
1.28209e-17
8.45289e-06
1.92111e-17
1.9651e-18
4.97649e-09
9.12611e-06
1.5867e-05
3.83428e-05
3.80173e-05
9.73735e-18
1.67764e-05
3.71466e-07
1.77426e-17
3.69784e-18
1.34155e-05
1.1987e-17
4.27938e-18
2.27723e-05
0.00123137
1.96144e-07
3.99522e-17
1.07555e-17
1.90876e-05
2.48958e-05
2.03822e-05
6.61987e-06
4.07099e-06
2.89006e-18
1.18763e-09
3.04279e-12
2.99104e-17
4.22055e-17
2.0148e-05
1.02516e-18
2.33944e-06
3.00761e-05
1.99004e-05
1.37862e-05
3.65114e-17
6.77259e-06
4.32183e-18
3.26094e-18
1.2929e-17
1.185e-18
2.93343e-06
0.000994149
1.95716e-18
4.28663e-18
4.69369e-09
2.7388e-05
1.05269e-06
7.94183e-06
3.8534e-05
5.51429e-06
2.31521e-05
9.44729e-18
8.7412e-18
2.40845e-17
3.59279e-05
6.53999e-06
3.03226e-11
9.40765e-18
2.58398e-17
8.83733e-18
2.53889e-05
3.19268e-06
7.32676e-19
5.5477e-06
6.49032e-05
8.19002e-06
7.00684e-06
1.75427e-18
2.75687e-17
7.94594e-06
2.65225e-05
2.36622e-18
3.62773e-07
1.64319e-05
1.12555e-06
1.08154e-05
5.3066e-06
9.25951e-06
6.59086e-17
3.97782e-06
2.37098e-05
4.29643e-05
5.92832e-13
2.67184e-05
1.31624e-16
1.91848e-05
1.71136e-07
5.29318e-19
2.95944e-06
8.32006e-06
4.16185e-07
1.30424e-05
1.45516e-09
1.70704e-07
1.91137e-08
4.17613e-05
4.06941e-06
1.08444e-17
4.50933e-05
1.39992e-06
2.71094e-18
1.37614e-18
4.49851e-11
1.01221e-08
1.17196e-06
0.00126982
4.00595e-05
1.2447e-05
2.53656e-10
4.9537e-05
2.10149e-18
1.83693e-17
4.66884e-06
3.1435e-17
2.44733e-06
5.42253e-06
2.38042e-06
5.37422e-06
5.36061e-18
2.44049e-07
0.000124752
3.49433e-18
3.01894e-05
8.39499e-06
1.27002e-18
4.39991e-06
2.01158e-07
9.53399e-18
6.78071e-12
1.05852e-07
2.15933e-17
4.19982e-19
8.65573e-20
5.04694e-06
5.11706e-06
1.62702e-05
2.07162e-18
5.87264e-06
3.73347e-05
2.97949e-18
8.93447e-06
1.38376e-05
2.83292e-05
1.6983e-06
7.19099e-18
6.72811e-07
1.07668e-05
1.1675e-05
9.98476e-06
4.34828e-05
0.000185641
3.80917e-06
5.00622e-18
7.63269e-09
5.88279e-05
3.45554e-18
4.6122e-07
6.01493e-18
2.40195e-18
4.77064e-18
1.90749e-17
4.65193e-19
3.65372e-06
1.3824e-18
7.82636e-06
1.44044e-06
1.61287e-17
4.61622e-06
3.29193e-17
1.63813e-05
9.9864e-18
2.06397e-08
1.54853e-17
2.4951e-05
1.65984e-07
2.3338e-09
4.54552e-06
3.30224e-05
1.93874e-05
4.43059e-06
3.01366e-05
4.91347e-15
2.48505e-05
6.1528e-05
1.03216e-05
1.35379e-17
1.32882e-06
3.25496e-07
6.20791e-06
1.24112e-05
7.23141e-07
3.82249e-18
1.46725e-17
3.25828e-18
4.28108e-06
6.10645e-18
1.63858e-07
2.54687e-07
1.29269e-06
3.12561e-07
6.32924e-18
1.23634e-17
1.97416e-18
9.55052e-06
2.42219e-05
1.47173e-06
9.65032e-09
2.16096e-06
7.67403e-06
2.22682e-06
9.57047e-07
7.95822e-06
6.61977e-06
2.89696e-06
1.75802e-17
3.81175e-18
3.71782e-18
1.5454e-05
1.23089e-05
2.20322e-17
7.57735e-18
5.33393e-18
9.19523e-06
2.1759e-05
2.97068e-17
2.3793e-06
2.13147e-17
6.52501e-10
5.61777e-06
9.80206e-05
2.30624e-19
4.72885e-19
4.27052e-06
4.9828e-18
7.53693e-08
1.34958e-05
1.81565e-18
1.20553e-05
3.73454e-05
2.0588e-05
7.49578e-20
1.32834e-06
4.18241e-18
8.98546e-08
5.53784e-05
2.12897e-17
2.43811e-19
1.2526e-05
4.58313e-16
3.74997e-17
4.57903e-08
1.16188e-06
1.47741e-17
5.86343e-19
4.74778e-18
6.64778e-08
1.45475e-06
3.68453e-06
2.75688e-05
1.04671e-05
2.36505e-17
7.272e-10
6.9488e-07
7.72794e-20
3.81093e-19
9.52079e-18
8.36346e-18
1.12101e-17
1.97718e-18
2.3215e-17
6.75706e-18
6.89683e-18
1.89977e-17
2.58332e-12
9.09501e-18
4.10655e-07
7.61964e-18
2.07348e-07
1.20502e-16
6.49388e-08
1.78053e-16
1.47899e-17
3.03439e-05
1.03337e-05
6.85731e-18
0.000101751
5.71645e-12
1.98397e-13
1.97387e-18
1.43603e-06
7.008e-15
2.96041e-06
6.58897e-09
1.03867e-06
1.43931e-17
1.04686e-17
9.37257e-07
3.65069e-11
4.32818e-18
1.11073e-17
4.3989e-05
2.53429e-17
4.18498e-05
3.21999e-18
2.72508e-18
1.63843e-09
3.16011e-05
9.37808e-06
1.94984e-17
3.69091e-07
4.89789e-17
2.66812e-06
1.89152e-08
2.09105e-06
9.66625e-07
3.35778e-18
2.29369e-05
1.23823e-06
5.74989e-06
7.45098e-19
7.6243e-19
5.56911e-19
1.51583e-05
4.52025e-06
5.72648e-05
4.53852e-18
4.47768e-10
6.292e-18
1.63356e-18
1.50137e-17
8.00151e-18
3.42331e-06
2.25226e-06
3.19958e-06
0.000353579
6.17412e-18
3.17108e-05
4.00977e-05
1.99009e-05
1.76221e-06
8.78883e-18
6.16863e-06
4.72533e-06
5.5362e-06
5.00212e-10
1.14919e-05
5.02908e-18
1.82966e-06
1.30009e-06
3.68223e-05
1.17986e-09
3.51894e-06
1.22249e-17
2.06204e-05
2.10336e-17
1.74592e-17
1.84289e-06
1.59188e-17
7.3397e-06
9.72514e-18
2.59818e-18
4.61987e-17
5.50591e-18
5.73732e-18
8.39478e-07
4.92023e-18
6.58712e-07
1.42889e-18
1.43467e-18
2.08886e-05
6.24595e-06
8.7118e-06
8.78906e-06
3.6747e-18
0.000657699
5.44302e-19
7.90551e-05
9.15692e-19
2.06154e-05
2.52625e-05
2.52998e-06
6.41143e-05
4.83366e-18
8.70976e-17
6.54136e-18
2.4536e-06
1.39995e-17
3.3236e-18
2.00214e-05
1.01525e-18
1.71012e-18
5.70074e-06
1.54687e-17
1.45241e-05
8.41357e-11
4.15163e-18
2.15463e-17
1.73029e-17
1.79227e-06
7.43723e-06
1.06637e-17
2.56344e-05
3.58712e-07
6.23313e-18
0.000115381
9.77855e-18
1.79847e-05
2.03915e-05
3.79892e-06
2.8606e-17
2.01698e-05
1.07408e-05
9.04789e-07
5.68455e-06
1.3916e-05
1.28841e-17
2.4176e-17
1.93182e-09
5.28432e-18
6.8198e-19
4.94387e-18
2.22095e-05
4.94732e-05
4.9613e-06
2.30304e-06
2.32891e-18
5.47922e-05
5.15777e-05
4.79344e-06
2.88603e-06
1.02038e-05
2.367e-05
2.8589e-06
1.20953e-18
8.01911e-18
4.96622e-18
7.38829e-06
7.11164e-18
2.85852e-05
5.67071e-17
8.43433e-07
5.34122e-10
2.94115e-06
2.50091e-05
4.03569e-18
1.13136e-17
2.71049e-06
3.99205e-07
3.3205e-17
3.37126e-17
2.4172e-18
3.67994e-08
3.2978e-07
1.52801e-07
8.73664e-07
1.10736e-05
9.93547e-05
4.81052e-17
2.57273e-18
1.54318e-17
4.25699e-06
2.10815e-05
2.27022e-05
3.88625e-05
2.13573e-06
3.10327e-06
5.63387e-18
2.63966e-17
1.60216e-16
4.32996e-18
1.08656e-05
2.50998e-05
6.48195e-18
2.21895e-17
1.2518e-18
3.15696e-19
9.65285e-18
3.54238e-18
1.49129e-05
1.14383e-16
1.18946e-06
0.000438938
7.72566e-18
1.69965e-08
2.562e-05
7.89752e-07
5.72057e-19
3.14617e-18
5.31646e-06
1.49259e-17
1.5697e-05
1.23704e-09
2.72259e-05
2.19601e-18
1.90004e-15
2.85424e-18
8.7826e-18
5.11094e-18
9.59968e-18
0.000219719
1.90455e-18
6.31219e-06
1.35217e-06
1.59153e-17
1.47817e-17
2.14262e-06
6.62579e-18
2.69973e-18
1.5589e-05
1.1326e-07
1.97876e-18
2.39327e-17
3.18716e-18
1.86972e-05
8.67002e-18
5.12632e-18
4.28053e-07
2.8067e-06
3.31203e-06
5.3241e-18
1.20477e-17
6.90196e-18
4.08496e-06
1.98411e-06
1.41026e-05
4.02148e-06
8.52219e-18
8.76815e-07
1.41152e-05
7.24334e-06
1.45301e-19
5.16913e-18
9.60506e-18
1.16341e-17
6.68025e-18
3.49405e-05
6.36131e-06
6.01766e-06
4.55647e-19
6.46827e-18
4.82606e-18
3.21432e-18
7.29294e-19
1.0066e-09
2.87363e-07
2.61598e-06
2.48838e-18
3.10896e-17
1.76891e-18
3.11286e-12
3.80658e-05
0.000127217
3.70326e-18
1.9685e-12
6.54185e-15
6.66685e-18
4.20942e-18
4.31286e-06
7.71273e-06
3.91834e-18
2.56949e-17
3.21214e-06
1.72892e-17
7.94363e-07
1.28339e-06
0.00243585
5.54587e-18
3.42341e-18
1.38594e-05
5.55231e-07
1.59922e-17
0.000767635
6.48863e-07
7.6019e-06
7.03618e-18
1.52645e-17
1.73005e-17
1.34768e-17
8.91159e-06
1.12413e-07
4.56653e-17
2.80445e-05
2.11573e-05
0.0010071
5.99695e-18
3.21156e-18
1.71551e-17
8.20536e-18
7.1597e-06
6.85699e-11
3.47748e-17
3.88914e-17
2.10911e-05
1.06675e-06
5.79783e-06
3.80795e-18
3.20058e-17
3.25702e-05
4.9192e-18
8.72345e-18
6.04548e-20
1.02495e-17
2.55671e-05
8.18854e-18
3.00748e-18
1.13809e-17
2.87903e-05
1.43273e-05
1.85381e-18
1.33823e-17
7.8084e-19
1.74334e-05
1.76184e-10
2.58189e-18
2.59746e-18
6.48291e-18
3.6441e-17
2.69895e-06
1.19804e-05
2.51381e-18
2.37826e-06
1.18643e-06
5.17372e-06
6.15923e-18
6.08108e-18
2.03418e-17
5.21262e-17
1.42727e-18
2.34944e-05
2.28386e-16
1.72623e-05
4.12591e-19
1.64577e-06
5.34641e-17
2.51726e-06
7.99664e-18
2.66516e-17
1.22272e-05
0.000209461
6.62801e-17
3.78591e-06
4.05468e-17
4.09725e-07
2.12227e-17
9.0812e-18
8.32344e-18
4.5577e-10
1.23853e-17
3.84712e-07
2.10245e-18
4.04835e-05
6.63678e-18
1.25755e-17
3.17618e-18
2.3541e-17
8.84146e-09
1.4825e-07
1.41865e-18
5.84118e-06
5.27905e-18
3.43639e-06
2.18877e-05
1.33938e-06
2.56997e-18
4.86052e-09
4.63106e-07
2.18237e-09
5.25422e-06
3.91994e-10
1.75163e-06
5.62621e-17
2.63487e-19
4.56442e-10
6.20193e-06
2.52076e-07
1.24884e-17
4.99431e-19
1.38962e-17
0.000623154
7.04166e-19
9.71408e-18
6.08962e-18
2.55164e-18
3.9425e-17
5.40621e-08
1.88267e-07
1.08737e-06
7.08043e-08
8.90929e-16
1.55883e-06
1.96538e-18
6.69597e-06
4.86367e-17
2.12727e-17
1.2113e-17
1.44099e-17
2.2581e-08
1.41312e-17
1.91898e-17
5.28663e-17
1.67926e-05
1.22306e-16
5.37281e-18
1.23742e-05
2.58854e-17
7.00055e-05
0.00012489
0.000593375
2.56039e-17
0.000233783
0.00138818
0.00154574
0.000769479
4.86245e-18
3.54811e-19
5.56492e-06
5.45328e-06
7.62999e-18
7.89201e-06
1.64644e-18
3.67168e-05
1.27927e-17
2.92184e-18
7.26387e-07
3.26293e-17
1.38964e-17
1.08254e-08
4.14072e-08
1.18461e-17
2.06133e-18
2.57909e-09
1.14953e-17
7.37815e-18
2.36434e-08
9.20639e-06
1.59173e-06
1.37453e-17
8.33438e-06
9.33226e-18
3.96474e-06
4.59804e-10
7.83884e-06
2.30376e-17
1.22408e-11
6.09113e-06
1.92328e-17
1.59053e-12
3.43017e-18
3.68706e-05
2.30188e-17
1.12668e-05
6.14661e-18
1.85614e-10
6.73554e-18
1.15559e-17
6.20195e-18
5.73031e-13
3.0786e-13
3.59074e-18
1.37958e-05
9.47919e-06
2.77959e-17
6.23956e-17
3.74054e-05
2.02812e-05
0.000208885
1.77762e-18
7.17955e-08
2.83264e-05
5.23936e-05
6.2446e-11
2.85542e-18
6.46973e-05
2.3801e-18
0.000254828
1.81039e-17
4.15875e-11
4.27174e-11
1.9607e-18
5.72261e-08
2.5207e-17
2.35626e-05
4.91884e-18
3.10177e-18
5.22802e-18
1.63879e-17
2.09753e-17
1.44082e-17
3.3618e-07
2.02446e-06
0.000153979
1.98844e-17
5.77557e-18
4.64188e-05
1.22573e-17
2.9668e-19
6.84725e-18
4.96392e-17
4.21813e-18
6.29473e-06
1.37676e-17
1.17878e-17
5.09695e-19
3.50494e-06
2.02318e-17
8.23391e-18
5.13885e-18
3.441e-06
6.49536e-18
6.47741e-06
0.00025536
5.48412e-06
5.82383e-06
2.85789e-05
4.50687e-18
6.31284e-18
1.81285e-17
3.30556e-06
2.00387e-06
4.14185e-19
1.51467e-17
6.18452e-07
3.4633e-18
1.16337e-17
0.000370759
1.10799e-17
2.4787e-05
8.34123e-18
2.55923e-06
3.86187e-06
8.08467e-18
1.82416e-18
2.11749e-17
5.2115e-18
6.60936e-17
2.14761e-05
1.52079e-17
4.89382e-06
6.04403e-18
6.55826e-18
7.25166e-06
2.85949e-17
1.4713e-05
4.09741e-17
3.59344e-18
2.61622e-06
8.55149e-08
0.000154638
8.70027e-18
1.75295e-18
2.60363e-17
4.02057e-06
0.000198338
6.9306e-18
2.54763e-19
3.80753e-17
1.57676e-06
1.36685e-17
2.25973e-05
3.34298e-05
5.20777e-17
4.8425e-18
7.54827e-06
6.16056e-17
8.97407e-18
5.95996e-19
9.12995e-18
7.74999e-18
7.39542e-05
3.4174e-17
3.76273e-17
1.11628e-17
1.35234e-17
1.46106e-17
2.67165e-17
2.11881e-17
7.00089e-18
6.63453e-17
8.55106e-06
1.49646e-17
8.76485e-06
7.64353e-17
6.29768e-18
0.000648775
2.84171e-06
1.66151e-17
9.91242e-18
9.95555e-18
2.50241e-06
1.13624e-17
3.35008e-17
2.31274e-17
1.45017e-17
7.55865e-06
3.06994e-19
5.06556e-06
4.16995e-18
1.10869e-05
6.32432e-18
6.37896e-05
1.71717e-17
3.77684e-17
2.24832e-05
6.50036e-18
6.78777e-18
3.02844e-05
3.18607e-07
4.93461e-18
3.48814e-17
4.19624e-05
1.17815e-05
6.76564e-06
8.49894e-07
1.86568e-06
1.88975e-05
1.01721e-06
5.71238e-06
3.93599e-18
3.03203e-05
6.33007e-18
5.48534e-18
8.50478e-18
1.00309e-17
6.04922e-17
1.07464e-05
2.50339e-17
1.53845e-17
5.27168e-18
2.14769e-09
1.1506e-08
3.54526e-17
2.7409e-06
8.63044e-18
4.5839e-06
4.77938e-18
1.15841e-09
4.10632e-06
2.34204e-16
4.89934e-05
5.0094e-19
7.26909e-19
1.57074e-17
3.10328e-06
1.502e-06
1.16224e-18
4.79223e-18
2.6183e-06
6.79364e-18
0.000729914
1.20194e-18
0.000109049
1.42333e-17
1.83118e-18
4.88601e-19
1.77559e-18
1.06149e-05
9.94295e-18
4.6868e-08
2.94671e-18
1.08427e-05
4.84763e-17
3.92144e-18
7.46399e-15
3.43498e-16
6.72091e-18
8.5932e-17
4.16164e-17
2.41339e-17
4.83563e-06
0.000220682
1.61101e-17
2.14287e-18
4.29118e-07
9.99845e-19
3.82749e-18
1.61698e-09
1.9129e-05
1.73446e-07
3.45648e-17
6.9512e-07
3.8775e-06
5.51605e-06
9.41879e-06
1.04644e-17
5.20598e-17
7.43227e-19
6.7592e-18
1.94801e-18
3.58833e-18
2.46648e-17
8.57099e-18
3.37948e-18
4.17112e-19
6.94085e-18
1.00326e-18
8.34504e-05
2.94591e-18
8.01483e-19
8.62422e-13
1.204e-18
2.68994e-18
0.00123074
2.06171e-18
1.14097e-18
2.03034e-06
1.76007e-12
4.27216e-18
1.35021e-17
4.00087e-18
2.50555e-05
4.67058e-18
2.03428e-17
5.21964e-11
1.49255e-18
8.02658e-18
1.89216e-17
8.42972e-18
0.000125741
4.1945e-18
2.07438e-07
3.93905e-19
7.04882e-18
7.68305e-18
1.57393e-17
1.26755e-18
2.64165e-11
4.80975e-11
1.33751e-07
1.09177e-18
4.54115e-18
3.8521e-17
1.11442e-10
1.50152e-18
3.19511e-10
1.62559e-11
1.7056e-17
7.70381e-18
1.90218e-17
8.02994e-12
3.5056e-18
4.4345e-18
2.24194e-12
4.66484e-17
3.55149e-05
3.64497e-18
7.45904e-06
5.64371e-17
2.52359e-09
5.15622e-18
1.70546e-06
5.35659e-18
4.85952e-06
2.69258e-05
2.47411e-17
2.91776e-06
1.37182e-08
3.44354e-18
1.11815e-05
4.24545e-18
1.94132e-18
2.75667e-17
3.12162e-18
2.19565e-17
1.08899e-18
2.10291e-18
4.87361e-18
0.000309651
9.00374e-18
1.03328e-17
1.07356e-17
1.63145e-18
3.79261e-18
3.57196e-05
0.000931309
3.26006e-09
1.41316e-08
5.60115e-19
2.1871e-06
1.49481e-06
6.5343e-18
1.23961e-17
1.89255e-17
5.73697e-18
2.64916e-18
3.74834e-18
8.1986e-18
3.02007e-19
4.57889e-07
4.00545e-17
7.85426e-18
2.10598e-07
3.19289e-09
4.25931e-17
3.02622e-05
1.57784e-17
1.33584e-17
4.42555e-18
0.000194798
2.45313e-17
4.4418e-19
2.81557e-05
7.79318e-19
9.51158e-18
4.43165e-18
1.0224e-17
6.09895e-05
9.65543e-19
5.95256e-18