/*--------------------------------*- C++ -*----------------------------------*\
  =========                 |
  \\      /  F ield         | OpenFOAM: The Open Source CFD Toolbox
   \\    /   O peration     | Website:  https://openfoam.org
    \\  /    A nd           | Version:  10
     \\/     M anipulation  |
\*---------------------------------------------------------------------------*/
FoamFile
{
    format      ascii;
    class       volVectorField;
    location    "5.5";
    object      U;
}
// * * * * * * * * * * * * * * * * * * * * * * * * * * * * * * * * * * * * * //

dimensions      [0 1 -1 0 0 0 0];

internalField   nonuniform List<vector> 
111485
(
(2.84671 -2.8467 0.00164204)
(8.26744 -0.0213531 -0.0447843)
(8.14942 0.0193925 0.0255367)
(2.84738 -2.84827 0.000220089)
(8.46379 0.0366873 -0.00254736)
(2.95313 2.95148 0.000197569)
(8.31993 0.0231791 0.00516425)
(8.54072 -0.0224162 0.0123762)
(8.33041 -0.00561053 0.00414404)
(8.51357 -0.0898544 -0.0383287)
(8.19891 0.0205319 0.0228225)
(8.57388 -0.0202192 0.0397919)
(8.07956 0.00581134 0.0193029)
(8.15201 -0.0169715 -0.0572501)
(8.2688 0.0320963 0.0185426)
(8.43512 -0.0550199 -0.0446811)
(8.31329 -0.007329 0.0116785)
(2.92484 -0.241972 0.446194)
(8.48231 0.0240823 -0.0177946)
(2.82686 -2.82293 -0.00159077)
(2.83158 -2.83164 -0.00321563)
(2.9606 2.9597 -2.99089e-05)
(8.39111 0.0229059 -0.00265253)
(8.51905 -0.0553692 -0.0166747)
(8.35463 0.0349814 -0.0100729)
(2.86947 -2.85693 -0.00292426)
(8.61276 -0.0403595 0.0446748)
(8.16292 -0.0115544 0.00228444)
(8.50835 0.0131494 -0.0196443)
(2.83762 -2.83789 2.86753e-05)
(8.58302 0.143259 -0.0384289)
(8.46664 -0.0174818 0.00269745)
(2.82511 -2.83109 0.00421648)
(2.9572 2.96297 -0.00705187)
(2.9706 1.22501 0.479266)
(2.97538 2.99517 -0.0436894)
(8.54192 0.142375 -0.0582121)
(8.2533 0.0309085 0.0723064)
(8.49961 2.5648 0.144805)
(8.47372 0.0415929 0.00431637)
(2.92042 2.94694 -0.0210175)
(8.56998 0.0100481 -0.0487837)
(8.46632 0.0437489 0.0153765)
(8.17296 -0.0490603 -7.82654e-05)
(8.55002 -0.151991 -0.0775203)
(2.85677 -2.83536 0.0144566)
(8.57032 -0.0400397 0.0409994)
(8.50698 -0.0511287 -0.0157709)
(8.57013 0.00369889 -0.0373664)
(2.83087 -2.79764 0.014948)
(2.81657 -2.7888 0.0177987)
(3.36507 2.82808 0.0490562)
(2.80708 -2.79654 0.00942329)
(8.55921 0.0382414 -0.0710878)
(2.80133 -2.78853 0.00262815)
(8.45456 0.0218046 -0.00801)
(8.45777 -0.0348658 -0.0164875)
(2.9601 2.95488 0.00177673)
(7.72287 -0.0176963 -0.134438)
(8.49892 0.0361115 -0.00442936)
(8.49702 0.0397715 -0.00345502)
(2.83814 -2.84365 0.0035175)
(7.88427 0.00924239 0.051734)
(8.60429 -0.0199971 0.0662925)
(3.05317 2.76575 0.00439744)
(7.77621 0.0166699 -0.0147069)
(5.97203 -0.491068 0.213645)
(8.52317 -0.0310407 0.0119989)
(7.69986 0.00258245 0.0237724)
(7.30113 -0.0146906 0.0033943)
(8.23137 0.0513501 -0.0433298)
(7.64556 -0.00806793 0.0249604)
(3.07153 -2.76712 -0.0635438)
(7.80051 0.0141003 0.0597019)
(2.84393 -2.84316 -0.000197602)
(8.48043 -0.0185275 0.00878465)
(2.96003 2.95961 -0.000795701)
(8.56174 -0.0187634 0.0450509)
(2.95884 2.95733 -0.000259547)
(2.66267 2.59651 -0.0893512)
(8.25204 -0.126599 0.0855564)
(8.51994 0.0341021 0.00591483)
(2.9488 2.9421 -0.000300683)
(2.84435 -2.84429 0.00158398)
(8.03132 -0.00302858 0.0155853)
(7.71142 0.0212824 -0.0306127)
(6.59853 4.2794 -1.15255)
(8.44679 0.0995847 0.00970043)
(8.13753 0.211073 0.180939)
(8.24727 0.0165331 0.0173622)
(8.70991 0.171362 -0.111441)
(8.47216 -0.0145821 0.0139169)
(7.93409 -0.0134393 0.0283813)
(8.07239 -0.00809622 0.00724274)
(8.58074 0.0252237 -0.0526692)
(2.84441 -2.84373 -0.000701926)
(2.83879 -2.83883 0.00168088)
(8.44357 0.0931479 0.0294874)
(8.71523 -1.72451 0.12264)
(7.91715 0.0285595 0.0503266)
(2.8446 -2.84486 0.00109908)
(8.48577 -0.045571 0.00467467)
(2.97242 2.97755 0.0162364)
(8.4167 5.43541e-06 -0.00513453)
(8.33796 -0.0421185 -0.0525398)
(2.90308 2.59398 -0.0617489)
(2.95965 2.95846 -0.000626838)
(8.47263 -0.0216127 -0.00185322)
(7.84804 -0.0431722 0.00924371)
(7.51689 -0.223386 -0.237253)
(8.0354 -0.00653411 0.0164642)
(8.42055 0.0121208 -0.0044601)
(7.866 -0.00579239 0.0311286)
(7.74738 -0.0400286 0.0160079)
(2.87183 -2.85654 0.0024755)
(7.47044 -0.00661798 0.0211525)
(2.85532 -2.84675 -0.00378922)
(2.97272 2.96007 0.0123374)
(8.28555 0.0297394 0.0242718)
(2.84693 -2.84514 0.000918743)
(2.87068 -2.85601 -0.00111589)
(3.89815 3.06332 0.183355)
(2.92797 2.94056 -0.00484544)
(2.96574 2.95859 -0.00705714)
(8.09718 -0.0199155 0.0384813)
(2.27438 -1.61101 -0.417504)
(3.71533 3.19381 0.113355)
(7.54155 -0.00197299 0.034003)
(2.8443 -2.84304 -0.00122037)
(8.52094 0.635016 -0.2304)
(8.5149 0.168029 -0.0865745)
(8.42805 0.0955458 0.0289841)
(2.83153 -2.82394 -0.0138124)
(3.81606 3.31688 0.344033)
(3.5602 3.17544 0.150406)
(8.50499 0.0250607 -0.0168819)
(2.96171 2.96163 -0.000867168)
(8.43624 0.0192375 0.00182912)
(8.38874 0.038811 0.0232396)
(8.24871 0.0358488 0.0353176)
(6.48371 0.000750529 0.0259331)
(8.45442 0.0440999 0.010482)
(8.3838 0.042452 0.0272327)
(8.00198 0.00721768 -0.0315963)
(8.36234 -0.0154476 0.00692863)
(8.26104 -0.00510831 0.0185742)
(2.96208 2.9627 -0.000476867)
(2.84455 -2.8459 0.000311069)
(2.95408 2.95574 0.00611708)
(8.46064 0.0379448 0.00490324)
(8.00685 0.0125749 -0.0287396)
(2.83366 -2.8323 0.00111063)
(5.52136 -0.0317686 0.0549562)
(8.25202 0.0384126 0.0195473)
(9.0373 0.359289 0.1582)
(8.50408 0.0245386 -0.0168622)
(8.4668 0.0270518 -0.00620986)
(7.86441 0.00360832 -0.0160959)
(9.11735 0.440994 0.108373)
(2.82863 -2.85521 0.0111374)
(2.84228 -2.84485 0.00301705)
(8.49065 0.0235623 -0.0168585)
(8.3196 -0.0282107 -0.0295256)
(9.177 0.498091 0.118157)
(9.04994 0.436108 0.162915)
(7.88383 0.00984074 0.0412521)
(8.47448 0.103385 -0.0380355)
(2.92277 2.94701 0.000757478)
(9.2863 0.616047 0.145786)
(8.85897 0.44156 0.134309)
(2.95752 2.95896 0.00112288)
(2.83881 -2.83829 -8.70783e-05)
(6.79726 0.0075198 -0.0557586)
(2.96072 2.96221 0.000460322)
(8.42249 -0.0186513 -0.00257309)
(8.12382 0.00406769 -0.0175632)
(2.95949 2.88801 -0.0168647)
(3.0744 -2.82466 0.0310153)
(2.83763 -2.82319 -0.00467401)
(2.91709 2.75309 -0.0289945)
(3.08958 -2.84754 0.0488271)
(2.84196 -2.84314 0.00276226)
(8.44295 0.0301689 0.00570198)
(8.45468 0.0203244 -0.0154547)
(8.42568 0.0232583 -0.01002)
(8.31042 -0.0265617 0.0298677)
(8.02056 -0.0202483 0.00645929)
(8.04885 0.0127921 0.0241677)
(7.15543 0.0869126 -8.36616e-05)
(2.83958 -2.83036 -0.000858273)
(7.80109 0.000827412 0.0108471)
(3.06757 -2.84587 0.0304527)
(2.86505 -2.86989 -0.00128262)
(8.11482 0.0149098 0.0278879)
(8.51754 -0.100895 -0.0362965)
(8.44475 0.0154755 -0.0384589)
(8.11667 -0.00768472 0.00974231)
(8.25448 -0.00435316 0.00917405)
(2.83885 -2.83428 0.00722946)
(8.10532 -0.0339397 0.00896075)
(8.07406 -0.00796572 -0.0484761)
(5.64355 1.79219 0.238519)
(8.27541 -0.067191 0.00551066)
(8.39111 -0.0122383 0.0072815)
(2.85253 -2.83696 -0.00469546)
(8.08065 0.019292 0.0273141)
(8.47852 0.0200137 -0.00208238)
(3.11937 -2.8115 0.0122465)
(8.13827 0.0199169 0.0308128)
(8.54476 -0.00643309 0.0428087)
(8.00172 0.00799398 -0.0326526)
(8.05669 0.0206178 0.0371105)
(3.08666 -2.85678 0.0398615)
(2.83707 -2.83761 -0.00100129)
(8.05414 0.021749 0.0405386)
(5.27482 3.30661 -0.327)
(8.63929 0.0368815 -0.0836655)
(2.95914 2.95956 -0.0012956)
(8.10435 0.0153686 0.0328949)
(8.1153 0.00499722 0.00350126)
(8.59114 -0.0263846 0.0532281)
(2.84646 -2.84501 0.00130272)
(7.58975 -0.00310117 0.0187033)
(8.49258 0.12357 0.0648255)
(4.66 3.12561 -0.342036)
(2.96078 2.96097 -0.00187344)
(2.95749 2.95884 0.000864339)
(8.68025 -0.0513137 0.0832527)
(8.10708 0.189418 -0.0238021)
(3.11329 2.62672 -0.0612132)
(3.52437 -2.73278 0.111355)
(8.13848 0.00702884 0.0142242)
(8.39431 0.0136972 -0.00107579)
(8.47434 0.0185782 0.00810096)
(3.06736 2.66712 -0.078422)
(3.00112 -2.76241 -0.0103783)
(8.17258 0.0992156 -0.117799)
(2.84361 -2.84356 0.00186557)
(7.76117 0.00859693 -0.049419)
(8.04771 0.00512145 0.0339883)
(8.13435 0.00229844 0.0189665)
(8.14317 0.0164819 0.0208563)
(8.17521 0.00810629 0.0283312)
(2.94947 2.95012 0.00944431)
(6.17308 -0.0179772 -0.236311)
(8.27227 0.0265682 0.0248026)
(2.94493 2.95016 -0.00405503)
(2.95992 2.96079 -0.000191571)
(8.6187 -0.102313 -0.00911585)
(8.41685 0.0383439 -0.0121328)
(3.03122 2.57983 -0.0812648)
(7.70386 -0.00841451 0.020584)
(8.24989 0.0185412 0.0198274)
(2.84578 -2.84471 -0.000809654)
(3.74207 3.53511 -0.0237478)
(8.48486 0.0800482 -0.0352574)
(2.85668 -2.81977 0.00168292)
(3.15847 -2.24748 -0.0537745)
(4.33507 -1.51953 -0.151634)
(2.84896 -2.84096 -0.00174725)
(8.30009 -0.0130231 -0.0171766)
(8.07793 -0.0146623 -0.0138446)
(8.39904 0.0131112 -0.0209904)
(2.84243 -2.84274 -0.00034848)
(8.30558 0.0257225 0.0195386)
(2.84751 -2.84818 -9.52825e-05)
(2.8468 -2.84783 0.000882111)
(2.83885 -2.82786 0.00470891)
(5.70549 0.0208364 -0.0818025)
(8.54663 -0.0399472 0.0466559)
(8.13449 0.0304423 0.0417806)
(8.28765 0.0277315 0.0132731)
(8.57325 -0.0473015 -0.0014298)
(8.25047 0.0130828 0.0138621)
(8.45123 0.0307114 0.0108659)
(8.5201 0.143413 -0.0138208)
(8.33422 0.0128023 -0.0030085)
(8.40236 0.0130879 -0.00429187)
(3.01106 2.9629 -0.00164222)
(2.83515 -2.8352 -0.0036313)
(5.22327 0.032054 -0.125508)
(8.44941 -0.017149 0.00248951)
(8.52431 0.0656015 0.0701791)
(8.05884 -0.0114848 -0.0127623)
(2.84718 -2.84542 0.00123032)
(8.40798 0.0271913 0.0155812)
(8.44291 0.0433197 0.0203252)
(8.27575 0.0183791 0.0108008)
(7.29764 -0.00663419 -0.0392805)
(7.63639 -0.0883992 -0.189721)
(8.39563 0.0260592 0.00985737)
(8.26529 0.0229358 0.0151307)
(8.42116 0.0667506 -0.0421501)
(2.95976 2.96043 0.00112864)
(7.73795 0.0417982 -0.00227716)
(2.95865 2.95894 -0.00104476)
(2.39884 1.81932 -0.387291)
(3.20314 -2.05778 -0.207033)
(8.74541 -0.0796603 0.116669)
(8.57593 -0.0471386 -0.0012212)
(8.37093 -0.00381632 0.000793401)
(2.84872 -2.84129 -0.00112626)
(2.94689 2.96409 0.0242028)
(8.39264 0.0290794 0.0159659)
(8.05405 0.0167541 -0.011081)
(2.83564 -2.83426 0.000144596)
(2.84715 -2.84497 0.00255318)
(2.77998 -2.7944 0.0210288)
(7.99035 0.010334 -0.00420994)
(8.36595 0.00810804 -0.00795019)
(7.99212 0.00127884 0.0276642)
(7.75067 0.00941387 -0.0395546)
(8.52707 0.0238026 -0.0193099)
(3.39095 2.91237 0.0784681)
(2.95344 2.9606 0.00530825)
(2.84381 -2.84019 -0.0011111)
(8.36349 0.0295472 0.0210707)
(5.43802 -4.60956 -0.328343)
(7.97829 -0.00835139 0.0120943)
(8.68695 -0.0606767 0.190696)
(7.00704 0.00632089 -0.142772)
(2.96051 2.96121 0.000109831)
(2.84249 -2.84529 0.00215785)
(2.84644 -2.8477 -0.00148651)
(3.7336 3.12977 0.193786)
(8.46826 0.0251957 -0.0030291)
(8.54084 -0.0481982 0.0100842)
(2.9649 2.97254 0.00101536)
(8.41491 0.0225827 -0.00176269)
(3.12686 2.53029 0.179594)
(2.85035 -2.81566 -0.00378471)
(8.6286 -0.02833 0.0695546)
(8.39245 0.0299572 0.0157739)
(8.57691 -0.0100496 0.0200005)
(8.41817 0.0233557 -0.000734062)
(2.8449 2.51859 0.154573)
(3.69589 3.17863 0.20442)
(2.95302 2.95646 -0.00435428)
(8.40489 0.0289624 0.0115006)
(8.3907 0.0240023 -0.000490893)
(8.55638 0.154411 -0.0539662)
(2.92607 2.91909 0.00540182)
(5.86004 5.18607 -1.24431)
(8.02258 0.0798119 0.0722931)
(8.54923 -0.0391917 0.0208838)
(8.41155 0.0307713 0.0195992)
(8.00783 0.826687 -0.0638015)
(8.52664 0.0199899 -0.0230648)
(2.94914 2.94787 0.00158194)
(8.52592 0.0224075 -0.0150068)
(8.20071 0.0117633 0.016599)
(8.63037 -0.200095 -0.00158547)
(8.65484 -0.051573 0.105736)
(8.35521 -0.0657809 -0.0603734)
(2.94569 2.96007 -0.0105529)
(2.84014 -2.84357 -0.00505911)
(2.9651 2.94741 0.0114176)
(2.82269 -2.83078 -0.000559969)
(8.52892 -0.0389067 0.000899186)
(8.453 -0.0109172 0.00272371)
(8.46235 0.0387976 -0.032017)
(8.52338 0.0228383 -0.025526)
(2.93512 2.93842 -0.0126341)
(8.43581 -0.0602987 -0.0217844)
(2.9566 2.95723 0.00157334)
(2.83416 -2.84214 1.75658e-05)
(8.5228 0.025137 -0.0177127)
(2.61856 -2.62142 0.037591)
(4.69538 -0.853277 -0.0619882)
(2.81108 -2.8006 0.00215614)
(2.98426 2.9448 0.0236516)
(8.44338 0.0131647 -0.0104154)
(2.9584 2.95672 0.0012008)
(8.33809 0.0222046 -0.00478793)
(7.94513 0.00419163 -0.0349608)
(2.96412 2.96427 -0.000667615)
(7.65773 -0.00414829 -0.0357409)
(8.30317 0.0148494 0.0109258)
(2.98115 2.61437 -0.0968212)
(8.26422 0.0360113 0.040949)
(7.83499 0.0399019 -0.00345608)
(8.31894 0.037272 0.0133247)
(7.75705 0.0292827 0.0988077)
(8.3873 0.0234526 0.00426398)
(8.03137 0.00237749 -0.012998)
(2.92665 2.49935 -0.0124502)
(2.83463 -2.82915 0.0168842)
(7.19077 0.0112991 0.168544)
(2.9389 2.94869 -0.0166021)
(8.30596 0.0448607 0.0406588)
(8.63559 -0.0428629 0.0857777)
(2.97294 2.84101 0.024169)
(2.95234 2.96494 -0.00150627)
(8.5048 -0.0153694 0.00634608)
(8.1991 -0.0377176 -0.0824414)
(8.22595 0.0407304 0.00446962)
(8.52349 0.0226586 -0.0088246)
(2.95946 2.95568 -0.00109497)
(8.67175 -0.0222972 0.140132)
(8.53923 -0.0286788 0.0417208)
(2.96822 2.9638 -8.71935e-06)
(8.36126 0.130776 0.10703)
(7.98489 -0.0317311 -0.0846377)
(2.8398 -2.84011 -0.000521205)
(2.83631 -2.8362 0.000646838)
(8.32764 0.0251247 -0.00858355)
(8.38329 0.00710047 -0.012054)
(2.97111 2.97114 -0.00383776)
(2.84234 -2.83647 -0.00467823)
(5.00395 -2.69889 0.614006)
(2.84613 -2.84821 0.000570327)
(8.38529 -0.00262479 0.0143085)
(2.93956 2.95033 0.00660259)
(2.84697 -2.84808 0.000103649)
(8.58212 -0.00964092 0.0283413)
(7.7834 -0.0899759 -0.223001)
(8.4876 -0.0490462 0.0109106)
(8.2063 -0.00179696 0.0160133)
(2.96626 2.96376 0.000244416)
(3.8414 2.95983 0.149032)
(8.2045 0.108931 0.16009)
(3.59875 3.17339 0.16868)
(8.17952 0.0353346 0.0629515)
(8.14076 -0.066266 0.00625777)
(8.50064 -0.0259212 -0.022172)
(5.91674 0.174899 0.222976)
(3.53243 3.04237 0.154743)
(8.47976 0.0130448 -0.0807051)
(8.60703 0.269093 -0.0824403)
(2.84217 -2.84707 0.00544627)
(8.57574 0.0214274 -0.08392)
(8.58207 -0.036973 0.0324631)
(2.84742 -2.8467 0.00304976)
(8.26987 0.471766 -0.252988)
(7.24979 -5.17764e-06 -0.0970956)
(3.73705 2.9373 0.124528)
(8.54806 -0.0158259 0.0332517)
(8.44554 0.0127682 -0.00960301)
(8.39102 0.0220263 -0.0063982)
(2.95932 2.95635 -0.000775699)
(8.35302 -0.0133982 0.0577849)
(8.58333 -0.00220975 0.0267259)
(8.32205 0.0806772 -0.00831296)
(5.24126 -0.0728216 0.086635)
(3.59937 3.39411 -0.0702607)
(4.94785 -0.126104 0.167454)
(2.84149 -2.84547 0.0021537)
(7.71274 -0.261186 -0.25254)
(8.35479 -0.0149087 -0.0551847)
(2.9603 2.95834 0.00444213)
(7.96601 0.0192411 -0.0594506)
(6.56428 -0.0172434 0.119371)
(3.83755 3.39385 -0.0354902)
(2.84412 -2.84219 0.000266782)
(3.33014 -2.82895 0.0914082)
(2.84641 -2.84539 -0.000159615)
(8.30828 0.0502853 -0.00575789)
(8.37963 0.0442485 -0.0144599)
(8.31495 -0.0217872 -0.0223201)
(7.81989 0.0197398 -0.0413611)
(8.51092 -0.171407 -0.0357018)
(2.9575 2.94497 -0.00547834)
(8.26294 -0.00142902 -0.0162845)
(2.85288 -2.83155 0.000414197)
(8.17567 0.0296253 0.0201531)
(2.96917 2.97008 -0.000554731)
(2.84429 -2.84192 0.000149218)
(2.81516 -2.8229 -0.0040954)
(8.03888 -0.0517629 0.0103417)
(2.83354 -2.83511 -0.00229028)
(2.84578 -2.84611 0.00130292)
(2.92005 1.94014 -0.121737)
(2.84661 -2.84822 0.00122431)
(2.92758 2.96819 0.0278286)
(8.23423 -0.031596 -0.0127751)
(2.96052 2.95625 0.000689251)
(3.50915 2.59067 0.00425821)
(2.96123 2.96254 0.00362203)
(2.83542 -2.82576 -0.000980915)
(2.96011 2.94932 -0.00444044)
(2.83444 -2.81993 -0.0143173)
(2.94262 2.94493 0.000115048)
(7.50939 -0.000362574 -0.0612806)
(2.96464 2.94934 0.0118774)
(7.68856 0.112879 0.155616)
(8.41428 0.0126864 -0.00403557)
(8.67147 -0.351634 -0.0603599)
(2.96547 2.95385 -0.000760065)
(7.32491 0.0209592 0.120898)
(2.96475 2.95461 0.00286435)
(2.84691 -2.84799 -0.00135082)
(8.2811 -0.078473 -0.0847658)
(8.29467 -0.0629468 -0.0764133)
(8.31878 -0.0168402 -0.0211549)
(8.69392 0.0204777 -0.146123)
(3.40395 2.86229 -0.0941088)
(8.51656 0.00866569 -0.0464227)
(8.51087 0.0139423 -0.0446071)
(8.40326 0.014294 2.17813e-05)
(8.27352 0.0090147 0.00301937)
(8.41891 -0.0846831 -0.0576395)
(2.83445 -2.83521 -0.000894666)
(8.4108 0.0110132 0.000169716)
(3.87606 3.37532 -0.0248413)
(8.39051 0.021393 -0.0106175)
(2.95596 2.9534 -0.00176766)
(8.5433 0.0274074 -0.039491)
(3.83371 3.18276 0.029425)
(8.41956 0.00634278 -0.0123292)
(8.45426 -0.0398165 0.0309129)
(3.28135 -1.66163 -0.0178439)
(2.9608 2.96299 0.0327875)
(8.2843 0.0142055 0.01542)
(2.84354 -2.84221 0.000268548)
(8.57938 0.0342474 -0.0559303)
(8.51645 0.0332801 -0.0357761)
(2.95775 2.94919 -0.023466)
(2.95134 2.95053 0.00713618)
(2.89496 2.59457 -0.0579503)
(2.95765 2.96012 0.00136014)
(5.94693 -0.319985 0.165569)
(8.58399 0.0302666 -0.0531031)
(3.00236 2.93142 -0.00216804)
(2.95426 2.95809 0.00276742)
(7.35023 0.00964841 -0.0169196)
(2.9623 2.9625 -0.000199528)
(8.45235 0.0237978 -0.0299514)
(2.96035 2.95941 0.000930034)
(8.36679 -0.0501019 -0.0356838)
(2.84705 -2.84751 0.0008235)
(7.85423 -0.0392191 -0.11664)
(6.50497 -0.0257948 0.00541782)
(7.88504 0.0230775 -0.0165279)
(8.42197 0.00855425 -0.013415)
(2.9716 2.94917 -0.00952045)
(7.66998 0.00791919 -0.00264726)
(2.96567 2.95474 0.00276164)
(2.96111 2.96183 -0.00817867)
(8.33394 -0.0216277 -0.0123747)
(2.95743 2.95417 -0.00195186)
(7.11209 -0.000186616 -0.0715491)
(2.85452 2.6265 -0.0872503)
(8.46279 0.0228911 -0.0259387)
(2.8376 -2.83875 0.000107533)
(8.53339 0.0186701 -0.0190839)
(2.84853 -2.84598 -0.000309485)
(3.51661 3.10968 0.0908906)
(8.6392 0.314931 -0.0232743)
(8.28707 -0.0705495 -0.0875414)
(8.41755 0.0355408 -0.000202167)
(8.48052 -0.0941765 -0.0613442)
(8.38039 0.0160092 -0.00854127)
(8.56534 -0.0584048 -0.00562815)
(2.93921 2.96196 -0.0133476)
(8.41185 0.0479325 0.0256948)
(8.32124 -0.0828726 -0.0839163)
(2.9598 2.96078 -0.00150617)
(7.07826 -0.104011 -0.273)
(8.60533 -0.0645749 -0.0427264)
(8.26292 0.0351048 0.0320988)
(2.92677 2.88731 -0.0166105)
(3.64936 0.719037 -0.586175)
(8.08714 0.0201055 0.0267504)
(6.62288 -0.0266362 0.066842)
(6.85247 1.75681 -0.0133559)
(3.68355 -1.87652 -0.15085)
(8.54957 -0.0963809 -0.0219156)
(8.03034 0.0301286 0.0593944)
(8.28014 -0.077094 -0.0845613)
(8.44179 -0.0469534 -0.0181041)
(8.29901 0.0480324 0.0208751)
(7.37076 0.947349 -0.0419524)
(3.66175 3.10431 0.0260063)
(7.50073 -0.288719 0.0699231)
(7.24932 -0.638282 0.149328)
(2.84108 -2.84268 0.00136912)
(7.41154 0.0509135 -0.0218598)
(2.97524 2.91957 -0.015652)
(3.47378 3.15772 0.030129)
(8.37384 0.0219432 -0.00404726)
(7.42788 1.25073 -0.0428167)
(8.94338 -0.768001 -0.141604)
(8.06751 -1.3996 0.0303569)
(3.46494 3.29208 -0.244171)
(8.5133 -0.0521765 -0.0168225)
(8.4049 0.0488157 0.0383843)
(2.95395 2.94496 -0.00117818)
(3.81387 2.11415 -0.0876143)
(8.40441 0.0632722 0.0400341)
(2.84475 -2.83454 0.00316052)
(2.9587 2.95776 -0.000321864)
(2.95032 2.94934 3.46505e-05)
(2.96342 2.94741 0.0036605)
(8.50987 -0.0866151 -0.0390838)
(2.96007 2.95933 0.00175084)
(2.85421 -2.85397 0.0149185)
(8.36118 -0.0507868 -0.0413193)
(7.72012 -0.0016563 -0.0225785)
(4.178 -3.65989 -0.192804)
(8.40486 0.0618411 0.0385727)
(3.44745 2.7836 0.0630931)
(8.44058 -0.0315308 -0.0178513)
(2.78948 -2.78748 -0.0128799)
(2.95322 2.95898 -0.00243773)
(8.49077 -0.053432 -0.0155743)
(2.95884 2.94222 -0.011458)
(2.96034 2.9536 0.00142557)
(3.3928 3.24649 0.0941156)
(7.99954 -0.00513146 -0.00477932)
(4.88008 4.0856 -0.542999)
(8.37009 -0.0342686 -0.0160145)
(8.37426 0.0215191 -0.00700367)
(2.81919 -2.80121 -0.0225339)
(8.69365 -0.0244735 0.275347)
(7.9586 -0.0480547 -0.117152)
(8.33978 0.000511044 -0.00385518)
(8.44559 0.153655 0.0157889)
(8.48451 0.0821848 -0.182586)
(7.31656 0.0027817 -0.0669413)
(2.95475 2.95161 0.00203949)
(8.50504 0.00791481 0.023869)
(8.43959 0.0362349 -0.00697533)
(2.81685 -2.85406 0.00545582)
(7.87019 -0.00384034 -0.00363881)
(8.5162 0.0541375 -0.0123297)
(8.51596 0.0389479 -0.0136114)
(7.76047 -0.0345867 -0.0758303)
(8.51383 0.0374825 -0.0147797)
(8.51749 0.0450944 -0.00433899)
(2.84959 -2.81186 0.017413)
(8.52164 -0.0163391 0.0412649)
(7.05144 -0.0441851 -0.0143114)
(3.56722 3.09666 0.197246)
(8.51209 0.0316568 -0.0198163)
(8.13083 0.00895182 -0.0190103)
(4.75131 3.86659 -0.585553)
(8.37598 0.0190811 -0.00746977)
(8.51634 0.0252989 -0.0260319)
(8.13356 0.00232071 -0.0336661)
(8.44885 0.0373956 0.00454409)
(8.35263 0.0847349 0.0384514)
(8.402 -0.00225469 0.016833)
(2.89488 2.82894 0.00417462)
(8.4481 0.0436727 0.00420173)
(7.93137 -0.0516559 -0.106114)
(3.18313 -1.91836 0.0735848)
(8.40704 0.0759838 0.047778)
(8.30094 0.0737726 0.072675)
(8.41955 0.0224217 -0.000465772)
(2.95521 2.9481 0.00262601)
(8.16367 0.0469541 -0.0771296)
(2.84429 -2.83179 0.00731287)
(2.9592 2.96017 -0.00169337)
(2.94419 2.92421 -0.00124211)
(2.96547 2.9479 0.000866515)
(7.10365 0.00387076 -0.0300752)
(3.52874 3.03555 0.123784)
(6.35894 -0.45519 0.525857)
(2.82932 -2.83064 -0.000473275)
(2.95314 2.99325 -0.00467703)
(8.41793 0.0816854 0.0447315)
(8.46737 0.0214212 -0.0384752)
(2.84663 -2.84558 5.24673e-05)
(8.47672 -0.0522233 -0.0072157)
(2.84449 -2.8425 0.00832601)
(2.84628 -2.84453 -0.00110641)
(2.79864 -2.79965 0.00868644)
(8.60062 -0.0665411 -0.00839385)
(7.1899 0.0406325 -0.0197379)
(3.49199 3.14472 0.0387901)
(2.87284 -2.84098 0.00755405)
(2.95615 2.96568 -0.00378027)
(2.95741 2.95993 -0.00115566)
(8.65638 0.0178774 -0.0958357)
(8.39861 0.0151145 0.00319676)
(3.51816 3.30759 0.153195)
(8.56069 0.0259003 -0.0463053)
(7.96757 -0.112046 -0.330505)
(2.95372 2.95563 -0.000937121)
(8.53841 0.0222802 -0.0404043)
(7.83142 0.00509169 0.0421806)
(8.30316 0.0433667 -0.0494184)
(2.96423 2.96294 -0.0003316)
(2.9558 2.95327 0.000131504)
(8.25755 0.0403023 0.0500674)
(8.42653 0.0202152 -0.00271856)
(3.49988 3.18183 0.049843)
(2.94653 2.94767 6.18896e-05)
(2.99506 2.90294 -0.00986855)
(8.38128 -0.0169176 0.00685761)
(2.8421 -2.84201 -0.00333663)
(2.83733 -2.82684 0.00196177)
(2.94258 2.94306 0.000381621)
(8.5361 0.0253821 -0.0358835)
(7.48128 -0.0369573 0.0141979)
(2.96308 2.96341 0.000156043)
(3.29586 0.646953 0.588459)
(3.59972 -0.398463 -0.139945)
(8.25027 0.0441272 -0.00198956)
(2.95428 2.95962 -0.00137506)
(2.9602 2.95494 -0.00208265)
(8.56055 -0.106233 -0.015848)
(8.20761 0.1395 0.132051)
(3.54892 3.16941 0.150529)
(5.17262 1.67289 0.122101)
(8.09427 0.171942 0.235968)
(7.74925 0.0233562 -0.0528235)
(8.23596 0.00530078 -0.00530083)
(3.05945 2.87204 -0.00699268)
(8.18628 0.0231469 -0.0045714)
(8.48422 -0.0564606 0.0599708)
(2.96483 2.95744 -0.00335826)
(2.82393 -2.77429 0.00444253)
(2.94434 2.94554 0.000366827)
(2.95423 2.95383 -0.000501125)
(2.95968 2.96464 -0.00327772)
(2.96407 2.96467 -0.000443335)
(8.55331 0.0240244 -0.0375757)
(2.84407 -2.84352 0.00206657)
(2.9522 2.95259 0.000589345)
(2.94292 2.90463 -0.00360788)
(8.5606 0.0261947 -0.0471378)
(8.41749 0.0199949 0.00241904)
(2.85615 -2.81837 -0.00126738)
(2.81037 -2.77971 0.00592593)
(8.62821 -0.0403832 0.074362)
(8.19961 0.00333855 0.0135992)
(8.1873 0.00818891 0.0157008)
(2.84493 -2.83745 -0.00145465)
(2.94996 2.9511 0.00192999)
(8.19446 0.0060243 0.0151974)
(2.84605 -2.84367 0.000274249)
(8.09842 0.0222996 0.00208363)
(8.27442 0.016487 0.02998)
(8.29589 0.0240153 0.0167548)
(2.85354 -2.8324 0.00767279)
(2.84554 -2.84706 0.000596107)
(2.84513 -2.84707 1.16257e-05)
(2.96013 2.96121 0.000900553)
(8.38785 -0.0385162 -0.0225136)
(2.95691 2.96127 0.00202964)
(2.95145 2.9485 -2.53835e-05)
(8.35889 0.0243271 -0.0348444)
(2.84573 -2.84688 0.00114593)
(8.23102 0.00232936 0.0100323)
(7.51319 -0.0655628 0.0247311)
(2.97755 2.87643 0.0156205)
(8.40882 0.0210636 -0.0103787)
(3.9627 0.591741 -0.0975481)
(8.30876 0.00818725 0.00411684)
(8.58588 -0.0268394 0.0199999)
(7.59574 0.0298363 0.00961509)
(8.59149 -0.00262285 0.0562265)
(6.21158 0.131287 -0.238559)
(3.52487 2.81837 0.0582906)
(8.29067 0.00491405 0.00316266)
(8.62354 0.0654502 0.0108636)
(8.41282 -0.0193569 -0.00807103)
(3.03167 2.63581 -0.0892282)
(3.78856 0.370548 -0.194709)
(4.49593 -0.3292 0.154857)
(8.30059 0.0115937 0.00421722)
(2.95123 2.95549 0.0038721)
(8.14133 -0.0188129 -0.0589074)
(8.31946 -0.00872903 -0.0176916)
(8.07093 -0.0696195 -0.12837)
(3.10551 -2.2021 -0.164612)
(2.84627 -2.84767 0.00127084)
(2.8431 -2.84329 -0.000159908)
(8.4518 -0.0264255 -0.0020236)
(3.45217 2.85935 -0.0375135)
(8.03908 0.0277416 0.0110884)
(3.21078 2.92608 0.0401679)
(7.99165 -0.0184442 -0.0568716)
(8.22265 -0.0185687 0.00892067)
(8.1356 -0.0121494 0.0245985)
(8.42434 0.0199938 -0.00254977)
(2.95128 2.95127 -0.000956156)
(2.93833 2.93029 -0.00560886)
(3.0386 -2.77001 0.013214)
(8.41147 0.0239545 0.000204993)
(2.96383 2.95557 -0.000990951)
(3.41894 2.93871 -0.131142)
(8.60759 0.162937 -0.137168)
(2.96902 2.96523 -0.00197455)
(2.94581 2.95978 0.00883965)
(2.82983 -2.82067 -0.00486268)
(2.96189 2.96274 0.00096688)
(8.04864 -0.00397857 0.0225656)
(3.02014 2.86732 0.00492568)
(2.96074 2.95767 0.00108174)
(6.81775 0.959494 -0.694175)
(3.46565 2.80185 -0.0382205)
(2.94616 2.94768 -0.0243452)
(4.09179 -2.4143 0.148567)
(2.95846 2.95485 -0.00334654)
(6.59913 0.0252482 -0.0561893)
(8.20864 -0.0128711 0.019162)
(2.83441 -2.83493 -0.0006858)
(8.06824 0.00904141 -0.0226133)
(8.13181 1.31358 -0.17722)
(8.01202 -0.0766021 -0.128395)
(8.8088 0.3258 0.00517602)
(7.94339 0.00633361 -0.0117959)
(2.95731 2.93715 0.00907573)
(8.3118 -0.0773625 -0.0878905)
(8.61171 -0.027763 0.018349)
(8.00897 -0.0771729 -0.12843)
(2.84366 -2.84373 -0.000687614)
(8.72487 2.2848 0.612233)
(8.0301 0.0127402 0.00993637)
(3.94398 3.14586 -0.187234)
(7.97641 0.00159139 0.00867896)
(8.69377 0.107975 -0.0829769)
(8.30412 0.167406 0.00854719)
(8.23411 -0.0228781 -0.0312726)
(8.23582 0.0283661 0.000280587)
(8.76478 0.127778 -0.0474784)
(8.4411 -0.0133453 -0.0131809)
(8.36686 -0.0102237 0.00800984)
(2.93485 2.94569 0.0111303)
(2.94563 2.93088 0.00896507)
(8.08416 0.02172 0.010206)
(7.95411 0.00884706 0.0103112)
(2.95319 2.96024 -0.00162682)
(8.19524 0.00880628 -6.29995e-05)
(8.57787 -0.0389051 0.00508674)
(8.38524 -0.0186798 0.00692738)
(2.95845 2.92781 -0.001283)
(8.27503 0.166781 0.0370454)
(2.95117 2.94855 0.000272721)
(8.37111 -0.0102146 0.00720045)
(8.39457 -0.0113434 0.00536221)
(2.95834 2.95686 -0.000486437)
(8.02721 0.0390799 -0.0313047)
(8.37283 -0.00770188 0.00123781)
(8.24142 0.156109 0.0130095)
(8.10696 0.00152325 0.0325718)
(3.01945 2.96192 -0.00468021)
(8.46733 -0.0221659 0.0244439)
(8.26775 0.190291 0.00152131)
(8.7195 -0.205644 0.0566391)
(7.34454 0.0942289 0.0242524)
(6.56807 0.0209674 -0.0911994)
(2.96014 2.92975 -0.00521487)
(2.95048 2.94777 0.00245968)
(8.13346 0.110602 0.0139955)
(2.96223 2.96258 -0.00101638)
(7.11502 -0.0198637 -0.0212141)
(8.16395 -0.0422916 -0.061832)
(4.97374 0.690126 -0.18261)
(9.05258 -0.582155 0.218323)
(7.98581 -0.359868 0.10492)
(8.88954 -0.320313 0.0877692)
(2.96142 2.96188 -0.000863649)
(4.02033 3.41284 0.0292749)
(8.44407 0.0200606 -0.00712278)
(2.83162 -2.84271 -0.00977026)
(1.57494 -1.10351 0.460351)
(8.35703 -0.157296 -0.122616)
(2.9484 2.94081 -0.00577637)
(2.96378 2.95982 0.00021679)
(7.47136 -0.146767 -0.00481069)
(6.09908 -0.396691 0.0848263)
(2.96237 2.96308 5.11128e-06)
(7.55612 -0.141633 0.0250643)
(2.94962 2.9469 0.00169655)
(2.95829 2.96321 -0.00523943)
(2.84285 -2.84344 -0.000314823)
(2.8466 -2.84034 0.00570988)
(2.78963 -2.7661 0.00873013)
(2.84088 -2.83512 -0.000288261)
(7.55548 0.0619224 -0.0282876)
(2.93704 2.91726 -0.00349325)
(2.95734 2.95851 0.000947603)
(2.94109 2.9563 0.00484259)
(7.03261 -1.55598 -0.407007)
(7.95823 -0.0655465 -0.144346)
(7.71431 9.65403e-06 -0.0778694)
(8.44491 0.0184782 -0.00754435)
(2.9429 2.92386 -6.6963e-05)
(2.97065 2.95943 -3.36334e-06)
(8.09495 -0.137496 -0.167324)
(2.95908 2.96102 -0.00304641)
(2.95819 2.95493 0.000531336)
(4.71739 2.71026 0.0994771)
(8.6162 -0.115955 -0.00355919)
(8.42924 0.0195191 -0.00505367)
(2.95672 2.9558 -0.000293159)
(2.9545 2.94918 0.0044978)
(2.94341 2.93443 -0.00389073)
(2.94839 2.94181 -0.000208154)
(2.96122 2.9597 -0.00307212)
(2.96779 2.96062 0.0013597)
(8.43529 -0.194919 -0.122266)
(2.96488 2.95594 -0.000159064)
(5.85174 0.0839476 0.19776)
(8.50996 -0.0195407 0.0227165)
(2.95788 2.96236 -0.00084879)
(2.82352 -2.8353 -0.00768103)
(2.8045 -2.77612 0.00316361)
(7.13759 0.0852256 0.388399)
(2.78486 -2.78169 -0.0113333)
(2.84157 -2.84405 0.00280345)
(2.94142 2.94624 -0.0184729)
(7.64516 -0.119726 0.00679818)
(2.94856 2.94762 -7.11532e-05)
(8.38804 -0.108316 -0.0684377)
(6.70729 0.103179 -0.0378098)
(5.50402 0.00615231 0.222118)
(2.94947 2.95183 0.000927728)
(5.75328 -1.48056 0.118479)
(8.45455 -0.0154883 0.00317224)
(8.5123 0.0228095 -0.0201777)
(3.05406 -2.91556 -0.0334996)
(8.18891 -0.133293 -0.0217534)
(8.35727 -0.0158613 -0.00929971)
(2.84684 -2.82687 0.00280069)
(3.05885 2.90059 0.0136655)
(4.01062 -3.09252 -0.258573)
(2.94195 2.9416 0.000893861)
(8.44745 0.0157891 -0.00229547)
(8.44664 -0.00936532 0.0101788)
(8.58919 -0.103843 0.0428843)
(5.6432 -0.00667619 0.310792)
(2.96357 2.96193 -0.0003738)
(8.44974 0.0159612 -0.0035489)
(3.03815 2.88937 -0.00731405)
(3.70165 3.12959 -0.0129224)
(3.82014 -2.97573 -0.121983)
(2.95808 2.95801 0.00119343)
(8.47271 0.0245168 -0.00517503)
(2.94823 2.9419 0.00165472)
(2.81292 -2.76213 0.00123898)
(7.73356 -0.105314 -0.192596)
(8.30315 -0.0193585 0.00832071)
(2.81511 -2.76847 -0.00691634)
(8.33573 0.0141733 -0.00476577)
(3.15211 3.08235 -0.0184052)
(8.46446 -0.0714662 -0.0369651)
(2.78084 2.65895 0.0267548)
(2.96096 2.96243 -0.00100437)
(2.97354 2.96341 0.00975217)
(2.847 -2.8478 0.000787392)
(8.19332 0.0118561 -0.0128496)
(7.3618 0.0151364 -0.032686)
(8.4896 -0.025821 0.184177)
(2.94582 2.94857 0.00162569)
(2.94083 2.88716 0.0201099)
(8.15207 0.0140546 -0.0132292)
(2.96146 2.96194 -0.00110416)
(3.44168 3.11317 0.0430101)
(2.84414 -2.84238 0.000427476)
(8.11323 0.0509345 -0.00573733)
(8.63641 -0.213709 -0.0626828)
(8.45347 0.0206536 -0.00821995)
(2.83943 -2.83445 0.00666219)
(6.69562 -0.0104571 0.187367)
(6.99066 0.00688085 0.180484)
(2.65849 2.34537 0.0164024)
(7.55789 0.0974757 0.153448)
(2.96264 2.94693 0.00322569)
(7.98967 0.0735002 -0.00833118)
(8.57071 -0.0146308 0.0505924)
(8.3069 0.00717667 -0.0150518)
(8.58113 -0.107552 0.0141237)
(7.88361 -0.172685 -0.242533)
(2.96111 2.95804 0.000650101)
(2.96097 2.96121 -1.7201e-05)
(2.9543 2.95803 -7.85127e-05)
(6.91418 0.0676671 0.249646)
(2.9325 2.90666 0.00334603)
(8.39215 0.0350791 -0.0142611)