/*--------------------------------*- C++ -*----------------------------------*\
  =========                 |
  \\      /  F ield         | OpenFOAM: The Open Source CFD Toolbox
   \\    /   O peration     | Website:  https://openfoam.org
    \\  /    A nd           | Version:  10
     \\/     M anipulation  |
\*---------------------------------------------------------------------------*/
FoamFile
{
    format      ascii;
    class       volScalarField;
    location    "118";
    object      SgP;
}
// * * * * * * * * * * * * * * * * * * * * * * * * * * * * * * * * * * * * * //

dimensions      [1 -1 -3 -1 0 0 0];

internalField   nonuniform List<scalar> 
59698
(
0.00309482
0.00183543
0.00231273
0.00271407
1.14001e-06
0.00145199
0.00249703
1.07421e-07
1.98028e-09
3.92362e-09
0.000586478
1.80009e-09
1.57928e-09
0.00228617
2.74334e-08
4.28179e-07
9.40866e-09
3.80466e-09
1.62451e-09
5.97012e-10
0.000365543
1.55871e-06
0.000498861
8.81919e-08
2.02295e-07
1.19609e-09
1.18565e-09
0.00248183
0.00239418
2.12192e-09
1.35108e-07
0.000600617
6.68827e-08
0.00403568
1.11464e-06
3.78926e-09
0.000465048
5.05397e-07
1.73068e-08
0.00245275
2.95273e-08
2.30475e-07
2.30634e-08
2.46099e-08
0.000402108
1.04887e-07
2.69169e-09
4.88401e-08
0.00290854
3.14609e-08
2.96491e-10
2.35335e-09
0.00172823
0.00272942
0.00216782
2.06193e-09
8.45307e-08
1.56727e-08
1.77169e-08
2.74534e-05
0.00178293
6.27738e-08
1.98934e-07
1.57596e-09
5.01407e-07
4.18065e-08
1.75352e-09
3.25318e-09
4.2073e-09
6.77051e-09
6.35074e-07
2.79215e-08
0.000359485
1.72127e-06
0.000411943
1.08853e-06
2.15861e-08
2.2407e-08
6.39986e-09
1.0267e-08
4.78468e-07
9.77151e-10
4.05219e-09
8.03524e-09
1.69867e-05
3.14784e-08
9.1532e-09
2.22957e-07
2.33892e-06
2.31656e-08
4.50764e-09
6.35905e-08
1.72164e-07
6.53713e-09
6.04889e-08
0.00359102
1.35604e-07
6.19165e-08
5.08331e-08
8.5906e-10
0.00353706
2.0758e-05
2.95021e-07
0.00329264
5.40224e-08
0.000564777
2.33533e-09
2.29672e-09
2.7326e-09
4.41046e-10
3.74725e-08
2.62158e-06
1.36519e-06
1.56279e-07
9.76094e-08
3.45693e-08
3.49038e-07
0.00353381
2.92634e-07
1.14852e-08
2.26948e-09
2.98432e-07
2.25401e-07
3.34518e-09
1.61867e-09
7.87759e-09
8.38523e-09
7.20969e-09
1.25959e-08
3.86457e-07
0.00335603
3.8651e-09
1.10569e-09
1.84718e-07
6.34819e-08
3.24231e-09
4.91667e-07
2.2971e-10
1.72223e-09
5.6464e-09
2.08572e-08
0.0023172
0.00252087
1.58776e-09
1.90733e-07
7.93851e-10
5.35053e-07
3.78853e-07
0.00448815
7.13435e-07
0.000257457
0.000434378
2.84834e-08
2.54813e-07
9.94477e-09
1.04575e-07
7.39781e-09
0.00162892
6.72563e-08
5.4067e-10
3.06819e-09
7.6883e-09
2.20421e-08
9.71252e-08
1.86129e-08
0.00222898
1.0665e-09
0.000567468
0.00152525
6.91315e-09
2.55569e-07
1.50339e-06
2.17743e-07
9.25054e-07
5.73524e-07
0.001219
4.36986e-09
0.00139581
0.000326013
0.00293306
2.25485e-06
7.44759e-07
4.00827e-07
1.1235e-08
2.52399e-07
7.03561e-08
3.72112e-07
0.00238034
1.37857e-10
1.85688e-08
6.43061e-09
7.0352e-09
2.30158e-08
6.06776e-07
1.22159e-07
0.00416742
1.79933e-06
0.00294371
1.27582e-05
9.0707e-08
0.000227095
6.72657e-07
1.50566e-09
2.56151e-09
0.00356772
0.00244688
3.5565e-08
0.00205809
0.00270789
0.00350317
0.00242675
6.1053e-09
0.00262719
1.56794e-08
2.33849e-09
0.0033671
9.86904e-09
4.54633e-08
1.54894e-07
4.65319e-09
1.36839e-05
0.00217458
1.73037e-09
5.0892e-07
8.91519e-09
0.00274732
2.11898e-08
5.4871e-09
4.81042e-08
6.81493e-07
7.57177e-09
1.87233e-08
7.43145e-09
1.13495e-08
9.49732e-09
9.17757e-09
3.05722e-07
1.95207e-08
1.76487e-07
8.19795e-09
0.00261371
1.18829e-07
3.47147e-08
0.000664542
8.80042e-09
2.15163e-07
2.29583e-05
3.46443e-06
5.28803e-09
4.97804e-09
6.15884e-08
6.24511e-09
3.08162e-08
0.000233553
1.92736e-08
0.00169896
1.09914e-07
5.43955e-08
0.0031472
2.88005e-09
7.7149e-06
1.78224e-09
7.83808e-09
0.0027086
0.00357784
8.52053e-07
1.08888e-09
1.0709e-07
1.97857e-08
6.02216e-10
3.12094e-09
1.53502e-06
6.91293e-05
6.6684e-10
1.23895e-07
5.01595e-08
0.0014658
3.97797e-08
2.9437e-09
1.22197e-09
0.000574131
1.78589e-09
1.67156e-09
4.68604e-07
0.0033502
1.02285e-07
5.2592e-09
0.000646987
3.82441e-07
1.00763e-07
2.63106e-06
0.00232504
9.24011e-09
1.35993e-09
7.03653e-07
0.00273235
4.78802e-10
1.52244e-07
1.45206e-08
6.42204e-07
3.07533e-09
2.3319e-09
6.86709e-08
5.68704e-10
1.06851e-09
1.14244e-09
3.63866e-07
2.19375e-08
5.35441e-09
5.26964e-10
0.00190121
4.10405e-08
3.6808e-09
2.3801e-08
0.00191499
5.54031e-09
0.00040339
8.32068e-09
0.000829309
8.51891e-08
9.53168e-08
2.7631e-07
1.67543e-08
2.90754e-09
1.55829e-06
2.56326e-07
1.60931e-08
8.7091e-09
4.27258e-10
0.000361923
0.0028999
4.02047e-08
3.58924e-07
2.42674e-06
0.000430949
1.03247e-08
7.76717e-09
4.27758e-09
1.39734e-07
0.00122098
2.13388e-08
0.00206218
0.00250594
4.95122e-09
1.00028e-07
1.3622e-09
2.64573e-10
1.25087e-06
1.35109e-09
0.00203384
9.25654e-10
1.30886e-08
1.25676e-06
7.95879e-10
9.29857e-07
0.00191581
2.68472e-06
1.43811e-08
3.3142e-08
1.82414e-09
2.1009e-08
1.09037e-08
1.10581e-07
3.6001e-09
1.15453e-10
1.04126e-07
0.00279678
0.00201717
2.82711e-08
9.78822e-07
1.132e-07
0.000533993
0.00366895
0.000651142
2.08207e-08
2.98182e-09
3.63241e-08
2.0435e-09
0.000460521
2.48812e-09
0.000347123
4.45942e-08
4.35097e-08
5.15472e-08
8.50194e-10
6.78589e-06
1.09276e-08
0.000544826
8.28063e-10
3.37446e-08
2.07356e-08
0.000457463
0.00330065
3.32912e-09
5.39225e-05
0.00179762
3.64768e-06
0.00182708
0.00269784
8.14873e-08
0.00243875
0.00236486
0.00257382
5.41049e-09
0.00148346
0.0041784
0.00383977
0.00276274
5.87115e-09
8.23701e-07
1.88086e-07
0.000404303
0.00163746
0.000434525
4.73062e-10
2.04858e-07
2.01784e-09
2.24633e-06
0.0018979
0.00175727
0.00292206
0.00218234
0.00249159
0.00166478
7.8262e-09
2.05441e-09
7.80308e-09
1.74928e-08
0.00138444
5.60247e-10
7.80561e-09
0.00195979
0.00116567
2.34731e-08
3.70583e-08
1.43377e-08
1.39734e-08
0.00125854
3.33473e-09
0.00211828
1.92324e-07
0.00321066
5.14884e-09
4.40025e-08
1.86322e-07
2.01746e-06
8.60098e-08
4.52135e-10
2.13054e-09
1.29231e-07
0.00254331
6.62864e-09
7.26357e-08
1.96899e-06
6.16754e-07
1.15033e-07
3.38779e-07
1.39711e-09
1.15026e-06
1.65068e-07
6.11327e-08
4.61478e-09
0.0032085
6.54321e-09
2.18898e-09
2.02406e-07
3.50644e-07
9.31302e-09
4.45598e-08
6.18563e-09
0.00247467
4.41725e-09
2.10262e-10
6.86167e-09
6.33531e-08
2.03395e-06
8.09771e-07
2.16971e-09
0.00300899
0.00194627
2.34295e-08
2.17629e-07
1.59648e-08
1.91539e-08
2.51761e-07
4.11965e-08
4.45187e-08
1.95996e-08
1.61093e-09
1.64438e-09
2.50924e-07
4.10022e-07
3.78757e-10
4.23008e-08
0.00402066
2.12596e-07
1.53742e-08
0.00236663
3.72386e-08
0.000365619
9.7329e-10
1.17944e-07
2.03778e-07
1.21246e-08
1.71063e-08
1.11909e-09
8.16747e-08
2.15167e-09
5.2509e-09
8.28113e-09
5.76422e-09
7.88252e-09
1.36847e-06
5.41924e-08
1.6057e-08
2.67819e-09
6.86924e-09
1.00172e-08
7.04523e-08
2.48103e-08
1.71706e-08
3.47146e-09
5.07224e-09
3.86064e-09
2.18779e-09
6.31505e-06
3.30002e-08
2.81928e-09
0.00339741
0.00370811
2.91152e-09
0.00384227
1.82752e-08
5.48087e-09
0.00145126
3.56465e-10
1.35535e-08
0.00178838
1.89153e-09
0.000384882
4.33516e-08
2.56043e-09
4.50204e-08
2.99474e-06
1.48171e-08
5.13658e-09
8.94444e-06
0.000167034
1.87185e-08
7.45168e-06
1.83593e-08
2.28784e-09
3.10825e-08
1.90789e-09
5.09721e-09
1.43834e-08
1.9217e-08
1.62063e-08
2.57938e-09
2.23873e-09
0.000768498
1.74383e-09
1.65539e-08
1.0283e-05
1.51201e-08
1.80812e-09
1.21427e-06
2.26154e-08
8.60326e-09
0.000539254
7.77819e-10
7.60225e-09
1.89872e-07
1.57798e-09
4.40765e-08
1.30294e-09
3.20025e-10
4.39092e-10
0.00200342
2.31251e-09
0.000732636
3.91815e-08
0.00320768
1.49675e-08
3.26602e-09
0.000313338
1.1508e-09
1.36237e-08
1.78763e-08
1.64071e-08
1.98953e-09
0.00316738
8.10818e-09
1.67412e-08
8.51364e-10
4.19897e-08
9.293e-07
0.00264883
0.000349775
7.17462e-09
7.95508e-09
1.64098e-09
2.70798e-09
0.00337479
1.35512e-08
4.42998e-09
2.50817e-09
0.00108735
0.0038561
1.53851e-08
1.26145e-08
1.56597e-09
1.14172e-08
4.29708e-09
4.12438e-09
5.15633e-09
4.9183e-09
3.59969e-08
7.84759e-05
7.32633e-09
5.03779e-09
7.84948e-09
1.81766e-08
2.53467e-05
0.00241925
1.09665e-08
0.00266356
1.63048e-09
8.76718e-09
4.32339e-09
0.00269464
0.000211201
9.59016e-10
8.39581e-09
6.93284e-10
2.85943e-08
6.32028e-09
2.85119e-09
0.00151549
0.00323664
1.25874e-07
1.62464e-07
0.000607904
1.45381e-09
5.06937e-09
1.60186e-09
4.12157e-07
0.00210655
3.38397e-08
1.73933e-09
0.000439476
7.6917e-09
3.1809e-08
3.32309e-09
2.38205e-09
4.35835e-09
9.39643e-10
7.70115e-06
1.0147e-09
0.00182039
5.07024e-08
1.12038e-07
6.87868e-09
1.54603e-06
3.45233e-06
5.39185e-09
2.07696e-08
0.00230811
0.00311019
7.30439e-08
3.86948e-09
7.58392e-07
1.56971e-09
0.00343735
3.12117e-10
1.95842e-08
0.000428463
0.00255414
4.26208e-09
1.59488e-09
1.96459e-07
5.88717e-07
3.53426e-07
0.0003781
0.00139637
1.14677e-10
6.65802e-09
7.78324e-10
4.63934e-09
0.00277467
2.71733e-08
0.00302876
9.98905e-09
0.00131533
0.00209608
0.00236429
6.18936e-08
4.11753e-09
0.000650596
1.27756e-09
2.32792e-10
1.01346e-09
4.35427e-09
1.81565e-08
4.52774e-09
1.49426e-09
9.20783e-08
6.73085e-08
7.53452e-09
2.72081e-09
0.00186402
4.18322e-08
3.57676e-08
0.000362111
1.01794e-08
3.46446e-08
3.82607e-08
1.9397e-09
1.3853e-09
0.000646939
0.00196369
0.00241497
3.8701e-09
1.11356e-08
7.01156e-09
1.63654e-07
0.00194621
1.3632e-09
5.68626e-07
2.58819e-08
1.31619e-05
0.000344566
0.00169856
2.24937e-07
1.48162e-07
2.22111e-08
0.0043084
0.000532159
1.89885e-08
8.93025e-07
3.52385e-09
6.81262e-08
3.47106e-06
0.00231966
2.45452e-08
1.20671e-07
1.00708e-07
1.58427e-05
2.53266e-08
0.00185648
2.48565e-09
5.18217e-08
1.16163e-08
0.00212973
7.45649e-10
6.70779e-09
2.07395e-07
4.46639e-06
0.000599772
1.09248e-07
7.0154e-08
0.000383644
4.15872e-08
2.51684e-09
0.00190612
0.00219676
5.51273e-09
7.56274e-09
0.000401563
1.01914e-08
1.74469e-08
0.000373922
3.51114e-10
0.00265406
2.48686e-09
1.93264e-08
1.81592e-07
4.00787e-09
3.96963e-08
3.57199e-08
4.9865e-05
3.75452e-09
6.10383e-09
7.0822e-09
1.17299e-08
9.70686e-08
1.54292e-08
0.000326092
7.00163e-09
2.0462e-08
0.00140035
5.67189e-08
9.84942e-08
8.92777e-06
0.00187029
2.40823e-06
0.000541609
6.98695e-09
0.00038318
1.59358e-08
4.19561e-09
1.6213e-09
0.00314075
3.78765e-07
3.2509e-08
7.12797e-05
6.4375e-08
0.00157969
1.70203e-07
9.8471e-06
3.55986e-09
0.00100439
3.15923e-09
0.00130432
5.37865e-05
2.45148e-07
0.000651795
0.00179452
1.21617e-06
1.11439e-05
4.11265e-09
1.13037e-06
2.51357e-08
4.08336e-05
0.000444765
0.000428778
0.00211177
3.51898e-08
3.18927e-08
0.000561237
4.59292e-08
0.00227711
6.90434e-10
0.000401155
2.29126e-09
2.67066e-09
2.94342e-05
0.000503639
0.000205965
0.000108565
7.69537e-09
5.03967e-09
1.89718e-09
0.000487233
2.02097e-09
0.00350809
0.00473707
2.45943e-09
0.000499732
2.07645e-09
9.85906e-10
2.91719e-09
3.20984e-06
0.000469634
2.98438e-09
1.32453e-09
1.05536e-06
4.41765e-09
1.12205e-07
3.7997e-09
2.97422e-09
8.85513e-08
2.63806e-07
3.12099e-08
1.04069e-08
0.000532562
8.08537e-10
0.000127561
2.70485e-10
2.47214e-09
0.00124248
1.50063e-09
7.75835e-06
8.98219e-08
7.42883e-09
0.000108823
1.2501e-08
0.00157162
2.72468e-08
4.63321e-10
0.00174583
5.65535e-09
1.1346e-08
0.000307131
1.24606e-09
0.00205968
1.6926e-08
1.41838e-09
0.00423
3.05492e-09
5.13569e-09
1.49479e-08
1.64363e-08
0.000319936
8.35763e-09
5.61279e-09
1.65142e-07
0.00180908
0.000633463
0.000584053
2.241e-08
1.77153e-09
0.000379941
0.00237003
6.64764e-09
8.5775e-09
5.57447e-08
1.16526e-08
2.83766e-09
2.56339e-08
0.000412257
0.00144849
0.00262297
1.49194e-07
2.03945e-09
0.00267083
0.0040097
0.0052096
5.07589e-08
1.81304e-08
1.6007e-07
4.38972e-07
1.80841e-08
2.35157e-08
7.86716e-07
2.81707e-08
7.50264e-09
8.14206e-09
1.3568e-06
7.297e-08
7.39175e-09
0.00254229
1.64523e-09
5.99348e-08
1.87699e-08
2.81854e-08
6.4931e-09
3.88877e-10
0.000761137
1.88571e-08
3.11506e-09
0.00193675
1.91024e-08
2.38978e-08
0.00316675
2.94442e-08
3.33653e-07
5.70788e-09
2.00282e-08
2.43876e-08
0.000825881
3.02924e-08
0.0022005
1.82789e-07
1.98696e-07
3.6713e-08
0.00533109
0.000294937
4.57736e-09
5.48419e-09
9.92338e-07
1.44649e-09
1.11899e-08
8.54791e-09
0.0016735
1.1704e-09
2.29087e-09
8.17091e-09
2.47776e-09
3.57805e-08
2.36478e-08
7.50279e-09
0.000429221
0.00219276
0.000466221
6.29368e-08
0.00314138
0.0025635
5.58408e-08
1.75911e-09
0.00183294
6.44384e-06
0.0015462
0.00208218
0.00203131
3.33044e-09
5.88683e-08
0.0023784
1.95098e-07
3.25799e-08
1.88117e-07
2.64637e-08
0.000443691
2.08798e-08
0.000538422
1.69046e-05
2.57411e-08
0.00196195
2.00258e-08
0.000608739
6.8701e-09
1.73438e-08
1.22554e-09
3.9987e-08
0.00153624
0.00364917
1.25774e-09
0.000395621
0.00188712
0.00135367
0.00278276
5.67317e-10
1.01154e-08
1.17678e-09
0.00355458
7.92797e-10
1.29728e-07
0.00356052
5.32619e-09
0.00346987
0.00351651
0.00366747
1.55576e-08
5.71947e-08
4.64224e-08
8.79515e-09
1.11199e-08
6.14911e-08
1.26478e-08
5.15263e-09
0.000475259
4.12053e-09
3.71209e-08
2.7605e-07
5.58946e-10
0.00162317
2.9239e-08
4.60483e-09
6.66827e-08
2.69077e-10
7.01559e-08
3.91085e-09
2.03307e-07
0.00306606
3.14262e-05
8.93641e-10
1.56505e-08
0.00210095
0.00314931
1.7887e-07
0.000760354
9.91274e-09
7.79538e-09
0.00257398
2.21962e-08
0.0032207
0.000542247
1.04762e-09
7.38634e-08
0.000765798
1.6674e-08
2.51311e-08
0.0025017
6.39522e-09
1.35904e-08
3.12223e-09
0.000534594
3.15249e-06
0.00193139
1.81512e-07
9.37637e-09
0.00175021
1.2786e-07
2.57495e-10
5.95113e-06
2.18541e-09
7.20394e-07
0.00129385
2.66817e-09
9.53691e-10
1.1361e-08
5.83867e-09
1.54747e-08
5.87751e-09
1.26079e-08
1.00023e-06
9.4811e-10
1.24769e-09
0.00169856
4.65811e-09
5.42689e-06
2.93819e-08
3.96928e-06
1.34298e-06
1.17186e-06
5.34759e-06
1.26341e-06
5.35563e-09
1.65769e-08
0.00100307
2.91692e-06
2.47794e-08
2.24731e-08
2.49766e-08
0.00044909
1.36669e-06
7.86739e-08
2.28943e-07
3.46924e-09
0.00226309
4.70753e-09
1.22638e-08
2.08793e-08
1.18592e-08
2.99188e-08
0.00212569
5.5748e-08
2.40644e-08
1.86822e-08
4.8097e-09
0.000477735
2.26898e-09
5.19654e-09
3.35391e-08
2.48018e-10
1.41504e-09
6.08974e-09
9.35919e-09
1.37597e-08
0.000331806
1.1437e-08
1.31719e-08
2.49513e-09
2.00691e-08
1.24398e-08
1.01516e-08
5.84831e-08
0.000380629
0.00242475
1.54316e-08
7.8681e-09
0.00284485
1.66675e-09
4.31021e-05
0.00203092
4.95865e-09
7.24096e-07
1.52919e-06
0.00186642
2.21047e-08
3.18987e-08
2.17595e-07
1.743e-05
8.67071e-07
2.17316e-07
1.39944e-09
3.76939e-09
4.16958e-07
1.08627e-07
5.48661e-09
1.53806e-09
1.23059e-08
7.54807e-09
3.02064e-06
0.00129414
6.415e-08
3.63277e-08
5.10942e-08
0.00264619
0.00244631
9.16484e-07
1.51372e-08
3.28523e-08
4.01482e-08
4.45284e-09
2.89205e-09
1.8147e-07
4.22347e-09
3.45781e-08
2.01492e-09
1.25897e-08
2.26775e-08
3.31243e-09
4.12648e-07
2.80714e-09
0.000434431
9.50457e-08
0.00394816
0.00165205
1.12429e-07
2.16417e-08
0.000579702
0.000345167
2.77868e-08
2.34615e-08
9.2648e-06
2.31949e-09
1.8776e-09
2.3596e-08
1.72647e-08
0.000781454
0.000646988
9.562e-09
1.17916e-08
7.81844e-09
3.33327e-07
5.08661e-08
0.00267068
0.000496401
1.40612e-08
0.000238786
7.02692e-09
0.000315414
0.000227766
0.00022359
2.80762e-08
1.05487e-07
1.7577e-09
1.02181e-07
2.54398e-08
0.00240338
4.88212e-09
4.15096e-08
6.90287e-09
7.69706e-08
2.27332e-05
0.00194489
0.00227797
2.25631e-08
2.97564e-08
0.000377625
3.99182e-08
1.03833e-06
1.04278e-08
0.00304788
4.05745e-08
2.27198e-08
8.53164e-06
0.00262315
6.83838e-08
2.28525e-08
0.00131289
2.02215e-08
4.6486e-10
1.39127e-09
4.46426e-09
3.15564e-08
1.33301e-08
6.37904e-10
2.23074e-08
3.68828e-08
1.18707e-08
6.06724e-08
1.81781e-08
5.51511e-07
0.00191152
2.8593e-09
1.57818e-08
5.63875e-08
0.00200101
8.71512e-07
2.01672e-08
0.000374111
2.8872e-09
2.25162e-07
1.46356e-07
0.000983773
3.58923e-07
3.18836e-10
1.22002e-07
1.40011e-08
1.22678e-07
5.04551e-08
2.90111e-09
1.57617e-07
6.88513e-09
8.69637e-08
8.22884e-10
0.000584271
4.97986e-08
0.002074
1.30696e-09
6.33994e-08
2.17973e-06
1.07357e-08
5.32152e-06
4.80189e-09
6.92789e-10
2.45622e-07
4.18321e-08
4.85181e-09
1.71644e-05
6.10876e-08
7.41983e-08
0.000547253
2.99774e-09
0.000563699
3.16074e-08
2.25776e-09
7.71457e-09
5.79878e-09
1.98293e-08
3.9013e-07
3.1348e-07
1.50177e-07
0.00237874
2.10153e-07
0.0039321
0.00209529
0.00329187
8.49882e-08
2.30193e-07
0.00143528
3.83885e-09
2.47635e-08
2.9779e-08
0.0023696
9.83001e-09
0.000635585
0.000492206
2.77111e-09
0.00262592
5.0889e-06
0.00264002
1.89071e-08
0.0024965
5.59507e-08
0.000340268
1.61689e-09
3.84284e-09
4.25955e-08
0.000746787
7.66029e-07
4.1536e-10
2.69451e-08
6.34274e-10
0.000532956
0.000313621
5.69994e-08
0.00190928
4.55683e-07
0.000544714
3.19887e-08
5.61285e-10
6.3334e-09
2.58958e-09
8.96267e-08
2.04323e-05
5.69971e-09
1.33043e-06
4.44621e-08
4.22917e-08
4.65428e-09
9.87615e-05
2.24026e-07
1.86808e-09
6.40642e-09
0.000432447
1.09088e-06
7.79636e-08
0.00152079
1.76217e-06
1.49109e-06
7.41912e-09
8.50301e-09
3.91462e-09
0.000681452
2.74209e-08
5.46629e-09
1.50447e-08
3.62272e-07
9.93618e-07
2.06234e-07
1.82261e-09
3.13721e-06
6.73418e-07
7.418e-09
5.9815e-09
5.50834e-06
2.51083e-09
5.26753e-09
0.00238709
0.00220924
6.17746e-08
4.50764e-09
1.14918e-09
3.33728e-08
0.00192974
2.59571e-07
1.36654e-06
5.46955e-10
5.50798e-07
3.25961e-08
0.00111995
0.000444878
7.02805e-07
2.37413e-08
3.45581e-06
5.41827e-07
0.000100647
2.24287e-09
1.83108e-08
0.00118804
2.54644e-08
7.84849e-07
5.89737e-07
2.02387e-06
1.22581e-06
1.16989e-08
0.00162298
1.31188e-05
2.4799e-09
1.20841e-08
4.7193e-09
0.000427672
0.000113408
1.91492e-08
0.000637652
1.23509e-07
7.26316e-05
0.00282734
0.000398955
0.00282001
0.00183704
0.00221777
4.53324e-10
2.87331e-06
8.45596e-08
3.45551e-06
1.48832e-05
2.21586e-06
2.0156e-09
3.98562e-07
1.47839e-08
3.20265e-07
0.000761567
2.90568e-07
9.11449e-10
0.00178424
1.39281e-07
0.000207822
1.83577e-07
4.11092e-07
4.78763e-09
3.87618e-07
2.12097e-07
0.00151227
2.09773e-07
3.56949e-08
1.49524e-07
2.59666e-05
0.0012974
0.0013139
0.0029392
4.95054e-09
0.000502802
0.00149671
0.00175318
0.00149468
2.39889e-07
0.00217389
2.6826e-07
4.74037e-09
5.42062e-09
6.27132e-09
0.00147152
0.0017686
5.63137e-09
1.46723e-08
8.42901e-09
4.08751e-07
0.000298096
0.00368278
0.0013543
8.18869e-08
0.0024791
8.70857e-10
3.6221e-08
0.0010892
0.000804587
5.35992e-09
2.74841e-06
1.222e-08
6.39853e-09
0.00351988
6.38557e-09
0.000423323
1.17717e-09
0.000378711
0.000405406
0.000581336
0.00190914
3.24539e-07
0.00161643
1.26835e-08
1.18291e-05
0.000460524
0.001247
0.00220783
0.00109665
7.52513e-09
0.00124441
8.98415e-09
1.59808e-08
0.00292777
1.64006e-07
6.62441e-06
5.66499e-08
5.19742e-08
0.000573427
1.43509e-06
3.30643e-09
1.49336e-07
4.34206e-07
0.000403271
0.00219825
2.7276e-07
7.62071e-09
0.000614692
1.86486e-08
1.568e-08
5.11209e-08
6.04687e-07
0.00214057
3.72882e-09
0.00241634
8.37136e-10
0.000256109
0.00433597
8.69396e-09
2.96901e-06
0.00242898
4.98183e-05
5.1453e-06
2.47659e-09
0.00177817
0.00277879
5.11986e-10
0.000489112
8.38297e-07
0.000618778
1.4917e-08
8.49986e-07
5.11446e-07
3.52555e-08
7.88714e-11
0.000345779
0.0013144
6.64211e-09
1.21319e-09
0.00218093
1.11181e-08
2.20169e-09
3.73747e-08
1.87515e-09
7.87545e-08
0.00354113
0.00209335
2.65224e-08
5.44534e-10
0.00221126
1.99408e-07
0.00270365
2.77107e-09
1.90405e-06
4.5887e-08
7.43769e-09
2.74901e-09
1.07845e-08
0.0033356
5.03793e-09
2.80058e-07
0.000274718
0.00237605
0.000453103
1.37742e-08
1.17694e-06
2.5665e-09
0.000229125
0.00228075
8.7738e-10
3.76972e-09
3.97918e-08
3.30944e-08
0.00050253
2.61901e-07
0.000529724
1.92201e-07
6.69379e-09
5.86872e-11
4.9739e-08
0.000221093
0.000394063
5.42823e-09
0.00384295
0.00245682
9.32111e-09
3.03783e-10
3.87474e-09
7.33182e-09
3.79422e-09
1.52932e-08
0.0027508
0.000620059
0.000514077
7.76203e-05
0.000348234
0.000381681
2.75569e-09
4.27002e-08
1.5109e-09
3.01617e-08
1.88499e-08
0.00234605
1.07292e-08
4.92578e-09
0.00111864
1.90338e-08
7.63827e-08
8.74848e-08
1.65721e-09
8.38707e-08
3.50743e-08
0.00219884
5.30108e-09
1.44555e-08
4.34684e-09
1.58406e-08
2.09928e-08
0.00375552
4.52842e-07
1.12139e-07
7.35431e-08
1.05983e-09
4.53308e-05
1.10271e-06
3.25837e-09
5.74746e-07
1.24144e-05
1.01246e-08
1.13043e-08
1.03811e-05
1.77209e-06
2.48481e-07
0.00304122
3.87773e-09
3.98043e-07
1.37403e-06
0.00282692
2.24931e-07
4.30569e-10
1.92826e-06
1.51641e-05
3.4545e-07
1.0046e-08
1.70175e-07
4.59419e-08
6.61616e-08
2.00747e-08
3.31363e-08
0.00186078
2.1824e-09
1.18071e-08
1.11269e-08
6.94508e-10
4.60736e-09
1.00628e-09
0.00421411
1.24146e-07
1.94148e-09
3.31932e-09
3.087e-09
1.08069e-09
4.98946e-08
5.17066e-09
2.81484e-09
5.42256e-08
1.3361e-08
0.0022095
3.06424e-09
0.000384374
3.47306e-08
1.17389e-07
1.79733e-08
1.20448e-06
1.01817e-09
0.00315758
9.4354e-09
0.00178968
2.95285e-07
4.03449e-08
1.35914e-08
1.83234e-06
2.75407e-09
3.62132e-09
2.93691e-09
0.000259113
0.000626654
0.00213669
1.00292e-07
1.5856e-07
0.00227936
1.72618e-06
3.37203e-09
1.37597e-08
2.87334e-07
1.03264e-08
0.00411987
2.80468e-06
0.00307946
2.78625e-08
7.66304e-09
0.00158889
0.0014443
0.00174764
1.66461e-08
1.47114e-06
0.00186865
1.67429e-09
1.23198e-05
1.5151e-07
0.00177477
0.000459317
1.80727e-07
0.00230819
2.04593e-05
6.19719e-07
0.0020539
0.00216973
1.91388e-08
0.00237783
0.00300979
0.0018086
2.4955e-08
4.31896e-09
6.09431e-09
7.31619e-10
2.80641e-09
0.00163009
0.00275211
0.00182463
2.60932e-09
0.00303277
2.73321e-09
0.00228108
0.00249136
5.76824e-09
3.65916e-08
0.00165387
2.4586e-08
1.3253e-08
3.2219e-07
4.29598e-10
0.00256041
0.00199028
8.29866e-07
0.00163485
4.3527e-09
3.04348e-09
7.10297e-09
3.3005e-08
6.72437e-08
3.13219e-07
1.21226e-09
5.58727e-09
1.42041e-08
8.11244e-09
6.23003e-09
1.04386e-07
3.73011e-10
2.30738e-08
2.11502e-06
1.15367e-08
3.43738e-08
2.77887e-09
1.22659e-07
1.56941e-09
5.24707e-09
2.22733e-07
1.55646e-09
3.07871e-09
0.00188088
3.45943e-08
5.17704e-09
6.52811e-07
3.13108e-09
1.47353e-08
4.80061e-08
0.0018575
9.37683e-08
0.00220812
0.00148589
1.72716e-08
2.07116e-08
5.7334e-08
6.57967e-09
0.00157706
4.94857e-08
2.2703e-07
3.65576e-07
2.90451e-08
0.00235742
0.00149676
1.88274e-09
3.13764e-09
7.03423e-09
6.37958e-08
5.91801e-08
7.45459e-09
4.16218e-07
5.31038e-09
1.48383e-06
2.49579e-09
1.52564e-09
6.31009e-09
1.55313e-08
2.33422e-07
8.00642e-09
1.90902e-08
0.00429575
0.00144843
0.00257014
0.00155371
1.48227e-06
1.19236e-08
0.0020132
6.95511e-07
6.729e-09
0.000410058
1.32064e-09
1.44762e-07
0.00235106
4.40165e-08
1.27079e-07
2.30266e-08
4.25217e-08
0.00140006
8.19507e-09
9.45755e-10
2.03703e-07
2.67189e-09
4.68649e-07
5.977e-06
6.68105e-08
0.00211109
4.18187e-08
0.000460655
2.68039e-07
0.00209884
3.86852e-10
5.06029e-09
2.6842e-07
3.92236e-09
0.00183882
3.8337e-07
0.000518171
1.49308e-07
1.84784e-07
1.33778e-07
2.65988e-08
8.74903e-09
5.0202e-08
3.01788e-06
4.08862e-08
2.60335e-06
0.00324761
5.3275e-08
0.00421553
5.63532e-09
2.46673e-09
4.56507e-06
0.00186423
1.41186e-08
1.30842e-09
9.03178e-07
5.66355e-08
3.3944e-08
0.00233942
1.34769e-08
6.124e-07
0.00262092
1.35941e-09
8.08537e-09
4.18837e-07
9.87323e-10
8.1976e-09
0.00253089
5.33187e-09
0.0027677
2.31778e-08
2.15636e-07
3.93859e-08
0.00089422
6.07714e-08
2.76772e-08
1.48733e-07
0.00253483
1.58869e-06
1.25752e-08
9.31208e-09
1.23982e-07
0.00207312
3.48219e-09
5.18287e-08
6.30562e-08
1.59315e-06
0.00252799
0.000269937
0.00119111
1.74839e-08
0.000358026
1.31724e-08
8.98604e-07
0.00078972
1.15845e-08
0.000881149
3.29328e-06
4.86872e-09
2.64249e-09
1.19801e-08
0.00253347
1.51469e-08
2.42687e-09
2.60196e-07
1.12274e-08
5.49863e-09
0.000301435
2.72232e-09
4.46599e-08
0.00242969
1.26575e-06
4.51459e-09
0.00203795
3.25392e-06
6.5254e-09
1.37048e-08
1.20366e-05
4.30274e-08
2.2351e-07
1.67375e-08
4.13769e-08
6.06409e-08
4.74295e-06
0.00109762
4.84216e-08
0.00248243
1.50351e-08
3.79095e-08
0.00271652
3.10261e-08
7.83849e-08
9.54641e-09
1.29782e-07
0.0023701
2.9888e-08
2.12441e-08
0.00163521
5.79748e-09
0.00266886
1.40156e-09
7.37731e-09
1.04123e-09
9.75258e-09
0.00151678
5.36896e-08
1.40589e-09
2.58482e-09
1.43555e-08
5.2869e-08
0.00255056
4.77738e-09
4.61994e-09
1.88647e-09
1.547e-07
5.28704e-06
5.0443e-09
0.00156964
3.50943e-08
9.61708e-09
6.29171e-09
5.12376e-08
0.000429644
6.49701e-07
1.62308e-10
1.00356e-09
0.00182624
0.00217019
6.14622e-08
3.93273e-09
0.00183565
1.6209e-08
9.06169e-10
0.00356048
9.07754e-09
0.00275308
2.89827e-07
1.7502e-08
2.01602e-08
9.76878e-09
9.55745e-09
4.40588e-09
3.05738e-05
7.43272e-07
2.27192e-09
4.03782e-08
5.55128e-08
5.32348e-09
0.00257874
8.70157e-09
1.33262e-08
0.00197404
2.61868e-08
3.58885e-08
2.905e-10
0.0022871
2.84115e-08
1.33072e-07
3.26856e-09
3.70093e-08
4.0376e-09
0.00233763
5.92522e-09
7.01931e-09
0.000615919
1.07377e-08
7.12215e-09
0.00233169
6.52612e-08
3.86471e-10
3.14501e-08
5.93165e-09
0.00188367
4.41616e-07
6.0203e-08
3.46103e-09
4.01518e-07
1.40972e-07
8.67586e-09
1.41291e-09
1.02925e-09
3.40983e-08
1.05217e-08
8.49232e-10
7.82445e-09
6.48877e-09
1.0194e-08
0.00231615
6.96475e-07
1.47951e-08
2.05229e-09
9.4236e-10
0.00219983
1.94824e-08
0.00327806
9.37785e-07
0.00158579
7.53761e-10
0.00215251
0.00292638
8.98395e-09
9.38302e-09
8.96879e-08
0.0021052
0.00251636
3.06874e-07
7.02319e-09
2.4986e-07
1.05008e-09
2.20936e-07
8.51382e-09
9.40836e-08
1.66858e-08
1.47542e-09
3.95203e-09
8.51239e-10
6.18828e-09
9.31432e-09
3.8032e-09
5.0738e-09
1.51008e-08
9.01718e-08
3.2144e-11
3.36682e-09
7.34185e-10
5.66005e-09
1.51419e-09
1.76553e-07
0.00189956
0.00279693
4.50753e-09
0.00222564
1.3994e-08
3.07277e-09
4.47762e-09
1.63976e-06
1.79507e-07
7.15641e-08
9.95982e-10
1.10258e-08
2.14431e-09
7.9392e-09
1.6016e-09
1.28168e-08
1.41464e-07
0.00158848
2.43233e-09
2.11631e-08
0.00140355
0.00178428
0.00219802
0.00206339
0.00176518
4.63925e-08
3.77718e-08
2.88209e-09
7.88685e-09
7.59748e-09
1.34107e-06
3.93907e-09
2.94487e-08
3.41271e-08
7.17323e-09
2.22294e-09
2.66213e-09
7.43457e-07
3.15501e-06
3.96946e-07
5.99883e-09
1.67989e-09
3.24028e-09
0.00284234
2.5319e-09
0.0018527
1.10277e-07
8.77881e-09
7.52667e-07
0.00105424
6.7568e-08
4.04208e-10
3.80664e-09
3.20908e-08
1.50533e-09
2.38712e-08
8.33528e-10
0.00110411
3.42696e-10
4.18324e-08
0.00284498
2.96009e-09
0.00133036
5.86642e-08
0.0021666
9.81803e-08
0.00121971
3.54911e-10
0.00289539
0.00232086
2.78443e-08
4.18979e-09
0.00158366
1.97368e-08
0.00186991
1.71107e-08
7.83309e-09
4.98449e-10
1.68715e-08
2.04225e-08
1.50918e-08
6.36809e-07
0.00292258
0.00166191
1.22167e-06
3.77078e-09
3.45944e-07
0.00305624
0.00136147
0.00236579
0.00234395
5.31993e-09
6.12224e-08
2.75474e-08
1.24708e-08
0.0030358
6.53343e-09
0.00148774
0.003215
5.38832e-09
3.1182e-09
0.00160518
0.00302783
2.82981e-08
9.28827e-10
0.00169035
9.2471e-08
2.56512e-09
4.66869e-07
9.90619e-08
0.000406659
7.13791e-08
5.63563e-08
2.47395e-07
2.69712e-07
9.07517e-08
3.82091e-09
4.52573e-09
1.06371e-08
2.03159e-09
2.06031e-08
8.67288e-09
1.83726e-10
2.18639e-09
0.00200652
0.00284306
3.41642e-10
2.54501e-08
6.62006e-09
2.79528e-09
4.80026e-07
1.94744e-08
2.36026e-09
0.00270666
0.00150585
0.00144846
0.00162332
4.88636e-08
0.00136319
2.55039e-07
0.00376682
7.31974e-10
0.00227616
2.71756e-08
3.64443e-08
1.55459e-07
6.04458e-10
0.00294101
1.85326e-07
0.00423687
5.93697e-09
9.43475e-10
9.06636e-09
8.96036e-09
0.00133976
0.0028683
1.37904e-10
3.32089e-09
2.43185e-08
0.00167439
3.90431e-09
0.0028034
3.40423e-07
1.92819e-09
5.70059e-09
0.00241521
3.50806e-08
0.00213602
8.20099e-08
0.00382975
0.00319962
7.75255e-08
3.69224e-09
0.00352895
8.64549e-09
8.51188e-07
0.000344638
1.56276e-08
1.41692e-07
2.27713e-08
8.83236e-09
0.00300983
3.92239e-09
7.38769e-08
3.8455e-10
7.03199e-08
4.54003e-09
5.29839e-09
1.51691e-08
1.00533e-08
1.71277e-08
0.00294981
2.13682e-08
2.76269e-08
4.71476e-09
1.4327e-08
9.13364e-09
9.81663e-09
1.16447e-08
0.00217424
8.59446e-09
0.00293679
0.00189512
4.91005e-09
0.00036067
2.94816e-09
3.31577e-09
2.62182e-08
3.48294e-08
3.04434e-08
0.00152604
0.00202697
1.10655e-07
1.07251e-07
8.35692e-08
0.00305488
0.00110991
4.80812e-08
0.00216311
0.00439078
1.24959e-06
0.00259053
0.000410462
6.29689e-09
7.82305e-07
2.52341e-08
0.000563893
6.81369e-10
0.00252481
3.30732e-10
2.32437e-09
0.000636449
0.00034171
1.68442e-08
0.000460443
4.23632e-08
1.04517e-07
2.58002e-08
2.69558e-09
3.93916e-07
2.87724e-09
4.85338e-09
0.00243077
1.32432e-08
1.38494e-08
4.71996e-09
1.22014e-07
1.65538e-09
4.58218e-05
2.95961e-08
2.0308e-08
7.64226e-08
1.64087e-07
0.000297092
0.00227274
4.1802e-08
6.90777e-09
0.00236629
0.002341
3.70097e-08
2.28373e-08
1.22753e-08
3.15451e-09
3.05559e-08
1.1019e-08
0.00200143
0.0043348
6.11142e-09
2.04212e-09
3.88039e-09
6.019e-09
0.00246895
0.000394487
1.76564e-09
1.81035e-08
1.53279e-08
0.00211898
1.05125e-05
1.09322e-06
0.00194315
2.49342e-08
2.50445e-08
4.8349e-09
4.1181e-08
2.52938e-08
0.00220492
5.20803e-08
0.000310674
5.52144e-09
6.26689e-09
0.00320551
0.0026027
7.55722e-09
0.00306977
1.0801e-09
1.47357e-09
4.53305e-07
4.97355e-09
3.54839e-09
0.00179247
2.67077e-08
1.23943e-07
0.00384962
1.20416e-08
0.00155107
0.00300649
1.45273e-08
0.00319277
1.4434e-08
1.27737e-08
1.78828e-08
1.87129e-07
9.89016e-09
4.63595e-08
5.92622e-09
2.49468e-08
4.80755e-07
1.94372e-08
0.0023233
6.47057e-09
0.00301321
8.30878e-10
1.15254e-08
5.35226e-09
0.00231045
8.45804e-09
0.00223803
0.0019237
0.00309691
1.5722e-08
0.00209379
1.44316e-07
2.12728e-08
3.19541e-09
7.9227e-09
1.26665e-08
7.64424e-08
1.42173e-07
2.84716e-07
3.42254e-09
0.00282191
3.24322e-08
1.16463e-09
9.20531e-10
4.50878e-09
7.04798e-10
0.00200406
3.55438e-08
0.00294259
2.69838e-08
0.000624972
3.59683e-09
3.64193e-09
0.00176862
0.00346365
6.65904e-08
3.71049e-09
0.0037555
1.56835e-08
1.03334e-09
3.32769e-09
1.3232e-08
6.23486e-10
1.37444e-08
1.51853e-09
1.41033e-08
2.85392e-09
5.93719e-08
2.70113e-08
0.00246212
5.49212e-07
1.03031e-07
1.12177e-08
4.6451e-09
0.00208843
1.39722e-08
0.00298232
4.13714e-08
2.79879e-08
6.67434e-09
6.20017e-09
7.94386e-08
7.42787e-07
0.00129732
0.0012178
7.97944e-09
0.0036909
2.41468e-08
0.00276913
9.03594e-09
2.48336e-08
2.9461e-09
0.00259946
0.00127755
0.000427451
4.48663e-08
2.03054e-09
0.00128971
5.29444e-09
3.26816e-09
8.9514e-09
5.34072e-09
0.00237149
0.00202094
1.78865e-08
3.15396e-08
5.16284e-08
3.88337e-09
3.249e-06
1.81361e-06
6.21343e-09
2.43899e-08
0.00157764
8.80529e-09
3.11631e-08
1.09004e-09
3.00188e-08
4.4537e-09
0.00226816
4.55767e-09
1.69171e-06