/*--------------------------------*- C++ -*----------------------------------*\
  =========                 |
  \\      /  F ield         | OpenFOAM: The Open Source CFD Toolbox
   \\    /   O peration     | Website:  https://openfoam.org
    \\  /    A nd           | Version:  10
     \\/     M anipulation  |
\*---------------------------------------------------------------------------*/
FoamFile
{
    format      ascii;
    class       volScalarField;
    location    "6.7";
    object      p;
}
// * * * * * * * * * * * * * * * * * * * * * * * * * * * * * * * * * * * * * //

dimensions      [0 2 -2 0 0 0 0];

internalField   nonuniform List<scalar> 
111485
(
31.6109
0.531598
0.61036
31.6002
0.609765
30.7332
0.520118
0.493032
0.521856
0.697039
0.509098
0.625979
0.537877
0.443627
0.532745
0.606708
0.251399
35.1491
0.542654
31.5955
31.5957
30.7619
0.516963
0.595825
0.580659
31.4654
0.700776
0.442881
0.600764
31.6233
0.604626
0.177963
31.6154
30.7933
34.3445
30.6771
0.701371
0.247758
0.709649
0.573254
30.9952
0.684261
0.578526
0.6987
0.0236391
31.706
0.695364
0.581511
0.695814
31.7304
31.7204
29.7228
31.7533
0.669153
31.775
0.387242
0.539313
30.8618
0.413382
0.563548
0.569909
31.6134
0.467434
0.624397
30.8766
0.428261
20.8721
0.495067
0.381519
0.470358
0.455099
0.401206
30.9738
0.402104
31.6623
0.299091
30.7725
0.663945
30.7552
32.4123
0.521376
0.655387
30.7834
31.6426
0.463804
0.553799
7.96158
0.651818
0.562547
0.265115
0.21011
0.56394
0.478893
0.237444
0.675021
31.6421
31.6115
0.700898
-1.84273
1.13488
31.6064
0.698451
30.7751
0.63064
0.49132
31.8565
30.8288
0.20859
0.566546
-0.290429
0.161571
0.4617
0.586783
0.644458
31.4577
0.300692
31.5226
30.8332
0.405141
31.6011
31.4644
27.008
30.787
30.8639
0.720306
35.7514
26.8562
0.220408
31.6548
2.59713
0.533559
0.698001
31.6652
26.4185
27.536
0.519755
30.7757
0.315459
0.46403
0.538568
0.565215
0.48444
0.50272
0.612337
0.66576
0.14847
30.7747
31.6363
30.8658
0.504484
0.59958
31.5834
0.669065
0.0377122
-1.48134
0.518636
0.502776
0.495604
-0.927263
31.6814
31.6003
0.508913
0.556925
-0.775619
-1.23607
0.249129
0.646779
30.9638
-0.62723
-0.497097
30.8448
31.6326
0.599359
30.8053
0.133251
0.0720989
30.9219
30.8887
31.5309
31.4767
30.7821
31.5958
0.534109
0.525397
0.551057
0.25885
0.684666
0.352268
0.732221
31.6063
0.270918
30.8753
31.57
0.390757
0.669152
0.699227
0.45997
0.0872277
31.6664
0.543216
0.633844
21.6985
0.713174
0.239477
31.6345
0.37699
0.620615
30.8658
0.676957
0.687255
0.585727
0.319526
30.7512
31.6167
0.346796
20.3897
0.700542
30.8017
0.365386
0.327247
0.704469
31.6522
0.348373
0.629999
24.387
30.804
30.8467
0.558169
-1.19458
31.1444
29.2971
0.343987
0.147746
0.0152225
31.1332
31.296
0.643387
31.6565
0.485437
0.315337
0.332268
0.282432
0.324293
30.8529
0.545558
0.247388
30.8703
30.7823
0.631691
0.455275
31.3549
0.232216
0.259716
31.6362
25.7918
0.694022
31.6215
32.1291
28.8969
31.5825
0.306632
0.262866
-0.0118478
31.6693
0.248902
31.6016
31.6063
31.669
0.623629
0.648536
0.469467
0.37632
0.637867
0.435523
0.427724
0.645091
0.121097
0.176213
30.5557
31.6318
0.639728
0.176837
0.326763
0.162242
31.6014
0.470614
0.516342
0.452121
0.709787
0.561732
0.457534
0.365474
0.692523
30.8492
0.614072
30.8065
35.0245
32.3922
0.524213
0.61382
0.530808
31.5489
31.0952
0.370316
0.180659
31.5816
31.6109
31.7933
0.280045
0.195791
0.523175
0.542178
0.537339
29.197
30.8469
31.6465
0.381346
13.5258
0.479164
0.546038
0.574537
30.7848
31.6082
31.6139
27.5132
0.39417
0.61791
30.8199
0.395968
31.3441
31.5246
0.724534
0.39768
0.639057
0.400379
32.1447
27.3753
30.8213
0.388202
0.0859512
0.621753
30.8692
2.94364
0.358992
0.631858
0.3938
6.03772
0.540008
30.7635
0.534702
0.412526
0.569858
0.697722
0.589263
30.8087
31.652
30.8302
31.6111
0.516729
0.367177
0.583553
0.570317
30.8732
0.630574
30.8362
31.6412
0.551362
32.587
28.0231
31.8235
30.6639
0.520184
30.8575
0.0679911
0.644796
30.7564
0.432397
0.427622
31.6293
0.393021
0.641039
0.457254
0.698598
0.177004
0.159455
32.1758
31.6395
0.73618
30.9226
0.644791
0.684568
30.9169
30.851
0.389211
0.578083
0.138333
0.675944
30.7728
0.609996
0.611162
30.7221
0.692443
0.561382
31.6112
31.5959
0.0950343
0.586308
30.7702
31.5324
23.702
31.6037
0.611508
30.8025
31.6054
0.609731
0.556962
0.710492
0.628817
30.7416
27.5831
0.787646
27.961
0.706035
0.819388
0.714712
21.5437
28.2495
-1.7705
-0.181624
31.612
0.660023
0.643374
31.6456
-0.861606
0.701982
28.112
0.635944
0.610606
0.181777
30.7526
1.05933
0.642502
0.214585
0.49024
26.7683
-1.3292
31.6356
0.756456
-0.622603
30.8465
0.608216
0.747425
26.0551
31.6643
29.9794
31.5901
0.604667
0.330584
0.648156
0.668556
0.667667
30.808
0.500695
31.6589
0.653467
30.6809
31.6478
31.69
0.634648
31.6431
31.6137
33.5167
31.6082
30.8816
0.713692
30.8554
29.9284
30.8171
31.5685
30.7109
31.6719
30.7666
0.633972
30.8113
0.70286
0.631332
0.741056
30.7551
0.72037
30.8461
31.6097
0.651807
0.705196
0.795748
0.51726
29.57
0.688426
0.680511
0.149906
0.0117487
0.651349
31.6351
0.0471748
26.1119
0.816714
30.8079
0.730324
26.9795
0.163727
0.672514
33.181
31.0727
-0.0476049
31.5815
0.682302
0.654397
30.8749
30.8928
31.8946
30.8388
-2.77094
0.675273
30.7007
30.8742
0.600237
30.7623
0.66033
30.7678
0.706323
31.6133
0.749172
0.751351
0.514988
0.151299
30.6429
-0.462305
30.705
30.8082
0.618294
30.813
0.703101
31.9202
0.751245
31.6258
0.750838
31.5926
28.148
0.619349
0.551772
0.649933
0.69904
0.590708
0.599367
30.8614
0.620786
0.632198
30.7943
0.751205
0.656368
0.693596
30.9766
32.2604
0.686908
0.590597
15.3959
30.9538
0.597553
0.635659
0.688381
0.677861
0.67756
10.9266
27.787
-1.71891
13.245
31.604
0.750561
30.9185
28.2644
0.288102
10.6915
-1.78479
6.55734
27.7723
0.632757
0.62038
30.7881
30.0171
0.631296
31.5972
30.7605
30.7679
30.7482
0.68223
30.8304
31.4803
0.716759
0.312152
24.3045
0.459769
29.5137
0.298029
31.747
30.8564
0.663855
30.8024
30.756
28.1347
0.200978
19.1581
0.603178
0.244582
31.6261
0.169822
0.446509
0.597244
0.845945
2.05999
0.577372
30.8137
0.670043
0.610831
31.6632
0.406637
0.677627
0.640886
0.161054
0.620167
0.626625
31.6932
0.70256
0.683183
28.0559
0.622007
0.774582
19.9313
0.234546
0.64112
0.745119
0.66777
0.679443
0.182673
31.2723
0.660109
0.701053
32.9344
0.661052
0.609379
0.289027
30.8185
0.199739
31.7252
30.7792
30.8572
30.7431
0.641803
28.4912
-3.04365
31.6043
30.4932
0.696642
0.667455
31.5766
0.676034
31.6059
31.6504
31.7579
0.638229
0.742948
28.2516
31.4567
30.8113
30.8187
0.658404
0.242523
27.5455
0.666894
-0.530109
30.8624
0.694853
0.704143
0.385526
30.7527
30.8007
0.497903
0.282239
27.9973
30.8453
30.6718
0.319591
31.6464
31.5628
30.806
0.66489
0.599484
30.761
33.9438
32.9077
0.627729
30.8647
30.736
0.685763
0.630191
27.934
24.1901
5.43268
0.714228
0.018264
30.6142
0.500145
0.771007
30.8472
31.7461
30.7743
30.8055
30.8424
30.7626
0.724581
31.6076
30.778
30.9491
0.70519
0.273862
31.5796
31.8009
0.668654
0.262694
0.29289
31.5623
30.7828
0.269247
31.6389
0.6383
0.227482
0.307919
31.4856
31.6076
31.607
30.8196
0.685653
30.7851
30.7593
0.710082
31.6058
0.390371
0.810723
30.8019
0.312048
31.5103
0.359267
0.693102
0.626024
0.691763
-3.85821
29.2069
0.346323
0.692754
0.014074
31.3668
-7.0831
28.7978
0.133705
30.8312
0.678946
0.715365
0.663237
32.3541
31.61
31.6647
0.262116
29.5027
0.0121565
30.0425
0.588971
0.173227
0.135699
0.273124
30.7681
30.8116
31.0557
0.265974
30.743
29.1937
0.420106
30.8553
30.8814
31.6131
30.7783
0.147751
30.6527
30.8037
-4.95689
29.4336
30.932
28.4139
30.8002
0.647844
0.155245
31.5866
0.620132
5.03468
0.652785
-0.405881
0.241938
30.8507
0.65275
0.790165
0.652652
31.6416
-8.9988
0.128234
26.252
0.0940514
0.529243
0.622789
0.432149
0.182397
0.45617
0.163269
0.190031
30.7438
30.7841
0.110069
0.0604582
30.8563
0.123853
0.658573
0.178326
30.7149
0.545518
30.8175
0.163599
0.142595
30.7496
-0.253227
0.201068
0.403039
-0.0432803
30.5488
0.530936
0.425146
0.745465
0.402656
0.692154
30.773
30.8576
0.75288
30.777
0.734614
0.569791
27.1775
-0.82236
-2.18347
-0.139449
30.7785
25.9217
0.324542
31.6517
37.7058
0.678758
30.7097
30.7395
-1.78697
-2.33138
30.7776
0.549334
30.806
30.8037
31.6603
31.6099
31.8784
31.6357
0.764733
30.7414
30.8464
30.876
-4.59486
0.91995
0.557549
0.31123
30.8094
30.7285
0.702213
30.7934
30.7522
23.7005
0.677955
0.378786
30.7537
30.7202
30.7729
30.736
30.6235
30.7275
0.608457
30.751
0.231148
0.562844
30.8171
31.6511
31.7862
0.531266
31.7533
31.603
30.8796
0.190062
30.8158
0.632362
0.65498
0.303298
30.753
21.54
0.732341
0.524923
30.7267
0.25657
0.677399
31.6053
30.6144
27.7641
30.724
0.320125
0.50086
0.66084
-0.314852
30.7538
0.314803
30.4894
27.6532
27.5939
30.8473
0.500305
30.8019
31.8266
0.696239
0.361037
31.8152
0.711602
29.5406
0.586336
32.1072
30.8075
30.7192
31.6058
0.209248
0.526423
2.55862
30.7596
30.911
0.168842
30.7777
28.5836
31.6133
0.63935
-0.362435
0.738067
31.5311
0.670924
0.714915
33.1282
0.719413
30.7588
0.670018
0.650052
0.443306
0.614304
0.276056
30.7846
30.8067
30.8047
0.667004
31.1243
0.533416
31.6648
3.81452
31.5661
0.565448
0.582174
31.834
30.774
31.8991
30.8835
0.515546
31.9285
27.7924
0.144616
0.537637
31.8529
28.4558
31.0363
28.5369
30.7331
30.7874
0.565563
0.791492
31.5992
31.5374
-1.40165
31.6387
0.562046
0.210177
31.036
0.710824
31.6064
0.105353
30.7554
0.603912
30.746
-1.17743
-0.171188
0.42585
0.689846
0.678636
19.3121
30.4374
0.724795
31.7343
0.489059
31.5721
30.9366
30.5745
30.8657
30.9635
30.8546
0.631051
0.582824
31.6074
26.8029
31.5951
0.64862
0.53841
31.6092
0.505543
0.429014
31.7867
0.243894
0.187922
0.474073
0.428712
30.7771
30.7917
30.9242
30.77
0.478736
30.5558
0.727861
30.791
0.706012
0.620582
30.8321
0.670712
30.8035
30.7741
0.689081
0.591536
9.33769
30.7937
31.8759
30.7097
0.487105
30.2807
31.8492
30.3607
4.48837
27.2579
-0.966336
28.4273
30.2201
31.1429
0.189094
0.116999
0.665612
0.52778
31.5965
0.709528
30.814
30.8494
0.155226
30.6338
-1.39908
0.701478
0.213404
0.701839
-2.71091
0.59702
30.8389
-4.55201
-10.4033
0.707239
0.754737
0.389785
22.6259
31.5956
0.607543
31.589
30.7391
0.126433
0.675588
-3.14513
30.7478
30.1459
0.651283
31.7857
30.7309
0.675677
31.86
31.8168
0.751248
0.686658
0.548299
0.54638
0.281159
30.7475
30.7825
-0.0286297
0.453918
30.7667
31.8379
0.775771
30.773
26.6365
27.3816
27.5352
18.0832
26.7487
30.7725
0.664804
30.6901
0.603415
30.7524
14.4788
30.9408
30.8165
30.8418
30.7796
0.675391
30.7795
30.7773
27.9995
30.7262
30.8414
30.793
0.425317
30.8466
0.381206
0.593047
30.827
0.780119
30.7602
0.663038
0.28506
0.153042
0.175063
31.4636
0.174896
0.658884
0.416315
31.6564
0.523663
0.365634
0.144212
29.5986
0.121379
30.9935
30.834
30.7601
30.7604
0.137047
30.8059
30.7064
0.124175
0.429559
0.0589502
30.8842
22.2173
0.716114
30.8374
-0.35011
31.7748
0.117533
30.7097
30.7249
0.604623
30.7344
0.849453
31.6274
30.752
0.293841
0.606787
0.288097
0.508667
0.498652
0.410793
30.7531
32.2624
0.566475
0.29603
0.446193
0.556464
30.7781
0.386079
30.7715
31.2872
0.551392
0.668415
30.7779
0.28318
30.7869
0.290908
0.268087
30.9258
30.7618
30.8198
0.574263
30.8025
30.8045
0.578069
0.292152
0.728579
0.134749
30.8297
30.8692
0.753426
0.629909
30.7719
0.558333
31.0557
0.54888
30.7621
30.7568
0.479522
30.7767
0.670447
0.587015
30.7567
30.7618
0.494242
26.2508
0.680277
31.6101
0.670614
31.6549
26.9045
26.0311
0.587589
28.1784
27.8844
0.483973
27.7257
17.5438
25.7379
30.9547
31.5915
0.29676
0.653283
30.9571
30.8031
0.549588
0.616992
30.7737
0.576385
30.7624
31.6104
0.683659
0.659866
0.476094
30.756
30.815
30.8044
30.7773
30.7106
30.7225
30.7851
30.7153
30.735
30.7552
30.8014
31.5977
30.7959
30.7519
30.7449
31.3701
30.7522
30.7638
30.7823
30.8938
31.4397
0.673231
30.7987
30.7536
30.8779
0.495518
30.8686
31.6097
12.5075
30.6727
30.3183
0.469701
33.1147
30.5177
14.5679
0.453247
30.7904
27.2557
29.2029
30.7399
0.705643
0.450116
0.459847
0.380842
0.345221
31.6909
30.7178
0.369071
0.3993
0.390104
30.7602
0.424911
0.732554
0.473629
0.133137
0.174481
0.386657
0.220912
0.449093
31.6949
0.523126
0.474636
0.601645
0.438068
30.8146
30.8018
30.8259
31.6065
30.8043
0.397807
0.446677
30.8236
30.7367
30.7325
31.4961
30.7496
31.5874
30.7436
31.599
0.428114
0.496472
0.452503
0.737501
30.627
30.7626
0.682939
0.0267958
30.7611
30.7785
0.595264
31.7013
30.7965
0.552132
0.385049
0.420271
0.694348
0.696645
31.6799
0.0746715
0.512185
27.8014
31.589
0.46159
31.6625
30.7726
10.3365
5.99646
0.646452
31.2921
31.5586
0.749633
0.515464
0.129623
0.399347
14.2031
31.6041
0.794865
32.9494
31.6587
30.4899
0.588262
30.7461
0.404271
0.0558751
0.457311
0.494757
31.6544
0.388921
31.6488
30.0906
31.6364
31.5421
0.185652
18.4902
30.7794
31.5975
33.4489
0.410126
27.6217
0.340231
0.387673
0.171429
0.396093
31.5199
31.5311
26.8796
0.609336
0.346601
-2.5541
31.7457
31.6096
27.4711
0.743875
0.523467
30.7724
0.166939
10.7351
0.508239
0.312145
31.5981
26.7639
0.305718
0.39826
30.81
0.729659
0.703159
0.594617
0.269895
0.321252
0.396768
27.809
0.220163
0.337026
0.322845
32.0425
0.477307
28.1396
0.635127
0.342067
31.6639
0.143573
0.319576
0.310281
0.449415
35.0317
9.14348
0.702597
17.67
0.328414
30.6658
0.155676
0.34883
31.595
30.7832
-0.382106
0.543624
0.490978
34.9202
0.649066
0.225051
-3.42194
0.547085
31.5909
31.7288
0.389418
33.3843
0.389257
0.168195
0.390158
0.201275
31.5913
0.732314
0.388057
31.5688
28.0083
0.306067
31.687
0.293671
0.300785
31.6169
35.1077
0.525971
31.5793
30.7544
30.8524
0.186678
1.17099
0.609784
31.8614
0.587729
0.246219
30.9367
0.236745
0.200369
0.171852
0.454865
30.7696
0.348028
0.2636
0.236532
0.2077
0.183985
0.371836
0.60285
31.6092
-0.159347
0.173748
31.6017
0.227813
30.8615
30.8
31.6509
30.8863
31.6065
0.806035
30.831
0.226684
0.590683
31.6622
0.70996
31.4394
0.157139
31.5958
0.325029
30.7155
0.567733
0.852619
0.302326
0.324315
0.176672
0.600245
0.190665
0.339011
11.6948
0.288433
0.370159
0.334242
31.6526
0.471767
0.524169
0.296243
0.542989
0.354519
31.6561
27.426
31.5821
0.622571
31.5899
24.9609
0.179537
33.5762
0.749011
31.5385
31.5211
30.7786
0.440363
0.767278
0.280851
0.700742
0.180631
0.357402
0.405609
0.40357
0.169361
0.394792
0.369895
31.7383
30.6481
31.6327
0.502962
0.440507
30.8598
30.7776
25.4504
0.463659
0.181628
31.5893
0.368632
31.6086
-0.597298
0.633542
0.657733
31.6045
31.6108
0.382782
31.6059
0.698165
0.265747
30.0816
0.472899
0.549699
0.163515
31.5625
0.499157
28.2455
0.609684
0.600203
31.6109
31.6903
0.245219
22.5981
31.7506
0.329959
0.189119
31.6119
31.4995
28.063
0.332464
25.4141
0.479318
0.682841
0.704446
31.6084
28.297
0.664104
31.6075
30.8233
31.6313
31.6036
28.6986
30.9688
30.3698
31.5742
31.6059
29.4819
33.5888
30.6438
0.731796
30.6782
27.2352
25.7821
35.5655
27.7423
31.6105
0.684792
29.7055
30.9097
0.694574
32.8549
34.2712
31.3135
0.659328
33.4716
0.702323
0.593719
0.738314
28.9621
31.5982
0.731852
-0.625136
31.4118
31.6229
0.498711
28.6514
0.489089
28.3638
30.7325
31.1128
0.497736
0.509151
31.6151
0.637121
31.8065
29.6988
0.23742
0.395091
0.691451
30.8311
0.491141
29.0761
0.60862
30.7654
31.5649
30.7523
28.1478
0.364684
0.392512
31.6449
-1.9538
31.6045
31.6626
31.6025
31.5979
0.669735
0.615229
0.371859
0.97868
31.5055
0.622476
0.515352
0.337689
0.646243
31.0301
0.325622
0.766702
0.374159
-0.491938
0.486639
31.7585
0.476896
0.674862
0.496754
0.70913
0.63519
31.6829
0.678337
31.1735
31.6309
0.446897
31.6619
0.64027
31.6161
31.82
30.4582
31.5941
31.6455
0.605938
31.5863
0.597812
29.0814
30.8324
0.575336
0.743378
0.39729
0.554306
31.7098
3.80474
31.6427
0.64459
31.8248
0.55705
0.655133
0.713155
0.669584
31.9371
31.9643
31.5837
0.347508
30.8725
31.5455
0.340691
30.6888
30.7443
0.779145
31.9372
0.378101
-0.501737
28.8877
30.0864
29.8489
0.338482
0.502935
31.5936
0.0424279
0.622844
28.2782
0.70992
31.6256
0.331811
0.619946
0.372969
31.5989
0.628705
0.363259
0.706213
0.732631
0.676093
31.6093
31.6063
0.592174
31.5584
30.7608
31.6121
0.307599
0.712839
0.412701
0.38614
27.8099
0.585368
0.495242
0.514447
0.319167
0.648423
0.662535
0.674184
30.7784
30.7769
30.7748
0.735576
30.8182
0.551102
21.5134
0.638532
-1.1296
0.297728
0.186099
30.7433
31.6247
0.644724
0.631905
31.6726
30.7619
31.6595
0.314367
0.63111
0.646378
0.692448
0.160345
0.482958
31.5801
31.6417
31.6109
0.224057
0.450514
0.0517217
0.546059
0.391504
0.684202
31.4534
31.6076
25.7548
30.8863
0.178947
0.653295
31.5864
31.6934
31.6814
31.6615
31.5139
30.9387
0.661292
31.594
0.655957
0.606859
30.764
0.670904
0.123228
0.320126
31.8045
31.1151
0.661848
31.6059
0.656395
-3.55908
0.341178
30.741
24.0678
30.7678
31.5984
31.5614
30.4963
9.21218
31.6264
0.730732
0.451947
31.6234
31.6124
0.667335
31.6009
30.8036
0.434096
0.233041
31.5305
31.5238
30.792
0.251959
31.6062
31.6054
5.57042
0.613182
0.673357
31.5891
30.7601
28.9493
0.651598
0.658688
0.65146
0.530227
30.7581
0.319004
0.16114
0.0893383
30.6285
31.6289
31.6091
31.4625
31.6071
0.446204
0.464436
0.460468
31.7227
31.6291
31.6042
31.6111
30.981
0.707968
0.482058
0.095883
30.7395
31.6042
31.8638
-2.80077
0.635385
0.671666
30.7965
-6.65615
33.0435
31.4357
31.6053
0.463907
0.554623
31.5801
31.6909
0.574382
31.6134
0.339449
0.446516
11.627
31.5642
30.9119
0.375095
0.632904
31.6933
10.8697
0.265418
0.69693
31.5917
31.5925
31.6879
31.6467
0.175388
0.298484
31.5944
0.677799
0.67836
1.85358
31.5953
31.5752
31.5738
31.5953
0.646188
33.5434
31.5975
31.1638
0.220803
0.589304
0.274236
31.4533
31.6394
0.707183
30.5828
31.6127
31.5903
31.5932
0.49048
30.8635
30.701
30.7591
0.233801
0.534705
31.5646
31.6395
31.5012
0.553785
32.6389
31.5832
31.5088
31.643
31.6348
0.252417
0.663904
31.8225
0.536494
0.630932
0.461742
31.6757
31.6557
31.6141
31.496
30.7457
0.580445
31.5988
29.6671
29.6153
0.689469
30.6869
0.647267
31.6066
30.8235
0.805901
2.19413
28.4522
0.728223
31.5991
0.712099
32.6833
31.644
31.7717
36.3312
31.6011
0.715322
31.5582
0.518526
30.83
28.0703
31.655
31.5577
0.197705
0.818675
30.772
11.3069
30.838
0.472721
0.692297
0.724968
30.8572
-0.338212
0.5902
0.667638
0.668081
-1.33213
0.577545
30.6246
30.7521
-1.80587
0.322827
0.670958
31.701
30.3178
25.8856
13.7162
31.6608
30.7503
31.6427
31.6576
31.6699
33.2334
0.816211
0.623699
0.43371
28.0306
0.592964
31.6411
0.590299
31.6102
31.687
30.798
30.9201
0.503677
30.8336
30.8267
31.5953
0.534516
31.5883
31.6211
0.702414
31.5386
23.3703
20.1886
18.8933
31.6643
19.7483
19.1207
19.5514
22.261
30.7525
30.7557
0.508731
0.65842
28.1552
28.7292
30.7593
0.492691
32.7858
31.0952
0.506649
31.5908
31.6061
0.620945
0.610329
31.5211
30.7424
0.844652
28.261
30.6903
-0.486928
0.535112
0.682561
31.3133
0.590668
31.6507
0.363041
-0.509595
0.562284
31.5986
-0.493475
0.586799
31.9191
-3.00007
31.5345
0.546388
30.2132
0.601002
31.2872
0.661549
31.5737
30.5589
30.8233
-4.7366
-4.70785
31.694
0.561724
0.893055
31.8413
31.5952
0.362506
0.042163
0.558775
31.6814
0.605414
0.581603
0.716887
-2.26967
31.6698
0.376424
30.7889
0.416901
31.6108
-5.69476
-6.7443
31.4927
0.409818
30.9639
0.715885
30.7701
31.497
31.6233
31.6845
31.4936
31.5598
0.690537
0.492619
0.395716
31.605
25.5922
0.435196
31.6041
31.4913
31.6929
31.6291
31.6916
0.105546
31.5978
31.6467
30.7511
0.0859985
31.5178
30.784
30.2556
0.213236
30.7944
0.0803134
-1.98063
0.491242
0.19613
-0.000119089
32.9016
31.5925
31.5939
0.32518
0.286831
30.4381
25.4551
0.121202
31.6217
31.6533
0.469651
31.5304
0.57759
31.5804
0.0284141
0.66997
31.6066
30.7513
31.5787
31.6447
31.6119
0.796413
31.5698
0.128834
31.8368
31.592
0.25107
30.7995
0.578974
31.1673
31.6196
0.672195
0.430002
0.546672
31.6431
31.6443
31.6035
0.454937
0.6205
31.8617
30.7787
30.6617
0.287071
31.5466
0.615729
0.480116
31.5872
31.5622
0.281973
31.5873
30.6599
30.7948
31.8836
30.8083
0.41303
25.1073
30.8201
31.6324
25.7505
31.5624
26.6156
31.4602
31.5499
31.1464
0.394835
31.3829
0.24279
31.5005
31.5526
0.811938
0.300291
31.531
31.5254
31.5837
0.240934
27.1733
31.5996
31.0007
31.5685
0.299836
31.5389
0.324343
31.6614
0.630745
27.9968
0.702114
31.6264
31.6122
0.64576
26.5362
31.5971
0.276789
0.6249
31.7258
31.6447
0.649867
0.621492
0.285968
0.235801
0.232066
0.68731
0.309302
0.694894
31.851
0.282883
25.4305
24.9909
31.5956
31.5516
31.6105
0.295413
31.659
31.6378
31.6563
0.469094
0.675436
24.235
0.613213
31.651
0.712785
30.7102
0.712371
0.344404
25.7142
0.686818
31.5354
31.4568
30.777
0.341373
0.634243
31.6028
30.802
0.319053
31.639
0.532173
31.7787
0.65435
31.6094
30.7762
31.5681
30.7716
0.284816
30.7713
2.18024
30.8301
0.66683
31.5903
31.5668
17.8969
16.6423
31.653
31.5722
31.6092
31.643
0.663573
0.473762
21.3854
31.6473
0.674711
30.7552
30.85
-0.629858
0.52619
0.678701
30.78
0.218609
0.637196
0.425751
0.574057
31.615
31.6679
31.6846
31.6502
30.7812
30.7707
30.7761
31.4411
30.7814
30.7775
31.6064
30.773
0.565508
30.7712
31.5768
34.5642
31.6443
31.5956
11.5913
30.759
31.5815
0.518161
0.629942
31.4743
31.5731
31.6061
0.542642
30.9769
31.5648
0.570911
30.8017
31.5754
31.606
31.6386
0.725196
30.7883
0.370618
31.6474
31.5647
31.5814
31.592
31.5702
0.574917
0.460432
0.339726
31.6462
30.8056
31.7867
0.533858
31.5689
0.486794
0.679214
30.7857
31.5823
24.1984
-0.561255
31.4947
28.3772
-0.509795
24.5133
0.716097
30.9412
0.69433
24.3826
22.7883
31.6056
0.659762
30.8051
0.612797
0.683684
31.5995
0.662855
-0.0760608
31.6017
0.640343
30.754
31.5052
31.5479
31.4873
31.5287
30.7689
31.5686
31.647
0.40452
28.7265
31.5979
31.6097
31.5622
31.5744
0.529706
16.7738
0.518607
-0.0976167
31.5705
0.687247
0.636057
31.6016
28.2964
31.3753
31.5196
31.6663
31.8991
26.1094
28.9492
0.620951
31.5992
31.6721
24.6825
26.7531
30.7804
0.620148
31.5829
30.7902
31.642
0.595325
31.6636
30.7599
0.661459
30.7935
30.6956
31.2799
31.8426
0.671296
31.5946
31.5861
31.5774
31.5861
0.683305
0.66688
0.705939
0.634999
0.715979
0.679323
30.8042
26.5465
0.416415
0.69161
26.5022
0.434225
31.6173
-3.15382
30.8059
0.587499
31.6049
30.7525
0.709821
-4.39545
31.5833
0.685969
31.6089
31.6265
0.566996
0.701848
31.6372
30.7689
31.7359
30.777
31.5678
27.5984
31.6439
31.6118
0.673198
31.6433
31.5918
31.5867
0.73802
31.619
27.7586
30.7866
30.7582
29.4838
28.005
0.73318
30.7467
28.0427
0.499414
31.6129
0.640241
0.714639
31.5844
0.50781
31.6046
30.0875
31.8675
27.4929
30.8321
31.5715
31.6317
31.6656
0.566072
31.6527
31.6269
31.6389
31.1705
31.5938
31.362
0.517514
31.6061
31.6514
0.644828
31.6033
30.7819
30.8497
0.615616
31.5949
0.283462
27.1646
-0.439537
0.119911
30.7678
26.5199
0.507268
25.4668
30.7803
0.260361
-0.434972
-0.00559021
0.648648
0.0412384
-3.5112
30.9261
30.7454
0.630695
0.589829
0.616958
0.638807
-0.458071
30.8134
0.177927
0.57707
0.601753
30.8606
0.621872
0.172024
0.414183
0.598824
0.499366
0.515184
0.291308
0.542568
0.02019
0.347955
0.609174
27.81
0.365613
0.036061
0.637346
0.663869
0.123458
0.611285
0.082061
28.4462
0.546547
28.25
0.449045
0.64575
0.582813
0.46122
28.1945
30.7705
0.590384
0.508883
0.466657
0.688712
0.243732
0.599812
19.7878
0.650574
31.6067
1.05235
0.557848
0.682748
0.442305
0.450472
0.327241
0.688534
0.457086
0.349539
0.424889
0.611719
0.516522
24.9193
21.9179
0.603514
31.5921
31.6069
0.58422
0.669977
0.142876
31.5866
0.605605
0.693616
0.481022
22.7297
31.6008
0.186266
0.0443594
0.525549
31.6692
0.275969
31.617
0.495841
0.676651
0.663857
0.6789
31.5758
31.6165
0.772766
0.641477
0.693153
31.5857
0.522274
0.695591
0.65909
30.8174
0.483801
0.106943
28.1819
0.414143
-4.70578
0.52918
30.5964
0.662445
0.651608
31.6084
0.736072
0.131149
6.53639
0.661966
0.763336
0.216507
0.726003
0.628024
-0.036471
0.10107
0.480517
0.724605
0.202803
0.571553
0.36492
0.525515
0.704807
0.446286
0.62109
0.401712
0.291766
31.6131
0.728827
0.686337
0.542629
0.316506
0.708871
30.8288
0.715305
0.431134
31.5959
0.590215
-0.00643672
0.708145
0.725451
0.170988
-0.154358
0.674482
0.648832
0.677791
31.6132
31.6063
0.713694
30.8505
0.726747
0.850503
30.9034
0.172321
0.719233
0.314453
31.6387
0.439556
0.464065
0.639658
0.445506
0.4492
0.328999
0.510619
0.754467
31.6065
31.5005
0.596952
0.667436
0.653387
0.583872
31.4982
0.685777
0.753227
30.9004
0.467454
0.630301
-0.264786
0.201763
0.717332
0.545407
0.289616
0.598058
30.8735
0.764904
0.393764
0.693117
0.269008
31.5031
0.757235
32.0995
31.6005
0.448372
0.630493
0.474639
1.57241
0.461691
6.73157
30.7945
0.554913
0.79248
0.743205
0.476526
31.5985
30.8568
30.816
0.464773
0.485321
0.172343
0.429004
30.6151
31.5175
0.427356
0.51816
0.689063
0.49833
0.473009
0.658684
0.663731
17.9674
30.7554
0.677825
0.109402
31.5131
0.580484
0.63678
0.77341
0.694631
0.58531
0.741395
31.5157
0.545474
0.557659
30.843
30.6786
0.163133
0.339486
0.250105
0.156341
0.615161
0.672341
0.253481
0.453036
0.59468
0.124221
31.4991
31.4701
0.0459784
0.185989
0.608978
0.643231
0.592713
0.507481
0.683632
0.510337
0.579332
30.7746
30.8733
0.606796
31.4923
27.6016
0.594625
0.415427
0.514434
0.625119
28.9419
0.714013
0.722741
29.4605
0.637748
0.228119
0.583278
0.59973
0.109476
0.678115
0.421176
0.1688
31.6031
29.2412
0.627274
0.25829
0.456124
0.251689
0.465605
0.663673
0.541096
29.3401
0.648034
0.326017
0.52071
0.547546
0.69534
0.572525
0.239658
0.566668
0.20982
28.9187
0.750596
0.61768
11.9434
27.5072
25.3846
0.614008
26.9037
0.09224
0.562651
0.481565
0.681745
0.501648
20.6514
12.9068
32.4107
27.1387
0.711827
30.7723
30.7726
-3.86553
31.5943
0.443562
0.509921
0.381587
0.414857
0.42443
0.625787
25.4501
0.239838
0.150418
0.655835
0.583421
0.426815
0.584354
30.7811
0.229669
0.428269
0.329279
30.7749
0.696529
0.547614
30.7735
31.5387
0.569782
0.390493
31.7633
0.679566
0.630185
0.553963
31.6349
30.7722
0.140489
0.225747
0.671908
30.7774
30.7686
30.7742
0.693427
10.9594
10.0426
0.217564
-0.414488
31.6879
0.317289
-0.326812
0.561549
0.142273
0.0686876
0.314266
-0.836642
0.176093
31.041
0.242727
0.283588
0.0668801
0.476698
0.14229
0.22285
0.132614
0.170446
0.141516
0.667349
-0.414703
0.587933
0.55874
0.475168
-0.693482
0.129849
-0.350643
0.168265
0.192908
0.385676
0.330384
0.670317
0.301552
-0.365853
0.275961
30.1404
0.578152
15.893
0.457261
0.576183
30.8453
0.689562
30.1412
0.602241
30.2499
31.6692
0.610654
0.650507
27.7095
0.248939
0.532466
0.686377
31.5221
31.6412
0.950111
0.284875
0.409888
0.464449
0.25176
0.656416
0.698601
0.680403
0.691221
26.2464
0.582665
30.7822
31.4652
0.41725
0.327901
0.628705
0.405031
0.295737
0.72311
0.697662
31.2022
0.538347
0.273929
0.708425
31.2389
31.6779
0.577843
0.625822
24.8827
0.707951
0.139899
0.658359
-0.468152
0.291674
0.491035
31.5432
18.8039
0.427486
0.651635
31.1086
0.446284
0.683645
0.63517
0.612813
0.377719
0.495709
0.573851
0.750769
19.9045
0.74399
31.5934
0.62347
0.691211
0.282505
0.079193
26.6553
0.0655598
0.615186
0.68069
0.495161
29.8753
30.7781
0.440904
0.668515
0.70366
0.637381
0.708821
0.310969
0.0365039
0.500584
0.211268
0.121739
0.680981
28.4326
0.471726
0.625079
0.0230497
0.687179
29.1928
30.7492
-8.10425
0.544841
32.7888
0.453805
0.688729
29.5819
20.5491
22.1825
0.598338
0.398844
1.7201
23.6947
0.559076
0.468507
30.5431
0.979285
27.7288
0.633179
0.310064
30.9367
-0.048626
0.756675
0.74012
0.330149
30.7593
0.00807867
0.666356
0.625693
0.777869
0.821081
0.76406
0.745831
0.388473
0.70968
0.212799
0.398749
31.5687
26.1651
26.4516
30.9735
0.623825
0.454411
0.456192
0.611799
0.264622
0.441209
0.635873
0.689447
0.667676
0.328288
0.723009
0.531159
0.694683
0.289143
31.596
0.687378
0.606649
0.688242
0.760111
30.5159
0.439904
0.462636
0.774141
0.628865
0.54262
30.7956
0.577838
0.529716
27.6649
0.58002
0.664496
30.9592
0.481559
30.9169
30.8415
0.443698
0.527337
0.677431
0.544821
30.7547
0.21386
0.64234
30.8563
0.535487
0.55065
0.487655
0.667965
31.0741
0.651961
0.659173
0.704133
31.0099
0.454517
0.217219
0.672073
0.391043
0.424675
31.7524
30.0896
28.5496
0.137791
29.0602
0.440569
0.341634
0.178359
31.5539
0.183803
30.8585
31.5953
31.4471
0.508059
-0.0432818
0.22954
0.697415
0.491134
30.185
27.7258
0.714686
0.669123
0.443315
0.345946
0.457212
-0.506307
31.5998
23.2857
23.7609
30.76
24.0483
0.0869537
31.6067
0.476167
0.624267
0.490376
0.113479
0.496115
25.6528
0.299774
0.666512
0.712376
0.720762
25.8172
31.5958
0.675271
0.352898
-0.079617
-1.03856
0.551478
0.383567
-0.00193661
0.264498
0.367391
0.0729094
0.33142
-2.09127
0.321622
0.672587
0.65175
0.287809
0.303887
0.520196
-1.31507
-0.912695
-2.69056
-3.88082
0.270426
0.683646
30.8664
-3.0842
-6.7932
0.201112
0.14232
0.0261348
0.675889
0.630533
-7.52729
0.147903
0.565003
31.7134
0.452966
0.461206
0.541298
31.5993
0.380031
0.259086
0.163177
0.500494
31.6785
31.7283
0.669394
0.212749
0.2364
0.204382
31.4261
31.6124
30.8072
0.588783
0.697133
0.176875
31.6214
0.392441
31.7435
31.8368
0.186353
0.141615
30.73
0.194257
0.22256
-0.049774
30.8191
31.6352
0.312466
0.67488
31.7777
0.183027
0.312799
-0.0925538
31.9977
32.0229
31.8959
-0.100742
0.18566
0.737821
0.322554
30.7925
0.184312
0.598172
0.721978
0.710874
30.8021
31.5824
0.382435
0.684205
0.668711
0.512094
30.7953
0.276973
30.7862
0.228442
0.559386
0.599028
30.9917
28.7161
0.6299
0.764663
28.1742
28.3444
30.7856
0.546512
30.3299
26.9589
0.620318
0.618711
30.789
27.7242
0.575006
0.350207
0.229661
0.478622
0.434688
28.19
0.677509
25.9111
25.2711
31.7013
0.48021
0.731754
0.179409
25.416
33.8567
0.691487
0.562064
0.734017
0.711242
0.588513
0.564486
0.569733
0.415354
24.9475
0.589505
0.402659
0.393537
0.519046
0.652381
18.1993
0.462504
0.462491
0.475779
0.46691
0.234718
24.1689
28.8009
0.532953
29.0272
29.4066
0.615457
29.0906
0.445813
28.4164
28.7613
30.907
27.6481
0.512484
0.240563
0.467733
28.3567
0.325513
0.492959
0.523552
28.8187
31.6131
0.523079
0.542127
0.404157
0.524557
27.4822
0.0454954
0.25228
0.168645
30.7462
31.1127
0.404336
0.292419
31.222
28.9205
0.671143
0.0236968
28.2896
0.692913
0.620027
0.659845
0.575747
28.5956
0.588054
4.96432
0.218533
0.390409
0.749859
0.619452
0.690726
0.404788
0.658847
27.9728
0.650411
0.646773
0.357042
0.642949
0.680298
28.7479
0.410744
0.647378
0.407485
0.50124
0.625568
0.391586
0.543299
0.595712
0.695294
0.713287
0.345147
0.704211
0.782179
0.60756
0.728476
31.7515
-0.585781
31.6494
0.603513
0.629798
0.688562
0.64962
0.803759
0.582291
0.602648
0.53269
0.513072
0.263405
30.7234
23.5824
0.671019
0.725487
0.673512
0.752834
0.536254
0.553479
0.566035
0.913453
24.6091
0.261322
0.990158
-6.54428
25.8147
0.173704
23.9439
0.475707
0.513457
-0.259291
0.521935
30.8585
0.60732
0.366039
-1.11084
30.7757
0.474029
0.224171
0.779396
0.484671