/*--------------------------------*- C++ -*----------------------------------*\
  =========                 |
  \\      /  F ield         | OpenFOAM: The Open Source CFD Toolbox
   \\    /   O peration     | Website:  https://openfoam.org
    \\  /    A nd           | Version:  10
     \\/     M anipulation  |
\*---------------------------------------------------------------------------*/
FoamFile
{
    format      ascii;
    class       volScalarField;
    location    "6.7";
    object      SgT;
}
// * * * * * * * * * * * * * * * * * * * * * * * * * * * * * * * * * * * * * //

dimensions      [1 -1 -3 -1 0 0 0];

internalField   nonuniform List<scalar> 
111485
(
7.15321e-17
9.69258e-06
2.81703e-05
2.29069e-18
5.86362e-05
3.9127e-19
5.46159e-05
7.20308e-06
2.26581e-05
1.42199e-06
5.50548e-05
1.12005e-05
5.62751e-06
1.01956e-06
7.76047e-06
3.66711e-05
1.66292e-06
0.00309379
1.24182e-05
2.68864e-17
7.32766e-17
1.61248e-18
3.11217e-05
4.16148e-05
1.05632e-05
2.12451e-18
4.787e-05
2.17117e-06
1.85531e-05
2.02015e-17
5.48012e-05
2.24295e-05
1.14983e-17
1.07325e-18
8.46115e-06
1.01826e-17
1.31727e-05
4.9677e-06
5.04984e-11
2.7838e-05
4.79635e-18
8.5216e-05
1.89079e-05
1.68205e-06
6.92821e-08
5.86158e-17
3.65713e-05
8.54582e-07
5.68476e-05
2.11701e-18
7.47079e-19
1.37278e-17
6.10287e-18
6.02548e-05
8.67627e-19
5.21042e-05
3.8357e-06
1.45166e-17
2.6445e-08
5.71068e-06
1.9218e-05
2.99766e-17
5.53532e-06
0.000115786
1.31002e-18
3.89204e-06
0.000377428
0.000113384
1.28062e-06
7.03324e-06
1.5082e-08
7.54429e-06
3.23004e-18
3.35636e-06
6.12722e-17
8.28472e-07
2.36e-18
5.01015e-05
3.94154e-18
3.74786e-18
4.59205e-09
4.0063e-05
3.59172e-18
5.3071e-17
1.08262e-05
4.78175e-06
5.17572e-13
3.00177e-05
6.91295e-08
8.6804e-06
3.74177e-07
4.91145e-05
1.38043e-05
7.2123e-08
6.34676e-05
4.49011e-18
6.14904e-18
2.07667e-06
2.85431e-11
1.41777e-06
1.50949e-16
2.19294e-05
3.90545e-18
2.22972e-05
5.59045e-06
8.57597e-19
1.41055e-18
9.05681e-06
4.7061e-06
8.20424e-11
6.7674e-06
5.75687e-06
4.34928e-06
3.71093e-06
1.55989e-17
3.96183e-08
8.10664e-20
5.26141e-18
1.51058e-05
2.99917e-18
5.91324e-18
2.74201e-17
1.1097e-18
1.09615e-18
2.0294e-06
3.41722e-09
3.12203e-18
1.95623e-06
3.54734e-18
4.72654e-08
1.63961e-06
3.8418e-05
4.66461e-17
2.99043e-17
5.98879e-18
5.84082e-05
9.58667e-19
5.05193e-05
2.99656e-05
3.29884e-06
2.75443e-07
2.40283e-06
2.67737e-05
3.29977e-06
4.74159e-06
1.54206e-05
4.64088e-18
5.93562e-17
7.61761e-18
3.33115e-05
1.92397e-06
2.00757e-18
2.51964e-10
5.81866e-06
5.40554e-10
1.28026e-05
1.96745e-05
1.26935e-05
8.38587e-11
3.71893e-18
7.04124e-18
6.27623e-05
2.81132e-05
2.36114e-09
4.07655e-10
6.86258e-06
4.18175e-06
6.63485e-18
5.80662e-09
5.6346e-08
3.1963e-18
2.15813e-17
1.61109e-07
1.0486e-19
6.88121e-06
2.54987e-06
1.06765e-18
1.30928e-18
9.58803e-18
8.69395e-18
1.62679e-18
2.60166e-18
1.73693e-06
8.14599e-06
3.52546e-05
5.00033e-06
8.8587e-06
4.73259e-06
9.56932e-08
9.73381e-19
5.64321e-06
1.30104e-18
7.17546e-18
7.7014e-06
1.26137e-05
3.30136e-05
1.3285e-05
5.90102e-06
2.98712e-17
7.84885e-06
6.08613e-07
5.27563e-08
1.63251e-05
2.7884e-06
9.52324e-17
4.39113e-06
3.11779e-05
2.37762e-17
2.04024e-07
9.18061e-06
2.46552e-06
4.1731e-07
3.49285e-18
1.10982e-17
9.7109e-06
1.11139e-14
0.000144948
6.61254e-18
7.85623e-06
2.41882e-05
0.000144529
1.11317e-17
3.70214e-06
1.63452e-05
2.88722e-16
2.19388e-19
6.11435e-19
0.000183826
3.44307e-10
4.01538e-18
6.8383e-18
1.15158e-05
9.33236e-06
1.81146e-05
1.21124e-17
1.9933e-17
1.5605e-08
6.08116e-17
2.99683e-06
1.09045e-05
1.89894e-05
1.38828e-05
1.17859e-05
2.06396e-18
3.14428e-10
7.36337e-07
2.27197e-17
6.40571e-19
3.65423e-05
2.48717e-05
4.71202e-18
7.48062e-06
1.26467e-05
9.15183e-19
2.49155e-17
1.65757e-07
1.3299e-18
1.22668e-17
5.13674e-08
9.39724e-19
1.80358e-05
1.31274e-05
4.46237e-06
1.19298e-16
1.39369e-05
1.01302e-18
1.27662e-17
2.13061e-17
2.55516e-11
2.74879e-05
7.34613e-06
6.27117e-06
4.39433e-05
1.45096e-05
1.93682e-06
6.74092e-07
3.94008e-05
1.07645e-05
6.13869e-19
4.60688e-17
3.14403e-10
2.68227e-05
2.90043e-05
1.45278e-05
1.8571e-18
8.31583e-06
2.52349e-06
3.57535e-06
4.28159e-09
4.32526e-09
1.6044e-05
2.66622e-06
2.34004e-06
1.548e-17
8.09813e-07
3.22742e-18
1.53997e-10
2.3631e-16
0.000294214
8.14389e-05
1.46044e-05
6.85974e-19
7.94811e-19
1.06704e-05
1.99419e-06
5.57697e-17
7.02095e-18
8.6138e-18
3.75742e-07
7.05807e-05
4.61563e-06
1.67056e-05
2.2859e-05
2.07032e-18
6.7485e-18
4.46885e-17
4.54818e-06
1.4917e-15
1.20628e-06
0.000222537
4.00097e-10
5.31282e-19
1.32709e-17
8.29442e-18
2.42886e-17
7.11932e-05
1.44113e-05
8.95076e-18
6.18629e-06
3.39096e-18
6.94366e-18
8.24385e-05
6.90972e-06
1.3347e-05
1.10591e-05
6.13423e-17
4.13866e-18
1.20096e-17
1.11327e-05
2.23538e-05
6.07113e-06
2.76153e-18
4.07741e-13
1.97438e-07
2.50576e-06
9.49042e-06
4.47219e-08
3.40034e-05
3.76165e-19
4.47953e-05
4.17086e-06
9.27989e-06
2.96164e-05
1.63893e-05
8.60489e-19
6.48874e-17
1.73121e-17
1.68264e-17
3.77249e-05
1.14311e-05
4.04669e-05
8.06142e-05
9.13646e-19
2.26424e-05
3.33995e-18
3.49848e-17
1.96927e-05
1.64425e-17
8.56302e-05
9.67894e-17
1.26554e-18
2.78208e-05
1.03454e-19
1.64263e-05
3.46355e-07
6.14708e-19
1.22922e-06
1.94319e-05
3.42751e-18
1.05396e-05
1.13341e-05
9.63672e-06
7.52549e-07
3.27698e-06
6.85459e-06
2.75569e-17
1.59556e-16
2.1393e-06
1.61201e-18
7.2023e-06
0.000140826
7.66194e-18
1.4962e-19
3.22024e-05
1.37926e-07
9.76353e-06
2.59206e-05
2.2313e-19
5.32259e-05
2.31064e-05
2.57834e-19
9.71136e-07
2.98555e-06
1.07787e-17
3.80778e-18
1.33674e-05
6.27226e-06
7.08621e-17
1.40106e-20
3.66506e-11
6.85344e-17
1.4243e-05
9.58754e-19
5.89387e-18
2.05345e-05
2.11431e-09
1.47744e-05
3.52452e-05
2.35939e-20
5.81584e-17
1.70094e-06
5.96215e-19
1.73063e-07
1.64093e-05
0.000146945
0.00102614
1.31575e-18
3.27917e-06
5.63532e-07
4.56498e-17
4.62162e-05
3.82303e-05
6.73065e-17
9.11231e-12
1.12256e-07
3.06592e-18
2.92873e-05
2.94283e-05
1.71918e-05
6.11752e-19
7.99338e-07
2.21032e-05
2.75593e-05
9.87115e-10
1.13373e-17
7.24541e-13
1.85494e-17
1.62177e-08
3.74786e-05
2.59264e-18
1.03132e-05
1.09858e-07
4.54423e-17
2.2115e-17
6.11783e-17
1.50208e-17
4.80451e-06
1.15414e-05
7.92003e-06
2.5639e-06
3.35094e-06
1.47303e-18
2.40957e-06
5.45646e-17
4.79538e-05
6.5345e-19
7.09262e-18
6.28527e-18
4.29948e-05
7.44961e-19
1.31285e-17
2.28232e-10
3.1547e-17
3.95347e-17
1.2342e-06
4.0831e-18
3.0732e-17
2.26457e-18
1.84284e-18
5.44579e-18
1.39083e-17
1.2535e-18
8.63211e-06
4.01011e-18
6.10742e-07
2.24904e-06
1.17866e-06
1.05806e-18
9.79992e-07
5.81098e-18
8.70286e-18
3.38967e-06
2.19849e-06
3.31305e-05
2.96278e-05
1.20474e-17
2.44688e-06
9.6789e-05
1.02299e-05
1.23734e-06
3.97764e-06
8.33264e-17
2.79169e-05
9.43705e-19
5.86146e-06
1.45412e-19
9.0343e-05
5.42033e-19
2.57542e-05
2.89271e-07
3.97908e-10
3.10693e-18
2.44275e-06
2.54474e-18
9.55843e-05
5.80861e-05
2.22677e-17
1.95539e-17
2.05679e-17
1.75623e-18
1.70405e-12
6.53452e-05
2.94354e-18
2.5381e-18
3.02585e-06
3.25008e-19
3.99539e-05
6.05238e-18
3.82524e-07
2.92604e-17
5.98879e-07
1.25181e-09
1.22946e-06
1.56114e-05
1.4863e-17
4.82256e-07
1.61233e-18
2.98415e-19
1.83049e-05
5.39767e-19
3.7521e-08
1.12975e-17
1.89989e-06
2.92597e-17
7.79154e-05
4.99112e-19
3.36214e-17
2.06763e-05
4.07869e-06
2.06983e-06
4.77203e-06
8.07663e-06
2.49123e-05
1.36055e-17
2.92947e-05
7.52854e-06
1.09974e-18
9.59009e-11
4.70877e-05
1.77011e-05
3.48387e-18
5.02692e-06
7.78708e-06
1.99278e-06
1.31215e-06
2.43246e-13
1.63048e-05
1.41054e-06
1.65224e-07
2.90328e-05
1.64518e-05
7.93066e-07
1.01015e-17
3.96694e-12
0.000775685
1.83047e-17
4.32603e-07
6.50538e-18
4.71388e-17
8.81499e-06
3.50888e-06
2.49189e-10
1.72837e-08
9.33927e-18
2.00401e-05
1.32809e-05
2.07267e-19
1.39949e-13
2.41791e-06
1.68371e-18
8.11609e-18
4.15847e-19
7.71757e-18
1.61188e-05
2.87087e-18
7.87456e-17
1.06871e-05
2.39793e-06
9.92125e-17
1.25783e-05
1.07075e-18
1.0173e-05
1.14612e-17
3.2014e-17
6.41699e-05
3.70844e-18
1.36284e-18
1.22557e-18
5.34598e-06
9.25628e-18
3.54156e-05
7.50465e-06
2.08743e-18
0.000102787
2.97684e-06
3.38318e-05
3.32359e-05
6.26386e-07
9.61543e-08
1.09016e-17
6.54358e-05
5.4905e-05
2.6054e-17
3.82903e-07
4.76969e-05
9.10144e-06
1.74078e-06
3.2785e-05
3.10332e-05
1.27544e-16
1.28113e-05
6.24389e-09
7.37366e-18
4.10015e-05
3.15467e-07
3.99684e-17
1.30821e-05
4.80802e-05
1.65198e-06
2.51399e-05
2.31317e-05
8.48819e-06
4.36222e-18
1.20941e-05
3.93368e-07
1.26119e-14
2.01384e-05
2.08952e-05
4.29535e-05
1.3641e-18
2.28243e-06
6.50583e-17
3.72046e-18
3.77292e-18
7.85764e-18
1.72829e-08
5.27376e-18
3.08531e-13
9.47443e-18
8.3151e-19
8.84747e-08
5.1501e-05
2.98209e-17
3.8895e-05
9.73589e-17
5.69958e-17
6.31462e-18
4.67465e-05
4.9824e-07
5.34002e-17
1.18687e-16
6.45349e-18
4.60138e-19
0.000255007
8.28014e-05
8.06745e-18
2.32546e-06
2.72323e-09
3.86944e-18
4.4366e-05
9.71672e-06
1.46897e-05
6.43172e-19
7.54489e-18
5.06311e-07
1.29186e-06
2.10567e-17
2.54822e-18
1.43172e-18
8.68367e-06
7.1748e-18
4.24735e-18
4.41335e-18
4.95458e-05
2.35975e-06
5.28629e-19
0.00470164
0.000362737
1.22614e-05
7.01752e-18
2.36792e-18
6.62217e-05
4.78508e-07
2.00738e-18
7.71885e-09
0.000145516
3.01503e-06
1.36171e-05
9.757e-19
6.43638e-05
2.18527e-06
1.55919e-18
8.1497e-18
6.99804e-18
3.41929e-18
8.17341e-18
2.6327e-19
2.59376e-05
2.32267e-17
1.29835e-17
3.27991e-18
1.39237e-05
2.78931e-05
2.95925e-18
3.02233e-18
0.000127023
1.70147e-05
1.13465e-05
2.33217e-18
1.09564e-18
4.41018e-05
8.92478e-18
2.1548e-06
3.08483e-06
4.54747e-06
8.35762e-18
7.61427e-18
2.69213e-18
1.00583e-18
1.80594e-05
6.09788e-19
1.05988e-17
1.17744e-06
1.83591e-17
2.71709e-05
2.16232e-06
7.50382e-18
4.42304e-05
0.000467927
3.001e-06
3.48786e-05
1.77344e-07
5.36588e-05
1.41569e-13
9.67372e-18
2.78895e-05
8.39561e-05
7.30551e-06
1.74032e-17
8.21034e-13
0.000866843
1.20331e-05
2.39648e-18
3.05607e-06
3.16346e-06
1.4569e-06
4.76105e-17
2.27515e-17
7.97726e-17
1.57139e-05
3.53401e-17
3.04292e-06
1.7729e-18
1.53209e-06
1.65104e-06
4.34825e-05
6.66563e-07
5.96591e-18
1.47535e-18
4.10033e-18
2.45828e-05
1.53308e-18
3.59233e-17
7.69782e-08
2.3429e-17
2.22126e-18
9.68411e-19
4.92135e-19
1.17671e-05
3.56999e-17
7.78168e-19
5.41966e-13
2.48185e-18
2.06865e-17
2.36335e-16
2.81158e-19
3.47605e-09
1.91607e-06
9.82049e-19
4.66136e-06
8.50061e-09
3.56872e-10
7.42428e-08
4.9252e-06
6.41389e-18
1.11948e-08
1.16561e-05
4.69402e-07
1.12872e-17
2.93693e-12
9.90347e-07
1.486e-18
1.14831e-05
2.26396e-07
2.03805e-09
2.84066e-05
1.10518e-05
2.68706e-06
6.10745e-06
2.40673e-06
2.05683e-18
4.69934e-18
3.88493e-05
3.10009e-05
1.53405e-17
9.87449e-06
6.44857e-05
3.39545e-05
2.82008e-17
1.56152e-06
4.54802e-18
1.23752e-05
1.65814e-05
3.26642e-18
1.86276e-06
5.55857e-07
1.45751e-09
5.80663e-06
1.89581e-18
5.82629e-05
1.81157e-08
1.85004e-06
3.95035e-08
1.45216e-08
1.776e-18
5.33344e-18
8.56654e-06
6.89725e-19
1.38294e-07
3.10782e-07
3.07895e-07
6.02893e-11
8.18503e-11
5.3498e-10
1.05606e-18
9.00418e-18
2.75592e-05
1.02931e-16
1.94955e-07
2.47186e-06
2.82428e-17
1.51794e-18
6.87299e-10
1.07733e-12
1.34514e-19
5.66732e-09
3.63281e-18
1.28487e-18
3.42416e-17
5.01773e-17
2.85388e-17
2.25432e-16
3.40075e-07
1.8417e-18
1.49016e-17
3.75004e-17
7.36573e-09
6.42248e-08
2.16636e-06
1.11278e-05
1.58091e-19
1.91261e-18
2.08527e-07
3.23663e-18
2.97101e-19
1.64102e-16
2.22995e-05
5.05194e-05
2.74874e-18
7.55836e-19
4.90338e-19
4.70234e-19
5.34303e-19
9.29655e-19
8.51131e-06
1.64308e-18
5.94857e-11
3.19796e-05
1.70761e-18
6.66608e-17
9.73162e-18
3.0939e-08
1.48762e-17
3.74251e-18
1.23769e-18
1.05192e-08
2.4705e-17
5.3385e-06
1.15584e-09
6.33463e-12
1.75815e-18
8.30732e-08
2.48213e-06
5.28757e-05
3.81261e-17
9.27844e-09
6.86802e-06
2.13742e-18
1.18314e-18
1.40034e-16
5.09193e-18
9.93503e-06
2.04302e-06
4.01607e-06
2.04467e-10
1.59653e-20
2.65469e-05
3.22224e-18
3.61571e-17
4.47074e-17
1.59967e-18
3.13121e-05
2.92552e-18
1.04364e-17
2.16238e-09
6.09842e-05
1.09657e-17
2.94121e-06
2.86392e-18
1.03826e-06
3.77488e-17
1.01585e-18
4.43235e-18
1.92243e-17
2.96496e-06
7.33625e-07
0.000369846
6.32727e-19
1.32076e-18
2.46154e-06
5.60807e-19
2.38391e-17
4.80945e-17
4.46645e-05
1.0567e-08
3.79117e-05
8.03259e-18
1.18794e-08
5.53474e-08
2.14234e-17
1.39139e-07
1.21812e-17
1.50875e-06
3.06304e-05
2.42958e-05
1.49535e-06
2.91872e-07
8.08516e-18
2.15236e-18
3.04362e-18
2.4753e-08
9.22529e-19
8.57691e-06
6.46685e-17
0.000211079
8.06694e-21
4.93979e-05
3.7741e-06
6.02872e-17
9.78672e-19
1.04088e-16
4.02403e-18
4.77904e-05
2.59429e-17
9.34843e-17
1.43359e-05
7.99251e-06
2.62266e-17
6.05887e-17
6.45823e-17
3.29038e-17
8.43459e-20
1.69576e-19
3.00535e-05
5.08185e-07
9.53963e-18
5.79044e-19
5.76404e-10
4.31584e-17
1.88294e-06
1.31122e-07
2.57427e-18
4.04559e-06
4.62607e-18
4.40856e-07
6.857e-19
1.27134e-06
1.38807e-18
9.49008e-11
2.5161e-09
7.82062e-07
2.10581e-05
3.96467e-05
1.39519e-09
1.16777e-18
5.78965e-07
3.43597e-20
5.40539e-06
1.72738e-18
3.32109e-18
7.83545e-17
7.05249e-18
3.04653e-18
2.05811e-17
8.35542e-06
9.37881e-06
7.30872e-18
1.19377e-16
1.29391e-18
8.74185e-07
1.64679e-08
4.11296e-18
2.17956e-05
2.22497e-07
7.60405e-18
2.78095e-05
9.81669e-06
4.21286e-06
1.41069e-05
4.69679e-18
5.32661e-18
7.07519e-18
1.47649e-18
4.39587e-05
4.25763e-19
0.000134743
3.1352e-18
3.58036e-07
8.70106e-07
2.41432e-18
1.0915e-06
3.53047e-19
1.67033e-18
3.53179e-06
2.71796e-11
1.06846e-05
7.81406e-19
9.22018e-18
1.55392e-18
9.63654e-07
3.73993e-18
6.15116e-17
1.90701e-18
3.64545e-10
9.84625e-18
8.78032e-09
5.87539e-17
5.77031e-18
5.10523e-18
2.17075e-05
1.18084e-05
2.18272e-05
4.28898e-05
1.36771e-16
1.78605e-08
1.46926e-18
2.87903e-18
1.19145e-05
9.06538e-20
2.69988e-09
4.08731e-07
7.85745e-06
4.11414e-07
1.29999e-12
2.3464e-06
2.77057e-18
1.30357e-12
5.67793e-13
1.43613e-07
9.8522e-07
1.75169e-05
7.39994e-11
1.88672e-16
3.64975e-05
2.09946e-18
3.79306e-18
1.82059e-08
8.95165e-05
7.21997e-11
2.89608e-18
2.05291e-18
3.83432e-10
5.02703e-18
7.26179e-18
1.99114e-08
1.51333e-17
3.46849e-18
4.81373e-05
2.52364e-07
1.97863e-07
2.70941e-05
8.68161e-06
1.37926e-18
1.30702e-19
1.79878e-08
4.88337e-06
1.51344e-18
2.21763e-17
1.17772e-05
3.1183e-18
1.65615e-17
3.34746e-18
1.65781e-17
2.65007e-16
0.00308623
7.16024e-19
2.52635e-07
3.24044e-18
2.44073e-05
3.20932e-20
1.82504e-15
1.07223e-18
6.1508e-18
2.37579e-17
7.59227e-18
3.48067e-06
4.83124e-18
3.99133e-18
2.96858e-17
9.17922e-19
2.1257e-17
4.64985e-18
1.16858e-05
3.07677e-19
1.32582e-05
3.55089e-06
5.18766e-18
1.93509e-06
9.7299e-19
5.73813e-07
2.31139e-09
4.63293e-06
1.60433e-05
2.64125e-18
1.08686e-07
9.52054e-06
1.00136e-08
9.53781e-18
2.79936e-09
2.20918e-05
5.64308e-06
3.277e-18
3.11944e-05
9.25189e-19
1.16314e-17
1.50118e-17
7.07272e-19
9.76341e-06
7.32739e-18
1.95399e-18
9.81357e-06
3.08133e-10
3.20188e-06
2.65759e-18
1.20835e-16
7.92919e-07
4.27262e-18
8.97219e-08
6.91665e-18
2.75492e-05
8.95765e-19
2.02009e-19
6.66278e-08
2.6824e-18
1.59225e-07
9.0638e-17
3.64095e-18
5.85271e-06
5.02527e-07
5.73634e-06
1.87593e-05
0.000263888
2.42246e-05
6.51157e-19
1.20356e-17
3.42665e-06
8.04293e-06
4.34082e-05
1.32483e-05
8.19998e-19
1.43886e-05
8.4475e-19
3.38844e-18
1.05958e-05
1.29161e-05
4.1704e-18
1.55944e-05
1.20492e-17
3.28459e-06
1.0406e-05
7.81371e-18
2.4784e-19
1.3649e-18
3.2634e-06
2.04216e-18
7.65573e-18
4.87065e-06
2.51171e-05
4.37488e-09
8.95687e-06
4.28413e-18
2.73671e-18
9.49631e-08
8.94006e-07
2.672e-18
1.21824e-05
2.71668e-17
3.10206e-06
1.17563e-17
2.27479e-18
1.44718e-05
1.08325e-18
4.70309e-08
4.19155e-06
3.19012e-18
7.70729e-19
5.10838e-06
6.10255e-14
6.27468e-05
2.84188e-17
0.000311683
2.81399e-18
9.33204e-17
2.01082e-17
8.72846e-06
2.0378e-17
1.0217e-17
6.54374e-06
1.33465e-17
2.8125e-07
1.86839e-17
4.06205e-18
1.32378e-18
1.32971e-10
9.09092e-07
1.48566e-18
2.50205e-19
4.19891e-05
1.10347e-06
2.60284e-18
5.28428e-07
5.54534e-19
4.37518e-18
1.88725e-09
3.22047e-06
1.52538e-06
2.39404e-18
2.66091e-19
1.12504e-18
5.27125e-19
1.86601e-17
9.85508e-18
2.5722e-18
1.13212e-18
2.4357e-18
2.61439e-19
2.56734e-19
1.26096e-18
2.55392e-17
9.30124e-19
1.60146e-19
2.18074e-17
1.35454e-18
8.44547e-19
4.73047e-18
2.14385e-19
3.39045e-17
2.09888e-05
4.93024e-19
3.93464e-18
3.36677e-18
7.74818e-06
1.86035e-17
1.16271e-18
0.000328236
3.85775e-19
8.72495e-18
2.73432e-05
1.10053e-15
8.04939e-19
8.51112e-06
2.88907e-05
1.52137e-18
2.97256e-06
4.51512e-06
5.68384e-18
1.54757e-05
4.66962e-05
2.09586e-05
3.91148e-06
1.26388e-05
1.65695e-18
3.39056e-18
3.47055e-06
1.247e-05
3.71245e-06
5.76556e-18
7.60434e-06
2.04036e-06
2.49167e-05
1.22934e-05
7.99451e-07
1.81967e-05
1.26727e-06
1.17667e-05
3.88899e-17
2.98848e-05
9.9024e-06
1.98749e-06
1.56028e-06
1.49557e-18
7.39402e-18
1.05509e-17
2.05694e-18
5.75113e-18
1.09214e-05
1.59918e-05
1.08269e-18
2.44272e-19
1.91236e-17
4.66781e-18
4.3906e-18
1.06212e-18
5.77607e-18
2.19502e-18
5.35709e-06
1.96647e-07
2.54755e-05
7.73911e-08
1.22999e-19
2.02123e-17
3.69805e-05
7.45493e-09
3.06673e-20
6.78751e-18
8.55558e-06
4.90607e-17
3.4023e-18
4.42644e-09
9.21808e-06
1.5922e-05
3.9156e-05
3.94088e-05
4.03533e-18
1.66796e-05
3.82979e-07
3.90222e-17
5.70375e-19
1.36816e-05
1.25406e-18
7.72342e-20
2.0951e-05
0.00123413
2.01904e-07
5.16671e-17
5.36002e-17
2.04588e-05
2.43327e-05
2.05249e-05
6.69063e-06
4.5063e-06
2.64617e-17
1.20848e-09
3.06886e-12
2.65321e-16
9.2521e-18
2.03598e-05
4.70111e-19
2.34822e-06
2.98625e-05
2.03784e-05
1.36823e-05
6.93837e-18
7.00315e-06
1.02394e-17
1.11944e-17
4.76161e-18
5.77555e-19
2.90626e-06
0.00101754
4.15356e-18
4.78693e-18
4.60253e-09
2.72807e-05
1.2237e-06
8.05201e-06
3.85487e-05
5.562e-06
2.3602e-05
9.85896e-18
2.08173e-17
1.21189e-17
3.5577e-05
6.61397e-06
2.98243e-11
2.53325e-18
1.53488e-17
1.21542e-16
2.57551e-05
3.25769e-06
7.5844e-19
5.64943e-06
6.67799e-05
7.9637e-06
7.09986e-06
5.19931e-18
1.21487e-17
8.03518e-06
2.6509e-05
1.2889e-18
3.80619e-07
1.68308e-05
1.15485e-06
1.07411e-05
5.37196e-06
9.35529e-06
4.09332e-17
3.92959e-06
2.39283e-05
4.27042e-05
5.5706e-13
2.65927e-05
2.86149e-16
1.91015e-05
1.79001e-07
1.76821e-17
2.97094e-06
8.58552e-06
4.25654e-07
1.31867e-05
6.96585e-10
1.59309e-07
1.79443e-08
4.48846e-05
4.15717e-06
3.82548e-17
4.4898e-05
1.45864e-06
8.04233e-19
5.11107e-19
4.69122e-11
1.08239e-08
1.18475e-06
0.00127607
4.03685e-05
1.32203e-05
2.48255e-10
5.06252e-05
6.17794e-18
9.81193e-17
4.61982e-06
9.29777e-18
2.45547e-06
5.11577e-06
2.4543e-06
5.35103e-06
1.83088e-18
2.39991e-07
0.000124853
4.93294e-20
2.62263e-05
8.52515e-06
5.79774e-17
4.55079e-06
1.80196e-07
7.25506e-18
8.11381e-12
1.07368e-07
3.7721e-18
3.71129e-18
8.52373e-18
5.01611e-06
5.31057e-06
1.63164e-05
6.9559e-17
5.79171e-06
3.77412e-05
2.05405e-18
9.11299e-06
1.40894e-05
2.80776e-05
1.73422e-06
3.01624e-18
6.82508e-07
1.08348e-05
1.18739e-05
1.01857e-05
4.32228e-05
0.000187554
3.86456e-06
1.80172e-17
8.19228e-09
5.83991e-05
3.33115e-19
4.8154e-07
2.19676e-18
8.49742e-19
1.27984e-17
6.13404e-18
1.82896e-18
3.66785e-06
1.2883e-17
8.07015e-06
1.37302e-06
4.15264e-18
4.4741e-06
8.25794e-18
1.62205e-05
3.82723e-19
2.25617e-08
3.04495e-18
2.50002e-05
1.7401e-07
2.60972e-09
4.6941e-06
3.28818e-05
1.92784e-05
4.41362e-06
3.05792e-05
5.26072e-15
2.53842e-05
6.18137e-05
1.05558e-05
1.17891e-16
1.29881e-06
3.09958e-07
6.30555e-06
1.20467e-05
6.97275e-07
2.39634e-17
5.56268e-18
1.33417e-18
4.17356e-06
3.90897e-18
2.50248e-07
2.51348e-07
1.54788e-06
3.19657e-07
1.85575e-18
1.13528e-16
3.49552e-18
9.75774e-06
2.451e-05
1.42865e-06
1.03419e-08
2.15269e-06
7.74154e-06
2.25405e-06
9.37032e-07
7.82608e-06
6.7358e-06
2.94467e-06
7.77506e-18
1.93847e-19
5.78117e-17
1.51978e-05
1.22513e-05
1.11622e-17
1.11591e-18
3.37505e-17
9.36753e-06
2.15251e-05
1.76885e-17
2.42015e-06
1.90063e-17
6.90648e-10
5.45753e-06
9.97324e-05
2.90843e-18
9.31886e-19
4.19725e-06
1.0362e-18
7.02143e-08
1.33612e-05
1.24279e-17
1.21512e-05
3.71343e-05
2.07377e-05
9.64766e-19
1.43326e-06
3.75565e-18
9.40021e-08
5.54058e-05
8.7345e-18
1.86874e-17
1.24027e-05
3.59726e-16
1.01513e-16
4.79359e-08
1.12515e-06
1.61975e-17
1.76348e-18
1.37268e-17
6.70248e-08
1.40351e-06
3.57306e-06
2.84914e-05
1.05076e-05
5.34547e-17
7.85619e-10
7.22855e-07
1.77245e-17
2.25073e-18
2.29508e-18
7.49687e-18
5.61509e-18
6.68908e-18
1.70187e-17
1.68682e-18
2.27578e-17
6.63084e-19
3.6725e-12
5.74452e-17
3.95765e-07
3.20306e-17
2.4156e-07
6.63212e-17
6.49079e-08
1.52833e-16
1.99725e-17
3.13666e-05
1.02813e-05
5.55806e-18
0.000101257
7.26171e-12
3.18077e-13
4.07422e-18
1.45698e-06
7.61939e-15
3.01924e-06
6.98998e-09
9.9435e-07
3.98627e-18
1.65808e-17
9.89602e-07
3.07382e-11
2.7476e-18
8.40175e-17
4.39043e-05
1.25261e-17
4.17732e-05
1.12668e-17
2.98287e-19
1.88265e-09
3.16281e-05
9.17258e-06
1.18557e-17
3.6684e-07
1.0727e-17
3.18114e-06
1.98187e-08
2.05809e-06
1.02504e-06
1.57623e-17
2.2938e-05
1.2986e-06
5.80664e-06
4.87945e-18
2.87645e-18
9.25577e-20
1.89223e-05
4.47055e-06
5.78845e-05
8.6374e-18
4.85302e-10
1.7646e-18
2.54904e-19
5.93632e-19
6.45021e-18
3.57623e-06
2.38577e-06
3.26551e-06
0.00035623
1.66193e-16
3.11874e-05
4.01021e-05
1.96604e-05
1.86782e-06
1.35517e-17
6.03461e-06
4.95237e-06
5.55217e-06
4.22029e-10
1.14229e-05
2.71276e-18
1.766e-06
1.36933e-06
3.67552e-05
1.26072e-09
3.6554e-06
2.05994e-18
2.0909e-05
1.95933e-18
1.50529e-17
1.85235e-06
9.05981e-18
7.11043e-06
7.9049e-19
1.89118e-18
2.63512e-17
3.02503e-19
1.26586e-16
8.77524e-07
1.13093e-18
6.34668e-07
3.35672e-18
2.77142e-18
2.04703e-05
6.17929e-06
8.80707e-06
8.57476e-06
8.01116e-18
0.000661628
1.24831e-17
7.86689e-05
4.45002e-18
2.02611e-05
2.61537e-05
2.61547e-06
6.40366e-05
4.63868e-17
1.28494e-17
5.91466e-18
2.44089e-06
6.69723e-18
2.38979e-18
1.99067e-05
5.62783e-18
2.62328e-18
5.9041e-06
4.51478e-18
1.43903e-05
7.67468e-11
2.14828e-17
5.88319e-18
2.02658e-17
1.81884e-06
7.54819e-06
1.14285e-18
2.56675e-05
3.73023e-07
6.2167e-18
0.00011635
6.13778e-17
1.78001e-05
2.02871e-05
3.8963e-06
4.31427e-18
2.0105e-05
1.08399e-05
9.36296e-07
5.88884e-06
1.40981e-05
3.7952e-17
5.46253e-17
1.99004e-09
1.54862e-19
2.65983e-19
1.16064e-17
2.20713e-05
5.00807e-05
4.97621e-06
2.38227e-06
2.2328e-17
5.57747e-05
5.17262e-05
4.79013e-06
2.80396e-06
1.04025e-05
2.36792e-05
2.96222e-06
1.78627e-18
5.9457e-19
3.24532e-19
7.65512e-06
7.62049e-18
2.81052e-05
1.78356e-17
8.44942e-07
5.88786e-10
2.90001e-06
2.51552e-05
1.53262e-18
3.73681e-17
2.76331e-06
4.07047e-07
6.01096e-17
4.40864e-18
5.39419e-17
3.73329e-08
3.47479e-07
1.60177e-07
9.15542e-07
1.1256e-05
9.86555e-05
3.39409e-18
3.67446e-16
1.07525e-16
4.27616e-06
2.05949e-05
2.26833e-05
3.93856e-05
2.06768e-06
3.23702e-06
2.22668e-17
2.88222e-17
9.99166e-17
1.15706e-18
1.07568e-05
2.53303e-05
1.15006e-17
9.88642e-19
5.10329e-19
1.15121e-16
3.80366e-17
3.60932e-17
1.53456e-05
3.8886e-17
1.14166e-06
0.000451254
3.44977e-18
1.63938e-08
2.58582e-05
8.14834e-07
2.63276e-17
1.80818e-17
5.48161e-06
1.55859e-17
1.59773e-05
1.20887e-09
2.7508e-05
7.54814e-17
1.38115e-15
9.45474e-19
4.99185e-19
5.6581e-19
1.95564e-17
0.000221217
2.98177e-18
6.58018e-06
1.37096e-06
9.94145e-17
4.96773e-17
2.18355e-06
8.4878e-18
1.08212e-18
1.5108e-05
1.306e-07
1.46469e-18
4.66917e-18
6.2695e-18
1.89828e-05
5.49535e-18
2.94971e-17
4.50642e-07
2.92041e-06
3.43098e-06
1.72211e-17
1.92328e-18
5.1006e-18
4.24897e-06
2.06107e-06
1.45737e-05
4.14672e-06
2.29896e-18
8.98566e-07
1.38139e-05
7.31642e-06
7.04538e-18
1.2206e-17
1.85703e-17
4.71835e-17
6.7975e-18
3.53343e-05
6.06375e-06
6.13968e-06
9.94306e-18
2.14657e-17
9.58482e-19
4.94181e-18
1.22141e-18
1.067e-09
2.81004e-07
2.59301e-06
2.55151e-18
3.09785e-18
1.01489e-16
2.85197e-12
3.90433e-05
0.000128982
1.50117e-18
8.39676e-13
1.88193e-14
2.26642e-18
5.27693e-18
4.36297e-06
7.6264e-06
2.04358e-18
4.41307e-18
3.28149e-06
1.7758e-17
7.98862e-07
1.27136e-06
0.0024217
8.03308e-20
8.45317e-18
1.39997e-05
5.88144e-07
1.12502e-17
0.000764401
6.68639e-07
7.43215e-06
2.38154e-17
6.14055e-18
2.03683e-16
2.9048e-17
9.03941e-06
1.08949e-07
6.47881e-18
2.86486e-05
2.16398e-05
0.00100104
1.59488e-18
7.67979e-19
6.67272e-18
1.73415e-18
7.34714e-06
7.12781e-11
1.62316e-17
1.40365e-17
2.13632e-05
1.08385e-06
5.68562e-06
2.67158e-18
1.12834e-17
3.28444e-05
3.22627e-17
2.60202e-17
1.66091e-18
6.24458e-18
2.52466e-05
3.01412e-18
2.53742e-18
2.11042e-18
2.89431e-05
1.41207e-05
1.2237e-18
4.04633e-18
1.30302e-18
1.75192e-05
1.94211e-10
3.12207e-19
1.03087e-18
5.2175e-18
1.14573e-17
2.71347e-06
1.23094e-05
1.23715e-17
2.35294e-06
1.23256e-06
5.33753e-06
8.99707e-16
2.27752e-16
2.37876e-17
1.40423e-16
1.50737e-19
2.29544e-05
1.27891e-16
1.69048e-05
3.73627e-18
1.70821e-06
1.8698e-17
2.63659e-06
6.79557e-17
4.77024e-18
1.23731e-05
0.000198047
1.75924e-17
3.96942e-06
1.36899e-18
4.30211e-07
2.312e-17
1.00538e-18
6.58304e-18
2.13151e-10
4.31749e-18
3.6598e-07
1.38961e-19
4.03267e-05
2.32539e-18
2.6625e-18
1.6847e-17
8.21562e-19
8.91497e-09
1.50935e-07
2.9853e-19
6.14673e-06
9.20581e-18
3.28214e-06
2.16053e-05
1.3942e-06
1.28567e-18
5.10722e-09
4.82822e-07
2.34551e-09
5.0368e-06
3.79058e-10
1.83652e-06
4.65318e-17
2.34221e-18
4.79118e-10
6.36394e-06
2.62515e-07
2.96786e-18
1.06271e-17
3.82403e-18
0.000641807
5.09061e-17
3.65262e-18
5.15502e-17
4.88525e-18
2.7873e-17
4.03477e-08
1.95741e-07
1.13951e-06
7.4078e-08
8.33246e-16
1.61027e-06
3.97964e-18
6.49933e-06
1.46391e-16
3.06827e-17
1.09669e-18
1.9954e-17
2.22788e-08
1.28666e-17
2.64585e-18
6.30427e-18
1.66304e-05
2.17848e-16
7.84095e-18
1.24835e-05
1.79301e-17
7.69637e-05
0.000135563
0.000623329
6.72784e-17
0.000230695
0.00134922
0.00142185
0.000753032
4.12042e-18
8.78089e-19
5.51107e-06
5.34283e-06
2.49133e-18
9.42598e-06
5.63472e-18
3.63782e-05
3.88954e-18
2.91853e-19
7.68148e-07
1.07108e-18
9.6434e-19
1.12572e-08
4.37941e-08
1.88325e-17
5.39253e-19
2.82097e-09
2.30153e-17
3.8755e-18
2.30774e-08
9.29665e-06
1.64456e-06
2.50254e-17
8.5548e-06
8.09809e-17
3.95116e-06
4.42635e-10
8.03154e-06
3.85321e-18
1.58508e-11
6.2182e-06
1.92164e-17
1.599e-12
1.10606e-18
3.64411e-05
1.12492e-17
1.10532e-05
2.31116e-18
2.02297e-10
4.0682e-19
4.74641e-18
4.80647e-18
8.02764e-13
4.95868e-13
4.30834e-17
1.372e-05
9.9289e-06
4.28389e-17
1.3834e-16
3.70526e-05
1.97918e-05
0.000206568
1.12534e-16
7.39887e-08
2.80237e-05
5.18335e-05
6.83038e-11
3.80331e-17
6.43413e-05
3.42677e-19
0.000254765
2.82627e-18
3.81416e-11
3.80041e-11
2.53454e-18
5.68888e-08
1.93814e-18
2.38589e-05
5.71615e-19
2.6875e-18
2.83267e-18
7.81514e-17
5.59378e-18
2.18049e-17
3.40864e-07
2.07398e-06
0.000151924
1.73153e-18
3.63582e-17
4.59756e-05
5.05612e-19
3.88053e-19
5.25529e-18
1.79433e-16
7.45551e-18
6.42418e-06
1.03592e-17
1.7911e-17
2.81491e-19
3.58878e-06
2.6097e-18
1.40145e-18
1.17725e-18
3.5168e-06
1.49794e-18
6.65792e-06
0.000256272
5.64356e-06
5.85249e-06
2.91568e-05
1.4543e-18
1.42983e-18
1.00626e-17
3.3247e-06
1.97301e-06
4.32875e-19
6.65797e-17
6.38304e-07
2.61443e-17
5.47698e-17
0.00037146
2.24446e-18
2.4556e-05
2.16126e-18
2.58433e-06
3.76815e-06
2.09691e-18
8.3097e-19
3.44871e-18
2.90981e-18
2.31648e-18
2.10614e-05
4.0305e-18
5.00898e-06
1.70137e-18
1.75919e-17
7.37728e-06
4.38864e-18
1.43757e-05
1.15079e-17
1.10323e-17
2.64798e-06
8.65183e-08
0.000155165
3.72421e-17
2.16205e-18
4.47031e-17
4.07007e-06
0.000198878
3.8181e-18
1.31253e-18
9.20334e-18
1.64519e-06
1.24335e-19
2.2115e-05
3.40835e-05
4.8349e-18
1.55953e-18
7.76613e-06
2.17646e-18
1.57612e-17
1.61842e-18
1.02907e-16
6.57115e-18
7.4988e-05
2.30899e-17
2.23822e-18
9.06262e-18
6.38694e-18
4.13569e-18
1.62001e-17
9.85386e-19
1.05371e-18
4.6155e-17
8.62902e-06
2.83694e-18
8.95859e-06
1.55803e-16
9.30032e-19
0.000642579
2.89104e-06
1.60688e-18
2.41323e-17
3.83585e-18
2.56159e-06
1.14108e-17
2.62911e-18
2.1741e-18
8.23346e-19
7.70395e-06
3.32561e-19
5.23511e-06
9.34214e-18
1.07985e-05
2.92822e-18
6.31417e-05
4.76869e-18
4.78581e-18
2.29261e-05
3.25241e-19
4.40773e-19
2.98274e-05
3.0845e-07
1.84813e-17
5.554e-18
4.10684e-05
1.13545e-05
6.87671e-06
8.81849e-07
1.92276e-06
1.88586e-05
1.03783e-06
5.52205e-06
8.83901e-18
3.09482e-05
9.38641e-18
8.48653e-18
1.21073e-18
2.24228e-17
1.4653e-16
1.10023e-05
2.63466e-16
5.3377e-19
3.60873e-17
2.69395e-09
1.0703e-08
1.48656e-17
2.61176e-06
5.09347e-17
4.64838e-06
7.48606e-19
1.27877e-09
3.99609e-06
3.05246e-16
4.94403e-05
4.19671e-18
2.72446e-17
4.48703e-19
3.15632e-06
1.46254e-06
4.59031e-18
6.30742e-19
2.67817e-06
3.86591e-17
0.000726276
8.22212e-18
0.000111496
1.59721e-17
6.93536e-19
2.70285e-17
1.70944e-18
1.07382e-05
1.5681e-19
4.46647e-08
1.12226e-18
1.07509e-05
2.03322e-17
5.54933e-19
7.46132e-15
1.03675e-16
1.2482e-17
1.00068e-17
1.88305e-17
1.19649e-17
4.7655e-06
0.000215317
5.48609e-18
4.14017e-17
4.12252e-07
7.94114e-19
2.71114e-18
1.35059e-09
1.89708e-05
1.6596e-07
1.2917e-18
7.26848e-07
3.73514e-06
5.60914e-06
9.29444e-06
8.52064e-18
1.73494e-17
8.25176e-17
1.47839e-17
3.03297e-18
2.36875e-18
1.02981e-17
1.16306e-17
1.44373e-18
6.91671e-18
3.91992e-17
4.47432e-19
8.30052e-05
1.49668e-18
1.29207e-18
4.76343e-13
6.47044e-18
4.39535e-18
0.00122187
1.51142e-18
6.07415e-19
2.09666e-06
1.73022e-12
3.59995e-18
5.40592e-17
4.63012e-19
2.49506e-05
1.66197e-18
4.32084e-17
5.44971e-11
4.78036e-21
1.53609e-18
6.04686e-18
6.38151e-18
0.000125884
5.71314e-19
1.95113e-07
1.71355e-18
2.69421e-17
2.20179e-18
4.91179e-18
2.23099e-19
2.33593e-11
4.49698e-11
1.29074e-07
1.10892e-17
3.48104e-18
9.86972e-17
1.13615e-10
3.10763e-19
3.29135e-10
1.39331e-11
1.68675e-18
2.3587e-17
1.04655e-17
6.06447e-12
1.07072e-18
2.36682e-18
2.42042e-12
3.84202e-18
3.51458e-05
9.0457e-18
7.6197e-06
1.25405e-17
2.56044e-09
8.22853e-19
1.66609e-06
2.17319e-18
4.7648e-06
2.78578e-05
8.01977e-19
2.8903e-06
1.4904e-08
1.54357e-17
1.16573e-05
2.55343e-19
1.03972e-19
6.94297e-18
2.2933e-19
1.02101e-17
1.28006e-18
1.97866e-18
1.46455e-17
0.000314866
1.45139e-17
1.14155e-17
2.6677e-18
2.50811e-19
6.61068e-19
3.5623e-05
0.000925521
3.38614e-09
1.34013e-08
7.99109e-19
2.26462e-06
1.54475e-06
2.78245e-18
5.81962e-19
3.71366e-18
5.27767e-18
4.60983e-18
2.94091e-18
1.70644e-18
1.23618e-17
4.55645e-07
1.93344e-18
5.56205e-17
2.26889e-07
3.64039e-09
2.34696e-18
2.98741e-05
2.674e-17
6.5012e-18
4.19814e-17
0.000198006
5.0695e-16
1.1039e-19
2.86806e-05
1.458e-18
3.0078e-17
1.03136e-17
1.43114e-16
6.1844e-05
3.04583e-18
7.24269e-18
5.05614e-18