/*--------------------------------*- C++ -*----------------------------------*\
  =========                 |
  \\      /  F ield         | OpenFOAM: The Open Source CFD Toolbox
   \\    /   O peration     | Website:  https://openfoam.org
    \\  /    A nd           | Version:  10
     \\/     M anipulation  |
\*---------------------------------------------------------------------------*/
FoamFile
{
    format      ascii;
    class       surfaceScalarField;
    location    "4.7";
    object      phi;
}
// * * * * * * * * * * * * * * * * * * * * * * * * * * * * * * * * * * * * * //

dimensions      [0 3 -1 0 0 0 0];

internalField   nonuniform List<scalar> 
214403
(
-0.00648596
0.00497353
0.000274773
0.00123766
-0.00317977
-0.0107002
0.000908098
0.0129719
-0.00977837
6.44014e-05
-0.000133129
0.00984709
0.00853709
-0.00573891
-0.01431
0.0115119
0.0117219
-0.0148193
0.00352724
-0.000429906
-0.00510044
0.00531466
-5.29081e-05
-0.000161312
-0.000819407
-0.00154727
-0.00879472
0.0111614
-0.0162039
0.00922451
-0.00243529
0.00941471
-0.0222446
0.0157107
0.0158482
-0.00931432
0.0135331
0.00160728
-0.0151292
-1.11465e-05
0.00480882
-0.00952356
0.00196015
0.0027546
-0.00986353
0.0031002
0.00511299
0.00165035
0.00045454
-0.0109302
0.0131666
-0.00269089
-0.00948624
0.00953886
-5.26237e-05
0.0018314
0.0113841
-0.0145949
0.00137947
-0.0114835
0.00959852
0.00290743
-0.00102243
-0.0115753
0.0112879
0.000287387
0.00376116
-3.91207e-05
-0.000902424
-0.00281961
0.0149548
-0.00894855
-0.0198848
0.0138786
-7.28041e-05
-0.00298942
8.78892e-05
0.00297434
0.00616482
-0.00601976
-0.000145065
-0.011718
-0.00405393
0.00403063
0.0117413
-0.00217914
0.0130108
-0.0104908
-0.000340899
0.00641301
0.000672099
0.00223542
-0.00932053
-0.00977619
-0.00470303
0.0126569
0.00182235
0.00885748
-0.0112167
6.49766e-05
0.00229421
0.00308026
-0.00269032
0.0100827
-0.0104726
0.00730947
0.00955994
-0.0115147
-0.00535469
0.0106589
-0.00668369
-0.000303616
-0.00367155
-0.00564606
0.00575596
-0.000109902
0.00232499
-0.00484539
0.0129368
-0.0104164
0.0134633
0.000638521
-0.00234453
-0.0117573
-0.00541529
-0.00555806
0.00569174
0.00528162
-0.00113824
-0.00641966
0.00568681
0.0018711
0.00419542
-0.00284416
-0.00894834
0.00759708
-0.00162442
0.00810396
-0.00292772
-0.00355182
0.0153156
-0.000380826
-0.0149348
-0.00656769
0.0128182
-0.00625048
0.00118823
-0.0140748
0.00815067
0.0047359
0.00234358
-0.000942377
0.00573489
-0.0071361
0.00541775
-5.64255e-05
-0.00536133
0.00977734
-0.000212064
0.00173235
-0.0112976
-0.0123976
0.00155751
0.0131836
0.000827429
0.000844564
0.00823965
-0.00991165
-0.00393859
-0.0257008
0.0249317
0.00470771
0.00549949
0.00099311
0.00124324
-0.00773584
0.00404708
0.00306204
-0.00988794
0.00277882
0.0127421
0.00763378
-0.0139629
0.00115616
0.0108194
-0.00219824
0.0017546
-0.0065649
-0.00386763
0.00867794
0.00298838
0.00458951
0.00136646
-0.00894435
0.00176182
-0.00132397
-0.00406704
0.00362919
0.00661467
-0.0119726
0.00834634
0.0113675
-0.0107039
-0.00367027
0.00300669
0.0102411
-0.00187184
-0.00819932
0.0111158
-0.000470103
-0.00244641
0.0084423
-0.0107978
0.000125723
0.00222983
-0.00787057
0.000520969
0.0125768
-0.00522716
-0.0146477
-0.0137886
0.011569
0.0168674
-0.0078212
0.00787134
0.00154659
-0.00159673
0.00123438
-0.00999796
-0.0082547
-0.000171911
0.00429114
0.00413547
-0.012822
0.00550512
0.00829411
-0.000977268
0.0150382
-0.0121138
0.000772833
-0.00369718
0.000688917
0.000253413
-0.00983892
0.00889659
0.000502
-0.00273861
0.0135329
-0.0112963
-0.0334126
0.00351686
0.00374545
0.0261503
-0.00306525
0.00902928
-0.00285802
-0.00310601
0.0044497
-0.00233817
-0.0095045
0.00739297
0.00107055
0.00667352
-0.00847854
0.000734482
-0.000161213
0.00813016
0.00282444
-0.0107934
-0.00161335
-0.000258319
-0.00337199
0.00524365
-0.00867309
0.00947588
-0.000357402
-0.000445391
0.000302956
-0.00867521
-0.00612754
0.00542765
0.00164721
-0.000947325
-0.0161365
-0.00101985
0.00787041
0.00928595
-0.00486164
-0.00207231
0.00413609
0.00279786
0.00718615
-0.0240979
0.00333896
0.0135727
-0.00373451
0.00751508
-0.00410487
0.000324308
0.00535087
-0.00415639
0.000527903
-0.00172238
0.000124873
-0.0101357
0.0100108
3.47842e-05
0.0082208
-0.00825558
0.00721186
-0.00140974
0.000954821
-0.00675694
-0.00437706
0.00624504
0.00207002
-0.003938
-0.00306683
0.0130758
-0.00314537
-0.00686359
0.00618705
-0.010549
-0.000398078
0.00476007
0.00704383
0.0074248
-0.0144686
0.0104038
-0.0116921
0.00299542
-0.00170709
0.00101358
-0.00187715
0.0135829
-0.0127194
0.000393487
-0.00218473
0.00977099
-0.00797974
0.00232948
0.0204537
0.00588975
-0.0286729
-0.0178851
0.015732
0.0102032
-0.00805002
0.000819975
0.00632632
-0.00849813
0.00135184
0.00838536
0.00930838
-0.00304426
-0.0146495
0.0155067
-0.00942328
-0.000305137
-0.00577834
0.000683092
-0.00200162
-0.00628615
0.00760468
-0.00636124
3.61484e-05
0.00632509
0.00942768
0.000325376
0.000650721
0.0117359
0.000985616
-0.01786
0.00513849
-0.00941063
0.00207397
0.00167328
0.00566338
-0.00600275
0.00148842
0.000737896
0.00377644
0.00145842
0.00104459
-0.0123851
0.00988213
-0.00252581
-0.0146995
0.00937171
0.00785359
0.00592337
-0.00700894
-0.00456593
0.0056515
0.00957076
-9.84277e-05
-0.0095669
9.45678e-05
0.00728751
-0.0103015
-0.0035658
0.00657975
0.0188728
-0.00571316
-0.00294032
-0.0102193
0.0107447
-1.97484e-05
-0.00987629
-0.000848628
-0.00544429
0.00640855
0.0133495
-0.0143138
0.0116446
-0.00408748
-0.0112014
0.00364423
0.00215156
-0.00314931
0.0136662
-0.0126685
-0.0153498
0.0139885
0.0132632
-0.0119019
0.000694104
-0.0119891
0.00462385
0.00667115
0.0150145
-0.000789901
-0.000309483
-0.0139151
0.0106365
-0.00207047
0.00205911
-0.0106251
-0.012336
-0.0112251
0.013284
0.0102771
-0.00234036
0.00671449
0.00182039
-0.00619452
-0.00520228
0.000283618
0.0100829
-0.00516427
-0.00116535
0.0131493
-0.0122365
0.000252614
-0.0114299
0.010614
0.00206632
-0.0012505
-0.000384057
-0.00666637
0.0159079
0.00208741
-0.00694218
-0.00508372
0.0099385
-0.00550506
7.13806e-05
0.00543368
0.00168815
0.00767652
-0.00710113
-0.00226354
0.0123233
-0.00710568
-0.00189142
-0.0033262
9.81609e-05
-0.00368377
0.00358561
-0.00691224
-0.00186583
0.00260137
0.0061767
0.000721911
0.00396923
-0.00890148
0.00421034
0.0151957
-0.00137245
0.00593812
-0.0197613
0.0010805
-0.00135478
-0.0182525
0.0185268
0.00117847
-0.00523611
-0.00691276
0.0109704
0.000441898
0.00951662
-0.000530841
3.80735e-05
-0.00563859
0.00560052
0.0115361
-0.00428406
-0.00516465
-0.00699109
0.00583492
-0.00575606
0.0127748
-0.0106314
-0.00129205
-0.000851391
0.00127388
-0.00602309
0.00263321
0.00211599
-0.0104142
-0.00315819
0.00212007
0.0114523
0.00868029
-0.0141012
0.00929332
-0.00387243
-0.000386672
0.0127484
-0.0127644
0.00040265
-3.80414e-05
0.0116817
-0.0115749
-6.87522e-05
-0.0162035
0.0129335
-0.0103826
0.0136526
0.0135162
-0.0130828
-0.000433421
-0.0124297
0.0166409
-0.00303555
-0.00117569
-0.0110916
0.00266793
-0.000837397
0.00926107
-0.018238
0.0013971
0.0117249
0.00511603
0.00322449
-0.00440396
0.00245336
-0.00450986
0.00512667
0.00824802
-0.00886483
-0.00482829
-0.00216678
0.00276299
0.00423207
-0.0065813
0.00430258
-0.00830353
0.0105822
0.00197667
0.000162321
-0.0145687
-0.00653407
0.00651927
1.47966e-05
0.00709702
-0.00682391
-0.000273114
-0.0107227
-0.000701403
-0.00284548
0.00263333
-0.0140971
0.0164059
-0.0049421
0.00634124
0.0109074
-0.0138738
-0.0033748
0.0121141
-0.0131572
0.000354566
0.000688496
0.00648563
0.00168103
-0.00669949
-0.00146717
-0.0102081
-0.000565608
0.0134071
0.00592021
-0.000427822
-0.00721705
0.00172466
0.00667049
-0.00571227
0.00658015
-0.00753838
-0.0115326
0.00216823
0.0157056
-0.00390332
-0.00546129
0.0180535
-0.00868889
-0.00555522
-0.0061318
0.00147887
0.00165017
0.00440782
-0.0116132
-0.00788213
-0.000693485
0.0126673
-0.00409163
0.00122736
0.00194247
0.00703007
-0.0101999
-0.00372566
0.00911904
-0.00539338
0.00295184
-0.0142368
0.00515312
0.00848317
0.00592369
-0.0127567
-0.0119292
0.000144643
0.0148639
-0.0030793
0.0020458
0.00175325
0.00547631
-0.00927537
0.00814203
-0.00820474
6.271e-05
0.00301975
-0.00114053
0.0101372
-0.0120164
0.0106658
-0.00337535
0.00512078
-0.0124113
0.0196974
-0.00634561
0.0147022
-0.0280539
0.00319262
0.00594278
-0.0024709
-0.00666449
-0.00895686
0.00368479
0.00469306
0.000579019
0.006415
-0.00483328
-0.000132904
-0.00144882
-0.00410721
-0.00519912
0.01515
-0.00584371
-0.00718839
0.00933569
0.00371898
-0.00586628
0.0108293
-0.000591929
-0.00356686
-0.0166856
0.0110298
-0.00092547
-0.0159114
0.0146824
0.00681995
-0.00559104
0.0101527
-0.0114407
-0.00165121
0.00293921
0.00571348
-0.010342
-0.00540705
-0.00591594
-0.00542708
0.00306687
0.00827615
-0.00843399
0.00261886
0.00833252
-0.00251739
0.00978306
-0.00930856
-0.00641842
0.00594393
6.00066e-05
-8.51363e-05
-0.00921754
0.00924267
0.000223286
-0.0080541
-0.000304456
0.00813527
-0.00233183
-0.0138134
0.00217144
-0.00798955
0.0071856
-0.00136749
-0.00539669
-0.00227176
-0.000765544
-0.000174054
0.0135195
0.000187586
-0.0323417
0.0227485
0.0164447
-0.00685146
-0.00957627
0.000652484
0.000342436
0.00858135
-0.00189095
0.0302729
-0.0356518
0.00726976
0.00152251
0.00234832
-0.00526956
0.00139873
-0.0204922
0.0110403
0.0014303
0.00802158
-0.000240035
-0.0135899
-0.00193847
0.0157685
-0.00558936
0.0204631
-0.0141735
-0.000700234
0.00918751
0.0133593
-0.012349
-0.0101978
-0.0109594
0.0104431
0.0129615
-0.0124451
0.00428339
0.00598511
-0.00745518
-0.00281331
0.00422921
-0.00284969
-0.0067762
-0.021777
-0.000862652
0.0177773
0.00486234
0.0064383
0.000990826
-0.00374434
0.00657305
0.00880126
-0.00812597
-0.00724834
-0.0108807
0.00242936
0.0106092
-0.0021579
0.00128888
0.0034262
0.0119258
-0.0126242
0.0124601
0.00121086
-0.00104678
0.00785887
0.00616988
-0.00555753
-0.00021931
-0.00156428
0.00734112
-0.00834165
-0.00166367
0.00464342
-0.016021
0.00681564
0.00456198
0.00048753
0.00867729
-0.00962581
0.000460993
-0.00331858
0.000642349
-0.00308867
0.0057649
0.0134251
-0.00959783
0.000401979
-0.007612
-0.00595413
0.00801126
0.00555487
0.0287327
-0.0307468
0.0100507
-0.00803661
-0.00556325
0.00691242
0.00278442
-0.00413359
-0.0127151
0.0055121
0.0110785
-0.00387549
-0.00546862
0.00793945
0.0102128
-0.0126837
0.0152885
-0.0058951
-0.0101145
0.000721083
0.000264741
-0.00370523
0.0090114
-0.00557091
-0.00156622
0.00155136
-0.0119143
0.0110165
0.0035727
-0.0117939
-0.00279527
0.0138423
-0.0113588
-0.0030491
0.00288447
0.00426005
-0.0101008
0.00295628
-0.00573642
-0.0104822
0.00932373
0.0068949
-0.00173729
-0.00450953
-0.00136517
0.00564029
-0.00603042
0.012983
-0.0125929
0.00136808
-0.0157292
0.0143611
0.00531583
-0.00696763
0.00453627
0.00293214
0.00169548
0.00240527
-0.00703289
-0.000298815
-0.0131338
0.0134326
-0.00722055
0.000959328
-0.00234337
0.0086046
-0.000863299
0.00998369
-0.0090925
-2.78975e-05
-0.0067539
-0.00357727
0.0039014
0.00642977
-0.00251587
-0.00597533
-0.00554308
-0.00814807
0.00679559
0.00689556
0.000300726
-0.00835968
0.014317
-0.00588614
-0.000762476
-0.00766843
0.00769197
-0.000739987
-0.00560998
-0.001342
-0.00123967
0.010739
-0.0133859
0.00388656
0.00690252
0.000265864
0.00336016
-0.0105285
-0.000253102
-0.00567409
0.00274182
0.00318537
-0.00395953
0.00514705
0.00994141
-0.0111289
-0.0139817
-0.00360182
-0.00389235
0.01281
-0.0120759
0.000293837
0.00377358
0.00800845
0.00115952
-0.00425038
-0.00754871
0.0106396
-0.00553722
-0.0108084
0.00272804
0.0136176
-0.00498927
-0.00552992
0.0057563
0.00476289
-0.0129632
0.0124772
0.0131763
-0.0126904
-0.00176962
-0.00308994
-0.00932237
0.0141819
-0.012764
0.00127507
0.0129902
-0.00150128
-0.00222483
0.00593123
-0.00370641
-0.00516764
0.00955194
-0.00719045
0.00280615
-0.000212001
0.017001
-0.0063328
-0.0104562
-0.00609742
-0.00294714
0.0122231
-0.00317852
0.00196023
-0.00514562
0.0116671
-0.0084817
0.000539833
0.00765402
-0.00134089
-4.15059e-05
-0.0124183
0.0124141
4.57565e-05
0.0143199
-0.0025371
-0.0209295
0.00914672
-0.0132266
-0.00129293
0.0165097
-0.00199016
-0.00717656
0.0108431
0.00088975
-0.00455632
0.00639198
-0.00631861
-7.33625e-05
-0.00758039
0.000733015
-0.00653974
0.0133871
-0.0109396
0.0150771
-0.00314005
-0.000997413
0.0068176
-0.00285752
-0.00822123
0.00426115
-0.0131696
0.0132814
-0.000111837
0.0108618
-0.0157882
0.00127288
0.00365351
-0.0122853
-0.00336367
0.0210111
-0.00536212
0.0090843
-0.000382516
-0.00190687
-0.00679491
-0.00516921
-0.00877501
0.0195845
-0.000925491
-0.0129225
0.00781757
0.020254
-0.0225879
-0.00215155
0.0044855
0.0055007
0.00262251
-0.00607741
-0.00578955
0.00603541
-0.000245864
-0.00232283
0.0129922
-0.00082743
-0.00984191
-0.00283472
0.00336279
0.011304
-0.0118321
0.0073925
0.0173808
-0.0101534
-0.01462
0.0127853
-0.0153388
0.0048768
-0.00232334
0.011511
0.000158345
-0.0116693
0.000212678
0.0112051
-0.0114178
0.0126439
-0.0152992
0.0135171
0.000134055
-0.000113521
0.0098986
-0.00991913
0.000253899
0.0179546
-0.0178929
-0.000315569
-0.00153098
-0.00452432
-0.00916388
0.0152192
-0.00561186
-0.00335876
0.00112491
0.0106259
-0.0184796
0.00672882
-0.00890004
-0.00233393
0.00954246
0.0016915
-0.0106129
0.0117195
-0.0031322
0.00202556
0.00165611
0.00862903
-0.00293609
-0.00734905
-0.00415087
0.00101569
0.00707696
-0.00394178
-1.25841e-05
0.00324102
-0.00408202
0.00085358
-0.00450447
0.0110217
-0.0063557
-0.000161514
0.00328874
-0.0103907
-0.00606769
7.44408e-05
-0.00968891
0.00961447
-0.00363061
-0.00348367
0.00161521
0.00549907
0.00538531
-0.00310682
-0.00227849
0.0135348
-0.0134406
-0.00274476
0.00265054
-0.00123574
-0.00804501
0.00742464
0.00185611
-3.44251e-05
4.64787e-05
0.00732914
-0.0073412
0.00365683
-0.00300578
-0.0116343
0.0109832
0.00844058
-0.000217702
-0.00822288
-0.0122774
-0.0079503
0.0118451
0.00838252
0.0071739
0.0112282
-0.0193276
0.00681746
-0.00245296
0.00384049
-0.00820499
-0.00273184
0.00272853
-0.0151029
0.0151062
0.0042473
-0.00836619
-0.00813527
0.0122542
-0.000857861
-0.0019144
0.00901486
-0.00624261
0.00628184
-0.00771988
0.00279738
-0.00135934
0.00348829
-0.00578279
-0.00558988
0.00788438
-0.0111502
0.0125473
-0.00333067
0.00193355
0.0127632
0.0163927
-0.0180623
-0.0110935
-0.00984279
0.00980006
4.27359e-05
-0.00110119
0.0116104
-0.0145007
0.00399148
0.000448936
-0.000731645
-0.0111934
0.0114761
0.0108994
0.000457104
-0.0125403
0.00118379
-0.00472057
-0.00797824
0.0100332
0.00266557
-0.0114033
0.0161573
-0.00572172
0.000967714
-0.00463431
-0.00567848
0.00337062
-0.000690646
-0.000119221
-0.00801967
0.00882953
-0.0262025
0.000101743
0.00234013
0.0237606
0.00103173
-0.006628
-0.00343071
0.00902698
0.0163669
-0.00134669
-0.00529876
-0.00972145
-0.00288764
-0.00627198
0.00120225
0.00795737
0.00464288
-1.61335e-05
-0.00462674
0.00770321
0.00410163
-0.00255656
-0.00924828
0.0059592
-0.00471683
0.0117444
-0.0129867
0.000381858
0.0122265
-0.00403962
-0.00856872
0.00296347
0.00423706
0.00916637
-0.00581932
0.000420088
0.00539923
-0.00757774
0.0010776
0.00200707
0.00126874
-0.0104637
0.00718794
-0.00995154
0.014564
0.00440621
0.0150403
-0.00318459
-0.0162619
-0.00957848
0.00939877
-0.014876
0.0150557
-0.00142659
-0.00715679
0.00250328
0.0060801
-0.00791941
0.0149632
0.00446107
-0.00519292
0.0011638
-0.000431954
-0.00491128
-0.0156502
0.0048993
0.0156622
0.0102747
-0.0102526
-9.72559e-05
7.51305e-05
0.00830577
-0.00971345
0.00206879
-0.00066112
0.00213265
0.00834437
-0.0148712
0.00439414
3.61759e-05
0.00713274
-0.00716892
0.00464837
-0.0119131
0.00939737
-0.00449961
0.0120837
0.010181
-0.0177651
0.00342663
-0.00349846
-0.0162547
0.0163265
-0.00490085
0.00812131
-0.0162956
0.0130751
-0.0116644
0.00928606
0.0121731
-0.00979483
-0.0072712
0.00996155
-0.00643693
0.00374658
-0.00155414
0.00677021
0.00110282
-0.00631889
0.00338542
-0.004937
0.00509109
-0.00353952
0.00647488
0.00240942
0.00212979
-0.0110141
0.0182659
-0.012399
-0.000750585
-0.00511634
-4.989e-06
-0.00886111
0.0088661
0.0055559
-0.0081262
-0.0249147
0.027485
-0.00111754
-0.0120675
-0.00365592
0.016841
-0.000729441
-0.00552365
0.00625309
0.00169323
0.00802109
-0.00127267
-0.00844165
-0.00222797
-0.00804438
0.00649164
0.00378071
0.00630754
-0.00528379
-0.00927844
0.0159425
-0.0124116
0.00354392
0.00375426
-0.00729818
0.0120802
-0.000204259
-0.00143837
-0.0104376
-0.00233268
-0.00396799
0.00630066
0.00428213
0.00284549
0.0240816
-0.0289674
-0.0102201
0.015106
0.0036793
0.00783436
-0.00599301
-0.00552065
-0.00841641
0.0161425
0.0107078
-0.0184338
0.00952591
0.00330709
-0.00127269
-0.0115603
0.0156351
-0.0104268
0.00672715
-0.0119355
-0.00884047
0.00404247
-0.0110904
0.0158884
-0.0143504
0.0257062
-0.0100706
-0.00128518
-0.000385916
-0.00609964
-0.00840948
0.014895
0.011636
0.00481267
-0.0136582
-0.00279046
0.00625808
-0.0166763
0.0105197
-0.000101475
-0.0146896
-0.000558243
0.00960813
0.00563971
-0.00295166
0.00763074
0.00331947
-0.00799855
-0.00186439
0.00747629
0.00602356
-0.0116355
-0.0153488
0.00789374
-0.000736215
0.00819131
0.00138795
-0.00414337
0.008239
-0.00548358
0.00654435
-0.0032919
0.00233577
-0.00558822
0.00629807
0.00121125
0.000620124
-0.00812944
-0.00924036
0.00991264
0.0036748
-0.00434708
-0.00220097
0.0117802
0.00023386
-0.00981313
0.00950822
-0.00558106
-0.00368543
-0.000241734
0.00817048
5.96896e-05
-0.00823017
0.00597304
0.00462383
-0.00104977
-0.0095471
0.00280886
0.00740047
0.00631941
-0.0165287
-9.08908e-06
-0.0133137
0.0133228
-0.00693804
0.026851
-0.00392431
-0.0159886
-0.00012238
0.0100148
-0.00989237
-0.000665581
-0.00717929
0.00128941
0.00655546
-0.013086
0.00667044
0.00506372
0.0013518
0.00267226
0.00221706
-0.015282
0.0103927
0.00776191
0.0122634
-0.00458263
-0.0154426
0.0117698
-0.00403257
-0.0112659
0.00352869
-0.0147057
0.0083914
0.0224418
-0.0161275
-3.82744e-05
0.00567235
-0.00567258
3.85031e-05
-0.00586744
0.00580691
6.05225e-05
-0.0149403
0.000225472
0.00629844
0.00167354
0.00360892
0.00988678
-0.0151692
0.00775594
-0.00922542
0.00595103
-0.00448155
-0.00752311
0.00658851
-0.000248957
0.00118356
-0.00155539
-0.01236
0.0157976
-0.00188218
-0.00554095
0.00266778
0.00877206
-0.00589888
0.00954268
-0.00367894
0.0014054
-0.00726913
-0.00629655
-0.00109729
0.00737063
2.32199e-05
-0.00109586
-5.91503e-05
0.0104138
-0.00925883
0.00131074
-0.00110713
0.0103469
-0.0105505
-0.00931971
0.0130288
-0.0136551
0.00994605
5.84511e-05
-0.0117283
0.0116699
-0.0041811
0.000364765
0.0105467
-0.00673039
-0.00797408
0.00932311
-0.012716
0.011367
-0.00818511
0.000621162
0.00248023
-0.00380912
0.0103195
0.000576559
-0.00708689
-0.0027412
0.000379992
-0.00462988
-0.0040615
-0.0131965
0.0132556
0.00400238
-0.00587924
-0.000685812
-0.00148041
0.00804547
-0.0201319
0.00680221
0.00198723
0.0113425
-0.00632927
0.0146034
-0.00728192
-0.00099221
0.00442056
0.00173971
-0.00890147
0.00875648
0.00891893
-0.0176754
0.00120037
0.0192202
-0.00444477
-0.0159758
-0.000246459
-0.000343837
-0.00854904
0.00913933
-0.00923966
0.0152146
-0.00613514
0.000160159
0.00875959
-0.00553018
-0.00793974
0.00471033
0.00220395
-0.000295626
0.00269778
0.0134931
0.00374727
-0.0194826
0.0022423
-0.00937041
-0.00121406
0.00306895
0.00751552
0.00351005
-0.00390801
-0.00528052
0.0162205
-0.0109191
0.00849967
-0.0138011
-0.00179824
0.0104757
-0.0181159
0.00943835
0.00627958
-0.00794464
-0.000803812
0.00246887
-0.0069241
-0.00240986
-0.000233736
0.00956769
-0.00518494
-0.00489366
0.0100786
0.00130274
-0.0139338
0.0123543
0.000276801
0.00532668
-0.0051452
-0.00536643
-0.0086947
0.0110332
-0.00210478
-0.000233732
0.012414
0.00341422
-0.0133695
-0.00245874
-0.00481102
-0.00701873
-0.000806182
0.0126359
0.00797603
-0.00242669
0.0092485
-0.0147978
-0.00882836
-0.000491347
-0.010539
0.00564533
0.00135202
-0.0117641
0.00376418
0.00664785
0.00344213
-0.0123411
0.00679419
0.00210479
0.0018467
0.000483119
-0.00926436
0.00693454
0.00140277
0.00602194
-0.000411764
0.0104591
-0.00206581
-0.00798155
-0.00409756
-0.000428163
-0.00383452
0.00836024
-0.00242853
-0.00327128
0.00625475
-0.000554941
-0.00964272
-0.000133466
-0.0162762
0.00585054
0.00856126
0.0231708
-0.000196314
0.00316664
-0.0261411
-0.010166
0.0157849
0.00320802
-0.00882695
-0.00289288
0.00158122
0.00997299
-0.00866133
0.00120196
0.00341249
-0.00263972
-0.00197473
-0.0174347
-0.00361376
0.0150452
0.00600326
0.000384927
0.00741043
-0.00148783
0.000227498
0.00370823
-0.0116348
0.00769908
-0.00715637
-2.49833e-05
0.00263778
0.00454357
-0.00993812
0.0122825
-0.0019595
0.00560662
-0.00505519
-0.000551422
-0.00823083
0.00117905
-0.00639087
0.0134427
-0.00373789
0.00562538
-0.00433621
0.00244872
-0.00804868
0.00906377
-0.00374516
0.00273007
0.00359054
-0.000595801
-0.00846856
0.00547383
-0.00359961
0.022566
-0.0303697
-0.00323656
-0.00225885
0.0022119
0.00328351
0.010648
-0.0166259
-0.000751662
0.00672956
-0.00446993
0.00333496
0.00574955
-0.00461458
-0.00133377
0.00706664
-0.00194492
-0.00378794
-0.00794682
0.00176311
0.00185789
0.00432583
-0.00448577
0.000385181
0.00410059
0.010221
-0.00486734
-0.00518558
-0.000168118
0.000758962
0.00516667
-0.00784253
0.00191689
-0.00547173
-0.00663065
0.00676225
0.00534013
-0.00286446
0.00737651
-0.00631398
0.00180193
0.00264415
-0.00500359
0.00344804
-0.0010886
0.00964313
0.000260045
-0.00990317
0.00830116
-0.0102258
0.00506168
-0.00313703
-0.0130269
-0.000372772
0.0133997
0.00533459
-0.00442461
0.00103209
-0.00194207
-0.000421906
0.00924694
-0.0100954
0.00127035
-0.00460593
0.00576661
0.00148347
-0.00517569
0.0110879
0.0102451
-0.0087519
0.00867277
7.91322e-05
0.000234813
-0.0138331
0.0135983
0.0187018
0.00225133
-0.00397299
-0.0169801
0.00391507
-0.0152561
-0.00189102
0.0132321
0.00295324
0.00348527
0.001977
-0.0084155
-0.00524371
-0.00524815
6.98006e-05
0.0104221
-0.00250354
0.00343766
-0.00617783
-0.0115132
0.00208635
0.0151124
-0.00568555
-0.0226458
0.0165876
0.00730049
-0.00124228
0.0100014
7.94766e-05
-0.0100809
-0.00572696
-0.00770843
0.00498356
0.00845183
-0.00570881
-0.00827645
0.00247201
-0.00819789
0.00445182
0.00514885
0.0033399
-0.00434488
-0.00797711
0.00898209
-0.00559674
2.75627e-06
0.00559399
-0.0131174
0.00533301
0.0054171
0.00236733
0.00329367
-0.00882157
-0.00266999
0.0112553
-0.00357706
-0.00027875
-0.00739954
-0.00757019
0.0125418
0.00744066
-0.0124123
-0.00224475
-0.00470085
0.00175417
0.00519143
-0.00317583
-0.00255435
0.00573019
-0.00556972
-0.0117035
-0.00537255
0.00263304
3.41815e-05
0.00531351
-0.00798073
0.010717
-0.00780417
-0.011285
0.0083722
-0.0039782
0.00141873
0.00803377
-0.0054743
0.00750087
-0.00528049
-0.000743157
-0.00147723
-0.00860074
0.00139762
0.00671784
0.000485282
-0.00532421
0.0122258
-0.0132649
0.00517226
0.000382736
0.00770985
0.0125033
-0.00999964
-0.0078654
0.00536171
-0.00994709
0.00207505
0.018589
-0.0096115
-0.00634542
0.010347
0.00560988
-0.00112277
0.010016
-0.00380055
-0.00509273
0.000575016
-0.00596557
-0.00393145
0.00932201
0.011403
-0.00752315
-0.000462814
-0.00341706
0.00354091
0.00264632
-0.00869077
-0.00239794
0.00271424
0.00669272
-0.00700901
-0.00200182
0.010439
-0.0128654
0.00442819
-0.00630898
0.00152229
0.00152667
0.00326002
-0.0137469
0.013983
-0.000236099
0.00951557
-0.00938118
-0.000134392
0.00382779
-0.0147623
-0.00566973
0.0166043
0.0033674
0.0063895
0.00149845
-0.000160163
0.00557277
-0.0054126
0.00903989
0.00808712
-0.017127
-0.00992177
0.0060572
0.00428137
-0.000416798
-0.00557122
0.00183622
0.00452944
-0.000794431
-0.0167458
0.00781702
0.00918672
-0.000257987
-0.00539887
-0.00602169
0.00582382
0.00863871
-0.00136202
-0.0055578
-0.00171889
-0.00919378
0.00992885
-0.00605928
0.00163299
-0.0103737
-0.000529734
0.00927048
-1.31819e-05
-0.00512572
0.0051389
0.0250349
0.000184508
0.00267445
-0.0278939
-0.00094563
-0.00185482
-0.0136694
0.0164698
0.00432654
-0.00585874
-0.00272627
0.00425847
0.00169059
0.0129614
-0.00524357
-0.00940845
0.0141133
-0.0141192
-2.86903e-05
3.45981e-05
-0.00792555
-0.00715246
0.0111789
0.00389908
0.00462379
0.00353211
-0.00920946
0.00105356
6.52837e-05
0.00858033
-0.00876735
0.000121738
-0.0117969
0.00378182
0.00955869
-0.00154362
0.00902056
0.00545288
-0.00913204
-0.00534139
0.000214896
-0.00807516
0.00409361
-0.00210216
0.0121219
-0.00649612
-0.000844438
-0.00101119
0.00835174
-0.0109118
0.000563274
0.0103485
0.0159626
0.00689598
-0.00517095
-0.0176876
-0.0104245
0.000224529
0.0104149
-0.000948696
-0.00246896
-0.0063042
0.00972186
-0.00121508
-0.0012623
-0.0033706
0.00584798
0.00262713
-0.0133323
0.0100531
0.000651997
0.00830556
-0.00129406
-0.00808246
0.00107097
-0.0102022
0.00212186
0.000805248
0.00727507
-0.00389832
0.00256303
-0.00531131
0.0066466
0.00223862
0.00142124
-0.0131867
0.00952686
0.00046048
-0.00895269
-0.000621709
0.00911392
0.00886656
0.00116442
-0.000154727
-0.00987625
-0.0105869
0.00246556
0.00957979
-0.00760046
-0.0100836
0.017684
0.0146571
-0.00744576
0.00316372
-0.010375
0.00115338
0.00820718
-0.00503403
-0.0118775
0.00218012
0.00421411
0.0054833
0.014659
-0.0151153
0.000456221
-0.00892429
-0.00303035
0.00624769
0.00570696
-0.0115583
-0.00897271
0.00601917
0.0145118
0.011916
-0.0124444
-0.00152339
0.00205184
-0.00173132
0.00578951
-0.00456414
0.000505941
-0.0149996
0.0048961
0.00344245
0.00666106
-0.0220925
0.0274635
0.00459071
-0.00996166
0.00986176
-0.0213855
-0.00110665
0.0126304
-0.00876955
0.0111729
-0.0207072
0.0183039
-0.00917403
0.0201912
0.00201082
-0.013028
0.000809989
0.00961261
-0.00224742
-0.00817519
0.0146182
-0.0109657
-0.000368041
-0.0032845
-0.00255471
-0.0024523
0.00374979
0.00125723
-0.0068803
-0.0143399
0.0122513
0.00896892
-0.00980522
0.0130596
0.0113638
0.00802964
-0.00590388
-0.00735386
0.0052281
0.00293157
-0.00379343
-0.00167487
0.00253672
0.00648629
-0.00641783
-0.00854248
0.00847402
-0.00263001
0.0075458
-0.000545809
-0.00436998
-0.0104955
-0.00167892
0.0129844
-0.00788522
-0.0019387
0.00974816
7.57636e-05
0.00326531
-0.00729448
0.00402917
0.00258761
-0.00343416
0.0127889
-0.0119423
0.0100494
-0.0141384
0.00205191
0.00203711
0.00640213
-0.00690604
0.000503909
-0.010073
0.000267747
0.00896923
-0.00342112
-0.00865884
0.00311073
0.0028318
0.00229006
0.0100395
-0.0151613
0.0062601
-0.00679607
0.000535966
-7.70569e-05
0.00779305
-0.00880945
0.00109346
-0.0110635
-0.00106415
0.0147152
-0.00475146
-0.000811688
0.00109766
0.00446549
0.000656749
-0.00542445
0.00400178
0.000765919
0.00889605
-0.00851412
-0.00211324
0.00102853
0.0148192
-0.0093409
-0.00650679
-0.00507343
0.0107113
-0.00563786
-0.0137516
0.00526741
-0.00322488
0.011709
0.0108223
-0.00980307
-0.0160189
-0.00530825
-0.00634864
0.0218211
-0.0101642
-0.0154854
0.00986176
0.0140629
-0.00843932
-0.00034075
-0.013204
0.0135448
0.0209444
4.23121e-05
-0.0120733
-0.0089134
0.0121468
-0.00782348
-0.00107931
-0.00324399
-0.00885856
0.00628596
-0.00158104
0.00415364
0.000119469
-0.0091372
0.00901773
-0.00662173
0.00681576
-0.000194032
-0.00483153
-0.00511045
-0.0130861
0.0230281
-0.0123232
0.00268642
-0.00137587
0.0110126
0.00287822
0.00467047
0.0127082
-0.0114645
-0.00948183
0.00823816
-0.00351067
-0.0072412
0.00798345
0.00276842
-0.00729301
-0.00370859
0.0110124
-1.0844e-05
0.00240252
-0.00138036
-0.00678625
0.0057641
0.00804929
0.000359361
-0.0102907
0.00188201
0.00248334
-0.00172705
0.0026848
-0.00323917
0.00322696
-0.00267259
0.00658902
0.00644773
-0.00658698
-0.00644977
0.0032414
0.00757801
-0.00784108
-0.00297834
0.00683553
0.00296301
-0.00537798
0.00850623
-0.010312
0.00216509
-0.0113213
0.00791482
0.00426332
-0.00085681
0.013395
-0.00444042
-0.014028
-0.00359761
0.00959696
0.004823
0.00935223
-0.00455459
-0.00788825
-0.00215315
-0.00127993
-0.0125679
0.0117203
0.00112009
-0.000272425
-0.00078477
0.0157217
-0.00163012
-0.0133069
-0.0102617
0.00209009
0.00457396
-0.00163654
-0.0103336
0.00290442
0.00906569
0.00939537
0.00130637
-3.11159e-05
-0.0106706
-0.0140367
-0.000113399
9.219e-05
0.0140579
-0.00363159
0.00396467
-0.00646874
0.00613566
-0.00965706
0.0122164
-0.00126477
-0.00129459
0.0126926
-0.0118521
-0.0104975
-0.00937626
0.00845747
-0.00268029
0.00359908
0.00754181
-0.000339783
-0.00237253
-0.00482949
-0.0142194
0.0137075
0.00672782
-0.00621591
0.0067846
0.00258405
-0.000861559
-0.0085071
0.00241534
0.00612598
-0.00765822
-0.000883111
-0.00453227
0.00456029
-2.80168e-05
-0.00265414
-0.00677538
0.00679951
0.0103571
-0.0102688
-8.82838e-05
-0.00577443
-0.00460874
0.00452443
-0.000612186
-0.00694512
-0.00076285
0.00832015
-0.000793778
-0.00611319
0.00546404
0.00144292
0.00949826
-0.0107959
0.00129763
-0.0121922
0.0125135
0.0114527
-0.011774
-0.00821432
0.00634608
-0.00432117
0.00618941
-0.00330893
0.00141393
0.00299615
-0.00110114
-0.000345899
0.0148316
-0.000132815
-0.0143529
-0.00755357
0.00366173
0.00371994
0.00432108
0.00549914
-0.00959401
-0.000226208
0.000415047
-0.0119213
-0.00046637
-0.0107149
0.0107158
-9.16799e-07
-0.00723973
0.00364452
-0.00796306
0.00242909
-0.00537465
0.000219283
0.00473851
0.00205762
0.00705528
0.000137349
-0.00603326
-0.00115937
0.00590672
-0.0147432
0.0118192
-0.00298273
0.00245629
-0.00334904
0.0124594
-0.0115666
0.015258
0.00449356
-0.00234708
-0.0174045
-0.00387197
-0.00633845
-0.0020568
0.0122672
0.00462024
0.0192549
-0.017383
-0.00649217
0.00221822
0.0139654
-0.0134783
-0.00270536
-0.00477535
0.000630622
0.00978722
-0.00564249
-0.00168819
0.0137
-0.00739152
0.00992051
-0.00783373
-0.00305537
0.0009686
0.0032494
0.00848242
-0.0117318
0.00789859
0.0017536
-0.00105217
-0.00860002
-0.00726283
0.00580451
0.000583743
0.00087458
-0.000706754
-0.010338
0.000603878
0.0104409
-0.00758453
-0.000962428
-0.000313596
0.00886056
0.00434664
-0.00963635
9.57385e-05
0.00378851
0.00575209
8.16059e-05
0.00625324
-0.00633485
0.000777388
0.011049
-0.0282215
0.0163952
0.0031389
-0.00791174
0.00751692
-0.00274409
0.00450578
0.00514264
-0.00356164
-0.00608678
4.00507e-05
-0.00562714
0.00558709
-0.00305723
-0.00217288
0.012389
-0.00715885
-0.00380449
0.0127061
-0.0109638
0.00206215
0.0137476
-0.00955295
-0.00922448
0.00502986
-0.00563885
0.00384112
0.00175639
4.13453e-05
-0.00079458
0.00438982
-0.00234295
-0.00125229
0.0148579
-0.0116085
0.00687003
-0.000795234
-0.011245
0.0051702
-0.00313632
0.00293336
0.00351411
-0.00331115
0.00017312
0.0142005
-8.60551e-05
-0.0142875
-0.0103797
-0.00341642
0.0140679
-0.00027175
-0.00293928
-0.00127324
0.00323713
0.00418574
-0.00614963
0.00839711
0.00590144
-0.0125538
-0.00174477
-0.00258446
-0.00169299
-0.0112587
0.0155362