/*--------------------------------*- C++ -*----------------------------------*\
  =========                 |
  \\      /  F ield         | OpenFOAM: The Open Source CFD Toolbox
   \\    /   O peration     | Website:  https://openfoam.org
    \\  /    A nd           | Version:  10
     \\/     M anipulation  |
\*---------------------------------------------------------------------------*/
FoamFile
{
    format      ascii;
    class       volScalarField;
    location    "4.7";
    object      T;
}
// * * * * * * * * * * * * * * * * * * * * * * * * * * * * * * * * * * * * * //

dimensions      [0 0 0 1 0 0 0];

internalField   nonuniform List<scalar> 
111485
(
303.15
285.16
301.085
303.15
298.576
283.15
299.091
293.456
296.523
286.315
300.641
296.312
300.339
284.61
300.114
286.805
299.258
299.006
294.28
303.15
303.15
283.15
297.434
288.762
301.565
303.15
293.317
300.646
289.033
303.15
300.788
294.278
303.15
283.15
283.47
283.15
302.314
297.953
283.149
296.755
283.15
289.764
297.167
302.9
303.187
303.15
287.509
288.619
289.803
303.15
303.15
283.15
303.15
299.097
303.15
293.745
287.968
283.15
283.328
295.625
296.028
303.15
302.125
300.388
283.15
284.626
300.715
291.641
302.171
302.559
303.168
301.96
303.15
302.172
303.15
295.373
283.15
293.637
283.15
283.15
283.245
293.456
283.15
303.15
300.441
284.27
283.15
301.633
303.129
299.322
283.398
289.74
300.975
300.333
289.984
303.15
303.15
301.633
303.149
283.431
303.15
286.763
283.15
285.266
285.778
283.15
283.15
293.031
301.516
283.146
298.998
288.215
301.376
301.76
303.15
302.037
303.15
283.15
300.267
303.15
303.15
283.15
283.15
283.15
283.414
303.153
283.15
301.886
303.15
283.18
303.082
302.027
303.15
283.15
283.15
292.706
283.15
294.484
298.941
301.195
303.138
296.974
299.115
284.836
302.312
298.151
283.15
303.15
283.15
297.313
285.01
303.15
303.145
287.604
283.156
293.92
295.821
302.542
283.154
303.15
303.15
292.397
286.327
283.153
283.157
301.309
283.709
283.15
283.153
283.153
283.15
303.15
283.211
283.15
291.452
287.274
283.15
303.15
303.15
283.15
303.15
303.15
297.81
293.719
295.999
290.17
301.461
300.564
283.192
303.15
301.547
303.15
303.15
300.309
286.342
301.503
301.349
296.005
303.15
300.933
284.65
283.161
300.874
297.046
303.15
300.557
288.392
303.15
283.234
300.258
284.877
300.824
303.15
303.15
300.837
283.15
293.024
283.15
300.745
298.886
290.511
303.15
301.798
300.609
283.15
283.15
283.15
289.646
283.158
283.15
303.15
298.827
291.757
290.08
283.15
303.15
303.11
303.15
284.376
300.237
299.43
299.681
299.555
283.15
283.143
299.08
283.15
283.15
288.847
288.531
283.15
301.245
299.106
303.15
283.15
301.056
303.15
303.15
303.123
303.15
288.317
285.884
291.239
303.15
298.574
303.15
303.15
303.15
283.148
298.213
301.085
299.571
291.286
299.628
296.41
283.215
290.638
292
283.15
303.15
283.149
292.448
298.838
286.503
303.15
298.157
297.402
299.05
302.97
283.165
297.287
299.511
302.03
283.15
283.64
283.15
283.149
303.15
283.958
290.342
286.408
303.15
283.15
297.78
285.412
303.15
303.15
303.15
284.683
290.605
301.161
284.469
293.189
283.15
283.15
303.15
298.535
303.15
283.856
289.756
283.152
283.15
303.15
303.15
283.15
294.541
290.036
283.15
295.927
283.15
303.15
301.164
297.493
294.067
296.031
283.15
283.15
283.15
296.814
291.456
302.393
283.15
283.15
283.15
290.168
297.143
283.221
290.65
283.15
292.96
299.703
284.235
298.83
285.306
283.15
303.15
283.15
303.15
290.73
296.638
288.113
292.161
283.15
286.42
283.15
303.15
293.99
303.15
301.95
303.15
283.15
292.163
283.15
289.168
284.686
283.15
284.017
298.204
283.15
300.289
284.75
299.01
303.033
291.502
286.015
283.15
303.15
303.145
283.15
301.08
300.946
283.15
283.15
294.726
284.405
298.495
296.859
283.15
295.337
296.243
283.15
302.103
283.922
303.15
303.15
288.607
298.745
283.15
303.15
303.15
303.15
300.782
283.15
303.15
294.033
283.171
287.046
300.095
283.15
283.15
302.651
283.15
302.504
301.519
298.044
289.577
283.15
294.249
303.386
303.15
298.806
292.409
303.15
283.15
283.313
283.15
290.209
286.213
292.072
283.15
293.288
296.672
293.466
303.147
283.15
303.15
303.15
283.169
293.165
283.15
284.37
303.135
283.15
303.15
303.15
303.15
301.835
290.924
286.087
284.237
284.358
283.15
285.79
303.15
300.842
283.15
303.15
303.15
300.751
303.15
303.15
283.151
303.15
283.15
300.781
283.15
283.15
283.15
303.15
283.15
303.15
283.15
283.689
283.15
303.13
301.874
283.78
283.15
303.09
283.15
303.15
284.748
284.712
286.204
297.744
283.15
297.674
297.781
292.669
287.062
285.309
303.15
292.15
283.15
299.995
283.15
296.978
283.15
292.424
298.703
303.151
283.15
287.038
303.15
295.708
299.237
283.15
283.15
283.15
283.15
303.15
293.868
283.15
283.15
283.245
283.15
299.953
283.15
284.861
303.15
283.444
303.123
284.716
292.261
283.15
301.585
283.15
283.15
285.774
283.15
283.262
283.15
299.808
303.15
290.871
303.15
283.15
302.43
284.505
300.212
285.714
300.209
289.541
283.15
300.738
284.59
283.15
283.14
300.485
301.668
283.15
282.376
301.156
303.068
283.117
303.15
287.636
302.228
284.439
285.457
288.505
282.481
283.15
303.15
300.891
303.15
283.571
283.15
283.15
292.033
282.654
303.15
303.121
283.15
286.365
299.702
283.15
283.15
299.712
303.15
283.15
283.15
283.15
286.237
283.15
303.15
284.878
284.283
303.15
299.801
283.15
289.253
303.15
283.15
286.242
283.15
283.15
283.15
285.565
283.15
285.524
292.222
303.15
300.491
283.459
298.861
301.01
283.367
283.471
283.15
289.137
298.597
303.15
302.277
296.116
297.03
284.734
297.594
297.323
303.15
300.322
303.137
283.15
297.313
284.903
283.15
292.639
295.912
284.919
298.92
300.731
292.606
283.15
299.046
283.479
303.15
300.686
302.024
294.37
283.15
286.771
303.15
283.15
283.15
283.15
283.31
283.15
303.15
303.15
283.15
300.496
299.408
303.15
285.704
303.15
303.15
303.15
290.122
283.432
283.15
303.15
283.15
283.15
286.988
292.648
283.15
295.34
283.135
283.15
295.513
302.269
288.063
283.15
283.15
300.381
292.379
283.15
283.15
283.15
294.133
303.15
303.15
283.15
296.429
302.413
283.15
282.566
301.96
286.771
283.15
283.15
287.526
302.987
283.15
283.16
287.63
283.787
289
283.15
285.788
300.402
283.15
303.15
283.15
283.15
283.15
283.15
295.869
303.15
283.15
283.15
295.482
292.093
303.15
303.15
290.015
298.629
298.522
303.15
283.15
298.2
303.15
283.871
299.054
298.575
303.15
303.15
303.15
283.15
286.125
283.15
283.15
302.722
303.15
297.995
302.317
283.15
294.341
283.26
296.642
292.071
283.437
289.958
283.15
283.15
297.084
288.235
290.756
283.15
283.15
298.354
295.243
283.15
283.938
284.655
283.485
303.15
303.15
303.15
290.736
283.15
300.227
283.15
284.407
297.634
298.718
292.549
283.15
283.15
303.15
295.65
283.15
283.15
303.106
283.15
283.15
303.15
283.15
299.493
283.15
283.15
283.15
283.15
283.15
303.15
283.15
283.173
298.787
303.15
302.552
283.129
283.408
283.092
285.628
283.15
284.487
290.657
283.409
303.15
283.149
299.915
283.15
300.416
283.16
283.143
286.287
297.744
283.22
291.714
297.929
283.15
283.15
299.27
299.957
283.15
297.565
291.367
297.478
283.15
283.248
283.15
297.806
296.917
283.15
300.31
297.564
283.149
300.029
283.15
295.761
283.144
303.118
283.162
283.16
283.15
283.15
284.485
283.15
302.98
283.613
283.082
303.148
303.149
303.147
283.15
283.15
294.047
303.15
303.135
283.895
283.15
283.15
303.155
303.15
283.15
303.164
283.15
283.15
303.15
303.15
303.15
303.15
283.375
283.15
283.15
283.15
303.159
283.313
283.914
293.702
283.15
283.15
283.345
283.15
283.15
283.15
287.326
293.829
283.15
283.15
283.15
283.15
283.15
283.15
284.038
283.15
303.151
291.713
283.15
303.15
303.15
303.153
303.15
303.15
283.15
303.168
283.15
283.724
283.144
303.152
283.15
303.066
284.464
292.293
303.15
303.13
284.512
303.15
283.15
303.15
283.15
294.293
293.64
284.715
303.148
283.15
293.494
283.15
283.15
303.15
283.15
295.045
283.15
303.15
283.163
298.23
303.15
284.444
283.15
283.606
283.15
283.15
283.15
303.15
286.042
283.488
284.503
283.15
283.15
285.821
283.15
283.15
303.15
284.398
303.163
298.723
303.15
303.129
303.13
283.15
303.133
283.15
283.462
289.312
301.019
283.842
283.168
283.15
283.15
283.15
303.181
283.15
302.928
303.15
293.216
303.15
288.773
283.853
303.15
283.15
303.15
283.15
301.879
303.15
303.15
286.622
300.692
283.15
283.15
283.15
283.15
283.15
283.15
300.943
283.596
303.15
303.15
303.157
303.15
300.337
284.448
283.15
302.171
303.15
301.706
283.15
302.608
283.15
283.148
303.152
283.323
302.182
300.368
283.147
283.15
289.456
303.15
293.605
303.15
283.15
303.15
283.15
283.15
283.15
300.93
302.115
303.15
303.15
303.15
302.921
283.149
303.15
293.114
283.081
303.15
297.468
298.257
296.682
283.387
283.15
283.15
283.15
283.15
294.821
283.15
295.074
283.15
303.067
289.91
283.15
302.882
283.15
283.15
302.774
283.148
302.922
283.15
303.15
283.15
302.44
283.15
303.15
283.15
283.147
283.15
283.173
283.15
283.15
303.15
292.949
301.096
296.279
297.204
303.15
303.12
283.15
283.15
285.882
283.15
283.158
302.869
298.734
302.96
303.15
283.375
283.15
303.15
283.15
303.003
283.342
298.307
283.15
303.15
288.197
303.15
283.15
283.121
295.255
283.147
283.15
283.15
283.148
303.15
283.15
303.143
303.15
303.15
290.109
302.999
303.017
289.18
293.54
283.15
283.15
303.099
289.252
283.15
303.15
284.801
283.15
303.15
283.15
283.15
283.15
297.899
283.15
302.952
283.15
300.637
283.15
283.15
283.15
283.15
283.15
283.15
285.111
283.15
283.15
283.15
283.15
283.15
283.15
292.211
283.15
298.373
302.96
283.15
302.342
283.15
302.559
303.145
292.222
288.762
303.15
292.098
284.856
303.115
303.15
303.139
295.072
288.676
283.15
287.922
283.15
283.15
283.15
283.15
287.59
283.15
283.15
291.531
303.137
285.318
283.15
283.15
302.536
283.15
283.189
303.15
299.862
283.15
283.15
302.835
283.15
303.178
303.15
283.15
289.161
298.033
292.707
285.78
292.784
294.253
283.15
283.15
302.337
290.603
292.981
284.471
283.15
294.39
283.15
303.15
300.838
298.825
283.15
297.421
283.15
292.789
297.473
303.15
283.15
283.15
301.849
283.15
283.15
300.623
296.143
283.198
291.148
283.15
283.15
302.82
300.641
283.15
300.758
283.15
300.619
283.15
283.15
300.916
283.15
283.23
301.681
283.15
283.15
302.48
283.15
287.993
303.15
290.62
303.15
303.15
303.15
301.05
283.15
283.15
299.686
283.15
302.996
283.15
283.15
303.15
283.151
288.279
283.15
283.15
288.138
288.319
283.15
283.709
283.15
303.15
302.464
283.76
301.698
283.15
283.15
283.15
283.15
283.15
283.15
283.15
283.15
283.15
283.15
283.15
303.15
283.15
283.15
283.15
283.15
283.15
283.15
283.15
283.15
303.15
287.028
283.15
283.15
283.15
294.923
283.15
303.15
303.018
283.15
283.15
294.935
283.15
283.15
301.992
295.407
283.15
303.571
303.573
283.15
301.585
294.181
297.737
301.564
298.344
303.15
283.15
296.381
291.967
301.51
283.15
302.209
302.443
300.983
288.023
287.271
301.164
301.795
301.861
303.15
285.969
297.726
285.625
297.436
283.15
283.15
283.15
303.15
283.15
292.195
298.084
283.15
283.15
283.15
283.15
283.15
303.15
283.15
303.15
292.181
303.134
299.182
302.853
283.15
283.15
285.466
283.168
283.15
283.15
301.717
303.15
283.15
298.321
299.66
297.696
298.819
300.916
303.15
290.913
302.617
303.15
303.15
300.444
303.15
283.15
282.913
295.736
302.96
283.15
303.15
289.8
286.273
296.977
292.394
302.502
303.15
303.138
303.15
303.15
283.15
298.979
283.15
291.999
290.549
299.845
284.81
303.15
302.003
303.15
283.15
303.15
303.15
291.54
299.977
283.15
303.15
303.136
291.977
303.048
299.518
293.057
288.316
293.137
283.15
303.15
283.15
291.476
298.506
303.151
303.15
303.15
303.15
297.634
302.573
283.15
300.141
301.241
284.953
299.695
303.15
303.15
298.879
293.185
283.15
302.918
299.861
302.626
292.185
297.527
298.444
303.15
286.983
298.175
291.57
283.15
289.269
303.15
288.461
301.17
303.15
288.714
301.377
300.207
293.384
283.148
283.16
283.244
301.845
301.032
303.15
288.77
301.564
303.15
283.15
303.15
303.208
298.928
291.31
296.881
303.245
283.149
297.775
303.15
303.15
293.029
303.15
300.347
283.316
301.413
291.447
303.15
283.68
293.458
303.15
283.026
298.889
303.15
300.843
286.311
303.15
303.15
284.024
303.15
283.15
283.15
285.883
299.516
291.412
303.15
285.307
297.719
283.15
299.088
299.116
288.961
303.117
283.15
301.516
299.461
299.085
300.26
288.632
290.995
302.499
303.15
301.665
288.758
303.15
299.095
283.15
283.15
303.15
283.15
303.15
297.539
283.15
300.694
283.664
303.15
283.834
283.15
289.845
303.15
303.146
303.15
294.302
303.004
303.123
300.023
290.373
289.521
290.525
298.651
303.15
299.581
292.372
299.122
303.15
283.901
283.474
299.448
287.279
283.53
303.15
283.15
303.15
285.416
303.15
303.293
284.712
303.287
302.965
303.15
303.15
283.15
300.675
300.664
285.648
303.093
286.966
295.895
301.895
292.711
288.407
302.101
296.32
283.15
283.15
303.15
285.894
289.777
283.15
283.15
303.15
302.012
288.932
303.15
296.6
303.15
283.156
285.273
301.123
303.15
303.15
292.494
303.15
283.312
290.604
283.15
297.328
294.744
295.99
303.15
302.743
283.15
302.699
293.644
303.15
303.15
288.786
283.15
303.15
301.881
284.529
303.15
303.15
283.15
302.382
303.403
289.648
299.851
298.089
303.15
303.158
302.636
303.15
283.15
303.15
303.15
303.15
303.15
303.15
303.15
303.15
283.15
303.15
303.15
283.356
303.15
303.306
303.15
303.161
303.15
303.15
301.051
303.673
303.15
292.228
303.15
303.15
283.15
302.595
303.15
302.181
303.117
283.297
283.15
303.15
302.942
283.149
303.15
303.15
291.556
283.15
292.78
283.15
283.15
283.152
291.409
284.884
303.15
296.767
283.15
303.641
303.134
284.349
302.63
283.15
292.357
303.085
301.741
283.15
303.15
283.15
303.951
284.862
296.919
303.15
303.15
303.15
303.15
303.15
303.15
302.404
302.833
297.721
292.319
303.15
287.3
292.825
285.025
303.204
283.15
286.972
302.781
284.818
283.147
287.527
303.15
283.398
302.936
292.724
302.868
301.968
303.15
302.256
303.15
303.15
298.113
303.15
284.544
303.15
303.15
283.15
303.15
303.15
302.867
303.15
283.305
283.15
283.15
285.94
284.958
300.921
286.23
303.15
295.169
303.15
290.585
303.15
287.307
300.796
301.57
293.515
303.15
303.15
303.15
289.826
283.15
303.15
289.578
283.15
283.15
301.898
303.15
286.23
283.148
283.15
303.15
303.15
300.703
298.367
303.15
293.843
303.046
283.15
298.65
303.15
286.431
288.31
302.17
303.15
296.428
296.771
302.966
301.952
301.708
303.15
303.15
303.147
303.15
283.15
303.15
289.588
300.115
294.429
302.187
283.15
300.483
291.586
298.381
283.626
298.495
289.817
302.218
283.15
283.15
283.15
302.261
283.15
290.614
283.15
301.354
303.16
289.743
298.042
283.15
303.15
301.342
301.32
303.15
283.15
303.15
286.438
301.534
302.99
302.39
298.038
288.48
303.15
303.15
303.15
294.64
286.097
290.098
296.088
283.989
302.971
303.15
303.15
283.15
283.15
285.411
299.709
303.15
303.15
283.15
303.15
303.15
303.15
300.392
303.15
285.451
293.013
283.15
283.253
293.531
285.716
303.15
303.15
301.96
303.15
299.375
283.146
297.67
303.15
303.15
283.15
303.15
303.15
303.15
305.424
303.15
301.913
301.144
303.15
303.15
301.7
303.15
283.15
287.33
303.12
303.15
303.15
303.15
298.197
303.15
303.15
302.571
302.531
301.856
303.15
283.15
303.15
302.107
302.552
301.608
302.576
283.15
300.841
287.767
297.451
283.15
303.15
303.15
303.15
303.15
294.544
287.613
299.687
303.15
303.15
303.15
303.15
283.15
303.148
284.935
285.159
283.15
303.15
303.15
283.147
299.724
295.207
283.15
303.15
303.15
303.15
303.15
289.656
289.849
303.15
303.15
302.417
303.15
301.459
283.984
292.102
303.15
283.15
301.177
303.127
303.15
303.334
301.442
287
303.15
303.15
303.15
303.15
293.29
284.217
303.15
302.728
298.268
290.1
303.15
303.15
303.15
303.15
299.666
303.151
303.15
303.15
298.521
302.601
288.563
303.15
303.15
297.961
303.15
303.15
303.15
303.15
288.918
303.15
283.15
283.15
296.228
291.271
303.15
303.15
303.15
297.152
303.147
303.15
303.15
303.15
303.15
303.446
300.983
303.15
287.451
302.678
299.552
303.15
303.15
303.15
303.15
283.15
285.784
303.15
302.833
283.15
302.235
303.15
303.137
303.15
283.15
301.957
286.1
283.15
302.854
303.15
302.462
283.15
303.15
303.15
303.151
303.15
283.278
303.15
290.937
283.15
283.15
303.15
303.15
299.075
302.42
283.15
302.489
283.15
284.158
288.151
302.729
283.15
303.154
302.998
303.136
284.466
283.156
302.996
283.15
283.15
283.156
302.153
302.344
303.15
283.15
283.15
296.005
303.15
283.15
303.15
303.15
303.15
303.103
303.055
302.953
302.489
303.15
302.931
303.15
284.885
303.15
303.15
283.15
303.15
303.113
303.15
283.15
303.15
288.379
303.15
303.15
303.185
283.15
303.138
302.444
297.434
303.15
290.25
295.665
284.097
290.798
283.15
283.15
287.264
284.382
283.15
303.707
283.15
286.46
303.15
283.15
303.155
303.15
303.15
303.021
303.155
303.15
283.15
303.14
303.15
283.15
283.102
298.897
302.732
303.15
301.908
303.15
285.732
303.151
301.27
303.15
303.15
301.133
303.15
303.15
303.15
287.763
303.15
285.199
303.15
303.147
303.15
283.15
283.15
303.15
303.15
303.15
288.819
302.59
303.15
303.15
288.788
286.57
291.625
303.15
302.729
287.739
287.635
303.15
303.15
288.041
283.15
292.158
303.15
303.152
303.149
303.15
300.657
283.15
302.337
283.15
303.15
303.15
303.15
303.15
303.15
284.389
302.284
291.308
303.15
303.15
290.835
303.15
303.15
303.15
303.15
303.15
300.38
303.15
303.15
283.15
299.72
303.15
283.15
303.15
301.474
283.15
300.15
290.727
302.708
300.21
299.664
303.15
303.15
303.15
301.034
288.704
283.15
303.15
300.479
303.15
303.15
292.248
303.15
287.596
303.15
298.102
284.386
303.15
283.15
303.15
303.15
303.15
285.362
303.15
300.634
303.15
303.15
299.87
283.15
284.812
303.15
303.15
288.291
301.555
296.666
303.15
303.15
303.15
301.572
292.467
303.15
283.15
303.15
300.814
303.15
284.835
296.551
303.15
303.15
301.25
303.15
303.15
283.15
303.15
283.15
294.868
303.15
283.15
303.15
303.15
303.15
303.15
303.15
303.15
283.15
301.52
283.15
302.133
303.15
303.15
296.263
300.613
303.15
283.15
303.15
301.005
283.15
303.15
303.15
303.15
300.777
303.15
297.899
303.15
285.956
283.15
286.813
303.15
303.15
298.645
283.15
303.15
288.072
283.25
303.15
303.15
285.169
283.892
300.962
301.808
301.29
293.266
301.809
283.879
303.15
297.965
283.15
283.15
303.15
303.15
303.15
301.322
303.15
303.15
303.15
303.132
283.17
283.15
283.58
303.15
302.067
283.15
303.143
296.318
283.15
294.754
303.15
303.15
283.15
300.032
283.958
303.15
283.15
300.062
303.15
297.869
303.15
295.514
303.15
283.15
303.15
283.15
299.493
283.15
283.235
283.15
286.27
303.15
303.15
283.15
283.15
303.15
303.15
303.15
303.15
284.923
284.901
283.15
303.15
283.237
283.15
283.15
303.155
290.084
283.558
283.15
301.6
284.954
300.511
288.363
303.15
303.15
303.15
303.15
283.15
283.15
283.15
303.15
283.15
283.15
303.15
283.15
297.411
283.15
303.15
283.15
303.15
303.15
283.498
283.15
303.15
302.01
303.149
303.15
303.15
303.15
288.793
283.15
303.15
303.149
283.15
303.15
303.15
303.15
295.36
283.15
283.19
303.15
303.15
303.15
303.15
303.15
303.15
303.147
284.152
303.15
283.15
303.15
303.15
303.15
303.148
303.149
283.15
283.15
283.15
303.15
303.15
283.15
303.15
283.15
287.785
283.15
301.882
283.15
303.154
303.15
284.648
283.15
284.49
297.576
303.15
284.731
303.171
303.15
297.586
283.15
303.15
303.15
303.15
303.15
283.15
303.15
303.15
299.314
283.15
303.15
303.15
303.15
303.15
292.389
291.062
303.169
283.167
303.15
301.885
302.367
303.15
283.15
283.15
303.15
303.15
303.15
283.15
283.15
283.841
303.15
303.15
303.192
303.151
283.15
289.049
303.15
283.15
303.15
288.233
303.15
283.15
302.168
283.15
283.15
283.15
303.15
299.788
303.15
303.15
303.15
283.15
284.545
293.772
295.438
289.755
303.125
303.029
283.15
283.15
301.141
283.712
283.15
303.149
303.15
303.15
283.15
294.746
303.15
283.15
302.992
303.15
303.15
283.823
303.15
303.15
288.579
289.771
303.15
283.15
303.15
283.15
303.15
303.15
303.15
303.15
283.97
303.15
303.15
303.15
302.945
303.15
303.15
283.15
283.15
283.15
283.15
302.957
283.15
283.15
301.057
303.15
284.813
284.976
303.15
301.22
303.15
283.15
303.15
283.15
283.15
303.15
303.15
303.15
302.698
303.15
303.15
303.15
283.15
303.15
283.15
286.463
303.15
303.15
291.771
303.15
283.15
283.15
302.462
303.15
303.148
283.15
303.199
286.771
283.15
283.15
299.343
283.15
283.15
303.057
303.16
293.275
303.166
303.151
303.152
283.15
283.15
302.673
283.476
285.96
300.949
283.16
283.15
291.033
301.645
301.552
283.15
300.328
290.637
300.187
302.262
302.808
284.759
295.797
299.364
286.209
293.562
300.218
303.15
297.811
297.943
302.808
283.688
292.753
301.237
287.293
303.15
301.158
303.15
300.759
301.574
283.657
285.069
303.15
283.15
302.299
301.757
283.145
303.171
288.551
302.708
301.954
300.927
303.15
303.221
301.241
295.286
300.458
289.241
302.939
301.662
302.205
302.329
284.267
302.538
301.699
283.181
303.15
302.911
303.15
303.15
302.15
302.061
294.528
303.15
284.744
292.441
292.401
301.195
303.15
284.069
285.228
284.426
303.15
299.019
303.15
296.415
295.528
300.848
303.144
303.15
303.15
302.021
301.346
302.806
303.15
292.704
302.771
290.185
283.15
298.392
294.034
303.15
300.538
283.15
283.206
283.15
302.617
303.108
303.15
302.989
298.598
283.148
300.6
302.274
295.343
283.556
296.026
297.241
283.484
303.134
284.821
296.265
283.327
297.106
300.603
300.372
300.496
302.046
290.218
301.664
303.15
302.75
302.684
302.677
296.456
302.9
283.15
302.078
293.486
303.15
283.446
286.751
301.286
302.624
290.523
284.838
287.812
302.65
296.541
303.15
303.15
295.162
283.15
292.819
283.444
303.15
290.519
290.417
283.94
303.15
297.378
298.519
284.281
301.352
294.233
290.169
300.585
303.112
303.15
303.15
283.574
302.651
283.359
285.908
303.15
303.026
303.045
303.15
285.471
300.828
298.18
283.26
299.679
302.412
300.587
287.065
283.15
303.109
301.867
283.774
283.144
303.15
303.081
303.15
303.15
284.233
302.571
296.404
283.049
283.152
303.15
283.15
302.965
303.052
302.547
301.501
303.15
283.15
283.15
301.894
301.949
283.227
295.896
303.15
303.15
301.703
285.607
283.265
301.763
301.857
301.799
284.444
303.15
283.15
298.522
297.827
303.15
302.73
302.135
284.946
285.061
302.169
303.058
303.15
298.299
284.471
283.15
303.15
300.532
301.378
302.076
289.74
302.129
285.772
300.346
300.286
290.408
297.839
303.15
303.15
301.076
284.556
302.146
283.151
300.624
301.776
283.65
288.343
302.46
283.15
283.15
283.027
303.15
303.15
300.073
299.002
302.328
283.147
283.15
283.984
283.15
283.15
283.152
303.084
301.029
299.321
296.202
283.381
303.105
300.301
303.15
283.15
302.601
289.264
300.9
292.684
283.524
303.066
283.148
283.15
302.853
301.34
302.644
283.157
291.485
284.946
303.15
284.31
301.086
283.15
283.315
285.032
284.416
283.15
283.15
301.719
283.15
289.6
302.567
302.73
301.817
283.498
298.957
290.527
283.15
303.307
292.247
283.15
283.15
283.15
303.15
301.23
302.459
299.258
301.541
299.958
289.039
283.155
290.994
290.1
303.066
291.325
300.146
292.152
283.15
286.377
301.165
301.612
283.15
284.032
299.762
283.15
303.15
283.191
301.349
303.15
284.048
302.284
303.029
303.15
283.15
292.84
303.153
301.769
283.15
283.15
283.15
302.241
297.794
303.142
302.223
303.165
303.15
288.594
303.165
290.51
300.363
300.327
296.83
283.158
301.788
283.15
290.668
301.525
289.724
290.558
299.156
300.886
301.696
287.187
291.022
285.119
283.175
302.265
286.202
283.149
283.145
300.324
283.076
300.446
287.216
296.095
299.619
289.408
299.472
283.121
299.116
283.15
290.144
289.811
298.763
283.342
283.15
300.672
283.15
302.817
283.15
303.15
286.524
286.559
283.15
299.191
298.602
287.172
303.15
303.15
301.801
289.812
303.032
283.76
301.668
287.262
303.147
284.247
288.349
303.15
301.514
283.15
283.15
287.64
287.216
283.145
285.345
301.59
286.357
301.215
303.15
285.256
301.825
291.318
303.15
303.15
301.701
302.104
303.15
293.155
294.2
283.711
296.773
287.001
290.187
303.15
302.905
297.226
285.123
283.15
287.8
291.993
299.779
283.167
283.785
282.914
302.015
303.129
283.151
303.136
303.15
300.635
293.243
299.06
294.159
283.15
291.82
296.213
285.677
283.214
292.564
283.15
300.28
303.164
292.766
284.139
303.145
291.901
298.812
288.422
300.308
291.212
287.483
283.15
303.142
285.398
290.213
293.657
283.15
283.15
283.15
303.142
283.15
283.136
286.534
303.15
283.15
303.165
283.173
291.135
289.519
303.39
302.928
290.054
303.15
297.319
303.172
302.068
287.42
283.15
293.307
303.146
303.099
286.354
283.15
283.15
283.486
286.158
303.062
303.145
287.612
289.593
283.511
283.162
289.882
293.275
303.15
283.15
303.106
303.15
302.38
285.058
302.355
303.098
284.104
283.811
284.092
302.864
302.228
297.423
294.093
303.078
291.449
291.031
303.15
303.102
302.627
285.528
283.395
303.15
286.025
283.399
302.947
301.692
302.23
283.15
300.458
301.923
303.15
302.206
285.46
303.15
298.075
303.15
283.15
300.802
302.708
286.432
302.533
283.15
285.286
303.019
283.15
302.345
285.411
295.006
284.381
303.15
303.026
302.884
286.574
283.15
287.224
284.305
289.915
285.862
302.307
303.15
283.15
283.15
293.007
283.15
301.081
302.223
290.322
283.15
294.012
283.15
303.15
283.15
300.076
298.896
283.151
285.356
301.744
303.097
303.156
292.123
294.449
301.303
283.231
301.819
283.145
303.15
303.148
299.568
283.15
301.678
295.118
303.15
300.98
287.395
301.964
284.909
288.35
283.15
302.279
287.841
298.566
303.081
283.15
303.15
291.763
302.222
283.075
283.147
286.934
298.52
303.149
284.628
301.127
301.105
301.339
303.152
300.043
287.761
284.985
301.685
300.033
283.763
283.097
303.158
303.149
303.15
297.612
283.162
283.15
303.15
303.149
289.974
298.867
300.227
287.887
302.819
303.15
286.387
301.604
303.15
300.99
283.823
301.545
303.15
284.617
301.389
295.408
302.778
303.15
303.15
285.252
295.336
296.653
287.593
303.15
303.15
283.15
287.308
302.439
296.436
303.15
285.656
303.15
303.15
300.38
288.732
283.15
295.808
296.149
298.964
283.15
303.15
292.71
287.305
303.15
298.206
300.695
300.599
303.15
303.15
303.15
300.417
298.579
302.819
300.088
283.15
292.824
287.79
290.833
300.682
303.15
303.15
300.934
303.103
286.681
296.296
303.15
303.148
283.15
286.489
299.092
285.652
303.15
303.15
283.355
303.127
303.15
303.15
283.15
290.565
303.15
303.15
284.649
299.34
283.15
303.15
284.658
301.442
300.318
287.087
294.959
303.15
283.512
303.15
303.15
283.301
300.648
290.487
300.533
303.15
303.134
302.216
292.973
299.899
301.427
284.484
283.474
300.864
298.641
303.15
302.776
284.185
299.953
301.464
287.844
303.15
297.481
301.491
301.574
301.613
292.853
303.15
283.15
299.266
283.15
283.15
287.809
283.15
284.036
283.15
283.15
283.15
283.15
302.776
288.102
302.726
283.15
295.922
290.976
284.794
283.15
303.15
302.703
301.775
303.18
302.663
283.15
295.131
300.419
290.136
283.15
283.15
299.893
285.937
283.15
283.15
303.149
290.631
283.15
287.261
303.15
303.152
284.343
283.15
288.371
293.142
300.74
294.411
302.967
285.726
302.539
295.339
286.348
283.15
283.557
291.767
303.091
289.294
302.679
283.15
292.407
287.808
301.047
301.267
284.979
303.114
285.045
297.242
302.991
303.148
285.146
303.146
303.014
293.422
302.686
283.15
303.15
303.15
294.907
291.215
283.155
301.189
284.718
284.18
284.669
303.145
288.403
300.594
283.15
283.15
302.536
303.15
294.696
302.915
303.18
299.94
303.216
302.904
283.15
301.409
302.899
283.15
303.15
301.293
303.15
284.368
298.908
283.166
291.669
283.15
287.634
303.026
299.972
283.15
303.034
290.865
301.269
303.132
303.082
283.15
283.15
301.945
302.052
283.824
302.834
302.451
302.416
303.141
283.15
294.12
283.15
302.811
287.898
302.997
303.15
283.15
302.849
285.206
291.512
302.101
283.15
302.611
302.05
301.667
302.517
303.056
303.202
303.018
303.15
283.15
301.545
297.981
303.091
303.15
290.093
285.124
303.15
283.15
285.413
303.183
303.163
302.93
301.209
284.311
303.101
290.77
294.125
303.148
289.166
303.162
283.15
290.037
283.15
300.072
298.295
284.84
288.296
299.718
296.492
295.367
299.283
293.883
303.152
293.908
296.562
283.157
299.489
293.822
303.15
299.123
299.256
303.15
291.424
303.171
301.727
303.15
286.98
286.047
302.816
289.715
283.15
283.15
300.426
301.148
283.753
283.15
303.15
300.301
302.36
300.727
299.998
302.804
292.623
289.687
286.665
292.518
284.335
290.56
283.312
295.726
290.458
293.993
287.228
284.311
303.162
283.278
303.147
285.699
300.795
283.151
300.38
298.215
288.782
302.12
285.452
299.183
283.15
302.962
283.155
283.111
287.962
299.762
303.15
300.368
303.027
299.954
302.779
303.15
301.336
284.992
295.322
302.092
303.149
283.721
283.15
290.483
285.217
285.803
303.146
303.149
283.15
283.15
283.177
303.15
293.496
303.15
303.154
294.986
303.434
303.15
300.353
303.15
303.15
293.694
290.669
303.15
289.876
302.109
289.603
303.15
303.15
286.096
283.343
290.415
303.218
303.15
303.146
285.52
283.266
283.15
289.082
287.71
303.15
284.338
303.15
303.15
303.132
287.383
303.15
303.147
283.287
303.152
302.686
287.96
283.151
283.631
297.369
290.831
303.15
285.975
284.513
301.4
287.132
302.251
290.533
293.962
303.15
303.15
284.034
303.152
302.961
295.867
302.957
302.76
287.195
283.15
285.448
283.223
297.404
302.62
285.476
303.15
283.832
286.759
303.128
283.177
303.15
286.517
283.15
300.057
303.15
299.822
300.036
283.315
283.371
302.353
291.239
301.35
303.15
301.458
301.801
303.15
303.15
298.428
293.615
283.15
288.958
303.15
295.197
283.372
303.15
296.984
298.826
289.043
303.15
302.776
294.481
295.521
284.494
303.161
298.933
296.301
284.008
303.127
302.817
287.489
298.591
289.703
290.756
289.779
283.15
302.964
303.151
303.15
303.17
293.296
296.484
302.983
301.354
303.15
284.467
303.15
303.05
302.871
303.15
293.732
296.281
303.15
285.451
303.1
303.15
303.097
303.156
286.142
293.481
291.187
288.447
293.263
303.15
301.323
291.641
295.475
293.48
303.141
303.15
300.604
303.186
284.294
303.187
303.15
303.15
303.143
303.15
285.011
303.15
284.279
303.146
303.15
290.371
303.145
292.594
295.619
303.135
295.497
285.986
283.442
303.128
302.944
284.739
283.15
297.135
303.15
285.573
302.926
302.094
303.024
298.453
287.157
303.15
298.647
289.95
299.444
283.15
283.639
303.15
303.145
303.188
293.996
303.15
292.521
289.416
303.193
303.15
284.869
299.028
293.377
299.777
302.509
301.594
300.532
303.15
284.748
296.947
302.386
285.687
298.307
292.347
284.519
291.832
303.15
286.805
291.992
290.08
299.585
303.15
286.471
284.095
303.15
302.468
288.184
302.11
283.15
303.15
299.945
301.752
289.306
302.037
301.927
301.88
303.15
289.504
285.178
302.008
302.275
297.279
303.15
283.203
303.15
302.037
303.15
302.843
303.15
291.813
303.15
296.715
283.15
289.675
303.15
283.15
291.975
301.53
300.521
289.261
300.601
303.15
302.521
303.15
302.377
285.312
303.15
300.508
290.48
303.15
300.899
303.15
303.15
293.179
283.15
285.605
293.323
301.01
303.15
291.469
294.058
288.372
289.674
288.132
299.258
300.258
300.886
287.434
287.147
301.344
283.15