/*--------------------------------*- C++ -*----------------------------------*\
  =========                 |
  \\      /  F ield         | OpenFOAM: The Open Source CFD Toolbox
   \\    /   O peration     | Website:  https://openfoam.org
    \\  /    A nd           | Version:  10
     \\/     M anipulation  |
\*---------------------------------------------------------------------------*/
FoamFile
{
    format      ascii;
    class       volVectorField;
    location    "4.7";
    object      U;
}
// * * * * * * * * * * * * * * * * * * * * * * * * * * * * * * * * * * * * * //

dimensions      [0 1 -1 0 0 0 0];

internalField   nonuniform List<vector> 
111485
(
(2.77854 -2.77837 0.00138887)
(8.03629 -0.0181763 -0.0399475)
(7.9267 0.0188452 0.0245657)
(2.77908 -2.78016 0.000129959)
(8.22873 0.0345882 -0.00218827)
(2.8648 2.86249 0.00129621)
(8.08983 0.0214566 0.00521215)
(8.29805 -0.0204911 0.0124818)
(8.10218 -0.00601996 0.00408245)
(8.274 -0.0861273 -0.0367303)
(7.97413 0.0186398 0.021981)
(8.33588 -0.0184896 0.0373711)
(7.86203 0.00522748 0.0184528)
(7.92 -0.0159732 -0.0533517)
(8.04064 0.0297437 0.0179343)
(8.19431 -0.0532941 -0.041595)
(8.08478 -0.00495175 0.0101493)
(2.85141 -0.248541 0.442601)
(8.24489 0.0223271 -0.0172327)
(2.75916 -2.75515 -0.00162818)
(2.76344 -2.76343 -0.00302573)
(2.87123 2.87047 0.000194393)
(8.15812 0.0218392 -0.00292913)
(8.27654 -0.0522392 -0.0159099)
(8.12434 0.0355204 -0.0102173)
(2.80044 -2.78845 -0.00225342)
(8.3727 -0.0388654 0.042628)
(7.94641 -0.00761941 -2.04488e-05)
(8.26891 0.0113155 -0.0187882)
(2.76993 -2.76972 0.000217864)
(8.34935 0.140718 -0.0378285)
(8.22265 -0.014754 0.00291744)
(2.75727 -2.76282 0.00417634)
(2.86803 2.87346 -0.00670448)
(2.88392 1.18015 0.465839)
(2.88547 2.90457 -0.0425506)
(8.3083 0.138655 -0.0570607)
(8.01263 0.0278113 0.0677857)
(8.25262 2.50136 0.141576)
(8.23554 0.0403173 0.00499283)
(2.8322 2.85785 -0.0210886)
(8.33164 0.00986224 -0.0479534)
(8.22862 0.042936 0.0151571)
(7.95179 -0.047008 -0.000838999)
(8.31944 -0.148307 -0.0750726)
(2.78986 -2.76858 0.0137539)
(8.33315 -0.0392523 0.0393733)
(8.26497 -0.0481077 -0.0148524)
(8.33165 0.00342195 -0.0377204)
(2.76332 -2.73187 0.014184)
(2.74843 -2.72317 0.0176751)
(3.26501 2.74246 0.0473523)
(2.74034 -2.72972 0.0093303)
(8.32408 0.0372272 -0.0683631)
(2.73433 -2.72181 0.00242847)
(8.21539 0.0203729 -0.00758593)
(8.21842 -0.0328194 -0.0152923)
(2.87035 2.86581 0.00183553)
(7.51438 -0.0181047 -0.12908)
(8.2601 0.0349925 -0.00393764)
(8.25839 0.0382447 -0.00282641)
(2.7702 -2.77554 0.00331996)
(7.66868 0.00943797 0.0488141)
(8.36842 -0.019835 0.0642574)
(2.96115 2.68126 0.00416863)
(7.58209 0.0153336 -0.0134922)
(5.81313 -0.485426 0.208458)
(8.28183 -0.0299152 0.0105991)
(7.49607 0.00130193 0.0264008)
(7.13111 -0.0145662 0.0024691)
(8.00736 0.0526733 -0.0437206)
(7.44498 -0.0103537 0.0187387)
(2.99671 -2.70086 -0.0615237)
(7.58912 0.0140434 0.0562537)
(2.77572 -2.77501 -0.000268498)
(8.23948 -0.0158635 0.00800515)
(2.87085 2.87038 -0.0010223)
(8.32529 -0.0183107 0.0430518)
(2.86933 2.86792 -2.5559e-05)
(2.58132 2.51583 -0.0873828)
(8.02652 -0.122512 0.0829049)
(8.28254 0.0339249 0.00596197)
(2.85974 2.85352 -0.000456028)
(2.77612 -2.77589 0.00144742)
(7.81842 -0.00392257 0.0133235)
(7.51638 0.0205564 -0.0290462)
(6.41321 4.15444 -1.12181)
(8.21546 0.0966719 0.00968946)
(7.91588 0.20566 0.176222)
(8.01279 0.0167386 0.0139139)
(8.46947 0.165316 -0.108519)
(8.23622 -0.0134596 0.0138312)
(7.72731 -0.0137407 0.0206477)
(7.87438 -0.00522678 0.00545054)
(8.34273 0.02396 -0.0491352)
(2.77635 -2.77522 -0.000723839)
(2.77035 -2.77046 0.0016886)
(8.21232 0.090527 0.0288254)
(8.48431 -1.68405 0.118908)
(7.70726 0.0280063 0.0481964)
(2.77638 -2.77658 0.00116015)
(8.24998 -0.043221 0.00487713)
(2.88272 2.88787 0.0156474)
(8.18412 -0.000268313 -0.00512424)
(8.10217 -0.0358762 -0.0456141)
(2.81505 2.51339 -0.0601444)
(2.87039 2.86886 -0.000718229)
(8.22754 -0.0185453 -0.00182731)
(7.64527 -0.041474 0.00826703)
(7.31445 -0.217508 -0.23029)
(7.8321 -0.00307973 0.0105631)
(8.18224 0.0118488 -0.00409635)
(7.65585 -0.00660599 0.0294776)
(7.54584 -0.0393228 0.0151837)
(2.80297 -2.78808 0.00242988)
(7.29885 -0.00607423 0.0186992)
(2.78685 -2.77869 -0.00387165)
(2.88288 2.87062 0.0120463)
(8.054 0.0276237 0.0220676)
(2.77889 -2.77755 0.000933632)
(2.80131 -2.78739 -0.00103852)
(3.78496 2.97151 0.178576)
(2.83818 2.85224 -0.00485133)
(2.87613 2.86916 -0.00686151)
(7.8772 -0.0193548 0.0364933)
(2.22482 -1.57267 -0.410767)
(3.60708 3.09902 0.109877)
(7.3642 -0.00247631 0.0306441)
(2.77626 -2.77492 -0.00137915)
(8.28531 0.611775 -0.225858)
(8.28258 0.162178 -0.0863159)
(8.19727 0.09274 0.0282992)
(2.76345 -2.75548 -0.0135171)
(3.70484 3.21944 0.33526)
(3.45522 3.08102 0.146191)
(8.2655 0.0235401 -0.0158491)
(2.8724 2.87256 -0.00101953)
(8.19379 0.016947 0.00156712)
(8.15316 0.0367407 0.02206)
(8.01967 0.033663 0.0335666)
(6.33107 0.000805152 0.0249093)
(8.21588 0.0412371 0.0095956)
(8.14807 0.0413369 0.0254405)
(7.78919 0.00634912 -0.0296621)
(8.13536 -0.014995 0.00640253)
(8.02234 -0.00849162 0.0138588)
(2.8724 2.87341 -0.000723338)
(2.77636 -2.77782 0.000436332)
(2.86489 2.86647 0.00596924)
(8.22296 0.0367532 0.0050958)
(7.79443 0.0113928 -0.0270432)
(2.76516 -2.76431 0.000646708)
(5.37683 -0.0299341 0.0531495)
(8.03317 0.0334667 0.0212608)
(8.7903 0.345229 0.154199)
(8.26482 0.023246 -0.0158936)
(8.22925 0.0253894 -0.0057668)
(7.66224 0.00461444 -0.0166607)
(8.86365 0.425933 0.104547)
(2.76086 -2.78672 0.0110035)
(2.77421 -2.77688 0.00291232)
(8.25212 0.0219044 -0.0161831)
(8.08882 -0.0267101 -0.0278321)
(8.92139 0.481742 0.113827)
(8.79696 0.422117 0.157068)
(7.66828 0.00681198 0.0367736)
(8.24141 0.0994224 -0.0365384)
(2.83426 2.85792 0.000737013)
(9.02908 0.595052 0.140281)
(8.61187 0.425769 0.129188)
(2.86831 2.86931 0.00132594)
(2.77051 -2.76999 6.18834e-05)
(6.64555 0.00808714 -0.0550297)
(2.87157 2.87287 0.000524783)
(8.17925 -0.014725 -0.0014516)
(7.90885 0.00511333 -0.015192)
(2.86976 2.80025 -0.0163397)
(2.99993 -2.75673 0.0302278)
(2.76941 -2.75419 -0.00469897)
(2.82902 2.66894 -0.0283439)
(3.01422 -2.77949 0.0474087)
(2.77318 -2.77549 0.00284115)
(8.20681 0.0278055 0.00563847)
(8.21857 0.0184028 -0.014773)
(8.19034 0.0214089 -0.00991939)
(8.07572 -0.0337491 0.0312249)
(7.80576 -0.019952 0.00675132)
(7.82932 0.00985431 0.0230474)
(6.97305 0.0841469 -0.00100174)
(2.77209 -2.76148 0.000408952)
(7.59414 7.76342e-05 0.00983598)
(2.99338 -2.77737 0.0294627)
(2.79622 -2.80078 -0.00104269)
(7.88927 0.0105144 0.0260439)
(8.27779 -0.095481 -0.0334311)
(8.21396 0.0164011 -0.0365948)
(7.90597 -0.00526776 0.00575517)
(8.02696 0.004557 0.00736652)
(2.77059 -2.76618 0.0073646)
(7.89232 -0.0315501 0.00903519)
(7.85522 -0.00795765 -0.0456076)
(5.48594 1.73142 0.228348)
(8.05013 -0.0646677 0.00552548)
(8.15958 -0.00994564 0.00675202)
(2.78404 -2.7693 -0.00487259)
(7.85707 0.0147278 0.0260622)
(8.24418 0.0192415 -0.00156152)
(3.04332 -2.744 0.0110228)
(7.91825 0.0189747 0.0299846)
(8.31054 -0.0071989 0.0379297)
(7.7889 0.00709875 -0.0305718)
(7.83408 0.0180785 0.0343811)
(3.01183 -2.78859 0.0386415)
(2.76856 -2.76943 -0.001251)
(7.83143 0.0188652 0.0380736)
(5.12453 3.20827 -0.317408)
(8.4003 0.0354206 -0.0806932)
(2.86972 2.87014 -0.00121841)
(7.87915 0.0139493 0.0314637)
(7.8918 0.00590413 0.00379995)
(8.35159 -0.025641 0.0508097)
(2.77829 -2.7767 0.00149001)
(7.41398 -0.00361178 0.0145526)
(8.25944 0.119764 0.063061)
(4.52631 3.03151 -0.332658)
(2.87179 2.87153 -0.00141699)
(2.86824 2.86924 0.00102735)
(8.4404 -0.0470297 0.0819586)
(7.88548 0.181964 -0.023382)
(3.01934 2.54508 -0.0597366)
(3.43586 -2.66765 0.107823)
(7.91754 0.00639093 0.012898)
(8.1494 0.0179644 0.000691453)
(8.23274 0.0175688 0.00849658)
(2.97489 2.58434 -0.0758693)
(2.92747 -2.69645 -0.0105563)
(7.95063 0.0965308 -0.114871)
(2.77536 -2.77548 0.00184754)
(7.56299 0.00647143 -0.0457695)
(7.8293 0.00449048 0.0305355)
(7.91216 0.00261875 0.0171199)
(7.91864 0.0149831 0.0185772)
(7.94906 0.00710422 0.0253599)
(2.8604 2.86095 0.00945824)
(6.02407 -0.0161575 -0.22918)
(8.0356 0.0236763 0.0221397)
(2.85573 2.86209 -0.00380926)
(2.87052 2.87163 -0.000221446)
(8.37816 -0.0994838 -0.00629109)
(8.1785 0.0373595 -0.0111058)
(2.93946 2.50077 -0.0794832)
(7.53022 -0.0074378 0.0151611)
(8.01756 0.0165468 0.0190447)
(2.77736 -2.77671 -0.000829236)
(3.63516 3.42638 -0.0230673)
(8.2523 0.0791802 -0.0350892)
(2.78824 -2.7528 0.000622556)
(3.08081 -2.19624 -0.0525707)
(4.22322 -1.48543 -0.147202)
(2.7805 -2.77317 -0.00156463)
(8.06665 -0.0113432 -0.0161546)
(7.85652 -0.0141332 -0.0122103)
(8.15851 0.00976514 -0.0200175)
(2.77424 -2.77452 -0.000463779)
(8.0669 0.0223729 0.0182783)
(2.77937 -2.78014 -0.000341982)
(2.77839 -2.7802 0.00103929)
(2.77073 -2.76013 0.00462841)
(5.57838 0.0201206 -0.0805176)
(8.30913 -0.0384724 0.0449557)
(7.90881 0.0294519 0.0397554)
(8.05747 0.0260049 0.0126904)
(8.33233 -0.045295 -0.00113637)
(8.0235 0.0113014 0.0126841)
(8.21159 0.0289726 0.0103359)
(8.28656 0.137981 -0.0123365)
(8.09899 0.0117361 -0.0049946)
(8.1622 0.0158428 0.00308216)
(2.92058 2.87387 -0.00160697)
(2.76697 -2.76713 -0.00360332)
(5.11243 0.0323363 -0.125156)
(8.20809 -0.0154566 0.00316474)
(8.28805 0.0636012 0.0686987)
(7.84503 -0.0116166 -0.0117695)
(2.77908 -2.77765 0.00140164)
(8.16983 0.0257203 0.0144192)
(8.20485 0.0417221 0.0193699)
(8.04635 0.0158713 0.0105578)
(7.11802 -0.00560073 -0.0388371)
(7.43117 -0.0856649 -0.183396)
(8.16004 0.0243949 0.00987411)
(8.03642 0.0215273 0.0142861)
(8.19095 0.0658567 -0.0415085)
(2.87031 2.87128 0.00179091)
(7.53949 0.0402467 -0.00226327)
(2.86941 2.86998 -0.000897832)
(2.32438 1.75821 -0.377587)
(3.12248 -2.01357 -0.200799)
(8.50425 -0.0766277 0.112024)
(8.3348 -0.0449007 -0.00073235)
(8.13608 -0.00393265 0.000561186)
(2.77999 -2.77321 -0.00125248)
(2.85787 2.87449 0.0232107)
(8.15139 0.0272082 0.0167281)
(7.84921 0.0104879 -0.00923271)
(2.76757 -2.76636 -7.90764e-05)
(2.77894 -2.77669 0.00269797)
(2.71238 -2.72688 0.0201555)
(7.78604 0.00859669 -0.00244439)
(8.13525 0.00642478 -0.00790094)
(7.77811 0.00123224 0.0257662)
(7.53751 0.00815867 -0.0317185)
(8.28779 0.021967 -0.018678)
(3.28952 2.82358 0.0771338)
(2.86446 2.87124 0.00507138)
(2.77572 -2.77207 -0.000958494)
(8.12646 0.0259713 0.0172632)
(5.29555 -4.49241 -0.317768)
(7.76613 -0.0079356 0.0115613)
(8.448 -0.0595773 0.185474)
(6.82884 0.00572669 -0.138192)
(2.87083 2.87229 0.000155315)
(2.77452 -2.77697 0.00196152)
(2.77745 -2.77866 -0.00109693)
(3.62448 3.03585 0.189062)
(8.22706 0.0232658 -0.00256776)
(8.3015 -0.0452706 0.0100188)
(2.87528 2.88275 0.000987943)
(8.1782 0.0202994 -0.00164979)
(3.03281 2.45115 0.175357)
(2.78209 -2.74743 -0.00300126)
(8.3917 -0.0268605 0.0671188)
(8.1546 0.0274079 0.0144474)
(8.33722 -0.00860565 0.0192929)
(8.18051 0.0221921 -0.00209443)
(2.75751 2.44092 0.151193)
(3.58775 3.08401 0.199322)
(2.86391 2.86694 -0.0042774)
(8.16753 0.0264781 0.0106808)
(8.15362 0.0217108 0.00155998)
(8.32408 0.152387 -0.052975)
(2.83782 2.8306 0.00516982)
(5.69496 5.03628 -1.21154)
(7.80721 0.076337 0.0704939)
(8.30901 -0.0367976 0.0200755)
(8.1696 0.0289417 0.0176738)
(7.78196 0.795997 -0.065398)
(8.28714 0.0195547 -0.0222287)
(2.86032 2.85903 0.00159137)
(8.2876 0.0212221 -0.0158099)
(7.97554 0.0104474 0.0154786)
(8.39225 -0.192909 -0.00156413)
(8.41713 -0.0501477 0.102286)
(8.1189 -0.06287 -0.0575124)
(2.85654 2.87074 -0.0101471)
(2.77138 -2.77507 -0.00458972)
(2.87565 2.85815 0.0112122)
(2.75495 -2.76278 -0.000681908)
(8.28553 -0.0366587 0.000329773)
(8.2132 -0.00858705 0.0020606)
(8.22988 0.0365061 -0.0311997)
(8.28422 0.021085 -0.0244887)
(2.84619 2.84951 -0.0120395)
(8.19884 -0.0574937 -0.0202283)
(2.86742 2.86764 0.00200583)
(2.76653 -2.77412 -0.000167899)
(8.2837 0.0233551 -0.0177347)
(2.5567 -2.55948 0.0364278)
(4.57312 -0.842039 -0.0567857)
(2.74355 -2.7333 0.00187647)
(2.89401 2.85592 0.0230066)
(8.20882 0.0122121 -0.00989275)
(2.86879 2.8671 0.00119005)
(8.10571 0.0166769 -0.00681073)
(7.73536 0.00406038 -0.0329352)
(2.87474 2.87495 -0.000617269)
(7.46251 -0.00391053 -0.0345692)
(8.07302 0.0132243 0.0106871)
(2.89117 2.53407 -0.0946017)
(8.03169 0.0374762 0.041743)
(7.63427 0.0375659 -0.00323766)
(8.08498 0.0339407 0.0118979)
(7.54787 0.0288437 0.0957851)
(8.14832 0.0190483 0.00433499)
(7.818 0.00348546 -0.010928)
(2.83726 2.42139 -0.0120907)
(2.76659 -2.76104 0.0162764)
(6.99978 0.0111697 0.163179)
(2.85016 2.85929 -0.0160273)
(8.0755 0.0381415 0.0399658)
(8.39888 -0.041578 0.0826543)
(2.88328 2.75455 0.0235925)
(2.86306 2.8754 -0.00179508)
(8.26148 -0.0125499 0.00510159)
(7.97073 -0.0366175 -0.077894)
(7.98849 0.0372356 0.00258975)
(8.28519 0.0227996 -0.00961449)
(2.87039 2.86686 -0.000429136)
(8.43293 -0.0217397 0.134722)
(8.30338 -0.0271183 0.0391135)
(2.879 2.87421 1.57215e-05)
(8.13186 0.127231 0.104217)
(7.76982 -0.0302453 -0.0815208)
(2.77179 -2.77193 -0.000190724)
(2.76802 -2.76794 0.00025263)
(8.09137 0.0184614 -0.00763878)
(8.15191 0.0067246 -0.0117609)
(2.88127 2.88126 -0.00381717)
(2.77428 -2.76841 -0.00408883)
(4.87446 -2.63313 0.597519)
(2.77786 -2.77999 0.000650799)
(8.1558 -0.00203694 0.0132786)
(2.85072 2.86101 0.00631241)
(2.77865 -2.77994 0.000315543)
(8.34108 -0.00778881 0.0266969)
(7.57323 -0.0881246 -0.216278)
(8.25027 -0.0462247 0.0101865)
(7.98352 -0.00257785 0.0148381)
(2.87686 2.87436 0.000424171)
(3.72886 2.87065 0.145708)
(7.98013 0.10554 0.156122)
(3.493 3.0775 0.164332)
(7.95676 0.0344165 0.060681)
(7.91988 -0.0626211 0.00653508)
(8.26578 -0.0250741 -0.0212798)
(5.7542 0.15976 0.217718)
(3.4286 2.95247 0.150378)
(8.23439 0.0100692 -0.0789213)
(8.37304 0.262134 -0.0778702)
(2.77406 -2.77884 0.00550276)
(8.34012 0.0207967 -0.0804397)
(8.34177 -0.0358494 0.0310359)
(2.77915 -2.77833 0.00311685)
(8.04859 0.448345 -0.242615)
(7.06592 -0.00102904 -0.0933685)
(3.62734 2.84886 0.12181)
(8.30963 -0.0153919 0.0310198)
(8.21144 0.012013 -0.00932883)
(8.14969 0.0178612 -0.00692599)
(2.87019 2.86667 -0.000573426)
(8.1106 -0.0169952 0.0556505)
(8.34551 -0.000971195 0.0257056)
(8.0799 0.0745253 -0.00871555)
(5.09414 -0.0716106 0.083247)
(3.49361 3.29297 -0.0680918)
(4.80711 -0.122646 0.162563)
(2.77346 -2.77743 0.00218169)
(7.50565 -0.255633 -0.244465)
(8.11317 -0.0185266 -0.0539008)
(2.87105 2.86895 0.00396495)
(7.75347 0.0167925 -0.0556284)
(6.39852 -0.0162854 0.11588)
(3.7254 3.29315 -0.0341734)
(2.77595 -2.774 0.000518074)
(3.24865 -2.76081 0.0887032)
(2.77816 -2.77714 -5.37329e-05)
(8.07983 0.0512433 -0.0059671)
(8.14092 0.0397118 -0.0129323)
(8.08622 -0.0208117 -0.0204703)
(7.61268 0.0185994 -0.0371925)
(8.27435 -0.163541 -0.0345754)
(2.86825 2.85605 -0.0053103)
(8.03738 -0.00130726 -0.0142641)
(2.7846 -2.7633 5.03058e-05)
(7.95177 0.0280531 0.0196181)
(2.87915 2.88013 -0.000328925)
(2.77663 -2.77426 -8.59852e-06)
(2.74756 -2.75451 -0.00374977)
(7.82538 -0.0478581 0.0105603)
(2.76519 -2.76727 -0.00200406)
(2.77761 -2.77811 0.0013235)
(2.8327 1.87659 -0.11905)
(2.77865 -2.78015 0.0010216)
(2.83882 2.87821 0.0269084)
(8.01136 -0.0305922 -0.01235)
(2.87079 2.86662 0.000434305)
(3.4042 2.51167 0.00333471)
(2.87194 2.87286 0.00357801)
(2.76738 -2.75786 -0.000883568)
(2.87102 2.86031 -0.0046385)
(2.76637 -2.7521 -0.013787)
(2.85339 2.85577 -0.000150095)
(7.3168 -0.00618937 -0.0541851)
(2.87497 2.86093 0.0116722)
(7.48075 0.109205 0.150986)
(8.1846 0.0141797 -0.00417141)
(8.43079 -0.340735 -0.0562048)
(2.87579 2.8646 -0.000609694)
(7.13015 0.0199702 0.116319)
(2.87513 2.86561 0.00285888)
(2.7786 -2.77972 -0.00135746)
(8.04708 -0.0752759 -0.0813955)
(8.06226 -0.0608806 -0.0730174)
(8.08935 -0.016171 -0.0200472)
(8.45786 0.0201021 -0.140535)
(3.30357 2.77541 -0.0912721)
(8.2805 0.00856513 -0.0435945)
(8.27588 0.0134069 -0.0389999)
(8.16238 0.0113355 -0.000841834)
(8.05027 0.00730132 0.00322476)
(8.17983 -0.0803412 -0.0547018)
(2.7667 -2.76737 -0.000745846)
(8.17173 0.00898633 -0.00184635)
(3.76395 3.27596 -0.0253121)
(8.16151 0.0206328 -0.0104699)
(2.8669 2.86444 -0.00249121)
(8.30654 0.0260483 -0.036734)
(3.72074 3.08734 0.0284647)
(8.17968 0.00300175 -0.0118422)
(8.2216 -0.0377443 0.0301121)
(3.20163 -1.62709 -0.0167906)
(2.87111 2.87329 0.0316544)
(8.05915 0.0118905 0.0160523)
(2.77528 -2.77427 0.000231535)
(8.34129 0.0326981 -0.0539706)
(8.28078 0.0323033 -0.0334552)
(2.86814 2.86015 -0.0229032)
(2.86188 2.86161 0.00667632)
(2.80741 2.51414 -0.0560551)
(2.86828 2.87089 0.00116634)
(5.78214 -0.312322 0.160385)
(8.34543 0.0284945 -0.0505668)
(2.9118 2.8427 -0.0026797)
(2.86495 2.86849 0.00247865)
(7.17244 0.00959711 -0.0161965)
(2.87262 2.87314 -0.000542845)
(8.21941 0.0229576 -0.0275851)
(2.87062 2.87005 0.00125958)
(8.13535 -0.0470182 -0.0346279)
(2.77884 -2.77904 0.000874666)
(7.64163 -0.0383704 -0.11164)
(6.35177 -0.0248208 0.0047147)
(7.68694 0.0206334 -0.0149816)
(8.18167 0.00497553 -0.0135099)
(2.88205 2.85993 -0.0088733)
(7.48415 0.00973552 -0.00485571)
(2.87639 2.86577 0.00276573)
(2.87163 2.87247 -0.00800502)
(8.10437 -0.0206102 -0.0100435)
(2.86877 2.86511 -0.00281113)
(6.93401 -0.0049973 -0.072451)
(2.76833 2.54644 -0.0844767)
(8.22974 0.0216383 -0.0245278)
(2.76927 -2.76979 5.61537e-05)
(8.29649 0.0161382 -0.0192022)
(2.78041 -2.77814 -0.000299256)
(3.41332 3.01653 0.0885073)
(8.40212 0.306293 -0.0228992)
(8.05497 -0.0682305 -0.0835968)
(8.18655 0.0340555 0.000161979)
(8.2411 -0.0892335 -0.0583741)
(8.15072 0.0150283 -0.00782214)
(8.32398 -0.0543852 -0.00575698)
(2.85042 2.87274 -0.013174)
(8.18001 0.0474397 0.0254535)
(8.08798 -0.0798626 -0.0796488)
(2.87052 2.87093 -0.00131224)
(6.89653 -0.102768 -0.259761)
(8.3705 -0.0626521 -0.0412848)
(8.03705 0.0337157 0.031191)
(2.83772 2.79965 -0.0163303)
(3.54088 0.685846 -0.57317)
(7.86813 0.0193775 0.0258418)
(6.45908 -0.0262572 0.0646693)
(6.66032 1.69835 -0.0134551)
(3.59029 -1.83725 -0.146416)
(8.3071 -0.0921455 -0.0193807)
(7.81135 0.0287086 0.0574209)
(8.04772 -0.0740868 -0.0812038)
(8.20681 -0.0444655 -0.0171487)
(8.06733 0.0446909 0.0205694)
(7.16569 0.916066 -0.0400611)
(3.55424 3.01084 0.0247444)
(7.29703 -0.282279 0.0701829)
(7.05538 -0.627051 0.142895)
(2.77293 -2.7749 0.00142535)
(7.22688 0.0487581 -0.0215271)
(2.88556 2.83181 -0.0154449)
(3.37069 3.06293 0.0292368)
(8.14348 0.0138668 -0.00222235)
(7.21929 1.20781 -0.0397385)
(8.70233 -0.750145 -0.137318)
(7.85302 -1.36729 0.0310403)
(3.36245 3.1941 -0.238401)
(8.27556 -0.0491379 -0.0159013)
(8.17104 0.0463345 0.0371866)
(2.86489 2.85607 -0.000685892)
(3.70308 2.04666 -0.0866161)
(8.16971 0.0612838 0.0392439)
(2.7768 -2.76655 0.00256646)
(2.86905 2.86794 -0.000447831)
(2.86111 2.86031 0.000133751)
(2.87429 2.85813 0.00327597)
(8.27106 -0.0830122 -0.0364323)
(2.8707 2.86975 0.00158831)
(2.78577 -2.78543 0.0143946)
(8.12854 -0.0479495 -0.0386571)
(7.53502 -0.000364509 -0.0204273)
(4.07217 -3.56864 -0.187869)
(8.17034 0.0596088 0.0375951)
(3.34574 2.69863 0.0614936)
(8.19571 -0.0287935 -0.0157272)
(2.72221 -2.72073 -0.012125)
(2.86404 2.86969 -0.00251028)
(8.25501 -0.0508072 -0.0148271)
(2.86923 2.85307 -0.0109516)
(2.87057 2.86421 0.00159112)
(3.29202 3.14957 0.0912843)
(7.8041 -0.00711571 -0.00239382)
(4.73963 3.966 -0.528366)
(8.1389 -0.0329303 -0.015057)
(8.13989 0.0131499 -0.00325303)
(2.75136 -2.7338 -0.0219964)
(8.45834 -0.0250438 0.267623)
(7.74092 -0.0462289 -0.113304)
(8.10989 0.000222583 -0.00446478)
(8.21417 0.148931 0.015733)
(8.25051 0.0774552 -0.17803)
(7.13542 0.00189464 -0.0637775)
(2.86521 2.86232 0.00235128)
(8.27069 0.00655026 0.0246271)
(8.20585 0.0347498 -0.00646495)
(2.74934 -2.78551 0.00489928)
(7.67346 -0.00249763 -0.00515916)
(8.28095 0.0524739 -0.0115506)
(8.27886 0.0371931 -0.013018)
(7.5679 -0.0333365 -0.0706751)
(8.27714 0.0358482 -0.0143186)
(8.28015 0.0437431 -0.00406353)
(2.78088 -2.74425 0.0170597)
(8.28709 -0.0154476 0.039656)
(6.86614 -0.0428894 -0.0143388)
(3.46128 3.00508 0.19056)
(8.27536 0.0297492 -0.0190561)
(7.91198 0.00796404 -0.0183617)
(4.61574 3.75319 -0.56997)
(8.144 0.0111806 -0.00210858)
(8.28032 0.0236958 -0.0254959)
(7.91466 0.00206819 -0.0323169)
(8.21565 0.0341458 0.00319888)
(8.12071 0.0852557 0.0391342)
(8.15537 0.00717038 0.000102499)
(2.80735 2.74331 0.0037222)
(8.21502 0.0422902 0.00154619)
(7.71669 -0.0498735 -0.102047)
(3.10548 -1.87682 0.0714081)
(8.1744 0.0757137 0.0471484)
(8.07207 0.0733861 0.0717605)
(8.17872 0.0180863 -0.00167877)
(2.86607 2.85892 0.00269389)
(7.94721 0.0429933 -0.072541)
(2.77631 -2.76392 0.00737374)
(2.86972 2.87037 -0.00148761)
(2.85456 2.83492 -0.00124988)
(2.87633 2.8592 0.00114325)
(6.93751 0.00399752 -0.0292319)
(3.42475 2.94425 0.12094)
(6.17511 -0.443546 0.510743)
(2.76108 -2.76299 -0.00060096)
(2.86367 2.90298 -0.00479368)
(8.1854 0.0785677 0.0439473)
(8.23437 0.0199827 -0.0366797)
(2.77826 -2.77748 0.000395428)
(8.24048 -0.0493397 -0.00540191)
(2.77641 -2.77431 0.00821987)
(2.77808 -2.7762 -0.000855184)
(2.73196 -2.73276 0.00879492)
(8.35941 -0.0644206 -0.00913821)
(7.01469 0.040155 -0.0194804)
(3.38958 3.05052 0.0368564)
(2.80391 -2.77281 0.00730575)
(2.86666 2.87619 -0.00372255)
(2.86861 2.87214 -0.00161974)
(8.41705 0.0175363 -0.0932291)
(8.16243 0.0133352 0.000411233)
(3.4141 3.20921 0.148667)
(8.32265 0.0242927 -0.0443053)
(7.751 -0.10971 -0.320953)
(2.86435 2.8664 -0.000519131)
(8.30152 0.021082 -0.0388808)
(7.62242 0.00490953 0.0407431)
(8.07031 0.0398591 -0.0470292)
(2.87438 2.87327 -0.000232415)
(2.86659 2.86373 2.5677e-05)
(8.02825 0.0380459 0.0464965)
(8.18868 0.0160111 -0.00224511)
(3.39683 3.08667 0.0483699)
(2.85783 2.85895 -0.000252026)
(2.90402 2.81256 -0.0106097)
(8.1496 -0.0179218 0.00597874)
(2.77417 -2.77403 -0.00332229)
(2.76894 -2.75886 0.00185814)
(2.85451 2.85397 0.00290963)
(8.29922 0.0240254 -0.0344815)
(7.29767 -0.0359483 0.0120361)
(2.87343 2.87373 0.000100555)
(3.20237 0.617221 0.573662)
(3.5074 -0.395569 -0.13452)
(8.02369 0.0399252 0.000597536)
(2.86516 2.87072 -0.00148445)
(2.87082 2.8657 -0.00204157)
(8.31959 -0.101268 -0.0151197)
(7.98426 0.135604 0.126761)
(3.44469 3.07471 0.147147)
(5.02581 1.61833 0.117673)
(7.86925 0.164197 0.229785)
(7.54695 0.0212055 -0.0513827)
(8.01582 0.0055793 -0.00321922)
(2.96747 2.78484 -0.00649211)
(7.96482 0.0224558 -0.0045925)
(8.25265 -0.0544288 0.0578074)
(2.8751 2.86791 -0.00342927)
(2.7559 -2.70764 0.00414061)
(2.85507 2.85629 0.000257068)
(2.86481 2.86461 -0.000424229)
(2.87019 2.87502 -0.00306825)
(2.87454 2.87476 -0.000409596)
(8.31584 0.0227718 -0.0360969)
(2.77573 -2.77522 0.00225415)
(2.86302 2.86323 0.000782203)
(2.85384 2.81703 -0.00316112)
(8.32272 0.0249045 -0.0448972)
(8.18578 0.0147214 -0.00243614)
(2.78782 -2.75117 -0.001129)
(2.74333 -2.71323 0.00555437)
(8.38552 -0.038547 0.070878)
(7.97458 0.00228043 0.0106371)
(7.96275 0.00692714 0.0140203)
(2.77609 -2.7691 -0.00160093)
(2.86055 2.86236 0.00188114)
(7.96986 0.00502051 0.0131307)
(2.77773 -2.77536 0.000365273)
(7.88129 0.0210475 0.00242892)
(8.03656 0.0186711 0.0262387)
(8.05918 0.0183664 0.016592)
(2.78694 -2.76589 0.00718034)
(2.77723 -2.7789 0.000786611)
(2.77707 -2.77895 2.42738e-05)
(2.87093 2.87201 0.000876078)
(8.15274 -0.0365599 -0.0209766)
(2.868 2.87203 0.00250158)
(2.86252 2.85897 0.00029656)
(8.13115 0.0243617 -0.0341397)
(2.77749 -2.77878 0.00116102)
(8.00484 0.00159764 0.0094116)
(7.3162 -0.0641399 0.0235623)
(2.8876 2.78928 0.0152128)
(8.17249 0.0144931 -0.00478808)
(3.84981 0.567917 -0.0907434)
(8.07937 0.0071409 0.00334722)
(8.346 -0.0256384 0.0181472)
(7.40171 0.027804 0.0095501)
(8.35403 -0.00330584 0.0536732)
(6.04817 0.124917 -0.234977)
(3.42083 2.73321 0.057008)
(8.06227 0.00416887 0.00296155)
(8.38373 0.0633089 0.0110459)
(8.16694 -0.0156714 -0.00633483)
(2.94016 2.5546 -0.0870995)
(3.7001 0.35608 -0.191147)
(4.37617 -0.332894 0.154089)
(8.06983 0.00840027 0.00149028)
(2.86154 2.8654 0.00374364)
(7.92042 -0.018646 -0.0566685)
(8.09091 -0.0084308 -0.0148642)
(7.85038 -0.0665216 -0.123384)
(3.029 -2.15166 -0.160392)
(2.77816 -2.77943 0.00134044)
(2.77482 -2.77512 -0.000243514)
(8.20767 -0.0230575 -0.000727332)
(3.34908 2.77199 -0.0368017)
(7.82235 0.0263924 0.00858984)
(3.11456 2.83879 0.0386817)
(7.77485 -0.0176835 -0.0533367)
(8.01027 -0.0140427 0.00549385)
(7.91194 -0.00930892 0.0179753)
(8.18657 0.0171187 -0.00410433)
(2.86175 2.86187 -0.000623779)
(2.84927 2.84184 -0.00541392)
(2.96531 -2.70466 0.0129783)
(8.16829 0.0192234 -0.00137944)
(2.87444 2.8666 -0.00110908)
(3.31789 2.84992 -0.128315)
(8.37516 0.159144 -0.134918)
(2.87939 2.87558 -0.00215044)
(2.85659 2.86988 0.00871314)
(2.76168 -2.7531 -0.00512829)
(2.87258 2.87344 0.00109334)
(7.83381 -0.00306062 0.0194413)
(2.9289 2.78069 0.00466469)
(2.87143 2.86853 0.0010452)
(6.63932 0.933458 -0.665286)
(3.36307 2.71661 -0.0369599)
(2.85712 2.85925 -0.0239481)
(3.98734 -2.35756 0.145503)
(2.8695 2.86571 -0.00355245)
(6.44641 0.0239903 -0.054098)
(7.99571 -0.0107176 0.0163542)
(2.76597 -2.76646 -0.000906061)
(7.85606 0.00950791 -0.0224732)
(7.90755 1.27161 -0.171441)
(7.79292 -0.0735957 -0.123863)
(8.56416 0.313719 0.0040185)
(7.74359 0.00533666 -0.00981121)
(2.86783 2.84857 0.00850437)
(8.07901 -0.0738907 -0.0842274)
(8.3749 -0.0250835 0.0167985)
(7.78927 -0.0742499 -0.123991)
(2.77544 -2.7752 -0.000851996)
(8.48179 2.21637 0.595026)
(7.81306 0.0138595 0.0124595)
(3.82974 3.05092 -0.182365)
(7.75969 0.000487797 0.0083708)
(8.45358 0.10375 -0.0802583)
(8.0791 0.162041 0.00812994)
(8.00852 -0.0218353 -0.0296547)
(8.00284 0.0267128 -0.00103947)
(8.52236 0.123128 -0.0457705)
(8.19547 -0.00929199 -0.0120897)
(8.13489 -0.00748039 0.00650146)
(2.84624 2.85656 0.0108827)
(2.85699 2.84253 0.00867516)
(7.86221 0.0199373 0.00764439)
(7.74212 0.0086275 0.00839988)
(2.86382 2.87076 -0.00164364)
(7.96712 0.00765892 -0.000724024)
(8.33792 -0.0356211 0.0071002)
(8.14851 -0.0148728 0.00568109)
(2.86908 2.83915 -0.00145165)
(8.05026 0.163043 0.0362315)
(2.86246 2.85944 -0.000228971)
(8.13844 -0.0077495 0.0059022)
(8.15714 -0.00783331 0.00458895)
(2.86899 2.86756 -0.00059543)
(7.79735 0.0359652 -0.0333564)
(8.1373 -0.00378994 0.000578563)
(8.01866 0.150686 0.0125869)
(7.87323 0.000956382 0.0294026)
(2.92904 2.8729 -0.00440649)
(8.23196 -0.0204521 0.0232151)
(8.0441 0.184575 0.00132751)
(8.48552 -0.20323 0.0552173)
(7.15475 0.0905585 0.0236769)
(6.41125 0.0202529 -0.0884228)
(2.87087 2.84143 -0.00502209)
(2.86148 2.85892 0.00277306)
(7.91554 0.106247 0.0133828)
(2.87282 2.87344 -0.00104457)
(6.94307 -0.0191897 -0.0226673)
(7.94144 -0.0407693 -0.0589296)
(4.83307 0.662976 -0.179781)
(8.81058 -0.569668 0.212228)
(7.77174 -0.352515 0.101735)
(8.65113 -0.314809 0.085048)
(2.87179 2.87253 -0.000582078)
(3.90056 3.31026 0.0288858)
(8.20404 0.0176501 -0.00765433)
(2.76357 -2.7741 -0.00971937)
(1.54303 -1.08318 0.44523)
(8.12354 -0.150279 -0.117294)
(2.85951 2.85159 -0.00527985)
(2.87463 2.87041 8.69877e-05)
(7.27025 -0.143935 -0.00559151)
(5.92957 -0.38609 0.0820755)
(2.87264 2.87355 6.83081e-05)
(7.35073 -0.137668 0.0239891)
(2.86055 2.85765 0.0020418)
(2.8692 2.87394 -0.00518172)
(2.77472 -2.77557 3.74506e-05)
(2.77841 -2.77227 0.00548118)
(2.72358 -2.69997 0.00799735)
(2.77272 -2.76657 -0.000356212)
(7.35996 0.0592564 -0.0272634)
(2.84722 2.82846 -0.00261221)
(2.8681 2.86898 0.00103818)
(2.85174 2.86689 0.00446248)
(6.8433 -1.51726 -0.39739)
(7.74098 -0.0644181 -0.140162)
(7.51274 -1.99585e-05 -0.0739828)
(8.20479 0.0160649 -0.00719143)
(2.85372 2.83509 -0.000226114)
(2.88143 2.87023 -7.97519e-05)
(7.87248 -0.133398 -0.161448)
(2.86943 2.87138 -0.0031231)
(2.86901 2.86558 0.00015405)
(4.58827 2.62314 0.0931512)
(8.37704 -0.111051 -0.00261683)
(8.19229 0.018627 -0.00528606)
(2.86737 2.86611 -0.000464805)
(2.86546 2.85989 0.00488178)
(2.85468 2.84567 -0.0037711)
(2.85934 2.85285 -0.000149079)
(2.87188 2.87012 -0.00279834)
(2.87839 2.87138 0.00135495)
(8.19853 -0.189047 -0.118126)
(2.87531 2.86682 -0.000408942)
(5.69092 0.081239 0.192121)
(8.27245 -0.0184153 0.0220546)
(2.86854 2.8733 -0.00103331)
(2.75558 -2.76756 -0.00740091)
(2.73732 -2.70911 0.00248111)
(6.9432 0.0832495 0.378098)
(2.71763 -2.71495 -0.0103816)
(2.77351 -2.77618 0.0025381)
(2.85268 2.85702 -0.0180814)
(7.43722 -0.11589 0.00621451)
(2.85952 2.85865 -0.000370286)
(8.15766 -0.104329 -0.066048)
(6.54246 0.0982557 -0.0366956)
(5.35386 0.00577394 0.216637)
(2.86016 2.86212 0.000946522)
(5.60149 -1.44854 0.116861)
(8.22247 -0.0152564 0.00380811)
(8.27333 0.0209408 -0.0193238)
(2.97979 -2.84507 -0.0327556)
(7.96695 -0.129721 -0.0211185)
(8.1261 -0.0154387 -0.00872773)
(2.77909 -2.75884 0.00257259)
(2.96834 2.8128 0.012581)
(3.90848 -3.01695 -0.251111)
(2.85221 2.85253 0.000315343)
(8.20606 0.0133368 -0.0025092)
(8.21215 -0.0076868 0.0102328)
(8.35169 -0.101239 0.0414375)
(5.48566 -0.00596296 0.303045)
(2.87412 2.87257 -0.000512877)
(8.20791 0.0137068 -0.00342577)
(2.94621 2.80194 -0.00681506)
(3.59314 3.03532 -0.0130752)
(3.72485 -2.90394 -0.118617)
(2.86905 2.86873 0.00110441)
(8.23458 0.0219456 -0.00360829)
(2.85865 2.85295 0.00159669)
(2.7456 -2.69587 0.00104155)
(7.52566 -0.102038 -0.187)
(8.0784 -0.0176847 0.00584126)
(2.74778 -2.70215 -0.00673107)
(8.10675 0.0131269 -0.00432753)
(3.05744 2.98966 -0.0180226)
(8.23186 -0.0693844 -0.0355364)
(2.6956 2.57469 0.0264787)
(2.87139 2.87239 -0.000733785)
(2.88385 2.8741 0.00962997)
(2.77862 -2.77971 0.000869155)
(7.97457 0.00901767 -0.0112039)
(7.18752 0.0141842 -0.0310608)
(8.25655 -0.0309857 0.179268)
(2.8569 2.86008 0.00122281)
(2.85156 2.79907 0.0193832)
(7.93905 0.0105344 -0.0105129)
(2.87243 2.87279 -0.00114793)
(3.34074 3.01915 0.0407088)
(2.77606 -2.77432 0.00067401)
(7.89614 0.0486026 -0.00538538)
(8.40301 -0.207447 -0.0598742)
(8.21846 0.0194974 -0.00789934)
(2.77102 -2.76639 0.00664484)
(6.51551 -0.0105923 0.182147)
(6.80231 0.00656214 0.176035)
(2.57871 2.27262 0.0162159)
(7.35313 0.0951356 0.149866)
(2.87363 2.85797 0.00350263)
(7.77702 0.0703486 -0.00776315)
(8.33302 -0.0141677 0.0485724)
(8.08012 0.00877036 -0.0148531)
(8.34484 -0.103801 0.0121827)
(7.6666 -0.167889 -0.234173)
(2.87196 2.86862 0.000344368)
(2.87151 2.87183 0.000115799)
(2.865 2.86871 -0.000926808)
(6.72711 0.0648769 0.242403)
(2.84338 2.81874 0.00332256)