/*--------------------------------*- C++ -*----------------------------------*\
  =========                 |
  \\      /  F ield         | OpenFOAM: The Open Source CFD Toolbox
   \\    /   O peration     | Website:  https://openfoam.org
    \\  /    A nd           | Version:  10
     \\/     M anipulation  |
\*---------------------------------------------------------------------------*/
FoamFile
{
    format      ascii;
    class       volScalarField;
    location    "79";
    object      SgP;
}
// * * * * * * * * * * * * * * * * * * * * * * * * * * * * * * * * * * * * * //

dimensions      [1 -1 -3 -1 0 0 0];

internalField   nonuniform List<scalar> 
59698
(
0.00309496
0.00183544
0.00231272
0.00271405
1.1419e-06
0.00145199
0.00249699
1.07226e-07
1.99027e-09
3.93639e-09
0.000586478
1.77484e-09
1.587e-09
0.00228614
2.77602e-08
4.27333e-07
9.40613e-09
3.8175e-09
1.61537e-09
5.94474e-10
0.000365623
1.5602e-06
0.00049992
8.81923e-08
2.0251e-07
1.20143e-09
1.17016e-09
0.00248171
0.00239427
2.1542e-09
1.3542e-07
0.000600626
6.68747e-08
0.00403449
1.11025e-06
3.81777e-09
0.000464823
5.03471e-07
1.73548e-08
0.00245253
2.96085e-08
2.3047e-07
2.30957e-08
2.46545e-08
0.000402108
1.04906e-07
2.68216e-09
4.88741e-08
0.0029084
3.14355e-08
2.96553e-10
2.34154e-09
0.00172824
0.00272941
0.00216806
2.03838e-09
8.45249e-08
1.55456e-08
1.77009e-08
2.75567e-05
0.00178288
6.27594e-08
1.9903e-07
1.51491e-09
5.00539e-07
4.16091e-08
1.75101e-09
3.24294e-09
4.19744e-09
6.76745e-09
6.08591e-07
2.78975e-08
0.00035982
1.77163e-06
0.000411949
1.11534e-06
2.15477e-08
2.21485e-08
6.39169e-09
1.00873e-08
4.7743e-07
9.81448e-10
3.97296e-09
8.04699e-09
1.68736e-05
3.14379e-08
9.15573e-09
2.22063e-07
2.32905e-06
2.31917e-08
4.5211e-09
6.35906e-08
1.73732e-07
6.56764e-09
6.05616e-08
0.00359103
1.3466e-07
6.19237e-08
5.22728e-08
8.59803e-10
0.00353617
2.08148e-05
2.9549e-07
0.00329328
5.37801e-08
0.000564777
2.32243e-09
2.30454e-09
2.64848e-09
4.40305e-10
3.73685e-08
2.62066e-06
1.34905e-06
1.56281e-07
9.7607e-08
3.45604e-08
3.49149e-07
0.00353382
2.92713e-07
1.15168e-08
2.2741e-09
2.97872e-07
2.25402e-07
3.43487e-09
1.62814e-09
7.67208e-09
8.36426e-09
7.20803e-09
1.29875e-08
3.86442e-07
0.00335627
3.86418e-09
1.1069e-09
1.86844e-07
6.47872e-08
3.24183e-09
4.91689e-07
2.58597e-10
1.73528e-09
5.70461e-09
2.0854e-08
0.00231721
0.00252086
1.5827e-09
1.90719e-07
7.94727e-10
5.35087e-07
3.7885e-07
0.00448817
7.09171e-07
0.000257322
0.000434377
2.79987e-08
2.54746e-07
9.6528e-09
1.04538e-07
7.45024e-09
0.00162892
6.72292e-08
5.48324e-10
3.08643e-09
7.69545e-09
2.20149e-08
9.66569e-08
1.88209e-08
0.00222894
1.05976e-09
0.000567003
0.00152532
6.92017e-09
2.56033e-07
1.46553e-06
2.18278e-07
9.27795e-07
5.76531e-07
0.00121907
4.36372e-09
0.0013956
0.000326011
0.0029327
2.25427e-06
7.44578e-07
4.01152e-07
1.12391e-08
2.51639e-07
6.97988e-08
3.70358e-07
0.00238055
1.36922e-10
1.81683e-08
6.46065e-09
7.04043e-09
2.31021e-08
6.05934e-07
1.22172e-07
0.0041674
1.76321e-06
0.00294455
1.26216e-05
9.04885e-08
0.00022709
6.74241e-07
1.4847e-09
2.57454e-09
0.00356811
0.00244687
3.54443e-08
0.00205809
0.00270787
0.00350363
0.00242675
6.10682e-09
0.0026273
1.56807e-08
2.34446e-09
0.0033671
9.87554e-09
4.54674e-08
1.54822e-07
4.65445e-09
1.37257e-05
0.00217444
1.72966e-09
5.09377e-07
8.93354e-09
0.00274713
2.12772e-08
5.49243e-09
4.86746e-08
6.90022e-07
7.57481e-09
1.87098e-08
7.4323e-09
1.13718e-08
9.53139e-09
9.00802e-09
3.07081e-07
1.95665e-08
1.76486e-07
8.18868e-09
0.00261371
1.18917e-07
3.46257e-08
0.000664542
8.73566e-09
2.15198e-07
2.30015e-05
3.56187e-06
5.29215e-09
4.93452e-09
6.15996e-08
6.55169e-09
3.10126e-08
0.000233554
1.9193e-08
0.001699
1.09974e-07
5.38866e-08
0.00314713
2.87048e-09
7.03741e-06
1.83995e-09
7.83869e-09
0.00270864
0.003578
8.55229e-07
1.09026e-09
1.06677e-07
1.98306e-08
6.01626e-10
3.12702e-09
1.53254e-06
6.89413e-05
6.64559e-10
1.2382e-07
5.01429e-08
0.0014658
3.98189e-08
2.92812e-09
1.22414e-09
0.000574131
1.77768e-09
1.66339e-09
4.67612e-07
0.00334965
1.02672e-07
5.27112e-09
0.000647419
3.83972e-07
1.00986e-07
2.75685e-06
0.00232507
9.27416e-09
1.35425e-09
7.0372e-07
0.00273237
4.72958e-10
1.52268e-07
1.45031e-08
6.42295e-07
3.07349e-09
2.26915e-09
6.8669e-08
5.75544e-10
1.0904e-09
1.16472e-09
3.62916e-07
2.19461e-08
5.34462e-09
5.26309e-10
0.00190118
4.10897e-08
3.95083e-09
2.37998e-08
0.00191499
5.44295e-09
0.00040339
8.31689e-09
0.000829308
8.51784e-08
9.53117e-08
2.79136e-07
1.67517e-08
2.93023e-09
1.86845e-06
2.54785e-07
1.60958e-08
8.70369e-09
4.25403e-10
0.000361923
0.00289895
4.02044e-08
3.59353e-07
2.40418e-06
0.000430954
1.03294e-08
7.76037e-09
4.29232e-09
1.40042e-07
0.00122089
2.13423e-08
0.00206214
0.00250596
4.95015e-09
9.99082e-08
1.36023e-09
2.64122e-10
1.25085e-06
1.36085e-09
0.00203385
9.26344e-10
1.38815e-08
1.23346e-06
7.96109e-10
9.40257e-07
0.00191636
2.75169e-06
1.43884e-08
3.29015e-08
1.82507e-09
2.10066e-08
1.08321e-08
1.10643e-07
3.59335e-09
1.20464e-10
1.04127e-07
0.00279685
0.00201717
2.8358e-08
9.82792e-07
1.13314e-07
0.000533997
0.00366891
0.000651132
2.08797e-08
2.97693e-09
3.6333e-08
2.0413e-09
0.000460554
2.48665e-09
0.000347123
4.46148e-08
4.3197e-08
5.15484e-08
8.55463e-10
6.77499e-06
1.09286e-08
0.000544828
8.59234e-10
3.37164e-08
2.09774e-08
0.000457473
0.00330047
3.31336e-09
5.36623e-05
0.00179776
3.56781e-06
0.00182709
0.00269785
8.14934e-08
0.00243867
0.00236492
0.00257384
5.41693e-09
0.00148345
0.00417841
0.00384024
0.00276301
5.97598e-09
8.26034e-07
1.8799e-07
0.000404301
0.00163744
0.000434527
4.73494e-10
2.07099e-07
2.01961e-09
2.29719e-06
0.00189691
0.00175572
0.00292199
0.00218233
0.00249157
0.00166282
7.82761e-09
2.05398e-09
7.79255e-09
1.39536e-08
0.00138449
5.79516e-10
7.79985e-09
0.0019625
0.00116496
2.34675e-08
3.69483e-08
1.40768e-08
1.38858e-08
0.00126126
3.34269e-09
0.00211833
1.92326e-07
0.00321065
5.14603e-09
4.40039e-08
1.86289e-07
2.02956e-06
8.71352e-08
4.50809e-10
2.14897e-09
1.29343e-07
0.00254333
6.60659e-09
7.2294e-08
1.96809e-06
6.09873e-07
1.15142e-07
3.41103e-07
1.41427e-09
1.1519e-06
1.65067e-07
6.10412e-08
4.60324e-09
0.00320777
6.48146e-09
2.1931e-09
2.03506e-07
3.50843e-07
9.2901e-09
4.36372e-08
6.17142e-09
0.00247466
4.39323e-09
2.11075e-10
6.8837e-09
6.28966e-08
2.03095e-06
8.17207e-07
2.17244e-09
0.00300894
0.00194625
2.34551e-08
2.20107e-07
1.59872e-08
1.92786e-08
2.52432e-07
4.12153e-08
4.4484e-08
1.97474e-08
1.67699e-09
1.64554e-09
2.49831e-07
4.09322e-07
3.8005e-10
4.24016e-08
0.0040204
2.12819e-07
1.53739e-08
0.00236659
3.71437e-08
0.000365619
9.70543e-10
1.18539e-07
2.03991e-07
1.21324e-08
1.71063e-08
1.12146e-09
8.1746e-08
2.17988e-09
5.26782e-09
8.29699e-09
5.76659e-09
7.96036e-09
1.36022e-06
5.41926e-08
1.60303e-08
2.68664e-09
6.88503e-09
9.89687e-09
7.04643e-08
2.48349e-08
1.70879e-08
3.46704e-09
5.05504e-09
3.87812e-09
2.18166e-09
6.30686e-06
3.29804e-08
2.80727e-09
0.00339739
0.00370793
2.91418e-09
0.00384185
1.82761e-08
5.53912e-09
0.00145125
3.5649e-10
1.35534e-08
0.00178827
1.8951e-09
0.000384875
4.29463e-08
2.58164e-09
4.50153e-08
3.01399e-06
1.48309e-08
5.18303e-09
8.93054e-06
0.000167012
1.87424e-08
7.41258e-06
1.82914e-08
2.28064e-09
3.10061e-08
1.90781e-09
5.08373e-09
1.43696e-08
1.92027e-08
1.61922e-08
2.58044e-09
2.23269e-09
0.000768506
1.75159e-09
1.65582e-08
1.01181e-05
1.51351e-08
1.80843e-09
1.21265e-06
2.25551e-08
8.57116e-09
0.000539255
7.78344e-10
7.61818e-09
1.96325e-07
1.58176e-09
4.42518e-08
1.30579e-09
3.16458e-10
4.30185e-10
0.00200335
2.31168e-09
0.000732637
3.92512e-08
0.00320781
1.49436e-08
3.28367e-09
0.000313349
1.14891e-09
1.35632e-08
1.797e-08
1.63869e-08
1.99146e-09
0.00316742
8.12675e-09
1.68305e-08
8.53216e-10
4.18424e-08
9.25555e-07
0.00264903
0.000349776
7.31556e-09
7.95006e-09
1.65607e-09
2.77781e-09
0.00337481
1.35447e-08
4.43631e-09
2.48019e-09
0.0010875
0.00385603
1.54073e-08
1.2588e-08
1.56928e-09
1.14664e-08
4.29468e-09
4.12182e-09
5.14692e-09
4.90871e-09
3.60728e-08
7.85382e-05
7.33066e-09
5.03964e-09
7.89549e-09
1.81958e-08
2.53108e-05
0.00241926
1.09414e-08
0.00266356
1.63133e-09
8.78298e-09
4.32653e-09
0.00269464
0.000211223
9.63451e-10
8.41056e-09
6.89727e-10
2.85972e-08
6.32603e-09
2.84949e-09
0.00151549
0.00323671
1.30163e-07
1.62749e-07
0.000607903
1.44926e-09
5.06897e-09
1.60894e-09
4.12123e-07
0.00210699
3.38422e-08
1.75712e-09
0.000439478
7.69068e-09
3.1921e-08
3.33501e-09
2.38264e-09
4.35677e-09
9.31828e-10
7.57643e-06
1.01354e-09
0.00182037
5.06934e-08
1.12045e-07
6.85083e-09
1.55302e-06
3.53612e-06
5.38908e-09
2.07934e-08
0.00230809
0.00311018
7.27982e-08
3.8555e-09
7.57289e-07
1.55551e-09
0.00343758
3.11551e-10
1.96003e-08
0.000428464
0.00255409
4.10998e-09
1.60668e-09
1.96498e-07
5.8742e-07
3.53429e-07
0.000378101
0.00139636
1.1391e-10
6.62791e-09
8.18011e-10
4.62893e-09
0.0027752
2.71616e-08
0.00302975
9.9856e-09
0.00131532
0.00209609
0.00236442
6.17721e-08
4.11728e-09
0.000650624
1.26975e-09
2.3568e-10
9.20776e-10
4.35435e-09
1.81545e-08
4.54326e-09
1.49829e-09
9.18049e-08
6.73033e-08
7.62362e-09
2.72712e-09
0.00186398
4.18039e-08
3.51279e-08
0.000362181
9.57042e-09
3.47884e-08
3.82192e-08
1.94539e-09
1.38696e-09
0.000646938
0.00196323
0.00241496
3.87649e-09
1.11475e-08
6.4948e-09
1.63828e-07
0.00194573
1.35308e-09
5.70104e-07
2.58847e-08
1.31986e-05
0.000344566
0.00169858
2.25436e-07
1.48134e-07
2.2367e-08
0.00430844
0.000532172
1.89646e-08
8.77374e-07
3.45333e-09
6.82306e-08
3.44346e-06
0.00231959
2.45104e-08
1.20644e-07
1.00821e-07
1.59267e-05
2.5338e-08
0.00185623
2.48737e-09
5.17512e-08
1.16394e-08
0.00213054
7.44239e-10
6.63213e-09
2.08458e-07
4.48236e-06
0.000599782
1.09269e-07
7.05642e-08
0.000383647
4.15525e-08
2.52199e-09
0.00190614
0.00219669
5.47218e-09
7.55913e-09
0.000401558
1.01536e-08
1.76078e-08
0.000373922
3.50145e-10
0.00265404
2.54556e-09
1.92955e-08
1.81608e-07
4.00573e-09
3.96709e-08
3.55892e-08
5.00105e-05
3.75283e-09
6.1417e-09
7.083e-09
1.1716e-08
9.70738e-08
1.53445e-08
0.000326092
6.71349e-09
2.03684e-08
0.00140034
5.72709e-08
9.83554e-08
8.35016e-06
0.00187043
2.37475e-06
0.000541472
6.91154e-09
0.000383014
1.59124e-08
4.19059e-09
1.57352e-09
0.00314074
3.78494e-07
3.25762e-08
7.12599e-05
6.4413e-08
0.00157969
1.65471e-07
9.85792e-06
3.49581e-09
0.00100438
3.16014e-09
0.00130359
5.38892e-05
2.45027e-07
0.000651794
0.00179453
1.2123e-06
1.10772e-05
4.1297e-09
1.12531e-06
2.51297e-08
4.08639e-05
0.000444778
0.000428792
0.00211174
3.53508e-08
3.21726e-08
0.000561237
4.59574e-08
0.00227711
6.87743e-10
0.000401152
2.2882e-09
2.67282e-09
2.94027e-05
0.000503642
0.00020613
0.000108541
7.69704e-09
5.08955e-09
1.9144e-09
0.000487261
2.1509e-09
0.00350806
0.00473698
2.47815e-09
0.000499719
2.07457e-09
1.00717e-09
2.92271e-09
3.25253e-06
0.000469629
2.91542e-09
1.31375e-09
1.0514e-06
4.44072e-09
1.12205e-07
3.78434e-09
2.98753e-09
8.89532e-08
2.63799e-07
3.13131e-08
1.04037e-08
0.000532565
8.16863e-10
0.000127681
2.69033e-10
2.5123e-09
0.00124249
1.49815e-09
7.74953e-06
8.98232e-08
7.44688e-09
0.000108824
1.24884e-08
0.00157163
2.7237e-08
4.60614e-10
0.00174583
5.6908e-09
1.13389e-08
0.00030713
1.24012e-09
0.00205968
1.68174e-08
1.42036e-09
0.00422991
3.0619e-09
5.19737e-09
1.49963e-08
1.63474e-08
0.000319936
8.27183e-09
5.61159e-09
1.65006e-07
0.00180902
0.000633463
0.00058403
2.24325e-08
1.77638e-09
0.000379941
0.00236999
6.81165e-09
8.57504e-09
5.5792e-08
1.16204e-08
2.84246e-09
2.5752e-08
0.000412235
0.00144848
0.00262296
1.49174e-07
2.03972e-09
0.00267082
0.00400967
0.0052096
5.09966e-08
1.80953e-08
1.59156e-07
4.44691e-07
1.80968e-08
2.8293e-08
7.87959e-07
2.81517e-08
7.50753e-09
8.15888e-09
1.35583e-06
7.23782e-08
7.37645e-09
0.00254234
1.62379e-09
5.99283e-08
1.8751e-08
2.81806e-08
6.46852e-09
3.90639e-10
0.000761134
1.89127e-08
3.11657e-09
0.00193675
1.90379e-08
2.39461e-08
0.00316675
2.92567e-08
3.33408e-07
5.71581e-09
1.99743e-08
2.43773e-08
0.000825933
3.06346e-08
0.00220051
1.82802e-07
1.98654e-07
3.6602e-08
0.0053311
0.000295123
4.59589e-09
5.43727e-09
9.92306e-07
1.44795e-09
1.11976e-08
8.55016e-09
0.00167349
1.17018e-09
2.29423e-09
8.17621e-09
2.47519e-09
3.5766e-08
2.36375e-08
7.52372e-09
0.000429216
0.00219273
0.000466221
6.30122e-08
0.00314145
0.00256263
5.6212e-08
1.76319e-09
0.00183294
6.43864e-06
0.00154629
0.00208206
0.00203121
3.32817e-09
5.88632e-08
0.00237825
1.96651e-07
3.3573e-08
1.90525e-07
2.64487e-08
0.000443775
2.0855e-08
0.000538422
1.69834e-05
2.57416e-08
0.00196237
2.00216e-08
0.000608725
6.87316e-09
1.67429e-08
1.1864e-09
3.99751e-08
0.00153623
0.00364921
1.26514e-09
0.000395621
0.00188714
0.00135368
0.00278213
5.64358e-10
1.01228e-08
1.1727e-09
0.00355471
7.86362e-10
1.29641e-07
0.0035612
5.3261e-09
0.00346987
0.00351671
0.00366743
1.54565e-08
5.72025e-08
4.62988e-08
8.75308e-09
1.1076e-08
6.15655e-08
1.26404e-08
4.76351e-09
0.000475255
4.13803e-09
3.70888e-08
2.7604e-07
5.53234e-10
0.0016232
2.9235e-08
4.63319e-09
6.6657e-08
2.67672e-10
7.00515e-08
3.90216e-09
2.03113e-07
0.00306602
3.11318e-05
8.8999e-10
1.56516e-08
0.00210097
0.00314919
1.78403e-07
0.000760586
9.98278e-09
7.81761e-09
0.00257391
2.20883e-08
0.00322071
0.000542247
1.04757e-09
7.42573e-08
0.000765798
1.72894e-08
2.51381e-08
0.00250174
6.36097e-09
1.36385e-08
3.12186e-09
0.000534598
3.15048e-06
0.00193144
1.80708e-07
9.40209e-09
0.00175022
1.27435e-07
2.56406e-10
5.97024e-06
2.18877e-09
7.18701e-07
0.00129385
2.72598e-09
9.45797e-10
1.13552e-08
5.94512e-09
1.54766e-08
5.86473e-09
1.261e-08
1.00028e-06
9.66026e-10
1.24838e-09
0.00169856
4.6626e-09
5.35585e-06
2.93224e-08
5.95064e-06
1.32788e-06
1.1716e-06
5.37447e-06
1.26208e-06
5.34692e-09
1.65901e-08
0.00100312
3.52061e-06
2.49222e-08
2.26077e-08
2.48077e-08
0.00044909
1.36554e-06
7.95144e-08
2.28863e-07
3.43459e-09
0.00226348
4.73063e-09
1.2269e-08
2.08742e-08
1.18509e-08
2.99247e-08
0.00212652
5.57878e-08
2.40612e-08
1.86701e-08
4.76531e-09
0.000477735
2.25739e-09
5.16875e-09
3.36298e-08
2.56488e-10
1.42103e-09
6.17319e-09
9.36236e-09
1.36625e-08
0.00033344
1.14212e-08
1.31718e-08
2.513e-09
1.99987e-08
1.24472e-08
1.01122e-08
5.84687e-08
0.000380629
0.00242469
1.54493e-08
7.87202e-09
0.00284487
1.65918e-09
4.30341e-05
0.00203087
4.95791e-09
7.12744e-07
1.53133e-06
0.00186455
2.20591e-08
3.18437e-08
2.17576e-07
1.73834e-05
8.68153e-07
2.15699e-07
1.40131e-09
3.72977e-09
4.26031e-07
1.09013e-07
5.98116e-09
1.54124e-09
1.28493e-08
7.53551e-09
3.01348e-06
0.0012938
6.40635e-08
3.58716e-08
5.10615e-08
0.00264604
0.00244625
9.17823e-07
1.51453e-08
3.26109e-08
4.01452e-08
4.47611e-09
2.89533e-09
1.81463e-07
4.22419e-09
3.45751e-08
2.02887e-09
1.26487e-08
2.26779e-08
3.33537e-09
4.15578e-07
2.79808e-09
0.000434431
9.50224e-08
0.00394817
0.00165209
1.12403e-07
2.15451e-08
0.000579702
0.000345168
2.77324e-08
2.33809e-08
9.29093e-06
2.32136e-09
1.88063e-09
2.35753e-08
1.73763e-08
0.000781456
0.000646984
9.58261e-09
1.17844e-08
7.86421e-09
3.33319e-07
5.14442e-08
0.00267068
0.000496413
1.374e-08
0.000238787
7.03439e-09
0.00031542
0.00022776
0.000223592
2.80987e-08
1.04729e-07
1.76225e-09
1.0101e-07
2.54134e-08
0.00240346
4.8859e-09
4.1547e-08
6.9491e-09
7.7035e-08
2.278e-05
0.0019451
0.00227796
2.23822e-08
2.97654e-08
0.000377623
3.99091e-08
1.03544e-06
1.04179e-08
0.00304787
4.06689e-08
2.27577e-08
8.53658e-06
0.00262313
6.83886e-08
2.29025e-08
0.00131291
2.02022e-08
4.64476e-10
1.39544e-09
4.46408e-09
3.15946e-08
1.32917e-08
6.31201e-10
2.22995e-08
3.68448e-08
1.13546e-08
6.06732e-08
1.71513e-08
5.51921e-07
0.00191156
2.81717e-09
1.59053e-08
5.63224e-08
0.00200068
8.73432e-07
2.00935e-08
0.000375307
2.86984e-09
2.25161e-07
1.46507e-07
0.000983775
3.6056e-07
3.21547e-10
1.22079e-07
1.39975e-08
1.22679e-07
5.10838e-08
3.10438e-09
1.4871e-07
6.88526e-09
8.69435e-08
8.16019e-10
0.000584271
4.90711e-08
0.002074
1.3748e-09
6.33819e-08
2.16859e-06
1.07255e-08
6.05207e-06
4.80555e-09
6.97428e-10
2.44654e-07
4.18436e-08
4.85058e-09
1.72194e-05
6.10902e-08
7.42007e-08
0.000547247
2.99119e-09
0.000563699
3.1595e-08
2.26503e-09
7.65755e-09
5.79781e-09
1.98204e-08
3.90381e-07
3.1347e-07
1.50959e-07
0.00237864
2.11634e-07
0.00393221
0.00209519
0.00329187
8.4937e-08
2.13232e-07
0.00143519
3.82666e-09
2.48354e-08
2.97797e-08
0.00236974
9.81572e-09
0.000635585
0.000492209
2.77022e-09
0.00262596
5.00918e-06
0.00264008
1.88923e-08
0.00249642
5.59031e-08
0.000340232
1.61852e-09
3.89846e-09
4.26909e-08
0.000746744
7.77744e-07
4.15595e-10
2.68318e-08
6.35051e-10
0.000532967
0.000313629
5.70128e-08
0.0019092
4.55278e-07
0.000544709
3.19721e-08
5.61103e-10
6.40337e-09
2.60213e-09
8.94558e-08
2.04061e-05
5.69567e-09
1.34337e-06
4.44498e-08
4.22606e-08
4.6564e-09
9.87504e-05
2.24212e-07
1.86724e-09
6.38779e-09
0.000432448
1.08441e-06
7.81991e-08
0.00152073
1.75873e-06
1.48622e-06
7.41393e-09
8.40851e-09
3.92011e-09
0.000681403
2.73842e-08
5.48822e-09
1.50431e-08
3.62884e-07
9.98368e-07
2.05056e-07
1.8228e-09
3.20629e-06
6.68826e-07
7.43244e-09
5.98208e-09
5.5279e-06
2.513e-09
5.25592e-09
0.00238709
0.00220925
6.18397e-08
4.50699e-09
1.14257e-09
3.33789e-08
0.00192998
2.58038e-07
1.39406e-06
5.44911e-10
5.49636e-07
3.25948e-08
0.00112006
0.000444879
6.85587e-07
2.40175e-08
3.51704e-06
5.63722e-07
0.000100706
2.22932e-09
1.83231e-08
0.00118803
2.54939e-08
7.80549e-07
5.89837e-07
2.02673e-06
1.22833e-06
1.16986e-08
0.00162287
1.31104e-05
2.4705e-09
1.21213e-08
4.69345e-09
0.000427672
0.000113474
1.88016e-08
0.000637651
1.21885e-07
7.27138e-05
0.00282739
0.000398954
0.00282006
0.00183695
0.00221777
4.50311e-10
2.76464e-06
8.50844e-08
3.44875e-06
1.49244e-05
2.2101e-06
2.01848e-09
3.98333e-07
1.47655e-08
3.20261e-07
0.000761567
2.8263e-07
8.91396e-10
0.00178476
1.39259e-07
0.000207823
1.83639e-07
4.11112e-07
4.7891e-09
3.87649e-07
2.12118e-07
0.00151227
2.09526e-07
3.58221e-08
1.49453e-07
2.59411e-05
0.00129746
0.00131391
0.00293886
4.93898e-09
0.000502805
0.00149673
0.00175328
0.0014947
2.33038e-07
0.0021739
2.67622e-07
4.72743e-09
5.38852e-09
6.39774e-09
0.00147152
0.0017686
5.64114e-09
1.46932e-08
8.42472e-09
4.07957e-07
0.000298094
0.00368287
0.00135432
8.19712e-08
0.00247915
8.54812e-10
3.6145e-08
0.00108919
0.00080457
5.37423e-09
2.76159e-06
1.22464e-08
6.35423e-09
0.00352028
6.32704e-09
0.000423302
1.17784e-09
0.00037871
0.000405411
0.000581334
0.00190932
3.24658e-07
0.00161756
1.26813e-08
1.18039e-05
0.000460529
0.00124695
0.00220788
0.0010966
7.55783e-09
0.00124434
8.9998e-09
1.59458e-08
0.00292734
1.64009e-07
6.55895e-06
5.63488e-08
5.18477e-08
0.000573432
1.43376e-06
3.24375e-09
1.49197e-07
4.37785e-07
0.000403274
0.00219804
2.72759e-07
7.63941e-09
0.000614686
1.86507e-08
1.57125e-08
5.10885e-08
6.0509e-07
0.00214045
3.72471e-09
0.00241647
8.42219e-10
0.000256114
0.00433597
8.69379e-09
3.0481e-06
0.00242901
4.98385e-05
5.19775e-06
2.46749e-09
0.00177995
0.00277877
5.17754e-10
0.000489109
8.58296e-07
0.000618779
1.491e-08
8.52902e-07
5.12595e-07
3.52771e-08
7.84495e-11
0.000345788
0.00131406
6.5402e-09
1.19275e-09
0.00218172
1.11131e-08
2.2087e-09
3.73918e-08
1.87628e-09
7.87601e-08
0.00354113
0.0020946
2.65946e-08
5.45543e-10
0.00221192
1.98942e-07
0.00270357
2.79006e-09
1.90174e-06
4.58446e-08
7.43127e-09
2.75081e-09
1.0839e-08
0.00333568
5.02515e-09
2.79766e-07
0.000274721
0.00237604
0.0004531
1.37761e-08
1.17666e-06
2.56867e-09
0.000229146
0.00228076
8.9244e-10
3.74905e-09
3.97976e-08
3.31167e-08
0.00050253
2.61979e-07
0.000529727
1.92242e-07
6.68516e-09
5.88723e-11
4.969e-08
0.000221066
0.000394063
5.42774e-09
0.00384295
0.00245682
8.8026e-09
3.08671e-10
3.8141e-09
7.35315e-09
3.81129e-09
1.54284e-08
0.00275321
0.000620105
0.000514079
7.76267e-05
0.000348254
0.00038168
2.75298e-09
4.27118e-08
1.50175e-09
3.00584e-08
1.88536e-08
0.00234613
1.07709e-08
4.9152e-09
0.00111864
1.90297e-08
7.66684e-08
8.76395e-08
1.6526e-09
8.37751e-08
3.51195e-08
0.00219889
5.20793e-09
1.44303e-08
4.15034e-09
1.58491e-08
2.10869e-08
0.00375559
4.52575e-07
1.12524e-07
7.37327e-08
1.06019e-09
4.50223e-05
1.03775e-06
3.30733e-09
5.7628e-07
1.24305e-05
1.02065e-08
1.13408e-08
1.03089e-05
1.81418e-06
2.49489e-07
0.00304065
3.86194e-09
3.97447e-07
1.39498e-06
0.00282696
2.23796e-07
4.25015e-10
1.92015e-06
1.69251e-05
3.44728e-07
1.00567e-08
1.70916e-07
4.59976e-08
6.61953e-08
2.00394e-08
3.31385e-08
0.00186183
2.14771e-09
1.18246e-08
1.11523e-08
6.90843e-10
4.59976e-09
8.87636e-10
0.00421419
1.25114e-07
1.94384e-09
3.29927e-09
3.0951e-09
1.07994e-09
5.04437e-08
5.15971e-09
2.82073e-09
5.38583e-08
1.33726e-08
0.00220949
3.05209e-09
0.000384411
3.4803e-08
1.18529e-07
1.79996e-08
1.21114e-06
1.02073e-09
0.00315761
9.45939e-09
0.00178972
2.96013e-07
4.04656e-08
1.35599e-08
1.82303e-06
2.75595e-09
3.62468e-09
2.93744e-09
0.000259138
0.00062666
0.00213665
1.0119e-07
1.56957e-07
0.00227841
1.72404e-06
3.3713e-09
1.3765e-08
2.87354e-07
1.03437e-08
0.00411987
2.79024e-06
0.00307947
2.78291e-08
7.64081e-09
0.00158774
0.00144431
0.00174765
1.66105e-08
1.47318e-06
0.00186861
1.6728e-09
1.23009e-05
1.51516e-07
0.00177472
0.00045932
1.811e-07
0.00230819
2.04345e-05
6.19206e-07
0.00205409
0.00216974
1.91638e-08
0.00237787
0.00300981
0.00180853
2.49392e-08
4.36093e-09
6.10857e-09
7.69713e-10
2.87259e-09
0.00163029
0.00275209
0.00182465
2.58304e-09
0.00303332
2.74793e-09
0.00228095
0.00249137
5.76842e-09
3.67985e-08
0.00165393
2.45844e-08
1.32353e-08
3.19475e-07
4.46192e-10
0.00256032
0.00199032
8.30528e-07
0.00163485
4.36116e-09
3.04864e-09
7.11329e-09
3.31077e-08
6.71714e-08
3.13267e-07
1.20754e-09
5.65484e-09
1.41864e-08
8.13046e-09
6.26152e-09
1.04352e-07
3.68522e-10
2.32609e-08
2.11874e-06
1.15442e-08
3.43911e-08
2.77388e-09
1.19831e-07
1.56104e-09
5.19039e-09
2.2269e-07
1.55705e-09
3.06816e-09
0.00188088
3.49232e-08
5.17503e-09
6.52796e-07
3.12178e-09
1.47572e-08
4.84296e-08
0.00185701
9.33224e-08
0.00220804
0.00148587
1.71686e-08
2.07499e-08
5.79521e-08
6.57191e-09
0.00157707
4.93308e-08
2.2527e-07
3.64923e-07
2.90647e-08
0.00235743
0.00149677
1.88191e-09
3.13644e-09
7.05895e-09
6.37124e-08
5.88883e-08
7.42173e-09
4.16159e-07
5.33394e-09
1.49102e-06
2.49634e-09
1.52594e-09
6.30647e-09
1.5557e-08
2.33343e-07
7.90617e-09
1.89152e-08
0.00429575
0.00144841
0.00257013
0.00155372
1.48774e-06
1.20893e-08
0.00201321
6.96569e-07
6.73107e-09
0.000410059
1.32233e-09
1.44495e-07
0.00235105
4.3958e-08
1.25002e-07
2.30263e-08
4.29428e-08
0.00139987
8.17722e-09
9.4466e-10
2.0367e-07
2.66412e-09
4.69035e-07
5.9737e-06
6.68137e-08
0.00211109
4.18251e-08
0.000460468
2.70164e-07
0.00209864
3.86754e-10
5.03068e-09
2.68174e-07
3.92886e-09
0.00183884
3.83338e-07
0.000518114
1.49306e-07
1.84498e-07
1.33831e-07
2.66497e-08
8.52522e-09
4.96405e-08
3.01886e-06
4.00886e-08
2.60649e-06
0.00324751
5.36683e-08
0.00421543
5.65316e-09
2.47729e-09
4.56236e-06
0.00186415
1.41145e-08
1.34397e-09
9.01344e-07
5.77276e-08
3.38212e-08
0.00233965
1.34799e-08
6.10603e-07
0.00262078
1.35869e-09
8.09649e-09
4.18317e-07
9.98446e-10
8.15122e-09
0.00253087
5.29994e-09
0.00276768
2.32018e-08
2.1568e-07
3.91084e-08
0.0008942
6.02637e-08
2.78839e-08
1.48698e-07
0.00253483
1.58782e-06
1.25614e-08
9.35661e-09
1.24662e-07
0.0020727
3.466e-09
5.17367e-08
6.29597e-08
1.58931e-06
0.00252797
0.000269966
0.00119108
1.75292e-08
0.000358009
1.31746e-08
9.06299e-07
0.000789582
1.15234e-08
0.000880922
3.29011e-06
4.85386e-09
2.63898e-09
1.2008e-08
0.00253349
1.53004e-08
2.43016e-09
2.5985e-07
1.12459e-08
5.64639e-09
0.000301383
2.75219e-09
4.50053e-08
0.00242969
1.26453e-06
4.5364e-09
0.00203794
3.25849e-06
6.49196e-09
1.37211e-08
1.20129e-05
4.29556e-08
2.25275e-07
1.67246e-08
4.12994e-08
6.00485e-08
4.73717e-06
0.00109787
4.84308e-08
0.00248244
1.50631e-08
3.79372e-08
0.00271653
3.09963e-08
7.83861e-08
9.54713e-09
1.29764e-07
0.00237011
2.98382e-08
2.12407e-08
0.0016348
5.79644e-09
0.00266884
1.4027e-09
8.48772e-09
1.02966e-09
8.40453e-09
0.00151683
5.38678e-08
1.39355e-09
2.5827e-09
1.43216e-08
5.28689e-08
0.00255058
4.76474e-09
4.59586e-09
1.88311e-09
1.55178e-07
5.30465e-06
5.03841e-09
0.00156974
3.50564e-08
1.06833e-08
6.27738e-09
5.11685e-08
0.000429642
6.49778e-07
1.61605e-10
1.00501e-09
0.0018263
0.00217025
6.14658e-08
3.84879e-09
0.00183572
1.68644e-08
8.977e-10
0.00356091
9.07085e-09
0.0027531
2.92191e-07
1.76925e-08
2.02024e-08
9.77e-09
9.52307e-09
4.39875e-09
3.04657e-05
7.4219e-07
2.26629e-09
4.01763e-08
5.54689e-08
5.32718e-09
0.00257875
8.69939e-09
1.33374e-08
0.00197397
2.61583e-08
3.59014e-08
3.04341e-10
0.00228717
2.8292e-08
1.32644e-07
3.26612e-09
3.70065e-08
4.04356e-09
0.0023377
5.92746e-09
7.00151e-09
0.000612573
1.07877e-08
7.12542e-09
0.00233164
6.50923e-08
3.86916e-10
3.12725e-08
5.94115e-09
0.00188356
4.42058e-07
6.07114e-08
3.46786e-09
4.01927e-07
1.41419e-07
8.68873e-09
1.38995e-09
1.03363e-09
3.40021e-08
1.04669e-08
8.08195e-10
7.71527e-09
7.21215e-09
1.14337e-08
0.00231614
6.96432e-07
1.48117e-08
2.05226e-09
9.42545e-10
0.00219993
1.9476e-08
0.00327803
9.36338e-07
0.00158578
7.68775e-10
0.00215252
0.00292641
8.43357e-09
9.42372e-09
8.96143e-08
0.00210511
0.00251639
3.06983e-07
7.4638e-09
2.50208e-07
1.05254e-09
2.23198e-07
8.66245e-09
9.43052e-08
1.66429e-08
1.47545e-09
3.92694e-09
8.46765e-10
6.19105e-09
9.13516e-09
3.80777e-09
5.07927e-09
1.52462e-08
9.0097e-08
3.58614e-11
3.37401e-09
7.37925e-10
5.65633e-09
1.52785e-09
1.75059e-07
0.00189958
0.00279692
4.51785e-09
0.0022256
1.39792e-08
3.07218e-09
4.47414e-09
1.64317e-06
1.80954e-07
7.18594e-08
9.93968e-10
1.10467e-08
2.14458e-09
7.94508e-09
1.59279e-09
1.28754e-08
1.41419e-07
0.00158845
2.43287e-09
2.11727e-08
0.00140323
0.00178428
0.00219801
0.00206377
0.00176519
4.66006e-08
3.77834e-08
2.88605e-09
7.88352e-09
7.60373e-09
1.34106e-06
3.94593e-09
2.91962e-08
3.41192e-08
7.17528e-09
2.22062e-09
2.65863e-09
7.43419e-07
3.15503e-06
3.96721e-07
6.01358e-09
1.67442e-09
3.22874e-09
0.00284237
2.52912e-09
0.0018527
1.11492e-07
8.77849e-09
7.52637e-07
0.00105424
6.75894e-08
4.07374e-10
3.81195e-09
3.21362e-08
1.51034e-09
2.37845e-08
8.27945e-10
0.00110409
3.44476e-10
4.18333e-08
0.00284473
2.95772e-09
0.00133034
5.86602e-08
0.00216659
1.00572e-07
0.00121971
3.5505e-10
0.00289476
0.00232084
2.79647e-08
4.23536e-09
0.00158366
1.96314e-08
0.00187019
1.70888e-08
7.78966e-09
5.01078e-10
1.66888e-08
2.04763e-08
1.50357e-08
6.36866e-07
0.00292386
0.00166192
1.21574e-06
3.80713e-09
3.47844e-07
0.00305619
0.0013615
0.00236581
0.00234396
5.32642e-09
6.05261e-08
2.75911e-08
1.25503e-08
0.00303583
6.53187e-09
0.00148774
0.00321497
5.45984e-09
3.12638e-09
0.00160517
0.00302783
2.8339e-08
9.11467e-10
0.00169036
9.06886e-08
2.54957e-09
4.6632e-07
9.75123e-08
0.000406122
7.14079e-08
5.66713e-08
2.47621e-07
2.6955e-07
9.07271e-08
3.88126e-09
4.86389e-09
1.06306e-08
2.02794e-09
2.06023e-08
8.68133e-09
1.82983e-10
2.19695e-09
0.00200654
0.00284306
3.41204e-10
2.54597e-08
6.62678e-09
2.77388e-09
4.78844e-07
1.94981e-08
2.37422e-09
0.00270664
0.00150579
0.00144863
0.00162328
4.87571e-08
0.00136217
2.54945e-07
0.00376685
7.32936e-10
0.00227615
2.72992e-08
3.64844e-08
1.55552e-07
6.05572e-10
0.00294102
1.85345e-07
0.00423716
5.91384e-09
9.44491e-10
9.08776e-09
8.96346e-09
0.00133977
0.00286831
1.39155e-10
3.34364e-09
2.4377e-08
0.0016744
3.80992e-09
0.00280309
3.40428e-07
1.91531e-09
5.78463e-09
0.00241511
3.50874e-08
0.00213601
8.20763e-08
0.00383037
0.00319959
7.75316e-08
3.66547e-09
0.00352897
8.62898e-09
8.52086e-07
0.000344637
1.56891e-08
1.38135e-07
2.29208e-08
8.8181e-09
0.00300984
3.9252e-09
7.3996e-08
3.95504e-10
7.0333e-08
4.01201e-09
5.33919e-09
1.52113e-08
9.86659e-09
1.71148e-08
0.00294986
2.13592e-08
2.75992e-08
4.73115e-09
1.43595e-08
8.88858e-09
9.6958e-09
1.16535e-08
0.0021742
8.58973e-09
0.00293679
0.00189487
4.9082e-09
0.000360669
2.94654e-09
3.32478e-09
2.61654e-08
3.48761e-08
3.02299e-08
0.00152604
0.00202692
1.10324e-07
1.04784e-07
8.25408e-08
0.00305482
0.00110991
4.81062e-08
0.00216321
0.0043905
1.23704e-06
0.0025897
0.000410464
6.30563e-09
7.82805e-07
2.53232e-08
0.000563894
6.74728e-10
0.00252483
3.30969e-10
2.31306e-09
0.000636493
0.000341709
1.89878e-08
0.000460446
4.23193e-08
1.04487e-07
2.58092e-08
2.68655e-09
3.94049e-07
2.88526e-09
4.84582e-09
0.00243087
1.32415e-08
1.38811e-08
4.40982e-09
1.22008e-07
1.65183e-09
4.58448e-05
2.96362e-08
2.03395e-08
7.92236e-08
1.64171e-07
0.000297091
0.00227292
4.17875e-08
6.91064e-09
0.00236629
0.00234104
3.70344e-08
2.28196e-08
1.24699e-08
3.15606e-09
3.06228e-08
1.10539e-08
0.00200149
0.00433466
6.11215e-09
2.05193e-09
3.81817e-09
6.04447e-09
0.00246895
0.000394483
1.73976e-09
1.81063e-08
1.53357e-08
0.0021191
1.04853e-05
1.0917e-06
0.00194326
2.4947e-08
2.5026e-08
4.81765e-09
4.11949e-08
2.52946e-08
0.00220462
5.2833e-08
0.000310629
5.51773e-09
6.25449e-09
0.00320555
0.00260272
7.55589e-09
0.00306976
1.07544e-09
1.47461e-09
4.53009e-07
4.98612e-09
3.57184e-09
0.00179283
2.67199e-08
1.23817e-07
0.00385034
1.20882e-08
0.00155126
0.00300648
1.49685e-08
0.00319266
1.44118e-08
1.27963e-08
1.78876e-08
1.87121e-07
9.83265e-09
4.63592e-08
5.97117e-09
2.45972e-08
4.80122e-07
1.9526e-08
0.00232335
6.65319e-09
0.0030131
8.31636e-10
1.15144e-08
5.34822e-09
0.00231021
8.45707e-09
0.00223803
0.00192361
0.00309693
1.57063e-08
0.00209365
1.44255e-07
2.14022e-08
3.15949e-09
7.92652e-09
1.26923e-08
7.64307e-08
1.42124e-07
2.84704e-07
3.4251e-09
0.0028219
3.17364e-08
1.16556e-09
9.39729e-10
4.51189e-09
7.03249e-10
0.00200403
3.55198e-08
0.00294255
2.69936e-08
0.000624971
3.59412e-09
3.64698e-09
0.00176862
0.00346398
6.65896e-08
3.65823e-09
0.00375507
1.56777e-08
1.04266e-09
3.32894e-09
1.31538e-08
6.43608e-10
1.37397e-08
1.47309e-09
1.40874e-08
2.85582e-09
5.93135e-08
2.7022e-08
0.00246222
5.4924e-07
1.024e-07
1.12283e-08
4.64018e-09
0.00208839
1.3977e-08
0.00298254
4.1322e-08
2.80217e-08
6.64982e-09
6.17615e-09
7.95697e-08
7.4296e-07
0.00129736
0.00121784
7.98919e-09
0.00369087
2.41362e-08
0.00276896
9.03598e-09
1.31016e-08
2.95207e-09
0.00259939
0.00127753
0.000427455
4.4584e-08
2.02997e-09
0.00128969
5.28447e-09
3.32416e-09
9.01016e-09
5.34059e-09
0.00237146
0.00202096
1.78851e-08
3.15049e-08
5.16143e-08
3.90716e-09
3.26333e-06
1.81738e-06
6.20292e-09
2.44289e-08
0.00157768
8.80496e-09
3.11568e-08
1.0925e-09
3.00221e-08
4.49403e-09
0.00226811