/*--------------------------------*- C++ -*----------------------------------*\
  =========                 |
  \\      /  F ield         | OpenFOAM: The Open Source CFD Toolbox
   \\    /   O peration     | Website:  https://openfoam.org
    \\  /    A nd           | Version:  10
     \\/     M anipulation  |
\*---------------------------------------------------------------------------*/
FoamFile
{
    format      ascii;
    class       volVectorField;
    location    "79";
    object      U;
}
// * * * * * * * * * * * * * * * * * * * * * * * * * * * * * * * * * * * * * //

dimensions      [0 1 -1 0 0 0 0];

internalField   nonuniform List<vector> 
59698
(
(0.584691 0.00593639 -0.00172147)
(0.564787 -0.0011506 -0.000859575)
(0.566519 -0.000685362 0.00169973)
(0.578794 -0.00342888 -0.00126599)
(0.563007 0.000771516 -0.00294471)
(0.197724 0.198053 -0.00634599)
(0.566924 0.000233417 0.000405291)
(0.564033 0.000853616 -0.00029454)
(0.19988 -0.199527 -0.000424195)
(0.201229 -0.200787 -1.64015e-05)
(0.200369 -0.198721 -0.000624899)
(0.567011 -0.000304007 -0.000405985)
(0.199801 0.20049 -0.00057862)
(0.56161 -0.000762725 -0.000191213)
(0.562079 0.00110988 -0.00257756)
(0.203977 -0.197102 0.00182114)
(0.564675 0.000134377 0.000204341)
(0.566067 -0.00126047 0.00038655)
(0.56763 -0.000524522 0.000303492)
(0.567346 -0.000369237 -8.0341e-05)
(0.142891 -0.100139 -0.0251237)
(0.536194 -0.00145244 -0.0027963)
(0.265185 -0.172882 -0.0075218)
(0.198824 -0.199921 -0.00136797)
(0.570367 0.000657794 0.00104913)
(0.566221 -0.00115663 0.000433236)
(0.566464 -0.000341352 -0.000429042)
(0.557284 -0.000200932 -0.0012158)
(0.570306 0.00128842 0.000917115)
(0.572434 -0.000473833 0.000443772)
(0.548131 -0.000334223 -0.000367757)
(0.198524 -0.198562 -0.000177063)
(0.201154 -0.19794 0.00228289)
(0.559742 0.00121747 -0.000841933)
(0.549126 0.011531 -0.00760058)
(0.566732 -0.000912399 -0.000386915)
(0.274954 0.065631 -0.0385697)
(0.539523 0.000707791 0.000119803)
(0.561695 0.000131138 0.000559385)
(0.56811 0.00148873 -0.00274581)
(0.563907 0.000427406 -0.000103446)
(0.1949 0.197809 -0.00173705)
(0.562398 0.000587976 -0.00061253)
(0.563705 0.00044585 0.000105222)
(0.196729 0.199572 -0.000252526)
(0.560899 0.00365626 0.00512892)
(0.567062 -0.000863121 0.00037137)
(0.561579 -0.000324565 0.00148852)
(0.562931 0.000327573 0.00087793)
(0.56536 -0.000696152 0.000230829)
(0.567928 0.000157404 -0.000169921)
(0.566897 -0.000871364 0.000349258)
(0.566563 -8.52096e-05 -0.00078216)
(0.560444 -0.000168823 0.000459874)
(0.572405 0.00293956 0.00103693)
(0.567402 -0.000517872 -0.000138053)
(0.562752 -0.000986521 0.000604322)
(0.524724 -0.00189688 -0.000290709)
(0.564636 -0.000785481 -0.000387732)
(0.268368 0.121216 -0.0194304)
(0.559158 0.004594 -0.00252804)
(0.564607 0.00136029 0.000529094)
(0.577854 0.0147048 0.00649739)
(0.567577 -0.000565348 0.000377147)
(0.561835 0.000248101 0.000709389)
(0.561401 0.000194 0.00205381)
(0.199519 -0.199945 -1.27398e-05)
(0.567123 -0.000559223 -0.000632253)
(0.56698 -0.000465904 -0.000638896)
(0.199516 -0.199211 -7.86419e-05)
(0.209136 0.182312 -0.00778156)
(0.565284 -0.000732868 2.20579e-05)
(0.166538 0.11873 -0.0342513)
(0.593798 -0.0107099 0.0196803)
(0.202915 0.203537 -0.000369003)
(0.589922 -0.025185 0.0204435)
(0.561144 0.000252214 0.000999439)
(0.561033 0.000241227 -0.00162079)
(0.566859 0.000816911 -0.000635504)
(0.571457 0.00156177 0.000132258)
(0.552699 -0.0018725 -5.55805e-05)
(0.567922 0.00023883 -0.000122077)
(0.201249 -0.200756 -6.20307e-05)
(0.565105 -0.000729961 0.000601479)
(0.400044 -0.10374 0.0152031)
(0.562804 0.000189483 -8.54649e-05)
(0.563147 -0.00122898 0.00162503)
(0.557671 0.000484927 0.00714563)
(0.561962 0.00125452 0.000967839)
(0.5605 -0.000175842 0.00159186)
(0.199535 -0.199174 -0.000162922)
(0.560433 0.000899063 0.000573283)
(0.560689 -0.000426661 0.00160843)
(0.565882 -0.000354798 0.000414539)
(0.561535 0.00116775 0.00100027)
(0.563529 -0.00368633 0.00128758)
(0.558597 0.000610985 0.00124692)
(0.562338 0.000543039 0.000558724)
(0.559227 0.000554034 0.00124552)
(0.199678 0.200038 -2.79493e-06)
(0.556371 0.00146755 0.000844782)
(0.56752 0.00522468 0.00620171)
(0.562979 3.72674e-06 0.000217039)
(0.563084 -0.00163955 -0.00450262)
(0.567139 -0.000537955 0.000843094)
(0.198839 0.198573 0.000130601)
(0.565439 -0.00100233 0.000608151)
(0.567259 -0.000354956 -0.000412717)
(0.200747 -0.200891 -6.53872e-05)
(0.199793 0.199687 -0.000369603)
(0.56633 -0.000763734 -0.000343819)
(0.57038 -0.0104602 -5.21583e-05)
(0.561703 0.00139732 0.00157623)
(0.200896 0.198779 -0.000337564)
(0.561058 -0.000135355 0.000251828)
(0.567444 -4.29143e-05 0.000153896)
(0.567176 0.00135449 -0.00137182)
(0.565193 0.00306577 0.000775708)
(0.563749 -0.00083399 0.00205337)
(0.200893 -0.200445 0.000441424)
(0.565651 -7.14393e-05 -2.42321e-05)
(0.558254 -0.00637059 -0.00376485)
(0.563153 -0.00497274 0.00572365)
(0.564552 -6.66167e-05 0.000119219)
(0.564029 0.000121879 0.000198307)
(0.566042 -0.000316881 -0.000132095)
(0.565945 -7.07477e-05 -0.000521355)
(0.199562 -0.199512 0.000486075)
(0.562049 -0.00061242 -0.000199798)
(0.56754 0.000318299 -0.00199223)
(0.567359 0.00034707 0.000568635)
(0.567218 -0.000177646 -0.00107628)
(0.201403 -0.200546 -1.34307e-05)
(0.579344 0.0069255 0.000401831)
(0.572774 -0.000112088 0.000147511)
(0.568493 -0.000187028 -0.000182825)
(0.5698 0.00383406 -0.00108788)
(0.201042 -0.200694 0.000303644)
(0.567409 -0.00035525 -0.000263961)
(0.568537 -1.74345e-05 -0.000354145)
(0.565296 -0.00026901 0.000884709)
(0.562618 0.00317297 -0.0010131)
(0.566082 -0.000849543 -0.000466205)
(0.567402 -0.000334071 -0.000309661)
(0.566012 0.00220255 -0.000448939)
(0.567419 -0.000273215 2.10874e-05)
(0.563623 -0.00395164 0.000303616)
(0.566472 -0.00372154 -0.000532071)
(0.562339 0.000381187 0.000900324)
(0.552145 -0.000251627 -1.51622e-05)
(0.408625 0.144202 0.0731553)
(0.200199 -0.199654 0.000118733)
(0.562138 -0.000105766 7.60275e-05)
(0.556584 -0.00217844 -0.00379645)
(0.563059 -0.00028332 -0.000175323)
(0.560672 0.000199426 -0.000462568)
(0.566471 -0.00105235 -0.000268268)
(0.558783 -0.000967055 0.00305419)
(0.563549 -0.000292775 -0.000355807)
(0.199697 0.199541 -0.000112125)
(0.564887 9.98107e-05 0.000171682)
(0.562825 -0.000375092 0.000239565)
(0.567891 -0.000620408 -0.000237706)
(0.554714 0.00186352 -0.00113291)
(0.56285 -0.000530543 -0.000200399)
(0.566819 -4.76652e-05 -0.000231992)
(0.567031 -0.000203853 -0.000692967)
(0.412199 0.0869972 0.00625912)
(0.554765 -0.000549977 -0.000393084)
(0.567032 -0.000130482 -0.000503336)
(0.559282 0.00176844 -0.00252284)
(0.211102 0.173797 0.000881476)
(0.553101 0.00138981 -0.0021568)
(0.552629 0.00128919 -0.00207236)
(0.578349 0.00139249 -0.00547008)
(0.562506 0.000271262 0.000355679)
(0.199575 -0.198907 0.000798532)
(0.538383 0.00501544 0.0029751)
(0.198957 -0.197822 -0.00579234)
(0.561974 0.000575945 -0.000488265)
(0.510533 -0.00191773 0.00525292)
(0.548391 -0.000542993 -0.000521965)
(0.562684 0.00038878 -0.00100701)
(0.5654 1.18836e-05 -0.000266023)
(0.56461 0.000594021 -0.000829475)
(0.543621 -0.000282797 -0.000308337)
(0.54353 6.67197e-05 -0.000912788)
(0.559576 0.00373515 0.00123516)
(0.566672 -5.26271e-05 0.000162439)
(0.563919 0.00151063 0.000719854)
(0.561576 0.000227751 0.000721614)
(0.562578 -0.000322469 0.000624014)
(0.56284 0.000551762 0.000495056)
(0.561861 -0.000390146 -0.000508777)
(0.554585 0.000272324 -0.000445562)
(0.557243 0.00328653 0.000813957)
(0.576596 0.0058267 -0.0139328)
(0.575787 0.00376996 -0.0021934)
(0.15213 -0.143983 -0.0194919)
(0.554213 -0.000543129 0.000100121)
(0.20304 0.205889 0.00271868)
(0.545927 0.000588305 0.000937217)
(0.573203 0.000369905 0.000282417)
(0.566606 -0.000365142 -0.000488602)
(0.552874 0.000958353 0.00112589)
(0.566783 0.00015722 0.000158026)
(0.563918 0.000381365 -0.000757849)
(0.557129 -0.00209225 0.00125969)
(0.554553 0.0115091 0.000472786)
(0.56234 0.000301001 -0.000205394)
(0.566006 0.000186916 0.000207332)
(0.564891 0.000213711 0.000471352)
(0.554739 0.000439439 0.0022138)
(0.199003 -0.197043 -0.00110219)
(0.565302 -0.000275863 -0.00018918)
(0.560064 0.000617172 -0.000141286)
(0.566177 -0.000789398 4.97691e-05)
(0.560981 -0.000619182 -0.0018558)
(0.561528 -0.000683285 -0.000166894)
(0.564921 0.000499413 -0.000591181)
(0.582036 0.0243025 0.02265)
(0.563821 -0.000270222 0.000355886)
(0.565027 4.28618e-05 0.000105414)
(0.556979 0.000936149 0.00287342)
(0.565099 -0.000397611 -0.000236403)
(0.553659 0.00260513 0.00293992)
(0.564363 5.4616e-05 -7.42159e-05)
(0.566048 0.000583486 -0.000490662)
(0.577997 0.00280885 -0.000874249)
(0.593472 0.0122428 0.00957791)
(0.199024 0.1986 -0.000393633)
(0.563337 1.24236e-05 0.000454626)
(0.565717 0.000396912 9.60648e-05)
(0.564466 0.000120798 -0.000357421)
(0.563564 -0.000540998 0.000475004)
(0.567921 -0.000492234 -2.01997e-05)
(0.565002 0.00160798 0.0015322)
(0.564064 0.000333476 0.00018213)
(0.558513 0.0013716 0.00348453)
(0.562143 -0.000905635 0.00049141)
(0.564871 -0.000211868 -8.12946e-05)
(0.563773 -0.00121782 -0.000495834)
(0.570485 4.73636e-05 -6.99301e-05)
(0.197427 -0.19788 0.00334431)
(0.566669 -0.000292303 -5.93317e-05)
(0.564048 0.000204351 0.00389777)
(0.582339 0.00509784 0.0161285)
(0.591446 -0.00734438 0.013237)
(0.56626 3.06522e-05 0.000156565)
(0.567016 -0.000821003 0.000426304)
(0.56135 0.00105955 0.0040051)
(0.562591 -0.000454817 0.000406)
(0.563406 0.00100967 0.0008849)
(0.198217 -0.193516 0.00312091)
(0.566484 -0.00138805 -9.66916e-05)
(0.563352 0.000344022 0.000420616)
(0.560514 0.00209343 0.000587591)
(0.56125 -0.000673118 0.000588871)
(0.56613 -0.000490258 -0.000126438)
(0.565004 -0.00016299 -3.26422e-05)
(0.201182 -0.109554 -0.00137937)
(0.200404 0.200052 0.000136212)
(0.563531 -0.000937888 0.000582829)
(0.559883 0.000571992 -0.00117123)
(0.558102 -0.00148272 0.00229136)
(0.58695 0.00743804 0.00245655)
(0.565415 4.14226e-05 -5.00236e-05)
(0.19693 -0.198417 -0.0016108)
(0.565464 -0.00117504 0.000417711)
(0.564888 -0.000181724 -0.000147465)
(0.566641 -0.00097927 -9.40382e-05)
(0.563142 -0.00125997 -0.000750654)
(0.545968 -0.118167 0.0772664)
(0.564762 -0.000126067 -0.000239099)
(0.56505 -0.000272686 5.33981e-05)
(0.557598 0.000381395 0.00141219)
(0.564908 -0.00164679 -0.0037367)
(0.564271 -0.000617342 0.00150105)
(0.570062 0.000264547 0.00019426)
(0.200812 -0.200144 0.000131773)
(0.195989 -0.195354 0.00168584)
(0.567554 3.16438e-06 -3.07917e-05)
(0.567037 -0.000895172 0.000490861)
(0.581561 0.00210323 0.00128591)
(0.587056 0.00640072 0.000897034)
(0.577909 -0.00114965 0.00145838)
(0.56605 -0.000287434 -0.00069064)
(0.29926 -0.213266 -0.0187996)
(0.574337 0.00137731 0.00051548)
(0.563437 0.00228886 0.00300213)
(0.585991 0.0176561 0.000957519)
(0.567498 0.000352941 0.000316254)
(0.565281 -0.000872467 0.000552064)
(0.567005 -0.00100533 0.000162607)
(0.569833 -0.00107733 0.000813469)
(0.560545 -0.00149861 0.000711729)
(0.56832 -0.000253519 -0.000625297)
(0.568042 0.00156274 -0.000583142)
(0.565027 -6.60216e-06 -0.000140341)
(0.562993 0.00118843 0.00367204)
(0.566213 0.00163577 -6.14316e-05)
(0.198733 0.198918 -9.2519e-05)
(0.195968 0.197806 0.00149919)
(0.567158 -0.000163912 -0.000406266)
(0.567234 -0.000482202 -0.000157736)
(0.567046 -0.000208508 -0.000282714)
(0.569043 0.000311355 -0.00147434)
(0.560494 -0.0011169 -0.000319248)
(0.562301 -0.000377131 0.000265404)
(0.567293 -0.000130917 -0.000246629)
(0.565298 7.19764e-05 0.000152737)
(0.563431 -0.00200627 0.000545251)
(0.56602 0.000296825 0.000199595)
(0.200736 0.200934 0.00131601)
(0.561465 -0.0032861 0.0016983)
(0.566943 0.000687611 -0.000105544)
(0.202035 0.202597 -0.000457536)
(0.566736 -0.000208776 0.000184248)
(0.195214 0.197029 -0.00207406)
(0.565269 0.0024934 -0.00204092)
(0.562538 0.00303631 -0.0030479)
(0.594413 -0.0101332 0.0189073)
(0.564556 -0.000557312 8.53207e-05)
(0.199745 -0.199392 0.000594949)
(0.60066 -0.0138709 0.0187997)
(0.55572 -0.000163304 0.000687731)
(0.56424 -7.07637e-06 -0.000327895)
(0.566687 -0.000328337 0.000456106)
(0.567173 0.000542599 -0.000199532)
(0.199172 0.199228 -0.000186861)
(0.548311 -0.000131059 -0.0020653)
(0.564063 -0.000933478 0.000316729)
(0.558911 0.0002247 -0.000670497)
(0.582493 -0.0109156 0.0166482)
(0.199616 -0.199995 -0.000181902)
(0.567466 0.000540318 0.000618519)
(0.562774 -0.000630379 0.000174806)
(0.56641 -6.56678e-05 0.000228506)
(0.557064 -0.00122989 -0.000418652)
(0.567952 0.000252169 -0.000133401)
(0.563855 0.00125379 0.000963298)
(0.566787 0.00258839 -0.00169386)
(0.564948 -0.000398812 0.000208255)
(0.565444 7.13769e-05 2.89538e-05)
(0.557776 0.000820213 -0.00116786)
(0.564928 -0.000174626 -0.000124823)
(0.56437 0.000210102 -7.26213e-05)
(0.540932 0.00126219 -0.00104085)
(0.562786 5.10725e-05 -0.000219141)
(0.562774 0.000130734 0.000273117)
(0.567644 0.000159846 0.000118036)
(0.561882 -0.00101622 0.00068268)
(0.569824 -0.00319945 -0.000966894)
(0.199481 -0.199204 -0.000146026)
(0.590063 0.00267473 0.00630224)
(0.546954 0.000644579 -0.000866265)
(0.554213 0.00285637 -0.0071526)
(0.564791 -0.000162561 0.000113821)
(0.562245 0.00038457 0.000735581)
(0.199412 -0.199035 3.01835e-05)
(0.566507 0.00105942 -0.000579897)
(0.559161 -0.000282427 0.000658242)
(0.203243 -0.194647 0.000343541)
(0.565669 -5.58506e-05 0.000272914)
(0.199991 0.200042 -5.34793e-05)
(0.196477 0.201286 0.000519207)
(0.56324 -5.87084e-05 9.08602e-05)
(0.564632 -0.000682387 0.00118417)
(0.564542 -0.000411438 0.000184499)
(0.490976 -0.00580636 0.00269839)
(0.567826 0.000229563 0.000295427)
(0.197991 0.198557 0.000297715)
(0.566113 0.000193359 -0.000316798)
(0.19731 0.199024 0.00129975)
(0.562921 9.93427e-05 -0.000548537)
(0.200085 -0.200252 -1.41952e-05)
(0.564368 -0.000397197 0.000385956)
(0.565345 0.000225507 2.34733e-05)
(0.198904 0.198364 -1.13035e-05)
(0.199021 -0.199212 0.000129382)
(0.201361 0.198084 -0.00338417)
(0.563061 -7.65529e-05 -0.00026813)
(0.56589 0.00134694 0.000396621)
(0.560206 0.000766111 -0.000374726)
(0.56671 -0.000266775 6.18112e-06)
(0.277606 0.142079 -0.00526839)
(0.563274 -0.000401953 0.000953183)
(0.199302 0.199501 3.04529e-05)
(0.199569 0.200004 -5.64631e-05)
(0.564981 0.00258545 0.000935644)
(0.56007 -0.000462958 5.31996e-05)
(0.199361 -0.196653 0.000734865)
(0.563758 0.000309645 0.00117057)
(0.574335 0.000254526 -7.19437e-06)
(0.379566 -0.147432 0.0156097)
(0.526836 -0.00159273 -0.000373669)
(0.551536 0.0163447 -0.0118726)
(0.562555 0.0027298 0.00160624)
(0.56109 -0.000266808 -0.00249294)
(0.563485 -0.00168529 0.00130317)
(0.562492 0.000476617 -0.000494607)
(0.563748 0.000124322 -0.000177468)
(0.565005 -2.22236e-05 -0.000430892)
(0.5647 -0.000549542 -0.000503659)
(0.553116 -0.00290997 -0.000646592)
(0.560733 0.0044297 0.000766325)
(0.575969 0.00422491 -0.00285517)
(0.581609 0.00299886 -0.000768417)
(0.564381 0.000357744 -0.00135957)
(0.530791 0.000413182 -0.00303398)
(0.571635 0.00240802 -0.00165068)
(0.198922 -0.199129 1.76644e-06)
(0.560189 0.000616395 -0.00129333)
(0.199602 -0.199554 0.000197171)
(0.561369 -4.50202e-05 0.000208671)
(0.584026 0.00148603 0.00227282)
(0.567171 1.30835e-05 -0.000121342)
(0.567473 -0.0276175 0.0127763)
(0.53279 -0.00247852 0.000872125)
(0.535129 -2.71195e-05 -0.00641547)
(0.561624 -0.00052255 0.000208343)
(0.563034 -0.000244617 0.000697)
(0.563948 0.0012389 0.00236769)
(0.587468 0.0136026 0.0117855)
(0.563707 -3.4044e-05 8.05476e-05)
(0.563966 -0.000237004 0.000165628)
(0.199998 -0.19986 0.000342677)
(0.561582 -9.59638e-05 -0.000226215)
(0.558014 -0.00162796 1.32689e-05)
(0.199437 0.199209 -3.42681e-05)
(0.564305 -0.00147101 0.000762158)
(0.575477 0.0180866 0.00858642)
(0.572302 -0.00455502 0.00662756)
(0.565 7.67312e-05 -0.00135358)
(0.561272 -0.000258498 0.00150636)
(0.200473 -0.20042 -0.00093217)
(0.205317 -0.202252 0.000309142)
(0.574119 0.00580894 -0.00174334)
(0.565975 -0.000364791 -0.000491699)
(0.563241 -0.00103562 -0.00402448)
(0.202961 0.200382 -0.00178365)
(0.56522 -0.000609661 -0.000407768)
(0.200613 -0.199902 0.000298643)
(0.562048 -0.000428364 -0.000184136)
(0.563664 -0.00081367 -0.00101063)
(0.516661 -0.00741211 -0.00340188)
(0.5807 -0.00164419 0.00291211)
(0.200021 0.19974 -4.24428e-05)
(0.565385 -0.00104942 0.000624201)
(0.554038 -0.00011608 0.000337813)
(0.56241 -9.7559e-05 -0.00190891)
(0.566114 -0.000703676 -0.000177748)
(0.563947 0.00101877 -0.000954917)
(0.565192 -0.0012721 -0.000184056)
(0.562667 0.00166132 9.77688e-05)
(0.562262 0.000232266 1.52438e-06)
(0.580681 0.00142305 0.00230584)
(0.199645 -0.199553 0.000250339)
(0.546938 0.000445254 -0.000260203)
(0.561541 -0.000219396 0.00109336)
(0.577629 -0.00113176 0.00147471)
(0.564682 -0.000135955 -5.7453e-05)
(0.555085 -0.00142665 0.00160754)
(0.576993 6.00424e-05 0.000610413)
(0.200502 -0.199437 -0.000180985)
(0.560193 0.00514249 0.00195343)
(0.559697 0.00734202 0.00688589)
(0.567506 -0.000221648 -0.000148125)
(0.563821 0.000651733 -0.000625852)
(0.56575 0.000162738 4.98168e-06)
(0.560566 -0.00508286 -5.45789e-05)
(0.198388 0.198591 -0.000306394)
(0.199874 0.1998 3.04397e-07)
(0.198963 0.199802 2.53318e-05)
(0.563772 0.00214922 0.00285436)
(0.554083 -0.00310424 -0.00801634)
(0.504371 -0.00179856 0.000867994)
(0.577111 0.0010473 0.000578873)
(0.566687 -0.00296119 0.000960492)
(0.562937 -0.000512751 0.000678448)
(0.563137 0.0006988 -6.73919e-05)
(0.560058 0.000139301 0.000571781)
(0.563477 -0.00014707 0.000177861)
(0.202948 0.198906 -0.000344587)
(0.555943 -0.00676468 1.7358e-05)
(0.562454 -0.00057196 -0.000101705)
(0.560004 0.000882742 0.00130227)
(0.562513 -0.000577885 0.000591856)
(0.571969 0.000495067 0.000483034)
(0.567418 0.00077745 9.92877e-05)
(0.560729 0.000716759 -0.00080935)
(0.59031 -0.00131897 0.00688315)
(0.574135 0.000920496 0.000255219)
(0.559863 -0.000555056 -0.00130414)
(0.571365 0.000334107 -0.000110601)
(0.559644 0.000799564 0.00146217)
(0.562083 -1.64026e-05 -0.000153273)
(0.556085 0.00348637 0.00266693)
(0.566554 -0.000217608 -0.000464226)
(0.197299 0.196543 0.000419078)
(0.198801 0.198749 -9.45112e-05)
(0.573656 -0.00183124 0.00079275)
(0.557043 0.000335001 0.000326108)
(0.566082 7.35045e-05 0.000489092)
(0.199188 0.200507 0.000238467)
(0.20001 -0.199959 -0.000256208)
(0.56275 -0.000771388 -0.000139666)
(0.200485 -0.200706 -8.73502e-06)
(0.564084 0.000275038 -2.44888e-06)
(0.567278 -2.13778e-05 -2.33637e-05)
(0.565725 -0.000248402 0.000113224)
(0.570638 0.000213644 0.000276593)
(0.561033 -0.00420645 -0.00135973)
(0.197936 0.200093 0.00148552)
(0.568062 -0.000722145 4.99444e-05)
(0.564781 -0.000202644 -5.64469e-06)
(0.198152 0.19836 0.000187189)
(0.563496 0.000303865 0.000467467)
(0.198282 0.200198 0.000328591)
(0.197312 0.196192 9.43649e-05)
(0.566814 0.000226976 -0.00050267)
(0.567468 0.000658923 -0.000130904)
(0.564248 -6.64563e-05 4.88075e-05)
(0.199166 0.198899 -0.000638872)
(0.199052 0.199097 0.000121031)
(0.486569 -0.000420793 -0.000907683)
(0.565736 -0.000506029 0.00099358)
(0.566212 0.000110836 -0.000248721)
(0.567069 -0.000399648 -0.000361953)
(0.564094 0.000506998 -0.000723849)
(0.565967 0.000244268 -0.000458007)
(0.563148 0.0202617 -0.0143866)
(0.199761 -0.200313 -0.000235177)
(0.564146 -0.000510202 1.71791e-05)
(0.56083 2.08259e-05 0.000178918)
(0.199429 0.199453 -4.01448e-05)
(0.200328 0.19868 -0.000271641)
(0.557004 -0.000213462 0.000182607)
(0.563698 -0.000377276 5.31824e-05)
(0.198436 -0.198836 0.00060168)
(0.566655 -0.0002978 -7.64359e-05)
(0.564931 0.000195271 -0.000183808)
(0.564932 -3.80781e-05 -0.00108228)
(0.590533 0.0429722 -0.0161466)
(0.563172 0.000477783 8.67233e-05)
(0.56891 -0.000438609 -2.77251e-05)
(0.559139 0.0241791 -0.00310825)
(0.637522 0.129679 -0.0578132)
(0.566481 1.54287e-05 0.000117179)
(0.255647 0.159984 -0.00764455)
(0.56168 0.000569804 -0.000145387)
(0.200367 -0.199998 -6.25818e-06)
(0.558101 9.28401e-05 0.000969071)
(0.199714 -0.199531 0.000636454)
(0.565532 0.000142994 -0.000482496)
(0.563666 0.000437802 -0.000423257)
(0.1995 0.200294 -0.000235192)
(0.560796 0.00059716 0.000714384)
(0.565818 -0.000613875 -0.00027937)
(0.568218 -0.000303811 -0.000269408)
(0.19942 0.199114 4.73842e-05)
(0.198756 -0.199015 -0.000230218)
(0.561692 -0.000552829 0.000768285)
(0.16319 0.116423 0.043851)
(0.567008 -0.00122712 -0.000653213)
(0.200421 -0.199736 0.000193834)
(0.58234 -0.000952834 0.00732463)
(0.561721 0.000462074 -0.000119661)
(0.567172 8.92549e-05 -0.000293673)
(0.200404 -0.198004 -0.00141018)
(0.568144 -0.000302521 -0.0001741)
(0.565509 -0.0009877 0.000598913)
(0.207058 0.195989 -0.00112355)
(0.568369 0.000178683 -0.000722183)
(0.566338 0.000276516 -0.0012291)
(0.567654 0.000310921 7.10039e-05)
(0.566567 -0.000303325 -9.55085e-05)
(0.568047 -6.122e-05 -0.000195385)
(0.566127 -0.000432227 -0.000477256)
(0.200167 -0.200659 -0.000272369)
(0.192469 0.193549 0.000609891)
(0.560471 0.000412497 0.000979678)
(0.565497 0.000877216 0.00224847)
(0.564719 -6.09764e-05 -0.000362992)
(0.568097 9.88119e-05 -0.00035765)
(0.199525 0.199446 2.25099e-05)
(0.56606 -0.000204527 -3.8737e-05)
(0.565359 0.00011958 -0.00100867)
(0.570996 -0.000290128 0.000404261)
(0.566701 0.000207873 -0.000270707)
(0.568434 -4.74066e-05 -0.000362731)
(0.56042 0.000813107 0.000748096)
(0.565349 0.000521978 -0.00111362)
(0.565028 0.000517451 -0.000810889)
(0.198827 0.198663 -0.000342339)
(0.558625 0.00046904 -0.000133124)
(0.227812 -0.191974 -0.00760908)
(0.553902 -0.00353201 0.000537467)
(0.196659 0.191302 -0.00190575)
(0.198296 0.198714 -4.80887e-05)
(0.565709 -3.10216e-05 0.000145797)
(0.564824 1.2155e-05 0.000236331)
(0.199178 0.198863 -6.27562e-05)
(0.555859 -0.000488131 0.000466785)
(0.565506 -0.000625624 4.61773e-05)
(0.566355 -0.000483291 -0.000125545)
(0.566304 2.17523e-05 -0.000541404)
(0.199204 0.198398 0.000738471)
(0.56495 0.00028176 7.13356e-05)
(0.559943 -4.89724e-05 0.000671771)
(0.56055 4.12974e-05 0.000585389)
(0.567148 0.00021522 -0.000309017)
(0.56243 2.50491e-05 0.000400116)
(0.567027 -0.000102922 -0.000376254)
(0.565624 5.34704e-06 -0.000123937)
(0.565848 0.000166514 -0.000118799)
(0.562375 -8.78463e-05 0.000280885)
(0.573741 -0.000843694 0.000494033)
(0.157328 0.0629023 -0.0717646)
(0.562825 -3.36346e-05 0.00037083)
(0.198256 0.198719 0.000268255)
(0.565514 0.000175498 0.000905807)
(0.566686 -0.000174648 -0.000688429)
(0.562936 0.0022985 -0.000566428)
(0.558046 -0.00216369 0.00389391)
(0.564427 -0.00101199 0.00209812)
(0.568214 0.000377701 6.11722e-05)
(0.567415 -9.58793e-05 -0.000809103)
(0.5669 -0.000261726 -0.000270479)
(0.567042 -0.000809238 -0.000894707)
(0.561138 -0.00110365 0.000856941)
(0.197997 0.199504 -0.00288554)
(0.566703 -0.000241924 0.00023805)
(0.56599 0.000339176 0.000332848)
(0.567896 -0.000312107 8.82062e-05)
(0.56602 -0.000101641 -0.000396053)
(0.566385 -0.000738899 -0.000630031)
(0.562662 -8.09935e-05 0.000387542)
(0.556428 0.00647276 -0.00109184)
(0.572299 0.000756017 0.000636752)
(0.558272 0.00181789 -0.000922205)
(0.562509 0.000320056 -0.000888576)
(0.199323 0.199332 8.59771e-05)
(0.20051 -0.199733 -3.09704e-06)
(0.566787 0.000168565 0.000195844)
(0.567759 0.000424773 0.000322596)
(0.562603 -0.00052966 0.000431028)
(0.558828 0.000712783 -0.00209937)
(0.561467 -0.000864927 5.90475e-05)
(0.198843 0.199073 -0.000323682)
(0.199095 0.199301 -0.000156038)
(0.566905 -0.000823818 -0.000893798)
(0.564105 -0.000431732 0.000162044)
(0.565599 -0.000280948 -0.000327264)
(0.565728 -1.78557e-05 -0.000197207)
(0.565 -0.000133691 -0.000731461)
(0.566435 -0.00037159 -0.000196651)
(0.220621 -0.15344 -0.0145549)
(0.568007 0.000171364 -2.7999e-05)
(0.561831 -0.00114621 0.000861939)
(0.559947 0.000516841 -0.000829006)
(0.556673 3.39269e-05 -0.0017784)
(0.568197 -0.000135507 -0.000101485)
(0.541731 0.00339808 -0.0127189)
(0.557133 0.0161349 -0.0105501)
(0.568002 0.000106911 3.42755e-05)
(0.562173 -0.000833769 0.000830109)
(0.560595 -0.000280131 0.000385225)
(0.563114 -0.000623902 0.000636818)
(0.573254 0.000267921 -0.00100882)
(0.199322 0.199348 5.40181e-06)
(0.556525 0.00231799 -0.00216229)
(0.567251 -5.55443e-05 -5.40215e-06)
(0.550615 -0.00211262 -0.00584747)
(0.566148 0.000120429 -0.00058918)
(0.566919 8.22298e-05 -0.000594429)
(0.19973 0.197602 -0.000812277)
(0.563207 -0.000962342 0.00411337)
(0.573329 -0.000451524 0.000105225)
(0.567123 -1.09161e-05 -0.00060066)
(0.56114 0.000313966 0.000993148)
(0.553652 -0.000169776 -0.0016712)
(0.199309 0.20511 -0.00187075)
(0.197819 0.195524 -0.0010341)
(0.566088 0.000348093 0.00018419)
(0.566564 -0.000220419 -0.00015995)
(0.566541 -0.000108221 4.38439e-05)
(0.567789 -5.08537e-05 3.84603e-05)
(0.566358 0.000152604 2.76792e-06)
(0.565481 0.000583271 0.000460298)
(0.562493 -0.0006448 0.000811318)
(0.566525 0.00160893 -0.0027445)
(0.565639 -0.000225301 -0.000856434)
(0.566168 0.000867785 -0.000281473)
(0.564126 -0.00127529 0.00227185)
(0.561243 0.00117514 -0.000713036)
(0.562857 -0.000651812 0.00014337)
(0.566443 0.000198591 -0.000406159)
(0.198624 0.198604 9.23607e-05)
(0.566931 4.49407e-05 -0.000300229)
(0.200425 0.200579 -0.000126336)
(0.199593 0.199155 6.40223e-06)
(0.565825 0.000949716 -0.000461958)
(0.562748 8.61057e-05 0.000179936)
(0.566945 -0.000828532 0.000527543)
(0.200416 -0.200246 -3.56791e-05)
(0.564517 -1.28422e-05 0.00043003)
(0.560786 0.0010679 -0.00171999)
(0.56762 0.000531219 -0.00108478)
(0.199547 0.199645 9.29305e-05)
(0.565103 -0.000314285 -0.000202669)
(0.197084 0.198847 -0.000606633)
(0.563459 -0.000330259 0.00333879)
(0.198082 0.196997 -0.000117916)
(0.561775 -0.000262982 0.00102337)
(0.558435 -0.000237215 0.00107181)
(0.563706 -0.000149854 1.70625e-05)
(0.565584 0.000776198 -2.92371e-05)
(0.200338 -0.200254 0.00010301)
(0.198375 0.198349 -0.000171014)
(0.566819 0.00264207 -0.00299928)
(0.555295 -0.000242748 0.00187598)
(0.567472 8.49347e-05 -0.000853255)
(0.566228 7.40963e-05 -0.000354744)
(0.565178 2.32893e-05 -0.000758402)
(0.563951 0.00115966 -0.000330585)
(0.574576 0.0031753 -0.00126184)
(0.199742 0.199932 -0.000289523)
(0.581975 0.00702646 -0.000878463)
(0.565134 -0.000522148 -0.000742987)
(0.541717 0.0634321 -0.0394581)
(0.198089 0.196662 0.000529778)
(0.567622 0.00127783 -0.0016191)
(0.54654 0.000442235 0.00149723)
(0.199411 0.19782 0.00170426)
(0.581613 0.00227027 0.00103186)
(0.567739 -0.000247699 -0.000529013)
(0.199678 -0.199564 -6.93898e-05)
(0.558478 7.67147e-06 0.00128515)
(0.596278 0.00835074 0.00136743)
(0.566722 -0.000497426 -0.000170523)
(0.561977 -0.00146257 0.00245425)
(0.576383 0.00502305 0.0272976)
(0.560352 0.000809908 -0.000470241)
(0.563964 -0.000140721 -0.000401899)
(0.560373 0.00010548 -0.00196498)
(0.539786 -0.000117576 -5.26399e-05)
(0.566962 -0.0231578 0.0258303)
(0.56423 0.000312197 0.000795204)
(0.555455 -0.00109359 -0.000160271)
(0.566448 1.29395e-05 -0.000164652)
(0.575439 -0.00144322 0.000972281)
(0.567318 -3.81665e-05 7.7453e-05)
(0.567687 0.00225795 -0.00161506)
(0.199412 0.199488 2.6965e-05)
(0.566516 0.000727306 -0.000316072)
(0.580702 0.000431221 0.00147253)
(0.59104 0.00566178 0.00782136)
(0.19974 -0.199759 -7.59829e-05)
(0.562162 -0.00108094 0.00108498)
(0.569014 0.000418313 -0.000190201)
(0.197201 0.195145 0.000401477)
(0.557978 0.000403234 -6.47375e-05)
(0.562282 0.00016788 -0.000472991)
(0.566146 0.000404801 -0.000613655)
(0.568924 0.000361768 9.29109e-05)
(0.56204 -0.000549126 -0.000346518)
(0.565471 -0.00023774 0.000199702)
(0.198909 0.199227 -0.000231233)
(0.562281 -0.000284396 -0.0017663)
(0.57068 5.56274e-05 -0.000293289)
(0.198981 0.198968 0.000236769)
(0.200022 0.199453 -0.000106121)
(0.565788 0.000429022 0.000316264)
(0.19943 0.199785 -0.000110248)
(0.564467 -0.000191428 0.000385578)
(0.560179 -0.0040531 -0.000336271)
(0.566238 0.000269263 -0.000310826)
(0.56237 -0.000612411 -0.00229338)
(0.562328 -8.02189e-06 -0.00183524)
(0.284089 -0.019991 0.0422443)
(0.199424 0.19967 0.000193355)
(0.57149 0.000313411 -1.20231e-05)
(0.566141 5.18767e-05 0.000154366)
(0.562952 0.000572058 -0.000472821)
(0.560646 0.00272835 -0.00192662)
(0.563175 -0.00015075 -0.000794744)
(0.19914 0.199303 -0.000233886)
(0.54447 -2.73844e-05 -0.000684268)
(0.560746 -0.000184703 -0.000924074)
(0.555986 0.00165778 0.0041757)
(0.56706 -0.000222032 0.00110318)
(0.563755 -0.00106486 -0.000305257)
(0.55452 0.0172726 -0.0203855)
(0.566549 -0.00164187 5.16171e-05)
(0.551137 0.00594044 -0.0108903)
(0.198597 0.195263 -0.00119322)
(0.199662 0.199606 0.000176694)
(0.199002 0.199148 -0.000118618)
(0.566947 0.000300893 -0.000109605)
(0.565948 -0.00049941 -0.000507388)
(0.199125 0.198571 -0.000101344)
(0.564229 -0.000118444 0.000813358)
(0.557586 0.00377118 0.00295555)
(0.557151 -0.000746098 -0.000589315)
(0.5013 0.0706356 -0.0406509)
(0.559331 -0.000794405 -0.000488893)
(0.565781 0.000201213 0.000123472)
(0.199879 0.204259 0.000329918)
(0.557083 0.0130637 -0.0208202)
(0.199879 0.199836 0.000187101)
(0.198918 0.198378 0.000350986)
(0.566185 -0.000225432 -2.84704e-05)
(0.317934 0.243248 0.0367018)
(0.290056 -0.117949 -0.0039405)
(0.562628 -0.00133002 -0.00011387)
(0.194326 -0.197747 0.000260071)
(0.566256 0.000125961 -7.24702e-05)
(0.560745 -0.00252238 -0.00516936)
(0.570005 0.0196544 -0.0138741)
(0.56577 -0.000194925 0.000360379)
(0.575737 0.011019 -0.00365804)
(0.563835 0.0003477 0.000188152)
(0.570719 -0.0366455 -0.0107653)
(0.199011 0.198994 3.59086e-05)
(0.198898 0.198032 0.000213861)
(0.564642 -0.000987888 -5.19606e-05)
(0.563579 -0.000697822 0.00106758)
(0.566979 -0.000417935 0.000202177)
(0.195871 0.198987 -0.00154597)
(0.56018 0.00115415 1.31457e-05)
(0.565588 -0.000416652 0.000101404)
(0.56589 -6.79592e-05 -0.000265911)
(0.199252 0.199478 0.000836817)
(0.565648 0.000221978 -0.000593554)
(0.565823 -0.000243159 -0.000263223)
(0.510974 0.0571526 0.0377791)
(0.199121 0.199148 -0.000146723)
(0.645195 0.172757 -0.00643234)
(0.522311 0.0735104 -0.0535629)
(0.2002 -0.199484 4.35508e-05)
(0.19981 0.199088 0.000344951)
(0.198923 0.198533 5.48457e-05)
(0.200499 0.199838 0.00041768)
(0.200026 0.199704 -0.000769748)
(0.565855 0.000580098 -0.000112105)
(0.566379 -0.000141633 0.000213022)
(0.56494 0.000511014 0.000162652)
(0.199456 0.198445 0.00017091)
(0.56503 -0.000328897 -0.000139776)
(0.567505 1.9666e-05 0.000426261)
(0.199649 0.198944 0.000264919)