/*--------------------------------*- C++ -*----------------------------------*\
  =========                 |
  \\      /  F ield         | OpenFOAM: The Open Source CFD Toolbox
   \\    /   O peration     | Website:  https://openfoam.org
    \\  /    A nd           | Version:  10
     \\/     M anipulation  |
\*---------------------------------------------------------------------------*/
FoamFile
{
    format      ascii;
    class       volScalarField;
    location    "30";
    object      p;
}
// * * * * * * * * * * * * * * * * * * * * * * * * * * * * * * * * * * * * * //

dimensions      [0 2 -2 0 0 0 0];

internalField   nonuniform List<scalar> 
111485
(
7.87144
0.0266367
0.0172676
7.87228
0.0102755
7.60798
0.0106819
0.0195365
0.0110195
-0.00231606
0.0101695
0.0072348
0.0144232
-0.000952784
0.0125366
0.03808
0.0267063
8.79331
0.0156708
7.87286
7.87301
7.61061
0.00860564
0.0271361
0.00485296
7.84631
0.0136314
0.0457042
0.0160845
7.87257
-0.0861028
0.0170024
7.87489
7.60509
8.5734
7.56495
-0.062031
0.0521574
-0.12478
0.0215153
7.65225
-0.00251344
0.0222122
-0.0349838
-0.260972
7.88652
-0.0159206
0.02274
-0.00719039
7.91443
7.9125
7.3606
7.92098
-0.0488719
7.92599
0.0248842
0.0162702
7.6132
-0.0956703
0.0189071
0.020096
7.87188
0.0189657
-0.0758013
7.6566
0.0247808
5.09922
0.0172249
0.00529578
0.0166219
-0.143045
0.0309119
7.72454
0.00543195
7.87808
0.0323176
7.61011
-0.00533975
7.60905
8.0555
-0.114875
-0.03467
7.60946
7.87433
0.0244112
0.00922247
1.74008
-0.0553776
-0.107175
0.0388426
-0.215714
0.0110514
0.0228514
0.0465823
-0.00202184
7.87401
7.87194
-0.0388016
-0.740552
0.0655523
7.87172
0.00512914
7.59428
-0.00953619
0.0109797
7.91147
7.61224
0.0160224
0.00861692
-0.350887
0.0218302
0.0332531
0.0166226
0.00577923
7.84285
0.0319191
7.85943
7.60542
0.0111152
7.87379
7.84529
6.66082
7.61031
7.61338
-0.00404059
8.95363
6.62332
0.0193884
7.87502
0.382504
-0.106078
-0.0401912
7.87855
6.50741
6.79647
0.0106151
7.60989
0.0328485
0.00843441
0.0277067
-0.0390134
0.0106568
0.0159208
0.0166597
-0.0228998
0.0329898
7.60989
7.87345
7.61842
0.0171995
0.0133836
7.87068
-0.0744241
0.00926321
-0.668981
0.0188612
0.0147152
0.00945636
-0.525809
7.8798
7.87256
0.01601
0.00735661
-0.485923
-0.606742
0.0257581
-0.0668583
7.64049
-0.447974
-0.414326
7.61312
7.87292
0.00578032
7.61105
0.0296173
0.0172653
7.66627
7.70218
7.86214
7.81039
7.67324
7.8716
0.0239319
0.0192213
0.0261536
0.0701106
0.000940426
0.0282804
-0.0519523
7.87243
0.0161588
7.69743
7.86025
0.0362704
-0.00881709
-0.0508226
0.0319288
0.0163219
7.87892
0.0227258
0.0176191
5.2935
-0.0213966
0.0258673
7.86926
0.0321413
-0.0101173
7.6962
-0.05653
-0.0257779
0.0145045
0.0147976
7.66589
7.87154
0.0285723
4.95311
-0.0396743
7.6108
0.0311659
0.034262
-0.00387494
7.87156
0.0201541
-0.0656718
5.98597
7.61082
7.61322
-0.120847
-0.593901
7.72426
7.29264
0.0324237
0.0236555
-0.0819515
7.72234
7.80463
-0.0735806
7.87585
0.00764874
0.0298185
0.0301659
0.0177615
0.0292955
7.61439
-0.111775
0.0186693
7.61715
7.60961
-0.053925
0.0322729
7.78213
0.0307967
0.0305098
7.87361
6.35114
-0.0271551
7.88643
8.02281
7.18586
7.87255
0.0261319
0.0199413
-0.010523
7.87589
0.0299986
7.87216
7.87058
7.87867
-0.0810747
-0.0119937
0.0257562
0.0168476
0.000503008
0.0196929
0.0170935
-0.0836115
0.0107956
0.0215726
7.57032
7.8733
-0.0850325
0.0201073
-0.0950017
0.0260968
7.8734
0.0263524
0.0129562
0.0198996
0.0166839
-0.115377
0.0150899
0.0182944
-0.024924
7.60972
-0.0135907
7.61114
8.73694
8.09019
-0.126533
-0.0114979
0.00969736
7.86569
7.674
0.0275003
0.0272165
7.87035
7.86936
7.93
0.0188447
0.0308522
0.0202714
0.0169329
0.0128649
7.22469
7.61646
7.87487
0.0311402
3.23947
-0.00529754
-0.116068
-0.0905033
7.61039
7.87109
7.87187
6.79059
0.0242759
0.0167212
7.60214
0.0272755
7.77916
7.86221
-0.0370674
0.0248677
0.00234899
0.0273549
7.98461
6.75466
7.60546
0.0247211
0.0198237
-0.0868494
7.649
0.440668
-0.154062
0.0174294
0.0292143
1.26283
0.0112218
7.60841
0.00632232
0.0304887
-0.106882
-0.0432653
0.00702034
7.60792
7.87624
7.61079
7.87554
0.0261361
0.0248442
-0.0144764
0.0158812
7.62626
0.0109651
7.61327
7.87896
0.0124231
8.1379
6.94888
7.91571
7.56024
0.0177904
7.61182
0.0173031
0.0160779
7.60884
0.00541013
0.0264495
7.85248
0.0260401
0.0107611
0.0320796
-0.05291
0.0408672
0.0302941
7.99227
7.87406
-0.0233588
7.63003
0.00432786
-0.0496785
7.66497
7.61253
0.0267161
0.00790706
-0.000276905
0.0231964
7.60979
-0.0836428
0.00265441
7.60612
-0.0363829
-0.0123078
7.87058
7.87178
0.0248052
0.00533792
7.59034
7.86341
5.85386
7.87106
0.0106217
7.61096
7.87192
-0.000423775
-0.0996815
-0.00951603
0.0183663
7.60907
6.80813
-0.00951084
6.90621
-0.0323506
-0.00625463
0.00400836
5.27394
6.98093
-0.489004
-0.318277
7.87007
-0.0534775
0.00983115
7.86966
-0.51897
-0.0028918
6.94512
0.0042659
0.00594472
0.0387903
7.61019
0.268778
0.00307834
0.0491697
-0.138597
6.59952
-0.604098
7.87158
-0.0456604
-0.169046
7.61381
-0.00713999
-0.00917561
6.41735
7.87481
7.46802
7.87197
0.0114704
0.0783629
0.0102787
0.00944299
-0.0590963
7.61116
-0.0460746
7.88374
0.0231729
7.59728
7.88111
7.88857
0.000379964
7.87496
7.87154
8.34373
7.87035
7.62164
-0.019054
7.61121
7.4158
7.60768
7.85905
7.60274
7.88115
7.61089
-0.00177834
7.60618
-0.0201874
0.00113429
-0.0919364
7.61753
-0.0170265
7.61533
7.87115
-0.00546886
-0.00603272
0.0408932
-0.127127
7.32034
-0.0116621
-0.0199926
0.0231765
-0.0124418
-0.00327348
7.87402
-0.00408945
6.42858
0.000152188
7.61051
-0.0286777
6.65301
0.0235107
0.0146085
8.29106
7.67494
-0.0308991
7.87062
-0.0127861
-0.0283678
7.62036
7.62779
7.92012
7.6126
-0.979146
-0.0135491
7.60673
7.6176
0.00790262
7.61055
-0.0134351
7.60938
-0.0189074
7.87137
0.00699047
0.00607017
0.0517983
0.0224647
7.58968
-0.12844
7.60458
7.61038
0.00281534
7.61161
-0.002599
7.92635
-0.0315516
7.8732
0.0221415
7.87301
6.95271
-0.111898
-0.0482632
-0.0178566
0.0067469
-0.0296664
-0.00482435
7.61749
-0.0243226
-0.0287368
7.61028
-0.0545816
-0.0667193
-0.00976966
7.68025
8.03273
0.0311358
-0.0401698
3.67246
7.71759
-0.00146257
0.0195499
0.00358629
0.000509485
0.157516
2.52068
6.85919
-0.702251
3.13683
7.87249
0.00775799
7.62928
6.9836
0.0306148
2.46601
-0.721723
1.41956
6.85714
-0.0139967
0.0148469
7.62574
7.44286
0.0219481
7.87811
7.61062
7.61126
7.61606
-0.00127911
7.61183
7.82986
0.00438549
0.0265416
6.01074
-0.0304947
7.30715
0.02757
7.91981
7.61537
-0.00732701
7.60966
7.61602
6.95038
0.0456859
4.63275
-0.025657
0.0382475
7.88618
-0.229325
-0.0690942
0.00369519
-0.0175454
0.247088
-0.000808627
7.6129
-0.00848135
0.00657308
7.87681
0.0206905
-0.0233948
0.0123082
0.0348975
0.0123186
0.0112693
7.88649
-0.00169072
-0.0582203
6.93057
0.0131006
0.0130838
4.83248
0.0392674
0.0135018
0.00362274
0.0065061
0.0150431
0.0333534
7.75622
0.00896906
-0.0021662
8.22938
-0.00604052
-0.0201793
0.037084
7.61321
0.0493681
7.8914
7.61023
7.62241
7.61413
0.0158916
7.0436
-1.04949
7.86847
7.55132
0.00342686
-0.00223972
7.8695
-0.0111129
7.86964
7.87377
7.92219
-0.0079107
0.00590772
6.97949
7.82091
7.61212
7.61206
-0.0683309
0.0210316
6.79812
0.00126372
-0.41695
7.61593
0.00887384
-0.0168147
0.0844577
7.60993
7.61031
0.0222608
0.031732
6.91407
7.61361
7.60242
0.0173174
7.87637
7.86902
7.61212
0.00511781
0.0199083
7.6099
8.47968
8.21224
0.150779
7.615
7.60979
-0.0231231
-0.0764784
6.89866
5.94338
1.13268
-0.013597
0.00209545
7.58951
-0.0211352
-0.00409087
7.60818
7.91957
7.60934
7.61107
7.61429
7.60917
0.021691
7.87078
7.61008
7.67088
0.0131893
0.0167751
7.87652
7.93287
-0.0246087
0.0255473
0.0356962
7.86837
7.61067
0.0262632
7.87405
-0.00871495
0.0195626
0.042643
7.84907
7.87179
7.87163
7.61114
0.0347421
7.61054
7.61001
-0.0358817
7.87171
0.0346815
0.00682246
7.63489
0.0353484
7.83987
0.0242477
-0.00440423
-0.0248881
-0.0169632
-1.29036
7.2276
0.0223273
-0.0124311
0.000916572
7.78519
-2.12387
7.14494
0.0240729
7.61378
-0.0292667
-0.013974
-0.0326446
8.07814
7.87188
7.87498
0.0295841
7.30402
-0.0256965
7.44114
0.0258784
0.0344524
0.0104271
0.0247127
7.60878
7.63723
7.74575
0.0274875
7.61322
7.22498
-0.160216
7.61224
7.6192
7.87326
7.60978
0.0109724
7.60039
7.61137
-1.58555
7.28643
7.63176
7.0617
7.61159
-0.037527
0.0142259
7.87058
0.0157964
0.998817
-0.0377355
-0.391088
0.0246591
7.61588
-0.0106955
-0.0319565
-0.0368667
7.87375
-2.65887
0.0110935
6.46535
-0.00290893
-0.119571
-0.105286
0.00358645
0.0278352
-0.142327
0.0389611
0.0284337
7.58963
7.62731
0.0119949
0.000348877
7.61452
0.0145337
0.00527506
0.0227821
7.60904
-0.123575
7.60962
0.0203508
0.0142967
7.61011
-0.0658647
0.0281109
-0.16173
-0.0215997
7.56757
0.0156638
-0.155898
-0.0771188
-0.159525
-0.0417484
7.60025
7.62025
-0.0246506
7.60981
0.0280906
-0.0803139
6.719
-0.473866
-0.828162
-0.305161
7.60969
6.37761
0.0262
7.87428
9.46274
-0.049665
7.60579
7.60917
-0.727749
-0.863043
7.60991
-0.12413
7.61108
7.60969
7.87604
7.87044
7.95381
7.87308
-0.0279352
7.61506
7.6135
7.61885
-1.44638
0.0120726
0.000464549
0.0272758
7.62436
7.60932
-0.0515142
7.6108
7.61305
5.80839
-0.0559604
0.0247397
7.60963
7.60521
7.62214
7.60952
7.55566
7.60857
-0.074702
7.61497
-0.204606
0.0127717
7.61172
7.88222
7.9295
-0.12613
7.92166
7.87299
7.62739
-0.213443
7.60834
-0.0677335
-0.072178
-0.182967
7.60746
5.28886
-0.0431973
0.00783622
7.66288
-0.200742
-0.014942
7.88049
7.5869
6.89863
7.60598
0.0246883
0.0140902
-0.0663712
-0.349833
7.61097
0.0275449
7.56601
6.82451
6.85523
7.6133
0.0205355
7.61072
7.94005
-0.0677559
0.0299476
7.93714
-0.000757681
7.31068
-0.0865207
7.97684
7.61037
7.58165
7.872
0.0261985
0.0225048
0.353897
7.61182
7.66182
0.0164284
7.61005
7.06912
7.87148
-0.00364519
-0.337747
0.044995
7.86189
-0.0749453
-0.0627085
8.24048
-0.0624527
7.61902
-0.0422635
-0.0256353
0.00765758
-0.0899904
-0.181005
7.61041
7.61111
7.61072
-0.0745044
7.68082
-0.111448
7.87628
0.731614
7.871
0.0193189
0.0214704
7.94174
7.6096
7.95903
7.61964
-0.113246
7.96713
6.90672
0.0057329
-0.106409
7.91002
7.03473
7.70421
7.05577
7.61202
7.61011
-0.104982
0.00648239
7.87231
7.86477
-0.628196
7.87793
-0.104633
0.0240304
7.69561
-0.036698
7.87196
0.0185094
7.62027
0.0157006
7.60997
-0.58947
-0.309399
-0.149327
-0.0420125
-0.0463563
4.68198
7.54109
-0.0352223
7.91642
0.0145813
7.86991
7.63971
7.6228
7.62101
7.64499
7.61453
-0.0566798
-0.0682011
7.87224
6.65324
7.87772
-0.0557463
-0.126454
7.86877
0.026167
-0.152426
7.92994
0.0271458
0.0269534
0.0173847
-0.149173
7.61013
7.6092
7.63885
7.61051
0.0203906
7.53953
-0.0367256
7.61044
-0.0475835
0.0204637
7.61286
-0.054909
7.60073
7.60982
-0.0481217
-0.0854231
2.13261
7.61112
7.95324
7.60336
0.0220638
7.50339
7.92343
7.52081
0.855804
6.72347
-0.534371
7.02591
7.48431
7.76748
0.0202545
0.00691001
0.0121258
0.0200043
7.85855
-0.0308803
7.61159
7.61284
0.0177965
7.5878
-0.650089
-0.043709
0.0333092
-0.0484789
-0.961672
-0.00268937
7.61208
-1.41694
-2.98735
-0.00837028
-0.0375979
0.0238596
5.54815
7.86725
0.0014193
7.87547
7.60903
-0.246975
-0.00243099
-1.10451
7.59465
7.4396
-0.0766501
7.92953
7.61207
-0.0542892
7.94836
7.93734
0.112831
-0.0547372
-0.0946079
0.0482744
0.027532
7.61481
7.60991
-0.276235
0.0265462
7.61121
7.94259
0.0328398
7.6227
6.61075
6.75785
6.79442
4.35605
6.62641
7.61278
0.0206371
7.59811
-0.0801688
7.61144
3.42347
7.6704
7.63562
7.61242
7.61076
0.0292516
7.6105
7.61023
6.91446
7.6069
7.61312
7.60693
0.0251238
7.62788
0.0220109
-0.0847063
7.63792
0.0415032
7.61094
-0.0270219
-0.208425
0.0184655
0.0270921
7.84507
0.0240008
0.0249585
-0.153665
7.87537
-0.109887
0.0258856
0.0267557
7.32651
0.0181978
7.68321
7.61079
7.61364
7.60994
0.0238076
7.61103
7.60069
0.0206616
-0.137596
0.00852414
7.62178
5.42482
0.0303881
7.61543
-0.373653
7.92672
0.0136113
7.60806
7.61044
-0.00501087
7.60743
-0.0222538
7.8751
7.61103
0.028638
-0.0377377
0.0253609
0.0204819
-0.136685
0.0190427
7.61133
8.01708
0.0143147
0.0300416
0.0309643
-0.0965916
7.60999
0.0226275
7.6099
7.79797
0.0048335
-0.0703307
7.62338
0.0242815
7.59825
0.0195944
0.032029
7.71066
7.60973
7.61124
0.0134805
7.61259
7.61083
0.0167351
0.0199488
-0.0442858
0.023294
7.6324
7.62185
0.0113175
0.0292171
7.61609
0.0116036
7.69962
0.00776352
7.61098
7.61081
-0.00688711
7.60946
-0.0233164
0.0312058
7.61724
7.60911
0.00505645
6.47001
0.0315889
7.87149
-0.0619544
7.88199
6.67894
6.45577
0.0282439
6.96164
6.88707
0.0123814
6.84515
4.25718
6.33061
7.673
7.87641
-0.181552
0.0252325
7.65085
7.60889
0.00175029
0.0131857
7.62169
0.0139124
7.60874
7.8815
0.00457694
-0.00549997
0.126111
7.60986
7.61206
7.61081
7.60997
7.60552
7.60871
7.60381
7.60596
7.60976
7.6081
7.60978
7.87772
7.61332
7.60924
7.61211
7.78461
7.60967
7.60978
7.61001
7.6381
7.81801
0.0197824
7.61151
7.60999
7.62165
0.0279911
7.61357
7.88136
2.94548
7.60046
7.50798
0.0192963
8.24246
7.5641
3.47993
0.0150026
7.611
6.75799
7.2587
7.60924
-0.0319493
0.0162406
0.0154156
0.00509225
0.0331593
7.90138
7.60415
0.0181505
0.0244107
0.00365872
7.60763
0.0227958
-0.0148821
0.0277518
0.0222229
0.0233924
0.00471837
0.0268396
0.0166318
7.88666
0.0236566
0.0272224
0.0136012
0.0201592
7.6094
7.60909
7.60926
7.87207
7.60701
0.0260298
0.0260871
7.61264
7.60962
7.61028
7.8179
7.61176
7.8734
7.61713
7.8779
0.0307884
-0.2267
0.0268618
0.0314458
7.58661
7.6278
-0.0344181
-0.26676
7.60987
7.61058
0.00789524
7.88548
7.61004
0.0655527
-0.000281553
0.01655
0.0326415
-0.0290913
7.89774
0.0144789
0.0227285
6.90833
7.87519
0.0119704
7.8944
7.62376
2.3802
1.2694
-0.00907561
7.76495
7.8501
-0.0455899
0.0232453
0.0328903
0.0253045
3.39129
7.87169
-0.0199652
8.23613
7.87429
7.55686
0.00296088
7.61133
0.0270168
0.0102973
0.0131989
0.0146561
7.87958
0.0370463
7.87567
7.45242
7.87364
7.86462
0.0227973
4.48745
7.61011
7.87218
8.35811
0.0277032
6.85467
0.0119822
0.0209494
0.0223449
0.0235488
7.82314
7.86666
6.62687
0.0136821
0.0275953
-0.923297
7.919
7.87153
6.82362
-0.0244128
-0.0246562
7.60874
-0.0326127
2.48848
0.0159422
0.0209847
7.87185
6.64276
0.0132238
0.0258926
7.61115
0.00590657
0.00416377
-0.0027504
-0.00417892
0.0213503
0.0386036
6.9113
0.0322203
0.025553
0.0299489
7.96942
0.0185691
6.99758
0.0332223
0.0214735
7.87475
0.0216728
0.0175006
0.0121507
0.0260209
8.73798
2.0733
-0.0543748
4.27714
0.0192587
7.64589
0.0230746
0.0191196
7.8785
7.61018
-0.367663
-0.118651
0.0211035
8.73051
0.0071226
-0.209317
-1.1754
-0.0853608
7.87934
7.89274
0.0238947
8.34528
0.0255392
-0.219828
0.0186668
0.0338084
7.8717
-0.00169397
0.0253531
7.87049
6.92995
0.0367952
7.88708
0.0288659
0.0333128
7.8729
8.78852
0.0236506
7.87165
7.6096
7.61001
0.0301139
0.0355252
0.0135118
7.92684
0.0105075
0.0299431
7.67208
0.0325742
0.0207937
0.0252854
-0.130695
7.61032
0.0193762
0.0544159
0.0325801
0.0206393
0.0273827
-0.161159
0.0296385
7.87123
-0.0495871
0.0233003
7.87151
0.0279374
7.61623
7.6111
7.87533
7.62022
7.87349
0.00273986
7.61111
0.0279282
-0.0180118
7.87618
0.0146417
7.80339
0.0182163
7.87793
-0.16963
7.65138
0.0081056
0.000804797
-0.189874
0.0450504
0.0246654
0.017659
0.0297031
0.0401397
2.77303
0.0373812
0.00639498
0.0417087
7.87358
0.0417747
-0.127096
0.0351535
0.0143155
-0.17012
7.87571
6.76764
7.87569
0.0139381
7.87109
6.16611
0.0257877
8.38923
0.00846143
7.8629
7.84079
7.61019
0.018848
0.0437397
0.024017
-0.0473378
0.0256299
0.0211063
0.0333074
0.0102119
0.0165928
0.0314048
0.022376
7.87945
7.56389
7.86646
0.0180328
0.0297898
7.64808
7.61011
6.30608
0.0460595
0.0194706
7.87146
0.024157
7.86961
-0.438957
0.0177995
-0.069677
7.87271
7.87114
0.0118455
7.8716
-0.00861595
0.0309242
7.45327
0.0213946
0.0169046
0.0279204
7.87046
-0.113469
6.97953
-0.0261548
0.0104351
7.8743
7.88447
0.0282336
5.52304
7.90414
0.0357476
0.0324804
7.87201
7.85403
6.93571
0.0142091
6.28276
0.0174304
-0.0364155
-0.00120698
7.87152
7.03196
-0.0364798
7.87029
7.61648
7.87391
7.87498
7.14193
7.72376
7.56985
7.87196
7.8882
7.29587
8.3971
7.63892
-0.000181096
7.64848
6.75323
6.39073
8.90677
6.89607
7.87163
-0.0360101
7.3893
7.70812
-0.0367136
8.20795
8.57312
7.77057
-0.0450409
8.36716
-0.0335958
-0.0878166
0.012064
7.16403
7.87443
-0.0253794
-0.463627
7.83406
7.86584
0.0222082
7.08507
0.0220294
7.00933
7.59269
7.72856
0.0204713
0.0240056
7.8705
0.00510272
7.8966
7.38762
-0.190133
0.044276
-0.0335536
7.60674
0.0237418
7.22838
-0.0220211
7.61098
7.87099
7.60989
6.98741
0.0421038
0.0319004
7.87427
-0.769902
7.88046
7.89233
7.88007
7.87269
-0.0249023
-0.0391562
0.0339633
-0.0199064
7.83348
0.0117263
0.0134351
0.0375745
-0.0309
7.65971
0.0282669
4.85814e-05
-0.0035873
-0.437234
0.0234406
7.92264
-0.0133143
-0.0235997
0.0236781
-0.0229865
-0.0503809
7.90144
-0.0427533
7.77702
7.87583
0.0218717
7.87961
0.0261251
7.86955
7.93773
7.55036
7.87833
7.87353
-0.0468185
7.87707
-0.0172999
7.19473
7.61424
0.0202734
-0.00388732
0.0307131
-0.0169991
7.89032
0.69569
7.87442
-0.0200275
7.93891
0.0146834
-0.0273541
-0.0162018
-0.00495352
7.96935
7.97629
7.87853
0.0295722
7.62528
7.86473
0.0251461
7.60303
7.60953
0.0016209
7.96908
0.00953347
-0.442755
7.14517
7.497
7.43503
0.0122297
0.0134419
7.87178
0.00749251
-0.0118962
6.98713
-0.021857
7.87051
0.0215545
0.0227129
0.0399889
7.87383
0.0120547
0.0208241
-0.0311763
-0.00311563
0.00776823
7.87344
7.87184
-0.106033
7.86705
7.60809
7.86994
0.0151623
-0.0184224
0.0190764
-0.0357208
6.86718
-0.00331589
0.0161017
0.0126518
-0.0597584
0.0189283
-0.0184838
0.0130043
7.60988
7.61031
7.61006
0.0309994
7.61097
-0.0329636
5.24099
0.00302496
-0.55872
0.00893486
0.0143543
7.60915
7.87277
0.00400603
0.00326684
7.88666
7.60395
7.87426
0.0118853
0.00591618
0.0022084
0.00824838
0.0302017
0.0153853
7.87227
7.87345
7.87135
0.040503
0.00699801
0.00252682
0.0163415
0.0339354
0.0041136
7.84734
7.87159
6.33826
7.65449
0.024963
0.0277297
7.86711
7.90488
7.86645
7.87581
7.83696
7.7148
-0.00619081
7.87371
-0.0518799
-0.120024
7.61783
-0.000591883
0.0272268
0.0226221
7.91764
7.7612
-0.00546693
7.87217
-0.00718989
-1.21414
0.019811
7.66462
5.9449
7.60979
7.8759
7.86743
7.60242
2.09709
7.885
0.00867227
-0.00293687
7.87467
7.87216
-0.00929184
7.87774
7.6111
0.0133299
-0.204468
7.86072
7.86124
7.67401
0.0428703
7.87176
7.87153
1.16399
-0.0245711
-0.0102803
7.87144
7.61721
7.20684
-0.0148107
-0.0100367
-0.0122885
0.00626777
7.61047
0.0550406
0.0126681
0.000360498
7.55414
7.86943
7.87143
7.82547
7.87193
0.0246076
0.0209091
0.00262284
7.89014
7.87242
7.8715
7.86937
7.6855
-0.0416775
0.108294
0.0185416
7.61458
7.87226
7.92706
-1.01196
-0.0433918
-0.0721795
7.60856
-1.95195
8.25589
7.83776
7.87084
0.0236735
0.0356592
7.87384
7.906
0.0122136
7.87289
0.0143263
0.0298057
2.72138
7.8696
7.66086
0.0235908
-0.0630918
7.90961
2.52959
0.0545117
0.0320302
7.87312
7.87573
7.88249
7.88063
0.0271822
0.0272693
7.87603
-0.0529656
-0.0138274
0.201455
7.87198
7.87094
7.87232
7.8763
0.00928852
8.38354
7.87323
7.76663
0.0253343
-0.0097161
0.0303739
7.84408
7.87222
-0.0219266
7.62273
7.87236
7.87396
7.87328
0.0210337
7.694
7.59556
7.61321
0.0209006
0.0274368
7.86828
7.87416
7.85441
0.0160657
8.15131
7.87705
7.85648
7.87426
7.87364
-0.202127
0.0232759
7.91502
0.0222189
0.0156236
0.021472
7.87882
7.87523
7.87346
7.83409
7.6105
0.0295936
7.8729
7.37994
7.3319
-0.0167367
7.65001
-0.0247859
7.87172
7.61248
-0.0233212
0.288478
7.03164
-0.00555428
7.87421
-0.00964472
8.12354
7.8902
7.9215
9.10692
7.87903
-0.0391885
7.86957
0.0101036
7.61199
6.93392
7.87934
7.867
0.015889
0.0328666
7.60991
2.64404
7.6069
-0.0133073
-0.0428753
0.0103847
7.61152
-0.352735
-0.0235724
-0.0517943
0.0230883
-0.630096
-0.0296205
7.59228
7.61049
-0.754989
0.0225946
-0.00220936
7.90855
7.51412
6.36975
3.25295
7.87478
7.61605
7.87467
7.87533
7.87628
8.303
0.0348091
-0.0754692
0.0305618
6.96812
-0.0952001
7.87426
0.0102458
7.87132
7.881
7.6109
7.71063
-0.107637
7.69136
7.60351
7.87165
0.0169685
7.87027
7.87215
-0.0580759
7.82695
5.75025
4.92579
4.58749
7.87688
4.80678
4.64506
4.75447
5.45802
7.60999
7.61054
0.01111
-0.0136966
6.95587
7.13855
7.60608
0.00613015
8.19003
7.71137
-0.103456
7.87401
7.87216
-0.03691
-0.0909685
7.83862
7.61195
-0.0341034
7.03151
7.60424
-0.40965
0.00739422
0.0514776
7.81029
0.0222115
7.87482
0.0161565
-0.396062
0.0169209
7.87223
-0.389147
0.0215254
7.96628
-1.03904
7.86347
0.0201625
7.52896
0.0268574
7.80307
-0.0504748
7.87277
7.57139
7.61123
-1.46431
-1.47226
7.88586
0.0102605
0.0100085
7.91959
7.87184
-0.00457263
0.0176233
-0.125022
7.88055
0.0154879
0.00994907
-0.0486278
-0.846457
7.87642
-0.172923
7.61941
-0.153224
7.87138
-1.7317
-2.00833
7.85186
0.0227775
7.67402
-0.046746
7.6091
7.85601
7.88454
7.88999
7.85012
7.85855
-0.00244689
0.029207
-0.157176
7.88079
6.3396
-0.145088
7.87946
7.8297
7.9044
7.86695
7.90315
0.0230033
7.8723
7.87448
7.61035
0.0160568
7.85707
7.61032
7.53943
0.0374397
7.61065
0.00945301
-0.786573
-0.0519339
0.0351319
-0.014458
8.2195
7.87696
7.87074
0.0703814
0.0316884
7.54136
6.30681
0.0111663
7.87233
7.8757
-0.135012
7.86253
0.0164628
7.87396
-0.0114422
-0.0576719
7.88053
7.60981
7.87468
7.87497
7.87011
-0.0267627
7.87032
0.0124814
7.94237
7.87449
0.0250585
7.60365
0.00798566
7.77321
7.87206
-0.0124335
0.0318651
-0.120421
7.87397
7.87438
7.8723
0.0303731
-0.0890635
7.95002
7.60919
7.64072
0.0139542
7.8652
0.0146123
-0.136281
7.87117
7.86755
0.0226653
7.86601
7.64276
7.61077
7.95826
7.6107
-0.154442
6.21957
7.63622
7.87321
6.38179
7.86724
6.60303
7.8458
7.86598
7.72804
0.0187348
7.78772
0.012191
7.85895
7.86644
-0.0550947
0.00649024
7.86171
7.82467
7.87358
0.0272111
6.69922
7.87348
7.73199
7.86977
0.019803
7.86292
-0.181313
7.87464
-0.00960309
6.91486
-0.0272782
7.88847
7.87004
0.00545908
6.54237
7.87898
0.0298759
-0.00696895
7.89278
7.87501
-0.0188852
-0.0581654
0.0215686
0.0178698
0.00786693
-0.0078291
0.0234595
-0.040196
7.94773
-0.191147
6.25526
6.14071
7.87294
7.87043
7.87037
0.0360648
7.8751
7.86833
7.87523
-0.123708
-0.0440959
5.94655
-0.0424384
7.87583
-0.0171381
7.60946
-0.0613062
0.0233001
6.329
0.00287729
7.86516
7.84503
7.61065
0.0419179
-0.0108229
7.87243
7.61038
0.03246
7.87376
-0.134591
7.91413
-0.0838342
7.87152
7.61118
7.85287
7.61001
0.025505
7.61027
0.272535
7.61212
-0.00580399
7.87209
7.86825
4.30791
3.98253
7.89003
7.86871
7.87193
7.87316
-0.00669015
-0.143767
5.20867
7.87674
0.000913408
7.60876
7.61977
-0.430514
0.0130748
-0.0695386
7.61125
0.0267558
-0.0209572
0.0262918
0.0149156
7.87223
7.87581
7.88003
7.876
7.61098
7.60995
7.61072
7.83954
7.61157
7.61091
7.87173
7.61064
-0.109853
7.60986
7.87182
8.61525
7.87436
7.87243
2.7035
7.61023
7.87112
-0.00483774
-0.0962902
7.84779
7.85201
7.87232
0.0185347
7.64437
7.85982
-0.110423
7.61131
7.87242
7.86833
7.87644
-0.0471207
7.60971
-0.175607
7.87648
7.85703
7.87075
7.8717
7.86924
-0.107107
-0.143796
0.0222418
7.87465
7.63527
7.90941
-0.126826
7.87146
-0.136688
-0.0841034
7.60821
7.84271
5.93667
-0.404988
7.85451
7.01414
-0.392402
6.01525
-0.00992224
7.64259
-0.0413881
5.98223
5.61407
7.87152
-0.000218837
7.6111
-0.0133562
-0.0563404
7.88016
-0.00104024
-0.284585
7.86971
-0.0706038
7.61321
7.8557
7.86469
7.85159
7.86624
7.60858
7.87123
7.87227
-0.154116
7.10428
7.87201
7.86971
7.87019
7.87414
0.0194411
4.03844
-0.13284
-0.309834
7.87066
0.0145025
0.00367926
7.87211
6.99182
7.7872
7.86122
7.89843
7.96127
6.42967
7.16312
-0.0343531
7.87356
7.87817
6.09669
6.63563
7.60967
-0.00641212
7.87922
7.62506
7.87438
-0.0805658
7.87665
7.61015
-0.0155729
7.61034
7.57023
7.76296
7.92055
-0.0155579
7.87295
7.87132
7.87114
7.84239
-0.0147248
-0.0667638
-0.0576306
-0.00256603
-0.033032
-0.0412256
7.61083
6.54087
-0.16572
-0.0325816
6.53084
-0.152331
7.86828
-1.08554
7.63267
-0.0901448
7.8741
7.61556
-0.033478
-1.39473
7.87609
-0.0328328
7.87531
7.87569
-0.0965353
-0.0569639
7.87253
7.61052
7.91627
7.60986
7.86861
6.85967
7.87383
7.8714
-0.0331007
7.87339
7.86789
7.87044
-0.0261023
7.88341
6.90155
7.61055
7.61008
7.29727
6.91916
-0.0276896
7.61507
6.92775
0.00603286
7.86628
-0.0425167
-0.0251649
7.87353
0.00069166
7.87078
7.4532
7.93452
6.78208
7.61226
7.85182
7.86585
7.87626
0.0204723
7.87501
7.87295
7.87166
7.73313
7.87139
7.78404
-0.120197
7.87169
7.87712
-0.0715114
7.87261
7.61085
7.60912
0.0324136
7.87373
-0.164274
6.70073
-0.38434
0.0160913
7.60713
6.53557
0.00828274
6.26493
7.61123
-0.198708
-0.379836
-0.00262437
-0.0586238
-0.256558
-1.16636
7.6344
7.61653
0.00861881
-0.102778
-0.085391
0.0175053
-0.401515
7.60829
0.020519
-0.00120495
0.00522074
7.61248
0.00786971
0.0229969
0.023903
0.00455532
-0.124388
0.0150436
0.0431903
-0.00415519
0.0109977
0.0271933
0.0108187
6.9149
0.0921704
0.00635191
-0.00168531
-0.0291059
0.0236862
0.0127429
0.0152723
7.07628
-0.115936
7.02521
0.0355152
0.0109879
-0.0357737
0.00359587
7.01326
7.60832
0.012228
0.0154031
-0.128904
-0.0652893
0.0253471
-0.000583873
4.82725
0.00918979
7.87168
-0.00124517
-0.114613
-0.0496423
0.0310587
-0.142693
-0.177209
-0.00286725
0.00739075
-0.00228689
0.0324352
0.0016146
0.123681
6.13699
5.39934
0.00181874
7.87552
7.87234
0.00141111
0.0220232
0.0237694
7.87286
-0.0743693
-0.0582009
0.0185395
5.58246
7.87116
-0.214581
0.00745171
-0.121139
7.87598
0.0295901
7.87173
0.00843422
-0.00474761
-0.048245
-0.0475243
7.87136
7.87369
-0.0389008
0.0125662
0.027565
7.86516
0.00820038
0.0274496
-0.00579775
7.61784
0.0349958
0.0491687
7.00336
0.0233617
-1.511
-0.107235
7.57907
-0.0643484
-0.102346
7.87164
0.00306066
0.0185222
1.38673
-0.0135537
0.00888243
0.0236424
0.0217654
-0.0343126
-0.0226054
-0.234551
-0.111805
0.0326304
0.0229441
-0.014384
-0.178286
0.021353
-0.0192278
0.06025
0.0146839
-0.16159
0.0410463
7.8718
-0.00252843
-0.0126578
-0.107448
0.0392412
-0.0426604
7.63836
-0.00467776
0.0251784
7.86724
-0.0761936
-0.0149074
-0.00432791
0.00254385
0.023384
-0.0456615
0.0128755
-0.0168689
-0.0550548
7.87144
7.87185
-0.0510855
7.61399
-0.0479431
-0.00608937
7.7041
0.02313
-0.0193129
0.0405077
7.8717
0.0268428
0.0120874
-0.0645441
-0.14529
0.0213066
0.0458789
0.00894489
-0.00600081
7.87183
7.85426
-0.0975883
-0.0302411
-0.0603189
0.0211893
7.85392
-0.0343742
0.0157895
7.70452
0.000994393
0.0110171
-0.0831388
-0.216907
-0.0323991
-0.0382057
0.0395871
-0.00526493
7.61896
0.00382176
0.00399466
0.000219573
-0.20419
7.85514
-0.0237267
8.01192
7.87255
0.0130539
-0.0122579
0.00643224
0.123563
-0.119734
1.49286
7.61262
-0.0313359
0.025939
0.0666123
0.00997915
7.87848
7.61133
7.60084
-0.00105728
0.00388244
-0.22969
0.025869
7.62505
7.8585
-0.00873942
0.00681834
-0.0443457
0.0141789
0.00917273
0.0299394
-0.0512455
4.37969
7.6101
-0.0041825
0.023746
7.85798
-0.0043501
0.0253356
-0.077334
0.0103654
0.0101663
-0.0437303
7.85815
0.0264696
0.00648395
7.61242
7.64155
0.029729
0.0799911
0.016106
0.0218403
0.0187239
0.0142819
0.0340587
0.0306585
0.025139
0.0149911
7.85387
7.84629
0.00997521
0.0320411
0.0177356
-0.101374
0.0214172
-0.00250685
-0.00101909
0.024869
0.0176555
7.61283
7.62014
-0.114824
7.85259
6.86098
0.0135412
0.0204828
0.00146554
-0.0972851
7.16092
-0.0360771
-0.0828856
7.29199
-0.104427
-0.210644
0.0209297
0.0230384
0.0203772
0.0296439
-0.146471
0.0216796
7.8721
7.23485
-0.0814153
0.0296984
0.00577143
0.0270066
-0.110048
-0.0307552
-0.111293
7.26098
0.0258067
0.0544472
0.0148866
-0.124939
-0.0382655
-0.096891
-0.203635
0.0035289
0.0233821
7.15279
-0.00326428
0.0276308
2.78465
6.78822
6.23677
0.0385964
6.63276
0.0138299
0.0240597
0.0064997
0.0232073
-0.109498
5.04273
3.04117
8.06079
6.72791
-0.0490372
7.60984
7.60957
-1.29342
7.86977
0.0290667
0.0123232
0.0303499
0.0233247
0.0239983
0.00580297
6.26619
0.0237687
0.0260815
-0.0294443
0.0150291
0.0357471
0.0141729
7.60989
-0.20701
0.0305772
-0.096406
7.60997
-0.00861063
-0.00493659
7.6099
7.86345
-0.0821466
0.0199655
7.90801
0.012988
0.0170618
-0.0856002
7.87339
7.60992
0.0210543
-0.209809
0.0232764
7.60996
7.59448
7.61002
0.00240872
2.5489
2.32087
-0.000355362
-0.37028
7.88166
0.0276704
-0.347685
0.0191886
0.0242493
0.00772689
0.021034
-0.506654
0.0290681
7.65923
0.0119447
0.0408112
0.0180614
0.0211209
0.0149514
0.0361443
0.0174254
0.0106935
0.0305776
-0.0641497
-0.390195
0.0124616
-0.0864875
-0.134483
-0.461741
0.0119375
-0.375123
0.0210232
0.0304144
0.0229405
0.0400855
-0.055546
0.0356097
-0.382175
0.0236157
7.46877
0.0111554
3.81481
0.015017
-0.00619548
7.6131
-0.0156429
7.4682
-0.00394953
7.49628
7.9032
0.0442878
-0.026369
6.84463
0.0250696
0.0209324
-0.0229067
7.85928
7.87407
0.0132459
0.00183447
-0.181773
0.0166144
0.0331873
-0.0239512
-0.0659103
-0.00783059
-0.0168205
6.50956
0.0102779
7.60946
7.80581
0.0319032
0.0308193
-0.0983942
0.0312798
0.0328109
-0.0100103
-0.0212665
7.78007
-0.113219
0.0228675
-0.0109578
7.79252
7.8803
0.0101636
-0.00134497
6.16112
-0.0441695
0.0295674
0.000914393
-0.13489
0.0336854
0.0238187
7.86279
4.57301
0.0226391
-0.0760517
7.67683
0.0409383
-0.0503973
-0.0132995
-0.12437
0.017593
-0.153482
0.00991232
-0.040274
4.82953
-0.0504618
7.87294
0.000146334
-0.0197757
0.0317856
0.00982498
6.57074
0.0147028
-0.0815881
-0.0134871
-0.111265
7.42243
7.61012
0.0303777
-0.0749989
-0.00340197
0.00453092
-0.0442656
0.0225161
-0.00188323
0.00902484
0.0421286
0.02685
-0.0520266
7.03037
-0.134794
-0.0223851
-0.000796373
-0.0415338
7.22569
7.61002
-2.39572
-0.116948
8.15296
-0.143838
-0.0244926
7.36685
4.9958
5.45504
-0.0436726
0.024789
0.171816
5.83946
-0.0790241
0.0321184
7.61579
0.228128
6.88411
-0.0131577
0.0227763
7.64327
-0.0275967
-0.0280705
-0.0318821
0.0279601
7.60965
-0.271076
-0.041539
-0.0784051
-0.0222581
-0.0222218
-0.04487
-0.0088635
-0.175785
-0.0230521
0.0224745
0.0240441
7.87136
6.44355
6.55422
7.72515
-0.0311677
0.0263164
0.0320684
-0.0660008
0.0215362
0.0302812
-0.0058919
-0.019616
-0.0158175
0.0252048
-0.0139319
-0.0880137
0.00288245
0.027278
7.8722
-0.0444001
-0.0630776
-0.0178608
-0.0104395
7.60777
0.00217572
0.00495928
0.0357065
0.00295604
0.0133145
7.63012
0.0242618
0.0135009
6.8776
0.0244381
-0.00908203
7.71915
-0.00065324
7.71044
7.60711
0.00350729
-0.0611516
-0.00630126
0.0146403
7.61317
0.0357633
-0.0357904
7.6115
0.0299531
0.0130306
0.0193713
-0.0125302
7.75024
-0.0319903
-0.0268516
0.0100504
7.694
0.0468556
0.021446
-0.00203818
0.0277718
0.0137876
7.90146
7.45174
7.05777
0.0271076
7.18642
0.0296882
0.0164016
0.0258069
7.83354
0.0222518
7.65431
7.87281
7.80722
0.0104258
-0.0126033
-0.211324
0.0032767
0.0354375
7.51486
6.88208
-0.0429922
-0.0473935
0.0382594
-0.168068
0.0255787
-0.404708
7.87499
5.73468
5.84873