/*--------------------------------*- C++ -*----------------------------------*\
  =========                 |
  \\      /  F ield         | OpenFOAM: The Open Source CFD Toolbox
   \\    /   O peration     | Website:  https://openfoam.org
    \\  /    A nd           | Version:  10
     \\/     M anipulation  |
\*---------------------------------------------------------------------------*/
FoamFile
{
    format      ascii;
    class       volScalarField;
    location    "30";
    object      T;
}
// * * * * * * * * * * * * * * * * * * * * * * * * * * * * * * * * * * * * * //

dimensions      [0 0 0 1 0 0 0];

internalField   nonuniform List<scalar> 
111485
(
303.15
285.065
300.939
303.15
298.367
283.15
298.877
293.336
296.239
286.196
300.476
296.13
300.159
284.538
299.936
286.698
299.3
297.024
293.97
303.15
303.15
283.15
297.187
288.632
301.571
303.15
293.104
300.599
288.794
303.15
300.766
294.274
303.15
283.15
283.439
283.15
302.301
297.538
283.149
296.566
283.15
289.538
296.99
302.867
303.193
303.15
287.291
288.492
289.574
303.15
303.15
283.15
303.15
298.861
303.15
293.433
287.829
283.15
283.316
295.395
295.796
303.15
302.033
300.176
283.15
284.533
300.036
291.442
302.083
302.506
303.157
301.86
303.15
302.084
303.15
295.32
283.15
293.344
283.15
283.15
283.234
293.3
283.15
303.15
300.26
284.197
283.15
301.52
303.112
299.045
283.321
289.5
300.815
300.359
289.733
303.15
303.15
301.52
303.149
283.413
303.15
286.575
283.15
285.137
285.692
283.15
283.15
293.008
301.399
283.147
298.833
287.994
301.245
301.65
303.15
301.943
303.15
283.15
300.097
303.15
303.15
283.15
283.15
283.15
283.389
303.151
283.15
301.774
303.15
283.175
303.099
301.905
303.15
283.15
283.15
292.44
283.15
294.138
298.758
301.073
303.135
296.775
298.94
284.741
302.262
297.728
283.15
303.15
283.15
297.082
284.9
303.15
303.144
287.25
283.156
293.648
295.576
302.509
283.153
303.15
303.15
292.105
286.186
283.153
283.157
301.144
283.678
283.15
283.152
283.153
283.15
303.15
283.206
283.15
291.462
287.11
283.15
303.15
303.15
283.15
303.15
303.15
297.596
293.414
295.708
289.687
301.328
300.371
283.19
303.15
301.408
303.15
303.15
300.106
286.223
301.363
301.306
295.65
303.15
300.829
284.565
283.159
300.71
297.01
303.15
300.365
288.129
303.15
283.222
300.123
284.777
300.645
303.15
303.15
300.659
283.15
292.701
283.15
300.564
298.61
290.261
303.15
301.708
300.512
283.15
283.15
283.15
289.452
283.156
283.15
303.15
298.562
291.283
289.837
283.15
303.15
303.107
303.15
284.306
300.032
299.186
299.445
299.316
283.15
283.144
298.809
283.15
283.15
288.706
288.295
283.15
301.126
298.821
303.15
283.15
301.05
303.15
303.15
303.122
303.15
288.195
285.815
290.698
303.15
298.277
303.15
303.15
303.15
283.148
297.979
300.937
299.367
291.141
299.419
296.185
283.21
290.239
291.484
283.15
303.15
283.149
292.368
298.719
286.404
303.15
297.952
297.22
298.824
302.953
283.167
297.032
299.301
302.012
283.15
283.603
283.15
283.149
303.15
283.844
290.209
286.247
303.15
283.15
297.541
285.217
303.15
303.15
303.15
284.554
290.163
301.015
284.386
292.952
283.15
283.15
303.15
298.306
303.15
283.804
289.375
283.153
283.15
303.15
303.15
283.15
294.286
289.89
283.15
295.629
283.15
303.15
300.973
297.232
293.922
295.737
283.15
283.15
283.15
296.536
290.924
302.371
283.15
283.15
283.15
290
296.888
283.21
290.403
283.15
292.721
299.496
284.176
298.552
285.209
283.15
303.15
283.15
303.15
290.595
296.645
287.89
291.871
283.15
286.29
283.15
303.15
293.744
303.15
301.697
303.15
283.15
291.854
283.15
288.7
284.596
283.15
283.964
297.951
283.15
300.107
284.652
298.784
303.017
290.972
285.951
283.15
303.15
303.144
283.15
300.949
300.766
283.15
283.15
294.668
284.331
298.123
296.861
283.15
294.97
295.995
283.15
302.041
283.874
303.15
303.15
288.177
298.523
283.15
303.15
303.15
303.15
300.705
283.15
303.15
293.899
283.17
286.857
299.895
283.15
283.15
302.605
283.15
302.441
301.387
297.757
288.372
283.15
293.827
303.376
303.15
298.567
292.202
303.15
283.15
283.301
283.15
289.927
286.049
291.561
283.15
292.786
296.508
292.979
303.147
283.15
303.15
303.15
283.168
292.646
283.15
284.296
303.131
283.15
303.15
303.15
303.15
301.845
290.438
285.936
284.171
284.282
283.15
285.646
303.15
300.665
283.15
303.15
303.15
300.606
303.15
303.15
283.151
303.15
283.15
300.611
283.15
283.15
283.15
303.15
283.15
303.15
283.15
283.656
283.15
303.128
301.855
283.738
283.15
303.084
283.15
303.15
284.67
284.641
286.056
297.438
283.15
297.41
297.522
292.199
286.754
285.222
303.15
291.672
283.15
299.801
283.15
296.715
283.15
291.991
298.463
303.151
283.15
286.734
303.15
295.438
299.021
283.15
283.15
283.15
283.15
303.15
293.607
283.15
283.15
283.236
283.15
299.753
283.15
284.751
303.15
283.424
303.119
284.615
291.819
283.15
301.406
283.15
283.15
285.635
283.15
283.254
283.15
299.615
303.15
290.57
303.15
283.15
302.378
284.433
300.026
285.601
300.024
289.404
283.15
300.572
284.506
283.15
283.141
300.247
301.552
283.15
282.491
301.008
303.058
283.124
303.15
287.514
302.15
284.37
285.33
288.12
282.601
283.15
303.15
300.534
303.15
283.543
283.15
283.15
291.686
282.694
303.149
303.114
283.15
286.201
299.546
283.15
283.15
299.568
303.15
283.15
283.15
283.15
286.089
283.15
303.15
284.777
284.203
303.15
299.671
283.15
289.177
303.15
283.15
286.08
283.15
283.15
283.15
285.328
283.15
285.39
291.881
303.15
300.303
283.436
298.626
300.923
283.296
283.449
283.15
288.87
298.383
303.15
302.244
295.968
296.819
284.683
297.384
297.146
303.15
300.172
303.133
283.15
297.077
284.796
283.15
292.291
295.642
284.812
298.708
300.587
292.252
283.15
298.856
283.457
303.15
300.549
301.949
294.016
283.15
286.43
303.15
283.15
283.15
283.15
283.299
283.15
303.15
303.15
283.15
300.391
299.18
303.15
285.556
303.15
303.15
303.15
289.96
283.415
283.15
303.15
283.15
283.15
286.765
292.3
283.15
295.051
283.138
283.15
295.219
302.194
287.706
283.15
283.15
300.209
292.011
283.15
283.15
283.15
293.889
303.15
303.15
283.15
296.163
302.345
283.15
282.348
301.672
286.487
283.15
283.15
287.414
302.956
283.15
283.159
287.1
283.745
288.712
283.15
285.65
300.205
283.15
303.15
283.15
283.15
283.15
283.15
295.585
303.15
283.15
283.15
295.196
291.73
303.15
303.15
289.723
298.331
298.231
303.15
283.15
297.898
303.15
283.818
298.772
298.28
303.15
303.15
303.15
283.15
285.996
283.15
283.15
302.699
303.15
297.73
302.243
283.15
293.975
283.271
296.35
291.901
283.416
289.668
283.15
283.15
296.794
287.983
290.754
283.15
283.15
297.481
294.863
283.15
283.884
284.55
283.463
303.15
303.15
303.15
290.657
283.15
299.99
283.15
284.338
297.511
298.424
292.187
283.15
283.15
303.15
295.296
283.15
283.15
303.096
283.15
283.15
303.15
283.15
299.243
283.15
283.15
283.15
283.15
283.15
303.15
283.15
283.171
298.702
303.15
302.52
283.132
283.389
283.097
285.473
283.15
284.416
290.457
283.389
303.15
283.149
299.667
283.15
300.188
283.141
283.144
286.147
297.407
283.205
291.815
297.976
283.15
283.15
298.986
299.729
283.15
297.254
291.186
297.542
283.15
283.243
283.15
297.846
296.972
283.15
300.013
297.622
283.149
299.713
283.15
295.542
283.145
303.128
283.161
283.16
283.15
283.15
284.405
283.15
302.962
283.573
283.064
303.147
303.149
303.148
283.15
283.15
293.735
303.15
303.218
283.846
283.15
283.15
303.154
303.149
283.15
303.165
283.15
283.15
303.15
303.15
303.15
303.15
283.36
283.15
283.15
283.15
303.157
283.299
283.868
293.388
283.15
283.15
283.327
283.15
283.15
283.15
287.183
293.511
283.15
283.15
283.15
283.15
283.15
283.15
283.984
283.15
303.15
291.468
283.15
303.15
303.15
303.154
303.15
303.15
283.15
303.171
283.15
283.678
283.145
303.152
283.15
303.061
284.356
292.006
303.15
303.129
284.418
303.15
283.15
303.15
283.15
293.963
293.369
284.591
303.148
283.15
293.157
283.15
283.15
303.15
283.15
294.779
283.15
303.15
283.163
298.075
303.15
284.354
283.15
283.56
283.15
283.15
283.15
303.15
285.795
283.464
284.075
283.15
283.15
285.592
283.15
283.15
303.15
284.314
303.165
298.479
303.15
303.126
303.127
283.15
303.129
283.15
283.439
289.035
301.029
283.776
283.165
283.15
283.15
283.15
303.184
283.15
302.891
303.15
292.526
303.15
288.663
283.809
303.15
283.15
303.15
283.15
301.754
303.15
303.15
286.359
300.504
283.15
283.15
283.15
283.15
283.15
283.15
300.757
283.566
303.15
303.15
303.157
303.15
300.137
284.39
283.15
302.087
303.15
301.586
283.15
302.558
283.15
283.148
303.152
283.309
302.086
300.17
283.147
283.15
289.295
303.15
293.302
303.15
283.15
303.15
283.15
283.15
283.15
300.752
302.029
303.15
303.15
303.15
302.897
283.15
303.15
292.808
283.087
303.15
297.457
298.301
296.432
283.37
283.15
283.15
283.15
283.15
294.569
283.15
294.706
283.15
303.055
289.775
283.15
302.851
283.15
283.15
302.723
283.148
302.908
283.15
303.15
283.15
302.371
283.15
303.15
283.15
283.148
283.15
283.17
283.15
283.15
303.15
292.935
301.063
296.009
296.94
303.15
303.115
283.15
283.15
285.64
283.15
283.158
302.834
298.749
302.933
303.15
283.356
283.15
303.15
283.15
302.987
283.311
298.295
283.15
303.15
288.005
303.15
283.15
283.127
294.973
283.148
283.15
283.15
283.149
303.15
283.15
303.141
303.15
303.15
289.866
302.98
302.988
288.939
293.179
283.15
283.15
303.079
289.009
283.15
303.15
284.712
283.15
303.15
283.15
283.15
283.15
297.246
283.15
302.932
283.15
300.416
283.15
283.15
283.15
283.15
283.15
283.15
284.986
283.15
283.15
283.15
283.15
283.15
283.15
291.926
283.15
298.367
302.925
283.15
302.332
283.15
302.501
303.145
292.246
288.727
303.15
292.11
284.748
303.106
303.15
303.14
295.03
288.604
283.15
287.827
283.15
283.15
283.15
283.15
287.455
283.15
283.15
291.591
303.135
285.274
283.15
283.15
302.521
283.15
283.181
303.15
299.862
283.15
283.15
302.818
283.15
303.178
303.15
283.15
288.989
297.992
292.651
285.616
292.451
294.029
283.15
283.15
302.263
290.525
292.707
284.377
283.15
294.355
283.15
303.15
300.682
298.726
283.15
297.383
283.15
292.699
297.155
303.15
283.15
283.15
301.743
283.15
283.15
300.451
296.086
283.196
291.158
283.15
283.15
302.784
300.47
283.15
300.6
283.15
300.455
283.15
283.15
300.758
283.15
283.225
301.569
283.15
283.15
302.417
283.15
287.845
303.15
290.257
303.15
303.15
303.15
300.901
283.15
283.15
299.483
283.15
302.981
283.15
283.15
303.15
283.151
288.137
283.15
283.15
288.001
288.181
283.15
283.666
283.15
303.15
302.405
283.703
301.527
283.15
283.15
283.15
283.15
283.15
283.15
283.15
283.15
283.15
283.15
283.15
303.15
283.15
283.15
283.15
283.15
283.15
283.15
283.15
283.15
303.15
286.886
283.15
283.15
283.15
294.632
283.15
303.15
302.87
283.15
283.15
294.634
283.15
283.15
301.749
295.112
283.15
303.682
303.604
283.15
301.437
293.886
297.473
301.441
298.095
303.15
283.15
296.382
291.697
301.383
283.15
302.118
302.402
300.831
287.979
287.263
301.02
301.75
301.754
303.15
285.825
297.49
285.482
297.191
283.15
283.15
283.15
303.15
283.15
291.917
297.876
283.15
283.15
283.15
283.15
283.15
303.15
283.15
303.15
292.073
303.105
298.972
302.836
283.15
283.15
285.361
283.168
283.15
283.15
301.723
303.15
283.15
298.114
299.473
297.48
298.58
300.76
303.15
290.979
302.565
303.15
303.15
300.266
303.15
283.15
282.998
295.491
302.94
283.15
303.15
289.52
286.115
297.129
292.116
302.35
303.15
303.135
303.15
303.15
283.15
298.969
283.15
291.728
290.379
299.64
284.728
303.15
301.895
303.15
283.15
303.15
303.15
291.419
299.399
283.15
303.15
303.132
291.707
303.025
299.307
292.735
288.262
292.845
283.15
303.15
283.15
291.162
298.245
303.151
303.15
303.15
303.15
297.438
302.56
283.15
299.931
301.094
284.832
299.471
303.15
303.15
298.63
292.897
283.15
302.893
299.652
302.601
291.9
297.257
298.182
303.15
286.929
298.161
291.256
283.15
288.993
303.15
288.331
301.015
303.15
288.642
301.236
300.059
293.108
283.151
283.16
283.237
301.56
300.872
303.15
288.76
301.439
303.15
283.15
303.15
303.208
298.691
290.501
296.712
303.26
283.149
297.346
303.15
303.15
292.719
303.15
300.271
283.298
301.277
291.474
303.15
283.646
293.141
303.15
283.073
298.626
303.15
300.653
286.203
303.15
303.15
283.973
303.15
283.15
283.15
285.872
299.183
291.099
303.15
285.175
297.4
283.15
298.797
298.832
288.904
303.1
283.15
301.505
299.63
298.798
300.032
288.603
290.696
302.48
303.15
301.513
288.655
303.15
298.808
283.15
283.15
303.15
283.15
303.15
297.407
283.15
300.482
283.628
303.15
283.785
283.15
289.773
303.15
303.144
303.15
294.053
302.996
303.116
299.804
290.345
289.374
290.523
298.337
303.15
299.326
292.102
298.878
303.15
283.856
283.439
299.187
287.105
283.502
303.15
283.15
303.15
285.281
303.15
303.346
284.656
303.397
302.953
303.15
303.15
283.15
300.502
300.653
285.447
303.083
286.949
295.612
301.86
292.438
288.085
302.064
296.047
283.15
283.15
303.15
285.768
289.628
283.15
283.15
303.15
301.967
288.629
303.15
296.35
303.15
283.155
285.144
301.155
303.15
303.15
292.209
303.15
283.296
290.547
283.15
297.11
294.562
296.08
303.15
302.694
283.15
302.658
293.337
303.15
303.15
288.733
283.15
303.15
301.769
284.415
303.15
303.15
283.15
302.323
303.478
289.424
299.638
298.085
303.15
303.159
302.579
303.15
283.15
303.15
303.15
303.15
303.15
303.15
303.15
303.15
283.15
303.15
303.15
283.336
303.15
303.353
303.15
303.164
303.15
303.15
300.876
303.674
303.15
291.882
303.15
303.15
283.15
302.543
303.15
302.126
303.113
283.288
283.15
303.15
302.559
283.149
303.15
303.15
291.303
283.15
292.528
283.15
283.15
283.153
291.151
284.802
303.15
296.582
283.15
303.784
303.133
284.29
302.58
283.15
292.103
303.083
301.633
283.15
303.15
283.15
304.146
284.788
296.843
303.15
303.15
303.15
303.15
303.15
303.15
302.334
302.803
297.543
291.935
303.15
287.093
292.58
284.942
303.209
283.15
286.857
302.747
284.726
283.148
287.42
303.15
283.379
302.916
292.467
302.841
301.846
303.15
302.239
303.15
303.15
297.903
303.15
284.455
303.15
303.15
283.15
303.15
303.15
302.84
303.15
283.294
283.15
283.15
285.782
284.844
300.904
286.055
303.15
294.509
303.15
290.362
303.15
287.1
300.635
301.448
293.236
303.15
303.15
303.15
289.748
283.15
303.15
289.501
283.15
283.15
301.79
303.15
286.132
283.148
283.15
303.15
303.15
300.619
298.136
303.15
293.355
303.032
283.15
298.567
303.15
286.365
288.168
302.12
303.15
296.257
296.725
302.946
301.858
301.623
303.15
303.15
303.147
303.15
283.15
303.15
289.502
300.171
294.251
302.103
283.15
300.328
291.331
298.196
283.589
298.253
289.54
302.14
283.15
283.15
283.15
302.188
283.15
290.393
283.15
301.218
303.162
289.657
298.012
283.15
303.15
301.206
301.183
303.15
283.15
303.15
286.38
301.409
302.973
302.322
297.954
288.381
303.15
303.15
303.15
294.169
285.93
289.721
295.806
283.94
302.952
303.15
303.15
283.15
283.15
285.385
299.567
303.15
303.15
283.15
303.15
303.15
303.15
300.204
303.15
285.304
292.099
283.15
283.246
293.285
285.65
303.15
303.15
301.861
303.15
299.163
283.147
297.493
303.15
303.15
283.15
303.15
303.15
303.15
305.131
303.15
301.812
301.105
303.15
303.15
301.584
303.15
283.15
287.186
303.097
303.15
303.15
303.15
297.878
303.15
303.15
302.38
302.474
301.749
303.15
283.15
303.15
302.021
302.499
301.494
302.521
283.15
300.622
287.423
297.384
283.15
303.15
303.15
303.15
303.15
294.273
287.514
299.652
303.15
303.15
303.15
303.15
283.15
303.148
284.744
285.111
283.15
303.15
303.15
283.148
299.51
294.753
283.15
303.15
303.15
303.15
303.15
289.546
289.591
303.15
303.15
302.397
303.15
301.447
283.933
291.769
303.15
283.15
301.166
303.121
303.15
302.971
301.278
286.781
303.15
303.15
303.15
303.15
293.217
284.129
303.15
302.672
298.001
289.186
303.15
303.15
303.15
303.15
299.522
303.151
303.15
303.15
298.21
302.594
288.286
303.15
303.15
297.691
303.15
303.15
303.15
303.15
288.738
303.15
283.15
283.15
295.874
291.003
303.15
303.15
303.15
296.977
303.146
303.15
303.15
303.15
303.15
303.382
300.825
303.15
287.273
302.634
299.342
303.15
303.15
303.15
303.15
283.15
285.631
303.15
302.843
283.15
302.158
303.15
303.133
303.15
283.15
301.943
285.529
283.15
302.824
303.15
302.401
283.15
303.15
303.15
303.151
303.15
283.27
303.15
290.764
283.15
283.15
303.15
303.15
298.794
302.352
283.15
302.385
283.15
284.097
287.895
302.687
283.15
303.155
302.98
303.133
284.378
283.156
302.979
283.15
283.15
283.156
302.051
302.272
303.15
283.15
283.15
295.095
303.15
283.15
303.15
303.15
303.15
303.107
303.043
302.92
302.425
303.15
302.894
303.15
284.777
303.15
303.15
283.15
303.15
303.11
303.15
283.15
303.15
288.254
303.15
303.15
303.168
283.15
302.768
301.906
296.598
303.15
289.095
294.097
283.755
289.795
283.15
283.15
287.152
284.296
283.15
303.854
283.15
286.357
303.15
283.15
303.155
303.15
303.15
303.011
303.155
303.15
283.15
303.138
303.15
283.15
283.107
298.659
302.688
303.15
301.807
303.15
285.661
303.152
301.133
303.15
303.15
300.992
303.15
303.15
303.15
287.631
303.15
285.103
303.15
303.147
303.15
283.15
283.15
303.15
303.15
303.15
288.629
302.53
303.15
303.15
288.526
286.453
291.052
303.15
302.685
287.613
287.484
303.15
303.15
287.539
283.15
291.828
303.15
303.153
303.149
303.15
300.482
283.15
302.311
283.15
303.15
303.15
303.15
303.15
303.15
284.303
302.223
290.971
303.15
303.15
290.5
303.15
303.15
303.15
303.15
303.15
300.099
303.15
303.15
283.15
299.402
303.15
283.15
303.15
301.328
283.15
299.903
290.682
302.671
299.967
299.385
303.15
303.15
303.15
300.803
288.415
283.15
303.15
300.264
303.15
303.15
291.909
303.15
287.412
303.15
297.769
284.284
303.15
283.15
303.15
303.15
303.15
285.2
303.15
300.44
303.15
303.15
299.645
283.15
284.708
303.15
303.15
288.023
301.537
296.349
303.15
303.15
303.15
301.554
292.142
303.15
283.15
303.15
300.627
303.15
284.731
296.231
303.15
303.15
301.096
303.15
303.15
283.15
303.15
283.15
294.472
303.15
283.15
303.15
303.15
303.15
303.15
303.15
303.15
283.15
301.504
283.15
302.047
303.15
303.15
296.041
300.424
303.15
283.15
303.15
300.834
283.15
303.15
303.15
303.15
300.684
303.15
297.58
303.15
285.802
283.15
286.677
303.15
303.15
298.469
283.15
303.15
287.791
283.244
303.15
303.15
285.046
283.828
300.799
301.696
301.142
293.102
301.703
283.824
303.15
297.619
283.15
283.15
303.15
303.15
303.15
301.172
303.15
303.15
303.15
303.129
283.168
283.15
283.552
303.15
301.977
283.15
303.142
296.013
283.15
294.451
303.15
303.15
283.15
299.828
283.905
303.15
283.15
299.857
303.15
297.631
303.15
295.162
303.15
283.15
303.15
283.15
299.363
283.15
283.222
283.15
286.142
303.15
303.15
283.15
283.15
303.15
303.15
303.15
303.15
284.835
284.683
283.15
303.15
283.231
283.15
283.15
303.154
289.806
283.535
283.15
301.459
284.844
300.432
288.116
303.15
303.15
303.15
303.15
283.15
283.15
283.15
303.15
283.15
283.15
303.15
283.15
297.153
283.15
303.15
283.15
303.15
303.15
283.277
283.15
303.15
301.913
303.149
303.15
303.15
303.15
288.654
283.15
303.15
303.149
283.15
303.15
303.15
303.15
295.271
283.15
283.177
303.15
303.15
303.15
303.15
303.15
303.149
303.147
284.084
303.15
283.15
303.15
303.149
303.15
303.148
303.149
283.15
283.15
283.15
303.149
303.15
283.15
303.149
283.15
287.654
283.15
301.755
283.15
303.154
303.15
284.571
283.15
284.416
297.32
303.15
284.653
303.174
303.15
297.33
283.15
303.15
303.15
303.15
303.15
283.15
303.15
303.15
299.076
283.15
303.15
303.15
303.15
303.15
292.268
290.069
303.171
283.164
303.15
301.787
302.302
303.15
283.15
283.15
303.15
303.15
303.15
283.15
283.15
283.803
303.15
303.15
303.2
303.151
283.15
288.795
303.15
283.15
303.15
287.964
303.15
283.15
302.077
283.15
283.15
283.15
303.15
299.583
303.15
303.15
303.15
283.15
284.469
293.48
295.121
289.483
303.117
303.012
283.15
283.15
301.016
283.678
283.15
303.149
303.15
303.15
283.15
294.438
303.15
283.15
302.971
303.15
303.15
283.774
303.15
303.15
288.316
289.474
303.15
283.15
303.15
283.15
303.15
303.15
303.15
303.15
283.929
303.15
303.15
303.15
302.918
303.15
303.15
283.15
283.15
283.15
283.15
302.931
283.15
283.15
300.909
303.15
284.729
284.886
303.15
301.076
303.15
283.15
303.15
283.15
283.15
303.15
303.15
303.15
302.65
303.15
303.15
303.15
283.15
303.15
283.15
286.327
303.15
303.15
291.534
303.15
283.15
283.15
302.398
303.15
303.147
283.15
303.183
286.597
283.15
283.15
299.131
283.15
283.15
303.048
303.162
293.26
303.167
303.151
303.153
283.15
283.15
302.627
283.439
285.749
300.827
283.156
283.15
290.971
301.541
301.442
283.15
300.189
290.631
300.107
302.187
302.709
284.647
295.412
299.163
286.206
293.251
300.075
303.15
297.964
297.506
302.772
283.656
292.269
301.124
287.273
303.15
300.96
303.15
300.674
301.455
283.628
284.953
303.15
283.15
302.28
301.645
283.146
303.173
288.487
302.667
301.776
300.772
303.15
303.235
301.07
294.897
300.407
288.794
302.899
301.64
302.188
302.253
284.194
302.484
301.55
283.177
303.15
302.886
303.15
303.15
302.061
301.969
294.212
303.15
284.644
292.223
292.264
300.743
303.15
283.977
285.149
284.377
303.15
298.73
303.15
296.378
295.259
300.667
303.141
303.15
303.15
301.904
301.211
302.77
303.15
292.537
302.735
289.9
283.15
298.336
293.916
303.15
300.496
283.15
283.202
283.15
302.542
303.092
303.15
302.979
298.31
283.148
300.482
302.203
295.277
283.524
295.738
296.975
283.447
303.132
284.718
296.313
283.314
296.737
300.44
300.188
300.307
301.954
289.566
301.533
303.15
302.712
302.642
302.652
296.52
302.888
283.15
301.987
293.387
303.15
283.422
286.792
301.171
302.576
290.449
284.788
287.618
302.601
296.305
303.15
303.15
294.928
283.15
292.586
283.419
303.15
290.496
290.204
283.893
303.15
297.21
298.503
284.21
301.194
294.132
290.107
300.488
303.111
303.15
303.15
283.517
302.595
283.339
285.756
303.15
303.017
303.033
303.15
285.37
300.835
297.789
283.241
299.468
302.341
300.449
286.855
283.15
303.103
301.774
283.724
283.134
303.15
303.07
303.15
303.15
284.162
302.518
296.388
283.033
283.153
303.15
283.15
302.947
303.04
302.485
301.375
303.15
283.15
283.15
301.793
301.85
283.209
295.888
303.15
303.15
301.584
285.466
283.256
301.647
301.753
301.689
284.371
303.15
283.15
298.467
297.691
303.15
302.684
302.048
284.605
284.939
302.083
303.056
303.15
298.107
284.394
283.15
303.15
300.557
301.174
301.982
289.545
302.042
285.625
300.108
300.29
290.278
297.479
303.15
303.15
300.89
284.437
302.059
283.151
300.432
301.667
283.618
288.238
302.397
283.15
283.15
283.029
303.15
303.15
299.905
298.878
302.255
283.148
283.15
283.912
283.151
283.15
283.151
303.075
300.875
299.091
295.802
283.361
303.09
300.076
303.15
283.15
302.533
289.176
300.764
292.649
283.501
303.056
283.148
283.15
302.823
301.168
302.592
283.155
291.134
284.857
303.15
284.234
300.994
283.15
283.303
284.918
284.06
283.15
283.15
301.607
283.15
289.308
302.51
302.686
301.761
283.466
298.053
289.9
283.15
303.349
292.004
283.15
283.15
283.15
303.15
301.191
302.393
299.108
301.426
299.892
288.802
283.154
290.922
290.098
303.057
290.974
299.962
292.011
283.15
286.268
301.034
301.541
283.15
283.971
299.622
283.15
303.15
283.186
301.234
303.15
283.99
302.251
303.015
303.15
283.15
292.721
303.153
301.66
283.15
283.15
283.15
302.16
297.484
303.144
302.168
303.167
303.15
288.32
303.167
290.381
300.17
300.128
296.524
283.156
301.66
283.15
290.516
301.374
289.382
290.425
298.909
300.659
301.557
287.12
291.085
284.965
283.171
302.189
286.084
283.15
283.144
300.146
283.081
300.245
286.941
296.036
299.376
289.121
299.221
283.122
299.15
283.15
289.921
288.798
298.587
283.325
283.15
300.503
283.15
302.783
283.15
303.15
286.423
286.429
283.15
298.93
298.559
286.968
303.15
303.15
301.675
289.729
302.979
283.717
301.538
287.028
303.147
284.168
288.109
303.15
301.382
283.15
283.15
287.503
286.972
283.145
285.218
301.459
286.178
301.221
303.15
285.081
301.711
291.138
303.15
303.15
301.575
302.016
303.15
292.933
294.233
283.653
296.333
286.733
289.938
303.15
302.734
296.973
284.955
283.15
287.663
291.809
299.565
283.161
283.739
282.96
301.919
303.113
283.151
303.132
303.15
300.539
292.951
298.772
293.76
283.15
291.885
295.854
285.533
283.211
291.271
283.15
300.284
303.165
292.444
284.083
303.143
291.787
298.542
288.185
300.337
291.278
287.263
283.15
303.141
285.3
289.825
293.376
283.15
283.15
283.15
303.14
283.15
283.137
286.365
303.15
283.15
303.168
283.172
291.069
288.656
303.566
302.904
289.787
303.15
296.92
303.177
301.983
287.215
283.15
292.849
303.144
303.091
286.14
283.15
283.15
283.462
285.955
303.049
303.143
287.466
289.418
283.471
283.162
289.783
293.156
303.15
283.15
303.094
303.15
302.313
284.973
302.324
303.091
284.041
283.761
284.027
302.855
302.146
297.363
293.982
303.066
291.176
290.968
303.15
303.095
302.567
285.389
283.373
303.15
285.897
283.38
302.925
301.685
302.149
283.15
300.296
301.827
303.15
302.123
285.361
303.15
297.83
303.15
283.15
300.663
302.664
286.263
302.474
283.15
285.136
303
283.15
302.279
285.322
294.795
284.306
303.15
303.015
302.878
286.45
283.15
287.069
284.231
289.701
285.69
302.228
303.15
283.15
283.15
293.08
283.15
301.023
302.134
290.295
283.15
293.985
283.15
303.15
283.15
300.074
298.505
283.151
285.231
301.721
303.064
303.154
291.774
294.123
301.155
283.196
301.794
283.145
303.15
303.144
298.829
283.15
300.593
294.699
303.15
300.913
287.241
301.949
284.864
288.134
283.15
302.194
287.651
298.366
303.078
283.15
303.15
291.597
302.133
283.079
283.147
286.703
298.25
303.149
284.418
300.978
300.949
301.206
303.153
299.834
287.563
284.876
301.546
299.828
283.703
283.107
303.16
303.149
303.15
297.285
283.163
283.15
303.15
303.149
289.83
298.874
300.246
287.702
302.786
303.15
286.378
301.563
303.15
300.921
283.783
301.417
303.15
284.521
301.364
295.487
302.757
303.15
303.15
285.127
294.998
296.3
287.315
303.15
303.15
283.15
287.137
302.373
296.086
303.15
285.514
303.15
303.15
300.436
288.644
283.15
295.461
295.794
299.049
283.15
303.15
292.592
287.147
303.15
297.876
300.459
300.361
303.15
303.15
303.15
300.167
298.26
302.778
299.829
283.15
292.816
287.585
290.516
300.509
303.15
303.15
300.709
303.09
286.478
296.005
303.15
303.147
283.15
286.379
298.841
285.523
303.15
303.15
283.333
303.121
303.15
303.15
283.15
290.443
303.15
303.15
284.55
299.245
283.15
303.15
284.578
301.275
300.097
286.92
294.913
303.15
283.489
303.15
303.15
283.309
300.48
290.332
300.33
303.15
303.129
302.136
292.511
299.695
301.285
284.412
283.447
300.844
298.312
303.15
302.74
284.113
299.669
301.335
287.597
303.15
297.343
301.365
301.452
301.494
292.821
303.15
283.15
299.094
283.15
283.15
287.672
283.15
283.983
283.15
283.15
283.15
283.15
302.735
288.072
302.683
283.15
295.594
290.859
284.697
283.15
303.15
302.657
301.693
303.16
302.613
283.15
294.722
300.194
290.08
283.15
283.15
299.724
285.876
283.15
283.15
303.149
290.48
283.15
287.06
303.149
303.152
284.277
283.15
288.126
291.949
300.761
294.551
302.945
285.556
302.481
295.139
286.195
283.15
283.53
291.489
303.066
288.976
302.634
283.15
292.295
287.671
300.981
301.273
284.864
303.098
284.865
296.926
302.982
303.145
285.081
303.145
302.998
293.174
302.677
283.15
303.15
303.15
294.635
290.905
283.155
301.011
284.636
284.119
284.578
303.145
288.256
300.394
283.15
283.15
302.473
303.15
294.416
302.883
303.183
299.702
303.225
302.869
283.15
301.241
302.865
283.15
303.15
301.273
303.15
284.286
298.637
283.163
291.42
283.15
287.497
303.005
299.682
283.15
303.017
290.815
301.169
303.123
303.076
283.15
283.15
301.925
301.963
283.781
302.802
302.387
302.354
303.141
283.15
293.609
283.15
302.778
287.784
302.978
303.15
283.15
302.803
285.081
291.397
302.012
283.15
302.557
301.954
301.513
302.456
303.04
303.213
303.002
303.15
283.15
301.47
297.748
303.086
303.15
289.828
284.797
303.15
283.15
285.262
303.184
303.166
302.906
301.068
284.234
303.094
290.65
294.143
303.148
288.94
303.165
283.15
289.771
283.15
299.878
298.022
284.743
288.075
299.509
296.625
295.179
299.07
293.621
303.154
293.8
296.243
283.16
299.276
293.771
303.15
298.837
299.033
303.15
291.08
303.171
301.613
303.15
286.839
285.966
302.779
289.579
283.15
283.15
300.256
301.145
283.704
283.15
303.15
300.146
302.285
300.562
299.791
302.767
292.472
289.552
286.561
292.396
284.263
290.29
283.3
295.652
290.333
293.825
287.022
284.248
303.164
283.27
303.148
285.523
300.632
283.15
300.391
298.356
288.64
302.078
285.346
298.964
283.15
302.942
283.154
283.119
287.485
299.539
303.15
300.304
303.014
299.845
302.742
303.15
301.194
284.906
294.815
302.004
303.149
283.685
283.15
290.207
285.192
285.687
303.122
303.148
283.15
283.15
283.175
303.15
293.352
303.15
303.146
293.785
303.439
303.15
300.384
303.15
303.15
293.555
290.487
303.15
289.736
302.018
289.467
303.15
303.15
285.821
283.33
290.219
303.228
303.15
303.145
285.406
283.238
283.15
288.868
287.478
303.15
284.271
303.15
303.15
303.131
287.257
303.15
303.147
283.268
303.152
302.633
287.836
283.153
283.574
297.325
290.629
303.15
285.876
284.395
301.268
287.03
302.153
290.482
293.727
303.15
303.15
283.977
303.146
302.937
295.843
302.937
302.72
287.091
283.15
285.265
283.215
297.03
302.575
285.316
303.15
283.766
286.643
303.123
283.175
303.15
286.326
283.15
300.098
303.15
299.621
299.733
283.295
283.352
302.295
290.724
301.345
303.15
301.334
301.694
303.15
303.15
298.229
293.301
283.15
288.684
303.15
295.184
283.347
303.15
296.784
298.647
288.901
303.15
302.735
294.108
295.274
284.422
303.161
298.593
296.002
283.956
303.121
302.786
287.28
298.333
289.721
290.692
289.644
283.15
302.934
303.151
303.15
303.176
292.976
296.193
302.97
301.222
303.15
284.409
303.15
303.035
302.842
303.15
293.423
296.151
303.15
285.314
303.093
303.15
303.085
303.158
285.988
293.228
290.988
288.312
293.32
303.15
301.152
291.323
295.207
293.334
303.14
303.15
300.474
303.191
284.208
303.192
303.15
303.15
303.143
303.15
284.879
303.15
284.177
303.146
303.15
290.077
303.144
292.368
295.387
303.133
295.225
285.923
283.432
303.123
302.932
284.643
283.15
297.004
303.15
285.44
302.894
302.001
303.016
298.413
286.956
303.15
298.604
289.803
299.211
283.15
283.604
303.15
303.145
303.191
293.979
303.15
292.305
289.22
303.196
303.15
284.725
298.664
293.118
299.495
302.444
301.576
300.304
303.15
284.671
296.94
302.344
285.541
298.318
292.152
284.419
291.536
303.15
286.516
291.713
290.028
299.339
303.15
286.371
284.059
303.15
302.402
288.05
302.078
283.15
303.15
299.749
301.641
288.895
301.939
301.913
301.765
303.15
289.222
285.066
301.915
302.198
297.021
303.15
283.199
303.15
301.94
303.15
302.783
303.15
291.565
303.15
296.403
283.15
289.385
303.15
283.15
292.109
301.394
300.341
289.093
300.425
303.15
302.463
303.15
302.347
285.163
303.15
300.327
290.28
303.15
300.736
303.15
303.15
293.098
283.15
285.472
293.109
300.853
303.15
291.061
293.719
288.078
289.56
288.021
299.154
300.241
300.723
287.292