/*--------------------------------*- C++ -*----------------------------------*\
  =========                 |
  \\      /  F ield         | OpenFOAM: The Open Source CFD Toolbox
   \\    /   O peration     | Website:  https://openfoam.org
    \\  /    A nd           | Version:  10
     \\/     M anipulation  |
\*---------------------------------------------------------------------------*/
FoamFile
{
    format      ascii;
    class       volScalarField;
    location    "2.4";
    object      p;
}
// * * * * * * * * * * * * * * * * * * * * * * * * * * * * * * * * * * * * * //

dimensions      [0 2 -2 0 0 0 0];

internalField   nonuniform List<scalar> 
111485
(
34.9843
8.09588
9.41612
34.6838
9.72766
34.1729
8.2468
7.18872
8.27535
12.1396
8.17313
10.4983
8.30878
8.08968
8.35342
8.49912
2.71272
35.2146
8.24659
34.5699
34.4937
34.434
8.35482
8.40362
9.6981
33.9571
11.6643
4.61974
9.38819
35.1765
15.9652
1.896
34.7512
35.1821
34.8756
35.6529
15.8253
0.512454
18.5703
8.61154
35.5641
12.1379
8.60688
14.0675
17.4542
35.8648
13.276
8.39672
12.1096
34.0088
34.0077
32.9188
34.0163
14.3105
34.0204
5.20447
8.36185
35.7537
13.2961
8.59509
8.61884
34.9797
6.64353
15.6169
33.5419
5.87399
28.1478
7.64254
6.73881
7.22632
16.9505
6.06791
33.3473
6.70643
35.54
3.4874
34.6072
11.6618
34.429
34.264
16.2221
13.6748
34.8061
35.4207
6.64005
8.87212
22.184
14.3842
16.5373
2.4994
17.545
8.88505
6.67799
1.01185
12.158
35.4002
35.0038
14.3594
16.9902
15.0931
34.8785
11.7392
35.4962
11.4842
7.84651
34.0001
35.3133
2.20522
9.06609
17.2749
1.5109
6.02344
8.86545
10.9265
33.9515
3.29679
34.0812
35.7546
6.79513
34.5818
33.9486
31.5104
34.8131
35.7647
12.6677
35.4815
31.4632
2.54531
35.622
19.1547
15.8391
14.343
35.5059
31.218
31.8045
8.05545
34.6673
3.48888
7.39139
7.47339
12.2704
7.47633
7.444
9.28565
12.9034
0.368536
34.6562
35.3483
35.5102
7.87127
9.31704
34.5028
15.997
0.0404953
17.028
7.81572
7.73548
8.36742
17.2755
35.7778
34.6867
7.79213
9.33589
17.376
17.1883
3.05904
15.3283
35.7678
17.47
17.5229
35.5075
35.2995
10.1147
35.041
0.588288
0.112755
33.7828
33.3246
34.0221
33.8961
33.2804
34.6642
7.88858
7.90743
7.82431
0.15331
11.6795
4.19301
15.7825
34.8457
3.66048
33.3338
35.0232
4.21847
12.0867
15.2532
5.57007
0.480017
35.5367
7.91895
9.20333
28.7198
13.6332
2.40385
35.6619
4.24982
11.1476
33.3072
15.1764
13.2013
9.2445
4.14196
33.245
35.0771
4.19589
28.1949
14.3366
35.0021
4.24724
3.61726
12.3346
35.8453
4.70643
14.9458
30.1731
35.0297
35.5289
16.9351
17.1615
33.6645
32.3476
3.64828
0.963109
5.85749
33.6428
33.5491
15.6096
35.5951
7.86175
3.62579
3.65466
3.63639
3.65713
35.5639
16.3387
2.89196
35.6454
34.7729
14.3776
6.0541
33.7364
1.81994
2.72043
35.3269
30.9449
13.472
33.9652
33.7724
32.0324
34.2684
3.1819
3.58838
0.270915
35.8703
2.77575
34.7247
34.9547
35.6389
15.6962
11.6997
6.34339
6.43692
10.9274
6.36176
6.49052
16.401
0.947288
0.993533
33.6577
35.2974
16.4859
2.2154
12.1836
1.1901
34.6241
6.46579
7.91919
6.33138
11.1444
16.4612
6.29876
6.40578
13.5819
35.7698
11.5771
35.0458
35.3457
33.8689
16.8748
10.9666
8.50586
34.1546
35.8291
4.98964
1.59992
34.4689
35.1082
34.0484
3.58954
1.01288
7.71652
8.09062
8.759
32.6705
35.3586
35.4721
5.01136
24.5772
8.56969
16.5773
15.5322
34.7828
34.9531
34.9937
31.7762
5.3897
9.63574
35.7435
5.3169
33.6741
33.9476
14.6522
5.35644
10.8105
5.27924
34.0681
31.7227
35.5741
5.33709
0.293091
16.0999
33.8702
19.7762
16.033
9.7621
4.75091
20.9938
8.81187
34.5694
8.8172
5.44363
16.4505
14.6034
9.85317
35.2614
35.4787
35.4214
34.7013
7.6344
4.63224
10.8647
8.81725
35.1842
10.2732
35.367
35.0102
8.81132
34.1634
31.6467
35.8778
35.7024
7.83275
35.7678
0.232819
10.1479
34.4382
7.06838
5.60942
33.8826
5.50796
10.3706
5.52857
15.2168
0.496803
1.03982
34.1197
35.3377
13.999
35.6929
10.7087
14.8295
33.6868
35.6369
5.24526
10.5824
0.912388
10.2041
34.6272
15.9231
10.4556
34.0788
14.0585
10.6137
35.0823
34.6281
0.235363
9.71999
35.6421
34.1028
29.4892
34.8681
9.93283
35.0084
34.8154
10.5286
15.9333
12.9531
9.72139
34.2081
31.7986
14.0827
32.0326
14.034
14.1462
12.0155
28.4994
32.1774
0.907088
17.4606
35.1629
14.63
10.2111
35.855
17.6381
12.2743
32.0875
10.8183
10.4882
0.547741
34.2965
0.819062
11.0728
0.530314
17.1853
31.4357
16.8761
35.5216
15.9882
0.232159
35.4785
10.8216
13.4271
31.0676
35.8486
32.7512
34.4847
9.74604
0.571485
10.6846
10.7679
15.1514
35.0419
10.9638
35.0115
9.73366
33.9777
35.004
35.3069
10.7677
35.3781
35.0702
34.6176
35.0063
35.5869
13.4651
35.7728
32.9496
35.379
35.0871
34.1439
35.5015
34.4989
10.8731
35.3952
13.5984
11.1545
17.8406
33.9931
13.5859
35.4021
34.9671
10.77
10.698
10.8725
16.5993
32.8454
12.4167
12.444
0.690918
1.20948
11.1324
35.2734
0.689509
31.0799
12.5745
35.1057
12.5572
31.5221
1.39643
10.67
34.1964
35.4998
1.19967
34.4045
12.4144
12.4954
35.6172
35.4009
34.0033
35.444
16.2988
12.3801
33.7423
35.7175
9.74629
34.4398
12.4443
34.5667
13.0798
34.9896
12.1577
12.4651
5.42858
1.35022
33.8338
0.0603682
33.9293
35.1249
11.4211
35.1241
12.2274
34.027
12.5838
35.213
11.4565
34.4647
32.133
17.801
11.4925
12.3926
11.4771
12.4328
10.5909
35.4933
12.4273
11.4952
34.9434
16.8095
15.5358
12.4429
33.8044
33.8276
9.66554
12.7569
25.5737
33.1084
11.5111
9.67065
11.6895
11.701
1.52635
23.3404
31.9401
16.7242
24.4634
34.7307
12.3614
35.7044
32.2099
2.4775
23.261
16.8055
21.0873
31.9457
11.7826
9.68055
33.9611
32.8811
9.64164
34.1835
34.4067
34.5027
33.9284
11.7873
35.3599
35.5957
11.8987
3.73695
29.8745
9.61073
32.7896
3.66613
34.0043
35.5321
11.8659
35.0956
34.0273
32.1433
0.38251
27.6238
12.1472
2.50874
34.142
17.597
12.2102
10.0215
15.3045
18.7839
9.79233
35.1542
12.1278
9.986
35.6716
5.70523
13.6524
10.2472
0.37037
10.2869
10.2615
35.5194
12.4306
15.1604
32.0702
10.2743
12.486
27.9934
2.49888
10.2549
12.5322
10.8454
10.9069
2.51569
33.8694
10.9104
12.2723
34.1381
11.6223
11.638
2.6836
35.1472
0.338028
35.7504
34.7102
35.2656
33.929
9.98676
32.3119
16.1993
35.0421
34.0765
11.6588
11.6938
34.3914
12.4819
34.9748
35.6332
34.0391
12.7656
12.3836
32.1985
35.7658
35.0899
35.1868
15.5843
2.68815
31.8377
11.3991
17.3007
35.6155
11.4056
13.2385
1.45623
34.3325
35.0101
5.93208
2.63782
32.0703
35.4764
33.6493
4.38584
35.3212
34.1279
34.9667
11.2967
8.9672
34.456
34.5989
34.0943
1.56905
35.7008
34.1014
12.8455
15.6249
32.0185
29.9135
20.5399
13.0805
0.0706939
33.4733
9.59904
13.4638
35.776
33.99
34.6927
35.0434
35.3975
34.5164
11.314
34.9641
34.6825
33.8308
11.3457
2.6159
33.9588
34.0127
13.1173
2.64081
2.70929
34.2077
34.7163
2.66562
35.3711
11.4289
2.63156
2.74652
33.9403
34.8662
34.8636
35.239
9.72889
34.7773
34.5648
14.3305
34.8365
4.61469
13.4134
33.6528
2.54137
33.4975
4.60708
11.8634
12.2781
13.0111
16.1109
32.6341
4.57605
13.1515
0.0657239
33.7584
14.5609
32.056
0.788685
35.2852
13.5464
13.2437
13.5335
33.8951
34.9082
35.8634
2.63861
32.8118
1.74598
33.1841
8.74929
0.73845
1.87965
2.66713
34.5292
33.9047
33.3517
2.70588
34.0203
32.6546
17.3954
35.7003
35.6939
34.8528
34.7113
1.92388
33.5236
34.9978
15.5639
32.7551
35.7546
31.8765
34.929
13.5083
1.86253
34.5171
9.79125
20.5725
13.5761
17.5368
2.32775
35.4391
11.9837
15.4384
13.5856
35.4524
14.0304
1.92689
31.1354
1.78871
16.6289
17.216
7.1441
1.25922
16.8412
0.381078
1.68295
35.2151
33.8931
1.25423
1.25226
35.5865
1.27237
10.6988
1.67684
33.7694
17.0673
35.283
1.73223
1.66407
34.2647
0.77303
1.66142
17.0574
0.426172
33.6414
7.70016
17.1052
18.1601
16.9606
14.6759
35.1604
35.2979
14.3673
34.6858
10.9904
14.8024
31.336
17.3742
16.7083
17.6911
34.7106
30.9836
3.95968
35.618
36.4752
14.6227
33.9465
34.1745
16.8988
16.4792
34.6981
17.1957
35.0324
35.0881
35.6588
34.9983
34.003
35.35
14.759
33.8694
35.508
35.6178
15.7029
14.6062
9.07369
3.92001
34.3466
34.0246
15.2666
34.8973
34.1744
29.8118
14.9295
5.11309
34.3632
34.1278
33.9781
34.1017
35.3654
34.0402
15.1592
34.0251
17.0613
8.77896
35.1811
34.9337
33.9958
17.1537
33.9904
34.6962
35.2336
17.1838
35.3316
15.1197
15.7483
16.9202
34.4727
28.4396
15.2123
8.45979
33.2969
17.1284
12.6187
34.16
33.5478
31.5795
34.1243
3.94867
7.63211
15.5183
17.1251
34.293
3.92663
33.449
31.882
31.5058
35.5303
6.91376
34.9574
33.9944
16.0817
5.11263
33.9945
12.3297
32.9528
15.5073
34.1537
35.1112
35.3604
34.8047
1.84714
7.54249
18.9594
34.3403
33.7788
1.85981
34.6999
32.3816
35.0144
11.2848
17.2094
9.75209
34.1287
16.2445
16.167
34.5389
16.2239
33.937
14.1044
12.6966
7.40058
16.135
16.0761
34.7995
35.0527
35.0611
16.1979
35.8941
16.3218
35.7296
19.7215
34.0872
8.51303
8.78525
34.0082
34.6063
34.0095
35.6857
16.3245
34.0055
31.5963
1.8431
16.3567
33.9512
32.3085
33.4324
32.3612
33.9357
34.8317
16.4275
12.7292
34.6736
33.9382
16.9555
35.0199
16.4147
1.8819
33.7729
14.3572
34.8368
1.12263
33.837
9.42762
34.2367
17.1291
17.0819
16.7689
14.4125
14.3988
27.5661
33.483
14.4988
33.9998
6.89316
34.2904
35.4119
33.0062
35.3786
35.5097
35.567
14.3914
14.3892
34.8452
31.0886
34.1561
14.6134
17.108
35.0964
6.93265
16.9955
34.0013
2.43361
1.70756
6.60439
16.8406
34.6882
34.9385
35.2417
34.5361
6.95672
35.281
14.705
34.8464
14.7724
9.45364
35.3246
14.6996
35.552
34.6522
14.848
15.6109
22.5506
34.8499
33.9803
34.0811
7.17956
33.2121
35.7998
33.4731
20.3233
31.6634
17.172
32.3058
33.3882
33.5523
2.09072
1.83438
10.6176
7.90955
35.6943
14.8086
35.1242
35.5904
1.80011
33.8193
17.0821
14.7627
1.30577
14.9392
16.3654
10.491
35.4743
15.5334
13.0397
12.7895
15.2213
5.30681
29.1933
34.9635
10.1429
34.1985
34.1447
17.6998
12.1247
16.3967
35.1012
34.8403
16.0363
33.9997
33.874
15.0393
34.003
34.0081
6.30013
15.076
15.3942
6.22225
3.16049
33.9996
34.7781
17.6011
6.12656
34.4996
34.0008
10.8295
33.9397
31.0111
31.7475
31.842
27.0843
31.0138
34.5016
10.2875
34.0658
15.3497
34.2392
25.3429
33.8383
33.8403
35.4955
34.6765
9.55129
34.6992
34.6773
32.0847
34.1486
35.4594
35.0904
5.82781
34.7393
5.28294
15.429
33.8333
10.4743
34.3959
13.074
17.0946
1.38364
1.44189
33.9451
1.55317
9.5754
16.7396
35.6246
15.7395
4.60222
0.70503
32.969
0.900012
33.8155
35.4638
34.1822
34.466
0.903666
35.0325
34.1868
0.713732
15.6663
0.696128
35.6114
29.1104
10.4361
35.2819
17.5947
33.9948
1.51211
33.799
33.9028
10.3687
34.2272
15.7987
35.0243
34.2375
4.55836
13.3823
3.3477
7.41244
17.3056
5.89166
34.2588
34.194
8.87566
3.47502
5.76528
15.6951
34.6938
5.33054
34.6178
34.0932
9.03908
15.8671
33.9636
3.55261
35.4579
3.37941
3.1241
33.3649
34.4833
35.2379
8.8832
35.0135
35.0172
8.92693
3.35766
15.159
0.835324
34.295
35.409
11.0459
8.97513
34.2835
8.89567
33.837
8.88029
34.4032
34.3174
8.86519
34.7217
12.7319
8.17445
33.9907
34.492
8.19304
31.0052
9.92121
34.9616
15.3193
35.0277
31.1376
30.7246
8.26252
32.162
31.9594
7.61237
31.9245
26.5008
30.8942
33.7905
34.1866
16.7561
9.92115
35.0579
35.1298
9.78973
9.8529
33.985
8.98217
34.5348
34.1783
11.4009
10.8653
0.34097
34.382
35.1383
35.0363
34.6828
33.9405
33.9602
35.1557
34.0381
34.0916
34.4928
35.0577
34.1939
34.8354
34.3351
34.108
33.8054
34.3269
34.4881
34.7593
34.9679
35.5067
10.0331
34.9409
34.3439
35.5834
6.84897
35.7931
34.1693
24.0339
33.6622
33.4538
6.89772
34.4566
33.4522
25.0573
6.93763
34.8388
31.2472
32.2083
34.1615
14.025
6.97735
7.01111
6.73533
4.12773
34.1737
34.1936
5.17467
5.42308
6.71066
34.6001
6.13284
13.5608
6.65034
1.0858
1.23792
6.78364
2.11272
6.63675
35.6614
7.54573
6.12499
9.41857
6.14396
35.2588
35.0922
35.4353
34.8465
35.2359
5.36915
6.21864
35.2231
34.108
34.0242
33.8324
34.2133
34.2918
33.7551
34.1965
6.13916
17.1581
6.19531
10.3351
33.8006
33.4718
13.8562
17.3711
34.4634
34.6843
9.90168
35.7517
34.9663
6.1175
6.13701
6.14816
9.78659
13.7371
34.2509
0.0777492
7.36608
31.607
34.2104
7.28759
34.1846
33.873
23.0308
20.7977
10.4078
33.7731
35.6767
15.6571
7.48708
0.140286
5.40501
24.9039
34.8718
14.6369
34.1573
35.7307
33.4494
9.72685
34.1909
5.35767
0.245267
7.20294
7.44576
35.2892
4.72921
35.4413
33.2576
35.3299
34.0703
1.73745
26.9805
34.7072
34.6378
34.3312
5.39593
31.4321
4.84159
5.38991
1.6862
5.39767
33.832
33.7519
31.4908
9.65899
4.0505
16.5086
33.9913
34.9713
31.4477
13.9466
10.3651
34.6952
3.97498
23.1863
7.47927
4.03988
34.7535
31.0813
4.06042
5.36678
35.1083
12.1363
11.757
10.3885
4.74778
4.23012
4.3716
31.5873
1.59444
4.37387
3.70538
33.8971
7.16952
31.7599
9.45638
4.57648
35.8611
1.12744
4.3751
4.7663
5.68509
35.2865
22.4929
15.4151
26.5821
4.40313
33.0724
1.35812
4.35215
34.0007
34.7714
17.7003
16.8578
6.28753
35.1345
10.5964
17.265
16.2653
15.9199
33.8898
35.7459
5.34747
34.4729
4.82867
17.0338
4.36085
1.32335
34.5398
12.8814
5.30879
34.1675
31.7412
3.37173
35.3132
3.3918
3.17373
35.005
35.2106
7.525
34.3454
34.3499
35.7954
1.29645
18.1638
9.71565
35.7935
9.44699
2.3292
33.6357
2.31623
2.43536
1.46704
16.9344
34.5316
4.78427
0.96275
2.37773
2.39969
1.52196
16.6047
8.66194
34.9557
0.155152
1.65693
34.7588
2.40378
35.5982
34.9819
35.5113
35.7329
34.6104
13.9286
35.4061
2.32207
11.3369
35.6821
10.93
33.8834
1.64167
34.1578
16.4996
33.2485
9.11028
14.4755
17.2594
2.50731
1.65426
9.41428
1.4693
2.55298
23.702
2.51025
6.02949
2.5716
35.6828
5.37668
16.9522
2.60069
8.4257
17.0159
35.617
31.7338
34.0158
9.5298
34.5822
30.1322
1.63787
34.3884
11.7056
34.1481
35.5397
34.6958
5.92969
9.95667
2.79503
14.8193
1.36564
5.07615
4.82375
6.07967
1.91307
4.79959
4.99864
33.9569
35.2984
35.8497
7.5348
5.25577
33.7503
34.6904
30.4099
4.82879
1.96713
34.4799
5.00171
35.0885
17.3905
9.56936
15.3613
34.739
34.9962
5.96777
34.8353
12.6852
2.56981
33.1137
6.71833
8.43686
1.06487
34.0473
15.8118
32.1306
12.1367
9.70715
34.7781
35.582
2.46668
29.3018
35.4094
3.22386
1.23151
34.9402
34.0414
31.9748
4.86588
30.317
7.59667
13.983
11.9425
34.9832
31.7917
13.6922
35.0134
35.0764
35.245
34.575
32.0739
33.353
33.0275
34.1497
33.6794
32.9138
34.4168
33.1743
12.6953
33.1738
31.2558
30.591
35.4131
31.5646
34.9954
13.956
32.4951
33.2975
14.3188
34.0565
34.7909
33.7639
14.0099
34.4075
13.9527
15.3645
11.9627
32.5783
34.4746
13.9376
17.3794
33.8019
35.6737
7.51666
32.3886
7.47592
32.2302
35.1249
33.3638
7.46344
7.41332
35.1622
10.8409
33.9975
32.4631
16.4455
3.88999
13.9155
35.6409
7.49184
32.1477
11.6864
34.5197
34.0796
34.3317
31.6862
3.86405
4.70233
35.4017
16.7089
34.1445
34.1689
34.137
34.607
13.1319
13.134
4.79842
18.0432
35.7885
9.61801
7.63376
3.54983
13.1216
35.6961
3.78877
13.1033
6.78293
17.4504
7.09562
34.0414
9.0476
13.3159
7.55661
13.3941
14.0151
34.0339
14.1462
33.623
35.0307
6.20908
35.4128
9.55228
35.224
34.0132
33.3807
34.07
35.5444
13.3319
34.0109
11.0968
32.6119
35.2213
9.30609
12.8334
5.03404
10.7401
35.5233
19.5956
35.4164
11.734
34.0083
9.30521
13.0856
13.2914
11.8427
34.004
34.0176
33.8249
4.08699
35.2454
34.1662
4.08139
33.7672
34.2089
13.2616
34.0038
7.27931
17.3647
32.5381
32.8085
32.6712
4.81097
8.04364
34.5806
0.160221
11.4723
32.2382
13.5043
35.29
4.17528
9.4397
3.61164
34.4949
9.95967
5.21838
13.9694
12.9807
11.0067
34.7901
34.903
16.8868
34.2519
34.5206
35.1221
4.21853
13.6277
5.47735
8.63532
31.9362
9.91677
7.58004
8.13646
9.72563
9.9365
12.428
10.9129
34.6839
34.6521
34.6603
10.9666
35.2333
11.5159
28.7857
10.9395
17.1045
4.22614
2.07375
34.2346
35.1632
10.9729
10.9021
35.0445
34.7915
35.7766
4.54696
10.8928
11.2755
11.3737
1.12622
7.57117
34.2586
35.4653
34.9639
0.941533
7.29814
0.124202
8.27292
4.73727
11.4372
33.6454
34.9543
30.8452
33.8352
1.18115
9.75648
34.8649
34.0324
33.938
35.672
35.7402
33.295
11.8292
34.4374
14.4274
17.8901
34.0807
11.6026
0.364499
4.46183
35.3666
33.4529
11.7597
34.8213
11.8368
16.2347
4.83239
33.1942
29.7223
34.5663
34.433
34.2769
33.0711
22.4259
34.0359
11.8817
5.46754
34.9721
34.9311
12.1094
34.241
34.9966
6.6213
17.2026
34.1227
34.11
33.3465
2.49315
34.8481
34.8818
20.5823
12.1104
12.1164
34.5276
34.0674
32.2128
12.1384
12.0043
12.1195
8.61167
34.399
2.08149
0.432348
0.527865
35.5196
35.5349
34.9689
35.5638
34.8509
6.61685
6.78491
5.45591
35.7311
35.2619
34.826
35.1591
33.5925
14.7019
0.952617
0.218958
33.928
34.7652
35.7956
16.4667
13.7362
15.754
35.0731
14.6491
34.1846
33.9146
34.8884
6.5836
7.32135
34.1824
33.9202
8.98232
34.9002
4.85075
6.01615
23.5835
34.1541
33.8579
4.87117
14.8114
33.6643
23.2281
0.743972
9.67011
34.4508
34.2274
35.6745
34.9695
1.33877
3.37249
34.2345
14.8181
12.7743
18.5997
34.5879
34.2601
34.1975
34.2352
9.92711
34.4172
34.6115
33.6213
2.23785
11.1961
2.76042
33.7177
35.5636
12.7818
33.1461
34.9179
34.2878
34.443
7.03039
33.3421
34.2005
34.2363
2.74626
7.32848
34.2455
35.3671
34.0135
8.51184
33.9711
33.9575
34.0349
35.4276
35.2838
17.5488
9.8238
35.9292
7.7927
9.80743
6.84789
35.7489
35.6246
34.7541
35.5949
34.1894
9.28596
34.5841
32.4354
32.8571
12.7907
33.0299
12.7275
34.8634
35.2233
15.2771
18.7899
32.3348
12.843
34.5647
12.8085
34.3047
34.0547
34.2979
35.8226
34.1487
14.581
34.1552
8.21952
35.3399
32.06
35.3046
34.2504
2.59314
11.7989
34.6328
23.4978
35.7462
13.0143
14.5663
11.7657
35.791
17.1925
11.7207
14.6713
9.9779
17.078
11.8521
33.4248
34.2931
16.9727
4.12569
11.7632
33.9858
33.2222
30.9767
24.6209
35.7684
33.9703
35.3907
35.6554
35.838
34.2368
11.6425
15.4419
5.49092
31.6952
16.2923
35.3925
9.43465
34.9759
35.8108
34.9201
33.2758
15.4067
33.3664
35.7584
34.5645
8.08576
34.6367
35.1601
15.1629
33.8646
29.3609
27.8205
27.2178
35.6726
27.6303
27.2763
27.5473
28.8279
34.3436
34.3439
8.01653
12.2211
32.1168
31.9834
34.4615
8.12085
34.2019
33.7483
15.2758
34.3108
34.8038
13.0391
15.4384
35.7466
34.0763
16.4266
31.8649
33.7775
17.4177
8.73795
8.51808
33.614
8.61927
35.5289
5.36642
17.1498
8.57736
34.633
17.1809
8.61107
33.789
16.2129
33.9985
8.10406
32.8789
8.01665
33.6681
14.5772
34.0741
33.5866
35.3279
15.4448
15.4882
35.5645
8.81557
14.6421
35.94
34.611
6.66177
0.345752
17.5326
35.7175
9.06508
8.93369
15.2801
16.5457
35.8274
17.4778
34.2625
16.893
34.9782
15.0659
14.5498
33.9954
5.59151
33.8022
15.1084
34.6449
34.0073
34.1762
35.0237
34.2071
34.9269
12.1927
6.71499
16.7947
34.1289
30.4691
16.7582
34.1946
35.7782
33.9711
35.7079
34.0963
0.292127
34.6312
35.4831
34.2765
0.258939
34.0692
34.7492
32.9675
1.32609
34.9125
1.31224
16.5949
11.8945
1.32012
1.36412
34.2637
34.1856
34.6949
1.38086
2.81534
33.5134
30.4432
1.41106
35.1275
35.5391
16.7449
33.9949
8.90678
34.1403
1.37814
15.0738
34.1738
34.3218
34.1513
35.4067
35.1113
15.1651
34.174
1.43272
34.0042
34.4865
3.18558
35.3569
9.46199
33.4911
35.1529
12.3592
5.59648
16.9394
35.3971
35.4312
34.7293
5.57432
16.3556
33.9666
34.7414
33.212
3.48336
34.1478
9.53291
16.8836
34.458
34.2759
3.53499
34.9485
33.1435
34.9125
33.7932
35.1231
16.8492
30.2469
33.8449
35.2971
30.5835
34.3003
31.014
33.895
34.0835
33.7036
5.61719
33.8027
3.43601
33.5334
34.2211
17.9473
3.48095
34.1407
33.8527
34.2462
3.37675
31.6827
34.5943
33.4969
34.2226
3.80026
34.1374
17.0439
35.781
11.4929
32.0604
13.8002
33.9418
35.0844
10.9305
31.3077
34.1436
2.79409
11.2623
35.672
35.3933
12.3234
14.079
3.42483
3.43827
3.48363
12.349
3.39824
14.3395
33.9302
17.0551
30.6827
30.482
34.5337
33.8139
35.0488
3.36993
35.7021
35.8211
35.6406
16.0579
14.2428
30.0729
12.9445
35.4851
13.2404
33.7141
15.4288
3.68266
30.8099
11.2784
33.87
33.935
34.6496
3.77809
11.5697
34.7158
35.0285
3.8132
35.3896
17.3577
35.0571
16.456
34.9051
34.644
35.5665
34.6205
3.03102
34.615
18.8154
35.3377
11.8677
34.5348
34.3148
26.9821
26.3954
34.2817
34.3623
34.9651
35.5099
11.2455
17.2782
28.6912
35.3337
11.5211
34.4391
35.2387
17.3129
8.72491
16.0212
34.6742
2.09582
12.2838
5.96069
9.27461
35.0048
35.8347
35.8429
35.4461
34.7075
34.6243
34.6215
33.8762
34.6753
34.6229
34.8448
34.5814
16.4355
34.6486
34.2407
35.1577
35.4484
34.5523
23.6826
34.4026
34.3736
9.28877
16.9999
33.9182
35.7515
34.8151
8.11293
35.7336
34.9294
16.894
34.9793
34.1741
35.1124
35.2999
15.3772
34.8593
17.4759
35.3146
35.0979
34.4036
34.5652
34.3001
16.9432
16.9914
4.48749
35.4747
33.6439
35.6109
17.032
34.1519
16.9672
17.075
34.9415
33.7982
30.0757
17.1111
33.9683
32.2235
17.1105
30.2983
12.6196
35.3224
14.5546
30.2202
29.0747
34.8563
11.1336
35.0166
11.1961
15.36
34.0448
11.2324
17.0083
34.9196
15.4384
34.1891
34.0478
34.1999
34.0007
33.6817
34.5444
34.1464
35.686
16.9854
32.4052
34.6473
35.0941
34.0636
33.9639
8.17706
26.1209
17.2092
17.757
34.1773
10.6076
10.6161
34.7375
32.2239
33.7908
33.8364
33.9133
33.9578
31.0532
32.4364
13.2584
34.4703
35.7269
29.9872
31.0032
34.7447
11.0805
33.7294
33.9686
35.4146
16.1931
35.6522
34.4229
12.4765
34.8858
35.6538
33.6967
35.8899
12.5635
34.5109
34.431
34.3243
33.8439
13.3224
16.1956
16.1745
11.1072
14.0866
14.1187
35.0356
31.3138
17.569
13.7539
31.2954
17.5584
35.3196
16.2269
33.9233
16.2198
34.6613
34.0358
14.1492
15.5685
34.0434
13.7269
34.6198
35.0121
16.228
15.4444
35.4658
34.5382
33.9803
34.6867
34.2861
31.5188
35.4865
34.9941
13.6742
35.5067
34.8771
34.5616
14.1955
34.1914
31.5861
34.8144
34.5905
32.8616
31.9647
14.1885
33.9541
32.0393
8.3161
35.4058
13.7089
13.6111
34.2835
8.62036
34.9207
33.2287
35.311
31.8588
35.3747
35.715
35.8546
35.7712
8.48816
35.5597
35.179
35.5555
33.6973
34.6157
33.7609
16.4535
34.8644
35.3534
15.4142
34.725
34.7403
35.7763
8.40643
34.4511
16.0195
31.6008
17.4178
1.02402
34.6703
31.3106
8.23572
30.7795
34.6491
17.2087
17.1294
0.0659819
14.8355
17.729
16.0957
35.5198
33.8641
10.3589
16.5624
16.0693
10.0635
17.4572
35.2902
1.87245
10.339
10.3184
35.7928
10.29
1.58953
5.92235
9.78006
16.5222
10.7087
2.25059
9.58495
0.336263
4.39455
9.8119
31.6149
0.413497
0.0720918
11.1261
12.9529
0.559207
9.78422
0.378013
31.9217
16.8172
31.8141
5.25912
10.384
13.1687
7.79447
31.8031
34.7101
9.59734
7.86681
16.5871
16.1868
2.69707
10.403
27.6173
10.4412
34.8626
18.2742
16.6889
14.7987
5.98256
16.7471
17.0097
11.9559
7.381
7.44471
5.38683
10.4658
0.548056
30.2415
28.6873
10.5107
34.252
34.844
9.91238
10.0533
0.847722
34.3497
15.0013
15.463
7.18736
29.0412
34.8586
16.6792
0.228972
16.6984
35.8382
2.6269
35.111
7.75003
11.8155
14.3622
14.5117
34.3128
34.9167
15.7043
10.0863
10.0927
34.929
8.13104
10.1162
12.9773
34.9723
7.3214
0.618328
31.7422
5.97364
15.805
15.9335
33.7551
15.2628
17.8412
34.9081
12.5027
1.14781
21.3109
12.688
12.6992
2.31471
11.0876
12.8542
0.833509
16.6505
16.0974
12.0643
2.06959
10.733
17.1081
7.8222
12.7876
4.41137
9.83072
17.1375
2.38607
35.0044
12.7103
12.6647
16.3296
3.16826
14.7347
33.8754
12.6459
5.94596
35.0431
14.974
0.249742
12.7411
12.219
1.52119
0.208363
10.9407
12.297
15.1373
35.035
34.8228
15.224
35.5697
15.2639
14.8828
33.3793
1.55002
13.0347
8.10204
35.553
5.94514
6.78682
14.9771
16.7084
6.67743
2.8963
8.24272
13.7461
34.8471
34.035
16.3777
13.7106
14.9088
8.62518
34.0339
13.8103
11.8765
33.357
8.17733
10.4711
0.628296
17.5391
14.1862
11.8455
2.47484
9.11932
35.5728
12.7432
6.54271
12.1105
17.4889
34.0475
14.3081
34.0079
34.6982
6.86224
11.7961
7.48089
18.4265
15.4624
21.2619
34.7902
11.7925
11.9057
7.64715
7.6047
34.1642
35.7935
35.7413
7.6605
7.6356
17.4483
5.8765
33.1812
34.0894
7.62209
8.47828
14.6054
7.617
7.59274
9.11808
14.1054
26.7281
34.344
11.6069
0.862536
34.0753
10.944
9.06345
17.9363
11.5833
9.07239
15.1439
34.0812
7.83371
9.41749
35.5185
33.2329
0.549962
1.00276
3.21242
1.34492
9.09763
9.17999
2.27112
5.88889
8.415
1.31228
34.021
33.9643
0.0590204
1.50588
9.06228
17.3228
8.79799
8.66328
12.0169
7.39904
8.75654
34.5178
35.5228
17.215
33.9834
31.5502
9.49847
6.03249
9.29395
16.8699
32.4441
14.3405
17.3799
32.7738
17.3861
17.2919
8.72969
8.80313
0.60735
10.1583
16.5807
1.48213
34.7578
32.6663
15.8877
2.87295
7.61818
2.96572
14.9328
13.6127
16.3951
32.7307
9.31083
2.03049
8.09545
17.3431
14.2916
16.0456
17.2968
9.34197
2.14209
32.5047
13.1482
8.96288
23.7692
31.7636
30.6896
8.09608
31.4567
0.470462
8.05855
7.55761
10.1674
15.5708
28.0426
24.2182
34.1108
31.1955
15.1771
34.6453
34.6483
16.101
34.7909
5.90882
7.8506
7.2332
5.52782
5.8568
10.4
30.5462
2.84143
1.25813
13.4549
9.85775
5.5178
9.26879
34.7402
17.3416
5.39636
12.0831
34.6599
12.4154
9.67716
34.6387
34.1852
14.8823
5.33174
35.2525
10.9254
9.852
14.9389
35.3209
34.617
0.890596
17.1458
10.2799
34.6883
35.3907
34.638
11.8299
23.2768
22.8709
3.7282
17.0938
35.7679
3.71648
17.1079
8.35889
0.970623
0.939961
4.00899
17.437
1.06
35.8616
4.238
2.20322
0.348267
6.71922
1.58381
1.54168
1.6461
1.73036
0.434012
15.4469
17.5369
9.17418
15.1335
16.6631
17.3004
1.68766
17.5117
1.70383
0.416043
4.89371
2.98559
14.9354
2.95792
17.6254
3.45847
33.1032
9.37724
25.7222
6.94445
10.4114
35.5214
12.7719
33.1268
10.8892
33.1932
33.7411
7.212
13.0603
31.7923
2.88014
7.60502
13.033
34.0999
35.4178
15.2296
4.17823
17.1475
6.87688
2.33013
12.7371
16.2197
12.1392
12.8276
30.7937
9.29408
34.7863
33.9275
5.206
3.7629
16.9824
4.99086
3.32877
12.8048
13.2518
33.6205
16.3598
3.2532
12.6514
33.6036
35.6313
9.32834
10.9213
30.1326
14.8109
0.326356
11.2157
0.647528
2.71444
6.97234
34.2002
27.1562
5.56455
15.9305
35.8957
5.21885
14.8292
11.7597
18.1052
5.54834
18.0139
9.32299
15.3895
27.9199
15.7256
34.4988
10.7611
12.9743
2.58887
0.14646
31.3187
0.217757
15.9671
12.319
15.4922
32.6258
34.6266
5.84547
15.7763
12.3325
10.6529
14.7272
4.23118
0.828594
8.04201
0.940434
0.651894
14.8815
32.1839
17.0214
12.1616
0.0665683
14.5109
32.5362
34.2638
14.1426
16.834
34.3521
16.8311
13.4932
32.5748
28.2368
28.7529
13.2359
5.43192
18.5391
29.4838
14.7901
6.18337
33.0523
1.70962
31.4867
11.7331
4.24794
35.2641
1.17265
14.6029
14.5951
3.77655
34.4487
17.2403
13.9643
15.5472
14.5917
15.1718
15.4911
13.3084
17.536
13.7269
2.20477
5.52859
34.0549
31.0592
30.8498
33.3549
12.5511
6.41154
5.63034
14.5883
3.25272
5.67654
11.215
13.0693
12.5147
4.10508
13.4416
14.579
11.8198
3.03414
34.5904
14.5
14.4657
12.7776
13.525
33.082
7.57602
7.72945
10.5568
10.6025
8.49148
33.84
8.40969
8.43723
31.5365
8.55143
12.0553
33.3679
8.5431
33.2892
35.7803
7.56241
13.056
12.1208
8.42442
34.2091
1.36157
13.4859
35.7695
6.85989
8.74335
7.18094
12.3909
33.3619
13.1302
13.0752
11.4666
33.624
6.02446
2.29574
11.7207
5.17799
6.50557
35.5518
33.2901
32.3058
0.471859
32.6153
5.87167
4.88363
1.62104
33.9441
1.80568
33.4786
34.5926
33.7701
7.19181
0.178487
17.2752
11.7217
6.31124
32.7021
31.4941
14.7496
14.5081
4.83171
16.5544
6.35039
17.1128
34.5529
29.3131
29.5807
34.4916
29.6978
0.275414
34.8219
5.87381
11.1072
6.34338
1.25097
7.56041
30.85
4.99247
11.1247
12.9524
15.2674
30.9496
34.4596
13.3834
4.964
17.6116
17.1958
16.4718
17.0348
17.3464
17.3724
3.74043
0.855251
3.76126
16.6184
3.68613
11.1735
12.0257
2.51217
3.68906
16.4209
17.1426
17.1356
16.3471
15.8129
2.59405
15.4057
35.717
16.1715
14.5242
1.40859
0.864109
0.318466
11.1875
8.42249
14.1805
0.92069
16.8784
34.1959
5.91655
8.08371
9.14868
34.1522
6.83685
3.79382
0.977672
8.30439
35.7347
34.0438
12.1532
2.37641
2.25679
0.472182
33.555
35.0479
35.0777
9.12609
10.937
2.11184
35.0139
6.05065
34.0155
33.9986
0.946922
0.67497
34.0005
2.14003
2.20301
0.401544
35.7365
35.3689
3.91833
11.198
34.0201
1.92876
1.80343
1.65896
34.0401
34.0365
34.0175
1.68558
1.92848
14.6713
1.79123
35.6261
1.6314
10.5475
14.8159
13.5749
33.2555
34.4307
1.64192
15.6288
15.2218
7.73295
33.2924
17.2752
34.7587
2.62933
16.582
10.6412
33.4151
32.0652
15.8107
16.3593
31.7776
31.8764
34.823
6.95228
32.9277
31.2003
11.0313
10.798
34.8079
31.53
9.40936
1.74593
1.72296
7.20892
6.06221
31.7668
11.1906
30.6264
30.3191
33.596
7.61458
12.4256
1.74262
30.4258
34.5478
10.7852
16.4619
11.4505
12.5397
9.89659
8.60078
9.77057
1.80985
30.1879
10.5891
7.85359
1.79944
7.11025
12.4308
26.8336
7.01338
7.04023
6.99504
7.00315
2.41643
29.8048
32.5322
8.15409
32.5874
32.7943
9.82859
32.6553
5.85749
32.315
32.5062
33.5913
31.7917
7.78451
2.55832
7.82595
32.1748
3.73875
7.42586
10.4856
32.4476
35.0018
7.80252
8.28177
17.0163
7.80853
31.8558
0.0932375
1.72586
1.35735
34.231
33.6527
4.63018
3.91554
33.7314
32.553
14.3808
0.125893
32.195
15.8123
14.3278
14.3663
8.61699
32.4182
9.79345
20.2746
0.913604
0.342782
14.4309
14.2366
13.2048
5.49744
10.0318
31.9386
11.1985
10.0093
16.9278
15.4882
14.3681
32.3472
6.87954
10.2109
5.76116
8.7292
10.0874
16.5157
0.9174
15.1862
13.3776
14.4187
4.08114
14.5051
15.2017
9.95019
12.2051
33.8877
17.1053
35.8284
9.85883
10.2818
14.503
15.1932
14.009
10.0539
10.0863
16.0309
7.78845
2.6202
34.0742
29.7942
15.1972
15.1165
11.8707
15.2203
16.8594
15.7696
16.8481
16.9556
30.2948
2.5733
17.0281
15.2357
30.5645
0.265233
29.664
7.64244
10.0178
17.3666
6.84125
35.7438
9.68664
16.7186
0.679784
34.6864
16.7984
2.22495
13.1164
16.7195
16.7731
30.0315
34.5949
7.07505
10.5619
5.55294
10.5518
9.49492
10.7239
17.0622
31.3285
0.375882
30.8584
10.6762
2.55396
11.3386
35.2705
28.8853
15.7678
10.6759
7.71959
11.4931
34.6498
11.3851
11.5164
0.440395
11.4933
23.8007
20.979
11.4225
34.5264
34.2933
6.83894
23.5678
15.5864
35.4046
5.1157
33.5219
16.3758
35.4452
3.20604
15.0197
17.1632
11.4233
12.0254
10.3339
14.3903
17.1225
0.952628
17.2284
6.38186
17.1204
33.223
3.70116
34.1574
12.0572
12.2264
9.62804
8.50991
11.9834
0.469251
7.5384
11.8875
11.6466
17.6178
14.1046
15.8095
33.8034
11.8713
2.69286
16.6251
2.52228
11.9546
16.5483
3.72781
16.6704
10.6814
16.7634
10.76
6.49722
12.1152
9.74662
34.2922
34.2253
10.2912
10.5062
13.2101
34.8571
16.1138
0.781739
10.0182
7.58432
4.78265
7.98138
6.79557
10.4915
0.037242
5.97764
13.9946
5.02454
9.09176
8.1451
7.47911
13.9845
11.9594
4.97988
17.7875
11.2068
17.334
4.37646
12.655
16.9043
5.64014
0.310245
7.99372
10.4836
4.50196
3.72086
33.8887
12.4669
17.1849
17.2889
23.3699
12.472
30.6953
6.90003
12.4532
1.76887
13.3418
34.0062
12.1691
14.049
0.0206655
12.6772
16.5702
13.9288
34.6363
8.23724
1.13995
13.471
17.2012
17.2723
33.8699
34.7197
19.7787
32.315
13.9948
34.2851
17.5022
19.6058
32.2011
32.3428
0.988155
32.5989
34.8287
13.946
7.93795
35.5048
9.47922
7.19515
9.90097
15.1696
34.835
15.9835
14.1218
13.3879
18.5189
34.86
16.8915
13.6706
15.3165
34.6069
8.10453
13.5867
33.9671
7.10135
34.6201
33.7593
16.8172
13.4503
35.0304
17.0967
16.7165
16.9403
16.6225
11.6037
16.3159
16.219
12.1935
13.9601
35.7046
6.47654
2.30581
4.92609
0.70675
16.5659
2.18585
7.00102
35.0493
34.2415
10.7801
16.5619
13.8931
6.59002
13.9231
7.46868
0.756229
34.7833
0.0501563
16.3405
1.87631
13.9045
4.40341
35.0427
16.0077
12.2096
15.952
19.1181
35.0043
6.15575
35.6798
2.49479
35.6174
13.8804
15.921
13.2229
10.131
12.0879
0.639849
13.134
35.0542
13.9219
13.9382
33.9657
33.9794
0.91841
11.9756
35.0648
0.0278694
33.9821