/*--------------------------------*- C++ -*----------------------------------*\
  =========                 |
  \\      /  F ield         | OpenFOAM: The Open Source CFD Toolbox
   \\    /   O peration     | Website:  https://openfoam.org
    \\  /    A nd           | Version:  10
     \\/     M anipulation  |
\*---------------------------------------------------------------------------*/
FoamFile
{
    format      ascii;
    class       volScalarField;
    location    "2.4";
    object      SgT;
}
// * * * * * * * * * * * * * * * * * * * * * * * * * * * * * * * * * * * * * //

dimensions      [1 -1 -3 -1 0 0 0];

internalField   nonuniform List<scalar> 
111485
(
3.59403e-15
2.76014e-15
2.06747e-15
2.3753e-16
3.83882e-16
2.31925e-18
6.19895e-16
2.77524e-15
5.92542e-16
7.72249e-17
8.07744e-16
1.27046e-15
2.21686e-15
2.52651e-16
9.02041e-17
1.31079e-15
2.91316e-16
0.0027915
8.82212e-16
2.68431e-15
4.8923e-17
1.13886e-16
4.88403e-16
2.14789e-15
9.71937e-16
7.82451e-16
7.55253e-16
1.31356e-15
2.90897e-15
3.92637e-17
2.49084e-06
1.78478e-15
3.50994e-16
6.32504e-16
9.04789e-06
9.88087e-15
9.24174e-07
5.11864e-17
2.58412e-11
6.58796e-15
3.02639e-16
7.72944e-15
8.68751e-16
6.54888e-13
3.47617e-06
2.33493e-14
1.77624e-15
2.43475e-16
5.27294e-15
1.63388e-16
3.85584e-17
2.59881e-15
2.65076e-16
3.11442e-12
1.51912e-16
1.98481e-16
4.07329e-16
6.94769e-16
2.39294e-16
2.46763e-15
2.69505e-15
3.24004e-15
1.29299e-14
8.74605e-07
1.22931e-15
1.56418e-17
0.000349025
2.67018e-15
5.85489e-15
6.19779e-16
1.67026e-05
2.89874e-15
3.89183e-15
4.03184e-15
3.85037e-15
5.74192e-16
1.43943e-15
1.2604e-15
4.0785e-16
9.25525e-15
2.07093e-11
2.07164e-15
1.28583e-16
9.41668e-16
5.90433e-16
2.48771e-15
1.13122e-13
1.83624e-11
1.26053e-05
5.49229e-16
8.9817e-08
1.03858e-14
3.9958e-15
4.08667e-17
2.95548e-15
2.7605e-15
2.15528e-16
1.66282e-11
2.19465e-08
2.15069e-12
3.64609e-16
1.27007e-15
1.63401e-16
3.01392e-15
7.53032e-17
5.03244e-16
3.03309e-16
3.08705e-15
2.55341e-15
2.76137e-12
3.40601e-15
7.61319e-16
1.02635e-15
3.53968e-16
7.81458e-16
8.28495e-16
7.65745e-16
1.3208e-14
3.78961e-15
1.42254e-15
9.25997e-16
1.79424e-15
1.24969e-15
2.9561e-15
1.78e-15
4.53533e-09
8.64462e-17
1.6986e-15
5.29685e-16
1.61252e-08
3.57684e-06
6.90018e-12
1.72965e-15
8.77675e-15
1.13009e-15
1.57257e-15
1.81267e-15
3.58654e-17
8.1874e-16
1.87283e-16
4.1768e-17
8.492e-17
4.65237e-16
1.19515e-15
5.11428e-15
6.78262e-17
3.18031e-15
4.17284e-16
1.01636e-15
6.00591e-16
8.23122e-16
4.5866e-15
2.64446e-07
3.9326e-16
1.53667e-10
8.50136e-16
5.60495e-15
8.32777e-15
2.44069e-11
1.92334e-15
2.27102e-16
2.40416e-15
7.24132e-15
4.49205e-10
5.0292e-11
7.53143e-15
1.51708e-10
1.59097e-15
8.51193e-10
1.62616e-08
4.42553e-17
2.14806e-15
2.61578e-15
2.52873e-16
2.80557e-17
3.06686e-17
2.37552e-16
7.87155e-16
1.30325e-15
1.17996e-15
4.50931e-15
5.247e-16
1.05642e-15
1.6391e-15
6.24693e-16
2.73215e-15
6.11409e-16
3.6019e-15
1.44429e-11
5.2422e-16
3.20556e-15
5.95858e-16
2.7992e-15
9.23906e-15
2.11016e-15
3.86742e-08
2.3505e-15
1.3158e-16
1.7257e-15
3.25723e-15
9.03513e-16
3.11656e-08
8.08092e-15
9.12221e-17
8.65193e-16
2.48676e-15
1.30853e-15
8.31913e-16
6.92093e-13
2.43421e-15
7.54923e-16
9.39969e-16
1.53477e-15
4.91001e-16
6.51254e-15
5.15896e-15
7.08274e-12
2.1801e-15
9.43621e-15
3.56585e-15
7.04337e-16
7.33109e-15
5.37207e-16
1.77017e-09
8.08253e-16
1.45723e-16
3.45272e-16
3.95634e-06
4.69584e-11
1.17184e-15
3.70811e-12
1.23232e-15
1.91043e-15
7.41439e-16
6.63944e-17
8.46987e-16
3.57936e-07
7.11738e-16
1.37987e-15
9.54794e-15
6.28719e-15
1.20493e-14
3.14475e-15
3.73832e-16
2.48491e-13
4.22347e-16
8.64103e-15
8.12544e-16
7.47827e-15
1.59433e-15
8.36169e-16
1.73125e-15
6.54374e-15
1.68644e-15
8.54085e-15
8.30778e-17
1.34502e-16
3.68416e-11
1.19579e-07
2.91391e-16
3.30743e-16
8.25073e-16
1.01393e-15
6.65722e-15
2.29523e-15
1.27393e-16
6.29676e-16
1.30397e-15
2.35096e-15
7.56971e-16
4.52954e-15
2.11416e-15
4.32999e-15
2.29968e-15
2.6525e-15
5.56879e-09
2.98547e-15
3.62787e-16
3.21676e-16
2.43463e-15
4.31133e-13
1.71951e-15
6.67168e-16
1.41675e-15
4.29103e-16
4.29965e-16
9.56395e-16
1.69948e-16
4.46813e-17
2.70167e-11
2.04101e-16
2.85565e-16
4.35769e-15
5.63228e-15
8.4169e-16
1.63181e-15
2.44895e-10
2.20363e-12
7.80948e-06
6.14126e-15
2.926e-15
1.33461e-15
3.29197e-16
4.17683e-16
4.75254e-15
1.21142e-16
1.05333e-14
7.93993e-15
3.63514e-17
5.48395e-17
1.71271e-15
4.23455e-16
7.31301e-16
5.52156e-16
8.362e-16
1.1255e-15
1.55411e-16
2.28484e-10
2.19564e-16
2.53504e-06
1.84173e-14
8.04988e-17
4.23816e-17
1.28543e-15
8.43083e-15
6.36985e-17
8.92291e-16
1.4967e-15
4.0879e-17
4.80203e-15
4.75464e-16
1.4172e-09
1.1923e-16
1.41203e-15
1.3351e-16
2.16462e-15
5.156e-15
3.68398e-15
7.95002e-17
7.36906e-17
1.43866e-06
4.77157e-17
1.32407e-13
2.96059e-10
5.81433e-16
3.32868e-17
3.0895e-08
2.5852e-15
1.8976e-17
1.33794e-15
1.22079e-15
1.97586e-08
1.03846e-10
1.78307e-14
2.90762e-16
7.40053e-15
7.13848e-15
3.81422e-15
8.55885e-16
1.23417e-16
6.05551e-15
1.46971e-15
2.34898e-16
7.44946e-15
4.48092e-16
9.3125e-16
1.63615e-15
8.13348e-17
3.17963e-05
5.56531e-15
4.97585e-16
2.26947e-16
9.0756e-16
1.45685e-15
1.01199e-15
2.468e-16
6.81809e-16
7.81194e-16
7.74111e-16
7.53188e-15
1.05555e-14
8.31108e-16
1.02464e-07
5.55733e-16
5.72053e-16
4.49836e-15
5.89126e-16
7.76456e-14
2.04528e-15
8.63674e-16
2.99419e-09
3.47946e-16
3.42587e-15
1.92776e-15
7.06006e-17
5.31839e-16
1.61906e-15
5.44088e-16
3.23474e-07
1.49052e-15
1.5247e-16
9.65833e-14
1.64379e-15
4.41417e-15
1.40283e-15
7.68822e-16
2.79956e-15
1.2365e-14
2.15067e-16
1.27356e-09
9.03739e-16
2.45391e-15
2.76624e-16
3.53419e-15
1.11793e-15
1.00538e-12
3.74964e-15
7.69573e-15
4.47021e-17
2.06343e-15
1.65267e-13
5.13297e-16
3.52619e-13
1.81097e-12
8.78102e-16
0.000814543
1.46808e-16
2.8285e-16
2.437e-05
2.99932e-16
2.64924e-10
3.6694e-15
8.29362e-15
5.07905e-12
2.03847e-17
2.47836e-15
1.41821e-15
5.36051e-15
6.54851e-16
2.47076e-16
1.39979e-17
1.88909e-16
6.17805e-16
3.0381e-05
4.23855e-15
1.35853e-06
1.13733e-15
2.80346e-13
1.99381e-17
2.44126e-16
5.18706e-15
1.48445e-15
5.49474e-15
6.47863e-16
2.42972e-13
1.61902e-16
1.84804e-15
8.07051e-17
2.63094e-15
3.67642e-15
5.66653e-12
9.10253e-16
1.21955e-16
3.7591e-15
2.18856e-15
3.83732e-16
5.22739e-16
8.72697e-18
2.66977e-15
4.56549e-16
1.2604e-16
2.69342e-10
1.10965e-16
2.43389e-15
2.27836e-15
5.43253e-15
1.60516e-15
2.70388e-16
2.02692e-16
1.30259e-15
1.19767e-15
2.62409e-16
1.10185e-14
3.11492e-15
2.90398e-15
6.91556e-16
7.04488e-08
2.71211e-16
3.53182e-16
2.1356e-15
1.7589e-16
1.69166e-15
9.96197e-16
3.79984e-15
9.24264e-06
3.06329e-16
2.45854e-15
7.92192e-15
4.86744e-16
1.94992e-15
1.05492e-16
8.31047e-16
9.69427e-16
1.18017e-14
8.46283e-16
6.79445e-16
8.89836e-15
5.36759e-15
1.31574e-15
1.07256e-15
4.34966e-09
5.60355e-16
3.03472e-15
1.74806e-16
3.41016e-15
2.98321e-15
2.96628e-15
1.88378e-16
2.36755e-15
1.86883e-16
1.85848e-08
3.31448e-15
2.73397e-17
6.84555e-16
3.64057e-15
1.79908e-16
5.60814e-15
4.89761e-16
1.23384e-16
4.25487e-15
9.24762e-17
6.11606e-16
2.27382e-15
6.30635e-16
1.35099e-17
5.79021e-16
6.01663e-16
2.07843e-16
6.07701e-16
1.03275e-16
5.57982e-16
8.15168e-16
1.94679e-15
4.34428e-16
1.30943e-15
1.97356e-15
2.46433e-15
0.000100463
1.85008e-16
1.61009e-15
4.69122e-16
4.55153e-15
4.22671e-15
7.34455e-16
4.55508e-15
8.75383e-16
6.78648e-16
9.43883e-14
4.3508e-07
5.31195e-16
1.87111e-15
4.12917e-06
1.1176e-15
6.98865e-16
7.68728e-07
2.50026e-10
2.04405e-15
1.68617e-14
6.10416e-16
2.31225e-15
1.2843e-15
3.46031e-07
9.23015e-16
1.82656e-07
0.000736045
1.64614e-17
2.36957e-16
9.52536e-16
9.02165e-15
1.5439e-16
1.51029e-06
2.27736e-08
2.04912e-07
1.10372e-14
7.13953e-16
2.45239e-15
3.98734e-16
4.97115e-14
4.44996e-16
5.29975e-15
1.24878e-15
1.62957e-16
7.0222e-16
5.59052e-15
1.3176e-15
2.96845e-15
1.29979e-15
1.94708e-16
8.04413e-12
2.20366e-15
9.81936e-16
2.0758e-15
8.71456e-16
7.04487e-15
4.4882e-15
2.65456e-17
2.67559e-17
1.13024e-14
3.11754e-16
1.77018e-15
1.27812e-15
1.39952e-16
5.695e-16
0.000145278
1.45768e-17
3.22843e-15
1.05995e-08
2.0206e-07
3.7069e-15
1.98717e-15
5.61982e-17
3.41051e-15
9.0869e-15
6.3572e-16
3.84997e-15
8.89677e-16
2.62737e-15
7.56508e-16
4.71184e-16
1.62941e-15
3.96272e-15
5.77617e-08
5.77974e-16
1.30158e-15
5.2698e-16
1.09701e-15
8.41118e-17
4.03101e-15
8.68374e-17
3.92707e-16
4.84604e-16
2.09929e-16
9.34408e-15
3.47792e-16
4.42678e-16
1.31018e-10
1.07011e-16
1.26498e-16
4.23692e-16
8.71249e-16
4.49006e-16
1.88595e-16
3.07006e-15
1.0004e-15
3.23411e-16
4.74692e-16
2.44008e-15
6.27044e-07
2.51281e-16
2.25006e-17
7.3004e-17
3.33898e-16
2.1027e-15
1.9415e-15
2.83225e-15
4.4667e-15
5.59605e-16
1.37159e-15
2.66504e-16
4.20437e-15
1.9116e-14
1.7084e-15
1.088e-16
5.51971e-08
1.29332e-16
5.59198e-15
6.35169e-16
2.55505e-10
1.45647e-15
2.22922e-15
1.65571e-15
3.07257e-16
2.59757e-16
3.50215e-15
2.91945e-16
5.47058e-17
6.3976e-15
2.90383e-16
7.39702e-16
1.52194e-15
1.96069e-15
2.28454e-15
7.86223e-17
3.0395e-15
9.93428e-15
5.56625e-17
0.00457697
0.000234692
5.52452e-16
4.9965e-16
1.85179e-15
1.82749e-15
5.90403e-07
1.42742e-15
4.01537e-09
6.06921e-05
1.22901e-15
4.47988e-17
5.2679e-15
5.95969e-15
7.44901e-17
2.5689e-15
2.89111e-16
3.45402e-16
1.37934e-15
2.29534e-16
1.16148e-16
1.09577e-15
3.48481e-15
2.89926e-15
6.554e-16
3.81797e-16
6.44772e-17
4.80837e-16
5.32547e-17
2.50623e-16
2.24333e-15
2.66842e-15
5.23056e-16
3.46955e-17
2.94003e-15
4.02385e-15
4.48555e-16
1.06843e-15
5.63921e-16
1.00264e-15
4.10862e-15
8.85493e-15
1.69386e-16
4.84585e-15
3.98816e-17
6.41033e-15
1.03258e-11
4.67624e-15
2.2344e-15
3.896e-15
1.04578e-15
1.18059e-16
0.000946876
9.16169e-16
3.9881e-15
4.31578e-16
1.06003e-16
1.87403e-14
4.58333e-15
2.25052e-15
2.6934e-16
2.12961e-16
4.98484e-16
1.24523e-14
0.000831102
1.5377e-16
1.16015e-15
3.13827e-16
8.67586e-16
4.43139e-16
2.0458e-12
1.31587e-15
7.08891e-15
4.38254e-16
2.37717e-15
2.60427e-16
2.35236e-15
8.32943e-15
1.16493e-16
4.9747e-15
1.95462e-17
8.56907e-16
6.83789e-16
8.62277e-16
4.63893e-17
2.14667e-16
6.91285e-17
3.04442e-05
2.65133e-15
4.44924e-16
5.39404e-16
8.32912e-16
1.79484e-15
9.3699e-16
5.90053e-17
5.61959e-13
8.77579e-16
3.9084e-16
9.88399e-11
1.95353e-15
1.50356e-16
1.03766e-15
8.47531e-16
4.55876e-15
4.94725e-09
7.51782e-18
2.82112e-08
2.11464e-16
2.16379e-16
2.16921e-16
4.37365e-10
1.66847e-17
1.42738e-15
1.19324e-12
2.48984e-16
2.34791e-15
1.97522e-15
7.925e-09
8.25672e-11
6.74467e-16
7.42769e-16
1.40206e-07
1.98321e-16
2.46076e-17
2.9181e-16
3.34155e-16
4.0241e-15
2.12919e-15
1.08861e-14
6.66905e-16
7.66086e-15
1.83072e-15
1.60807e-15
1.47963e-07
8.42207e-16
9.52446e-17
1.13507e-15
9.10158e-16
6.61896e-16
8.09027e-17
1.58171e-10
5.53719e-16
5.69861e-16
5.51919e-16
1.5109e-09
1.01887e-06
2.96195e-10
4.67253e-15
5.72027e-17
5.55998e-16
4.12627e-14
2.46205e-15
5.69865e-15
1.32577e-14
5.56705e-08
1.31438e-07
1.59104e-08
1.92848e-07
1.27905e-15
9.56949e-15
1.50337e-16
1.30521e-14
3.47859e-07
8.49003e-15
1.34827e-16
1.24254e-15
2.44446e-07
3.68152e-07
2.29083e-17
2.73695e-06
2.31089e-15
3.75727e-16
9.47194e-16
4.35757e-15
9.4529e-16
2.76159e-15
1.39685e-14
4.08126e-16
1.2515e-16
6.85478e-15
5.16834e-08
7.59026e-18
7.23702e-15
1.02321e-16
1.07525e-16
2.46667e-16
8.1379e-14
9.04536e-16
4.46724e-17
1.09924e-15
1.94558e-12
5.27376e-17
1.4473e-16
1.00403e-15
1.53727e-15
1.19033e-16
8.55541e-17
5.25966e-18
1.80147e-12
3.46935e-16
9.0215e-06
1.90926e-15
9.63964e-17
3.16666e-16
1.95186e-16
4.18151e-06
8.35991e-16
1.72431e-16
1.52694e-15
1.70577e-05
1.04103e-15
3.45405e-12
1.64278e-13
4.44907e-05
3.82067e-16
7.67977e-07
4.8838e-12
8.19959e-16
7.50893e-16
1.25531e-06
1.8402e-15
2.9658e-15
2.26643e-16
6.14304e-11
1.14862e-15
1.33119e-16
1.56211e-14
1.6982e-10
4.46881e-07
8.92466e-17
6.31409e-17
5.06875e-16
1.01024e-15
3.63921e-11
1.59049e-15
1.00908e-15
2.95758e-16
7.06225e-16
6.32491e-13
5.65838e-15
2.6017e-16
5.70317e-17
6.59839e-15
9.75053e-13
4.11534e-15
2.63826e-16
1.9313e-15
1.26115e-15
4.41788e-16
3.98386e-15
0.000165548
1.45811e-16
1.8817e-16
1.90207e-15
4.08199e-16
3.74014e-15
2.71788e-15
3.791e-15
9.88472e-07
1.2111e-15
6.94483e-16
3.19373e-05
4.66581e-06
6.84977e-15
1.34547e-05
6.15308e-16
5.98801e-16
4.56686e-16
2.2127e-15
6.48657e-10
2.53443e-11
2.47099e-16
7.51346e-16
5.41351e-15
5.39636e-06
1.33996e-15
2.72518e-05
7.15923e-16
8.75568e-05
4.02121e-16
8.02816e-17
1.51e-14
5.35705e-16
3.78747e-16
1.17689e-15
3.03743e-15
2.1748e-05
1.08708e-15
9.00125e-12
5.73119e-15
5.42359e-06
1.11575e-15
4.69504e-15
4.73639e-15
4.42337e-15
1.88141e-16
1.67092e-17
2.02745e-05
3.22913e-16
7.74549e-16
2.33573e-16
7.58555e-08
2.62646e-15
1.80128e-05
3.37591e-16
5.98937e-16
1.28701e-11
1.69344e-15
3.34255e-16
4.37187e-17
2.14403e-14
5.33267e-16
6.78914e-12
1.73478e-05
2.55629e-08
4.29576e-12
2.91901e-11
1.28597e-09
2.41116e-16
7.75376e-14
7.42376e-16
5.09651e-16
1.34731e-15
2.41278e-15
2.39764e-12
6.45744e-16
1.83443e-16
9.15998e-15
3.1411e-11
5.60742e-11
4.48469e-15
2.69629e-11
1.22102e-14
1.00914e-10
4.7293e-10
3.75496e-15
1.48788e-15
1.39945e-09
2.55961e-16
3.31027e-16
6.28995e-17
1.49564e-15
3.52291e-07
9.61784e-16
7.84854e-15
1.14501e-15
6.57549e-16
5.0298e-15
1.04286e-16
2.25897e-10
2.4063e-16
2.93538e-10
9.72745e-16
2.66456e-16
4.13808e-10
4.97077e-16
3.41492e-15
9.88397e-10
1.57839e-15
2.97521e-05
7.52305e-16
2.19126e-16
1.67294e-16
5.78645e-15
5.01897e-16
1.33028e-16
2.00234e-15
2.39144e-10
1.99858e-15
1.5417e-09
6.94497e-16
9.74272e-16
1.21486e-16
4.08251e-15
1.11449e-15
7.96571e-16
1.78789e-16
2.26338e-15
4.95667e-10
2.07853e-15
4.68125e-16
4.47534e-15
7.4563e-16
1.0714e-09
3.11648e-10
7.4899e-16
8.84415e-09
1.0385e-08
7.03246e-15
3.94595e-16
1.62407e-08
2.12804e-14
1.27471e-15
2.31786e-12
1.79687e-15
6.25469e-11
6.8027e-15
4.82312e-15
4.26113e-15
2.21728e-16
2.07684e-09
6.3309e-16
8.07837e-12
7.7878e-16
2.9563e-17
8.69715e-14
6.89438e-16
1.00202e-15
6.22705e-09
6.5841e-16
1.7865e-16
1.95941e-15
3.38443e-08
2.93986e-07
8.86003e-16
1.3763e-17
8.25469e-17
6.26373e-16
6.73435e-06
4.9197e-16
3.85089e-16
1.92964e-15
5.08941e-15
4.4168e-16
8.13403e-11
5.74711e-15
6.52636e-15
5.52057e-15
0.0027602
1.87247e-15
1.52306e-15
1.29156e-15
1.05243e-07
1.73003e-16
2.61798e-15
5.03665e-15
1.86981e-15
1.00575e-15
1.11992e-15
3.57299e-15
4.04233e-16
3.03135e-15
4.24116e-15
6.5115e-16
1.93283e-15
1.33734e-15
1.24159e-15
3.67078e-15
6.74265e-16
1.23529e-07
2.79577e-16
8.25439e-16
1.11296e-15
2.05949e-15
1.39297e-05
1.13286e-17
9.89963e-16
7.883e-16
6.23424e-17
1.50097e-14
7.75003e-05
6.97124e-15
5.84972e-07
8.38146e-16
3.4806e-16
4.18481e-15
8.72846e-16
1.11176e-15
7.09976e-16
3.29639e-16
6.67109e-16
7.64411e-16
2.42771e-15
1.66293e-16
1.05198e-16
2.99949e-06
5.66145e-16
6.52105e-16
7.81847e-16
2.09606e-15
7.68625e-16
1.29886e-08
9.45443e-16
1.15765e-15
5.9361e-16
4.83148e-16
2.32101e-15
2.04091e-16
1.62093e-06
1.48876e-15
1.667e-17
1.86111e-15
6.79142e-17
1.0615e-15
1.31153e-15
9.03348e-05
1.21543e-14
1.37905e-16
1.50943e-14
1.26648e-15
5.17586e-16
9.07453e-16
8.43998e-10
1.59473e-15
5.35214e-16
1.75128e-15
1.85668e-16
2.15407e-15
1.84557e-07
2.78179e-16
4.99266e-16
7.33613e-16
1.18306e-15
2.17341e-15
1.04666e-16
2.65043e-16
1.71297e-16
3.15927e-15
4.18199e-16
1.94289e-16
3.75211e-15
6.42055e-16
5.38884e-14
4.77959e-17
1.1086e-16
6.89408e-16
6.07606e-16
9.41826e-15
9.45034e-16
6.1428e-15
7.32759e-15
2.73398e-15
8.68695e-16
5.98247e-16
1.1076e-16
7.12666e-15
4.95444e-16
1.61001e-15
7.76049e-16
2.71041e-17
2.45662e-15
2.37451e-14
2.31745e-15
4.6133e-15
8.42546e-09
1.02877e-14
5.83031e-11
7.75806e-12
4.01792e-15
4.34408e-15
2.16227e-16
4.36332e-16
1.52432e-15
5.65935e-07
5.95546e-15
4.92035e-16
3.68093e-16
1.04546e-12
6.9632e-16
4.5679e-17
1.70965e-17
3.20324e-15
6.41665e-16
3.72344e-16
1.80684e-16
1.53897e-16
3.29964e-16
3.86722e-16
6.84913e-15
4.36702e-16
1.10332e-15
2.24162e-16
5.19407e-16
3.61753e-17
2.87275e-16
2.2009e-16
1.93202e-15
4.16224e-17
2.83033e-16
3.94309e-16
1.2904e-16
3.96863e-16
7.81787e-17
5.35651e-17
1.61778e-16
3.37379e-16
4.0916e-16
8.32042e-17
8.65576e-16
3.16261e-17
9.58776e-16
3.95637e-15
6.08026e-16
2.36351e-16
8.68788e-16
3.74357e-15
4.36576e-15
4.69166e-15
0.000380931
3.67346e-15
1.35729e-17
5.20641e-15
4.48439e-13
2.87092e-17
1.10693e-05
1.95593e-15
1.18068e-16
1.11015e-06
1.38527e-06
1.25426e-15
4.08785e-13
2.28917e-15
3.83358e-15
4.88998e-15
7.45499e-15
6.18787e-15
2.44872e-16
2.653e-17
8.11156e-16
8.54924e-15
7.55827e-17
3.32383e-15
2.706e-15
5.00981e-15
5.14194e-16
3.13052e-15
5.00073e-15
5.5151e-16
1.27648e-14
3.02452e-15
5.9741e-15
8.0523e-16
1.08266e-15
2.79267e-16
3.54516e-16
1.26844e-15
1.99029e-15
1.58434e-15
1.52628e-15
8.72886e-16
5.56549e-16
8.04056e-17
3.58328e-17
1.77368e-16
2.92969e-17
1.27871e-16
3.02953e-16
7.14096e-16
3.94962e-15
6.53554e-16
1.90869e-05
1.47568e-15
1.63671e-15
2.35336e-16
2.52291e-15
7.98248e-16
3.08211e-08
1.58555e-16
9.89266e-17
6.08751e-16
5.79202e-16
6.45283e-16
4.67103e-17
3.45602e-16
1.09232e-15
7.9333e-16
5.6778e-15
2.67528e-16
8.00841e-16
1.4976e-15
4.37665e-11
3.58458e-16
7.42005e-15
2.24093e-15
3.79172e-16
1.36035e-05
0.000995927
3.33302e-16
3.47451e-15
1.22096e-15
1.50312e-08
1.36639e-14
8.70059e-16
9.14886e-16
2.34071e-05
4.6426e-15
1.07963e-10
1.07451e-09
1.02816e-15
5.66153e-16
2.85845e-17
1.96466e-17
6.781e-16
1.64944e-16
4.93989e-16
2.05817e-15
7.03416e-17
1.2295e-15
2.99673e-16
7.20155e-16
3.80927e-17
1.9498e-16
5.12929e-16
0.000949965
8.33322e-17
1.67327e-16
7.23205e-09
2.17331e-16
3.18146e-07
1.18108e-15
1.44707e-15
4.49859e-16
5.4483e-16
6.28798e-16
9.29174e-16
1.8754e-15
5.78579e-16
2.16745e-15
3.07138e-08
3.82915e-17
3.6315e-17
1.09998e-11
1.10005e-13
2.10337e-15
6.59649e-16
9.02763e-15
8.61549e-05
6.99127e-15
3.51881e-15
6.19224e-16
3.98473e-11
4.70376e-15
5.89902e-16
8.0691e-16
1.5756e-15
1.06825e-15
3.51431e-15
1.47311e-16
7.56618e-16
2.39324e-15
8.2147e-11
4.31958e-16
3.11754e-15
3.88026e-16
6.8807e-13
2.54753e-15
6.04494e-11
1.03796e-15
3.27533e-16
1.71088e-15
7.84393e-17
5.09637e-16
1.87e-15
6.68884e-17
1.81566e-08
1.16367e-07
3.921e-13
5.55269e-05
1.7772e-15
1.06905e-12
2.96209e-15
3.66597e-16
5.13572e-16
9.50988e-17
4.12417e-08
3.72714e-06
2.00938e-16
0.00121403
3.21925e-15
0.00017642
2.48323e-11
3.82106e-06
2.0884e-16
4.74595e-15
7.09298e-16
3.24992e-14
7.51214e-15
1.18e-07
1.30646e-16
1.99807e-16
1.76419e-16
1.41223e-16
4.16984e-16
5.71517e-16
1.88459e-05
2.86225e-15
2.74858e-15
6.59342e-15
1.54466e-15
7.89528e-15
3.71313e-10
8.75406e-17
1.06105e-15
4.61082e-16
1.425e-15
4.2721e-15
2.94576e-05
3.7886e-16
7.12777e-16
3.75711e-15
1.94475e-15
1.32292e-15
3.61325e-15
6.49005e-15
3.33724e-15
1.5381e-05
2.36014e-16
1.06765e-15
2.72823e-16
6.40134e-15
2.49778e-15
3.24883e-15
6.06581e-06
2.69176e-15
4.0838e-15
1.83991e-16
2.34646e-15
8.4339e-16
4.91051e-17
1.57962e-15
1.47959e-15
9.79987e-16
6.20658e-16
2.97816e-16
3.6318e-15
2.58043e-16
2.45887e-15
3.26873e-15
3.38908e-15
2.31609e-15
2.89415e-15
3.2488e-15
7.42159e-16
7.15926e-06
6.76478e-15
3.0545e-15
3.75551e-11
1.17715e-05
4.90134e-16
1.81736e-15
1.27951e-15
6.22604e-16
2.3153e-15
2.32037e-10
1.6581e-15
4.50081e-16
1.09532e-15
1.96926e-15
2.59689e-15
2.74818e-09
1.03787e-15
1.41989e-15
1.25747e-07
4.62445e-15
4.10916e-15
7.70407e-16
4.24515e-15
2.33679e-16
7.53259e-08
2.86149e-17
3.09459e-07
3.87091e-16
3.96198e-16
5.66609e-16
2.28521e-15
2.89539e-15
3.17353e-16
3.10193e-16
4.20499e-10
1.63045e-15
4.38883e-16
2.77168e-15
4.90136e-16
6.61864e-16
2.72965e-16
5.24536e-16
4.44535e-16
1.08698e-15
9.1953e-15
1.59199e-15
5.23865e-16
2.76002e-15
6.05331e-16
1.55884e-10
2.00678e-15
1.91767e-15
3.213e-15
5.64983e-17
4.01874e-15
4.46956e-10
5.42353e-15
5.44314e-09
7.43763e-16
5.85673e-16
1.06616e-15
1.15632e-16
9.42756e-16
6.02354e-17
4.10309e-16
1.07879e-15
1.98826e-16
1.61119e-15
5.8407e-16
4.04805e-06
8.93005e-17
5.70658e-16
4.32865e-15
1.34398e-16
1.60631e-16
3.30848e-16
5.55544e-15
1.45997e-15
3.78355e-16
3.68104e-16
9.69551e-17
3.1192e-16
7.45741e-16
2.4915e-16
3.54296e-07
5.62095e-15
4.33953e-13
1.20034e-15
2.20241e-15
1.52609e-08
6.50127e-15
3.40915e-16
8.58762e-17
6.87834e-16
1.18781e-16
2.38754e-12
6.25468e-16
4.53665e-15
1.93697e-16
6.63544e-15
3.30047e-15
2.86213e-10
1.04679e-14
3.98749e-15
2.83264e-15
5.29008e-08
1.36449e-11
6.5665e-08
4.79852e-11
8.39479e-16
1.49197e-13
6.97046e-06
1.36726e-15
9.14839e-13
4.09423e-10
3.34465e-10
6.36734e-17
1.34827e-13
5.68016e-10
4.24594e-14
1.54762e-07
1.33957e-15
1.35695e-15
8.69987e-16
2.59195e-14
6.13698e-12
3.98198e-16
3.80787e-16
5.11265e-15
1.25948e-15
6.76933e-15
1.33237e-15
5.75514e-17
2.4589e-09
4.595e-15
1.45019e-15
6.55863e-16
8.65603e-16
3.21429e-15
1.63392e-06
4.71766e-05
3.03792e-16
5.03885e-14
2.77798e-15
1.63826e-15
4.84628e-07
4.53926e-15
3.20937e-17
1.94516e-15
9.74128e-17
1.07652e-05
8.08341e-16
2.9219e-15
1.54083e-16
1.07505e-08
4.6425e-16
2.64033e-15
1.10415e-14
5.16961e-16
4.18664e-15
9.74855e-16
3.3476e-15
0.000313797
1.58435e-14
4.91382e-15
4.1351e-15
2.03558e-16
3.53473e-15
1.53981e-16
1.40065e-15
5.30338e-15
2.48293e-15
9.58797e-11
6.88625e-16
8.84731e-17
2.7912e-15
3.99157e-15
3.69884e-15
6.15194e-16
1.17552e-12
1.05549e-16
3.93805e-13
5.32426e-16
3.87827e-15
4.2723e-17
4.21007e-17
6.75676e-15
3.12022e-15
1.58196e-16
5.07775e-15
5.828e-16
4.61929e-17
3.44435e-15
7.69569e-16
7.86902e-15
7.8285e-16
1.11217e-15
1.22081e-14
1.8811e-15
2.67324e-15
1.64674e-15
2.03696e-16
0.000278638
1.35478e-15
3.26126e-15
1.39616e-16
4.52217e-15
2.54132e-15
1.69777e-15
2.06924e-15
1.41365e-15
1.47217e-15
1.26859e-16
6.66786e-16
1.82138e-15
1.42563e-16
4.5371e-15
7.66431e-16
4.2001e-16
1.28433e-15
4.50558e-16
3.95172e-16
1.12199e-11
5.09136e-17
4.56385e-13
7.35536e-13
1.29277e-15
2.96997e-17
8.08317e-16
2.52045e-15
1.09628e-15
3.63655e-15
1.07191e-14
1.40963e-15
2.95727e-16
2.61471e-15
4.46958e-16
6.33343e-16
3.44168e-16
9.18348e-16
1.07703e-13
1.42933e-15
9.38699e-16
1.97405e-15
3.04334e-15
8.42136e-05
7.65932e-17
2.44125e-16
2.52862e-15
4.38143e-15
9.7108e-17
2.24865e-15
2.57596e-15
4.13086e-16
1.08663e-15
2.82127e-15
1.7409e-15
7.33501e-15
1.03271e-15
2.82802e-15
3.08711e-15
1.92189e-15
5.3094e-16
1.29148e-15
2.18878e-15
3.18832e-15
2.62035e-15
3.62637e-15
1.15102e-15
2.72858e-07
2.08867e-15
5.47779e-16
1.50565e-16
6.43212e-16
7.99291e-16
3.61583e-16
6.74984e-15
2.47126e-15
3.35451e-15
5.88047e-16
5.69121e-16
2.5497e-15
1.08204e-15
8.9498e-16
1.09965e-15
8.58178e-16
2.28667e-15
6.16238e-15
2.49622e-15
3.85787e-15
9.38697e-17
6.19283e-16
4.12477e-17
3.86021e-15
1.85077e-16
2.42753e-15
3.24235e-15
1.55577e-16
3.54856e-15
2.86448e-16
5.40399e-16
1.02684e-15
5.03357e-16
1.92874e-16
9.88468e-15
1.92742e-15
4.93441e-16
3.21092e-15
3.63502e-14
0.000473332
1.47449e-15
4.03252e-16
8.20613e-17
1.01743e-15
8.33461e-16
8.60903e-16
9.00231e-16
1.86774e-15
1.10791e-15
1.30734e-10
4.77584e-16
1.23605e-15
1.77719e-10
1.546e-16
9.78744e-16
5.71518e-17
4.39837e-15
0.000202267
6.95762e-16
3.72034e-17
8.64102e-16
1.07915e-15
9.83297e-15
1.61316e-15
3.09728e-15
4.04578e-16
4.97139e-15
2.45033e-05
3.78156e-16
7.8207e-16
1.66531e-16
1.01229e-15
2.64513e-15
1.14103e-15
5.9926e-06
5.55354e-16
7.21821e-16
4.52844e-16
2.39645e-15
3.3677e-13
4.79902e-16
4.09668e-16
2.71524e-16
8.4551e-15
2.13121e-16
2.11782e-15
2.922e-16
6.77211e-17
7.77309e-16
3.82567e-15
5.78655e-15
8.52968e-16
5.114e-16
4.64821e-15
2.27125e-15
1.33612e-14
2.12804e-15
1.63272e-16
2.55064e-15
9.90157e-16
2.88643e-16
1.68616e-12
7.59094e-16
3.75366e-16
3.34677e-16
2.42372e-17
1.93459e-15
1.19392e-13
7.67567e-14
4.05206e-07
2.52751e-17
3.6849e-10
3.21609e-11
1.01386e-15
4.18823e-15
5.69942e-16
9.15199e-16
1.26112e-15
2.1664e-15
5.9477e-15
1.25007e-16
4.07768e-17
1.5053e-16
0.00193826
1.09846e-16
1.3356e-15
5.44e-15
7.07609e-10
7.45924e-14
0.00071926
6.78515e-16
2.38946e-15
2.55328e-15
1.12782e-14
5.71611e-15
2.42754e-15
1.2218e-15
4.71981e-16
3.39525e-15
2.97296e-09
3.0166e-15
0.000433307
4.06991e-16
9.12244e-16
4.65386e-15
1.02288e-15
2.20193e-16
1.70715e-09
1.08351e-15
7.65858e-16
4.49138e-15
4.84042e-16
3.47502e-16
3.26062e-16
3.9707e-15
1.36592e-15
7.60567e-16
2.93066e-16
2.4037e-15
6.42552e-15
4.10325e-15
1.03211e-15
1.70031e-16
9.55255e-17
3.81394e-16
4.73318e-15
4.80256e-16
5.64771e-16
3.31164e-16
4.31728e-16
4.72489e-09
6.4211e-16
8.03984e-16
9.45565e-15
9.30712e-16
1.55262e-06
6.53043e-16
1.26135e-15
4.15808e-16
1.37064e-14
3.88852e-16
3.19953e-14
2.03807e-15
2.24017e-15
6.45531e-17
8.42362e-17
7.72011e-15
3.4957e-15
1.2459e-05
1.26721e-16
6.83111e-16
5.50673e-13
3.65246e-16
1.05696e-16
1.78264e-15
2.023e-08
7.37805e-05
5.30364e-15
2.50664e-15
6.34938e-16
3.86523e-15
1.43775e-17
4.43589e-15
6.42972e-16
3.96648e-10
4.91408e-16
4.675e-16
6.31445e-17
1.12987e-16
3.16594e-16
2.36694e-15
1.51475e-15
3.81115e-16
7.70259e-17
3.69874e-16
2.69734e-15
1.04075e-05
1.74297e-15
1.86813e-15
6.351e-13
4.49441e-15
1.75731e-15
2.29237e-07
2.16343e-16
1.13403e-11
9.31856e-15
2.43124e-10
9.75394e-17
3.25375e-15
2.95094e-16
1.18723e-10
3.42676e-15
2.00829e-16
2.00217e-15
2.1425e-16
2.01487e-15
0.000610362
5.44725e-15
2.41533e-16
7.39856e-16
7.1196e-15
5.28568e-15
1.38575e-08
1.4069e-15
9.46594e-07
7.9063e-17
2.2981e-10
1.03493e-05
5.7292e-16
7.70105e-15
6.89258e-17
5.73312e-17
9.02696e-16
1.22673e-16
1.39978e-06
4.21113e-16
1.1396e-14
2.20517e-15
2.25004e-16
2.16297e-15
9.35068e-16
1.06506e-08
1.43324e-15
0.000102748
0.00015698
0.000529341
3.39782e-16
0.000178434
0.000973091
0.00114628
0.000678553
3.81615e-16
5.6278e-17
6.80223e-16
2.90898e-15
1.27207e-16
1.30699e-05
1.98542e-16
7.10744e-18
1.66439e-14
1.08716e-15
2.79044e-07
6.9007e-16
2.43368e-15
4.23289e-16
2.57447e-07
6.89384e-16
4.59378e-16
3.41593e-06
1.53054e-12
2.44273e-16
6.2241e-09
6.21525e-16
1.78557e-15
3.16797e-15
2.03272e-15
1.57856e-15
2.18629e-17
4.64963e-07
5.50315e-15
1.70986e-15
1.45816e-07
4.84569e-15
6.28324e-14
2.23032e-07
2.92828e-16
8.28874e-16
8.64529e-13
1.45159e-15
7.92866e-17
5.83228e-11
1.20053e-16
5.47107e-16
3.805e-15
3.79993e-09
3.80196e-09
9.61417e-16
1.72672e-15
7.36514e-11
5.87642e-15
1.65019e-15
1.03471e-15
7.92797e-16
9.43794e-05
2.61504e-15
7.66522e-16
1.22657e-16
2.90258e-10
1.67129e-07
5.95248e-15
1.63836e-05
3.21519e-16
4.37604e-05
1.53488e-15
1.14572e-07
5.17564e-08
8.57254e-16
7.16331e-17
4.7958e-16
9.47498e-09
6.21521e-16
3.05834e-15
5.4885e-15
7.68136e-15
5.94411e-17
2.48182e-15
6.38947e-16
3.96802e-15
2.11163e-05
6.56229e-15
2.62036e-11
5.22136e-06
3.98786e-15
1.37974e-16
6.5727e-16
1.76214e-15
6.32776e-15
2.63361e-16
1.38538e-15
2.34073e-15
4.7793e-17
1.91832e-16
2.04419e-15
6.09809e-17
6.34872e-14
1.20866e-15
4.98539e-16
9.50826e-16
7.66902e-05
5.33173e-16
1.42772e-15
5.1604e-15
8.93905e-14
3.73117e-15
8.46533e-16
1.37473e-15
1.09119e-16
5.32914e-17
4.82354e-12
1.28468e-16
6.18115e-15
1.04403e-15
2.0598e-05
8.07304e-16
3.23233e-15
5.02387e-15
2.64993e-16
4.56535e-11
2.17786e-15
3.87317e-17
1.78447e-16
3.62493e-17
7.2056e-16
7.8319e-11
4.45824e-16
2.22564e-15
7.77792e-16
1.18917e-15
1.96252e-15
8.12867e-16
7.29797e-15
1.14559e-15
6.23876e-16
3.90466e-16
1.73848e-15
2.1189e-05
5.13221e-15
4.21332e-15
5.05115e-16
5.7305e-15
2.77133e-07
1.25434e-16
1.23695e-15
9.4431e-15
3.95261e-15
1.34906e-15
1.68232e-14
1.42715e-05
3.19574e-15
1.55792e-16
1.99033e-15
5.9152e-15
5.52381e-15
1.00577e-16
4.78967e-14
4.55451e-15
1.01334e-05
1.19202e-10
3.37184e-15
1.87747e-15
6.64971e-12
3.21954e-16
1.37055e-11
4.05814e-16
1.32091e-15
3.25678e-15
4.48122e-15
1.0086e-15
4.52157e-15
1.18486e-14
6.3197e-16
0.00030472
2.00211e-15
4.44958e-16
8.28313e-16
8.85944e-17
9.97743e-16
1.5302e-15
2.34899e-15
1.91128e-15
4.0219e-16
9.57444e-16
6.93561e-16
7.04447e-06
6.65928e-15
1.64022e-15
7.23799e-16
1.83112e-15
5.20685e-16
6.09636e-15
9.69179e-16
1.239e-15
1.57986e-16
1.10229e-16
1.248e-15
2.03076e-15
5.14652e-15
1.09317e-15
5.9512e-15
3.3368e-15
3.11716e-16
4.9047e-16
5.55668e-16
8.24963e-16
3.80644e-15
4.32227e-15
3.08187e-05
1.04195e-15
1.05232e-15
1.41948e-15
4.44411e-15
1.05703e-15
7.79757e-15
2.29986e-15
1.29465e-15
9.80473e-16
2.5863e-06
1.19311e-15
8.74636e-15
2.00843e-15
3.36994e-15
4.38467e-15
4.06092e-16
6.69453e-09
1.81987e-17
1.78428e-15
9.42785e-16
2.63261e-16
1.45511e-15
5.93106e-16
3.887e-15
2.80693e-16
6.27526e-17
4.64563e-15
2.33964e-15
9.57603e-16
0.000170174
4.70794e-15
5.22166e-06
1.48355e-16
1.06928e-14
2.5924e-15
6.83745e-16
9.00027e-16
3.10217e-16
1.33943e-08
9.11622e-16
2.18604e-15
6.6379e-15
7.14499e-17
3.52966e-15
2.98585e-16
7.01272e-16
4.9559e-16
2.88948e-16
8.18703e-16
4.8636e-16
1.89148e-05
5.89698e-15
3.99195e-16
2.94503e-15
2.72069e-16
2.44576e-16
4.05415e-07
1.93503e-15
3.13797e-10
4.5883e-15
2.7365e-16
2.21375e-16
1.10877e-14
1.68019e-16
1.29468e-15
8.21678e-15
3.51786e-14
1.02523e-15
1.7404e-16
1.86088e-15
4.16922e-15
5.92971e-16
4.77037e-15
5.11186e-15
1.61715e-15
1.34888e-15
1.51602e-06
8.88091e-16
1.86396e-16
1.0266e-12
5.51819e-15
6.67724e-16
0.0010644
2.1703e-16
3.268e-16
4.87114e-15
1.4743e-05
6.53317e-17
4.65626e-15
1.07467e-16
4.60368e-16
4.26157e-15
1.18195e-15
2.85149e-05
8.21259e-17
4.09904e-15
3.98653e-15
5.93598e-17
8.39764e-10
6.41694e-16
1.45296e-08
3.79678e-16
1.76312e-16
1.24651e-16
9.92671e-16
2.16234e-16
3.25252e-05
8.49167e-05
3.00204e-16
3.76042e-15
6.62675e-16
4.68998e-15
1.94543e-05
4.61126e-15
5.58534e-06
5.6406e-05
4.30689e-17
2.14793e-17
4.1485e-15
1.15561e-06
6.36176e-17
8.73733e-16
5.30147e-06
1.34969e-14
2.95558e-15
6.00937e-16
1.06395e-10
6.58672e-15
4.48334e-09
3.68418e-15
6.11659e-16
1.90355e-16
9.96012e-16
1.15146e-08
3.25653e-15
1.74773e-17
4.2636e-07
1.17659e-15
2.82466e-08
2.06473e-15
9.422e-17
2.51918e-15
1.01658e-15
3.59353e-16
9.15491e-17
4.03928e-16
1.1598e-15
0.000424255
1.4141e-16
4.8727e-16
4.47885e-16
2.60363e-16
5.1898e-16
1.67894e-15
0.000789085
7.01149e-06
2.01684e-09
3.08013e-16
1.88658e-15
1.00661e-16
4.20327e-15
2.19747e-15
2.29001e-15
1.74126e-16
8.14213e-17
7.24608e-15
1.19781e-15
2.38035e-16
4.08738e-17
3.88285e-16
1.30294e-15
1.29009e-07
1.42906e-09
2.17104e-16
1.03225e-15
1.42332e-14
2.151e-15
5.20098e-16
3.20474e-07
1.96087e-15
1.73024e-16
6.98707e-15
2.40064e-16
2.06295e-14
2.87838e-16
1.87919e-14
6.50726e-16
2.7391e-15
1.42324e-16
7.54615e-16
3.51517e-16
2.50735e-16
1.38549e-06
2.78203e-06
1.60876e-15