/*--------------------------------*- C++ -*----------------------------------*\
  =========                 |
  \\      /  F ield         | OpenFOAM: The Open Source CFD Toolbox
   \\    /   O peration     | Website:  https://openfoam.org
    \\  /    A nd           | Version:  10
     \\/     M anipulation  |
\*---------------------------------------------------------------------------*/
FoamFile
{
    format      ascii;
    class       volVectorField;
    location    "2.4";
    object      U;
}
// * * * * * * * * * * * * * * * * * * * * * * * * * * * * * * * * * * * * * //

dimensions      [0 1 -1 0 0 0 0];

internalField   nonuniform List<vector> 
111485
(
(2.03314 -2.03257 0.00183454)
(5.71547 -0.00618177 -0.014604)
(5.70811 0.00961461 0.0138556)
(2.03203 -2.03513 -0.000189261)
(5.83171 0.0117761 0.00267271)
(2.04569 2.04227 0.00118841)
(5.7732 0.00792003 0.00511082)
(5.78715 0.000433626 0.00536749)
(5.80987 -0.000139664 0.00310778)
(5.87755 -0.0277865 -0.00885757)
(5.74932 0.00548364 0.0101402)
(5.91613 0.00321665 0.0138772)
(5.74059 0.00678235 0.0092358)
(5.67902 -0.0101575 -0.0168872)
(5.75229 0.00981176 0.00931381)
(5.74697 0.00349924 -0.0158409)
(5.72422 0.00635009 0.00862272)
(2.04661 -0.173275 0.344304)
(5.8305 0.00475469 -0.00212505)
(2.01711 -2.01391 -0.00108882)
(2.01823 -2.01575 0.000881035)
(2.0474 2.04791 0.00196975)
(5.80254 0.00753541 -3.22458e-05)
(5.79636 -0.0188619 -0.00476231)
(5.77615 0.0328501 -0.0154545)
(2.04532 -2.0414 -0.00297302)
(5.94892 -0.00337933 0.018833)
(5.75646 -0.000584648 -0.00334427)
(5.85569 -0.00510239 -0.0052228)
(2.0269 -2.02804 0.00451549)
(5.99418 0.111985 -0.0319516)
(5.74755 -0.000678898 0.00140527)
(2.01802 -2.01888 0.001686)
(2.05004 2.04878 -0.0026911)
(2.07914 0.829692 0.344422)
(2.05703 2.07252 -0.0337996)
(5.96936 0.108203 -0.045252)
(5.73528 -0.00126905 0.0401873)
(5.94951 1.78288 0.107179)
(5.7968 0.0112868 0.00898379)
(2.02042 2.04049 -0.0272369)
(5.93826 0.00589745 -0.0275075)
(5.79056 0.0165811 0.00750879)
(5.76245 -0.0190144 -0.0136655)
(6.00417 -0.112017 -0.0566807)
(2.04656 -2.03126 0.00413649)
(5.94796 -0.0147813 0.0272907)
(5.79543 -0.0132434 -0.00226601)
(5.93433 -0.00068921 -0.0244514)
(2.02215 -2.00111 0.00664349)
(2.02111 -2.00285 0.0112981)
(2.33644 1.9551 0.0350242)
(2.00665 -1.99843 0.0075925)
(5.96627 0.0183131 -0.0401691)
(2.00069 -1.9933 0.00346393)
(5.77104 0.000968172 -0.0037315)
(5.79446 -0.0113637 -0.000162198)
(2.04479 2.04755 0.00364979)
(5.41721 -0.0120003 -0.0691189)
(5.8184 0.0109263 0.000482733)
(5.81768 0.0128046 0.00119892)
(2.02573 -2.03097 0.00197723)
(5.67799 -0.00521955 0.00453411)
(6.01007 0.00666892 0.0343197)
(2.11517 1.914 0.00575639)
(5.75804 -0.0031392 0.000962162)
(4.21907 -0.397717 0.122654)
(5.81184 0.0021715 0.00128459)
(5.69316 4.25416e-05 -0.00167866)
(5.6748 0.00172463 -0.00931094)
(5.78979 0.0540154 -0.0491888)
(5.73404 0.00260331 0.00346978)
(2.18154 -1.97577 -0.0409841)
(5.67038 -0.00819368 0.0106714)
(2.02622 -2.03001 -0.00187737)
(5.76448 0.000170262 0.00481872)
(2.04682 2.04565 -0.00374563)
(5.93533 -0.00826505 0.0138289)
(2.04404 2.04861 0.00113066)
(1.83998 1.78221 -0.0637104)
(5.78313 -0.0852586 0.0567074)
(5.90756 0.0304228 0.00849747)
(2.03964 2.03982 -0.00177341)
(2.03025 -2.03033 0.000469613)
(5.75777 0.00223996 0.000521532)
(5.65768 0.000280789 0.00272641)
(4.62101 2.98631 -0.803577)
(5.88953 0.0483079 0.0051973)
(5.6974 0.14375 0.12146)
(5.74491 -0.00634614 0.00106196)
(6.09885 0.0898196 -0.0736075)
(5.84477 -0.00155221 0.00153364)
(5.75028 0.00191385 -0.00418249)
(5.72745 0.00450944 0.000973307)
(5.94387 0.00541748 -0.0219443)
(2.02938 -2.02875 -0.000348592)
(2.02041 -2.02368 0.00265135)
(5.88695 0.0490798 0.0166766)
(6.13969 -1.23062 0.0800362)
(5.6492 0.00384429 0.0365757)
(2.03016 -2.0301 0.00533583)
(5.87427 -0.0134584 0.00100317)
(2.0568 2.06341 0.0101906)
(5.85591 -0.00407358 -0.00326511)
(5.7182 -0.00312622 -0.0103691)
(2.0086 1.78339 -0.0439694)
(2.04901 2.0474 -0.000955305)
(5.74147 -0.00363324 -0.00117416)
(5.71185 -0.00755121 -0.00578021)
(5.29288 -0.15155 -0.153169)
(5.7774 0.00271156 0.00204442)
(5.74435 0.00290053 0.00226601)
(5.67082 -0.00615054 0.00836848)
(5.61816 -0.0139862 0.0030147)
(2.04976 -2.03999 0.0012625)
(5.73843 0.000968608 0.000920643)
(2.03785 -2.03236 -0.00247692)
(2.05591 2.04761 0.00928411)
(5.73429 0.00403023 0.00701813)
(2.03377 -2.03512 -0.000481084)
(2.04553 -2.03967 -0.00221276)
(2.71388 2.1228 0.132152)
(2.02117 2.03553 -0.00473323)
(2.05137 2.04606 -0.00543627)
(5.68812 -0.0152181 0.0243766)
(1.63412 -1.1816 -0.29192)
(2.58744 2.21484 0.0810338)
(5.73924 -0.00154965 0.00120472)
(2.03255 -2.02969 -0.00364969)
(5.97535 0.408366 -0.16802)
(5.94225 0.129313 -0.0719961)
(5.87451 0.0493808 0.0173491)
(2.0189 -2.00832 -0.00809808)
(2.65128 2.30054 0.244864)
(2.47145 2.20217 0.105657)
(5.82442 0.00324491 -0.00411102)
(2.0521 2.04877 -0.00185639)
(5.7444 0.000259879 -0.00229908)
(5.75337 0.00941629 0.00464084)
(5.71286 0.00489719 0.00126209)
(4.98248 -0.00213892 0.00773397)
(5.76258 0.00827338 0.00281537)
(5.74086 0.00839883 0.00602742)
(5.69369 -0.00422376 -0.00360034)
(5.85558 0.00604931 -0.00615154)
(5.7517 -0.0117558 -0.0038531)
(2.04939 2.052 -0.0010937)
(2.03011 -2.03303 0.00223529)
(2.04235 2.0443 0.00430871)
(5.79278 0.00938814 0.0055815)
(5.70491 -0.00198459 -0.00317704)
(2.01991 -2.01885 -0.000804212)
(4.07052 -0.00718334 0.0330054)
(5.76346 0.013413 0.0171119)
(6.33703 0.233807 0.11764)
(5.81911 0.00544488 -0.002945)
(5.80025 0.0028376 0.00245837)
(5.65998 0.0158803 -0.00193981)
(6.38157 0.292663 0.0791032)
(2.02019 -2.0374 0.00933681)
(2.02804 -2.03088 -0.000397581)
(5.81866 0.00216393 -0.00345542)
(5.77312 -0.0110922 -0.00721646)
(6.42289 0.336155 0.0876455)
(6.33264 0.296622 0.121494)
(5.72278 -0.00736631 -0.000474791)
(5.93289 0.0487984 -0.0163083)
(2.01982 2.03836 0.000588814)
(6.50297 0.414477 0.104124)
(6.19336 0.289155 0.105452)
(2.04688 2.04433 0.0043931)
(2.02631 -2.02513 0.00158405)
(5.27437 0.0122725 -0.0140763)
(2.04932 2.05016 0.0018104)
(5.77468 -0.00100862 -0.0022545)
(5.78194 0.00239685 -0.00146938)
(2.04695 1.99801 -0.0129526)
(2.1852 -2.01262 0.0199277)
(2.02248 -2.01396 -0.00378028)
(2.01696 1.89336 -0.0217803)
(2.19825 -2.03349 0.036958)
(2.02471 -2.03109 0.0020504)
(5.79409 0.00686847 0.00281979)
(5.81941 0.0026435 -0.00254943)
(5.80071 0.00779804 0.000717877)
(5.70143 -0.0383061 0.0195917)
(5.67525 -0.00871825 0.00381373)
(5.75543 0.00148046 -0.00275295)
(5.18478 0.0427805 0.00872556)
(2.02669 -2.01934 0.000356851)
(5.73194 -0.00219078 -0.00991371)
(2.18424 -2.0301 0.0216794)
(2.04532 -2.04511 0.00199684)
(5.75209 0.00103315 -0.00122741)
(5.88132 -0.0369477 -0.00965588)
(5.90069 0.0032192 -0.0253388)
(5.74964 0.000809835 -0.000838193)
(5.77777 0.00347874 0.00286351)
(2.02516 -2.02162 0.00773633)
(5.77479 0.00507671 0.000782824)
(5.69012 -0.0065003 -0.0100693)
(3.94715 1.23291 0.182167)
(5.79908 -0.0353982 -0.00308223)
(5.76884 0.000911393 0.00131252)
(2.03503 -2.02806 -0.00579034)
(5.75315 0.00128124 -0.00268619)
(5.90402 0.00985129 -0.00544337)
(2.21123 -2.00785 0.00551819)
(5.72823 -0.000135734 0.027575)
(5.95347 0.0057823 0.0119252)
(5.69356 -0.0043538 -0.00236948)
(5.73764 0.00361761 -0.00235893)
(2.19832 -2.04169 0.0287066)
(2.0219 -2.02343 -0.0028505)
(5.7338 -0.00133013 -0.00116141)
(3.6825 2.29496 -0.219094)
(6.00854 0.0121214 -0.0460199)
(2.0469 2.04707 -0.00251926)
(5.74385 -0.00493718 0.000264955)
(5.76827 -0.000302011 -0.00308431)
(5.95311 -0.00141519 0.025736)
(2.03308 -2.02894 0.0043381)
(5.76023 0.000704259 -0.00105713)
(5.91969 0.0779198 0.0419212)
(3.24313 2.1578 -0.231883)
(2.04931 2.04792 -0.000146514)
(2.04616 2.04641 0.00354485)
(6.07646 -0.0110897 0.0601412)
(5.70384 0.122764 -0.00311221)
(2.14874 1.81077 -0.0440861)
(2.50917 -1.95319 0.0740075)
(5.76675 -0.00202356 -0.00265798)
(5.77714 0.00030939 0.00143965)
(5.74816 0.00511471 0.00947368)
(2.12182 1.83493 -0.0486584)
(2.13066 -1.97666 -0.0092945)
(5.73801 0.0743206 -0.0884538)
(2.02817 -2.02929 0.00263014)
(5.67747 -0.00607372 -0.00553339)
(5.76761 0.000330865 0.00229502)
(5.76841 -0.000773964 -0.00147079)
(5.76187 -0.000443358 -0.000230302)
(5.76256 -0.00137457 0.000656349)
(2.04014 2.04197 0.00954414)
(4.45294 -0.00532071 -0.144564)
(5.73796 0.00160093 0.000339375)
(2.0357 2.04399 -0.00690962)
(2.0471 2.05281 -0.00062384)
(5.983 -0.0495939 0.00404567)
(5.73458 0.0201143 -0.0018499)
(2.09419 1.7839 -0.0591197)
(5.76685 -0.00296617 0.00181292)
(5.74999 -0.00031891 0.00101079)
(2.0313 -2.03119 -0.00144162)
(2.59943 2.45428 -0.0145656)
(5.90004 0.0652128 -0.0288124)
(2.0398 -2.01648 -0.00147027)
(2.24493 -1.61834 -0.0463741)
(3.05903 -1.09162 -0.100809)
(2.03643 -2.03006 -0.00264888)
(5.76993 -0.000654917 6.87714e-05)
(5.75306 -0.00299947 -0.00204997)
(5.75598 0.00113329 -0.0114532)
(2.02889 -2.02844 -0.00192401)
(5.74823 -0.00711203 -0.0044339)
(2.03531 -2.0353 -0.00332492)
(2.03197 -2.0348 0.0023703)
(2.025 -2.0187 0.00403945)
(4.26256 0.0214096 -0.0513769)
(5.93335 -0.00532308 0.0149983)
(5.72193 0.00733176 0.00147389)
(5.7554 0.00682853 0.000859752)
(5.89481 -0.00993913 -0.00142765)
(5.76165 0.00638476 -0.000591527)
(5.74968 0.00418608 0.00343012)
(5.9741 0.0951414 0.00122178)
(5.77447 0.00215664 -0.00348507)
(5.77196 -0.00272253 0.00151134)
(2.0858 2.05209 0.000111488)
(2.0194 -2.02644 7.28147e-05)
(3.87684 0.0185367 -0.0752453)
(5.77274 0.000382698 0.00213591)
(5.90207 0.0438658 0.0525576)
(5.77126 -0.00056525 -0.0015102)
(2.03135 -2.03266 0.00491338)
(5.73069 0.00369285 0.00261097)
(5.75874 0.0144202 0.00422969)
(5.76392 0.00458974 0.00204852)
(5.42488 0.0116296 -0.0347043)
(5.37979 -0.0572093 -0.116918)
(5.76743 0.00430624 0.00143187)
(5.75983 0.0050702 0.00225906)
(5.87486 0.0526171 -0.0335824)
(2.04561 2.04945 0.00732738)
(5.61144 0.01267 0.0037934)
(2.04765 2.04728 0.000726085)
(1.64781 1.22195 -0.279536)
(2.27527 -1.49543 -0.137739)
(6.12446 -0.0385956 0.0933338)
(5.89753 -0.0110933 -0.00161941)
(5.76366 -0.00980404 0.00452352)
(2.02999 -2.02864 -0.00248596)
(2.03918 2.04961 0.0140566)
(5.73776 -0.000449709 -0.00088566)
(5.74563 0.00134409 -0.00182841)
(2.02391 -2.02213 -0.001661)
(2.03126 -2.03019 0.00592019)
(1.98859 -1.99822 0.0103643)
(5.72998 -0.000534666 0.000723524)
(5.76928 -0.00519885 -0.00246157)
(5.7214 0.00358324 0.00804083)
(5.70041 -0.00239197 -0.00123348)
(5.83881 0.00968611 -0.00478253)
(2.3549 2.01305 0.0537326)
(2.04417 2.04831 0.00288245)
(2.02992 -2.02683 0.000137066)
(5.74092 0.00116056 0.00424078)
(3.84914 -3.26476 -0.233726)
(5.67945 -0.00952595 0.0115162)
(6.07893 -0.0227932 0.125936)
(5.00034 0.00427398 -0.0789329)
(2.04565 2.05373 0.000956914)
(2.03094 -2.03091 0.00102551)
(2.02931 -2.03016 -0.000845366)
(2.59451 2.16773 0.141945)
(5.74633 -0.00216028 0.00140665)
(5.85187 -0.010995 0.00626787)
(2.05069 2.05686 0.000693022)
(5.77159 -0.000233447 -0.00296005)
(2.16524 1.73451 0.129105)
(2.03345 -2.003 0.0030759)
(6.01064 -0.00216568 0.0368488)
(5.7585 -0.000908974 0.000394435)
(5.90189 0.00491761 0.012546)
(5.77203 0.00130761 -0.00534883)
(1.97124 1.73571 0.11208)
(2.57093 2.20388 0.149458)
(2.04489 2.04576 -0.00454865)
(5.76345 -0.000269718 0.00423635)
(5.76717 0.00588769 0.00304889)
(5.98448 0.122141 -0.0460849)
(2.02614 2.01483 0.00324203)
(4.09575 3.62375 -0.875674)
(5.65305 0.0378502 0.0576433)
(5.86634 -0.00389641 0.00653491)
(5.73793 0.00585753 0.00503829)
(5.60282 0.546633 -0.043908)
(5.84103 0.00262694 -0.00756047)
(2.04112 2.03904 0.00269175)
(5.83927 0.00513304 -0.00124675)
(5.76612 0.00319767 -0.000635022)
(6.02652 -0.116545 0.00675271)
(6.03041 -0.0186907 0.0624128)
(5.73688 -0.0204744 -0.0195582)
(2.0372 2.04907 -0.006574)
(2.02376 -2.02591 -0.000711336)
(2.05219 2.03588 0.0099958)
(2.01551 -2.02103 -0.00112888)
(5.79385 -0.00634315 0.00134583)
(5.72387 0.00262857 0.00271654)
(5.88821 0.00284576 -0.0140943)
(5.8528 0.000231469 -0.00736216)
(2.02906 2.02923 0.00129739)
(5.80082 -0.0160566 -0.00643367)
(2.04529 2.04686 0.00553375)
(2.02414 -2.03008 -0.000904704)
(5.84055 0.00506372 -0.00578057)
(1.87572 -1.8731 0.0259195)
(3.32011 -0.6773 -0.0491779)
(2.00573 -1.99798 -0.00147969)
(2.06238 2.03823 0.016862)
(5.8302 0.00175626 -0.00265678)
(2.04614 2.04293 0.000728212)
(5.76058 0.00448378 0.000207094)
(5.66832 0.00327587 0.000306478)
(2.05294 2.05381 -0.000255634)
(5.67607 -0.00264165 -0.00563991)
(5.76978 0.00350801 -0.0027219)
(2.06167 1.79946 -0.0672168)
(5.73961 0.00462845 0.00748047)
(5.68946 -0.000941914 0.00459116)
(5.75237 -0.000269376 0.00235441)
(5.45352 0.0166972 0.0589238)
(5.74045 0.00322165 0.00644012)
(5.76908 0.00157278 0.00709398)
(2.02374 1.71856 -0.0047115)
(2.02509 -2.01578 0.00890867)
(5.09662 0.00617096 0.0927956)
(2.03301 2.03617 -0.0107537)
(5.75604 0.0223375 0.0229089)
(6.02321 -0.0139182 0.0464362)
(2.05913 1.96409 0.0165097)
(2.04057 2.04972 -0.00361142)
(5.74206 0.00139933 0.00204612)
(5.67792 -0.0173538 -0.0211424)
(5.73732 0.0127681 -0.00928216)
(5.8544 0.0298001 -0.00780404)
(2.04879 2.04657 0.00213476)
(6.06165 0.00415371 0.0820206)
(5.91189 -0.00079765 0.00899234)
(2.05597 2.05166 -0.00163901)
(5.81835 0.08417 0.0720721)
(5.59734 -0.0105215 -0.0266703)
(2.02918 -2.02445 -0.000566217)
(2.02417 -2.01915 -0.00444667)
(5.73732 0.00614697 -1.07447e-05)
(5.81473 -0.000607104 -0.00299807)
(2.05708 2.05603 -0.00414914)
(2.02591 -2.02722 -0.00506173)
(3.53017 -1.92912 0.433601)
(2.03184 -2.03248 0.000875928)
(5.83707 0.00957027 -0.00671461)
(2.03443 2.03875 0.00111252)
(2.02988 -2.0336 0.000676114)
(5.8983 0.00842819 0.0122345)
(5.45978 -0.0507998 -0.13409)
(5.88371 -0.0211099 -0.000461258)
(5.76328 -0.012069 0.00541063)
(2.05449 2.05148 0.00199399)
(2.66577 2.0463 0.106258)
(5.72876 0.0706085 0.0975257)
(2.49663 2.1975 0.119467)
(5.72218 0.019224 0.0388244)
(5.7224 -0.0369343 0.001322)
(5.90178 -0.0235468 -0.0144712)
(4.14786 0.117611 0.165924)
(2.45428 2.10833 0.111738)
(5.78172 -0.00858521 -0.0594772)
(6.03998 0.191355 -0.0438338)
(2.03023 -2.03122 0.00238712)
(5.96836 0.00753924 -0.0463323)
(5.89959 -0.00560799 0.0125397)
(2.0327 -2.03048 0.00369569)
(5.80899 0.314059 -0.16343)
(5.26405 -0.000179608 -0.0436818)
(2.59422 2.02933 0.0915077)
(5.90509 -0.002009 0.0102804)
(5.86334 -0.00429262 -0.00272121)
(5.73559 0.00204948 -0.0051439)
(2.0512 2.04211 0.000715346)
(5.71028 -0.0172799 0.0444557)
(5.92264 0.0127101 0.00749353)
(5.68901 0.0337636 -0.011342)
(3.78008 -0.0543979 0.0466897)
(2.50532 2.35446 -0.0464681)
(3.50737 -0.088779 0.113478)
(2.03021 -2.03277 0.0042454)
(5.40215 -0.176105 -0.151394)
(5.70097 -0.0179726 -0.0513103)
(2.04899 2.046 0.00429273)
(5.63716 0.00649796 -0.0201906)
(4.84117 -0.00261347 0.0677259)
(2.67387 2.35823 -0.0209502)
(2.0288 -2.02831 -0.000946368)
(2.36936 -2.02036 0.0643627)
(2.03206 -2.03157 0.000922582)
(5.7431 0.0467781 -0.0177299)
(5.734 0.0166211 -0.00649477)
(5.79509 -0.00607229 -0.00169818)
(5.59757 -0.00391535 -0.00510974)
(5.92167 -0.0873316 -0.0175904)
(2.04735 2.03713 -0.00166557)
(5.76885 -0.00136396 0.00107499)
(2.03704 -2.01757 0.000291614)
(5.72196 0.00330618 0.0081549)
(2.0531 2.0538 0.00152404)
(2.02966 -2.0295 0.00016199)
(2.00455 -2.00797 -0.00424006)
(5.75305 -0.0075471 0.00455924)
(2.02113 -2.02822 0.000298192)
(2.03214 -2.03315 0.00245708)
(2.02402 1.30556 -0.0913116)
(2.03452 -2.03364 0.00202846)
(2.02136 2.0501 0.0178214)
(5.77386 -0.0277965 -0.0128766)
(2.04525 2.04354 -0.00172022)
(2.43515 1.78461 -0.00318625)
(2.05029 2.04771 0.00228925)
(2.02176 -2.01561 -0.000404792)
(2.04806 2.03723 -0.00653752)
(2.02302 -2.01062 -0.00908895)
(2.03453 2.03758 -0.00142538)
(5.47849 -0.00510806 -0.0100425)
(2.05305 2.04115 0.00813565)
(5.4351 0.0549377 0.0950131)
(5.8529 0.0242383 -0.0119083)
(6.0574 -0.213871 -0.0435167)
(2.04736 2.04326 -0.000398065)
(5.18852 0.0105307 0.0666067)
(2.05265 2.04471 0.00138719)
(2.03359 -2.03044 -0.000380564)
(5.70578 -0.0268449 -0.0266435)
(5.72876 -0.0249422 -0.02206)
(5.78845 -0.00642261 -0.00288248)
(6.08321 -0.00749108 -0.0911711)
(2.36928 1.97901 -0.057433)
(5.90577 -0.00171517 -0.0164284)
(5.90607 0.000600618 -0.0148806)
(5.75406 -0.00402421 0.000980865)
(5.75292 -0.000410629 -0.00309768)
(5.77913 -0.0305106 -0.0194966)
(2.02358 -2.02468 -0.000128802)
(5.75102 -0.00490941 0.0044332)
(2.70429 2.35315 -0.0177345)
(5.85085 0.00690473 -0.00805281)
(2.04207 2.04006 -0.00337874)
(5.9249 0.00190208 -0.0135718)
(2.66066 2.20537 0.0186784)
(5.76619 -0.00595101 -0.00347853)
(5.88313 -0.00736777 0.00972251)
(2.33476 -1.21553 -0.0111321)
(2.04564 2.0476 0.0209896)
(5.75306 0.0026253 0.0155094)
(2.02835 -2.02875 -0.00160809)
(5.94374 0.0119985 -0.0284429)
(5.91084 0.0129957 -0.0151435)
(2.04377 2.03988 -0.0181278)
(2.0381 2.042 0.00240298)
(2.00541 1.77544 -0.0530146)
(2.04545 2.04929 -0.00115237)
(4.19063 -0.225691 0.114786)
(5.94572 0.0111131 -0.0229624)
(2.07769 2.02717 -0.000867755)
(2.04334 2.04441 0.00106637)
(5.50087 -0.000452692 0.000111086)
(2.04759 2.05148 -0.00339087)
(5.87325 0.00921136 -0.0123624)
(2.04667 2.04953 0.00428334)
(5.81901 -0.0157013 -0.010255)
(2.03219 -2.03162 0.00124404)
(5.48977 -0.0214683 -0.0424656)
(4.99436 -0.00944924 -0.014438)
(5.76635 -0.00278982 -0.000414266)
(5.76365 -0.00305387 -0.00639162)
(2.05827 2.03418 -0.00226397)
(5.74928 0.00807548 -0.0169492)
(2.05358 2.04649 0.0019063)
(2.05207 2.04859 -0.00744762)
(5.80446 0.00248961 0.0059842)
(2.04558 2.04316 -0.00137599)
(5.21114 -0.00283353 -0.0289177)
(1.97694 1.81713 -0.0560583)
(5.8839 0.00612196 -0.0127696)
(2.02386 -2.02088 0.00116512)
(5.92096 0.00702077 -0.00428044)
(2.03445 -2.0301 -0.00299091)
(2.44572 2.15858 0.0623293)
(6.05565 0.23347 -0.0219106)
(5.72921 -0.0279634 -0.0299225)
(5.85815 0.0137404 0.00151523)
(5.83821 -0.0330528 -0.0226897)
(5.83954 -0.000199308 -0.00206325)
(5.8875 -0.0115065 -0.00343193)
(2.03253 2.05415 -0.0110033)
(5.84737 0.0270561 0.0252479)
(5.74898 -0.0328924 -0.0216346)
(2.0496 2.04981 -0.0027115)
(5.02528 -0.0725996 -0.149596)
(6.01449 -0.05067 -0.0243413)
(5.76546 0.00935897 0.0210076)
(2.01997 1.99414 -0.0117954)
(2.52989 0.475352 -0.421444)
(5.70272 0.0101049 0.0136372)
(4.95122 -0.0169656 0.0364432)
(4.8043 1.22586 -0.0021017)
(2.61252 -1.36842 -0.103908)
(5.87879 -0.0340707 -0.00997106)
(5.6177 0.00403973 0.025102)
(5.71193 -0.0334848 -0.0349344)
(5.84646 -0.0137652 -0.0135218)
(5.69644 0.0196053 0.0177163)
(5.16908 0.658708 -0.0196636)
(2.54625 2.1503 0.0193026)
(5.27446 -0.195236 0.0396428)
(5.10183 -0.452061 0.0936429)
(2.02809 -2.0299 -0.000301988)
(5.44797 0.0157718 -0.00420063)
(2.05736 2.02163 -0.0138641)
(2.40733 2.19601 0.0221361)
(5.77606 0.00258581 0.00197211)
(5.20572 0.844328 -0.000478228)
(6.28722 -0.539303 -0.105172)
(5.6834 -0.991061 0.0102551)
(2.40828 2.28883 -0.180456)
(5.86994 -0.0144406 -0.00842975)
(5.78646 0.0191915 0.0188822)
(2.0438 2.03606 -0.00262606)
(2.65585 1.44848 -0.0598352)
(5.78319 0.0273783 0.0193914)
(2.03382 -2.02686 0.000996235)
(2.04434 2.04205 -0.000887643)
(2.04027 2.04025 0.000140355)
(2.05 2.03647 0.00183672)
(5.86921 -0.0375246 -0.00685951)
(2.04634 2.04552 0.000323529)
(2.03728 -2.03617 0.00894444)
(5.79273 -0.0133305 -0.0160646)
(5.74593 -0.00107456 0.00159916)
(2.96221 -2.60257 -0.145883)
(5.77612 0.0256684 0.0230915)
(2.39893 1.91805 0.0495488)
(5.7403 -0.00344738 -0.00240019)
(1.99043 -1.99386 -0.0111537)
(2.04246 2.04654 -0.00167844)
(5.87112 -0.017271 -0.00917073)
(2.04641 2.03599 -0.00221311)
(2.0443 2.04037 0.00158849)
(2.35515 2.25231 0.0609716)
(5.72573 -0.00927382 0.00529565)
(3.40665 2.84596 -0.379281)
(5.81662 -0.00822161 -0.00627218)
(5.77938 8.60916e-05 -0.000343555)
(2.01084 -1.99957 -0.0142955)
(6.10359 0.000597319 0.188387)
(5.54271 -0.0138815 -0.0548012)
(5.80858 -0.00377896 -0.00325563)
(5.89232 0.0955503 0.0125716)
(5.94473 0.0471565 -0.133733)
(5.41076 -0.00803045 -0.014934)
(2.04465 2.04376 0.00326722)
(5.90868 -0.00404275 0.0134477)
(5.83695 0.011025 -0.000474158)
(2.01105 -2.0364 0.00149045)
(5.72768 0.00402671 -0.00453338)
(5.90937 0.0394517 0.00259369)
(5.86291 0.0137497 -0.00280379)
(5.71702 -0.0246431 -0.0349696)
(5.86453 0.0147178 -0.00300025)
(5.85629 0.0245729 0.00298612)
(2.03032 -2.00486 0.0134186)
(5.93145 0.00521744 0.0161222)
(5.13571 -0.0298594 -0.0201388)
(2.47932 2.14546 0.138689)
(5.87432 0.00886755 -0.00839947)
(5.72917 0.0029454 -0.00670807)
(3.3257 2.69486 -0.410902)
(5.77886 -0.000107194 0.00114675)
(5.88179 0.00169967 -0.0122457)
(5.73289 0.00274372 -0.00894866)
(5.84682 0.0188386 0.000800873)
(5.77452 0.0412138 0.0215247)
(5.77723 0.000694364 -0.00219153)
(2.0027 1.95679 0.00141341)
(5.84501 0.0224119 0.00832746)
(5.54779 -0.0282959 -0.0493595)
(2.26919 -1.38719 0.040347)
(5.82068 0.0447508 0.0299891)
(5.76265 0.0397584 0.0428653)
(5.76406 0.00132467 0.00242873)
(2.04397 2.0388 0.00255876)
(5.71286 0.0272408 -0.0484237)
(2.0334 -2.02151 0.00828037)
(2.04703 2.04352 -0.00266629)
(2.03424 2.02332 0.00105459)
(2.05286 2.04216 0.00275995)
(5.39449 0.00143021 -0.00155985)
(2.45264 2.10459 0.0914248)
(4.49389 -0.312532 0.353358)
(2.01375 -2.02039 -0.00182634)
(2.04067 2.07201 -0.00333115)
(5.82565 0.046542 0.0323092)
(5.87808 0.00277795 -0.0188001)
(2.02936 -2.03147 0.00157903)
(5.88447 -0.0217455 -0.0010428)
(2.03135 -2.02825 0.00745324)
(2.03185 -2.03137 -0.000541497)
(1.99551 -1.9989 0.00679063)
(5.94295 -0.0231771 -0.00451859)
(5.33703 0.0192628 -0.00355005)
(2.42807 2.17728 0.0232427)
(2.04959 -2.02723 0.0038781)
(2.044 2.05156 -0.0028373)
(2.04872 2.0501 -0.00217418)
(6.04018 0.00417658 -0.0646197)
(5.77452 0.00293124 0.00225531)
(2.44046 2.29304 0.106463)
(5.92051 0.00267713 -0.0190829)
(5.59208 -0.0722177 -0.224298)
(2.04297 2.04404 0.00360155)
(5.91184 0.00125482 -0.0180807)
(5.52568 -0.00278526 0.0228993)
(5.70747 0.0230782 -0.0225697)
(2.04779 2.04943 0.00156265)
(2.0435 2.03946 0.000868898)
(5.7358 0.0067967 0.00625823)
(5.76758 4.70357e-05 -0.00073684)
(2.42942 2.2043 0.0332972)
(2.04075 2.04161 0.00225228)
(2.0697 2.00605 -0.00833746)
(5.77824 -0.00446219 -0.00170596)
(2.03189 -2.0315 -0.00242823)
(2.02271 -2.01908 0.000978585)
(2.0323 2.03558 0.00151134)
(5.90619 0.00684328 -0.0186192)
(5.60254 -0.0123442 -0.0107424)
(2.04861 2.04965 8.3509e-06)
(2.30256 0.44231 0.423017)
(2.53854 -0.314788 -0.0648845)
(5.70666 0.0260305 0.00263728)
(2.04673 2.05067 -0.000197787)
(2.05001 2.04482 -0.000804165)
(5.92106 -0.0410391 -0.00356398)
(5.741 0.0867365 0.078897)
(2.46608 2.20023 0.109398)
(3.61818 1.14718 0.0720511)
(5.6727 0.127777 0.175903)
(5.52767 0.0180031 -0.0126424)
(5.7869 0.000762812 0.000988067)
(2.11928 1.98639 0.00636983)
(5.76068 0.00436739 0.00287418)
(5.93164 -0.0197734 0.030079)
(2.04943 2.04337 -0.00410874)
(2.01565 -1.98715 0.00162978)
(2.03572 2.03654 -0.00119238)
(2.04297 2.04311 0.00123758)
(2.04593 2.05099 -0.000474134)
(2.0523 2.0493 -0.00186979)
(5.91758 0.0092128 -0.014276)
(2.0272 -2.02958 0.00486226)
(2.03971 2.04056 0.00171721)
(2.03683 2.01604 0.00684903)
(5.92243 0.00719937 -0.0166181)
(5.76984 -0.00115484 0.00112583)
(2.03843 -2.01256 0.00345464)
(2.00642 -1.98575 0.00185767)
(5.97788 -0.00759588 0.0409288)
(5.76676 0.000989053 -0.000438836)
(5.76806 0.001878 0.00105395)
(2.02741 -2.0232 0.000910438)
(2.03683 2.04665 -0.000205458)
(5.77001 0.00108593 -0.000841071)
(2.03247 -2.02922 0.00119144)
(5.72904 0.00276669 0.00579632)
(5.73995 0.0034419 0.00474868)
(5.74353 0.00448637 -0.000671987)
(2.03585 -2.01917 0.00593214)
(2.03104 -2.03539 0.00401225)
(2.03255 -2.03352 -1.20369e-05)
(2.04857 2.05454 0.00194495)
(5.78433 -0.011825 -0.00312046)
(2.04898 2.05018 0.00512779)
(2.04114 2.03896 0.00209722)
(5.84666 0.0306538 -0.0265109)
(2.03101 -2.03089 0.00225795)
(5.77348 0.00262361 -0.000861624)
(5.42759 -0.0423914 0.00768285)
(2.0619 1.99032 0.0106045)
(5.76462 -0.00176798 0.00129667)
(2.76524 0.315928 -0.0473791)
(5.77577 0.00313386 -0.00362191)
(5.92768 -0.00104778 0.00718411)
(5.51609 0.00601722 0.00766204)
(5.97377 -0.00149122 0.031832)
(4.39469 0.0764443 -0.171634)
(2.44678 1.94386 0.0443584)
(5.77689 0.00325075 -0.00305093)
(5.98704 0.0226909 0.000826419)
(5.7819 -0.00271232 -0.0022367)
(2.09639 1.81401 -0.0650662)
(2.72392 0.252878 -0.142233)
(3.16325 -0.287818 0.0801797)
(5.78096 0.000770792 -0.00476856)
(2.04155 2.04254 0.00314317)
(5.70238 -0.00673361 -0.0252308)
(5.81858 -0.00462194 -0.00609822)
(5.63033 -0.0292305 -0.0597502)
(2.20147 -1.58705 -0.115748)
(2.03271 -2.03477 0.00126563)
(2.02805 -2.02945 -0.00183176)
(5.76251 -0.00177005 0.00119065)
(2.38528 1.97128 -0.0295149)
(5.7779 0.012168 -0.0134707)
(2.22171 2.02743 0.0211654)
(5.65829 -0.00761109 -0.0102308)
(5.77777 0.00171209 -8.58846e-05)
(5.77404 0.00103108 0.00120869)
(5.774 0.000888143 -0.00426664)
(2.037 2.03979 -0.00098167)
(2.02848 2.02473 -0.00169472)
(2.18646 -1.98346 0.00634902)
(5.76469 -0.000732182 0.00164664)
(2.05198 2.04601 -0.00157455)
(2.37514 2.03714 -0.095633)
(6.03825 0.127963 -0.103006)
(2.0541 2.04988 -0.00411777)
(2.03509 2.04256 0.00916094)
(2.01772 -2.01576 -0.00415784)
(2.04922 2.05117 0.00483748)
(5.77205 2.69669e-05 0.00200194)
(2.08899 1.98523 -0.000255893)
(2.05028 2.04657 -0.00112049)
(4.82883 0.669637 -0.460327)
(2.40638 1.93766 -0.0212027)
(2.03739 2.03856 -0.013429)
(2.89741 -1.71942 0.0996982)
(2.04925 2.0448 -0.000591292)
(5.00528 0.00387286 -0.0101947)
(5.77175 0.00308412 0.00276899)
(2.02116 -2.01895 -0.00210135)
(5.72226 0.0159441 -0.0222179)
(5.68981 0.888574 -0.116918)
(5.58427 -0.035634 -0.0631241)
(6.15872 0.212993 0.00827862)
(5.76729 -0.00153806 0.000502341)
(2.04649 2.03364 0.00314119)
(5.74035 -0.0317793 -0.0368649)
(6.0024 -0.00406965 0.0103844)
(5.57269 -0.036095 -0.0621706)
(2.02999 -2.02621 -0.00294054)
(6.10834 1.58557 0.43077)
(5.77392 -0.000145486 -0.0018287)
(2.75103 2.17811 -0.131463)
(5.76808 -0.00477345 -0.00175562)
(6.07904 0.0528859 -0.0468261)
(5.85836 0.0989494 0.0163132)
(5.76253 -0.00360869 -0.00738644)
(5.77648 0.0134801 -0.0057255)
(6.13081 0.0667995 -0.0225021)
(5.75491 -0.000337365 -0.00857838)
(5.72965 -0.00451383 0.00479917)
(2.03073 2.03491 0.00894149)
(2.03998 2.02203 0.00605346)
(5.77061 0.00343464 -0.0116009)
(5.77242 -0.00287029 -0.00143296)
(2.04169 2.04762 -0.00197092)
(5.78085 0.00359241 -0.00229151)
(5.89878 -0.00463179 0.00676383)
(5.72294 -0.00368844 -0.00253164)
(2.0481 2.02362 -0.00275247)
(5.83062 0.0906526 0.0358693)
(2.04269 2.041 -0.000668213)
(5.7448 -0.00364594 0.0113535)
(5.72407 0.00261665 0.000472549)
(2.04647 2.04476 -0.00194444)
(5.69213 0.0224195 -0.0474472)
(5.71127 -0.000447504 0.00617881)
(5.80943 0.0901907 0.017066)
(5.76133 -0.0153998 0.00951237)
(2.09631 2.05468 -0.00182197)
(5.82329 0.00419537 0.00195753)
(5.83636 0.114533 0.0112661)
(6.1255 -0.15651 0.0406183)
(5.21692 0.0600692 0.0252512)
(4.82596 0.00927542 -0.0526552)
(2.04896 2.02883 -0.00311264)
(2.04286 2.04104 0.00590328)
(5.74916 0.0522346 0.00769314)
(2.04694 2.05097 0.000297677)
(5.36917 -0.00045072 -0.0347719)
(5.71266 -0.012351 -0.025264)
(3.4779 0.443483 -0.0952117)
(6.36313 -0.418327 0.149115)
(5.61305 -0.259579 0.0730129)
(6.24628 -0.237266 0.0585172)
(2.04722 2.05144 0.000546974)
(2.78574 2.36285 0.0217776)
(5.76886 -0.000588638 -0.00912747)
(2.01981 -2.02632 -0.00923199)
(1.13962 -0.7882 0.340149)
(5.80847 -0.0776531 -0.0599876)
(2.03725 2.03135 -0.00488447)
(2.05078 2.04484 -0.001779)
(5.25133 -0.106692 -0.00746995)
(4.29216 -0.274484 0.0643257)
(2.047 2.04886 0.00244485)
(5.32574 -0.0991732 0.00584842)
(2.03862 2.03529 0.00488257)
(2.04654 2.0515 -0.00521055)
(2.0293 -2.03415 0.00105469)
(2.03218 -2.02701 0.00280167)
(1.99457 -1.97671 0.00120655)
(2.02932 -2.02353 -0.000651593)
(5.4204 0.0279238 -0.00824303)
(2.0294 2.02125 0.00288364)
(2.04739 2.04663 0.00143703)
(2.03275 2.04629 0.00316128)
(4.94345 -1.1053 -0.293136)
(5.56242 -0.0435829 -0.0921693)
(5.5656 -0.000952246 -0.0151046)
(5.76806 -0.00495106 -0.0063577)
(2.03334 2.02007 -0.0016982)
(2.0605 2.04618 -0.00151732)
(5.63942 -0.0808376 -0.0970086)
(2.04562 2.04683 -0.0040335)
(2.04791 2.04129 -0.00381002)
(3.30125 1.86718 0.0715229)
(5.99411 -0.0578414 0.00269944)
(5.77311 0.00287126 0.000858932)
(2.04463 2.04279 -4.55426e-05)
(2.04768 2.03873 0.00585888)
(2.03245 2.02665 -0.00434054)
(2.04341 2.03488 0.000338318)
(2.05026 2.04599 0.000308575)
(2.05242 2.05138 0.000654331)
(5.8547 -0.1106 -0.0677349)
(2.05181 2.04391 -0.00168328)
(4.14229 0.058044 0.132535)
(5.85456 -0.0028348 0.00819914)
(2.04732 2.05121 -0.000985631)
(2.01848 -2.02584 -0.00136706)
(2.00515 -1.97959 -0.000347715)
(5.01849 0.0589898 0.267654)
(1.98763 -1.98845 -0.00867727)
(2.02781 -2.02984 -0.00202126)
(2.03603 2.0365 -0.0150715)
(5.38435 -0.0824277 -0.00837183)
(2.03833 2.03999 -0.00077197)
(5.85098 -0.0547862 -0.0332291)
(4.89292 0.0594781 -0.0162833)
(3.93211 0.0024102 0.150473)
(2.03712 2.04121 -0.000259897)
(4.05483 -1.07255 0.0933404)
(5.90695 -0.00666756 0.0144163)
(5.83954 -6.71148e-05 -0.00553077)
(2.1727 -2.07221 -0.0239582)
(5.75118 -0.09808 -0.0184714)
(5.83263 -0.0119533 0.00444851)
(2.02994 -2.01417 0.00417871)
(2.12209 2.00682 0.00652346)
(2.833 -2.19994 -0.186872)
(2.02878 2.039 -0.00418158)
(5.7507 -0.00367837 -2.81416e-05)
(5.8261 0.00537583 -0.001153)
(5.98954 -0.0621398 0.0308084)
(3.98686 8.64896e-05 0.230281)
(2.05018 2.04908 -0.00241167)
(5.74746 -0.00320378 0.00198616)
(2.10555 1.99719 -0.00515344)
(2.57168 2.16999 -0.00899539)
(2.71099 -2.12276 -0.089606)
(2.04726 2.04592 0.00143123)
(5.787 0.00312933 0.00242386)
(2.0361 2.0369 -0.00187434)
(2.00826 -1.97809 0.000899728)
(5.44109 -0.059815 -0.1215)
(5.7758 0.000534382 -0.0027421)
(2.00857 -1.97819 -0.00355215)
(5.83091 -0.000703051 -0.00397031)
(2.17932 2.1323 -0.0117385)
(5.91202 -0.0359713 -0.00865768)
(1.9159 1.82328 0.0152543)
(2.04787 2.04479 -0.000116433)
(2.05835 2.05364 0.010606)
(2.03105 -2.0344 0.0027768)
(5.735 0.000118922 -0.00464647)
(5.61936 -0.000382299 0.0059188)
(5.97585 0.0107187 0.0969434)
(2.04143 2.04365 -0.0014645)
(2.0331 1.98707 0.0109302)
(5.7303 0.000410765 -0.00146655)
(2.05236 2.05178 -0.000986872)
(2.39382 2.15783 0.0200391)
(2.02997 -2.0279 0.00258303)
(5.76437 0.0125331 0.000431225)