/*--------------------------------*- C++ -*----------------------------------*\
  =========                 |
  \\      /  F ield         | OpenFOAM: The Open Source CFD Toolbox
   \\    /   O peration     | Website:  https://openfoam.org
    \\  /    A nd           | Version:  10
     \\/     M anipulation  |
\*---------------------------------------------------------------------------*/
FoamFile
{
    format      ascii;
    class       volScalarField;
    location    "3.9";
    object      SgRate;
}
// * * * * * * * * * * * * * * * * * * * * * * * * * * * * * * * * * * * * * //

dimensions      [1 -1 -3 -1 0 0 0];

internalField   nonuniform List<scalar> 
111485
(
8.80065e-17
1.03799e-05
2.46439e-05
4.54825e-17
5.52203e-05
1.54584e-18
4.86289e-05
7.23883e-06
1.97934e-05
1.16862e-06
4.78603e-05
1.19505e-05
4.63849e-06
2.55982e-07
6.76178e-06
3.39466e-05
2.12811e-06
0.00292092
1.18052e-05
2.56378e-16
1.49633e-16
1.64114e-18
2.83451e-05
3.81994e-05
1.16969e-05
3.57214e-17
4.82853e-05
2.60485e-06
2.11197e-05
1.08358e-17
5.36477e-05
1.90475e-05
6.27814e-16
8.77666e-18
1.00228e-05
2.33893e-18
1.28801e-05
3.66587e-06
6.28408e-11
2.36877e-05
3.04245e-18
8.52615e-05
1.83313e-05
1.50357e-06
5.3855e-08
1.79312e-17
3.73878e-05
8.01092e-07
5.69994e-05
6.35855e-17
2.01922e-17
3.13454e-16
2.25025e-17
5.46291e-05
2.54883e-16
4.93026e-05
4.15371e-06
4.15815e-19
2.78174e-08
5.58982e-06
1.91068e-05
2.98863e-17
4.19275e-06
0.000110328
2.52209e-16
4.40122e-06
0.000371707
0.000119122
9.13113e-07
7.05297e-06
1.0203e-08
6.35657e-06
9.56499e-17
2.56419e-06
2.12626e-16
8.21958e-07
7.84293e-18
4.88883e-05
1.52432e-17
9.59881e-16
2.04234e-08
3.95816e-05
2.11104e-17
3.39497e-17
9.20174e-06
5.00563e-06
5.2598e-13
2.7584e-05
6.03496e-08
7.68089e-06
6.17827e-07
4.37163e-05
1.13978e-05
8.86677e-08
6.68529e-05
2.13474e-16
5.07783e-17
1.8473e-06
1.81896e-11
1.63984e-06
1.65691e-16
2.29122e-05
2.86106e-19
2.5388e-05
4.8207e-06
1.35369e-16
8.42286e-18
9.58096e-06
4.16338e-06
1.16087e-10
9.53055e-06
5.69431e-06
3.65402e-06
3.60079e-06
4.88735e-16
4.06569e-08
3.1746e-17
1.07976e-17
1.26187e-05
2.00254e-16
2.88825e-17
8.17164e-16
3.20598e-17
1.23162e-19
2.42275e-06
2.88485e-09
1.50035e-17
2.04629e-06
3.80398e-18
1.03884e-07
1.38191e-06
3.51108e-05
4.98016e-17
1.41711e-15
7.13508e-17
6.05011e-05
2.33786e-17
4.92583e-05
2.67411e-05
2.61855e-06
2.28892e-07
2.39742e-06
2.58601e-05
3.39683e-06
4.64611e-06
1.26632e-05
3.03267e-17
4.68178e-17
3.91011e-17
3.04579e-05
2.27446e-06
1.85809e-17
1.88104e-10
6.61415e-06
6.06058e-10
1.16405e-05
2.00272e-05
1.40693e-05
1.21338e-10
1.1007e-17
2.65847e-17
6.33659e-05
2.63284e-05
3.49791e-09
3.3948e-10
5.34228e-06
4.48889e-06
5.91058e-19
8.05446e-09
6.69735e-08
9.03055e-18
3.6089e-17
1.33042e-07
3.71915e-18
8.4544e-06
2.55435e-06
1.75118e-17
8.13645e-17
6.44484e-17
3.64924e-16
3.82953e-17
1.67393e-17
1.4431e-06
7.97197e-06
3.29331e-05
4.77164e-06
8.29353e-06
3.63573e-06
1.08817e-07
1.5847e-17
4.20635e-06
2.42523e-17
2.40206e-17
6.31885e-06
1.21682e-05
2.95847e-05
1.41015e-05
3.27189e-06
4.23829e-17
7.97878e-06
8.41137e-07
5.4669e-08
1.49704e-05
2.717e-06
4.98813e-17
3.79487e-06
3.0187e-05
1.32089e-16
2.46782e-07
8.84743e-06
3.14502e-06
3.75561e-07
1.59137e-16
1.12028e-16
7.487e-06
8.11975e-15
0.000143963
2.0993e-17
6.59582e-06
2.19391e-05
0.000144216
1.32364e-17
2.62646e-06
1.56653e-05
4.11381e-16
1.31072e-17
1.55659e-17
0.000191709
4.83443e-10
1.68509e-16
6.08003e-18
9.89051e-06
1.121e-05
1.74713e-05
1.01966e-16
6.27633e-16
1.27989e-08
1.09109e-16
2.47469e-06
9.63261e-06
1.72519e-05
1.15866e-05
1.1014e-05
1.44565e-17
3.61217e-10
6.62387e-07
4.60923e-17
2.42199e-17
3.63424e-05
2.51581e-05
1.21311e-16
5.90854e-06
1.13725e-05
7.43883e-17
1.12823e-15
1.71575e-07
5.95769e-17
2.80537e-16
4.55213e-08
3.93311e-17
1.82891e-05
1.34962e-05
4.24619e-06
1.98531e-17
1.29791e-05
1.75414e-17
3.15464e-17
1.41214e-17
3.22537e-11
2.83011e-05
6.00357e-06
5.32109e-06
4.51046e-05
1.21815e-05
2.14429e-06
7.21334e-07
4.17743e-05
1.18743e-05
4.02746e-17
6.67338e-17
3.59461e-10
2.56347e-05
2.74492e-05
1.47307e-05
1.23865e-17
7.72469e-06
2.7943e-06
3.16866e-06
9.73584e-09
4.77288e-09
1.48094e-05
2.29923e-06
2.25881e-06
2.50295e-18
9.73171e-07
1.62746e-17
2.95026e-10
3.9853e-16
0.000309352
8.23305e-05
1.6578e-05
9.81234e-17
7.92355e-18
1.01322e-05
2.48957e-06
1.59499e-16
1.34392e-17
1.70767e-16
5.04311e-07
7.75422e-05
3.99804e-06
1.74676e-05
2.32268e-05
1.9837e-16
2.45541e-17
8.953e-17
4.15084e-06
2.25247e-15
1.36453e-06
0.000226075
5.57991e-10
1.2059e-17
4.78411e-17
3.38391e-17
1.54677e-15
6.78777e-05
1.42798e-05
1.21414e-19
5.75191e-06
8.10364e-16
8.38202e-17
8.15799e-05
6.36874e-06
1.34068e-05
9.53477e-06
8.95504e-16
8.82668e-16
1.49177e-17
1.03914e-05
2.41417e-05
5.68349e-06
2.16198e-17
2.13916e-13
2.40272e-07
1.90245e-06
8.97944e-06
6.02537e-08
3.47817e-05
2.68465e-18
4.48579e-05
3.67413e-06
8.94054e-06
2.88156e-05
1.49829e-05
2.05042e-17
3.73523e-16
3.06193e-17
6.14566e-17
3.69036e-05
1.07174e-05
4.53843e-05
8.16184e-05
2.24231e-17
2.18278e-05
8.78328e-19
1.93805e-16
1.75026e-05
2.2871e-17
6.09865e-05
4.47379e-17
3.58057e-19
2.75724e-05
1.75356e-20
1.71098e-05
5.95712e-07
8.96203e-18
1.2576e-06
1.78262e-05
1.50436e-16
8.78438e-06
1.2685e-05
8.60899e-06
6.21845e-07
3.81096e-06
9.75947e-06
1.28659e-15
2.34502e-18
1.76844e-06
2.6975e-17
6.17647e-06
0.000138219
5.45917e-17
1.28915e-17
3.09976e-05
1.14504e-07
6.93429e-06
2.79913e-05
7.26922e-18
4.99687e-05
2.68038e-05
5.52836e-18
8.65548e-07
3.09109e-06
6.78661e-17
8.22598e-17
1.45422e-05
5.45407e-06
2.10253e-18
2.52953e-17
2.05868e-11
6.1041e-17
1.39495e-05
4.4307e-17
1.03945e-16
2.16528e-05
2.48201e-09
1.64397e-05
3.01004e-05
5.22888e-18
5.6433e-16
1.39196e-06
8.0162e-17
1.53234e-07
1.45201e-05
0.000142029
0.00106563
1.75185e-18
3.23757e-06
4.00469e-07
3.90859e-16
4.30489e-05
4.06871e-05
9.18591e-18
1.15728e-11
1.17185e-07
5.30576e-16
2.82552e-05
3.21998e-05
1.89637e-05
5.13682e-17
7.60366e-07
2.45752e-05
2.96727e-05
8.53869e-10
3.69723e-16
5.48769e-13
3.94017e-17
1.85163e-08
3.68535e-05
1.21364e-16
1.07259e-05
9.74068e-08
2.44485e-16
5.46944e-19
1.41824e-16
2.78106e-16
5.95386e-06
1.27624e-05
7.04649e-06
2.88892e-06
3.79611e-06
5.40007e-17
3.16976e-06
2.44143e-16
4.11994e-05
5.38426e-17
7.48671e-17
1.58736e-17
4.13818e-05
2.66136e-17
1.55243e-17
3.17312e-10
1.62289e-17
1.27337e-17
1.1463e-06
1.80981e-18
7.70206e-16
4.01757e-18
6.39609e-18
1.18592e-16
4.57054e-17
6.03435e-18
9.10756e-06
2.12126e-16
4.82894e-07
2.26931e-06
1.57852e-06
1.06811e-17
8.26493e-07
7.44595e-17
2.44962e-17
2.99391e-06
1.99233e-06
3.20103e-05
2.75875e-05
4.7508e-17
2.38873e-06
8.75426e-05
1.07803e-05
1.36458e-06
3.61937e-06
3.65976e-17
2.84653e-05
7.41592e-16
5.03715e-06
3.74327e-17
8.4533e-05
6.15843e-16
2.64118e-05
3.66674e-07
1.34916e-10
3.13047e-17
2.61811e-06
3.08781e-17
9.40435e-05
5.48057e-05
1.85855e-17
3.41802e-17
4.45382e-16
9.02971e-18
1.45684e-12
6.58416e-05
3.75614e-18
6.10476e-18
3.65474e-06
1.11559e-18
3.69331e-05
1.75958e-17
4.07848e-07
5.09928e-17
6.2582e-07
1.07547e-09
1.49017e-06
1.48275e-05
1.51154e-17
3.88231e-07
9.37487e-17
1.29983e-17
1.75522e-05
1.77972e-17
3.99125e-08
1.33477e-16
1.70892e-06
2.39124e-16
7.93147e-05
3.24178e-17
6.90768e-16
1.79338e-05
3.76159e-06
1.81873e-06
4.64125e-06
7.05925e-06
2.52922e-05
5.7325e-17
2.59005e-05
7.4763e-06
1.76204e-17
9.37881e-11
4.29167e-05
1.53774e-05
4.91819e-16
5.72718e-06
6.78231e-06
1.70266e-06
1.49366e-06
2.42706e-13
1.63143e-05
1.03141e-06
2.05679e-07
3.00536e-05
1.71956e-05
1.03209e-06
2.80833e-16
3.51627e-12
0.000758379
1.08608e-16
5.09881e-07
5.40965e-19
8.17645e-16
8.62353e-06
3.91813e-06
2.00499e-10
1.33683e-08
1.30013e-15
2.06528e-05
1.30574e-05
1.65428e-17
1.28011e-13
2.84656e-06
2.17923e-17
7.21754e-18
4.71952e-18
1.85639e-16
1.78753e-05
4.0055e-18
5.55404e-17
1.11941e-05
3.59184e-06
3.8125e-16
1.14184e-05
3.21379e-16
9.07024e-06
2.86259e-17
3.58577e-17
6.50823e-05
2.99155e-18
8.24901e-17
1.85505e-15
6.04277e-06
2.10265e-16
3.74414e-05
7.91898e-06
6.7186e-17
9.24301e-05
2.97119e-06
3.1141e-05
3.07243e-05
1.05848e-06
9.37953e-08
3.761e-17
6.73042e-05
4.7502e-05
1.19527e-16
4.52041e-07
4.77607e-05
7.4862e-06
1.71131e-06
3.18837e-05
2.9927e-05
2.3134e-16
1.32834e-05
5.92641e-09
1.60371e-16
3.75273e-05
3.20263e-07
1.39276e-17
1.30703e-05
4.45225e-05
1.7494e-06
2.23086e-05
2.04284e-05
9.32157e-06
1.1692e-15
1.07114e-05
3.76469e-07
2.33875e-14
1.75634e-05
1.79001e-05
4.14969e-05
2.73446e-17
2.80523e-06
3.46478e-17
1.96622e-18
1.43922e-17
1.60794e-17
1.65063e-08
4.72497e-16
2.18274e-13
2.51014e-16
4.79281e-17
6.35425e-08
4.72894e-05
9.29571e-17
4.20155e-05
1.17141e-16
2.46108e-17
1.94789e-16
4.76118e-05
5.7012e-07
8.18745e-16
1.20649e-17
8.55933e-19
6.22232e-18
0.000275507
8.3385e-05
8.69598e-16
2.19508e-06
3.90746e-09
1.41238e-17
4.2667e-05
8.54344e-06
1.71102e-05
4.87619e-18
8.71358e-17
4.03776e-07
1.22249e-06
7.61734e-16
4.4322e-17
2.91755e-16
7.13076e-06
3.76388e-17
3.0589e-16
3.79092e-17
4.7285e-05
2.34592e-06
2.24229e-18
0.00493849
0.000256801
1.39915e-05
4.81728e-19
3.68761e-17
6.75984e-05
4.05034e-07
1.99843e-16
7.48423e-09
0.000176145
3.31181e-06
1.63291e-05
8.79912e-16
6.87738e-05
2.01388e-06
4.64921e-19
1.56439e-17
8.74549e-18
5.57328e-18
2.23237e-18
3.82842e-18
2.39183e-05
7.73697e-17
1.50059e-17
1.31594e-16
1.41897e-05
2.89101e-05
1.18225e-16
7.96585e-17
0.000126714
1.54367e-05
1.06662e-05
6.19056e-16
9.75771e-18
4.07652e-05
5.26099e-17
2.63594e-06
2.7671e-06
4.2433e-06
9.80456e-18
6.61298e-17
1.47879e-16
4.36673e-18
1.67519e-05
1.00226e-18
3.73572e-17
1.0842e-06
4.66583e-17
2.56368e-05
1.89789e-06
1.39569e-16
4.33627e-05
0.000623446
2.71881e-06
3.54446e-05
2.23414e-07
5.57843e-05
1.78713e-13
2.19821e-15
2.57551e-05
8.76023e-05
7.62205e-06
7.54661e-18
1.21925e-12
0.000774587
1.21476e-05
6.03412e-18
3.49677e-06
3.40652e-06
1.59707e-06
3.09208e-16
3.91533e-17
2.77411e-17
1.51153e-05
1.10185e-15
3.3989e-06
2.62175e-16
1.23494e-06
1.25942e-06
3.98347e-05
7.62901e-07
6.59293e-18
2.38088e-18
3.73982e-18
2.34331e-05
2.49387e-17
2.03935e-17
6.25468e-08
1.35536e-18
4.05936e-18
4.25496e-18
1.21316e-18
1.07926e-05
1.46597e-16
6.74471e-19
6.22767e-13
3.05345e-16
9.58068e-18
1.07328e-16
6.1723e-17
4.00645e-09
2.05265e-06
4.94855e-17
4.80657e-06
1.06576e-08
3.67539e-10
8.48207e-08
4.98962e-06
1.39774e-17
1.11147e-08
1.15614e-05
4.44596e-07
1.38398e-16
9.43399e-12
9.77541e-07
1.7748e-16
1.0752e-05
2.84268e-07
2.28548e-09
2.62834e-05
9.38408e-06
2.67649e-06
7.85096e-06
2.65559e-06
1.44311e-16
1.03075e-16
2.63271e-05
2.67338e-05
2.33941e-17
7.90124e-06
6.61168e-05
3.74061e-05
2.26352e-16
1.76176e-06
1.55752e-17
1.4255e-05
1.80519e-05
1.58841e-16
8.79633e-07
7.00267e-07
1.62346e-09
2.27872e-06
9.54111e-17
6.19526e-05
2.07644e-08
2.10906e-06
4.41501e-08
1.68901e-08
6.11794e-18
1.55701e-17
9.49671e-06
1.84669e-18
1.52528e-07
3.58563e-07
1.15443e-07
7.54339e-11
8.39459e-11
1.46957e-09
1.71415e-18
8.43566e-16
2.61339e-05
1.28098e-16
8.15834e-07
2.57864e-06
2.99513e-16
5.12532e-17
6.06188e-10
8.29617e-13
2.30891e-18
4.60431e-09
3.6729e-17
2.75809e-17
5.72895e-18
8.43586e-17
1.32412e-16
6.6606e-17
3.89891e-07
6.95152e-17
1.97581e-18
1.28998e-17
7.28549e-09
6.79985e-08
1.84158e-06
1.0591e-05
1.41652e-17
7.45498e-18
2.37021e-07
1.04797e-17
2.43749e-17
2.36348e-16
2.26497e-05
4.90125e-05
6.83921e-18
2.37835e-17
1.78765e-16
3.13851e-18
8.767e-18
7.10928e-18
9.23878e-06
1.48638e-17
4.69737e-11
3.00563e-05
6.05399e-17
2.95498e-16
1.86342e-17
2.25208e-08
1.56283e-16
3.01122e-17
4.29341e-18
8.38195e-09
1.65418e-17
5.7887e-06
1.31269e-09
4.2795e-12
3.21652e-18
6.45339e-08
2.95241e-06
5.36809e-05
4.63842e-16
7.36136e-09
7.77782e-06
1.61301e-17
1.87955e-17
2.58687e-16
1.14057e-16
8.9685e-06
4.77529e-06
4.39067e-06
2.11801e-10
2.16117e-18
2.94155e-05
1.3887e-16
3.85013e-16
3.70388e-16
1.62307e-17
3.01234e-05
3.43612e-17
4.73548e-17
2.53733e-09
7.00092e-05
1.52081e-17
3.42618e-06
4.61986e-16
1.2266e-06
4.6826e-16
3.10815e-19
7.52449e-17
1.89478e-16
3.43868e-06
7.78127e-07
0.000411267
3.20993e-19
2.71362e-16
2.885e-06
8.28051e-18
8.82971e-16
9.34506e-17
5.09445e-05
8.00297e-09
3.18785e-05
2.39782e-16
9.61195e-09
4.40177e-08
1.23982e-15
1.05583e-07
1.56288e-16
1.87872e-06
3.11077e-05
2.75516e-05
1.72774e-06
3.30982e-07
2.06987e-17
1.00502e-17
8.20862e-18
2.00252e-08
1.1285e-18
7.33879e-06
1.74484e-17
0.000212675
2.31021e-17
4.89472e-05
3.18969e-06
2.77159e-16
5.72236e-18
7.1565e-17
1.24444e-17
4.18171e-05
6.82879e-17
1.52565e-16
1.63369e-05
7.1548e-06
5.57579e-16
6.18459e-16
8.11738e-16
6.46294e-16
1.14488e-16
3.10849e-18
2.68722e-05
5.2312e-07
3.92645e-17
1.5502e-17
4.43088e-10
3.40543e-17
1.74178e-06
9.75823e-08
8.10627e-17
3.48429e-06
2.28875e-17
3.23299e-07
1.23636e-16
9.37225e-07
4.21885e-17
1.26484e-10
2.39618e-09
9.13932e-07
1.89245e-05
3.58468e-05
1.26115e-09
4.47132e-17
5.13726e-07
4.47895e-17
5.15657e-06
4.65329e-17
2.77099e-17
6.84079e-17
1.33307e-17
1.31756e-17
1.63873e-17
7.43596e-06
8.12418e-06
6.26904e-17
1.46351e-16
2.55827e-17
7.23315e-07
1.85549e-08
6.64026e-17
2.23233e-05
2.44482e-07
2.62546e-17
2.95237e-05
1.11698e-05
3.75908e-06
1.53373e-05
3.19823e-18
2.33685e-17
3.36405e-19
2.90298e-18
4.24632e-05
5.1471e-17
0.000128397
5.61168e-19
2.84659e-07
8.28233e-07
9.37123e-18
8.9417e-07
5.85744e-18
2.81296e-18
2.97431e-06
3.17125e-11
8.46288e-06
2.85627e-18
7.92549e-17
3.99104e-17
7.20138e-07
1.10779e-16
1.04869e-17
1.91783e-16
4.76594e-10
3.05979e-16
1.16131e-08
1.07258e-16
9.30362e-17
4.4831e-17
2.35689e-05
1.30434e-05
2.24523e-05
4.02849e-05
2.95739e-17
1.24631e-08
3.51278e-17
1.2657e-18
1.35602e-05
7.06974e-17
3.17934e-09
3.30728e-07
7.87466e-06
3.4509e-07
1.00001e-12
3.01054e-06
4.46727e-17
9.47759e-13
9.36413e-13
1.20873e-07
1.22523e-06
1.73336e-05
7.94743e-11
2.26487e-16
3.41987e-05
2.08539e-17
4.11231e-17
2.55654e-08
9.1249e-05
9.26967e-11
1.60963e-17
5.40685e-18
4.99769e-10
3.41251e-17
2.2228e-17
1.49626e-08
1.12643e-16
4.34097e-17
4.5488e-05
1.97597e-07
1.53794e-07
2.68645e-05
8.77148e-06
2.91036e-17
3.01069e-18
9.59619e-09
5.1863e-06
1.42336e-17
3.89825e-17
1.34413e-05
2.68937e-16
1.3916e-17
3.54953e-16
4.31488e-16
6.52378e-16
0.00309055
5.78576e-18
2.83872e-07
9.72254e-17
2.12235e-05
1.39311e-18
1.75093e-15
4.64624e-16
1.64971e-16
3.78587e-19
8.72051e-18
4.492e-06
4.66158e-18
1.68382e-17
1.68647e-16
2.54737e-17
4.40116e-17
2.70188e-17
1.15084e-05
8.80023e-19
1.52859e-05
3.09655e-06
4.49898e-18
2.43572e-06
3.54572e-18
4.81646e-07
2.06758e-09
5.63344e-06
1.94491e-05
3.01291e-17
1.0918e-07
1.14152e-05
7.8198e-09
1.45362e-17
2.00163e-09
2.12786e-05
3.63056e-06
4.97164e-16
2.84594e-05
2.90296e-16
2.8255e-19
1.3318e-17
8.40848e-19
8.46343e-06
7.28459e-18
2.11343e-17
8.62625e-06
1.29719e-10
1.86573e-06
1.58892e-17
2.24777e-17
8.55119e-07
4.81893e-18
1.29215e-07
3.2014e-17
2.75865e-05
5.69894e-17
4.46865e-17
7.73296e-08
1.223e-17
1.36808e-07
1.9897e-16
1.99524e-17
7.80881e-06
4.9311e-07
6.40546e-06
2.18089e-05
0.000262458
2.36419e-05
5.16349e-18
2.53936e-15
2.54129e-06
8.01223e-06
4.15056e-05
1.48061e-05
2.12827e-17
1.36765e-05
2.09699e-18
2.16926e-17
8.94338e-06
1.19886e-05
3.29332e-17
1.60863e-05
1.39623e-17
4.50825e-06
9.94329e-06
2.24914e-16
7.00525e-18
1.55848e-18
2.80869e-06
1.05741e-18
3.15186e-18
4.09327e-06
2.62623e-05
4.75186e-09
9.89344e-06
3.58179e-17
3.19965e-17
8.21818e-08
8.88958e-07
4.43862e-17
1.00415e-05
1.16993e-15
2.41959e-06
1.46457e-17
2.42665e-17
1.25617e-05
2.13708e-18
4.76579e-08
3.34716e-06
8.35704e-17
8.71609e-18
3.99718e-06
3.45331e-14
5.95734e-05
2.85658e-16
0.000325762
4.66502e-17
3.10533e-16
1.52717e-16
7.15228e-06
8.48608e-16
1.8766e-17
5.84641e-06
2.3303e-16
2.41667e-07
5.8903e-16
7.80821e-17
3.89097e-17
1.70633e-10
7.4396e-07
6.0288e-18
1.99814e-17
3.9887e-05
8.7299e-07
3.95423e-18
6.76293e-07
3.06553e-17
1.30091e-16
1.39938e-09
4.17244e-06
1.66976e-06
4.44798e-18
1.20348e-18
5.4999e-17
3.45777e-18
1.66408e-17
5.65033e-18
3.28824e-17
1.25809e-17
5.72771e-17
4.64342e-17
1.32693e-17
9.05273e-17
1.38465e-16
4.85862e-18
5.28101e-18
3.97192e-17
1.70615e-17
2.31349e-17
3.38011e-17
2.76626e-17
2.50016e-17
2.08563e-05
2.42246e-17
2.84049e-17
1.2175e-17
7.10033e-06
3.35675e-18
6.64561e-17
0.000271564
5.93154e-16
1.31481e-17
2.50339e-05
2.42768e-15
4.40993e-18
6.60796e-06
2.7787e-05
9.60628e-19
1.9247e-06
3.28893e-06
2.14356e-16
1.45464e-05
4.59939e-05
1.87333e-05
3.04378e-06
1.14766e-05
1.39678e-16
3.87593e-17
3.89318e-06
1.39606e-05
2.88843e-06
1.8387e-17
6.2501e-06
1.88983e-06
2.11771e-05
1.36272e-05
4.38143e-07
1.50944e-05
1.89236e-06
9.8554e-06
4.80626e-17
3.08827e-05
8.84806e-06
2.35883e-06
1.08862e-06
2.18764e-17
3.20974e-17
1.85e-17
5.39474e-17
9.64453e-18
1.27306e-05
1.46556e-05
3.99477e-18
2.20482e-18
1.29946e-16
2.00585e-18
2.07787e-17
2.92952e-17
8.07985e-18
8.50269e-17
5.07445e-06
1.42763e-07
2.28122e-05
6.97982e-08
3.73936e-17
8.16819e-16
3.80073e-05
5.39191e-09
3.34116e-18
2.74018e-17
9.29775e-06
1.62635e-17
1.26796e-18
7.90891e-09
8.28494e-06
1.56089e-05
3.33612e-05
3.50424e-05
4.1347e-17
1.63331e-05
3.66362e-07
5.31963e-18
2.20756e-17
1.16965e-05
1.26532e-16
1.66339e-17
2.6869e-05
0.0012284
2.28563e-07
3.56069e-16
8.84083e-18
1.74674e-05
3.03192e-05
1.99902e-05
5.77176e-06
3.14794e-06
3.35117e-17
1.11486e-09
2.90404e-12
6.94648e-18
1.58844e-16
2.24073e-05
8.52248e-18
2.25119e-06
3.39143e-05
1.74228e-05
1.01705e-05
1.20337e-16
5.08815e-06
2.06562e-17
1.53171e-16
6.61449e-17
2.01565e-17
3.16749e-06
0.000928324
3.8037e-18
9.22693e-18
7.36107e-09
2.80148e-05
7.63335e-07
7.20123e-06
3.83463e-05
3.52803e-06
1.8888e-05
6.7746e-17
9.54031e-17
2.25757e-16
3.58362e-05
5.95112e-06
2.87337e-11
1.76146e-18
4.84533e-17
1.00829e-16
2.39795e-05
3.71886e-06
1.22988e-17
4.84112e-06
6.04168e-05
1.03602e-05
6.46548e-06
3.04664e-17
3.42966e-16
7.25935e-06
2.67027e-05
3.72656e-18
3.067e-07
1.53304e-05
1.17678e-06
1.13033e-05
4.88726e-06
8.55467e-06
5.82482e-17
4.16374e-06
2.44706e-05
4.49719e-05
1.09818e-12
2.74258e-05
4.68934e-17
1.80826e-05
1.05446e-07
2.58451e-18
2.32418e-06
6.25062e-06
4.05304e-07
1.23051e-05
7.03301e-10
1.97813e-07
2.19933e-08
3.44126e-05
3.44032e-06
1.7808e-16
4.13564e-05
8.58761e-07
1.65549e-17
3.45468e-18
3.88959e-11
8.81516e-09
1.27036e-06
0.00124481
4.16125e-05
1.0814e-05
2.79132e-10
4.69536e-05
2.12131e-17
5.18973e-17
5.26809e-06
3.59924e-17
4.28254e-06
6.15409e-06
1.8275e-06
5.57443e-06
6.05172e-18
2.28086e-07
0.000122535
6.54666e-18
4.11679e-05
7.65734e-06
7.30522e-17
3.36122e-06
7.54337e-07
1.25816e-16
3.8475e-12
6.65618e-08
1.0654e-16
1.55239e-17
2.96646e-18
3.08364e-06
4.68511e-06
1.58343e-05
2.45645e-17
6.48414e-06
3.35799e-05
2.4775e-16
7.98984e-06
1.23033e-05
2.70058e-05
1.64287e-06
1.33914e-17
1.02595e-06
1.21769e-05
1.02679e-05
8.20449e-06
4.26559e-05
0.000180639
4.87813e-06
2.05656e-16
7.16168e-07
6.2741e-05
5.90929e-17
3.90175e-07
1.94405e-17
1.09064e-17
7.11844e-17
4.21388e-18
3.20943e-17
3.55968e-06
2.95136e-18
5.91448e-06
1.78006e-06
3.39584e-17
5.14112e-06
1.68454e-15
1.67739e-05
1.21046e-17
1.57252e-08
1.01517e-15
2.3108e-05
1.54394e-07
2.07117e-09
3.3657e-06
2.94495e-05
1.93325e-05
4.20236e-06
2.41595e-05
6.18736e-15
2.00555e-05
6.05048e-05
8.68622e-06
6.69279e-18
1.28636e-06
3.62696e-07
5.47012e-06
1.3864e-05
7.71272e-07
1.63335e-16
6.13766e-16
5.66158e-18
4.97784e-06
1.17897e-16
8.78284e-08
1.50624e-07
8.42682e-07
3.44794e-07
1.14114e-16
1.10184e-18
7.47495e-18
8.07354e-06
2.63848e-05
1.9288e-06
8.86818e-09
2.10209e-06
7.07667e-06
3.21802e-06
1.20655e-06
8.29734e-06
7.38744e-06
2.57958e-06
2.02373e-16
1.14791e-17
1.98002e-17
1.50617e-05
1.0926e-05
4.33364e-16
4.72841e-18
5.30682e-16
9.39572e-06
2.30109e-05
1.16042e-16
2.13308e-06
5.04982e-17
6.09901e-10
6.59075e-06
9.42868e-05
5.43387e-17
7.74747e-18
4.9266e-06
4.72569e-18
9.11621e-08
1.2896e-05
6.94273e-17
1.13398e-05
3.84251e-05
1.8662e-05
2.57539e-17
1.09878e-06
1.78751e-16
8.48725e-08
5.64373e-05
2.14015e-16
3.23606e-17
1.30573e-05
6.97696e-16
1.59986e-16
3.89493e-08
1.55324e-06
1.75359e-17
3.95387e-17
1.21011e-16
8.82436e-08
1.72572e-06
4.59448e-06
2.52872e-05
1.09252e-05
1.24025e-16
5.67632e-10
6.49452e-07
2.86622e-17
1.28469e-17
2.67587e-17
7.86045e-17
6.63473e-17
1.49882e-16
4.56289e-16
5.37897e-17
1.27031e-16
4.08353e-16
1.88046e-12
1.10431e-16
4.69902e-07
9.15342e-17
1.46408e-07
3.58059e-16
7.37824e-08
9.43184e-17
2.41706e-17
2.78672e-05
1.03568e-05
5.16608e-16
0.000103292
2.6574e-12
2.34743e-13
1.17172e-17
1.2851e-06
2.95231e-16
2.70348e-06
6.04707e-09
1.17084e-06
1.44596e-16
1.02852e-16
8.33541e-07
4.9066e-11
9.79158e-18
1.56278e-17
4.39674e-05
1.24567e-16
4.31264e-05
4.15428e-16
1.29703e-17
1.23678e-10
3.13324e-05
9.11373e-06
5.84452e-17
4.35522e-07
5.97423e-16
1.83791e-06
1.71923e-08
1.82638e-06
8.44281e-07
1.28572e-17
2.30653e-05
1.106e-06
6.14652e-06
2.49801e-18
3.54412e-17
2.05916e-18
9.3025e-06
3.32594e-06
5.16495e-05
1.43057e-17
3.74004e-10
3.60195e-17
5.03999e-18
4.40185e-17
1.84637e-17
3.08568e-06
1.85526e-06
2.01229e-06
0.000349053
3.04898e-17
3.49118e-05
3.9539e-05
1.814e-05
1.4507e-06
3.86213e-17
7.65466e-06
4.21266e-06
5.96237e-06
6.76852e-10
1.01819e-05
1.50362e-16
2.17502e-06
1.14521e-06
3.75604e-05
1.01836e-09
3.32656e-06
8.08133e-17
2.02942e-05
1.86096e-16
7.45721e-18
1.83142e-06
6.6455e-17
8.81367e-06
2.05788e-16
2.81412e-16
6.41055e-16
2.88113e-17
1.2765e-17
7.32789e-07
1.03485e-16
7.13069e-07
1.48305e-16
5.10924e-17
2.34197e-05
6.66294e-06
1.0559e-05
9.73313e-06
1.11416e-17
0.000639796
3.00941e-17
7.85576e-05
1.61107e-16
2.25782e-05
2.34241e-05
2.30883e-06
6.56915e-05
9.03147e-17
2.94182e-16
2.19133e-18
2.35107e-06
4.33051e-17
4.52187e-18
1.77994e-05
1.71872e-16
2.6733e-17
5.32067e-06
4.13057e-17
1.14557e-05
9.93077e-11
8.41246e-17
3.90159e-17
4.53345e-17
2.09285e-06
6.66503e-06
7.54595e-17
2.45836e-05
2.97607e-07
2.34712e-16
0.000114889
8.56405e-17
1.63777e-05
1.87715e-05
3.97518e-06
2.33551e-16
2.04155e-05
1.0701e-05
8.53149e-07
5.25641e-06
1.50016e-05
2.3425e-17
1.2536e-16
1.89648e-09
1.2365e-16
6.11556e-18
2.78772e-17
2.08692e-05
4.81052e-05
5.19414e-06
1.80804e-06
4.76615e-17
4.87427e-05
5.05805e-05
4.8033e-06
3.57877e-06
8.78373e-06
2.46092e-05
2.49181e-06
1.56123e-17
1.96455e-18
9.00518e-18
6.36873e-06
1.33089e-17
2.99646e-05
3.61556e-16
8.2192e-07
4.2017e-10
2.58762e-06
3.02607e-05
1.84461e-17
1.62284e-16
2.60754e-06
3.79138e-07
5.07779e-17
6.14737e-17
1.56099e-17
5.45757e-08
2.44306e-07
1.24962e-07
7.49745e-07
9.28385e-06
9.59432e-05
4.70817e-17
1.0855e-16
2.08255e-16
4.06058e-06
1.96142e-05
1.72928e-05
3.40462e-05
2.74604e-06
2.63589e-06
6.69134e-17
4.01926e-17
4.23393e-16
4.95975e-17
8.94785e-06
2.32517e-05
4.89381e-17
5.43557e-17
3.19421e-16
2.8181e-17
1.98949e-17
2.03619e-16
1.34193e-05
5.63478e-16
1.33063e-06
0.000405521
1.06429e-16
1.79524e-08
1.93535e-05
3.30026e-07
6.24085e-18
7.38329e-18
4.84365e-06
2.59309e-17
1.53685e-05
1.31371e-09
2.70345e-05
1.58982e-16
1.17131e-15
1.10584e-17
7.37608e-18
1.34657e-16
2.09763e-16
0.000217308
7.06188e-17
5.56118e-06
1.52398e-06
2.72561e-17
5.64142e-16
2.17873e-06
5.90148e-17
1.56464e-17
1.53609e-05
6.74612e-08
2.08312e-16
5.48389e-16
1.1874e-16
1.69915e-05
1.71832e-16
6.59718e-17
3.79438e-07
2.52646e-06
3.09035e-06
3.26999e-17
3.92625e-17
5.69727e-17
3.61153e-06
1.74154e-06
1.23447e-05
3.3124e-06
8.4401e-18
5.81427e-07
1.63209e-05
6.36808e-06
1.60388e-18
8.30545e-17
1.22982e-16
1.02465e-16
1.87404e-16
3.10671e-05
7.048e-06
5.50382e-06
4.03422e-17
4.85778e-18
7.04471e-17
3.06641e-17
1.96444e-17
9.25813e-10
4.29254e-07
2.3503e-06
2.7516e-17
3.88072e-16
1.72742e-17
3.79353e-12
3.58983e-05
0.000122343
7.61069e-18
1.48469e-12
7.34518e-16
1.99088e-16
2.08671e-16
3.27561e-06
7.22778e-06
7.98595e-17
5.53289e-16
3.64455e-06
1.40567e-16
1.04343e-06
9.29542e-07
0.00244977
8.46928e-18
1.84821e-16
1.838e-05
4.96776e-07
4.81778e-17
0.000769787
3.67492e-07
8.22996e-06
6.68031e-17
3.11184e-17
2.09398e-18
6.64997e-17
6.83406e-06
1.21719e-07
2.16327e-16
2.72619e-05
1.94974e-05
0.00100577
3.32535e-17
4.95827e-18
1.51303e-16
3.35709e-17
6.21362e-06
5.8838e-11
2.06557e-16
1.25812e-16
1.882e-05
1.28102e-06
6.63649e-06
5.21632e-17
3.19191e-16
3.14049e-05
8.61763e-17
3.8977e-17
1.36129e-18
4.66299e-17
2.80421e-05
1.91983e-16
9.50831e-18
9.34543e-18
2.74012e-05
1.8226e-05
2.41055e-17
4.94359e-17
7.04826e-17
1.71733e-05
1.29381e-10
3.51188e-17
4.77085e-17
2.52737e-16
3.04052e-16
2.66735e-06
1.0701e-05
3.1296e-18
2.24701e-06
9.21611e-07
4.33441e-06
5.72404e-17
9.2888e-17
4.61806e-18
2.97706e-17
8.4383e-18
2.67581e-05
6.02206e-16
1.79834e-05
2.80998e-17
1.52725e-06
5.28597e-16
2.2545e-06
7.27855e-17
1.43398e-17
1.21601e-05
0.000240382
5.46767e-16
3.36736e-06
1.33245e-16
3.57931e-07
5.37438e-18
2.86886e-17
1.58629e-16
2.04957e-10
1.71264e-16
4.2822e-07
1.35882e-16
3.90269e-05
8.52068e-17
6.03411e-16
5.65468e-19
1.00938e-16
7.81408e-09
1.48741e-07
4.23976e-18
5.25114e-06
3.80117e-19
3.88804e-06
2.23256e-05
1.20494e-06
3.03394e-19
4.35805e-09
4.05197e-07
1.92491e-09
6.48569e-06
4.58002e-10
1.48679e-06
2.21127e-16
4.19454e-18
4.40138e-10
5.05866e-06
2.30624e-07
8.81256e-17
5.00842e-17
1.33531e-16
0.000572546
1.72074e-17
4.0032e-17
4.51672e-17
5.94871e-17
1.17276e-17
8.96274e-08
1.72585e-07
1.05479e-06
3.74603e-08
5.81579e-17
1.37042e-06
4.44002e-17
7.87781e-06
2.64527e-16
2.85408e-18
1.51077e-17
1.58592e-16
2.05015e-08
1.16485e-16
6.07698e-18
1.24699e-16
1.63072e-05
3.11979e-16
1.35186e-17
1.22261e-05
2.46953e-16
5.78105e-05
0.000103134
0.000532706
6.99461e-17
0.000239913
0.00144496
0.00181397
0.000794895
2.212e-17
4.02732e-18
5.07618e-06
5.9081e-06
1.14789e-16
5.34175e-06
1.82745e-18
3.25222e-05
1.42689e-16
7.72339e-17
6.48546e-07
2.46467e-16
2.96898e-16
1.02968e-08
3.64391e-08
1.63863e-18
1.39004e-17
2.1952e-09
4.82014e-16
3.20002e-16
2.52028e-08
8.66133e-06
1.28165e-06
6.75986e-17
7.55889e-06
1.45193e-16
3.0591e-06
4.90488e-10
6.83644e-06
3.94356e-17
4.96359e-12
5.86322e-06
6.81414e-17
1.31451e-12
2.76954e-18
3.51307e-05
8.55119e-17
1.12324e-05
4.05939e-17
1.72062e-10
3.37899e-18
2.03911e-16
7.21106e-18
4.41437e-13
2.67059e-13
4.52835e-18
1.19413e-05
8.57653e-06
1.79589e-17
1.69924e-17
3.96177e-05
2.33656e-05
0.000211072
1.71028e-17
6.64686e-08
2.59067e-05
5.40473e-05
5.47362e-11
1.12667e-17
6.86487e-05
2.34577e-17
0.000257965
1.30846e-16
3.43247e-11
3.53753e-11
1.44182e-16
7.44563e-08
3.93115e-16
2.32678e-05
6.93962e-18
5.0018e-17
2.47103e-17
5.03619e-17
3.83297e-16
1.47059e-16
3.63361e-07
1.77861e-06
0.000159404
1.15704e-17
7.29671e-17
4.77128e-05
5.50425e-17
1.4908e-19
1.11625e-17
3.34723e-17
1.11256e-16
1.63874e-06
6.47852e-18
6.21035e-17
3.54173e-19
1.23592e-06
5.00517e-16
9.87617e-18
1.22862e-16
2.23136e-06
2.34531e-17
4.25776e-06
0.000250401
5.19887e-06
6.84243e-06
2.07696e-05
1.32863e-16
1.29904e-17
7.39589e-17
4.03763e-06
2.22696e-06
1.75125e-17
3.9253e-15
5.87788e-07
5.8265e-16
1.01679e-16
0.000373636
2.46535e-17
2.26889e-05
2.37597e-17
2.13955e-06
4.0909e-06
4.48105e-17
1.30598e-17
9.12397e-18
2.48148e-17
7.82115e-17
2.23732e-05
5.24061e-17
3.1593e-06
2.9058e-17
9.3866e-17
6.64215e-06
1.4843e-17
1.67658e-05
9.59775e-17
5.40073e-18
2.20864e-06
1.23667e-07
0.000153542
3.87061e-16
2.86941e-17
3.54129e-17
5.56154e-06
0.000199255
5.90618e-17
5.04117e-18
7.44631e-16
1.0305e-06
1.38365e-16
2.55407e-05
3.12698e-05
4.75878e-16
7.04925e-18
6.0909e-06
2.2818e-16
5.27791e-16
6.68983e-18
6.31323e-16
3.8979e-17
7.28637e-05
1.24436e-15
3.79063e-16
2.6705e-17
1.50407e-16
4.44169e-17
5.4942e-17
1.19498e-16
7.04531e-18
2.55396e-16
1.16309e-05
3.87938e-16
7.87603e-06
7.07005e-16
1.40964e-16
0.000661377
2.76841e-06
3.50543e-17
9.75892e-17
2.8375e-17
2.16758e-06
2.53146e-16
3.19583e-16
3.08037e-16
9.96224e-17
6.05306e-06
7.16674e-18
3.832e-06
3.55567e-17
1.22892e-05
7.0137e-17
6.46679e-05
1.59374e-16
9.97938e-17
2.04755e-05
1.54173e-16
8.69021e-17
3.25559e-05
3.25171e-07
1.51834e-16
1.75872e-17
4.41414e-05
1.30822e-05
6.66786e-06
5.96533e-07
1.42859e-06
1.89206e-05
7.56443e-07
6.1068e-06
1.57939e-16
2.78941e-05
1.30955e-16
5.58177e-17
2.76022e-18
2.01114e-16
5.92364e-17
9.15513e-06
1.665e-17
2.8751e-18
1.92021e-17
1.81738e-09
1.3993e-08
1.16206e-15
3.13643e-06
1.95933e-16
4.59674e-06
6.29538e-17
1.03684e-09
6.07069e-06
8.6838e-16
4.88414e-05
1.05152e-17
1.30461e-17
2.79593e-18
2.79846e-06
1.48415e-06
1.56276e-17
1.14486e-17
2.19687e-06
8.38959e-17
0.000739275
8.32207e-17
0.000103511
3.82702e-17
1.90012e-18
6.85362e-17
7.93088e-18
1.10039e-05
2.1485e-17
5.29493e-08
1.00159e-17
9.77317e-06
4.32335e-17
4.89048e-17
5.62246e-15
4.86605e-16
3.25495e-17
5.23968e-16
1.09653e-16
1.71574e-17
4.63365e-06
0.000237326
3.71486e-16
8.35115e-18
4.74416e-07
8.35977e-18
1.02284e-17
2.08819e-09
2.01862e-05
1.88836e-07
5.68761e-18
3.59377e-07
4.25513e-06
6.00106e-06
1.02746e-05
1.74444e-16
1.24637e-17
2.80463e-17
3.42539e-17
2.37096e-18
6.84009e-18
1.64303e-17
3.46958e-17
5.30011e-17
3.45624e-17
3.71787e-17
4.36069e-18
8.44432e-05
3.0183e-18
2.41358e-17
2.13374e-12
1.6039e-16
1.11434e-16
0.00125254
3.09582e-18
7.63385e-18
1.73437e-06
9.69019e-13
7.95885e-17
3.65516e-17
1.78167e-17
2.29757e-05
1.50445e-17
3.87458e-16
4.30992e-11
3.85099e-18
8.87895e-17
1.45852e-17
7.49945e-17
0.000125556
5.17234e-18
2.37414e-07
1.38273e-17
1.01468e-17
6.87364e-17
5.84243e-17
2.26993e-17
3.57783e-11
6.04355e-11
1.68762e-07
1.17519e-16
1.26076e-16
1.19752e-16
1.25515e-10
4.07084e-17
3.24005e-10
2.34648e-11
1.48698e-17
1.11288e-16
6.96533e-17
1.54981e-11
7.95716e-17
1.19388e-16
1.81706e-12
1.25101e-15
3.62133e-05
1.83313e-17
7.17788e-06
7.50021e-16
2.3096e-09
1.4808e-18
1.71743e-06
7.26939e-18
4.42639e-06
2.49696e-05
9.93271e-18
2.74251e-06
1.22166e-08
5.73738e-17
1.03937e-05
1.62751e-17
6.81995e-17
2.40988e-16
9.20542e-17
9.04816e-17
3.56494e-18
7.52879e-17
2.77886e-17
0.000299088
2.93836e-17
6.61291e-17
2.40732e-17
4.3339e-17
2.63719e-17
3.56371e-05
0.00094473
2.75677e-09
1.61502e-08
2.92028e-18
1.91179e-06
1.29309e-06
3.02795e-16
5.11948e-16
1.52105e-15
3.7557e-18
1.10979e-16
8.13048e-18
1.18814e-16
1.24533e-16
4.60557e-07
5.76029e-16
4.03075e-17
1.49229e-07
2.39485e-09
8.70941e-17
3.16899e-05
6.70785e-18
1.27991e-16
8.5075e-17
0.0001921
3.55637e-17
2.35102e-19
2.7867e-05
1.49368e-17
5.42082e-18
5.67557e-17
1.66563e-17
6.00602e-05