/*--------------------------------*- C++ -*----------------------------------*\
  =========                 |
  \\      /  F ield         | OpenFOAM: The Open Source CFD Toolbox
   \\    /   O peration     | Website:  https://openfoam.org
    \\  /    A nd           | Version:  10
     \\/     M anipulation  |
\*---------------------------------------------------------------------------*/
FoamFile
{
    format      ascii;
    class       volScalarField;
    location    "5.5";
    object      p;
}
// * * * * * * * * * * * * * * * * * * * * * * * * * * * * * * * * * * * * * //

dimensions      [0 2 -2 0 0 0 0];

internalField   nonuniform List<scalar> 
111485
(
8.40391
1.29121
1.5001
8.35769
1.54536
8.22442
1.31319
1.14942
1.31968
1.92611
1.30179
1.66739
1.32411
1.28595
1.33028
1.35363
0.43899
8.79258
1.32052
8.33982
8.32845
8.26796
1.32835
1.34482
1.54012
8.23541
1.85316
0.753253
1.49455
8.43369
2.50835
0.307823
8.36917
8.38866
8.67485
8.45206
2.49024
0.0992768
2.93272
1.37366
8.46719
1.92319
1.37307
2.2212
2.67539
8.54495
2.09953
1.34216
1.91893
8.26876
8.26796
7.93183
8.27275
2.25647
8.27451
0.837422
1.33483
8.48524
2.08219
1.36964
1.37413
8.40296
1.06878
2.45479
8.13806
0.941273
6.32893
1.22161
1.07175
1.15221
2.63943
0.970411
8.09447
1.06793
8.49217
0.563836
8.29626
1.85026
8.26691
8.39571
2.53674
2.15976
8.32809
8.47232
1.06334
1.41238
4.19324
2.26947
2.58699
0.409785
2.71385
1.41753
1.06869
0.176392
1.92445
8.46925
8.40655
2.26683
2.40424
2.4225
8.38751
1.86737
8.43612
1.81929
1.24653
8.30086
8.41291
0.360077
1.44133
2.621
0.249563
0.969918
1.4166
1.73478
8.23332
0.53526
8.25964
8.48243
1.0814
8.34239
8.23371
7.45478
8.33015
8.48685
2.00999
8.8917
7.43489
0.414336
8.5038
3.19153
2.47714
2.26602
8.48826
7.35256
7.55041
1.28493
8.30599
0.566463
1.17354
1.19445
1.93556
1.19159
1.19273
1.48073
2.03808
0.0681961
8.30413
8.46087
8.44676
1.25391
1.48358
8.32865
2.51481
0.0102653
2.4765
1.24649
1.2335
1.33093
2.56652
8.52953
8.35817
1.24161
1.48262
2.59664
2.52393
0.493208
2.4101
8.49672
2.62547
2.64569
8.4446
8.45323
1.6065
8.36748
0.102214
0.0207436
8.18039
8.08273
8.25104
8.2497
8.06476
8.35483
1.25853
1.26213
1.24898
0.0519286
1.8505
0.678226
2.49305
8.38303
0.587113
8.08241
8.40602
0.685312
1.91583
2.40603
0.896587
0.083133
8.49209
1.26263
1.46725
6.51259
2.15392
0.391894
8.50759
0.68795
1.76674
8.07827
2.38951
2.08954
1.47125
0.667077
8.05614
8.41822
0.678975
6.31116
2.26258
8.36116
0.685628
0.586697
1.95611
8.53714
0.753451
2.35113
6.99953
8.36554
8.44814
2.6481
2.52329
8.18174
7.77907
0.592444
0.160119
0.898709
8.17782
8.15682
2.45328
8.50009
1.25057
0.587012
0.592249
0.584908
0.591272
8.45422
2.55603
0.466109
8.46847
8.32341
2.2639
0.973174
8.21491
0.297309
0.44302
8.45771
7.25481
2.12884
8.25181
8.27364
7.69802
8.29365
0.519659
0.578616
0.0411073
8.54259
0.449713
8.36392
8.39906
8.50798
2.46951
1.84949
1.022
1.0361
1.72864
1.02035
1.0378
2.57252
0.155022
0.168311
8.12728
8.45316
2.58683
0.361538
1.90226
0.195844
8.34897
1.03717
1.26076
1.01642
1.77104
2.571
1.00506
1.0266
2.1429
8.48658
1.83426
8.36835
8.81076
8.31675
2.64266
1.73634
1.35424
8.27307
8.51824
0.802166
0.26345
8.32328
8.4225
8.28038
0.578078
0.174751
1.23253
1.28583
1.39304
7.84327
8.42122
8.48076
0.805427
5.06246
1.3567
2.59224
2.43636
8.32496
8.39883
8.40511
7.54392
0.865457
1.53421
8.4796
0.85638
8.20258
8.24131
2.31558
0.860407
1.71573
0.849653
8.33944
7.52287
8.45262
0.857234
0.0511591
2.5285
8.1886
3.34078
2.49121
1.55633
0.76777
3.81411
1.40537
8.28956
1.40667
0.873432
2.57466
2.30487
1.56584
8.40249
8.48209
8.43002
8.362
1.22059
0.743299
1.7179
1.40573
8.39633
1.63538
8.4215
8.41068
1.40458
8.37635
7.55455
8.55907
8.45816
1.24973
8.48696
0.0440159
1.62183
8.26809
1.12606
0.901306
8.26109
0.883318
1.64958
0.893799
2.40019
0.0934964
0.176875
8.34963
8.45953
2.21592
8.48059
1.69812
2.33856
8.16482
8.46521
0.84381
1.68084
0.145126
1.62767
8.29929
2.49847
1.66333
8.20829
2.21709
1.67794
8.41843
8.34879
0.0442418
1.54226
8.45862
8.26417
6.80025
8.38586
1.58005
8.36237
8.37788
1.66935
2.49237
2.05239
1.54816
8.23044
7.55359
2.23124
7.62717
2.21596
2.24582
1.9089
6.44946
7.67777
-0.0321789
2.64539
8.43118
2.30554
1.62406
8.53791
2.62978
1.95101
7.64966
1.71952
1.66241
0.0999455
8.24522
0.209964
1.7579
0.0996688
2.6786
7.42215
2.45264
8.48692
2.5232
-0.00972617
8.44098
1.71617
2.12592
7.29801
8.53891
7.90567
8.32681
1.55563
0.116327
1.69927
1.71158
2.38352
8.36813
1.70499
8.41266
1.55182
8.18863
8.41072
8.46044
1.70999
8.46651
8.4173
8.55146
8.40662
8.46058
2.13196
8.48767
7.95533
8.42174
8.41436
8.21838
8.48745
8.2788
1.7233
8.42336
2.14844
1.76628
2.80827
8.19803
2.1493
8.4279
8.40115
1.71223
1.6922
1.74943
2.59165
7.905
1.97329
1.98139
0.120681
0.189525
1.76338
8.44937
0.110835
7.30438
1.97549
8.37814
1.98954
7.45552
0.234761
1.69915
8.4426
8.46456
0.183824
8.31381
1.97035
1.96378
8.4653
8.43202
8.30381
8.4339
2.22103
1.96333
8.15301
8.48076
1.5494
8.26873
1.97419
8.28922
2.07246
8.40466
1.93402
1.97937
0.886582
0.222843
8.16217
-0.0410887
8.18313
8.38141
1.81368
8.38159
1.94571
8.31123
2.01246
8.44008
1.82677
8.3239
7.6603
2.78699
1.80697
1.96179
1.81898
1.97055
1.6769
8.44276
1.97072
1.81389
8.35137
2.65516
2.44684
1.97788
8.18958
8.31169
1.54661
2.01111
5.41836
8.05867
1.81607
1.54033
1.85525
1.86109
0.294995
4.63766
7.59572
2.38912
5.02851
8.36511
1.96509
8.48243
7.68392
0.405836
4.6098
2.39455
3.85319
7.59683
1.8671
1.54277
8.19531
7.95362
1.54223
8.28268
8.26349
8.27952
8.18699
1.87206
8.42016
8.48207
1.8906
0.603542
6.9152
1.51303
7.89137
0.59461
8.27064
8.44923
1.87981
8.37537
8.20308
7.66161
0.0773467
6.10517
1.91697
0.410455
8.27923
2.71156
1.90856
1.59275
2.42695
3.08043
1.55468
8.38589
1.9218
1.59007
8.51233
0.914833
2.16359
1.6308
0.0696956
1.63663
1.63224
8.49237
1.97295
2.39028
7.64228
1.63528
1.98431
6.23591
0.408492
1.63124
1.98957
1.72071
1.73917
0.411661
8.22625
1.73449
1.95064
8.40957
1.84174
1.84175
0.436923
8.38515
0.0727259
8.53016
8.3129
8.40843
8.18634
1.58793
7.72078
2.18004
8.41163
8.19036
1.85256
1.85429
8.31157
1.97503
8.40123
8.50562
8.27667
2.02403
1.97343
7.67997
8.50456
8.37577
8.39256
2.45263
0.437015
7.55704
1.80931
2.60298
8.46307
1.81335
2.09249
0.265789
8.25105
8.36203
0.952144
0.431575
7.63627
8.4401
8.13728
0.70383
8.45759
8.27033
8.35549
1.79378
1.43228
8.27132
8.59122
8.40745
0.311406
8.47724
8.21339
2.02415
2.45547
7.62234
6.93433
3.68026
2.06959
0.0129525
8.10181
1.52078
2.13642
8.48689
8.26752
8.30991
8.36804
8.4272
8.28111
1.80537
8.40024
8.30879
8.19146
1.8064
0.42688
8.24667
8.27553
2.07492
0.430222
0.445756
8.28283
8.31411
0.435977
8.46473
1.81019
0.428611
0.448718
8.23328
8.38575
8.38529
8.40002
1.55894
8.32448
8.29049
2.26291
8.38113
0.743217
2.132
8.14769
0.417459
8.18064
0.739901
1.88135
1.94157
2.05774
2.10702
7.83813
0.734595
2.08101
0.0112033
8.21861
1.55853
7.69531
0.133626
8.40852
2.14197
2.09399
2.13948
8.31127
8.39238
8.54125
0.430369
7.8944
0.266217
8.00175
1.4005
0.126317
0.309302
0.435043
8.28213
8.18798
8.0993
0.441297
8.20103
7.84156
2.70478
8.47571
8.47711
8.3842
8.31326
0.314952
8.11445
8.36053
1.91942
7.87924
8.49191
7.61899
8.34945
2.1283
0.303678
8.33109
1.56132
3.65489
2.14323
2.65659
0.371085
8.43432
1.89577
2.43861
2.14467
8.47738
1.29872
0.313927
7.3259
0.2874
2.59844
2.69719
1.13483
0.211258
2.62497
0.0731352
0.277722
8.38909
8.18471
0.206036
0.200286
8.45778
0.206151
1.69753
0.274733
8.15885
2.66786
8.40683
0.283595
0.268222
8.24026
0.111071
0.275275
2.65084
0.054308
8.12306
1.22934
2.66102
2.84945
2.63436
2.30638
8.38345
8.4126
2.26753
8.30892
1.7568
2.32071
7.43385
2.57751
2.33932
2.68969
8.31303
7.27057
0.638722
8.50294
9.23741
2.3027
8.18639
8.22507
2.40829
2.29155
8.31097
2.68656
8.3661
8.37474
8.50965
8.4051
8.28312
8.4604
2.34383
8.17727
8.44495
8.4643
1.94258
2.33845
1.44656
0.630862
8.2582
8.20031
2.40959
8.34383
8.22619
6.87485
2.35109
0.825068
8.25599
8.21633
8.19638
8.21364
8.40187
8.20262
2.38116
8.2026
2.63521
1.39861
8.39071
8.40049
8.2718
2.68166
8.26848
8.35974
8.40467
2.65036
8.41376
2.37802
2.47879
2.62174
8.27312
6.4329
2.40175
1.34471
8.06529
2.64526
1.99912
8.27989
8.11414
7.51029
8.21538
0.636137
1.21777
2.44217
2.59565
8.24488
0.633151
8.08769
7.57379
7.48283
8.44817
1.1066
8.3532
8.276
2.52819
0.825475
8.27473
1.95608
7.92
2.43368
8.35353
8.37892
8.40958
8.37629
0.30125
1.20611
3.14602
8.25338
8.17855
0.298633
8.31141
7.7407
8.40836
1.78972
2.60047
1.5631
8.26795
2.55383
2.54703
8.50235
2.55644
8.18934
2.22585
2.00217
1.17688
2.53084
2.47881
8.32731
8.36953
8.37066
2.54861
8.53131
2.55864
8.52082
3.40028
8.26464
1.35581
1.40229
8.27881
8.29572
8.2855
8.47497
2.55614
8.28849
7.51669
0.293752
2.56201
8.29266
7.71684
8.13685
7.73337
8.18676
8.33287
2.57295
2.01359
8.35596
8.23856
2.45662
8.41178
2.57317
0.307492
8.1903
2.26085
8.38122
0.186033
8.17308
1.49907
8.23568
2.5212
2.5982
2.61281
2.27366
2.2703
6.10744
8.08733
2.29352
8.26773
1.09994
8.29615
8.43792
8.00501
8.42619
8.45583
8.45487
2.26433
2.26017
8.38257
7.34403
8.27839
2.30103
2.67323
8.42051
1.11091
2.64484
8.27315
0.396949
0.281156
1.05524
2.62326
8.30944
8.35005
8.40999
8.28536
1.11325
8.38268
2.32414
8.33555
2.32975
1.50768
8.41448
2.31709
8.44708
8.30343
2.34146
2.44778
4.35515
8.33595
8.279
8.20738
1.14972
8.03087
8.54986
8.07885
3.56153
7.5019
2.54323
7.71427
8.05245
8.14315
0.339778
0.300564
1.68878
1.26225
8.50867
2.33402
8.38117
8.45807
0.295413
8.15975
2.49079
2.32597
0.215919
2.3556
2.23782
1.66146
8.43877
1.92822
1.00424
2.02871
2.40293
0.852328
6.67525
8.3986
1.60951
8.28359
8.22023
2.72948
1.92405
2.22636
8.37148
8.27443
2.51955
8.27247
8.17648
2.37105
8.28009
8.27702
1.04876
2.37334
2.41268
1.00607
0.512729
8.19852
8.32429
2.69521
0.985764
8.27879
8.27769
1.72991
8.19074
7.3167
7.5286
7.55609
5.91855
7.33919
8.28005
1.6394
8.20328
2.40866
8.23632
5.3044
8.1914
8.17954
8.44213
8.30765
1.52843
8.31123
8.30764
7.63892
8.22028
8.43703
8.37445
0.935218
8.32588
0.849627
2.42222
8.17924
1.67522
8.26157
2.06367
2.62901
0.226588
0.240017
8.2327
0.254796
1.5299
2.60308
8.50434
2.46132
0.741639
0.121297
7.92887
0.15062
8.19244
8.43697
8.22774
8.27315
0.151059
8.36642
8.22426
0.121222
2.43772
0.118799
8.46458
6.62814
1.66419
8.40807
2.66968
8.27088
0.246385
8.1627
8.18169
1.64287
8.23343
2.5036
8.41155
8.23616
0.735272
2.11461
0.541615
1.18551
2.69708
0.944608
8.23954
8.37063
1.41708
0.563418
0.927546
2.46067
8.31033
0.856552
8.29765
8.2374
1.43243
2.4991
8.19497
0.572284
8.43111
0.546878
0.509298
8.09254
8.27574
8.39997
1.41651
8.36325
8.3634
1.42556
0.545436
2.38991
0.142295
8.25201
8.43188
1.77182
1.43732
8.24521
1.4219
8.20109
1.41458
8.26327
8.24864
1.406
8.31454
2.00847
1.30757
8.19776
8.27706
1.30028
7.30386
1.58903
8.40012
2.41163
8.4142
7.36127
7.21379
1.32292
7.66758
7.60653
1.21302
7.58774
5.74726
7.23647
8.18332
8.28272
2.599
1.58691
8.38391
8.38126
1.56253
1.57115
8.19819
1.4312
8.28397
8.28299
1.81226
1.72388
0.111985
8.25897
8.38369
8.36656
8.30846
8.18547
8.18943
8.38407
8.20172
8.21153
8.27705
8.36974
8.28407
8.3342
8.25193
8.21499
8.22538
8.24982
8.27645
8.32066
8.36555
8.46329
1.60192
8.35071
8.25287
8.4599
1.0936
8.4916
8.28189
4.89194
8.13854
8.0712
1.10414
8.49121
8.0898
5.24389
1.11034
8.33431
7.41594
7.75535
8.22293
2.21489
1.11421
1.1189
1.07302
0.677972
8.289
8.22656
0.828379
0.870357
1.06821
8.29462
0.985434
2.14555
1.06455
0.182565
0.205592
1.07871
0.347748
1.06145
8.5147
1.20759
0.982889
1.50072
0.983489
8.40254
8.37572
8.43202
8.38265
8.39804
0.864319
0.998912
8.39798
8.2143
8.2006
8.24129
8.23212
8.29751
8.15947
8.2845
0.98404
2.62163
0.992456
1.65208
8.15612
8.11636
2.18704
2.6664
8.27252
8.30844
1.5794
8.5279
8.35521
0.996532
0.974631
0.983725
1.56198
2.16997
8.30021
0.017425
1.17707
7.51823
8.28573
1.16104
8.2884
8.1802
4.53312
3.76724
1.65002
8.21344
8.5028
2.46917
1.19861
0.0336549
0.868378
5.18805
8.3865
2.31935
8.41421
8.52114
8.08722
1.54746
8.22848
0.86353
0.0441025
1.15146
1.19012
8.45423
0.756143
8.47642
8.01984
8.45812
8.25927
0.284249
5.92134
8.31214
8.35043
8.49003
0.868528
7.47965
0.775905
0.866084
0.277414
0.867811
8.24321
8.21135
7.44064
1.53635
0.657855
2.2727
8.26826
8.40175
7.46217
2.19428
1.63519
8.31012
0.621568
4.59046
1.19509
0.652495
8.36822
7.33791
0.653431
0.863432
8.37872
1.92913
1.8605
1.64512
0.753747
0.67749
0.705563
7.51821
0.263871
0.705021
0.59976
8.30411
1.1463
7.57725
1.50834
0.734188
8.54086
0.188458
0.696927
0.766126
0.912275
8.80505
4.34173
2.42943
5.77802
0.703013
8.0236
0.225224
0.697526
8.2548
8.3229
2.66298
2.63668
1.01102
8.76265
1.68345
2.66434
2.17638
2.49318
8.23625
8.52974
0.859466
8.50264
0.775255
2.61906
0.702167
0.222157
8.33503
2.04802
0.852867
8.27705
7.57801
0.548212
8.46102
0.550642
0.515537
8.40733
8.78451
1.20608
8.30483
8.25379
8.49092
0.218061
2.89906
1.54673
8.55031
1.50239
0.380835
8.15857
0.379065
0.4013
0.243977
2.64358
8.284
0.766228
0.179671
0.395356
0.392648
0.252429
2.58137
1.3864
8.39932
0.00637581
0.27087
8.36863
0.396465
8.46029
8.35788
8.48696
8.48404
8.34674
2.21519
8.42755
0.379875
1.79523
8.51365
1.74098
8.24519
0.272317
8.27842
2.55689
8.05285
1.44896
2.30121
2.67042
0.417495
0.271549
1.49808
0.244637
0.421226
4.74737
0.416039
0.959063
0.424569
8.51257
0.867741
2.65518
0.425457
1.34115
2.64282
8.50309
7.52862
8.25588
1.51818
8.34146
7.02482
0.269398
8.51203
1.86339
8.27159
8.47778
8.31059
0.948951
1.58877
0.456646
2.33819
0.227949
0.814514
0.779578
0.969134
0.307816
0.774855
0.802422
8.28335
8.3933
8.53583
1.20235
0.849383
8.16905
8.30972
7.10928
0.78731
0.318062
8.32574
0.802607
8.41902
2.61494
1.52618
2.41221
8.3663
8.40554
0.951122
8.38096
2.01042
0.421006
7.99755
1.07513
1.34297
0.179583
8.25822
2.47065
7.6696
1.91683
1.54479
8.37249
8.50107
0.403351
6.69379
8.48153
0.529627
0.209687
8.39683
8.25161
7.62711
0.781961
7.0937
1.21149
2.2021
1.89469
8.40364
7.59901
2.15741
8.40761
8.37482
8.44505
8.3418
7.67966
8.0946
7.98742
8.27502
8.2075
7.90917
8.5149
8.03517
2.01659
8.03791
7.41441
7.16773
8.86253
7.5095
8.4052
2.20321
7.84913
8.07951
2.25893
8.39032
8.63815
8.21348
2.20627
8.50137
2.20275
2.4115
1.90058
7.808
8.326
2.20483
2.59585
8.20654
8.50815
1.20088
7.74806
1.19453
7.69612
8.37419
8.12944
1.19144
1.18237
8.43101
1.72252
8.29568
7.84384
2.54371
0.634447
2.20161
8.4641
1.19719
7.73182
1.84559
8.28238
8.26352
8.25099
7.57041
0.629592
0.758809
8.46973
2.36513
8.27776
8.28456
8.27595
8.34591
2.07447
2.07069
0.775604
2.85805
8.51341
1.5275
1.21669
0.581581
2.07079
8.49154
0.612598
2.0789
1.07565
2.61714
1.13586
8.27747
1.43134
2.10543
1.20633
2.11758
2.20606
8.26784
2.22925
8.15613
8.41261
0.993802
8.47332
1.52521
8.44026
8.27769
8.07415
8.2652
8.49095
2.09898
8.25479
1.75494
7.82263
8.39792
1.48038
2.03891
0.811479
1.69352
8.49446
3.37084
8.47176
1.86011
8.27749
1.4821
2.06911
2.10156
1.87877
8.28883
8.29367
8.22649
0.66087
8.40576
8.2753
0.659319
8.15614
8.23077
2.10182
8.28816
1.15742
2.5945
7.79476
7.92622
7.88244
0.769153
1.2836
8.34151
0.0286361
1.81259
7.68995
2.13623
8.45143
0.671674
1.50369
0.59223
8.32881
1.58474
0.838103
2.20656
2.05676
1.74983
8.37437
8.39128
2.64404
8.28878
8.28158
8.42458
0.674749
2.16051
0.880775
1.32958
7.59697
1.57567
1.20879
1.29478
1.51829
1.58568
1.96785
1.73884
8.30848
8.30353
8.30486
1.74858
8.39907
1.81384
6.5102
1.73567
2.50448
0.673946
0.336836
8.23474
8.43178
1.74038
1.73244
8.419
8.32434
8.52762
0.732893
1.73355
1.7885
1.80432
0.188084
1.20884
8.29187
8.4785
8.40048
0.165655
1.15842
0.0221468
1.32114
0.762752
1.81868
8.18776
8.39908
7.23171
8.1851
0.19893
1.55995
8.38342
8.26887
8.27642
8.51181
8.50739
8.07981
1.87381
8.31987
2.27213
2.79592
8.21255
1.84014
0.0637359
0.706509
8.48089
8.12542
1.8644
8.37898
1.87223
2.16355
0.775706
8.04958
6.86922
8.2894
8.32058
8.29281
8.00562
4.32521
8.26242
1.88989
0.877471
8.40305
8.39552
1.91686
8.29081
8.36007
1.05964
2.64045
8.26658
8.26386
8.07762
0.40919
8.38292
8.3881
3.68717
1.91256
1.91849
8.333
8.21026
7.72721
1.91934
1.90272
1.91587
1.36628
8.26221
0.350104
0.0731061
0.0898168
8.42584
8.48773
8.40091
8.47563
8.38324
1.06154
1.08346
0.873096
8.52614
8.44711
8.37946
8.43026
8.15764
2.31925
0.195557
0.0414321
8.18644
8.37023
8.55052
2.26466
2.16348
2.47869
8.3719
1.58839
8.42587
8.22602
8.38875
1.05596
1.1688
8.28068
8.2522
1.42934
8.39149
0.776239
0.96641
4.74083
8.27458
8.19076
0.782792
2.34237
8.21382
4.61113
0.136961
1.54969
8.32175
8.28786
8.51466
8.40408
0.221668
0.545298
8.28957
2.33447
2.02357
3.02881
8.34258
8.29155
8.28261
8.28963
1.58274
8.51187
8.34646
8.15224
0.36588
1.77609
0.450375
8.19936
8.49341
2.02038
8.02562
8.39303
8.29674
8.32079
1.12157
8.08257
8.22376
8.23621
0.448313
1.16578
8.28833
8.46405
8.24691
1.35717
8.35562
8.24657
8.25106
8.47347
8.45107
2.71246
1.56588
8.56668
1.24673
1.56461
1.09312
8.52499
8.50434
8.36945
8.48389
8.2279
1.48026
8.34221
7.83386
7.91111
2.0235
8.01947
2.01248
8.38527
8.39786
2.41981
3.09126
7.72107
2.03586
8.33982
2.02937
8.42444
8.26662
8.31706
9.00062
8.27762
2.2983
8.27606
1.31687
8.41681
7.64116
8.45663
8.28866
0.419886
1.88099
8.30027
4.69464
8.48142
2.02951
2.29919
1.86747
8.49076
2.59809
1.853
2.30826
1.59157
2.49849
1.87286
8.09653
8.24489
2.43953
0.666554
1.86632
8.26297
8.03588
7.2653
5.09986
8.52638
8.194
8.46792
8.50904
8.53788
8.45714
1.85521
2.42618
0.881846
7.55699
2.55279
8.46804
1.50092
8.40234
8.53476
8.3477
8.07406
2.40856
8.08477
8.48243
8.33906
1.28982
8.34979
8.43136
2.39629
8.24984
6.75621
6.21411
5.99751
8.51262
6.143
6.02751
6.11427
6.56485
8.25316
8.25314
1.27644
1.93714
7.65874
7.6751
8.27095
1.29035
8.40223
8.19014
2.38929
8.30042
8.37614
2.0548
2.42506
8.5088
8.2099
2.60715
7.60833
8.15857
2.62958
1.38642
1.36633
8.16924
1.37928
8.48934
0.859153
2.57435
1.3677
8.35004
2.58187
1.37412
8.25464
2.18474
8.24849
1.29354
7.94953
1.28142
8.17388
2.29612
8.2635
8.11545
8.41448
1.89461
1.90144
8.49889
1.40608
2.32949
8.57016
8.34611
1.05525
0.0587418
2.74112
8.52092
1.44661
1.42475
2.40821
2.31147
8.53619
2.71457
8.24218
2.62796
8.40281
1.74539
1.55964
8.24365
0.898541
8.1857
2.38479
8.30193
8.24708
8.28388
8.4164
8.27508
8.39069
1.93288
1.08031
2.61256
8.27506
7.13144
2.61053
8.28448
8.51022
8.25897
8.51333
8.27958
0.052613
8.34954
8.48209
8.24214
0.0461933
8.25696
8.31759
7.96641
0.224346
8.3464
0.212231
2.35191
1.87102
0.222735
0.212696
8.42288
8.28256
8.3591
0.243451
0.458632
8.09234
7.11416
0.235933
8.42619
8.491
2.61089
8.24714
1.4183
8.27435
0.215326
2.3743
8.28206
8.24929
8.27668
8.47081
8.42304
2.40011
8.2783
0.233968
8.27798
8.32769
0.515386
8.41675
1.50307
8.13563
8.43029
1.95414
0.899937
2.64615
8.46896
8.47425
8.36453
0.897962
2.56539
8.27472
8.31777
8.04266
0.562122
8.2722
1.51782
2.63276
8.32195
8.29296
0.569549
8.39579
8.03372
8.34641
8.25123
8.38106
2.62147
7.05097
8.18098
8.45297
7.16443
8.29617
7.31351
8.22574
8.26208
8.18835
0.899074
8.22681
0.550828
8.1768
8.28326
2.82485
0.562724
8.26878
8.24726
8.29009
0.547518
7.49748
8.3443
8.12154
8.2856
0.612244
8.26975
2.6426
8.52828
1.82125
7.63445
2.18195
8.24929
8.41899
1.73782
7.38189
8.27674
0.455881
1.78495
8.51849
8.46848
1.94491
2.2176
0.558801
0.550169
0.558816
1.95814
0.552111
2.26296
8.26965
2.63948
7.17747
7.10433
8.33464
8.22173
8.41338
0.545318
8.51588
8.53213
8.5068
2.50467
2.24539
6.9682
2.03882
8.48251
2.09596
8.14925
2.43211
0.608377
7.22419
1.79341
8.22864
8.23225
8.30324
0.609902
1.83085
8.36261
8.36518
0.61345
8.46789
2.70763
8.43111
2.58465
8.39142
8.30236
8.48628
8.29838
0.49159
8.29773
3.09854
8.41669
1.88281
8.33475
8.29898
5.88485
5.67444
8.30147
8.30662
8.40033
8.48558
1.78671
2.69174
6.48195
8.45988
1.83027
8.26817
8.40313
2.58718
1.38907
2.52168
8.30754
0.341172
1.93873
0.952767
1.47853
8.40659
8.53711
8.54013
8.4771
8.3128
8.299
8.29907
8.21634
8.30749
8.29921
8.38244
8.29253
2.57182
8.30306
8.28897
8.7389
8.47698
8.33726
4.75552
8.26272
8.30934
1.47382
2.6658
8.23035
8.51511
8.37812
1.29397
8.49229
8.3923
2.64392
8.35745
8.27813
8.42208
8.45412
2.41889
8.33736
2.71565
8.45718
8.41613
8.31374
8.33994
8.29703
2.65201
2.64913
0.72224
8.48088
8.14646
8.51519
2.66078
8.27457
2.64724
2.68161
8.35091
8.24423
6.96658
2.56522
8.24003
7.69742
2.56982
7.03023
2.00011
8.42444
2.29678
7.00517
6.64848
8.38413
1.76363
8.36372
1.77515
2.42084
8.26172
1.78855
2.5974
8.39303
2.42684
8.22878
8.25306
8.28006
8.24404
8.19943
8.28577
8.27404
8.51245
2.64251
7.75878
8.35188
8.42024
8.26059
8.2478
1.30447
5.62858
2.68536
2.72002
8.27869
1.68903
1.68991
8.36511
7.68907
8.22438
8.22276
8.24751
8.27932
7.29988
7.78359
2.0928
8.32417
8.52112
6.97654
7.32825
8.31866
1.75481
8.21243
8.19643
8.47143
2.54007
8.50923
8.26597
1.97623
8.34197
8.45393
8.19902
8.56273
1.98849
8.33115
8.31855
8.30066
8.25147
2.10659
2.54752
2.54545
1.76126
2.22452
2.22812
8.36654
7.3812
2.73083
2.17338
7.37542
2.72902
8.45463
2.16861
8.19127
2.54323
8.35518
8.20469
2.23531
1.95173
8.25975
2.16893
8.34851
8.40951
2.54184
2.43378
8.4786
8.28495
8.26506
8.30917
8.29464
7.48893
8.48209
8.40536
2.15873
8.48528
8.38579
8.33791
2.2447
8.28555
7.51594
8.33036
8.29325
7.90046
7.62088
2.2438
8.19054
7.6371
1.32072
8.46669
2.1619
2.15137
8.29625
1.35751
8.39384
8.0149
8.47884
7.55566
8.42282
8.50902
8.53626
8.52728
1.3538
8.49429
8.4341
8.49239
8.18939
8.34678
8.21841
2.57172
8.38545
8.46299
2.42165
8.36416
8.318
8.48741
1.34547
8.32216
2.48715
7.48506
2.62055
0.169546
8.30569
7.37937
1.3115
7.19701
8.30366
2.65821
2.57931
0.00940943
2.33889
2.71371
2.11595
8.45421
8.17622
1.65216
2.59344
2.52278
1.60092
2.63784
8.4073
0.304915
1.63776
1.63824
8.49129
1.63509
0.259902
0.948866
1.55514
2.57966
1.69858
0.37412
1.52008
0.0540262
0.709045
1.56415
7.52676
0.100907
0.0138933
1.75982
2.04487
0.0978393
1.55926
0.0698679
7.63117
2.63356
7.59449
0.850766
1.65207
2.0704
1.2423
7.59098
8.31243
1.52858
1.25353
2.59199
2.54779
0.439725
1.64932
6.14111
1.65648
8.38515
2.89582
2.60967
2.3342
0.956741
2.61078
2.63771
1.89651
1.17173
1.17316
0.868093
1.657
0.145087
7.05397
6.50172
1.66555
8.29189
8.3826
1.57557
1.60535
0.141112
8.30646
2.3559
2.43356
1.14908
6.64183
8.38429
2.57451
0.041061
2.61269
8.53749
0.428231
8.42371
1.23175
1.87516
2.26342
2.28664
8.29991
8.39402
2.47674
1.60688
1.61635
8.39302
1.2899
1.60171
2.04515
8.35718
1.16624
0.106332
7.5798
0.954577
1.98352
2.48943
8.14577
2.40446
2.79505
8.39245
1.98738
0.193775
3.91312
2.00913
2.02309
0.377977
1.7703
2.02457
0.143131
2.56011
2.51991
1.91023
0.338395
1.69268
2.65433
1.24839
2.02303
0.719735
1.57396
2.66467
0.390907
8.40694
2.01837
2.00738
2.55635
0.517282
2.32545
8.18594
2.01256
0.952509
8.41147
2.34312
0.0352691
2.02092
1.93533
0.249263
0.0155236
1.74515
1.94727
2.38779
8.4117
8.37911
2.40078
8.45496
2.40892
2.36834
8.09207
0.253539
2.06294
1.26894
8.49198
0.953487
1.08331
2.35629
2.60246
1.06524
0.470677
1.30833
2.18063
8.38279
8.25068
2.56966
2.16505
2.33022
1.37518
8.25043
2.18053
1.88637
8.08838
1.29849
1.66435
0.0682061
2.71051
2.24118
1.87136
0.408736
1.45018
8.45804
2.02424
1.02941
1.92181
2.70507
8.25276
2.26583
8.30481
8.3606
1.09366
1.87059
1.1871
2.98157
2.41458
3.89109
8.32711
1.8679
1.90037
1.25256
1.21131
8.27936
8.49111
8.47849
1.21141
1.21267
2.69321
0.941966
8.03252
8.26048
1.20572
1.34834
2.30384
1.21379
1.20724
1.45896
2.2049
5.81527
8.25295
1.84036
0.145894
8.25813
1.7248
1.43906
2.82339
1.84011
1.43583
2.39145
8.25918
1.24947
1.49502
8.4458
8.04698
0.102809
0.194066
0.516126
0.223272
1.44869
1.46259
0.3758
0.946452
1.34573
0.214758
8.24819
8.23602
0.0116942
0.251529
1.43445
2.7173
1.40338
1.35683
1.9073
1.18572
1.39649
8.28283
8.44965
2.69344
8.24123
7.49527
1.51345
0.964376
1.46632
2.64821
7.78414
2.2644
2.73226
7.88347
2.72711
2.66887
1.39632
1.40546
0.105008
1.61956
2.58001
0.238939
8.36894
7.84514
2.49373
0.467842
1.20919
0.48154
2.33338
2.14382
2.56667
7.86487
1.48898
0.353864
1.29152
2.71348
2.25433
2.51018
2.67284
1.48309
0.351643
7.79095
2.0811
1.43239
4.79795
7.54106
7.16942
1.29655
7.43616
0.0789519
1.29178
1.2095
1.6191
2.43262
6.29429
4.95806
8.37264
7.39813
2.39511
8.30252
8.30264
2.10418
8.37348
0.948521
1.25041
1.15911
0.884885
0.939296
1.65206
7.15241
0.459083
0.210513
2.1302
1.569
0.889947
1.47575
8.3179
2.6815
0.867338
1.88461
8.30477
1.97219
1.53364
8.3013
8.27752
2.33512
0.853199
8.45919
1.73692
1.56249
2.3511
8.45667
8.29776
0.150177
2.64734
1.63798
8.30943
8.41902
8.30118
1.88118
4.62707
4.46417
0.594719
2.57775
8.52885
0.601754
2.58939
1.33451
0.161828
0.15293
0.644846
2.60081
0.176091
8.51831
0.666594
0.363169
0.0612489
1.07452
0.258705
0.259483
0.266921
0.283926
0.0793344
2.42941
2.65536
1.46547
2.37203
2.6011
2.59179
0.272476
2.6568
0.277898
0.0732715
0.786645
0.490682
2.35364
0.48306
2.67326
0.55611
7.99962
1.49267
5.47806
1.11047
1.64761
8.44676
2.02111
8.0032
1.7273
8.02477
8.22333
1.174
2.06465
7.56506
0.462705
1.21678
2.05908
8.26245
8.47187
2.42602
0.665232
2.65261
1.09709
0.381572
2.00982
2.55355
1.92382
2.02739
7.24504
1.47984
8.32552
8.25438
0.840096
0.611057
2.66057
0.803625
0.538703
2.03061
2.09753
8.15836
2.56055
0.527746
2.00236
8.16096
8.5069
1.48396
1.72964
7.01135
2.33724
0.0630989
1.77855
0.0555754
0.442532
1.114
8.27927
5.97589
0.893489
2.5045
8.53005
0.843459
2.33907
1.85468
2.8437
0.893244
2.8153
1.48286
2.43113
6.22058
2.48082
8.32927
1.70982
2.05325
0.422667
0.0284802
7.39258
0.0394195
2.50721
1.95082
2.41932
7.89142
8.29917
0.938535
2.47723
1.95387
1.68927
2.32465
0.676492
0.142501
1.28414
0.168308
0.112547
2.34578
7.69592
2.65828
1.92517
0.0115289
2.29037
7.82154
8.23989
1.39557
2.63133
8.44393
2.62302
2.13475
7.84149
6.33057
6.542
2.08972
0.873434
3.0097
6.80157
2.33512
0.992534
8.00688
0.360875
7.49824
1.85549
0.684762
8.41472
0.176507
2.31115
2.30615
0.610506
8.27003
2.6443
2.20185
2.44245
2.31091
2.40301
2.4471
2.10904
2.72623
2.17083
0.359434
0.886559
8.25957
7.30507
7.27578
8.09619
1.98088
1.02909
0.904476
2.29242
0.527311
0.914256
1.7751
2.06641
1.98344
0.663037
2.13034
2.2843
1.87772
0.492217
8.34304
2.28714
2.2771
2.02214
2.14855
8.01019
1.20401
1.22726
1.68269
1.68251
1.34916
8.17749
1.34528
1.34187
7.4997
1.37202
1.90819
8.09736
1.35231
8.07992
8.48724
1.20226
2.05123
1.92242
1.33551
8.23197
0.229388
2.12332
8.48742
1.0984
1.39661
1.14594
1.95539
8.10467
2.07271
2.06531
1.82614
8.1634
0.966727
0.37368
1.8601
0.833021
1.03609
8.50325
8.02453
7.72492
0.085167
7.82138
0.943512
0.783441
0.266048
8.26579
0.294459
8.12584
8.34338
8.22704
1.15892
0.0205169
2.67104
1.86145
1.018
7.92655
7.498
2.32559
2.28571
0.781215
2.56677
1.01515
2.57779
8.33811
6.73497
6.82857
8.27708
6.86901
0.0494367
8.37895
0.948207
1.75848
1.01837
0.203332
1.20779
7.22434
0.796341
1.7627
2.0514
2.4121
7.2554
8.3236
2.11356
0.796783
2.69799
2.54361
2.57771
2.64933
2.6547
2.68783
0.611833
0.140897
0.614592
2.33883
0.595384
1.77294
1.9026
0.409398
0.595637
2.56607
2.51024
2.53379
2.23842
2.03837
0.421249
2.42668
8.47998
2.17007
1.55358
0.235333
0.147098
0.050444
1.77654
1.35162
1.42675
0.154513
2.6447
8.29646
0.950017
1.27575
1.45146
8.27817
1.08148
0.606847
0.164449
1.32685
8.52335
8.2739
1.92645
0.389157
0.363228
0.0777987
8.17062
8.41377
8.37336
1.45364
1.74615
0.348111
8.40951
0.966587
8.2715
8.27713
0.16339
0.116575
8.19666
0.352725
0.360933
0.0525504
8.47818
8.46436
0.631159
1.77546
8.27472
0.311123
0.309157
0.244356
8.29961
8.30182
8.28583
0.24801
0.310885
2.31618
0.304533
8.45816
0.267887
1.66623
2.33896
2.14667
8.06386
8.31797
0.290097
2.45899
2.3966
1.2349
8.06812
2.67304
8.32151
0.429884
2.59419
1.68326
8.10657
7.67976
2.48287
2.58225
7.58058
7.61287
8.33176
1.12077
7.969
7.37872
1.74678
1.71386
8.32929
7.50144
1.49656
0.303244
0.284856
1.15196
0.970288
7.58264
1.77941
7.18741
7.07749
8.21294
1.21353
1.97093
0.287659
7.10694
8.56451
1.71647
2.58039
1.81998
1.99161
1.56372
1.37273
1.55599
0.326405
7.02628
1.67955
1.24188
0.322629
1.13863
1.96664
5.85768
1.11918
1.11748
1.11551
1.11518
0.393418
6.88945
7.78414
1.29772
7.81553
7.87476
1.55764
7.82957
0.943826
7.71436
7.77662
8.14872
7.56048
1.24122
0.416232
1.25152
7.68807
0.607884
1.18402
1.65305
7.77378
8.40677
1.24955
1.31744
2.64973
1.25088
7.5552
0.0172764
0.291067
0.224413
8.23452
8.1772
0.742454
0.628061
8.20019
7.79919
2.26809
0.0215477
7.68424
2.48621
2.25613
2.26467
1.3711
7.74703
1.55596
3.58676
0.156242
0.0892099
2.28284
2.24285
2.08826
0.881264
1.59448
7.61398
1.78154
1.5908
2.62346
2.43792
2.26297
7.75125
1.09362
1.62597
0.923405
1.37784
1.60559
2.56871
0.195051
2.38031
2.11449
2.27831
0.655511
2.28753
2.40137
1.58048
1.93561
8.27517
2.56104
8.53439
1.56925
1.63609
2.28568
2.38943
2.24146
1.58829
1.59637
2.51399
1.24071
0.428173
8.2077
6.86331
2.39032
2.39326
1.88213
2.40726
2.63468
2.46977
2.63636
2.68558
7.03943
0.41236
2.70407
1.73731
7.1683
0.0398182
6.84831
1.21611
1.58816
2.63655
1.09719
8.48312
1.54129
2.59684
-0.00186968
8.30896
2.61966
0.364839
2.07671
2.60826
2.6223
6.92846
8.29373
1.12962
1.67805
0.890776
1.67591
1.51138
1.69419
2.67605
7.38747
0.0843552
7.22319
1.71035
0.409715
1.80374
8.44939
6.54431
2.47026
1.69717
1.23121
1.82003
8.30307
1.81046
1.82651
0.0958194
1.82318
4.78924
3.78495
1.82783
8.33546
8.24606
1.09646
4.72198
2.44025
8.46989
0.826123
8.2019
2.27113
8.43538
0.519848
2.36994
2.59677
1.81335
1.9066
1.63938
2.25696
2.6512
0.160283
2.61744
1.0272
2.60063
8.011
0.600613
8.22119
1.91483
1.93719
1.52934
1.35697
1.89903
0.124588
1.20618
1.8786
1.84837
2.66845
2.2234
2.48977
8.30252
1.88018
0.438661
2.34472
0.413022
1.89155
2.30886
0.603614
2.61355
1.69271
2.38577
1.71183
1.04466
1.92402
1.55504
8.24382
8.23394
1.62875
1.67074
2.09189
8.33683
2.15085
0.135828
1.59603
1.21046
0.765241
1.27338
1.0835
1.67318
0.00819537
0.960152
2.21132
0.809402
1.44654
1.30002
1.18764
2.21018
1.90034
0.801723
2.73714
1.77984
2.56543
0.703955
2.00195
2.40951
0.911195
0.106858
1.26987
1.66402
0.735126
0.610445
8.17736
1.97343
2.51556
2.5663
4.65489
1.97953
7.20633
1.10484
1.96487
0.288913
2.10961
8.24604
1.924
2.20737
-0.0658652
2.01011
2.28766
2.19607
8.30096
1.31424
0.204394
2.13713
2.66204
2.50561
8.16972
8.31492
3.39244
7.76479
2.20177
8.29507
2.69485
3.36999
7.75078
7.79924
0.176227
7.88287
8.38037
2.20297
1.2658
8.4997
1.51235
1.144
1.56935
1.78176
8.38139
2.51224
2.21846
2.1155
2.97521
8.38448
2.64866
2.15954
2.40719