/*--------------------------------*- C++ -*----------------------------------*\
  =========                 |
  \\      /  F ield         | OpenFOAM: The Open Source CFD Toolbox
   \\    /   O peration     | Website:  https://openfoam.org
    \\  /    A nd           | Version:  10
     \\/     M anipulation  |
\*---------------------------------------------------------------------------*/
FoamFile
{
    format      ascii;
    class       volScalarField;
    location    "5.5";
    object      SgP;
}
// * * * * * * * * * * * * * * * * * * * * * * * * * * * * * * * * * * * * * //

dimensions      [1 -1 -3 -1 0 0 0];

internalField   nonuniform List<scalar> 
111485
(
5.30218e-09
3.79503e-05
1.33145e-05
7.70006e-09
4.08073e-06
1.79315e-08
6.75799e-06
7.31419e-08
4.71993e-06
1.34534e-06
1.25048e-05
4.58767e-07
3.58841e-06
0.191249
2.97246e-06
9.76908e-06
0.143933
0.000699064
4.22602e-07
4.43226e-08
0.0254862
2.99756e-09
1.2506e-06
5.1894e-06
1.62741e-05
1.83969e-08
3.13087e-07
4.31407e-06
5.14753e-07
0.0329981
2.49541e-06
1.0208e-07
1.77647e-07
8.66851e-07
0.000488182
5.78757e-05
0.0896088
0.138891
0.00162057
3.5949e-07
0.0275045
5.62774e-07
1.52795e-06
5.49491e-05
1.61875e-05
1.36903e-06
3.63449e-06
5.64446e-07
3.1107e-06
2.46895e-07
7.67523e-07
1.09805e-05
2.97497e-07
6.3256e-06
8.07825e-07
1.17638e-07
1.19875e-06
1.95946e-08
2.23093e-05
2.71873e-07
3.69728e-07
1.97151e-07
4.19196e-05
3.87409e-06
4.95266e-06
4.73678e-06
0.000270604
1.07031e-06
2.12577e-05
4.52577e-05
3.14423e-05
2.30791e-05
7.96708e-06
3.45665e-05
1.63034e-08
5.58279e-08
9.56668e-09
3.88731e-07
2.38484e-08
2.05441e-05
0.184441
0.342328
3.91483e-08
3.9885e-09
7.47707e-06
1.41887e-05
0.0932293
4.15038e-06
0.000163778
9.47922e-07
1.16698e-06
4.00064e-06
1.78956e-05
8.60404e-08
7.82597e-07
1.34588e-08
0.0185235
6.50405e-06
0.00101615
0.000281532
3.99179e-09
1.78974e-06
1.29768e-06
6.44412e-06
3.39871e-06
1.04819e-05
2.61478e-08
1.21808e-07
1.85928e-06
0.000448421
4.47866e-06
7.39686e-07
5.36999e-06
3.24901e-05
6.74752e-08
7.27804e-08
1.04561e-08
4.21102e-06
1.15864e-05
1.57264e-08
6.8033e-08
0.000127369
0.0476087
1.31105e-06
2.56789e-05
0.0196766
7.12073e-05
2.73752e-06
1.06623e-08
0.00019025
8.17888e-05
8.73056e-06
0.0322734
0.000117092
5.34606e-05
3.49763e-07
7.08945e-09
1.33237e-07
6.55424e-06
1.20598e-05
3.55339e-05
1.22624e-07
0.122202
3.58505e-05
1.94374e-05
6.17724e-07
1.04468e-07
9.60561e-09
3.98137e-08
1.28524e-07
1.30729e-05
0.0195413
0.0778816
2.35312e-06
2.6809e-05
1.79583e-07
2.68833e-06
4.96898e-05
0.000509586
3.69546e-06
8.04628e-09
2.00883e-07
1.8932e-05
4.98215e-05
4.42304e-05
8.95245e-06
2.70808e-06
0.0171002
0.000964921
8.4017e-05
7.51e-09
4.12212e-09
0.141005
1.01627e-08
3.99242e-08
1.50782e-07
4.40251e-07
7.17335e-06
4.77212e-08
3.88578e-06
6.13975e-06
2.32852e-08
9.47439e-07
2.0357e-07
1.42847e-06
1.37452e-05
5.04957e-06
1.0261e-05
0.000203828
1.18879e-07
1.00887e-05
3.76794e-06
4.98909e-06
7.89815e-06
2.91423e-06
7.98056e-06
5.77717e-07
9.28114e-08
6.02175e-07
2.7287e-06
4.19397e-07
0.0010896
4.88088e-05
1.52856e-07
1.13858e-06
1.48246e-06
4.67516e-06
7.959e-06
9.29973e-06
1.22978e-06
1.19218e-06
3.36858e-06
5.46043e-06
2.57795e-08
2.11668e-05
0.000204554
4.0336e-07
2.97304e-08
4.29792e-06
4.39344e-06
4.90779e-07
8.31e-08
1.91618e-06
9.14491e-06
0.000185838
3.0264e-08
4.69325e-09
1.88647e-05
0.00262708
1.56752e-05
6.02407e-05
3.05695e-06
1.00455e-07
0.0958863
2.55137e-05
1.21931e-05
0.106022
3.44344e-08
1.62255e-05
5.81928e-06
3.97143e-06
7.70353e-06
1.97287e-06
2.77509e-06
0.00113412
2.83309e-07
4.96427e-06
1.80761e-07
3.08584e-06
0.0895351
1.12801e-05
2.9303e-06
3.93593e-06
1.54554e-09
0.000129259
2.23163e-07
2.043e-07
4.35036e-05
0.0668613
3.71029e-08
1.04595e-06
9.15115e-06
1.13898e-06
1.44368e-08
2.60589e-06
2.04236e-09
2.9209e-08
3.26675e-07
0.114844
1.87207e-06
1.48332e-05
3.81324e-07
0.114938
9.53294e-06
4.08804e-07
0.000141276
3.7542e-07
2.29603e-07
3.40668e-07
1.18162e-08
0.0783231
2.2376e-07
2.56821e-05
2.10174e-06
9.1724e-09
0.147133
0.178015
5.06862e-07
0.000133059
2.25171e-05
1.61408e-06
3.05596e-06
6.19249e-06
1.22513e-07
3.52716e-06
1.76861e-08
0.000240198
0.000179654
7.25915e-06
9.31096e-07
0.226772
1.93809e-08
0.0543022
4.38406e-07
5.01616e-07
9.91871e-09
9.05561e-08
0.016935
5.53318e-07
3.55169e-07
2.97951e-06
5.15019e-05
9.54939e-08
2.00986e-05
2.31881e-08
1.63814e-08
2.11004e-06
0.00290029
0.167442
2.04011e-06
0.000435476
1.43266e-08
1.33492e-08
2.88435e-08
5.73369e-05
4.81368e-07
3.71168e-07
1.32357e-06
2.35105e-07
4.86262e-05
0.0416387
2.94361e-06
8.18911e-08
9.90011e-07
1.00792e-06
0.0303956
3.3163e-05
5.41767e-07
3.18911e-07
8.43293e-08
2.0514e-06
7.30069e-09
0.0980937
9.66878e-05
2.81082e-07
1.09077e-06
0.000198434
8.09088e-08
0.0247214
9.41771e-08
3.54825e-06
4.30424e-06
2.60364e-07
1.35787e-05
6.31617e-06
7.20388e-08
4.39552e-07
4.27846e-07
1.58121e-06
0.242744
1.16123e-05
8.80893e-08
0.0334575
8.9291e-06
4.41653e-08
3.14702e-07
1.51493e-07
0.0323713
0.000361149
0.0314317
0.0313607
7.77551e-08
1.05774e-08
1.6956e-07
3.39902e-07
1.27416e-08
3.43682e-06
1.18723e-06
9.71089e-06
1.18661e-05
5.65478e-05
1.69164e-06
0.000446447
2.52358e-07
8.5717e-07
2.72587e-05
4.84422e-07
0.000392018
3.12396e-07
7.79174e-06
1.71603e-06
0.0192044
7.36336e-08
6.23687e-08
0.100164
2.38006e-06
0.199478
7.62441e-08
2.98389e-06
1.66242e-06
8.44479e-09
2.93263e-06
2.67872e-05
1.58829e-08
0.0219446
6.85325e-07
1.10613e-06
3.26653e-07
3.03245e-08
0.000496043
1.155e-08
3.47919e-06
1.69573e-06
7.31963e-09
5.23073e-07
2.27351e-05
0.160442
5.58273e-05
4.82818e-09
5.38845e-05
6.30641e-05
6.48922e-05
2.36564e-05
0.000375023
1.78711e-06
0.000736546
3.42513e-05
0.134451
0.000134776
6.31147e-08
3.97181e-06
4.91459e-07
1.14678e-07
0.000925681
9.25397e-05
5.63152e-05
7.63568e-07
5.1086e-07
6.30714e-06
3.66916e-08
0.229575
6.83276e-07
2.29481e-05
0.00287722
5.91733e-05
0.000840168
4.79282e-08
0.166893
0.216255
4.06452e-08
1.69886e-05
0.000127235
6.75936e-05
6.35222e-09
1.81308e-05
3.63333e-09
0.188626
4.34082e-05
9.15106e-06
4.96303e-05
1.51583e-05
1.37677e-07
1.10667e-06
3.98738e-07
3.31819e-05
1.3549e-07
4.26696e-07
0.0358945
3.70469e-05
2.75919e-08
1.82119e-09
0.000251376
5.71356e-08
8.41221e-07
1.86462e-06
2.13502e-08
4.22646e-05
7.25677e-08
0.0508439
7.67885e-08
1.18206e-06
2.70197e-08
0.000101744
2.77932e-07
0.147464
9.30204e-06
0.154737
1.79841e-08
4.17436e-05
1.52236e-06
1.07056e-08
0.238478
0.0927145
1.22067e-05
1.42814e-06
2.134e-05
4.95128e-07
8.57027e-06
1.57521e-07
2.74524e-05
0.186449
1.84524e-08
1.16415e-06
7.0695e-05
7.3301e-06
0.0372873
2.24141e-06
7.80048e-05
1.01684e-06
6.79756e-07
0.000470188
0.0517087
7.47322e-06
1.14437e-08
1.02426e-06
2.49333e-06
2.58357e-06
7.54903e-07
1.36083e-05
7.98799e-09
0.00115077
6.64877e-08
1.70233e-07
1.76879e-07
4.60585e-05
6.49028e-09
5.30472e-06
3.58716e-08
3.17868e-06
2.76993e-09
0.0758426
0.0817145
6.07347e-06
1.53923e-07
0.0412399
0.0624714
2.00424e-08
2.05687e-07
6.75151e-06
1.12245e-07
5.36793e-05
1.13189e-05
4.84415e-06
0.0292186
7.53285e-07
1.48234e-08
3.11331e-05
2.58342e-05
3.74624e-05
1.38297e-06
9.01931e-06
7.16908e-06
3.47378e-07
6.95709e-07
1.2314e-05
2.18874e-05
8.09859e-09
0.0843963
4.42545e-05
2.44812e-05
8.41908e-07
0.000763527
1.83295e-05
0.000235891
0.00195591
0.000252329
3.83893e-06
5.1686e-05
6.50926e-06
1.25324e-05
0.0746193
0.000129939
4.92265e-05
0.00240705
0.0507508
3.16339e-08
2.80204e-05
2.73541e-06
2.61819e-05
1.66537e-07
0.000347394
0.00186604
0.000287685
0.000111087
1.52944e-05
1.09114e-06
8.66304e-08
0.00013197
1.61747e-06
6.63093e-08
3.99744e-08
1.08552e-08
4.98288e-08
7.05383e-06
4.76476e-08
0.0238093
7.59852e-06
5.29361e-06
0.0667725
0.208066
4.03566e-05
1.17804e-06
0.0255184
4.57184e-08
1.20209e-05
1.70708e-07
8.98426e-09
3.09748e-05
9.96144e-06
0.0782575
1.58588e-05
1.20161e-08
1.82641e-06
1.78337e-05
0.0933491
3.49966e-06
1.70119e-05
3.96347e-05
0.134736
0.0262576
1.25009e-06
1.01801e-05
3.83616e-06
9.29068e-07
2.90702e-06
8.71004e-07
1.69673e-05
2.27673e-06
1.36644e-06
6.46134e-07
1.93078e-06
0.00037221
2.19742e-05
2.76103e-06
2.84077e-06
0.000438507
8.87888e-09
4.2793e-07
5.06058e-06
1.96881e-06
8.62568e-06
2.0868e-07
2.32412e-06
1.96759e-06
1.64006e-05
0.000122823
8.00311e-06
1.04707e-05
6.05446e-07
3.79803e-07
1.5179e-05
3.20656e-06
2.15582e-08
0.0491527
4.91741e-08
0.0961178
3.71577e-05
0.00783126
8.74668e-08
0.0186134
9.61193e-07
8.29252e-06
5.24798e-09
4.26608e-06
2.17766e-07
1.79743e-08
1.01029e-06
0.183635
5.77105e-05
1.92535e-05
0.0282211
7.5383e-08
2.55663e-09
2.49883e-06
5.75856e-07
5.63591e-05
3.398e-07
8.03685e-05
4.12973e-08
4.62336e-06
7.91378e-05
0.109258
2.63425e-08
2.37311e-08
1.20492e-06
1.59759e-08
8.80629e-05
2.05149e-07
0.0398683
2.82039e-07
2.03102e-08
2.09876e-07
0.0287985
4.15355e-06
5.98856e-05
8.45376e-09
0.00337475
0.000640796
0.118645
4.55479e-08
1.51007e-08
2.47219e-06
1.64206e-05
2.69908e-05
0.000383331
0.000227884
0.000119132
3.66902e-07
0.0402424
1.25158e-05
3.98019e-07
2.55274e-08
6.80485e-07
3.30696e-08
9.28896e-09
4.20172e-08
2.98861e-08
2.14928e-06
2.26988e-08
1.33188e-08
4.24634e-07
7.93543e-08
1.73248e-07
9.01684e-08
4.40886e-07
2.12187e-07
3.29951e-06
3.28954e-06
5.06945e-08
2.36105e-08
6.08837e-06
6.98105e-09
3.48876e-05
4.7001e-07
7.63187e-07
9.59676e-08
3.58331e-09
1.68987e-08
6.15556e-09
6.63811e-06
4.49051e-08
3.10821e-08
1.08961e-05
6.48153e-09
5.13616e-06
4.71105e-05
1.16604e-06
2.62123e-07
0.000354622
6.23971e-07
0.16366
5.26701e-05
5.07075e-06
0.138744
5.53048e-05
3.24838e-06
1.25057e-05
9.81045e-08
1.23685e-05
0.0601241
0.000468791
9.65294e-08
4.19639e-08
8.43907e-06
5.20074e-05
5.71792e-05
5.86295e-05
1.15788e-08
7.60129e-09
3.50499e-07
2.59765e-05
2.73314e-06
2.67634e-06
7.09019e-05
1.76934e-07
4.1644e-06
4.06515e-08
2.13896e-08
0.0212489
7.67701e-06
1.86324e-07
5.91783e-09
3.45484e-05
8.37856e-05
1.11647e-06
1.97876e-07
0.027886
1.58838e-08
2.25086e-06
0.0405138
1.92321e-08
0.0478313
2.846e-05
0.0234992
0.000401112
7.47919e-08
2.32204e-05
3.11913e-06
0.0314155
2.02115e-05
0.000881536
0.105582
8.65086e-05
8.81498e-07
5.61235e-07
8.80974e-07
0.318118
0.105635
2.10048e-08
0.15733
7.0093e-07
0.00010954
3.0573e-06
1.26772e-05
0.00071695
1.37544e-05
2.02381e-06
4.38458e-06
3.98096e-07
1.28936e-07
0.0289118
3.25345e-08
6.54993e-06
3.80946e-06
5.44991e-08
3.87378e-07
0.14111
6.80843e-07
2.63362e-07
0.000365841
1.6909e-08
4.58367e-07
0.141738
2.4423e-08
0.12432
0.229503
0.000794162
7.55857e-06
8.00588e-07
5.49453e-07
3.33249e-05
0.000160807
0.00074221
0.000154632
2.76828e-06
0.0288069
6.30408e-05
3.06001e-09
0.000150955
0.0001553
0.000397932
0.0003139
0.000574552
0.000116642
6.47073e-09
4.601e-05
6.82372e-07
2.67325e-07
0.00100217
0.226883
1.4995e-07
1.58456e-08
0.00215918
0.00220372
4.33057e-09
0.000393351
1.16546e-07
2.94051e-09
3.39151e-08
2.8018e-07
2.64656e-06
1.42007e-07
4.09328e-05
0.0328756
1.59774e-08
5.87068e-07
0.00300196
0.0760888
2.94201e-05
8.13619e-08
0.0206348
1.34286e-08
8.16822e-05
4.4222e-09
1.14856e-08
0.000390097
0.0847572
1.08754e-06
1.14897e-08
1.10918e-07
0.0226549
9.43785e-09
0.0146686
4.75957e-08
6.58916e-05
4.2103e-09
0.00128886
1.39339e-06
1.05499e-08
5.20355e-07
3.5624e-07
0.000924101
4.6887e-07
1.63176e-08
1.34316e-06
0.0029553
0.0343205
4.69206e-05
0.000373905
0.000699441
9.37174e-08
0.000862568
6.38408e-06
3.51036e-07
2.02816e-06
0.000144363
1.07983e-05
1.99043e-07
5.40493e-06
9.73639e-05
4.6944e-08
2.80711e-07
2.02518e-07
9.3605e-06
0.0479579
2.46201e-09
1.24889e-07
0.0387254
8.27672e-05
4.85715e-05
1.85675e-08
6.91149e-07
3.67746e-08
6.37913e-07
1.55104e-05
1.33913e-05
4.43417e-07
1.33534e-05
1.88345e-05
5.00563e-05
1.06411e-05
5.65347e-08
2.7207e-06
6.61517e-09
1.46014e-07
2.18149e-05
0.000113807
2.53676e-08
4.09843e-07
2.68646e-07
1.74846e-08
3.30071e-05
2.77495e-07
2.77828e-05
0.00055312
3.6981e-05
4.19727e-08
0.000863091
7.92403e-05
4.53142e-05
0.000103513
5.27154e-08
7.70309e-05
1.68381e-06
0.0813495
2.11024e-05
6.31451e-05
5.8633e-08
1.54184e-09
1.08863e-08
0.122731
0.0474129
2.79461e-05
1.20843e-08
9.17357e-05
3.73423e-08
0.113202
6.81405e-05
4.23727e-07
2.84928e-08
1.49406e-06
4.76009e-07
5.31278e-05
1.35141e-06
7.84866e-05
0.207835
2.27205e-06
4.9102e-05
2.4263e-05
4.76345e-05
3.56863e-05
4.89171e-09
3.00325e-08
9.00563e-07
1.73091e-05
1.86161e-08
1.62375e-07
0.000419378
2.29602e-07
5.09285e-07
0.300077
1.36257e-06
4.0478e-05
7.55534e-09
4.31033e-07
2.27108e-07
0.222065
1.19748e-08
0.0791237
0.00364986
7.56523e-05
9.85242e-06
9.0741e-06
0.000628893
1.888e-06
8.5084e-07
1.48509e-06
3.04639e-07
4.47969e-08
1.37158e-06
5.50928e-05
1.51032e-06
0.0447977
1.78772e-07
2.65527e-06
0.000185465
9.16319e-09
0.000253563
8.3161e-08
2.34743e-05
0.000516334
5.48547e-08
4.73973e-07
4.0671e-05
4.15303e-07
9.03497e-07
0.124114
2.71431e-07
6.18595e-06
5.18444e-08
0.0295934
5.95229e-06
2.05398e-07
1.20606e-07
3.44701e-06
4.12808e-06
3.20809e-09
0.099899
6.65133e-07
3.9793e-09
8.36363e-05
3.74062e-07
1.24659e-08
2.73165e-05
0.000539884
0.000596776
2.74671e-08
8.43419e-07
5.17675e-08
1.55084e-05
3.38415e-05
0.0235341
5.02616e-06
0.000590301
4.5628e-05
0.000722242
2.20125e-05
2.16329e-06
6.61706e-07
3.05323e-07
4.04463e-06
7.554e-07
3.06509e-06
0.0301879
0.000170207
0.0304412
9.96744e-09
7.63896e-07
7.2745e-08
4.50935e-05
6.78401e-05
9.71821e-07
2.61079e-05
0.000386532
5.87222e-05
6.99255e-09
0.00479507
0.00538968
3.12863e-05
2.60678e-05
1.97955e-07
0.000583713
1.18851e-06
1.75493e-06
9.05953e-08
8.27956e-09
0.000158105
4.28419e-06
0.000643745
3.83655e-07
0.030109
0.000366102
4.7313e-07
3.81272e-08
0.000354228
1.65451e-06
0.0382466
0.185134
7.98283e-05
0.00015192
2.63399e-06
3.73386e-08
7.83512e-08
7.45198e-08
4.23725e-05
2.68143e-06
0.0222065
0.0379052
1.31159e-05
3.65588e-08
0.000207897
0.0267013
1.89114e-05
0.000771292
0.00164716
0.0279816
0.0868145
0.0325807
7.39238e-05
1.25379e-08
0.00135199
3.72992e-07
6.76093e-08
1.70775e-07
5.43107e-08
1.09222e-05
2.66957e-08
1.47328e-08
5.93542e-05
5.8343e-08
5.76193e-09
7.05182e-07
1.49837e-07
0.0380306
1.2662e-06
1.89157e-05
0.0491307
0.174757
2.40681e-08
0.123126
0.000103147
0.254293
5.3961e-07
7.67718e-08
5.58423e-08
1.7047e-05
0.173196
2.25405e-08
0.000772076
1.62048e-08
6.79565e-07
1.13438e-05
1.60924e-06
6.96389e-07
1.7424e-07
0.0499983
1.5318e-08
5.35717e-07
8.04296e-08
3.56253e-07
1.81639e-07
0.000281129
2.50356e-05
7.68997e-07
0.000263409
8.14061e-06
2.87294e-07
8.86295e-05
4.83351e-07
1.95417e-06
9.11794e-08
8.76953e-08
0.172988
0.0282667
0.000225788
1.67494e-07
2.63296e-08
5.26879e-07
0.127521
2.02593e-07
3.86793e-06
5.22461e-07
6.71588e-07
2.42478e-09
0.02293
5.30096e-05
2.65127e-07
3.45268e-07
9.74949e-06
1.59345e-08
0.120105
1.32137e-08
0.0278293
3.38476e-05
4.23951e-06
1.36393e-08
3.12558e-07
8.18726e-07
1.77885e-07
1.51258e-06
2.63909e-06
3.08072e-09
2.38538e-09
3.67895e-05
0.051908
7.80916e-09
1.43042e-05
5.21037e-07
5.3308e-05
1.19809e-07
0.0311364
1.4386e-06
1.37439e-05
2.18561e-05
1.43018e-07
2.77077e-05
1.07647e-06
6.47209e-06
3.04643e-08
1.08966e-08
5.62394e-06
2.13664e-08
6.7231e-05
2.56579e-05
2.03718e-08
3.85112e-08
5.43677e-05
0.000367767
0.198122
5.31001e-08
3.57294e-06
1.26051e-06
0.000241673
0.000108173
1.12065e-05
5.65421e-05
0.0514503
1.94217e-06
3.5764e-05
0.000551038
0.0435377
7.94536e-07
1.56228e-08
0.000244907
4.11382e-06
0.0268377
1.98877e-07
5.98203e-06
3.3539e-06
3.92039e-08
0.15561
9.21378e-09
1.07629e-07
6.39412e-07
1.31754e-05
0.241475
0.0370306
3.78127e-07
1.08351e-08
5.06936e-09
6.96806e-08
7.0016e-08
3.73208e-07
5.93934e-08
4.97295e-09
3.89112e-08
2.48203e-09
1.29648e-07
0.0405401
0.0240923
1.9212e-08
9.33445e-06
6.00267e-09
1.94393e-08
1.89657e-08
0.0235937
0.0564993
4.5586e-06
4.56328e-08
5.80962e-09
5.24018e-07
6.65478e-07
2.7538e-06
9.78754e-08
0.00022093
2.71063e-07
2.30402e-06
8.33724e-07
0.000129697
3.20467e-06
0.00052864
1.12431e-06
1.09196e-08
0.00032447
0.000325099
2.03813e-08
1.19397e-05
1.62331e-06
4.10172e-06
1.62803e-05
4.86098e-06
2.68751e-06
1.3485e-07
0.222553
3.98324e-07
2.20319e-05
0.0406252
3.25377e-05
6.87686e-06
8.20408e-06
8.54191e-07
1.28002e-07
1.26846e-05
9.48689e-06
3.25013e-05
2.6393e-06
1.526e-05
2.63646e-06
1.28502e-06
8.43408e-07
6.71406e-09
5.93063e-08
1.62831e-08
2.96992e-09
1.51273e-07
6.24254e-08
3.68957e-06
2.96189e-08
4.63951e-09
1.25914e-07
1.08852e-05
2.90524e-08
2.96693e-08
4.84658e-07
6.29966e-07
3.04941e-07
5.27219e-05
2.79943e-06
0.169344
1.41797e-07
8.23272e-06
1.01087e-05
2.32619e-06
6.67631e-09
3.85912e-08
0.148239
3.15891e-07
5.86116e-09
1.89985e-06
0.154147
7.29049e-07
2.97381e-05
3.47228e-05
7.05842e-07
3.95908e-06
6.23941e-06
0.0002489
1.90822e-08
1.80561e-05
3.45708e-06
9.73395e-08
0.000226877
0.000248473
0.14004
4.9956e-06
1.03328e-06
4.32193e-06
1.69687e-05
6.43558e-06
5.70893e-08
0.00172431
1.98443e-08
0.000355458
0.000272029
0.0418246
6.55973e-06
0.169696
1.20419e-08
1.17293e-07
4.73854e-07
1.06888e-05
2.29726e-05
2.25594e-06
3.19955e-05
3.91396e-08
5.8498e-06
1.44098e-08
2.62698e-09
2.20388e-07
0.000303132
3.00737e-08
4.91586e-09
0.000275177
2.00026e-07
0.00034772
1.19999e-06
8.82631e-07
7.1784e-07
9.23835e-08
1.38557e-05
2.67183e-06
0.000142292
1.72133e-07
2.0782e-06
0.00223203
6.30369e-07
7.10755e-09
0.000102376
2.57822e-06
1.54827e-05
1.58191e-08
0.098615
7.98312e-05
2.11813e-05
1.01121e-06
7.21667e-09
0.000128674
2.13645e-06
1.47123e-07
7.31218e-09
1.86566e-05
3.44607e-05
2.88011e-05
0.129338
9.93442e-07
2.38404e-06
0.000161758
5.9146e-07
1.26587e-06
3.09213e-07
5.22466e-05
9.96308e-07
7.73832e-05
0.119302
3.12112e-06
6.36499e-09
2.45614e-07
8.51545e-06
6.25436e-06
1.76893e-07
0.000325514
0.000564674
0.000272906
0.00059031
4.40298e-06
3.42222e-05
2.70942e-06
1.98961e-06
4.71055e-08
4.61338e-08
0.0676417
0.000320118
6.94302e-07
0.00108233
2.14611e-06
1.61351e-05
0.000279666
2.1921e-06
1.68686e-06
2.04954e-06
5.34893e-08
2.71705e-05
6.55335e-06
9.88819e-05
4.16507e-06
1.7344e-07
1.7376e-08
1.3579e-05
1.05645e-06
1.46212e-08
0.000208667
1.18459e-06
5.74518e-06
9.24598e-06
9.6986e-08
4.66022e-08
0.000395152
0.0925841
4.32878e-08
1.17825e-08
1.54975e-08
0.0966486
0.162572
3.27755e-07
0.0365462
2.64527e-06
4.37601e-06
5.45103e-06
2.30528e-06
4.56668e-06
2.73273e-06
1.75994e-05
0.0747028
0.243054
0.271931
3.68334e-06
4.46896e-06
2.66023e-06
4.55002e-06
0.2499
1.15828e-08
0.135547
3.15806e-06
3.0579e-09
4.29753e-07
3.28803e-07
7.46357e-08
3.94935e-08
1.75302e-07
1.79769e-08
0.0894601
7.49998e-08
6.68386e-06
9.27227e-05
1.37401e-08
2.48897e-06
4.9597e-06
9.83218e-07
1.74053e-07
0.000361617
4.22109e-06
2.95318e-07
3.6265e-05
3.32533e-06
3.16456e-06
2.16359e-06
7.08422e-07
1.00514e-07
4.5355e-06
0.00224253
7.0119e-06
6.56169e-07
3.22179e-06
5.88415e-07
4.08082e-06
6.21043e-05
2.69321e-06
1.77414e-06
3.13157e-06
1.13229e-06
3.89518e-05
7.53565e-08
4.07526e-06
0.0282497
0.000272265
0.231362
0.000500735
4.37271e-05
5.22317e-08
0.0421807
1.08877e-08
1.67872e-05
3.11823e-06
1.75696e-07
4.94174e-05
1.08216e-07
3.69765e-07
9.26798e-06
4.86851e-07
2.60428e-08
4.41437e-06
3.81243e-07
1.45129e-05
0.0498688
2.36831e-07
1.3779e-05
1.01019e-06
4.75118e-07
9.11731e-08
0.000169149
2.41121e-05
4.62254e-07
9.78186e-09
4.01268e-07
0.0304573
0.000132031
4.29008e-06
9.67463e-06
9.34914e-09
7.48877e-09
5.96908e-07
7.69441e-09
2.25267e-05
3.42174e-08
1.44626e-05
8.28169e-07
4.46518e-07
2.24279e-07
4.99589e-08
3.09721e-05
6.10859e-05
2.56139e-05
5.03194e-07
2.86518e-08
7.25272e-07
5.4611e-07
0.000360562
7.92117e-07
0.123097
8.40691e-06
1.92863e-08
6.51629e-08
0.000152909
3.53453e-06
0.000732924
2.28293e-07
5.28177e-05
0.152776
3.57772e-09
0.000212656
1.4659e-05
0.0291511
1.10823e-06
0.0325146
0.0569316
7.54075e-05
5.41133e-06
1.36138e-05
1.48723e-08
1.10788e-05
1.81852e-05
0.000235812
1.18984e-05
1.97714e-06
1.73567e-05
0.000278009
0.00022367
0.000311636
8.45166e-05
3.62239e-08
4.97756e-05
0.000574755
5.41949e-06
1.87468e-06
0.000165713
0.00014279
8.9852e-06
1.26547e-05
0.000166812
1.03519e-05
0.000202036
0.000112531
1.3831e-05
6.68571e-09
2.2379e-05
0.000266237
0.0458409
1.31559e-06
2.6927e-07
3.38475e-05
1.6345e-07
5.6113e-05
6.15318e-07
0.000252289
1.73892e-07
3.25709e-05
1.04007e-08
1.03804e-07
8.23351e-06
0.000636308
0.000762329
0.233641
2.70868e-05
1.16871e-06
5.54286e-08
0.000259173
9.8835e-06
0.0213209
0.0482425
3.19297e-08
0.000517146
8.38756e-06
1.0493e-06
3.34088e-08
0.000769305
3.75514e-07
0.0292963
8.98963e-08
1.81202e-08
1.94058e-05
5.99036e-07
3.34685e-07
2.79103e-05
0.0270909
6.72617e-06
1.34216e-07
1.2715e-05
0.14304
0.0272806
1.25974e-06
0.000172088
8.89803e-06
0.000353761
1.41129e-06
0.0256546
1.5068e-05
0.000110913
1.92413e-07
5.63956e-07
1.88933e-06
4.25384e-07
1.4649e-05
1.84119e-06
5.95537e-07
1.46493e-06
2.84464e-06
3.85534e-05
2.30332e-08
2.6262e-07
0.0509912
1.98434e-08
1.44343e-08
2.78535e-05
5.41506e-08
9.62316e-05
2.40245e-05
0.0416619
6.92158e-06
0.170159
3.31346e-06
1.09625e-05
0.0273415
9.89468e-05
1.6117e-09
9.90035e-07
0.0191851
4.54984e-06
5.35969e-05
7.70646e-06
3.78326e-08
3.67554e-06
4.52171e-06
5.90659e-07
0.0827181
6.61119e-07
6.99067e-08
9.73236e-07
4.61861e-07
2.12572e-08
5.36054e-05
1.81298e-06
0.177599
5.01896e-05
2.34387e-05
3.03866e-05
3.85213e-05
3.72757e-06
1.278e-06
7.28369e-09
2.20644e-07
3.42297e-05
1.41702e-05
3.78371e-06
6.18114e-08
4.29329e-06
1.2876e-06
8.90751e-06
9.14274e-09
2.10013e-07
1.65381e-07
1.87896e-05
1.39672e-05
1.27856e-05
3.20161e-08
9.17935e-09
0.00108107
1.64841e-08
9.38365e-09
3.91647e-09
9.0357e-07
0.201492
2.16883e-07
2.69817e-05
4.62569e-05
1.09035e-05
1.59107e-07
5.38314e-07
8.57185e-05
4.19957e-06
7.23317e-08
2.03367e-05
7.94659e-09
3.96841e-09
2.51912e-09
6.24722e-05
8.75754e-08
0.213023
0.000351248
1.2721e-05
0.00123036
3.46419e-07
1.66559e-06
2.33195e-08
0.0405491
5.23368e-06
2.40489e-06
1.02958e-06
1.48216e-07
3.76399e-08
0.310161
7.40091e-06
0.000194471
3.95816e-05
9.20952e-08
0.0796595
1.46672e-07
2.3007e-07
4.73891e-07
4.83817e-07
3.94272e-06
2.26634e-07
9.2157e-06
9.34786e-06
0.000226883
1.79448e-06
2.48906e-09
0.000126243
3.25318e-07
0.104881
1.69087e-06
9.25137e-08
8.83065e-07
1.43202e-05
0.0415225
0.0203702
1.18769e-05
2.63805e-05
0.0620192
1.48073e-06
1.71551e-05
0.0299015
3.98894e-06
4.52803e-07
0.112729
0.0127642
7.49931e-06
1.91647e-05
1.53006e-08
2.27125e-05
0.00109049
2.03476e-06
6.44991e-06
0.000245832
3.35588e-09
0.0158596
1.54112e-08
2.13145e-05
0.128061
9.0273e-08
6.44381e-06
9.33265e-07
3.88903e-07
4.68166e-08
2.65341e-05
3.40328e-07
6.71453e-08
1.04222e-05
9.66153e-06
1.90226e-08
0.0159543
0.0301153
1.40071e-06
1.06425e-08
2.93591e-09
9.80134e-05
7.99361e-06
3.94473e-06
1.16666e-08
6.09789e-08
8.81438e-05
4.13337e-05
2.88449e-05
4.58166e-05
0.249209
7.1168e-09
0.0992799
6.29772e-07
2.8406e-07
0.0354823
7.09958e-07
2.43093e-08
0.0156302
7.01371e-09
1.8508e-06
2.34304e-06
1.57658e-06
7.16505e-07
1.41612e-08
1.27185e-08
1.82186e-08
1.42469e-05
0.0916452
0.147395
1.0993e-05
1.55996e-06
6.23968e-09
0.0381385
0.147836
0.000154738
6.75053e-07
1.08541e-07
0.00064348
0.000155489
2.75918e-07
6.31876e-09
6.89867e-07
3.59071e-06
7.74669e-09
7.66745e-06
2.39157e-05
0.0410779
0.145024
1.03019e-05
0.000541386
1.64056e-08
2.10946e-07
6.74611e-06
9.71128e-05
2.24142e-05
0.000293231
1.1736e-05
6.85138e-06
1.17799e-08
5.46886e-08
9.03653e-06
0.0398561
1.63192e-07
0.124001
4.2311e-08
6.78754e-06
1.53541e-06
1.07774e-05
2.43328e-08
1.27815e-08
5.31566e-08
3.53024e-08
7.80549e-07
0.0002135
1.5039e-08
0.0255235
3.51306e-06
0.105038
1.77184e-07
9.56029e-07
1.00718e-06
1.20264e-06
8.71573e-06
3.03719e-08
2.14985e-08
5.61074e-08
1.50946e-06
5.46012e-06
0.0367423
0.0355691
1.75304e-06
6.81242e-07
2.24727e-08
7.67677e-09
2.42091e-08
9.99924e-07
0.000155604
1.37558e-07
2.99304e-08
9.64443e-09
0.0150384
1.93883e-05
2.82992e-05
0.0276489
3.00818e-07
0.206563
3.90301e-06
2.72016e-07
7.14979e-09
1.65729e-07
0.0366179
2.66126e-09
8.56045e-06
3.45549e-08
0.000463427
2.9081e-05
5.22579e-05
9.51325e-05
1.92997e-05
2.45222e-08
2.41254e-08
0.235111
2.21855e-05
2.28875e-05
0.000138695
3.69605e-07
4.9277e-05
6.97932e-05
2.05043e-06
2.2307e-06
0.000201056
6.70442e-08
0.000352037
0.0268226
1.10435e-06
1.42312e-07
5.55594e-05
6.57843e-07
0.0233468
0.123344
1.31992e-05
1.06909e-08
0.00271933
2.62184e-07
1.04356e-05
1.03261e-06
3.93645e-05
9.27269e-09
0.000581574
3.66289e-05
6.33885e-05
8.9736e-06
7.61998e-05
2.01982e-05
4.24224e-06
5.97523e-09
0.000105505
1.16351e-05
2.85169e-05
2.43083e-07
6.38212e-06
8.19169e-05
0.000290718
8.40053e-09
5.47076e-08
5.49839e-08
1.02895e-08
1.10556e-07
0.0146667
0.000184142
9.34651e-05
1.77666e-05
0.000133476
5.56732e-05
9.2091e-09
4.93451e-06
1.5104e-08
3.48972e-07
1.91659e-08
1.20205e-05
0.00124656
1.36302e-05
1.10799e-07
1.64978e-08
9.08707e-07
1.13108e-07
1.08158e-08
0.0958624
5.96901e-06
0.000443366
0.000646873
0.000479518
1.99728e-09
0.000426467
0.000464985
0.000886008
0.000466572
6.77065e-09
1.43661e-08
1.27017e-06
3.64938e-06
4.55413e-05
0.000223303
0.0268098
4.31029e-06
2.00079e-05
3.06704e-06
0.000335432
1.67012e-08
1.06888e-08
5.39436e-05
0.000215086
0.0178738
1.28325e-08
0.0783052
8.35534e-05
2.0848e-07
5.82778e-05
2.37635e-06
3.03609e-05
1.54319e-06
3.2981e-05
6.62527e-09
3.04828e-06
0.00143849
1.56403e-05
7.77283e-08
0.00117141
2.12191e-05
7.62104e-06
0.00215429
5.66524e-08
4.06496e-06
3.7493e-05
3.59448e-05
7.17833e-07
0.132716
3.51741e-08
6.3406e-07
3.11348e-08
0.0776151
0.0796721
1.37861e-06
1.29697e-06
8.48481e-05
0.0376948
1.12917e-08
2.64437e-06
1.86092e-06
7.87403e-06
8.54787e-07
0.143276
4.68895e-06
9.72403e-06
0.00236968
1.02466e-07
4.28431e-06
8.81743e-07
1.52809e-06
1.02375e-08
0.00163587
0.00266898
9.24668e-08
4.63155e-07
1.02204e-06
5.64971e-05
3.00793e-08
0.0272309
1.24649e-07
6.87489e-06
7.99794e-07
4.04815e-07
1.19068e-06
1.66762e-05
4.44094e-07
3.95398e-06
0.0001579
5.38061e-07
8.28087e-07
0.0294667
4.87734e-07
2.75355e-06
1.76142e-06
3.6126e-06
3.61046e-09
8.00888e-09
1.80845e-08
1.73182e-06
6.3493e-08
0.0427178
1.51948e-05
2.53123e-06
7.91419e-09
1.93973e-06
0.0770115
3.60614e-05
4.38456e-06
9.35786e-06
7.91631e-06
1.74689e-07
7.16626e-08
1.25815e-05
5.23862e-07
2.22035e-06
0.000362366
1.33972e-06
3.31357e-08
2.58699e-08
1.57665e-06
3.45474e-08
2.64094e-06
1.65819e-08
1.8255e-06
1.03164e-05
1.62749e-07
1.61415e-08
0.0313218
4.97088e-09
2.20053e-09
1.2611e-05
0.0386706
2.00412e-06
1.18779e-06
1.76654e-08
2.94978e-06
3.56688e-06
9.0323e-06
4.1514e-06
1.33774e-08
6.55936e-07
5.63733e-07
3.16483e-06
2.43927e-08
1.73236e-08
2.86339e-08
1.45453e-06
1.01226e-05
7.1186e-07
1.57304e-08
4.91477e-06
9.00508e-06
4.4057e-08
1.05646e-05
2.0208e-07
5.00591e-08
4.86218e-08
4.38016e-06
2.14304e-07
1.29372e-05
4.42054e-09
1.64387e-05
2.19425e-09
9.60356e-07
0.000227419
8.96985e-08
1.8243e-08
0.0464866
2.50436e-08
0.0382882
1.30158e-07
2.62319e-08
7.04909e-06
5.92598e-06
0.0295532
1.02575e-05
0.0341842
0.0415777
6.02045e-05
1.64318e-06
0.0276595
7.55948e-06
2.08852e-08
2.5976e-06
0.0897836
0.0253647
0.0288958
7.59794e-09
1.94092e-06
2.1176e-08
3.57031e-06
7.06021e-07
3.57468e-06
0.000114118
4.56576e-06
3.03663e-07
6.88576e-09
3.01969e-06
0.000196539
1.28277e-08
1.46995e-06
1.63317e-05
1.35091e-06
2.98912e-09
3.22868e-05
1.60612e-05
5.74696e-06
2.18928e-06
2.31577e-06
1.18807e-06
2.24289e-06
9.16598e-05
6.21376e-06
4.74471e-06
8.04844e-05
0.00030574
8.96734e-09
3.9863e-07
1.08814e-08
1.03069e-05
3.80594e-08
1.70492e-06
3.20156e-09
0.000232479
0.260434
0.0570285
6.96774e-05
3.34828e-09
5.65676e-06
0.0349558
0.0682243
6.12264e-07
0.000178334
1.35073e-06
2.78271e-07
3.86698e-07
1.08801e-08
3.90601e-06
2.35329e-05
8.79539e-08
3.45177e-08
2.81409e-06
1.27021e-07
0.115642
0.0369817
7.9216e-06
2.83631e-08
1.49769e-08
0.0287956
1.37571e-08
4.79595e-06
6.38193e-08
0.000403909
1.15975e-08
3.09953e-06
3.75804e-08
2.49462e-08
0.000714376
0.100184
0.04427
2.00993e-08
0.0472519
5.73005e-08
7.15211e-06
1.11293e-06
0.0759133
2.16944e-07
7.06876e-05
1.47772e-08
1.26481e-06
0.000183453
5.50121e-07
8.63352e-05
3.65012e-08
3.09419e-07
2.01086e-05
5.35903e-06
1.75842e-06
2.24423e-07
2.23476e-07
2.01907e-06
4.09431e-07
4.32858e-09
5.62538e-09
0.0475328
0.0254764
4.2069e-08
0.0532687
8.28098e-09
1.94127e-08
2.73943e-05
1.05313e-08
4.04188e-09
0.0248782
3.87663e-08
8.64151e-09
0.000403233
4.5989e-09
6.85603e-09
2.18612e-05
0.061536
1.35734e-07
0.0254104
3.13016e-08
2.52955e-06
0.0317614
3.73638e-06
0.000557093
2.90922e-09
3.59734e-08
7.17884e-07
5.76499e-08
0.137361
0.0287881
7.42968e-05
3.64681e-08
0.0317044
3.20398e-09
1.16e-08
1.74623e-08
0.0685099
0.00115608
4.01418e-06
4.65107e-09
7.55016e-07
0.032982
0.000599767
3.25419e-07
0.000168419
0.0718517
0.0543688
2.42014e-05
0.0545554
0.000611726
0.0292636
2.7957e-05
0.0429802
0.000229087
2.42169e-06
1.01751e-06
1.04562e-06
0.000306171
0.000602851
2.28101e-09
1.59765e-06
8.68997e-08
2.20336e-05
4.75253e-06
8.96207e-07
4.93854e-06
0.000196935
1.2313e-07
6.57623e-06
9.72048e-08
1.15101e-08
7.30285e-08
3.1332e-08
3.70189e-06
1.69689e-08
4.63345e-08
5.17695e-08
7.07039e-06
2.86344e-05
5.51583e-09
2.17581e-08
7.36503e-08
1.61206e-07
7.16908e-07
0.000827066
0.0013873
8.39116e-05
4.03546e-08
1.65616e-05
3.53478e-06
0.0317509
2.15698e-05
8.53967e-06
2.96649e-07
6.85159e-07
1.69986e-06
0.000149927
7.8589e-05
0.116508
0.0460149
3.91456e-08
0.000546806
0.000197689
2.2697e-08
1.08654e-06
4.71094e-06
3.509e-08
1.03201e-06
2.75447e-06
0.0426073
3.43269e-09
4.05208e-05
3.56689e-08
0.0307717
3.65563e-05
0.0243244
1.73308e-05
2.57246e-08
3.86789e-09
1.74088e-08
1.72075e-05
1.72453e-05
2.18634e-06
5.19121e-06
3.61245e-07
0.000413372
0.000179298
1.06809e-08
7.83912e-05
2.91774e-05
2.73108e-05
6.22012e-05
0.00189079
2.92961e-06
0.0651044
4.63924e-08
3.22911e-06
0.0262634
1.90581e-08
0.000129007
0.00483911
3.05812e-08
6.30029e-05
4.14441e-08
1.46066e-07
1.71477e-06
2.1074e-06
2.95342e-08
4.62179e-09
4.79153e-07
1.14788e-08
1.09123e-09
8.27171e-05
9.34692e-09
7.60898e-09
1.70828e-05
1.50127e-08
6.91068e-08
2.05844e-07
0.00013212
1.3024e-07
0.000109339
1.51514e-07
4.00206e-08
1.51799e-05
4.40535e-05
0.000135038
0.0272609
5.3088e-05
1.8032e-05
1.57913e-06
0.206998
0.201258
5.42298e-08
1.39705e-05
2.41755e-08
0.0290491
0.0260568
0.000265563
0.0570531
0.0469123
4.76278e-06
6.36847e-09