/*--------------------------------*- C++ -*----------------------------------*\
  =========                 |
  \\      /  F ield         | OpenFOAM: The Open Source CFD Toolbox
   \\    /   O peration     | Website:  https://openfoam.org
    \\  /    A nd           | Version:  10
     \\/     M anipulation  |
\*---------------------------------------------------------------------------*/
FoamFile
{
    format      ascii;
    class       volScalarField;
    location    "5.5";
    object      SgRate;
}
// * * * * * * * * * * * * * * * * * * * * * * * * * * * * * * * * * * * * * //

dimensions      [1 -1 -3 -1 0 0 0];

internalField   nonuniform List<scalar> 
111485
(
5.30233e-09
0.00042417
0.0107837
7.70006e-09
0.052873
1.79315e-08
0.00598515
8.09656e-05
0.00129972
0.000789389
0.00381632
0.0127492
0.0015431
0.191297
0.00416719
0.00290959
0.143933
2.37697
0.000523229
4.4323e-08
0.0254862
2.99758e-09
0.00374781
0.00346079
0.00520509
1.8397e-08
0.0398613
4.31407e-06
0.0173363
0.0329981
0.0448888
1.0208e-07
1.77649e-07
8.66851e-07
0.00914123
5.78757e-05
0.100226
0.138891
0.00162063
0.0117715
0.0275045
0.0713673
0.00600941
0.00131715
4.78089e-05
1.36903e-06
0.0277986
0.000419508
0.0494972
2.46895e-07
7.67523e-07
1.09805e-05
2.97497e-07
0.0410402
8.07825e-07
1.18058e-07
0.000885333
1.95946e-08
4.14521e-05
0.00164328
0.00733083
1.97151e-07
5.92569e-05
0.0987447
4.95266e-06
4.73874e-06
0.305568
0.00276422
3.13466e-05
0.000191272
4.11886e-05
2.31471e-05
7.96708e-06
4.22891e-05
1.63043e-08
5.58279e-08
9.56674e-09
0.0389945
2.38484e-08
2.05441e-05
0.184463
0.371085
3.91483e-08
3.98902e-09
1.05925e-05
0.000819007
0.0932293
0.02123
0.000209619
9.47922e-07
0.000837762
0.0122106
2.52445e-05
8.60404e-08
0.057399
1.34596e-08
0.0185235
0.00126807
0.00101616
0.00205967
3.99196e-09
0.0184104
1.29768e-06
0.0220512
5.93007e-05
1.04819e-05
2.61478e-08
1.21809e-07
0.0027534
0.000448513
4.47866e-06
7.63821e-07
0.00216017
0.00105024
6.74753e-08
7.27804e-08
1.04561e-08
4.21102e-06
5.56307e-05
1.57265e-08
6.80333e-08
0.000127369
0.0476087
1.31105e-06
0.001922
0.0196784
7.12073e-05
2.73752e-06
1.06624e-08
0.000305665
0.00147822
0.0265968
0.0322734
0.000117092
5.34606e-05
0.003363
7.08947e-09
1.33238e-07
0.000473121
0.000638274
0.000201507
0.000255166
0.122651
0.000983326
0.0044234
6.17724e-07
1.04468e-07
9.60567e-09
3.98137e-08
0.0026825
0.000880914
0.0195413
0.0778817
2.35312e-06
2.73144e-05
0.000654659
0.000598022
0.00394272
0.000509693
3.69546e-06
8.04637e-09
0.00148799
0.00846099
5.27173e-05
4.44747e-05
8.95245e-06
0.00457369
0.0171002
0.000971504
0.00013881
7.51e-09
4.12217e-09
0.141048
1.01627e-08
3.99244e-08
1.50782e-07
4.40251e-07
7.17335e-06
4.77213e-08
3.88578e-06
6.13975e-06
2.32853e-08
0.00136345
0.000914727
0.000654929
1.37452e-05
0.00686056
1.0261e-05
0.0003136
1.18879e-07
1.00887e-05
3.76794e-06
4.98909e-06
7.89815e-06
0.00887373
0.0203854
5.90931e-07
9.28115e-08
6.02175e-07
0.000921899
0.000304806
0.00113479
0.0118503
1.52856e-07
1.13858e-06
1.48246e-06
0.0195197
7.959e-06
0.000281696
0.00857777
0.00129092
3.36858e-06
5.46043e-06
2.578e-08
2.11668e-05
0.000204554
0.120315
2.97304e-08
4.29792e-06
4.39344e-06
0.11608
8.31002e-08
1.91618e-06
0.0147356
0.000185838
3.0264e-08
4.69325e-09
0.158817
0.0026275
1.56752e-05
6.02407e-05
3.05695e-06
1.00455e-07
0.0958864
2.55137e-05
1.21931e-05
0.106033
3.44345e-08
4.30566e-05
5.81928e-06
3.97143e-06
7.70353e-06
1.97287e-06
2.77509e-06
0.00113439
2.83309e-07
4.96427e-06
1.80761e-07
0.0302753
0.0895352
1.12801e-05
2.9303e-06
3.93593e-06
1.54569e-09
0.000129259
0.000124049
2.043e-07
4.35036e-05
0.0668984
3.7103e-08
1.04595e-06
9.15115e-06
1.13898e-06
1.44369e-08
2.60589e-06
2.04236e-09
2.92091e-08
3.26675e-07
0.114844
0.0260914
1.92087e-05
2.22006e-06
0.152163
1.17892e-05
2.0247e-06
0.000848431
3.75421e-07
2.29604e-07
3.40668e-07
1.18163e-08
0.0783233
2.23761e-07
0.0241678
2.10174e-06
9.17245e-09
0.147134
0.178638
1.45275e-06
0.000894311
2.66257e-05
2.39274e-06
7.21673e-06
0.00217577
1.22513e-07
0.000970549
1.76861e-08
0.000240528
0.000179654
0.247658
0.0686127
0.22807
1.93811e-08
0.0543022
4.3843e-07
5.01617e-07
9.91895e-09
9.05562e-08
0.016935
5.53318e-07
3.5517e-07
0.00131722
0.000538498
0.00576369
2.00986e-05
2.31881e-08
1.63816e-08
2.11008e-06
0.00290029
0.167458
0.189478
0.00043594
1.43266e-08
1.33494e-08
2.88435e-08
5.73369e-05
4.82025e-07
0.00827668
1.32357e-06
2.35723e-07
4.86262e-05
0.0416387
0.0731476
8.31257e-08
0.0111927
1.00837e-06
0.0303956
3.3163e-05
5.41767e-07
3.19342e-07
8.43294e-08
0.00512468
7.3007e-09
0.0980937
0.00034594
0.000882622
1.09077e-06
0.000263517
0.00749511
0.0247214
0.012316
3.55004e-06
0.00693474
0.0273695
0.00695872
6.31617e-06
7.20407e-08
4.39552e-07
4.27846e-07
0.00052018
0.242744
0.0409557
0.0185748
0.0334575
0.013698
4.41653e-08
3.14703e-07
0.00608206
0.0323713
0.0310499
0.0314317
0.0313607
0.00117939
1.05774e-08
1.69561e-07
0.00078049
1.27416e-08
3.93564e-06
1.19145e-06
9.7109e-06
1.18743e-05
0.0105646
1.69437e-06
0.000803172
2.52359e-07
8.5717e-07
2.72587e-05
4.84422e-07
0.00151204
3.12396e-07
0.00593588
0.124732
0.0192044
7.36336e-08
6.25774e-08
0.100214
2.38006e-06
0.218935
7.62441e-08
0.0461495
0.0265646
8.44479e-09
0.000707516
0.00203014
1.5883e-08
0.0219446
6.85327e-07
0.00759725
3.26653e-07
3.03245e-08
0.000496062
1.15503e-08
0.013029
1.69573e-06
7.31973e-09
0.0176111
2.45292e-05
0.174472
0.00239789
4.82819e-09
5.38845e-05
0.00093777
6.48922e-05
0.000134665
0.0100562
0.112367
0.884713
3.42513e-05
0.134451
0.000407492
6.31156e-08
0.0328285
0.0318858
1.14678e-07
0.000925693
0.000182276
5.63152e-05
0.0188214
0.0276989
6.30714e-06
3.66916e-08
0.229575
0.0201091
2.29481e-05
0.00287774
5.91733e-05
0.000840168
4.79283e-08
0.166903
0.216255
4.06452e-08
0.00804144
0.000195192
6.75936e-05
6.35225e-09
1.81308e-05
3.63359e-09
0.191928
4.34082e-05
0.0043287
0.00248459
0.00290662
1.37677e-07
0.00337117
3.98739e-07
0.00817434
1.3549e-07
4.26696e-07
0.0358945
0.0342535
2.75928e-08
1.82133e-09
0.000251667
5.71357e-08
8.41221e-07
0.000769504
2.13502e-08
4.22646e-05
7.25677e-08
0.0508439
7.67891e-08
1.18206e-06
2.70198e-08
0.00713492
2.77932e-07
0.147744
0.00199298
0.155836
1.79842e-08
0.000554832
1.52236e-06
1.07056e-08
0.240381
0.0938557
0.0229632
0.0207434
2.134e-05
0.00208502
0.0640708
1.57522e-07
2.74524e-05
0.188876
1.84525e-08
1.16415e-06
7.0695e-05
0.00307947
0.0372873
0.0645322
7.80048e-05
1.01684e-06
0.000153622
0.0004702
0.0517087
7.47322e-06
1.14438e-08
0.0810322
0.0430481
2.58357e-06
7.54903e-07
1.36083e-05
7.988e-09
0.00115077
0.0554275
1.70233e-07
1.76879e-07
0.0019663
6.4903e-09
0.0282257
3.58716e-08
0.000374299
2.77008e-09
0.0763342
0.0817156
6.0735e-06
1.53923e-07
0.0412399
0.0624714
2.00427e-08
2.05687e-07
0.0128979
1.12245e-07
8.48544e-05
1.13189e-05
0.00134049
0.0292186
0.0667312
1.48237e-08
3.11331e-05
0.0149309
0.00234546
0.00125298
0.00322775
0.00461726
0.0193201
6.95709e-07
0.016774
0.00537953
8.09859e-09
0.0843963
0.0327761
0.0106937
8.41909e-07
0.00575836
0.00213744
0.00134498
0.00317317
0.000252329
0.0132738
0.0232053
0.000219018
0.022159
0.0746193
0.00102208
4.92265e-05
0.00240705
0.67991
3.16341e-08
0.000528284
2.73541e-06
2.61819e-05
1.66537e-07
0.00359933
0.00186615
0.000298346
0.000111087
0.0144705
0.0150891
8.66305e-08
0.000131971
0.00676089
6.63097e-08
3.99744e-08
1.08552e-08
4.98289e-08
0.0145644
4.76477e-08
0.0238093
0.0087039
5.29361e-06
0.0667725
0.217541
4.03566e-05
1.17804e-06
0.0255184
4.57185e-08
0.0499268
1.70708e-07
8.98432e-09
3.09748e-05
9.96144e-06
0.0782575
0.0300863
1.20162e-08
1.82641e-06
0.0788595
0.0953023
0.025199
0.0248628
0.00113092
0.13477
0.0262576
0.0604876
0.0200485
3.83616e-06
9.35881e-07
0.044029
0.00437908
1.69673e-05
0.0270007
0.0263821
6.46135e-07
0.0134928
0.000375216
2.19742e-05
0.0277597
0.000251659
0.000438507
8.87901e-09
0.0401018
0.00169994
0.0151407
0.0168816
2.0868e-07
2.32412e-06
0.00765609
0.000248076
0.000122823
0.0134583
0.0134386
6.05446e-07
3.79803e-07
1.5179e-05
3.20656e-06
2.15582e-08
0.0491527
4.91742e-08
0.0961234
3.71577e-05
0.00783126
8.74673e-08
0.0186134
2.5718e-05
0.0361123
5.24824e-09
0.0346871
2.17766e-07
1.79746e-08
1.01029e-06
0.22255
0.000553778
1.92535e-05
0.0282211
7.5383e-08
2.55663e-09
0.252885
5.75857e-07
5.63591e-05
0.00156277
8.35653e-05
4.12973e-08
0.0344646
0.00586427
0.109258
2.63425e-08
2.37311e-08
1.24529e-06
1.5976e-08
8.80629e-05
2.05149e-07
0.0398683
2.8204e-07
2.03103e-08
2.09877e-07
0.0287985
0.0407888
0.0328786
8.45376e-09
4.12402
0.165105
0.118645
4.55479e-08
1.51009e-08
0.0548389
0.000252803
2.69908e-05
0.000389686
0.14937
0.00318735
3.66902e-07
0.0402424
0.0392908
0.00158727
2.55275e-08
6.80485e-07
3.30696e-08
9.28896e-09
4.20172e-08
2.98861e-08
0.0205474
2.26991e-08
1.33189e-08
4.24634e-07
0.00849154
1.73248e-07
9.01686e-08
4.40886e-07
0.10536
3.29951e-06
3.28955e-06
5.0695e-08
2.36105e-08
6.08837e-06
6.98116e-09
0.00240527
4.7001e-07
7.63187e-07
9.59677e-08
3.58342e-09
1.68987e-08
6.15557e-09
0.00730723
4.49051e-08
3.10821e-08
0.00105955
6.48174e-09
5.13617e-06
0.00127403
1.16604e-06
2.62123e-07
0.659175
6.23973e-07
0.193061
0.000320331
0.0491392
0.138744
5.53048e-05
3.24838e-06
0.0773799
9.81046e-08
1.23685e-05
0.0601241
0.672282
9.65294e-08
4.1964e-08
0.00317449
0.00268958
0.00140644
5.86295e-05
1.15792e-08
7.60153e-09
3.505e-07
2.59765e-05
2.73314e-06
2.67634e-06
0.00019975
1.76934e-07
4.1644e-06
4.06515e-08
2.13896e-08
0.0212489
7.67701e-06
1.86324e-07
5.91786e-09
3.45484e-05
0.000132541
1.11647e-06
1.97876e-07
0.027886
1.58838e-08
2.25086e-06
0.0405138
1.92321e-08
0.0478313
2.846e-05
0.0234992
0.000401112
7.47919e-08
2.81618e-05
3.11913e-06
0.0314155
0.00118319
0.000889882
0.105583
0.00015537
8.81499e-07
5.61235e-07
8.01208e-06
0.327755
0.105956
2.10052e-08
0.15733
7.0093e-07
0.00010954
3.0573e-06
0.000399578
0.000718941
3.94469e-05
2.02381e-06
0.00219305
3.98096e-07
1.28936e-07
0.0289118
3.25346e-08
6.54993e-06
3.80946e-06
5.44991e-08
3.87378e-07
0.19742
6.80844e-07
2.63362e-07
0.0020568
1.6909e-08
4.58367e-07
0.141738
2.44232e-08
0.12432
0.229503
0.000795725
7.55857e-06
8.00588e-07
0.00188718
5.47377e-05
0.00189099
0.000771797
0.000173109
2.76828e-06
0.0288069
0.00939586
3.06006e-09
0.0125995
0.000418252
0.00044662
0.000313979
0.0005746
0.000117831
6.47075e-09
4.601e-05
6.82372e-07
2.67326e-07
0.00185362
0.228742
1.49951e-07
1.58458e-08
0.00215968
0.00220372
4.33058e-09
0.00039658
1.16546e-07
2.94052e-09
3.39151e-08
2.80181e-07
2.64656e-06
1.42007e-07
0.000423661
0.0328756
1.59774e-08
5.87069e-07
0.00300781
0.076131
0.000473133
8.1362e-08
0.0206348
1.34287e-08
0.000243136
4.42221e-09
1.14856e-08
0.000390097
0.102801
1.08762e-06
1.14897e-08
1.10918e-07
0.0226549
9.43787e-09
0.0146686
4.75958e-08
0.00671209
4.21032e-09
0.0012889
0.00752912
1.05499e-08
5.20355e-07
3.5624e-07
0.000935658
4.68871e-07
1.63177e-08
1.34316e-06
0.00296012
0.0343205
0.00421885
0.00037501
0.000699446
9.37175e-08
0.000914229
0.00246798
0.00468223
2.02816e-06
0.000149505
0.00655802
1.99043e-07
5.40493e-06
9.73639e-05
4.69443e-08
2.80711e-07
0.000168043
0.00322959
0.047958
2.46201e-09
1.24889e-07
0.0387254
8.27672e-05
4.85715e-05
1.85675e-08
1.28586e-05
3.67746e-08
6.37913e-07
1.74492e-05
1.33914e-05
4.43418e-07
0.00303999
1.88345e-05
0.000963759
1.06411e-05
5.65347e-08
2.7207e-06
6.6153e-09
1.46014e-07
2.42079e-05
0.350235
2.53677e-08
4.09844e-07
2.68647e-07
1.74846e-08
3.30071e-05
2.77496e-07
0.0445145
0.000557452
0.00742762
4.19729e-08
0.000868217
0.000104655
4.53142e-05
0.000163041
5.27154e-08
0.00230063
0.0238076
0.0815453
0.00133413
0.000300729
5.8633e-08
1.54185e-09
1.08863e-08
0.122742
0.0474129
0.00466381
1.20844e-08
0.173972
3.73425e-08
0.121999
0.000320941
4.23727e-07
2.84928e-08
1.49406e-06
4.76009e-07
0.0288021
1.35141e-06
7.84866e-05
0.207835
0.00573879
4.9102e-05
2.4263e-05
4.76345e-05
3.56863e-05
4.89174e-09
3.00325e-08
0.0198907
0.000385503
1.86163e-08
1.62375e-07
0.000419638
2.29602e-07
0.0019141
0.300077
1.36257e-06
0.00233877
7.55556e-09
4.31033e-07
2.27108e-07
0.242315
1.19749e-08
0.0791238
0.0036517
0.000948848
0.0133496
0.0258002
0.00062992
1.888e-06
0.000554855
1.48509e-06
2.82929e-05
4.47971e-08
1.37158e-06
5.50928e-05
1.51032e-06
0.0447977
1.78772e-07
0.00530578
0.00562481
9.16325e-09
0.000253563
8.31622e-08
0.000440446
0.000529464
5.48548e-08
3.06188e-05
0.000210395
4.15304e-07
9.03497e-07
0.124114
4.90879e-06
0.0124853
5.18444e-08
0.0295934
5.95229e-06
2.05398e-07
3.46491e-05
3.44701e-06
0.101359
3.2081e-09
0.100076
0.000731751
3.97932e-09
0.000632909
3.74062e-07
1.2466e-08
0.00199096
0.000539917
0.00739023
2.74671e-08
8.43419e-07
5.17676e-08
0.000126455
3.38415e-05
0.0235341
5.02616e-06
0.00059073
4.5628e-05
0.000732207
2.20125e-05
2.16329e-06
6.61706e-07
3.05324e-07
4.04463e-06
0.0206552
0.000984741
0.0301879
0.000175955
0.0304412
9.96747e-09
7.63897e-07
7.27453e-08
4.77064e-05
0.000281121
9.71821e-07
0.000229935
0.000386532
0.00250271
6.99255e-09
0.00479507
0.00538968
0.000103403
0.00125425
1.99718e-07
0.000583795
1.18851e-06
0.0216832
9.05958e-08
8.27969e-09
0.000179203
0.0817178
0.000643818
3.83655e-07
0.030109
0.000366745
4.73131e-07
3.81273e-08
0.000361219
1.65451e-06
0.0382466
0.185134
0.000186189
0.000236155
2.86785e-06
3.73387e-08
7.83513e-08
7.45198e-08
5.19051e-05
2.77496e-06
0.0222065
0.0379052
0.0120607
3.65589e-08
0.000207897
0.0267013
1.89114e-05
0.000771292
2.57135
0.0279816
0.0984906
0.0325807
0.0150858
1.25379e-08
0.00135199
3.72993e-07
6.76098e-08
1.70775e-07
5.43108e-08
0.00243042
2.66958e-08
1.47328e-08
5.93542e-05
5.83431e-08
5.76196e-09
7.05182e-07
1.70364e-07
0.0380306
1.26764e-06
0.002028
0.0491307
0.175991
2.40682e-08
0.123493
0.000104943
0.254293
5.39611e-07
7.67719e-08
5.58423e-08
0.00586277
0.173203
2.25409e-08
0.000773129
1.62065e-08
6.79565e-07
1.13438e-05
1.60924e-06
6.9639e-07
1.7424e-07
0.0499983
1.53181e-08
5.35717e-07
8.04296e-08
3.56253e-07
1.81639e-07
0.000281212
2.50356e-05
7.68997e-07
0.000263409
0.000567416
2.87294e-07
0.000197825
4.83352e-07
1.95418e-06
9.11795e-08
8.76954e-08
0.173184
0.0282667
0.000314093
1.67494e-07
2.63297e-08
5.26879e-07
0.127989
2.02593e-07
9.80236e-05
0.219213
7.23598e-07
2.42479e-09
0.02293
0.0568533
2.65128e-07
3.69129e-07
0.0127141
1.59345e-08
0.120105
1.32137e-08
0.0278293
0.0119204
0.0113704
1.36394e-08
3.12558e-07
8.18726e-07
1.77885e-07
1.51258e-06
2.63909e-06
3.08073e-09
2.38538e-09
0.03308
0.051908
7.80916e-09
0.00605472
5.21037e-07
5.81536e-05
1.1981e-07
0.0311364
1.4386e-06
0.00319555
0.00619109
1.43018e-07
0.00257256
1.07647e-06
0.00374349
3.04643e-08
1.08967e-08
0.00732664
2.13664e-08
0.00010015
0.00894201
2.0372e-08
3.85112e-08
0.0225143
0.000367767
0.234223
5.31003e-08
0.257106
1.26051e-06
0.000241673
0.000108173
0.00378592
5.65421e-05
0.0514503
0.000285721
3.5764e-05
0.000759636
0.0435377
7.94536e-07
1.56229e-08
0.000245067
0.000957745
0.0268377
1.98877e-07
0.0229021
0.000824832
3.9204e-08
0.155716
9.21379e-09
1.0763e-07
2.7754e-06
0.00480315
0.241475
0.0370306
3.78127e-07
1.08351e-08
5.06937e-09
6.96806e-08
7.00161e-08
3.73208e-07
5.93934e-08
4.97307e-09
3.89113e-08
2.48203e-09
1.29648e-07
0.0405401
0.0240923
1.9212e-08
9.33445e-06
6.00268e-09
1.94393e-08
1.89657e-08
0.0235937
0.0564993
0.0131003
4.56328e-08
5.80963e-09
5.24018e-07
1.64421e-05
2.7538e-06
9.78758e-08
0.22233
2.71063e-07
2.30402e-06
1.66058e-05
0.000129697
3.20467e-06
0.00590401
2.1206e-05
1.09196e-08
0.00148001
0.00225952
2.03818e-08
0.01276
3.12078e-05
2.34472e-05
2.96138e-05
4.86098e-06
2.68752e-06
1.3485e-07
0.222553
3.99428e-07
4.14711e-05
0.0406252
3.2596e-05
0.00170402
1.54289e-05
8.54191e-07
1.28003e-07
3.4588e-05
9.48689e-06
4.27825e-05
2.6393e-06
0.000296634
3.00436e-06
0.00159058
1.07243e-06
6.71409e-09
5.93063e-08
1.62831e-08
2.97019e-09
1.51273e-07
6.27334e-08
4.4547e-06
2.96189e-08
4.63953e-09
1.25914e-07
1.08852e-05
2.90525e-08
2.96694e-08
4.84658e-07
6.29967e-07
4.38049e-07
0.000188479
3.14436e-06
0.176325
1.41797e-07
8.23272e-06
0.0281942
5.90358e-06
6.67632e-09
3.85912e-08
0.155401
3.15891e-07
5.86117e-09
2.09688e-06
0.154147
1.47543e-06
0.00845253
0.0240517
7.05842e-07
3.95908e-06
2.64159e-05
0.0002489
1.90822e-08
0.000293959
3.45708e-06
9.73396e-08
0.0279171
1.03835
0.145173
4.9956e-06
1.03328e-06
0.00669763
0.000258822
6.43558e-06
5.82509e-08
0.00421416
1.98444e-08
0.000357098
0.000272031
0.0418246
6.55973e-06
0.198675
1.20419e-08
1.17663e-07
4.73855e-07
0.000249496
2.8158e-05
2.25594e-06
3.19955e-05
3.91396e-08
5.8498e-06
1.44102e-08
2.62699e-09
2.20388e-07
0.76491
3.00737e-08
4.91587e-09
0.000283595
2.00514e-07
0.000780083
1.2e-06
8.84083e-07
7.1784e-07
9.36578e-08
1.38557e-05
2.67183e-06
0.000142292
0.0299055
2.0782e-06
0.00223206
6.30369e-07
7.10763e-09
0.000102376
0.0187379
0.00021984
1.58191e-08
0.098615
0.0494883
7.48696e-05
1.01121e-06
7.21671e-09
0.000128674
2.13645e-06
1.47838e-07
7.3122e-09
0.000242468
0.0114524
0.00102653
0.129338
9.93442e-07
2.38404e-06
0.000161758
5.9146e-07
1.26587e-06
3.09214e-07
5.22477e-05
2.70828e-05
7.73832e-05
0.126844
3.12112e-06
6.36501e-09
2.45614e-07
8.51545e-06
6.25436e-06
1.84942e-07
0.000325839
0.000754992
0.000293241
0.0282029
4.40298e-06
3.42222e-05
2.70942e-06
1.98961e-06
4.71056e-08
4.61338e-08
0.0676417
0.000328952
1.92779e-06
1.02302
0.0381121
0.00983553
0.000279879
0.043139
1.68686e-06
2.04954e-06
5.50201e-08
2.71705e-05
6.55335e-06
0.00481781
4.16507e-06
1.7344e-07
1.73761e-08
0.000135681
1.05686e-06
1.46213e-08
0.0353506
1.18459e-06
5.74518e-06
9.24598e-06
9.69861e-08
4.66022e-08
0.000395158
0.0925842
4.3288e-08
1.17825e-08
1.54975e-08
0.0966486
0.166454
0.0113779
0.0365462
0.00305665
4.37601e-06
5.45103e-06
2.30528e-06
4.56668e-06
2.73273e-06
0.00141294
0.0747028
0.243054
0.271931
3.68334e-06
4.46896e-06
2.66023e-06
0.143067
0.251267
1.15831e-08
0.135547
3.15806e-06
3.05793e-09
4.29753e-07
3.28803e-07
7.46357e-08
3.94938e-08
1.75302e-07
1.79769e-08
0.0926577
7.49999e-08
6.68386e-06
0.00192337
1.37403e-08
0.00497734
4.95971e-06
9.83219e-07
1.74054e-07
0.000379875
4.22109e-06
0.0129051
0.000186128
5.06423e-06
3.16456e-06
2.16359e-06
0.00868657
1.00515e-07
4.5355e-06
0.00224253
7.0119e-06
7.95532e-07
3.22179e-06
5.88415e-07
4.08083e-06
0.000337036
2.69321e-06
0.00151248
0.000873924
1.13229e-06
3.89518e-05
7.53565e-08
0.00276518
0.0282497
0.000372125
0.231362
0.00106308
0.000306747
5.22318e-08
0.0421807
1.08877e-08
1.68364e-05
0.0278756
1.75696e-07
5.81704e-05
1.08217e-07
3.69856e-07
9.26798e-06
5.69762e-07
2.60433e-08
4.41437e-06
3.81272e-07
1.45129e-05
0.0498688
2.36831e-07
0.000123385
1.01042e-06
4.75118e-07
9.11731e-08
0.000169149
2.41121e-05
4.62255e-07
9.78219e-09
4.01308e-07
0.0304573
0.000132538
0.00371151
0.0861943
9.34915e-09
7.48877e-09
6.19096e-07
7.69446e-09
0.000134643
3.42175e-08
1.44626e-05
7.09844e-06
0.0113237
2.2428e-07
4.9959e-08
0.00123547
6.10859e-05
9.55783e-05
0.0426678
2.86521e-08
7.25272e-07
5.4611e-07
0.000360562
7.92118e-07
0.123097
8.40691e-06
1.92865e-08
6.51631e-08
0.000152909
3.53453e-06
0.00162625
5.11136e-05
0.0176893
0.161886
3.57797e-09
0.000212885
0.000594453
0.0291511
1.10823e-06
0.0325146
0.0569316
7.54075e-05
5.41133e-06
1.36138e-05
1.48724e-08
1.10788e-05
1.81852e-05
0.000235814
1.18984e-05
0.000417558
1.73567e-05
0.00033294
0.00022367
0.000380715
8.45166e-05
3.62239e-08
0.0195357
0.00936744
5.41949e-06
0.0826966
0.000165713
0.000142792
8.9852e-06
0.000964912
0.000166812
0.00218278
0.000207471
0.00126353
1.3831e-05
6.68588e-09
0.000721903
0.000266293
0.0458409
1.31559e-06
0.000238294
3.38475e-05
0.000444898
5.6113e-05
6.15318e-07
0.000252302
0.00025091
5.43151e-05
1.04008e-08
0.000321645
8.23351e-06
0.00182019
0.00077622
0.233641
2.88144e-05
1.16871e-06
0.000323447
0.000912709
0.00593012
0.0213209
0.0482425
3.19297e-08
0.00531409
8.38757e-06
1.04931e-06
3.34088e-08
0.000769506
3.75514e-07
0.0292963
8.98976e-08
1.81203e-08
0.00209216
0.00111534
3.34693e-07
0.291923
0.0270909
0.0212064
0.000506918
1.2715e-05
0.143909
0.0272806
1.25974e-06
0.00290598
9.91079e-06
0.000354577
1.23811e-05
0.0256546
0.000516823
0.000836399
0.000430352
1.14495e-06
0.00284064
4.25384e-07
0.018974
1.84119e-06
5.95537e-07
2.31267e-06
2.84464e-06
0.00458203
2.30333e-08
2.6262e-07
0.0509912
1.98434e-08
1.44344e-08
0.000542615
5.41509e-08
0.000722254
2.40245e-05
0.0416619
0.010405
0.175806
3.31352e-06
0.00868579
0.0273415
0.521212
1.61181e-09
0.0624581
0.0191851
0.0110013
0.0166046
0.00155609
0.0557464
3.67554e-06
4.52171e-06
5.90659e-07
0.0827181
6.6112e-07
6.99067e-08
9.73237e-07
4.61861e-07
2.12572e-08
0.00379012
1.81298e-06
0.177608
5.02982e-05
2.34387e-05
3.03866e-05
3.85213e-05
3.72758e-06
0.000807995
7.28373e-09
2.20644e-07
0.000254201
1.41703e-05
0.10044
6.18115e-08
4.29329e-06
0.00774442
8.90751e-06
9.14299e-09
0.0204045
1.65646e-07
0.000847922
0.00373149
0.0134726
3.20161e-08
9.17955e-09
0.00108264
1.64841e-08
9.38367e-09
3.91651e-09
9.0357e-07
0.246835
2.18506e-07
0.0316401
4.62569e-05
0.0287233
0.000384356
0.0026566
0.00190772
0.00319421
0.0193282
0.00159089
7.94662e-09
3.96842e-09
2.51915e-09
0.00203613
8.75754e-08
0.237548
0.000351248
0.00144558
0.00123059
3.46419e-07
1.66559e-06
2.33195e-08
0.0405491
0.00277455
0.000333799
1.02958e-06
1.48217e-07
3.764e-08
0.310161
0.000132964
0.00169533
0.000449661
9.20955e-08
0.0802603
1.46673e-07
2.3007e-07
4.73891e-07
4.83817e-07
3.27011e-05
2.26635e-07
0.000854832
9.34786e-06
0.000965251
1.79448e-06
2.48935e-09
0.000126243
3.25318e-07
0.104881
0.0236399
9.25137e-08
8.83065e-07
1.43202e-05
0.0415225
0.0203702
1.18769e-05
0.0100133
0.0620192
0.00127116
0.341179
0.0299015
1.94279e-05
4.52803e-07
0.112729
0.0127642
7.49931e-06
0.00380124
1.53008e-08
0.0121559
0.00109148
2.03477e-06
6.44991e-06
0.000245832
3.35589e-09
0.0158596
1.54112e-08
2.13145e-05
0.311273
9.0273e-08
0.00387045
9.35559e-07
3.88904e-07
4.6817e-08
0.00192914
3.40328e-07
6.71453e-08
1.30263e-05
6.04171e-05
1.90227e-08
0.0159543
0.0301153
1.40072e-06
1.06425e-08
2.93625e-09
0.000426778
0.00182398
0.00235833
1.16668e-08
6.09793e-08
8.81438e-05
0.00258562
0.00131424
0.00844806
0.27325
7.11681e-09
0.0992799
6.29773e-07
2.8406e-07
0.0354823
7.09959e-07
2.43093e-08
0.0156302
7.01393e-09
8.55458e-06
4.97007e-06
1.58134e-06
7.16506e-07
1.41612e-08
1.27188e-08
1.82186e-08
1.42469e-05
0.0916461
0.147395
1.0993e-05
1.55996e-06
6.24033e-09
0.0381385
0.147836
0.0270938
0.105332
1.08541e-07
0.00064348
0.000155489
2.75918e-07
6.31886e-09
1.2496e-06
7.83006e-05
7.74678e-09
7.66745e-06
0.00472011
0.0410779
0.145024
1.03026e-05
2.05183
1.64057e-08
2.10947e-07
6.74613e-06
0.000393107
2.24142e-05
0.649007
1.1736e-05
0.00485271
1.17801e-08
5.46899e-08
9.03653e-06
0.0398561
1.63193e-07
0.124001
4.23114e-08
0.0253587
0.0152492
0.827011
2.43328e-08
1.27816e-08
5.31569e-08
3.53024e-08
0.006025
0.000213547
1.50392e-08
0.0255235
3.51306e-06
0.10608
1.77184e-07
9.5603e-07
1.00718e-06
0.0254049
8.71573e-06
3.03721e-08
2.14987e-08
5.61079e-08
1.3443e-05
5.46012e-06
0.0367423
0.0355691
1.75304e-06
0.000166614
2.24727e-08
7.67685e-09
2.42091e-08
0.00645772
0.000155709
1.37558e-07
2.99305e-08
9.64513e-09
0.0150384
0.00225524
0.00264035
0.0276489
5.82861e-05
0.223139
5.70316e-05
2.72016e-07
7.14997e-09
1.65729e-07
0.0366179
2.66127e-09
0.0116579
3.45567e-08
0.0155998
2.9081e-05
0.00111932
9.51325e-05
0.00152031
2.45223e-08
2.41254e-08
0.245472
0.212889
2.28875e-05
0.0023405
3.69605e-07
0.000325586
6.97932e-05
2.05043e-06
2.2307e-06
0.000201189
6.70443e-08
0.00077539
0.0268226
0.00307988
1.42312e-07
5.55594e-05
6.57843e-07
0.0233468
0.123344
0.000180492
1.06909e-08
0.00702039
2.62184e-07
0.00431957
0.0167713
0.000629644
9.27269e-09
0.000585074
0.000387814
6.44913e-05
0.00433021
7.65871e-05
0.000963737
4.24224e-06
5.97525e-09
0.000105843
1.16351e-05
0.000207881
2.43083e-07
6.38212e-06
8.19169e-05
0.469882
8.40079e-09
5.47076e-08
5.49841e-08
1.02902e-08
1.10556e-07
0.0147482
0.000460141
0.000794286
1.77666e-05
0.000133476
0.00108893
9.20925e-09
0.00342426
1.51045e-08
3.48972e-07
1.91659e-08
1.20205e-05
0.00126641
1.36302e-05
1.10799e-07
1.64984e-08
0.000635979
1.13109e-07
1.08158e-08
0.106788
5.96901e-06
0.0429504
0.0683746
0.348575
1.99739e-09
0.199891
1.19917
1.85855
0.689019
6.77072e-09
1.43661e-08
0.000146021
0.00560996
4.55413e-05
0.00339537
0.0268098
0.000940644
2.00079e-05
3.06704e-06
0.000733442
1.67015e-08
1.06891e-08
6.28098e-05
0.000236991
0.0178738
1.28325e-08
0.0783074
8.35534e-05
2.0848e-07
7.81552e-05
0.00175874
0.00900058
1.54319e-06
0.00823264
6.62577e-09
3.0483e-06
0.00143891
0.00798792
7.77283e-08
0.00117142
0.00641722
7.62104e-06
0.00215429
5.66524e-08
0.00172033
3.7493e-05
0.000299717
7.17833e-07
0.132716
3.51741e-08
6.3406e-07
3.11349e-08
0.0776151
0.0796721
1.37861e-06
0.00268696
0.00570637
0.0376948
1.12917e-08
9.45306e-06
1.86093e-06
0.186475
8.54787e-07
0.14493
0.00660297
0.043418
0.00236969
1.02466e-07
0.0597397
8.81743e-07
0.220413
1.02376e-08
0.00163588
0.00266899
9.24668e-08
4.64702e-07
1.02204e-06
0.0209894
3.00793e-08
0.0272309
1.24649e-07
6.87489e-06
7.99794e-07
4.04815e-07
0.000240145
2.71658e-05
0.141466
3.95398e-06
0.0001579
0.0417547
8.28088e-07
0.0294667
4.87734e-07
2.75355e-06
1.76142e-06
3.6126e-06
3.61051e-09
8.00917e-09
1.80845e-08
1.73183e-06
6.34942e-08
0.0427178
1.51948e-05
2.53123e-06
7.91419e-09
1.93973e-06
0.283836
0.00451633
4.38456e-06
9.35786e-06
7.91631e-06
1.74689e-07
7.16627e-08
1.25815e-05
5.23862e-07
2.22035e-06
0.000362366
1.33972e-06
3.31365e-08
2.58702e-08
0.310397
3.45476e-08
0.00596497
1.65822e-08
1.8255e-06
0.00306567
1.62749e-07
1.61415e-08
0.0313218
4.97089e-09
2.20098e-09
0.0165843
0.0386706
2.00412e-06
1.18779e-06
1.76654e-08
2.94978e-06
3.56688e-06
0.00756718
4.1514e-06
1.33774e-08
0.00170858
5.70746e-07
0.126468
2.43944e-08
1.73238e-08
2.86341e-08
1.47348e-06
0.160551
7.1186e-07
1.57304e-08
4.91477e-06
9.00508e-06
4.40573e-08
0.0110977
0.0245783
5.00598e-08
4.86218e-08
4.38016e-06
2.14304e-07
1.29372e-05
4.42054e-09
1.64387e-05
2.19426e-09
0.0570274
0.000227419
8.96997e-08
1.82431e-08
0.0464866
2.50436e-08
0.0382882
1.30159e-07
2.62319e-08
7.04909e-06
5.93277e-06
0.0295532
1.02575e-05
0.0341842
0.0415777
0.556817
1.64318e-06
0.0276595
7.55948e-06
2.08853e-08
2.5976e-06
0.0897836
0.0253647
0.0288958
7.59802e-09
1.94092e-06
2.11761e-08
0.00275709
7.06021e-07
0.0123608
0.000114118
0.0508725
3.03663e-07
6.88589e-09
0.0177572
0.000196539
1.28277e-08
1.46995e-06
0.000302155
1.35091e-06
2.98916e-09
0.0362142
0.012909
5.74696e-06
2.18928e-06
2.31577e-06
0.0157719
2.24289e-06
0.00478226
6.21376e-06
0.0230488
8.04844e-05
0.00030574
8.96744e-09
3.98632e-07
1.08816e-08
1.03069e-05
3.806e-08
1.70492e-06
3.2017e-09
0.00023317
0.260448
0.0570285
0.00366015
3.3494e-09
0.00453684
0.0349558
0.0682249
6.12264e-07
0.000178334
0.0415209
2.78271e-07
3.86698e-07
1.08801e-08
3.90601e-06
0.00116938
8.79539e-08
3.45178e-08
2.81409e-06
1.27022e-07
0.743747
0.0369817
0.0817018
2.83632e-08
1.49771e-08
0.0287956
1.37571e-08
4.79595e-06
6.38193e-08
0.000447874
1.15975e-08
0.00708563
3.75806e-08
2.49463e-08
0.000714376
0.100184
0.04427
2.01005e-08
0.0472519
5.73005e-08
0.0033876
0.205601
0.0759133
2.16944e-07
0.000520542
1.47772e-08
1.26481e-06
0.000185207
0.00500866
0.000296739
3.65013e-08
3.09419e-07
0.00417273
5.42135e-06
0.00591253
2.24423e-07
2.23477e-07
2.01907e-06
4.09431e-07
4.32858e-09
5.62539e-09
0.0475328
0.0254764
4.20691e-08
0.0532687
8.281e-09
1.94127e-08
0.0708872
1.05313e-08
4.04188e-09
0.0248782
3.8767e-08
8.64164e-09
1.04924
4.59893e-09
6.85612e-09
0.0191658
0.061536
1.35735e-07
0.0254104
3.13016e-08
0.00134541
0.0317614
3.73638e-06
0.000557131
2.90922e-09
3.59735e-08
7.17884e-07
5.765e-08
0.249026
0.0287881
0.000258063
3.64682e-08
0.0317044
3.204e-09
1.16004e-08
1.74623e-08
0.0685099
0.00115614
4.01418e-06
4.65136e-09
7.55017e-07
0.032982
0.000599853
3.25419e-07
0.000168698
0.0718517
0.0543688
2.42014e-05
0.0545554
0.000611732
0.0292636
2.7957e-05
0.0429802
0.000229087
0.029881
1.01751e-06
0.00667879
0.000306171
0.00060477
2.28108e-09
0.00136106
8.68997e-08
0.00284154
0.0185067
8.96208e-07
0.00191282
0.000205251
1.2313e-07
0.00792689
9.7205e-08
1.15102e-08
7.30288e-08
3.13321e-08
3.70189e-06
1.69689e-08
4.63347e-08
5.17698e-08
0.256818
2.86344e-05
5.51598e-09
2.17582e-08
7.36503e-08
1.61206e-07
0.0031777
0.7898
0.00138893
9.66021e-05
4.03547e-08
0.00175115
0.00152229
0.0317509
2.15698e-05
8.53968e-06
2.96649e-07
6.85159e-07
1.69986e-06
0.000149927
7.8589e-05
0.116799
0.0460149
3.91457e-08
0.000655944
0.000199051
2.2697e-08
0.0269735
4.71094e-06
3.50905e-08
1.03201e-06
0.14966
0.0426073
3.4327e-09
0.0256638
3.56689e-08
0.0307717
3.65563e-05
0.0243244
0.052229
2.57247e-08
3.86792e-09
1.74088e-08
1.72075e-05
0.00440789
0.224368
0.0330451
0.0475604
0.00286636
0.000294018
1.06809e-08
7.83912e-05
0.12065
0.00112914
6.22012e-05
0.00189086
2.92961e-06
0.0651044
4.63926e-08
0.212595
0.0262634
1.90582e-08
0.000295862
0.00483911
3.05812e-08
0.0100042
4.14441e-08
1.46067e-07
0.188847
0.0166733
2.95344e-08
4.62181e-09
4.79154e-07
1.14789e-08
1.0913e-09
8.27171e-05
9.34711e-09
7.60901e-09
0.00266925
1.50129e-08
6.9107e-08
2.05844e-07
0.000140499
1.3024e-07
0.000109339
1.51514e-07
4.00206e-08
1.51799e-05
4.40535e-05
0.00230464
0.0272609
5.3088e-05
0.00549419
1.57913e-06
0.207294
0.205375
5.423e-08
0.0108317
2.41756e-08
0.0290491
0.0260568
0.000265563
0.0570531
0.0469123
4.76278e-06
6.36867e-09
0.0159493
2.63987e-08
2.70861e-08
3.23837e-07
1.08558e-05
2.76205e-09
1.1196e-05
0.0374463
6.03452e-09
3.88894e-08
0.335876
3.22333e-09
0.0109031
5.3655e-06
0.00791627
2.05155e-09
0.000266094
9.93458e-05
0.157238
1.5512e-06
0.0151289
0.000122281
0.00143401
0.000176066
0.0476118
0.000131947
0.000150833
2.09303e-07
0.0400915
0.000214667
0.000864405
2.72975e-06
8.84429e-08
0.0134518
0.000203453
0.0165248
0.0120999
0.00011161
1.0411e-06
1.52558e-07
0.00215519
0.0108829
1.0745e-08
0.0158538
2.63956e-07
3.00831e-06
0.0234488
0.000876664
0.00373836
2.06139e-06
0.0187514
1.15454e-05
3.92411e-07
0.0114908
5.85601e-05
4.95163e-06
2.25332e-06
0.00126875
0.003438
9.17848e-08
0.000736751
4.23272e-06
8.04419e-05
0.00864786
0.000270512
6.39034e-06
0.00160543
0.000380585
8.81273e-05
0.000132034
0.0478768
0.00348023
0.000804764