/*--------------------------------*- C++ -*----------------------------------*\
  =========                 |
  \\      /  F ield         | OpenFOAM: The Open Source CFD Toolbox
   \\    /   O peration     | Website:  https://openfoam.org
    \\  /    A nd           | Version:  10
     \\/     M anipulation  |
\*---------------------------------------------------------------------------*/
FoamFile
{
    format      ascii;
    class       volScalarField;
    location    "5.5";
    object      SgT;
}
// * * * * * * * * * * * * * * * * * * * * * * * * * * * * * * * * * * * * * //

dimensions      [1 -1 -3 -1 0 0 0];

internalField   nonuniform List<scalar> 
111485
(
1.4649e-13
0.00038622
0.0107704
7.07251e-15
0.0528689
2.23511e-15
0.00597839
8.08924e-05
0.001295
0.000788044
0.00380381
0.0127487
0.00153951
4.78963e-05
0.00416422
0.00289982
5.2322e-14
2.37627
0.000522806
4.37819e-13
2.8735e-13
2.46534e-14
0.00374656
0.0034556
0.00518882
1.00159e-13
0.039861
4.48113e-13
0.0173358
4.74517e-14
0.0448863
3.21874e-13
1.59164e-12
4.4392e-14
0.00865305
2.71322e-14
0.0106172
2.55951e-14
5.86741e-08
0.0117712
3.29831e-15
0.0713667
0.00600788
0.0012622
3.16214e-05
5.17262e-13
0.027795
0.000418943
0.0494941
3.91035e-14
4.1225e-13
5.41517e-13
7.19847e-14
0.0410339
1.21829e-13
4.19655e-10
0.000884134
2.28329e-14
1.91428e-05
0.001643
0.00733046
1.35213e-13
1.73373e-05
0.0987408
4.0405e-13
1.95718e-09
0.305298
0.00276315
1.00889e-05
0.000146014
9.74629e-06
6.7955e-08
1.31149e-13
7.72257e-06
8.99437e-13
4.8796e-14
5.68574e-14
0.0389941
2.21071e-14
4.21233e-12
2.1382e-05
0.0287569
6.69231e-15
5.12238e-13
3.11543e-06
0.000804819
4.29755e-10
0.0212259
4.5841e-05
6.05944e-14
0.000836595
0.0122066
7.34887e-06
1.59427e-14
0.0573982
7.96926e-13
2.50663e-13
0.00126156
1.11817e-08
0.00177814
1.69109e-13
0.0184086
1.12135e-14
0.0220448
5.5902e-05
6.45215e-13
2.57471e-15
9.06581e-13
0.00275154
9.17341e-08
3.52464e-13
2.41355e-08
0.0021548
0.00101775
5.62168e-14
1.39185e-15
3.33991e-14
2.67193e-14
4.40444e-05
1.26339e-13
2.31011e-13
1.35648e-12
1.54362e-14
1.49616e-14
0.00189632
1.85079e-06
1.55846e-14
1.58461e-14
3.38949e-14
0.000115415
0.00139643
0.0265881
6.89186e-14
2.28039e-12
6.03954e-14
0.00336265
1.78407e-14
2.45795e-13
0.000466566
0.000626214
0.000165973
0.000255043
0.00044882
0.000947476
0.00440397
7.39626e-14
2.17342e-14
5.56018e-14
2.1288e-15
0.00268237
0.000867841
1.65215e-13
8.37692e-08
1.57935e-12
5.05395e-07
0.00065448
0.000595334
0.00389303
1.06793e-07
6.10857e-14
8.96426e-14
0.00148779
0.00844206
2.89578e-06
2.44335e-07
3.89867e-13
0.00457098
6.77333e-15
6.58302e-06
5.47926e-05
1.81293e-15
4.88234e-14
4.31576e-05
1.0993e-15
2.83159e-13
1.3338e-13
4.22788e-14
8.77013e-14
1.16065e-13
6.44223e-13
4.84104e-13
1.15002e-13
0.0013625
0.000914524
0.0006535
2.12583e-14
0.00685551
6.74348e-13
0.000109772
1.55897e-13
9.38775e-14
1.7462e-13
2.02165e-14
1.43199e-12
0.00887082
0.0203774
1.32136e-08
1.24524e-13
4.68516e-13
0.00091917
0.000304387
4.51942e-05
0.0118015
5.11161e-14
7.18671e-13
2.325e-13
0.019515
7.5843e-14
0.000272396
0.00857654
0.00128973
1.08379e-13
1.37597e-13
5.13969e-13
1.23901e-13
7.23423e-12
0.120315
1.62843e-14
7.66833e-13
3.31562e-13
0.116079
2.69317e-13
4.27496e-13
0.0147265
6.1585e-13
4.75645e-15
4.30949e-15
0.158798
4.22414e-07
5.87721e-13
7.67928e-14
2.20357e-13
1.3851e-13
8.94007e-08
6.76765e-14
6.86717e-13
1.16876e-05
4.60566e-14
2.68311e-05
4.78199e-13
7.52591e-13
6.05553e-13
1.17571e-13
7.04233e-15
2.7295e-07
2.74603e-14
3.69802e-14
2.16974e-14
0.0302722
5.28445e-08
3.32183e-13
1.19891e-13
2.95554e-13
1.54318e-13
2.32402e-12
0.000123826
4.71505e-14
9.99143e-13
3.70549e-05
1.51256e-13
3.71495e-13
7.02772e-13
3.67146e-13
7.47825e-14
1.23627e-13
1.50542e-15
1.0955e-13
9.91296e-14
1.86421e-08
0.0260895
4.37552e-06
1.83873e-06
0.0372247
2.25623e-06
1.6159e-06
0.000707155
7.91097e-13
1.80817e-13
3.73325e-14
1.25551e-13
2.42284e-07
6.41753e-13
0.0241422
4.84001e-13
4.53619e-14
1.44955e-06
0.000622525
9.45886e-07
0.000761253
4.10861e-06
7.78665e-07
4.16077e-06
0.00216957
4.86427e-14
0.000967022
2.55227e-15
3.3054e-07
3.06203e-13
0.247651
0.0686118
0.0012982
2.7057e-13
3.30885e-15
2.47077e-11
1.67829e-12
2.40568e-13
7.70476e-14
2.95399e-12
3.36441e-14
1.66064e-12
0.00131424
0.000486996
0.0057636
4.44494e-13
2.44412e-14
2.11056e-13
3.44076e-11
6.78405e-13
1.62661e-05
0.189476
4.63448e-07
1.04485e-15
1.92054e-13
8.52907e-14
2.54175e-12
6.56825e-10
0.00827631
1.72133e-14
6.1751e-10
1.94724e-12
1.89799e-13
0.0731446
1.23459e-09
0.0111917
4.42501e-10
8.47216e-13
1.38073e-12
9.3744e-15
4.31036e-10
4.80599e-14
0.00512263
1.1177e-14
2.76428e-10
0.000249252
0.000882341
2.45835e-12
6.50829e-05
0.00749503
2.26749e-16
0.0123159
1.78838e-09
0.00693044
0.0273693
0.00694514
1.23845e-14
1.95041e-12
1.57722e-13
1.33557e-13
0.000518599
1.34276e-12
0.0409441
0.0185747
1.79471e-14
0.0136891
1.55443e-15
7.42164e-13
0.00608191
7.23339e-14
0.0306888
3.98618e-13
1.18882e-16
0.00117931
2.97978e-15
3.50543e-13
0.000780151
4.06121e-15
4.98826e-07
4.21221e-09
6.91745e-13
8.15725e-09
0.0105081
2.73133e-09
0.000356726
5.52077e-14
3.50661e-13
2.0726e-12
2.77708e-14
0.00112002
1.15003e-14
0.00592809
0.12473
1.23299e-14
4.5051e-15
2.08699e-10
4.97079e-05
3.00154e-14
0.019457
1.13518e-14
0.0461465
0.0265629
1.66454e-16
0.000704583
0.00200335
2.33988e-14
2.44763e-13
1.15732e-12
0.00759614
6.6309e-14
1.05605e-14
1.90694e-08
2.79471e-13
0.0130256
9.64847e-15
1.09234e-13
0.0176106
1.79407e-06
0.0140298
0.00234206
4.31355e-15
1.20506e-12
0.000874705
8.14189e-14
0.000111008
0.00968121
0.112365
0.883976
9.45902e-15
1.1311e-13
0.000272716
9.26174e-13
0.0328245
0.0318853
7.5439e-14
1.14523e-08
8.97365e-05
1.21367e-12
0.0188207
0.0276983
3.6691e-13
2.84852e-14
4.23403e-14
0.0201084
1.02263e-13
5.12893e-07
8.75312e-13
1.2193e-10
1.43204e-13
1.04402e-05
2.66241e-13
1.43518e-14
0.00802445
6.79568e-05
6.90126e-13
3.26313e-14
4.26458e-13
2.50767e-13
0.00330187
2.91531e-13
0.00431955
0.00243496
0.00289146
1.77507e-14
0.00337007
4.78732e-13
0.00814116
9.57369e-14
1.74861e-13
1.51096e-13
0.0342164
9.81954e-13
1.44557e-13
2.90693e-07
9.86323e-14
5.82116e-14
0.000767639
2.97082e-14
1.46675e-12
2.76117e-15
2.97334e-14
6.08217e-13
1.85897e-13
3.20263e-14
0.00703317
1.18172e-13
0.000280419
0.00198368
0.00109892
7.34623e-14
0.000513089
6.88611e-14
4.85745e-14
0.00190268
0.00114125
0.022951
0.020742
5.6802e-14
0.00208453
0.0640623
1.71155e-13
1.33054e-13
0.0024272
1.08952e-13
1.84254e-14
2.64287e-12
0.00307214
4.50249e-14
0.06453
2.457e-12
1.44609e-13
0.000152942
1.22122e-08
2.30007e-15
5.05845e-13
4.5622e-14
0.0810312
0.0430456
2.2593e-14
4.9342e-15
1.79331e-12
7.33706e-15
1.80051e-10
0.0554274
1.03663e-14
4.31392e-14
0.00192024
1.51189e-14
0.0282204
1.14295e-14
0.00037112
1.44663e-13
0.000491559
1.16345e-06
3.42964e-11
7.66158e-15
1.2668e-14
7.04407e-14
2.76588e-13
2.79968e-15
0.0128912
6.75895e-15
3.11751e-05
5.08121e-13
0.00133564
3.40347e-13
0.0667304
2.99769e-13
6.32968e-13
0.014905
0.002308
0.0012516
0.00321873
0.00461009
0.0193198
7.98224e-15
0.0167617
0.00535764
1.34611e-15
5.0867e-08
0.0327318
0.0106692
1.359e-12
0.00499483
0.00211911
0.00110909
0.00121725
1.78163e-10
0.0132699
0.0231536
0.000212509
0.0221465
4.82489e-13
0.000892136
9.44502e-14
1.8031e-09
0.629159
1.66086e-13
0.000500263
8.35569e-15
2.4809e-12
1.53612e-13
0.00325194
1.11825e-07
1.06612e-05
4.54869e-12
0.0144552
0.015088
5.25537e-14
6.48604e-11
0.00675928
4.59202e-13
1.41869e-14
8.69354e-16
1.17099e-13
0.0145573
8.96837e-15
7.59721e-13
0.0086963
1.11732e-13
8.49212e-14
0.00947567
4.93524e-13
1.79358e-13
2.28214e-13
7.94356e-14
0.0499148
3.87026e-14
5.58164e-14
5.05937e-12
5.61968e-13
1.11238e-12
0.0300704
6.49066e-14
1.93867e-14
0.0788417
0.00195322
0.0251955
0.0248458
0.00109129
3.39097e-05
5.69532e-14
0.0604864
0.0200383
1.09537e-12
6.81308e-09
0.044026
0.00437821
8.24748e-14
0.0269984
0.0263807
5.12346e-13
0.0134909
3.00634e-06
3.18188e-13
0.0277569
0.000248818
3.33332e-13
1.23811e-13
0.0401014
0.00169488
0.0151387
0.016873
4.60392e-14
3.34986e-12
0.00765412
0.000231675
1.50905e-11
0.0134503
0.0134282
1.1726e-13
1.1873e-15
8.59313e-13
2.42966e-14
3.93934e-14
2.18978e-14
6.05167e-14
5.52959e-06
1.15926e-12
6.83968e-11
4.78623e-13
5.17996e-14
2.47568e-05
0.036104
2.63492e-13
0.0346829
1.10691e-14
2.78099e-13
1.94309e-13
0.0389153
0.000496068
9.43775e-13
1.86087e-13
2.70449e-14
3.92595e-15
0.252882
2.52889e-13
1.87187e-12
0.00156243
3.19686e-06
9.59753e-15
0.03446
0.00578513
2.66441e-13
1.04389e-14
6.67923e-15
4.03661e-08
4.66844e-14
1.67776e-12
1.37771e-14
7.23408e-13
3.27188e-13
1.00065e-13
6.90403e-13
1.40788e-15
0.0407847
0.0328187
6.01907e-15
4.12064
0.164464
5.32454e-13
1.05902e-15
1.69657e-13
0.0548364
0.000236382
4.1185e-13
6.35579e-06
0.149143
0.00306821
2.80954e-13
1.77855e-12
0.0392782
0.00158687
8.60522e-15
1.44346e-13
1.06649e-14
3.69324e-15
7.08659e-15
1.4353e-14
0.0205453
3.08327e-13
6.01048e-14
2.351e-13
0.00849146
2.77644e-13
2.02218e-13
4.2517e-14
0.105359
2.9946e-13
2.3499e-13
5.35871e-13
3.00136e-15
1.34718e-13
1.0831e-13
0.00237038
5.68902e-14
3.34244e-14
1.48775e-13
1.12444e-13
1.40518e-15
5.95371e-15
0.00730059
1.5203e-15
1.27747e-14
0.00104865
2.15939e-13
2.14622e-12
0.00122692
2.02254e-13
1.29027e-13
0.65882
1.34696e-12
0.0294006
0.000267661
0.0491341
1.41023e-10
3.31345e-12
1.38196e-12
0.0773674
1.4092e-13
1.32779e-13
8.7653e-10
0.671813
2.36238e-14
2.62853e-14
0.00316605
0.00263757
0.00134926
2.26138e-13
3.70343e-13
2.31122e-13
5.39872e-13
1.38953e-12
3.18525e-14
7.2619e-13
0.000128848
1.49747e-13
2.22405e-13
4.98318e-16
6.29618e-15
1.6896e-13
2.32101e-13
9.87978e-14
3.0729e-14
3.83335e-14
4.87556e-05
1.16549e-14
7.88341e-15
5.8383e-14
3.32278e-15
4.08156e-14
5.27393e-13
8.83984e-16
5.60458e-10
3.03523e-13
1.30752e-14
1.18919e-12
5.83835e-15
4.94142e-06
2.67257e-13
3.14453e-14
0.00116297
8.34661e-06
1.06903e-06
6.88616e-05
2.38281e-13
6.08602e-16
7.13111e-06
0.00963763
0.000321007
3.85132e-13
1.18643e-08
9.79706e-15
8.61079e-13
8.99128e-14
0.000386901
1.99101e-06
2.56925e-05
3.62136e-15
0.00218867
3.94566e-14
2.69916e-14
1.84905e-15
7.21991e-14
2.18725e-14
6.95573e-14
4.74037e-14
5.45399e-14
0.0563105
6.76508e-13
3.22361e-13
0.00169096
2.21107e-15
7.81996e-14
2.97838e-13
1.72562e-13
2.06966e-14
8.23193e-14
1.56313e-06
7.18106e-14
3.1799e-13
0.00188663
2.14128e-05
0.00173018
2.95871e-05
1.84763e-05
2.9045e-16
8.1786e-15
0.00933282
5.19192e-14
0.0124486
0.000262951
4.86886e-05
7.87353e-08
4.86302e-08
1.18893e-06
1.81673e-14
2.85131e-12
1.58892e-13
7.40079e-13
0.000851447
0.0018586
2.55366e-13
1.71638e-13
5.05262e-07
1.43213e-10
2.9877e-15
3.22976e-06
4.61102e-15
1.27931e-14
1.14636e-14
8.28541e-14
6.70783e-14
1.65376e-13
0.000382728
7.30433e-14
9.40154e-16
8.35035e-14
5.84756e-06
4.22005e-05
0.000443713
1.24412e-13
2.80573e-15
2.91286e-14
0.000161454
5.92208e-15
3.52867e-14
2.19413e-13
0.0180436
8.24508e-11
2.25211e-14
2.79658e-13
2.7159e-13
2.78288e-14
2.61861e-15
3.14458e-14
0.0066462
1.95874e-14
3.71968e-08
0.00752772
6.4188e-15
2.79309e-13
1.02169e-13
1.15575e-05
9.38384e-14
1.09607e-13
2.18462e-14
4.8128e-06
5.12876e-15
0.00417193
1.10522e-06
4.65398e-09
1.72085e-14
5.16606e-05
0.00246159
0.00468188
9.31081e-14
5.1422e-06
0.00654722
1.98671e-13
1.08045e-13
3.83124e-13
3.07719e-13
1.10836e-13
0.000167841
0.00322023
1.38336e-07
2.0216e-15
1.86269e-13
2.64913e-13
3.01093e-13
1.47058e-12
9.09776e-15
1.21675e-05
1.47011e-15
1.93142e-13
1.93879e-06
1.27698e-10
2.07244e-13
0.00302664
1.34996e-12
0.000913703
2.80432e-12
8.67189e-15
3.61337e-14
1.25667e-13
2.97417e-13
2.39304e-06
0.350121
6.85955e-15
2.2517e-13
6.99223e-13
4.53996e-15
6.94851e-13
3.38198e-14
0.0444867
4.33173e-06
0.00739064
2.05558e-13
5.12663e-06
2.54144e-05
4.48067e-12
5.95279e-05
6.553e-14
0.0022236
0.0238059
0.000195832
0.00131303
0.000237583
1.41048e-14
1.4099e-14
2.02524e-15
1.18699e-05
6.28436e-15
0.00463586
1.33314e-13
0.17388
1.30027e-13
0.00879754
0.000252801
6.32268e-14
3.34254e-15
4.13934e-14
1.1379e-14
0.028749
2.47738e-13
1.1097e-13
1.8269e-12
0.00573652
1.10334e-12
6.01624e-13
1.56303e-12
1.29839e-12
2.95899e-14
4.49147e-15
0.0198898
0.000368194
2.01053e-13
7.5744e-14
2.59852e-07
3.06016e-13
0.0019136
1.1306e-13
3.21211e-13
0.00229829
2.18729e-13
6.00833e-15
2.48884e-15
0.0202505
1.44216e-13
1.05728e-07
1.84214e-06
0.000873195
0.0133397
0.0257911
1.02681e-06
6.45431e-14
0.000554004
2.60415e-13
2.79882e-05
1.60785e-13
7.55981e-14
3.40386e-13
2.983e-15
1.56877e-15
3.28803e-14
0.00530312
0.00543934
6.05569e-14
2.07187e-13
1.23397e-12
0.000416972
1.31305e-05
1.03021e-13
3.01449e-05
0.000169724
1.19762e-13
2.50834e-13
3.07585e-14
4.63736e-06
0.0124792
1.78848e-15
2.69584e-13
6.55792e-15
1.27815e-14
3.45285e-05
4.57021e-14
0.101355
1.19726e-14
0.000176816
0.000731086
2.66103e-14
0.000549273
1.91836e-15
3.48142e-14
0.00196364
3.27625e-08
0.00679345
1.14115e-14
1.36091e-13
4.51207e-14
0.000110947
3.75471e-13
1.264e-14
7.81909e-13
4.29685e-07
3.08839e-13
9.96494e-06
3.84563e-13
3.69315e-13
5.20438e-14
1.09368e-12
1.03163e-14
0.0206545
0.000981676
1.27865e-13
5.74855e-06
1.07443e-14
2.66079e-14
1.54068e-12
2.7641e-13
2.61292e-06
0.000213281
2.94146e-13
0.000203827
1.14971e-10
0.00244399
1.62829e-15
2.59642e-10
6.86615e-10
7.21165e-05
0.00122818
1.76346e-09
8.17107e-08
9.69985e-14
0.0216814
4.90891e-13
1.28047e-13
2.10984e-05
0.0817135
7.2836e-08
1.97856e-15
1.34155e-15
6.43807e-07
3.02963e-13
9.04707e-14
6.99023e-06
1.02602e-13
8.7691e-14
8.03652e-08
0.000106361
8.42349e-05
2.33857e-07
1.19929e-13
8.16557e-14
1.06855e-14
9.53257e-06
9.35232e-08
2.87353e-14
7.79234e-14
0.0120476
1.10136e-13
1.41497e-13
1.28523e-12
1.30034e-12
1.07557e-12
2.5697
9.59275e-14
0.0116761
4.90537e-13
0.0150119
8.92505e-15
3.11899e-13
1.33051e-12
5.08759e-13
1.03908e-14
1.69715e-14
0.0024195
8.98328e-15
2.71896e-14
7.19988e-13
1.07561e-13
3.35968e-14
1.1208e-14
2.05274e-08
4.3187e-14
1.43667e-09
0.00200908
2.45079e-14
0.00123422
5.18645e-14
0.000366611
1.79603e-06
1.90146e-14
4.42191e-13
5.65493e-14
5.04016e-14
0.00584572
6.74752e-06
3.42224e-13
1.05326e-06
1.68726e-12
3.16856e-13
1.95905e-12
5.40765e-13
3.75131e-13
4.35855e-14
4.51006e-14
7.49652e-14
2.52615e-13
2.53242e-14
3.25217e-14
4.17478e-14
8.31028e-08
8.26943e-13
4.90788e-16
6.43285e-14
0.000559275
2.44825e-14
0.000109195
3.87926e-13
1.73827e-13
6.90574e-14
1.42869e-13
0.000195748
7.8707e-14
8.83046e-05
5.90373e-13
5.02893e-14
1.77756e-13
0.000467601
1.18787e-13
9.41557e-05
0.219212
5.20096e-08
1.30087e-14
8.07639e-12
0.0568003
1.51881e-13
2.3861e-08
0.0127044
1.84765e-14
7.22209e-10
1.65791e-14
9.83688e-14
0.0118866
0.0113661
4.57133e-14
6.75079e-14
2.81579e-15
1.45142e-13
3.36369e-14
1.21385e-13
9.28173e-15
2.8357e-15
0.0330432
1.6464e-15
1.23988e-15
0.00604041
5.33217e-14
4.84562e-06
1.39668e-13
4.12556e-14
2.79391e-14
0.00318181
0.00616923
1.25268e-13
0.00254486
2.5356e-12
0.00373701
8.73636e-15
1.29153e-13
0.00732102
7.0481e-14
3.29192e-05
0.00891635
1.84133e-13
6.53354e-15
0.0224599
3.05985e-11
0.0361011
1.5657e-13
0.257102
4.70408e-14
1.2079e-12
1.19996e-13
0.00377471
1.19717e-12
1.53554e-14
0.000283779
3.5227e-13
0.000208598
1.56602e-12
4.14159e-13
1.31579e-13
1.59866e-07
0.000953631
1.19347e-15
5.80121e-15
0.0228961
0.000821478
3.4278e-14
0.000106093
5.13837e-15
8.85329e-14
2.13599e-06
0.00478998
1.13668e-13
3.43759e-14
5.11497e-14
4.85651e-16
7.1052e-15
4.74529e-14
8.66599e-14
4.05913e-16
1.30122e-15
1.177e-13
2.3482e-14
1.68758e-16
9.46465e-14
1.43585e-14
1.0553e-14
1.69554e-14
1.66194e-14
8.4257e-15
1.0842e-14
4.3671e-14
1.36497e-16
1.75279e-13
0.0130957
3.78099e-14
6.72367e-15
7.93231e-16
1.57767e-05
2.07827e-14
3.96517e-13
0.222109
8.26961e-13
1.41664e-14
1.57721e-05
9.48223e-11
2.3939e-14
0.00537537
2.00817e-05
8.07388e-15
0.00115554
0.00193442
5.50067e-13
0.0127481
2.95845e-05
1.93455e-05
1.33335e-05
1.54107e-13
1.48884e-12
1.14492e-13
1.14246e-10
1.10431e-09
1.94392e-05
7.61539e-15
5.82704e-08
0.00169714
7.22485e-06
1.85284e-13
5.41898e-13
2.19035e-05
1.89208e-12
1.02812e-05
4.9764e-13
0.000281374
3.67896e-07
0.00158929
2.29025e-07
3.46709e-14
9.74249e-15
7.07045e-15
2.72999e-13
2.76474e-14
3.08079e-10
7.65135e-07
4.03142e-15
1.23848e-14
1.1929e-13
2.64665e-14
8.29633e-14
9.20455e-14
6.59317e-14
9.32747e-13
1.33108e-07
0.000135758
3.4493e-07
0.00698125
1.18153e-13
1.86488e-12
0.0281841
3.57739e-06
9.72271e-15
1.25087e-14
0.0071614
1.18032e-13
7.29484e-15
1.97028e-07
3.55062e-07
7.46382e-07
0.00842279
0.024017
6.3376e-14
1.0488e-13
2.01765e-05
4.8545e-13
1.83992e-14
0.000275903
7.57492e-13
7.35827e-14
0.0276902
1.03811
0.00513298
8.106e-13
7.97227e-14
0.00669331
0.000241853
1.10864e-13
1.16158e-09
0.00248985
6.35008e-14
1.63998e-06
2.23637e-09
9.19847e-14
2.35071e-13
0.028979
5.17609e-15
3.69998e-10
1.08627e-12
0.000238807
5.18535e-06
6.75681e-13
4.2269e-13
3.03906e-14
5.93942e-13
3.15028e-13
1.88963e-14
1.16258e-13
0.764607
5.06477e-15
9.44746e-15
8.41822e-06
4.8761e-10
0.000432363
6.385e-12
1.45184e-09
1.96579e-13
1.27435e-09
2.73558e-13
1.92425e-13
5.23478e-13
0.0299053
6.06918e-14
2.48309e-08
1.3555e-13
7.77275e-14
1.89036e-13
0.0187353
0.000204358
1.2753e-14
5.44772e-13
0.0494085
5.36883e-05
1.81415e-13
4.10976e-14
4.68821e-13
1.48667e-13
7.15344e-10
1.44151e-14
0.000223811
0.0114179
0.000997725
3.99458e-12
8.57175e-14
6.60568e-13
3.23412e-13
1.04939e-13
2.92395e-13
4.03157e-13
1.12282e-09
2.60865e-05
1.51267e-13
0.0075414
1.9641e-13
1.86901e-14
2.68993e-14
1.80576e-13
1.24389e-12
8.04853e-09
3.242e-07
0.000190318
2.03346e-05
0.0276126
3.87492e-13
1.6654e-13
9.49713e-13
4.93554e-14
6.86496e-14
3.82722e-15
3.30653e-08
8.83382e-06
1.23349e-06
1.02194
0.0381099
0.00981939
2.13736e-07
0.0431368
8.52014e-14
1.63428e-13
1.53083e-09
1.03443e-12
6.96271e-12
0.00471892
6.25947e-14
1.44008e-13
1.03979e-13
0.000122102
4.10261e-10
1.19008e-13
0.0351419
4.7639e-14
1.68323e-13
9.23079e-13
3.4148e-14
7.351e-14
6.61354e-09
1.16414e-07
2.17162e-13
1.70204e-14
3.74501e-15
2.41668e-13
0.00388167
0.0113776
1.87069e-13
0.003054
2.87235e-13
3.44732e-13
8.62815e-14
1.29328e-13
9.92978e-13
0.00139534
1.19795e-14
7.08002e-12
2.15444e-13
1.45325e-13
2.98113e-13
8.73939e-13
0.143062
0.00136625
2.28977e-13
3.52676e-14
1.25942e-12
2.55055e-14
5.26211e-15
4.79508e-14
1.43444e-14
3.43054e-13
1.59476e-14
3.37369e-14
0.00319755
2.73152e-14
2.28873e-13
0.00183064
1.34475e-13
0.00497485
3.43919e-12
7.36552e-13
1.75575e-13
1.82576e-05
8.62178e-13
0.0129048
0.000149863
1.7389e-06
1.40119e-13
3.34506e-13
0.00868586
2.74977e-13
2.51708e-13
1.42852e-12
1.21598e-13
1.39363e-07
7.5732e-14
3.2043e-13
2.02783e-12
0.000274931
1.07415e-13
0.0015107
0.000870793
9.72104e-13
9.25798e-13
1.29307e-14
0.0027611
1.7902e-13
9.98598e-05
8.07053e-14
0.000562348
0.00026302
8.39389e-15
2.19347e-13
6.71239e-15
4.92434e-08
0.0278725
3.42805e-14
8.75295e-06
2.78198e-13
9.13091e-11
5.02797e-12
8.29111e-08
4.33233e-13
1.13102e-12
2.94459e-11
2.35503e-13
3.47614e-14
2.23712e-13
0.000109606
2.2982e-10
4.98012e-13
8.79732e-15
5.66184e-13
8.22165e-12
8.46309e-13
3.29575e-13
3.92165e-11
1.35372e-14
5.06614e-07
0.00370722
0.0861847
6.3721e-15
1.63688e-15
2.21887e-08
4.36609e-14
0.000112117
7.56786e-14
1.17961e-13
6.27027e-06
0.0113233
4.58752e-13
9.07804e-14
0.00120449
2.14259e-13
6.99644e-05
0.0426673
2.82731e-13
9.60246e-14
2.22448e-13
1.58799e-12
8.70277e-13
1.64164e-14
2.33357e-14
2.18443e-13
2.24635e-13
7.00311e-13
9.15874e-13
0.000893327
5.08853e-05
0.0176364
0.00910992
2.52672e-13
2.29257e-07
0.000579794
3.06074e-14
1.23338e-14
1.89099e-13
6.21959e-14
1.71059e-13
8.35734e-14
6.4917e-13
6.99592e-14
1.45541e-14
1.71589e-12
1.70133e-09
6.46885e-15
0.000415581
5.52497e-14
5.49313e-05
2.76608e-13
6.90799e-05
3.48782e-13
2.87372e-14
0.0194859
0.00879268
4.63239e-13
0.0826947
2.9247e-10
1.96464e-09
4.17036e-14
0.000952258
1.64777e-11
0.00217243
5.43512e-06
0.001151
1.28047e-13
1.68403e-13
0.000699524
5.55031e-08
7.02055e-14
2.12353e-14
0.000238025
6.45767e-13
0.000444735
2.00336e-13
2.22563e-15
1.28438e-08
0.000250736
2.17442e-05
1.3123e-13
0.000321542
2.1699e-12
0.00118388
1.38909e-05
4.2136e-13
1.72761e-06
3.15411e-14
0.000323391
0.000653536
0.00592024
3.5891e-15
3.82306e-13
1.52671e-14
0.00479694
1.4212e-12
2.04841e-12
2.47999e-14
2.01127e-07
1.9987e-14
7.30718e-14
1.26449e-12
8.12443e-14
0.00207275
0.00111474
7.37345e-12
0.291895
2.81819e-13
0.0211997
0.000506784
1.32084e-12
0.000869291
4.76357e-15
2.00841e-13
0.0027339
1.01276e-06
8.15576e-07
1.09698e-05
1.78854e-13
0.000501755
0.000725486
0.00043016
5.80998e-07
0.00283875
1.24825e-13
0.0189594
2.94599e-13
9.61945e-14
8.4774e-07
6.78718e-13
0.00454348
1.78069e-13
8.62617e-14
1.31953e-12
5.60031e-14
7.27944e-14
0.000514762
2.72426e-13
0.000626022
3.18018e-13
3.31993e-14
0.0103981
0.00564664
5.90758e-11
0.00867483
1.59624e-14
0.521113
1.10678e-13
0.0624571
1.3634e-13
0.0109968
0.016551
0.00154838
0.0557463
1.33058e-13
1.04594e-13
6.41582e-14
7.06894e-14
1.60732e-13
1.34596e-14
8.88175e-13
1.39138e-13
6.95998e-14
0.00373652
1.38521e-13
8.927e-06
1.08556e-07
5.66644e-14
8.49331e-14
2.15588e-13
4.76802e-12
0.000806717
3.60503e-14
2.61037e-13
0.000219971
8.52548e-13
0.100436
1.12877e-13
2.94177e-14
0.00774314
1.57706e-13
2.52244e-13
0.0204043
2.65155e-10
0.000829133
0.00371752
0.0134598
3.69475e-14
2.05207e-13
1.57165e-06
3.82825e-14
1.49773e-14
4.03437e-14
5.6598e-13
0.0453424
1.62234e-09
0.0316131
1.15868e-13
0.0287124
0.000384196
0.00265606
0.001822
0.00319001
0.0193281
0.00157056
2.56462e-14
9.20772e-15
2.7845e-14
0.00197366
2.22346e-14
0.0245251
1.0319e-12
0.00143286
2.26163e-07
2.49575e-13
1.17674e-13
1.37481e-14
2.48434e-13
0.00276932
0.000331394
7.16333e-14
9.77966e-14
1.64329e-13
4.90963e-13
0.000125563
0.00150085
0.00041008
3.93403e-13
0.000600804
1.39476e-13
4.04014e-13
1.0931e-13
1.69448e-13
2.87584e-05
1.54394e-13
0.000845616
2.00046e-13
0.000738369
8.01079e-14
2.89516e-13
1.7705e-13
5.81914e-14
1.99847e-13
0.0236382
3.49661e-14
3.37573e-13
3.983e-13
1.64017e-13
4.26554e-13
2.58815e-13
0.00998693
8.43872e-13
0.00126967
0.341161
4.09842e-13
1.5439e-05
4.34291e-13
2.93742e-13
1.466e-14
2.11653e-13
0.00378207
1.30327e-13
0.0121332
9.88289e-07
1.16058e-11
1.60902e-13
2.00358e-12
4.77619e-15
5.07088e-14
1.85974e-14
6.45841e-13
0.183212
5.90196e-14
0.003864
2.29374e-09
8.3659e-14
3.84214e-13
0.00190261
4.82379e-13
3.55041e-15
2.6041e-06
5.07555e-05
8.05656e-15
6.16388e-13
1.51016e-13
1.82003e-13
4.99154e-14
3.37344e-13
0.000328764
0.00181598
0.00235439
1.86758e-13
4.04352e-13
7.6201e-13
0.00254428
0.00128539
0.00840225
0.0240407
2.20441e-15
1.77703e-13
8.66155e-13
1.3878e-13
5.10507e-15
4.78804e-13
4.86461e-15
2.21081e-13
2.15644e-13
6.70378e-06
2.62702e-06
4.75258e-09
3.50663e-13
2.72112e-14
3.00579e-13
1.0131e-14
7.52482e-14
8.9915e-07
9.15449e-14
3.07378e-13
1.3328e-14
6.54221e-13
1.70118e-13
3.10549e-09
0.0269391
0.105331
7.61276e-17
7.92868e-11
1.68579e-11
1.56303e-14
9.82307e-14
5.59734e-07
7.47098e-05
9.62382e-14
4.32186e-13
0.0046962
4.07737e-13
5.44766e-12
7.32143e-10
2.05129
6.39994e-14
3.75552e-13
1.8389e-11
0.000295994
2.52195e-13
0.648714
3.52798e-14
0.00484586
1.6685e-13
1.29134e-12
2.62466e-13
4.15123e-14
9.36169e-13
1.22769e-14
4.46455e-13
0.0253519
0.0152476
0.827001
1.74374e-14
9.02642e-14
2.70723e-13
3.19223e-14
0.00602422
4.7025e-08
1.66745e-13
7.26166e-14
6.8799e-13
0.00104159
1.03951e-13
1.93766e-13
5.39737e-13
0.0254037
2.03054e-13
1.17849e-13
1.13323e-13
5.41682e-13
1.19336e-05
1.23506e-13
1.29171e-14
1.31914e-14
1.21413e-13
0.000165932
5.83571e-14
7.44837e-14
1.94443e-14
0.00645672
1.05236e-07
1.48793e-13
1.6494e-13
6.95139e-13
1.05283e-12
0.00223585
0.00261205
1.48748e-14
5.79853e-05
0.0165764
5.31286e-05
6.00995e-13
1.83121e-13
1.59363e-14
5.7696e-15
1.55325e-14
0.0116493
1.78154e-12
0.0151364
2.12153e-14
0.00106706
4.68153e-13
0.00150101
8.1198e-14
2.95474e-15
0.0103609
0.212867
1.33874e-12
0.00220181
2.67855e-13
0.000276309
1.34379e-13
7.68414e-13
9.39942e-14
1.32537e-07
4.61525e-14
0.000423353
6.70365e-14
0.00307878
6.4475e-15
1.59409e-12
1.11042e-14
4.7265e-14
4.04574e-14
0.000167293
4.72011e-14
0.00430106
2.013e-14
0.00430913
0.0167703
0.000590279
9.54445e-16
3.49981e-06
0.000351185
1.10277e-06
0.00432124
3.87327e-07
0.000943539
8.02512e-13
1.59479e-14
3.38644e-07
4.167e-14
0.000179364
1.92402e-13
8.80379e-14
1.85887e-13
0.469591
2.62233e-13
3.57145e-14
2.96777e-13
6.64781e-13
5.49895e-13
8.15292e-05
0.000275999
0.000700821
2.73419e-11
2.5791e-13
0.00103326
1.41047e-13
0.00341932
5.45846e-13
1.96553e-14
3.26786e-15
1.15447e-14
1.98459e-05
1.03248e-13
1.21232e-14
6.04079e-13
0.000635071
4.88142e-13
5.27849e-15
0.0109254
7.86492e-13
0.042507
0.0677277
0.348095
1.12938e-13
0.199465
1.1987
1.85766
0.688552
6.65501e-14
2.11113e-15
0.00014475
0.00560631
1.27644e-13
0.00317207
9.98033e-15
0.000936334
1.1387e-12
2.13925e-13
0.00039801
3.56226e-13
3.77419e-13
8.86611e-06
2.19054e-05
5.22112e-14
5.88974e-14
2.20448e-06
2.43894e-12
2.23295e-13
1.98774e-05
0.00175636
0.00897022
2.84663e-13
0.00819966
4.95345e-13
2.0819e-11
4.22937e-07
0.00797228
6.88347e-14
9.07903e-09
0.006396
1.54033e-13
3.89673e-10
1.15839e-14
0.00171626
6.39641e-14
0.000263772
3.14554e-15
3.58025e-07
3.39976e-14
1.81819e-13
8.12518e-14
6.30757e-11
3.93417e-10
1.18774e-13
0.00268566
0.00562152
3.07853e-13
4.85038e-14
6.8087e-06
4.68453e-13
0.186467
1.61492e-13
0.00165413
0.00659828
0.0434083
2.2751e-09
1.63574e-13
0.0597354
5.86114e-14
0.220411
1.04265e-13
1.37454e-08
1.52839e-08
3.40895e-14
1.54679e-09
4.89806e-13
0.0209329
2.82367e-14
4.47006e-13
2.55551e-13
4.475e-14
7.7475e-14
4.47029e-14
0.000238954
1.04896e-05
0.141466
1.1162e-12
1.25896e-13
0.0417542
5.57583e-13
2.3484e-15
1.10402e-13
1.76827e-13
6.97588e-13
1.571e-13
5.06519e-14
2.91955e-13
1.06224e-15
2.73613e-13
1.18462e-12
1.00403e-14
1.04605e-12
1.55459e-14
1.98807e-15
6.50963e-15
0.206825
0.00448026
6.52508e-14
4.11147e-14
1.64449e-13
3.82894e-13
1.48639e-13
5.49859e-14
1.95764e-14
1.97187e-14
2.16735e-12
1.88801e-14
8.30092e-13
3.27329e-13
0.310395
1.14276e-13
0.00596233
3.70154e-13
2.96052e-14
0.00305535
2.6046e-13
3.09697e-15
1.60572e-14
1.08714e-14
4.45366e-13
0.0165717
1.51921e-13
9.08235e-14
3.68133e-13
2.09673e-14
3.67283e-13
2.58788e-14
0.00755815
3.06813e-13
8.42118e-15
0.00170792
7.01263e-09
0.126465
1.76817e-12
2.12605e-13
1.36795e-13
1.8952e-08
0.160541
1.34934e-13
1.11051e-14
7.62474e-13
1.03185e-12
3.11834e-13
0.0110871
0.0245781
6.76043e-13
2.26791e-14
1.75687e-14
1.19798e-13
2.07493e-12
1.96632e-15
5.07992e-13
2.49125e-15
0.0570264
1.01263e-13
1.2776e-12
3.34288e-14
1.64089e-13
4.60666e-14
5.77575e-14
7.04605e-14
3.16495e-14
8.42848e-13
6.79362e-09
7.02269e-13
1.0662e-13
1.09088e-12
1.63405e-13
0.556757
5.60415e-14
2.15155e-14
2.86522e-13
4.76848e-14
1.56877e-13
2.12177e-13
3.48873e-14
4.44313e-13
8.56734e-14
7.2098e-13
3.85216e-14
0.00275352
2.62279e-13
0.0123572
7.90452e-14
0.050868
2.85092e-14
1.24601e-13
0.0177542
7.23167e-14
2.63111e-14
4.24808e-13
0.000285823
2.01609e-13
3.62248e-14
0.0361819
0.0128929
1.61247e-14
9.34171e-14
9.76308e-15
0.0157707
3.69918e-14
0.0046906
1.0287e-12
0.023044
2.22226e-13
1.78489e-13
1.00952e-13
2.10557e-12
2.3536e-13
1.22272e-13
6.51473e-13
6.65946e-14
1.36202e-13
6.9077e-07
1.38364e-05
1.42158e-12
0.00359047
1.1173e-12
0.00453118
2.01001e-14
6.03903e-07
8.75624e-14
5.18844e-13
0.0415196
8.77431e-15
1.84742e-14
9.78166e-15
1.43261e-13
0.00114585
1.38066e-14
1.88433e-14
5.04591e-13
6.57404e-13
0.628105
4.31511e-14
0.0816939
1.60634e-13
1.44793e-13
2.98611e-13
6.46149e-16
1.21405e-13
3.08307e-14
4.39658e-05
1.73425e-14
0.00708253
1.29265e-13
1.03091e-14
5.4166e-12
1.28836e-12
2.37448e-13
1.23124e-12
7.57242e-13
2.35331e-14
0.00338045
0.205599
8.97619e-13
5.96951e-15
0.000449855
2.76196e-15
3.04127e-14
1.75476e-06
0.00500811
0.000210403
9.75424e-14
3.33374e-14
0.00415262
6.23208e-08
0.00591077
2.49946e-13
4.6864e-13
5.09166e-13
3.60837e-14
3.31822e-15
1.6637e-14
1.15017e-13
2.0774e-15
1.11557e-13
1.68323e-13
1.53115e-14
5.07973e-15
0.0708599
1.12556e-14
3.37052e-15
1.8107e-09
7.18388e-13
1.2753e-13
1.04884
3.26035e-14
8.96147e-14
0.0191439
2.20301e-10
1.34733e-13
4.43293e-13
5.17698e-14
0.00134288
2.47264e-14
2.04911e-13
3.86839e-08
2.2732e-15
1.80932e-13
5.91706e-14
1.26241e-13
0.111665
1.26956e-14
0.000183767
3.68121e-14
8.78227e-14
2.38706e-14
3.86506e-13
3.58017e-14
3.01323e-08
5.24422e-08
9.81095e-14
2.97037e-13
2.57464e-13
1.23873e-12
8.63524e-08
3.7488e-13
2.78749e-07
1.86295e-08
2.78318e-15
4.54556e-15
3.49322e-13
6.5093e-09
8.01092e-14
3.32052e-13
1.96656e-09
4.13314e-12
0.0298786
3.99925e-14
0.00667774
1.8216e-12
1.9187e-06
6.03661e-14
0.00135946
1.39173e-15
0.0028195
0.018502
8.29863e-13
0.00190789
8.31518e-06
2.78328e-14
0.00792031
1.96591e-13
3.98804e-14
2.76509e-13
1.2582e-13
5.33467e-14
2.0531e-15
1.51189e-13
2.74304e-13
0.256811
2.605e-14
1.48616e-13
4.04727e-14
4.02572e-14
3.47655e-14
0.00317698
0.788973
1.6325e-06
1.26906e-05
8.22812e-14
0.00173459
0.00151876
5.00723e-15
1.05206e-12
9.81911e-13
2.16825e-14
2.73486e-14
1.15946e-12
8.67378e-13
1.07247e-13
0.000290706
8.66934e-13
8.65747e-14
0.000109139
1.36205e-06
2.3084e-14
0.0269724
1.33475e-14
4.851e-13
1.60792e-13
0.149657
8.70989e-13
1.01435e-14
0.0256233
2.35728e-14
1.03841e-13
1.49756e-13
4.98804e-13
0.0522117
7.2028e-14
3.18951e-14
7.52629e-14
2.69292e-13
0.00439065
0.224366
0.0330399
0.04756
0.00245299
0.00011472
3.64286e-15
1.62008e-13
0.120621
0.00110183
3.57432e-12
6.71151e-08
7.70984e-13
6.37245e-10
2.67656e-13
0.212592
1.07684e-13
6.46809e-14
0.000166855
5.74978e-11
4.27035e-14
0.00994119
6.79824e-14
5.88574e-13
0.188845
0.0166711
1.77002e-13
1.21487e-14
2.17454e-13
1.91652e-14
6.96863e-14
3.00019e-13
1.93927e-13
3.31432e-14
0.00265216
2.58128e-13
1.33077e-13
1.86255e-13
8.37879e-06
1.11923e-13
3.38633e-13
8.35139e-15
1.53163e-15
1.6818e-12
2.74765e-14
0.0021696
9.623e-14
1.58916e-13
0.00547616
6.73147e-13
0.000296133
0.00411693
1.66516e-13
0.0108178
1.14552e-13
1.39572e-13
7.15566e-14
7.50653e-13
2.93007e-14
1.11166e-13
6.56132e-13
2.02014e-13
0.015885
2.5707e-13
1.94248e-14
3.78324e-13
1.25852e-13
3.87815e-13
1.20644e-12
0.0374256
2.97909e-14
6.10158e-15
0.335872
1.78903e-14
5.06883e-15