/*--------------------------------*- C++ -*----------------------------------*\
  =========                 |
  \\      /  F ield         | OpenFOAM: The Open Source CFD Toolbox
   \\    /   O peration     | Website:  https://openfoam.org
    \\  /    A nd           | Version:  10
     \\/     M anipulation  |
\*---------------------------------------------------------------------------*/
FoamFile
{
    format      ascii;
    class       volVectorField;
    location    "5.5";
    object      U;
}
// * * * * * * * * * * * * * * * * * * * * * * * * * * * * * * * * * * * * * //

dimensions      [0 1 -1 0 0 0 0];

internalField   nonuniform List<vector> 
111485
(
(1.20773 -1.20726 0.000831152)
(3.44021 -0.00558947 -0.0147808)
(3.40451 0.0062333 0.00809644)
(1.20664 -1.20755 2.50209e-05)
(3.52187 0.0116367 0.000436577)
(1.22678 1.22515 -4.47988e-05)
(3.46589 0.00590703 0.00102584)
(3.54984 -0.00242063 0.00437435)
(3.47476 -0.00304244 0.00228208)
(3.54934 -0.0274823 -0.00973976)
(3.42462 0.0030066 0.00735315)
(3.57212 -0.00227665 0.0139839)
(3.38772 0.000926262 0.00688054)
(3.40314 -0.00773548 -0.0142408)
(3.44812 0.00909617 0.00633725)
(3.51214 -0.00904562 -0.0118321)
(3.47993 0.00629031 0.000501139)
(1.24453 -0.115104 0.199749)
(3.52369 0.00473287 -0.00600633)
(1.20469 -1.20279 -0.000231422)
(1.20539 -1.20486 -0.000653689)
(1.2266 1.22682 0.000370814)
(3.49212 0.00697492 -0.00155983)
(3.54009 -0.0171751 -0.0042223)
(3.51061 0.018618 -0.00917772)
(1.21501 -1.21113 -0.00164648)
(3.58738 -0.00773473 0.0168302)
(3.44486 0.00260194 -0.00546082)
(3.54183 0.000674168 -0.00705904)
(1.20556 -1.2061 0.00126854)
(3.60108 0.0636025 -0.0184243)
(3.49516 9.75626e-06 0.000984028)
(1.20215 -1.2038 0.00181441)
(1.22762 1.22893 -0.00215263)
(1.24142 0.500921 0.202158)
(1.23426 1.2426 -0.0185786)
(3.58316 0.061246 -0.0251457)
(3.43507 0.00307146 0.0268086)
(3.55095 1.06896 0.0629857)
(3.52924 0.0128844 0.00263345)
(1.21244 1.22402 -0.0131867)
(3.57367 0.0036377 -0.0190057)
(3.5293 0.0141149 0.00525952)
(3.43718 -0.015063 -0.00473464)
(3.58586 -0.0658304 -0.0349801)
(1.2142 -1.20481 0.00496663)
(3.5736 -0.0111274 0.0181516)
(3.53495 -0.0149501 -0.00340309)
(3.57306 -0.00123223 -0.015563)
(1.19976 -1.18725 0.00431193)
(1.19961 -1.19048 0.00617476)
(1.39779 1.17178 0.0217155)
(1.19357 -1.18843 0.00431188)
(3.57425 0.0124046 -0.0272878)
(1.19088 -1.18699 0.00166686)
(3.5039 0.0043641 -0.00307744)
(3.51353 -0.0100618 -0.00321528)
(1.22692 1.22623 0.00130761)
(3.23251 -0.0101493 -0.0506651)
(3.53346 0.0114208 -0.00077994)
(3.53183 0.0123236 9.34561e-06)
(1.20366 -1.20647 0.00135139)
(3.31084 0.00346966 0.0150512)
(3.60001 -0.00104104 0.0230515)
(1.27088 1.15151 0.0026524)
(3.329 0.00207259 -0.00272178)
(2.51297 -0.220857 0.0829621)
(3.53456 -0.00450466 0.00576592)
(3.2635 -0.00112134 0.00619004)
(3.19153 -0.00460539 -0.00323745)
(3.45028 0.0352699 -0.019307)
(3.25874 -0.00279758 0.00470015)
(1.30348 -1.17818 -0.0264881)
(3.28533 0.00449594 0.0163435)
(1.20617 -1.20637 -0.000431466)
(3.51048 7.64761e-05 0.001664)
(1.22666 1.22652 -0.00103453)
(3.56842 -0.00586967 0.0156603)
(1.22599 1.22633 0.00054615)
(1.11116 1.08127 -0.0372915)
(3.46389 -0.0513714 0.033524)
(3.56862 0.0168397 0.00283486)
(1.22542 1.22451 -0.000190752)
(1.20682 -1.20673 0.000284948)
(3.37196 -0.0025415 0.00354652)
(3.28565 0.00530905 -0.00498662)
(2.76039 1.78591 -0.481471)
(3.53027 0.0339951 0.00222237)
(3.41031 0.0863294 0.0726302)
(3.43459 0.00301717 0.00393444)
(3.64456 0.0598591 -0.0429231)
(3.52224 -0.00388369 0.00442466)
(3.34363 -0.00471052 0.00308765)
(3.43412 0.00308644 -0.00221427)
(3.57629 0.0054389 -0.0168486)
(1.20687 -1.2061 -0.000290342)
(1.2058 -1.20584 0.00111345)
(3.5292 0.0335833 0.00985543)
(3.66553 -0.726907 0.0486218)
(3.345 0.00708004 0.0211693)
(1.20696 -1.20673 0.00158129)
(3.53342 -0.0127776 0.00169405)
(1.23336 1.23649 0.0064993)
(3.51857 -0.00358949 -0.00262028)
(3.47175 -0.00811732 -0.0132117)
(1.20335 1.07249 -0.0255467)
(1.22699 1.22677 -0.000351244)
(3.49748 -0.00119921 -0.000484538)
(3.33437 -0.014538 0.000603266)
(3.15824 -0.0910466 -0.0923628)
(3.41716 0.000698472 0.00116159)
(3.50663 0.00261233 -0.00126487)
(3.31406 -0.00339886 0.00792799)
(3.28605 -0.0131519 0.00198375)
(1.2169 -1.21122 0.000373275)
(3.28679 0.00022149 0.00120449)
(1.21129 -1.20763 -0.00145839)
(1.23327 1.22822 0.00519082)
(3.45304 0.00766426 0.00658788)
(1.20687 -1.20697 7.77731e-05)
(1.21502 -1.2106 -0.00156381)
(1.6232 1.27256 0.079073)
(1.21894 1.22529 -0.00231093)
(1.23056 1.22738 -0.00291234)
(3.40845 -0.00925256 0.0150853)
(0.97201 -0.697838 -0.176393)
(1.54837 1.32822 0.0475935)
(3.3088 -0.000688331 0.00448342)
(1.20742 -1.20635 -0.00110587)
(3.56773 0.251119 -0.0975389)
(3.56777 0.0708303 -0.0396683)
(3.52181 0.033982 0.00987674)
(1.20323 -1.19752 -0.00611399)
(1.5879 1.3801 0.141894)
(1.48263 1.32162 0.0632058)
(3.53356 0.00539708 -0.00575112)
(1.22813 1.22733 -0.000608712)
(3.49251 0.00442681 0.000513897)
(3.4924 0.00629822 0.00503682)
(3.44352 0.00993394 0.00952232)
(2.83346 -0.00074585 0.00605934)
(3.52063 0.0136763 0.00418209)
(3.49515 0.0138845 0.00875207)
(3.36627 0.000116356 -0.00872464)
(3.50835 -0.00138338 -0.00102512)
(3.43381 -0.00568688 -0.000529293)
(1.22745 1.22851 -0.000468968)
(1.20672 -1.20741 0.000536872)
(1.22484 1.22558 0.0024866)
(3.51325 0.0102836 0.00190551)
(3.3716 0.0017771 -0.00770045)
(1.20492 -1.20525 -0.000704973)
(2.36351 -0.00727783 0.0214254)
(3.45028 0.0072682 0.0117757)
(3.7869 0.14221 0.0696706)
(3.53293 0.00579539 -0.00545587)
(3.51451 0.00593636 -0.00170109)
(3.35702 0.00742251 -0.0106745)
(3.81422 0.178043 0.0473633)
(1.20086 -1.21169 0.0051859)
(1.20458 -1.2065 0.000796285)
(3.52685 0.00414268 -0.00594736)
(3.4643 -0.00723282 -0.00826952)
(3.83822 0.202874 0.051506)
(3.783 0.17832 0.0707806)
(3.34728 0.00173492 0.00954225)
(3.54853 0.0345749 -0.0125363)
(1.21232 1.22281 0.000290151)
(3.88693 0.250618 0.0623281)
(3.7018 0.17475 0.059488)
(1.22673 1.22631 0.00130121)
(1.20552 -1.20511 0.000285952)
(2.99116 0.00503251 -0.0138923)
(1.22746 1.228 0.00046462)
(3.46984 -0.00130225 -0.000898496)
(3.43199 -0.000546378 -0.00143253)
(1.22738 1.19793 -0.00749505)
(1.29955 -1.19609 0.0124524)
(1.20936 -1.20396 -0.00193971)
(1.20762 1.13771 -0.0118859)
(1.30857 -1.20867 0.0214883)
(1.20419 -1.20627 0.000930682)
(3.51188 0.00833073 0.00178785)
(3.51329 0.00313567 -0.00504262)
(3.50159 0.00495969 -0.00325628)
(3.44064 -0.0220675 0.0133722)
(3.36262 -0.00913845 0.00210275)
(3.3806 0.00315314 0.00418823)
(3.04858 0.0293141 0.00184555)
(1.20617 -1.20185 -0.000151411)
(3.32759 -0.00183417 -0.00108267)
(1.298 -1.20683 0.0128759)
(1.217 -1.2188 -0.000254294)
(3.39671 0.00354502 0.00560131)
(3.55216 -0.0320224 -0.00925752)
(3.5295 0.00236058 -0.0161273)
(3.43418 0.00159337 -0.00330215)
(3.44581 0.00185556 0.00170604)
(1.2045 -1.2018 0.00347572)
(3.4235 -0.00932335 0.00388024)
(3.38072 -0.00223558 -0.0114484)
(2.35596 0.734485 0.103001)
(3.46208 -0.0283034 -0.000832216)
(3.48644 0.000880703 0.0014839)
(1.21097 -1.20574 -0.00237477)
(3.3885 0.00431728 0.00495027)
(3.53982 0.0069031 -0.000183698)
(1.31766 -1.19435 0.00352358)
(3.41844 0.00360612 0.013617)
(3.57091 -0.00127405 0.0119748)
(3.36599 0.000395759 -0.00847135)
(3.38177 0.00457921 0.00742889)
(1.3073 -1.21251 0.0165521)
(1.20567 -1.20608 -0.000831548)
(3.38079 0.00365814 0.00866709)
(2.20196 1.37331 -0.134109)
(3.60558 0.0098913 -0.0312977)
(1.22695 1.22729 -0.0012143)
(3.39486 0.00414352 0.00813155)
(3.40449 0.00165114 0.00307356)
(3.5806 -0.00455562 0.0206728)
(1.20839 -1.20719 0.00120116)
(3.29959 -0.000963689 -0.00120219)
(3.5572 0.0494458 0.0255921)
(1.9422 1.29592 -0.141452)
(1.2276 1.22687 -0.000587806)
(1.2267 1.22681 0.000954976)
(3.6385 -0.015368 0.0328554)
(3.40473 0.0755004 -0.00467338)
(1.2909 1.08713 -0.0262833)
(1.49347 -1.16201 0.043587)
(3.41112 0.00120192 0.00336924)
(3.46995 -6.60241e-05 0.000983431)
(3.52871 0.00573257 0.00465182)
(1.27501 1.10676 -0.0314773)
(1.27573 -1.1784 -0.00479214)
(3.43541 0.0440683 -0.0515515)
(1.20637 -1.20635 0.00111815)
(3.297 -0.000885253 -0.0120568)
(3.38761 0.00269557 0.00659167)
(3.40939 0.00176215 0.0044663)
(3.40801 0.00238899 0.00586271)
(3.4148 0.00219296 0.00765425)
(1.22368 1.22405 0.00495624)
(2.62807 -0.00486914 -0.0911853)
(3.44372 0.00684255 0.00631135)
(1.22133 1.22496 -0.00315236)
(1.22627 1.22778 -0.000441189)
(3.60335 -0.0350765 -0.00103874)
(3.50535 0.0133996 -0.0041454)
(1.25747 1.07132 -0.034503)
(3.36401 -0.00162376 -0.00233523)
(3.43737 0.00393337 0.00618927)
(1.207 -1.20667 -0.000587429)
(1.55944 1.46973 -0.0095564)
(3.5563 0.0376315 -0.0167604)
(1.20991 -1.19567 -0.00102648)
(1.33293 -0.957859 -0.0248364)
(1.83047 -0.653245 -0.0623256)
(1.2076 -1.20487 -0.000661801)
(3.44911 -0.00298107 -0.00329231)
(3.39339 -0.00438002 -0.00350105)
(3.46619 -0.000254536 -0.00777612)
(1.20629 -1.20632 -0.000536763)
(3.45391 0.00486788 0.0049657)
(1.20758 -1.20766 -0.000792505)
(1.20678 -1.20804 0.000549727)
(1.20493 -1.2006 0.00217509)
(2.4634 0.00932309 -0.0311077)
(3.56756 -0.00820817 0.0152616)
(3.40083 0.00917039 0.0100651)
(3.44954 0.00736758 0.00579302)
(3.58188 -0.0129717 -0.000788704)
(3.43981 0.00519716 0.00444007)
(3.51206 0.00884134 0.00360732)
(3.57114 0.0550871 -0.00142454)
(3.4615 -0.000261911 -7.36963e-05)
(3.47111 9.03136e-05 -3.73536e-05)
(1.24735 1.22636 -0.0014292)
(1.20486 -1.20559 -0.00114243)
(2.25157 0.0136071 -0.0492416)
(3.48751 -0.00145018 0.00065562)
(3.56574 0.0256144 0.0310822)
(3.41266 -0.00199319 -0.000795025)
(1.20642 -1.20646 0.00151674)
(3.49737 0.00799989 0.00317929)
(3.51973 0.0137847 0.00583077)
(3.44757 0.00268996 0.00351034)
(3.15287 0.00128794 -0.0192952)
(3.20907 -0.0313914 -0.0705303)
(3.48783 0.00713516 0.000724626)
(3.44135 0.00501051 0.00521653)
(3.53344 0.0319372 -0.019876)
(1.22721 1.2286 0.002389)
(3.29059 0.0116062 0.00209415)
(1.22685 1.2271 -9.24114e-05)
(0.995389 0.750667 -0.162625)
(1.35102 -0.885256 -0.083812)
(3.65953 -0.0254382 0.0518084)
(3.58236 -0.0128248 -0.000934308)
(3.5029 -0.00399418 0.000199008)
(1.20832 -1.20597 -0.00117345)
(1.22335 1.22986 0.00913153)
(3.48584 0.00732294 0.00404494)
(3.42336 0.00037794 0.000373979)
(1.20684 -1.20567 -0.000555239)
(1.20739 -1.20637 0.00186678)
(1.18404 -1.19108 0.00707574)
(3.40705 -0.000160918 0.00137668)
(3.46611 -0.00261471 -0.00226239)
(3.35643 -0.000247352 0.00712889)
(3.30291 0.00439502 -0.00878151)
(3.54523 0.00803227 -0.00589354)
(1.41031 1.20866 0.0316073)
(1.22503 1.22757 0.00222718)
(1.20707 -1.20525 -0.000237282)
(3.47721 0.007661 0.00565417)
(2.29491 -1.94924 -0.139332)
(3.38268 -0.00493126 0.00648648)
(3.63683 -0.0173688 0.0756803)
(2.95807 0.00331901 -0.0513159)
(1.22606 1.22852 8.95516e-05)
(1.20631 -1.20678 0.000581655)
(1.20618 -1.20697 -0.000465939)
(1.55368 1.30048 0.082035)
(3.50995 0.00555437 0.00016039)
(3.55717 -0.0134084 0.003776)
(1.23004 1.23327 0.000426092)
(3.48863 0.0046931 -0.00119125)
(1.29807 1.0462 0.0762717)
(1.21351 -1.19844 6.17864e-06)
(3.60644 -0.00421617 0.0259848)
(3.48328 0.00680087 0.00524564)
(3.57945 0.00150715 0.009207)
(3.48811 0.00613383 -0.00235347)
(1.18485 1.04664 0.0643118)
(1.53905 1.3208 0.0871129)
(1.22545 1.22624 -0.00226546)
(3.48569 0.007081 0.0045951)
(3.46551 0.00394697 0.000250935)
(3.58684 0.0683011 -0.025753)
(1.2177 1.21321 0.00192633)
(2.44918 2.16832 -0.520892)
(3.37326 0.0290495 0.0303636)
(3.55516 -0.00912351 0.00785762)
(3.49161 0.00997334 0.00611116)
(3.34702 0.329783 -0.026177)
(3.54375 0.00437605 -0.00790157)
(1.22547 1.22484 0.000414602)
(3.54514 0.00635116 -0.00437417)
(3.42241 0.00260523 0.00344967)
(3.61255 -0.0744019 0.00313056)
(3.61576 -0.0145117 0.0403128)
(3.48146 -0.0169366 -0.0145102)
(1.2228 1.22901 -0.00453219)
(1.20451 -1.20561 -0.000856458)
(1.2299 1.2221 0.00490093)
(1.1996 -1.20272 -0.000935484)
(3.54404 -0.00933501 0.00192527)
(3.51792 0.0020385 -0.000389823)
(3.5327 0.00844695 -0.0111759)
(3.54333 0.00406106 -0.00847756)
(1.21929 1.22147 -0.00444315)
(3.51124 -0.0160544 -0.00495679)
(1.22594 1.22649 0.00196543)
(1.20227 -1.20582 -0.000461208)
(3.54319 0.00678808 -0.00610798)
(1.11697 -1.11745 0.0161272)
(1.97702 -0.382977 -0.0276766)
(1.19349 -1.18901 0.000225832)
(1.23777 1.22213 0.00991042)
(3.51321 0.00177545 -0.00355451)
(1.22702 1.22598 0.000534542)
(3.4572 0.00110231 -0.00073845)
(3.34227 0.00324305 -0.00888241)
(1.22846 1.22844 -0.000241898)
(3.26319 -0.000320224 -0.00885853)
(3.45547 0.00279734 0.00205582)
(1.23647 1.08121 -0.0409086)
(3.4447 0.0102678 0.0122849)
(3.33891 0.00765921 0.00500687)
(3.45855 0.0084613 0.00591153)
(3.24398 0.0109908 0.0380602)
(3.46044 0.00441942 0.00300489)
(3.4036 0.00032303 0.000326547)
(1.20792 1.03083 -0.00397413)
(1.20516 -1.2014 0.00672816)
(3.0256 0.00575672 0.064382)
(1.21937 1.22252 -0.0067818)
(3.46792 0.0127676 0.0148518)
(3.60964 -0.0111103 0.0313737)
(1.23878 1.1819 0.0104737)
(1.2243 1.22961 -0.0013415)
(3.527 0.000939957 0.00136214)
(3.41816 -0.00985894 -0.0226699)
(3.42598 0.0124847 -0.00170862)
(3.56501 0.0137166 -0.00444032)
(1.22742 1.22606 0.000439213)
(3.62826 -0.00215725 0.0536432)
(3.55698 -0.00551878 0.0141656)
(1.22983 1.22734 -0.000526662)
(3.5049 0.0518382 0.0425808)
(3.34301 -0.00808465 -0.0239136)
(1.20673 -1.20503 -0.000765689)
(1.20637 -1.20489 -0.00124898)
(3.45273 0.00255886 -0.000247997)
(3.49148 -0.000590769 -0.0039778)
(1.23272 1.23268 -0.00163371)
(1.20819 -1.20621 -0.00217758)
(2.10978 -1.14994 0.257068)
(1.20665 -1.20713 0.000428863)
(3.51087 0.00204495 0.0045109)
(1.22081 1.22449 0.00197363)
(1.20624 -1.20735 0.000214752)
(3.57925 0.00122625 0.0112787)
(3.26321 -0.0341731 -0.0855354)
(3.55135 -0.0164109 0.00240017)
(3.43021 -0.00407342 0.0035054)
(1.22891 1.22742 0.000509926)
(1.59765 1.22825 0.0612215)
(3.43298 0.0392468 0.0646303)
(1.49746 1.31951 0.0712187)
(3.42064 0.0116192 0.0229633)
(3.40705 -0.026575 -0.000239656)
(3.54069 -0.0156141 -0.00953685)
(2.48303 0.0650703 0.0914272)
(1.47195 1.26582 0.0643876)
(3.50616 -0.00022003 -0.0340795)
(3.61407 0.110167 -0.0337619)
(1.2059 -1.20704 0.00184952)
(3.57943 0.00543489 -0.0305712)
(3.57019 -0.00898758 0.011609)
(1.20859 -1.20781 0.00176126)
(3.46678 0.18918 -0.103767)
(3.07525 -0.000591289 -0.0323467)
(1.55377 1.21687 0.0520816)
(3.55528 -0.00306218 0.0112758)
(3.52832 0.00141524 -0.00393002)
(3.45912 0.00326358 -0.00282768)
(1.22775 1.2248 -0.0001683)
(3.45218 -0.00785716 0.026929)
(3.57684 0.00400735 0.00877424)
(3.4382 0.0235844 -0.00693763)
(2.21913 -0.0316117 0.0314612)
(1.49965 1.41284 -0.0291718)
(2.07944 -0.0526478 0.0675333)
(1.20619 -1.20761 0.00147229)
(3.24642 -0.100252 -0.0942465)
(3.44967 -0.00937226 -0.0306899)
(1.22784 1.22673 0.00186684)
(3.34374 0.00603446 -0.0176249)
(2.80335 -0.00551003 0.0432819)
(1.60026 1.41205 -0.0138064)
(1.20669 -1.20613 -3.31097e-05)
(1.40946 -1.20102 0.037571)
(1.20651 -1.20609 0.000432245)
(3.49718 0.0281263 -0.00940143)
(3.46266 0.0119629 -0.00371934)
(3.4682 -0.005826 -0.00568689)
(3.29487 0.00266258 -0.00857132)
(3.55428 -0.0608464 -0.0111893)
(1.22678 1.22146 -0.00220048)
(3.45457 0.00259997 -0.00291659)
(1.2102 -1.20028 0.000153359)
(3.41257 0.00791427 0.00663494)
(1.23086 1.23025 0.000370526)
(1.20611 -1.20556 -7.89983e-05)
(1.19633 -1.19976 -0.00233282)
(3.39823 -0.0159892 0.00289188)
(1.20357 -1.20559 -0.000245561)
(1.20755 -1.20735 0.00088291)
(1.21088 0.791404 -0.0525723)
(1.20764 -1.20789 0.000532886)
(1.21431 1.23116 0.011046)
(3.44378 -0.0158277 -0.00832496)
(1.22715 1.2255 -0.00027974)
(1.45566 1.0727 0.000576392)
(1.22858 1.22772 0.00127339)
(1.20562 -1.20209 -0.000822095)
(1.22823 1.22422 -0.00184048)
(1.20357 -1.19685 -0.00583312)
(1.2242 1.22429 -0.000155099)
(3.19058 -0.00536428 -0.0129907)
(1.23048 1.22383 0.00504329)
(3.24356 0.0399115 0.0627783)
(3.52321 0.00960587 -0.00400472)
(3.63518 -0.136276 -0.0222567)
(1.22679 1.22291 -4.47224e-05)
(3.07879 0.00747634 0.0455201)
(1.23001 1.2257 0.00138581)
(1.20707 -1.20702 -0.000278234)
(3.45713 -0.0252776 -0.0266662)
(3.46204 -0.0212006 -0.0224322)
(3.46788 -0.00229708 -0.00712234)
(3.6405 0.00131764 -0.0566799)
(1.41535 1.18479 -0.0368091)
(3.54927 -0.00124461 -0.0166585)
(3.54659 0.000534903 -0.0168909)
(3.4654 0.000366127 0.000760564)
(3.45881 0.0010484 0.000311413)
(3.50974 -0.0256922 -0.0152218)
(1.20471 -1.20523 -0.000456875)
(3.46776 -0.000563893 0.00164674)
(1.61395 1.40332 -0.00956959)
(3.50497 0.00723907 -0.0025386)
(1.22689 1.226 -0.000782257)
(3.56081 -0.00202138 -0.009725)
(1.59396 1.32024 0.0128387)
(3.47577 -0.00325975 -0.00309577)
(3.53084 -0.012047 0.00995399)
(1.38862 -0.71331 -0.00533402)
(1.22865 1.23036 0.0128878)
(3.46106 0.000711469 0.00908025)
(1.20622 -1.20579 -0.000327856)
(3.5754 0.00938824 -0.0205166)
(3.55162 0.00715108 -0.0131587)
(1.22626 1.22389 -0.0103742)
(1.22483 1.22548 0.00243866)
(1.20406 1.07029 -0.0313423)
(1.22637 1.22794 0.000126144)
(2.49411 -0.134079 0.0670417)
(3.57719 0.00814301 -0.0178213)
(1.24303 1.21411 -0.00124314)
(1.22521 1.22656 0.000807254)
(3.17357 0.00187212 -0.00250175)
(1.22673 1.2278 -0.00095253)
(3.52749 0.00589971 -0.00994985)
(1.22682 1.22708 0.00129294)
(3.49285 -0.0156779 -0.0106746)
(1.20728 -1.20696 0.000617291)
(3.28807 -0.0141016 -0.0362756)
(2.8449 -0.0087853 -0.00387887)
(3.36961 0.0036251 -0.00258866)
(3.47646 -0.00172707 -0.00470071)
(1.23611 1.22425 -0.00263986)
(3.37453 0.00565752 -0.0105271)
(1.23015 1.22565 0.00101945)
(1.22772 1.22796 -0.00307826)
(3.47516 -0.00417901 0.00135282)
(1.22753 1.22652 -0.000543458)
(3.03226 -0.00151642 -0.0261888)
(1.18741 1.09358 -0.0337596)
(3.52864 0.000910154 -0.0101021)
(1.2062 -1.20562 0.000102907)
(3.55623 0.0040054 -0.00667485)
(1.20736 -1.20565 -0.00066028)
(1.46138 1.29135 0.0377573)
(3.62616 0.1308 -0.0110325)
(3.45717 -0.0237492 -0.0267469)
(3.50698 0.00968832 -0.00116381)
(3.53514 -0.0299507 -0.0195182)
(3.49225 0.00482827 -0.000664253)
(3.57478 -0.0139681 -0.00220605)
(1.2196 1.23026 -0.00650842)
(3.50435 0.0178773 0.00898074)
(3.47032 -0.0255352 -0.0214)
(1.22737 1.22788 -0.000980154)
(2.98315 -0.0406288 -0.111015)
(3.59779 -0.0308882 -0.0178917)
(3.45094 0.00979755 0.00989319)
(1.21625 1.19906 -0.00710371)
(1.5185 0.286296 -0.248475)
(3.38603 0.00610569 0.00853025)
(2.84299 -0.0118485 0.0229863)
(2.86732 0.727652 -0.00282687)
(1.55649 -0.806705 -0.0631088)
(3.56456 -0.0307455 -0.00670958)
(3.36181 0.00859488 0.0191921)
(3.45481 -0.0249843 -0.0265131)
(3.51747 -0.0137564 -0.00680796)
(3.44718 0.0147194 0.0100518)
(3.08394 0.389117 -0.0165841)
(1.52278 1.28759 0.0105605)
(3.14534 -0.118622 0.0249413)
(3.04858 -0.273917 0.0570618)
(1.20537 -1.20598 -4.85337e-05)
(3.16555 0.0156644 -0.00527955)
(1.23396 1.21167 -0.00682249)
(1.44388 1.31212 0.0125956)
(3.4736 0.00146145 0.000931545)
(3.10612 0.508932 -0.00934789)
(3.75474 -0.322454 -0.0619518)
(3.39063 -0.591288 0.00950743)
(1.44212 1.37026 -0.102778)
(3.54369 -0.0157005 -0.00558333)
(3.50706 0.0166116 0.0143924)
(1.22452 1.22087 -0.00106392)
(1.58687 0.867132 -0.0359472)
(3.50804 0.0219555 0.0147869)
(1.2061 -1.20279 0.000544419)
(1.22647 1.22581 -0.000313298)
(1.22576 1.22572 0.000237541)
(1.22821 1.22069 0.00136759)
(3.54373 -0.0281744 -0.0106683)
(1.22687 1.22669 0.0005701)
(1.21195 -1.21154 0.00591348)
(3.48379 -0.0151649 -0.0126633)
(3.34095 -0.000848435 -0.00280742)
(1.76729 -1.55075 -0.0829061)
(3.50845 0.0212327 0.0136059)
(1.43098 1.14937 0.0277599)
(3.4902 -0.0050613 -0.0037675)
(1.18717 -1.18803 -0.00545419)
(1.22461 1.22711 -0.00105397)
(3.53656 -0.0165921 -0.00596946)
(1.22796 1.22106 -0.00385095)
(1.22588 1.2232 0.000840363)
(1.41 1.35027 0.038759)
(3.41343 -0.00672833 0.00412484)
(2.03754 1.70437 -0.225761)
(3.48963 -0.00887469 -0.00396921)
(3.47325 0.00104543 6.02482e-06)
(1.19793 -1.19003 -0.00890003)
(3.64767 -0.00660054 0.111275)
(3.32742 -0.0152319 -0.0401242)
(3.4756 -0.00191331 -0.00323069)
(3.54097 0.0594141 0.00589132)
(3.55339 0.0314096 -0.0763976)
(3.13107 -0.00064673 -0.0170955)
(1.22635 1.22699 0.00109966)
(3.54624 0.000552733 0.0107921)
(3.51228 0.0110027 -0.00125742)
(1.19614 -1.21144 0.00175335)
(3.37668 0.00321074 -0.00727153)
(3.56295 0.0241199 -0.00451979)
(3.54377 0.0126705 -0.00426151)
(3.37356 -0.014849 -0.0226778)
(3.54322 0.0141978 -0.00303647)
(3.54482 0.015014 -0.00178455)
(1.20971 -1.19431 0.00739356)
(3.55912 -8.21832e-05 0.0144638)
(3.00976 -0.0169026 -0.00922515)
(1.48617 1.28855 0.0816324)
(3.54165 0.00997388 -0.00762432)
(3.40969 0.0030235 -0.00362965)
(1.98498 1.6122 -0.24398)
(3.47275 0.000914333 0.000683561)
(3.54515 0.00661926 -0.00969659)
(3.41114 0.00146756 -0.00800578)
(3.51969 0.0145985 -0.00113188)
(3.47995 0.0314913 0.010042)
(3.47307 0.00146706 0.000440576)
(1.20066 1.17232 0.00117973)
(3.51882 0.0166652 0.00174458)
(3.31964 -0.0180095 -0.0339229)
(1.34617 -0.817343 0.0288505)
(3.50618 0.0263783 0.0180194)
(3.4724 0.0272994 0.0276091)
(3.48107 0.00308824 0.00039521)
(1.2266 1.22389 0.00119642)
(3.42756 0.0148058 -0.0278227)
(1.20782 -1.20182 0.00413651)
(1.22719 1.22631 -0.000751287)
(1.22323 1.21457 0.000339764)
(1.22903 1.22291 0.00148188)
(3.07965 0.000360851 -0.00700301)
(1.46738 1.2597 0.0521157)
(2.68435 -0.1891 0.217023)
(1.20278 -1.2039 -0.00026825)
(1.22624 1.24258 -0.000670036)
(3.52089 0.0298827 0.0186145)
(3.52359 0.0043206 -0.0138502)
(1.207 -1.20711 0.00027364)
(3.53662 -0.0153302 -0.00328783)
(1.20718 -1.20583 0.00423008)
(1.2076 -1.20672 -0.000380256)
(1.18918 -1.18898 0.0040387)
(3.59117 -0.0202824 -0.0048223)
(3.08354 0.0137601 -0.00363507)
(1.45128 1.30604 0.0156621)
(1.21947 -1.20592 0.00285379)
(1.22525 1.2292 -0.00191722)
(1.22706 1.22788 -0.000636148)
(3.61878 0.00404905 -0.0378234)
(3.47778 0.0025752 0.000857759)
(1.46478 1.37681 0.0643633)
(3.56453 0.00528096 -0.0172516)
(3.34302 -0.0448204 -0.131364)
(1.22485 1.22569 0.000806372)
(3.55548 0.00423088 -0.015025)
(3.27475 -0.000526147 0.0149669)
(3.45315 0.0127284 -0.0151929)
(1.22696 1.2269 0.000321497)
(1.22592 1.22507 0.000184943)
(3.44263 0.00907684 0.0150636)
(3.48559 0.00273796 -0.000266473)
(1.45421 1.32125 0.0210837)
(1.22373 1.22425 0.000692489)
(1.24661 1.2069 -0.00537521)
(3.48507 -0.00624833 -0.000189158)
(1.20644 -1.20657 -0.00162566)
(1.20736 -1.20289 0.000309449)
(1.2235 1.22463 0.000935525)
(3.55333 0.00514344 -0.0131158)
(3.22314 -0.0133852 0.0011621)
(1.22699 1.22728 9.10969e-05)
(1.37767 0.25964 0.248565)
(1.5219 -0.184037 -0.0422615)
(3.4475 0.0124053 0.0023445)
(1.22634 1.22865 -0.000521673)
(1.2274 1.22492 -0.000370604)
(3.57729 -0.02719 -0.00725345)
(3.43709 0.0546607 0.0481528)
(1.47713 1.31836 0.0635219)
(2.16302 0.690655 0.0478067)
(3.38948 0.0711894 0.0995355)
(3.26217 0.0106493 -0.0122646)
(3.45012 -0.000529276 -0.000221152)
(1.27465 1.19537 -0.00178187)
(3.42993 0.00852634 -0.000869912)
(3.54969 -0.0171005 0.0212443)
(1.22967 1.22615 -0.00207968)
(1.19919 -1.18166 0.000686245)
(1.22393 1.22451 -0.000652111)
(1.22565 1.22623 -3.30925e-05)
(1.22712 1.22953 -0.00121069)
(1.22815 1.22739 -0.000391842)
(3.56297 0.00603558 -0.0130304)
(1.20528 -1.2059 0.0015761)
(1.22531 1.22576 0.000337598)
(1.21936 1.2053 -0.000322109)
(3.56544 0.00626141 -0.0165956)
(3.4841 0.00205561 0.000402243)
(1.21204 -1.19668 0.000846937)
(1.19373 -1.18228 0.0020569)
(3.59363 -0.00933424 0.0284216)
(3.42987 0.00133602 0.00415909)
(3.42547 0.00266499 0.00504788)
(1.20701 -1.20367 -0.000575203)
(1.22455 1.2273 0.000336906)
(3.42914 0.00194851 0.00380797)
(1.20735 -1.20608 0.000317713)
(3.41196 0.00442648 0.00298376)
(3.44349 0.00531432 0.00824566)
(3.44451 0.0045833 0.00377932)
(1.21512 -1.20622 0.00322789)
(1.20631 -1.20777 0.0013364)
(1.20648 -1.20736 0.000533924)
(1.22737 1.22913 0.000751425)
(3.48948 -0.00754772 -0.00334053)
(1.22659 1.22718 0.00111419)
(1.22538 1.22536 0.000243052)
(3.50383 0.0160519 -0.0161623)
(1.20624 -1.20666 0.000989893)
(3.43596 -0.00135559 0.00292177)
(3.18507 -0.0296104 0.00721981)
(1.23881 1.19805 0.00683933)
(3.4794 0.00228952 0.000196252)
(1.66144 0.217637 -0.0200886)
(3.4596 0.00198346 -0.000632808)
(3.58685 -0.00589057 0.00640409)
(3.2356 0.0074742 0.00604986)
(3.58364 0.00100777 0.0211356)
(2.61775 0.0501125 -0.100394)
(1.46463 1.16796 0.0252664)
(3.45485 0.000562623 -7.25581e-05)
(3.59558 0.0208515 0.00402015)
(3.46535 -0.00376836 -0.00198977)
(1.25632 1.09064 -0.0387295)
(1.6117 0.151812 -0.0825372)
(1.88971 -0.152355 0.0616904)
(3.45341 0.00100697 -0.00355037)
(1.2255 1.22692 0.00178507)
(3.40646 -0.00499535 -0.0196526)
(3.47991 -0.00259141 -0.00440048)
(3.37288 -0.0232045 -0.0455354)
(1.31658 -0.941434 -0.0681193)
(1.20702 -1.2076 0.000708878)
(1.20623 -1.20663 -0.000473283)
(3.48726 -0.00286207 0.00126175)
(1.43028 1.18206 -0.014955)
(3.39937 0.00843541 -0.0010244)
(1.33214 1.21257 0.0153898)
(3.34408 -0.00621356 -0.0136101)
(3.45156 4.73047e-05 -0.00207478)
(3.4135 0.00110875 0.00252264)
(3.48538 0.00361 -0.00132293)
(1.22541 1.22539 -0.000537042)
(1.22045 1.2178 -0.00185163)
(1.29646 -1.1801 0.00519048)
(3.47823 0.00210583 -0.00036392)
(1.22816 1.22481 -0.000520483)
(1.41807 1.21965 -0.0539478)
(3.61211 0.0703263 -0.0581712)
(1.23217 1.23032 -0.00141433)
(1.22137 1.22661 0.00423052)
(1.2039 -1.19949 -0.00316382)
(1.22721 1.22797 0.00140664)
(3.40177 0.000468296 0.00477341)
(1.2591 1.19452 0.00131379)
(1.22777 1.22589 -4.76209e-05)
(2.87772 0.40134 -0.282957)
(1.43844 1.15803 -0.0141337)
(1.22233 1.2233 -0.00977589)
(1.72638 -1.02987 0.0596397)
(1.22798 1.22515 -0.000971862)
(2.86683 0.00453511 -0.0167006)
(3.45491 0.000381115 0.0012031)
(1.20606 -1.20522 -0.000671944)
(3.41249 0.00663498 -0.0165775)
(3.39974 0.536241 -0.072177)
(3.35163 -0.0262477 -0.0459356)
(3.68259 0.127888 0.00346054)
(3.39052 -0.00309541 -0.00268072)
(1.22701 1.21907 0.00292026)
(3.46858 -0.0246997 -0.0278276)
(3.61198 -0.00702805 0.00766346)
(3.34905 -0.0266587 -0.0454151)
(1.20668 -1.20535 -0.00113697)
(3.65291 0.954923 0.254991)
(3.39649 0.00216485 0.00408058)
(1.64354 1.30609 -0.0778891)
(3.38736 -0.000850795 0.000994541)
(3.63714 0.0367573 -0.0297085)
(3.49153 0.0621635 0.0075474)
(3.43617 -0.00715611 -0.00881521)
(3.43955 0.00923298 -0.00192935)
(3.66518 0.046128 -0.0134203)
(3.47135 0.00101312 -0.00462119)
(3.48163 0.00196644 0.000664369)
(1.219 1.2228 0.00499403)
(1.2246 1.2177 0.00376942)
(3.41065 0.00474527 -0.00229754)
(3.39186 1.0051e-05 0.00174715)
(1.22453 1.22752 -0.000655871)
(3.43404 0.00340853 -0.000989519)
(3.57971 -0.00751148 0.00445385)
(3.48614 0.000726342 -0.00113203)
(1.23149 1.21887 -0.000201064)
(3.4759 0.0620038 0.0172361)
(1.22564 1.22469 0.0003155)
(3.48415 0.00199674 0.00188478)
(3.48769 0.00326252 0.000200388)
(1.22619 1.22538 -0.000695135)
(3.38179 0.012485 -0.0199409)
(3.48024 0.00271019 0.00102636)
(3.46479 0.0560136 0.0078739)
(3.42047 -0.0057867 0.00855415)
(1.25253 1.22725 -0.00159855)
(3.52414 -0.0037172 0.00804285)
(3.47771 0.072371 0.004676)
(3.66183 -0.0941559 0.0210078)
(3.10301 0.0353292 0.0160051)
(2.80959 0.00888142 -0.0351043)
(1.22922 1.21671 -0.0020138)
(1.22537 1.22435 0.00212118)
(3.42154 0.0393845 0.00757862)
(1.22659 1.22787 -3.82261e-05)
(3.09363 -0.00452288 -0.0190227)
(3.41591 -0.01034 -0.0176447)
(2.07731 0.273266 -0.0682825)
(3.8022 -0.248106 0.0874088)
(3.3538 -0.155354 0.0395512)
(3.73395 -0.141587 0.0333986)
(1.22666 1.2281 0.000128596)
(1.6727 1.41717 0.0126809)
(3.49599 0.00449573 -0.00421764)
(1.20161 -1.20557 -0.00448081)
(0.68335 -0.478225 0.19037)
(3.49293 -0.0542364 -0.0418394)
(1.22724 1.22387 -0.00243108)
(1.22739 1.22532 -0.000463727)
(3.13757 -0.065939 -0.00752971)
(2.55673 -0.166034 0.0346005)
(1.22671 1.22718 0.000455599)
(3.17393 -0.0584379 0.00521483)
(1.22592 1.22458 0.00127124)
(1.22644 1.22875 -0.00226772)
(1.20627 -1.20787 0.000434682)
(1.20805 -1.20522 0.00269024)
(1.18541 -1.17634 0.0031288)
(1.20664 -1.2046 -0.000109025)
(3.19175 0.0233809 -0.00496944)
(1.22491 1.21907 0.000105468)
(1.2269 1.22679 0.00061582)
(1.21941 1.2276 0.00193561)
(2.95277 -0.662068 -0.177031)
(3.33236 -0.0191212 -0.0512331)
(3.25624 0.00049407 -0.0203007)
(3.49685 0.00246896 -0.00362074)
(1.22244 1.21433 -0.000416023)
(1.23127 1.22492 -0.00047792)
(3.38297 -0.0510872 -0.060979)
(1.22673 1.22709 -0.00153643)
(1.22734 1.22509 -0.000546846)
(1.96862 1.11834 0.0416494)
(3.60399 -0.0407817 -0.00119473)
(3.49377 0.00472791 -0.00124691)
(1.22593 1.22542 -0.000227767)
(1.22825 1.22432 0.00212259)
(1.22472 1.21991 -0.00179832)
(1.2267 1.22409 7.68863e-05)
(1.22949 1.2281 -0.000809183)
(1.22888 1.22667 0.000476985)
(3.52539 -0.0718254 -0.0438237)
(1.22765 1.2237 -0.000561259)
(2.45648 0.0338243 0.0782406)
(3.53663 -0.00423818 0.00904237)
(1.22637 1.22847 -0.000348854)
(1.19891 -1.20521 -0.00253861)
(1.19192 -1.17998 0.000274532)
(2.99213 0.0338297 0.159371)
(1.18555 -1.18527 -0.00463484)
(1.20504 -1.20601 -2.71465e-05)
(1.22168 1.22242 -0.00822604)
(3.2106 -0.0482582 -0.00300775)
(1.22502 1.22551 -0.000411303)
(3.50272 -0.0367468 -0.0228671)
(2.86564 0.0374059 -0.0117693)
(2.32029 0.0019266 0.0903379)
(1.22396 1.22562 0.000150952)
(2.41934 -0.635153 0.053223)
(3.53488 -0.00383838 0.00680917)
(3.53742 0.00358872 -0.0068482)
(1.2916 -1.23273 -0.0152129)
(3.43574 -0.0590338 -0.0107739)
(3.49875 -0.00883476 -0.00283848)
(1.20549 -1.19734 0.00135996)
(1.26854 1.2008 0.0043383)
(1.69073 -1.30935 -0.106568)
(1.22199 1.22458 -0.000971629)
(3.49896 0.00321771 -0.000418761)
(3.5147 -0.00126488 0.00420054)
(3.58837 -0.0358274 0.0183861)
(2.36945 -0.00125976 0.126172)
(1.22735 1.22677 -0.00063927)
(3.50017 0.00328166 -0.000478655)
(1.26677 1.20341 -0.00323683)
(1.53836 1.29788 -0.00619602)
(1.61332 -1.26041 -0.051035)
(1.22705 1.22695 0.000635702)
(3.517 0.00529066 -0.00141448)
(1.22386 1.22276 -8.64414e-05)
(1.19485 -1.17641 0.000122481)
(3.24616 -0.0391833 -0.073831)
(3.4726 -0.0011286 0.00054875)
(1.19458 -1.17619 -0.00302759)
(3.49229 0.000967188 -0.001362)
(1.30963 1.27882 -0.00767168)
(3.53681 -0.0234539 -0.00999943)
(1.1523 1.09916 0.00763128)
(1.22707 1.22654 -3.22957e-05)
(1.23459 1.23104 0.00519544)
(1.20655 -1.20755 0.000913583)
(3.44888 0.000175649 -0.00239129)
(3.19065 0.00299428 -0.00539935)
(3.56108 -0.00734812 0.0670159)
(1.22439 1.22486 0.000287831)