/*--------------------------------*- C++ -*----------------------------------*\
  =========                 |
  \\      /  F ield         | OpenFOAM: The Open Source CFD Toolbox
   \\    /   O peration     | Website:  https://openfoam.org
    \\  /    A nd           | Version:  10
     \\/     M anipulation  |
\*---------------------------------------------------------------------------*/
FoamFile
{
    format      ascii;
    class       surfaceScalarField;
    location    "7.2";
    object      phi;
}
// * * * * * * * * * * * * * * * * * * * * * * * * * * * * * * * * * * * * * //

dimensions      [0 3 -1 0 0 0 0];

internalField   nonuniform List<scalar> 
214403
(
-0.00676643
0.00518889
0.000285786
0.00129176
-0.00334989
-0.0112624
0.000958708
0.0136535
-0.0102823
6.86521e-05
-0.000140184
0.0103539
0.0089056
-0.00598798
-0.0149273
0.0120097
0.0123311
-0.0155922
0.00371441
-0.000453295
-0.00540399
0.00562849
-5.47092e-05
-0.000169784
-0.000855587
-0.0016266
-0.00925903
0.0117412
-0.0170717
0.00971339
-0.00256455
0.00992291
-0.0233831
0.0165048
0.0166604
-0.0097821
0.0142556
0.00169178
-0.015929
-1.84578e-05
0.00505576
-0.0100147
0.00205997
0.00289896
-0.0103816
0.00326665
0.0053797
0.00173529
0.000478213
-0.0114864
0.0138334
-0.00282517
-0.00998722
0.0100529
-6.56501e-05
0.00192637
0.0119769
-0.0153522
0.00144897
-0.0121044
0.0101196
0.00306758
-0.00108282
-0.0121725
0.011877
0.000295563
0.00394288
-1.13861e-05
-0.00100229
-0.0029292
0.0157459
-0.00942387
-0.0209363
0.0146143
-7.60785e-05
-0.00311862
9.14145e-05
0.00310328
0.00643234
-0.00628156
-0.000150781
-0.0124042
-0.00429107
0.00426676
0.0124285
-0.00229468
0.0136938
-0.0110371
-0.000362049
0.00675462
0.00071037
0.00235686
-0.00982185
-0.010285
-0.00493905
0.0133136
0.00191051
0.0092387
-0.0117024
6.90389e-05
0.00239463
0.00324151
-0.0028375
0.0106173
-0.0110213
0.00766723
0.0100292
-0.0120813
-0.00561511
0.0112226
-0.00703922
-0.000319397
-0.00386396
-0.00589093
0.00600501
-0.000114083
0.00245061
-0.00509934
0.013594
-0.0109452
0.0141927
0.000672669
-0.00247717
-0.0123882
-0.00565077
-0.00579911
0.00593887
0.00551102
-0.00120493
-0.00679671
0.00602095
0.00198069
0.00444122
-0.00307476
-0.00946447
0.00809802
-0.00172001
0.00858027
-0.00309981
-0.00376044
0.0160973
-0.000393191
-0.0157041
-0.00692933
0.0135149
-0.0065856
0.0012486
-0.0148334
0.00858955
0.00499528
0.00246686
-0.000991467
0.0060381
-0.00751349
0.00573621
-6.05919e-05
-0.00567561
0.010288
-0.000221415
0.00182418
-0.0118907
-0.0130505
0.00163881
0.0138786
0.000865078
0.000888552
0.00866172
-0.0104153
-0.00413057
-0.0270019
0.0261849
0.00494754
0.00573204
0.00103491
0.00129568
-0.00806264
0.0042593
0.00322141
-0.0104032
0.0029225
0.0134233
0.00804516
-0.0147139
0.00121436
0.0113869
-0.00231326
0.00182936
-0.00684729
-0.00403144
0.00904937
0.00311633
0.00479033
0.00142467
-0.00933133
0.00186108
-0.00139768
-0.00430628
0.00384287
0.00689788
-0.0124862
0.00870463
0.0119564
-0.0112568
-0.00386206
0.00316246
0.0106833
-0.0019561
-0.00863549
0.0117087
-0.00049771
-0.00257545
0.00889376
-0.0113719
0.000130665
0.00234745
-0.00833241
0.000550573
0.0133152
-0.0055334
-0.015399
-0.0144708
0.0121533
0.0177165
-0.00823502
0.00828514
0.00162973
-0.00167985
0.00129897
-0.0105255
-0.00861119
-0.000179296
0.00447635
0.00431414
-0.0134757
0.00578579
0.00871856
-0.00102863
0.0158085
-0.0127366
0.000817997
-0.00388985
0.000726871
0.000264661
-0.0104158
0.00942431
0.000522288
-0.00286457
0.0141653
-0.011823
-0.0349928
0.00363959
0.00389397
0.0274592
-0.00322948
0.00951008
-0.00301407
-0.00326653
0.00467322
-0.00246022
-0.00996943
0.00775643
0.00112007
0.00696687
-0.00885632
0.000769382
-0.000174069
0.00854426
0.00297278
-0.011343
-0.00169575
-0.000268541
-0.00353313
0.00549743
-0.00904935
0.00989129
-0.00037582
-0.000466117
0.000317081
-0.00911957
-0.0063925
0.00566203
0.00171867
-0.000988205
-0.0170009
-0.00107346
0.00829702
0.00977734
-0.00514663
-0.0021929
0.00437853
0.002961
0.00755905
-0.0253507
0.00351472
0.014277
-0.00395327
0.00795615
-0.00434509
0.000342212
0.00567573
-0.0044061
0.00056165
-0.00183128
0.000128258
-0.0106574
0.0105291
3.27095e-05
0.00865258
-0.00868529
0.00763546
-0.00149401
0.00101231
-0.00715377
-0.00456684
0.00651592
0.00215955
-0.00410863
-0.00322339
0.0137316
-0.00330029
-0.0072079
0.00648295
-0.0110475
-0.000421264
0.00498578
0.00741446
0.00784355
-0.015258
0.0109394
-0.0122938
0.00315015
-0.00179578
0.00106275
-0.00197345
0.0142816
-0.0133709
0.000410584
-0.00230978
0.0102858
-0.00838656
0.00244167
0.0215219
0.00620037
-0.0301639
-0.0188226
0.0165588
0.0107359
-0.00847207
0.000864798
0.00663073
-0.00891601
0.00142048
0.00877418
0.00975553
-0.00319418
-0.0153355
0.016318
-0.00991261
-0.0003266
-0.00607876
0.000712587
-0.00208868
-0.00655819
0.00793429
-0.00663729
3.78092e-05
0.00659948
0.00991348
0.000342554
0.000683402
0.0123235
0.00103662
-0.0187332
0.00537315
-0.00987848
0.00218116
0.00175546
0.00594186
-0.00626319
0.00155302
0.000770098
0.00394006
0.00153705
0.0010989
-0.0130343
0.0103984
-0.00267392
-0.0155618
0.00992151
0.00831418
0.00623404
-0.00737471
-0.00480562
0.00594629
0.0100763
-0.000109261
-0.0100761
0.00010914
0.00772094
-0.0109113
-0.00378773
0.00697808
0.0199791
-0.00604535
-0.00311354
-0.0108202
0.0113241
-1.90033e-05
-0.0104156
-0.000889469
-0.00570515
0.00671876
0.0140024
-0.015016
0.0122343
-0.00429741
-0.0117652
0.00382833
0.0022532
-0.00328987
0.0143174
-0.0132807
-0.0161689
0.0147369
0.0139698
-0.0125378
0.000728187
-0.01259
0.00485911
0.00700268
0.015756
-0.000834383
-0.000320707
-0.0146009
0.0111023
-0.00216371
0.00214697
-0.0110856
-0.012875
-0.0117085
0.0138578
0.0107256
-0.00244201
0.00700435
0.00189865
-0.00646099
-0.00550775
0.00030021
0.0106751
-0.00546761
-0.00122758
0.0138333
-0.0128751
0.000269361
-0.0119214
0.0110715
0.00215549
-0.00130557
-0.00040026
-0.00695701
0.016596
0.00220368
-0.00734335
-0.00536578
0.0105055
-0.00582964
7.65769e-05
0.00575306
0.00178724
0.00812716
-0.00751795
-0.00239646
0.0129568
-0.00747081
-0.00198525
-0.00350077
9.22591e-05
-0.00381725
0.00372499
-0.00730626
-0.00196863
0.00274447
0.00653042
0.000752299
0.00414188
-0.00929359
0.00439941
0.0158502
-0.00143112
0.00619495
-0.020614
0.00113667
-0.00140093
-0.0192224
0.0194866
0.00124008
-0.00549803
-0.00727087
0.0115288
0.000465431
0.0100062
-0.000558141
4.01865e-05
-0.00588335
0.00584317
0.0121881
-0.00452018
-0.0054642
-0.00738969
0.00617199
-0.00608856
0.0134525
-0.011196
-0.00135622
-0.000900227
0.00134828
-0.00637619
0.00278775
0.00224017
-0.0109807
-0.00332446
0.0022317
0.0120734
0.00913767
-0.0148483
0.00978282
-0.00407216
-0.000407432
0.0134092
-0.0134271
0.000425316
-4.3211e-05
0.0122132
-0.012101
-6.90512e-05
-0.017065
0.013619
-0.0109319
0.0143779
0.0142371
-0.0137785
-0.000458638
-0.0130451
0.017472
-0.00319397
-0.00123294
-0.0116565
0.00280303
-0.000878222
0.00973168
-0.0192183
0.00148076
0.0123564
0.00538116
0.00341453
-0.00466298
0.00259672
-0.00470379
0.00534819
0.00860383
-0.00924823
-0.00511172
-0.00229407
0.00292528
0.00448051
-0.00691904
0.00452751
-0.00874573
0.0111373
0.00208185
0.000168061
-0.015295
-0.00681667
0.00680236
1.43125e-05
0.00745642
-0.00716787
-0.000288556
-0.0112596
-0.000736047
-0.00299697
0.00277762
-0.0148191
0.0172586
-0.00521712
0.00667526
0.0114865
-0.0146077
-0.00355409
0.012752
-0.0138508
0.000372347
0.000726514
0.0067948
0.0017658
-0.00702328
-0.00153732
-0.0107369
-0.00059728
0.0141118
0.00617614
-0.000446521
-0.00752899
0.00179937
0.00695941
-0.00595878
0.00686419
-0.00786482
-0.012142
0.00228075
0.0165365
-0.00410075
-0.00575403
0.0189981
-0.00914331
-0.00585428
-0.00644926
0.00156669
0.00174604
0.00462974
-0.0122301
-0.00827947
-0.00072964
0.0133041
-0.004295
0.00129106
0.00203691
0.0073989
-0.0107269
-0.00394394
0.0096543
-0.00571035
0.00312672
-0.0149881
0.0054121
0.00893122
0.00623742
-0.0134226
-0.0126285
0.000151997
0.0157364
-0.00325996
0.00213422
0.00182855
0.00571513
-0.0096779
0.00848987
-0.00855576
6.58944e-05
0.00319673
-0.001207
0.0107312
-0.0127209
0.0112448
-0.00356503
0.00540684
-0.0130866
0.0206709
-0.00664745
0.0154242
-0.0294476
0.00338156
0.00629197
-0.00261358
-0.00705995
-0.00934601
0.00384525
0.00490092
0.000599844
0.006698
-0.0050459
-0.000137243
-0.00151485
-0.00434583
-0.00551052
0.0160471
-0.00619076
-0.00750482
0.00973884
0.00388668
-0.0061207
0.0112966
-0.000617677
-0.00371954
-0.0175629
0.0116073
-0.000963423
-0.0167487
0.0154522
0.0071762
-0.00587977
0.0106838
-0.0120401
-0.00173716
0.00309343
0.00603034
-0.0108953
-0.00570706
-0.00621578
-0.00570349
0.00322324
0.00869604
-0.00887289
0.00275483
0.00875803
-0.00263998
0.0102538
-0.00975491
-0.00671652
0.00621762
6.44741e-05
-8.91676e-05
-0.00961687
0.00964157
0.000232056
-0.00844626
-0.00032076
0.00853496
-0.00243288
-0.014418
0.00226465
-0.00833521
0.00749761
-0.00142705
-0.00567426
-0.0023906
-0.000808025
-0.00019187
0.014245
0.000202489
-0.0340043
0.02392
0.0172872
-0.00720291
-0.0100493
0.000683935
0.000365439
0.00899992
-0.00199986
0.0318436
-0.0374693
0.00762551
0.00158829
0.00244986
-0.00549756
0.00145942
-0.0215107
0.0115904
0.00149805
0.00842216
-0.000254675
-0.014284
-0.00203242
0.0165711
-0.00594008
0.0215248
-0.014926
-0.000658741
0.00966074
0.0140449
-0.0129812
-0.0107245
-0.0115306
0.0109811
0.0136391
-0.0130896
0.00446856
0.00624415
-0.00777755
-0.00293515
0.00444969
-0.0030009
-0.00712306
-0.022908
-0.000900404
0.0187149
0.00509348
0.00672259
0.0010278
-0.00390514
0.00691092
0.00925167
-0.00854225
-0.00762034
-0.0114357
0.00254747
0.0111563
-0.00226812
0.00136065
0.00359189
0.0125195
-0.0132757
0.0131088
0.001271
-0.00110408
0.0082041
0.00643567
-0.00579884
-0.000229697
-0.00163144
0.00765998
-0.00877526
-0.00174559
0.00488331
-0.016918
0.00719398
0.0048407
0.000515178
0.00912785
-0.0101285
0.000485474
-0.00351526
0.000679944
-0.00326853
0.00610384
0.014124
-0.0100952
0.000420936
-0.008
-0.00625808
0.00841836
0.00583971
0.0302381
-0.0323473
0.0105659
-0.00845664
-0.00580368
0.00721144
0.00290493
-0.00431269
-0.0132671
0.00576648
0.0115663
-0.00406564
-0.00575186
0.00834973
0.0107397
-0.0133376
0.0161299
-0.00623685
-0.010678
0.000784958
0.000280582
-0.0039214
0.00953957
-0.00589875
-0.00165821
0.00164446
-0.0126147
0.0115823
0.00376444
-0.0123998
-0.00294692
0.0145498
-0.0119358
-0.00321131
0.00305686
0.00452198
-0.0106957
0.00311684
-0.00597616
-0.0109591
0.00973407
0.00720119
-0.00182505
-0.00473842
-0.00143652
0.00594334
-0.00635011
0.013684
-0.0132773
0.00143998
-0.0165733
0.0151333
0.00563888
-0.00737733
0.00479532
0.00306103
0.00176757
0.00251002
-0.00733862
-0.000309587
-0.0138048
0.0141144
-0.00753277
0.00100067
-0.00244431
0.00897642
-0.000903557
0.0104542
-0.0095284
-2.22829e-05
-0.00709918
-0.00375735
0.00409917
0.00675736
-0.00264681
-0.00627743
-0.00582999
-0.00856933
0.00714751
0.00725181
0.00031485
-0.00879165
0.0151572
-0.00623225
-0.000806922
-0.00811806
0.00804062
-0.000767682
-0.00586634
-0.0014066
-0.00128497
0.011327
-0.014145
0.00410293
0.00730696
0.000281088
0.00355713
-0.0111452
-0.000268871
-0.00600695
0.002899
0.00337682
-0.00416026
0.00541328
0.0104627
-0.0117157
-0.0147289
-0.0038152
-0.00411784
0.0135719
-0.0125938
0.000296226
0.00394803
0.00834957
0.00121198
-0.00446485
-0.00795209
0.011205
-0.00577585
-0.0112749
0.00284493
0.0142059
-0.00526653
-0.00584311
0.00606809
0.00504155
-0.0136329
0.0131217
0.0138478
-0.0133366
-0.0018478
-0.00322533
-0.00971568
0.0147888
-0.0133043
0.00135116
0.0135409
-0.00158768
-0.00231143
0.00620725
-0.00389582
-0.00539005
0.0099634
-0.00750064
0.00292729
-0.000233133
0.017895
-0.00664361
-0.0110183
-0.0064036
-0.00309382
0.0128514
-0.00335395
0.00206642
-0.00541767
0.0122948
-0.00894358
0.000563122
0.00798522
-0.00139895
-3.68989e-05
-0.013099
0.0130893
4.65291e-05
0.0149377
-0.00264532
-0.0218331
0.00954078
-0.013795
-0.00135181
0.0172244
-0.00207756
-0.00748706
0.0113115
0.000928606
-0.00475302
0.00666926
-0.00658682
-8.24335e-05
-0.00797552
0.000769634
-0.00688183
0.0140877
-0.0115094
0.0158611
-0.00330689
-0.00104474
0.00717326
-0.00300829
-0.0086497
0.00448473
-0.0138619
0.0139857
-0.000123766
0.0114221
-0.0166096
0.00134344
0.00384411
-0.0129409
-0.00354275
0.02213
-0.00564636
0.00954799
-0.000398062
-0.00200558
-0.00714435
-0.00544232
-0.00923111
0.0206168
-0.000970449
-0.0136226
0.00824295
0.0214356
-0.0239137
-0.00226954
0.00474772
0.00573874
0.00273601
-0.00634053
-0.00601016
0.0062659
-0.000255733
-0.00244999
0.0136883
-0.000869337
-0.010369
-0.00298102
0.00353603
0.0118922
-0.0124472
0.00776866
0.0182344
-0.0106683
-0.0153348
0.0133345
-0.0159986
0.00508608
-0.00242205
0.0121226
0.000169624
-0.0122922
0.000224866
0.011798
-0.0120229
0.0133009
-0.0161004
0.0142216
0.000143965
-0.000121802
0.010353
-0.0103752
0.000267717
0.0188587
-0.018789
-0.000337447
-0.0016114
-0.004765
-0.00964454
0.0160209
-0.0059003
-0.00353608
0.00118474
0.0111637
-0.0194267
0.00707824
-0.00942263
-0.00247075
0.0101025
0.00179088
-0.0111218
0.0122817
-0.00328096
0.00212106
0.00175334
0.00913401
-0.00310735
-0.00778
-0.00443012
0.00110059
0.00751381
-0.00418428
-1.27658e-05
0.00339526
-0.00425999
0.000877495
-0.00474122
0.0115954
-0.00668503
-0.00016919
0.00346629
-0.0109387
-0.0063895
7.69445e-05
-0.0102005
0.0101236
-0.00378768
-0.00363447
0.00168556
0.00573659
0.00570108
-0.00328896
-0.00241212
0.0142708
-0.0141722
-0.00289135
0.00279276
-0.00129575
-0.00843141
0.00777512
0.00195203
-3.53058e-05
4.78252e-05
0.00764701
-0.00765953
0.00381461
-0.00313516
-0.0121372
0.0114577
0.00880671
-0.000224841
-0.00858187
-0.0128741
-0.00833677
0.0124238
0.00878715
0.0075447
0.011823
-0.0203382
0.00716416
-0.0025783
0.00403393
-0.00861979
-0.00286926
0.00284644
-0.0157901
0.0158129
0.00447272
-0.00880808
-0.00857112
0.0129065
-0.000903822
-0.00202343
0.00953707
-0.00660982
0.00665026
-0.00817343
0.00296182
-0.00143865
0.00363978
-0.00603325
-0.00583155
0.00822502
-0.0117337
0.0132124
-0.00351966
0.00204102
0.0133502
0.0171797
-0.0189176
-0.0116123
-0.0103349
0.0102908
4.40959e-05
-0.00115942
0.0122115
-0.0152516
0.00419952
0.000473796
-0.000774811
-0.0117323
0.0120333
0.0115381
0.000484636
-0.0132766
0.0012539
-0.0049238
-0.00832322
0.0104667
0.00278029
-0.0118988
0.0168583
-0.00596902
0.00100957
-0.00490606
-0.00599658
0.00355928
-0.00072955
-0.00012405
-0.00844856
0.00930216
-0.0276003
0.000112126
0.00247488
0.0250132
0.00109193
-0.00701686
-0.00363174
0.00955667
0.0172365
-0.00141667
-0.00557941
-0.0102405
-0.00307006
-0.00663385
0.00128891
0.008415
0.00484145
-1.88246e-05
-0.00482262
0.00809695
0.00431512
-0.00268588
-0.00972619
0.00627179
-0.00496705
0.0123721
-0.0136769
0.000406452
0.0128692
-0.00425277
-0.00902293
0.00312409
0.00445939
0.00965307
-0.00616652
0.000437671
0.00572885
-0.00800854
0.00113385
0.00212467
0.00134344
-0.0110781
0.00761004
-0.0104808
0.015336
0.0046472
0.015841
-0.00335597
-0.0171322
-0.010063
0.00988202
-0.0156393
0.0158203
-0.00151109
-0.00757752
0.00265058
0.00643803
-0.00835747
0.0157719
0.0046849
-0.00545378
0.00122067
-0.000451798
-0.00516766
-0.0164803
0.00515895
0.016489
0.010828
-0.0108063
-9.7964e-05
7.62949e-05
0.00875654
-0.0102213
0.00217714
-0.000712363
0.00224693
0.00879034
-0.0156597
0.00462243
3.76013e-05
0.00755217
-0.00758977
0.00489661
-0.0125494
0.0098997
-0.00473365
0.0127097
0.0107057
-0.0186818
0.00361416
-0.00367844
-0.0171073
0.0171716
-0.00515617
0.00854312
-0.0171357
0.0137487
-0.0122823
0.00977958
0.0128231
-0.0103204
-0.00769917
0.0105481
-0.00681511
0.00396615
-0.00162139
0.00706429
0.00114937
-0.00659227
0.00358472
-0.00522672
0.00539009
-0.00374808
0.00675504
0.00251346
0.00222188
-0.0114904
0.0192437
-0.0130658
-0.000786873
-0.00539105
-1.007e-05
-0.00933193
0.009342
0.00584526
-0.00854733
-0.0262079
0.02891
-0.00117401
-0.0127052
-0.00385183
0.017731
-0.000772284
-0.00584868
0.00662096
0.00178095
0.00844584
-0.00133428
-0.0088925
-0.00235955
-0.00851653
0.00687309
0.004003
0.00658051
-0.00551126
-0.00968044
0.0167932
-0.0130706
0.00369527
0.00391463
-0.0076099
0.0126751
-0.000314352
-0.001521
-0.0108397
-0.00243383
-0.00413961
0.00657344
0.00453378
0.00301248
0.0253458
-0.0304848
-0.0107673
0.0159063
0.00389424
0.00829656
-0.00634551
-0.00584529
-0.00887497
0.0169859
0.0112929
-0.0194038
0.00999932
0.0034709
-0.00133842
-0.0121318
0.016552
-0.0110368
0.00712202
-0.0126372
-0.00926842
0.00423778
-0.0116182
0.0166488
-0.0150933
0.0270497
-0.010602
-0.0013544
-0.000399983
-0.00646347
-0.00890883
0.0157723
0.0122548
0.00506293
-0.0143803
-0.00293743
0.00655731
-0.0174815
0.0110343
-0.000110142
-0.0154592
-0.000588968
0.0101153
0.0059329
-0.00310527
0.00802031
0.00348973
-0.00840477
-0.00196589
0.00788378
0.0063423
-0.0122602
-0.0161064
0.00828529
-0.000784361
0.00860545
0.00147688
-0.00439244
0.00872854
-0.00581299
0.0068279
-0.00343472
0.00243714
-0.00583032
0.00661446
0.00127222
0.00065108
-0.00853776
-0.00978172
0.0104952
0.0038873
-0.00460082
-0.00231485
0.0123926
0.000251261
-0.010329
0.0099964
-0.0058688
-0.00387658
-0.000251022
0.0086502
6.6356e-05
-0.00871656
0.00632344
0.00489614
-0.00111031
-0.0101093
0.00295391
0.00779441
0.00666869
-0.017417
-1.60063e-05
-0.0140086
0.0140246
-0.00731509
0.0282947
-0.00412327
-0.0168563
-0.000133208
0.0105434
-0.0104102
-0.000705016
-0.00759896
0.00136475
0.00693922
-0.0137592
0.00701019
0.00532372
0.00142532
0.00280806
0.00233569
-0.0160876
0.0109439
0.00821768
0.0129813
-0.00485158
-0.0163474
0.0123749
-0.00423994
-0.0118449
0.00370994
-0.0154701
0.00882204
0.0235816
-0.0169335
-3.94164e-05
0.00591768
-0.0059178
3.9541e-05
-0.00612267
0.00605893
6.37419e-05
-0.0157357
0.000242643
0.00661808
0.00175763
0.00379952
0.0104007
-0.0159578
0.00821233
-0.00976773
0.00629993
-0.00474453
-0.00784881
0.00687404
-0.000260527
0.0012353
-0.00164557
-0.0129256
0.0165505
-0.00197935
-0.00578021
0.00278346
0.00915182
-0.00615507
0.0100296
-0.00386625
0.00147954
-0.0076429
-0.00666692
-0.00116224
0.00780449
2.4673e-05
-0.00114379
-6.11016e-05
0.0108632
-0.00965835
0.0013855
-0.00116466
0.0108903
-0.0111111
-0.00979607
0.0136926
-0.0143478
0.0104513
6.57761e-05
-0.0123473
0.0122815
-0.00439677
0.000385464
0.0110848
-0.00707351
-0.00844328
0.00987087
-0.0134614
0.0120338
-0.0086531
0.000656188
0.00263113
-0.00400451
0.0108499
0.000603039
-0.00744846
-0.00289138
0.000403304
-0.00490161
-0.00427059
-0.0138727
0.0139359
0.00420739
-0.00617937
-0.000724138
-0.00155251
0.00845601
-0.0211778
0.00715713
0.00208842
0.0119323
-0.0067045
0.0153545
-0.00763043
-0.00101954
0.00467725
0.00183444
-0.00940307
0.00922738
0.00940902
-0.0186364
0.00123756
0.0202379
-0.004684
-0.0167915
-0.000256925
-0.000358849
-0.0089185
0.00953428
-0.00971366
0.0160019
-0.00645055
0.000162269
0.00922111
-0.00582311
-0.00835718
0.00495919
0.00229922
-0.000308327
0.00281447
0.0141683
0.00396079
-0.0204981
0.00236897
-0.00981438
-0.00128031
0.00321847
0.00787623
0.00371816
-0.00412564
-0.0055891
0.0170746
-0.0114856
0.0089243
-0.0145133
-0.00188905
0.0110239
-0.019066
0.00993118
0.00662451
-0.00837171
-0.000848429
0.00259564
-0.00732922
-0.00255115
-0.000247688
0.0101281
-0.00546293
-0.00516599
0.0106289
0.00137252
-0.0146587
0.0130004
0.000285823
0.00562222
-0.00542136
-0.00566379
-0.0091667
0.0116333
-0.00221712
-0.000249508
0.0131204
0.00360849
-0.0141365
-0.00259239
-0.00506995
-0.0074115
-0.000851259
0.0133327
0.00831999
-0.00253144
0.00964775
-0.0154363
-0.009275
-0.000521074
-0.0111128
0.00594683
0.00143142
-0.0124546
0.00398505
0.00703813
0.00361798
-0.0129559
0.00713596
0.00220197
0.00193582
0.000508946
-0.00971385
0.00726908
0.00148655
0.00636729
-0.000429368
0.0109127
-0.00215632
-0.00832702
-0.00428165
-0.000438227
-0.00400367
0.00872355
-0.00253342
-0.00341258
0.00652487
-0.000578878
-0.0101412
-0.0001438
-0.0171505
0.0061571
0.00902747
0.0243726
-0.000198897
0.00332287
-0.0274965
-0.0106611
0.0165655
0.0033584
-0.00926277
-0.00303884
0.00166638
0.010493
-0.00912054
0.00127269
0.00361265
-0.00279492
-0.00209042
-0.0183294
-0.0037815
0.0158208
0.00629008
0.000400694
0.00773103
-0.00155121
0.000236584
0.00389867
-0.0122335
0.00809827
-0.00757557
-2.68505e-05
0.00279348
0.00480894
-0.0103669
0.0128115
-0.00204391
0.00584994
-0.00527506
-0.000574879
-0.00864162
0.00124542
-0.00671345
0.0141097
-0.00390049
0.00586953
-0.00452401
0.00255497
-0.00839654
0.00945522
-0.00390742
0.00284873
0.00377982
-0.000620907
-0.00897523
0.00581632
-0.00375498
0.0235374
-0.0316812
-0.00342698
-0.00239174
0.00234187
0.00347685
0.0111959
-0.0174775
-0.000792895
0.00707443
-0.00473281
0.00353183
0.00608645
-0.00488547
-0.00140326
0.00747712
-0.00206219
-0.00401166
-0.00841352
0.00186658
0.00196653
0.00458041
-0.00468017
0.00040219
0.00427798
0.0108211
-0.00515291
-0.0054902
-0.000177973
0.000791213
0.00539037
-0.00818181
0.00200023
-0.00579331
-0.00702302
0.00716129
0.00565504
-0.00299388
0.00772658
-0.00662655
0.00189385
0.00279846
-0.00529774
0.00365142
-0.00115214
0.0101352
0.000275333
-0.0104106
0.00872842
-0.0107472
0.0053185
-0.0032997
-0.0137016
-0.000397719
0.0140994
0.00564806
-0.00468697
0.00109448
-0.00205557
-0.000445474
0.00971501
-0.0106032
0.00133362
-0.00487614
0.0061045
0.0015701
-0.00539965
0.0115687
0.0106892
-0.00921553
0.00913503
8.04973e-05
0.000252881
-0.0145665
0.0143136
0.0196784
0.00237834
-0.00419764
-0.0178591
0.00411045
-0.0160336
-0.00198829
0.0139114
0.00312624
0.00369582
0.00207836
-0.00890043
-0.00551596
-0.00552276
7.45698e-05
0.0109641
-0.00263113
0.00361718
-0.006502
-0.0121351
0.00219152
0.0159299
-0.00598626
-0.0238185
0.0174434
0.00767769
-0.00130266
0.010534
8.93666e-05
-0.0106234
-0.00597515
-0.00804087
0.00519901
0.00881701
-0.00601093
-0.00872936
0.00260515
-0.00865617
0.00469844
0.00544428
0.00351406
-0.00456932
-0.0083875
0.00944276
-0.00592633
3.93232e-06
0.0059224
-0.0138038
0.00561107
0.00569952
0.00249319
0.00349188
-0.00933221
-0.00281584
0.0118612
-0.00376206
-0.000299358
-0.00779981
-0.00795856
0.0131876
0.00782781
-0.0130568
-0.00233521
-0.00490389
0.00180419
0.00543491
-0.00336269
-0.00270465
0.00606734
-0.00585686
-0.012311
-0.00565062
0.00274752
3.53521e-05
0.00554382
-0.00832669
0.0112743
-0.0082112
-0.0118737
0.00881067
-0.00418284
0.00149114
0.00845184
-0.00576014
0.00794129
-0.00559062
-0.000787309
-0.00156336
-0.0091062
0.0014783
0.00711295
0.000514955
-0.00564217
0.0129631
-0.0140426
0.00547504
0.000406124
0.00816148
0.0131672
-0.0105195
-0.00828428
0.00563665
-0.0104668
0.00217979
0.0195613
-0.0101806
-0.00671277
0.0109573
0.005936
-0.00118937
0.0106043
-0.00402279
-0.00539216
0.000601878
-0.00623162
-0.00411033
0.00974007
0.0120726
-0.00796438
-0.000489855
-0.00361833
0.00372673
0.00278405
-0.00914191
-0.00253781
0.00287332
0.00708587
-0.00742138
-0.00210399
0.0109869
-0.0135411
0.00465814
-0.00658175
0.00158756
0.00159336
0.00340084
-0.0144468
0.0146956
-0.000248798
0.00994152
-0.00979861
-0.000142919
0.00400055
-0.0154523
-0.00593321
0.017385
0.0035452
0.00674334
0.00157269
-0.000170176
0.0059007
-0.00573052
0.00943703
0.00845757
-0.0178946
-0.0105031
0.00641192
0.00453214
-0.000440971
-0.00589856
0.00194382
0.0047955
-0.000840763
-0.0176179
0.00822242
0.00966363
-0.000268127
-0.00571671
-0.00637399
0.00616436
0.00904023
-0.00142355
-0.00582664
-0.00179003
-0.00974411
0.0105251
-0.00642313
0.00171958
-0.0109106
-0.000559027
0.00975004
-1.24751e-05
-0.00534894
0.00536141
0.0263421
0.000210297
0.00280145
-0.0293538
-0.000988572
-0.00193565
-0.0142568
0.017181
0.00457348
-0.00619218
-0.00288644
0.00450514
0.00177447
0.0136259
-0.00550742
-0.00989292
0.0148603
-0.0148688
-3.49796e-05
4.35068e-05
-0.00833629
-0.00752257
0.0117573
0.0041016
0.00486705
0.00372523
-0.00970066
0.00110838
6.8988e-05
0.00902139
-0.00921968
0.000129305
-0.0124184
0.00397709
0.0100644
-0.00162317
0.00955
0.00577347
-0.00966816
-0.00565531
0.000225971
-0.00849327
0.00431629
-0.00221239
0.0127564
-0.00687681
-0.000895449
-0.00107321
0.00884547
-0.0114564
0.000601498
0.0108549
0.0167842
0.00725301
-0.00544103
-0.0185962
-0.010961
0.000236088
0.0109509
-0.00100439
-0.00261497
-0.00667708
0.0102964
-0.00132381
-0.00131662
-0.0035323
0.00617273
0.00276246
-0.014014
0.010566
0.000685583
0.00870042
-0.00135773
-0.00846559
0.0011229
-0.0107784
0.00225798
0.000876928
0.00764352
-0.00409857
0.0026842
-0.00553522
0.00694958
0.00235934
0.00149443
-0.0138903
0.0100365
0.000485568
-0.00941225
-0.000655773
0.00958246
0.0093383
0.00122195
-0.000158026
-0.0104022
-0.0111429
0.00259647
0.0100834
-0.00800041
-0.0106231
0.0186235
0.0154436
-0.00786845
0.00332297
-0.0108981
0.00121339
0.00867919
-0.0053191
-0.0124826
0.00229717
0.00442431
0.00576115
0.0154035
-0.0158641
0.000460677
-0.00930993
-0.00316065
0.00651663
0.00595395
-0.0120886
-0.00939079
0.0062953
0.0151841
0.0126141
-0.0131742
-0.0016121
0.00217225
-0.00183423
0.00612249
-0.00482559
0.000537325
-0.0157853
0.00514583
0.00362779
0.00701164
-0.0232173
0.0289197
0.00478576
-0.0104881
0.01036
-0.0224641
-0.00115129
0.0132554
-0.00922036
0.011715
-0.021713
0.0192184
-0.00968761
0.0213454
0.00212022
-0.013778
0.000851319
0.0101188
-0.00236048
-0.00860961
0.0153838
-0.0115385
-0.000387934
-0.00345739
-0.00270452
-0.00259746
0.00396948
0.0013325
-0.00729201
-0.0151639
0.0129262
0.00952968
-0.0103182
0.0137448
0.0119573
0.0083746
-0.0061564
-0.0076726
0.00545439
0.00310367
-0.00401607
-0.00177383
0.00268623
0.00686701
-0.0067907
-0.00905033
0.00897402
-0.00278514
0.00798992
-0.000578042
-0.00462673
-0.0110581
-0.00176244
0.0136719
-0.00834841
-0.00205275
0.010321
8.01345e-05
0.00340625
-0.00761
0.00420375
0.00271978
-0.00361269
0.0134616
-0.0125686
0.0105025
-0.0147683
0.00213815
0.00212761
0.00669515
-0.00722434
0.000529188
-0.0106004
0.000282169
0.00949215
-0.00361519
-0.00915855
0.00328159
0.00297834
0.00241673
0.0105956
-0.0159907
0.00652931
-0.00708978
0.000560474
-8.11054e-05
0.00825078
-0.00932761
0.00115794
-0.0116467
-0.00112292
0.0154894
-0.00503125
-0.000859951
0.00116235
0.00472885
0.000694843
-0.00574382
0.00423711
0.000811868
0.00940728
-0.00900409
-0.00223742
0.00107893
0.0155241
-0.00977715
-0.00682589
-0.00534722
0.0113042
-0.00595694
-0.0144646
0.00553929
-0.00339421
0.0123195
0.0113842
-0.0103205
-0.016849
-0.00553522
-0.00662356
0.0227642
-0.0106054
-0.0162774
0.0103664
0.0147756
-0.00886455
-0.000364147
-0.0138864
0.0142506
0.0220355
4.47917e-05
-0.0126964
-0.00938387
0.0127714
-0.00822573
-0.00113553
-0.00341018
-0.00931703
0.00661391
-0.00167202
0.00437514
0.000127024
-0.00956001
0.00943299
-0.00701164
0.00721701
-0.000205372
-0.00508271
-0.00537182
-0.0137656
0.0242202
-0.0129651
0.00282826
-0.00145016
0.011587
0.00300246
0.00487235
0.0133038
-0.0120051
-0.00992847
0.00862977
-0.0036949
-0.00761658
0.00840301
0.00290847
-0.00767512
-0.00390349
0.0115895
-1.08841e-05
0.00250926
-0.00144535
-0.00709872
0.0060348
0.00847218
0.000375188
-0.0108287
0.00198137
0.00261335
-0.00181629
0.00280117
-0.00337946
0.00336689
-0.0027886
0.00692543
0.00678307
-0.00692598
-0.00678252
0.0034056
0.00795198
-0.00822859
-0.00312899
0.00722778
0.00313379
-0.00568432
0.00895045
-0.010853
0.00227776
-0.011894
0.00831536
0.00447643
-0.00089779
0.014144
-0.00468346
-0.0148077
-0.00378272
0.0100949
0.00507204
0.00984101
-0.00479405
-0.00828836
-0.00225815
-0.0013475
-0.0132278
0.0123805
0.00116186
-0.000314607
-0.000822579
0.0165345
-0.00171352
-0.0139984
-0.010792
0.00219982
0.00480944
-0.00173306
-0.0109436
0.00307517
0.00960152
0.00988025
0.00136972
-2.42993e-05
-0.0112257
-0.0147519
-0.000125262
0.000102377
0.0147748
-0.00379405
0.00415464
-0.0067478
0.00638721
-0.0101605
0.0128515
-0.00132806
-0.00136292
0.0133516
-0.0124681
-0.011044
-0.00988068
0.00890871
-0.00282873
0.0038007
0.00798373
-0.000359725
-0.00251122
-0.00511278
-0.0149371
0.0144055
0.00705858
-0.00652692
0.00707719
0.00269553
-0.000898708
-0.00887401
0.00255933
0.00648513
-0.00811166
-0.000932798
-0.00480026
0.00482853
-2.82715e-05
-0.00280928
-0.00717329
0.00719743
0.0108083
-0.010715
-9.32494e-05
-0.00611077
-0.00486458
0.00478317
-0.000637332
-0.00732467
-0.000800608
0.00876261
-0.000828587
-0.00637861
0.00570193
0.00150526
0.0100568
-0.0114309
0.00137408
-0.0128205
0.0131656
0.0120426
-0.0123877
-0.00864193
0.00667472
-0.00454714
0.00651436
-0.00345214
0.00147532
0.00312561
-0.00114879
-0.000364956
0.0156036
-0.000135803
-0.0151028
-0.00787967
0.00382015
0.00388023
0.00450787
0.00573696
-0.0100096
-0.000235233
0.000434683
-0.0124327
-0.000488116
-0.0112796
0.0112764
3.22741e-06
-0.00756796
0.0038104
-0.00833108
0.00256789
-0.00568258
0.000228255
0.00494356
0.00214659
0.00746941
0.000145644
-0.00638735
-0.0012277
0.00625313
-0.015602
0.0125089
-0.0031601
0.00258644
-0.00352417
0.0131073
-0.0121695
0.0160604
0.0047397
-0.00246958
-0.0183305
-0.00409054
-0.00670475
-0.00217399
0.0129693
0.00486224
0.0202626
-0.0182969
-0.00682791
0.00233522
0.0146764
-0.014168
-0.00284356
-0.00505589
0.000667174
0.0103624
-0.00597373
-0.00177382
0.0144152
-0.0077791
0.010424
-0.0082301
-0.00321224
0.00101832
0.00341445
0.0089366
-0.012351
0.00836409
0.00185583
-0.00111456
-0.00910536
-0.00769061
0.00614585
0.000618423
0.000926344
-0.000749954
-0.0108732
0.000633203
0.01099
-0.00798518
-0.00101411
-0.000334688
0.00933397
0.00459984
-0.0101999
0.000101346
0.0040096
0.00608899
8.69242e-05
0.00662421
-0.00671114
0.000819615
0.0116194
-0.0296912
0.0172522
0.00327536
-0.00825311
0.00784115
-0.0028634
0.00470089
0.00536629
-0.00371685
-0.00635033
4.84794e-05
-0.00594333
0.00589485
-0.00321876
-0.00228401
0.0130367
-0.00753398
-0.00397833
0.0132883
-0.0114707
0.0021607
0.0145553
-0.0101132
-0.00976748
0.00532545
-0.00598682
0.00405248
0.00185518
7.91656e-05
-0.000807685
0.00458559
-0.00245985
-0.00131806
0.015637
-0.0122226
0.00727356
-0.000840646
-0.0119062
0.00547329
-0.00332107
0.00310536
0.00372061
-0.0035049
0.000189217
0.0149536
-9.37652e-05
-0.0150491
-0.0109107
-0.003594
0.0147908
-0.000286093
-0.0031001
-0.00132218
0.00340279
0.00440798
-0.00648859
0.00882528
0.00622428
-0.0132043
-0.00184526
-0.00271782
-0.00177099
-0.0118114
0.0163002
0.0155558
-0.0123035
-0.0216799
0.0184276
-0.00605422
-4.51722e-05
0.00609939
-0.0073377
-0.00387627