/*--------------------------------*- C++ -*----------------------------------*\
  =========                 |
  \\      /  F ield         | OpenFOAM: The Open Source CFD Toolbox
   \\    /   O peration     | Website:  https://openfoam.org
    \\  /    A nd           | Version:  10
     \\/     M anipulation  |
\*---------------------------------------------------------------------------*/
FoamFile
{
    format      ascii;
    class       volScalarField;
    location    "7.2";
    object      T;
}
// * * * * * * * * * * * * * * * * * * * * * * * * * * * * * * * * * * * * * //

dimensions      [0 0 0 1 0 0 0];

internalField   nonuniform List<scalar> 
111485
(
303.15
285.119
300.989
303.15
298.432
283.15
298.944
293.4
296.355
286.264
300.532
296.214
300.228
284.58
299.993
286.773
299.303
298.087
294.074
303.15
303.15
283.15
297.265
288.712
301.546
303.15
293.215
300.62
288.881
303.15
300.738
294.316
303.15
283.15
283.452
283.15
302.287
297.623
283.149
296.615
283.15
289.62
297.032
302.885
303.191
303.15
287.4
288.571
289.661
303.15
303.15
283.15
303.15
298.94
303.15
293.524
287.913
283.15
283.323
295.464
295.865
303.15
302.062
300.287
283.15
284.563
300.34
291.547
302.115
302.533
303.163
301.904
303.15
302.113
303.15
295.366
283.15
293.485
283.15
283.15
283.24
293.386
283.15
303.15
300.327
284.218
283.15
301.557
303.119
299.106
283.346
289.603
300.874
300.377
289.799
303.15
303.15
301.557
303.149
283.417
303.15
286.677
283.15
285.182
285.757
283.15
283.15
293.063
301.461
283.146
298.919
288.087
301.302
301.706
303.15
301.985
303.15
283.15
300.141
303.15
303.15
283.15
283.15
283.15
283.401
303.151
283.15
301.82
303.15
283.177
303.086
301.949
303.15
283.15
283.15
292.525
283.15
294.233
298.796
301.098
303.137
296.823
298.976
284.78
302.282
297.819
283.15
303.15
283.15
297.148
284.94
303.15
303.144
287.342
283.156
293.735
295.644
302.525
283.154
303.15
303.15
292.199
286.258
283.153
283.157
301.192
283.689
283.15
283.152
283.152
283.15
303.15
283.206
283.15
291.54
287.189
283.15
303.15
303.15
283.15
303.15
303.15
297.655
293.518
295.803
289.788
301.385
300.432
283.19
303.15
301.454
303.15
303.15
300.167
286.291
301.415
301.328
295.77
303.15
300.886
284.604
283.16
300.784
297.058
303.15
300.425
288.226
303.15
283.227
300.186
284.816
300.695
303.15
303.15
300.709
283.15
292.793
283.15
300.614
298.725
290.385
303.15
301.756
300.532
283.15
283.15
283.15
289.512
283.157
283.15
303.15
298.66
291.399
289.936
283.15
303.15
303.108
303.15
284.337
300.092
299.271
299.519
299.388
283.15
283.144
298.865
283.15
283.15
288.766
288.382
283.15
301.19
298.886
303.15
283.15
301.019
303.15
303.15
303.122
303.15
288.277
285.869
290.81
303.15
298.346
303.15
303.15
303.15
283.148
298.102
300.982
299.427
291.207
299.485
296.245
283.211
290.358
291.606
283.15
303.15
283.149
292.449
298.744
286.471
303.15
297.999
297.263
298.895
302.962
283.166
297.109
299.366
302.002
283.15
283.611
283.15
283.149
303.15
283.897
290.269
286.325
303.15
283.15
297.593
285.259
303.15
303.15
303.15
284.595
290.263
301.068
284.41
293.031
283.15
283.15
303.15
298.354
303.15
283.825
289.523
283.152
283.15
303.15
303.15
283.15
294.355
289.971
283.15
295.719
283.15
303.15
301.081
297.302
293.977
295.827
283.15
283.15
283.15
296.615
291.033
302.366
283.15
283.15
283.15
290.093
296.948
283.214
290.492
283.15
292.8
299.561
284.204
298.697
285.267
283.15
303.15
283.15
303.15
290.677
296.634
287.961
291.961
283.15
286.366
283.15
303.15
293.821
303.15
301.785
303.15
283.15
291.971
283.15
288.803
284.631
283.15
283.987
298.033
283.15
300.151
284.678
298.846
303.024
291.079
286.01
283.15
303.15
303.144
283.15
300.989
300.86
283.15
283.15
294.697
284.372
298.203
296.814
283.15
295.142
296.12
283.15
302.056
283.9
303.15
303.15
288.272
298.595
283.15
303.15
303.15
303.15
300.735
283.15
303.15
293.945
283.171
286.97
299.973
283.15
283.15
302.614
283.15
302.463
301.443
297.867
288.922
283.15
293.932
303.381
303.15
298.647
292.311
303.15
283.15
283.307
283.15
290.051
286.115
291.673
283.15
292.893
296.582
293.086
303.147
283.15
303.15
303.15
283.169
292.751
283.15
284.325
303.133
283.15
303.15
303.15
303.15
301.819
290.543
286.007
284.195
284.321
283.15
285.711
303.15
300.741
283.15
303.15
303.15
300.677
303.15
303.15
283.151
303.15
283.15
300.679
283.15
283.15
283.15
303.15
283.15
303.15
283.15
283.668
283.15
303.126
301.847
283.747
283.15
303.085
283.15
303.15
284.716
284.677
286.129
297.531
283.15
297.493
297.605
292.318
286.831
285.275
303.15
291.782
283.15
299.866
283.15
296.796
283.15
292.104
298.588
303.151
283.15
286.811
303.15
295.513
299.091
283.15
283.15
283.15
283.15
303.15
293.691
283.15
283.15
283.238
283.15
299.82
283.15
284.805
303.15
283.436
303.121
284.646
291.926
283.15
301.463
283.15
283.15
285.703
283.15
283.255
283.15
299.673
303.15
290.684
303.15
283.15
302.384
284.475
300.088
285.666
300.086
289.475
283.15
300.63
284.555
283.15
283.14
300.348
301.592
283.15
282.436
301.067
303.063
283.118
303.15
287.581
302.173
284.411
285.4
288.221
282.544
283.15
303.15
300.633
303.15
283.55
283.15
283.15
291.788
282.672
303.15
303.118
283.15
286.289
299.585
283.15
283.15
299.598
303.15
283.15
283.15
283.15
286.17
283.15
303.15
284.832
284.23
303.15
299.69
283.15
289.251
303.15
283.15
286.166
283.15
283.15
283.15
285.385
283.15
285.456
291.984
303.15
300.366
283.45
298.715
300.938
283.321
283.459
283.15
288.981
298.445
303.15
302.261
296.04
296.883
284.723
297.447
297.197
303.15
300.249
303.136
283.15
297.152
284.837
283.15
292.393
295.73
284.857
298.771
300.629
292.353
283.15
298.909
283.471
303.15
300.588
301.968
294.104
283.15
286.509
303.15
283.15
283.15
283.15
283.302
283.15
303.15
303.15
283.15
300.409
299.253
303.15
285.632
303.15
303.15
303.15
290.029
283.42
283.15
303.15
283.15
283.15
286.83
292.399
283.15
295.145
283.136
283.15
295.321
302.223
287.795
283.15
283.15
300.253
292.105
283.15
283.15
283.15
293.998
303.15
303.15
283.15
296.246
302.381
283.15
282.407
301.775
286.547
283.15
283.15
287.461
302.968
283.15
283.16
287.308
283.758
288.801
283.15
285.702
300.311
283.15
303.15
283.15
283.15
283.15
283.15
295.674
303.15
283.15
283.15
295.29
291.829
303.15
303.15
289.871
298.434
298.331
303.15
283.15
298.006
303.15
283.833
298.834
298.356
303.15
303.15
303.15
283.15
286.067
283.15
283.15
302.704
303.15
297.825
302.279
283.15
294.068
283.255
296.446
291.975
283.42
289.799
283.15
283.15
296.893
288.069
290.837
283.15
283.15
297.882
294.993
283.15
283.911
284.597
283.478
303.15
303.15
303.15
290.74
283.15
300.063
283.15
284.378
297.596
298.523
292.279
283.15
283.15
303.15
295.386
283.15
283.15
303.099
283.15
283.15
303.15
283.15
299.334
283.15
283.15
283.15
283.15
283.15
303.15
283.15
283.172
298.767
303.15
302.533
283.131
283.401
283.095
285.529
283.15
284.457
290.535
283.401
303.15
283.149
299.748
283.15
300.261
283.148
283.143
286.211
297.505
283.207
291.872
297.975
283.15
283.15
299.072
299.81
283.15
297.368
291.276
297.539
283.15
283.244
283.15
297.853
296.973
283.15
300.078
297.621
283.149
299.783
283.15
295.652
283.144
303.124
283.162
283.16
283.15
283.15
284.43
283.15
302.971
283.591
283.064
303.148
303.149
303.147
283.15
283.15
293.81
303.15
303.175
283.875
283.15
283.15
303.154
303.149
283.15
303.165
283.15
283.15
303.15
303.15
303.15
303.15
283.364
283.15
283.15
283.15
303.157
283.306
283.892
293.462
283.15
283.15
283.337
283.15
283.15
283.15
287.25
293.61
283.15
283.15
283.15
283.15
283.15
283.15
284.013
283.15
303.15
291.583
283.15
303.15
303.15
303.153
303.15
303.15
283.15
303.17
283.15
283.7
283.144
303.152
283.15
303.063
284.404
292.1
303.15
303.128
284.455
303.15
283.15
303.15
283.15
294.053
293.49
284.65
303.148
283.15
293.262
283.15
283.15
303.15
283.15
294.857
283.15
303.15
283.163
298.16
303.15
284.384
283.15
283.581
283.15
283.15
283.15
303.15
285.864
283.472
284.285
283.15
283.15
285.651
283.15
283.15
303.15
284.336
303.164
298.565
303.15
303.128
303.128
283.15
303.131
283.15
283.444
289.166
301.006
283.807
283.167
283.15
283.15
283.15
303.183
283.15
302.906
303.15
292.786
303.15
288.733
283.828
303.15
283.15
303.15
283.15
301.8
303.15
303.15
286.426
300.568
283.15
283.15
283.15
283.15
283.15
283.15
300.823
283.582
303.15
303.15
303.157
303.15
300.201
284.425
283.15
302.118
303.15
301.637
283.15
302.573
283.15
283.148
303.152
283.313
302.119
300.242
283.147
283.15
289.364
303.15
293.399
303.15
283.15
303.15
283.15
283.15
283.15
300.82
302.059
303.15
303.15
303.15
302.903
283.15
303.15
292.909
283.084
303.15
297.513
298.296
296.503
283.377
283.15
283.15
283.15
283.15
294.642
283.15
294.897
283.15
303.059
289.852
283.15
302.861
283.15
283.15
302.743
283.148
302.921
283.15
303.15
283.15
302.396
283.15
303.15
283.15
283.148
283.15
283.171
283.15
283.15
303.15
292.986
301.093
296.139
297.037
303.15
303.116
283.15
283.15
285.708
283.15
283.158
302.846
298.776
302.945
303.15
283.361
283.15
303.15
283.15
302.995
283.322
298.291
283.15
303.15
288.108
303.15
283.15
283.125
295.114
283.147
283.15
283.15
283.149
303.15
283.15
303.142
303.15
303.15
289.966
302.989
302.997
289.035
293.275
283.15
283.15
303.091
289.105
283.15
303.15
284.737
283.15
303.15
283.15
283.15
283.15
297.523
283.15
302.942
283.15
300.519
283.15
283.15
283.15
283.15
283.15
283.15
285.025
283.15
283.15
283.15
283.15
283.15
283.15
292.021
283.15
298.357
302.938
283.15
302.325
283.15
302.521
303.145
292.3
288.798
303.15
292.165
284.79
303.11
303.15
303.139
295.053
288.685
283.15
287.905
283.15
283.15
283.15
283.15
287.534
283.15
283.15
291.651
303.136
285.324
283.15
283.15
302.52
283.15
283.185
303.15
299.89
283.15
283.15
302.823
283.15
303.178
303.15
283.15
289.068
297.966
292.711
285.676
292.573
294.141
283.15
283.15
302.295
290.6
292.794
284.417
283.15
294.372
283.15
303.15
300.751
298.731
283.15
297.41
283.15
292.771
297.229
303.15
283.15
283.15
301.786
283.15
283.15
300.519
296.133
283.196
291.233
283.15
283.15
302.801
300.537
283.15
300.655
283.15
300.511
283.15
283.15
300.815
283.15
283.228
301.606
283.15
283.15
302.436
283.15
287.929
303.15
290.442
303.15
303.15
303.15
300.962
283.15
283.15
299.554
283.15
302.993
283.15
283.15
303.15
283.151
288.217
283.15
283.15
288.079
288.259
283.15
283.681
283.15
303.15
302.422
283.73
301.58
283.15
283.15
283.15
283.15
283.15
283.15
283.15
283.15
283.15
283.15
283.15
303.15
283.15
283.15
283.15
283.15
283.15
283.15
283.15
283.15
303.15
286.969
283.15
283.15
283.15
294.726
283.15
303.15
302.917
283.15
283.15
294.732
283.15
283.15
301.845
295.209
283.15
303.643
303.593
283.15
301.517
293.979
297.566
301.482
298.148
303.15
283.15
296.369
291.787
301.425
283.15
302.152
302.418
300.881
288.053
287.327
301.067
301.781
301.79
303.15
285.878
297.555
285.541
297.26
283.15
283.15
283.15
303.15
283.15
292.003
297.926
283.15
283.15
283.15
283.15
283.15
303.15
283.15
303.15
292.138
303.118
299.031
302.842
283.15
283.15
285.421
283.166
283.15
283.15
301.698
303.15
283.15
298.163
299.519
297.534
298.664
300.811
303.15
291.05
302.59
303.15
303.15
300.338
303.15
283.15
282.975
295.572
302.95
283.15
303.15
289.622
286.171
297.132
292.202
302.412
303.15
303.137
303.15
303.15
283.15
298.94
283.15
291.817
290.475
299.704
284.774
303.15
301.932
303.15
283.15
303.15
303.15
291.511
299.614
283.15
303.15
303.133
291.796
303.032
299.357
292.831
288.335
292.932
283.15
303.15
283.15
291.269
298.317
303.151
303.15
303.15
303.15
297.496
302.558
283.15
299.977
301.145
284.873
299.526
303.15
303.15
298.698
292.982
283.15
302.905
299.754
302.609
291.991
297.321
298.266
303.15
286.995
298.164
291.367
283.15
289.083
303.15
288.408
301.072
303.15
288.724
301.292
300.139
293.192
283.149
283.158
283.239
301.671
300.934
303.15
288.828
301.493
303.15
283.15
303.15
303.21
298.773
290.865
296.786
303.253
283.149
297.569
303.15
303.15
292.811
303.15
300.309
283.306
301.33
291.534
303.15
283.665
293.234
303.15
283.048
298.693
303.15
300.705
286.267
303.15
303.15
284
303.15
283.15
283.15
285.922
299.277
291.205
303.15
285.233
297.507
283.15
298.861
298.895
288.985
303.101
283.15
301.503
299.617
298.861
300.098
288.669
290.802
302.483
303.15
301.565
288.73
303.15
298.872
283.15
283.15
303.15
283.15
303.15
297.456
283.15
300.538
283.637
303.15
283.797
283.15
289.856
303.15
303.144
303.15
294.179
302.996
303.118
299.891
290.421
289.458
290.596
298.455
303.15
299.421
292.192
298.959
303.15
283.877
283.455
299.279
287.187
283.514
303.15
283.15
303.15
285.339
303.15
303.321
284.696
303.346
302.957
303.15
303.15
283.15
300.564
300.633
285.509
303.087
287.011
295.689
301.878
292.526
288.182
302.083
296.117
283.15
283.15
303.15
285.826
289.717
283.15
283.15
303.15
301.991
288.704
303.15
296.406
303.15
283.156
285.199
301.092
303.15
303.15
292.304
303.15
283.302
290.626
283.15
297.165
294.652
296.083
303.15
302.715
283.15
302.668
293.443
303.15
303.15
288.802
283.15
303.15
301.812
284.45
303.15
303.15
283.15
302.353
303.46
289.517
299.714
298.038
303.15
303.159
302.61
303.15
283.15
303.15
303.15
303.15
303.15
303.15
303.15
303.15
283.15
303.15
303.15
283.342
303.15
303.334
303.15
303.16
303.15
303.15
300.952
303.68
303.15
292.058
303.15
303.15
283.15
302.562
303.15
302.136
303.115
283.29
283.15
303.15
302.926
283.149
303.15
303.15
291.392
283.15
292.612
283.15
283.15
283.153
291.239
284.849
303.15
296.671
283.15
303.725
303.134
284.322
302.597
283.15
292.19
303.084
301.689
283.15
303.15
283.15
304.08
284.83
296.885
303.15
303.15
303.15
303.15
303.15
303.15
302.352
302.81
297.636
292.058
303.15
287.157
292.665
284.987
303.206
283.15
286.928
302.755
284.783
283.148
287.491
303.15
283.384
302.92
292.555
302.847
301.914
303.15
302.23
303.15
303.15
297.954
303.15
284.481
303.15
303.15
283.15
303.15
303.15
302.846
303.15
283.298
283.15
283.15
285.827
284.916
300.906
286.112
303.15
294.783
303.15
290.479
303.15
287.166
300.697
301.493
293.379
303.15
303.15
303.15
289.817
283.15
303.15
289.571
283.15
283.15
301.832
303.15
286.202
283.148
283.15
303.15
303.15
300.662
298.209
303.15
293.462
303.039
283.15
298.58
303.15
286.424
288.25
302.149
303.15
296.308
296.745
302.955
301.89
301.666
303.15
303.15
303.147
303.15
283.15
303.15
289.575
300.073
294.351
302.139
283.15
300.376
291.422
298.242
283.606
298.345
289.627
302.17
283.15
283.15
283.15
302.216
283.15
290.489
283.15
301.276
303.161
289.728
298.053
283.15
303.15
301.264
301.242
303.15
283.15
303.15
286.439
301.453
302.979
302.343
298.024
288.453
303.15
303.15
303.15
294.274
285.982
289.829
295.904
283.963
302.957
303.15
303.15
283.15
283.15
285.432
299.597
303.15
303.15
283.15
303.15
303.15
303.15
300.273
303.15
285.375
292.564
283.15
283.249
293.392
285.706
303.15
303.15
301.896
303.15
299.251
283.146
297.587
303.15
303.15
283.15
303.15
303.15
303.15
305.24
303.15
301.848
301.12
303.15
303.15
301.628
303.15
283.15
287.262
303.106
303.15
303.15
303.15
297.954
303.15
303.15
302.491
302.493
301.787
303.15
283.15
303.15
302.052
302.514
301.535
302.537
283.15
300.67
287.524
297.464
283.15
303.15
303.15
303.15
303.15
294.393
287.58
299.659
303.15
303.15
303.15
303.15
283.15
303.148
284.786
285.158
283.15
303.15
303.15
283.148
299.609
294.988
283.15
303.15
303.15
303.15
303.15
289.623
289.697
303.15
303.15
302.399
303.15
301.446
283.956
291.936
303.15
283.15
301.166
303.124
303.15
303.115
301.335
286.85
303.15
303.15
303.15
303.15
293.303
284.156
303.15
302.701
298.088
289.507
303.15
303.15
303.15
303.15
299.555
303.151
303.15
303.15
298.286
302.587
288.376
303.15
303.15
297.772
303.15
303.15
303.15
303.15
288.83
303.15
283.15
283.15
295.966
291.122
303.15
303.15
303.15
297.017
303.146
303.15
303.15
303.15
303.15
303.414
300.894
303.15
287.357
302.648
299.408
303.15
303.15
303.15
303.15
283.15
285.676
303.15
302.843
283.15
302.185
303.15
303.134
303.15
283.15
301.927
285.752
283.15
302.83
303.15
302.424
283.15
303.15
303.15
303.151
303.15
283.271
303.15
290.869
283.15
283.15
303.15
303.15
298.855
302.386
283.15
302.427
283.15
284.104
288.022
302.708
283.15
303.155
302.989
303.134
284.404
283.156
302.985
283.15
283.15
283.156
302.087
302.299
303.15
283.15
283.15
295.452
303.15
283.15
303.15
303.15
303.15
303.108
303.047
302.933
302.455
303.15
302.908
303.15
284.828
303.15
303.15
283.15
303.15
303.111
303.15
283.15
303.15
288.334
303.15
303.15
303.17
283.15
302.892
302.137
296.774
303.15
289.434
294.667
283.836
290.064
283.15
283.15
287.228
284.329
283.15
303.797
283.15
286.429
303.15
283.15
303.156
303.15
303.15
303.014
303.155
303.15
283.15
303.139
303.15
283.15
283.105
298.766
302.707
303.15
301.856
303.15
285.718
303.152
301.197
303.15
303.15
301.061
303.15
303.15
303.15
287.711
303.15
285.158
303.15
303.147
303.15
283.15
283.15
303.15
303.15
303.15
288.734
302.555
303.15
303.15
288.616
286.524
291.283
303.15
302.706
287.692
287.553
303.15
303.15
287.731
283.15
291.938
303.15
303.152
303.149
303.15
300.541
283.15
302.308
283.15
303.15
303.15
303.15
303.15
303.15
284.34
302.255
291.078
303.15
303.15
290.609
303.15
303.15
303.15
303.15
303.15
300.174
303.15
303.15
283.15
299.481
303.15
283.15
303.15
301.386
283.15
299.983
290.816
302.689
300.045
299.464
303.15
303.15
303.15
300.85
288.508
283.15
303.15
300.339
303.15
303.15
292.005
303.15
287.504
303.15
297.856
284.327
303.15
283.15
303.15
303.15
303.15
285.265
303.15
300.508
303.15
303.15
299.723
283.15
284.759
303.15
303.15
288.136
301.538
296.453
303.15
303.15
303.15
301.556
292.303
303.15
283.15
303.15
300.687
303.15
284.781
296.333
303.15
303.15
301.152
303.15
303.15
283.15
303.15
283.15
294.6
303.15
283.15
303.15
303.15
303.15
303.15
303.15
303.15
283.15
301.504
283.15
302.088
303.15
303.15
296.1
300.495
303.15
283.15
303.15
300.898
283.15
303.15
303.15
303.15
300.739
303.15
297.704
303.15
285.848
283.15
286.747
303.15
303.15
298.513
283.15
303.15
287.879
283.246
303.15
303.15
285.09
283.853
300.868
301.743
301.2
293.166
301.748
283.852
303.15
297.741
283.15
283.15
303.15
303.15
303.15
301.222
303.15
303.15
303.15
303.13
283.169
283.15
283.56
303.15
302.023
283.15
303.142
296.129
283.15
294.605
303.15
303.15
283.15
299.906
283.932
303.15
283.15
299.932
303.15
297.677
303.15
295.334
303.15
283.15
303.15
283.15
299.433
283.15
283.227
283.15
286.214
303.15
303.15
283.15
283.15
303.15
303.15
303.15
303.15
284.887
284.763
283.15
303.15
283.233
283.15
283.15
303.154
289.892
283.539
283.15
301.512
284.883
300.469
288.197
303.15
303.15
303.15
303.15
283.15
283.15
283.15
303.15
283.15
283.15
303.15
283.15
297.299
283.15
303.15
283.15
303.15
303.15
283.344
283.15
303.15
301.954
303.149
303.15
303.15
303.15
288.737
283.15
303.15
303.149
283.15
303.15
303.15
303.15
295.251
283.15
283.182
303.15
303.15
303.15
303.15
303.15
303.149
303.147
284.108
303.15
283.15
303.15
303.149
303.15
303.148
303.149
283.15
283.15
283.15
303.15
303.15
283.15
303.149
283.15
287.717
283.15
301.824
283.15
303.154
303.15
284.615
283.15
284.457
297.402
303.15
284.699
303.173
303.15
297.411
283.15
303.15
303.15
303.15
303.15
283.15
303.15
303.15
299.176
283.15
303.15
303.15
303.15
303.15
292.331
290.464
303.17
283.165
303.15
301.82
302.321
303.15
283.15
283.15
303.15
303.15
303.15
283.15
283.15
283.825
303.15
303.15
303.196
303.151
283.15
288.879
303.15
283.15
303.15
288.093
303.15
283.15
302.124
283.15
283.15
283.15
303.15
299.692
303.15
303.15
303.15
283.15
284.51
293.623
295.24
289.57
303.121
303.019
283.15
283.15
301.032
283.695
283.15
303.149
303.15
303.15
283.15
294.573
303.15
283.15
302.98
303.15
303.15
283.798
303.15
303.15
288.425
289.575
303.15
283.15
303.15
283.15
303.15
303.15
303.15
303.15
283.95
303.15
303.15
303.15
302.93
303.15
303.15
283.15
283.15
283.15
283.15
302.943
283.15
283.15
300.976
303.15
284.776
284.937
303.15
301.135
303.15
283.15
303.15
283.15
283.15
303.15
303.15
303.15
302.666
303.15
303.15
303.15
283.15
303.15
283.15
286.382
303.15
303.15
291.629
303.15
283.15
283.15
302.423
303.15
303.148
283.15
303.194
286.675
283.15
283.15
299.219
283.15
283.15
303.048
303.161
293.339
303.166
303.151
303.152
283.15
283.15
302.647
283.456
285.846
300.853
283.158
283.15
291.054
301.574
301.472
283.15
300.226
290.701
300.146
302.21
302.752
284.693
295.507
299.224
286.264
293.33
300.112
303.15
297.953
297.594
302.79
283.663
292.386
301.151
287.341
303.15
301.064
303.15
300.722
301.502
283.636
284.987
303.15
283.15
302.28
301.695
283.146
303.173
288.558
302.679
301.852
300.834
303.15
303.23
301.136
295.105
300.426
288.99
302.913
301.633
302.188
302.277
284.219
302.505
301.602
283.18
303.15
302.896
303.15
303.15
302.102
302.008
294.302
303.15
284.677
292.315
292.343
300.952
303.15
284.018
285.201
284.394
303.15
298.796
303.15
296.373
295.398
300.764
303.142
303.15
303.15
301.951
301.269
302.786
303.15
292.628
302.747
289.984
283.15
298.349
294.01
303.15
300.508
283.15
283.204
283.15
302.579
303.099
303.15
302.981
298.409
283.148
300.508
302.226
295.333
283.538
295.875
297.09
283.464
303.133
284.745
296.317
283.32
296.891
300.514
300.26
300.368
302.006
289.873
301.584
303.15
302.721
302.652
302.653
296.491
302.885
283.15
302.019
293.438
303.15
283.435
286.846
301.202
302.6
290.537
284.829
287.72
302.625
296.389
303.15
303.15
295.016
283.15
292.68
283.433
303.15
290.571
290.315
283.916
303.15
297.299
298.49
284.232
301.248
294.181
290.182
300.541
303.107
303.15
303.15
283.534
302.615
283.35
285.806
303.15
303.019
303.038
303.15
285.424
300.794
297.872
283.247
299.583
302.376
300.522
286.919
283.15
303.106
301.824
283.741
283.139
303.15
303.073
303.15
303.15
284.184
302.533
296.372
283.035
283.153
303.15
283.15
302.951
303.044
302.507
301.418
303.15
283.15
283.15
301.826
301.882
283.216
295.875
303.15
303.15
301.625
285.505
283.259
301.687
301.787
301.735
284.413
303.15
283.15
298.465
297.773
303.15
302.705
302.088
284.742
284.982
302.118
303.054
303.15
298.153
284.438
283.15
303.15
300.582
301.23
302.023
289.638
302.08
285.671
300.16
300.271
290.353
297.559
303.15
303.15
300.948
284.472
302.098
283.151
300.519
301.717
283.626
288.311
302.425
283.15
283.15
283.029
303.15
303.15
299.95
298.948
302.292
283.147
283.15
283.942
283.151
283.15
283.152
303.076
300.942
299.193
295.915
283.369
303.098
300.156
303.15
283.15
302.563
289.242
300.793
292.706
283.507
303.061
283.148
283.15
302.838
301.221
302.618
283.156
291.323
284.881
303.15
284.265
301.048
283.15
283.31
284.95
284.204
283.15
283.15
301.644
283.15
289.406
302.533
302.707
301.783
283.483
298.4
290.103
283.15
303.338
292.096
283.15
283.15
283.15
303.15
301.205
302.42
299.183
301.476
299.923
288.881
283.155
291
290.169
303.06
291.121
300.003
292.081
283.15
286.302
301.094
301.55
283.15
283.984
299.651
283.15
303.15
283.188
301.289
303.15
284.024
302.261
303.021
303.15
283.15
292.818
303.153
301.701
283.15
283.15
283.15
302.202
297.604
303.143
302.199
303.166
303.15
288.406
303.166
290.455
300.244
300.205
296.617
283.157
301.711
283.15
290.608
301.425
289.492
290.501
299.004
300.712
301.61
287.189
291.153
285.037
283.172
302.223
286.143
283.149
283.144
300.225
283.079
300.319
287.024
296.064
299.457
289.236
299.299
283.121
299.133
283.15
290.016
289.178
298.678
283.331
283.15
300.585
283.15
302.802
283.15
303.15
286.498
286.501
283.15
299.015
298.563
287.069
303.15
303.15
301.741
289.799
303.004
283.731
301.589
287.116
303.147
284.201
288.228
303.15
301.437
283.15
283.15
287.578
287.051
283.145
285.263
301.509
286.262
301.181
303.15
285.129
301.757
291.213
303.15
303.15
301.629
302.053
303.15
293.058
294.294
283.684
296.426
286.816
290.046
303.15
302.798
297.036
285.034
283.15
287.739
291.94
299.669
283.164
283.754
282.939
301.957
303.119
283.151
303.134
303.15
300.578
293.1
298.84
293.878
283.15
291.952
296.023
285.611
283.211
291.746
283.15
300.266
303.164
292.581
284.104
303.144
291.873
298.638
288.266
300.355
291.339
287.351
283.15
303.142
285.358
289.93
293.515
283.15
283.15
283.15
303.141
283.15
283.136
286.451
303.15
283.15
303.166
283.172
291.119
289.07
303.507
302.914
289.893
303.15
297.007
303.175
302.009
287.289
283.15
292.952
303.145
303.094
286.21
283.15
283.15
283.477
286.044
303.055
303.144
287.527
289.499
283.484
283.162
289.871
293.228
303.15
283.15
303.097
303.15
302.336
285.025
302.34
303.094
284.065
283.777
284.044
302.853
302.187
297.398
294.001
303.071
291.309
291.041
303.15
303.098
302.589
285.451
283.38
303.15
285.956
283.387
302.933
301.668
302.182
283.15
300.347
301.858
303.15
302.161
285.42
303.15
297.919
303.15
283.15
300.692
302.687
286.352
302.494
283.15
285.182
303.012
283.15
302.312
285.383
294.897
284.347
303.15
303.019
302.874
286.521
283.15
287.139
284.26
289.809
285.747
302.257
303.15
283.15
283.15
293.137
283.15
301.05
302.169
290.371
283.15
294.034
283.15
303.15
283.15
300.055
298.585
283.151
285.288
301.724
303.078
303.156
291.878
294.224
301.214
283.213
301.798
283.145
303.15
303.142
299.143
283.15
300.989
294.8
303.15
300.949
287.326
301.949
284.906
288.219
283.15
302.228
287.751
298.426
303.076
283.15
303.15
291.659
302.168
283.076
283.147
286.766
298.362
303.149
284.509
301.039
301.011
301.264
303.153
299.905
287.665
284.934
301.593
299.907
283.731
283.103
303.16
303.149
303.15
297.365
283.163
283.15
303.15
303.149
289.926
298.909
300.277
287.799
302.803
303.15
286.435
301.558
303.15
300.957
283.801
301.463
303.15
284.549
301.38
295.504
302.766
303.15
303.15
285.183
295.081
296.388
287.405
303.15
303.15
283.15
287.225
302.404
296.177
303.15
285.564
303.15
303.15
300.447
288.728
283.15
295.563
295.889
299.063
283.15
303.15
292.674
287.233
303.15
297.962
300.51
300.416
303.15
303.15
303.15
300.225
298.333
302.801
299.893
283.15
292.876
287.683
290.613
300.574
303.15
303.15
300.761
303.098
286.572
296.11
303.15
303.147
283.15
286.444
298.93
285.586
303.15
303.15
283.343
303.123
303.15
303.15
283.15
290.518
303.15
303.15
284.582
299.277
283.15
303.15
284.623
301.33
300.173
286.996
294.927
303.15
283.496
303.15
303.15
283.31
300.534
290.395
300.402
303.15
303.13
302.18
292.675
299.798
301.359
284.453
283.456
300.832
298.394
303.15
302.75
284.135
299.734
301.378
287.701
303.15
297.412
301.406
301.493
301.532
292.877
303.15
283.15
299.185
283.15
283.15
287.751
283.15
284.008
283.15
283.15
283.15
283.15
302.755
288.134
302.703
283.15
295.69
290.931
284.736
283.15
303.15
302.678
301.737
303.165
302.636
283.15
294.817
300.268
290.163
283.15
283.15
299.815
285.933
283.15
283.15
303.149
290.576
283.15
287.151
303.149
303.152
284.315
283.15
288.205
292.542
300.785
294.577
302.958
285.63
302.501
295.242
286.272
283.15
283.538
291.625
303.076
289.136
302.655
283.15
292.358
287.748
301.016
301.247
284.894
303.107
284.909
297.07
302.984
303.147
285.13
303.145
303.004
293.301
302.673
283.15
303.15
303.15
294.762
291.045
283.155
301.1
284.683
284.151
284.616
303.145
288.347
300.461
283.15
283.15
302.505
303.15
294.563
302.901
303.182
299.814
303.221
302.883
283.15
301.289
302.879
283.15
303.15
301.305
303.15
284.309
298.764
283.164
291.523
283.15
287.577
303.014
299.751
283.15
303.024
290.892
301.189
303.127
303.078
283.15
283.15
301.926
301.997
283.799
302.81
302.416
302.372
303.141
283.15
293.717
283.15
302.787
287.862
302.987
303.15
283.15
302.821
285.117
291.466
302.042
283.15
302.582
301.99
301.565
302.483
303.047
303.209
303.01
303.15
283.15
301.508
297.817
303.087
303.15
289.918
284.92
303.15
283.15
285.31
303.184
303.165
302.918
301.132
284.262
303.097
290.659
294.198
303.148
289.039
303.164
283.15
289.829
283.15
299.954
298.123
284.775
288.174
299.609
296.63
295.273
299.162
293.758
303.153
293.808
296.384
283.161
299.373
293.83
303.15
298.9
299.129
303.15
291.179
303.172
301.672
303.15
286.918
285.985
302.799
289.653
283.15
283.15
300.347
301.119
283.72
283.15
303.15
300.219
302.318
300.609
299.859
302.785
292.556
289.621
286.632
292.466
284.305
290.386
283.304
295.672
290.411
293.915
287.083
284.282
303.163
283.272
303.147
285.598
300.711
283.151
300.37
298.36
288.727
302.092
285.397
299.067
283.15
302.952
283.155
283.115
287.693
299.651
303.15
300.332
303.019
299.912
302.76
303.15
301.252
284.953
294.917
302.043
303.149
283.708
283.15
290.296
285.237
285.751
303.132
303.149
283.15
283.15
283.176
303.15
293.442
303.15
303.15
294.381
303.431
303.15
300.402
303.15
303.15
293.646
290.591
303.15
289.816
302.055
289.541
303.15
303.15
285.953
283.334
290.309
303.224
303.15
303.145
285.469
283.248
283.15
288.972
287.597
303.15
284.303
303.15
303.15
303.132
287.323
303.15
303.147
283.277
303.152
302.662
287.904
283.152
283.6
297.303
290.721
303.15
285.907
284.43
301.322
287.105
302.21
290.561
293.841
303.15
303.15
284.009
303.148
302.946
295.836
302.942
302.74
287.166
283.15
285.318
283.218
297.119
302.585
285.375
303.15
283.796
286.708
303.125
283.176
303.15
286.386
283.15
300.096
303.15
299.713
299.892
283.305
283.36
302.323
290.836
301.318
303.15
301.388
301.739
303.15
303.15
298.323
293.408
283.15
288.773
303.15
295.183
283.358
303.15
296.884
298.695
288.973
303.15
302.756
294.202
295.348
284.464
303.161
298.668
296.103
283.98
303.124
302.8
287.371
298.417
289.799
290.783
289.721
283.15
302.945
303.152
303.15
303.173
293.069
296.289
302.975
301.285
303.15
284.447
303.15
303.041
302.857
303.15
293.54
296.205
303.15
285.378
303.095
303.15
303.09
303.157
286.057
293.315
291.095
288.388
293.371
303.15
301.204
291.41
295.343
293.423
303.141
303.15
300.547
303.189
284.243
303.189
303.15
303.15
303.143
303.15
284.942
303.15
284.226
303.146
303.15
290.218
303.144
292.454
295.497
303.134
295.306
285.981
283.446
303.125
302.935
284.677
283.15
297.089
303.15
285.504
302.913
302.035
303.018
298.39
287.056
303.15
298.665
289.884
299.338
283.15
283.614
303.15
303.145
303.19
294.034
303.15
292.416
289.326
303.195
303.15
284.794
298.747
293.207
299.573
302.472
301.576
300.373
303.15
284.715
296.911
302.361
285.587
298.307
292.264
284.468
291.632
303.15
286.655
291.801
290.105
299.426
303.15
286.442
284.087
303.15
302.426
288.128
302.094
283.15
303.15
299.818
301.69
288.992
301.981
301.901
301.807
303.15
289.316
285.129
301.957
302.233
297.131
303.15
283.201
303.15
301.981
303.15
302.8
303.15
291.651
303.15
296.5
283.15
289.441
303.15
283.15
292.162
301.435
300.399
289.185
300.479
303.15
302.491
303.15
302.363
285.208
303.15
300.386
290.384
303.15
300.791
303.15
303.15
293.154
283.15
285.543
293.213
300.908
303.15
291.159
293.849
288.163
289.637
288.096
299.198
300.235