/*--------------------------------*- C++ -*----------------------------------*\
  =========                 |
  \\      /  F ield         | OpenFOAM: The Open Source CFD Toolbox
   \\    /   O peration     | Website:  https://openfoam.org
    \\  /    A nd           | Version:  10
     \\/     M anipulation  |
\*---------------------------------------------------------------------------*/
FoamFile
{
    format      ascii;
    class       volVectorField;
    location    "7.2";
    object      U;
}
// * * * * * * * * * * * * * * * * * * * * * * * * * * * * * * * * * * * * * //

dimensions      [0 1 -1 0 0 0 0];

internalField   nonuniform List<vector> 
111485
(
(2.89818 -2.89942 0.00370532)
(8.45617 -0.0220043 -0.0494244)
(8.33468 0.019936 0.0259687)
(2.89924 -2.89995 0.000178847)
(8.65871 0.0380659 -0.0031281)
(3.03199 3.03032 0.000237877)
(8.51058 0.0249124 0.00189614)
(8.7411 -0.024172 0.012177)
(8.51436 -0.00518658 0.00613217)
(8.71358 -0.094254 -0.040519)
(8.3843 0.0203016 0.0247725)
(8.77233 -0.0209199 0.0408675)
(8.26223 0.00680289 0.0185519)
(8.34392 -0.0178932 -0.0607397)
(8.45898 0.0332975 0.0176741)
(8.63467 -0.0592701 -0.0470707)
(8.50398 -0.00880218 0.0123777)
(2.98843 -0.227848 0.447137)
(8.68123 0.0247961 -0.0191699)
(2.87846 -2.87453 -0.00147574)
(2.88357 -2.88325 -0.00330688)
(3.03952 3.03856 -0.000205122)
(8.58639 0.0295112 -0.00909056)
(8.72033 -0.0574514 -0.0174265)
(8.54426 0.0337277 -0.0102251)
(2.92188 -2.90886 -0.00281803)
(8.81192 -0.0422136 0.0458365)
(8.34144 -0.0126719 0.00281506)
(8.70678 0.0151045 -0.019853)
(2.88887 -2.89001 0.000115256)
(8.77623 0.143413 -0.0377553)
(8.66821 -0.0187829 0.00245286)
(2.87658 -2.88279 0.00425882)
(3.03597 3.04212 -0.00743628)
(3.04636 1.26977 0.488003)
(3.05486 3.07525 -0.0446868)
(8.73412 0.1437 -0.0580465)
(8.44783 0.0308135 0.0738863)
(8.70045 2.63002 0.146638)
(8.67192 0.0421411 0.00366015)
(2.99864 3.02586 -0.0212035)
(8.7675 0.0103849 -0.0502856)
(8.66272 0.0439698 0.0151643)
(8.35638 -0.0510492 0.00126329)
(8.74004 -0.153469 -0.0791039)
(2.90692 -2.88541 0.0151488)
(8.76712 -0.0414321 0.0416978)
(8.70783 -0.0533098 -0.0165258)
(8.76808 0.00416948 -0.0380782)
(2.88242 -2.84788 0.0163473)
(2.86766 -2.83987 0.01889)
(3.45262 2.90429 0.0502491)
(2.85782 -2.84681 0.00942621)
(8.75407 0.0395621 -0.0733221)
(2.85058 -2.83912 0.000784688)
(8.65291 0.0230168 -0.00777068)
(8.65649 -0.0366605 -0.0176111)
(3.03942 3.03363 0.00174442)
(7.89493 -0.0178203 -0.138627)
(8.69594 0.0354415 -0.00497959)
(8.69446 0.039347 -0.00349137)
(2.88971 -2.8953 0.00368851)
(8.0612 0.00856343 0.0527259)
(8.79806 -0.0223359 0.0687884)
(3.1341 2.84066 0.00464412)
(7.93647 0.0179624 -0.0151869)
(6.10119 -0.488438 0.217228)
(8.72335 -0.0324677 0.0120185)
(7.86794 0.00334546 0.0231124)
(7.44563 -0.0144404 0.00407045)
(8.41661 0.0511533 -0.0425229)
(7.8079 -0.00826205 0.0245162)
(3.12879 -2.81747 -0.0649985)
(7.97404 0.0147424 0.0617261)
(2.89579 -2.8948 -7.40906e-05)
(8.6806 -0.020049 0.00934477)
(3.03877 3.03873 -0.00059058)
(8.75791 -0.0189372 0.0463101)
(3.03776 3.036 -0.000436849)
(2.73539 2.66873 -0.0909619)
(8.44081 -0.130069 0.0883335)
(8.71687 0.0347976 0.00690254)
(3.0275 3.02025 -0.000208892)
(2.89625 -2.89634 0.00166977)
(8.20967 -0.00184482 0.0159499)
(7.87143 0.0218004 -0.0319392)
(6.75697 4.38597 -1.17828)
(8.63808 0.102073 0.00953529)
(8.32209 0.214598 0.183855)
(8.4257 0.0103363 0.0253524)
(8.91115 0.177086 -0.113406)
(8.6672 -0.0150558 0.014324)
(8.10785 -0.0133703 0.0322253)
(8.2457 -0.00941006 0.00794343)
(8.77827 0.0268178 -0.0544967)
(2.89622 -2.89578 -0.000729219)
(2.89131 -2.89008 0.00154978)
(8.63478 0.0952929 0.0297233)
(8.89865 -1.76225 0.126123)
(8.08988 0.0297814 0.0527434)
(2.89606 -2.89652 0.00147109)
(8.68263 -0.0470653 0.00494313)
(3.05177 3.05688 0.0167302)
(8.61208 0.000593314 -0.0049029)
(8.53502 -0.0445873 -0.0546518)
(2.98109 2.66643 -0.0630161)
(3.03847 3.03739 -0.000576325)
(8.67482 -0.0230305 -0.00234354)
(8.01779 -0.0442467 0.0100964)
(7.68444 -0.228472 -0.243416)
(8.20848 -0.0073602 0.0177219)
(8.61908 0.0123343 -0.00472217)
(8.04059 -0.0053722 0.0323071)
(7.91573 -0.0415803 0.0175255)
(2.92397 -2.90817 0.00246404)
(7.61557 -0.0070346 0.0228336)
(2.90747 -2.89835 -0.00343838)
(3.05214 3.03917 0.0126222)
(8.47234 0.0326964 0.0245485)
(2.89856 -2.8964 0.000980013)
(2.92317 -2.90762 -0.00136693)
(3.99658 3.14434 0.186808)
(3.00674 3.01962 -0.00561841)
(3.04496 3.03768 -0.00722336)
(8.281 -0.0206375 0.0400962)
(2.3086 -1.62891 -0.430043)
(3.80997 3.27729 0.115788)
(7.69066 -0.00220739 0.0370065)
(2.89587 -2.89467 -0.00102429)
(8.71975 0.652846 -0.235677)
(8.70612 0.169348 -0.0871287)
(8.61898 0.0977719 0.0291472)
(2.8831 -2.87579 -0.0141603)
(3.91393 3.40343 0.351247)
(3.6519 3.25866 0.153885)
(8.70362 0.0260851 -0.0160058)
(3.04079 3.04057 -0.000881382)
(8.6377 0.0202395 0.00139712)
(8.58287 0.0400227 0.0234365)
(8.43755 0.0381969 0.0364253)
(6.61467 0.000695572 0.0274434)
(8.65129 0.044801 0.0105416)
(8.57824 0.0443542 0.0280359)
(8.17827 0.00832174 -0.0339487)
(8.54889 -0.0163747 0.00800452)
(8.4521 -0.00461675 0.0210873)
(3.04142 3.04172 -0.000609955)
(2.89609 -2.89741 0.000279383)
(3.03298 3.03469 0.00630701)
(8.6556 0.0383716 0.00714169)
(8.18249 0.0138226 -0.0308359)
(2.88555 -2.88418 0.00166229)
(5.6495 -0.0331218 0.0571857)
(8.44027 0.0401699 0.0190493)
(9.24441 0.371521 0.162207)
(8.70238 0.0256773 -0.016731)
(8.66281 0.0265138 -0.00655102)
(8.03177 0.00292869 -0.0159818)
(9.32973 0.454967 0.111566)
(2.88006 -2.90722 0.0112355)
(2.89414 -2.89687 0.00285705)
(8.68764 0.0246379 -0.0165669)
(8.5111 -0.0300635 -0.0312851)
(9.39118 0.512968 0.121503)
(9.26215 0.448984 0.167374)
(8.05597 0.0112648 0.0410048)
(8.66874 0.107504 -0.0393313)
(3.0007 3.02581 0.00050792)
(9.50193 0.634603 0.150499)
(9.06506 0.456015 0.138962)
(3.03647 3.03833 0.000939891)
(2.89075 -2.89012 0.000252435)
(6.92057 0.00692989 -0.0573061)
(3.03971 3.04105 0.000424)
(8.62268 -0.0185322 -0.00342982)
(8.30018 0.00416677 -0.0188506)
(3.03892 2.96604 -0.0167749)
(3.13195 -2.87468 0.0311111)
(2.88973 -2.87541 -0.00456702)
(2.99511 2.82839 -0.0294153)
(3.14784 -2.89917 0.0497736)
(2.89374 -2.89557 0.00267927)
(8.63447 0.0334715 0.00932143)
(8.64967 0.0204764 -0.0163106)
(8.61859 0.0261907 -0.00894676)
(8.50783 -0.0255222 0.0305319)
(8.20182 -0.0205219 0.006871)
(8.22985 0.01374 0.0254984)
(7.30389 0.0945916 0.00985473)
(2.89071 -2.88155 -0.00117161)
(7.96996 0.00111613 0.00986449)
(3.12439 -2.89786 0.0315022)
(2.91725 -2.9223 -0.00144828)
(8.29793 0.0156565 0.0290171)
(8.7176 -0.105191 -0.0381652)
(8.63545 0.0168314 -0.0395017)
(8.29296 -0.00927559 0.0112615)
(8.4421 -0.00529085 0.00978533)
(2.89067 -2.8859 0.00718949)
(8.28225 -0.0356376 0.00872802)
(8.2562 -0.00839341 -0.0516477)
(5.78168 1.84784 0.241507)
(8.46367 -0.0685236 0.00563556)
(8.58421 -0.0139683 0.0079635)
(2.90455 -2.8883 -0.00469708)
(8.26287 0.0206224 0.0291826)
(8.67407 0.0203019 -0.0070555)
(3.17753 -2.8629 0.0146818)
(8.3242 0.0206685 0.0315834)
(8.73769 -0.00737079 0.0449311)
(8.17796 0.00903979 -0.0352075)
(8.23872 0.0226315 0.0389342)
(3.14468 -2.90831 0.0405228)
(2.88907 -2.88932 -0.000840465)
(8.2364 0.0241004 0.0418429)
(5.40336 3.39209 -0.334374)
(8.83721 0.0386299 -0.0862914)
(3.03823 3.03919 -0.00185723)
(8.28821 0.016732 0.033189)
(8.29452 0.00566515 0.00455229)
(8.7882 -0.0280058 0.0549226)
(2.89823 -2.89689 0.00116782)
(7.74177 -0.00322551 0.0202561)
(8.68429 0.125516 0.065632)
(4.77569 3.20868 -0.350028)
(3.03982 3.04026 -0.00220874)
(3.0366 3.03824 0.000896439)
(8.87805 -0.0556561 0.0849142)
(8.29027 0.195866 -0.0243264)
(3.19417 2.69781 -0.062695)
(3.59208 -2.78296 0.113534)
(8.32019 0.00816055 0.0145911)
(8.59028 0.0146928 -0.0010362)
(8.67475 0.0191667 0.00815456)
(3.14812 2.73979 -0.0805931)
(3.05589 -2.81357 -0.0105811)
(8.35503 0.100027 -0.119042)
(2.89541 -2.89531 0.00172946)
(7.92419 0.0103274 -0.0501328)
(8.22742 0.00519117 0.0344472)
(8.31695 0.00379118 0.0187273)
(8.32721 0.0168391 0.0214071)
(8.36075 0.00920681 0.0282573)
(3.02825 3.02887 0.00942985)
(6.30051 -0.0185725 -0.244448)
(8.45975 0.0188312 0.0324344)
(3.02356 3.02879 -0.00377836)
(3.0386 3.04037 0.000298062)
(8.8173 -0.106528 -0.00989097)
(8.61527 0.0390392 -0.0128743)
(3.11141 2.65061 -0.082989)
(7.85 -0.00338095 0.0215446)
(8.44274 0.0237749 0.0224818)
(2.89777 -2.89639 -0.000894445)
(3.82609 3.62993 -0.0180728)
(8.67653 0.0801238 -0.0353763)
(2.90858 -2.87105 0.00158535)
(3.21844 -2.28381 -0.0546556)
(4.42509 -1.54413 -0.155711)
(2.90091 -2.89263 -0.00148633)
(8.49229 -0.0145785 -0.0169252)
(8.25701 -0.0135044 -0.0160669)
(8.59841 0.0140199 -0.0228526)
(2.89416 -2.89458 -0.000241833)
(8.51009 0.0237332 0.019984)
(2.89918 -2.89993 0.000159323)
(2.89842 -2.89944 0.000770833)
(2.89056 -2.8793 0.00477329)
(5.81451 0.0223523 -0.0902319)
(8.74151 -0.0420382 0.0488643)
(8.31954 0.0308223 0.0428778)
(8.47821 0.0282412 0.0135769)
(8.77228 -0.0502745 -0.00184665)
(8.43884 0.012816 0.0145849)
(8.64941 0.0313433 0.0110553)
(8.71311 0.148011 -0.0142808)
(8.52674 0.0109276 -0.00392362)
(8.5997 0.0149029 -0.00443798)
(3.09112 3.04169 -0.00148488)
(2.88678 -2.88698 -0.00374413)
(5.31405 0.0349677 -0.128779)
(8.64827 -0.0193136 0.00232228)
(8.71924 0.0662302 0.0709524)
(8.23338 -0.0110781 -0.0133095)
(2.89879 -2.89714 0.000839592)
(8.60377 0.0274714 0.0160038)
(8.63943 0.044166 0.0212878)
(8.46522 0.0193698 0.0109533)
(7.44673 -0.00757264 -0.0401343)
(7.80411 -0.0881568 -0.195597)
(8.58996 0.0266601 0.00994381)
(8.45453 0.0237415 0.015305)
(8.61023 0.066918 -0.0423163)
(3.0388 3.03915 0.000534803)
(7.90107 0.0440183 -0.00273241)
(3.0377 3.03801 -0.00101436)
(2.46556 1.87647 -0.393606)
(3.26411 -2.09072 -0.212202)
(8.94982 -0.0808545 0.117283)
(8.77484 -0.0503251 -0.00157305)
(8.56645 -0.00312124 0.00128359)
(2.9007 -2.89321 -0.000969862)
(3.02561 3.04332 0.0250148)
(8.59346 0.029785 0.014704)
(8.22881 0.0179374 -0.011476)
(2.88729 -2.88658 0.000607423)
(2.89893 -2.89676 0.00241137)
(2.83012 -2.84608 0.0208935)
(8.16413 0.0111632 -0.00449352)
(8.56115 0.00927793 -0.0090685)
(8.17118 0.00185411 0.0301175)
(7.909 0.0132989 -0.0421322)
(8.72782 0.0201881 -0.0205803)
(3.47909 2.98921 0.0824901)
(3.03228 3.03959 0.00550022)
(2.89554 -2.89194 -0.00130288)
(8.5597 0.0329953 0.0229696)
(5.55342 -4.70121 -0.335208)
(8.1549 -0.00943492 0.0127862)
(8.88415 -0.0616851 0.195637)
(7.1565 0.00546948 -0.148361)
(3.03982 3.03951 -5.5582e-05)
(2.89392 -2.89702 0.00218337)
(2.89861 -2.89979 -0.00142884)
(3.82898 3.21231 0.197344)
(8.66814 0.0262841 -0.00326158)
(8.74253 -0.0504193 0.00758023)
(3.04403 3.05184 0.000984227)
(8.61117 0.0237597 -0.00177923)
(3.20905 2.60109 0.183322)
(2.90131 -2.86795 -0.00715283)
(8.82373 -0.0302518 0.0721598)
(8.58848 0.0317999 0.0157965)
(8.77624 -0.0116253 0.02063)
(8.61469 0.0244325 0.000123738)
(2.92111 2.59118 0.157915)
(3.79004 3.26233 0.208206)
(3.03182 3.0356 -0.00438617)
(8.60097 0.030111 0.0114699)
(8.58942 0.0255868 -0.000502235)
(8.74892 0.156147 -0.0526436)
(3.00433 2.99735 0.00554236)
(6.00169 5.31329 -1.27224)
(8.20285 0.0817746 0.0747263)
(8.74892 -0.0413371 0.0209537)
(8.60971 0.0315587 0.0195954)
(8.19453 0.849517 -0.0664328)
(8.72708 0.0196456 -0.0247043)
(3.02705 3.02681 0.00138878)
(8.72873 0.0212691 -0.0137613)
(8.38649 0.0117437 0.0174292)
(8.82864 -0.207695 -0.00159744)
(8.85115 -0.0534727 0.108298)
(8.55208 -0.068778 -0.0627793)
(3.02524 3.03862 -0.0113249)
(2.89225 -2.89552 -0.00540281)
(3.04425 3.02641 0.0115729)
(2.874 -2.88228 -0.000576583)
(8.72963 -0.0406879 0.000155)
(8.65178 -0.0124215 0.00319238)
(8.65499 0.0411403 -0.0323885)
(8.72141 0.0242692 -0.0271211)
(3.01378 3.01693 -0.0129899)
(8.63312 -0.0634984 -0.0230994)
(3.03535 3.03622 0.00120154)
(2.88553 -2.89373 0.00012047)
(8.72268 0.0246385 -0.0179158)
(2.66507 -2.66799 0.0385154)
(4.7949 -0.856129 -0.0662037)
(2.86231 -2.85161 0.00236603)
(3.06413 3.02341 0.0242444)
(8.6399 0.015152 -0.0120471)
(3.03775 3.03599 0.00114018)
(8.53446 0.0230762 -0.00581162)
(8.11872 0.00448584 -0.0373937)
(3.04313 3.04332 -0.000791801)
(7.81817 -0.00362768 -0.0371832)
(8.49347 0.0149948 0.012156)
(3.06139 2.68643 -0.098844)
(8.45636 0.0379874 0.0424171)
(7.99962 0.0423208 -0.00355814)
(8.51061 0.0401167 0.0121161)
(7.93283 0.0325321 0.101373)
(8.58704 0.024586 0.0041525)
(8.20512 0.00221345 -0.0154002)
(3.00477 2.56935 -0.0129927)
(2.88619 -2.88079 0.0172869)
(7.35103 0.0116026 0.172651)
(3.01712 3.02756 -0.0171756)
(8.49779 0.0459292 0.0402426)
(8.83019 -0.0450475 0.0882979)
(3.05183 2.91793 0.0244219)
(3.03118 3.04405 -0.000908003)
(8.70561 -0.0168885 0.00663681)
(8.38942 -0.0392451 -0.0858808)
(8.41262 0.044684 0.00131285)
(8.72099 0.0213163 -0.00800463)
(3.03839 3.03414 -0.00138496)
(8.86858 -0.0248893 0.143472)
(8.7347 -0.029712 0.0437306)
(3.04749 3.04235 -2.24877e-05)
(8.54971 0.133191 0.108666)
(8.16353 -0.0329573 -0.0881419)
(2.89153 -2.89126 -0.000599684)
(2.88823 -2.88816 0.000809761)
(8.52273 0.02622 -0.0086478)
(8.57554 0.00747386 -0.012809)
(3.05055 3.05064 -0.00387236)
(2.89415 -2.88822 -0.00458926)
(5.1113 -2.74778 0.627231)
(2.89796 -2.89992 0.000573096)
(8.57421 -0.00309338 0.0155257)
(3.01804 3.02943 0.00692506)
(2.89886 -2.89982 0.000147169)
(8.78099 -0.0115765 0.02811)
(7.95778 -0.0928086 -0.229635)
(8.68424 -0.0509975 0.0113258)
(8.39201 -0.00117181 0.0161651)
(3.04525 3.04301 0.000265365)
(3.93959 3.0385 0.151805)
(8.39037 0.112395 0.160698)
(3.69175 3.25719 0.172428)
(8.36424 0.0357436 0.0658238)
(8.32921 -0.0710496 0.00707698)
(8.69557 -0.0255826 -0.0231784)
(6.05017 0.191472 0.225402)
(3.62297 3.12303 0.156976)
(8.68276 0.0138353 -0.0822448)
(8.80167 0.273558 -0.0907663)
(2.89382 -2.899 0.00541585)
(8.77104 0.0226736 -0.0865766)
(8.78128 -0.0385061 0.0325767)
(2.89926 -2.89863 0.00300061)
(8.46164 0.485264 -0.259462)
(7.40227 3.59918e-05 -0.101488)
(3.83277 3.01557 0.126625)
(8.7467 -0.0216899 0.0358536)
(8.64073 0.0136492 -0.0097545)
(8.59156 0.0232325 -0.00621345)
(3.03782 3.03523 -0.000760212)
(8.55344 -0.0129453 0.0593136)
(8.77933 -0.00332662 0.0282475)
(8.5218 0.0833842 -0.0084444)
(5.3717 -0.0734961 0.0895302)
(3.69036 3.48421 -0.0703669)
(5.06849 -0.130704 0.170583)
(2.89314 -2.89707 0.00214556)
(7.88653 -0.267703 -0.260334)
(8.55529 -0.014523 -0.0563361)
(3.03924 3.03714 0.00472567)
(8.14184 0.0202931 -0.0622031)
(6.70695 -0.0175033 0.122811)
(3.93748 3.4851 -0.0364435)
(2.89599 -2.89405 0.000196614)
(3.39352 -2.87994 0.0933771)
(2.8982 -2.89698 -0.000135034)
(8.49601 0.0485318 -0.0064293)
(8.57952 0.0460694 -0.0147538)
(8.50459 -0.0243296 -0.0244578)
(7.99035 0.0216897 -0.0442639)
(8.70792 -0.177332 -0.0369749)
(3.0366 3.02351 -0.0058204)
(8.44757 1.52759e-05 -0.0210876)
(2.90465 -2.88325 0.000381142)
(8.36201 0.0311131 0.020288)
(3.04855 3.04889 -0.00133581)
(2.89613 -2.89356 7.76883e-05)
(2.8665 -2.87455 -0.0039345)
(8.21739 -0.054872 0.0116639)
(2.88543 -2.88672 -0.00246253)
(2.89774 -2.89794 0.00126003)
(2.99614 1.99912 -0.123363)
(2.89825 -2.89995 0.00108559)
(3.00607 3.04769 0.0286288)
(8.42161 -0.0312048 -0.0130919)
(3.03975 3.03553 0.00103909)
(3.60037 2.6623 0.0048836)
(3.0402 3.04193 0.00366789)
(2.88707 -2.87737 -0.0010341)
(3.03929 3.02818 -0.00429385)
(2.88606 -2.87139 -0.0146879)
(3.02127 3.02362 7.54159e-05)
(7.66698 0.00172138 -0.0651484)
(3.04384 3.02774 0.0121086)
(7.86167 0.116897 0.15962)
(8.60395 0.011931 -0.00380141)
(8.87208 -0.362427 -0.0626446)
(3.04633 3.03114 -0.000606003)
(7.48883 0.0218596 0.124984)
(3.04389 3.03327 0.00292179)
(2.89874 -2.89991 -0.00129857)
(8.47657 -0.0808939 -0.0862424)
(8.48806 -0.0653402 -0.0785227)
(8.50864 -0.0188743 -0.022792)
(8.88999 0.022697 -0.149899)
(3.49133 2.93907 -0.0967083)
(8.71143 0.00999545 -0.0463862)
(8.70704 0.0151629 -0.0444854)
(8.60327 0.0155129 -6.60933e-05)
(8.46453 0.00946273 0.00286852)
(8.6168 -0.0872242 -0.0605396)
(2.88578 -2.88685 -0.00097019)
(8.6111 0.0119481 0.000199588)
(3.97379 3.46092 -0.0269256)
(8.58192 0.0225356 -0.0114647)
(3.03494 3.03168 -0.00106826)
(8.73953 0.0279294 -0.0397732)
(3.93066 3.26724 0.030501)
(8.61961 0.00743954 -0.0126116)
(8.64696 -0.0413191 0.0315018)
(3.34474 -1.68328 -0.0200245)
(3.04011 3.04231 0.0337968)
(8.47634 0.0150507 0.0151322)
(2.89527 -2.89414 0.000565193)
(8.77665 0.0360152 -0.0571632)
(8.71171 0.0340617 -0.0370038)
(3.03692 3.02793 -0.024259)
(3.03037 3.0293 0.00743449)
(2.97279 2.66679 -0.0595763)
(3.0367 3.03902 0.00145168)
(6.08756 -0.326467 0.167929)
(8.7813 0.0304123 -0.0546259)
(3.08223 3.00977 -0.00240165)
(3.03302 3.03719 0.00294901)
(7.49491 0.00951441 -0.0176594)
(3.04155 3.04135 2.7281e-05)
(8.64641 0.024535 -0.0314857)
(3.0394 3.03867 0.000387797)
(8.56072 -0.050602 -0.0367914)
(2.89927 -2.89862 0.000874096)
(8.03145 -0.0404516 -0.121816)
(6.6355 -0.0266831 0.00688148)
(8.04993 0.0250419 -0.0172411)
(8.62253 0.00964592 -0.0135973)
(3.05084 3.02823 -0.00995326)
(7.82128 0.00834593 -0.00195642)
(3.04471 3.03391 0.00278073)
(3.04007 3.04091 -0.00824714)
(8.52455 -0.0225919 -0.0130153)
(3.03621 3.03269 -0.00136685)
(7.25758 0.00149315 -0.0737)
(2.93159 2.69828 -0.0896745)
(8.6566 0.0230708 -0.0275867)
(2.88935 -2.89115 7.72872e-05)
(8.72976 0.0209968 -0.0191506)
(2.90027 -2.89773 0.000333964)
(3.6065 3.19188 0.0928849)
(8.83166 0.319183 -0.0220657)
(8.48023 -0.0726059 -0.0909291)
(8.60973 0.0366776 -0.000168481)
(8.67981 -0.0980351 -0.0639179)
(8.57144 0.0171714 -0.00872309)
(8.76564 -0.0615803 -0.00599953)
(3.01767 3.04084 -0.0135583)
(8.60468 0.0490359 0.0259426)
(8.51503 -0.08539 -0.0875878)
(3.0386 3.04037 -0.00178412)
(7.23022 -0.105844 -0.279356)
(8.79975 -0.0636529 -0.0443935)
(8.45067 0.0363785 0.0325528)
(3.0061 2.96509 -0.0170161)
(3.7404 0.741533 -0.592068)
(8.26987 0.020849 0.0272936)
(6.76529 -0.0267403 0.0686317)
(7.01367 1.80671 -0.0143787)
(3.75578 -1.90608 -0.155883)
(8.74853 -0.100294 -0.0230512)
(8.21207 0.0314237 0.0610242)
(8.47406 -0.0799675 -0.0878176)
(8.63785 -0.0486449 -0.0182259)
(8.49497 0.049691 0.0210425)
(7.54473 0.977589 -0.0442946)
(3.75542 3.18659 0.0264845)
(7.67028 -0.293773 0.0677012)
(7.40946 -0.646688 0.155168)
(2.89275 -2.89445 0.00127219)
(7.5622 0.0527675 -0.0223233)
(3.05454 2.9972 -0.0157715)
(3.56385 3.24078 0.0304631)
(8.56869 0.0193509 -0.00428126)
(7.5983 1.28821 -0.044659)
(9.13919 -0.782464 -0.144567)
(8.24214 -1.42275 0.0320217)
(3.55432 3.37786 -0.249076)
(8.71259 -0.0540835 -0.0171059)
(8.59814 0.0502988 0.0390975)
(3.03212 3.02369 -0.00138789)
(3.9107 2.1757 -0.0904645)
(8.59786 0.0647882 0.0405328)
(2.89632 -2.88549 0.00307437)
(3.03839 3.03711 -0.000650926)
(3.02907 3.02801 -0.000215899)
(3.04234 3.02638 0.00352963)
(8.70966 -0.08983 -0.04121)
(3.03931 3.0385 0.00185277)
(2.90618 -2.906 0.0153275)
(8.55431 -0.0527081 -0.0427655)
(7.87357 -0.00288973 -0.0239872)
(4.2611 -3.73041 -0.197288)
(8.59837 0.0633025 0.0391019)
(3.5362 2.85883 0.0641205)
(8.64209 -0.034175 -0.0191099)
(2.83977 -2.83761 -0.0133072)
(3.03187 3.03791 -0.00225919)
(8.68835 -0.0553207 -0.016022)
(3.03824 3.02098 -0.01174)
(3.0399 3.03269 0.00169886)
(3.48099 3.33137 0.0961999)
(8.17242 -0.00587389 -0.00525393)
(5.00082 4.18767 -0.555736)
(8.56216 -0.0356844 -0.0170766)
(8.56486 0.018502 -0.00598169)
(2.87074 -2.85205 -0.0228716)
(8.88735 -0.0240006 0.281446)
(8.14028 -0.0499554 -0.122005)
(8.53076 0.00119508 -0.00425241)
(8.6363 0.156543 0.0157466)
(8.67967 0.0873761 -0.185386)
(7.46592 0.00354462 -0.0699131)
(3.03364 3.03064 0.00179205)
(8.69946 0.00918208 0.024245)
(8.63374 0.0372211 -0.00758306)
(2.86812 -2.90606 0.00569272)
(8.03528 -0.00545142 -0.00274501)
(8.71504 0.0486986 -0.0171753)
(8.71277 0.0400147 -0.0144225)
(7.91659 -0.0349747 -0.0777434)
(8.70999 0.0382673 -0.0158013)
(8.71442 0.0457667 -0.00514521)
(2.90165 -2.86319 0.0176998)
(8.71446 -0.0175525 0.0428652)
(7.20662 -0.0452516 -0.0138062)
(3.65942 3.17836 0.201402)
(8.70874 0.0328671 -0.021257)
(8.31174 0.00956307 -0.0194289)
(4.86771 3.96383 -0.598467)
(8.56512 0.0159741 -0.00140714)
(8.7127 0.0269851 -0.0265207)
(8.31479 0.00273697 -0.0343645)
(8.64268 0.0379474 0.00427882)
(8.54426 0.0849571 0.03728)
(8.57947 0.00988107 0.00604469)
(2.97257 2.9052 0.00443417)
(8.64133 0.0455572 0.00615361)
(8.11071 -0.0533461 -0.11024)
(3.24387 -1.94752 0.0757076)
(8.59995 0.074424 0.0463639)
(8.49026 0.07081 0.0697592)
(8.61608 0.0251479 0.00136613)
(3.03399 3.02683 0.00265809)
(8.35193 0.048423 -0.0795115)
(2.89589 -2.88329 0.00724977)
(3.03934 3.03949 -0.00214)
(3.02301 3.00236 -0.00130433)
(3.04417 3.02644 0.000712392)
(7.23889 0.003799 -0.0312621)
(3.6191 3.11659 0.126177)
(6.52297 -0.460431 0.538225)
(2.88116 -2.88233 -0.000281977)
(3.03235 3.07309 -0.00463185)
(8.6095 0.0872417 0.044725)
(8.66199 0.0221607 -0.0394573)
(2.89801 -2.89794 -0.000148508)
(8.67209 -0.054243 -0.00662498)
(2.89615 -2.89418 0.00840917)
(2.89811 -2.89613 -0.0011137)
(2.84888 -2.85003 0.00839905)
(8.79908 -0.0703436 -0.00933648)
(7.33269 0.0419718 -0.0199917)
(3.58201 3.22759 0.0401692)
(2.92521 -2.89276 0.00777824)
(3.03481 3.04471 -0.00389939)
(3.03639 3.03825 -0.000737232)
(8.8551 0.0179309 -0.0975923)
(8.59552 0.0180329 -0.000935886)
(3.60916 3.39391 0.156318)
(8.75805 0.0273498 -0.0476319)
(8.14741 -0.113928 -0.33865)
(3.03283 3.03429 -0.00143366)
(8.73528 0.0235955 -0.0415501)
(8.00891 0.00602604 0.0427772)
(8.49972 0.0449516 -0.0511345)
(3.04368 3.04219 -0.0001268)
(3.03482 3.03222 0.000302801)
(8.44042 0.0512299 0.0517914)
(8.62624 0.0202903 -0.00316623)
(3.58991 3.26561 0.0509982)
(3.02501 3.02612 0.000242221)
(3.07599 2.98232 -0.0112632)
(8.57287 -0.0167902 0.00709972)
(2.89368 -2.8936 -0.00321871)
(2.88926 -2.87828 0.00221676)
(3.02109 3.02162 0.000119909)
(8.73256 0.0265248 -0.0366912)
(7.63604 -0.0381223 0.0136257)
(3.04221 3.04239 -8.91036e-06)
(3.3793 0.68138 0.594066)
(3.67449 -0.395856 -0.144436)
(8.44415 0.0455466 -0.00244981)
(3.03318 3.03826 -0.00137183)
(3.03917 3.03371 -0.00235495)
(8.7603 -0.109961 -0.0163702)
(8.39321 0.142814 0.134785)
(3.64043 3.2532 0.153571)
(5.29413 1.72193 0.126084)
(8.27695 0.182605 0.240213)
(7.9199 0.024247 -0.0554314)
(8.4198 0.00558747 -0.00688153)
(3.14052 2.94914 -0.00745169)
(8.37016 0.0243988 -0.00399674)
(8.67544 -0.058752 0.0620446)
(3.04413 3.03663 -0.00329405)
(2.87543 -2.82475 0.00515893)
(3.02292 3.02458 0.000455517)
(3.03322 3.03288 -0.000605583)
(3.03883 3.04374 -0.00359555)
(3.043 3.04396 -0.00071278)
(8.75005 0.025451 -0.0386979)
(2.89593 -2.8953 0.00193138)
(3.03115 3.0317 0.000467043)
(3.02152 2.98199 -0.00397861)
(8.75782 0.0274991 -0.0487219)
(8.61975 0.0199852 -0.000730354)
(2.90853 -2.86791 -0.000749792)
(2.8611 -2.83158 0.00388939)
(8.82634 -0.042489 0.0762024)
(8.38623 0.00197229 0.0086909)
(8.37401 0.00597785 0.0127594)
(2.89707 -2.88934 -0.00154816)
(3.02913 3.02952 0.00206074)
(8.38056 0.00399344 0.0119166)
(2.89792 -2.89553 0.000432934)
(8.28047 0.02292 0.00213912)
(8.46892 0.0146565 0.0304884)
(8.49022 0.028971 0.0101529)
(2.90542 -2.8838 0.00809343)
(2.89732 -2.89883 0.000604576)
(2.89681 -2.89877 0.000175496)
(3.03931 3.03992 0.000901643)
(8.58408 -0.0411025 -0.0238007)
(3.03586 3.0393 0.00153054)
(3.03028 3.02766 -9.57591e-05)
(8.54586 0.0235574 -0.0345713)
(2.89753 -2.89851 0.00119717)
(8.41813 0.00209125 0.00977836)
(7.68094 -0.0667579 0.0265679)
(3.05688 2.95356 0.015836)
(8.61061 0.0228583 -0.00228426)
(4.05781 0.618156 -0.106677)
(8.49932 0.00894229 0.00445713)
(8.78621 -0.0303954 0.021742)
(7.75498 0.031765 0.0107566)
(8.7879 -0.0019987 0.0575011)
(6.34653 0.137861 -0.24146)
(3.61559 2.89363 0.0590795)
(8.48011 0.00542047 0.0030798)
(8.82225 0.069208 0.0108131)
(8.61232 -0.020339 -0.00851989)
(3.1122 2.70825 -0.091273)
(3.86075 0.380633 -0.196611)
(4.59398 -0.32083 0.155637)
(8.49036 0.0118544 0.00617368)
(3.03058 3.03502 0.00404724)
(8.32614 -0.0191114 -0.0609182)
(8.5045 -0.00777961 -0.0172447)
(8.25505 -0.0723737 -0.132894)
(3.16463 -2.23781 -0.169151)
(2.89801 -2.89924 0.00139895)
(2.89498 -2.89502 -7.72118e-05)
(8.65228 -0.0276054 -0.00292035)
(3.54223 2.93649 -0.0381023)
(8.21524 0.0283097 0.0126337)
(3.29538 3.00317 0.0417625)
(8.17215 -0.0179281 -0.0589241)
(8.40452 -0.0175695 0.00846999)
(8.3152 -0.0102995 0.0292487)
(8.62298 0.0212945 -0.00486525)
(3.03029 3.03029 -0.00101199)
(3.01702 3.00784 -0.00551631)
(3.09459 -2.81956 0.0142588)
(8.6085 0.0261797 0.00383643)
(3.0429 3.03422 -0.000673042)
(3.50717 3.01703 -0.133526)
(8.79909 0.165148 -0.138851)
(3.04828 3.04451 -0.00184421)
(3.02437 3.03926 0.00918163)
(2.88116 -2.87206 -0.00473597)
(3.04077 3.0417 0.000964826)
(8.2254 -0.00347207 0.0275974)
(3.1007 2.94504 0.00590563)
(3.03971 3.0366 0.0010173)
(6.98347 0.988494 -0.72221)
(3.55506 2.87752 -0.0394177)
(3.02496 3.02653 -0.025141)
(4.17314 -2.45752 0.153465)
(3.03731 3.03368 -0.00329925)
(6.71961 0.0266295 -0.0590825)
(8.38851 -0.0141244 0.0217239)
(2.88636 -2.88674 -0.00023884)
(8.24391 0.00875745 -0.0222318)
(8.32458 1.35265 -0.185112)
(8.19471 -0.0793442 -0.132203)
(9.01459 0.337589 0.0075098)
(8.10832 0.00679199 -0.012908)
(3.03631 3.01552 0.00953733)
(8.50601 -0.0794303 -0.09051)
(8.80999 -0.0314092 0.0189303)
(8.1923 -0.0799066 -0.132387)
(2.89533 -2.896 -0.000447806)
(8.93063 2.34308 0.626355)
(8.20579 0.0117047 0.0123024)
(4.04346 3.22894 -0.191359)
(8.14916 0.00444197 0.00921346)
(8.8943 0.111885 -0.0846486)
(8.48971 0.171699 0.00900783)
(8.42077 -0.0250007 -0.032709)
(8.42433 0.0280473 0.00103638)
(8.96557 0.132322 -0.0492975)
(8.64327 -0.0145739 -0.0137741)
(8.56059 -0.0116704 0.00870849)
(3.01306 3.02455 0.0113924)
(3.02412 3.00919 0.00932425)
(8.26398 0.0222382 0.0115013)
(8.12564 0.00934198 0.0104784)
(3.03199 3.03923 -0.00128235)
(8.37999 0.00811648 0.000239817)
(8.77824 -0.04065 0.00560559)
(8.58209 -0.020406 0.00741586)
(3.03739 3.00615 -0.0011226)
(8.46035 0.17142 0.0376626)
(3.02982 3.02733 0.000229083)
(8.56491 -0.011428 0.00748999)
(8.59195 -0.0128777 0.00565125)
(3.03729 3.03586 -0.000412275)
(8.21078 0.0443818 -0.0215362)
(8.56923 -0.00906904 0.00123225)
(8.4258 0.16007 0.0140002)
(8.28948 0.00188286 0.0336868)
(3.09932 3.04065 -0.00474832)
(8.66239 -0.0232764 0.0252746)
(8.45192 0.19541 0.00199727)
(8.91146 -0.206796 0.0572791)
(7.50188 0.0981047 0.0260097)
(6.69883 0.0210338 -0.094482)
(3.03915 3.00791 -0.00540843)
(3.02913 3.02635 0.00227482)
(8.31315 0.114363 0.0148883)
(3.04111 3.04139 -0.000904678)
(7.25771 -0.0206147 -0.0186883)
(8.35018 -0.0446412 -0.0651628)
(5.09404 0.716012 -0.186331)
(9.24987 -0.592029 0.223902)
(8.16218 -0.365067 0.108345)
(9.08551 -0.323862 0.089412)
(3.04042 3.04073 -0.000834138)
(4.12272 3.50087 0.0281198)
(8.64275 0.0211029 -0.00683796)
(2.88332 -2.89487 -0.00984602)
(1.59269 -1.11418 0.471633)
(8.5519 -0.163531 -0.127318)
(3.0271 3.01966 -0.00600435)
(3.04257 3.03898 0.00027441)
(7.63733 -0.148309 -0.00348361)
(6.24412 -0.406011 0.0854325)
(3.04151 3.04181 -0.000449273)
(7.72941 -0.144019 0.0254341)
(3.02845 3.02585 0.00141616)
(3.03721 3.04205 -0.00498048)
(2.89464 -2.89494 -0.000517256)
(2.89835 -2.89193 0.00586736)
(2.84046 -2.81599 0.00960639)
(2.89244 -2.88672 -0.000338852)
(7.7185 0.0639614 -0.0290083)
(3.01596 2.9957 -0.00361123)
(3.03618 3.03756 0.00105075)
(3.0199 3.03578 0.00527052)
(7.1885 -1.58607 -0.413329)
(8.14012 -0.0676029 -0.14898)
(7.88167 -3.31314e-05 -0.0816286)
(8.64349 0.0198216 -0.00762279)
(3.02182 3.00231 -2.41527e-05)
(3.04977 3.03858 0.000172686)
(8.28036 -0.142019 -0.172933)
(3.03953 3.04044 -0.00360309)
(3.03695 3.03382 0.000805331)
(4.83342 2.7824 0.102213)
(8.81526 -0.120223 -0.00431914)
(8.62652 0.0206895 -0.00647615)
(3.03559 3.03476 -0.000316369)
(3.03349 3.02819 0.00450524)
(3.02201 3.01357 -0.00384168)
(3.02689 3.02046 -0.000377583)
(3.04023 3.03893 -0.00327746)
(3.04712 3.0386 0.00178251)
(8.63156 -0.201582 -0.127152)
(3.04393 3.03513 -0.000110757)
(5.99024 0.0860292 0.202263)
(8.70645 -0.0200527 0.0230749)
(3.03695 3.04133 -0.000824458)
(2.87506 -2.88672 -0.0078689)
(2.85566 -2.82605 0.0035456)
(7.30018 0.0866464 0.396183)
(2.83505 -2.83171 -0.0117406)
(2.89334 -2.89583 0.00281192)
(3.01995 3.02499 -0.0190273)
(7.81954 -0.12226 0.00786327)
(3.0274 3.02639 0.000188554)
(8.58087 -0.112396 -0.0707403)
(6.84043 0.111926 -0.0352313)
(5.63644 0.00718234 0.226667)
(3.02853 3.03081 0.000934858)
(5.87576 -1.50403 0.119588)
(8.64819 -0.0160793 0.00281259)
(8.7116 0.0218738 -0.0223925)
(3.11044 -2.96869 -0.0335928)
(8.37399 -0.135459 -0.0221059)
(8.5492 -0.0162843 -0.00931026)
(2.89847 -2.87822 0.00279784)
(3.13868 2.97804 0.0144279)
(4.09109 -3.15247 -0.263767)
(3.02093 3.02008 0.000984418)
(8.6472 0.0168388 -0.00247058)
(8.6406 -0.0109255 0.0103405)
(8.78682 -0.106704 0.0439723)
(5.77906 -0.00641155 0.318501)
(3.04272 3.04101 -0.000356353)
(8.65 0.0169763 -0.00391492)
(3.118 2.96764 -0.00745085)
(3.79644 3.21216 -0.0132837)
(3.89561 -3.03129 -0.125552)
(3.03689 3.03726 0.00112361)
(8.67047 0.0251005 -0.00544112)
(3.02746 3.0206 0.0019219)
(2.86473 -2.81257 0.00167166)
(7.90592 -0.108676 -0.198159)
(8.48838 -0.0195097 0.0102627)
(2.86659 -2.81904 -0.00755787)
(8.52584 0.0151311 -0.00397534)
(3.23534 3.16383 -0.0187907)
(8.65886 -0.0741501 -0.0381464)
(2.85668 2.73291 0.0271776)
(3.04011 3.04178 -0.00126917)
(3.0527 3.04241 0.00997819)
(2.89881 -2.89946 0.000794604)
(8.38108 0.013053 -0.0133546)
(7.50504 0.0160102 -0.0342893)
(8.68402 -0.0233347 0.187439)
(3.02435 3.02717 0.00193722)
(3.01972 2.96529 0.0205188)
(8.33472 0.0158415 -0.0145)
(3.04061 3.04073 -0.00113136)
(3.52946 3.1951 0.0444343)
(2.8959 -2.89399 0.00021559)
(8.29353 0.0531176 -0.00551803)
(8.82887 -0.217838 -0.0645622)
(8.64817 0.0215284 -0.00905037)
(2.89167 -2.88592 0.00672831)
(6.84869 -0.0102261 0.191424)
(7.14962 0.00709906 0.184005)
(2.7311 2.41218 0.0168727)
(7.7303 0.0993376 0.155775)
(3.04152 3.02563 0.00311294)
(8.16513 0.0764522 -0.00775814)
(8.76785 -0.0150868 0.0511563)
(8.49443 0.00613888 -0.0149748)
(8.77829 -0.111273 0.0136318)
(8.06388 -0.177317 -0.249706)
(3.0399 3.03667 0.000715599)
(3.04027 3.04009 -0.000171645)
(3.03302 3.03723 -0.000139988)
(7.07145 0.0697894 0.255168)
(3.01105 2.98427 0.0033281)
(8.58092 0.0362563 -0.0154422)
(2.89462 -2.89433 -0.000225047)