/*--------------------------------*- C++ -*----------------------------------*\
  =========                 |
  \\      /  F ield         | OpenFOAM: The Open Source CFD Toolbox
   \\    /   O peration     | Website:  https://openfoam.org
    \\  /    A nd           | Version:  10
     \\/     M anipulation  |
\*---------------------------------------------------------------------------*/
FoamFile
{
    format      ascii;
    class       surfaceScalarField;
    location    "3.3";
    object      phi;
}
// * * * * * * * * * * * * * * * * * * * * * * * * * * * * * * * * * * * * * //

dimensions      [0 3 -1 0 0 0 0];

internalField   nonuniform List<scalar> 
214403
(
-0.00577744
0.00442964
0.000244972
0.00110282
-0.00276773
-0.00935717
0.0007652
0.0113597
-0.00859477
4.59682e-05
-0.000112313
0.00866112
0.00760408
-0.00510891
-0.012747
0.0102518
0.0103104
-0.0130265
0.00308413
-0.000367982
-0.00447413
0.00466212
-4.75627e-05
-0.000140434
-0.000720975
-0.00137131
-0.00772529
0.00981758
-0.0142025
0.00810342
-0.0021379
0.00823696
-0.0196408
0.0138556
0.0139802
-0.00819501
0.0118772
0.00140998
-0.0133089
2.173e-05
0.00423816
-0.0083856
0.00174008
0.00240736
-0.00867263
0.00271019
0.00451167
0.00145077
0.000394003
-0.00963759
0.0116284
-0.00238483
-0.00834335
0.00836724
-2.38957e-05
0.00161489
0.0100027
-0.0128358
0.00121827
-0.0100241
0.00837042
0.00252304
-0.000869323
-0.0101932
0.00991587
0.000277346
0.00333982
-5.16194e-05
-0.000762247
-0.00252595
0.0131376
-0.00785067
-0.0174775
0.0121906
-6.52763e-05
-0.00266228
7.80091e-05
0.00264954
0.00548746
-0.00535745
-0.000130006
-0.010275
-0.00355272
0.00353306
0.0102947
-0.001916
0.0114398
-0.00921634
-0.000307408
0.00563091
0.000576405
0.00195132
-0.00815863
-0.00861373
-0.00417395
0.0111484
0.00163925
0.00789151
-0.00999005
5.81004e-05
0.00204044
0.00269677
-0.00234456
0.00886383
-0.00921605
0.00650259
0.00849069
-0.0102284
-0.00476487
0.00937377
-0.00587068
-0.000267256
-0.00323584
-0.00502682
0.00512574
-9.89219e-05
0.00202752
-0.00425406
0.0114266
-0.00920004
0.0117524
0.000561821
-0.00202875
-0.0102854
-0.00481995
-0.00494787
0.00506607
0.00470174
-0.000996881
-0.00562794
0.00498441
0.00164042
0.00367504
-0.00244215
-0.00788521
0.00665232
-0.00142332
0.0071032
-0.00256631
-0.00311356
0.0135296
-0.000364537
-0.0131651
-0.00573878
0.0112316
-0.00549279
0.00103672
-0.0124032
0.00719666
0.00416982
0.00205075
-0.000827033
0.00504126
-0.00626497
0.00474921
-4.35211e-05
-0.00470569
0.00860891
-0.000192196
0.00152851
-0.00994523
-0.010878
0.00135741
0.0115714
0.000754171
0.000741687
0.00729
-0.00878586
-0.00350383
-0.0227032
0.0220435
0.00416356
0.00490397
0.000887017
0.00110697
-0.00689796
0.00355534
0.00269058
-0.00870371
0.00245779
0.0111743
0.0066813
-0.0122247
0.00101054
0.00952886
-0.00193049
0.00156831
-0.0058498
-0.00345082
0.00773231
0.00266151
0.00409252
0.00122066
-0.00797469
0.00154756
-0.00116424
-0.00356508
0.00318176
0.0058924
-0.0106659
0.007435
0.0100074
-0.00943178
-0.00320851
0.00263289
0.00912758
-0.00166686
-0.00719151
0.00974186
-0.000398468
-0.00215188
0.00739448
-0.00947795
0.000119795
0.00196368
-0.00690053
0.000457955
0.0110256
-0.00458304
-0.0128772
-0.0121671
0.0101818
0.0148625
-0.00687408
0.00691124
0.00135593
-0.00139309
0.00107621
-0.00877733
-0.00735241
-0.000152784
0.00382174
0.00368346
-0.0112966
0.00484641
0.0072911
-0.000840873
0.0132716
-0.0106919
0.000661658
-0.0032413
0.000606006
0.000227062
-0.00862439
0.00779132
0.000468009
-0.00245456
0.0121159
-0.0101293
-0.029662
0.00320128
0.00331884
0.0231419
-0.00267471
0.00793328
-0.00251669
-0.00274188
0.00395154
-0.00206654
-0.00842811
0.00654311
0.000955274
0.00606753
-0.00768648
0.000663673
-0.000121681
0.00719108
0.00247815
-0.00954755
-0.0014273
-0.000233455
-0.00301498
0.00467573
-0.00771974
0.00843341
-0.00031696
-0.000396715
0.000281216
-0.00762631
-0.00545533
0.00483311
0.00146672
-0.000844489
-0.0141282
-0.000893606
0.00687543
0.0081464
-0.00426297
-0.00181557
0.00362403
0.00245451
0.00632461
-0.0212169
0.00293136
0.011961
-0.00327498
0.00658811
-0.00359941
0.000286286
0.0046769
-0.00363866
0.000462609
-0.00150085
0.000109591
-0.00895456
0.00884496
3.40846e-05
0.0072392
-0.00727328
0.0063213
-0.00123447
0.000834714
-0.00592154
-0.00389797
0.0055629
0.00184368
-0.00350862
-0.00270371
0.0115523
-0.00277995
-0.00606869
0.00550482
-0.00941585
-0.000333704
0.00424474
0.00621033
0.00653752
-0.0127479
0.00916155
-0.0103011
0.00264957
-0.00151006
0.000886218
-0.00165327
0.0119864
-0.0112193
0.000358668
-0.0019152
0.0085581
-0.00700158
0.00209687
0.0180696
0.00516162
-0.0253281
-0.0157306
0.0138202
0.00899134
-0.00708096
0.000720059
0.00560242
-0.00751683
0.00119435
0.00746132
0.00825658
-0.00268222
-0.0130357
0.0136562
-0.00830351
-0.000249693
-0.00510302
0.000607123
-0.00178249
-0.00559758
0.00677295
-0.00566284
3.18043e-05
0.00563103
0.00831239
0.00028239
0.000566763
0.010373
0.000878
-0.0158211
0.00457009
-0.00835757
0.0018266
0.00147562
0.00505536
-0.00534668
0.00132622
0.000657454
0.003363
0.00126782
0.000920161
-0.0108916
0.00870362
-0.00221587
-0.0128871
0.0082173
0.00688563
0.00521586
-0.00618308
-0.00402425
0.00499147
0.00839792
-6.52407e-05
-0.00839454
6.18552e-05
0.00638802
-0.00902795
-0.00311197
0.0057519
0.0165443
-0.00500873
-0.00257748
-0.0089581
0.0093873
-2.0329e-05
-0.00860833
-0.000758636
-0.00488396
0.00573007
0.0119038
-0.0127499
0.0102966
-0.00359018
-0.00990896
0.00320249
0.00192016
-0.00283367
0.0122365
-0.011323
-0.0134849
0.0122719
0.0116575
-0.0104445
0.000617626
-0.0106161
0.00408337
0.00591509
0.0133789
-0.000699123
-0.000300468
-0.0123793
0.00946064
-0.00183627
0.00183649
-0.00946086
-0.0112103
-0.0102362
0.0121026
0.00934398
-0.00208496
0.00598021
0.00162264
-0.00551788
-0.00456024
0.000248779
0.00883836
-0.00452691
-0.00101316
0.0115471
-0.0107302
0.000196267
-0.0101828
0.00945566
0.00183987
-0.00111274
-0.000340535
-0.00593555
0.0141676
0.0018373
-0.00609159
-0.00446753
0.00872181
-0.0048238
6.16375e-05
0.00476216
0.00148001
0.0067294
-0.00622527
-0.00198414
0.0109018
-0.0062813
-0.00167709
-0.00294346
9.79249e-05
-0.0032942
0.00319627
-0.00607346
-0.00163923
0.00229429
0.0054184
0.000657237
0.0036201
-0.00808981
0.00381247
0.0135374
-0.00122325
0.00528819
-0.0176023
0.000945567
-0.00123368
-0.0160915
0.0163796
0.00102585
-0.00464434
-0.00607918
0.00969767
0.000384518
0.00838236
-0.00045448
3.40974e-05
-0.00502001
0.00498591
0.0101345
-0.00377088
-0.00452632
-0.00613837
0.00511689
-0.00505198
0.0112163
-0.00933893
-0.00114788
-0.000729473
0.001118
-0.00528211
0.00230936
0.00185475
-0.00910738
-0.00276457
0.00186132
0.0100106
0.00762083
-0.0123467
0.00815834
-0.0034325
-0.000324939
0.0112128
-0.0112209
0.000333002
-1.30617e-05
0.0105668
-0.0104668
-8.69313e-05
-0.0142075
0.01135
-0.00911031
0.0119679
0.0118231
-0.0114564
-0.000366714
-0.011022
0.0147326
-0.00265931
-0.00105127
-0.00981186
0.0023783
-0.000753928
0.00818748
-0.0159916
0.00121244
0.0102915
0.00448758
0.00282691
-0.00386021
0.0021513
-0.00401631
0.0045649
0.00734541
-0.00789401
-0.00423227
-0.00190021
0.00242252
0.00370995
-0.00580338
0.00378862
-0.00727221
0.00928697
0.00173654
0.000139216
-0.0128978
-0.00581857
0.00580487
1.36961e-05
0.00633719
-0.00610394
-0.000233249
-0.00945988
-0.000616719
-0.00249711
0.00232554
-0.0124507
0.0144737
-0.0043485
0.00558368
0.00956601
-0.0121872
-0.00296253
0.0106331
-0.0115656
0.000327498
0.000604947
0.00581626
0.00148591
-0.00598604
-0.00131613
-0.00900886
-0.000487872
0.0118223
0.00527252
-0.000379993
-0.00642756
0.00153503
0.00594211
-0.00508631
0.00586032
-0.00671612
-0.0101247
0.00191885
0.0137895
-0.00345681
-0.00477227
0.0158582
-0.0076291
-0.00490477
-0.00540138
0.00129729
0.00144757
0.00388937
-0.0102417
-0.0069856
-0.000597073
0.0112411
-0.00365843
0.00107795
0.00175668
0.0061884
-0.00902303
-0.00326617
0.00799319
-0.00472702
0.00259066
-0.0125611
0.00456901
0.00746528
0.00523918
-0.0112569
-0.0104589
0.00012773
0.01303
-0.00269885
0.00182051
0.00156116
0.00487753
-0.0082592
0.00737282
-0.00740997
3.71489e-05
0.00264764
-0.00100056
0.00888781
-0.0105349
0.00930978
-0.00293808
0.0044658
-0.0108375
0.0175571
-0.00568335
0.0130788
-0.0249525
0.00279792
0.00521094
-0.00216543
-0.00584343
-0.00797008
0.00327749
0.00417709
0.000515506
0.00570973
-0.00430243
-0.000119583
-0.00128771
-0.00360389
-0.00455183
0.0132736
-0.00511789
-0.00639889
0.00831598
0.0033091
-0.00522619
0.0096434
-0.000526378
-0.00317491
-0.0146433
0.0096889
-0.00084895
-0.0139825
0.0129119
0.00600996
-0.00493929
0.0089154
-0.0100671
-0.00144897
0.00260069
0.00497367
-0.00903816
-0.00470095
-0.00521695
-0.00478953
0.00270953
0.00729696
-0.0074303
0.0023159
0.00735583
-0.00224143
0.00873144
-0.00830652
-0.00573023
0.00530532
5.40881e-05
-7.55529e-05
-0.00820816
0.00822962
0.000209169
-0.00718155
-0.000265698
0.00723808
-0.00207608
-0.0122929
0.00193492
-0.00711308
0.00639338
-0.00121522
-0.0047488
-0.00199552
-0.000685981
-0.000124151
0.011863
0.000138391
-0.0284721
0.0200416
0.0145166
-0.00608606
-0.00851006
0.000583363
0.000288646
0.00763805
-0.00168755
0.0267297
-0.0314819
0.0064397
0.00135623
0.00209122
-0.00469281
0.00124535
-0.018215
0.00981284
0.00128414
0.00711804
-0.000203411
-0.0119738
-0.0017299
0.0139072
-0.00487574
0.0180478
-0.0125213
-0.000650788
0.00811708
0.0117635
-0.0108961
-0.00898448
-0.00962414
0.00918804
0.0113794
-0.0109433
0.0038145
0.00532916
-0.0066385
-0.00250517
0.00372766
-0.00249969
-0.00597677
-0.0192007
-0.000766677
0.0156682
0.00429919
0.00573082
0.000890956
-0.00334429
0.00580636
0.00779859
-0.00719081
-0.00641414
-0.00960594
0.00214129
0.0093547
-0.00189005
0.00112227
0.0030577
0.0105526
-0.0111289
0.0109636
0.00106492
-0.000899651
0.00699537
0.0054977
-0.00494698
-0.000193529
-0.00139496
0.00653547
-0.00733053
-0.00148244
0.00410301
-0.0140885
0.0059875
0.00399799
0.000415461
0.0076501
-0.0084608
0.000395237
-0.00290985
0.000563508
-0.00270756
0.0050539
0.011805
-0.00844125
0.000363942
-0.0067229
-0.00526628
0.00708148
0.00490771
0.0252818
-0.0270752
0.00889803
-0.00710469
-0.00495475
0.00615579
0.0024796
-0.00368064
-0.0115212
0.00497111
0.0100164
-0.00346632
-0.00482342
0.00700067
0.00900266
-0.0111799
0.013448
-0.0051631
-0.00890159
0.000616716
0.000232328
-0.0032495
0.00790126
-0.00488409
-0.00137268
0.00135577
-0.0104419
0.00972984
0.00313307
-0.0104177
-0.00244517
0.0122407
-0.0100414
-0.00268717
0.00252413
0.00372344
-0.0088491
0.00260152
-0.00512404
-0.00931687
0.0083081
0.00613281
-0.0015364
-0.00398859
-0.00119791
0.0049676
-0.00528366
0.0113829
-0.0110668
0.00121295
-0.0137943
0.0125813
0.00464769
-0.00610565
0.00398209
0.00261017
0.00150888
0.00213551
-0.00625455
-0.000285181
-0.0116002
0.0118854
-0.00643052
0.000853466
-0.00208682
0.00766387
-0.000785964
0.00888713
-0.0080783
-2.28666e-05
-0.00596488
-0.00317931
0.00345822
0.00568597
-0.00220633
-0.00529495
-0.00488038
-0.00717911
0.00598366
0.00607584
0.000274333
-0.00736105
0.0125507
-0.00515941
-0.000668448
-0.00672288
0.00685997
-0.000680763
-0.00500013
-0.00117907
-0.00106674
0.00939152
-0.0117244
0.00339957
0.00605101
0.000233813
0.00294564
-0.00923046
-0.000223722
-0.00497552
0.00240452
0.00279472
-0.00350019
0.00454902
0.00874254
-0.00979138
-0.012272
-0.00315683
-0.00341218
0.0112167
-0.0109475
0.000297011
0.00339624
0.00725424
0.00102556
-0.00375296
-0.0066111
0.0093385
-0.00493187
-0.00962763
0.00242995
0.0121295
-0.00439088
-0.00485561
0.00505734
0.00418915
-0.0114194
0.0109931
0.0116425
-0.0112161
-0.0015735
-0.00275775
-0.00829841
0.0126297
-0.0113912
0.00111683
0.0115857
-0.00131141
-0.00199248
0.00526271
-0.00327024
-0.00460378
0.00850947
-0.00640534
0.00249965
-0.000178098
0.0149232
-0.00559294
-0.00915215
-0.00540193
-0.00261434
0.0108098
-0.00279353
0.00171393
-0.004502
0.0101898
-0.00740173
0.000481032
0.00681602
-0.00119407
-1.82282e-05
-0.0108808
0.0108739
2.51247e-05
0.0127549
-0.00226148
-0.0186435
0.00815008
-0.0117817
-0.00115099
0.0147049
-0.00177221
-0.00639085
0.00965682
0.000790943
-0.00405691
0.00572155
-0.00567269
-4.88605e-05
-0.00669393
0.000658861
-0.00574083
0.0117759
-0.00959881
0.0132293
-0.00272738
-0.000903061
0.00598965
-0.00249971
-0.00722312
0.00373318
-0.0115828
0.0116588
-7.60047e-05
0.00955411
-0.0138682
0.00110707
0.003207
-0.0107577
-0.0029534
0.0184201
-0.004709
0.00803321
-0.00035196
-0.00167322
-0.00600804
-0.00454619
-0.00770796
0.0172217
-0.000797218
-0.0113321
0.00684569
0.0177583
-0.0198043
-0.0018889
0.00393492
0.00489716
0.00233609
-0.00541274
-0.00521058
0.00542309
-0.000212503
-0.00202797
0.0113701
-0.000738568
-0.0086036
-0.00248875
0.0029535
0.00994187
-0.0104066
0.00657374
0.0154742
-0.00899783
-0.0130501
0.0113902
-0.0136616
0.0043439
-0.00207243
0.0100922
0.000122499
-0.0102147
0.000174576
0.0098352
-0.0100098
0.0111241
-0.0134459
0.0118759
9.26346e-05
-8.2435e-05
0.00895717
-0.00896737
0.000186658
0.0158614
-0.0158157
-0.000232375
-0.00132798
-0.00396449
-0.00805564
0.0133481
-0.00494962
-0.00292891
0.00098323
0.0094129
-0.0163117
0.00591553
-0.00780169
-0.00204406
0.00836319
0.00148256
-0.00948686
0.0104633
-0.00278783
0.00181136
0.00145317
0.00756567
-0.00257432
-0.00644452
-0.00360341
0.000865798
0.00617606
-0.00343845
-1.96412e-05
0.00287085
-0.00363345
0.000782245
-0.00396477
0.00972735
-0.00563487
-0.000127711
0.00287362
-0.00913759
-0.00531879
7.48913e-05
-0.00852705
0.00845216
-0.00323362
-0.00310166
0.00143751
0.00489777
0.00472186
-0.00272404
-0.00199782
0.0118432
-0.011776
-0.0023921
0.00232494
-0.0011004
-0.00716599
0.00662772
0.00163867
-3.10094e-05
4.00312e-05
0.00652718
-0.0065362
0.00325802
-0.00267961
-0.0103604
0.00978202
0.00751782
-0.000192524
-0.00732529
-0.0109496
-0.00709004
0.0105529
0.00748668
0.00630544
0.00982938
-0.016932
0.00601696
-0.00216145
0.00339618
-0.00725169
-0.00243945
0.00243754
-0.0135066
0.0135086
0.0037207
-0.00734591
-0.00713497
0.0107602
-0.000755555
-0.00168059
0.00790806
-0.00547192
0.00550694
-0.00676697
0.00245256
-0.00119254
0.00310568
-0.00515013
-0.00497746
0.00702191
-0.00977226
0.0109967
-0.00290685
0.00168243
0.0113149
0.01453
-0.0160122
-0.00983272
-0.00874695
0.00871654
3.04029e-05
-0.00101223
0.0102604
-0.0127783
0.00353015
0.000371875
-0.000611185
-0.00992523
0.0101645
0.00955718
0.000400831
-0.0109956
0.00103755
-0.00420483
-0.0071058
0.00893678
0.00237386
-0.0101576
0.0143857
-0.00509431
0.000866144
-0.0040634
-0.0049902
0.00296201
-0.000596209
-0.000111601
-0.00702664
0.00773445
-0.0229831
9.82521e-05
0.00201915
0.0208657
0.000904995
-0.00581066
-0.00300763
0.0079133
0.0143553
-0.00118819
-0.00465603
-0.00851107
-0.00251974
-0.00550518
0.00103783
0.00698709
0.00413283
-1.25124e-05
-0.00412032
0.00680727
0.00359363
-0.00226601
-0.00813489
0.00523914
-0.00414142
0.0102843
-0.011382
0.000318255
0.010753
-0.00354764
-0.00752365
0.00259204
0.00372933
0.00803392
-0.0050991
0.00037417
0.00472493
-0.00665897
0.000956338
0.0017598
0.0011125
-0.00917317
0.00630087
-0.00872095
0.0127719
0.00384361
0.0131495
-0.00277072
-0.0142224
-0.00845908
0.00827911
-0.0131154
0.0132954
-0.00125004
-0.00626961
0.00219298
0.00532667
-0.00697252
0.0131829
0.00396195
-0.00460479
0.0010291
-0.000386255
-0.00433008
-0.0137383
0.00429408
0.0137743
0.00898838
-0.00896505
-0.000100475
7.71544e-05
0.00732099
-0.00857652
0.00181866
-0.000563135
0.00185839
0.00733514
-0.0130581
0.0038646
3.37134e-05
0.00625337
-0.00628708
0.00408333
-0.0104653
0.00824032
-0.00394825
0.0106212
0.00896162
-0.0156346
0.00299711
-0.00309556
-0.0143115
0.01441
-0.00431414
0.00712774
-0.0143603
0.0115467
-0.0102451
0.00815275
0.0106679
-0.00857559
-0.00637183
0.00872939
-0.00564113
0.00328357
-0.00138194
0.00602666
0.000981647
-0.00562637
0.00296658
-0.00432759
0.00446238
-0.00310138
0.0057662
0.00214637
0.00189644
-0.009809
0.0160209
-0.0108595
-0.000679794
-0.00448155
1.06836e-05
-0.00776841
0.00775773
0.00489895
-0.00715974
-0.0219728
0.0242336
-0.000998028
-0.0106093
-0.00319493
0.0148022
-0.000640236
-0.00484085
0.00548108
0.0014895
0.00704476
-0.00114413
-0.00739013
-0.00195168
-0.00705406
0.0056897
0.00331604
0.00561679
-0.00470713
-0.00826207
0.0139925
-0.0109072
0.00315805
0.00334614
-0.00650419
0.0106779
-6.09947e-05
-0.0012362
-0.00938071
-0.00207655
-0.0035337
0.00561025
0.00375333
0.00249474
0.0211904
-0.0255063
-0.00896784
0.0132837
0.00322389
0.00686905
-0.00525306
-0.00483988
-0.00735828
0.0141807
0.00935271
-0.0161751
0.00843249
0.00292384
-0.00112079
-0.0102355
0.013711
-0.00914526
0.00589769
-0.0104634
-0.00780196
0.00358174
-0.00989166
0.0141119
-0.0126467
0.0226039
-0.00883858
-0.00111861
-0.000351883
-0.00533901
-0.00736132
0.0130522
0.0102105
0.00423443
-0.0119708
-0.00247412
0.00557157
-0.0148672
0.00937166
-7.60183e-05
-0.0128866
-0.000483081
0.00840986
0.00495984
-0.00260084
0.00673747
0.00291497
-0.0070516
-0.00162623
0.00652072
0.00526497
-0.0101595
-0.0136735
0.00702335
-0.000625877
0.007276
0.00120815
-0.00362741
0.00721597
-0.00479671
0.00582731
-0.00293074
0.00208
-0.00497657
0.00554117
0.00108094
0.00054919
-0.0071713
-0.00809721
0.0086884
0.00322077
-0.00381196
-0.00194132
0.0103549
0.000195533
-0.00860908
0.00838506
-0.00492397
-0.00323338
-0.000227714
0.00716424
4.70172e-05
-0.00721126
0.00523461
0.00405308
-0.000921163
-0.00836653
0.00247497
0.00649626
0.00550671
-0.0144779
2.78901e-05
-0.0117094
0.0116815
-0.00611675
0.0235908
-0.00345701
-0.0140171
-9.23051e-05
0.00879051
-0.0086982
-0.000582432
-0.00629324
0.00113012
0.00574555
-0.0115397
0.0058819
0.00449266
0.00116513
0.0023654
0.00193192
-0.0134797
0.00918233
0.00680733
0.0107511
-0.00401709
-0.0135414
0.0103642
-0.00354503
-0.00991842
0.00309928
-0.0128817
0.00737249
0.0197389
-0.0142297
-3.29067e-05
0.00505218
-0.00505261
3.33348e-05
-0.00522191
0.00516915
5.27594e-05
-0.0130816
0.000187184
0.00553615
0.00149454
0.00316706
0.00868467
-0.0133463
0.00679524
-0.00808452
0.00521636
-0.00392708
-0.00669651
0.00586585
-0.000222976
0.00105364
-0.00136228
-0.0109855
0.0140064
-0.00165859
-0.00493536
0.00237454
0.00781329
-0.00525247
0.00843593
-0.00324846
0.00123279
-0.00642026
-0.00551949
-0.000961502
0.00646
2.09999e-05
-0.000976151
-5.18333e-05
0.00927533
-0.00824735
0.0011309
-0.000970246
0.00909772
-0.00925837
-0.00821491
0.0114808
-0.0120482
0.00878227
4.53316e-05
-0.010329
0.0102837
-0.00367625
0.000312424
0.00930637
-0.00594254
-0.00699074
0.00817468
-0.0111507
0.00996678
-0.00718625
0.000551952
0.00216677
-0.00334239
0.00908197
0.000512375
-0.00625195
-0.00241744
0.000339891
-0.00406082
-0.00356445
-0.0116214
0.0116766
0.00350922
-0.00517214
-0.00061577
-0.00129842
0.00708633
-0.0177354
0.00598486
0.00178607
0.00996449
-0.00556383
0.0128971
-0.00645047
-0.000882805
0.00387351
0.00152357
-0.00781452
0.00765968
0.00777439
-0.0154341
0.00106687
0.0169856
-0.00393402
-0.0141185
-0.000217821
-0.000307993
-0.00761534
0.00814115
-0.0081645
0.0133922
-0.00539296
0.000165278
0.00770259
-0.00484707
-0.00698338
0.00412786
0.00196265
-0.000263609
0.00240274
0.0119273
0.00330114
-0.017187
0.00195857
-0.00832301
-0.00104566
0.00271333
0.00665534
0.0030778
-0.00344015
-0.00462784
0.0142645
-0.00959642
0.00748534
-0.0121534
-0.0016046
0.00922823
-0.0159606
0.00833701
0.00547385
-0.00693593
-0.000700087
0.00216217
-0.00607277
-0.00211401
-0.000204639
0.00839142
-0.00453085
-0.00426172
0.00879257
0.00114555
-0.0122683
0.0108606
0.00026213
0.00463519
-0.00449638
-0.00466965
-0.00772118
0.00977585
-0.00185654
-0.000198125
0.0109128
0.00299687
-0.0117412
-0.00216846
-0.00424262
-0.00620408
-0.000722989
0.0111697
0.00710501
-0.0021623
0.00823737
-0.0131801
-0.00780223
-0.000412683
-0.00918799
0.00492627
0.0011864
-0.0103147
0.00330072
0.00582754
0.00304538
-0.0109032
0.00597793
0.00187991
0.00165088
0.000412052
-0.00822972
0.00616678
0.00123069
0.00529124
-0.000366116
0.00931474
-0.0018403
-0.00710832
-0.00364325
-0.000395687
-0.00340771
0.00744665
-0.00216322
-0.0029137
0.00557103
-0.000494118
-0.00851472
-9.90101e-05
-0.0142113
0.00511121
0.00747383
0.0203883
-0.000189275
0.00281334
-0.0230124
-0.00904331
0.0139814
0.00286212
-0.00780016
-0.00256977
0.00138855
0.00878587
-0.00760464
0.0010541
0.0029913
-0.00231367
-0.00173172
-0.0153711
-0.00319263
0.0132445
0.00531918
0.000344169
0.0066001
-0.00132747
0.000216441
0.00325592
-0.0102372
0.00676488
-0.00627548
-2.02902e-05
0.00231373
0.00398204
-0.00884893
0.0109389
-0.00174583
0.00499203
-0.00450037
-0.000491662
-0.00730787
0.00101976
-0.00568011
0.0119682
-0.00332766
0.00500967
-0.00386373
0.00218172
-0.00716921
0.00807422
-0.00333581
0.0024308
0.00316135
-0.000520534
-0.00740178
0.00476097
-0.00320775
0.0201013
-0.0270511
-0.00283643
-0.00197945
0.00193839
0.00287749
0.00937513
-0.0146548
-0.000662451
0.00594214
-0.00391774
0.00292293
0.00504031
-0.0040455
-0.00117768
0.00619901
-0.00170083
-0.0033205
-0.00696683
0.0015452
0.00162994
0.0037917
-0.00399413
0.000341989
0.00365214
0.00895984
-0.00426486
-0.00454723
-0.000147744
0.000677473
0.00460056
-0.00698462
0.00170659
-0.00479588
-0.00581036
0.00592616
0.00468008
-0.00256989
0.00656353
-0.00559675
0.00160312
0.00231763
-0.00438572
0.00302204
-0.000953948
0.00850443
0.000217904
-0.00872233
0.00731555
-0.00903643
0.00448386
-0.00276299
-0.0114972
-0.000316122
0.0118133
0.00467351
-0.00387772
0.000906734
-0.00170252
-0.000363326
0.00813791
-0.00889364
0.00111906
-0.00403831
0.0050561
0.00129983
-0.0046121
0.00987314
0.00912468
-0.00768958
0.00760049
8.90953e-05
0.000175734
-0.0121273
0.0119516
0.0164491
0.00196185
-0.00347117
-0.0149397
0.00345621
-0.013476
-0.00165107
0.0116709
0.00258504
0.00305105
0.00174954
-0.00738564
-0.00462819
-0.00459659
5.92185e-05
0.00916556
-0.00221093
0.00301199
-0.00542926
-0.0100587
0.00183307
0.0131988
-0.00497317
-0.0199089
0.0145851
0.00641929
-0.00109551
0.00877893
3.88103e-05
-0.00881774
-0.00510017
-0.00686663
0.00443982
0.00752698
-0.00499189
-0.00721992
0.00215315
-0.00720977
0.0039164
0.00452405
0.00293683
-0.00383449
-0.00701398
0.00791164
-0.00490459
2.52557e-06
0.00490207
-0.0115386
0.00469559
0.00477734
0.00206568
0.00288288
-0.00773982
-0.00235282
0.00983912
-0.00313534
-0.000234682
-0.0064691
-0.00668371
0.0110867
0.0065432
-0.0109462
-0.00200258
-0.00419034
0.00159163
0.00460129
-0.00278309
-0.0022385
0.00502158
-0.00489654
-0.0102904
-0.0047219
0.00234573
3.11582e-05
0.00473032
-0.0071072
0.00944918
-0.00686786
-0.00992946
0.00734815
-0.00350531
0.00125992
0.00705962
-0.00481424
0.00657481
-0.00462926
-0.000649841
-0.0012957
-0.00753814
0.00122765
0.00588699
0.000423495
-0.00465991
0.010696
-0.0116298
0.00453606
0.000335005
0.00675872
0.0110276
-0.00882954
-0.00693111
0.00473308
-0.00874672
0.0018489
0.016347
-0.00842572
-0.00556877
0.0090728
0.00492169
-0.000982583
0.00877885
-0.00333288
-0.00446339
0.000510186
-0.00534809
-0.00354696
0.00838487
0.00999767
-0.00659628
-0.000405096
-0.00299629
0.00312018
0.00231659
-0.0076477
-0.00210292
0.00238106
0.00586539
-0.00614353
-0.00176683
0.00917407
-0.0113175
0.00391031
-0.00561845
0.00135611
0.00135946
0.00290288
-0.0121091
0.0122832
-0.000174136
0.00863824
-0.00853772
-0.000100512
0.00345277
-0.0132314
-0.00509818
0.0148768
0.00294339
0.005577
0.00131873
-0.000138536
0.00488388
-0.00474534
0.00825253
0.0073345
-0.015587
-0.00869924
0.00531091
0.00375399
-0.000365655
-0.00488526
0.00161009
0.00397092
-0.000695748
-0.0147296
0.00689451
0.00808455
-0.000249485
-0.00473045
-0.00527655
0.00510241
0.00769019
-0.00123709
-0.00492183
-0.00153127
-0.00803909
0.00868907
-0.00530989
0.00143651
-0.00913058
-0.000470029
0.0081641
-1.41066e-05
-0.00456175
0.00457586
0.0220427
0.000137161
0.0023853
-0.0245652
-0.000840986
-0.00165606
-0.0121749
0.0146719
0.00380748
-0.00515018
-0.00239044
0.00373314
0.00150465
0.0114409
-0.00464061
-0.00830493
0.0123919
-0.0123791
2.9489e-07
-1.30119e-05
-0.00698131
-0.00629388
0.0098378
0.00343738
0.00407037
0.00307597
-0.00808079
0.000934451
4.65243e-05
0.00756316
-0.0077134
0.000103716
-0.0103772
0.00334416
0.00840648
-0.00137347
0.00790667
0.00477865
-0.00800303
-0.00468229
0.000176457
-0.00711124
0.00355109
-0.0018308
0.0106716
-0.0056974
-0.000739625
-0.000886431
0.00732345
-0.00963074
0.000464044
0.0091667
0.0140782
0.00605849
-0.00455087
-0.0155858
-0.00917451
0.000187061
0.0091639
-0.000831884
-0.00216227
-0.00552142
0.00851557
-0.00103812
-0.00111283
-0.00298232
0.00513328
0.00230635
-0.0117477
0.00887073
0.000570576
0.00741223
-0.00113604
-0.00723577
0.000959579
-0.00899273
0.00186183
0.000706246
0.00642465
-0.00344155
0.00227589
-0.00474207
0.00590774
0.00195746
0.00127436
-0.0115847
0.00835289
0.000390119
-0.00787154
-0.000527787
0.00800921
0.00777315
0.0010486
-0.000163539
-0.00865822
-0.00931045
0.00215373
0.00842454
-0.006659
-0.00882275
0.0154817
0.0129264
-0.00656238
0.00280064
-0.00916462
0.0010221
0.00720193
-0.00441655
-0.010493
0.00192987
0.00372843
0.00483469
0.0129661
-0.0133622
0.000396096
-0.00794521
-0.00269996
0.00556417
0.005081
-0.0103438
-0.00803017
0.00538825
0.0129858
0.010443
-0.0109036
-0.00133694
0.00179762
-0.00152065
0.0050822
-0.00400973
0.000448184
-0.0131809
0.00432051
0.00301912
0.00584126
-0.0194958
0.0241834
0.00406331
-0.0087509
0.00874186
-0.0189059
-0.000986748
0.0111508
-0.00777167
0.00990672
-0.0183254
0.0161904
-0.00806171
0.0177337
0.00176222
-0.0114342
0.00071693
0.00845146
-0.00200168
-0.00716671
0.0128351
-0.0096369
-0.000314865
-0.00288335
-0.00223999
-0.00214966
0.00328846
0.00110118
-0.00603644
-0.0125836
0.0107897
0.00783034
-0.00861559
0.0114747
0.00997604
0.00715297
-0.0052606
-0.00655257
0.0046602
0.00256976
-0.00332599
-0.00146779
0.00222402
0.00568645
-0.00563253
-0.00748018
0.00742626
-0.00230466
0.00661204
-0.000478444
-0.00382894
-0.0091932
-0.00150376
0.0114139
-0.00691187
-0.00170093
0.00854596
6.68383e-05
0.00290862
-0.00649584
0.00358722
0.00229262
-0.00301915
0.011223
-0.0104965
0.00905055
-0.0127704
0.00188761
0.00183224
0.00568313
-0.00613278
0.00044965
-0.00884014
0.000224554
0.00786583
-0.00300952
-0.00759472
0.00273841
0.00249391
0.00199363
0.00873877
-0.0132263
0.00557471
-0.00605244
0.000477723
-6.69805e-05
0.0068305
-0.00772203
0.000958515
-0.0097243
-0.000919263
0.0129362
-0.00416561
-0.000709552
0.000961877
0.00391328
0.000575901
-0.00475442
0.00351011
0.000668415
0.00781154
-0.00747076
-0.00186144
0.000918113
0.0131885
-0.00833396
-0.00577265
-0.00447114
0.00942721
-0.00495607
-0.0121118
0.00463715
-0.00281725
0.0102919
0.00950196
-0.00860068
-0.0140822
-0.00472438
-0.00565564
0.0194304
-0.00905039
-0.0136981
0.00869944
0.0124438
-0.00744514
-0.000260752
-0.0116283
0.0118891
0.0184245
4.72378e-05
-0.0106351
-0.00783664
0.0107102
-0.00689725
-0.000958614
-0.00285438
-0.00782326
0.00554674
-0.00137964
0.00365616
0.000102568
-0.00814534
0.00804277
-0.00580369
0.00597426
-0.000170577
-0.0042526
-0.00450239
-0.0115262
0.0202812
-0.0108307
0.00234523
-0.00119969
0.00968517
0.0025638
0.00415932
0.0114036
-0.0102749
-0.00850084
0.00737213
-0.00308883
-0.00638011
0.00702793
0.00244101
-0.00641777
-0.00325725
0.00968197
-6.95035e-06
0.00218095
-0.00124425
-0.00611583
0.00517913
0.00707927
0.000327942
-0.00904423
0.00163702
0.00217617
-0.00151467
0.00239014
-0.00288419
0.00287259
-0.00237855
0.00583365
0.00567504
-0.00581164
-0.00569705
0.00287844
0.00678707
-0.00701795
-0.00264756
0.00600305
0.00259768
-0.00472722
0.00748978
-0.00905576
0.00189391
-0.00998893
0.00699776
0.00376684
-0.000775672
0.0117836
-0.00390822
-0.0123465
-0.00317286
0.00843091
0.00424391
0.00822753
-0.003995
-0.00695607
-0.00192499
-0.00110786
-0.0110448
0.0102772
0.000983532
-0.000215941
-0.000680238
0.0138122
-0.00142366
-0.0117083
-0.00902725
0.00183883
0.00401556
-0.00143755
-0.00905247
0.00254618
0.00794384
0.00826234
0.001144
-2.92083e-05
-0.00937713
-0.0123737
-6.04722e-05
5.35924e-05
0.0123805
-0.00322496
0.0035127
-0.00576511
0.00547738
-0.00850452
0.0107374
-0.0010974
-0.00113547
0.0111622
-0.0104224
-0.0092444
-0.00820621
0.0074011
-0.00233729
0.0031424
0.00660598
-0.000296948
-0.00207776
-0.00423127
-0.0125466
0.0120817
0.00594945
-0.00548449
0.00604414
0.00230193
-0.000767903
-0.00757817
0.00211474
0.00536998
-0.00671276
-0.000771961
-0.00397307
0.00399762
-2.45497e-05
-0.00232841
-0.00594101
0.00596475
0.00931518
-0.00925752
-5.76572e-05
-0.00507215
-0.00405212
0.00397409
-0.000540197
-0.006124
-0.000688027
0.00735222
-0.000707728
-0.00544072
0.00486004
0.00128841
0.00832664
-0.00946318
0.00113654
-0.0107276
0.0109998
0.0100766
-0.0103489
-0.00721519
0.00558959
-0.00379933
0.00542493
-0.00294738
0.00125964
0.00266773
-0.000979993
-0.000290947
0.0130806
-0.000134861
-0.0126548
-0.00672856
0.00326044
0.00331534
0.00384848
0.00489699
-0.00854231
-0.000203163
0.000369662
-0.0106147
-0.000420849
-0.00941492
0.00943551
-2.05851e-05
-0.0064876
0.0032859
-0.00714214
0.00213755
-0.00471931
0.000191314
0.00421974
0.00183252
0.00618457
0.000119542
-0.00528805
-0.00101606
0.00517921
-0.0129248
0.0103606
-0.00261499
0.00215633
-0.00296788
0.0109931
-0.0101815
0.0134076
0.00391923
-0.00205941
-0.0152674
-0.00340386
-0.0055624
-0.00180608
0.0107723
0.00404984
0.0169432
-0.0152674
-0.00572568
0.00195655
0.0123358
-0.0119136
-0.00237869
-0.00418601
0.000549867
0.00858063
-0.00494449
-0.00149984
0.0120506
-0.0065009
0.00871294
-0.00689383
-0.00268441
0.000865305
0.00286004
0.00742282
-0.0102829
0.0069239
0.00153665
-0.000921502
-0.00753905
-0.0063634
0.0050868
0.000510164
0.000766438
-0.000606124
-0.00908168
0.000534037
0.00915377
-0.00665112
-0.00084179
-0.0002665
0.00775941
0.00381589
-0.00844972
8.61722e-05
0.00332035
0.0050432
7.27378e-05
0.00547904
-0.00555178
0.000690834
0.00973296
-0.0248416
0.0144178
0.00279552
-0.0070484
0.006696
-0.00244312
0.00401091
0.00457743
-0.00317063
-0.0054177
3.58362e-05
-0.00493376
0.00489792
-0.00268704
-0.00192382
0.0108964
-0.00628553
-0.00344055
0.0114626
-0.00987335
0.00185131
0.0120509
-0.00837607
-0.00808304
0.00440824
-0.0049463
0.0033879
0.00154113
1.72792e-05
-0.000743527
0.00392181
-0.00208451
-0.00109377
0.0130331
-0.0101731
0.00602179
-0.000696278
-0.00985918
0.00453366
-0.00274918
0.00257212
0.00308109
-0.00290403
0.000123523
0.0124884