/*--------------------------------*- C++ -*----------------------------------*\
  =========                 |
  \\      /  F ield         | OpenFOAM: The Open Source CFD Toolbox
   \\    /   O peration     | Website:  https://openfoam.org
    \\  /    A nd           | Version:  10
     \\/     M anipulation  |
\*---------------------------------------------------------------------------*/
FoamFile
{
    format      ascii;
    class       volScalarField;
    location    "3.3";
    object      SgRate;
}
// * * * * * * * * * * * * * * * * * * * * * * * * * * * * * * * * * * * * * //

dimensions      [1 -1 -3 -1 0 0 0];

internalField   nonuniform List<scalar> 
111485
(
6.40557e-17
1.04114e-05
2.2552e-05
5.04591e-17
5.47529e-05
3.40251e-18
3.56557e-05
6.3095e-06
1.40208e-05
9.17141e-07
3.92569e-05
1.26735e-05
2.8735e-06
5.819e-08
5.98955e-06
3.14513e-05
4.90101e-12
0.00283783
1.02371e-05
4.79975e-16
2.37238e-16
4.29438e-17
2.68831e-05
3.60986e-05
1.27914e-05
8.76294e-17
4.85634e-05
2.87203e-07
2.38875e-05
3.26939e-18
5.7425e-05
2.25188e-15
2.28852e-15
8.20089e-18
1.02873e-05
7.35324e-17
1.39512e-05
2.82971e-16
7.34093e-11
2.22363e-05
3.96044e-17
8.49448e-05
1.82866e-05
1.46242e-06
3.92467e-08
1.34486e-15
3.35793e-05
7.79638e-07
5.83453e-05
4.54283e-17
4.20216e-16
8.0353e-16
1.16364e-16
4.84144e-05
2.51819e-16
7.58431e-07
4.19588e-06
1.48506e-17
2.32172e-08
5.57315e-06
1.9954e-05
1.44785e-16
6.11457e-05
0.000121871
3.99285e-16
4.69942e-07
0.000371497
0.000119262
6.64293e-05
3.35364e-05
1.0725e-08
1.77983e-05
8.12262e-17
4.68775e-05
5.38038e-16
4.80656e-10
1.13969e-16
4.73994e-05
3.4338e-17
4.5156e-15
3.33573e-08
3.34966e-05
1.65372e-17
2.17574e-16
3.42224e-06
4.93913e-06
5.4591e-13
2.5421e-05
5.497e-08
1.80573e-13
9.97092e-07
3.9134e-05
1.43637e-05
5.61151e-16
6.9814e-05
8.16633e-16
1.86734e-16
1.47152e-06
1.32931e-11
2.06913e-06
4.02132e-16
2.25446e-05
4.74667e-18
2.70508e-05
3.85407e-06
5.69895e-16
8.88381e-19
3.8567e-14
2.38283e-06
1.11101e-10
2.69866e-15
1.18365e-06
3.16476e-06
3.65597e-06
2.77392e-16
3.29029e-12
2.75536e-17
3.5679e-17
5.9728e-06
1.60017e-16
1.18856e-16
1.8913e-15
6.3652e-19
9.78831e-18
2.51804e-06
2.38172e-09
3.54888e-17
1.81742e-14
8.87832e-17
1.42905e-07
1.70971e-06
3.18052e-05
1.51624e-16
3.22062e-15
2.63615e-16
6.22152e-05
1.99153e-18
5.98089e-10
2.61642e-05
1.68202e-06
1.69232e-07
2.99971e-06
2.68096e-05
3.36211e-06
5.5226e-06
4.38488e-16
1.77837e-18
1.22597e-16
5.08913e-17
3.41966e-05
2.40693e-06
1.1956e-16
9.98697e-11
7.08896e-16
5.65364e-10
9.94666e-06
1.5829e-05
6.49952e-06
1.25029e-10
1.80551e-16
7.75681e-17
6.13696e-05
2.38166e-05
3.51122e-09
3.06584e-10
1.85174e-11
5.29968e-06
8.41418e-18
8.03863e-09
6.42253e-08
1.7978e-17
1.40396e-16
1.06972e-07
1.91122e-18
6.45991e-17
2.5573e-16
2.27095e-17
1.60697e-16
1.86535e-16
1.01653e-15
1.82186e-16
1.77937e-16
1.70547e-06
7.66862e-06
2.88484e-05
1.03568e-15
7.82868e-06
2.87726e-08
1.23711e-07
8.91191e-17
6.09858e-10
1.53043e-16
3.015e-17
7.46225e-08
1.04168e-05
2.44908e-05
6.64775e-06
6.14545e-16
3.50893e-16
7.29814e-06
1.02167e-06
5.43532e-08
1.40561e-05
2.71561e-13
1.9322e-16
1.1153e-08
2.79695e-05
9.60663e-17
3.10089e-07
9.75219e-06
3.61368e-06
7.92958e-09
1.06117e-16
5.50531e-16
5.85192e-08
8.12988e-15
0.000142428
1.70932e-17
6.34281e-08
5.89232e-10
0.000140669
4.51135e-16
7.04897e-08
1.6992e-05
6.42925e-16
3.42274e-18
7.67316e-18
0.000186706
4.81078e-10
5.75004e-16
2.65073e-17
6.05462e-10
4.12571e-16
5.67274e-06
5.83444e-17
6.97574e-16
1.64084e-08
1.29058e-16
1.97604e-06
6.59971e-10
4.8412e-10
6.97111e-10
4.99696e-10
2.95137e-18
3.29431e-10
1.00745e-11
1.99606e-16
1.78097e-17
3.47518e-05
3.45629e-06
3.78983e-16
2.28274e-15
4.44277e-12
2.4305e-16
2.78336e-15
1.84783e-07
4.8239e-17
1.06317e-15
4.49721e-08
1.1711e-16
3.33068e-11
3.24166e-10
5.06914e-16
3.28886e-16
3.86327e-12
2.33343e-17
1.35439e-16
2.49401e-16
2.40825e-11
3.19044e-05
2.06604e-05
5.13391e-06
4.56022e-05
5.7163e-06
2.30906e-06
8.02006e-07
1.26557e-15
2.25678e-16
6.30458e-17
1.42501e-16
2.97951e-10
7.04834e-14
2.90258e-05
4.26797e-16
2.76506e-17
1.95328e-06
3.42056e-06
3.01698e-06
2.35574e-08
4.82151e-09
5.93817e-06
4.34274e-06
2.77814e-06
2.82341e-17
1.09973e-06
2.3618e-18
4.16452e-10
3.08776e-16
0.000295972
8.08894e-05
1.60745e-05
2.28321e-16
9.49739e-17
3.36556e-07
1.88933e-15
4.8598e-16
1.0486e-16
3.5958e-15
2.49967e-11
3.26087e-15
5.56244e-06
1.67992e-05
2.38202e-05
5.78713e-16
1.64513e-18
3.44691e-16
4.06761e-07
1.1611e-15
1.01184e-06
0.000224656
5.52711e-10
3.93208e-18
2.29328e-16
9.38048e-17
3.74985e-15
3.0676e-06
1.40731e-05
2.76875e-18
8.10363e-07
3.21926e-15
1.98737e-16
9.19492e-05
1.62422e-06
1.35139e-05
3.77939e-07
1.65499e-15
2.10814e-15
2.36681e-16
1.14439e-06
9.35502e-16
6.82901e-06
3.70076e-17
2.70738e-13
2.86161e-07
1.56626e-06
1.15385e-07
7.77828e-08
3.596e-05
7.88678e-19
4.44073e-05
2.76899e-06
8.1277e-06
3.25638e-05
1.32863e-05
7.1987e-18
7.2377e-16
2.46386e-17
8.75053e-17
3.28847e-05
1.23823e-07
4.9886e-05
8.11483e-05
1.11685e-18
2.00332e-05
1.64357e-17
5.92393e-16
1.61164e-05
4.82551e-18
4.01165e-05
5.5812e-16
1.78239e-18
2.76941e-05
7.41378e-18
1.51438e-15
1.0304e-06
5.43658e-18
6.87641e-07
1.77473e-06
6.1803e-16
6.59244e-06
1.3647e-05
1.38827e-06
4.15758e-07
5.69853e-16
2.74275e-16
2.84878e-15
1.86616e-16
1.2604e-06
2.09035e-17
5.43272e-06
0.000153855
2.02409e-17
2.13401e-16
9.13439e-07
8.18109e-08
7.98726e-16
3.01809e-05
1.78542e-17
5.30943e-05
3.17781e-05
1.40286e-18
8.61663e-07
2.81126e-06
5.00963e-17
1.33621e-16
5.09027e-16
5.2254e-06
4.13899e-16
3.05033e-18
2.21311e-11
1.75438e-16
1.37332e-05
6.49915e-19
1.41309e-16
2.24276e-05
2.14519e-09
1.69212e-05
2.59802e-05
1.39957e-18
1.67033e-15
1.04314e-06
3.08117e-16
1.23468e-07
1.14096e-05
0.000135849
0.00106434
4.73612e-17
1.63525e-15
3.28713e-07
1.27139e-15
3.97226e-05
4.2096e-05
2.82292e-16
1.40821e-11
1.0424e-07
1.75883e-15
2.57942e-05
3.48048e-05
8.68336e-16
6.03247e-17
3.73421e-17
2.63734e-05
6.4391e-16
6.33354e-10
9.19292e-16
1.44478e-13
7.09193e-17
1.35809e-08
2.72726e-15
1.05393e-17
1.03168e-05
7.70172e-08
6.68343e-16
2.0126e-17
2.50593e-16
4.50405e-16
6.78544e-06
6.59035e-16
5.64633e-06
3.08941e-06
3.44933e-06
7.78823e-18
3.82714e-06
5.73838e-16
3.6364e-05
6.65021e-17
1.71745e-16
2.76724e-16
4.20568e-05
1.26193e-16
3.11975e-16
3.60383e-10
6.35894e-17
4.69339e-17
8.9224e-07
2.59531e-17
1.73085e-15
1.27016e-17
4.99612e-17
5.158e-16
8.16802e-17
1.30401e-17
8.8985e-06
2.78907e-18
3.47855e-07
2.50155e-06
1.42437e-06
4.44038e-17
5.88405e-07
1.99856e-17
4.91016e-17
2.51308e-06
1.58245e-06
2.94169e-05
2.55214e-05
2.01857e-16
2.58445e-06
7.51169e-05
3.21396e-16
1.37779e-16
3.03138e-06
1.27361e-16
5.42564e-16
2.78081e-15
3.73843e-06
2.41516e-17
7.67035e-05
2.58035e-15
1.07659e-15
6.76584e-07
1.53111e-11
2.22476e-18
2.4307e-16
1.55079e-16
9.73242e-05
5.12492e-05
6.99763e-17
1.96235e-17
1.83147e-15
1.10389e-18
2.17837e-13
6.60748e-05
6.62796e-18
2.38082e-17
4.05971e-06
2.69717e-17
3.31307e-05
5.11165e-17
4.33971e-07
1.61593e-16
5.88062e-07
8.17536e-10
6.3988e-08
3.2697e-16
1.06636e-16
1.47847e-16
2.40502e-16
1.00369e-18
1.59692e-05
1.09106e-17
3.69096e-08
5.44446e-16
1.61661e-06
7.26403e-16
7.99606e-05
2.66948e-16
1.10992e-15
1.86781e-05
2.93015e-06
1.53216e-06
3.99022e-06
5.56133e-06
2.52383e-05
1.56824e-17
1.99273e-05
6.45807e-06
9.02246e-18
6.72276e-11
3.96172e-05
1.25868e-05
1.49836e-15
6.14534e-06
6.07091e-06
1.3086e-06
1.50489e-06
2.1214e-13
1.52103e-05
7.29754e-07
2.22347e-07
2.75901e-05
1.02572e-15
1.04153e-06
2.94221e-16
2.45675e-12
0.00075942
1.70307e-16
5.65823e-07
3.17254e-17
2.54823e-15
4.22119e-13
3.93318e-06
1.35936e-10
1.25462e-08
4.88711e-15
1.83851e-05
1.35347e-05
3.30181e-17
1.75925e-14
3.21412e-06
2.28502e-16
1.167e-17
4.5687e-17
1.87877e-16
1.73983e-05
2.0733e-17
1.81626e-16
1.06607e-05
8.39479e-11
2.12236e-16
1.11929e-05
6.93197e-16
8.59145e-10
1.87307e-16
2.75654e-16
6.0519e-05
2.0422e-18
7.15811e-17
5.88216e-15
5.66035e-16
7.34331e-16
3.62766e-05
5.58909e-13
6.20785e-17
9.59194e-05
2.42103e-06
3.00327e-05
2.9835e-05
1.3305e-06
7.79952e-08
6.14237e-18
7.29732e-05
4.25006e-05
7.48721e-16
3.3005e-06
5.17084e-05
6.13094e-06
5.28501e-16
3.30445e-05
3.0196e-05
1.16899e-16
1.67202e-05
3.21185e-09
4.86149e-16
3.53627e-05
2.97078e-07
3.09718e-17
4.67268e-13
4.00584e-05
1.96439e-06
1.97778e-05
1.92257e-05
2.48482e-13
3.66301e-15
1.01457e-05
2.88307e-07
1.75603e-14
1.59619e-05
1.57222e-05
1.3329e-12
7.1671e-18
2.26334e-16
7.53038e-17
2.18134e-17
1.28399e-18
2.62706e-17
1.54197e-08
1.60491e-15
8.66373e-14
5.8732e-16
8.09972e-17
2.94296e-08
4.3948e-05
3.50895e-16
4.16971e-05
1.08784e-17
1.64543e-15
5.07146e-16
4.59561e-05
5.79154e-07
1.33645e-15
6.90047e-16
7.40222e-18
2.11695e-19
0.000303495
1.03032e-12
2.2193e-15
1.93265e-06
3.81913e-09
2.36277e-17
4.06608e-05
6.86733e-06
1.41629e-16
5.58032e-18
1.32244e-18
1.61779e-06
1.32172e-12
1.99896e-15
2.72534e-17
7.75245e-16
6.2166e-08
5.45443e-18
7.92053e-16
1.88425e-19
4.70571e-05
7.85713e-07
1.99956e-17
0.00494425
0.000188288
5.65312e-16
4.70746e-17
7.35309e-17
6.355e-05
2.79031e-07
8.42708e-16
7.64125e-09
0.000175004
3.53496e-06
1.33422e-15
1.88678e-15
7.1348e-05
1.89148e-06
8.34146e-18
9.88935e-17
2.20203e-17
4.03229e-18
3.2427e-17
8.70575e-18
2.37039e-05
3.15316e-16
5.32586e-17
3.78995e-16
1.01661e-05
1.48885e-12
1.92872e-16
6.33315e-17
0.000126661
2.09912e-12
3.5799e-12
1.17818e-15
1.05675e-17
3.24119e-12
1.05264e-16
2.9775e-06
2e-12
1.44544e-12
1.92466e-16
2.68507e-16
2.17051e-16
1.16209e-19
1.54493e-05
7.04331e-18
3.37404e-17
1.26699e-06
4.77475e-17
1.74711e-07
1.45167e-06
2.24892e-16
6.76617e-13
0.000759977
1.3798e-07
3.48379e-05
3.05104e-07
5.88913e-05
1.7258e-13
5.04753e-15
1.19425e-07
9.35737e-05
2.88916e-16
1.12655e-16
1.14584e-12
0.000792089
3.47262e-16
2.77422e-17
3.65587e-06
3.15945e-06
1.56436e-06
2.00307e-16
3.42453e-16
4.24598e-16
8.37652e-13
2.75488e-15
1.5915e-15
8.34123e-16
1.04491e-06
6.043e-17
1.11772e-14
1.78244e-12
7.0463e-17
1.29026e-16
1.33161e-16
2.73332e-12
7.41138e-17
7.58039e-17
6.09321e-08
1.58848e-16
2.14191e-17
2.31059e-17
1.2276e-17
2.6975e-15
3.33923e-16
1.84037e-19
6.64247e-13
7.7051e-16
7.74531e-17
1.72632e-15
6.75281e-18
5.13822e-09
9.51321e-15
5.82528e-17
5.02485e-06
1.05932e-08
7.74006e-10
7.98419e-08
8.56395e-15
1.17171e-17
9.23369e-09
1.13372e-05
3.45463e-07
6.66131e-16
1.42961e-11
1.7198e-15
7.52169e-16
2.24407e-15
4.29544e-07
2.32944e-09
1.84621e-05
3.56474e-16
2.64327e-06
4.93398e-17
6.341e-16
9.20197e-18
1.61663e-16
9.73869e-16
9.15436e-16
1.19846e-16
4.25994e-16
6.58443e-05
1.21078e-15
3.30272e-16
1.97278e-06
6.51032e-18
1.70581e-15
9.79988e-16
9.6785e-17
2.46785e-17
1.20518e-15
1.82451e-09
1.70052e-16
3.17992e-16
5.96768e-05
2.50863e-08
2.10652e-06
3.62715e-08
1.95538e-08
1.59535e-18
1.31999e-17
1.09568e-05
7.15181e-18
1.66728e-07
3.08013e-07
3.45886e-08
9.44351e-11
5.86715e-11
1.44844e-09
1.99979e-17
2.58049e-15
2.27125e-08
1.49943e-15
1.15938e-06
2.24079e-06
1.94477e-16
2.10555e-16
6.04534e-10
1.77198e-13
7.37554e-18
3.94166e-09
4.33988e-19
6.32795e-19
2.75372e-16
9.80449e-17
9.23875e-17
1.16367e-16
4.3635e-07
8.70485e-17
2.5342e-17
3.95494e-16
7.02552e-09
5.3818e-08
1.64055e-06
1.42813e-08
1.73235e-17
5.31461e-17
1.96126e-07
8.61148e-19
3.23148e-17
2.04446e-16
2.10276e-05
6.60677e-07
1.00962e-17
2.03118e-16
2.49035e-16
3.48852e-17
7.14917e-19
1.45932e-17
8.04276e-06
2.95554e-17
4.70185e-11
2.82433e-05
4.69449e-18
7.12525e-16
8.74922e-17
1.42717e-08
1.11158e-16
2.11517e-16
6.49171e-19
5.98626e-09
2.06358e-17
5.04395e-06
1.21836e-09
5.58284e-12
5.96782e-18
6.18361e-08
2.86747e-06
5.43814e-05
1.8619e-16
6.24238e-09
8.1471e-06
1.43363e-16
9.68158e-17
3.28831e-16
2.16531e-16
1.27593e-08
6.07259e-06
3.84573e-06
1.73962e-10
1.06144e-17
1.20349e-08
2.53263e-16
7.56143e-16
2.31752e-16
1.95297e-17
1.75754e-05
6.77203e-18
1.67301e-16
2.34002e-09
1.2818e-06
7.3016e-17
3.7568e-06
1.68012e-15
1.09003e-06
2.57378e-15
3.42798e-18
9.39762e-18
2.66398e-16
1.90202e-16
6.1477e-07
0.000402242
3.68751e-17
3.79415e-16
1.8461e-16
1.29181e-17
1.11448e-15
5.08616e-17
5.58341e-05
5.36759e-09
2.87551e-05
3.09396e-16
6.07047e-09
3.07803e-08
3.894e-15
7.1261e-08
1.22428e-16
2.62115e-06
2.88996e-05
2.5386e-05
1.58717e-06
2.88183e-07
7.37089e-18
5.35563e-18
4.49143e-18
1.44327e-08
3.69528e-18
5.53114e-06
1.85369e-17
0.000210785
1.28112e-16
4.81807e-05
2.84535e-06
9.89615e-17
7.8294e-19
1.09536e-16
1.43894e-16
3.4382e-05
2.49321e-16
3.14885e-16
2.05022e-15
6.88701e-06
1.28591e-15
7.59792e-16
1.81133e-15
1.26297e-15
9.08032e-18
7.72617e-19
2.39705e-05
4.45216e-07
1.64825e-16
1.15306e-16
3.13318e-10
3.91292e-16
2.29641e-06
7.87684e-17
3.04804e-16
2.73127e-06
2.51793e-16
2.56945e-16
8.45798e-18
4.78708e-07
1.24854e-16
1.25945e-10
2.24588e-09
1.0312e-06
1.57566e-05
3.0611e-05
1.24165e-09
6.54572e-17
5.64487e-07
1.26563e-16
6.12044e-06
2.60428e-16
3.45899e-18
5.08638e-16
5.47983e-18
4.64137e-18
2.85739e-16
6.32736e-06
6.47529e-06
1.12932e-16
1.131e-16
9.67446e-16
4.71369e-07
1.58931e-08
3.60882e-16
1.4911e-05
2.07772e-07
8.98374e-17
2.99803e-13
1.01492e-15
2.73589e-06
1.49063e-05
5.43407e-18
5.67095e-18
2.93898e-18
2.09588e-18
3.28281e-05
3.78123e-18
0.000123248
7.51723e-18
2.16909e-07
7.9054e-07
3.05088e-18
6.51449e-07
1.34514e-17
1.90493e-18
2.36271e-06
3.62483e-11
8.54689e-06
1.29729e-18
1.90411e-16
3.20312e-17
3.7779e-05
3.64697e-16
9.91412e-17
7.36009e-16
5.2271e-10
7.17167e-16
1.14702e-08
2.97403e-16
4.01728e-16
6.22713e-17
1.43106e-14
4.26292e-15
2.42065e-05
3.30297e-05
1.02822e-16
7.40053e-09
5.41338e-19
1.08307e-17
1.94717e-15
2.53613e-16
2.96165e-09
2.64828e-07
5.93469e-16
2.3698e-07
1.3736e-13
3.45571e-06
4.44903e-18
3.20325e-13
8.96001e-13
8.86009e-08
1.5206e-06
4.38393e-06
9.25367e-11
8.96201e-17
3.15513e-05
2.22442e-16
1.28547e-16
2.52693e-08
9.9588e-05
8.92928e-11
3.5846e-18
4.55441e-19
6.55244e-10
2.44528e-16
6.83833e-17
8.42072e-09
6.07515e-17
2.01507e-16
6.17195e-06
1.2512e-07
1.00291e-07
8.44614e-06
1.18377e-10
3.17546e-17
6.32305e-18
9.84222e-09
1.4328e-06
1.24298e-17
1.06779e-16
1.51271e-05
1.9968e-16
3.39479e-16
1.35864e-15
1.44731e-15
8.0507e-16
0.00308536
2.99512e-18
2.88376e-07
4.87296e-16
1.79511e-05
4.6989e-18
1.16513e-15
1.51449e-15
5.58674e-16
6.75369e-17
1.05809e-17
5.31938e-06
8.86404e-18
5.41818e-18
5.47097e-16
3.58582e-17
8.90724e-17
5.04404e-18
2.49404e-06
3.79264e-17
6.95149e-07
2.39692e-06
3.77182e-17
2.92289e-06
8.8454e-18
4.39819e-07
2.11801e-09
5.41965e-17
5.69654e-16
4.88537e-17
5.8315e-16
1.22511e-05
8.66176e-09
5.15877e-16
1.19926e-09
1.5425e-07
4.70628e-16
2.14122e-15
1.01675e-15
5.60234e-16
6.14238e-17
5.07855e-17
1.3763e-17
3.91622e-16
1.15159e-17
4.70901e-17
3.32404e-16
1.02184e-10
6.66081e-16
1.5542e-17
2.87416e-17
9.86821e-07
1.84811e-17
1.27521e-07
1.76515e-16
4.99325e-16
8.89199e-17
1.44794e-16
9.09137e-08
1.057e-16
1.0613e-07
4.52775e-16
5.42774e-17
4.66165e-08
5.44544e-07
1.49883e-10
1.79363e-05
0.000265409
1.49584e-06
9.06366e-18
7.91472e-15
7.97162e-07
1.99811e-10
4.48675e-06
1.5188e-05
5.6285e-19
1.48315e-06
7.19904e-19
9.30864e-17
5.04227e-06
1.35214e-05
7.65501e-17
7.18895e-10
6.5486e-17
5.14452e-10
4.01495e-11
1.32737e-16
3.04948e-17
1.99554e-18
2.77861e-06
2.66127e-19
1.54218e-17
3.58391e-06
3.66974e-10
5.40991e-09
7.14781e-17
3.28979e-17
2.16127e-18
7.0471e-08
9.22923e-07
5.66287e-17
8.98904e-06
3.00459e-15
1.76305e-06
1.56375e-16
2.38985e-16
1.18063e-05
7.67845e-19
3.89296e-08
8.45519e-07
1.08933e-16
1.95235e-18
5.79995e-06
3.87406e-14
5.56207e-05
3.08029e-16
0.000312087
1.22931e-16
6.86124e-16
4.76399e-17
2.94593e-06
1.39884e-15
8.16201e-17
4.45654e-06
4.16695e-16
2.45222e-07
1.66249e-15
4.00339e-16
6.42432e-17
1.89072e-10
6.11085e-07
2.46834e-18
5.11082e-18
3.74231e-05
6.83054e-07
8.98123e-18
6.81401e-07
2.22939e-17
1.97022e-16
1.26063e-09
5.27827e-06
6.40907e-16
2.71945e-17
4.79036e-18
4.1761e-20
1.59731e-17
2.73227e-17
1.27488e-16
4.41939e-18
2.84705e-18
1.08322e-16
2.59801e-18
1.19135e-18
1.58154e-16
2.4401e-17
8.87198e-18
1.65088e-17
4.30363e-17
6.2307e-18
7.87829e-18
5.21106e-17
7.37645e-20
2.82345e-17
2.01514e-05
2.0768e-18
4.30618e-17
2.38393e-17
2.13323e-06
8.45246e-18
2.02405e-16
0.000271966
1.09428e-15
1.87908e-17
6.58202e-06
5.42075e-14
1.86578e-17
6.61135e-06
9.92439e-06
1.09263e-17
1.46894e-06
2.45582e-06
4.54834e-16
1.52421e-05
2.28172e-05
3.93639e-06
2.03691e-05
3.14866e-08
1.29177e-15
9.27202e-17
4.4461e-07
2.01415e-06
1.64585e-05
2.07224e-17
1.92813e-05
2.01496e-06
1.29696e-06
2.74625e-16
2.7541e-16
5.33494e-06
1.88348e-14
3.83339e-05
3.28567e-16
2.65374e-05
2.1477e-06
2.62539e-06
1.31224e-06
2.27487e-18
6.47098e-18
9.05986e-17
1.99886e-16
6.78195e-18
1.22613e-06
3.89639e-06
6.55785e-19
1.06102e-17
1.36157e-16
1.53555e-17
1.53458e-16
1.23432e-16
4.33005e-17
5.19511e-16
7.09299e-07
1.52935e-07
8.09892e-06
6.82422e-08
1.13336e-16
2.10295e-15
3.34972e-05
4.73132e-09
9.93084e-18
8.00496e-17
1.02349e-05
6.65172e-17
6.26514e-18
2.43489e-06
3.22836e-06
1.33602e-05
3.0162e-05
2.84798e-05
1.12406e-16
2.51304e-16
2.36845e-06
4.85051e-16
2.59897e-17
2.87901e-06
5.45945e-16
6.65361e-17
3.27197e-05
0.0012535
2.36742e-07
8.25895e-16
4.32815e-17
9.05468e-06
2.83933e-05
7.98622e-16
1.29286e-06
3.18444e-06
5.89886e-17
2.12135e-09
2.77674e-12
3.75127e-16
2.82408e-16
2.43379e-05
1.14287e-17
3.57998e-07
1.4169e-15
1.39395e-05
5.03863e-06
7.49608e-16
5.14248e-07
1.59723e-16
7.1783e-16
4.43738e-16
1.14411e-17
7.13798e-16
0.000926083
2.27675e-17
1.02015e-17
9.11167e-09
1.67384e-06
5.44199e-07
3.07312e-07
1.70431e-06
5.4098e-16
4.76435e-07
2.29781e-16
3.29008e-16
6.09856e-16
3.64716e-05
1.48951e-08
2.98221e-11
1.24723e-16
1.11137e-16
1.10959e-16
2.25541e-05
4.37531e-06
3.54104e-19
3.32889e-08
6.07633e-05
9.02819e-06
1.04601e-08
5.25438e-17
3.87682e-16
8.59193e-09
2.47286e-06
7.50429e-18
2.31364e-07
1.38813e-05
1.36252e-06
2.48683e-07
4.15758e-08
5.29001e-08
2.69325e-17
1.00125e-16
1.34754e-07
2.56898e-09
1.11472e-12
2.06402e-05
1.55758e-16
1.72212e-05
2.44145e-08
6.32498e-17
4.03784e-17
3.25209e-08
1.99055e-07
2.00513e-06
4.52403e-10
2.20575e-07
2.30772e-08
3.46634e-05
3.27841e-08
6.99332e-17
9.50739e-16
1.55661e-08
9.55794e-17
2.69742e-18
3.89637e-11
9.10616e-09
8.26989e-06
0.0012282
4.43556e-05
1.22156e-05
2.53019e-10
5.2004e-05
1.41594e-16
1.18027e-15
1.95377e-06
4.16781e-16
6.02952e-07
5.6531e-06
1.71864e-08
1.35014e-16
1.54206e-16
1.53043e-07
1.79655e-06
6.16157e-17
4.41523e-05
2.2584e-10
4.30954e-16
2.24091e-10
4.04979e-12
1.99764e-16
7.91361e-12
3.32662e-08
3.02324e-16
9.0981e-19
6.28687e-18
6.6418e-17
4.87661e-06
1.53685e-05
3.87658e-17
6.57191e-06
1.52344e-13
5.07488e-16
5.34034e-14
1.71871e-13
4.37811e-16
1.77259e-06
3.12523e-18
6.11469e-07
4.05022e-16
1.20302e-13
1.16115e-13
2.84367e-16
0.000171386
5.55284e-06
4.72574e-16
6.89526e-17
1.1953e-16
4.80775e-17
9.38837e-14
7.2847e-18
6.31035e-18
3.97573e-16
5.20446e-17
2.07276e-17
3.70017e-06
2.47163e-17
4.13417e-14
2.17441e-06
3.13648e-16
5.79578e-06
5.14305e-15
3.81504e-16
1.17427e-16
2.03419e-08
6.04238e-16
2.11516e-05
1.83292e-07
2.35052e-09
3.82076e-13
1.18655e-16
1.95159e-05
4.4411e-16
6.90127e-13
2.44805e-15
8.8213e-13
6.92634e-06
6.9915e-13
2.01046e-16
1.94393e-08
3.27587e-07
7.6421e-13
1.49472e-05
1.0056e-06
1.23707e-15
1.38802e-15
1.31605e-17
5.5179e-06
1.03481e-16
1.11588e-07
6.42472e-17
6.31228e-07
4.50901e-07
4.12637e-17
2.54213e-16
1.68155e-17
1.28513e-05
2.8647e-05
3.74341e-13
1.17908e-08
1.5434e-16
5.04922e-07
5.30394e-07
2.47213e-06
1.40621e-15
1.89274e-07
2.86793e-07
2.03054e-16
8.09579e-19
4.54777e-16
1.28851e-05
1.13049e-06
5.79956e-16
4.83484e-17
1.28799e-16
1.46694e-06
2.20303e-15
2.63447e-16
7.7235e-07
5.03725e-17
5.58017e-10
7.36486e-06
0.000103057
6.4265e-17
2.43873e-17
1.86532e-06
1.00772e-18
1.28277e-07
4.93358e-13
1.718e-16
1.33271e-05
4.06886e-05
4.1428e-16
1.02362e-16
1.28673e-06
3.61369e-16
6.67448e-08
5.67014e-05
6.06622e-16
1.46372e-16
2.47534e-13
1.69902e-15
2.0572e-16
1.53754e-12
1.11623e-17
5.01342e-17
1.40388e-16
9.77572e-16
3.03625e-07
1.17166e-06
2.6722e-06
2.1374e-05
1.22895e-05
1.93427e-16
2.86395e-10
6.46025e-07
2.24464e-17
2.04865e-18
1.7099e-16
2.24991e-16
2.62195e-16
1.6028e-16
5.5319e-16
1.98135e-16
1.90984e-16
1.67218e-15
2.03657e-12
1.13343e-16
5.30052e-07
2.75293e-16
7.38704e-08
7.64885e-17
7.96284e-08
4.35442e-16
3.18407e-17
2.31849e-05
1.04063e-05
2.21596e-16
0.000101791
3.45292e-13
2.76869e-12
2.47262e-17
1.27291e-06
1.96206e-14
2.66438e-06
7.60369e-09
1.30997e-06
1.71115e-16
1.92116e-16
5.98568e-07
6.46831e-11
5.25317e-17
4.20964e-16
3.75108e-05
8.42026e-16
4.25137e-05
2.09841e-16
4.95564e-19
2.29197e-11
2.88285e-05
6.93309e-06
8.22663e-17
5.05685e-07
2.30933e-15
1.45206e-06
1.62285e-08
6.64168e-11
6.12427e-07
8.64456e-17
2.13353e-05
8.33656e-07
7.58033e-06
2.50908e-18
1.56217e-16
1.37304e-17
6.11016e-06
1.18587e-10
1.43667e-07
6.71573e-17
2.43198e-10
2.64723e-18
1.3933e-16
7.5553e-16
5.86935e-17
2.43747e-06
1.39452e-06
1.80337e-07
0.000351504
5.21853e-16
3.63587e-05
3.70343e-05
2.22952e-10
1.08708e-06
3.03464e-17
1.22749e-09
3.22192e-06
3.30263e-06
9.3841e-10
6.91157e-06
2.71061e-16
2.37543e-06
8.56652e-07
3.36044e-05
6.9e-10
3.35555e-06
3.16219e-16
2.41895e-05
2.82976e-16
3.32311e-16
3.8802e-06
7.49135e-16
9.95345e-06
3.3134e-16
8.27546e-17
1.94616e-15
1.51965e-17
4.83779e-16
6.09325e-07
2.13868e-16
7.4947e-07
3.90507e-16
1.53325e-17
2.48486e-05
6.8513e-06
5.80213e-07
1.11488e-05
1.81838e-16
0.000643258
1.72927e-16
7.49541e-05
6.52308e-17
2.35658e-05
1.96617e-05
1.84248e-06
6.62296e-05
2.23574e-16
7.2589e-17
5.95589e-17
5.28059e-09
4.84014e-17
1.87484e-17
1.06085e-08
1.54375e-16
7.27795e-17
4.41488e-06
1.5679e-16
6.20168e-06
1.24016e-10
5.44001e-17
1.55959e-16
2.54571e-16
2.47164e-07
4.66581e-06
1.31404e-16
3.24081e-16
2.45554e-07
8.61464e-16
0.000125763
1.61882e-16
4.34633e-09
1.76929e-05
7.54787e-10
5.84822e-16
2.23587e-05
7.70194e-07
9.60575e-07
4.43546e-06
1.69147e-05
1.85869e-17
2.60164e-16
1.86988e-09
1.13417e-16
3.32562e-18
7.95117e-17
2.5015e-08
4.97029e-05
1.68217e-06
2.81544e-06
1.49637e-16
4.55656e-05
4.34981e-05
5.38605e-06
3.78704e-06
8.22013e-06
2.38847e-05
2.12596e-06
5.42826e-18
1.89015e-18
4.94331e-18
5.48624e-06
1.92807e-17
2.9428e-05
1.05137e-15
8.32079e-07
2.71783e-10
1.09447e-08
1.27534e-14
9.20393e-18
5.3518e-16
2.4383e-06
3.60659e-07
1.0582e-16
1.72075e-17
3.84099e-16
2.40348e-09
1.6831e-07
1.02284e-07
6.48677e-07
2.80958e-16
8.03497e-05
1.69021e-16
1.48051e-17
1.63534e-16
3.80941e-17
9.52897e-06
1.07864e-15
2.52828e-05
5.81359e-09
2.17833e-06
9.07287e-17
1.07175e-16
3.56766e-16
7.28258e-17
1.33314e-16
2.30605e-05
1.21621e-16
4.01694e-16
8.69326e-16
2.40567e-16
5.79561e-16
1.834e-16
1.17695e-05
9.98415e-16
1.44967e-06
0.000407387
4.29527e-16
1.81542e-08
1.6847e-15
6.33014e-10
3.42897e-17
2.00619e-16
4.19371e-06
1.84541e-17
1.46986e-05
1.22449e-09
1.53656e-07
5.42602e-17
2.61404e-15
1.45078e-17
6.81497e-17
6.89469e-17
6.285e-16
0.000222454
1.14727e-16
4.5941e-06
2.35992e-06
1.11204e-16
7.74857e-16
2.08704e-06
3.98314e-16
6.15674e-18
7.47959e-06
5.91493e-08
5.29176e-18
1.10548e-15
6.58401e-17
5.41248e-13
2.15171e-16
2.91245e-16
3.74561e-07
2.09137e-06
2.68225e-06
2.04048e-16
3.2646e-16
3.13983e-16
3.02989e-06
1.49545e-06
1.01044e-05
4.57971e-07
4.93002e-18
4.26696e-15
2.55022e-15
1.02007e-15
4.39727e-17
7.88799e-16
4.32587e-17
1.13155e-18
3.67586e-16
7.08962e-06
4.66758e-06
1.94646e-06
1.23675e-16
5.34345e-17
1.99373e-16
8.00362e-17
1.10618e-16
1.00368e-09
5.16323e-17
3.90884e-16
8.46842e-18
8.2012e-16
2.51943e-16
3.6943e-12
3.22727e-05
0.000125762
1.89158e-18
9.6877e-14
1.72172e-14
3.60195e-17
4.24055e-16
1.73359e-06
6.27391e-06
6.34351e-17
4.71044e-16
3.37709e-06
2.98478e-16
2.01214e-07
9.42442e-08
0.00245763
2.20928e-17
4.15444e-16
5.38898e-07
3.47987e-07
1.40334e-16
0.000778178
3.3766e-17
8.90884e-06
1.97765e-16
6.68067e-16
2.1296e-16
4.07624e-17
6.26873e-16
7.88956e-13
4.35683e-16
3.14436e-05
1.83335e-05
0.000991483
6.97213e-17
6.77197e-17
1.0032e-17
4.82785e-17
5.6296e-06
6.00805e-11
3.86775e-16
1.79322e-16
6.29092e-14
1.6475e-06
1.05797e-12
2.22732e-16
7.13881e-16
3.05806e-05
5.94594e-17
6.62951e-17
1.59955e-17
1.79672e-16
1.6989e-05
1.57719e-16
2.20762e-17
9.92868e-18
6.08387e-12
1.57504e-05
5.96951e-17
1.44033e-16
8.34624e-18
1.7383e-05
1.18866e-10
1.00109e-16
5.74936e-17
2.96311e-16
1.57132e-15
2.7065e-06
9.72719e-06
5.09207e-17
1.93314e-06
7.09291e-07
1.03295e-05
1.25205e-15
1.16786e-16
3.32595e-17
4.6774e-17
3.66433e-18
2.87203e-05
1.94177e-15
1.81103e-05
8.25555e-17
1.24774e-06
5.26214e-16
1.76103e-06
1.55924e-16
1.49805e-17
1.36331e-05
0.000255814
1.1893e-15
2.56345e-06
2.76083e-16
2.94135e-07
2.7808e-17
4.79424e-16
2.0602e-16
1.38778e-10
1.8069e-16
4.77199e-07
4.25236e-16
3.68504e-05
2.59085e-18
2.0479e-15
3.57149e-18
5.34312e-17
6.14829e-13
1.79181e-07
7.39449e-18
5.25826e-06
3.05266e-17
4.99125e-06
2.03568e-05
1.03482e-06
8.35739e-18
4.15524e-09
3.28632e-07
1.27725e-09
7.53146e-06
4.21931e-10
1.18251e-06
1.01368e-15
5.31414e-17
3.85869e-10
1.02836e-08
1.87042e-07
1.33586e-16
5.41848e-17
3.10367e-16
0.000572481
8.94241e-16
1.82312e-17
7.61295e-17
1.55478e-15
4.20182e-16
9.28944e-08
1.50256e-07
8.39968e-07
2.51595e-07
4.62353e-16
1.33348e-06
9.14309e-17
8.82761e-06
3.76188e-16
5.07804e-17
1.12092e-17
1.29928e-17
2.68486e-08
1.78388e-16
3.50968e-17
4.49126e-16
1.54826e-05
3.20144e-16
8.56425e-18
1.45839e-05
8.52633e-16
5.17213e-05
8.20085e-05
0.000433839
6.93491e-17
0.000243676
0.0014596
0.00220163
0.000829246
5.13897e-17
1.57316e-17
4.4912e-06
6.63094e-06
1.36591e-16
3.90404e-06
2.46397e-17
2.93066e-05
1.56965e-15
1.9009e-16
4.73703e-07
4.9671e-16
6.32791e-16
9.91509e-09
2.62559e-08
2.75444e-17
4.64627e-17
2.97327e-09
2.08064e-15
3.83299e-16
2.33961e-08
7.89409e-06
1.68223e-06
2.68662e-16
1.87497e-06
7.57029e-16
1.1049e-07
5.03384e-10
1.64065e-06
5.70322e-17
9.42655e-12
2.44316e-06
9.01802e-17
4.63391e-13
1.72845e-17
3.49055e-05
1.95109e-17
1.02087e-05
1.91978e-17
5.42797e-10
8.75011e-17
2.58329e-16
1.27454e-17
7.25972e-14
4.57841e-13
3.81444e-16
1.09952e-05
6.69357e-06
3.28819e-16
1.67139e-17
2.33043e-05
2.64066e-15
0.000222622
4.24043e-16
6.00943e-07
2.43062e-05
5.1307e-05
2.87648e-12
3.33094e-16
7.14439e-05
9.77345e-18
0.000262765
3.19766e-16
1.61554e-11
1.81168e-11
4.8575e-18
2.12671e-06
8.58047e-16
2.73912e-05
1.28381e-17
7.35129e-16
1.33472e-16
1.32638e-16
4.75445e-16
1.12103e-16
3.13915e-07
4.49277e-05
0.000168749
7.56492e-16
1.36675e-16
4.9835e-05
4.55902e-16
5.10445e-18
1.4721e-16
1.84539e-16
7.34809e-16
4.56497e-17
2.92308e-17
3.54247e-16
4.75647e-19
1.4712e-16
1.07799e-15
1.10278e-17
8.26613e-16
6.37174e-16
1.35097e-17
1.5788e-16
0.000247378
5.22905e-06
1.19293e-15
9.14142e-16
2.07638e-16
2.86542e-16
1.54761e-16
5.98485e-16
1.68949e-12
2.28674e-17
3.67024e-15
1.54322e-16
1.0905e-15
3.75709e-16
0.000372863
1.1119e-16
2.26715e-05
1.96589e-16
1.47531e-16
3.71382e-06
1.9957e-16
5.07668e-19
6.33011e-18
3.23126e-17
3.98344e-16
1.99078e-05
1.70819e-16
5.11452e-16
4.45523e-16
8.18842e-17
3.34994e-11
1.2453e-17
1.78681e-05
3.46434e-16
4.70782e-18
1.99927e-06
4.35222e-06
0.000151759
1.3759e-15
6.95734e-17
7.99432e-17
1.50167e-05
0.000192522
2.09156e-16
1.32556e-17
6.72538e-16
2.96955e-10
3.92549e-16
2.66596e-05
2.96133e-05
7.52917e-16
2.48776e-17
3.20484e-10
4.08681e-16
1.46075e-15
3.49385e-18
1.80116e-16
1.52722e-17
6.91898e-05
2.93747e-16
1.30341e-15
7.85615e-17
1.49285e-16
7.64583e-17
6.86908e-17
6.8204e-17
6.01213e-17
7.86182e-16
1.83881e-06
8.3947e-16
1.55266e-10
1.12177e-15
2.15529e-16
0.000659508
1.92275e-10
3.077e-17
2.23304e-16
3.7517e-17
1.19466e-10
4.06211e-16
7.59233e-16
7.17498e-16
2.41005e-16
9.83239e-10
1.66328e-17
3.27473e-06
8.96107e-16
1.44226e-05
2.95199e-16
5.94481e-05
3.46283e-18
2.38497e-16
1.81052e-05
2.10994e-16
8.85482e-17
3.99365e-12
3.2687e-07
2.1037e-16
3.11094e-16
4.38666e-05
1.57054e-05
1.33767e-10
4.15821e-11
1.17782e-10
1.83994e-05
2.23717e-11
5.55809e-06
1.19158e-15
2.74288e-05
2.0982e-16
1.49171e-16
1.76358e-17
1.48586e-15
1.50197e-16
1.8334e-10
2.61718e-16
6.07448e-17
5.57706e-16
8.35041e-10
1.77883e-08
1.62803e-15
4.18088e-06
1.83806e-16
6.1472e-06
3.40846e-17
7.02788e-10
1.09902e-08
1.03808e-15
4.98395e-05
1.46549e-17
7.9906e-18
1.10519e-18
1.88845e-09
1.35563e-06
3.02232e-17
9.33966e-18
1.69064e-09
6.58009e-16
0.000745526
2.93523e-16
9.78088e-05
1.38997e-16
1.35145e-17
6.48638e-16
2.42284e-17
4.22703e-11
7.76362e-18
5.35137e-08
4.28375e-18
8.3248e-06
4.52612e-17
2.08767e-17
6.21609e-15
1.03221e-15
1.43131e-16
2.24918e-15
4.09898e-16
3.09084e-16
4.05847e-06
0.000249739
5.7918e-16
2.21353e-17
5.18109e-07
5.21705e-18
4.02973e-18
2.16172e-09
2.00675e-05
2.39859e-07
3.70322e-17
6.20255e-16
4.85301e-06
2.54752e-06
1.06147e-05
2.13057e-16
5.66846e-16
1.5173e-15
5.43615e-17
1.69661e-17
1.92814e-17
9.03267e-17
8.38897e-18
3.76786e-17
9.30133e-17
8.53993e-17
5.06759e-18
8.49623e-05
2.65338e-17
3.86857e-18
2.46345e-12
2.13549e-16
3.07115e-16
0.00125155
1.79407e-17
9.99467e-17
1.32641e-06
2.30398e-13
2.12256e-16
4.8369e-16
4.33151e-17
2.10697e-05
4.91412e-17
2.73834e-16
4.55185e-11
2.41979e-19
7.40784e-17
3.35805e-17
1.31055e-16
0.000125405
1.51921e-17
2.20873e-07
1.65182e-17
6.0949e-17
6.06215e-17
4.31924e-16
3.14295e-17
3.88619e-11
6.64096e-11
2.88467e-10
1.0426e-16
2.82113e-16
1.19658e-15
1.07354e-10
1.16663e-16
3.36938e-10
2.45036e-11
1.67048e-17
7.67496e-17
2.73048e-16
9.08809e-12
6.28022e-17
3.41443e-16
2.30417e-12
4.69523e-15
3.52855e-05
2.91328e-17
8.03928e-06
1.84379e-15
2.32706e-09
6.14845e-17
1.68755e-06
4.22342e-18
3.72652e-06
2.18495e-05
7.86663e-16
2.37963e-06
1.01646e-08
5.33056e-17
9.28753e-06
9.15936e-17
3.46759e-17
2.86716e-16
1.26809e-16
1.14935e-16
2.16142e-17
1.00595e-16
5.02023e-16
0.000313689
4.3577e-17
1.03808e-16
5.56143e-17
1.76788e-17
1.44651e-17
3.60023e-05
0.000941167
2.02244e-09
1.55954e-08
3.16945e-17
1.68614e-06
1.1272e-06
4.00565e-16
1.48806e-15
1.72831e-15
1.29186e-17
2.07166e-17
1.28206e-15
5.76942e-16
2.00466e-16
3.57861e-07
1.79444e-15
1.89568e-16
1.30547e-07
1.6962e-09
3.40589e-17
3.36953e-05
9.4635e-18
5.80621e-16
7.66417e-16
0.000181173
1.74079e-16
8.59881e-18
3.08747e-05
8.34231e-18
1.69411e-16
1.80621e-16
6.76986e-16
6.3071e-05
2.19588e-17
2.41178e-16
7.84717e-17