/*--------------------------------*- C++ -*----------------------------------*\
  =========                 |
  \\      /  F ield         | OpenFOAM: The Open Source CFD Toolbox
   \\    /   O peration     | Website:  https://openfoam.org
    \\  /    A nd           | Version:  10
     \\/     M anipulation  |
\*---------------------------------------------------------------------------*/
FoamFile
{
    format      ascii;
    class       volScalarField;
    location    "3.3";
    object      T;
}
// * * * * * * * * * * * * * * * * * * * * * * * * * * * * * * * * * * * * * //

dimensions      [0 0 0 1 0 0 0];

internalField   nonuniform List<scalar> 
111485
(
303.15
284.85
301.362
303.15
299.008
283.15
299.081
291.216
296.736
285.962
300.417
295.825
300.114
284.301
300.255
286.218
283.152
299.868
294.734
303.15
303.15
283.15
297.816
288.023
301.28
303.15
292.716
283.876
289.492
303.15
300.652
283.15
303.15
283.15
283.481
283.15
302.228
283.15
283.149
297.057
283.15
290.148
297.442
302.903
303.184
303.15
287.3
287.896
290.123
303.15
303.15
283.15
303.15
299.556
303.15
284.956
287.308
283.15
283.308
296.022
296.437
303.15
293.921
300.214
283.15
283.545
301.178
290.387
291.653
294.055
303.167
286.615
303.15
293.527
303.15
283.185
283.15
293.598
283.15
283.15
283.25
293.519
283.15
303.15
293.361
284.367
283.15
301.851
303.149
283.151
283.501
289.717
293.282
283.15
290.634
303.15
303.15
301.852
303.15
283.472
303.15
286.515
283.15
285.548
285.131
283.15
283.15
283.15
301.408
283.146
283.15
285.254
301.257
301.835
303.15
283.152
303.15
283.15
296.164
303.15
303.15
283.15
283.15
283.15
283.447
303.152
283.15
283.15
303.15
283.186
303.06
302.239
303.15
283.15
283.15
292.996
283.15
283.178
297.95
299.947
303.14
296.276
298.302
284.789
302.224
283.15
283.15
303.15
283.15
297.316
285.009
303.15
303.144
283.15
283.156
294.014
295.575
301.811
283.154
303.15
303.15
292.562
286.074
283.153
283.157
283.152
283.777
283.15
283.154
283.154
283.15
303.15
283.228
283.15
283.15
283.15
283.15
303.15
303.15
283.15
303.15
303.15
297.816
293.951
295.859
283.15
301.649
283.291
283.197
303.15
283.164
303.15
303.15
283.328
285.987
301.754
287.283
283.15
303.15
299.895
284.563
283.161
301.135
283.151
303.15
283.332
288.68
303.15
283.252
300.001
284.853
283.277
303.15
303.15
283.288
283.15
293.725
283.15
283.33
283.178
290.197
303.15
283.475
300.739
283.15
283.15
283.15
289.503
283.158
283.15
303.15
283.183
283.15
286.008
283.15
303.15
303.103
303.15
284.2
283.179
283.185
283.184
283.185
283.15
283.144
283.153
283.15
283.15
288.518
285.317
283.15
283.15
283.151
303.15
283.15
300.808
303.15
303.15
303.122
303.15
283.155
283.157
283.15
303.15
283.152
303.15
303.15
303.15
283.148
298.055
292.79
293.166
290.669
292.39
291.921
283.219
283.15
283.15
283.15
303.15
283.149
283.15
299.024
283.15
303.15
293.115
297.282
292.056
302.959
283.166
291.209
292.755
301.9
283.15
283.747
283.15
283.149
303.15
283.934
289.717
286.548
303.15
283.15
284.776
283.15
303.15
303.15
303.15
283.154
283.15
299.529
284.524
293.599
283.15
283.15
303.15
284.925
303.15
283.945
289.664
283.153
283.15
303.15
303.15
283.15
285.552
289.391
283.15
285.671
283.15
303.15
301.001
286.139
293.467
285.452
283.15
283.15
283.15
285.929
283.15
302.334
283.15
283.15
283.148
289.558
284.091
283.239
291.137
283.15
293.394
286.247
284.182
298.643
285.036
283.15
303.15
283.15
303.15
289.383
283.842
288.627
292.803
283.15
286.066
283.15
303.15
294.458
303.15
302.287
303.15
283.15
292.341
283.15
283.15
284.667
283.15
283.649
287.199
283.15
287.061
284.928
287.03
303.066
283.15
283.15
283.15
303.15
303.153
283.15
301.356
300.807
283.15
283.15
284.934
284.263
283.15
296.21
283.15
295.077
296.011
283.15
302.212
283.853
303.15
303.15
283.15
299.225
283.15
303.15
303.15
303.15
300.522
283.15
303.15
293.415
283.17
287.143
300.456
283.15
283.15
302.76
283.15
302.628
301.761
298.543
290.081
283.15
283.15
303.39
303.15
299.28
291.805
303.15
283.15
283.304
283.15
289.983
286.563
283.15
283.15
283.15
296.151
283.15
303.147
283.15
303.15
303.15
283.167
283.15
283.15
284.374
303.143
283.15
303.15
303.15
303.15
301.577
283.15
285.962
284.257
284.27
283.15
285.711
303.15
301.112
283.15
303.15
303.15
300.891
303.15
303.15
283.151
303.15
283.15
301.099
283.15
283.15
283.15
303.15
283.15
303.15
283.15
283.699
283.15
303.143
301.663
283.77
283.15
303.109
283.15
303.15
284.527
284.514
286.053
298.265
283.15
298.296
298.379
283.15
283.15
285.022
303.15
283.15
283.15
300.45
283.15
297.559
283.15
283.15
298.668
303.15
283.15
283.15
303.15
296.295
299.716
283.15
283.15
283.15
283.15
303.15
294.405
283.15
283.15
283.264
283.15
300.385
283.15
284.762
303.15
283.409
303.128
283.407
283.15
283.15
283.15
283.15
283.15
285.608
283.15
283.274
283.15
300.26
303.15
291.319
303.15
283.15
302.429
284.336
300.631
285.425
300.654
288.916
283.15
301.091
284.401
283.15
283.14
300.888
301.902
283.15
282.306
301.394
303.084
283.12
303.15
287.165
302.399
284.271
285.257
283.15
282.438
283.15
303.15
300.994
303.15
283.604
283.15
283.15
283.151
282.649
303.15
303.122
283.15
286.11
300.051
283.15
283.15
300.048
303.15
283.15
283.15
283.15
285.963
283.15
303.15
284.724
283.154
303.15
300.122
283.15
283.172
303.15
283.15
286.032
283.15
283.15
283.15
283.15
283.15
285.4
283.151
303.15
300.487
283.42
299.331
301.12
283.409
283.454
283.15
289.247
299.088
303.15
287.639
296.035
297.483
283.15
298.049
297.68
303.15
300.064
303.14
283.15
297.81
284.92
283.15
283.151
296.532
284.914
299.37
301.04
283.151
283.15
299.47
283.437
303.15
300.997
302.187
283.151
283.15
283.15
303.15
283.15
283.15
283.15
283.324
283.15
303.15
303.15
283.15
300.72
299.936
303.15
285.539
303.15
303.15
303.15
289.652
283.441
283.15
303.15
283.15
283.15
287.471
283.151
283.15
295.98
283.134
283.15
296.155
302.418
283.15
283.15
283.15
290.162
283.151
283.15
283.15
283.15
283.563
303.15
303.15
283.15
296.969
301.976
283.15
282.686
302.066
283.15
283.15
283.15
287.12
303.028
283.15
283.16
287.794
283.824
283.15
283.15
285.829
300.315
283.15
303.15
283.15
283.15
283.15
283.15
296.376
303.15
283.15
283.15
296.03
283.151
303.15
303.15
289.713
283.151
283.151
303.15
283.15
283.151
303.15
284.012
283.151
283.151
303.15
303.15
303.15
283.15
285.838
283.15
283.15
302.668
303.15
283.804
302.433
283.15
283.151
283.158
283.82
291.517
283.491
290.044
283.15
283.15
283.774
288.708
283.15
283.15
283.15
298.825
283.15
283.15
283.918
284.638
283.456
303.15
303.15
303.15
283.151
283.15
283.15
283.15
284.258
283.15
283.15
283.152
283.15
283.15
303.15
283.152
283.15
283.15
303.103
283.15
283.15
303.15
283.15
283.15
283.15
283.15
283.15
283.15
283.15
303.15
283.15
283.176
283.15
303.15
302.464
283.128
283.373
283.092
283.15
283.15
284.322
290.36
283.373
303.15
283.15
283.15
283.15
283.15
283.182
283.142
285.452
283.15
283.241
283.15
283.15
283.15
283.15
283.15
283.15
283.15
283.15
290.745
283.15
283.15
283.256
283.15
283.15
283.15
283.15
283.15
283.15
283.148
283.15
283.15
294.807
283.143
303.118
283.161
283.16
283.15
283.15
284.601
283.15
302.977
283.607
283.13
303.148
303.148
303.149
283.15
283.15
283.295
303.15
303.139
283.822
283.15
283.15
303.154
303.15
283.15
303.161
283.15
283.15
303.15
303.15
303.15
303.15
283.388
283.15
283.15
283.15
303.159
283.303
283.863
283.273
283.15
283.15
283.33
283.15
283.15
283.15
287.086
284.726
283.15
283.15
283.15
283.15
283.15
283.15
283.966
283.15
303.151
291.455
283.15
303.15
303.15
303.151
303.15
303.15
283.15
303.165
283.15
283.693
283.144
303.151
283.15
303.067
284.452
292.822
303.15
303.132
284.697
303.15
283.15
303.15
283.15
283.273
293.092
284.636
303.148
283.15
283.248
283.15
283.15
303.15
283.15
292.934
283.15
303.15
283.163
285.125
303.15
284.646
283.15
283.592
283.15
283.15
283.15
303.15
283.15
283.394
284.619
283.15
283.15
283.15
283.15
283.15
303.15
284.623
303.161
299.24
303.15
303.134
303.136
283.15
303.141
283.15
283.525
289.176
299.229
283.824
283.164
283.15
283.15
283.15
303.176
283.15
302.977
303.15
293.412
303.15
287.991
283.795
303.15
283.15
303.15
283.15
302.095
303.15
303.15
283.15
300.995
283.15
283.15
283.15
283.15
283.15
283.15
301.258
283.562
303.15
303.15
303.155
303.15
300.624
283.15
283.15
302.342
303.15
283.15
283.15
302.641
283.15
283.147
303.152
283.341
302.367
300.732
283.147
283.15
289.112
303.15
291.708
303.15
283.15
303.15
283.15
283.15
283.15
301.255
302.29
303.15
303.15
303.15
302.96
283.149
303.15
291.339
283.088
303.15
283.151
283.15
292.807
283.39
283.15
283.15
283.15
283.15
292.7
283.15
295.071
283.15
303.092
289.24
283.15
302.935
283.15
283.15
302.863
283.148
302.919
283.15
303.15
283.15
294.692
283.15
303.15
283.15
283.147
283.15
283.174
283.15
283.15
303.15
283.15
283.15
296.174
296.811
303.15
303.132
283.15
283.15
283.15
283.15
283.158
302.928
283.15
303.013
303.15
283.431
283.15
303.15
283.15
303.029
283.396
285.945
283.15
303.15
287.823
303.15
283.15
283.12
295.202
283.147
283.15
283.15
283.146
303.15
283.15
303.148
303.15
303.15
286.448
303.041
303.056
286.061
283.16
283.15
283.15
303.102
285.963
283.15
303.15
285.045
283.15
303.15
283.15
283.15
283.15
298.107
283.15
302.93
283.15
300.835
283.15
283.15
283.15
283.15
283.15
283.15
285.429
283.15
283.15
283.15
283.15
283.15
283.15
286.564
283.15
286.132
303.017
283.15
302.195
283.15
302.66
303.145
283.15
283.15
303.15
283.15
285.09
303.113
303.15
303.14
283.755
283.15
283.15
283.15
283.15
283.15
283.15
283.15
283.15
283.15
283.15
283.15
303.14
283.15
283.15
283.15
302.439
283.15
283.192
303.15
283.15
283.15
283.15
302.783
283.15
303.177
303.15
283.15
283.386
297.613
283.166
285.68
292.725
287.605
283.15
283.15
301.874
283.169
286.567
284.504
283.15
285.162
283.15
303.15
300.943
298.612
283.15
283.199
283.15
283.173
283.158
303.15
283.15
283.15
301.744
283.15
283.15
300.799
283.175
283.199
283.15
283.15
283.15
302.873
300.818
283.15
300.973
283.15
300.864
283.15
283.15
301.081
283.15
283.222
301.416
283.15
283.15
301.659
283.15
287.52
303.15
290.415
303.15
303.15
303.15
300.379
283.15
283.15
298.23
283.15
302.991
283.15
283.15
303.15
283.15
287.727
283.15
283.15
287.598
287.765
283.15
283.806
283.15
303.15
302.599
283.85
283.15
283.15
283.15
283.15
283.15
283.15
283.15
283.15
283.15
283.15
283.15
283.15
303.15
283.15
283.15
283.15
283.15
283.15
283.15
283.15
283.15
303.15
286.598
283.15
283.15
283.15
292.52
283.15
303.15
303.023
283.15
283.15
292.662
283.15
283.15
302.055
293.17
283.15
303.472
303.505
283.15
301.604
292.386
294.611
294.214
283.389
303.15
283.15
284.914
285.123
294.434
283.15
287.142
302.383
294.078
283.15
283.15
295.137
283.15
292.699
303.15
285.611
290.309
285.902
290.597
283.15
283.15
283.15
303.15
283.15
285.107
291.722
283.15
283.15
283.15
283.15
283.15
303.15
283.15
303.15
287.002
303.134
291.32
302.804
283.15
283.15
285.233
283.176
283.15
283.15
301.449
303.15
283.15
290.548
291.897
290.885
299.319
301.238
303.15
283.15
294.609
303.15
303.15
296.941
303.15
283.15
282.783
295.972
302.945
283.15
303.15
290.243
285.985
283.15
285.202
302.533
303.15
303.136
303.15
303.15
283.15
298.437
283.15
284.9
283.15
297.113
284.307
303.15
283.442
303.15
283.15
303.15
303.15
283.15
300.151
283.15
303.15
303.142
284.927
303.07
284.447
285.638
283.15
285.392
283.15
303.15
283.15
292.173
283.335
303.151
303.15
303.15
303.15
297.994
302.481
283.15
283.325
301.272
284.965
283.323
303.15
303.15
283.326
285.383
283.15
302.955
300.022
302.554
283.894
283.463
283.514
303.15
283.15
283.652
283.203
283.15
288.745
303.15
287.861
283.449
303.15
283.15
283.3
283.97
286.428
283.147
283.164
283.251
301.913
283.332
303.15
283.15
283.275
303.15
283.15
303.15
303.208
291.365
291.793
296.338
303.241
283.149
297.596
303.15
303.15
285.481
303.15
284.255
283.31
283.267
283.15
303.15
283.621
285.456
303.15
283.005
283.167
303.15
283.159
283.153
303.15
303.15
283.725
303.15
283.15
283.15
283.15
299.557
292.111
303.15
285.553
283.15
283.15
283.15
283.15
283.15
303.095
283.15
284.178
283.15
283.15
283.15
283.15
291.248
302.317
303.15
283.15
283.15
303.15
283.15
283.15
283.15
303.15
283.15
303.15
297.656
283.15
283.15
283.735
303.15
283.96
283.15
283.15
303.15
303.146
303.15
294.008
302.985
303.122
283.15
283.15
288.904
283.15
283.151
303.15
283.15
287.67
283.151
303.15
283.207
283.465
283.151
286.996
283.535
303.15
283.15
303.15
285.672
303.15
303.257
283.15
303.253
302.938
303.15
303.15
283.15
288.023
300.308
283.151
303.084
283.15
284.943
284.098
287.918
283.15
284.008
284.691
283.15
283.15
303.15
285.346
284.071
283.15
283.15
303.15
284.013
283.15
303.15
284.693
303.15
283.156
285.522
300.931
303.15
303.15
287.273
303.15
283.343
283.151
283.15
293.921
294.061
283.15
303.15
302.704
283.15
302.796
294.286
303.15
303.15
283.15
283.15
303.15
283.152
283.15
303.15
303.15
283.15
283.577
303.253
289.311
300.294
297.554
303.15
303.154
302.63
303.15
283.15
303.15
303.15
303.15
303.15
303.15
303.15
303.15
283.15
303.15
303.15
283.4
303.15
303.249
303.15
303.162
303.15
303.15
301.37
303.672
303.15
291.713
303.15
303.15
283.15
302.683
303.15
302.285
303.114
283.309
283.15
303.15
302.992
283.149
303.15
303.15
291.087
283.15
292.193
283.15
283.15
283.15
290.95
284.351
303.15
296.248
283.15
303.55
303.135
283.154
302.737
283.15
291.845
303.095
301.696
283.15
303.15
283.15
303.77
283.157
284.007
303.15
303.15
303.15
303.15
303.15
303.15
302.555
302.903
284.254
292.326
303.15
287.764
292.515
283.153
303.202
283.15
283.175
302.86
283.925
283.147
286.03
303.15
283.438
302.986
292.377
302.931
301.974
303.15
302.152
303.15
303.15
291.488
303.15
284.771
303.15
303.15
283.15
303.15
303.15
302.93
303.15
283.308
283.15
283.15
286.348
285.047
285.058
286.368
303.15
295.31
303.15
290.064
303.15
287.794
301.099
301.818
293.175
303.15
303.15
303.15
283.238
283.15
303.15
283.226
283.15
283.15
302.119
303.15
285.119
283.147
283.15
303.15
303.15
284.124
298.331
303.15
283.15
303.059
283.15
298.261
303.15
283.186
287.747
283.167
303.15
296.761
285.354
302.952
302.149
301.599
303.15
303.15
303.147
303.15
283.15
303.15
283.269
299.737
286.093
301.325
283.15
300.823
291.34
298.546
283.7
298.991
290.475
302.364
283.15
283.15
283.15
302.4
283.15
290.785
283.15
301.586
303.158
283.274
283.15
283.15
303.15
301.573
301.548
303.15
283.15
303.15
283.23
301.789
303.029
302.534
283.15
287.2
303.15
303.15
303.15
283.15
285.881
283.15
296.39
283.173
303.017
303.15
303.15
283.15
283.15
283.15
300.043
303.15
303.15
283.15
303.15
303.15
303.15
300.751
303.15
285.351
293.224
283.15
283.254
283.15
283.196
303.15
303.15
302.158
303.15
299.743
283.146
284.32
303.15
303.15
283.15
303.15
303.15
303.15
305.584
303.15
302.114
286.995
303.15
303.15
301.914
303.15
283.15
285.546
303.159
303.15
303.15
303.15
283.151
303.15
303.15
302.617
302.651
302.066
303.15
283.15
303.15
302.278
302.668
301.835
302.182
283.15
283.15
283.15
283.15
283.15
303.15
303.15
303.15
303.15
291.074
285.778
287.009
303.15
303.15
303.15
303.15
283.15
303.151
283.15
283.15
283.15
303.15
303.15
283.147
299.957
295.01
283.15
303.15
303.15
303.15
303.15
286.56
288.948
303.15
303.15
302.257
303.15
284.376
283.332
292.24
303.15
283.15
284.496
303.138
303.15
303.493
283.15
287.442
303.15
303.15
303.15
303.15
283.15
283.151
303.15
302.629
298.904
290.805
303.15
303.15
303.15
303.15
300.002
303.151
303.15
303.15
283.15
302.496
283.151
303.15
303.15
298.566
303.15
303.15
303.15
303.15
287.212
303.15
283.15
283.15
283.152
290.082
303.15
303.15
303.15
297.424
303.147
303.15
303.15
303.15
303.15
303.453
301.221
303.15
286.938
302.754
294.907
303.15
303.15
303.15
303.15
283.15
286.18
303.15
302.828
283.15
302.397
303.15
303.148
303.15
283.15
301.827
286.596
283.15
302.924
303.15
302.584
283.15
303.15
303.15
303.151
303.15
283.287
303.15
290.067
283.15
283.15
303.15
303.15
283.151
302.495
283.15
302.511
283.15
284.373
287.89
302.759
283.15
303.154
303.026
303.142
284.696
283.156
303.037
283.15
283.15
283.156
283.194
302.489
303.15
283.15
283.15
296.299
303.15
283.15
303.15
303.15
303.15
303.101
303.082
303
284.249
303.15
302.965
303.15
285.059
303.15
303.15
283.15
303.15
303.117
303.15
283.15
303.15
287.558
303.15
303.15
303.174
283.15
303.569
302.891
298.623
303.15
292.291
297.24
284.884
292.611
283.15
283.15
286.535
284.552
283.15
303.602
283.15
285.849
303.15
283.15
303.162
303.15
303.15
303.003
303.155
303.15
283.15
303.14
303.15
283.15
283.102
298.976
300.817
303.15
301.251
303.15
283.391
303.151
300.955
303.15
303.15
300.798
303.15
303.15
303.15
287.138
303.15
284.861
303.15
303.146
303.15
283.15
283.15
303.15
303.15
303.15
288.35
302.707
303.15
303.15
287.313
283.15
292.023
303.15
302.014
287.182
287.388
303.15
303.15
288.425
283.15
292.586
303.15
303.152
303.15
303.15
286.616
283.15
302.255
283.15
303.15
303.15
303.15
303.15
303.15
284.538
292.699
291.776
303.15
303.15
291.285
303.15
303.15
303.15
303.15
303.15
283.15
303.15
303.15
283.15
283.15
303.15
283.15
303.15
283.15
283.15
283.15
290.807
302.67
283.15
283.15
303.15
303.15
303.15
283.15
283.152
283.15
303.15
283.15
303.15
303.15
292.753
303.15
287.403
303.15
283.15
284.414
303.15
283.15
303.15
303.15
303.15
285.473
303.15
283.15
303.15
303.15
283.156
283.15
284.974
303.15
303.15
288.402
287.788
297.067
303.15
303.15
303.15
287.132
292.623
303.15
283.15
303.15
283.162
303.15
284.997
296.96
303.15
303.15
283.16
303.15
303.15
283.15
303.15
283.15
295.402
303.15
283.15
303.15
303.15
303.15
303.15
303.15
303.15
283.15
287.969
283.15
283.154
303.15
303.15
296.247
283.163
303.15
283.15
303.15
283.156
283.15
303.15
303.15
303.15
283.201
303.15
298.256
303.15
286.37
283.15
286.517
303.15
303.15
299.024
283.15
303.15
283.151
283.259
303.15
303.15
285.241
284
283.158
283.155
283.158
292.729
283.154
283.835
303.15
298.42
283.15
283.15
303.15
303.15
303.15
283.155
303.15
303.15
303.15
303.129
283.174
283.15
283.612
303.15
301.991
283.15
303.146
283.213
283.15
294.541
303.15
303.15
283.15
283.195
283.913
303.15
283.15
283.203
303.15
297.874
303.15
295.69
303.15
283.15
303.15
283.15
283.155
283.15
283.238
283.15
285.938
303.15
303.15
283.15
283.15
303.15
303.15
303.15
303.15
284.697
285.145
283.15
303.15
283.238
283.15
283.15
303.155
290.672
283.617
283.15
283.15
285.02
289.624
288.913
303.15
303.15
303.15
303.15
283.15
283.15
283.15
303.15
283.15
283.15
303.15
283.15
297.483
283.15
303.15
283.15
303.15
303.15
283.548
283.15
303.15
302.071
303.15
303.15
303.15
303.15
288.003
283.15
303.15
303.149
283.15
303.15
303.15
303.15
295.041
283.15
283.191
303.15
303.15
303.15
303.15
303.15
303.15
303.147
283.171
303.15
283.15
303.15
303.15
303.15
303.148
303.15
283.15
283.15
283.15
303.15
303.15
283.15
303.15
283.15
287.341
283.15
301.791
283.15
303.154
303.15
284.451
283.15
284.348
297.905
303.15
284.522
303.167
303.15
297.899
283.15
303.15
303.15
303.15
303.15
283.15
303.15
303.15
299.228
283.15
303.15
303.15
303.15
303.15
291.4
291.414
303.165
283.169
303.15
302.09
302.518
303.15
283.15
283.15
303.15
303.15
303.15
283.15
283.15
283.751
303.15
303.15
303.184
303.151
283.15
289.602
303.15
283.15
303.15
288.521
303.15
283.15
302.152
283.15
283.15
283.15
303.15
299.738
303.15
303.15
303.15
283.15
284.411
293.945
295.754
290.43
303.148
303.063
283.15
283.15
301.155
283.646
283.15
303.149
303.15
303.15
283.15
294.968
303.15
283.15
303.033
303.15
303.15
283.746
303.15
303.15
288.829
290.264
303.15
283.15
303.15
283.15
303.15
303.15
303.15
303.15
283.902
303.15
303.15
303.15
303.002
303.15
303.15
283.15
283.15
283.15
283.15
303.009
283.15
283.15
300.426
303.15
284.654
284.797
303.15
301.088
303.15
283.15
303.15
283.15
283.15
303.15
303.15
303.15
301.48
303.15
303.15
303.15
283.15
303.15
283.15
286.345
303.15
303.15
291.917
303.15
283.15
283.15
301.115
303.15
303.149
283.15
303.203
283.15
283.15
283.15
298.988
283.15
283.15
303.054
303.159
283.15
303.165
303.151
303.151
283.15
283.15
302.721
283.463
285.843
301.265
283.161
283.15
283.15
301.864
301.809
283.15
300.648
283.15
289.627
302.425
302.801
284.994
283.15
299.806
283.15
283.482
300.536
303.15
283.15
283.15
302.844
283.721
283.15
301.51
283.15
303.15
301.253
303.15
285.674
301.787
283.698
285.047
303.15
283.15
302.15
298.906
283.144
303.169
283.151
302.797
301.994
301.212
303.15
303.211
301.128
294.886
290.137
289.565
302.999
301.444
300.142
299.094
283.3
302.64
283.15
283.177
303.15
302.952
303.15
303.15
302.255
302.338
283.15
303.15
284.908
292.49
290.326
301.46
303.15
284.065
283.15
284.482
303.15
283.151
303.15
295.15
295.169
300.744
303.148
303.15
303.15
302.227
301.561
302.813
303.15
291.835
302.84
290.901
283.15
296.416
283.15
303.15
290.43
283.15
283.207
283.15
302.589
303.111
303.15
302.965
283.15
283.147
300.849
302.407
283.15
283.615
296.129
283.15
283.475
303.133
285.112
283.15
283.321
297.035
298.604
300.659
283.432
301.999
290.249
283.15
303.15
302.833
302.791
302.637
283.161
302.863
283.15
302.253
286.981
303.15
283.42
283.15
301.531
302.667
283.15
283.15
287.516
302.719
296.694
303.15
303.15
295.254
283.15
292.882
283.412
303.15
283.15
290.515
283.809
303.15
289.162
294.261
284.402
301.592
289.926
283.152
300.152
303.127
303.15
303.15
283.663
302.755
283.335
286.148
303.15
303.006
303.071
303.15
285.169
300.443
283.15
283.261
299.47
302.517
283.15
287.514
283.15
303.114
291.245
283.899
283.148
303.15
303.105
303.15
303.15
283.856
302.69
294.427
283.054
283.151
303.15
283.15
303.013
303.078
297.78
299.854
303.15
283.15
283.15
300.111
299.963
283.228
287.672
303.15
303.15
300.516
285.894
283.264
300.265
299.969
301.848
284.317
303.15
283.15
297.984
283.15
303.15
302.804
301.854
285.01
285.103
301.987
303.032
303.15
298.177
284.314
283.15
303.15
283.15
283.15
283.152
283.15
301.913
286.072
283.15
289.727
289.578
283.15
303.15
303.15
283.15
283.15
301.878
283.151
300.624
301.242
283.703
286.997
301.347
283.15
283.15
283.035
303.15
303.15
300.449
289.738
302.16
283.145
283.15
283.975
283.15
283.15
283.151
303.08
300.977
299.435
283.15
283.428
303.105
283.15
303.15
283.15
302.555
283.152
300.106
283.155
283.578
303.065
283.147
283.15
302.607
283.15
299.763
283.157
291.18
285.159
303.15
284.461
283.15
283.15
283.293
285.312
284.547
283.15
283.15
301.346
283.15
283.15
298.9
295.352
301.65
283.472
299.745
290.753
283.15
303.281
292.394
283.15
283.15
283.15
303.15
289.744
298.519
297.162
284.986
289.311
289.554
283.155
283.152
283.15
303.056
291.346
287.278
291.47
283.15
286.348
284.834
301.762
283.15
284.181
300.094
283.15
303.15
283.2
284.616
303.15
283.946
302.147
303.058
303.15
283.15
283.15
303.152
301.963
283.15
283.15
283.15
302.279
297.863
303.141
283.173
303.163
303.15
283.178
303.163
289.679
283.15
283.15
283.33
283.159
283.15
283.15
283.335
283.15
283.15
287.494
283.15
283.15
283.15
283.15
283.15
285.032
283.177
301.98
285.991
283.149
283.146
283.15
283.078
283.15
283.15
284.239
283.153
289.734
283.153
283.122
283.19
283.15
290.386
290.936
295.193
283.382
283.15
300.767
283.15
302.797
283.15
303.15
285.209
286.212
283.15
283.152
297.236
286.965
303.15
303.15
301.846
283.239
303.034
283.503
283.15
287.47
303.147
284.393
288.08
303.15
301.668
283.15
283.15
283.731
283.176
283.144
283.334
283.153
286.275
300.957
303.15
285.529
283.152
290.813
303.15
303.15
301.833
302.258
303.15
293.563
283.15
283.802
283.15
283.151
288.612
303.15
302.952
286.966
285.082
283.15
283.703
292.38
299.951
283.169
283.235
282.898
302.099
303.146
283.15
303.141
303.15
300.38
292.957
283.151
283.15
283.15
283.15
295.978
285.454
283.222
295.263
283.15
289.489
303.165
293.01
284.237
303.149
283.352
283.15
288.585
283.15
283.15
287.713
283.15
303.143
285.137
283.15
293.237
283.15
283.15
283.15
303.142
283.15
283.137
286.277
303.15
283.15
303.163
283.179
284.576
289.756
303.175
302.978
287.085
303.15
283.15
303.167
302.241
283.256
283.15
283.15
303.15
303.113
283.171
283.15
283.15
283.448
286.226
303.089
303.149
287.385
289.171
283.511
283.169
283.15
285.54
303.15
283.15
303.117
303.15
302.517
283.838
287.018
303.112
283.151
283.261
284.196
302.822
302.309
283.376
293.612
303.103
291.249
283.155
303.15
303.115
302.733
285.488
283.444
303.15
285.508
283.343
302.982
301.451
301.279
283.15
300.551
301.895
303.15
301.03
285.19
303.15
298.396
303.15
283.15
299.992
302.699
286.198
301.393
283.15
283.15
303.03
283.15
292.569
285.062
292.909
284.252
303.15
303.002
302.841
286.203
283.15
284.7
283.15
289.452
283.541
289.508
303.15
283.15
283.15
283.15
283.15
289.254
283.483
283.15
283.15
283.15
283.15
303.15
283.15
297.717
283.15
283.151
285.266
292.868
303.115
303.158
292.795
295.221
283.665
283.263
293.227
283.145
303.15
303.154
300.111
283.15
302.813
283.15
303.15
289.279
286.964
292.914
283.15
288.223
283.15
283.551
287.442
298.92
303.066
283.15
303.15
291.311
283.559
283.08
283.147
287.308
298.444
303.149
284.652
283.17
283.15
283.171
303.151
283.187
287.387
284.829
283.15
283.182
283.734
283.093
303.158
303.15
303.15
283.151
283.162
283.15
303.15
303.15
283.15
283.15
283.15
287.484
301.017
303.15
283.15
301.554
303.15
289.49
283.71
301.72
303.15
284.183
283.211
283.15
302.01
303.15
303.15
285.188
283.15
283.15
283.15
303.15
303.15
283.15
286.943
302.527
283.15
303.15
284.125
303.15
303.15
283.15
283.15
283.15
283.15
283.15
283.15
283.15
303.15
283.244
286.887
303.15
283.15
283.15
283.15
303.15
303.15
303.15
283.15
283.15
302.833
283.15
283.15
283.15
287.674
291.469
301.026
303.15
303.15
283.15
303.105
286.653
295.882
303.15
303.148
283.15
283.15
299.409
285.529
303.15
303.15
283.356
303.124
303.15
303.15
283.15
288.099
303.15
303.15
284.889
298.907
283.15
303.15
284.487
283.15
283.15
286.218
288.263
303.15
283.53
303.15
303.15
283.141
299.36
289.981
283.15
303.15
303.136
302.161
293.647
299.975
301.443
284.351
283.531
300.524
283.15
303.15
302.857
284.236
283.15
297.016
287.946
303.15
294.706
296.691
296.02
296.614
283.151
303.15
283.15
298.604
283.15
283.15
287.261
283.15
283.308
283.15
283.15
283.15
283.15
296.863
283.15
297.251
283.15
283.226
289.236
284.716
283.15
303.15
297.037
300.901
303.17
296.908
283.15
283.15
283.15
283.15
283.15
283.15
283.626
283.164
283.15
283.15
303.149
283.15
283.15
287.057
303.151
303.152
284.189
283.15
288.937
293.528
283.15
283.15
302.97
285.723
302.637
286.214
286.138
283.15
283.582
291.436
303.119
289.114
302.753
283.15
289.472
287.302
288.602
300.861
285.295
303.111
283.15
296.903
302.958
303.151
283.164
303.149
303.043
292.986
302.61
283.15
303.15
303.15
294.81
290.972
283.156
301.291
284.563
284.081
284.603
303.145
287.553
283.15
283.15
283.15
302.615
303.154
294.261
302.932
303.175
300.137
303.204
302.949
283.15
283.15
302.943
283.15
303.15
283.15
303.15
284.316
299.254
283.166
290.404
283.15
287.148
303.054
283.15
283.15
303.056
283.15
301.462
303.144
303.092
283.15
283.15
298.457
302.22
283.227
302.908
302.343
302.561
303.14
283.15
283.15
283.15
302.887
283.151
303.021
303.15
283.15
302.917
285.363
290.214
302.285
283.15
302.697
302.233
283.15
302.621
303.054
303.195
303.037
303.15
283.15
295.659
298.044
303.103
303.15
284.086
285.268
303.15
283.15
283.152
303.184
303.162
302.966
301.423
284.495
303.116
290.676
283.15
303.148
286.392
303.161
283.15
283.185
283.15
300.423
298.801
284.955
288.038
299.938
283.15
294.105
299.603
293.353
303.152
293.462
296.302
283.155
299.747
283.152
303.15
283.151
299.581
303.15
283.206
303.169
301.789
303.15
286.571
284.65
302.803
289.092
283.15
283.15
300.446
300.849
283.869
283.15
303.15
283.15
302.469
299.725
284.029
298.097
289.271
289.042
283.15
286.687
284.211
283.948
283.316
294.749
288.902
293.996
287.767
283.205
303.159
283.286
303.147
283.212
300.901
283.151
288.077
283.15
287.948
301.977
283.209
283.191
283.15
302.995
283.156
283.109
288.106
299.815
303.15
296.235
303.06
283.15
302.841
303.15
301.584
284.828
283.15
302.253
303.15
283.655
283.15
290.975
283.15
285.54
303.179
303.149
283.15
283.15
283.177
303.15
293.568
303.15
303.156
295.348
303.451
303.15
283.15
303.15
303.15
293.755
289.734
303.15
289.22
295.183
288.963
303.15
303.15
285.973
283.355
289.979
303.208
303.15
303.147
285.283
283.309
283.15
288.495
287.343
303.15
283.864
303.15
303.15
303.133
287.036
303.15
303.149
283.279
303.152
302.732
287.456
283.152
283.683
296.845
291.01
303.15
284.54
283.15
283.652
283.15
302.295
283.15
291.827
303.15
303.15
283.945
303.164
303.006
290.884
303.004
295.035
283.15
283.15
283.15
283.222
283.15
302.73
283.215
303.15
283.829
286.364
303.126
283.177
303.15
284.83
283.15
283.151
303.15
300.05
299.931
283.336
283.416
302.288
283.15
301.092
303.15
301.687
301.998
303.15
303.15
283.15
294.315
283.15
283.15
303.15
285.062
283.369
303.15
283.15
299.232
288.522
303.15
302.819
283.151
296.052
284.318
303.163
283.15
296.934
283.166
303.125
302.874
287.244
299.13
283.15
283.15
289.121
283.15
303.007
303.151
303.15
303.165
294.03
297.105
302.956
301.106
303.15
283.256
303.15
303.073
302.91
303.15
293.022
295.596
303.15
285.318
303.111
303.15
303.114
303.155
286.371
293.774
288.772
287.861
283.15
303.15
283.15
292.42
295.053
293.544
303.142
303.15
283.151
303.186
283.718
303.186
303.15
303.15
303.143
303.15
284.919
303.15
284.222
303.148
303.15
290.135
303.146
292.585
295.27
303.139
293.493
283.162
283.421
303.136
302.914
284.765
283.15
283.15
303.15
285.444
302.937
296.013
303
298.013
286.938
303.15
283.15
289.311
299.371
283.15
283.678
303.15
303.145
303.187
283.15
303.15
291.932
288.241
303.191
303.15
284.824
283.15
293.684
283.15
302.619
290.359
283.15
303.15
284.371
296.048
302.248
285.895
283.458
283.397
284.501
290.22
303.15
286.761
284.187
283.152
283.15
303.15
285.908
283.15
303.15
295.571
287.622
284.837
283.15
303.15
296.394
283.184
283.15
283.179
301.733
283.192
303.15
287.729
284.985
283.177
283.175
283.15
303.15
283.199
303.15
283.182
303.15
302.926
303.15
292.254
303.15
296.728
283.15
290.305
303.15
283.15
283.15
285.015
285.267
288.693
285.416
303.15
302.001
303.15
285.916
283.204
303.15
285.157
283.717
303.15
284.934
303.15
303.15
283.552
283.15
285.764
283.15
284.105
303.15
283.15
283.15
286.496
287.223
287.054
298.825
297.673
284.371
283.15
286.68
284.456
283.15
303.15
303.15
303.15
283.155
284.161
303.15
302.948
284.368
303.15
301.841
303.15
283.15
301.497
303.15
283.15
303.156
283.15
303.15
284.565
283.437
302.13
300.789
283.15
287.706
284.991
292.921
283.15
303.15
302.154
283.15
283.15
283.175
303.15
302.452
283.15