/*--------------------------------*- C++ -*----------------------------------*\
  =========                 |
  \\      /  F ield         | OpenFOAM: The Open Source CFD Toolbox
   \\    /   O peration     | Website:  https://openfoam.org
    \\  /    A nd           | Version:  10
     \\/     M anipulation  |
\*---------------------------------------------------------------------------*/
FoamFile
{
    format      ascii;
    class       volVectorField;
    location    "3.3";
    object      U;
}
// * * * * * * * * * * * * * * * * * * * * * * * * * * * * * * * * * * * * * //

dimensions      [0 1 -1 0 0 0 0];

internalField   nonuniform List<vector> 
111485
(
(2.47515 -2.47477 0.00174366)
(7.04002 -0.0132388 -0.0321932)
(6.97518 0.0113741 0.0174174)
(2.47502 -2.47685 1.78101e-05)
(7.22861 0.0222389 -0.00190501)
(2.51102 2.51003 0.00059118)
(7.11301 0.0119905 0.000856817)
(7.27792 -0.00536785 0.0122652)
(7.14018 -0.00794577 0.00418099)
(7.26909 -0.0587434 -0.021726)
(7.01998 0.00754338 0.0163442)
(7.33985 -0.00497941 0.0306346)
(6.94371 0.000947655 0.0128133)
(6.95177 -0.0168846 -0.0304871)
(7.07104 0.0191696 0.0132607)
(7.18035 -0.0205131 -0.0273688)
(7.11068 0.0110573 0.00197048)
(2.53696 -0.239289 0.414376)
(7.24551 0.0104838 -0.0138997)
(2.45714 -2.45402 -0.00104376)
(2.46022 -2.45945 -0.00139714)
(2.5175 2.51678 0.00117344)
(7.1729 0.0127284 -0.00403326)
(7.25162 -0.0354901 -0.0085549)
(7.16493 0.0439455 -0.0174501)
(2.49306 -2.48465 -0.00215478)
(7.36679 -0.0156645 0.0366882)
(7.05094 0.0074021 -0.0104569)
(7.27099 0.000769927 -0.0151283)
(2.46698 -2.46802 0.00186299)
(7.366 0.137679 -0.0392314)
(7.17862 -0.00214667 0.00278799)
(2.45532 -2.4598 0.00336888)
(2.51592 2.51858 -0.00508767)
(2.54107 1.02031 0.41662)
(2.52959 2.54611 -0.0380911)
(7.33236 0.13455 -0.0547645)
(7.02675 0.00933444 0.0570773)
(7.2807 2.19279 0.127563)
(7.23032 0.0267276 0.00752442)
(2.48209 2.50596 -0.0262995)
(7.33654 0.00416969 -0.0405708)
(7.22264 0.031237 0.012747)
(7.05363 -0.0322991 -0.0112381)
(7.34983 -0.138036 -0.0710146)
(2.48915 -2.46929 0.00944289)
(7.33744 -0.0231328 0.0393019)
(7.24306 -0.0309306 -0.00791894)
(7.335 -0.00240099 -0.0325265)
(2.46137 -2.4364 0.0105255)
(2.45449 -2.42932 0.0167391)
(2.86651 2.40386 0.0419345)
(2.44223 -2.43178 0.00831936)
(7.33307 0.0229266 -0.0573181)
(2.43723 -2.42702 0.00373013)
(7.20474 0.00846195 -0.00767742)
(7.20907 -0.0200479 -0.00610033)
(2.51489 2.51328 0.00232411)
(6.61141 -0.020356 -0.104997)
(7.2519 0.02164 -0.00303745)
(7.25116 0.0240679 -0.0018213)
(2.46745 -2.47257 0.00239248)
(6.7375 0.00845747 0.0337553)
(7.38389 -0.00253587 0.049677)
(2.59681 2.34962 0.00378161)
(6.79074 0.00500525 -0.0035856)
(5.1441 -0.455087 0.174962)
(7.26607 -0.0095764 0.0109931)
(6.65271 -0.00146491 0.0145463)
(6.48377 -0.0102036 -0.00838824)
(7.07743 0.0589584 -0.055393)
(6.63204 -0.00851962 0.012949)
(2.66382 -2.40507 -0.0530973)
(6.68286 0.0102568 0.0348481)
(2.47088 -2.47142 -0.000775721)
(7.21412 -0.00221957 0.00500452)
(2.51645 2.51559 -0.00215254)
(7.33026 -0.0135058 0.0338166)
(2.51494 2.51495 0.00070936)
(2.26188 2.19715 -0.0770572)
(7.09048 -0.110142 0.0734015)
(7.29273 0.0322677 0.00637281)
(2.50669 2.50323 -0.000885238)
(2.47228 -2.47286 0.000650341)
(6.9102 -0.00619731 0.00826458)
(6.71296 0.0116113 -0.0122362)
(5.65468 3.65881 -0.988364)
(7.23774 0.0730546 0.00637642)
(6.98321 0.179898 0.152758)
(7.02151 0.00447799 0.00811339)
(7.4723 0.126074 -0.0890778)
(7.24552 -0.00717021 0.0100171)
(6.8453 -0.011448 0.00787503)
(6.99979 0.00468548 -0.00247257)
(7.34738 0.0110378 -0.0378514)
(2.47246 -2.47198 -4.79658e-05)
(2.46613 -2.46675 0.00184234)
(7.23591 0.0716397 0.0213496)
(7.50781 -1.50071 0.100571)
(6.85266 0.0169124 0.0470772)
(2.473 -2.47297 0.00326697)
(7.25403 -0.0266869 0.00619469)
(2.52719 2.53301 0.0132566)
(7.21711 -0.00595052 -0.00163358)
(7.10088 -0.0174772 -0.0285069)
(2.46794 2.19662 -0.0535681)
(2.5161 2.51534 -0.000649528)
(7.17776 -0.00525569 -0.00050127)
(6.82339 -0.0320389 0.000444845)
(6.46629 -0.188342 -0.195205)
(6.993 0.00501458 0.00233144)
(7.18597 0.00592992 -0.000693486)
(6.77512 -0.0096547 0.0159593)
(6.72241 -0.0283345 0.00243136)
(2.49618 -2.48345 0.0023681)
(6.64341 -0.000257845 0.000748442)
(2.48251 -2.47459 -0.00347302)
(2.52707 2.51646 0.0108351)
(7.06708 0.0158288 0.0130431)
(2.47559 -2.47539 0.000112596)
(2.49335 -2.48336 -0.00174203)
(3.32797 2.60514 0.157893)
(2.48553 2.49903 -0.00399058)
(2.52131 2.51492 -0.00614471)
(6.97187 -0.0214569 0.0343715)
(1.98239 -1.4153 -0.365956)
(3.17135 2.72018 0.100605)
(6.68631 -0.00363165 0.0121676)
(2.47343 -2.4716 -0.00211941)
(7.31478 0.517852 -0.199849)
(7.30888 0.151805 -0.0857534)
(7.22141 0.073606 0.0197686)
(2.45942 -2.45267 -0.0117551)
(3.25548 2.82417 0.298352)
(3.03368 2.70455 0.131439)
(7.2598 0.0108297 -0.0127445)
(2.5189 2.51905 -0.00265534)
(7.16944 0.0111436 -0.00300182)
(7.15236 0.0210713 0.0128773)
(7.04105 0.0203953 0.0225505)
(5.74429 -0.00140745 0.0107639)
(7.20768 0.0285409 0.00714554)
(7.14801 0.0251987 0.0171409)
(6.89413 0.0045084 -0.0161847)
(7.19615 -0.00311781 -0.00186863)
(7.04667 -0.0103717 0.00122466)
(2.51794 2.51956 -0.00106583)
(2.47258 -2.47437 0.00101804)
(2.5113 2.51287 0.00567813)
(7.22159 0.0257236 0.00516709)
(6.90604 0.00825852 -0.014047)
(2.46179 -2.46175 -0.00010927)
(4.80182 -0.0167706 0.0444808)
(7.07846 0.0190979 0.0230773)
(7.75851 0.297708 0.140788)
(7.25791 0.0127013 -0.0115793)
(7.22597 0.0138041 -0.00388457)
(6.84872 0.0140221 -0.023932)
(7.81831 0.370207 0.0962433)
(2.45918 -2.48176 0.0101553)
(2.47106 -2.47421 0.00216969)
(7.25115 0.0105453 -0.0138383)
(7.10925 -0.0150537 -0.0151701)
(7.86897 0.421243 0.105125)
(7.75795 0.369098 0.144593)
(6.79568 0.00254971 0.020459)
(7.28105 0.0741865 -0.0258727)
(2.48398 2.50528 0.000718489)
(7.96573 0.519603 0.127054)
(7.59363 0.365791 0.122257)
(2.51488 2.51445 0.00233991)
(2.46753 -2.46751 0.000826958)
(6.04379 0.0115648 -0.0304534)
(2.51794 2.51887 0.00103434)
(7.14813 -0.00431078 -0.000878299)
(7.03266 0.000594916 -0.00639914)
(2.51634 2.45463 -0.0155599)
(2.66784 -2.45483 0.0235701)
(2.46533 -2.45347 -0.00495519)
(2.48023 2.33633 -0.0253839)
(2.68339 -2.47687 0.0427971)
(2.46862 -2.47284 0.00257229)
(7.20809 0.0141639 -0.00777643)
(7.22687 0.0067867 -0.0111868)
(7.20246 0.0135726 -0.00277254)
(7.05278 -0.043543 0.027673)
(6.88793 -0.0208878 0.00304048)
(6.91068 0.00356633 0.011344)
(6.23016 0.0643977 0.00543731)
(2.46892 -2.45892 0.000754926)
(6.75509 -0.00543552 -0.000357495)
(2.6647 -2.47441 0.0250695)
(2.4896 -2.49268 0.000555352)
(6.94941 0.00241498 0.0138192)
(7.27502 -0.0664974 -0.0212622)
(7.23931 0.00300126 -0.034795)
(7.03036 0.00359333 -0.00570561)
(7.08608 0.00241918 0.00527667)
(2.46742 -2.46215 0.00821051)
(7.02091 -0.0199987 0.00516567)
(6.9241 -0.00427921 -0.0243929)
(4.83529 1.5113 0.210908)
(7.09741 -0.0619245 -0.00277064)
(7.16727 0.000274059 0.00222198)
(2.47919 -2.46777 -0.00487865)
(6.92274 0.00496505 0.0134)
(7.27131 0.0152889 0.000535513)
(2.70475 -2.4502 0.00819344)
(7.00708 0.00806126 0.030667)
(7.33101 0.000365052 0.0256006)
(6.89409 0.00431347 -0.0160574)
(6.90019 0.0114982 0.0186218)
(2.68058 -2.48461 0.0330174)
(2.4644 -2.46594 -0.00167004)
(6.898 0.0119954 0.0232773)
(4.5134 2.81798 -0.27664)
(7.40216 0.0182244 -0.0686081)
(2.51557 2.51586 -0.00164254)
(6.93068 0.0089948 0.0186559)
(6.97463 0.00074914 0.00334619)
(7.35438 -0.0079843 0.0430322)
(2.47472 -2.4727 0.00213332)
(6.71116 -0.00436561 -0.000558059)
(7.2799 0.103714 0.055059)
(3.98124 2.6568 -0.290324)
(2.51791 2.51712 -0.00125178)
(2.51464 2.51504 0.00167015)
(7.44904 -0.0257465 0.0727836)
(6.9693 0.15711 -0.0140504)
(2.64733 2.22779 -0.0537428)
(3.05538 -2.37633 0.0930511)
(6.99311 0.00213623 0.00623133)
(7.14607 0.00518411 -0.000437173)
(7.21725 0.00944422 0.0100518)
(2.60825 2.25957 -0.064808)
(2.60426 -2.39883 -0.00815024)
(7.02944 0.0925091 -0.11071)
(2.47134 -2.47172 0.00242297)
(6.72666 0.00336225 -0.0282749)
(6.92571 0.00204422 0.014608)
(6.98383 3.40222e-05 0.00966784)
(6.97606 0.00503548 0.0106669)
(6.99493 0.00360001 0.0132567)
(2.50754 2.50845 0.00947745)
(5.35957 -0.00996677 -0.187642)
(7.03955 0.0169173 0.0133516)
(2.50365 2.51012 -0.00556336)
(2.51599 2.51971 -0.000484812)
(7.37946 -0.0716429 -0.00367707)
(7.18085 0.0282006 -0.00400433)
(2.57628 2.1888 -0.0711352)
(6.83678 -0.012195 -0.00800012)
(7.03147 0.00887896 0.0130487)
(2.47361 -2.47316 -0.000958984)
(3.19307 3.00981 -0.0188605)
(7.27773 0.082691 -0.0371773)
(2.48334 -2.45294 -0.000832228)
(2.73842 -1.96635 -0.0501549)
(3.74077 -1.32956 -0.127889)
(2.47661 -2.4708 -0.00155944)
(7.08893 -0.00478473 -0.00456197)
(6.95336 -0.0156099 -0.00307388)
(7.12449 0.00232289 -0.0143417)
(2.47072 -2.47089 -0.000994058)
(7.0697 0.0111216 0.0110057)
(2.47641 -2.4769 -0.00142012)
(2.47426 -2.47662 0.00157444)
(2.46751 -2.45825 0.00418471)
(5.00758 0.0215999 -0.0637323)
(7.32858 -0.0171698 0.033484)
(6.94971 0.019743 0.0219027)
(7.06815 0.0159047 0.0133391)
(7.32145 -0.0271448 0.000818717)
(7.05309 0.0108246 0.0109584)
(7.19729 0.0189674 0.00742184)
(7.32127 0.114931 -0.00115104)
(7.12381 0.000706481 -0.00368334)
(7.14803 0.00360447 0.00111093)
(2.56198 2.51981 -0.00160301)
(2.46383 -2.46575 -0.00260173)
(4.57823 0.0293069 -0.102065)
(7.17962 -0.0039675 0.00236716)
(7.29112 0.0532775 0.0608257)
(6.99044 -0.00334534 -0.00268004)
(2.47479 -2.47435 0.00271929)
(7.15779 0.0158002 0.00704206)
(7.19698 0.0293712 0.0124679)
(7.07545 0.00702799 0.00833022)
(6.43004 0.00249533 -0.0443252)
(6.56777 -0.066641 -0.146018)
(7.16444 0.0145031 0.00095974)
(7.05676 0.010797 0.0121758)
(7.23156 0.0702112 -0.0437315)
(2.51534 2.51788 0.00419423)
(6.73494 0.0271742 0.00437454)
(2.51609 2.51609 2.69756e-05)
(2.02918 1.5232 -0.334771)
(2.77424 -1.80927 -0.17736)
(7.50513 -0.0537001 0.11099)
(7.32365 -0.0273053 0.000626115)
(7.15709 -0.0092245 0.00403267)
(2.47416 -2.46971 -0.00161092)
(2.50545 2.51957 0.0193564)
(7.13499 0.0162342 0.0113902)
(6.99166 0.00157846 -0.00366576)
(2.46503 -2.46393 -0.000599939)
(2.4744 -2.47289 0.00343419)
(2.42002 -2.43474 0.0148924)
(6.94495 -0.000743499 0.00530229)
(7.13269 -0.00297781 -0.00501318)
(6.871 -0.000552965 0.0153539)
(6.75422 0.00890647 -0.0199303)
(7.27915 0.0152449 -0.0128728)
(2.88634 2.47631 0.0665473)
(2.51153 2.51703 0.00425464)
(2.4723 -2.46902 -0.000182625)
(7.11659 0.0163382 0.010386)
(4.69695 -3.98277 -0.284002)
(6.90334 -0.00942394 0.0136673)
(7.45568 -0.0370595 0.163143)
(6.04671 0.00784851 -0.106711)
(2.51605 2.52029 0.000491922)
(2.47173 -2.47332 0.00166387)
(2.47332 -2.47467 -0.000835895)
(3.18548 2.66293 0.168502)
(7.20353 0.0137419 0.00160553)
(7.28775 -0.0286757 0.0103022)
(2.52044 2.52733 0.000831439)
(7.17362 0.00908216 -0.00471625)
(2.66088 2.14196 0.156707)
(2.47659 -2.44427 -0.00110873)
(7.40005 -0.00859981 0.053353)
(7.14735 0.0128283 0.010228)
(7.32957 0.00321265 0.0172144)
(7.17121 0.0127586 -0.00781125)
(2.41751 2.1347 0.133303)
(3.1555 2.70645 0.180657)
(2.51134 2.5129 -0.00422929)
(7.16121 0.0134656 0.0084729)
(7.13271 0.0111701 0.0013867)
(7.34555 0.144876 -0.0531167)
(2.48759 2.47888 0.00426467)
(5.01733 4.43697 -1.07015)
(6.90935 0.0586483 0.0697732)
(7.29729 -0.019647 0.0164161)
(7.14934 0.0191635 0.0106721)
(6.8648 0.686044 -0.0527529)
(7.28168 0.008526 -0.0168806)
(2.50857 2.50608 0.00232464)
(7.27793 0.0118105 -0.00958792)
(7.01926 0.00582619 0.00972131)
(7.39941 -0.158002 0.00390068)
(7.42136 -0.0306607 0.0868913)
(7.1184 -0.0394988 -0.0374056)
(2.50406 2.51686 -0.00865564)
(2.46596 -2.46988 -0.00266942)
(2.52106 2.50441 0.010102)
(2.45341 -2.4602 -0.00142054)
(7.26291 -0.0198118 0.0042359)
(7.19323 0.00372755 -0.00112121)
(7.26015 0.020803 -0.025041)
(7.28109 0.00799462 -0.0186368)
(2.49395 2.49827 -0.0102448)
(7.19644 -0.0355591 -0.0119251)
(2.51403 2.5147 0.0035983)
(2.46482 -2.47151 -0.000885516)
(7.27613 0.0131852 -0.0137756)
(2.28001 -2.28159 0.0315959)
(4.04769 -0.786683 -0.0550527)
(2.44309 -2.43401 0.000594112)
(2.53616 2.50396 0.020307)
(7.22659 0.00417378 -0.0080901)
(2.51496 2.51304 0.000950604)
(7.10825 0.00692094 -0.00414504)
(6.84562 0.00781026 -0.0178747)
(2.52117 2.52148 -0.000526354)
(6.63462 -0.000340253 -0.0188097)
(7.1004 0.00578842 0.00526103)
(2.53588 2.21836 -0.0836623)
(7.04404 0.0213723 0.0313812)
(6.83541 0.0197488 0.0122607)
(7.08894 0.0174873 0.0112035)
(6.64532 0.0209809 0.0802403)
(7.11252 0.011162 0.00587656)
(6.95279 0.00197964 -0.00128955)
(2.48587 2.11666 -0.00842037)
(2.46433 -2.45828 0.0136368)
(6.17197 0.00711038 0.131953)
(2.49856 2.50539 -0.0136876)
(7.09811 0.0235844 0.0300645)
(7.40746 -0.0229302 0.0668124)
(2.529 2.41291 0.0209737)
(2.50951 2.52053 -0.00284975)
(7.23499 -0.000271572 0.00399781)
(6.99858 -0.023622 -0.0543077)
(7.01595 0.0296964 -0.00342898)
(7.27849 0.0323443 -0.0135351)
(2.51715 2.51462 0.00155691)
(7.44206 -0.0040443 0.114462)
(7.31175 -0.0131426 0.0302536)
(2.52492 2.52056 -0.000873748)
(7.16432 0.108939 0.0906016)
(6.842 -0.0171747 -0.0563729)
(2.46922 -2.46712 -0.000718423)
(2.4648 -2.46302 -0.00186074)
(7.07949 0.00794248 -0.00227944)
(7.16871 -0.0017952 -0.00980029)
(2.52494 2.52556 -0.00376934)
(2.46989 -2.46664 -0.00480452)
(4.31754 -2.34771 0.53011)
(2.47419 -2.4757 0.00073343)
(7.20256 0.00465697 0.0102284)
(2.49951 2.5072 0.00449491)
(2.47405 -2.47609 0.000596086)
(7.33164 0.00462625 0.0221968)
(6.68305 -0.0689218 -0.17908)
(7.26623 -0.0389812 0.00692872)
(7.03685 -0.00978071 0.00709504)
(2.52309 2.5204 0.00103513)
(3.27524 2.51443 0.125014)
(7.02837 0.0847223 0.134289)
(3.06788 2.69946 0.14875)
(7.00951 0.0223422 0.0478548)
(6.98167 -0.05906 -0.000295495)
(7.27538 -0.0318867 -0.0195277)
(5.08546 0.132541 0.200668)
(3.01461 2.59053 0.135356)
(7.18933 0.000812836 -0.0701606)
(7.40031 0.234177 -0.0651166)
(2.47187 -2.47422 0.00324089)
(7.3462 0.00891141 -0.0686617)
(7.33057 -0.0199598 0.0257158)
(2.47522 -2.47378 0.00339244)
(7.10463 0.389254 -0.204954)
(6.26958 0.000961758 -0.0679209)
(3.18568 2.49506 0.102058)
(7.30856 -0.00742767 0.0259879)
(7.24144 0.000552629 -0.0063263)
(7.11026 0.00938932 -0.00620153)
(2.51805 2.51252 -0.000311432)
(7.07742 -0.0123308 0.0562165)
(7.34351 0.00933567 0.0198805)
(7.05001 0.052013 -0.0135079)
(4.51806 -0.0649912 0.0641878)
(3.0716 2.89078 -0.0575207)
(4.24626 -0.107515 0.139174)
(2.47098 -2.47411 0.00272533)
(6.62737 -0.216666 -0.200444)
(7.07199 -0.0154074 -0.062624)
(2.51776 2.51468 0.00406603)
(6.84645 0.0141773 -0.0372836)
(5.69702 -0.0131014 0.0894186)
(3.27719 2.89243 -0.0282081)
(2.47169 -2.47052 -4.20047e-05)
(2.88969 -2.46221 0.079122)
(2.47462 -2.47398 0.000416768)
(7.12918 0.0577372 -0.0160167)
(7.10485 0.0291246 -0.00752977)
(7.11824 -0.0103348 -0.0102509)
(6.73952 0.00797605 -0.0183573)
(7.2858 -0.128415 -0.023983)
(2.51429 2.50365 -0.00393014)
(7.08417 0.00420122 -0.00528207)
(2.48088 -2.45966 -7.3169e-05)
(6.99387 0.0164243 0.0131671)
(2.52372 2.52387 0.000795528)
(2.47311 -2.47079 -0.000240216)
(2.44497 -2.45155 -0.0045793)
(6.96351 -0.0343764 0.00736504)
(2.46139 -2.46781 -0.00107983)
(2.47419 -2.47492 0.00178621)
(2.48296 1.6267 -0.104471)
(2.47583 -2.47629 0.00113722)
(2.48727 2.52194 0.0230808)
(7.06001 -0.0351915 -0.0172062)
(2.51534 2.51203 -0.00049584)
(2.98784 2.19923 0.00138055)
(2.51886 2.51788 0.00330297)
(2.46433 -2.45598 -0.000365468)
(2.51733 2.50631 -0.00546357)
(2.46381 -2.45029 -0.0118111)
(2.50079 2.50358 -0.000665049)
(6.51425 -0.00994288 -0.0275132)
(2.52097 2.50797 0.0101205)
(6.59981 0.0854465 0.13064)
(7.22299 0.0246043 -0.0101085)
(7.4317 -0.287997 -0.0453861)
(2.51912 2.51066 0.000155792)
(6.28278 0.0134568 0.0954944)
(2.52087 2.51209 0.00186772)
(2.47509 -2.475 -0.000507465)
(7.05477 -0.0497476 -0.060499)
(7.07912 -0.0423555 -0.0570936)
(7.11827 -0.00574499 -0.0119052)
(7.46567 0.00286031 -0.121983)
(2.90356 2.4324 -0.0779693)
(7.2839 -0.00496873 -0.0366218)
(7.27949 -0.0065329 -0.0348503)
(7.12908 0.00379121 0.000932234)
(7.08349 0.00200853 0.00285304)
(7.17261 -0.0561599 -0.0340215)
(2.46463 -2.46569 -9.51721e-05)
(7.13309 0.00187796 0.00202927)
(3.31173 2.8809 -0.020024)
(7.1833 0.00999324 -0.0125729)
(2.5117 2.50973 -0.00179182)
(7.3103 0.00191226 -0.0251367)
(3.27011 2.70969 0.0267707)
(7.15246 -0.0028273 -0.00751745)
(7.25469 -0.0271223 0.0221428)
(2.84698 -1.46597 -0.0139083)
(2.51586 2.51804 0.0271334)
(7.08576 0.00514318 0.0171647)
(2.47188 -2.47041 -0.000568146)
(7.33938 0.019224 -0.047588)
(7.28594 0.019881 -0.0277754)
(2.51334 2.50744 -0.02049)
(2.50761 2.50896 0.00519272)
(2.46227 2.19722 -0.0521013)
(2.51449 2.51734 0.000174948)
(5.1027 -0.277254 0.140093)
(7.34472 0.0160919 -0.0397803)
(2.5539 2.49419 -0.0026522)
(2.51155 2.51362 0.001514)
(6.45463 0.00132462 -0.00448351)
(2.51768 2.51937 -0.0015085)
(7.23062 0.0117637 -0.0229711)
(2.51562 2.5169 0.00258682)
(7.16409 -0.0285255 -0.0268982)
(2.4749 -2.47454 0.00114284)
(6.72152 -0.0307436 -0.0786303)
(5.77354 -0.0198381 -0.0098139)
(6.88209 0.0101325 -0.00601032)
(7.15208 0.000241987 -0.0102855)
(2.52741 2.50534 -0.00627611)
(6.81182 0.0115767 -0.0175899)
(2.52209 2.51332 0.00253407)
(2.51882 2.5176 -0.0078776)
(7.13134 -0.007767 0.00318825)
(2.51422 2.51138 -0.00158767)
(6.17181 -0.000668688 -0.0513715)
(2.42974 2.23409 -0.0704625)
(7.24118 0.0131032 -0.0215025)
(2.46496 -2.46484 0.000663675)
(7.31058 0.00774842 -0.0138575)
(2.47709 -2.47352 -0.00100724)
(3.00523 2.64963 0.0838739)
(7.41943 0.281182 -0.0219488)
(7.07643 -0.0507209 -0.056664)
(7.20472 0.0198973 -0.00148358)
(7.23557 -0.0600154 -0.0409037)
(7.17686 0.00374054 -0.0117259)
(7.3141 -0.0325352 -0.00225484)
(2.4988 2.51988 -0.0126629)
(7.19989 0.0352322 0.0260435)
(7.10325 -0.0575053 -0.0530856)
(2.51776 2.51722 -0.00188432)
(6.10818 -0.0903453 -0.204026)
(7.38078 -0.0672776 -0.0397726)
(7.07301 0.0197605 0.0240657)
(2.48574 2.45232 -0.0137722)
(3.10354 0.580322 -0.508305)
(6.93669 0.0106878 0.0184197)
(5.77443 -0.0250999 0.046695)
(5.87754 1.49452 -0.00760289)
(3.1905 -1.65022 -0.127952)
(7.30321 -0.064995 -0.0123803)
(6.87037 0.0178575 0.0419875)
(7.06653 -0.0530095 -0.0577694)
(7.21693 -0.0269387 -0.01253)
(7.06588 0.0338913 0.0190993)
(6.32102 0.802152 -0.0288151)
(3.12383 2.64125 0.0249556)
(6.44607 -0.249009 0.0573565)
(6.23992 -0.554758 0.119604)
(2.46935 -2.47193 0.000510644)
(6.46405 0.035035 -0.0107915)
(2.52777 2.4825 -0.0139397)
(2.95761 2.68755 0.0256075)
(7.15515 0.00439748 0.000853207)
(6.37048 1.04931 -0.0216858)
(7.69491 -0.665861 -0.127723)
(6.95071 -1.21385 0.0180026)
(2.95321 2.80513 -0.212971)
(7.27359 -0.0307899 -0.0102255)
(7.17681 0.0349048 0.030478)
(2.51254 2.5042 -0.00115217)
(3.25714 1.78587 -0.0756043)
(7.17548 0.0474244 0.0321064)
(2.47409 -2.4655 0.00204372)
(2.51457 2.51289 -0.000832747)
(2.50818 2.5073 0.000418542)
(2.52004 2.50334 0.00214616)
(7.26664 -0.060097 -0.0222506)
(2.51603 2.51531 0.00116445)
(2.48113 -2.4803 0.0119957)
(7.14307 -0.0291529 -0.0273061)
(6.79775 3.7445e-05 -0.0031808)
(3.61489 -3.17165 -0.169161)
(7.17398 0.043947 0.0312333)
(2.93983 2.36255 0.0569229)
(7.15298 -0.0127948 -0.00931881)
(2.42386 -2.42414 -0.0107587)
(2.51058 2.51579 -0.00277675)
(7.25884 -0.0332467 -0.0105426)
(2.51642 2.5012 -0.00824647)
(2.51686 2.51051 0.000338826)
(2.89106 2.76446 0.0769657)
(6.95474 -0.0107126 0.00564155)
(4.17288 3.48894 -0.465589)
(7.15914 -0.0175153 -0.00760802)
(7.15389 0.00395663 -0.000221293)
(2.45011 -2.43364 -0.0189183)
(7.47288 -0.00967026 0.233061)
(6.80898 -0.0315981 -0.0832943)
(7.13725 -0.00578425 -0.00712957)
(7.24068 0.127666 0.0153477)
(7.28223 0.0599322 -0.159716)
(6.35875 -0.00417261 -0.0402951)
(2.51176 2.50943 0.00198073)
(7.28399 0.0034643 0.0238023)
(7.21164 0.0223946 -0.00612118)
(2.44884 -2.48029 0.00359408)
(6.87775 0.0053608 -0.0137874)
(7.28959 0.0501771 -0.00537852)
(7.27742 0.0249404 -0.0107522)
(6.82091 -0.0293067 -0.0516824)
(7.27561 0.0240296 -0.0130128)
(7.27734 0.0339163 -0.00314669)
(2.47539 -2.44336 0.0154449)
(7.30877 0.000508259 0.0296223)
(6.14056 -0.0366408 -0.0217381)
(3.04282 2.63676 0.168624)
(7.27527 0.0157019 -0.018379)
(6.98881 0.00743784 -0.00791232)
(4.06775 3.30187 -0.503104)
(7.15334 0.0036118 0.000566952)
(7.28267 0.0109385 -0.0226317)
(6.99135 0.00414913 -0.0170971)
(7.22096 0.0265204 0.00102294)
(7.13457 0.0690993 0.0305972)
(7.15489 0.00448025 -0.000493221)
(2.45973 2.40266 0.00290046)
(7.22118 0.0319317 0.00190451)
(6.79322 -0.0382733 -0.0713435)
(2.76319 -1.68073 0.0583242)
(7.1876 0.0606734 0.0360553)
(7.10207 0.0580759 0.0599044)
(7.15813 0.00987949 -0.00348259)
(2.51235 2.50535 0.00175236)
(7.00437 0.0332323 -0.0590448)
(2.47365 -2.46161 0.00795854)
(2.51517 2.51487 -0.00180973)
(2.50255 2.48544 -0.000657216)
(2.52208 2.50809 0.00245835)
(6.24725 0.00135118 -0.0142269)
(3.00828 2.58331 0.11168)
(5.45142 -0.393447 0.44398)
(2.45757 -2.46078 -0.00109968)
(2.50965 2.54598 -0.00503283)
(7.19839 0.0627416 0.0373484)
(7.23838 0.00938979 -0.0334443)
(2.47356 -2.47405 0.000831405)
(7.26497 -0.0356234 -0.00271931)
(2.47385 -2.47047 0.00843366)
(2.47414 -2.47241 -0.000465663)
(2.43187 -2.43486 0.00709261)
(7.35321 -0.043686 -0.00561469)
(6.29176 0.0305324 -0.00706151)
(2.98354 2.67759 0.0385938)
(2.49678 -2.46924 0.00597417)
(2.51272 2.52133 -0.00354135)
(2.51536 2.51791 -0.00133427)
(7.42549 0.0081621 -0.0822596)
(7.16179 0.00419864 0.000199104)
(2.99746 2.81647 0.130177)
(7.32137 0.0116265 -0.0382399)
(6.84588 -0.0923817 -0.277268)
(2.51069 2.51276 0.00135519)
(7.30382 0.00822688 -0.0342935)
(6.70551 -0.00290069 0.0307978)
(7.0705 0.0285492 -0.0372033)
(2.51898 2.51896 0.000643726)
(2.51243 2.50903 -0.000155539)
(7.04762 0.0225599 0.0305841)
(7.17146 0.00703999 -0.00244472)
(2.98511 2.70816 0.0434469)
(2.50787 2.50771 0.00156165)
(2.54249 2.46536 -0.00979465)
(7.17645 -0.0127613 0.0018395)
(2.47227 -2.47229 -0.0028031)
(2.46504 -2.45741 0.00242215)
(2.5013 2.50075 0.000790434)
(7.2986 0.0110667 -0.0303088)
(6.57528 -0.0292584 0.000500751)
(2.51884 2.51932 -7.71915e-05)
(2.81976 0.531438 0.517459)
(3.11616 -0.384076 -0.0971121)
(7.03961 0.0312856 0.0060851)
(2.51347 2.51798 -0.00105619)
(2.51758 2.51266 -0.00146297)
(7.31801 -0.0758604 -0.0079142)
(7.04003 0.115566 0.101923)
(3.02689 2.70207 0.134447)
(4.42924 1.40985 0.0997259)
(6.96234 0.144118 0.210452)
(6.67442 0.0223497 -0.0272543)
(7.09411 -0.000355714 0.000122444)
(2.60337 2.441 -0.00494232)
(7.0346 0.0201781 -0.00208119)
(7.28722 -0.0364998 0.0446266)
(2.51989 2.51309 -0.00371313)
(2.45635 -2.41374 0.00362311)
(2.50202 2.50377 -0.000522534)
(2.51106 2.51136 -0.000352677)
(2.51588 2.52089 -0.00238109)
(2.52071 2.51961 -0.000634019)
(7.31709 0.0126186 -0.0280778)
(2.47165 -2.47215 0.00276918)
(2.50917 2.50947 0.00126874)
(2.50379 2.47241 0.00176916)
(7.32384 0.0138543 -0.0359416)
(7.17127 0.0060736 -0.000948427)
(2.48314 -2.45146 0.000630466)
(2.44296 -2.41867 0.00511193)
(7.38248 -0.0190898 0.0613314)
(7.03715 0.00218311 0.00761612)
(7.02466 0.00536127 0.00977641)
(2.47164 -2.46508 -0.00102795)
(2.50566 2.51134 0.00126267)
(7.03381 0.00423596 0.00734998)
(2.47426 -2.47157 0.000800506)
(6.99342 0.0111205 0.00679525)
(7.04394 0.0108394 0.0181126)
(7.06228 0.0108273 0.00805738)
(2.48058 -2.46208 0.00581594)
(2.47342 -2.47607 0.00221452)
(2.47385 -2.47534 0.000309134)
(2.51704 2.5201 0.00150147)
(7.15784 -0.0186296 -0.0101956)
(2.51609 2.51813 0.00348521)
(2.50987 2.50796 0.00291675)
(7.18248 0.0348181 -0.0341087)
(2.47366 -2.47461 0.00164459)
(7.05446 -0.00653622 0.00745408)
(6.50584 -0.0638919 0.0153215)
(2.53231 2.44511 0.0133902)
(7.15613 0.00795437 0.000488678)
(3.39891 0.461219 -0.0464088)
(7.11227 0.00397328 -0.00060815)
(7.34179 -0.0108952 0.0144267)
(6.61625 0.0173369 0.0149899)
(7.36044 0.00269609 0.0463656)
(5.35495 0.103641 -0.207554)
(3.00262 2.39299 0.0512)
(7.10068 0.0020352 0.00116317)
(7.38777 0.0451727 0.0092043)
(7.13879 -0.00952712 -0.00316651)
(2.57805 2.2357 -0.0781927)
(3.29206 0.313959 -0.171051)
(3.8651 -0.317307 0.130383)
(7.109 0.000880373 -0.00785804)
(2.50877 2.51127 0.00353177)
(6.98115 -0.0099698 -0.0411619)
(7.13586 -0.0038038 -0.00932019)
(6.91247 -0.0472565 -0.0969878)
(2.69533 -1.92481 -0.141756)
(2.47439 -2.47604 0.00121991)
(2.47087 -2.47155 -0.000834255)
(7.16938 -0.00826695 0.0026727)
(2.93688 2.42682 -0.0330883)
(6.93985 0.0148212 0.00263884)
(2.73209 2.48988 0.0315449)
(6.84424 -0.0110855 -0.0300154)
(7.09133 -0.000504584 -0.00146381)
(6.99236 0.00126468 0.00700104)
(7.17304 0.00737682 -0.00379802)
(2.5055 2.50798 -0.000198356)
(2.49626 2.48977 -0.00399853)
(2.65401 -2.41463 0.0111747)
(7.15053 0.00777834 -0.000177032)
(2.52082 2.51355 -0.000951883)
(2.91387 2.49992 -0.114154)
(7.39754 0.150252 -0.123197)
(2.52423 2.5204 -0.00285323)
(2.503 2.514 0.00829156)
(2.45844 -2.45218 -0.00524999)
(2.51941 2.51856 0.00359205)
(6.95914 -0.000187877 0.0103925)
(2.56789 2.43772 0.00274817)
(2.51804 2.51484 0.000304687)
(5.88456 0.822894 -0.576135)
(2.95409 2.38048 -0.0299885)
(2.50414 2.50597 -0.020158)
(3.53906 -2.09931 0.123713)
(2.51535 2.51319 -0.00191647)
(5.82056 0.0104474 -0.0349546)
(7.08433 -0.00265658 0.00353003)
(2.46257 -2.46221 -0.00158561)
(6.98829 0.0152884 -0.0341124)
(6.96914 1.10181 -0.145339)
(6.86375 -0.0512835 -0.0959883)
(7.55328 0.268003 0.00798584)
(6.92796 -7.2626e-06 -0.000778811)
(2.51362 2.49784 0.00612813)
(7.09499 -0.050255 -0.059716)
(7.37999 -0.00813994 0.0156197)
(6.85692 -0.0519124 -0.0947485)
(2.472 -2.47004 -0.0019786)
(7.47863 1.94385 0.527876)
(6.94461 0.00259369 0.010804)
(3.36995 2.67574 -0.161017)
(6.9136 -0.000952742 0.000254696)
(7.46066 0.0786167 -0.0621426)
(7.15129 0.133991 0.0152364)
(7.04598 -0.0137132 -0.016665)
(7.05711 0.0206829 -0.00392547)
(7.51918 0.100328 -0.0279968)
(7.13871 -0.000276347 -0.00904456)
(7.12868 0.00227053 0.00307005)
(2.4953 2.50337 0.0100439)
(2.50537 2.4897 0.00763318)
(6.97793 0.0120881 -0.00276485)
(6.92051 0.00282212 0.00464115)
(2.5102 2.5165 -0.00181722)
(7.04654 0.00556741 -0.00244635)
(7.33038 -0.0154337 0.00905624)
(7.12866 -0.00059651 7.61083e-05)
(2.51445 2.48773 -0.00187839)
(7.12197 0.132693 0.036901)
(2.50963 2.50666 -0.00015724)
(7.13496 0.00253736 0.00317653)
(7.13443 0.0051452 0.000334536)
(2.51527 2.51382 -0.000912752)
(6.89494 0.030648 -0.0303235)
(7.11921 0.00509396 -0.000274043)
(7.09685 0.121094 0.0177086)
(6.96959 -0.00829833 0.0194579)
(2.57174 2.52058 -0.00364031)
(7.24696 -0.00891689 0.0154955)
(7.12216 0.154896 0.00993327)
(7.49975 -0.188726 0.0491834)
(6.34338 0.0763905 0.0286946)
(5.72207 0.0221335 -0.0694219)
(2.51721 2.49167 -0.00427338)
(2.50971 2.50699 0.00419149)
(7.00719 0.0831432 0.0174767)
(2.51671 2.52028 -0.00133354)
(6.29437 -0.0111351 -0.0414032)
(7.00178 -0.0231303 -0.0390432)
(4.25925 0.565606 -0.144912)
(7.79099 -0.510914 0.183459)
(6.86841 -0.317789 0.0866721)
(7.64576 -0.287914 0.07372)
(2.51653 2.51754 0.000404829)
(3.42579 2.90572 0.0277778)
(7.18698 0.00846361 -0.00802048)
(2.4607 -2.4693 -0.00921839)
(1.39486 -0.975256 0.38545)
(7.14018 -0.116695 -0.0905171)
(2.50575 2.49851 -0.00528964)
(2.52047 2.51555 -0.000909097)
(6.42413 -0.131346 -0.00955806)
(5.2309 -0.340925 0.0731635)
(2.51747 2.51873 0.000803796)
(6.49602 -0.123489 0.0111725)
(2.50728 2.50394 0.00310578)
(2.51516 2.5204 -0.00482972)
(2.47119 -2.47411 0.00058807)
(2.47519 -2.46939 0.00531866)
(2.42671 -2.40594 0.00558152)
(2.47021 -2.46435 -0.000978917)
(6.52366 0.0520763 -0.00904267)
(2.49519 2.47946 -0.00110522)
(2.51508 2.51507 0.00136764)
(2.49918 2.51349 0.00330183)
(6.04876 -1.34966 -0.356918)
(6.81676 -0.0448699 -0.112025)
(6.6429 0.00256316 -0.0438116)
(7.18854 0.00540763 -0.00740665)
(2.50057 2.48417 -0.000812289)
(2.5284 2.51617 -0.000565851)
(6.93195 -0.107254 -0.129729)
(2.51537 2.51661 -0.00327737)
(2.51531 2.5107 -0.00142405)
(4.04157 2.29753 0.083581)
(7.37924 -0.084863 0.00202591)
(7.19135 0.0102654 -0.00324959)
(2.51339 2.51235 -0.000849106)
(2.51331 2.5068 0.00492866)
(2.50033 2.49256 -0.00450979)
(2.50806 2.5015 0.000302749)
(2.5181 2.5153 -0.001978)
(2.52344 2.51849 0.00139807)
(7.21312 -0.151987 -0.0932319)
(2.52095 2.51315 -0.00106964)
(5.02254 0.0682497 0.163343)
(7.27465 -0.00891551 0.0188338)
(2.51527 2.5197 -0.000962925)
(2.45379 -2.46626 -0.00600885)
(2.43967 -2.41227 0.000896312)
(6.12572 0.0701151 0.330469)
(2.4202 -2.41855 -0.00908628)
(2.46993 -2.4724 0.00069505)
(2.50156 2.50386 -0.0167767)
(6.57356 -0.101971 -0.00530301)
(2.50662 2.50643 -0.000756949)
(7.18589 -0.0782125 -0.048121)
(5.84546 0.0819036 -0.0248408)
(4.73548 0.00315409 0.18634)
(2.50604 2.50878 0.000766973)
(4.95861 -1.30072 0.107874)
(7.25216 -0.00632353 0.0146513)
(7.2703 0.00846385 -0.0148315)
(2.65071 -2.53034 -0.0303795)
(7.03731 -0.12498 -0.0212495)
(7.17582 -0.0181683 -0.00313453)
(2.47426 -2.4549 0.00284234)
(2.60575 2.46725 0.00989256)
(3.46721 -2.67991 -0.22681)
(2.49716 2.50193 -0.00166034)
(7.18291 0.00430694 -0.00237101)
(7.23043 -0.000424311 0.00854871)
(7.35974 -0.0769831 0.0394808)
(4.84193 -0.00413512 0.262568)
(2.52003 2.51853 -0.00104874)
(7.18359 0.00423245 -0.00142501)
(2.58486 2.45414 -0.0066834)
(3.1561 2.66553 -0.00868076)
(3.31261 -2.58189 -0.109787)
(2.5158 2.5152 0.00106369)
(7.22834 0.0114554 -0.00548439)
(2.50513 2.5025 -0.000257887)
(2.44672 -2.40412 0.00146664)
(6.64691 -0.0808967 -0.154391)
(7.14021 -0.00645866 0.00105663)
(2.44727 -2.4079 -0.00567061)
(7.16619 0.00231649 -0.00215162)
(2.68174 2.6222 -0.0141173)
(7.25529 -0.0494861 -0.0229429)
(2.36103 2.24905 0.0254935)
(2.51655 2.51626 7.00706e-05)
(2.5284 2.52074 0.00989181)
(2.47419 -2.47611 0.0014953)
(7.03788 0.00162679 -0.00564263)
(6.46457 0.00939495 -0.0145549)
(7.2918 -0.020577 0.159946)
(2.50567 2.5085 0.000212789)
(2.49795 2.44976 0.0159743)
(7.02501 0.00136767 -0.00248599)
(2.51935 2.51955 -0.00153815)
(2.93786 2.64577 0.0551954)
(2.4723 -2.47118 0.00230273)
(7.01233 0.0316442 -0.000675319)
(7.42569 -0.182323 -0.0562955)
(7.21529 0.00782575 -0.00762847)
(2.46698 -2.46246 0.00690141)
(5.75024 -0.0133344 0.152022)
(5.99797 0.00138473 0.149704)
(2.26219 1.98487 0.0166395)
(6.48431 0.0818095 0.127448)
(2.52022 2.50664 0.00406584)
(6.91639 0.0465578 0.00263469)
(7.33688 -0.00695966 0.0460322)
(7.12884 0.0159845 -0.017906)