/*--------------------------------*- C++ -*----------------------------------*\
  =========                 |
  \\      /  F ield         | OpenFOAM: The Open Source CFD Toolbox
   \\    /   O peration     | Website:  https://openfoam.org
    \\  /    A nd           | Version:  10
     \\/     M anipulation  |
\*---------------------------------------------------------------------------*/
FoamFile
{
    format      ascii;
    class       volScalarField;
    location    "15";
    object      p;
}
// * * * * * * * * * * * * * * * * * * * * * * * * * * * * * * * * * * * * * //

dimensions      [0 2 -2 0 0 0 0];

internalField   nonuniform List<scalar> 
111485
(
7.87542
0.0584044
0.0541578
7.87555
0.0487233
7.63201
0.0431709
0.0474998
0.0438434
0.0464682
0.0421465
0.0487868
0.0470516
0.0313543
0.0447906
0.0713936
0.0367489
8.79236
0.0482162
7.87588
7.87575
7.63599
0.0411702
0.0597713
0.0428826
7.84822
0.0604198
0.0627751
0.0530893
7.8769
-0.0203943
0.0237823
7.87829
7.63492
8.5791
7.59829
0.00343323
0.053202
-0.038394
0.0550501
7.683
0.0457609
0.0556939
0.0235916
-0.188343
7.89213
0.036476
0.0556684
0.0409624
7.91585
7.91399
7.38234
7.92239
0.0119186
7.92735
0.0451771
0.0489164
7.64595
-0.041873
0.0524288
0.0536773
7.87576
0.0453547
-0.0106413
7.67603
0.0472162
5.13065
0.0474038
0.032414
0.0446749
-0.0722761
0.0545817
7.72632
0.0322595
7.88307
0.0455868
7.63651
0.0404169
7.6345
8.07143
-0.0483753
0.0194815
7.63704
7.87911
0.0500454
0.0439455
1.8145
0.00524869
-0.0394825
0.0483806
-0.140102
0.0459364
0.048886
0.0496448
0.0459943
7.87874
7.87587
0.020593
-0.663226
0.125565
7.8754
0.0501156
7.62602
0.0361594
0.0415181
7.92884
7.64259
0.0241013
0.0445654
-0.274146
0.0274094
0.056261
0.051451
0.0491109
7.84481
0.0442998
7.86151
7.63836
0.0390412
7.87657
7.84717
6.68748
7.63819
7.64619
0.0473341
8.95074
6.65108
0.0292421
7.8802
0.461371
-0.0403804
0.0203151
7.88349
6.53534
6.8229
0.0433857
7.63666
0.0460565
0.0372925
0.0563766
0.0103752
0.0395475
0.0452121
0.0548514
0.0287308
0.0338933
7.63663
7.87809
7.64967
0.0480376
0.0506898
7.87358
-0.00883385
0.00899701
-0.584486
0.0498219
0.0450378
0.0417794
-0.443159
7.88527
7.87584
0.0470462
0.043677
-0.404559
-0.523443
0.0374028
-0.00386499
7.67268
-0.367259
-0.332929
7.64446
7.87746
0.0461378
7.63984
0.0312512
0.0171718
7.68704
7.70424
7.8641
7.82902
7.67542
7.87484
0.0549414
0.0503789
0.0572732
0.069559
0.0473895
0.0444747
0.0123018
7.87596
0.03028
7.69945
7.86432
0.0524531
0.0397944
0.0118789
0.0535313
0.0177962
7.88391
0.0515664
0.0540884
5.32915
0.0310422
0.0346017
7.87456
0.0483551
0.0344703
7.69832
0.00572422
0.0318747
0.0499383
0.0309355
7.66814
7.87564
0.0448177
4.99652
0.0218667
7.63943
0.0474149
0.0482672
0.0450235
7.87724
0.0383278
-0.00406012
6.02013
7.63955
7.6447
-0.0501647
-0.511746
7.74313
7.29758
0.0463951
0.0266548
-0.057376
7.74118
7.80534
-0.00919728
7.88097
0.0389091
0.043553
0.0439753
0.0315244
0.0430495
7.64601
-0.0435723
0.0294371
7.64918
7.63705
0.00556904
0.0553972
7.80045
0.0377503
0.0408858
7.87821
6.38297
0.0261321
7.88811
8.02244
7.19545
7.87495
0.0380783
0.033835
-0.00926382
7.8816
0.0410464
7.87549
7.87446
7.88386
-0.0161427
0.0345082
0.0504737
0.0420957
0.0430718
0.044436
0.0425718
-0.0157022
0.0135151
0.0247029
7.59227
7.87784
-0.0171857
0.0284825
-0.0448476
0.0303775
7.8765
0.0514208
0.0436012
0.044836
0.0606361
-0.0477713
0.0394078
0.0434534
0.0289534
7.64263
0.0319643
7.63987
8.74508
8.08935
-0.0566363
0.0365904
0.0430196
7.86788
7.70572
0.0465142
0.032972
7.87318
7.87355
7.931
0.0333988
0.0340044
0.0504712
0.0487121
0.0471342
7.24703
7.64689
7.87977
0.0488314
3.2687
0.0278293
-0.047873
-0.0262292
7.63782
7.87492
7.8758
6.81608
0.0448345
0.0560711
7.6351
0.047563
7.79654
7.86412
0.0237056
0.0453992
0.0457745
0.0476195
7.99993
6.78083
7.63738
0.0449176
0.0208022
-0.021044
7.67052
0.528364
-0.0872119
0.0566327
0.0476463
1.33465
0.0457976
7.63463
0.0410334
0.0513096
-0.0377826
0.0169575
0.0462923
7.63799
7.88112
7.64173
7.87878
0.0554461
0.0420453
0.0293424
0.0504014
7.65569
0.0515799
7.64384
7.88286
0.047013
8.13717
6.96207
7.92114
7.59394
0.0488672
7.6447
0.0178788
0.0563819
7.63432
0.0332797
0.0477876
7.87033
0.047452
0.0518876
0.0542084
0.0110809
0.0419754
0.0338141
8.00884
7.87877
0.035303
7.66202
0.0467917
0.010965
7.68513
7.64462
0.0468025
0.0506556
0.00325135
0.0627437
7.6363
-0.0174428
0.0445855
7.62973
0.0216079
0.0302365
7.87467
7.87491
0.0253594
0.0436075
7.62302
7.86546
5.87093
7.87472
0.0501831
7.63961
7.87546
0.0405853
-0.0339395
0.0420246
0.0566428
7.6333
6.83379
0.0483909
6.93113
0.0257486
0.0529074
0.0515275
5.30396
7.00273
-0.478272
-0.240847
7.87436
0.00687919
0.0502535
7.87538
-0.428753
0.0461574
6.96937
0.0469827
0.0471213
0.0401647
7.63483
0.267972
0.0461095
0.0504653
-0.0685041
6.62871
-0.532104
7.87658
0.019284
-0.165836
7.64502
0.0366585
0.0425056
6.44818
7.88049
7.47166
7.87483
0.0506916
0.0792891
0.0522886
0.0527215
0.00305502
7.64005
-0.00208252
7.88763
0.0615306
7.62042
7.88501
7.89304
0.0431204
7.87965
7.87566
8.3555
7.87431
7.65324
0.0338552
7.64412
7.43586
7.63844
7.86333
7.6267
7.88605
7.63663
0.0410796
7.63703
0.0312011
0.0441831
-0.0155312
7.64043
0.033763
7.64604
7.87501
0.0366992
0.0364353
0.0828485
-0.0584648
7.34277
0.0346178
0.024329
0.0255362
-0.00720493
0.042237
7.87844
-0.0013176
6.45931
0.0508235
7.63978
0.0285142
6.68167
0.0287031
0.0569991
8.2894
7.70477
-0.0255641
7.8734
0.0362434
0.0283141
7.65215
7.65819
7.93738
7.64365
-0.903196
0.036041
7.62829
7.65003
0.0467294
7.63599
0.0324783
7.63563
0.0328986
7.87526
0.0560807
0.0554922
0.0721274
0.0275361
7.61214
-0.126173
7.62729
7.63958
0.0496238
7.64097
0.0464459
7.94352
0.014181
7.87759
0.0671147
7.87584
6.97817
-0.0379634
-0.00188391
0.0313773
0.0526461
0.0196922
0.03729
7.64869
0.0244932
0.0178843
7.63852
0.0142998
-0.00243383
0.0392695
7.7009
8.04504
0.0689711
0.0106366
3.72373
7.7207
0.0504847
0.0579373
0.049356
0.0461614
0.16123
2.58063
6.88515
-0.629045
3.18211
7.87586
0.0574017
7.66135
7.00917
0.0397155
2.53019
-0.648364
1.47583
6.88421
0.0327504
0.0529888
7.64832
7.46252
0.0599343
7.88028
7.63586
7.63704
7.63854
0.0460319
7.64241
7.83529
0.0519828
0.0410496
6.02237
0.00804411
7.32922
0.0418239
7.92121
7.64679
0.0402966
7.63883
7.63879
6.97629
0.0465532
4.67985
0.0231922
0.0472854
7.8883
-0.155668
-0.0185798
0.0437331
0.0450242
0.326661
0.0383568
7.64235
0.0396779
0.0463839
7.88209
0.0428472
0.0306821
0.0527159
0.0360211
0.0528584
0.0518687
7.89138
0.0484525
0.00453117
6.95469
0.0536124
0.0615968
4.87772
0.048367
0.0539476
0.0528391
0.0490466
0.0578449
0.042656
7.77568
0.0517961
0.0461439
8.22799
0.0402506
0.0264293
0.0467258
7.64191
0.0495334
7.89674
7.63718
7.65222
7.63664
0.0559068
7.06824
-0.970186
7.87251
7.5762
0.0496477
0.0443344
7.87218
0.0372345
7.87354
7.87903
7.92367
0.0431654
0.0552425
7.00549
7.82678
7.64099
7.64167
-0.00372834
0.0310366
6.82518
0.0464596
-0.338275
7.64781
0.0540085
0.0352448
0.0885952
7.63481
7.63898
0.0455327
0.041305
6.94014
7.64492
7.62357
0.0339275
7.8809
7.87112
7.64049
0.0500092
0.055186
7.63544
8.48417
8.21572
0.154112
7.64742
7.63336
0.0283029
-0.0132146
6.92395
5.97247
1.19846
0.0397747
0.00286295
7.61002
0.018099
0.0483327
7.64117
7.92091
7.63624
7.63995
7.64501
7.63506
0.0665594
7.8746
7.63694
7.69179
0.0581145
0.0264406
7.87823
7.93416
0.0273671
0.0357972
0.0453168
7.87066
7.63767
0.0362282
7.87869
0.0367484
0.0294164
0.0530489
7.85078
7.87544
7.87528
7.64104
0.0729192
7.63793
7.63625
0.0230123
7.8753
0.0522778
0.059014
7.65544
0.0448276
7.84936
0.042286
0.0436861
0.0245744
0.0340424
-1.19966
7.25013
0.0400583
0.0330722
0.00114534
7.80355
-2.02751
7.15809
0.0266709
7.64388
0.0249088
0.037156
0.0214176
8.0774
7.87561
7.88069
0.039268
7.32664
-0.0186741
7.46297
0.0589766
0.036733
0.0173142
0.0345781
7.63473
7.65909
7.74753
0.0374989
7.6363
7.24833
-0.0888948
7.64471
7.65146
7.87683
7.63679
0.0179908
7.62097
7.63995
-1.50508
7.30906
7.6641
7.06866
7.63975
0.0162953
0.0210409
7.87352
0.0545274
1.07301
0.0168782
-0.309016
0.0334046
7.6468
0.036976
0.0292237
0.0177736
7.87859
-2.5468
0.0180239
6.49572
0.00341846
-0.0508875
-0.0339299
0.0315745
0.0322145
-0.0721256
0.0397098
0.0346299
7.61985
7.64918
0.0166818
0.00517167
7.64623
0.0193245
0.0481544
0.0288937
7.63079
-0.0528957
7.63988
0.0266142
0.0203794
7.63461
-0.0619947
0.0341534
-0.0900675
-0.0197017
7.58955
0.0459618
-0.0841329
-0.00521348
-0.0877417
0.0182278
7.63001
7.65029
0.033019
7.63662
0.0717029
-0.018638
6.73991
-0.400521
-0.751837
-0.232198
7.63673
6.40894
0.0413415
7.87945
9.45383
0.0105582
7.6286
7.63323
-0.651414
-0.787079
7.63689
-0.0535812
7.63994
7.63877
7.88128
7.87438
7.95488
7.87773
0.0324291
7.63719
7.64483
7.6507
-1.36701
0.0717055
0.0364368
0.0421616
7.64894
7.63238
0.0111429
7.63883
7.63693
5.84139
0.00510676
0.0447745
7.63519
7.62904
7.64461
7.63312
7.5876
7.63179
-0.0123001
7.63803
-0.133618
0.0472138
7.64131
7.88596
7.93077
-0.0556529
7.92299
7.87628
7.65684
-0.142096
7.63894
-0.00565671
-0.00759904
-0.112128
7.63316
5.31133
0.0189924
0.0412819
7.66555
-0.12945
0.036013
7.88266
7.608
6.9056
7.62978
0.0397355
0.0440465
-0.00240075
-0.277146
7.6356
0.0423781
7.5859
6.8512
6.86246
7.6448
0.0481116
7.63907
7.94122
-0.00224191
0.0499318
7.93832
0.0455024
7.33388
-0.0225007
7.99363
7.63953
7.61292
7.8755
0.0329364
0.0521315
0.424621
7.63676
7.6825
0.0230817
7.63692
7.09353
7.87546
0.0408704
-0.265006
0.0830658
7.86415
-0.00819051
0.00310287
8.25422
0.00350187
7.64146
0.0157559
0.0255898
0.0403239
-0.0234161
-0.113542
7.6378
7.63998
7.63962
-0.00856525
7.71279
-0.043974
7.88167
0.795527
7.87306
0.0525975
0.0551799
7.94293
7.63598
7.96004
7.65182
-0.0458724
7.96811
6.9135
0.0123455
-0.0390787
7.927
7.05958
7.72028
7.08032
7.63454
7.63768
-0.036941
0.0576778
7.87558
7.86649
-0.554196
7.88187
-0.0365988
0.0310204
7.7158
0.0228709
7.87552
0.0225794
7.64208
0.0530305
7.63428
-0.507076
-0.236933
-0.0796047
0.0167698
0.0135789
4.72543
7.56261
0.026928
7.91765
0.0421562
7.87241
7.66989
7.62529
7.65147
7.6756
7.64619
0.00271063
-0.00857511
7.8758
6.66194
7.87981
0.00465587
-0.0551503
7.87292
0.0535226
-0.0808208
7.93122
0.0359883
0.0331016
0.0431105
-0.0787946
7.63686
7.63761
7.66803
7.63653
0.0476195
7.57139
0.0234827
7.63808
0.0144965
0.0570283
7.64325
0.00618873
7.63265
7.63648
0.0136245
-0.0212128
2.18473
7.63883
7.95422
7.62694
0.0501107
7.52419
7.92866
7.54275
0.930351
6.75011
-0.452837
7.05108
7.50655
7.76922
0.0277704
0.0152635
0.0543842
0.0511212
7.86399
0.0290921
7.64098
7.64464
0.0245626
7.6103
-0.565296
0.0184594
0.037525
0.0131046
-0.885166
0.0389953
7.64328
-1.33921
-2.88178
0.0424768
0.0243859
0.0441637
5.57922
7.87115
0.0415987
7.87761
7.63286
-0.170111
0.0463072
-1.0167
7.62414
7.46956
-0.0110506
7.9308
7.63431
0.00792151
7.94944
7.93857
0.135598
0.0078582
-0.0309851
0.0718717
0.039365
7.6376
7.63734
-0.203704
0.0501003
7.63698
7.94373
0.0756336
7.64502
6.61934
6.78543
6.82168
4.40545
6.64245
7.63852
0.0612239
7.62178
-0.0162723
7.63573
3.48186
7.69138
7.65723
7.64373
7.63752
0.0666723
7.6374
7.637
6.94097
7.6308
7.64422
7.63604
0.0479704
7.65468
0.0432472
-0.0209753
7.65942
0.0828255
7.63605
0.0250952
-0.138938
0.0234223
0.0320777
7.84699
0.0295339
0.0625921
-0.0838191
7.88056
-0.0445958
0.0433408
0.0289255
7.34961
0.0214209
7.70357
7.64201
7.63755
7.63549
0.0269355
7.63973
7.62492
0.0227414
-0.071483
0.0110207
7.65352
5.46441
0.0717325
7.64545
-0.294592
7.92801
0.0193158
7.62995
7.63283
0.0360725
7.63177
0.0421778
7.87908
7.63533
0.0462054
0.0144978
0.0379804
0.0494156
-0.0669447
0.0403294
7.63574
8.03391
0.0493067
0.0433154
0.0534473
-0.0315656
7.63687
0.0435096
7.63641
7.80052
0.0402395
-0.00505226
7.64584
0.0377227
7.62966
0.0325972
0.0439776
7.71269
7.63539
7.64115
0.0483025
7.64101
7.63958
0.0519978
0.0326975
0.0171488
0.026233
7.65647
7.65248
0.0550907
0.0644889
7.64054
0.0468416
7.71996
0.0426685
7.63622
7.63546
0.0283697
7.63648
0.0277677
0.0630481
7.63994
7.63485
0.0370747
6.4986
0.0709008
7.87535
0.000867551
7.88591
6.68755
6.46526
0.0606439
6.988
6.91248
0.0421786
6.87192
4.28907
6.35983
7.69358
7.87863
-0.11059
0.0645673
7.67881
7.63819
0.0410995
0.0524529
7.64437
0.0492609
7.63479
7.88369
0.0498018
0.0378891
0.12538
7.63495
7.64154
7.63951
7.63674
7.62829
7.63151
7.63345
7.62921
7.63316
7.63385
7.63865
7.87996
7.64094
7.63409
7.63551
7.80323
7.63457
7.63555
7.63726
7.66577
7.82333
0.059385
7.63985
7.63494
7.65323
0.0545537
7.64652
7.88356
2.9939
7.62182
7.53007
0.046347
8.25542
7.58501
3.5224
0.0416509
7.6387
6.7717
7.26697
7.63319
0.0265989
0.0437219
0.0402526
0.0319183
0.0490075
7.90337
7.62834
0.0381368
0.0449352
0.0306734
7.63404
0.0467963
0.0386043
0.0536761
0.0261329
0.0278202
0.0328073
0.035015
0.0429102
7.89185
0.0532416
0.0508532
0.0509497
0.0438426
7.63945
7.63826
7.64036
7.87565
7.63699
0.0468359
0.0500773
7.64242
7.63324
7.63341
7.83608
7.63592
7.87584
7.63867
7.88017
0.0537737
-0.156662
0.0506857
0.0722671
7.60895
7.64756
0.0221583
-0.191259
7.6354
7.63735
0.0488354
7.89086
7.63835
0.0886962
0.0236779
0.0404249
0.0710324
0.0254941
7.89995
0.0146108
0.0512102
6.91512
7.87745
0.0406992
7.8966
7.64582
2.43758
1.33267
0.0324759
7.78375
7.85557
0.0182993
0.0524808
0.0328764
0.0461337
3.43321
7.87537
0.0404896
8.23433
7.87968
7.57802
0.0393885
7.63534
0.0484833
0.0101513
0.0415436
0.0433348
7.88406
0.0550216
7.88047
7.47456
7.87823
7.8666
0.0290378
4.5233
7.63709
7.87535
8.35722
0.0476372
6.8666
0.0306425
0.0418299
0.0283591
0.0442427
7.84125
7.86792
6.65553
0.0517643
0.0427454
-0.84676
7.92041
7.87538
6.83103
0.03275
0.0167417
7.63563
-0.0167045
2.53891
0.045261
0.0363032
7.87524
6.65147
0.0286456
0.046419
7.64027
0.0538882
0.0514309
0.038701
0.0142954
0.0377453
0.0556003
6.9186
0.0380253
0.0412669
0.044234
7.97855
0.0464074
7.00426
0.0700986
0.0390575
7.88048
0.0257233
0.0341832
0.0309067
0.0478666
8.74647
2.13676
0.00871412
4.31373
0.036099
7.6482
0.0280473
0.0356308
7.88022
7.6375
-0.30226
-0.0503666
0.0457614
8.73119
0.0490866
-0.137731
-1.08205
-0.0197296
7.88084
7.89808
0.0447616
8.34171
0.0435325
-0.147405
0.0351688
0.0384236
7.87466
0.0487517
0.0458566
7.87272
6.95063
0.0494243
7.89157
0.0417495
0.0451624
7.87685
8.78344
0.052997
7.8742
7.63445
7.64307
0.0347497
0.0954989
0.0518875
7.93201
0.0480195
0.0379943
7.69189
0.0409455
0.0294553
0.0309373
-0.0622135
7.63649
0.0379146
0.0579004
0.0408266
0.0296334
0.0331939
-0.0911661
0.0641418
7.87508
-0.0483662
0.0291681
7.87494
0.036428
7.64806
7.63958
7.88029
7.65269
7.87667
0.0576082
7.64199
0.036178
0.0272013
7.8815
0.0578452
7.82211
0.0242924
7.88011
-0.100727
7.65389
0.0443476
0.059782
-0.118519
0.0532697
0.0305557
0.0544169
0.034568
0.0492009
2.80555
0.0454839
0.0300015
0.0515871
7.87889
0.0623015
-0.055858
0.0464645
0.0477606
-0.0982565
7.88087
6.79365
7.87657
0.0516502
7.87414
6.18306
0.0319655
8.38833
0.0624313
7.86506
7.84605
7.63708
0.0419661
0.0835263
0.034404
0.0138303
0.0305488
0.0438839
0.0517812
0.034144
0.0235118
0.0496404
0.0410807
7.89621
7.59524
7.87219
0.0485167
0.0500024
7.66885
7.63698
6.31692
0.0640984
0.027046
7.87425
0.0430879
7.87373
-0.357991
0.0555471
-0.00606527
7.87611
7.87505
0.0350152
7.8752
0.0428684
0.0404295
7.47451
0.0477068
0.049998
0.0316893
7.87254
-0.0478865
7.005
0.022486
0.0490089
7.87775
7.8895
0.0370767
5.56105
7.90809
0.0478978
0.0367609
7.87582
7.856
6.96073
0.0328638
6.29951
0.0464558
0.0209756
0.0460539
7.87542
7.04066
0.0184243
7.87424
7.64533
7.87833
7.87802
7.14787
7.72567
7.57269
7.8741
7.88979
7.31936
8.39522
7.6412
0.0523709
7.65066
6.76508
6.40118
8.90175
6.90339
7.87552
0.0214288
7.39831
7.71002
0.0227391
8.20699
8.56936
7.78918
0.0129194
8.36455
0.0238532
-0.0244587
0.0594001
7.18793
7.87737
0.031746
-0.380981
7.83552
7.87119
0.050925
7.10889
0.0507367
7.03422
7.62212
7.74425
0.0493831
0.0533063
7.87478
0.0481924
7.91418
7.39498
-0.121464
0.0589349
0.0239007
7.63903
0.0521734
7.23695
0.0218392
7.63682
7.87299
7.63471
6.99693
0.0566078
0.0495887
7.87902
-0.694752
7.8826
7.89564
7.88224
7.87579
0.0280508
0.0143221
0.0520804
0.0505056
7.83931
0.0495698
0.043676
0.0498942
0.0216376
7.69103
0.0428612
0.0508348
0.0233493
-0.354176
0.0512478
7.92415
0.0224757
0.0286572
0.0533177
0.0292947
0.00827504
7.90308
0.0159187
7.77892
7.87981
0.0459084
7.88434
0.0636152
7.87392
7.93897
7.57113
7.88036
7.87855
0.00575243
7.8789
0.0326559
7.21829
7.644
0.0589881
0.04797
0.0508749
0.0268863
7.89518
0.762462
7.87917
0.0271316
7.94011
0.0523655
0.025238
0.0361621
0.042552
7.97024
7.97716
7.87985
0.044989
7.65479
7.86697
0.0406337
7.62484
7.63398
0.0539736
7.96999
0.0384508
-0.361427
7.16882
7.50038
7.43892
0.0303455
0.0450404
7.87486
0.00803918
0.0338336
7.01289
0.0328033
7.87506
0.0374946
0.0596106
0.0535793
7.87679
0.0515152
0.0416392
0.0269204
0.0485182
0.0513597
7.87692
7.87557
-0.0410657
7.86939
7.63415
7.87421
0.0315012
0.0352982
0.0407344
-0.00165455
6.89294
0.0363115
0.0467712
0.0445978
-0.020396
0.0583099
0.0309
0.0562595
7.6367
7.63698
7.63681
0.0759058
7.64087
0.0130868
5.28267
0.0461098
-0.484881
0.0253507
0.0217522
7.63347
7.87703
0.047261
0.0466509
7.89059
7.63156
7.87975
0.0297163
0.0488079
0.0468462
0.053308
0.0341081
0.0450006
7.87464
7.87833
7.87522
0.0435488
0.0355994
0.00297259
0.0489789
0.0516801
0.0491914
7.84874
7.8754
6.36782
7.67571
0.0291939
0.0660991
7.87079
7.90649
7.88408
7.88108
7.84265
7.71659
0.0408482
7.87647
0.0076818
-0.0453938
7.64114
0.0450346
0.0285412
0.0396819
7.92203
7.76302
0.0414517
7.87572
0.0397807
-1.12403
0.038416
7.66697
5.96049
7.63598
7.87864
7.8699
7.6052
2.15774
7.88685
0.0552339
0.018743
7.87855
7.87594
0.0385687
7.88005
7.63968
0.0397433
-0.132544
7.86294
7.86341
7.67739
0.0522465
7.87541
7.87521
1.22309
0.0239253
0.0375915
7.87435
7.64044
7.21173
0.0332864
0.0375389
0.0356053
0.0400333
7.63557
0.0626325
0.0140928
0.00144174
7.58695
7.87446
7.8753
7.83087
7.87551
0.0504073
0.0472797
0.0217694
7.89544
7.87689
7.87503
7.87366
7.70484
0.0188462
0.110078
0.0201221
7.63698
7.8757
7.93226
-0.925186
0.012733
-0.00769993
7.63799
-1.86569
8.2544
7.83965
7.87456
0.0494902
0.0637058
7.87602
7.90732
0.0474342
7.87659
0.032846
0.0520041
2.7821
7.87179
7.68213
0.0419993
-0.00152124
7.91021
2.58887
0.0564096
0.0695462
7.87587
7.87797
7.88773
7.88445
0.0317427
0.0399842
7.87833
0.00788022
0.0372009
0.275034
7.87507
7.8733
7.87456
7.87862
0.0487265
8.38199
7.87634
7.7685
0.033345
0.0367233
0.0405353
7.84559
7.8773
0.0310435
7.62529
7.87613
7.87637
7.87611
0.048678
7.69621
7.61997
7.63745
0.0312439
0.0554794
7.87069
7.87881
7.85649
0.0490637
8.15192
7.87875
7.85852
7.87904
7.87812
-0.130549
0.062352
7.92057
0.0521423
0.0537039
0.0475496
7.88424
7.88041
7.87685
7.8395
7.6346
0.06868
7.87602
7.38799
7.3542
0.0340971
7.6518
0.0260595
7.87535
7.64229
0.0379666
0.361062
7.05698
0.045346
7.87722
0.0407511
8.13921
7.89222
7.92366
9.09883
7.88123
0.0205016
7.87177
0.0423389
7.64245
6.95846
7.88387
7.86936
0.025557
0.0800754
7.63648
2.69277
7.63976
-0.023335
0.0174918
0.0629513
7.6445
-0.279301
0.0229543
0.00853727
0.0625709
-0.546092
0.01734
7.61227
7.63511
-0.669469
0.0385215
0.0451198
7.90999
7.5347
6.40022
3.29999
7.88028
7.63896
7.87938
7.88059
7.88191
8.30373
0.0807637
-0.0118491
0.051621
6.97543
-0.0286459
7.87898
0.0476663
7.87519
7.88652
7.63909
7.71239
-0.0441919
7.69353
7.63653
7.87482
0.048676
7.87344
7.87644
0.00462484
7.84516
5.77326
4.95676
4.6226
7.88217
4.84051
4.67929
4.78905
5.48578
7.63517
7.63543
0.0426272
0.034989
6.98173
7.14798
7.6318
0.0383651
8.1886
7.73106
-0.0403183
7.8765
7.87569
0.0149463
-0.0286623
7.8443
7.63529
0.0329929
7.03737
7.62605
-0.328199
0.0419285
0.0854289
7.81183
0.0562121
7.87981
0.0370994
-0.324535
0.0506947
7.8754
-0.318935
0.0553478
7.96686
-0.962835
7.86542
0.0523094
7.53215
0.059633
7.80471
0.0096854
7.87477
7.59273
7.64168
-1.38598
-1.39358
7.89083
0.0448795
0.0691651
7.92513
7.875
0.0218351
0.0221886
-0.0516722
7.8859
0.0514825
0.0450704
0.0127548
-0.774314
7.88202
-0.0990695
7.64362
-0.0830059
7.87527
-1.65037
-1.92456
7.85389
0.0443875
7.69462
0.0148729
7.63575
7.85807
7.88675
7.89385
7.85255
7.86244
0.0458142
0.0553783
-0.0873535
7.88316
6.35217
-0.0756423
7.88166
7.83555
7.90594
7.87235
7.90586
0.0237453
7.87547
7.8794
7.63492
0.0167784
7.85918
7.63754
7.54262
0.0420817
7.63873
0.0144905
-0.707531
-0.00411604
0.0397634
-0.00902787
8.21867
7.879
7.87406
0.0748036
0.0419928
7.56296
6.31729
0.0167693
7.87651
7.88069
-0.0654807
7.86431
0.0515705
7.87606
-0.00612687
0.00434446
7.88227
7.63468
7.87566
7.87972
7.87425
0.0351993
7.87243
0.0179441
7.94352
7.87685
0.0372096
7.63439
0.0454992
7.77497
7.87636
0.0371819
0.0534729
-0.0505671
7.87869
7.87918
7.87568
0.0519722
-0.0222887
7.95088
7.63633
7.64318
0.0273429
7.86741
0.0523139
-0.0662821
7.87393
7.87001
0.0360288
7.86986
7.64532
7.6389
7.95898
7.63999
-0.0846623
6.23051
7.6578
7.87774
6.39193
7.86978
6.61188
7.84762
7.86825
7.74716
0.0403639
7.80633
0.0253272
7.86036
7.86874
0.012922
0.0197097
7.86391
7.8428
7.87591
0.040442
6.728
7.87654
7.73414
7.87209
0.0344351
7.86521
-0.109845
7.88015
0.0360318
6.94187
0.0282858
7.89001
7.87417
0.0489273
6.5716
7.88106
0.0400232
0.0369901
7.89794
7.87977
0.0317372
0.00180155
0.0344001
0.0310498
0.0210424
0.0422144
0.0361222
0.0183581
7.94858
-0.119743
6.28697
6.17357
7.87589
7.87179
7.87438
0.0488745
7.88045
7.87398
7.88045
-0.0572355
0.0146808
5.98069
0.0137763
7.88071
0.033847
7.63082
0.00278258
0.0377123
6.3599
0.047318
7.86677
7.84687
7.63728
0.056853
0.0351013
7.87578
7.63924
0.0465095
7.87848
-0.061833
7.91791
-0.0166244
7.87526
7.63776
7.85808
7.63651
0.0371503
7.63671
0.343957
7.6426
0.0415945
7.87504
7.87072
4.35769
4.03587
7.89231
7.87135
7.87574
7.87811
0.0377837
-0.0720263
5.25001
7.88133
0.0465923
7.63419
7.64958
-0.354706
0.0469202
-0.00322907
7.63799
0.0342894
0.0286088
0.049111
0.0513189
7.87616
7.88142
7.88564
7.88083
7.63796
7.6365
7.63719
7.84125
7.63831
7.63738
7.87532
7.63696
-0.0424136
7.63652
7.87418
8.62523
7.8792
7.87538
2.75698
7.63548
7.87375
0.0315534
-0.0277615
7.84956
7.85759
7.87586
0.050295
7.67627
7.86372
-0.0426608
7.63974
7.87457
7.87254
7.88084
0.0143817
7.63759
-0.102251
7.88104
7.86131
7.87348
7.87472
7.8715
-0.0401265
-0.07549
0.0391909
7.87949
7.65568
7.91434
-0.0548967
7.87355
-0.0708561
-0.0139528
7.63651
7.86039
5.97148
-0.33387
7.85638
7.03945
-0.320987
6.05028
0.0389834
7.67222
0.0187911
6.01642
5.63283
7.87516
0.0445942
7.6399
0.0319189
0.00764897
7.88233
0.043464
-0.212345
7.87352
-0.00623285
7.63722
7.85774
7.86696
7.85355
7.86747
7.63463
7.87358
7.87763
-0.0834094
7.12874
7.87526
7.87385
7.87217
7.87587
0.0513851
4.08172
-0.062021
-0.230664
7.87281
0.0563019
0.0458246
7.87547
7.01746
7.80464
7.86271
7.89976
7.96183
6.46019
7.18653
0.0186729
7.87633
7.88354
6.11434
6.64702
7.63691
0.0371914
7.88035
7.64765
7.87913
-0.0146093
7.88187
7.63557
0.0346345
7.6383
7.60346
7.78137
7.92596
0.0350366
7.87582
7.87404
7.87363
7.86024
0.0380012
-0.00110048
0.00757649
0.0412034
0.0263636
0.0184004
7.6396
6.57004
-0.0933456
0.0227202
6.56062
-0.0794661
7.8729
-1.00774
7.65535
-0.0240129
7.87747
7.6387
0.0260442
-1.32019
7.87799
0.0223837
7.87833
7.87963
-0.0302583
0.0054133
7.87739
7.63649
7.91768
7.63669
7.87109
6.86665
7.87874
7.87533
0.0217896
7.87836
7.8716
7.87348
0.0332758
7.88557
6.90851
7.63812
7.63643
7.32036
6.94479
0.031646
7.63775
6.95379
0.0382969
7.87108
0.0130806
0.0293143
7.87594
0.0346096
7.87454
7.47494
7.93869
6.8101
7.64314
7.85736
7.87161
7.88163
0.0541095
7.88007
7.87723
7.87671
7.7523
7.87453
7.80236
-0.0564044
7.87535
7.88173
-0.00802771
7.87595
7.63801
7.6421
0.0649692
7.87644
-0.0971477
6.72893
-0.309426
0.0200677
7.63392
6.5654
0.0409802
6.29764
7.63785
-0.127553
-0.306515
-0.00247837
0.00257611
-0.185265
-1.08977
7.66533
7.63859
0.0498045
-0.0346438
-0.019301
0.0573881
-0.32001
7.63852
0.0272616
0.0399008
0.0462096
7.64549
0.0485978
0.028891
0.046461
0.0432741
-0.0562195
0.0575196
0.0510361
0.0337943
0.0142254
0.0439697
0.0500922
6.92179
0.0920446
0.00641447
0.0426565
0.0270963
0.025441
0.0514587
0.01726
7.0823
-0.0467102
7.03139
0.0564441
0.0518793
0.00182628
0.0346882
7.0197
7.6354
0.0507891
0.0467191
-0.0601391
0.00111517
0.0357575
0.0408467
4.85776
0.0502257
7.87533
0.071184
-0.0453451
0.0109142
0.0539014
-0.0727816
-0.106328
0.0449245
0.0359878
0.0272359
0.0533583
0.043504
0.123558
6.16249
5.41313
0.0438082
7.87781
7.87594
0.0411105
0.0617537
0.0266258
7.87544
-0.0123549
0.00570342
0.0466546
5.6081
7.87482
-0.139202
0.00891649
-0.0522667
7.88161
0.0390089
7.8759
0.0389151
0.0419835
0.0112741
0.0126198
7.87381
7.87743
0.024647
0.0525739
0.0671333
7.869
0.0401211
0.0676446
0.0252495
7.64597
0.0535395
0.0511226
7.01172
0.0456965
-1.40221
-0.041457
7.60141
-0.00128522
-0.0335755
7.87537
0.0534544
0.0227015
1.45795
0.0368587
0.0589912
0.0320798
0.0654731
0.0174757
-0.0191963
-0.160471
-0.0454699
0.0796042
0.0307898
0.0282028
-0.105716
0.0521472
0.0309654
0.0772384
0.0536212
-0.0899926
0.0493895
7.87574
0.0479056
0.0378073
-0.0399655
0.0515318
0.0182343
7.66018
0.0454705
0.0484162
7.87132
-0.0143304
-0.00774747
0.0455805
0.0515144
0.0288377
-0.0434547
0.0571094
0.0319233
0.00733444
7.87542
7.87541
0.0115854
7.64565
0.0150133
0.0544919
7.70632
0.0290453
0.0320287
0.0722052
7.87676
0.0488855
0.0384844
-0.00260956
-0.0756313
0.0474662
0.0570521
0.0412687
0.0449249
7.87544
7.85628
-0.0306199
0.022427
0.00114908
0.0551069
7.85595
0.0221851
0.0626591
7.70663
0.0333838
0.0524623
-0.0795356
-0.151076
0.0272877
0.0091502
0.0485716
0.0308477
7.65069
0.0542876
0.0295474
0.0483354
-0.129883
7.85719
0.0357088
8.01271
7.87588
0.0404957
0.0350438
0.0349323
0.195034
-0.0553038
1.53758
7.63983
0.0165172
0.0728052
0.0956785
0.0396318
7.88067
7.64436
7.63381
0.0287691
0.0335323
-0.156622
0.0481161
7.62765
7.86056
0.0211427
0.0381784
0.015755
0.0438475
0.0387998
0.0656801
0.00620632
4.40473
7.63501
0.0415551
0.0267783
7.86
0.0400449
0.0611893
-0.00132657
0.0549975
0.046016
0.0179206
7.86021
0.0574933
0.0434648
7.64385
7.64415
0.0313425
0.0822314
0.0285712
0.026738
0.0545042
0.0497952
0.042053
0.0533303
0.0579682
0.0197704
7.85593
7.84826
0.00992043
0.0376083
0.0536304
-0.0291076
0.0560649
0.0314352
0.0460051
0.0534285
0.0521268
7.63893
7.65095
-0.0437193
7.85461
6.86774
0.051043
0.0454961
0.0369115
-0.0277291
7.1844
0.0227478
-0.0105988
7.31467
-0.0318245
-0.138761
0.0551538
0.0576253
0.0222963
0.0661522
-0.0775767
0.0270532
7.87553
7.25814
-0.016064
0.039333
0.0354712
0.0382038
-0.0477278
0.0212612
-0.0443845
7.28403
0.0627186
0.0610889
0.0467077
-0.0525224
0.0200793
-0.0301859
-0.132065
0.0405517
0.031533
7.17612
0.0481965
0.0626098
2.83983
6.81432
6.26645
0.0700828
6.65986
0.0152381
0.0558167
0.0366074
0.0632606
-0.0452332
5.07311
3.09068
8.0738
6.74167
0.0133777
7.6365
7.63617
-1.20212
7.87324
0.0520809
0.0430964
0.0525328
0.0446324
0.0468549
0.047137
6.29554
0.0356869
0.0306636
0.0233241
0.0543286
0.0568673
0.0505526
7.63706
-0.13405
0.0513315
-0.0467749
7.63672
0.0412735
0.0335173
7.6366
7.86573
-0.0205989
0.0404793
7.91223
0.0561545
0.0556049
-0.0236419
7.87799
7.63641
0.0240695
-0.137905
0.0638178
7.63678
7.62561
7.63665
0.0450341
2.5993
2.36758
0.0142947
-0.297636
7.8871
0.0418818
-0.275376
0.0517552
0.027706
0.0111539
0.0367365
-0.423744
0.0327384
7.69149
0.0285337
0.0485687
0.0190773
0.04741
0.0208665
0.0415304
0.0248891
0.0170679
0.031387
-0.00100375
-0.310165
0.0487692
-0.0238816
-0.0655293
-0.378215
0.0154802
-0.294059
0.02607
0.0311765
0.0416358
0.0513236
0.00630012
0.0466466
-0.301167
0.036773
7.48965
0.0480721
3.85733
0.0418259
0.0355527
7.64454
0.0351812
7.48929
0.0392891
7.51712
7.90439
0.0725911
0.0263984
6.87043
0.0353859
0.0497605
0.0285667
7.86149
7.87886
0.0747952
0.0179281
-0.111828
0.0444052
0.0415068
0.0279273
0.000433495
0.040532
0.0333946
6.51933
0.0468263
7.63691
7.82453
0.0518326
0.045133
-0.0282608
0.0502866
0.0454828
0.0430146
0.0305782
7.78195
-0.0462817
0.0352756
0.0381331
7.79395
7.88547
0.0472587
0.0423379
6.17262
0.0166887
0.030249
0.0453618
-0.130313
0.0436741
0.0508802
7.86525
4.60585
0.0446215
-0.0109122
7.70887
0.0607635
0.0104773
0.0343294
-0.0467676
0.0392718
-0.0766402
0.0468771
0.0223063
4.87302
0.0139166
7.87587
0.0429795
0.0321405
0.041339
0.0100786
6.59974
0.0153317
-0.0158457
0.0356439
-0.0463466
7.43276
7.63659
0.0527663
-0.00993681
0.0458175
0.0470175
0.0161911
0.0391053
0.00128453
0.0404462
0.0457003
0.0285408
0.00914266
7.05499
-0.0632506
0.0265644
-0.000329725
0.0177931
7.24889
7.63448
-2.29415
-0.0484538
8.16757
-0.0744567
0.0292839
7.37113
5.03759
5.4769
0.00897602
0.0455701
0.240785
5.85934
-0.0181122
0.0568701
7.61801
0.231065
6.89498
0.0336771
0.0391022
7.67237
-0.0223789
0.0322252
0.0283121
0.0425742
7.63509
-0.196193
0.0153688
-0.0150908
0.0377595
0.04058
0.0227719
0.0432389
-0.103847
0.0312231
0.0311537
0.0451173
7.87312
6.47357
6.56731
7.72701
0.0190921
0.0516282
0.0536159
-0.0055474
0.0343927
0.0518207
0.0381738
0.0323993
0.0340329
0.0405543
0.0406922
-0.0267077
0.0500648
0.0379932
7.8753
0.0155365
-0.00371008
0.0351146
0.0436331
7.61045
0.0325337
0.0356211
0.0775687
0.0449107
0.0468621
7.65178
0.0571066
0.0466989
6.88502
0.0582587
0.0390231
7.72118
0.0330353
7.71265
7.64016
0.033047
-0.00880857
0.042454
0.0480333
7.63723
0.0406413
0.0153431
7.64438
0.0572618
0.0471634
0.0473166
0.0366817
7.75208
0.0201656
0.0252473
0.0545331
7.71355
0.0643692
0.0296461
0.0465866
0.0477447
0.0395128
7.90633
7.47402
7.08169
0.0283266
7.21251
0.0523814
0.0352032
0.0315767
7.85199
0.0286637
7.67367
7.87587
7.82547
0.0530162
-0.0117213
-0.136745
0.0491082
0.0595826
7.52179
6.89227
0.0179947
0.0113136
0.0556648
-0.0988101
0.0497542
-0.327032
7.87795
5.75606
5.87094
7.63484
5.94619
0.0189957
7.87557
0.0610691
0.0367202
0.0526536
0.0197787
0.0508378
6.34288
0.0224494
0.0480963
0.0354515
0.015021
6.38388
7.87654
0.0349017
0.0387942
-0.224719
-0.470475
-0.0438805
-0.0838798
-0.190107
-0.127497
0.0565628
0.0138968
0.0471494
-0.730676
0.0412897
0.0488996
0.0356708
0.0453615
0.0400524
-0.0489206
-0.539668
-0.428716
-0.884324
-1.18579
0.019799
0.00372442
7.6476
-0.980199
-1.92296
0.037355
0.0309531
0.00467231
0.0435996
0.0684348
-2.09567
0.0250286
-0.0434919
7.91111
0.0553089