/*--------------------------------*- C++ -*----------------------------------*\
  =========                 |
  \\      /  F ield         | OpenFOAM: The Open Source CFD Toolbox
   \\    /   O peration     | Website:  https://openfoam.org
    \\  /    A nd           | Version:  10
     \\/     M anipulation  |
\*---------------------------------------------------------------------------*/
FoamFile
{
    format      ascii;
    class       volScalarField;
    location    "15";
    object      SgRate;
}
// * * * * * * * * * * * * * * * * * * * * * * * * * * * * * * * * * * * * * //

dimensions      [1 -1 -3 -1 0 0 0];

internalField   nonuniform List<scalar> 
111485
(
4.51791e-10
0.0080267
0.0240186
6.95191e-11
0.0489348
3.10709e-08
0.0461679
0.00614855
0.0189747
0.00122578
0.0465686
0.00939561
0.00477133
0.293795
0.00651351
0.0305709
0.208779
2.61651
0.0103519
4.74533e-08
0.0371072
2.82932e-09
0.0265498
0.034766
0.00863517
3.46215e-08
0.0395909
0.00177242
0.0155858
0.0480077
0.0443447
0.0193788
2.17725e-07
1.44246e-06
0.00742177
9.05997e-05
0.146123
0.208295
0.00246717
0.0240348
0.0429951
0.0709319
0.0158549
0.0016208
8.00178e-05
1.58077e-06
0.0299139
0.000714094
0.0475491
4.2465e-07
1.09411e-06
1.71877e-05
4.62167e-07
0.0509455
1.50095e-06
0.0436109
0.00311312
4.28945e-08
7.0034e-05
0.00479859
0.0160926
2.63639e-07
0.00481839
0.0966026
6.43215e-06
0.00320406
0.315289
0.0944353
0.00116741
0.00616384
6.5399e-05
0.00660899
1.11453e-05
0.00296166
4.56123e-08
0.00070915
1.57131e-08
0.0412328
2.74334e-08
3.11552e-05
0.278721
0.555967
4.5993e-08
5.16325e-09
0.00925865
0.00393355
0.142276
0.0252307
0.000305005
0.00740697
0.000283191
0.0404916
0.0118358
5.79847e-05
0.052357
6.5331e-09
0.0269864
0.0018103
0.00152972
0.00172072
1.20741e-09
0.0180347
1.93953e-06
0.0181906
0.00463528
1.63541e-05
6.14169e-09
0.00757375
0.00409281
0.000718914
0.00544838
0.00473198
0.0037507
0.00325817
1.04223e-07
3.37287e-05
3.08457e-08
6.47357e-06
0.0127944
4.09243e-09
9.13196e-08
0.000189248
0.0743419
2.23685e-06
0.00160324
0.0280128
0.000106492
0.0017002
2.67828e-10
0.000345036
0.00158338
0.0325969
0.0470672
0.00017449
7.7733e-05
0.0484348
1.0079e-09
0.0425575
0.0253033
0.00272852
0.000315338
0.0020018
0.20136
0.0027936
0.0040052
0.0130434
1.13839e-09
8.0991e-10
4.80879e-08
0.0280381
0.00160606
0.0284658
0.114497
0.00479333
3.69186e-05
0.0107479
0.0163274
0.0107647
0.000814294
5.42127e-06
9.31279e-10
0.0522457
0.0229689
7.55087e-05
6.45004e-05
0.0058355
0.00345277
0.0267412
0.00154842
0.00017304
1.53054e-09
1.48858e-08
0.197062
1.07843e-10
0.00551539
0.00209149
5.33921e-07
9.5219e-06
3.49882e-08
5.77331e-06
9.77891e-06
3.70145e-08
0.0015017
0.00679099
0.0297024
0.00415229
0.00757603
0.00404565
0.00046231
1.78104e-07
0.00484769
5.70422e-06
7.11301e-06
0.00652392
0.0104789
0.0282115
0.0112449
0.00503855
8.45593e-07
0.00668083
0.000520395
0.00168959
0.0141897
0.00232016
1.8215e-06
0.00377529
0.0254643
1.17069e-05
0.000183708
0.00778173
0.00204368
0.000373432
8.57204e-06
7.45704e-09
0.00830542
0.000309685
0.119677
7.00299e-09
0.00664709
0.0204558
0.119463
8.31658e-08
0.00324717
0.013646
0.000276618
6.85338e-09
5.28785e-10
0.152279
0.00412897
2.34212e-05
9.27831e-05
0.00945101
0.00777825
0.159712
3.84281e-05
2.07292e-05
0.15968
4.61735e-08
0.00249197
0.00948955
0.016583
0.0116415
0.00961442
3.8614e-06
0.00191624
0.000628226
7.74281e-06
1.14073e-08
0.0309118
0.156011
1.8179e-05
0.00645144
0.0107311
7.96783e-10
0.000191292
0.000116155
2.78518e-07
6.64519e-05
0.0991725
1.8591e-08
0.0148948
0.0108616
0.00366998
3.3949e-09
0.0118838
6.89266e-11
6.12228e-08
5.07848e-07
0.164417
0.0228168
0.00617712
0.00540184
0.212399
0.012271
0.0015917
0.000820345
0.0326162
0.00885925
4.5368e-07
5.33448e-09
0.111438
0.0226479
0.0245158
0.0119479
1.68389e-09
0.222932
0.265835
0.0030045
0.000317872
3.59665e-05
0.0137183
0.00219046
0.00194154
2.13764e-08
0.000666305
2.35422e-09
0.000356078
0.000271089
0.239502
0.0682114
0.355728
1.76244e-08
0.0849277
0.00897919
0.00172394
3.11875e-09
1.1474e-07
0.0245591
0.000300305
0.0572549
0.00395885
0.0138134
0.0192482
3.02917e-05
3.02656e-08
3.45425e-08
0.00379389
0.00438683
0.248939
0.185234
0.000775237
1.57575e-09
8.7863e-09
1.36544e-08
8.43126e-05
0.0598678
0.0119212
2.14431e-06
0.00523173
7.09802e-05
0.0606331
0.0669046
0.00589977
0.0114149
0.00925826
0.0476629
4.97068e-05
7.30602e-07
0.00941548
0.0187859
0.00477609
6.91979e-08
0.149792
0.000329808
0.00221188
0.00803639
0.00033623
0.0284821
0.0386177
0.0375789
0.00354639
0.00779253
0.0252314
0.0134087
9.01419e-06
1.96936e-07
5.42268e-07
7.10681e-07
0.0313967
0.368964
0.033196
0.0673351
0.0522972
0.0186261
1.75047e-08
4.08144e-07
0.0165379
0.0468144
0.0778168
0.0457679
0.0490252
0.022931
2.41723e-08
0.0136139
0.000294006
4.64849e-10
0.0010084
0.0164918
1.57021e-05
0.00888066
0.00939217
0.00812528
0.00138108
0.0027274
0.00554818
4.2903e-05
1.17215e-06
0.00262198
3.85302e-07
0.00623657
0.116561
0.0299746
1.15665e-07
0.0274838
0.153618
0.00826013
0.324543
6.7392e-08
0.046625
0.0187902
7.23101e-09
0.000834376
0.00247511
3.81959e-09
0.0319499
0.0109764
0.00520468
4.5337e-07
2.48715e-08
0.000751283
3.82222e-09
0.0122499
3.57108e-06
3.75957e-10
0.0168329
3.99841e-05
0.257158
0.0298015
1.91847e-09
7.92812e-05
0.00159228
9.84093e-05
0.000199261
0.0148792
0.12188
0.84326
5.53446e-05
0.205862
0.000716879
4.5517e-08
0.0387092
0.031235
2.02394e-07
0.00141795
0.000307087
8.28864e-05
0.0239441
0.0242398
0.0139443
3.57479e-08
0.349202
0.0170501
0.0229739
0.00437506
9.08508e-05
0.00127
3.57316e-08
0.251574
0.360899
2.57034e-08
0.00841777
0.000360164
0.000102912
3.99607e-09
2.98701e-05
3.83403e-09
0.286528
0.00966936
0.00642963
0.00221066
0.00271355
1.88095e-07
0.00199794
4.98619e-07
0.0407352
1.55236e-07
5.96789e-07
0.0522527
0.0368403
3.98999e-08
1.2672e-09
0.000382201
8.46851e-08
1.57673e-06
0.00106362
2.68984e-08
6.10718e-05
6.65103e-08
0.0739441
6.82246e-08
1.65465e-06
3.72587e-08
0.00724573
4.21042e-07
0.222904
0.00194636
0.235744
1.25982e-08
0.000945174
2.55308e-06
2.77549e-09
0.369499
0.14382
0.0272145
0.0248092
3.05247e-05
0.00203406
0.0815446
0.00847111
0.0010642
0.290604
2.47376e-08
0.0233955
0.00010804
0.00500567
0.0583194
0.0757007
0.000114379
0.0209632
0.000244369
0.000775564
0.0809371
0.00200764
2.2325e-08
0.0800764
0.0485478
3.51832e-06
1.13016e-06
1.9537e-05
1.75202e-09
0.00169066
0.0548661
3.47144e-07
1.79575e-07
0.00258112
3.36746e-09
0.0336609
2.81862e-08
0.000331613
1.43351e-09
0.115855
0.113766
0.00102972
0.0125556
0.0644379
0.0811805
4.81342e-08
2.46935e-07
0.014977
4.40484e-08
0.000200017
1.77101e-05
0.00163929
0.0425287
0.0643552
2.7617e-09
4.66583e-05
0.0172432
0.003335
0.00172575
0.00392027
0.00682937
0.0207845
9.63654e-07
0.025073
0.00613214
2.6998e-09
0.125692
0.0404469
0.0152711
1.3316e-06
0.00508342
0.00678984
0.00221495
0.00401383
0.000383245
0.0136854
0.00129033
0.000138263
0.0234914
0.127801
0.000822007
7.3842e-05
0.00357214
0.7242
3.19819e-08
0.000421724
4.53081e-06
4.05173e-05
0.00732882
0.00328119
0.00274107
0.000449916
0.000165835
0.0162934
0.0110291
5.66025e-08
0.000197479
0.00135689
2.93524e-08
7.46431e-10
5.27134e-08
3.32419e-08
0.0130448
2.02161e-09
0.0346529
0.00868765
0.00194563
0.0984185
0.327356
6.01385e-05
0.00852725
0.0370478
5.43642e-08
0.0526475
1.89453e-07
1.97371e-08
4.75149e-05
0.00425642
0.120192
0.0287854
0.00624597
2.68728e-06
0.0880102
0.145038
0.0284795
0.0279782
0.000521285
0.195803
0.0410422
0.053958
0.0462808
5.93956e-06
0.000316506
0.0405557
0.00787013
0.00144857
0.0276603
0.0260923
1.13404e-06
0.0107461
0.00066371
3.22933e-05
0.0346861
0.000258969
0.000655818
0.0109671
0.0403885
0.001353
0.0214033
0.0195018
0.00721699
3.25646e-06
0.010367
0.000342572
0.000195497
0.0170039
0.0177775
0.0357585
5.0847e-07
0.00189127
4.44382e-06
4.0891e-09
0.076819
1.52081e-08
0.135994
5.85478e-05
0.0116869
8.09221e-08
0.0291334
8.06021e-05
0.0427605
1.34545e-09
0.0314056
2.99805e-07
1.67905e-08
8.16965e-07
0.319238
0.000534475
2.93683e-05
0.0410677
1.06049e-07
2.54404e-09
0.208442
0.0694567
8.31882e-05
0.00196974
0.000129677
6.34439e-08
0.0371953
0.00852464
0.178425
9.90776e-10
4.73238e-09
0.000414709
0.0010638
0.000132177
3.96922e-07
0.0623486
0.0072253
2.62201e-08
1.22851e-07
0.045037
0.0418634
0.00220381
6.62156e-10
3.87034
0.340437
0.190472
1.61388e-08
1.92085e-08
0.0554787
0.000442897
3.93747e-05
0.000587021
0.11498
0.00270243
0.0113231
0.0628016
0.0528163
0.0018787
6.6998e-08
1.19459e-06
1.24649e-08
9.48075e-09
7.58104e-08
8.60496e-10
0.0221842
7.01501e-08
1.87932e-08
3.36135e-07
0.0114143
0.0237512
1.05475e-07
5.79337e-07
0.10559
0.0142623
0.00985132
2.68719e-08
7.07878e-09
0.0369565
6.95447e-10
0.00179903
0.00264319
0.00394577
1.24418e-07
1.76492e-10
9.39599e-10
1.60575e-09
0.0148424
1.84349e-08
6.56788e-08
0.00104277
4.97909e-09
0.0230465
0.00196083
2.35421e-06
0.036884
0.359431
0.00252037
0.279354
0.000254841
0.0439263
0.208231
8.19951e-05
0.0235223
0.068491
0.00600333
2.03194e-05
0.088463
0.756358
0.00993754
3.78976e-08
0.0025144
0.00258548
0.00127235
9.16732e-05
1.87522e-09
1.66504e-10
0.013425
3.84613e-05
0.00267618
3.88887e-06
0.00142115
0.00141375
0.0364601
0.000578824
1.60274e-08
0.0331513
8.15793e-06
0.020496
2.6962e-08
4.9565e-05
0.000201013
1.76263e-06
3.41123e-07
0.0405918
1.50588e-09
0.0100582
0.0631969
1.02838e-08
0.0721668
4.28423e-05
0.0367417
0.000604431
9.67032e-08
2.71915e-05
0.00161631
0.0457397
0.00401239
0.00132051
0.160557
0.000201463
0.00404127
9.85146e-07
1.04161e-05
0.493109
0.161293
4.20775e-08
0.239885
0.000860078
0.000161638
0.00983634
0.00021307
0.00119874
0.0233676
0.00935137
0.00224767
0.00488648
0.00196659
0.0452323
8.32543e-08
0.0328068
0.0262291
9.63773e-08
0.00842402
0.269985
0.028206
2.92869e-07
0.00191537
1.51236e-08
0.0101252
0.224728
2.20255e-08
0.178299
0.340521
0.00133551
0.00493936
1.08552e-06
0.0483505
7.65709e-05
0.0016755
0.00121503
0.000324948
4.24514e-06
0.0449552
0.00709484
7.41572e-10
0.000422716
0.000544495
0.000908506
0.000465145
0.000860287
0.000171093
1.25176e-09
6.82969e-05
0.0225884
4.10275e-07
0.00177508
0.349106
1.73252e-07
3.19044e-08
0.00322809
0.00328899
3.14541e-09
0.000609725
8.50365e-08
1.57264e-08
1.28599e-08
4.47639e-07
5.01258e-06
1.65293e-07
0.000356088
0.0514016
1.58642e-09
4.98236e-07
0.00448873
0.115297
0.00179883
0.00913701
0.0322934
4.89609e-09
0.000294889
4.14377e-09
2.20908e-09
0.000568321
0.14761
0.0421394
5.43469e-09
6.8525e-08
0.0354021
1.7596e-08
0.0229429
4.70785e-08
0.00693338
7.47345e-09
0.00195728
0.0264145
2.62008e-09
7.54333e-07
5.5835e-07
0.00142988
6.2361e-07
2.3782e-08
2.06558e-06
0.00443864
0.0536417
0.0043535
0.00060338
0.00106903
4.31563e-08
0.00139428
0.00199197
0.0441638
3.45431e-06
0.000224973
0.00546846
1.19881e-07
9.4206e-06
0.000149197
9.93961e-08
0.00811906
0.00161346
0.00326489
0.0727486
1.39408e-09
0.023282
0.0603714
0.000121235
7.6704e-05
5.7717e-09
0.0262488
1.72221e-08
1.12416e-06
2.83731e-05
0.0514675
5.48214e-07
0.00237648
2.74406e-05
0.000896611
1.67407e-05
7.91973e-09
3.78955e-06
1.63395e-09
0.00248923
0.000663105
0.307752
3.04711e-08
5.04595e-07
0.0021465
2.60006e-10
4.77231e-05
4.46065e-07
0.0363797
0.000845897
0.031791
1.44581e-08
0.00140306
0.000167942
6.29747e-05
0.000285265
4.68315e-08
0.00138249
0.0249344
0.136547
0.00121455
0.000325585
6.15312e-08
6.88794e-10
2.14535e-08
0.185414
0.0741622
0.00750731
7.3644e-10
0.174618
2.9259e-08
0.213499
0.00317451
7.56368e-07
8.93675e-08
3.37715e-06
6.12622e-07
0.0411836
2.1129e-06
0.000121899
0.322466
0.00674428
7.20865e-05
3.33538e-05
6.97084e-05
5.13299e-05
3.14937e-08
3.20852e-10
0.0255289
0.000440408
8.40376e-09
1.99398e-07
0.000610774
4.56646e-07
0.00152102
0.421131
1.75993e-06
0.00354245
4.03984e-10
0.00038352
2.64615e-07
0.330461
2.73596e-09
0.118562
0.0055264
0.000762732
0.0181198
0.0339902
0.000941861
2.56643e-06
0.000544499
2.28187e-06
0.00459979
6.0097e-08
1.85186e-06
8.5093e-05
2.37161e-06
0.070087
2.73451e-07
0.00717941
0.00837415
2.10789e-09
0.000381349
8.65672e-08
0.000823627
0.000832544
6.8193e-08
0.0180657
0.000243434
5.49212e-07
0.0232426
0.189195
0.00364852
0.0113478
1.36244e-10
0.0462348
8.90111e-06
1.89759e-07
0.0369237
4.90145e-06
0.11334
8.66763e-09
0.151575
0.000729571
1.9072e-09
0.00108408
4.04188e-07
2.68856e-09
0.0030846
0.00100622
0.0101155
8.79066e-09
1.11439e-06
4.58583e-08
0.000876889
5.03712e-05
0.0342498
6.25863e-06
0.000923986
6.74713e-05
0.00116239
3.0779e-05
3.4893e-06
1.07001e-06
0.018269
0.00970834
0.0181541
0.0358176
0.0439497
0.000266036
0.0475872
7.4641e-10
0.00961947
1.17731e-07
6.37682e-05
0.000452166
0.00666163
0.000417329
0.000542082
0.00203853
1.148e-09
0.00718106
0.00833513
0.000213277
0.000826025
0.0150821
0.000905447
1.68381e-06
0.0303079
1.36457e-07
5.61693e-09
0.000264536
0.0743211
0.000993675
6.59852e-07
0.04708
0.000665868
7.15734e-07
1.32573e-07
0.000595869
2.89256e-06
0.0555981
0.3193
0.000359664
0.000414862
0.0223283
0.0072109
3.26093e-08
1.40146e-08
8.35053e-05
0.00407858
0.0346648
0.0550239
0.00975354
2.87142e-08
0.000320422
0.041418
2.75012e-05
0.00115005
2.57344
0.0437847
0.121637
0.0509323
0.0212808
1.27935e-09
0.00202683
6.60646e-07
1.56747e-07
1.90922e-07
7.66474e-09
0.00288858
3.91093e-09
2.26798e-09
9.13453e-05
4.90568e-08
6.38809e-09
9.47784e-07
0.00970265
0.0595078
0.0108351
0.00312463
0.0768247
0.263025
5.13023e-09
0.187781
0.000159652
0.392803
0.013071
1.11087e-07
9.28794e-05
0.00766608
0.261226
1.7326e-09
0.00117766
0.0190437
0.00471707
1.63034e-05
0.0259414
1.10702e-06
2.37914e-07
0.0782063
1.07707e-08
0.00814088
1.22087e-07
8.836e-07
0.00830618
0.000458645
0.00280441
1.15195e-06
0.000388188
0.000657159
4.19688e-07
0.00020714
7.42762e-07
0.0231699
1.42064e-07
1.33288e-07
0.253805
0.0441586
0.000537897
3.30425e-07
6.11508e-09
0.0047412
0.19428
0.00468547
0.0152445
0.217859
0.0201831
2.02319e-09
0.03601
0.00307273
0.00673507
0.0368064
0.010656
7.83302e-09
0.191984
1.25249e-09
0.0404765
0.0091788
0.0110013
1.60311e-08
0.0131853
1.31572e-06
0.00273276
0.00900454
5.10605e-06
3.16265e-10
4.84981e-09
0.00290945
0.0811094
2.29658e-09
0.00420612
0.0213926
9.95171e-05
0.00736823
0.0487023
2.31248e-06
0.000139032
0.000830208
6.12347e-08
0.0102511
1.96525e-06
0.00257608
2.91233e-08
2.55525e-08
0.0121908
5.9247e-09
0.000218235
0.00365367
3.39081e-08
7.94683e-08
0.00451739
0.000547159
0.356701
1.17598e-07
0.253294
1.8421e-06
0.000367942
0.000169554
0.00746945
8.2909e-05
0.0798167
0.00554122
5.47701e-05
0.00107803
0.0674267
7.26448e-07
4.90203e-08
0.000423435
0.000782702
0.041927
1.91701e-07
0.0350211
0.000945475
1.59685e-08
0.230648
9.70281e-09
1.68047e-07
2.31929e-06
0.00293133
0.309883
0.0578877
4.62065e-07
2.355e-08
1.67396e-09
1.10632e-07
1.07247e-07
6.50669e-07
1.19048e-07
5.48679e-09
6.37482e-08
1.12891e-08
1.84615e-07
0.063482
0.0376472
2.78194e-09
1.37602e-05
7.24969e-09
7.58933e-08
1.19838e-08
0.0369012
0.0821998
0.017258
3.87543e-08
1.21103e-08
8.25755e-07
0.00655402
4.03951e-06
1.35787e-07
0.286643
2.7196e-07
3.12265e-06
0.0228814
0.000189206
5.31881e-06
0.00836224
0.0242584
3.00022e-08
0.00325058
0.00458457
1.74847e-08
0.0131935
0.0390311
0.0176144
0.00337257
0.0106218
3.73006e-06
1.11707e-07
0.332772
0.0106186
0.0032138
0.0635122
0.00679011
0.00176247
0.0212066
0.0100682
0.000698939
0.0154543
0.00106161
0.0101544
3.36898e-06
0.0245648
0.00837447
0.00164986
0.00138511
5.67307e-09
6.21655e-08
4.60184e-08
6.76499e-10
1.7719e-07
0.00925364
0.0134428
1.92832e-08
2.97081e-09
1.78585e-07
1.72924e-05
4.87428e-09
9.66581e-09
8.11021e-07
1.12188e-06
0.00462021
0.000278555
0.0215258
0.246272
1.21757e-07
1.15369e-05
0.0303639
1.08689e-05
4.07146e-09
1.76492e-08
0.230564
5.59254e-07
5.06697e-09
4.93429e-06
0.232282
0.0134733
0.033103
0.0339102
1.09679e-06
0.0139492
0.00034491
0.000383701
1.96489e-08
0.0117416
4.95442e-06
1.9067e-07
0.0166228
1.03416
0.19599
6.77344e-06
1.37347e-06
0.016533
0.019936
0.0176302
0.00550531
0.00666032
1.21063e-08
0.000636791
0.000413806
0.0609288
9.95418e-06
0.27383
3.02587e-08
0.00197809
0.0248158
0.0173428
0.0112307
3.25732e-06
0.00600011
3.5663e-08
9.71623e-06
1.10236e-09
1.94332e-08
0.00246392
0.86789
9.95852e-08
4.98195e-09
0.000425402
0.023043
0.00169484
0.00678929
0.0322273
0.00470045
0.0199207
2.0045e-05
4.56884e-06
0.000204517
0.029317
0.00553403
0.00330176
1.20821e-06
6.91126e-09
0.000156463
0.0216598
0.00260801
4.5654e-09
0.148067
0.056534
0.00631546
0.00603547
7.55385e-09
0.000195095
0.00673176
0.0223718
8.68046e-10
0.000404085
0.014511
0.00102209
0.204196
0.00457451
0.00774239
0.000245214
0.00325323
0.0202916
0.0352162
8.32987e-05
0.0219945
0.000119295
0.198614
0.000164835
4.00709e-10
0.00249022
0.00737146
0.000413133
0.0112245
0.000464451
0.000997875
0.00049044
0.0402523
0.00356739
5.23919e-05
0.0373025
0.00126554
1.33067e-07
1.11953e-08
0.101551
0.000517726
0.00101662
1.06532
0.0341034
0.0114323
0.000430543
0.0433032
2.26906e-06
3.21874e-06
0.00384847
4.18237e-05
0.0019798
0.00412683
0.00213084
0.00450771
5.92506e-09
0.000217806
0.104279
1.93759e-08
0.0165855
0.00727745
8.02581e-06
0.00387332
0.000137193
4.07572e-08
0.00059177
0.138122
4.79691e-08
5.74284e-09
2.10283e-08
0.148005
0.24994
0.0135968
0.0531855
0.00459879
0.0315739
7.95748e-06
0.00771836
0.0119484
0.023166
0.00147275
0.116788
0.338711
0.398706
0.0100481
0.00871223
0.0357513
0.156778
0.362126
1.37313e-08
0.174216
0.0481737
1.08244e-08
0.000403499
5.84182e-07
2.9532e-08
3.70454e-08
2.27464e-07
1.87185e-08
0.139314
4.98102e-08
0.0068583
0.00130773
2.24735e-08
0.00371494
7.30787e-06
0.0133886
6.52329e-08
0.000608184
6.38489e-06
0.0207281
0.000215339
6.44451e-06
0.00407709
0.0273244
0.0159386
0.00375411
0.0259321
0.00332974
0.0220636
0.0520688
0.00930098
8.32989e-07
0.00108035
0.000342086
0.005351
0.00994786
0.000595311
1.15542e-06
5.78018e-05
1.53919e-07
0.00338831
0.0411
0.000716192
0.327242
0.00233464
0.000352464
1.64737e-08
0.0613757
1.02215e-09
0.00831506
0.0201091
0.00115574
9.55159e-05
0.0017874
0.00654603
0.00176739
0.000808851
0.00646925
0.00584484
0.00253906
2.24411e-05
0.077987
3.54509e-07
0.0125199
0.0103873
7.93516e-07
8.59855e-10
0.000259018
0.00805542
0.0175501
1.36952e-08
0.0021089
0.0442689
0.000210761
0.00446029
0.0848704
1.71546e-09
9.22656e-11
0.00352558
3.98437e-09
0.000105899
0.0114557
2.16668e-05
0.0103061
0.0310551
0.0179675
2.99731e-08
0.00143833
8.99856e-05
0.000130343
0.0460343
2.94594e-08
9.79854e-07
0.0102063
0.00053397
1.00573e-06
0.160916
0.000930447
2.90263e-08
4.11009e-08
0.000229715
8.07869e-05
0.0022874
0.00302097
0.0241689
0.240772
2.41028e-10
0.000331694
0.000690996
0.0424097
1.73923e-06
0.0473631
0.0828415
0.000118747
7.57811e-06
1.99809e-05
1.12732e-08
1.57797e-05
2.68951e-05
0.000375659
1.90553e-05
0.00032396
2.58138e-05
0.000655401
0.000342036
0.000567031
0.000129336
1.67482e-08
0.0268695
0.00952473
6.23818e-06
0.0824211
0.00024635
0.000211864
1.37827e-05
0.00114688
0.000262459
0.00260177
0.000383568
0.00106402
1.93723e-05
2.27514e-08
0.0011606
0.000416863
0.0666841
2.12525e-06
0.0366708
4.9011e-05
0.0351516
8.47408e-05
8.31769e-07
0.000395162
0.0263619
0.00757816
2.51164e-08
0.000295389
1.09869e-05
0.00411722
0.00121895
0.338545
4.55831e-05
2.01367e-06
0.0191846
0.0015292
0.00486818
0.0333991
0.0702201
7.0713e-10
0.0190812
0.00372577
0.0492467
5.75745e-09
0.00114246
5.67482e-07
0.0426281
4.97274e-08
4.6555e-09
0.00315393
0.00205267
0.002872
0.296916
0.0394357
0.0253937
0.0338513
0.0162654
0.21911
0.0426746
0.00494966
0.00458885
0.00465862
0.000565985
0.00955751
0.0373025
0.00147072
0.00138631
0.0307843
1.8986e-06
0.00319764
5.19218e-07
0.0171408
2.35169e-06
7.67679e-07
0.0015697
4.13908e-06
0.00582324
2.47541e-08
3.63904e-07
0.079564
9.66742e-09
7.55249e-08
0.00082002
6.21164e-08
0.000699054
3.53959e-05
0.0650267
0.0167118
0.26415
0.00742087
0.00702043
0.039804
0.548707
2.07833e-10
0.064726
0.0279053
0.0165001
0.0225767
0.00224446
0.052741
6.9726e-06
7.41079e-06
8.47051e-07
0.128502
1.0845e-06
1.02223e-07
0.0166916
6.60618e-07
1.65369e-08
0.00519209
2.45639e-06
0.283764
8.11246e-05
3.51832e-05
4.58612e-05
5.81028e-05
0.00143678
0.00635084
1.13569e-10
0.0218373
0.000402346
2.13557e-05
0.0947981
6.91456e-08
0.0147475
0.0169976
0.00351689
3.15997e-08
0.0169768
0.00945943
0.000853094
0.00506973
0.0115
2.91946e-08
2.21049e-08
0.00165618
2.26128e-08
1.41108e-09
2.90155e-09
0.0185849
0.35294
0.00423841
0.00216482
6.87005e-05
0.0471576
0.0431795
0.00399565
0.00238836
0.00878364
0.0195621
0.00260671
3.94917e-09
2.6166e-09
3.80536e-09
0.00681327
1.10586e-07
0.349814
0.000524142
0.000755603
0.0018328
0.00248983
0.0205846
2.79881e-09
0.0591057
0.00240434
0.000364986
1.54717e-06
4.05067e-07
1.60947e-07
0.477281
0.000306043
0.00057578
0.000855217
0.00960081
0.203723
3.15782e-07
3.19641e-07
5.00423e-07
0.00367568
0.0168347
0.0190454
0.0330487
0.00170243
0.00334337
3.58448e-06
5.07892e-10
0.000189362
3.81081e-07
0.164504
0.0211134
2.38544e-07
1.24902e-06
1.88878e-05
0.0604661
0.0296635
1.81658e-05
0.0131081
0.0902891
0.000935572
0.393657
0.0467261
2.57472e-05
0.0216299
0.172521
0.0185884
1.03929e-05
0.00482461
1.52823e-08
0.0136904
0.00170364
0.0232101
1.12238e-05
0.000377101
1.17242e-09
0.0230564
1.0355e-08
2.85473e-05
0.379358
1.20498e-07
0.00575069
0.00118247
3.74259e-07
4.10402e-08
0.00197273
4.17059e-07
1.15751e-07
0.0123299
0.000138514
1.35761e-08
0.0232098
0.0439067
0.0161691
2.46398e-10
1.98419e-09
0.000563568
0.00256931
0.00301747
4.34756e-09
9.78651e-08
0.000131594
0.003745
0.00185402
0.0124875
0.364218
9.9396e-10
0.14046
0.0112263
0.0061882
0.0554904
1.08109e-06
2.12223e-08
0.0227398
7.84619e-10
0.0295348
0.00496273
0.00558848
1.09838e-06
9.31052e-09
4.08647e-09
1.62947e-08
2.0317e-05
0.13272
0.210799
0.00216839
2.51353e-06
1.737e-10
0.0555809
0.223619
0.0335245
0.110018
1.36787e-07
0.000963672
0.000244115
2.38986e-07
1.30276e-08
0.0036619
0.00626531
3.63872e-08
1.10258e-05
0.0027923
0.0597735
0.203463
0.00108475
2.00964
9.6965e-09
3.68818e-07
0.0113018
0.000694978
3.33916e-05
0.636643
0.000581657
0.00611382
6.86337e-09
8.61378e-08
1.26205e-05
0.0580724
0.00809477
0.176456
1.99186e-08
0.0239551
0.0182929
0.829007
1.07678e-08
1.39111e-09
1.09195e-07
3.53148e-08
0.00645984
0.000322565
1.04096e-08
0.0371907
0.0179035
0.158801
0.00465807
2.98251e-06
1.64618e-06
0.0275646
1.3209e-05
3.15536e-08
2.40004e-08
1.4319e-08
0.0206883
9.4528e-06
0.0574658
0.0556266
0.024816
0.0115896
5.89393e-09
2.28843e-09
2.47946e-08
0.0146924
0.000248028
2.00249e-07
3.54731e-08
3.57221e-09
0.0218677
0.00232259
0.0106675
0.0402469
0.00193662
0.309452
0.00464051
4.37611e-07
4.45221e-10
2.58692e-07
0.0532887
7.24191e-10
0.0185558
1.39841e-08
0.0145747
4.47423e-05
0.00156532
0.000144269
0.00235741
4.06598e-09
1.51345e-08
0.36606
0.157343
3.48953e-05
0.00370068
4.21405e-07
0.000453829
9.58884e-05
2.99841e-06
3.28998e-06
0.000298168
7.913e-08
0.0010067
0.0390294
0.0338233
2.0383e-07
8.29137e-05
9.03887e-07
0.0339693
0.180615
0.000150806
9.35883e-10
0.00939806
3.39131e-07
0.00270383
0.0176225
0.00136188
1.12619e-08
0.000883145
0.000517905
0.000134083
0.00417088
0.000122314
0.00164856
5.41393e-06
1.22221e-09
0.000156707
0.00547799
0.000292591
6.58551e-07
9.59919e-06
0.000121974
0.549393
9.34863e-09
2.75081e-08
3.51169e-08
3.74998e-10
1.27172e-07
0.0215612
0.000579405
0.00110685
0.000105404
0.000204245
0.00142864
2.7092e-10
0.0052862
6.91898e-09
5.36696e-07
6.66108e-09
2.59392e-05
0.00204135
1.53609e-05
1.11254e-07
1.3987e-08
0.0138377
1.22869e-07
7.6912e-09
0.15521
9.21097e-06
0.0718327
0.119304
0.533995
8.61585e-09
0.192577
1.09474
1.10771
0.615015
2.18977e-09
4.42898e-10
0.00461011
0.00434737
6.78415e-05
0.00965156
0.0419185
0.0303436
3.2526e-05
4.44527e-06
0.00123549
3.32924e-08
1.29861e-09
0.000122965
0.000408642
0.0260126
8.12754e-09
0.116954
0.000125698
3.34937e-07
0.000109766
0.00775437
0.00152249
2.26371e-06
0.00746267
6.49432e-09
0.00328711
0.00216026
0.00693623
5.80632e-08
0.00175079
0.00538219
1.05307e-05
0.00320599
8.53602e-08
0.030264
5.65568e-05
0.00912808
8.54077e-07
0.191548
5.59186e-08
8.57985e-07
2.72573e-08
0.11706
0.120111
2.06184e-06
0.0112876
0.00867755
0.054896
3.15034e-08
0.030356
0.0160807
0.173166
1.27558e-06
0.193846
0.0234077
0.0430745
0.0036142
1.59871e-07
0.0536654
1.69825e-06
0.212706
1.79683e-09
0.00239856
0.00396339
1.10426e-07
5.41901e-05
1.26046e-06
0.0191261
7.91411e-09
0.0396778
2.87668e-07
9.97672e-06
1.09665e-06
5.28939e-07
0.000254543
0.00184658
0.125634
5.03859e-06
0.00024516
0.0382041
1.34307e-06
0.0428698
7.60152e-07
3.37608e-06
2.47434e-06
0.00545496
1.98856e-10
4.78456e-09
9.38338e-10
0.0030264
5.62695e-08
0.0667893
2.20002e-05
0.00302056
3.92481e-09
0.00564104
0.332672
0.00504119
0.0051345
0.0245979
1.24266e-05
1.99977e-07
7.91243e-08
0.00292253
0.00162761
2.69204e-06
0.000541357
0.000560956
4.69887e-08
2.90335e-08
0.310184
6.9798e-08
0.0201715
4.08366e-08
0.00218362
0.00304957
1.91768e-07
1.18803e-09
0.0455648
7.14837e-09
2.38018e-09
0.0169733
0.0562821
0.00430942
2.22856e-06
1.68205e-08
0.00635861
5.29754e-06
0.01169
5.94881e-06
8.2597e-09
0.0021649
6.72647e-05
0.129548
3.89322e-09
5.27018e-09
4.66057e-09
0.00310535
0.16497
9.52521e-07
1.57236e-08
7.50008e-06
0.00142433
1.99688e-08
0.0179061
0.028525
5.26473e-08
5.22391e-09
0.00661878
2.39158e-07
2.03688e-05
1.61891e-09
2.5384e-05
8.89798e-09
0.062894
0.000347411
1.34168e-07
5.59764e-09
0.0684886
3.02826e-08
0.0563262
2.46427e-07
5.09721e-08
9.66078e-06
0.00687847
0.0463681
0.00784874
0.049769
0.0604763
0.5349
0.00249918
0.04025
1.07828e-05
1.63771e-08
0.0022433
0.139426
0.0369003
0.0420755
1.15357e-08
0.00673416
1.65472e-08
0.00438925
9.8618e-07
0.00885244
0.000169585
0.0523597
5.26504e-07
1.61237e-08
0.0197241
0.000292554
2.41136e-08
0.0246346
0.000295408
1.97146e-06
9.51053e-10
0.033327
0.00922265
0.00590047
0.000777918
0.00166745
0.0159659
0.00093286
0.00459925
8.65237e-06
0.0261205
0.000125262
0.000455483
3.52262e-09
6.24257e-07
2.78084e-08
0.00948932
8.97719e-08
2.30762e-06
8.76171e-11
0.00039807
0.388581
0.0880074
0.00227455
4.83163e-09
0.00388182
0.054578
0.101987
0.00284936
0.000269846
0.0411326
5.52981e-07
1.23723e-07
2.84122e-09
0.00269612
0.00121348
3.86411e-08
4.46307e-09
0.00227308
1.65166e-07
0.784805
0.0537572
0.0932495
5.3135e-09
1.1226e-08
0.0419546
4.89842e-09
0.00905938
1.00852e-08
0.000643715
2.07065e-08
0.00899864
5.14375e-08
5.75672e-09
0.00107441
0.153306
0.064448
1.41663e-08
0.0687839
4.26069e-08
0.00389498
0.173831
0.116721
2.39724e-07
0.000497234
3.9209e-09
1.94723e-06
0.000277305
0.0156646
0.000301058
9.73733e-09
0.000627114
0.00307829
0.0048433
0.00759721
3.66022e-07
3.30892e-07
3.36963e-06
6.07631e-07
9.77734e-09
3.39699e-09
0.0743592
0.0370496
1.44413e-08
0.0833753
3.62069e-10
2.05984e-08
0.0689363
5.22455e-09
4.81213e-09
0.0395953
1.90565e-08
7.77635e-10
1.01459
2.0434e-09
1.20434e-09
0.00188853
0.0918502
1.28272e-07
0.0370246
8.71452e-09
0.0210109
0.0497014
6.25719e-06
0.000869395
6.29971e-10
7.23092e-08
1.04169e-06
1.76384e-07
0.317336
0.0450334
0.000262983
3.26026e-08
0.0461605
9.81573e-10
1.96847e-08
2.62162e-09
0.102146
0.00177919
0.000112106
1.34625e-09
1.2995e-06
0.0480076
0.000904381
3.67198e-07
0.000262348
0.107805
0.0851098
3.53785e-05
0.0843619
0.000923176
0.0425565
4.18033e-05
0.0651335
0.000342063
0.0291177
1.46491e-06
0.00654992
0.000455749
0.000925038
6.97317e-10
0.0013402
7.48291e-08
0.00386732
0.0239298
9.97013e-07
0.00237644
0.000310205
1.74182e-07
0.0100142
9.0726e-08
2.66981e-08
2.79607e-08
4.45614e-08
5.01893e-06
4.39868e-08
4.87698e-08
7.34417e-08
0.264311
4.29647e-05
2.09683e-10
1.75595e-09
5.51524e-08
9.94095e-08
0.0299645
0.771545
0.00208914
0.000139338
9.56323e-09
0.0019888
0.00136342
0.046224
3.18373e-05
1.286e-05
5.62066e-07
1.07719e-06
2.437e-06
0.000221593
0.000116483
0.178337
0.0669904
8.19446e-08
0.00103954
0.000297722
1.41752e-08
0.0245352
4.5726e-06
3.76093e-08
1.72157e-06
0.16244
0.0619841
5.04975e-10
0.0245398
1.45111e-08
0.0481491
5.10092e-05
0.0354061
0.052337
4.98418e-09
6.74135e-09
2.37702e-08
2.4954e-05
0.00571397
0.226163
0.0276357
0.0421446
0.00438267
0.000529385
9.51465e-10
0.000115971
0.135608
0.00131054
9.47484e-05
0.00294447
4.04276e-06
0.0983603
4.78236e-08
0.206276
0.0382519
1.27859e-08
0.000483527
0.00715176
3.9975e-08
0.00992114
1.43852e-08
1.85289e-07
0.19868
0.0291018
5.36515e-08
7.86176e-09
6.82806e-07
2.50445e-09
5.67648e-09
0.000125541
2.43721e-08
5.18736e-10
0.003129
7.6792e-09
9.72541e-08
2.6857e-07
0.000227656
2.19068e-07
0.000167665
1.0399e-07
4.68549e-08
2.24557e-05
6.56532e-05
0.00349598
0.04265
8.02015e-05
0.0049583
2.29239e-06
0.317556
0.312959
1.24239e-07
0.00337592
1.72679e-08
0.0452941
0.0379215
0.000402124
0.0892496
0.0683062
7.13478e-06
1.27677e-09
0.00240993
1.13706e-08
1.30441e-09
3.95635e-07
1.5687e-05
7.05528e-09
1.72514e-05
0.0359099
5.07654e-09
2.44426e-08
0.338228
1.57762e-09
0.0170543
8.18943e-06
0.00129609
9.97413e-09
0.000439416
0.000144936
0.237746
0.00801113
0.0236661
0.000181642
0.0401122
0.000267499
0.0744388
0.000148043
0.000226985
0.00981096
0.057494
0.000322482
0.0012724
4.26265e-06
1.729e-07
0.00108298
0.000229484
0.0163594
0.0120346
0.000148613
1.87624e-06
0.00548688
0.00513966
0.0183732
2.02031e-09
0.0122351
0.0166373
0.00269383
0.00146403
0.00123881
0.00325719
0.0190131
0.0403382
0.00718819
0.011009
0.00797569
8.97448e-05
0.00286727
0.00362273
0.00105309
0.00268336
0.014233
0.0136825
0.0195903
0.000120928
0.0109866
0.000418491
0.00499704
0.00280329
0.00036635
0.00237841
0.00020206
0.0748167
0.00396005
0.00120813
0.000140338
0.000725774
0.016032
0.0024036
0.207147
0.00347502
8.11624e-10
0.229972
0.0445934
0.0221853
0.00703291
0.0201573
0.000400138
0.0086787
0.459886
0.00209904
0.00140656
0.00245307
0.173791
0.00121382
0.0739803
7.40011e-05
7.70427e-08
1.29616e-08
0.00218149
0.00605818
0.0118282
0.0707408
0.00697384
0.0605206
0.0549745
0.0665283
2.83495e-08
0.00736005
0.00268923
0.0262024
1.0552e-06
0.0063074
9.14177e-08
0.223611
0.0114877
0.00736002
0.219559
5.41311e-09
8.94772e-08
0.00215247
0.000108567
0.000747842
1.54978e-07
0.00655229
0.00094943
0.0792424
8.94369e-07
0.0220019
0.00308435
0.000348226
0.000127698
0.00240048
0.00136233
2.43527e-07
0.0018141
5.25528e-05
9.78318e-09
0.267253
0.00375191
0.00253754
0.0101518