/*--------------------------------*- C++ -*----------------------------------*\
  =========                 |
  \\      /  F ield         | OpenFOAM: The Open Source CFD Toolbox
   \\    /   O peration     | Website:  https://openfoam.org
    \\  /    A nd           | Version:  10
     \\/     M anipulation  |
\*---------------------------------------------------------------------------*/
FoamFile
{
    format      ascii;
    class       volVectorField;
    location    "46";
    object      U;
}
// * * * * * * * * * * * * * * * * * * * * * * * * * * * * * * * * * * * * * //

dimensions      [0 1 -1 0 0 0 0];

internalField   nonuniform List<vector> 
59698
(
(0.584689 0.00592796 -0.00172156)
(0.564687 -0.00115114 -0.00086176)
(0.566527 -0.000673801 0.00169769)
(0.578812 -0.00341279 -0.0012863)
(0.562985 0.000751469 -0.00292697)
(0.197725 0.198051 -0.00634785)
(0.566923 0.000232731 0.000405326)
(0.564029 0.000867485 -0.000303166)
(0.199877 -0.199527 -0.000424149)
(0.201228 -0.200794 -1.81116e-05)
(0.20037 -0.198721 -0.000624149)
(0.567017 -0.000293735 -0.000404874)
(0.199806 0.200486 -0.000570794)
(0.561604 -0.000763116 -0.000193058)
(0.562059 0.00108986 -0.00255994)
(0.203958 -0.197111 0.00176034)
(0.564685 0.000135121 0.000200274)
(0.566077 -0.00125477 0.000377963)
(0.567635 -0.00050436 0.000297052)
(0.567345 -0.000368538 -7.97133e-05)
(0.142875 -0.0999514 -0.0248509)
(0.536148 -0.00146094 -0.00277348)
(0.265018 -0.173021 -0.00714176)
(0.198823 -0.199921 -0.00136798)
(0.570406 0.000671158 0.0010614)
(0.566229 -0.00115111 0.000424816)
(0.56647 -0.000346905 -0.000421767)
(0.557273 -0.000203222 -0.00121101)
(0.570332 0.00131645 0.000926532)
(0.572434 -0.000469585 0.000444712)
(0.548131 -0.00033278 -0.000368564)
(0.198554 -0.198581 -0.000166726)
(0.201143 -0.197952 0.00226756)
(0.559738 0.00121945 -0.000838375)
(0.549133 0.0115338 -0.00760676)
(0.566743 -0.000912173 -0.000387713)
(0.274869 0.0656073 -0.0385864)
(0.539492 0.000712941 9.78413e-05)
(0.561763 0.000134746 0.000571056)
(0.568116 0.00149853 -0.00275139)
(0.563894 0.000426392 -0.000101317)
(0.1949 0.197809 -0.00173738)
(0.562387 0.000587292 -0.000626887)
(0.563704 0.000446163 0.000105033)
(0.196728 0.199572 -0.000252558)
(0.560902 0.0036562 0.0051305)
(0.567071 -0.000854802 0.00036445)
(0.561578 -0.000324409 0.0014862)
(0.562931 0.000328168 0.000877768)
(0.565367 -0.000697759 0.00023003)
(0.567927 0.000157708 -0.00016927)
(0.566905 -0.000863863 0.000341117)
(0.566564 -8.50528e-05 -0.000781)
(0.560448 -0.000169616 0.000457526)
(0.572445 0.00295444 0.0010364)
(0.567409 -0.000509835 -0.000144866)
(0.562754 -0.000985846 0.000604543)
(0.524729 -0.00189872 -0.000295351)
(0.564636 -0.000786559 -0.000388045)
(0.26849 0.121373 -0.0193846)
(0.559159 0.00459359 -0.00252776)
(0.564612 0.00135949 0.000529293)
(0.577858 0.0146895 0.00646449)
(0.567582 -0.000549865 0.000375077)
(0.561838 0.000251087 0.00070447)
(0.561412 0.00019146 0.00206958)
(0.199519 -0.199947 -1.21376e-05)
(0.567141 -0.000555945 -0.000629651)
(0.566982 -0.000453873 -0.000630233)
(0.199516 -0.19921 -7.80599e-05)
(0.2092 0.182392 -0.00776917)
(0.565285 -0.000731568 2.06548e-05)
(0.166509 0.11878 -0.0343491)
(0.592972 -0.0110514 0.0201444)
(0.202915 0.203539 -0.000369704)
(0.590046 -0.0253256 0.0211246)
(0.561147 0.000250778 0.000997952)
(0.561036 0.000237293 -0.00161943)
(0.566859 0.000816636 -0.000635443)
(0.571482 0.00157039 0.000133163)
(0.552709 -0.00187222 -2.22813e-05)
(0.567921 0.000239395 -0.000121716)
(0.201246 -0.200761 -5.4784e-05)
(0.565112 -0.000729392 0.000596701)
(0.400054 -0.103823 0.0150799)
(0.562805 0.00018918 -8.68434e-05)
(0.563148 -0.00122781 0.00162293)
(0.557726 0.000495714 0.00714475)
(0.56202 0.00136563 0.000969793)
(0.560502 -0.000173519 0.00159298)
(0.199535 -0.199173 -0.000163301)
(0.560434 0.000897155 0.000572189)
(0.560755 -0.000393893 0.00165048)
(0.56588 -0.000352424 0.000415172)
(0.561539 0.00116797 0.000992994)
(0.563531 -0.00368252 0.00128461)
(0.558654 0.000667996 0.00122554)
(0.562286 0.000492812 0.000544782)
(0.559272 0.000635932 0.00122253)
(0.199678 0.200038 -3.10778e-06)
(0.556436 0.00151714 0.000839789)
(0.567546 0.00524289 0.00620132)
(0.56299 -7.11698e-06 0.000209482)
(0.563103 -0.00167436 -0.00450105)
(0.567142 -0.000557362 0.000828455)
(0.198838 0.198574 0.000130883)
(0.565441 -0.000998306 0.000599679)
(0.567258 -0.000354295 -0.000412041)
(0.200742 -0.200885 -6.32751e-05)
(0.199793 0.199687 -0.000370563)
(0.56632 -0.000771492 -0.000367291)
(0.570428 -0.0104279 -9.95828e-05)
(0.561798 0.001407 0.00155666)
(0.200897 0.198779 -0.000337765)
(0.561026 -0.000179028 0.000272475)
(0.567399 -3.58586e-05 0.000155662)
(0.567105 0.00134147 -0.00136264)
(0.565117 0.00305833 0.000757673)
(0.563627 -0.000858319 0.00207834)
(0.200904 -0.200437 0.000444445)
(0.565612 -7.16004e-05 -2.62457e-05)
(0.558247 -0.00637157 -0.00375923)
(0.563076 -0.00503579 0.00579184)
(0.564507 -7.87513e-05 0.000122443)
(0.564045 0.000121541 0.000200611)
(0.566003 -0.000316401 -0.000132932)
(0.565947 -8.73006e-05 -0.000526932)
(0.199564 -0.199512 0.000482833)
(0.562028 -0.000615692 -0.000191874)
(0.567496 0.000316177 -0.00199485)
(0.56735 0.00035475 0.000574765)
(0.567178 -0.00018136 -0.00107786)
(0.201403 -0.200546 -1.26284e-05)
(0.579316 0.00689042 0.000457822)
(0.572767 -0.00012658 0.000179043)
(0.568494 -0.000185861 -0.000185029)
(0.56976 0.00383224 -0.00109073)
(0.201037 -0.200689 0.00030198)
(0.567419 -0.000347552 -0.000271664)
(0.568542 -1.05561e-05 -0.000361315)
(0.565301 -0.000268075 0.000875248)
(0.562618 0.00317393 -0.00101854)
(0.566082 -0.000849355 -0.000464947)
(0.567401 -0.000333757 -0.000309453)
(0.565989 0.00220394 -0.000454588)
(0.567423 -0.000272131 2.12225e-05)
(0.563612 -0.00396017 0.000305124)
(0.566464 -0.00372983 -0.000529787)
(0.562371 0.000377359 0.000906685)
(0.552191 -0.000248391 -2.42531e-05)
(0.408596 0.14421 0.073131)
(0.2002 -0.199654 0.000118226)
(0.562143 -0.000106042 7.21485e-05)
(0.556659 -0.0021756 -0.00379621)
(0.56311 -0.00026042 -0.000205442)
(0.560673 0.000198193 -0.000462406)
(0.566484 -0.00104851 -0.000264234)
(0.558857 -0.000965097 0.00305634)
(0.563545 -0.00029719 -0.000352657)
(0.199698 0.199541 -0.000115456)
(0.564893 9.76343e-05 0.000168551)
(0.562812 -0.000381084 0.0002503)
(0.567891 -0.000613144 -0.000240011)
(0.554715 0.0018629 -0.00113448)
(0.56283 -0.000537783 -0.000192784)
(0.566804 -5.71827e-05 -0.000227342)
(0.567032 -0.000201006 -0.000682482)
(0.412188 0.0869419 0.006183)
(0.554764 -0.000548751 -0.000383803)
(0.567031 -0.000130901 -0.000503076)
(0.559246 0.0017544 -0.00251126)
(0.211139 0.173752 0.000845948)
(0.553066 0.00138 -0.00214652)
(0.552589 0.00128095 -0.00205632)
(0.578308 0.00139215 -0.00547566)
(0.562488 0.000269762 0.000354175)
(0.199574 -0.198905 0.000796927)
(0.538416 0.00502204 0.00296725)
(0.198957 -0.197825 -0.00579169)
(0.561964 0.00056765 -0.000481723)
(0.510534 -0.00190904 0.00530913)
(0.548369 -0.000544582 -0.00051414)
(0.562663 0.000389007 -0.000995054)
(0.565429 8.97034e-06 -0.000262382)
(0.564621 0.000601086 -0.000831252)
(0.543608 -0.000312073 -0.00035054)
(0.543524 5.51331e-05 -0.000910694)
(0.559567 0.00374313 0.00124133)
(0.566619 -5.15296e-05 0.000160095)
(0.56392 0.00150707 0.000717094)
(0.561578 0.00022659 0.000718584)
(0.562577 -0.000323381 0.00062377)
(0.562841 0.000554737 0.00049565)
(0.561868 -0.00038333 -0.000505093)
(0.554574 0.000268639 -0.000442398)
(0.557251 0.00327522 0.000799219)
(0.57649 0.00611851 -0.0139183)
(0.57579 0.00375575 -0.00219722)
(0.152185 -0.143909 -0.0196372)
(0.554198 -0.000545132 0.000109324)
(0.203036 0.205888 0.00271469)
(0.54591 0.00059552 0.000949439)
(0.573209 0.000362976 0.00027892)
(0.566599 -0.000375426 -0.000487919)
(0.552863 0.000955678 0.00112774)
(0.566785 0.000156828 0.000158511)
(0.563906 0.000375035 -0.000751355)
(0.55713 -0.00209207 0.00125989)
(0.554553 0.0115075 0.000472209)
(0.562327 0.000295241 -0.000198183)
(0.56601 0.000186775 0.00020948)
(0.564895 0.000214293 0.000469933)
(0.554744 0.000442317 0.0022201)
(0.199003 -0.197044 -0.00110214)
(0.565289 -0.000280946 -0.000191552)
(0.560106 0.00061117 -0.00013709)
(0.566184 -0.000771167 5.38918e-05)
(0.560993 -0.000618501 -0.00185878)
(0.56152 -0.000686531 -0.000162096)
(0.564914 0.000500584 -0.000591483)
(0.582067 0.0242651 0.0227042)
(0.563813 -0.000270584 0.000352106)
(0.565023 4.05926e-05 0.000115382)
(0.556959 0.000933165 0.00286814)
(0.565099 -0.00039223 -0.000239385)
(0.553639 0.00260176 0.0029335)
(0.564363 5.71625e-05 -7.85606e-05)
(0.566047 0.000582704 -0.000489472)
(0.577985 0.00279074 -0.000869742)
(0.59335 0.0122533 0.009691)
(0.199023 0.198601 -0.000391833)
(0.563335 1.38445e-05 0.000451678)
(0.565715 0.000398105 9.14596e-05)
(0.564466 0.000122528 -0.000360074)
(0.563561 -0.000547366 0.000486237)
(0.567914 -0.000486268 -2.38518e-05)
(0.564995 0.00160185 0.00152672)
(0.564064 0.000334225 0.0001824)
(0.558582 0.00136598 0.00348581)
(0.562146 -0.000907929 0.000487377)
(0.564806 -0.000218191 -8.04914e-05)
(0.563776 -0.00121308 -0.000494066)
(0.570491 4.38356e-05 -7.2073e-05)
(0.197427 -0.19788 0.00334431)
(0.566672 -0.000286471 -5.5477e-05)
(0.564145 0.000288528 0.00389005)
(0.582367 0.00504978 0.0161351)
(0.591413 -0.00728963 0.0129479)
(0.566259 3.05953e-05 0.000156207)
(0.567023 -0.000813328 0.000423161)
(0.561347 0.00107007 0.00400447)
(0.56257 -0.000455573 0.000402454)
(0.563385 0.000995535 0.000878481)
(0.198217 -0.193517 0.00312077)
(0.566492 -0.00138155 -0.000103121)
(0.563346 0.000346942 0.000427122)
(0.560514 0.00210691 0.000592919)
(0.561256 -0.000672767 0.0005873)
(0.566144 -0.000464356 -0.000121987)
(0.564984 -0.000164493 -3.47745e-05)
(0.201045 -0.108486 -0.000872716)
(0.200409 0.200052 0.000139655)
(0.563528 -0.000937558 0.000581228)
(0.559877 0.000589382 -0.00115947)
(0.558087 -0.00147626 0.00231239)
(0.586948 0.00743207 0.00245425)
(0.565413 3.90548e-05 -3.89485e-05)
(0.196925 -0.198439 -0.00164587)
(0.565468 -0.00117312 0.000408301)
(0.564896 -0.000179895 -0.000149965)
(0.566652 -0.000977304 -0.000101404)
(0.563158 -0.00124452 -0.000752835)
(0.545864 -0.118255 0.0772494)
(0.564763 -0.000121904 -0.000242217)
(0.56504 -0.000265525 5.74123e-05)
(0.557599 0.000378858 0.00141047)
(0.564884 -0.00164598 -0.00374004)
(0.564271 -0.000617474 0.00149905)
(0.570065 0.000268165 0.000194297)
(0.200808 -0.200142 0.000133367)
(0.19599 -0.195354 0.00168557)
(0.56752 6.51032e-06 -2.91564e-05)
(0.567044 -0.000887177 0.000488305)
(0.581556 0.00211694 0.00129104)
(0.587046 0.00638786 0.000895899)
(0.577905 -0.00115397 0.00145758)
(0.56605 -0.000287612 -0.000689176)
(0.299331 -0.213285 -0.018774)
(0.574317 0.00138594 0.000522116)
(0.563434 0.00229187 0.00300145)
(0.585853 0.0175383 0.000885928)
(0.567499 0.000352406 0.000315796)
(0.565288 -0.000870223 0.000546463)
(0.567013 -0.00099596 0.000156267)
(0.569827 -0.00107519 0.000815768)
(0.560545 -0.00148422 0.000692608)
(0.568317 -0.000259439 -0.000623473)
(0.568041 0.0015646 -0.00058917)
(0.565018 -1.56527e-05 -0.000147753)
(0.562982 0.00118313 0.00368045)
(0.566214 0.00163525 -6.13966e-05)
(0.198726 0.198924 -9.26633e-05)
(0.195968 0.197806 0.00149935)
(0.567158 -0.000167336 -0.000402792)
(0.567247 -0.000471099 -0.000163168)
(0.567052 -0.000201057 -0.000280106)
(0.569043 0.000311117 -0.00147445)
(0.560493 -0.00111962 -0.000320807)
(0.562302 -0.000377163 0.000261501)
(0.567295 -0.000127982 -0.000242331)
(0.56522 7.13426e-05 0.000151525)
(0.563365 -0.00203271 0.000539133)
(0.566014 0.000333228 0.00020333)
(0.200736 0.200934 0.00131596)
(0.561462 -0.00328271 0.00169458)
(0.566945 0.000691855 -0.000105205)
(0.202035 0.202597 -0.000457789)
(0.566738 -0.000206469 0.000183174)
(0.195215 0.197029 -0.00207464)
(0.565274 0.00249442 -0.00204096)
(0.562545 0.0030382 -0.00304985)
(0.594119 -0.00995532 0.0188088)
(0.564564 -0.000553786 8.32077e-05)
(0.199743 -0.1994 0.000618285)
(0.600822 -0.012696 0.0178315)
(0.555719 -0.000162963 0.00069158)
(0.564251 -5.79377e-06 -0.000331796)
(0.56669 -0.000326446 0.000454756)
(0.567172 0.00054534 -0.000198254)
(0.199172 0.199228 -0.000186409)
(0.548296 -0.000132053 -0.00206088)
(0.564064 -0.000933635 0.000316929)
(0.5589 0.000225805 -0.000664283)
(0.582553 -0.010908 0.0166736)
(0.199614 -0.199995 -0.000180984)
(0.567466 0.000540419 0.00061866)
(0.562772 -0.000629839 0.000173333)
(0.566407 -6.28956e-05 0.000228109)
(0.557065 -0.00122868 -0.000416352)
(0.567952 0.000251413 -0.000131413)
(0.563853 0.00125429 0.000963304)
(0.566785 0.00258814 -0.00169336)
(0.564933 -0.000402699 0.000216487)
(0.565444 7.14615e-05 2.89336e-05)
(0.557777 0.000820719 -0.00116443)
(0.564914 -0.000177126 -0.000132732)
(0.564369 0.000211742 -7.26682e-05)
(0.54094 0.00126252 -0.00104177)
(0.562785 4.98079e-05 -0.000217781)
(0.562775 0.000132342 0.000268708)
(0.567646 0.000161167 0.000118596)
(0.561908 -0.00100874 0.000704466)
(0.569804 -0.00319062 -0.000892999)
(0.199482 -0.199204 -0.000146073)
(0.589998 0.00258426 0.0061036)
(0.546957 0.000643991 -0.000865948)
(0.554165 0.00306194 -0.0072737)
(0.564785 -0.000158303 0.000125988)
(0.562258 0.000390355 0.000732323)
(0.199411 -0.199035 2.98994e-05)
(0.566513 0.00109249 -0.000561607)
(0.559164 -0.000276721 0.000667496)
(0.203242 -0.194652 0.000346389)
(0.565669 -5.54973e-05 0.000272949)
(0.199992 0.20004 -5.42969e-05)
(0.196477 0.201287 0.000519381)
(0.563252 -4.52902e-05 8.62449e-05)
(0.564631 -0.00068233 0.00118535)
(0.564557 -0.000397649 0.000178189)
(0.490895 -0.00581484 0.00266316)
(0.567828 0.000228905 0.00029287)
(0.19799 0.198557 0.000297364)
(0.566028 0.000187186 -0.0003244)
(0.197308 0.199023 0.00129851)
(0.562925 7.96344e-05 -0.000551809)
(0.200086 -0.200255 -1.26185e-05)
(0.564383 -0.000386049 0.000380763)
(0.565284 0.000223565 5.56063e-06)
(0.198895 0.198357 -1.18238e-05)
(0.19902 -0.199214 0.000130247)
(0.201362 0.198084 -0.00338405)
(0.563049 -8.47494e-05 -0.000260772)
(0.5659 0.00135532 0.00039826)
(0.560206 0.000765573 -0.000374847)
(0.566716 -0.000255884 -7.06725e-07)
(0.277636 0.142058 -0.0051503)
(0.563269 -0.00040384 0.000954164)
(0.199301 0.199501 2.9826e-05)
(0.199579 0.200003 -4.76496e-05)
(0.564991 0.00259814 0.000933746)
(0.560065 -0.000457427 5.62112e-05)
(0.199361 -0.196652 0.000736216)
(0.563758 0.00031063 0.00116979)
(0.574334 0.00026732 -2.40132e-06)
(0.379764 -0.14732 0.0155563)
(0.52684 -0.00159317 -0.000380184)
(0.551451 0.0164504 -0.0118957)
(0.562496 0.00264762 0.00162466)
(0.561079 -0.000270183 -0.00248379)
(0.563475 -0.00169333 0.0013097)
(0.56249 0.000476852 -0.000496006)
(0.56375 0.000125728 -0.000178702)
(0.564994 -2.78075e-05 -0.000422138)
(0.564696 -0.000536772 -0.000537133)
(0.553166 -0.0028976 -0.000625559)
(0.560782 0.00448888 0.000711514)
(0.575957 0.00420196 -0.00284524)
(0.581606 0.00297412 -0.000766369)
(0.564368 0.000353572 -0.00135848)
(0.53076 0.000409872 -0.00301004)
(0.571625 0.00238494 -0.00164043)
(0.19892 -0.199131 1.26221e-06)
(0.560191 0.000616916 -0.00129436)
(0.199603 -0.199555 0.000196398)
(0.561431 -4.92686e-05 0.000222461)
(0.584052 0.00151073 0.00226747)
(0.567123 1.5857e-05 -0.000124376)
(0.567391 -0.0275282 0.012669)
(0.532897 -0.00246862 0.000888675)
(0.535162 8.7082e-05 -0.00639877)
(0.561606 -0.000531975 0.000234016)
(0.563021 -0.000253697 0.0007055)
(0.56395 0.00123932 0.00236738)
(0.588057 0.012698 0.0121344)
(0.563709 -3.41889e-05 8.15234e-05)
(0.563997 -0.000243341 0.000174163)
(0.2 -0.199859 0.000343183)
(0.561624 -6.37504e-05 -0.000228722)
(0.558099 -0.00162358 1.42423e-05)
(0.199437 0.199207 -3.89354e-05)
(0.564307 -0.00147129 0.000762009)
(0.575394 0.0178727 0.00847812)
(0.572337 -0.00456473 0.0067239)
(0.565 7.65991e-05 -0.00135373)
(0.561265 -0.000251698 0.00149894)
(0.200482 -0.200416 -0.00090999)
(0.205315 -0.202251 0.000306869)
(0.574086 0.0056753 -0.0013893)
(0.565889 -0.000370737 -0.000497592)
(0.563241 -0.0010302 -0.00402455)
(0.202961 0.200382 -0.00178362)
(0.565218 -0.000610641 -0.000410038)
(0.200612 -0.199902 0.000299834)
(0.562058 -0.000427003 -0.000196955)
(0.563691 -0.000806797 -0.00100917)
(0.516629 -0.00740107 -0.00335202)
(0.580704 -0.00163387 0.00291479)
(0.200022 0.19974 -4.23664e-05)
(0.565389 -0.00104618 0.000614689)
(0.554043 -0.000114744 0.00033691)
(0.5624 -0.000103366 -0.00190009)
(0.566127 -0.00069579 -0.000188938)
(0.563965 0.00100158 -0.000930154)
(0.565207 -0.00127135 -0.000185518)
(0.562711 0.00162896 0.000109095)
(0.56227 0.000229569 -7.73711e-06)
(0.580683 0.00140933 0.00230528)
(0.199645 -0.199554 0.000250815)
(0.546938 0.000438308 -0.00026231)
(0.561608 -0.00021738 0.00109409)
(0.577624 -0.00114349 0.00147071)
(0.564677 -0.000137013 -7.6846e-05)
(0.555122 -0.00149236 0.00160224)
(0.576992 5.62475e-05 0.000600689)
(0.2005 -0.199438 -0.000190595)
(0.560195 0.00512438 0.00196878)
(0.559701 0.00733059 0.00687637)
(0.567508 -0.000222204 -0.000148488)
(0.563822 0.000639145 -0.000604236)
(0.565747 0.000162274 3.39995e-06)
(0.560566 -0.00508335 -5.28726e-05)
(0.198388 0.198594 -0.000303334)
(0.199875 0.1998 1.76304e-06)
(0.19896 0.199803 2.52813e-05)
(0.563825 0.00213323 0.0028931)
(0.554092 -0.00311866 -0.00800594)
(0.504368 -0.0017912 0.000876651)
(0.577111 0.00104003 0.000576535)
(0.566688 -0.00296133 0.000958921)
(0.562936 -0.00051014 0.000677651)
(0.563174 0.000700706 -5.25405e-05)
(0.560057 0.000122782 0.000589836)
(0.563477 -0.000146061 0.000179923)
(0.202953 0.198902 -0.00035105)
(0.555927 -0.00676311 3.95175e-05)
(0.562457 -0.000568144 -0.000103417)
(0.560011 0.000886736 0.00130137)
(0.562518 -0.000572256 0.000594459)
(0.571966 0.00049876 0.000493596)
(0.567417 0.000779565 0.00010092)
(0.560693 0.000754908 -0.000885862)
(0.590322 -0.00134489 0.0068367)
(0.574135 0.000939164 0.000254891)
(0.559868 -0.000551316 -0.00130272)
(0.571364 0.000337586 -0.000109904)
(0.55965 0.000803736 0.0014637)
(0.562106 -2.26262e-05 -0.000160068)
(0.556091 0.00348976 0.00266874)
(0.566563 -0.000220483 -0.000467653)
(0.197298 0.196543 0.000418444)
(0.198805 0.198752 -9.40848e-05)
(0.573655 -0.00183095 0.000797283)
(0.557041 0.000338104 0.000331556)
(0.566082 7.40281e-05 0.000488725)
(0.199187 0.200506 0.000238232)
(0.20001 -0.199958 -0.000255143)
(0.562825 -0.000760929 -0.000134957)
(0.200481 -0.200705 -1.17527e-05)
(0.564094 0.000284923 -7.23136e-06)
(0.567284 -2.45362e-05 -2.65757e-05)
(0.565726 -0.000247837 0.000112907)
(0.570637 0.000210883 0.000274096)
(0.560956 -0.00416837 -0.0012179)
(0.197936 0.200093 0.00148549)
(0.568064 -0.000722624 4.97211e-05)
(0.564765 -0.000195239 -1.46294e-05)
(0.198153 0.19836 0.000186726)
(0.563517 0.000321138 0.000479655)
(0.198283 0.200199 0.000328302)
(0.197313 0.196193 9.54152e-05)
(0.566822 0.000223446 -0.000504586)
(0.567466 0.000659236 -0.000130278)
(0.564256 -5.81135e-05 4.17832e-05)
(0.19917 0.198911 -0.000637046)
(0.199053 0.199096 0.000121102)
(0.486572 -0.000431005 -0.000933076)
(0.565734 -0.000505384 0.000993067)
(0.566209 0.000115281 -0.000232835)
(0.567069 -0.000401333 -0.000362633)
(0.564096 0.000505754 -0.000725876)
(0.565918 0.000238962 -0.000458643)
(0.563732 0.0208366 -0.0144589)
(0.199761 -0.200313 -0.000235383)
(0.564139 -0.000503273 2.22065e-05)
(0.560851 1.83756e-05 0.000171364)
(0.19943 0.199453 -4.00024e-05)
(0.200328 0.19868 -0.000271659)
(0.557 -0.000210816 0.000191089)
(0.563706 -0.000378455 5.41641e-05)
(0.198434 -0.198835 0.000602095)
(0.566662 -0.000298115 -8.53523e-05)
(0.564921 0.000184626 -0.000175722)
(0.564932 -2.70775e-05 -0.00107458)
(0.590601 0.042915 -0.0160749)
(0.56317 0.000477826 8.80863e-05)
(0.568912 -0.000433379 -2.8699e-05)
(0.559087 0.0240063 -0.0030836)
(0.637523 0.129677 -0.0577962)
(0.56648 1.53377e-05 0.000118398)
(0.255751 0.159962 -0.00753481)
(0.561734 0.000569475 -0.000144711)
(0.200367 -0.199997 -6.43354e-06)
(0.558177 9.00332e-05 0.0009707)
(0.199713 -0.19953 0.000630098)
(0.565548 0.000155963 -0.000476296)
(0.563703 0.000436066 -0.000427946)
(0.199498 0.200296 -0.000231195)
(0.560798 0.000596979 0.000713408)
(0.565817 -0.000614015 -0.000277159)
(0.568218 -0.000304088 -0.000269533)
(0.199419 0.199112 4.85146e-05)
(0.198756 -0.199013 -0.000229266)
(0.561752 -0.000553591 0.000776138)
(0.163106 0.116482 0.0436764)
(0.567019 -0.00121309 -0.000654429)
(0.20042 -0.199736 0.000193575)
(0.58235 -0.000982795 0.00739694)
(0.561777 0.000463541 -0.000119701)
(0.567173 8.91591e-05 -0.00029392)
(0.200404 -0.198004 -0.00141026)
(0.568144 -0.0003025 -0.000174024)
(0.565514 -0.000985906 0.0005897)
(0.207073 0.195991 -0.00113024)
(0.568369 0.000178672 -0.00072307)
(0.56634 0.000276501 -0.00123016)
(0.567655 0.000312179 7.07606e-05)
(0.566526 -0.000305742 -0.000100483)
(0.568045 -5.96981e-05 -0.00019607)
(0.566128 -0.000431959 -0.000478489)
(0.200167 -0.200661 -0.000272992)
(0.192469 0.193548 0.000609766)
(0.560498 0.00041896 0.000971571)
(0.565478 0.000894222 0.00226575)
(0.564707 -7.27112e-05 -0.000357441)
(0.568097 9.85162e-05 -0.000357571)
(0.199522 0.199446 2.32193e-05)
(0.566064 -0.000202691 -3.84999e-05)
(0.565346 0.000111504 -0.00100812)
(0.57099 -0.000283193 0.000407106)
(0.566701 0.000208151 -0.000270855)
(0.568435 -4.76267e-05 -0.000363279)
(0.560428 0.000812798 0.000748055)
(0.565336 0.000512587 -0.00111259)
(0.565006 0.000499993 -0.000810102)
(0.198826 0.198663 -0.000341963)
(0.558701 0.000458086 -0.000137025)
(0.227815 -0.191972 -0.00760134)
(0.55394 -0.0034964 0.000524925)
(0.196659 0.191303 -0.00190577)
(0.1983 0.198716 -5.05056e-05)
(0.565709 -3.02639e-05 0.000145007)
(0.564831 1.26816e-05 0.000233702)
(0.19925 0.198909 -6.02897e-05)
(0.555938 -0.000495618 0.000454697)
(0.565506 -0.000625552 4.68818e-05)
(0.566354 -0.000482692 -0.000124555)
(0.566298 8.45217e-06 -0.000526952)
(0.199198 0.19841 0.000746769)
(0.564955 0.000279471 7.13288e-05)
(0.560017 -4.18559e-05 0.000672013)
(0.560624 5.15898e-05 0.000583546)
(0.567148 0.000215866 -0.000308543)
(0.562486 3.64281e-05 0.000399706)
(0.567028 -0.000101064 -0.000375647)
(0.565628 6.4367e-06 -0.000122735)
(0.565849 0.000168229 -0.000117379)
(0.562432 -7.7426e-05 0.000279767)
(0.573738 -0.000853676 0.00049999)
(0.157299 0.0629895 -0.0719268)
(0.562878 -2.54295e-05 0.000368837)
(0.198256 0.198721 0.00026857)
(0.565514 0.000174972 0.000905186)
(0.566685 -0.000175097 -0.000688574)
(0.562925 0.00224484 -0.00040569)
(0.558048 -0.00216407 0.00389304)
(0.564443 -0.00101669 0.00209921)
(0.568219 0.000372762 5.96382e-05)
(0.567414 -9.64508e-05 -0.000808847)
(0.5669 -0.000262295 -0.000270065)
(0.567042 -0.000809808 -0.000894562)
(0.561141 -0.0011049 0.000854826)
(0.198011 0.199521 -0.00287922)
(0.566708 -0.000228969 0.00023447)
(0.565991 0.000338942 0.000332747)
(0.567888 -0.000300175 9.66502e-05)
(0.56602 -0.000101013 -0.000395489)
(0.566384 -0.000737703 -0.000628068)
(0.562715 -7.27633e-05 0.000384909)
(0.556505 0.00648581 -0.00108391)
(0.572323 0.000727394 0.000621307)
(0.55823 0.00181857 -0.000923079)
(0.56251 0.0003204 -0.000889763)
(0.199326 0.199332 8.60659e-05)
(0.200511 -0.199734 -2.83576e-06)
(0.566786 0.000167929 0.000197254)
(0.567756 0.000425247 0.0003226)
(0.562591 -0.000536061 0.000436651)
(0.558781 0.000721865 -0.00209821)
(0.561475 -0.000866544 5.22902e-05)
(0.19884 0.199071 -0.00032647)
(0.199095 0.199301 -0.000156971)
(0.56692 -0.000817152 -0.00087834)
(0.564106 -0.000433082 0.000161277)
(0.565599 -0.000279736 -0.000326468)
(0.565714 -1.66483e-05 -0.000194893)
(0.565003 -0.000123141 -0.000743348)
(0.566388 -0.000368728 -0.000195251)
(0.220741 -0.153283 -0.0146351)
(0.568006 0.000170278 -2.58964e-05)
(0.561831 -0.00114675 0.000862308)
(0.559909 0.000526901 -0.000837318)
(0.556673 3.37836e-05 -0.00177803)
(0.568195 -0.000134127 -9.94052e-05)
(0.541764 0.00356695 -0.0127979)
(0.557371 0.0161141 -0.0108121)
(0.568003 0.000106238 3.37015e-05)
(0.562173 -0.000833842 0.000830742)
(0.560595 -0.000280319 0.000386698)
(0.563113 -0.00062459 0.000637435)
(0.57325 0.000276675 -0.00101378)
(0.19932 0.199351 3.65307e-06)
(0.556506 0.00231654 -0.00216292)
(0.567247 -5.3306e-05 6.32432e-06)
(0.550594 -0.0021163 -0.00584961)
(0.566144 0.000109249 -0.000574976)
(0.566916 8.02137e-05 -0.000594206)
(0.19973 0.197602 -0.00081228)
(0.563204 -0.000962811 0.00411384)
(0.573327 -0.000448474 0.000106848)
(0.567119 -1.08483e-05 -0.000591476)
(0.56114 0.000313512 0.000993963)
(0.553636 -0.000171935 -0.00167294)
(0.199309 0.20511 -0.00187079)
(0.19782 0.195524 -0.00103398)
(0.566086 0.000348089 0.000184796)
(0.566523 -0.000221591 -0.000168387)
(0.566538 -0.000107436 4.32781e-05)
(0.567783 -4.99239e-05 4.29514e-05)
(0.566359 0.000151444 3.5002e-06)
(0.565509 0.000591626 0.000459613)
(0.562493 -0.000645403 0.000813243)
(0.566543 0.00161592 -0.00274904)
(0.565627 -0.000224272 -0.000846554)
(0.566167 0.000865744 -0.000281089)
(0.564126 -0.00127546 0.00227252)
(0.561227 0.00117419 -0.00071272)
(0.562842 -0.000652342 0.000144496)
(0.566444 0.000199148 -0.000405943)
(0.198625 0.198603 9.69761e-05)
(0.566931 4.35325e-05 -0.000289561)
(0.200422 0.200585 -0.000123727)
(0.199606 0.199147 2.47172e-05)
(0.565826 0.000949803 -0.000462068)
(0.562748 8.5832e-05 0.000180589)
(0.566953 -0.00082626 0.000527476)
(0.200415 -0.200246 -3.57877e-05)
(0.56453 -5.22467e-06 0.000432271)
(0.56081 0.0010747 -0.00172001)
(0.567606 0.000528493 -0.00109116)
(0.199547 0.199645 9.23625e-05)
(0.565108 -0.000305828 -0.000203167)
(0.197084 0.198847 -0.000605955)
(0.563425 -0.00027882 0.00336925)
(0.19808 0.196994 -0.000113851)
(0.561762 -0.00027925 0.00104757)
(0.558429 -0.000237114 0.00107601)
(0.563707 -0.000150358 1.53766e-05)
(0.565595 0.000786266 -3.09292e-05)
(0.200337 -0.200253 0.000101663)
(0.198374 0.198349 -0.000171029)
(0.56679 0.00262585 -0.00298942)
(0.555291 -0.000242301 0.00187935)
(0.56747 9.16336e-05 -0.000855623)
(0.566215 7.42119e-05 -0.000353126)
(0.565197 4.32174e-05 -0.000755701)
(0.563947 0.00115992 -0.000328924)
(0.574558 0.00316029 -0.00125604)
(0.199737 0.199932 -0.000268331)
(0.581961 0.00702703 -0.000880664)
(0.565152 -0.0005212 -0.000747747)
(0.541712 0.0633332 -0.0394406)
(0.198088 0.196662 0.00052966)
(0.567618 0.00129495 -0.00162082)
(0.546537 0.000443677 0.0014966)
(0.19941 0.197821 0.00170504)
(0.581619 0.00224516 0.00102738)
(0.567743 -0.000240148 -0.000526514)
(0.199674 -0.199563 -7.14656e-05)
(0.558476 5.08781e-06 0.00129555)
(0.596207 0.00829069 0.00144842)
(0.566733 -0.00048225 -0.000170287)
(0.561978 -0.00146271 0.00245501)
(0.576379 0.00484091 0.0273355)
(0.560379 0.000830278 -0.000433841)
(0.563964 -0.00014159 -0.000401564)
(0.560373 0.000105332 -0.00196512)
(0.539789 -0.000124078 -2.79169e-05)
(0.566967 -0.023136 0.0258248)
(0.56422 0.000326312 0.000788553)
(0.555452 -0.00109467 -0.00015908)
(0.566411 9.03148e-06 -0.000173462)
(0.57544 -0.00143549 0.000964713)
(0.567316 -3.81474e-05 7.76549e-05)
(0.567711 0.00227074 -0.00161822)
(0.199412 0.199488 2.36865e-05)
(0.566555 0.00072274 -0.000281811)
(0.580708 0.000403993 0.00146788)
(0.590972 0.00559543 0.00835805)
(0.199738 -0.19976 -7.47954e-05)
(0.562212 -0.00107248 0.00109393)
(0.569016 0.000420422 -0.000190457)
(0.197201 0.195144 0.000400585)
(0.557968 0.00040097 -6.00091e-05)
(0.56228 0.000167094 -0.000473145)
(0.566147 0.000406035 -0.000615144)
(0.568922 0.000356969 9.40161e-05)
(0.562035 -0.000548913 -0.000343792)
(0.565399 -0.000240099 0.000194665)
(0.198911 0.199225 -0.000233075)
(0.562279 -0.000283763 -0.00176368)
(0.570677 5.74238e-05 -0.000293559)
(0.198981 0.198968 0.000237142)
(0.200023 0.199453 -0.00010577)
(0.565789 0.000423265 0.00031643)
(0.199435 0.199777 -0.000109753)
(0.564469 -0.000191828 0.000383959)
(0.560234 -0.00405428 -0.000317983)
(0.566241 0.000268465 -0.000309559)
(0.562371 -0.000613561 -0.00229393)
(0.562329 -1.01424e-05 -0.00184121)
(0.284067 -0.0199692 0.0422527)
(0.199424 0.19967 0.000192997)
(0.571487 0.000313251 -1.23169e-05)
(0.566138 5.32682e-05 0.000155228)
(0.562951 0.000570531 -0.000473228)
(0.560647 0.00272792 -0.00192706)
(0.563172 -0.000151397 -0.000794295)
(0.19914 0.199302 -0.000233963)
(0.54445 -3.07405e-05 -0.000681527)
(0.560728 -0.000184266 -0.000910335)
(0.556062 0.00164549 0.00419649)
(0.567059 -0.000220389 0.00109778)
(0.563753 -0.00106154 -0.000304354)
(0.554267 0.0172931 -0.0202976)
(0.566523 -0.0016719 6.43977e-05)
(0.551303 0.00595932 -0.0111499)
(0.198588 0.195273 -0.00120941)
(0.199657 0.19959 0.00017546)
(0.199126 0.199173 1.47498e-05)
(0.566945 0.000300466 -0.000109393)
(0.565945 -0.000498639 -0.000507942)
(0.199123 0.198569 -0.000104614)
(0.564223 -0.000117942 0.000824753)
(0.557647 0.00381268 0.00294945)
(0.557152 -0.000745894 -0.000589145)
(0.501321 0.0706646 -0.0405652)
(0.559341 -0.000793932 -0.000489501)
(0.56578 0.000201969 0.000124802)
(0.1999 0.204318 0.000280001)
(0.557026 0.0129935 -0.0208526)
(0.199874 0.199842 0.000154933)
(0.198918 0.198379 0.00035245)
(0.566177 -0.000227286 -1.99904e-05)
(0.317921 0.243261 0.0366838)
(0.29008 -0.117949 -0.00399763)
(0.562628 -0.00132491 -0.000113305)
(0.194327 -0.197746 0.000259848)
(0.566254 0.000128185 -6.03117e-05)
(0.560774 -0.00255171 -0.00516956)
(0.570146 0.019451 -0.0138926)
(0.565769 -0.000189469 0.000372599)
(0.575728 0.010993 -0.00372876)
(0.56386 0.000404144 0.000189491)
(0.57057 -0.0365804 -0.0106044)
(0.199029 0.198995 4.71856e-05)
(0.198896 0.198027 0.000205317)
(0.564643 -0.00098706 -5.16096e-05)
(0.563573 -0.000709103 0.00107736)
(0.566977 -0.000414835 0.000204194)
(0.195871 0.198987 -0.00154601)
(0.560185 0.00115715 1.40057e-05)
(0.565583 -0.000415676 0.000111427)
(0.565886 -6.68063e-05 -0.000257633)
(0.199253 0.19948 0.000836141)
(0.565649 0.000224729 -0.000584328)
(0.565819 -0.000243064 -0.000254705)
(0.510997 0.0571482 0.0378183)
(0.199118 0.19915 -0.000144827)
(0.645213 0.172741 -0.00641025)
(0.522301 0.0735008 -0.0535344)
(0.2002 -0.199484 4.36838e-05)
(0.19981 0.199089 0.000341644)
(0.198919 0.198529 5.22582e-05)
(0.200487 0.199832 0.000426916)
(0.200031 0.199726 -0.000777312)
(0.565856 0.000579421 -0.000111844)
(0.566337 -0.000138362 0.00021445)
(0.564948 0.000509845 0.000162867)
(0.199457 0.198448 0.000166066)
(0.565026 -0.000326442 -0.000139773)
(0.567502 3.04691e-05 0.000428478)
(0.199652 0.198945 0.000264151)