/*--------------------------------*- C++ -*----------------------------------*\
  =========                 |
  \\      /  F ield         | OpenFOAM: The Open Source CFD Toolbox
   \\    /   O peration     | Website:  https://openfoam.org
    \\  /    A nd           | Version:  10
     \\/     M anipulation  |
\*---------------------------------------------------------------------------*/
FoamFile
{
    format      ascii;
    class       volScalarField;
    location    "28.5";
    object      p;
}
// * * * * * * * * * * * * * * * * * * * * * * * * * * * * * * * * * * * * * //

dimensions      [0 2 -2 0 0 0 0];

internalField   nonuniform List<scalar> 
111485
(
7.8715
0.0254726
0.0160375
7.8724
0.00903157
7.60793
0.00939449
0.0180883
0.00977265
-0.00308911
0.00893086
0.00622863
0.0131479
-0.00224716
0.0112367
0.036687
0.0256935
8.79319
0.0142987
7.873
7.87315
7.61056
0.00729152
0.0257491
0.00304783
7.84645
0.0122515
0.0449105
0.0144962
7.87261
-0.0846664
0.0157404
7.875
7.60537
8.57344
7.56515
-0.0610777
0.0518388
-0.12188
0.0201431
7.65226
-0.00322605
0.0208542
-0.0330201
-0.260925
7.88642
-0.0166528
0.0213931
-0.00773164
7.91466
7.91281
7.36009
7.92131
-0.0480548
7.92631
0.0233411
0.0148208
7.61339
-0.0964415
0.0175444
0.0187202
7.87194
0.0180348
-0.0743438
7.65667
0.0233372
5.10048
0.0158272
0.00407118
0.0155954
-0.141663
0.0295769
7.72435
0.00421848
7.87804
0.0297537
7.61011
-0.00627075
7.60904
8.05511
-0.114202
-0.0353313
7.60951
7.87432
0.0224181
0.00786911
1.74074
-0.054469
-0.106146
0.0377824
-0.214728
0.00973609
0.0212214
0.0455947
-0.00217566
7.87401
7.87201
-0.0378781
-0.737163
0.0662641
7.8718
0.00413655
7.59443
-0.0103701
0.00956863
7.91138
7.61237
0.0147818
0.00732682
-0.351108
0.0206392
0.0317712
0.0152769
0.00496882
7.843
0.0309734
7.85955
7.60561
0.00962403
7.87399
7.84542
6.66048
7.61039
7.61357
-0.0047501
8.9539
6.62297
0.0183363
7.87496
0.387296
-0.104903
-0.039276
7.87852
6.50686
6.79614
0.00934644
7.6099
0.0314953
0.00785895
0.026382
-0.0397565
0.00924206
0.0146957
0.0170327
-0.0240841
0.0327574
7.60989
7.87345
7.61858
0.0158573
0.0127536
7.87082
-0.0733221
0.00924821
-0.669017
0.0175137
0.0133542
0.00824051
-0.526522
7.87971
7.87268
0.0146225
0.0062758
-0.486672
-0.606864
0.0246134
-0.0660804
7.64068
-0.449603
-0.414568
7.61327
7.87292
0.00502873
7.6111
0.0288659
0.0171206
7.66617
7.70242
7.86231
7.81022
7.67347
7.87172
0.0226071
0.0178814
0.0248162
0.0700939
2.00498e-05
0.0270166
-0.0509677
7.87246
0.0149979
7.69766
7.86031
0.0349877
-0.0094162
-0.049814
0.0305137
0.015945
7.87888
0.021624
0.0166569
5.29878
-0.0240246
0.0245661
7.86919
0.0308353
-0.0109943
7.69637
-0.0557638
-0.014609
0.011937
0.0135384
7.66618
7.87158
0.027319
4.95371
-0.0388698
7.61089
0.0298695
0.0334626
-0.00515502
7.87146
0.0186725
-0.0649043
5.98629
7.61083
7.61337
-0.11832
-0.595054
7.72424
7.29305
0.0316592
0.0225997
-0.0834321
7.72229
7.80398
-0.0725617
7.8758
0.00627591
0.0289909
0.0292607
0.0167344
0.0281656
7.61454
-0.105336
0.0150361
7.61733
7.60966
-0.0535622
0.0307969
7.78222
0.0294927
0.0292252
7.87361
6.35121
-0.0292029
7.88669
8.0224
7.18427
7.87272
0.0249092
0.0185386
-0.0106386
7.87579
0.0288456
7.87226
7.87065
7.87861
-0.0800511
-0.0127612
0.0245305
0.0153957
-0.000528784
0.0182033
0.0156336
-0.0819691
0.0096891
0.020329
7.5703
7.8733
-0.0861246
0.0188771
-0.0952279
0.025009
7.87355
0.025091
0.0116249
0.0184851
0.0157673
-0.114653
0.013514
0.0169149
-0.0261573
7.60991
-0.0144798
7.61122
8.73755
8.08901
-0.123985
-0.0119827
0.00845782
7.86585
7.67418
0.0260362
0.0256333
7.87051
7.8694
7.92982
0.0173788
0.0293167
0.0190202
0.0156581
0.0112616
7.22411
7.61659
7.87485
0.0296185
3.23467
-0.00679442
-0.114993
-0.089601
7.61042
7.87116
7.87194
6.79033
0.0227732
0.0159845
7.60233
0.0258342
7.77908
7.86243
-0.0358577
0.0233912
0.00149033
0.025943
7.98471
6.75438
7.60563
0.0232647
0.0197151
-0.0857888
7.64896
0.441399
-0.153355
0.0166087
0.0277433
1.26527
0.00981783
7.6084
0.00484091
0.0291
-0.105895
-0.0421442
0.00619348
7.608
7.8763
7.61094
7.87565
0.0246948
0.0232962
-0.0161795
0.0144578
7.62609
0.0103597
7.61342
7.87902
0.0109632
8.13858
6.94899
7.91562
7.56044
0.016436
7.61202
0.0172054
0.0154564
7.60881
0.00469223
0.0249648
7.85243
0.0246226
0.0100404
0.0305544
-0.0510562
0.040661
0.0294551
7.99216
7.87407
-0.0218576
7.63021
0.00345592
-0.048928
7.66499
7.61271
0.0253024
0.00804087
-0.001088
0.0222787
7.60978
-0.0820949
0.00174719
7.60606
-0.0357382
-0.0130243
7.8706
7.87189
0.0246688
0.0041323
7.59048
7.86352
5.8531
7.87114
0.00919457
7.61095
7.87201
-0.00147028
-0.0985936
-0.0104334
0.017191
7.60902
6.80773
-0.00843934
6.90593
-0.0313153
-0.00454089
0.00315137
5.27373
6.98059
-0.49079
-0.314204
7.8701
-0.0526456
0.00892209
7.86956
-0.516125
-0.0038152
6.94485
0.00338846
0.00520904
0.0385374
7.61016
0.268532
0.00230141
0.048908
-0.137741
6.59953
-0.605628
7.87154
-0.0446368
-0.169267
7.61394
-0.00794738
-0.0118554
6.41741
7.87471
7.46813
7.87212
0.0106185
0.078172
0.00948565
0.00862877
-0.0584611
7.61113
-0.0470293
7.8838
0.0219332
7.59722
7.88117
7.88858
-0.000471351
7.87495
7.87153
8.34392
7.87041
7.6218
-0.0209179
7.6114
7.41528
7.60783
7.85913
7.60266
7.88112
7.61086
-0.00268509
7.60632
-0.0240152
0.000219109
-0.0924755
7.61745
-0.0213865
7.61547
7.87121
-0.00643333
-0.00708015
0.0401165
-0.125945
7.32033
-0.013962
-0.0246844
0.0227879
-0.0148773
-0.00410449
7.87399
-0.00454969
6.42868
0.00210683
7.61061
-0.0188884
6.65307
0.021967
0.0136896
8.29081
7.67509
-0.0330505
7.87078
-0.0141312
-0.0186421
7.62052
7.62791
7.92007
7.61275
-0.980605
-0.0138247
7.6067
7.61778
0.00693144
7.61054
-0.0185218
7.60938
-0.0194264
7.87151
0.00601256
0.00531933
0.0502322
0.0211463
7.58963
-0.128483
7.60446
7.61043
0.00180077
7.61171
-0.00350879
7.9263
-0.0405497
7.87319
0.0213065
7.87317
6.95251
-0.106765
-0.0491262
-0.018325
0.00561893
-0.0299239
-0.00688816
7.61763
-0.0256971
-0.0296868
7.61037
-0.0539184
-0.0658591
-0.0102475
7.68015
8.03215
0.029898
-0.0410412
3.67225
7.71771
-0.00165835
0.0183363
0.00260301
-0.000570066
0.15557
2.52049
6.85902
-0.703271
3.13638
7.8726
0.00689996
7.62947
6.98347
0.0295087
2.4643
-0.722662
1.4212
6.85719
-0.0151213
0.0135377
7.62579
7.44281
0.0206531
7.8783
7.61058
7.61124
7.61602
-0.0029713
7.61197
7.82979
0.00355104
0.025091
6.01032
-0.0318038
7.307
0.0260615
7.92016
7.61552
-0.00807439
7.60979
7.61592
6.95026
0.045124
4.63324
-0.0266843
0.0370944
7.88651
-0.228395
-0.0701831
0.00273328
-0.0165903
0.251942
-0.0016216
7.613
-0.00936028
0.00535738
7.87674
0.0192307
-0.0215392
0.0115989
0.0362929
0.0116485
0.0106657
7.88645
-0.00287479
-0.0575292
6.93018
0.012382
0.0121212
4.83295
0.0382051
0.0127945
0.00265674
0.00556437
0.0140345
0.0323111
7.75603
0.00792587
-0.0031516
8.22941
-0.0066816
-0.020915
0.0357233
7.61244
0.0491417
7.89132
7.61024
7.62255
7.6141
0.0150572
7.04341
-1.04655
7.86851
7.55127
0.0027613
-0.00312519
7.86965
-0.0121508
7.86971
7.87371
7.92251
-0.00919565
0.00503681
6.9793
7.8208
7.61202
7.61219
-0.067076
0.0198424
6.79796
0.000380442
-0.417546
7.6161
0.0079657
-0.0184146
0.0825038
7.60989
7.6104
0.0209437
0.030491
6.91392
7.61389
7.60234
0.0148456
7.87637
7.86918
7.61221
0.00439259
0.0185891
7.60989
8.47952
8.21257
0.148708
7.61518
7.60975
-0.0242633
-0.0762078
6.89842
5.94302
1.13058
-0.0143358
0.00193652
7.58956
-0.0221526
-0.00596609
7.60837
7.9199
7.60934
7.61119
7.61442
7.60914
0.0209595
7.87081
7.6101
7.67074
0.0121909
0.0154518
7.87671
7.93325
-0.0254668
0.0247464
0.0345958
7.86853
7.61069
0.0253183
7.87405
-0.0095496
0.0184287
0.0426125
7.84915
7.87187
7.87171
7.61127
0.0338347
7.61055
7.61
-0.0345817
7.87179
0.0331349
0.00466534
7.6349
0.0344307
7.84005
0.0227399
-0.00727606
-0.0256878
-0.0178065
-1.2807
7.22724
0.0208173
-0.0133216
0.000919031
7.78521
-2.11834
7.14509
0.0234383
7.6139
-0.0298648
-0.0147411
-0.0332163
8.07872
7.87195
7.87488
0.028437
7.30402
-0.0270959
7.44102
0.0234933
0.0334117
0.00914273
0.0234333
7.60877
7.63718
7.74609
0.0262862
7.61317
7.225
-0.160607
7.61242
7.61938
7.87332
7.60979
0.00968289
7.60038
7.61143
-1.58399
7.28643
7.63196
7.06232
7.61173
-0.0380182
0.0130509
7.87072
0.0147455
1.00209
-0.0382484
-0.390864
0.0234107
7.61602
-0.00968035
-0.0303099
-0.0373325
7.87373
-2.65894
0.0098212
6.46552
-0.00429952
-0.118368
-0.10469
0.00250601
0.0266454
-0.141111
0.0384717
0.0271795
7.58966
7.62728
0.0108279
-0.000815604
7.61468
0.0133316
0.00494307
0.0215658
7.60899
-0.122452
7.60984
0.0190636
0.0130308
7.61007
-0.0666333
0.0269075
-0.160894
-0.021962
7.56759
0.0142148
-0.155179
-0.0754853
-0.158719
-0.0410668
7.60042
7.62038
-0.0241051
7.60981
0.0272483
-0.0795432
6.71848
-0.472648
-0.826839
-0.303517
7.6097
6.37773
0.0247607
7.87422
9.46277
-0.0488181
7.60577
7.60913
-0.725964
-0.863007
7.6099
-0.123574
7.6112
7.60971
7.87597
7.8705
7.95422
7.87308
-0.0270293
7.61501
7.61366
7.61929
-1.44322
0.012934
-0.00071238
0.0257736
7.62431
7.60929
-0.0507105
7.61086
7.61298
5.80995
-0.0554586
0.023317
7.6096
7.60517
7.62208
7.60946
7.55581
7.60852
-0.0740638
7.61493
-0.203818
0.0113331
7.61183
7.8823
7.92984
-0.125262
7.92203
7.87311
7.62745
-0.212523
7.6085
-0.0669906
-0.0711562
-0.18138
7.60743
5.28789
-0.0423426
0.00655524
7.66058
-0.200085
-0.0155872
7.88078
7.58683
6.8975
7.60593
0.0232293
0.0126505
-0.0660275
-0.349597
7.61092
0.02605
7.56604
6.82436
6.85419
7.61351
0.0190436
7.61086
7.94041
-0.0666352
0.028565
7.93748
-0.00140112
7.31058
-0.0855818
7.9765
7.61039
7.5818
7.87209
0.0247795
0.0209459
0.352562
7.61179
7.66181
0.0145705
7.61006
7.06894
7.87154
-0.00443332
-0.337543
0.0437833
7.86207
-0.0738998
-0.0616563
8.24039
-0.061424
7.61897
-0.0420404
-0.0268307
0.00581679
-0.088802
-0.179908
7.61042
7.61115
7.61083
-0.0735299
7.68101
-0.110409
7.8762
0.733626
7.87123
0.0180703
0.0196318
7.94215
7.60958
7.95944
7.61982
-0.112156
7.9676
6.90552
0.0041457
-0.105309
7.9099
7.03455
7.70311
7.05556
7.61198
7.61011
-0.103865
0.0055828
7.87242
7.86498
-0.628583
7.87799
-0.103532
0.0229433
7.69551
-0.0356439
7.87204
0.0175294
7.62022
0.0144515
7.60993
-0.590384
-0.308953
-0.148319
-0.0411305
-0.0455103
4.68178
7.54101
-0.032491
7.91646
0.0131132
7.87009
7.63981
7.62253
7.62114
7.64512
7.61469
-0.0558519
-0.0672479
7.87232
6.65166
7.87791
-0.0547293
-0.125898
7.86881
0.0247223
-0.151682
7.93031
0.0258882
0.0256113
0.0157952
-0.148062
7.61009
7.60935
7.63898
7.61049
0.0190132
7.53969
-0.0358468
7.61044
-0.0455231
0.0194465
7.61297
-0.0535986
7.601
7.60982
-0.0467099
-0.0843977
2.13224
7.61109
7.9536
7.6033
0.0204579
7.50339
7.92336
7.52075
0.858301
6.72328
-0.533125
7.02576
7.48422
7.76731
0.0190031
0.00719399
0.0111371
0.0186859
7.85847
-0.0308272
7.61258
7.61301
0.0163423
7.58771
-0.650098
-0.0415636
0.0321502
-0.0478227
-0.96342
-0.00342197
7.61222
-1.41956
-2.97965
-0.00932962
-0.0369668
0.0224398
5.539
7.86732
0.000345605
7.87569
7.60898
-0.248338
-0.00292766
-1.12485
7.59445
7.43778
-0.0759695
7.92988
7.61203
-0.0537472
7.94874
7.93773
0.111348
-0.05408
-0.0937277
0.0467964
0.0262926
7.61475
7.60994
-0.276699
0.0250685
7.61119
7.94298
0.0318515
7.62264
6.60873
6.75776
6.7943
4.35656
6.6262
7.61276
0.0197357
7.59806
-0.0795226
7.61139
3.42403
7.6703
7.63555
7.61257
7.61076
0.0280449
7.6105
7.61024
6.91446
7.60685
7.61326
7.60695
0.0236188
7.62786
0.0206944
-0.0837596
7.63796
0.0407731
7.6109
-0.0281951
-0.202405
0.0172896
0.0255894
7.84522
0.0229197
0.0237347
-0.15146
7.87532
-0.108982
0.0241726
0.0261897
7.32642
0.017491
7.68285
7.61094
7.61355
7.60991
0.023183
7.61097
7.60065
0.0198846
-0.136312
0.00837648
7.62194
5.42527
0.0294781
7.61553
-0.374664
7.92706
0.012234
7.60803
7.61035
-0.00594625
7.60739
-0.0212816
7.87516
7.61094
0.0269262
-0.0393795
0.0240723
0.0192007
-0.137154
0.0174567
7.61128
8.01665
0.0129827
0.0284171
0.0294377
-0.0953003
7.61
0.0214032
7.6099
7.79819
0.00352605
-0.069749
7.62333
0.0231332
7.59839
0.0183264
0.0310964
7.71086
7.60971
7.61138
0.0121221
7.61238
7.61092
0.0153907
0.0196851
-0.0435549
0.0224728
7.63234
7.622
0.0105974
0.0278727
7.61604
0.0102566
7.69937
0.00642399
7.61095
7.61076
-0.00822377
7.60948
-0.0241905
0.0301143
7.61718
7.60906
0.00403099
6.47009
0.0307948
7.87156
-0.0613516
7.88205
6.67772
6.45376
0.0270463
6.96141
6.88665
0.0110127
6.84494
4.25798
6.33033
7.67288
7.87662
-0.180433
0.0244567
7.65083
7.60891
0.000903643
0.0123958
7.62162
0.0123925
7.60872
7.88174
0.00365401
-0.00633839
0.126087
7.60981
7.612
7.61093
7.60996
7.60549
7.60868
7.60393
7.60587
7.60968
7.60806
7.60977
7.87797
7.61337
7.60919
7.61204
7.78452
7.60963
7.60976
7.61003
7.63807
7.81794
0.0187191
7.61166
7.60996
7.62181
0.0264513
7.61376
7.88163
2.94531
7.60041
7.50782
0.0179287
8.24231
7.56406
3.47978
0.0136213
7.61104
6.75844
7.25826
7.6092
-0.0304547
0.0151697
0.0147301
0.00366072
0.031803
7.90159
7.60411
0.0167727
0.0229477
0.00228141
7.60761
0.0216215
-0.0164707
0.0264115
0.0213019
0.0223794
0.00356882
0.0259568
0.0157732
7.8866
0.0221375
0.0256243
0.0123794
0.0185891
7.60952
7.60924
7.60941
7.87216
7.60713
0.0245265
0.02452
7.61273
7.60958
7.61025
7.81788
7.61173
7.87362
7.6171
7.87816
0.0292154
-0.225268
0.0251228
0.0306681
7.5865
7.62795
-0.0337022
-0.266341
7.60984
7.61059
0.00701428
7.8854
7.61
0.0639803
-0.00227407
0.0149681
0.0314083
-0.0305174
7.89799
0.0144458
0.0218473
6.90713
7.87539
0.010308
7.89475
7.62373
2.37976
1.26971
-0.00992704
7.76484
7.85002
-0.0454075
0.0217774
0.0328973
0.0238074
3.39101
7.87176
-0.0189493
8.236
7.8742
7.5568
0.00956003
7.61128
0.0255677
0.00956345
0.011523
0.0132297
7.87959
0.0355667
7.87565
7.45237
7.87364
7.86482
0.0215239
4.48722
7.6101
7.87243
8.35814
0.0262016
6.85504
0.0106276
0.0194984
0.0210542
0.0220142
7.82306
7.86704
6.62674
0.0124709
0.0263013
-0.922625
7.91937
7.87159
6.82249
-0.0245102
-0.0257348
7.60874
-0.0338865
2.48795
0.0147078
0.0197097
7.87194
6.64164
0.0119042
0.0243742
7.61126
0.00515204
0.00323743
-0.00357568
-0.00597597
0.0200621
0.0371563
6.91021
0.0309707
0.0230893
0.0287571
7.96705
0.017171
6.99679
0.0321635
0.0199928
7.87465
0.0206898
0.0157187
0.0107748
0.0244846
8.73796
2.06692
-0.0535625
4.27693
0.0175973
7.64585
0.0220193
0.0175948
7.87891
7.61015
-0.361542
-0.117208
0.0197157
8.73042
0.00612082
-0.210265
-1.17344
-0.0836795
7.87966
7.89268
0.0224365
8.34555
0.0241298
-0.219232
0.0170805
0.0327053
7.87184
-0.00239594
0.0239181
7.87067
6.92965
0.0356109
7.88709
0.0277003
0.0320493
7.87297
8.78856
0.0221384
7.87183
7.60956
7.61021
0.0289296
0.0306155
0.0123141
7.92676
0.00927018
0.028366
7.67199
0.0312295
0.0186133
0.0245557
-0.129126
7.61032
0.0180695
0.0534991
0.0310392
0.019391
0.0261962
-0.159711
0.0284768
7.8713
-0.049581
0.0219023
7.8716
0.02651
7.6163
7.61122
7.8753
7.62041
7.87364
0.00110715
7.61128
0.0264541
-0.0188225
7.87611
0.0137722
7.80324
0.0169429
7.87819
-0.168307
7.65142
0.00684378
0.00250692
-0.190206
0.0416899
0.0233777
0.0166048
0.0283049
0.0407097
2.75751
0.0337632
0.0049384
0.0430374
7.8735
0.0402692
-0.125661
0.0365322
0.013123
-0.169382
7.87565
6.7675
7.8761
0.0127762
7.87121
6.16551
0.0245027
8.38907
0.00794773
7.863
7.84073
7.6102
0.0174482
0.0439841
0.022786
-0.0463188
0.0244654
0.0195416
0.031945
0.00874702
0.0150689
0.0300539
0.0208642
7.87906
7.56405
7.86635
0.0174676
0.0282491
7.64799
7.61012
6.30384
0.0446738
0.0180077
7.87161
0.02267
7.86964
-0.439154
0.0165939
-0.0708942
7.87282
7.8712
0.010361
7.8717
-0.00935548
0.0297673
7.45326
0.0201304
0.0155532
0.0270814
7.87068
-0.112345
6.9796
-0.0267173
0.00923621
7.87439
7.88442
0.0270274
5.5235
7.90413
0.0349091
0.030825
7.87207
7.85412
6.93576
0.0127662
6.28261
0.0160294
-0.0357326
-0.0021312
7.87156
7.03211
-0.0373675
7.87033
7.61647
7.87392
7.87513
7.14218
7.72399
7.57002
7.87214
7.88893
7.29581
8.39714
7.63912
-0.00092257
7.64863
6.75336
6.38981
8.90669
6.8953
7.87168
-0.0351465
7.38905
7.7083
-0.0356858
8.20756
8.57337
7.77046
-0.0443156
8.3671
-0.0330385
-0.0869777
0.0111861
7.16382
7.87459
-0.0248098
-0.461293
7.83396
7.86576
0.0207671
7.08484
0.0205872
7.00918
7.59256
7.72833
0.0190612
0.022466
7.87055
0.00435599
7.89643
7.38767
-0.189132
0.0428016
-0.0328352
7.60695
0.0222822
7.22826
-0.0228678
7.61086
7.87119
7.60985
6.98818
0.0406356
0.0305617
7.87428
-0.770192
7.88075
7.89381
7.88042
7.87282
-0.0262008
-0.0405576
0.0324828
-0.0205907
7.83337
0.0105442
0.0120634
0.0361214
-0.0322956
7.65987
0.0268463
-0.00118743
-0.00483125
-0.434322
0.022113
7.92298
-0.0147307
-0.0255287
0.0221821
-0.0251196
-0.0486273
7.90175
-0.0416038
7.77804
7.87589
0.0202579
7.87959
0.0249379
7.86957
7.93818
7.55034
7.87866
7.87349
-0.0487094
7.87727
-0.0180913
7.19471
7.61436
0.0194987
-0.00461131
0.0292959
-0.0177382
7.89029
0.695968
7.8744
-0.0208059
7.93938
0.0139818
-0.0284928
-0.017647
-0.00563371
7.96974
7.97669
7.8788
0.0279488
7.6253
7.86489
0.0235311
7.60301
7.60948
0.000200119
7.96961
0.00816206
-0.441034
7.14495
7.49707
7.43511
0.010851
0.0121508
7.8719
0.00740821
-0.0128387
6.987
-0.0233532
7.87052
0.0199461
0.0217
0.0388779
7.87399
0.0107201
0.0194919
-0.0294996
-0.00414543
0.00694259
7.87352
7.87192
-0.108927
7.8672
7.60808
7.86999
0.0134681
-0.0198349
0.0180177
-0.0370861
6.86673
-0.00465591
0.0146538
0.0113134
-0.0614764
0.0178526
-0.0186991
0.0122324
7.60988
7.61031
7.61006
0.0311354
7.61115
-0.0337573
5.2414
0.0022589
-0.558527
0.00724336
0.0131251
7.60911
7.87279
0.00328665
0.00242849
7.88672
7.60393
7.87417
0.0102017
0.00483153
0.000840221
0.0072765
0.0292181
0.0139704
7.87244
7.87342
7.87142
0.0396514
0.00552934
0.00241539
0.015065
0.0323125
0.00298987
7.84763
7.87165
6.33808
7.65452
0.0239246
0.026349
7.86719
7.90519
7.86631
7.87573
7.83686
7.71503
-0.00704944
7.87387
-0.051192
-0.119852
7.61773
-0.00137586
0.026878
0.0209693
7.91766
7.76144
-0.00638328
7.87226
-0.00813275
-1.23792
0.0183271
7.66477
5.94524
7.60977
7.87607
7.86759
7.60269
2.10106
7.88536
0.00786605
-0.00401275
7.87474
7.87222
-0.0102979
7.87796
7.61109
0.0120288
-0.203899
7.86089
7.86144
7.66987
0.0419682
7.87183
7.8716
1.16373
-0.0252097
-0.0112732
7.87158
7.61711
7.20584
-0.0158573
-0.0106797
-0.0134291
0.00506868
7.61042
0.0553027
0.0125915
-3.08727e-05
7.55432
7.86938
7.87149
7.8254
7.87201
0.0232886
0.0196871
0.00146518
7.89006
7.87242
7.87157
7.8694
7.68543
-0.0408368
0.109769
0.0200101
7.6145
7.87236
7.92699
-1.01556
-0.0429002
-0.0710785
7.60876
-1.94681
8.25617
7.83793
7.87092
0.0223562
0.0341299
7.874
7.90609
0.0108153
7.87296
0.0129481
0.0282887
2.73116
7.86977
7.66077
0.0222016
-0.0622766
7.90976
2.53753
0.0544352
0.0308745
7.87324
7.87592
7.88242
7.8807
0.0260607
0.0259453
7.8762
-0.0521565
-0.0154203
0.203678
7.87211
7.87113
7.87248
7.87649
0.00771833
8.38343
7.87336
7.76672
0.0241127
-0.0105974
0.0291548
7.84436
7.87217
-0.0224045
7.62296
7.87242
7.87414
7.87344
0.0198022
7.69409
7.59552
7.61315
0.0199559
0.0260211
7.86847
7.87415
7.85458
0.0147505
8.15116
7.87725
7.85663
7.87424
7.87363
-0.202069
0.0220818
7.91492
0.0205309
0.0144252
0.0190659
7.87874
7.87517
7.87356
7.83402
7.61045
0.0289706
7.87303
7.3795
7.3319
-0.0175062
7.64999
-0.0255127
7.87179
7.61261
-0.019211
0.29065
7.03151
-0.00636711
7.87435
-0.0104854
8.12352
7.89073
7.92176
9.10692
7.87926
-0.0385615
7.86974
0.00862686
7.61217
6.93356
7.87935
7.86715
0.0145963
0.0320193
7.6099
2.64364
7.6071
-0.0141257
-0.0419719
0.00880084
7.61171
-0.351492
-0.0244074
-0.050958
0.0211855
-0.630077
-0.0303911
7.59229
7.61045
-0.755495
0.0214827
-0.00309652
7.90886
7.51411
6.36957
3.25298
7.87469
7.61599
7.87466
7.87527
7.87618
8.30276
0.033901
-0.0744711
0.0291872
6.96747
-0.0941192
7.87424
0.00899392
7.87138
7.8809
7.61099
7.71088
-0.106648
7.69145
7.60371
7.87178
0.015507
7.87039
7.87217
-0.0593836
7.82688
5.75033
4.92649
4.5891
7.87681
4.80814
4.64603
4.75667
5.45905
7.60995
7.6105
0.00964589
-0.0143595
6.95592
7.13889
7.60613
0.00469014
8.19047
7.71126
-0.101781
7.87421
7.87225
-0.0380883
-0.089093
7.83852
7.61188
-0.0327747
7.03115
7.60411
-0.4094
0.00605404
0.0501418
7.81071
0.0208868
7.87478
0.0145655
-0.396512
0.0155894
7.87237
-0.390983
0.0201983
7.96658
-1.04113
7.86368
0.0186372
7.52896
0.0258412
7.80332
-0.0491628
7.87297
7.57139
7.61139
-1.46632
-1.47392
7.88582
0.00868664
0.010981
7.91948
7.87196
-0.00583807
0.0205742
-0.123902
7.88048
0.0142199
0.00866062
-0.0528277
-0.850712
7.87632
-0.171861
7.61937
-0.152029
7.87144
-1.73119
-2.00794
7.85204
0.0212916
7.67385
-0.0450506
7.60909
7.8563
7.88484
7.89005
7.85034
7.85862
-0.00308949
0.028004
-0.15584
7.88135
6.3404
-0.143665
7.87967
7.8296
7.90484
7.86686
7.90433
0.0228565
7.87245
7.87445
7.61031
0.0159074
7.85726
7.61035
7.53929
0.0363642
7.6107
0.00824035
-0.785209
-0.0527028
0.0339834
-0.0156984
8.22066
7.87701
7.87086
0.0692179
0.03048
7.54126
6.30647
0.00998905
7.87236
7.87565
-0.133442
7.86275
0.0151216
7.87414
-0.0127183
-0.0568062
7.88034
7.60977
7.87371
7.87495
7.87007
-0.0259941
7.87039
0.0112836
7.94275
7.87465
0.0239635
7.60379
0.00673976
7.77344
7.87208
-0.0135089
0.0302253
-0.119211
7.87396
7.87437
7.8724
0.0288208
-0.088047
7.95028
7.60919
7.64085
0.012816
7.86537
0.013403
-0.134983
7.87132
7.86771
0.0215798
7.86608
7.64054
7.61082
7.95861
7.61081
-0.15318
6.21688
7.63615
7.87321
6.3793
7.86739
6.60113
7.84601
7.86621
7.72786
0.0169564
7.78766
0.0107867
7.85943
7.8666
-0.0575397
0.00526914
7.86188
7.8246
7.87379
0.0258636
6.69907
7.87363
7.73169
7.86994
0.0187753
7.86314
-0.180489
7.87455
-0.0104328
6.9146
-0.027439
7.88861
7.87007
0.00466531
6.54206
7.87921
0.0286604
-0.00776196
7.89272
7.87499
-0.0198867
-0.0576986
0.0200378
0.0166728
0.00662826
-0.00792695
0.0218969
-0.0396942
7.94761
-0.190422
6.25544
6.14094
7.87307
7.87052
7.8704
0.0348634
7.87503
7.86823
7.87517
-0.122672
-0.0433282
5.94671
-0.0432371
7.87581
-0.0182318
7.60955
-0.0608635
0.022682
6.32916
0.00196068
7.86536
7.8451
7.61065
0.0419154
-0.0120511
7.87255
7.61048
0.0314745
7.87375
-0.135401
7.9142
-0.0826045
7.8716
7.61117
7.85281
7.61
0.0245236
7.61027
0.270147
7.61226
-0.00583341
7.87223
7.86841
4.30835
3.98309
7.8902
7.86887
7.87205
7.87312
-0.00784951
-0.142874
5.20906
7.87674
6.49781e-05
7.60872
7.62009
-0.427529
0.0116986
-0.0685135
7.61124
0.0254745
-0.0218517
0.0252362
0.0138729
7.87229
7.87571
7.87993
7.87598
7.61098
7.60996
7.61072
7.83962
7.61157
7.61091
7.87181
7.61065
-0.108605
7.60988
7.872
8.61515
7.87436
7.87257
2.7029
7.61019
7.8713
-0.006109
-0.091692
7.84794
7.85188
7.87242
0.0170571
7.64456
7.85989
-0.109754
7.61132
7.87257
7.86837
7.87605
-0.0464273
7.60976
-0.175776
7.87649
7.85708
7.87091
7.87183
7.86941
-0.103215
-0.146381
0.0206742
7.87462
7.63527
7.90937
-0.123249
7.8716
-0.146788
-0.0774215
7.60835
7.84269
5.93688
-0.405888
7.85466
7.01417
-0.393241
6.01528
-0.0118669
7.6428
-0.0402407
5.98241
5.61288
7.8716
-0.0010239
7.61122
-0.0141289
-0.0548821
7.88074
-0.00216779
-0.283576
7.86979
-0.0688936
7.61315
7.85584
7.86484
7.8517
7.86651
7.60857
7.87144
7.8722
-0.152376
7.10431
7.87217
7.86975
7.87043
7.87438
0.0179828
4.03827
-0.132104
-0.310075
7.87083
0.0136384
0.00281221
7.8722
6.99175
7.78645
7.86143
7.89864
7.96119
6.42988
7.16314
-0.0352471
7.87372
7.87809
6.09653
6.6356
7.60969
-0.00701734
7.87949
7.62502
7.87436
-0.0798888
7.87657
7.61013
-0.016704
7.61036
7.57043
7.76285
7.92046
-0.0166651
7.87309
7.87148
7.87132
7.84235
-0.0155451
-0.0660064
-0.0568269
-0.0032788
-0.0310795
-0.0394097
7.61099
6.54066
-0.166221
-0.0328702
6.53077
-0.15046
7.86828
-1.08569
7.63306
-0.0893442
7.87422
7.61551
-0.0317123
-1.39354
7.87629
-0.0331501
7.87543
7.87575
-0.0957954
-0.0572155
7.8725
7.61052
7.91663
7.60987
7.86878
6.85859
7.8738
7.87145
-0.0334581
7.87336
7.86797
7.87059
-0.024652
7.88364
6.90071
7.61059
7.61007
7.29725
6.91921
-0.026198
7.61501
6.92781
0.00479021
7.86626
-0.0427151
-0.0256965
7.8737
-0.000648655
7.87085
7.45315
7.93455
6.78203
7.61258
7.85173
7.86575
7.87617
0.0191043
7.87495
7.87297
7.87161
7.73311
7.87147
7.78402
-0.119054
7.87177
7.87711
-0.0705199
7.87272
7.61088
7.60932
0.0312588
7.8739
-0.163253
6.70083
-0.382455
0.0151865
7.60712
6.53551
0.00702626
6.26493
7.61124
-0.201219
-0.379367
-0.00266683
-0.0577404
-0.257205
-1.16655
7.63455
7.6165
0.00771201
-0.101891
-0.0842777
0.0158813
-0.40163
7.6084
0.0192873
-0.00207132
0.00433366
7.61268
0.00698334
0.0218721
0.0226954
0.00333474
-0.122906
0.014426
0.0420073
-0.00538317
0.0139594
0.0256754
0.00996722
6.91417
0.0915199
0.0062986
-0.00257739
-0.0299201
0.0234129
0.0113022
0.0157329
7.07554
-0.114606
7.02432
0.0341724
0.0100842
-0.036545
0.00217781
7.01255
7.60834
0.0113561
0.0141066
-0.12842
-0.0642984
0.0242082
-0.0014864
4.82692
0.00830034
7.87176
0.000252461
-0.113097
-0.0488589
0.0299897
-0.141308
-0.176526
-0.00372298
0.0059039
-0.00457652
0.0307542
0.000710513
0.123608
6.13638
5.39481
0.000915344
7.87568
7.87242
0.000254578
0.0209047
0.0230819
7.87302
-0.0734969
-0.0572253
0.0174157
5.58371
7.87124
-0.20926
0.008767
-0.119742
7.87588
0.0292059
7.87192
0.00705364
-0.00575872
-0.0470453
-0.0465912
7.87155
7.87376
-0.0378527
0.0114991
0.0264877
7.86523
0.00670112
0.0263703
-0.00667819
7.6158
0.0335534
0.048651
7.00349
0.022067
-1.50839
-0.106337
7.57917
-0.063458
-0.102207
7.87171
0.00223089
0.0174938
1.38785
-0.0140107
0.00830444
0.0223578
0.0209499
-0.0353189
-0.0232996
-0.231487
-0.11081
0.0318571
0.0217011
-0.0152122
-0.175503
0.0200657
-0.0200563
0.0588537
0.0134711
-0.161215
0.0396703
7.87186
-0.00310067
-0.013084
-0.106262
0.0377818
-0.041651
7.63833
-0.00537821
0.0235335
7.8673
-0.075543
-0.00917311
-0.00491214
0.00163741
0.0221642
-0.0441098
0.0120836
-0.0176678
-0.0544345
7.8715
7.87194
-0.050188
7.61415
-0.0469504
-0.00530262
7.70431
0.0220373
-0.0203254
0.0392365
7.87165
0.0251497
0.0107887
-0.0636998
-0.144114
0.0201368
0.0447863
0.00774348
-0.0105656
7.87192
7.85438
-0.0965405
-0.033118
-0.0596428
0.0198408
7.85407
-0.0336474
0.014963
7.70488
-0.000310497
0.0100241
-0.0838082
-0.219401
-0.031318
-0.0390155
0.0380786
-0.00538293
7.61912
0.00288966
0.00289695
-0.00049081
-0.204708
7.85528
-0.0225186
8.01248
7.87268
0.0118882
-0.0130864
0.00494548
0.12181
-0.118892
1.48861
7.61268
-0.0322609
0.0251332
0.0657869
0.00869488
7.87874
7.61152
7.60103
-0.00225176
0.00272903
-0.230633
0.0244113
7.62513
7.85864
-0.00989168
0.00546003
-0.0438667
0.0129415
0.00786543
0.028668
-0.0520242
4.37263
7.61006
-0.00518604
0.0230886
7.85811
-0.0049029
0.0240742
-0.0773322
0.00945368
0.00887697
-0.042884
7.85827
0.0251386
0.00540247
7.61257
7.64161
0.0288631
0.0794177
0.0150618
0.0206475
0.0174355
0.0126689
0.0324526
0.0291534
0.0235323
0.0137415
7.85402
7.84644
0.00994967
0.0304196
0.016464
-0.101126
0.0200766
-0.00386296
-0.00173764
0.0234939
0.0163099
7.61279
7.61977
-0.114784
7.85275
6.85976
0.0123193
0.0196528
0.000170861
-0.0962063
7.16094
-0.0355133
-0.0826774
7.29199
-0.104296
-0.211389
0.0195766
0.021708
0.0199479
0.0285953
-0.144946
0.0204678
7.8722
7.23485
-0.0803123
0.0283867
0.00456764
0.025888
-0.109227
-0.0332014
-0.110174
7.26097
0.0245375
0.0531607
0.0137958
-0.124839
-0.0375248
-0.0957886
-0.203225
0.0022709
0.0224128
7.15254
-0.00399357
0.026122
2.78438
6.78772
6.23601
0.0374295
6.63219
0.0135618
0.0230751
0.00462798
0.0222744
-0.108829
5.04265
3.04151
8.06071
6.7276
-0.0480847
7.60986
7.60956
-1.28507
7.86986
0.0276745
0.0108671
0.0289073
0.0219439
0.0223299
0.00511443
6.26602
0.0226331
0.0250189
-0.0316945
0.0140123
0.0344163
0.0130927
7.60991
-0.207426
0.0291433
-0.0964686
7.60999
-0.00943868
-0.0062878
7.60991
7.86359
-0.0813732
0.01855
7.90804
0.012183
0.0162126
-0.0847947
7.87339
7.60992
0.0202381
-0.209017
0.0223445
7.60997
7.59461
7.61002
0.00138611
2.54865
2.32095
-0.00150058
-0.369568
7.88158
0.0260939
-0.346826
0.0177636
0.0234013
0.00691208
0.0197014
-0.507985
0.0281764
7.65942
0.010163
0.0394494
0.017857
0.0200542
0.0136481
0.0348971
0.0164786
0.00942156
0.0299894
-0.0627014
-0.390727
0.0111512
-0.0858157
-0.133297
-0.461875
0.0104002
-0.374786
0.0195907
0.0302147
0.0214367
0.0392469
-0.0546502
0.0343421
-0.381912
0.0225344
7.46876
0.00956117
3.81489
0.0137684
-0.00693564
7.61326
-0.0167863
7.46818
-0.00476961
7.49626
7.90352
0.042932
-0.0258944
6.84469
0.022921
0.0188824
-0.0236123
7.85943
7.87405
0.0135851
0.000155301
-0.181076
0.0155183
0.0318619
-0.0249418
-0.0650778
-0.00849903
-0.017667
6.50775
0.00906028
7.60944
7.80532
0.0303427
0.0292066
-0.0975036
0.0296559
0.0315863
-0.0110402
-0.0229609
7.78026
-0.112178
0.0220716
-0.0132816
7.79297
7.88024
0.00893155
-0.00201146
6.15915
-0.0433368
0.0289455
7.17791e-05
-0.135735
0.0324595
0.0225076
7.86294
4.57283
0.0211356
-0.0749318
7.67702
0.0393645
-0.0495719
-0.0141215
-0.124617
0.0160368
-0.154295
0.00865292
-0.0391854
4.83029
-0.0493108
7.8731
-0.000695583
-0.0205379
0.0313115
0.00967375
6.57093
0.0145022
-0.0805712
-0.0144331
-0.1102
7.42212
7.61011
0.0288441
-0.0745178
-0.00466554
0.00376874
-0.0434408
0.020845
-0.00255049
0.00771187
0.0413415
0.0261381
-0.0512368
7.03044
-0.134623
-0.0236373
-0.000874762
-0.040119
7.22567
7.60998
-2.39147
-0.116347
8.15289
-0.142973
-0.0251384
7.367
4.99678
5.4551
-0.0444401
0.0232328
0.171936
5.83914
-0.0778187
0.030722
7.6156
0.226827
6.88406
-0.0139146
0.0212453
7.64322
-0.0288811
-0.0270787
-0.03091
0.0264459
7.60962
-0.270799
-0.041463
-0.0778928
-0.0213405
-0.0221261
-0.0396297
-0.0102476
-0.176402
-0.0234862
0.0212494
0.0227642
7.87125
6.44369
6.55434
7.72535
-0.0311391
0.0249587
0.0305877
-0.0650948
0.0202393
0.0287682
-0.00668667
-0.0206462
-0.0169923
0.02267
-0.0151428
-0.0871086
0.00219178
0.0261424
7.87235
-0.0434448
-0.0620948
-0.0188621
-0.0110215
7.60789
0.00102596
0.00350604
0.0347873
0.0021244
0.0119947
7.63006
0.0229703
0.0121287
6.87687
0.0231252
-0.00957812
7.71932
-0.00198148
7.71058
7.60731
0.00236805
-0.0623347
-0.0069722
0.0132924
7.61311
0.0341427
-0.0397315
7.6117
0.0303897
0.0115223
0.0180138
-0.0134674
7.75037
-0.0330592
-0.0276867
0.00914059
7.69397
0.0454114
0.0202145
-0.0030559
0.0261938
0.0123096
7.90143
7.45162
7.05753
0.0265997
7.18607
0.0281723
0.0150548
0.0245953
7.8333
0.0209968
7.65424
7.87293
7.80726
0.00906441
-0.0127395
-0.210983
0.00242007
0.0343383
7.5151
6.88189
-0.0420523
-0.0465643
0.0368096
-0.16681
0.0246738
-0.403895
7.87514
5.73544