/*--------------------------------*- C++ -*----------------------------------*\
  =========                 |
  \\      /  F ield         | OpenFOAM: The Open Source CFD Toolbox
   \\    /   O peration     | Website:  https://openfoam.org
    \\  /    A nd           | Version:  10
     \\/     M anipulation  |
\*---------------------------------------------------------------------------*/
FoamFile
{
    format      ascii;
    class       surfaceScalarField;
    location    "28.5";
    object      phi;
}
// * * * * * * * * * * * * * * * * * * * * * * * * * * * * * * * * * * * * * //

dimensions      [0 3 -1 0 0 0 0];

internalField   nonuniform List<scalar> 
214403
(
-0.00340526
0.00261131
0.00014442
0.000649533
-0.00169425
-0.00570921
0.000484361
0.0069191
-0.00520381
3.49179e-05
-7.2048e-05
0.00524094
0.00447905
-0.00301189
-0.00750785
0.00604069
0.00624003
-0.00788811
0.0018806
-0.000232521
-0.00275136
0.00286539
-2.72098e-05
-8.68176e-05
-0.000432128
-0.000822201
-0.00468312
0.00593745
-0.00866846
0.00492805
-0.00129633
0.00503674
-0.011813
0.0083382
0.00841857
-0.00494379
0.00722641
0.000857022
-0.00807454
-8.89289e-06
0.00255885
-0.00506683
0.00104138
0.00146661
-0.00525361
0.00165363
0.00272095
0.00087903
0.000242745
-0.00580821
0.00699341
-0.00142794
-0.00507334
0.00510754
-3.41996e-05
0.000974055
0.00606395
-0.00776992
0.000731922
-0.00615036
0.00514358
0.00155803
-0.000551255
-0.00618428
0.00603619
0.000148089
0.00199792
5.5633e-06
-0.00054049
-0.001463
0.00796083
-0.00476517
-0.0105849
0.00738927
-3.84434e-05
-0.0015766
4.56432e-05
0.0015694
0.00324949
-0.0031726
-7.68895e-05
-0.00630565
-0.00218163
0.00216935
0.00631793
-0.00115981
0.00692384
-0.00558162
-0.000182403
0.00342552
0.000361348
0.00119669
-0.00498356
-0.005233
-0.00249905
0.00676688
0.000965171
0.00464795
-0.00588656
3.65307e-05
0.00120208
0.00164359
-0.00143419
0.0053721
-0.0055815
0.0038816
0.00507613
-0.00611669
-0.00284104
0.00567594
-0.00356081
-0.000160973
-0.00195416
-0.00296902
0.00302615
-5.71242e-05
0.00124871
-0.00259087
0.00688793
-0.00554576
0.00720154
0.00034048
-0.0012573
-0.00628472
-0.00285106
-0.00292689
0.00299771
0.00278024
-0.000613377
-0.00345825
0.00306296
0.00100867
0.00227068
-0.0015992
-0.00481065
0.00413917
-0.00087534
0.00436662
-0.00157758
-0.0019137
0.00815243
-0.000189118
-0.00796331
-0.00351557
0.00685732
-0.00334175
0.000634412
-0.00751652
0.00435054
0.00253157
0.00125146
-0.000502941
0.00305995
-0.00380847
0.00292135
-3.10162e-05
-0.00289033
0.00520987
-0.00011096
0.000921042
-0.00601995
-0.00662262
0.000830218
0.00704386
0.000436866
0.000451268
0.00438019
-0.00526832
-0.00207694
-0.0136601
0.0132329
0.00250416
0.0028795
0.000522959
0.000649065
-0.00405153
0.00215019
0.00163582
-0.00526146
0.00147546
0.00680883
0.00408145
-0.00746476
0.00061472
0.00576251
-0.00116736
0.00091929
-0.00344
-0.00202852
0.00454923
0.00157094
0.00241657
0.000718174
-0.00470568
0.000945298
-0.000709216
-0.00219059
0.00195451
0.00347887
-0.00629447
0.00438653
0.00604682
-0.00569303
-0.00195428
0.00160048
0.00538224
-0.000984078
-0.00436876
0.00592285
-0.000251351
-0.00130273
0.00450264
-0.00575722
6.44705e-05
0.00119012
-0.00423916
0.000280261
0.00677429
-0.00281539
-0.00780367
-0.00732807
0.00615574
0.00897601
-0.00416857
0.00419354
0.000825363
-0.000850337
0.000655193
-0.0053267
-0.00433319
-8.95614e-05
0.00225197
0.00217078
-0.00684703
0.00293675
0.00443389
-0.000523602
0.00799963
-0.00644065
0.000410023
-0.00196901
0.000367569
0.00013438
-0.00531094
0.00480899
0.000263243
-0.00145117
0.00716585
-0.00597792
-0.0176733
0.00182896
0.00193944
0.0139049
-0.00163133
0.00481097
-0.00152822
-0.00165142
0.00236923
-0.00124429
-0.00506003
0.00393509
0.000566189
0.00353134
-0.00448944
0.000391915
-9.11869e-05
0.00432363
0.00149962
-0.00573207
-0.00086365
-0.000138661
-0.00178165
0.00278396
-0.00456584
0.00499033
-0.0001897
-0.000234799
0.000160348
-0.00463815
-0.00321856
0.00285091
0.000864935
-0.000497292
-0.00861539
-0.000538325
0.00420223
0.00495149
-0.0026166
-0.00111486
0.00222657
0.00150489
0.00382044
-0.0128157
0.0017764
0.00721884
-0.00200977
0.00404535
-0.00220934
0.000173759
0.00290658
-0.00225521
0.000289227
-0.000940596
6.82835e-05
-0.00540124
0.00533295
1.53578e-05
0.00439323
-0.00440859
0.00389185
-0.000760961
0.000515595
-0.00364648
-0.00229953
0.00327988
0.00108796
-0.00206832
-0.00163264
0.00694564
-0.00166957
-0.00364343
0.00327794
-0.00558683
-0.00021439
0.00252328
0.00375534
0.00398713
-0.00774247
0.00553715
-0.00622383
0.00159511
-0.000908425
0.000532856
-0.000998517
0.00723327
-0.00676761
0.000209769
-0.00117434
0.00521832
-0.00425374
0.00123806
0.0108965
0.00313429
-0.0152689
-0.00951249
0.00837102
0.00542325
-0.00428178
0.00043799
0.00335593
-0.00451219
0.000718261
0.00445445
0.00495085
-0.00162369
-0.00778162
0.00825174
-0.00501396
-0.000164653
-0.00307312
0.000359124
-0.00105188
-0.00330231
0.00399506
-0.00334703
1.93527e-05
0.00332768
0.00501746
0.000173768
0.000345917
0.00623705
0.000530824
-0.00946421
0.00269634
-0.00499801
0.00110254
0.000888407
0.00300706
-0.00315353
0.000781858
0.000387502
0.00198417
0.000776653
0.000557117
-0.00659152
0.00525775
-0.00136104
-0.00791887
0.00504839
0.00423152
0.00315536
-0.00373125
-0.00243318
0.00300907
0.00511556
-5.64394e-05
-0.00511525
5.61276e-05
0.00393144
-0.00554541
-0.00193839
0.00355236
0.0101598
-0.00307335
-0.00158306
-0.00550335
0.00574888
-6.88604e-06
-0.00529221
-0.000449785
-0.00288824
0.00340089
0.00708601
-0.00759865
0.0061937
-0.00216838
-0.0059588
0.00193348
0.00113939
-0.00166238
0.00723746
-0.00671447
-0.00820175
0.00747873
0.00708286
-0.00635984
0.000369666
-0.00637147
0.00245905
0.00354275
0.00797522
-0.000422526
-0.000162283
-0.00739041
0.00558722
-0.00109053
0.00108022
-0.00557691
-0.00653658
-0.00594146
0.00703367
0.00544438
-0.00122797
0.00352622
0.000955343
-0.00325359
-0.00280246
0.000152676
0.0054328
-0.00278302
-0.00062213
0.00701695
-0.00653217
0.000137354
-0.00599623
0.00556837
0.00108441
-0.000656545
-0.000199264
-0.00349865
0.00834587
0.00111931
-0.0037338
-0.00272233
0.00533682
-0.00297319
3.96749e-05
0.00293352
0.000909354
0.00413626
-0.00382601
-0.00121961
0.00657326
-0.00379018
-0.00100801
-0.00177506
4.10575e-05
-0.00192099
0.00187993
-0.00371581
-0.000999442
0.00139196
0.00332329
0.000381057
0.00210245
-0.00471707
0.00223356
0.00797969
-0.000720421
0.00311926
-0.0103785
0.000578898
-0.000708826
-0.0097341
0.00986403
0.000632661
-0.00277602
-0.00369201
0.00583537
0.000233221
0.00506612
-0.000281879
2.05018e-05
-0.0029665
0.002946
0.00619677
-0.00229303
-0.00278442
-0.00375914
0.00314353
-0.0031002
0.00680718
-0.0056663
-0.000685159
-0.000455718
0.00068529
-0.0032411
0.00141666
0.00113914
-0.00556809
-0.00168536
0.00113115
0.00612229
0.00462773
-0.00752516
0.00498633
-0.00208891
-0.000203871
0.00680244
-0.00681257
0.000213999
-2.24207e-05
0.00620412
-0.00614983
-3.18661e-05
-0.00866659
0.00691398
-0.00554828
0.00730089
0.00722624
-0.0069894
-0.000236845
-0.00659731
0.00883633
-0.00161797
-0.000621045
-0.00589467
0.00141717
-0.000443316
0.00492082
-0.00973141
0.000744325
0.00626656
0.00272053
0.00173522
-0.00236991
0.00131998
-0.00236697
0.00269146
0.00433076
-0.00465525
-0.00259982
-0.00116657
0.00148718
0.00227921
-0.00350214
0.00229226
-0.00442821
0.00563809
0.00105309
8.60869e-05
-0.00773649
-0.00344084
0.0034334
7.43082e-06
0.00379684
-0.00365053
-0.000146315
-0.00570134
-0.000373327
-0.00151602
0.00140949
-0.00750681
0.00874152
-0.00264419
0.00337659
0.0058115
-0.00738904
-0.00179905
0.00644787
-0.00700381
0.00018822
0.000367719
0.0034421
0.000897035
-0.0035595
-0.000779639
-0.00543726
-0.000299756
0.00714651
0.00311091
-0.00022541
-0.00379186
0.000906367
0.00350183
-0.00299812
0.00345348
-0.00395719
-0.00613869
0.00115499
0.00836029
-0.00207527
-0.00291192
0.00960938
-0.00462219
-0.00296716
-0.00326349
0.000793377
0.000884564
0.00234256
-0.00619428
-0.00421145
-0.000370803
0.00676477
-0.00218252
0.000652242
0.00103344
0.00374281
-0.00542849
-0.00200711
0.00491312
-0.00290601
0.00158474
-0.00759417
0.00274595
0.00451992
0.00315957
-0.00679493
-0.0064234
7.75693e-05
0.00800461
-0.00165878
0.00107611
0.000920287
0.00288016
-0.00487656
0.00431403
-0.00434508
3.1045e-05
0.00162556
-0.000613571
0.00545546
-0.00646744
0.00568956
-0.00180241
0.00273496
-0.00662211
0.0104369
-0.00335124
0.007786
-0.0148716
0.00172248
0.00320056
-0.00133306
-0.00358997
-0.0046997
0.00193113
0.00246755
0.000301025
0.00338655
-0.00255252
-6.93963e-05
-0.000764638
-0.00220697
-0.00280221
0.00815591
-0.00314673
-0.00377853
0.00490159
0.0019584
-0.00308146
0.00568457
-0.000310456
-0.00187228
-0.00889424
0.00588082
-0.000488724
-0.00846441
0.00780798
0.00362618
-0.00296975
0.0053987
-0.00608577
-0.000878059
0.00156512
0.00306507
-0.00553114
-0.0029033
-0.00314473
-0.00288758
0.0016311
0.00440121
-0.00449606
0.00139668
0.00443497
-0.00133559
0.00518868
-0.00493846
-0.00339654
0.00314632
3.13833e-05
-4.47812e-05
-0.00484685
0.00486024
0.000119427
-0.00429278
-0.000162375
0.00433573
-0.00122513
-0.0072531
0.00114063
-0.00419976
0.00377839
-0.00071926
-0.00287665
-0.00121336
-0.000406049
-9.83638e-05
0.00722177
0.000103008
-0.0172046
0.0121006
0.00874585
-0.00364182
-0.0050858
0.00034639
0.000186965
0.00455244
-0.0010106
0.0160855
-0.018927
0.00385218
0.000799541
0.00123301
-0.00276792
0.000735371
-0.0108822
0.00585959
0.000758086
0.00426456
-0.000127207
-0.00723555
-0.00102872
0.00839147
-0.00301879
0.0109025
-0.00756601
-0.000317666
0.00489075
0.00710924
-0.00656936
-0.00543064
-0.00583315
0.00556002
0.0069011
-0.00662796
0.00225131
0.00314652
-0.00391892
-0.00147891
0.00225712
-0.0015232
-0.00361056
-0.0115806
-0.000455601
0.00946284
0.00257334
0.0033834
0.000517602
-0.00196987
0.00349834
0.00468244
-0.00432369
-0.00385709
-0.00578614
0.00129052
0.00564451
-0.00114888
0.00068741
0.00181546
0.00633346
-0.00673442
0.00665172
0.000642916
-0.000560218
0.00412833
0.00324081
-0.00292436
-0.000115545
-0.000822727
0.00386263
-0.00445043
-0.00088731
0.00247322
-0.0085884
0.00364912
0.00246607
0.000260045
0.00461657
-0.00512351
0.00024689
-0.00178766
0.000345346
-0.00166188
0.00310419
0.00716415
-0.00512222
0.000215183
-0.00404763
-0.00316077
0.00425976
0.00294864
0.0152875
-0.016358
0.0053472
-0.00427665
-0.00292268
0.00363175
0.00146274
-0.00217181
-0.0067181
0.00291949
0.00585814
-0.00205953
-0.00291447
0.00423572
0.00543936
-0.00676062
0.00818259
-0.00317068
-0.0054198
0.000407894
0.000142474
-0.00199342
0.00485024
-0.0029993
-0.000843536
0.000836938
-0.0064168
0.00586865
0.00190775
-0.00628408
-0.00149232
0.00737125
-0.00604567
-0.00162533
0.00155813
0.00230457
-0.00544473
0.00158203
-0.00301428
-0.0055304
0.00491597
0.00362871
-0.000922954
-0.0023973
-0.000727379
0.00300272
-0.00321141
0.00691031
-0.00670161
0.000730655
-0.00842154
0.00769089
0.00288114
-0.00376285
0.00243984
0.00154473
0.000898436
0.00126754
-0.0037107
-0.000147771
-0.00699787
0.00714564
-0.00379221
0.000502963
-0.00123066
0.00451991
-0.000456391
0.00528492
-0.00481737
-1.11653e-05
-0.00359051
-0.00190189
0.0020782
0.00341419
-0.00133782
-0.00317564
-0.00295529
-0.00433606
0.00361718
0.00367417
0.000155663
-0.00444878
0.00771187
-0.00317044
-0.000410328
-0.00413111
0.00406972
-0.000389776
-0.00296935
-0.000710598
-0.000656651
0.00574487
-0.00717257
0.00208436
0.00371825
0.000142256
0.00181023
-0.00567073
-0.000135816
-0.00305398
0.00147326
0.00171654
-0.00210798
0.00274374
0.00530428
-0.00594003
-0.0074711
-0.0019442
-0.00209695
0.00692229
-0.00637256
0.000149167
0.00199857
0.00422482
0.000614258
-0.00226099
-0.00403198
0.00567871
-0.00290663
-0.00567478
0.00143135
0.00715006
-0.00267924
-0.00297192
0.00309359
0.00255757
-0.00691683
0.00665684
0.00701552
-0.00675553
-0.000927967
-0.00162026
-0.00489391
0.00744214
-0.00667917
0.000691576
0.00679856
-0.000810968
-0.00116932
0.00314098
-0.00197165
-0.00271124
0.00500983
-0.00377346
0.00147487
-0.000116854
0.00905256
-0.00336097
-0.00557474
-0.0032374
-0.00156564
0.00650357
-0.00170053
0.00104932
-0.00274727
0.00623135
-0.0045334
0.000283564
0.00402117
-0.000704464
-2.42135e-05
-0.00664509
0.00664423
2.50797e-05
0.00751333
-0.00133041
-0.010982
0.00479913
-0.00694132
-0.000679865
0.00866646
-0.00104527
-0.00377145
0.00569752
0.000468227
-0.0023943
0.00337594
-0.00333585
-4.00878e-05
-0.00403279
0.000389657
-0.00348096
0.00712409
-0.00584173
0.0080502
-0.00167864
-0.000529827
0.00363323
-0.00152347
-0.0043797
0.00226994
-0.00703808
0.00710344
-6.536e-05
0.00577388
-0.00839932
0.000681827
0.00194362
-0.00656226
-0.00179533
0.0112231
-0.00286549
0.00483268
-0.00020335
-0.00101504
-0.00361428
-0.00273661
-0.00467686
0.0104162
-0.000496444
-0.00688287
0.0041679
0.0108854
-0.0121434
-0.00115381
0.00241176
0.00289569
0.00137901
-0.00319859
-0.00304045
0.00316731
-0.000126858
-0.00123964
0.00692446
-0.000438843
-0.00524598
-0.0015106
0.0017919
0.00603459
-0.00631589
0.00392568
0.00921807
-0.005394
-0.00774975
0.00670725
-0.0080469
0.00255809
-0.00121844
0.00615204
8.44883e-05
-0.00623653
0.00011209
0.00599391
-0.006106
0.00672725
-0.00814213
0.00718875
7.7834e-05
-6.30624e-05
0.00524247
-0.00525724
0.000131814
0.00954538
-0.00951084
-0.000166352
-0.000812804
-0.00241355
-0.00487623
0.00810259
-0.00298364
-0.00178245
0.000598568
0.00564949
-0.00984167
0.00359361
-0.00479414
-0.00125712
0.00514001
0.000911251
-0.00562343
0.00620908
-0.00166002
0.00107438
0.000891138
0.00464533
-0.00158007
-0.0039564
-0.00228279
0.000578043
0.00385012
-0.00214538
-4.12412e-06
0.00171391
-0.00214412
0.000434332
-0.00240177
0.00586875
-0.00338246
-8.4522e-05
0.00176343
-0.00555599
-0.00324551
3.92164e-05
-0.00518232
0.0051431
-0.00190756
-0.00182975
0.000849531
0.00288778
0.00290191
-0.00167443
-0.00122747
0.0072368
-0.00718643
-0.00146646
0.00141609
-0.000658598
-0.00427507
0.00394093
0.000992735
-1.75486e-05
2.39502e-05
0.00385891
-0.00386531
0.00192119
-0.00157776
-0.00610848
0.00576505
0.0044427
-0.000114159
-0.00432854
-0.00653993
-0.00423223
0.00630948
0.00446268
0.00381239
0.00598276
-0.0102916
0.00362509
-0.00130384
0.00204049
-0.00436174
-0.00145126
0.00143328
-0.0079754
0.00799338
0.0022635
-0.00445796
-0.00433663
0.00653109
-0.000456183
-0.00102869
0.00485375
-0.00336888
0.00338176
-0.00415723
0.00150667
-0.000731211
0.00183252
-0.00303805
-0.00293638
0.00414191
-0.00595166
0.00670795
-0.0017922
0.00103591
0.0067564
0.0086868
-0.00956332
-0.00587988
-0.00524795
0.00522341
2.45477e-05
-0.00058185
0.00617459
-0.00772265
0.00212991
0.000238431
-0.000389603
-0.00593741
0.00608859
0.0058659
0.000246963
-0.0067494
0.000636539
-0.00247875
-0.00418953
0.00526847
0.00139981
-0.00598613
0.00848213
-0.00300445
0.00050845
-0.00249629
-0.00304437
0.00180685
-0.000369269
-6.18874e-05
-0.00428118
0.00471234
-0.0139975
6.00327e-05
0.00125864
0.0126789
0.000555639
-0.00357094
-0.00184794
0.00486324
0.00871726
-0.000716813
-0.00282112
-0.00517933
-0.0015665
-0.0033726
0.000662133
0.00427697
0.00244625
-9.57165e-06
-0.00243668
0.00409471
0.00218192
-0.00135884
-0.00491779
0.00317403
-0.00251748
0.0062676
-0.00692414
0.000206874
0.00652705
-0.00215472
-0.0045792
0.00158144
0.00225504
0.00488079
-0.00314897
0.000217757
0.00293121
-0.0040696
0.000573871
0.00108162
0.000683096
-0.0056368
0.00387208
-0.0053035
0.00776071
0.00235098
0.00802241
-0.00170078
-0.00867261
-0.00509626
0.00501022
-0.00792519
0.00801123
-0.000771514
-0.00386566
0.00135232
0.00328485
-0.00424906
0.00800441
0.00237089
-0.00276023
0.000619111
-0.000229776
-0.00261212
-0.00835088
0.00261301
0.00834999
0.00549425
-0.00548367
-4.92109e-05
3.86335e-05
0.00443376
-0.0051765
0.00110293
-0.000360182
0.00113764
0.00444603
-0.00792561
0.00234194
1.96354e-05
0.00384789
-0.00386752
0.00247563
-0.00635293
0.00501493
-0.00239188
0.00642828
0.00541443
-0.00945083
0.00182847
-0.00186297
-0.00866642
0.00870093
-0.00260464
0.00431812
-0.0086672
0.00695373
-0.00623521
0.00496446
0.00650719
-0.00523644
-0.0039193
0.00537126
-0.00347033
0.00201836
-0.000816966
0.00355912
0.000578508
-0.00332066
0.00182377
-0.00265913
0.00274299
-0.00190763
0.00340423
0.00126758
0.00111939
-0.00579121
0.00975944
-0.00663106
-0.000397954
-0.00273043
-7.23897e-06
-0.00474587
0.00475311
0.00295053
-0.00432174
-0.0132477
0.0146189
-0.000594771
-0.00642437
-0.0019474
0.00896654
-0.000394036
-0.00298074
0.00337478
0.000903255
0.00427497
-0.000679519
-0.00449871
-0.00119987
-0.00433174
0.00349535
0.00203626
0.00331132
-0.00277274
-0.00487177
0.00849462
-0.00661376
0.00186504
0.00197547
-0.00384051
0.00640831
-0.000202342
-0.000780366
-0.0054256
-0.00122627
-0.00208552
0.00331179
0.00230714
0.00153316
0.0128074
-0.0154012
-0.00544284
0.00803664
0.00198131
0.00422098
-0.00322838
-0.00297391
-0.00449797
0.00859993
0.0057208
-0.00982276
0.00505721
0.00175486
-0.000677155
-0.00613491
0.0084105
-0.00560821
0.0036196
-0.00642188
-0.00470084
0.00214739
-0.00589024
0.00844369
-0.00763212
0.01368
-0.00535971
-0.000688191
-0.000200381
-0.0032897
-0.0045267
0.00801677
0.00621509
0.00256572
-0.00729011
-0.0014907
0.00331501
-0.00883574
0.00557495
-5.42243e-05
-0.00782867
-0.000296931
0.00512249
0.00300312
-0.00157179
0.00405915
0.00176467
-0.00425203
-0.00099725
0.00399885
0.00321554
-0.00621713
-0.00814443
0.00418824
-0.000398904
0.00435509
0.000754635
-0.00223471
0.00442989
-0.00294982
0.00344418
-0.00172839
0.00122892
-0.00294471
0.00335617
0.000646024
0.000326028
-0.00432823
-0.00497842
0.00534219
0.00197763
-0.0023414
-0.001171
0.00627673
0.000127231
-0.00523296
0.00505472
-0.00296659
-0.00195978
-0.000128356
0.00441335
3.52867e-05
-0.00444863
0.00321714
0.00249111
-0.00056478
-0.00514347
0.00149681
0.0039539
0.00338463
-0.00883534
-7.849e-06
-0.00710405
0.0071119
-0.00370304
0.0143432
-0.00209207
-0.00854805
-7.15338e-05
0.00535772
-0.00528619
-0.000358178
-0.00386559
0.000695266
0.0035285
-0.00696169
0.00354904
0.00269184
0.000720814
0.00141887
0.00118023
-0.00813775
0.00553865
0.00417491
0.00659485
-0.00246484
-0.00830492
0.00627423
-0.00214524
-0.00600567
0.00187668
-0.00783178
0.00446358
0.0119467
-0.00857847
-1.96396e-05
0.00298306
-0.00298284
1.94146e-05
-0.00308888
0.00305678
3.21063e-05
-0.00797483
0.000122884
0.00335398
0.000887866
0.00192131
0.00525978
-0.00806896
0.00417993
-0.00497139
0.0032061
-0.00241464
-0.00396111
0.00346962
-0.000130911
0.000622404
-0.000833815
-0.00653216
0.00836488
-0.000998904
-0.00290797
0.00139999
0.00460519
-0.00309721
0.00507114
-0.00195589
0.000750436
-0.00386568
-0.00339573
-0.000592971
0.00397685
1.1853e-05
-0.000575339
-3.08059e-05
0.00546458
-0.00485843
0.000704358
-0.00059068
0.00552029
-0.00563397
-0.00496318
0.00693072
-0.00725975
0.00529222
2.53966e-05
-0.00626099
0.00623559
-0.00222259
0.000196761
0.00560449
-0.00357866
-0.00428923
0.0050145
-0.00683866
0.00611339
-0.00439939
0.000335146
0.00134192
-0.00202407
0.00549268
0.000306295
-0.0037749
-0.00146912
0.000206065
-0.00249608
-0.0021597
-0.00702155
0.00705279
0.00212845
-0.00312885
-0.000365442
-0.000788175
0.00428247
-0.0107058
0.00361586
0.00105275
0.00603717
-0.00341957
0.00778231
-0.00384827
-0.000514477
0.00238636
0.000930842
-0.00478632
0.00468596
0.0047791
-0.00946505
0.000634802
0.0102318
-0.00237513
-0.0084915
-0.000128695
-0.000181695
-0.00448883
0.00479922
-0.00491301
0.00809376
-0.00326374
8.29944e-05
0.0046676
-0.00294789
-0.00423068
0.00251097
0.001158
-0.000155365
0.00141735
0.00717351
0.0020033
-0.0103906
0.00121381
-0.00497209
-0.000649211
0.00162978
0.00399152
0.001894
-0.00209285
-0.00284552
0.00863122
-0.00580699
0.00451427
-0.0073385
-0.000958048
0.00557731
-0.00964584
0.00502658
0.0033608
-0.00424491
-0.000431161
0.00131527
-0.00372731
-0.00129849
-0.000125786
0.00515159
-0.00277692
-0.00262512
0.00540204
0.000693127
-0.00741768
0.00658223
0.000142319
0.0028558
-0.00275518
-0.00287754
-0.00466981
0.00592582
-0.0011262
-0.000129812
0.00667104
0.00183754
-0.00719127
-0.00131732
-0.00257393
-0.00377837
-0.000435891
0.00678819
0.00418971
-0.00127585
0.00485676
-0.00777063
-0.00470333
-0.000259858
-0.00564766
0.00302254
0.000727341
-0.00633459
0.00202707
0.00358018
0.0018307
-0.00655592
0.00360969
0.00111554
0.000984324
0.00025501
-0.00492917
0.00368984
0.000756414
0.00323539
-0.000216277
0.00549519
-0.00108572
-0.0041932
-0.00216002
-0.000217058
-0.00201355
0.00439063
-0.0012746
-0.00171637
0.00328195
-0.000290983
-0.00515685
-7.61498e-05
-0.00871091
0.00312809
0.00458557
0.012328
-0.000101607
0.00167643
-0.0139028
-0.00539669
0.00838288
0.0017016
-0.0046878
-0.00154084
0.000844691
0.00531579
-0.00461964
0.000646999
0.00183832
-0.00142148
-0.00106383
-0.00927633
-0.00192035
0.00800104
0.00319564
0.000201127
0.00389074
-0.00078055
0.00011843
0.00197139
-0.00618843
0.00409861
-0.00385085
-1.39278e-05
0.00141949
0.00244529
-0.00521677
0.00644739
-0.00102949
0.0029508
-0.00266076
-0.000290036
-0.00437508
0.000628732
-0.00339372
0.00714007
-0.00196575
0.00295958
-0.00228101
0.00128719
-0.00422607
0.00475899
-0.00196626
0.00143334
0.00191461
-0.000316173
-0.00456656
0.00296812
-0.00188868
0.011843
-0.0159405
-0.00174477
-0.00121743
0.00119174
0.00177046
0.00566804
-0.00884467
-0.000402974
0.00357961
-0.002408
0.00179712
0.00309642
-0.00248553
-0.000710295
0.00379885
-0.00104952
-0.00203904
-0.00427945
0.000949814
0.000999522
0.00233011
-0.00236111
0.0002033
0.00215781
0.00551282
-0.0026243
-0.00279919
-8.93326e-05
0.000397877
0.00271558
-0.0041217
0.00100825
-0.00295298
-0.00358178
0.00365194
0.00288282
-0.00151541
0.00391249
-0.00335519
0.000958111
0.00142365
-0.0026955
0.00185761
-0.000585759
0.00513842
0.000135653
-0.00527407
0.00441738
-0.00543589
0.00268967
-0.00167115
-0.00694503
-0.000192121
0.00713715
0.00286943
-0.00237902
0.00055525
-0.00104566
-0.000221535
0.00492166
-0.00537423
0.000674113
-0.00248061
0.00310495
0.000799314
-0.00271611
0.00582079
0.00537745
-0.00468289
0.00464349
3.93927e-05
9.60386e-05
-0.00743053
0.00733449
0.00995055
0.00120092
-0.00211751
-0.00903397
0.0020817
-0.00811405
-0.00100736
0.00703971
0.00158518
0.00188194
0.00105342
-0.00452053
-0.00279084
-0.00279073
3.93766e-05
0.0055422
-0.00133241
0.00182691
-0.00328534
-0.00615192
0.00110894
0.00807534
-0.00303236
-0.0120857
0.00885371
0.0038925
-0.000660456
0.00535617
4.48647e-05
-0.00540103
-0.00301227
-0.00405405
0.00262247
0.00444385
-0.00304637
-0.00442792
0.00132237
-0.00439542
0.0023897
0.00276213
0.00177176
-0.00232662
-0.00421456
0.00476941
-0.00301836
2.97966e-06
0.00301538
-0.00701017
0.00283344
0.00288214
0.00129459
0.00177332
-0.00474065
-0.00142809
0.00600769
-0.00190386
-0.000151652
-0.00395218
-0.00402425
0.00666906
0.00395671
-0.00660152
-0.00117339
-0.00246634
0.000898132
0.0027416
-0.00171221
-0.00137811
0.00309033
-0.00297538
-0.00624777
-0.00286259
0.00138277
1.89026e-05
0.00279042
-0.00419209
0.00570479
-0.00415156
-0.00601122
0.00445799
-0.00211432
0.000753969
0.0042743
-0.00291395
0.00404109
-0.00284515
-0.00040082
-0.000795111
-0.00463717
0.000752324
0.00362272
0.000262132
-0.00288799
0.00661905
-0.00714229
0.00278421
0.000206858
0.00415122
0.00667855
-0.00532959
-0.00419877
0.00284981
-0.0052954
0.0011029
0.00989729
-0.0051701
-0.00340831
0.0055648
0.00301362
-0.000607303
0.00539648
-0.00204579
-0.00274339
0.000303477
-0.00315836
-0.0020803
0.00493518
0.00613528
-0.00404766
-0.000248319
-0.0018393
0.00188444
0.00140773
-0.00462458
-0.00129065
0.00146209
0.00360266
-0.0037741
-0.00106331
0.00556176
-0.00685635
0.0023579
-0.00331236
0.000798377
0.000802444
0.00171154
-0.0073246
0.00744635
-0.000121751
0.00505189
-0.00497762
-7.42733e-05
0.00202466
-0.0078165
-0.00300158
0.00879342
0.00179656
0.00341625
0.00079487
-8.71621e-05
0.00300913
-0.00292197
0.00479
0.00429491
-0.00908491
-0.00534078
0.0032609
0.00230411
-0.000224237
-0.00299926
0.000988382
0.00243872
-0.000427846
-0.00890255
0.00415688
0.00487394
-0.000128266
-0.00291261
-0.00324395
0.0031382
0.00458282
-0.00072205
-0.00295383
-0.000906941
-0.00497812
0.00537219
-0.00328206
0.000857575
-0.00548329
-0.000279452
0.00490517
-6.21078e-06
-0.00269678
0.00270299
0.013315
0.000108133
0.00141612
-0.0148392
-0.00049688
-0.0009725
-0.00716965
0.00863903
0.00232124
-0.00314372
-0.00146739
0.00228987
0.000891666
0.00690581
-0.00278227
-0.00501521
0.00753619
-0.00754061
-1.7616e-05
2.20396e-05
-0.00421633
-0.00380211
0.00594351
0.00207493
0.002468
0.00189505
-0.00492252
0.000559467
3.32029e-05
0.00456166
-0.00466173
6.68599e-05
-0.00630389
0.00201733
0.00510815
-0.000821584
0.00485938
0.0029392
-0.0049199
-0.00287868
0.000111547
-0.00429468
0.00217926
-0.00112765
0.00648458
-0.00349628
-0.000455282
-0.000545552
0.00449712
-0.00581328
0.000319337
0.00549394
0.00848976
0.00367428
-0.0027565
-0.00940755
-0.00554656
0.000116328
0.00554178
-0.000511729
-0.0013338
-0.00340156
0.00524709
-0.00069237
-0.000660992
-0.00178114
0.00313451
0.00139981
-0.00709266
0.00534767
0.000345173
0.00441835
-0.000688228
-0.00429894
0.00056882
-0.00547197
0.001151
0.000452917
0.00386805
-0.00207362
0.00135339
-0.00278506
0.00350529
0.00119426
0.000769809
-0.00705968
0.00509561
0.000245468
-0.00477022
-0.000331655
0.0048564
0.00474049
0.000619351
-8.07717e-05
-0.00527907
-0.00563848
0.00131197
0.00510316
-0.00406325
-0.00539776
0.00946101
0.00783054
-0.00399363
0.00167704
-0.00551395
0.000613228
0.00440926
-0.00270125
-0.00631773
0.00117374
0.00222672
0.00291728
0.0078008
-0.00803238
0.000231576
-0.00468483
-0.00159287
0.00328027
0.00299744
-0.00611559
-0.00474959
0.00318516
0.00768002
0.00641863
-0.00670287
-0.000820333
0.00110457
-0.000934583
0.00311298
-0.00245205
0.000273654
-0.00796731
0.00260051
0.00182955
0.00353724
-0.0117628
0.0146511
0.00242172
-0.0053101
0.00524405
-0.011376
-0.000569771
0.00670168
-0.00467091
0.00592388
-0.0109734
0.00972044
-0.0049196
0.0108575
0.00107445
-0.0070123
0.000431594
0.00512002
-0.00119693
-0.00435468
0.00780394
-0.00585601
-0.000194978
-0.00175295
-0.00137495
-0.00132128
0.00201855
0.000677675
-0.00370573
-0.00769283
0.00655257
0.00484599
-0.00523681
0.00698057
0.00606018
0.0042133
-0.00309799
-0.0038587
0.00274339
0.00157896
-0.00204231
-0.000902272
0.00136561
0.00350104
-0.00346376
-0.00460884
0.00457156
-0.0014162
0.00406211
-0.0002937
-0.00235221
-0.00560252
-0.000893804
0.00692792
-0.00424613
-0.0010437
0.00524916
4.06723e-05
0.00171595
-0.0038336
0.00211765
0.00137636
-0.00182669
0.00681372
-0.00636339
0.00532856
-0.00749016
0.00108399
0.00107762
0.00338305
-0.00364945
0.000266398
-0.00537927
0.000142458
0.0048167
-0.00183331
-0.00464607
0.00166268
0.00151263
0.00122724
0.00537272
-0.00811259
0.00329686
-0.00357916
0.000282308
-4.04885e-05
0.0041974
-0.00474519
0.000588284
-0.00589337
-0.000566909
0.00783664
-0.00256007
-0.000437767
0.000591791
0.00240605
0.000353663
-0.00292038
0.00215325
0.000413465
0.0047861
-0.0045832
-0.00113748
0.000545991
0.00787033
-0.00495727
-0.00345905
-0.00271047
0.00574195
-0.00303149
-0.0073168
0.00280067
-0.00171796
0.00623408
0.00574998
-0.0052061
-0.00851119
-0.00278877
-0.0033406
0.0114743
-0.00534498
-0.00823405
0.00524577
0.00747847
-0.0044902
-0.000181027
-0.00704152
0.00722255
0.0111395
2.19055e-05
-0.00641715
-0.00474429
0.0064798
-0.00417723
-0.000578094
-0.00172448
-0.00471716
0.00335212
-0.000852092
0.00221713
6.41672e-05
-0.00485162
0.00478745
-0.00356892
0.00367377
-0.000104851
-0.00257162
-0.00271453
-0.00695735
0.0122435
-0.00656005
0.00143213
-0.000730012
0.00585793
0.0015127
0.00245455
0.00675057
-0.00609438
-0.00503691
0.00438072
-0.00187206
-0.00386136
0.00425968
0.00147374
-0.00388382
-0.00197456
0.00586422
-5.83917e-06
0.00127231
-0.000732469
-0.00360422
0.00306438
0.00428495
0.000190655
-0.00547798
0.00100238
0.00132251
-0.000921386
0.00141122
-0.0017036
0.00169774
-0.00140535
0.0035006
0.00342944
-0.0035014
-0.00342864
0.00172842
0.0040412
-0.00417723
-0.00159239
0.0036794
0.00159456
-0.00288761
0.00452571
-0.0054884
0.00115335
-0.00601472
0.004205
0.00226436
-0.000454642
0.00718571
-0.00237497
-0.00752121
-0.00191513
0.00510164
0.00256347
0.00497542
-0.00242427
-0.00419176
-0.00114176
-0.000681204
-0.00669637
0.0062612
0.000591447
-0.000156278
-0.00041578
0.00837462
-0.000867554
-0.00709129
-0.00546868
0.00111562
0.00243793
-0.0008778
-0.00556903
0.00156422
0.00488261
0.00500119
0.000696386
-1.74973e-05
-0.00568008
-0.00747167
-6.00728e-05
5.07007e-05
0.00748104
-0.00190934
0.00209677
-0.00339027
0.00320285
-0.00515148
0.00651075
-0.000669139
-0.000690131
0.00677632
-0.0063233
-0.0056045
-0.0049962
0.00450951
-0.00142994
0.00191663
0.00406413
-0.00018364
-0.00127714
-0.00260335
-0.00758452
0.00731631
0.00358226
-0.00331406
0.00356427
0.00135768
-0.000453047
-0.0044689
0.00130181
0.00329926
-0.00412611
-0.000474965
-0.00244612
0.00246056
-1.44359e-05
-0.00142867
-0.00364681
0.00365927
0.00548498
-0.0054353
-4.96747e-05
-0.00310769
-0.00246479
0.00242875
-0.000319712
-0.00372591
-0.00040481
0.00445043
-0.000418829
-0.00321992
0.0028804
0.000758345
0.00511884
-0.0058215
0.000702655
-0.00650921
0.00667325
0.00612003
-0.00628407
-0.00437039
0.00337482
-0.00229692
0.00329248
-0.00173769
0.000742453
0.00157342
-0.000578176
-0.000182251
0.007895
-6.92444e-05
-0.00764351
-0.00396648
0.00192301
0.00195391
0.00226921
0.00288847
-0.00503961
-0.000118076
0.000218859
-0.00626787
-0.000245456
-0.00572083
0.00571874
2.08573e-06
-0.00382727
0.00192595
-0.00421427
0.001304
-0.00288569
0.000114297
0.00249012
0.00108107
0.00379782
7.4163e-05
-0.00324834
-0.000623635
0.00318008
-0.00793599
0.00636275
-0.00160684
0.00130907
-0.00178358
0.00663098
-0.00615646
0.00810821
0.00239853
-0.00124672
-0.00926003
-0.00207814
-0.00341317
-0.00110741
0.00659873
0.00246083
0.0102443
-0.00925135
-0.00345375
0.0011792
0.00743031
-0.00717439
-0.00143512
-0.00257154
0.000339124
0.00527133
-0.00303892
-0.000896254
0.00728766
-0.00393058
0.0052764
-0.00416493
-0.00162739
0.000515923
0.00173471
0.00454143
-0.00627614
0.0042491
0.000943471
-0.000566254
-0.00462632
-0.00391488
0.00312939
0.000314649
0.00047084
-0.0003751
-0.00551455
0.000322923
0.00556672
-0.00404173
-0.000513861
-0.000167088
0.00472268
0.00233884
-0.00519028
5.1227e-05
0.00203972
0.00309934
4.63711e-05