/*--------------------------------*- C++ -*----------------------------------*\
  =========                 |
  \\      /  F ield         | OpenFOAM: The Open Source CFD Toolbox
   \\    /   O peration     | Website:  https://openfoam.org
    \\  /    A nd           | Version:  10
     \\/     M anipulation  |
\*---------------------------------------------------------------------------*/
FoamFile
{
    format      ascii;
    class       volScalarField;
    location    "28.5";
    object      SgRate;
}
// * * * * * * * * * * * * * * * * * * * * * * * * * * * * * * * * * * * * * //

dimensions      [1 -1 -3 -1 0 0 0];

internalField   nonuniform List<scalar> 
111485
(
1.3578e-09
0.00782287
0.0243847
5.5445e-11
0.0490856
3.1899e-08
0.0465414
0.00617059
0.0190846
0.00124979
0.0469222
0.00949395
0.00483577
0.296335
0.00651244
0.0301946
0.210553
2.62487
0.0103449
4.79985e-08
0.0372089
3.23025e-09
0.0269943
0.0345
0.00878519
3.52889e-08
0.0393165
0.00179984
0.0152596
0.0481393
0.0446903
0.0196187
2.17986e-07
1.48051e-06
0.00702654
9.18624e-05
0.147314
0.210061
0.00245188
0.0242759
0.0435982
0.0707978
0.0158493
0.00167871
8.26191e-05
1.58668e-06
0.0294027
0.000711288
0.0474346
4.29631e-07
1.09608e-06
1.73546e-05
4.63526e-07
0.0515742
1.50636e-06
0.0438102
0.00302916
4.45205e-08
7.07253e-05
0.00479948
0.0160545
2.65228e-07
0.00491042
0.0985319
6.53138e-06
0.00312211
0.316424
0.0943801
0.00118936
0.00633287
6.77908e-05
0.00676928
1.12732e-05
0.00301393
4.64802e-08
0.000721091
1.49683e-08
0.0411163
2.80174e-08
3.12876e-05
0.281083
0.560527
4.47711e-08
5.22642e-09
0.00942095
0.00383716
0.143783
0.0254699
0.000307968
0.00745565
0.000256227
0.0402537
0.0120313
5.8497e-05
0.052131
6.67741e-09
0.0270607
0.00183771
0.00153631
0.00169765
1.39997e-09
0.0176378
1.96846e-06
0.0179496
0.00457774
1.64392e-05
5.88799e-09
0.0075921
0.00422539
0.000730791
0.00558813
0.00475369
0.00382695
0.00335407
1.04253e-07
3.44546e-05
3.05511e-08
6.56163e-06
0.0129216
5.03617e-09
9.16989e-08
0.000189995
0.0753807
2.27231e-06
0.00158253
0.0278363
0.000107352
0.00173918
2.91929e-10
0.00034319
0.00166911
0.0329305
0.0471977
0.000175267
7.85284e-05
0.0482741
8.75661e-10
0.0425337
0.0254169
0.0027377
0.000324528
0.00200116
0.202928
0.00270958
0.00412104
0.013064
9.40096e-10
8.96168e-10
4.77181e-08
0.0281494
0.00155853
0.0285443
0.115743
0.00468605
3.56159e-05
0.0109343
0.0161462
0.0110319
0.000824494
5.43596e-06
9.61936e-10
0.0523639
0.0224969
7.56336e-05
6.37184e-05
0.00589835
0.00339471
0.0271148
0.00156891
0.000170505
1.58904e-09
1.52071e-08
0.198089
1.21482e-10
0.00548429
0.00206396
5.24421e-07
9.49801e-06
3.59249e-08
5.81457e-06
9.9538e-06
3.7137e-08
0.00152135
0.00677913
0.0299499
0.00414698
0.00772746
0.00409555
0.000464763
1.78912e-07
0.00492199
5.78912e-06
7.1348e-06
0.00659323
0.0103512
0.0288139
0.0115123
0.00502886
8.46128e-07
0.00681615
0.000500668
0.0016791
0.0145624
0.00234065
1.82891e-06
0.00386524
0.024931
1.18582e-05
0.000175792
0.00795132
0.00199818
0.000381217
8.67987e-06
7.80854e-09
0.00842083
0.000312401
0.119394
7.12036e-09
0.00671368
0.0206432
0.119074
8.33391e-08
0.00331882
0.0138813
0.000277948
6.85763e-09
4.47771e-10
0.149973
0.00418933
2.36232e-05
9.38535e-05
0.00946021
0.00783277
0.161148
3.88041e-05
2.09428e-05
0.160987
4.65622e-08
0.00242159
0.00961191
0.0167064
0.011667
0.00967105
3.90106e-06
0.00195391
0.000629739
7.85156e-06
1.2035e-08
0.030989
0.15722
1.8324e-05
0.0065862
0.0108186
7.85997e-10
0.00019322
0.000113113
2.79188e-07
6.73137e-05
0.0997721
1.85376e-08
0.0147554
0.0106515
0.00369098
3.37092e-09
0.0118113
6.45727e-11
6.08534e-08
5.09966e-07
0.16503
0.023068
0.00620776
0.00552949
0.213713
0.0124288
0.00155618
0.000820189
0.0321915
0.00870678
4.52199e-07
5.35908e-09
0.111577
0.0227008
0.0246081
0.0117915
1.89965e-09
0.224855
0.268089
0.00304177
0.000321322
3.49221e-05
0.0138731
0.00219425
0.0019963
2.00406e-08
0.000649507
2.95153e-09
0.000359636
0.000276277
0.233595
0.0678076
0.358698
1.77441e-08
0.0861147
0.00897364
0.00172569
3.09077e-09
1.14981e-07
0.024621
0.000300477
0.0568804
0.0040317
0.013408
0.0192148
3.05128e-05
3.05215e-08
3.53671e-08
0.00377605
0.00442494
0.251334
0.184049
0.000793302
1.77628e-09
8.73088e-09
1.40537e-08
8.48394e-05
0.0601947
0.0118081
2.1762e-06
0.00530013
7.16037e-05
0.0607996
0.0671632
0.00599791
0.0114489
0.00934084
0.0483529
4.99827e-05
7.38022e-07
0.00951855
0.0187499
0.00490759
7.12708e-08
0.151388
0.000327845
0.00230941
0.00805482
0.000334554
0.0284905
0.0391559
0.0375064
0.00359401
0.00772495
0.0257966
0.0131524
9.11363e-06
1.96338e-07
5.46884e-07
7.13354e-07
0.0310918
0.372189
0.032593
0.0673466
0.0530414
0.0182684
1.75088e-08
4.07735e-07
0.0167641
0.0469116
0.0822337
0.0458942
0.0497099
0.0228075
2.50718e-08
0.0135114
0.000287889
4.11533e-10
0.000978509
0.016668
1.576e-05
0.00897688
0.00911465
0.00819845
0.00141385
0.00266269
0.00546569
4.32116e-05
1.16193e-06
0.00268881
3.89815e-07
0.00633971
0.118083
0.0303928
1.17594e-07
0.0276943
0.154958
0.00830973
0.327023
6.50402e-08
0.0478946
0.0189039
7.79749e-09
0.000848555
0.00239875
3.75613e-09
0.0320381
0.0109229
0.00520084
4.58704e-07
2.62391e-08
0.000758564
3.7762e-09
0.0125264
3.62899e-06
4.2291e-10
0.0167058
4.05078e-05
0.259193
0.030141
2.02224e-09
7.94993e-05
0.00164446
9.88232e-05
0.000204337
0.0152548
0.121794
0.829735
5.50416e-05
0.207709
0.000757061
4.58351e-08
0.0390461
0.0308578
2.03729e-07
0.0014213
0.000308998
8.32912e-05
0.0236915
0.0239244
0.0138674
3.67327e-08
0.35238
0.016703
0.0228127
0.00439148
9.16708e-05
0.00127259
3.56765e-08
0.253622
0.363758
2.55985e-08
0.008187
0.00036411
0.000103552
4.04937e-09
3.01476e-05
3.53788e-09
0.288876
0.00964582
0.00630367
0.00213801
0.00258723
1.8594e-07
0.00194437
4.99693e-07
0.0413482
1.54599e-07
5.98366e-07
0.0523965
0.0376485
4.03518e-08
1.55374e-09
0.000383502
8.46474e-08
1.60631e-06
0.00107277
2.7534e-08
6.16634e-05
6.7425e-08
0.0741469
6.96033e-08
1.65926e-06
3.68081e-08
0.00702741
4.31447e-07
0.224696
0.00200434
0.237861
9.86011e-09
0.000974702
2.59122e-06
2.67919e-09
0.372669
0.145016
0.0267286
0.0251304
3.06184e-05
0.00203131
0.082441
0.00851799
0.00105494
0.293178
2.55594e-08
0.0232354
0.000108472
0.00504703
0.0591354
0.0764061
0.000114995
0.0211936
0.000248392
0.000786127
0.0820699
0.00204729
2.15607e-08
0.080003
0.0489011
3.55601e-06
1.14547e-06
1.96074e-05
1.75707e-09
0.00169529
0.0546945
3.50111e-07
1.78601e-07
0.00250368
4.18007e-09
0.0340473
3.02416e-08
0.000320012
2.01432e-09
0.116771
0.114796
0.000998721
0.0127727
0.0653361
0.0818133
4.83451e-08
2.55448e-07
0.014722
4.54337e-08
0.000201684
1.77998e-05
0.00165175
0.0426462
0.0644528
2.38853e-09
4.67961e-05
0.0177521
0.00325623
0.00174837
0.00385998
0.00689542
0.0206655
9.76489e-07
0.0254715
0.00596364
2.58904e-09
0.12659
0.0414499
0.01549
1.3467e-06
0.00469055
0.00696213
0.00227131
0.00399301
0.000385313
0.0136824
0.001325
0.000130374
0.0228377
0.128851
0.000776782
7.44108e-05
0.00358775
0.727913
3.17025e-08
0.000408167
4.59749e-06
4.06843e-05
0.00731177
0.00315031
0.00274446
0.000452067
0.000167299
0.0159327
0.0110626
5.16366e-08
0.000198606
0.0012977
2.89401e-08
5.59572e-10
5.60969e-08
3.19791e-08
0.0126185
1.78159e-09
0.0347483
0.00845952
0.00193296
0.0989125
0.3301
6.03851e-05
0.00845944
0.0371446
5.53547e-08
0.0516718
1.80878e-07
1.89187e-08
4.77855e-05
0.00421582
0.121573
0.0280118
0.00624729
2.6927e-06
0.0903734
0.146212
0.0287403
0.0282414
0.000482612
0.197001
0.0416158
0.0538371
0.0467508
5.96053e-06
0.00032305
0.0405412
0.00806747
0.00141265
0.0275589
0.026074
1.14004e-06
0.0109693
0.000665819
3.2694e-05
0.0348537
0.000254345
0.000660442
0.0108527
0.0407936
0.00132555
0.0215512
0.0197128
0.00720497
3.27137e-06
0.0104536
0.000332527
0.00019805
0.01719
0.0180315
0.0357478
4.6497e-07
0.00188539
4.45356e-06
4.001e-09
0.0778915
1.60268e-08
0.136826
5.89253e-05
0.0117474
8.04384e-08
0.0295416
8.36883e-05
0.0427691
1.34131e-09
0.0303544
3.00988e-07
1.65393e-08
8.16778e-07
0.321533
0.000522169
2.96218e-05
0.0411809
1.04166e-07
2.9223e-09
0.205417
0.0697765
8.36577e-05
0.00200473
0.000130382
6.48774e-08
0.0374112
0.00872803
0.179864
6.1938e-10
4.69537e-09
0.000415931
0.00107373
0.000132666
4.09161e-07
0.0632196
0.00722897
2.66131e-08
1.23035e-07
0.0456685
0.042174
0.00228203
6.27218e-10
3.84511
0.375462
0.192082
1.60708e-08
1.89159e-08
0.0550187
0.000454039
3.95624e-05
0.000591511
0.108776
0.00262868
0.0112007
0.0636852
0.0520166
0.00191892
6.91539e-08
1.2029e-06
1.35081e-08
9.40158e-09
7.72459e-08
9.4026e-10
0.0224304
7.1092e-08
1.97165e-08
3.25226e-07
0.0113123
0.0235497
1.0784e-07
5.83593e-07
0.105536
0.0143649
0.00990239
2.69616e-08
7.44959e-09
0.0372547
7.95121e-10
0.00177166
0.00263783
0.00397502
1.22871e-07
1.28958e-10
9.47789e-10
1.60658e-09
0.0145903
1.86206e-08
6.56487e-08
0.00108619
4.79278e-09
0.0233128
0.00201223
2.35635e-06
0.0368658
0.338818
0.00254284
0.281401
0.000250231
0.0434288
0.210005
8.25767e-05
0.02371
0.0675633
0.00599036
2.04762e-05
0.0890569
0.787138
0.0100381
3.74621e-08
0.00241735
0.00248235
0.00122306
9.30174e-05
1.84795e-09
1.56294e-10
0.0134754
3.8653e-05
0.00274345
3.91768e-06
0.00139349
0.00143378
0.0367999
0.000567375
1.50569e-08
0.0336152
8.09416e-06
0.0205021
2.75185e-08
4.98314e-05
0.000206676
1.788e-06
3.47972e-07
0.0407036
1.64065e-09
0.0101795
0.0640729
9.76113e-09
0.0726862
4.30268e-05
0.0372551
0.000610813
1.01177e-07
2.78495e-05
0.0016417
0.0458656
0.00411941
0.00132794
0.161911
0.000203075
0.00395644
1.00123e-06
1.06821e-05
0.49743
0.162663
4.30618e-08
0.242287
0.000871173
0.00016269
0.00998734
0.000208542
0.00121661
0.022945
0.00948108
0.00225246
0.00483762
0.00198304
0.0458645
8.19638e-08
0.0330766
0.0265594
9.80055e-08
0.00842187
0.271709
0.0284569
2.96499e-07
0.00189198
1.56563e-08
0.0102038
0.226717
2.3637e-08
0.179757
0.343501
0.00135589
0.00497765
1.0975e-06
0.0486871
7.80008e-05
0.00162377
0.0012332
0.000330544
4.30283e-06
0.0455817
0.00693347
9.17547e-10
0.00042923
0.000540956
0.000913728
0.000467316
0.000864338
0.000171874
1.03731e-09
6.88393e-05
0.0226513
4.12339e-07
0.001909
0.352149
1.7509e-07
3.29551e-08
0.00324491
0.00330147
3.25955e-09
0.000610543
8.70792e-08
1.58439e-08
1.25128e-08
4.49191e-07
5.06803e-06
1.65619e-07
0.000347409
0.0521187
1.44748e-09
5.03146e-07
0.00451832
0.116259
0.00175739
0.00920248
0.0327456
1.06436e-08
0.000289508
4.07009e-09
2.28588e-09
0.000575635
0.148599
0.0420637
8.67177e-09
6.71158e-08
0.0358957
1.84562e-08
0.0232634
4.68242e-08
0.00672684
6.42985e-09
0.00196158
0.0263112
2.83339e-09
7.56855e-07
5.59637e-07
0.00143754
6.26441e-07
2.36663e-08
2.09389e-06
0.00445537
0.0543941
0.00420377
0.000615718
0.00107039
4.31036e-08
0.00140961
0.00187267
0.0439484
2.92633e-06
0.000224534
0.0053754
1.17656e-07
9.55368e-06
0.000151192
1.00912e-07
0.00821104
0.00163466
0.00316214
0.0734796
1.36052e-09
0.0228957
0.061227
0.000121943
7.77429e-05
5.50306e-09
0.0264882
1.85917e-08
1.13827e-06
2.9116e-05
0.0522216
5.53787e-07
0.00232994
2.7661e-05
0.000846367
1.69367e-05
7.06981e-09
3.83611e-06
1.66315e-09
0.00246571
0.000646057
0.301816
3.15995e-08
5.07025e-07
0.00207306
1.41522e-10
4.79299e-05
4.46625e-07
0.0358957
0.000851368
0.0320639
1.4671e-08
0.00140598
0.000171302
6.3208e-05
0.000294155
4.6346e-08
0.00134017
0.0244697
0.137815
0.00116015
0.00031804
6.32815e-08
6.70143e-10
2.35187e-08
0.187057
0.0751986
0.00768799
6.80841e-10
0.174182
2.97772e-08
0.214713
0.00308842
7.636e-07
9.26418e-08
3.41398e-06
6.18064e-07
0.0420881
2.1237e-06
0.000123516
0.325289
0.00688093
7.21858e-05
3.39871e-05
7.02269e-05
5.21736e-05
3.28244e-08
3.28294e-10
0.0260196
0.000427623
8.23485e-09
2.01837e-07
0.000610766
4.59133e-07
0.00154695
0.423954
1.76853e-06
0.00362957
3.99197e-10
0.000392062
2.64834e-07
0.333141
3.12061e-09
0.119435
0.00554507
0.000742088
0.0184914
0.0346518
0.00095039
2.57682e-06
0.000581851
2.3118e-06
0.00467528
6.22411e-08
1.8718e-06
8.60698e-05
2.40028e-06
0.0710667
2.76857e-07
0.00733615
0.0085891
2.06998e-09
0.000385598
8.5736e-08
0.000846821
0.000844982
6.85968e-08
0.0179962
0.000237473
5.54119e-07
0.0235353
0.190835
0.00374071
0.0109565
1.68499e-10
0.0468818
9.02611e-06
1.92212e-07
0.037014
4.95879e-06
0.114956
9.6808e-09
0.15283
0.000728917
2.1277e-09
0.00112197
4.09778e-07
2.62086e-09
0.00316802
0.00102374
0.0106516
7.57327e-09
1.11836e-06
4.66771e-08
0.000896045
5.06568e-05
0.0343441
6.26697e-06
0.000935653
6.7948e-05
0.00118423
3.09385e-05
3.53959e-06
1.09214e-06
0.0183484
0.00986608
0.0182783
0.0359326
0.0440709
0.000269125
0.0482475
1.28285e-09
0.00955355
1.19785e-07
6.27364e-05
0.000468956
0.0067598
0.000431005
0.000539783
0.00200033
7.55325e-10
0.0072175
0.00842805
0.000217245
0.000804891
0.0153156
0.000862472
1.68698e-06
0.0299598
1.37647e-07
5.61363e-09
0.000265631
0.0750041
0.000998067
6.65815e-07
0.0477427
0.000673767
7.22896e-07
1.38542e-07
0.000601808
2.91947e-06
0.0557431
0.32208
0.000372753
0.000427105
0.0223966
0.00722423
2.11745e-08
1.37796e-08
8.927e-05
0.00403969
0.0351495
0.0551642
0.00958345
3.19384e-08
0.000324091
0.0419477
2.76787e-05
0.00116003
2.56801
0.0443965
0.122629
0.0516436
0.0219359
1.15115e-09
0.00204278
6.647e-07
1.64922e-07
1.95397e-07
7.48512e-09
0.00281223
4.10355e-09
2.08551e-09
9.22299e-05
4.94615e-08
6.71481e-09
9.5789e-07
0.00970975
0.0603402
0.0109363
0.00320457
0.0779032
0.265128
6.02461e-09
0.189311
0.000163866
0.39638
0.0128647
1.09722e-07
9.29608e-05
0.00754582
0.263479
1.74746e-09
0.00119008
0.0192536
0.00464614
1.63765e-05
0.0256845
1.09874e-06
2.42427e-07
0.0792978
1.02021e-08
0.00805465
1.20582e-07
9.30734e-07
0.0082931
0.000461267
0.0027446
1.16661e-06
0.000391423
0.000671718
4.25057e-07
0.000202002
7.51435e-07
0.0235351
1.43563e-07
1.2874e-07
0.255837
0.044775
0.00054055
3.32808e-07
6.35555e-09
0.00466555
0.195944
0.00467821
0.0150936
0.217868
0.020295
2.50579e-09
0.036547
0.00315323
0.00670833
0.0369136
0.0102322
7.96189e-09
0.19372
1.08937e-09
0.0405875
0.00937775
0.0112037
1.37125e-08
0.0133359
1.33615e-06
0.00272713
0.00897677
5.12617e-06
3.09779e-10
4.68673e-09
0.00297425
0.0822443
2.36203e-09
0.00428193
0.0216421
0.000102326
0.00733402
0.0493835
2.34439e-06
0.000141352
0.000849656
6.1297e-08
0.0103164
1.98081e-06
0.0025699
2.92093e-08
2.72789e-08
0.0123034
6.29581e-09
0.00022011
0.00372996
3.05243e-08
8.24101e-08
0.00460518
0.000549267
0.358863
1.18072e-07
0.248451
1.84618e-06
0.000371682
0.000171951
0.00758924
8.40817e-05
0.0808202
0.00560369
5.5214e-05
0.00109252
0.0682571
7.06604e-07
5.03006e-08
0.00042801
0.000787262
0.0425122
1.91095e-07
0.0346251
0.000948364
1.53361e-08
0.232736
9.45746e-09
1.70315e-07
2.38121e-06
0.00288757
0.312265
0.0586957
4.90471e-07
2.48053e-08
1.77014e-09
1.1148e-07
1.09927e-07
6.62761e-07
1.21708e-07
6.69063e-09
6.41197e-08
1.18442e-08
1.84236e-07
0.0643707
0.0381726
2.87065e-09
1.38429e-05
7.74334e-09
7.85553e-08
1.34265e-08
0.0374173
0.0824265
0.0169186
4.51725e-08
1.40529e-08
8.39093e-07
0.00665257
4.09413e-06
1.37149e-07
0.300473
2.68236e-07
3.12548e-06
0.022866
0.000189137
5.36144e-06
0.00892098
0.0244543
3.1757e-08
0.00343356
0.00480401
1.84789e-08
0.0135488
0.0391552
0.0177773
0.00342822
0.0106443
3.75425e-06
1.13326e-07
0.335716
0.0104683
0.00327042
0.0644001
0.00693593
0.0018113
0.0214804
0.00993617
0.000699541
0.0156415
0.00107593
0.0103842
3.37639e-06
0.0240514
0.00843817
0.00162412
0.00144158
5.5236e-09
6.38014e-08
4.76657e-08
6.72151e-10
1.78548e-07
0.00909744
0.0134913
1.91487e-08
2.93268e-09
1.84759e-07
1.73452e-05
4.2607e-09
9.79988e-09
8.24972e-07
1.12689e-06
0.00467862
0.000300842
0.0217129
0.248273
1.15997e-07
1.15821e-05
0.0298119
1.18953e-05
4.47068e-09
1.83091e-08
0.232511
5.62074e-07
5.80523e-09
4.68396e-06
0.234232
0.0135332
0.0335052
0.0345781
1.10045e-06
0.0138896
0.00035589
0.000388752
1.95596e-08
0.0119525
4.96757e-06
1.86199e-07
0.0156435
1.04387
0.197567
6.78942e-06
1.37747e-06
0.0173771
0.0196235
0.017877
0.00557239
0.0071021
1.19687e-08
0.000641409
0.000416439
0.0610963
1.00422e-05
0.27606
3.15169e-08
0.0019736
0.0245995
0.0175228
0.0110647
3.26714e-06
0.00606844
3.60264e-08
9.83315e-06
1.11665e-09
2.03586e-08
0.00244668
0.886877
1.01217e-07
5.29414e-09
0.000426976
0.0229068
0.00177313
0.00682243
0.032179
0.0046692
0.0204277
2.01054e-05
4.52144e-06
0.000205833
0.0289242
0.00553738
0.00331462
1.21918e-06
7.25308e-09
0.0001579
0.0217792
0.00266093
5.04602e-09
0.149308
0.057725
0.00629395
0.00610968
7.35973e-09
0.000197031
0.0067683
0.0222479
8.21034e-10
0.000416462
0.0148273
0.00104878
0.205882
0.00462841
0.00775787
0.00024739
0.00319638
0.0205821
0.0350369
8.47869e-05
0.0220296
0.000120627
0.200215
0.00016464
5.40966e-10
0.00246794
0.0074964
0.000423578
0.0113435
0.000460094
0.000994726
0.000500709
0.0430326
0.00363141
5.29451e-05
0.0369886
0.00128634
1.24893e-07
1.08974e-08
0.102351
0.000519947
0.00104426
1.05856
0.0345701
0.01217
0.000434843
0.0445498
2.27364e-06
3.23048e-06
0.00377845
4.22654e-05
0.00199796
0.00390326
0.00217517
0.00450241
6.43615e-09
0.000213502
0.10421
2.0354e-08
0.0134927
0.00739094
8.04851e-06
0.00391155
0.000135515
4.06161e-08
0.000601239
0.139106
4.79112e-08
5.62186e-09
2.11964e-08
0.1491
0.252317
0.0135753
0.0533321
0.00456581
0.031809
8.00501e-06
0.00778557
0.0120295
0.0229384
0.00150649
0.118429
0.341406
0.402109
0.0100912
0.00882812
0.0353936
0.156996
0.365007
1.40141e-08
0.175569
0.0475178
1.09798e-08
0.000406778
5.94407e-07
2.82469e-08
3.75203e-08
2.29771e-07
1.75667e-08
0.14045
4.58782e-08
0.00693687
0.00128016
2.29383e-08
0.00360688
7.34502e-06
0.013279
6.5486e-08
0.000614524
6.4429e-06
0.0207212
0.000223943
6.71374e-06
0.00412523
0.0271027
0.0157891
0.00375078
0.0261114
0.00342056
0.0223215
0.0519441
0.00943607
8.35063e-07
0.00104123
0.000331435
0.00543753
0.00966865
0.000590356
1.154e-06
5.78581e-05
1.29533e-07
0.00333838
0.0412133
0.000774299
0.329473
0.00249302
0.000361836
1.57124e-08
0.0615453
1.17138e-09
0.00843376
0.0203395
0.00112326
9.69294e-05
0.00176599
0.00662876
0.00178981
0.000786558
0.0062194
0.00599896
0.00259897
2.24242e-05
0.0790774
3.56039e-07
0.0122324
0.0103054
8.03921e-07
5.79082e-10
0.00026152
0.00824419
0.017303
1.40185e-08
0.00215496
0.0443902
0.000213228
0.00437955
0.0860746
1.7068e-09
8.25291e-11
0.0034477
4.18008e-09
0.000104779
0.0114288
2.17493e-05
0.0103523
0.0310321
0.0182466
3.06755e-08
0.00153287
9.05508e-05
0.000133512
0.0460921
2.88238e-08
9.81847e-07
0.0101006
0.00053679
1.00054e-06
0.162208
0.000922271
2.90126e-08
4.16914e-08
0.000230912
8.52532e-05
0.00234171
0.00298213
0.0245961
0.242646
3.8655e-10
0.000334903
0.000717484
0.0425267
1.76724e-06
0.047494
0.0830691
0.000120233
7.52231e-06
2.02363e-05
1.13032e-08
1.59286e-05
2.71178e-05
0.000377805
1.92513e-05
0.000316502
2.6223e-05
0.000683162
0.000346111
0.000618123
0.000130913
1.67253e-08
0.0273261
0.00937139
6.30966e-06
0.081381
0.000250661
0.000215357
1.38528e-05
0.0011639
0.00026643
0.00263441
0.000387398
0.00103581
1.94475e-05
2.48851e-08
0.00119288
0.000418499
0.0668686
2.13333e-06
0.0365338
4.92048e-05
0.0350292
8.53139e-05
8.39684e-07
0.00039989
0.0263896
0.00739086
2.50812e-08
0.000301347
1.108e-05
0.00442855
0.00122468
0.340818
4.65355e-05
2.0507e-06
0.0191784
0.00156436
0.00498212
0.0338653
0.0704135
3.99054e-10
0.0205901
0.00363258
0.049874
5.67078e-09
0.00114835
5.70285e-07
0.042745
4.99373e-08
4.884e-09
0.00323244
0.00212444
0.00290891
0.29883
0.0395445
0.025094
0.0338623
0.0159511
0.220964
0.0432711
0.00485716
0.00470413
0.00569666
0.000580889
0.00945269
0.0374015
0.00143035
0.00142486
0.0307888
1.93639e-06
0.00331241
5.23266e-07
0.0174811
2.30037e-06
7.69803e-07
0.00156765
4.15198e-06
0.00569335
2.46352e-08
3.67623e-07
0.080657
9.78066e-09
7.72362e-08
0.000842331
6.32025e-08
0.000684433
3.56157e-05
0.0659341
0.0164584
0.266447
0.00754459
0.00685317
0.0399139
0.549071
2.50766e-10
0.064174
0.0279786
0.0162815
0.0230754
0.00227173
0.0526281
7.04786e-06
7.47539e-06
8.50674e-07
0.12965
1.09641e-06
1.02726e-07
0.016556
6.66537e-07
1.53554e-08
0.00531234
2.50318e-06
0.286011
8.15126e-05
3.51229e-05
4.64445e-05
5.86838e-05
0.00145129
0.00638057
1.25683e-10
0.0216857
0.000412733
2.155e-05
0.0950947
6.92167e-08
0.0145387
0.0169385
0.00359991
3.21717e-08
0.0169646
0.00963745
0.000890886
0.00518373
0.0117398
2.92284e-08
2.25551e-08
0.00166791
2.2332e-08
1.43665e-09
2.76667e-09
0.0185036
0.355251
0.004307
0.00220811
6.91854e-05
0.0476159
0.0432404
0.00398135
0.00237544
0.00888339
0.0196856
0.00266841
4.02688e-09
2.97522e-09
4.08999e-09
0.0070124
1.10739e-07
0.352477
0.000527035
0.000769311
0.00184078
0.00247347
0.0208031
2.49513e-09
0.0592701
0.00245933
0.000375646
1.55156e-06
4.1255e-07
1.61606e-07
0.481573
0.000310664
0.000581995
0.000871368
0.00971009
0.20414
3.1683e-07
3.20317e-07
4.99736e-07
0.00359705
0.0164718
0.0189353
0.0331467
0.00164683
0.00343716
3.59931e-06
4.70755e-10
0.000190236
3.8152e-07
0.165604
0.0212501
2.40756e-07
1.25269e-06
1.89412e-05
0.060633
0.0297454
1.85118e-05
0.0133436
0.0905403
0.000891706
0.407313
0.0473791
2.5288e-05
0.0217179
0.173994
0.0186398
1.04704e-05
0.00495388
1.53311e-08
0.0139822
0.00172413
0.0234551
1.15089e-05
0.000380636
1.3162e-09
0.0231198
1.03599e-08
2.87185e-05
0.382684
1.22039e-07
0.00589251
0.001207
3.74692e-07
4.07715e-08
0.00203772
4.18117e-07
1.14759e-07
0.0106558
0.000152658
1.38422e-08
0.0232747
0.044101
0.0162775
2.90092e-10
1.91112e-09
0.000600162
0.00263413
0.00310477
3.35691e-09
9.86499e-08
0.000133247
0.00382756
0.00189701
0.0126418
0.367114
1.53124e-09
0.141608
0.0110788
0.00624415
0.0562653
1.08532e-06
2.10957e-08
0.0228023
7.33997e-10
0.0296958
0.00487803
0.00578288
1.10163e-06
9.24433e-09
3.94232e-09
1.62895e-08
2.03775e-05
0.134076
0.212596
0.00211493
2.55162e-06
1.71798e-10
0.0557346
0.225589
0.0342273
0.112157
1.35782e-07
0.000969501
0.00024739
2.37742e-07
1.32206e-08
0.00367443
0.00615746
3.70452e-08
1.10673e-05
0.00285614
0.059938
0.205094
0.00104904
2.00471
1.00231e-08
3.756e-07
0.011418
0.000711168
3.37601e-05
0.637851
0.000591228
0.00598381
7.52951e-09
8.74801e-08
1.26549e-05
0.0582325
0.00820168
0.177914
2.02406e-08
0.0245248
0.018487
0.82559
1.05575e-08
1.27984e-09
1.10354e-07
3.53862e-08
0.00657517
0.000328496
1.02245e-08
0.0373034
0.0179817
0.160057
0.00456988
3.01188e-06
1.652e-06
0.0276961
1.33163e-05
3.05238e-08
2.32601e-08
1.34668e-08
0.0203551
9.67759e-06
0.0582685
0.0564048
0.0246522
0.0114558
5.97157e-09
2.40353e-09
2.51465e-08
0.0146764
0.000250329
2.01398e-07
3.66013e-08
3.57592e-09
0.021928
0.00234579
0.0109355
0.0403579
0.00190564
0.311956
0.00477345
4.3974e-07
4.25817e-10
2.59215e-07
0.0534356
9.13183e-10
0.0182146
2.24921e-08
0.0143943
4.50314e-05
0.00160465
0.000146067
0.00243005
3.85138e-09
1.58244e-08
0.368877
0.152743
3.5107e-05
0.00379743
4.22204e-07
0.000465132
9.60727e-05
2.99971e-06
3.29821e-06
0.000304689
8.24409e-08
0.00100744
0.0391368
0.0337511
2.06858e-07
8.33128e-05
9.06248e-07
0.0340627
0.18214
0.000153565
9.06796e-10
0.00968388
3.43177e-07
0.00268561
0.0173146
0.00140389
1.12264e-08
0.000885004
0.000533043
0.000134256
0.00406656
0.00012394
0.00170041
5.39881e-06
7.34797e-10
0.000155903
0.00558657
0.000298569
6.66284e-07
9.66303e-06
0.000121701
0.564681
9.43612e-09
1.87163e-08
3.49291e-08
3.53565e-10
1.27404e-07
0.0216445
0.000586814
0.00112417
0.000107642
0.000206363
0.00151462
2.79422e-10
0.00519201
6.82466e-09
5.38772e-07
6.98274e-09
2.64412e-05
0.00205495
1.54825e-05
1.11484e-07
1.33313e-08
0.0136363
1.22504e-07
6.94209e-09
0.156465
9.22753e-06
0.0759639
0.122515
0.548824
8.9819e-09
0.194386
1.07889
1.04838
0.608094
3.86171e-09
3.96967e-10
0.00455781
0.00428079
6.83161e-05
0.0106315
0.0425028
0.0299789
3.30906e-05
4.47482e-06
0.00125874
3.40279e-08
1.23684e-09
0.000125157
0.000410766
0.0260842
6.66381e-09
0.117945
0.000127306
3.4034e-07
0.000111801
0.0078142
0.00156457
2.28899e-06
0.00766281
6.72507e-09
0.003277
0.00216781
0.00708821
5.79682e-08
0.00175519
0.00551371
1.06295e-05
0.00322274
8.68164e-08
0.0297781
5.72169e-05
0.00890132
8.5821e-07
0.19315
5.65236e-08
8.6919e-07
2.71467e-08
0.118117
0.121012
2.06773e-06
0.0110996
0.00886193
0.0550478
3.32575e-08
0.0301211
0.015845
0.171047
1.27989e-06
0.195492
0.0231684
0.0425234
0.00364415
1.60592e-07
0.052691
1.73278e-06
0.211632
1.78773e-09
0.00240516
0.00398136
1.08804e-07
5.74624e-05
1.27278e-06
0.0194127
7.67261e-09
0.0397868
2.88873e-07
1.00003e-05
1.09889e-06
5.30411e-07
0.000262102
0.00189493
0.124525
5.07931e-06
0.000247224
0.0380061
1.35019e-06
0.0429878
7.7051e-07
3.37972e-06
2.48724e-06
0.00551897
1.95526e-10
5.02318e-09
7.14991e-10
0.00305212
5.56669e-08
0.0677255
2.22941e-05
0.00307463
3.88265e-09
0.00568481
0.336216
0.00519407
0.00527637
0.0247005
1.25274e-05
2.00648e-07
7.87565e-08
0.00299892
0.00159925
2.71234e-06
0.000547272
0.000578089
4.66284e-08
2.97724e-08
0.309698
7.77339e-08
0.0198278
4.13095e-08
0.00218145
0.00294202
1.91417e-07
7.51916e-10
0.0456901
7.11024e-09
2.52341e-09
0.016404
0.0564376
0.00437177
2.24796e-06
1.42759e-08
0.00643563
5.3641e-06
0.0115173
6.00111e-06
7.42341e-09
0.00214038
6.75333e-05
0.129349
4.05699e-09
4.98342e-09
4.40076e-09
0.0031397
0.163091
9.59286e-07
1.70629e-08
7.60781e-06
0.00142398
1.95791e-08
0.0176601
0.028498
5.24015e-08
4.41112e-09
0.00671849
2.39835e-07
2.09774e-05
1.53316e-09
2.56575e-05
1.03221e-08
0.0630381
0.00035099
1.35349e-07
5.52001e-09
0.068802
2.98726e-08
0.0565741
2.4209e-07
4.65686e-08
9.55975e-06
0.00693508
0.0470336
0.00803666
0.0499152
0.0606422
0.530876
0.00255397
0.0403615
1.08635e-05
1.67419e-08
0.0022847
0.141224
0.0370017
0.0421978
1.18793e-08
0.00685783
1.59135e-08
0.00434428
9.89823e-07
0.00869343
0.000172146
0.0517452
5.29866e-07
1.64176e-08
0.0199394
0.000295148
2.37973e-08
0.0243077
0.000282157
1.97667e-06
9.63419e-10
0.0325066
0.00907751
0.00601558
0.000792472
0.0016942
0.015895
0.000958377
0.00442312
8.7072e-06
0.0266781
0.00012605
0.000458009
3.83363e-09
6.31603e-07
2.78401e-08
0.00966959
9.0523e-08
2.31255e-06
1.02332e-10
0.000402357
0.391949
0.0890738
0.00224752
4.97068e-09
0.00398422
0.0553349
0.102956
0.00294916
0.000271713
0.0415407
5.5842e-07
1.21772e-07
3.01431e-09
0.00274582
0.00117536
3.87966e-08
4.33067e-09
0.00230464
1.65707e-07
0.78503
0.0539047
0.0934933
5.24634e-09
1.15591e-08
0.0420707
5.06224e-09
0.00921467
9.77172e-09
0.000647678
2.17627e-08
0.00891505
5.16362e-08
6.06939e-09
0.00108252
0.154994
0.0646252
1.4516e-08
0.0689682
4.24678e-08
0.00381377
0.170286
0.118092
2.40015e-07
0.000485578
4.00586e-09
1.96604e-06
0.000278727
0.015646
0.000301312
9.87767e-09
0.000635461
0.00299536
0.00494199
0.00754683
3.66497e-07
3.32485e-07
3.38429e-06
6.10315e-07
1.00518e-08
3.57893e-09
0.0753999
0.0371593
1.4146e-08
0.0845395
3.44807e-10
2.13115e-08
0.0686161
4.65044e-09
4.79237e-09
0.0402545
1.82652e-08
7.47586e-10
1.00894
2.00261e-09
1.28981e-09
0.00194337
0.0930116
1.3061e-07
0.0371271
8.48301e-09
0.020954
0.0503968
6.27785e-06
0.000865445
5.90058e-10
7.26985e-08
1.04536e-06
1.73186e-07
0.319651
0.0456634
0.000256717
3.26061e-08
0.0462868
1.02054e-09
2.06685e-08
1.83022e-09
0.103132
0.00179277
0.000110456
1.29168e-09
1.30083e-06
0.0481394
0.000915542
3.64729e-07
0.000252827
0.109097
0.0862902
3.55055e-05
0.0853885
0.000925683
0.0426747
4.20829e-05
0.0658137
0.000345271
0.028822
1.48066e-06
0.00673843
0.000458456
0.000933637
6.84313e-10
0.00130022
7.13465e-08
0.00377456
0.0244386
1.00006e-06
0.00233588
0.000311596
1.74543e-07
0.010276
9.22298e-08
2.70177e-08
2.74489e-08
4.52168e-08
5.06906e-06
4.45101e-08
4.88735e-08
7.45115e-08
0.26875
4.32723e-05
1.66966e-10
1.81228e-09
5.47026e-08
1.00042e-07
0.0299653
0.766808
0.00210307
0.00014058
9.57768e-09
0.00202141
0.00139715
0.0463514
3.20453e-05
1.29614e-05
5.66751e-07
1.10891e-06
2.45457e-06
0.00022293
0.000117004
0.179885
0.0671737
8.23276e-08
0.00106135
0.000300304
1.41616e-08
0.0241758
4.61079e-06
3.82034e-08
1.73069e-06
0.160822
0.0621547
1.0608e-09
0.0251793
1.41647e-08
0.0488228
5.12686e-05
0.0355037
0.0533111
4.76351e-09
6.68278e-09
2.32097e-08
2.50144e-05
0.005635
0.224772
0.0280281
0.0416451
0.00449115
0.000541995
7.95379e-10
0.00011708
0.138873
0.00127613
9.54164e-05
0.00296498
4.05173e-06
0.0992074
4.97789e-08
0.205333
0.0383574
1.38657e-08
0.00048859
0.00716919
4.04098e-08
0.00962376
1.40624e-08
1.8596e-07
0.197035
0.0301203
5.32508e-08
8.56951e-09
6.92576e-07
2.57817e-09
6.07357e-09
0.00012703
2.45502e-08
5.74695e-10
0.00309166
7.70591e-09
9.77165e-08
2.70028e-07
0.000228851
2.19661e-07
0.00016935
1.0751e-07
4.68552e-08
2.26233e-05
6.61293e-05
0.00359049
0.0432466
8.07675e-05
0.00504249
2.29982e-06
0.320416
0.315683
1.26425e-07
0.00345254
1.77298e-08
0.0459099
0.038026
0.000405866
0.0904929
0.0684948
7.16254e-06
1.10447e-09
0.00246674
1.12858e-08
1.2447e-09
3.97563e-07
1.59284e-05
7.3308e-09
1.73785e-05
0.035597
5.16532e-09
2.40774e-08
0.337183
1.52274e-09
0.0172927
8.29907e-06
0.0013333
9.75469e-09
0.000443346
0.000145791
0.23983
0.00793568
0.0239978
0.000182943
0.0403824
0.000271285
0.0754779
0.000154234
0.000227094
0.0098448
0.0581294
0.00032404
0.00127592
4.3238e-06
1.78957e-07
0.00111787
0.000224752
0.0157302
0.0121012
0.000148677
1.90885e-06
0.00549025
0.00522094
0.0185284
2.19089e-09
0.0122901
0.0166518
0.00277689
0.00150172
0.0013214
0.00326925
0.0189772
0.0409344
0.00714383
0.0110763
0.00800917
9.09046e-05
0.00291697
0.00363936
0.0010871
0.0026207
0.0141859
0.0137986
0.0193302
0.000121987
0.01153
0.000423172
0.00511504
0.00286565
0.000350437
0.00234817
0.00020417
0.0758633
0.00399342
0.00123779
0.000142505
0.000728535
0.0158328
0.00246935
0.217744
0.00355665
6.92487e-10
0.23184
0.0461722
0.0216401
0.00716128
0.0203062
0.000407926
0.00865086
0.463512
0.00214028
0.00137514
0.00251754
0.175132
0.00117472
0.0744413
7.62366e-05
7.79438e-08
1.3121e-08
0.00224302
0.00621151
0.0118406
0.0709355
0.00676508
0.0615491
0.0549882
0.0722148
2.90468e-08
0.00700364
0.00262933
0.0248491
1.05847e-06
0.00636102
9.15763e-08
0.225633
0.0116594
0.00756646
0.221535
5.17794e-09
8.97886e-08
0.00223509
0.000111714
0.000769277
1.55804e-07
0.00656969
0.000977608
0.0780512
9.32194e-07
0.0223798
0.00309712
0.000352057
0.000126842
0.00238763
0.0013056
2.45797e-07
0.00188969
5.30212e-05
9.76795e-09
0.269358