/*--------------------------------*- C++ -*----------------------------------*\
  =========                 |
  \\      /  F ield         | OpenFOAM: The Open Source CFD Toolbox
   \\    /   O peration     | Website:  https://openfoam.org
    \\  /    A nd           | Version:  10
     \\/     M anipulation  |
\*---------------------------------------------------------------------------*/
FoamFile
{
    format      ascii;
    class       volVectorField;
    location    "28.5";
    object      U;
}
// * * * * * * * * * * * * * * * * * * * * * * * * * * * * * * * * * * * * * //

dimensions      [0 1 -1 0 0 0 0];

internalField   nonuniform List<vector> 
111485
(
(1.4588 -1.45865 0.000387456)
(4.2852 -0.00983846 -0.0257636)
(4.21792 0.0110857 0.0126544)
(1.45823 -1.4585 0.000130636)
(4.38175 0.0206881 0.000124792)
(1.54364 1.5425 -0.000164188)
(4.30428 0.0129574 0.00107364)
(4.43494 -0.0133561 0.00532088)
(4.30171 -0.00200022 0.003542)
(4.41693 -0.0481121 -0.0197011)
(4.24165 0.0101685 0.012653)
(4.4379 -0.0119517 0.020527)
(4.17837 0.00399183 0.00935852)
(4.24037 -0.00906141 -0.0296256)
(4.28029 0.0172406 0.00837317)
(4.38483 -0.0300354 -0.0230685)
(4.32123 -0.00510272 0.00710211)
(1.51243 -0.0950229 0.216052)
(4.38864 0.0135194 -0.00969154)
(1.45507 -1.45344 5.71319e-05)
(1.45675 -1.45636 -0.00137559)
(1.54507 1.54481 -0.000222222)
(4.34194 0.0164035 -0.00410589)
(4.42405 -0.0291929 -0.0100404)
(4.34125 0.0127245 -0.00352659)
(1.46869 -1.46319 -0.00220176)
(4.4558 -0.0216815 0.0214968)
(4.22378 -0.00813945 0.00178488)
(4.40476 0.00640612 -0.0112473)
(1.45659 -1.45654 -7.10442e-05)
(4.44881 0.0685843 -0.0175479)
(4.39897 -0.00997965 0.0013008)
(1.45168 -1.45428 0.00202227)
(1.54444 1.54788 -0.00357786)
(1.54742 0.655547 0.243505)
(1.55426 1.56491 -0.0226345)
(4.42606 0.0685406 -0.0270522)
(4.28949 0.00984629 0.0393893)
(4.40719 1.33453 0.0742992)
(4.39609 0.0208541 0.00103941)
(1.52702 1.54104 -0.0108418)
(4.43568 0.00655797 -0.0270822)
(4.39587 0.0215356 0.00731108)
(4.22493 -0.0257349 0.00180914)
(4.42139 -0.0750156 -0.0386397)
(1.45939 -1.44751 0.00534284)
(4.43161 -0.0186944 0.0180111)
(4.41727 -0.0278169 -0.00912305)
(4.43785 0.00028312 -0.0223067)
(1.44841 -1.42955 0.00797737)
(1.44519 -1.43177 0.00834924)
(1.75368 1.47675 0.0266084)
(1.44019 -1.43532 0.004809)
(4.42792 0.020279 -0.0358719)
(1.4369 -1.43164 0.000810643)
(4.37699 0.0115535 -0.00484361)
(4.38324 -0.0192898 -0.0105412)
(1.54641 1.54335 0.00096985)
(3.99944 -0.00788587 -0.0700552)
(4.40204 0.0180936 -0.00264128)
(4.40024 0.0200482 -0.000963569)
(1.45384 -1.45697 0.00214914)
(4.09849 0.00404494 0.0265822)
(4.45102 -0.0117794 0.0341224)
(1.59865 1.45038 0.00382599)
(4.01406 0.00913788 -0.00863116)
(3.08857 -0.238301 0.10432)
(4.41379 -0.0158597 0.00598932)
(3.98682 0.00164336 0.0151797)
(3.77336 -0.00605927 0.00289006)
(4.25347 0.0355525 -0.0130356)
(3.94577 -0.0107168 0.0214483)
(1.57898 -1.4224 -0.0316345)
(4.0524 0.00648478 0.031302)
(1.45817 -1.45737 -0.000140085)
(4.39775 -0.0101684 0.00800913)
(1.54481 1.5452 5.2196e-05)
(4.42746 -0.00889603 0.0229527)
(1.54468 1.54355 5.67524e-05)
(1.40031 1.36902 -0.0447815)
(4.27692 -0.0644153 0.0432433)
(4.42659 0.0151394 0.00222199)
(1.54236 1.53976 -5.21507e-05)
(1.45817 -1.45787 0.000758445)
(4.15297 -0.000377123 0.00919593)
(3.98108 0.011093 -0.0177238)
(3.42664 2.22748 -0.594952)
(4.37318 0.0531462 0.0044209)
(4.21366 0.106369 0.0907594)
(4.27614 0.00631255 0.0145397)
(4.51163 0.0884158 -0.0562)
(4.37979 -0.00749641 0.00690339)
(4.10265 -0.00702717 0.0140338)
(4.1846 -0.00472624 0.00510628)
(4.43824 0.0143682 -0.0250314)
(1.45834 -1.45786 -0.000263786)
(1.45783 -1.45753 0.000703475)
(4.37065 0.049279 0.0154365)
(4.49845 -0.879612 0.0619027)
(4.09312 0.0140644 0.0267022)
(1.45839 -1.45812 0.000471925)
(4.39093 -0.0231426 0.0019296)
(1.55287 1.55564 0.00859764)
(4.3584 0.000558996 -0.00237972)
(4.33374 -0.0237269 -0.0286632)
(1.51596 1.35854 -0.0312661)
(1.54509 1.54477 -0.000221014)
(4.40606 -0.0134583 -0.00137617)
(4.05733 -0.0221772 0.00490891)
(3.89056 -0.115017 -0.120517)
(4.14869 -0.00393796 0.00910405)
(4.37114 0.00610363 -0.00268986)
(4.07082 -0.00209515 0.0154941)
(4.00646 -0.0198774 0.00916102)
(1.4717 -1.46419 0.000496456)
(3.86497 -0.00509963 0.0118658)
(1.46362 -1.4587 -0.00220502)
(1.55314 1.54668 0.00628271)
(4.29725 0.0176367 0.0137331)
(1.45781 -1.45688 0.000544192)
(1.4698 -1.46363 -0.00162804)
(2.02915 1.5996 0.0959498)
(1.53593 1.54084 -0.00303399)
(1.5496 1.54583 -0.00356251)
(4.20011 -0.00984276 0.0193514)
(1.16597 -0.816667 -0.22304)
(1.93635 1.66734 0.0582812)
(3.90351 -0.00112799 0.0187256)
(1.45796 -1.4573 -0.00045281)
(4.41456 0.332065 -0.119403)
(4.40902 0.0805755 -0.042413)
(4.36273 0.0501989 0.0162505)
(1.45423 -1.45069 -0.00698304)
(1.98776 1.73189 0.173582)
(1.85802 1.65916 0.0777378)
(4.40426 0.0138433 -0.00677223)
(1.54556 1.5458 -0.000410908)
(4.37971 0.0106468 0.00078114)
(4.34623 0.016543 0.00758694)
(4.28143 0.0184517 0.0156139)
(3.36237 0.000405056 0.0147611)
(4.39183 0.0226874 0.00448375)
(4.354 0.0278317 0.0161187)
(4.13675 0.00376817 -0.0181516)
(4.32296 -0.00849881 0.00404967)
(4.27868 -0.000702628 0.00817923)
(1.54586 1.54606 -0.000363966)
(1.45794 -1.45803 0.000108783)
(1.54271 1.54344 0.00286526)
(4.37963 0.0174429 0.00212855)
(4.13828 0.00716411 -0.0163526)
(1.45672 -1.4557 0.000538546)
(2.87661 -0.0165646 0.0282641)
(4.27329 0.0204196 0.0100287)
(4.68263 0.188341 0.0835547)
(4.4033 0.0124298 -0.00894797)
(4.37999 0.0135033 -0.00334716)
(4.06721 0.000338878 -0.00541192)
(4.72541 0.23057 0.0581217)
(1.4505 -1.46404 0.00580495)
(1.45619 -1.45755 0.0012339)
(4.39241 0.0122542 -0.00904545)
(4.30504 -0.0148715 -0.0154672)
(4.75607 0.259813 0.0631239)
(4.69014 0.228031 0.0866768)
(4.09504 0.0076404 0.0213872)
(4.38643 0.0535027 -0.0195035)
(1.52726 1.53993 0.000348064)
(4.81308 0.321898 0.0776649)
(4.58915 0.230926 0.0718119)
(1.54457 1.54534 0.000365067)
(1.45651 -1.45623 -0.000204805)
(3.51783 0.00397093 -0.0257588)
(1.54538 1.54617 9.93841e-05)
(4.36067 -0.00963236 -0.00163541)
(4.19113 0.00286629 -0.00992939)
(1.54556 1.51003 -0.00710823)
(1.5747 -1.44421 0.0132502)
(1.46148 -1.45379 -0.00245652)
(1.52183 1.43816 -0.0141541)
(1.58536 -1.4589 0.024882)
(1.45626 -1.45726 0.000938578)
(4.37285 0.0172044 0.00440243)
(4.37059 0.0109351 -0.00830558)
(4.35543 0.0143272 -0.00392178)
(4.32118 -0.010339 0.0156895)
(4.15049 -0.0092358 0.00318511)
(4.16733 0.00874736 0.0138907)
(3.69515 0.0466442 0.0052208)
(1.45733 -1.45212 -0.00015115)
(4.04769 0.000959918 0.00405939)
(1.57102 -1.45826 0.0145165)
(1.47014 -1.47261 -0.000839855)
(4.20701 0.00962217 0.0144592)
(4.41874 -0.054093 -0.0194148)
(4.36829 0.00909195 -0.0201165)
(4.19782 -0.00423783 0.00661437)
(4.26348 -0.00220966 0.00517476)
(1.45547 -1.4528 0.00321764)
(4.18681 -0.0197221 0.00379456)
(4.18146 -0.00545813 -0.0260496)
(2.92688 0.939665 0.124464)
(4.28394 -0.0329884 0.00256382)
(4.34409 -0.00750812 0.00407615)
(1.46328 -1.45519 -0.00217859)
(4.1897 0.0121398 0.0148437)
(4.38543 0.00952117 -0.00330042)
(1.59744 -1.44238 0.00586213)
(4.21343 0.010083 0.0155518)
(4.41688 -0.00577564 0.0248332)
(4.13676 0.00391847 -0.0188836)
(4.17905 0.0106407 0.0189647)
(1.58285 -1.46321 0.0197004)
(1.45696 -1.45745 -0.000211754)
(4.17988 0.0106029 0.018859)
(2.74049 1.72315 -0.168998)
(4.46995 0.0193679 -0.0427057)
(1.54491 1.54572 -0.000880313)
(4.20424 0.00784345 0.0159915)
(4.19566 0.00667683 0.00479536)
(4.4438 -0.014145 0.0274401)
(1.45954 -1.45882 0.000596364)
(3.92105 -0.000193696 0.0109986)
(4.39968 0.0612862 0.0302648)
(2.42277 1.6315 -0.176825)
(1.54559 1.54567 -0.00119228)
(1.5445 1.54528 0.000342665)
(4.49917 -0.02873 0.0413765)
(4.20001 0.0997063 -0.010154)
(1.62611 1.37537 -0.0307022)
(1.81289 -1.40264 0.0554608)
(4.21068 0.00330912 0.00563954)
(4.33966 0.00833075 0.000635674)
(4.40853 0.0108534 0.00250055)
(1.60396 1.39995 -0.0404726)
(1.54136 -1.42495 -0.00547868)
(4.23356 0.048264 -0.0560245)
(1.45797 -1.45757 0.000874692)
(4.00613 0.00465282 -0.023879)
(4.16072 0.0046249 0.0135052)
(4.20793 0.00169498 0.00753178)
(4.2156 0.010602 0.00890421)
(4.23159 0.00852004 0.0119796)
(1.54091 1.54095 0.00487453)
(3.18695 -0.00928851 -0.120655)
(4.29443 0.0105535 0.0163707)
(1.53803 1.54108 -0.00200622)
(1.54453 1.54531 -0.000275753)
(4.46995 -0.0532339 -0.00489767)
(4.37026 0.0181827 -0.00731773)
(1.58339 1.35318 -0.041205)
(3.97448 -0.00258445 0.0121503)
(4.2778 0.0117267 0.0127144)
(1.45855 -1.45771 -0.000498633)
(1.95324 1.84026 -0.0120754)
(4.39982 0.0378819 -0.0169229)
(1.46199 -1.44317 0.000689994)
(1.61819 -1.14403 -0.0276427)
(2.23994 -0.781501 -0.0797582)
(1.45896 -1.45501 -0.000212394)
(4.29604 -0.00768451 -0.00771758)
(4.17808 -0.00759308 -0.0102951)
(4.35918 0.00690814 -0.0126309)
(1.45743 -1.45765 -7.8227e-05)
(4.31703 0.0130116 0.0109944)
(1.45826 -1.45855 0.000142005)
(1.45825 -1.45892 0.000259589)
(1.45584 -1.4504 0.00250652)
(2.94514 0.0110781 -0.044681)
(4.42118 -0.0205367 0.0244634)
(4.22343 0.0149779 0.0195724)
(4.2917 0.0137774 0.010553)
(4.45474 -0.0291453 -0.000794972)
(4.26799 0.00955169 0.00938226)
(4.38633 0.015751 0.00555004)
(4.4096 0.073639 -0.00788576)
(4.30749 0.00954055 0.000593899)
(4.35068 0.0100821 0.000579956)
(1.57 1.54449 -0.000809658)
(1.45626 -1.4561 -0.00162815)
(2.68717 0.016417 -0.0652505)
(4.37364 -0.0101641 0.00138894)
(4.42381 0.0333855 0.0373651)
(4.16054 -0.00521035 -0.00738952)
(1.45802 -1.45721 0.000378249)
(4.36586 0.0130589 0.0082514)
(4.3887 0.0214179 0.010314)
(4.28132 0.00827728 0.00706921)
(3.77312 -0.00398673 -0.0182137)
(3.95146 -0.0458344 -0.0980508)
(4.34721 0.014896 0.00238184)
(4.27252 0.0111906 0.0094488)
(4.36167 0.032198 -0.0193897)
(1.5461 1.54611 0.000142297)
(3.99525 0.0209685 -0.000592721)
(1.54468 1.54506 -0.000574769)
(1.2625 0.968367 -0.196828)
(1.64544 -1.04766 -0.106843)
(4.52953 -0.0410753 0.055579)
(4.45711 -0.0295727 -0.00104128)
(4.35163 -0.00235858 0.00053197)
(1.46036 -1.45676 -0.000538047)
(1.54023 1.54895 0.0125376)
(4.35767 0.0141557 0.00796706)
(4.171 0.00743514 -0.00649238)
(1.45738 -1.45642 0.000128589)
(1.45867 -1.45787 0.00131801)
(1.42782 -1.43521 0.0112313)
(4.14643 0.0058367 -0.0031505)
(4.33183 0.00590506 -0.00515835)
(4.13518 0.000794714 0.0146337)
(3.99398 0.00702092 -0.0230085)
(4.41673 0.0100685 -0.0103157)
(1.76844 1.52252 0.0401409)
(1.54222 1.54586 0.00303783)
(1.45824 -1.45608 -0.000865926)
(4.34192 0.0144534 0.0122387)
(2.80513 -2.37868 -0.171435)
(4.14028 -0.00490254 0.00449609)
(4.4974 -0.0313767 0.0954378)
(3.61909 0.00252185 -0.0739951)
(1.54521 1.5452 -0.000226118)
(1.45668 -1.45806 0.00079047)
(1.45829 -1.45915 -0.000801365)
(1.94493 1.63441 0.098662)
(4.39216 0.014019 -0.000466935)
(4.43362 -0.0253651 0.00158013)
(1.54905 1.55286 0.000555995)
(4.35427 0.0117695 -0.00118712)
(1.63213 1.32616 0.092272)
(1.46552 -1.44909 -0.00215978)
(4.46356 -0.0156035 0.0364397)
(4.3476 0.015343 0.00665769)
(4.451 -0.00693814 0.010929)
(4.35741 0.0121535 -0.00080127)
(1.49085 1.32613 0.0790867)
(1.92575 1.65878 0.105054)
(1.54248 1.54458 -0.0023754)
(4.35097 0.0149158 0.00566898)
(4.34766 0.0129145 -0.000273776)
(4.43188 0.0745413 -0.0242175)
(1.5322 1.52913 0.00333692)
(3.044 2.69972 -0.642163)
(4.15214 0.0404185 0.0368408)
(4.4305 -0.0210028 0.0107386)
(4.36903 0.0161146 0.0103522)
(4.15006 0.430325 -0.034053)
(4.41497 0.0103892 -0.0102987)
(1.54216 1.54215 0.000315487)
(4.41817 0.0119738 -0.00872423)
(4.23986 0.00557063 0.00849909)
(4.47335 -0.103659 0.000243207)
(4.47663 -0.0261846 0.053235)
(4.34033 -0.0332286 -0.0299537)
(1.54047 1.54696 -0.00604193)
(1.45679 -1.45861 -0.00271562)
(1.54863 1.54029 0.00564648)
(1.44886 -1.45296 -0.000538645)
(4.42717 -0.0214428 -0.000154257)
(4.40099 -0.00810554 0.0028125)
(4.37591 0.0206626 -0.0147514)
(4.41125 0.012197 -0.0130879)
(1.53595 1.53763 -0.00634272)
(4.37266 -0.0286784 -0.00955489)
(1.54366 1.54433 0.000588989)
(1.45182 -1.45615 0.000243979)
(4.41311 0.0122812 -0.00957769)
(1.34504 -1.34676 0.0196208)
(2.42479 -0.420073 -0.0360884)
(1.44214 -1.43672 0.00128576)
(1.55935 1.53859 0.0122818)
(4.36533 0.00847704 -0.00583346)
(1.5455 1.54467 0.000604224)
(4.32353 0.0108685 -0.00314234)
(4.10569 0.00255588 -0.0190642)
(1.54642 1.54631 -0.00033829)
(3.96454 -0.00163649 -0.0194556)
(4.29364 0.00700301 0.00804884)
(1.55561 1.36717 -0.0502152)
(4.28751 0.0187706 0.0192795)
(4.04303 0.0207126 -0.00305347)
(4.31135 0.0244366 0.00617129)
(4.01233 0.0157341 0.0495616)
(4.35493 0.0127275 0.00204459)
(4.14947 0.000660761 -0.00942802)
(1.5246 1.30737 -0.00559578)
(1.45721 -1.4518 0.00547505)
(3.72741 0.00830004 0.0880946)
(1.53541 1.5407 -0.00890662)
(4.3029 0.0223517 0.0196939)
(4.46546 -0.0225595 0.0435247)
(1.55681 1.4893 0.0124767)
(1.54229 1.54868 -0.000269036)
(4.41608 -0.00922585 0.00311953)
(4.25088 -0.0191103 -0.0389245)
(4.26813 0.0222896 0.00237454)
(4.43123 0.00883341 -0.00214011)
(1.54509 1.54345 -0.000498607)
(4.48542 -0.013107 0.0706304)
(4.41405 -0.0150306 0.0219114)
(1.54835 1.54554 4.96781e-05)
(4.33615 0.0655495 0.0534085)
(4.13294 -0.0170545 -0.0425461)
(1.45718 -1.45609 -0.000254209)
(1.45714 -1.45694 0.000276759)
(4.32011 0.0137023 -0.00374006)
(4.33632 0.00417858 -0.00617355)
(1.55241 1.55263 -0.00197715)
(1.46039 -1.45573 -0.00152857)
(2.58405 -1.38857 0.315954)
(1.4579 -1.45884 0.000523771)
(4.33738 -0.00223307 0.00936163)
(1.53742 1.5424 0.00366593)
(1.45833 -1.45871 9.64411e-05)
(4.45242 -0.00515836 0.0144749)
(4.02852 -0.0473764 -0.11487)
(4.40576 -0.0247022 0.00636879)
(4.24395 0.000279956 0.00792395)
(1.54692 1.54588 3.91567e-05)
(2.00142 1.54648 0.0747413)
(4.24917 0.0538797 0.0792989)
(1.87704 1.65867 0.0872678)
(4.23289 0.0183295 0.0329418)
(4.21718 -0.0348029 0.00332988)
(4.39602 -0.0119547 -0.0102754)
(3.0664 0.10638 0.106784)
(1.8439 1.5905 0.0780266)
(4.40998 0.00758937 -0.0415)
(4.45403 0.134429 -0.0453321)
(1.4563 -1.45907 0.00245556)
(4.43654 0.0113496 -0.0432644)
(4.44569 -0.0213591 0.0158425)
(1.46008 -1.45974 0.00153142)
(4.28613 0.246085 -0.136224)
(3.74837 -0.000677606 -0.052674)
(1.94704 1.53375 0.0627041)
(4.42041 -0.0084724 0.0186775)
(4.37024 0.00604843 -0.00604889)
(4.35845 0.0118694 -0.00226229)
(1.54471 1.54358 -0.000435271)
(4.34703 -0.00709315 0.0298745)
(4.44346 -0.00392148 0.0145883)
(4.33024 0.0416787 -0.00455932)
(2.73778 -0.0366322 0.0466163)
(1.87666 1.77273 -0.0370586)
(2.57882 -0.0653825 0.0847207)
(1.45657 -1.45834 0.00102159)
(4.00172 -0.130415 -0.129403)
(4.34812 -0.00771767 -0.028566)
(1.54602 1.54498 0.00213294)
(4.11974 0.00996944 -0.0306942)
(3.40476 -0.00842441 0.0604185)
(2.00001 1.77008 -0.0185726)
(1.45832 -1.45734 0.000159792)
(1.70987 -1.449 0.0459013)
(1.45792 -1.45735 0.000105529)
(4.32319 0.0216544 -0.000627495)
(4.3568 0.022564 -0.00762332)
(4.30003 -0.0132973 -0.0122796)
(4.04321 0.0104139 -0.0225363)
(4.40973 -0.0902807 -0.0182693)
(1.54464 1.53855 -0.00313696)
(4.27562 0.000352 -0.0094122)
(1.46169 -1.45094 0.000492755)
(4.2305 0.0163885 0.00962565)
(1.55004 1.54968 -0.000900665)
(1.45727 -1.45617 -2.86435e-05)
(1.44632 -1.45036 -0.00204744)
(4.15784 -0.0282024 0.00614956)
(1.45482 -1.45535 -0.000961331)
(1.45871 -1.45828 0.000483467)
(1.5219 1.01806 -0.0626868)
(1.45813 -1.45927 0.000460301)
(1.53034 1.55149 0.0144232)
(4.26195 -0.0149575 -0.00668694)
(1.5466 1.54438 0.000649904)
(1.82881 1.3528 0.00254096)
(1.54677 1.54682 0.00164947)
(1.45595 -1.45187 -0.00100318)
(1.54622 1.54241 -0.00105778)
(1.45399 -1.44658 -0.0076199)
(1.54104 1.54086 -0.000220012)
(3.8817 0.000780794 -0.0331372)
(1.54875 1.54036 0.00631119)
(3.98565 0.0553341 0.0782346)
(4.35475 0.00392014 0.000788772)
(4.50097 -0.164408 -0.0232887)
(1.5468 1.53994 -0.00034844)
(3.79546 0.0116332 0.0612381)
(1.54857 1.54297 0.00178956)
(1.45832 -1.45919 -0.000707931)
(4.31027 -0.0414402 -0.0457964)
(4.30714 -0.0346651 -0.0348447)
(4.30352 -0.00919294 -0.0121878)
(4.49914 0.0119383 -0.0753799)
(1.77308 1.49374 -0.0481665)
(4.40345 0.00432278 -0.0235383)
(4.40324 0.00202383 -0.0208026)
(4.36193 0.00947119 -1.37561e-05)
(4.29428 0.00476306 0.000943201)
(4.37911 -0.0447541 -0.0292477)
(1.45508 -1.45533 -0.000550722)
(4.36827 0.00769555 -0.00141412)
(2.01692 1.75701 -0.0116892)
(4.34144 0.0067655 -0.00973165)
(1.5456 1.54445 0.000253795)
(4.42543 0.0163954 -0.024206)
(1.99534 1.65802 0.0155478)
(4.36577 0.00418288 -0.00613315)
(4.37156 -0.019914 0.015901)
(1.68526 -0.841051 -0.00980054)
(1.54797 1.54973 0.0170127)
(4.30124 0.00765316 0.00696798)
(1.45805 -1.45694 0.000146965)
(4.44014 0.0177681 -0.0257511)
(4.40324 0.022734 -0.0185005)
(1.54521 1.54098 -0.0126104)
(1.54324 1.54248 0.00374114)
(1.51335 1.35678 -0.0385632)
(1.54463 1.54562 0.000923025)
(3.08941 -0.163606 0.0827432)
(4.44223 0.015739 -0.0263108)
(1.56489 1.52849 -0.00114813)
(1.54278 1.54555 0.00180129)
(3.80099 0.00211304 -0.0108045)
(1.54559 1.54544 -6.84186e-05)
(4.3745 0.0145501 -0.0179837)
(1.54545 1.54475 0.000132083)
(4.33426 -0.0263324 -0.0183966)
(1.45907 -1.45832 0.000403403)
(4.07219 -0.0218042 -0.0603472)
(3.37132 -0.0127259 0.00481146)
(4.07118 0.0123681 -0.00955691)
(4.36799 0.00571816 -0.00750735)
(1.55476 1.54318 -0.00469132)
(3.97089 0.00385909 -0.000494287)
(1.54821 1.54289 0.00132224)
(1.54539 1.54663 -0.00372183)
(4.30825 -0.0166005 -0.0102067)
(1.54584 1.54441 -0.000151734)
(3.67771 0.000353783 -0.0376834)
(1.49574 1.37729 -0.0433456)
(4.38461 0.0256101 -0.014771)
(1.45716 -1.45764 -0.000289309)
(4.41292 0.0105377 -0.00938201)
(1.45843 -1.45725 0.000175304)
(1.82997 1.62196 0.0459499)
(4.47301 0.155085 -0.00996299)
(4.30521 -0.0356342 -0.0466143)
(4.35227 0.0162351 0.0007552)
(4.40342 -0.0528845 -0.0329161)
(4.332 0.00909832 -0.00483856)
(4.44921 -0.0301803 -0.00417099)
(1.53564 1.54751 -0.00682566)
(4.34957 0.0216502 0.0141781)
(4.31687 -0.0393634 -0.0462116)
(1.54488 1.54554 -0.000719335)
(3.65362 -0.0462108 -0.15754)
(4.45109 -0.0308966 -0.022287)
(4.27552 0.0192293 0.0157949)
(1.53207 1.51071 -0.00888874)
(1.9016 0.393526 -0.297756)
(4.18474 0.0113305 0.0128055)
(3.43582 -0.0135965 0.0342748)
(3.55459 0.920758 -0.00712988)
(1.89413 -0.957992 -0.0799333)
(4.43532 -0.0477981 -0.00699627)
(4.16316 0.016118 0.029344)
(4.30129 -0.0416612 -0.0447234)
(4.3708 -0.0242888 -0.00945642)
(4.31549 0.0257026 0.0105307)
(3.82262 0.499741 -0.0252414)
(1.90662 1.62016 0.013319)
(3.88408 -0.141806 0.0315517)
(3.75279 -0.326693 0.077681)
(1.45632 -1.45692 0.000847643)
(3.82509 0.0265688 -0.0117349)
(1.5542 1.52537 -0.00776548)
(1.81255 1.64846 0.0151443)
(4.32695 0.00506954 -0.00220857)
(3.84937 0.654726 -0.0217392)
(4.62711 -0.389329 -0.0724865)
(4.16756 -0.715872 0.0140503)
(1.80749 1.71873 -0.124077)
(4.40907 -0.0257988 -0.00740717)
(4.36152 0.0248434 0.0186661)
(1.54195 1.53754 -0.000446861)
(1.98333 1.10707 -0.0446201)
(4.36379 0.0315671 0.0185183)
(1.45673 -1.45147 0.000974573)
(1.54527 1.54501 -0.000134827)
(1.54355 1.54313 0.000245202)
(1.54654 1.53855 0.00162822)
(4.41298 -0.0454862 -0.0206959)
(1.54568 1.54542 0.000900246)
(1.46407 -1.46401 0.0078609)
(4.33027 -0.0265974 -0.0223546)
(3.99106 -0.000574897 -0.0124042)
(2.15293 -1.8839 -0.0991252)
(4.36457 0.0308856 0.0180143)
(1.79315 1.45171 0.0323783)
(4.38672 -0.0173839 -0.00893464)
(1.43373 -1.43265 -0.00643719)
(1.54236 1.54541 -0.000686132)
(4.39545 -0.027091 -0.00805003)
(1.54565 1.53683 -0.00641538)
(1.54503 1.54157 0.00108696)
(1.76981 1.6957 0.0496282)
(4.1437 -0.00316062 -0.00285093)
(2.53921 2.12876 -0.279881)
(4.33144 -0.0186029 -0.00936646)
(4.32366 0.00459674 -0.00290167)
(1.4474 -1.43806 -0.0117162)
(4.49727 -0.0132397 0.140612)
(4.12674 -0.0241239 -0.0601084)
(4.31242 0.00150238 -0.00231931)
(4.38022 0.0775421 0.00976059)
(4.39602 0.0454589 -0.0944721)
(3.78919 0.00194014 -0.0359103)
(1.54375 1.54295 0.000579383)
(4.39801 0.00469467 0.0111688)
(4.36744 0.0176356 -9.47921e-05)
(1.44488 -1.46386 0.00296713)
(4.07765 -0.00273916 0.000344183)
(4.41673 0.0255453 -0.00847192)
(4.40745 0.0201782 -0.00704673)
(4.01929 -0.0173468 -0.0406045)
(4.40406 0.0213018 -0.0056363)
(4.40938 0.0217202 -0.00435934)
(1.46244 -1.44314 0.00866321)
(4.40474 -0.00936802 0.0218035)
(3.66045 -0.0218675 -0.00543124)
(1.86189 1.61855 0.100435)
(4.40231 0.0176983 -0.0094151)
(4.20316 0.00498886 -0.00958535)
(2.46987 2.01456 -0.301174)
(4.32744 0.0059049 -0.00151243)
(4.40508 0.0150945 -0.0132975)
(4.20506 0.00133701 -0.0171003)
(4.37348 0.0217054 -2.17513e-05)
(4.3242 0.0464406 0.0176823)
(4.33376 0.00554535 0.000462048)
(1.51199 1.47912 0.00194293)
(4.37287 0.0223346 -0.000800768)
(4.10777 -0.0247371 -0.0543436)
(1.63221 -0.97361 0.0386273)
(4.35269 0.0339492 0.0223165)
(4.30501 0.0349521 0.034647)
(4.35892 0.0140456 -0.00242474)
(1.54452 1.54162 0.00170598)
(4.24177 0.0252846 -0.0405445)
(1.45825 -1.45188 0.00377309)
(1.54538 1.54584 -0.000796172)
(1.54072 1.52864 -0.000101002)
(1.54712 1.53893 0.000833518)
(3.67171 0.0020078 -0.017437)
(1.83643 1.5851 0.0629671)
(3.32858 -0.229563 0.272934)
(1.45442 -1.45439 0.000248605)
(1.54467 1.56341 -3.49375e-06)
(4.36784 0.0419181 0.0233452)
(4.3785 0.0106504 -0.0174518)
(1.4589 -1.45873 4.23359e-05)
(4.3881 -0.0272381 -0.00387523)
(1.45794 -1.45662 0.00483379)
(1.45913 -1.458 -0.000741117)
(1.43629 -1.43661 0.00443769)
(4.46025 -0.0373746 -0.00781652)
(3.70938 0.0201059 -0.0109014)
(1.81823 1.64 0.0203871)
(1.47339 -1.45702 0.00390251)
(1.54337 1.54807 -0.00200378)
(1.54431 1.54552 -0.000209149)
(4.48005 0.00849869 -0.0487315)
(4.34397 0.00748042 -0.00321887)
(1.83667 1.7278 0.0794722)
(4.42808 0.0141925 -0.0229798)
(4.12554 -0.0574574 -0.1678)
(1.54294 1.54348 -0.000862948)
(4.41631 0.012206 -0.0199607)
(4.05272 0.0035351 0.0213874)
(4.31947 0.0236827 -0.028498)
(1.54657 1.54561 -0.00021365)
(1.54407 1.54344 -4.67795e-05)
(4.28097 0.0189251 0.0227023)
(4.3646 0.00851411 -0.00134236)
(1.82383 1.66031 0.0259584)
(1.53992 1.54019 0.000144438)
(1.56822 1.52244 -0.00308291)
(4.32634 -0.00852907 0.00508201)
(1.45646 -1.45662 -0.00195975)
(1.45846 -1.45372 0.00126792)
(1.54079 1.54144 0.000704309)
(4.41394 0.0135242 -0.0170719)
(3.86875 -0.0184899 0.00669397)
(1.54598 1.54609 0.000228417)
(1.71297 0.355956 0.294726)
(1.85723 -0.184672 -0.0692298)
(4.29419 0.0225712 -0.0021057)
(1.54306 1.54566 -0.000739592)
(1.54543 1.54249 -0.000796592)
(4.44525 -0.0450906 -0.0102334)
(4.24889 0.0719096 0.0649405)
(1.85038 1.65524 0.0770062)
(2.68824 0.88311 0.063237)
(4.18892 0.100851 0.118576)
(4.00634 0.0112233 -0.0287074)
(4.24982 0.00351126 -0.00343129)
(1.60309 1.5049 -0.00279463)
(4.23218 0.0113398 0.000597856)
(4.38693 -0.0292 0.0302537)
(1.54916 1.54514 -0.00177866)
(1.44837 -1.42519 0.0019148)
(1.54101 1.54185 -0.000179996)
(1.54367 1.54406 -0.000546665)
(1.54578 1.54797 -0.00168654)
(1.5464 1.54671 -0.000126944)
(4.42432 0.014764 -0.0183995)
(1.45706 -1.45697 0.00106029)
(1.54388 1.54423 -5.68461e-05)
(1.53638 1.5163 -0.000205363)
(4.4278 0.0146378 -0.0238293)
(4.36021 0.00959096 -0.0032454)
(1.46425 -1.44504 -0.00053093)
(1.44132 -1.42653 0.00222343)
(4.46318 -0.0211509 0.0381002)
(4.2427 0.00369717 0.00534858)
(4.23587 0.00523571 0.00701763)
(1.45899 -1.45493 -0.00078255)
(1.54303 1.54361 0.000828798)
(4.23953 0.00308015 0.00650232)
(1.45851 -1.45746 -1.15507e-05)
(4.1889 0.0110793 0.00108421)
(4.29868 0.00707606 0.0147572)
(4.30721 0.0152699 0.00692868)
(1.46794 -1.45726 0.00458563)
(1.45783 -1.45839 0.000434206)
(1.45764 -1.45853 0.000445357)
(1.5455 1.54574 0.000404618)
(4.34892 -0.0188402 -0.012239)
(1.54385 1.54489 0.000154189)
(1.54287 1.54326 0.000378281)
(4.32491 0.0114262 -0.0154801)
(1.45767 -1.45837 0.000624662)
(4.25547 -0.00150107 0.00529288)
(3.89487 -0.0317491 0.012993)
(1.55827 1.50847 0.00746758)
(4.3588 0.0139804 -0.00276346)
(2.06076 0.313768 -0.0534871)
(4.29485 0.00335684 0.00391967)
(4.45766 -0.016499 0.00901131)
(3.92426 0.0157496 0.00489967)
(4.44274 -0.000332432 0.0283467)
(3.21301 0.0710294 -0.120378)
(1.83635 1.473 0.0299712)
(4.2852 0.000225352 0.00238547)
(4.46151 0.0317155 0.00194965)
(4.35714 -0.0125173 -0.00518677)
(1.58236 1.37884 -0.0465411)
(1.9513 0.19408 -0.098321)
(2.32841 -0.148375 0.0749143)
(4.28543 0.0068015 0.00382313)
(1.54305 1.5453 0.00204332)
(4.21305 -0.009599 -0.0312335)
(4.30155 -0.00356824 -0.0106819)
(4.17999 -0.0376417 -0.0669349)
(1.59492 -1.12503 -0.0853861)
(1.45824 -1.45837 0.000779979)
(1.45778 -1.45779 -1.86865e-05)
(4.38373 -0.0143677 -0.00255908)
(1.79777 1.49264 -0.0184128)
(4.15542 0.0140685 0.00674004)
(1.67448 1.52685 0.020597)
(4.13925 -0.0081823 -0.0278964)
(4.24518 -0.00624357 0.00518961)
(4.20488 -0.00352567 0.0155558)
(4.36114 0.0110192 -0.00408691)
(1.54442 1.54331 -0.000477101)
(1.53598 1.53173 -0.00227107)
(1.55945 -1.42081 0.00659678)
(4.35598 0.0161214 0.000757432)
(1.54601 1.54185 -0.000229042)
(1.7792 1.5341 -0.0662756)
(4.45492 0.0782732 -0.0676475)
(1.55141 1.5496 -0.000778958)
(1.53913 1.54652 0.00452822)
(1.45508 -1.44923 -0.00377987)
(1.54566 1.54624 0.000409587)
(4.1595 -0.00246424 0.014873)
(1.58296 1.50091 0.00499248)
(1.54558 1.54386 0.000164356)
(3.53948 0.500231 -0.366615)
(1.8034 1.46132 -0.0198503)
(1.53967 1.54053 -0.0128647)
(2.10492 -1.24415 0.0764498)
(1.5453 1.54301 -0.00132887)
(3.40502 0.0129664 -0.0298875)
(4.24192 -0.0054133 0.0118546)
(1.45703 -1.45683 -0.000557675)
(4.17088 0.00477233 -0.00970146)
(4.21682 0.684728 -0.0942862)
(4.15247 -0.0407174 -0.0652669)
(4.56304 0.171134 0.00459002)
(4.09607 0.00482661 -0.00729122)
(1.54554 1.53475 0.00487972)
(4.31477 -0.0416443 -0.0462169)
(4.47078 -0.0176128 0.00989297)
(4.15167 -0.0408869 -0.0658701)
(1.45755 -1.45804 -2.20459e-05)
(4.52932 1.19894 0.314855)
(4.14992 0.00575584 0.00802227)
(2.0525 1.64277 -0.0959898)
(4.12279 0.00197699 0.00604221)
(4.50176 0.0553983 -0.0420899)
(4.29758 0.0850847 0.00501784)
(4.25994 -0.0137639 -0.0177204)
(4.26127 0.013746 0.00098008)
(4.53676 0.0650925 -0.0240006)
(4.3818 -0.00706358 -0.0074801)
(4.3452 -0.00761871 0.00491131)
(1.53525 1.54024 0.00609087)
(1.54109 1.53369 0.0048237)
(4.17872 0.0110724 0.00559634)
(4.11006 0.00438413 0.00577205)
(1.5424 1.54611 -0.000278591)
(4.23511 0.00566604 0.000374838)
(4.45311 -0.0180593 0.00540002)
(4.36887 -0.0120625 0.00460042)
(1.54978 1.53454 9.33862e-05)
(4.28264 0.0848131 0.0196873)
(1.54318 1.54179 0.000313283)
(4.34887 -0.00675734 0.00356289)
(4.37366 -0.00833431 0.00328889)
(1.54423 1.54349 -0.000235944)
(4.16578 0.0188569 -0.0148083)
(4.36375 -0.00601447 0.00133886)
(4.26545 0.0794042 0.00688679)
(4.20764 0.00143052 0.0139112)
(1.57372 1.54433 -0.00234584)
(4.37858 -0.0131415 0.014671)
(4.27848 0.0967735 0.00137205)
(4.50969 -0.104625 0.026527)
(3.79737 0.0490232 0.0150133)
(3.38906 0.0102637 -0.0473249)
(1.54719 1.53126 -0.00278492)
(1.54191 1.54065 0.0014657)
(4.20564 0.0565899 0.00749581)
(1.54548 1.54586 -0.000431863)
(3.68219 -0.0104473 -0.00986877)
(4.22477 -0.0213943 -0.0322676)
(2.5807 0.366797 -0.0902974)
(4.67873 -0.296927 0.111904)
(4.13099 -0.183563 0.0525683)
(4.59909 -0.163189 0.0435942)
(1.54551 1.54583 -0.000421266)
(2.09303 1.77768 0.015053)
(4.37266 0.0125594 -0.00366011)
(1.45209 -1.4573 -0.00442314)
(0.797098 -0.552759 0.243793)
(4.3405 -0.0815899 -0.0657095)
(1.54549 1.54142 -0.00288109)
(1.5459 1.54425 -2.51423e-05)
(3.86683 -0.0760123 -0.00422281)
(3.166 -0.202755 0.0408198)
(1.54605 1.54596 -0.000262131)
(3.9196 -0.0713985 0.0115318)
(1.54432 1.54281 0.000208328)
(1.54453 1.5467 -0.00257349)
(1.45733 -1.45752 -0.000263703)
(1.45921 -1.45562 0.00352465)
(1.43067 -1.4198 0.00517466)
(1.45727 -1.45464 1.60685e-06)
(3.9051 0.0311224 -0.0143486)
(1.54304 1.53422 -0.00127332)
(1.54445 1.54503 0.000460509)
(1.53695 1.54553 0.00270137)
(3.63718 -0.803485 -0.210747)
(4.12676 -0.0346148 -0.0760921)
(3.99579 -0.000841397 -0.0399605)
(4.37288 0.0127903 -0.00401616)
(1.53989 1.5298 0.000282116)
(1.54872 1.54328 -1.82873e-05)
(4.19282 -0.0711741 -0.0864296)
(1.54526 1.54613 -0.00137923)
(1.54475 1.54348 0.000671796)
(2.44879 1.41359 0.0517742)
(4.467 -0.0599807 -0.00515583)
(4.35891 0.0108202 -0.00333613)
(1.54357 1.54376 -0.000433457)
(1.54544 1.54237 0.00178415)
(1.54124 1.53731 -0.0020362)
(1.54357 1.54102 -0.00032525)
(1.54749 1.5473 -0.0016857)
(1.54808 1.54399 0.000181042)
(4.37739 -0.101075 -0.0634527)
(1.54627 1.542 -0.000271239)
(3.03601 0.0440165 0.100139)
(4.39819 -0.00987439 0.0112407)
(1.54422 1.54638 -0.000323302)
(1.44873 -1.45465 -0.00394918)
(1.4387 -1.42522 0.00163007)
(3.69613 0.0425607 0.19764)
(1.4314 -1.42964 -0.00574291)
(1.45613 -1.45711 0.00144002)
(1.53755 1.53985 -0.00966622)
(3.96421 -0.060247 0.00259691)
(1.5423 1.54229 -0.000405389)
(4.34122 -0.0563024 -0.0357227)
(3.46078 0.0552747 -0.017536)
(2.86242 0.00416589 0.112562)
(1.54269 1.54301 0.000475628)
(2.96837 -0.755749 0.0599983)
(4.37492 -0.00841124 0.000773237)
(4.4052 0.00993356 -0.0117644)
(1.56418 -1.4922 -0.0183255)
(4.24365 -0.0677083 -0.0119999)
(4.32911 -0.00850217 -0.00672531)
(1.4581 -1.44809 0.00145512)
(1.5935 1.51217 0.00752333)
(2.06443 -1.58809 -0.130354)
(1.54074 1.5397 0.000220324)
(4.38377 0.00962287 -0.00202044)
(4.36549 -0.00583651 0.00668596)
(4.44746 -0.0523432 0.0218512)
(2.93513 -0.00169699 0.159557)
(1.54578 1.54517 -0.000168528)
(4.38614 0.00982871 -0.00304523)
(1.59051 1.51385 -0.00186703)
(1.927 1.63237 -0.00750881)
(1.96317 -1.52496 -0.0619861)
(1.54465 1.54508 0.000628658)
(4.3872 0.0125188 -0.00369613)
(1.54221 1.53858 0.00152926)
(1.44294 -1.41882 0.000393874)
(4.00181 -0.0549363 -0.0989586)
(4.2877 -0.00974391 0.00550624)
(1.44301 -1.41971 -0.00446213)
(4.31372 0.00729507 -0.00224335)
(1.64705 1.60993 -0.0102705)
(4.38093 -0.0371989 -0.0191485)
(1.45756 1.39522 0.0158969)
(1.54594 1.54674 -0.000729839)
(1.55393 1.54865 0.00519602)
(1.45838 -1.45862 0.000440042)
(4.26033 0.00881568 -0.00740525)
(3.80923 0.00635253 -0.0164689)
(4.41665 -0.00190114 0.0801478)
(1.54057 1.54092 0.000942472)
(1.54122 1.51247 0.00985159)
(4.24108 0.00946236 -0.00703447)
(1.54559 1.54593 -0.000521526)
(1.78826 1.62307 0.0222897)
(1.45755 -1.45642 0.00065995)
(4.1936 0.0265085 -0.00271435)
(4.46313 -0.11305 -0.0315957)
(4.37211 0.0115203 -0.00445467)
(1.46062 -1.45703 0.00238949)