/*--------------------------------*- C++ -*----------------------------------*\
  =========                 |
  \\      /  F ield         | OpenFOAM: The Open Source CFD Toolbox
   \\    /   O peration     | Website:  https://openfoam.org
    \\  /    A nd           | Version:  10
     \\/     M anipulation  |
\*---------------------------------------------------------------------------*/
FoamFile
{
    format      ascii;
    class       volScalarField;
    location    "27";
    object      p;
}
// * * * * * * * * * * * * * * * * * * * * * * * * * * * * * * * * * * * * * //

dimensions      [0 2 -2 0 0 0 0];

internalField   nonuniform List<scalar> 
111485
(
7.87165
0.0248133
0.0157416
7.87261
0.00875345
7.60843
0.00865663
0.0170817
0.00872856
-0.0046381
0.00811851
0.00570167
0.0123801
-0.00291123
0.0104524
0.0359796
0.0256748
8.79353
0.0138165
7.87324
7.87342
7.61107
0.00652692
0.0250293
0.00324764
7.84684
0.0105345
0.0448215
0.0143449
7.8727
-0.0871946
0.0157669
7.87519
7.60575
8.57394
7.56545
-0.0626499
0.0518415
-0.122576
0.0196009
7.65251
-0.00463958
0.0203162
-0.0350282
-0.262609
7.88631
-0.0185364
0.0207208
-0.00969817
7.915
7.91315
7.36109
7.92163
-0.0500057
7.9266
0.0229565
0.0141591
7.6137
-0.0981682
0.0169596
0.018184
7.87207
0.0169507
-0.0762212
7.65714
0.0226687
5.10099
0.0151655
0.00193034
0.0150979
-0.144008
0.0286949
7.72509
0.00358886
7.87801
0.0292454
7.61056
-0.00760843
7.60952
8.05533
-0.116093
-0.0375271
7.60998
7.87432
0.0214364
0.00768787
1.74105
-0.0562974
-0.108364
0.0378999
-0.216045
0.00945507
0.0209839
0.0457203
-0.00426503
7.87401
7.87212
-0.0397078
-0.742524
0.0649266
7.87194
0.00279268
7.59477
-0.011753
0.0089721
7.91201
7.61268
0.0147097
0.00715808
-0.351948
0.0207836
0.0310156
0.0151361
0.00386564
7.84344
0.0301391
7.85995
7.60591
0.0098281
7.87423
7.84584
6.66188
7.61076
7.61388
-0.00637104
8.95702
6.62444
0.0182385
7.87491
0.388287
-0.107012
-0.0412399
7.8785
6.50857
6.79758
0.00897388
7.61035
0.031124
0.00596202
0.0250415
-0.0412619
0.00791035
0.014067
0.0165521
-0.0250475
0.0327841
7.61034
7.87348
7.6189
0.0149856
0.0123325
7.87109
-0.0754494
0.00924185
-0.66889
0.0166188
0.012357
0.00770709
-0.526495
7.87961
7.87289
0.013674
0.00589126
-0.486418
-0.606444
0.0244669
-0.0674773
7.64098
-0.449013
-0.414273
7.6136
7.87297
0.00453016
7.61151
0.0295124
0.0170222
7.66669
7.7029
7.86277
7.81072
7.67391
7.87193
0.021748
0.0169988
0.0238696
0.0700934
-0.00133035
0.026701
-0.052534
7.87268
0.0142378
7.69808
7.86042
0.0346874
-0.0118708
-0.0508678
0.0294909
0.0159648
7.87885
0.0208679
0.0163551
5.29579
-0.0258115
0.0245695
7.86912
0.0305303
-0.0123706
7.69683
-0.0571304
-0.0246443
0.0116309
0.0131796
7.66663
7.87169
0.0270147
4.95427
-0.0410129
7.61124
0.0295763
0.0326574
-0.00660516
7.87133
0.0185613
-0.0657931
5.98686
7.61128
7.6137
-0.120536
-0.595035
7.72478
7.29335
0.0309527
0.0225765
-0.0841955
7.72287
7.80483
-0.074178
7.87575
0.00525089
0.0283497
0.0286648
0.0161343
0.0277236
7.61488
-0.106442
0.0187726
7.61765
7.61003
-0.0553655
0.0300201
7.78269
0.029736
0.0295737
7.87364
6.3522
-0.0304384
7.88709
8.02326
7.18609
7.87305
0.0245804
0.0181733
-0.0106265
7.87565
0.027973
7.87246
7.8708
7.87855
-0.0817302
-0.0141461
0.0235706
0.014233
-0.00177016
0.0172924
0.0145585
-0.0839567
0.00974975
0.0202948
7.57079
7.87335
-0.090831
0.018795
-0.0969143
0.0252691
7.87378
0.0239135
0.0107679
0.0174406
0.0146205
-0.114387
0.0125618
0.0158654
-0.0277728
7.61021
-0.0158278
7.61159
8.73808
8.09023
-0.128192
-0.0143735
0.00750012
7.8662
7.67448
0.025694
0.0257858
7.87076
7.8695
7.93018
0.0172137
0.0292668
0.0183674
0.014688
0.0107832
7.22526
7.61694
7.87484
0.0292847
3.25072
-0.00621943
-0.117152
-0.0910276
7.61084
7.87129
7.87207
6.79161
0.022369
0.0164519
7.60264
0.0254113
7.77951
7.86289
-0.0377453
0.0229601
0.000243548
0.0254768
7.98506
6.75569
7.60595
0.0228042
0.0197169
-0.0879299
7.64952
0.441601
-0.155177
0.0163206
0.0274693
1.26677
0.00934899
7.60885
0.00421384
0.0285739
-0.10822
-0.0440418
0.00572698
7.6084
7.87621
7.61125
7.87586
0.023958
0.0234212
-0.0187954
0.0140109
7.62642
0.00984521
7.61373
7.87915
0.0104778
8.13876
6.94922
7.91551
7.56075
0.015431
7.61232
0.017224
0.0147842
7.60929
0.00299301
0.0243785
7.85319
0.0240511
0.00952381
0.0300904
-0.0506985
0.0406954
0.0297602
7.99271
7.8741
-0.0236954
7.63052
0.00243559
-0.0505273
7.6654
7.61302
0.0252303
0.00804356
-0.00106572
0.0215055
7.61023
-0.0845926
0.00116391
7.60656
-0.037876
-0.0138009
7.87071
7.87213
0.0246854
0.00386432
7.59095
7.86388
5.85474
7.8713
0.00902633
7.61123
7.87218
-0.00216419
-0.100409
-0.0121109
0.0169086
7.60952
6.8091
-0.0104059
6.90723
-0.0331594
-0.00617428
0.00191319
5.27371
6.98178
-0.490238
-0.283199
7.87018
-0.0535806
0.00832595
7.86942
-0.515738
-0.00531872
6.94604
0.00206509
0.00497586
0.0385594
7.61064
0.268547
0.00105473
0.0489269
-0.141094
6.60052
-0.606573
7.87151
-0.0465808
-0.169245
7.61425
-0.00905331
-0.0135229
6.41841
7.87459
7.46883
7.87239
0.00999263
0.0781862
0.00832434
0.00769835
-0.0596875
7.61188
-0.0483203
7.88394
0.0216533
7.59775
7.8813
7.88863
-0.00157213
7.87497
7.87167
8.34504
7.87054
7.62212
-0.0226056
7.6117
7.41608
7.60816
7.85918
7.60319
7.88111
7.61133
-0.00378389
7.60667
-0.0257122
-0.00109786
-0.0867123
7.61795
-0.0230724
7.61581
7.87135
-0.00844797
-0.00832265
0.0387792
-0.128276
7.32091
-0.0185045
-0.0280035
0.0227937
-0.0149685
-0.00552697
7.87406
-0.00456541
6.42959
-0.00129259
7.61095
-0.02357
6.65394
0.0220276
0.0126557
8.29127
7.67535
-0.033083
7.87109
-0.0163612
-0.0248696
7.62085
7.62827
7.92081
7.61308
-0.981795
-0.0166338
7.60723
7.61809
0.00660512
7.61101
-0.0196232
7.60985
-0.0215221
7.87162
0.00477307
0.00379558
0.0497854
0.0209761
7.59015
-0.128738
7.60504
7.61083
0.000152541
7.61205
-0.00501175
7.92694
-0.0315239
7.87327
0.0200708
7.87342
6.95363
-0.113468
-0.0497368
-0.0197619
0.00446911
-0.0313683
-0.00658549
7.61795
-0.0260653
-0.0306081
7.61077
-0.0558424
-0.0668299
-0.01161
7.68067
8.03362
0.0296703
-0.0426194
3.67248
7.71799
-0.00332839
0.0180732
0.00130795
-0.00204239
0.155546
2.52085
6.86014
-0.704162
3.13607
7.8728
0.00533805
7.62978
6.98445
0.0291923
2.46719
-0.724423
1.41844
6.85791
-0.0162693
0.0132788
7.62613
7.44321
0.020395
7.87867
7.61106
7.61171
7.61651
-0.00410275
7.61231
7.82972
0.00229006
0.0247967
6.0141
-0.0320853
7.30791
0.0256046
7.92049
7.61585
-0.00948911
7.61004
7.61643
6.95124
0.0450631
4.63379
-0.0283088
0.0369546
7.88684
-0.230871
-0.0716555
0.00223566
-0.0178682
0.252891
-0.00200269
7.61334
-0.0107823
0.00496705
7.87668
0.018181
-0.0264868
0.0111663
0.0349992
0.0111765
0.0101562
7.88644
-0.00403048
-0.0587881
6.93145
0.0119323
0.0106723
4.83353
0.0374992
0.0124003
0.00123608
0.00436488
0.0127948
0.0311442
7.75658
0.0065643
-0.00459337
8.22989
-0.00825998
-0.0223898
0.035565
7.61284
0.0491139
7.89124
7.61068
7.62288
7.61459
0.0146364
7.04438
-1.04714
7.86862
7.55179
0.00127529
-0.00448872
7.86995
-0.0136117
7.86984
7.87365
7.92284
-0.00982831
0.00349944
6.98042
7.82067
7.61255
7.61254
-0.0688786
0.0197836
6.79908
-0.000905288
-0.417998
7.61642
0.00664571
-0.0200095
0.0825223
7.61038
7.61079
0.0201154
0.0305979
6.91498
7.61425
7.60289
0.0148282
7.8764
7.86954
7.61261
0.00285622
0.0185676
7.61036
8.4797
8.21279
0.148718
7.6155
7.61025
-0.0252432
-0.0775058
6.89963
5.94368
1.13384
-0.0161251
0.00207138
7.59008
-0.0224686
-0.00730783
7.60867
7.92023
7.60981
7.61157
7.61477
7.60962
0.0194976
7.87094
7.61054
7.67126
0.0110066
0.0182316
7.87709
7.93354
-0.0274837
0.0247416
0.0337915
7.86887
7.61112
0.0246564
7.87407
-0.0108961
0.0179419
0.0413564
7.84974
7.87203
7.87187
7.61162
0.0333296
7.61097
7.61045
-0.0364404
7.87196
0.0330196
0.0029718
7.63531
0.0332104
7.84012
0.0225782
-0.00972455
-0.0272997
-0.0193382
-1.28016
7.22826
0.0206739
-0.0149451
0.000953143
7.78577
-2.11792
7.1456
0.0235361
7.61426
-0.0315968
-0.0165479
-0.0349734
8.07872
7.8721
7.87475
0.0283417
7.30462
-0.0269685
7.44172
0.0191333
0.0338586
0.00910925
0.0240374
7.60925
7.63765
7.74645
0.0261139
7.61366
7.22562
-0.161246
7.61274
7.61969
7.87352
7.61023
0.00970972
7.60087
7.61186
-1.58377
7.28703
7.63227
7.06237
7.61207
-0.0398121
0.0126706
7.87098
0.0146659
1.00101
-0.040027
-0.390666
0.0232777
7.61637
-0.0114987
-0.0364382
-0.0391326
7.87372
-2.65863
0.00980472
6.46616
-0.00427029
-0.120576
-0.106619
0.001136
0.0267381
-0.143401
0.0387296
0.0277739
7.59006
7.62777
0.0109288
-0.000709604
7.61501
0.0134378
0.00338247
0.0220696
7.60952
-0.124749
7.61018
0.0193423
0.0134011
7.61055
-0.0665958
0.0273851
-0.162961
-0.0219757
7.56808
0.0135139
-0.157206
-0.0763695
-0.160846
-0.042414
7.60083
7.62072
-0.0257438
7.61026
0.0261961
-0.0810122
6.71842
-0.474171
-0.827804
-0.305035
7.61014
6.37858
0.0244648
7.87417
9.46313
-0.0502885
7.60628
7.60963
-0.72663
-0.864453
7.61036
-0.126725
7.61158
7.61017
7.87591
7.87063
7.95453
7.87311
-0.0285631
7.61552
7.61399
7.62008
-1.4431
0.0112622
-0.000877551
0.0254743
7.6248
7.6098
-0.0520426
7.61126
7.61348
5.81078
-0.0567369
0.0229008
7.61008
7.60567
7.62258
7.60996
7.55616
7.60903
-0.0752842
7.61549
-0.206911
0.0110413
7.61223
7.88245
7.93018
-0.128444
7.92235
7.87331
7.62788
-0.215444
7.60899
-0.0682672
-0.0728809
-0.184844
7.60791
5.28878
-0.0436439
0.00559993
7.66384
-0.203167
-0.0172741
7.88109
7.58738
6.89828
7.60644
0.0229496
0.0117819
-0.0667086
-0.351605
7.61141
0.0257904
7.56653
6.82544
6.85507
7.6138
0.0180799
7.61119
7.94075
-0.0687107
0.0284221
7.93783
-0.00315206
7.31131
-0.0869642
7.97709
7.61082
7.58215
7.87226
0.0248381
0.0199818
0.352316
7.61228
7.6622
0.0149833
7.6105
7.06985
7.87167
-0.00573704
-0.33937
0.0435315
7.86246
-0.0760727
-0.0637958
8.24085
-0.0635369
7.61946
-0.04375
-0.0280209
0.00501373
-0.0908212
-0.182125
7.61084
7.61158
7.61117
-0.0755825
7.68131
-0.112492
7.87611
0.733825
7.87159
0.0174607
0.0246655
7.94248
7.61004
7.95976
7.62013
-0.114297
7.96787
6.90619
0.00437727
-0.107438
7.91052
7.03556
7.704
7.05648
7.61248
7.61056
-0.106094
0.0042866
7.87264
7.86538
-0.630636
7.87812
-0.1057
0.0229142
7.69611
-0.0373235
7.87221
0.017632
7.6207
0.0141784
7.61041
-0.590522
-0.311022
-0.150404
-0.0427406
-0.0471454
4.68213
7.5416
-0.035756
7.91677
0.0120111
7.87041
7.64018
7.62309
7.62149
7.64547
7.61502
-0.0574035
-0.0687946
7.87249
6.65247
7.87827
-0.0561446
-0.127973
7.86891
0.0236978
-0.153825
7.93062
0.0258382
0.0264042
0.0149925
-0.150354
7.61051
7.60974
7.63929
7.61096
0.0181263
7.54006
-0.0374589
7.61089
-0.0482271
0.018381
7.61334
-0.0553804
7.6012
7.61027
-0.0483737
-0.0860075
2.13161
7.61156
7.95397
7.60382
0.019311
7.50387
7.92329
7.5213
0.857931
6.7245
-0.533385
7.02671
7.48483
7.7681
0.0189752
0.00302633
0.0102275
0.0178368
7.85838
-0.031074
7.61104
7.61333
0.0162873
7.58832
-0.649762
-0.0443899
0.0321329
-0.0491541
-0.96423
-0.00399954
7.61256
-1.42131
-2.97913
-0.0108384
-0.0382509
0.0224878
5.52843
7.86746
-0.000179747
7.87612
7.60948
-0.248503
-0.00441948
-1.12415
7.59536
7.43825
-0.0778161
7.93022
7.61252
-0.0549996
7.94907
7.93806
0.110507
-0.0548243
-0.0953551
0.0459712
0.0259185
7.61528
7.61034
-0.277039
0.0242663
7.61166
7.94331
0.0305711
7.62315
6.60957
6.75882
6.79537
4.35706
6.62607
7.61323
0.0191338
7.59858
-0.0802031
7.61189
3.42445
7.6708
7.63606
7.61291
7.61121
0.0278847
7.61095
7.61069
6.91523
7.60735
7.6136
7.6074
0.0229217
7.62829
0.0208322
-0.0855314
7.63843
0.0403256
7.61138
-0.0298304
-0.205934
0.0175123
0.0258518
7.84564
0.0230897
0.0236099
-0.153901
7.87527
-0.110832
0.0243464
0.0265739
7.32712
0.0177796
7.68338
7.61128
7.61406
7.61039
0.023455
7.61153
7.60114
0.0203907
-0.138391
0.00845653
7.62228
5.42588
0.0290674
7.61591
-0.374313
7.9274
0.0102541
7.60851
7.61092
-0.00660227
7.60788
-0.0231844
7.87528
7.61147
0.0268033
-0.0412137
0.0236352
0.017917
-0.142557
0.016732
7.61176
8.01693
0.0128774
0.027996
0.0287547
-0.0970195
7.61044
0.0215726
7.61035
7.79851
0.00333122
-0.0715622
7.62375
0.0226352
7.59874
0.0178135
0.030683
7.71135
7.61018
7.61173
0.0119912
7.61278
7.61131
0.0151991
0.0189578
-0.0449086
0.0228014
7.63283
7.62233
0.00960066
0.0276572
7.61653
0.0100668
7.70003
0.00618207
7.61142
7.61127
-0.00844808
7.60991
-0.0255471
0.0297105
7.61772
7.60963
0.00322699
6.47051
0.0303111
7.87169
-0.0625472
7.88218
6.67856
6.45488
0.0261585
6.96251
6.88817
0.00996963
6.84613
4.25507
6.33192
7.67343
7.87696
-0.182599
0.0239592
7.65141
7.60938
0.00048487
0.0119572
7.62211
0.0120794
7.60919
7.88206
0.00246234
-0.00756274
0.126073
7.61029
7.61232
7.61126
7.61042
7.60599
7.60918
7.60434
7.6064
7.61017
7.60854
7.61022
7.87833
7.61378
7.60969
7.61255
7.78509
7.61012
7.61029
7.61048
7.63812
7.81789
0.0184676
7.61205
7.61045
7.62214
0.0255591
7.61406
7.88196
2.94529
7.60089
7.5085
0.0168552
8.24298
7.56463
3.47959
0.0123171
7.61147
6.75945
7.25815
7.60969
-0.0322098
0.0139609
0.0117682
0.00193574
0.0316318
7.90203
7.6046
0.0167294
0.0224511
0.0016049
7.60807
0.0206828
-0.0180579
0.0254682
0.0215427
0.0225772
0.00245669
0.0256642
0.0146039
7.88654
0.0211074
0.0247891
0.0122173
0.0176346
7.60989
7.60958
7.60974
7.87232
7.60752
0.0241241
0.0231469
7.61305
7.6101
7.61077
7.8185
7.61221
7.87389
7.61759
7.87849
0.0285282
-0.228574
0.0238714
0.0301177
7.5872
7.6285
-0.0359842
-0.267594
7.61032
7.61103
0.00772095
7.88532
7.61036
0.0632481
-0.00330652
0.0139729
0.0311354
-0.0323477
7.89831
0.0144512
0.0199819
6.90788
7.87573
0.00936107
7.89505
7.62432
2.37872
1.26965
-0.0106016
7.76539
7.84993
-0.046831
0.0207494
0.0329867
0.0233895
3.39056
7.87192
-0.0207417
8.23637
7.87412
7.55733
0.000789152
7.61179
0.0250933
0.0107087
0.0105005
0.0123111
7.87964
0.0353985
7.87565
7.45295
7.87368
7.86519
0.0215986
4.48707
7.61054
7.87254
8.3585
0.0257553
6.85581
0.010299
0.0190183
0.0211217
0.0216251
7.82374
7.86748
6.62792
0.0122468
0.025901
-0.923947
7.91972
7.87171
6.8233
-0.0259879
-0.026446
7.60919
-0.0343235
2.48688
0.0133962
0.0192908
7.87213
6.64268
0.011544
0.023993
7.61164
0.00367073
0.00190639
-0.00420093
-0.00604044
0.0199287
0.036916
6.91084
0.0310327
0.0241851
0.028293
7.96774
0.01602
6.9974
0.0312896
0.0199242
7.87452
0.0209227
0.0158024
0.01069
0.0237812
8.73849
2.06391
-0.0549344
4.27673
0.0175807
7.64658
0.0222424
0.0175312
7.87945
7.61062
-0.36644
-0.121074
0.0187167
8.73078
0.00540175
-0.210183
-1.17316
-0.0859218
7.88009
7.8926
0.0219644
8.34585
0.0240668
-0.22238
0.0170721
0.0329296
7.87209
-0.003671
0.0234951
7.87101
6.92979
0.0352286
7.88714
0.0272507
0.0317206
7.87309
8.78893
0.0212384
7.87212
7.61005
7.61051
0.0291217
0.0347037
0.0121075
7.92669
0.0091237
0.0281676
7.67256
0.0310904
0.0190202
0.0245526
-0.132255
7.61076
0.0180627
0.0538798
0.0308556
0.0193553
0.0267466
-0.16206
0.0287031
7.87143
-0.049798
0.0220009
7.87179
0.0263697
7.61675
7.61159
7.87528
7.62071
7.87385
0.00117266
7.61158
0.0264007
-0.0201286
7.87604
0.012464
7.80375
0.0170243
7.87853
-0.170713
7.65202
0.00661488
0.000618221
-0.190742
0.0407471
0.0234883
0.0160664
0.0284681
0.04035
2.77815
0.0328895
0.00410765
0.042854
7.87343
0.0399261
-0.129548
0.0382053
0.0122368
-0.171626
7.8756
6.76873
7.87681
0.0126176
7.87145
6.16589
0.0245936
8.38899
0.00672679
7.86344
7.84069
7.61065
0.0167047
0.043442
0.0226178
-0.047859
0.0246782
0.0189497
0.0319233
0.00789381
0.0151546
0.0300159
0.0205102
7.87938
7.56435
7.86622
0.0165192
0.0280534
7.6485
7.61056
6.30463
0.044633
0.0180423
7.87188
0.0223054
7.86975
-0.439206
0.0164705
-0.0691932
7.87301
7.87133
0.00960955
7.87187
-0.0109625
0.0296761
7.45379
0.0190291
0.0150272
0.0272257
7.87105
-0.114424
6.98018
-0.0283904
0.00900618
7.87457
7.88439
0.0269374
5.52416
7.90416
0.0345795
0.031259
7.8722
7.85457
6.93624
0.0126751
6.28339
0.0149473
-0.0375012
-0.0035166
7.87168
7.03265
-0.0390334
7.87045
7.61699
7.87399
7.87533
7.14281
7.72437
7.57062
7.87248
7.88961
7.29649
8.39812
7.63966
-0.00251236
7.64917
6.75338
6.3909
8.90707
6.89609
7.8718
-0.0368955
7.38908
7.70884
-0.0372763
8.20831
8.57357
7.77103
-0.0465182
8.36746
-0.0354475
-0.0882394
0.00968023
7.16473
7.87487
-0.0271092
-0.467144
7.83482
7.86569
0.0196696
7.08584
0.0194717
7.0102
7.59298
7.72872
0.0179404
0.0216112
7.87061
0.00314606
7.89696
7.38768
-0.191364
0.0424591
-0.0348713
7.60727
0.0211781
7.22872
-0.0242985
7.61129
7.87155
7.61034
6.98725
0.0402808
0.0306294
7.87427
-0.771828
7.88108
7.89319
7.88069
7.87305
-0.0278119
-0.0421314
0.0324228
-0.0216481
7.83323
0.0103537
0.010996
0.0357563
-0.0338654
7.6602
0.0264369
-0.00271688
-0.00594642
-0.436775
0.0210108
7.92331
-0.0149256
-0.0270656
0.0211098
-0.0267223
-0.0504648
7.9021
-0.0434756
7.77761
7.87601
0.0191846
7.87961
0.0247643
7.86963
7.93843
7.55087
7.879
7.87346
-0.0502571
7.87765
-0.0193594
7.19543
7.6147
0.0197074
-0.00635235
0.029232
-0.0186101
7.89028
0.694229
7.87441
-0.0217114
7.93974
0.0139954
-0.0292257
-0.0192213
-0.00710875
7.97008
7.97702
7.87927
0.0275344
7.62571
7.86522
0.0231258
7.60359
7.60998
-0.00134681
7.96993
0.00720312
-0.445557
7.14589
7.49778
7.43582
0.0107916
0.0113933
7.87216
0.00741372
-0.0142295
6.98795
-0.0250061
7.87057
0.0196043
0.0211461
0.0385367
7.87425
0.0104407
0.0194639
-0.0314043
-0.00586403
0.00575234
7.87372
7.87206
-0.110642
7.86754
7.60854
7.87005
0.0131016
-0.0214627
0.0171982
-0.0370705
6.86817
-0.00494727
0.0135948
0.0106683
-0.0611871
0.0174495
-0.0210007
0.0112352
7.61032
7.61076
7.61051
0.030409
7.61147
-0.0352619
5.24204
0.00108901
-0.560741
0.00690055
0.0129668
7.6096
7.87288
0.00214065
0.00133767
7.88684
7.60435
7.87407
0.0100573
0.00392693
-0.000541849
0.00599857
0.029336
0.0131814
7.87277
7.87342
7.87156
0.039662
0.00453224
0.00244243
0.0142423
0.0321322
0.00155396
7.84803
7.87178
6.3398
7.65497
0.0241853
0.0260944
7.86735
7.90553
7.86686
7.87567
7.83675
7.71555
-0.00803391
7.87415
-0.0528361
-0.120393
7.61824
-0.00310397
0.0272628
0.0207752
7.91771
7.76184
-0.00763261
7.87244
-0.00931076
-1.23723
0.0182468
7.66538
5.94564
7.61024
7.87635
7.86793
7.6031
2.10586
7.8857
0.00654352
-0.00336684
7.87488
7.87236
-0.011464
7.8783
7.61155
0.0109596
-0.20685
7.8613
7.86184
7.67527
0.041977
7.87199
7.87176
1.16255
-0.0267818
-0.0124667
7.87183
7.61763
7.20711
-0.0170134
-0.0122641
-0.0144006
0.00507748
7.61092
0.0533238
0.01261
-0.00132413
7.55465
7.86935
7.87163
7.82533
7.87217
0.0222359
0.0185786
0.00491989
7.88999
7.87248
7.87174
7.86948
7.68598
-0.0422523
0.110001
0.0183618
7.61505
7.87254
7.92692
-1.01565
-0.0446592
-0.0727358
7.60917
-1.94732
8.25644
7.83837
7.87107
0.0213341
0.0332283
7.87436
7.90643
0.010809
7.8731
0.0129179
0.0276026
2.73349
7.8701
7.66132
0.0221671
-0.0636254
7.91031
2.53674
0.0540351
0.030653
7.87352
7.87632
7.88236
7.88085
0.0262074
0.025529
7.87653
-0.053778
-0.016702
0.203593
7.87235
7.87143
7.87284
7.8768
0.00740886
8.3838
7.8736
7.76728
0.023902
-0.0118124
0.0290992
7.84481
7.87213
-0.0241452
7.62349
7.87256
7.87446
7.87371
0.018598
7.69473
7.59602
7.61364
0.0195759
0.0250443
7.8688
7.87418
7.85498
0.0141262
8.15147
7.87762
7.85702
7.87425
7.87368
-0.202997
0.0218059
7.91479
0.0196265
0.0141168
0.0189824
7.87865
7.87511
7.87375
7.83395
7.61096
0.0291608
7.87327
7.37945
7.33244
-0.0191717
7.65064
-0.027115
7.87194
7.61292
-0.0183728
0.290727
7.03245
-0.00802555
7.87462
-0.011996
8.12404
7.89105
7.92208
9.10722
7.87958
-0.0400846
7.87009
0.00812494
7.61249
6.93481
7.8794
7.86748
0.0144604
0.0307624
7.61036
2.64318
7.6074
-0.0156814
-0.0432109
0.00895383
7.61202
-0.353139
-0.0258525
-0.0523023
0.0220739
-0.630078
-0.0318866
7.59277
7.61094
-0.75519
0.0210814
-0.00438091
7.90922
7.51463
6.37099
3.25302
7.87459
7.61649
7.87467
7.87521
7.87606
8.30297
0.0325522
-0.0760926
0.0286572
6.96796
-0.0964379
7.87426
0.00883786
7.8715
7.8808
7.61139
7.71138
-0.108246
7.69191
7.60401
7.87203
0.0151134
7.87061
7.87226
-0.0592845
7.82747
5.75089
4.92702
4.58897
7.87675
4.80795
4.64639
4.75761
5.45962
7.61043
7.61098
0.00925559
-0.0161866
6.95655
7.13884
7.60661
0.00416086
8.19069
7.7118
-0.103916
7.87452
7.87243
-0.039575
-0.0910033
7.8384
7.6124
-0.0349228
7.03212
7.60463
-0.409363
0.00590718
0.0504794
7.81123
0.0213559
7.87476
0.0142916
-0.397225
0.0156859
7.87258
-0.391511
0.0204788
7.96698
-1.04023
7.86407
0.0181978
7.52968
0.025227
7.80373
-0.0505468
7.87333
7.57183
7.61172
-1.46866
-1.47594
7.88579
0.0083933
0.00947399
7.91936
7.87219
-0.00697266
0.0162944
-0.127632
7.8804
0.014006
0.00829049
-0.0505745
-0.853222
7.8762
-0.174946
7.61987
-0.15461
7.87157
-1.73281
-2.00908
7.85245
0.0207457
7.67443
-0.0474177
7.60955
7.85664
7.88515
7.89019
7.85065
7.85876
-0.00492875
0.0270277
-0.158327
7.88147
6.34038
-0.146096
7.88003
7.82946
7.90517
7.86678
7.90458
0.0227876
7.87266
7.87444
7.6108
0.015857
7.85767
7.61078
7.54024
0.0364318
7.61112
0.00836892
-0.787273
-0.0541657
0.0340873
-0.0155747
8.22073
7.87748
7.87107
0.0693147
0.0303486
7.54183
6.30877
0.0101136
7.87245
7.87562
-0.135921
7.86319
0.0148495
7.87451
-0.0126013
-0.058101
7.88103
7.61026
7.87506
7.87496
7.87024
-0.0271607
7.87083
0.0113748
7.94308
7.87491
0.0236001
7.60413
0.00659403
7.77388
7.87217
-0.0149104
0.0290634
-0.121816
7.87397
7.87437
7.8726
0.0277711
-0.0901381
7.95081
7.6096
7.64137
0.0123074
7.86567
0.0132697
-0.137596
7.8716
7.86804
0.0211315
7.86622
7.64353
7.61125
7.959
7.61115
-0.15563
6.2178
7.63664
7.87325
6.38057
7.86771
6.60221
7.84651
7.86655
7.72845
0.0155539
7.7882
0.0101643
7.85983
7.86693
-0.0572872
0.004816
7.86222
7.82513
7.87411
0.0254415
6.70019
7.87384
7.73268
7.87027
0.0176598
7.86357
-0.183766
7.87445
-0.0118233
6.91585
-0.0291733
7.88896
7.87017
0.00315566
6.54354
7.87957
0.0285091
-0.00903667
7.89266
7.87501
-0.0213706
-0.058481
0.0194479
0.0159508
0.0062671
-0.00960009
0.0214058
-0.0412627
7.94803
-0.19358
6.256
6.14151
7.87331
7.87086
7.8705
0.0343151
7.87494
7.86811
7.87511
-0.124739
-0.0450268
5.94725
-0.0447435
7.87579
-0.021759
7.60995
-0.0623676
0.0219514
6.32971
0.000615201
7.86584
7.84559
7.6111
0.0403598
-0.0132196
7.87275
7.61086
0.0306366
7.87377
-0.136141
7.91434
-0.0847747
7.87174
7.61162
7.85276
7.61046
0.0245302
7.61072
0.27054
7.61262
-0.00696227
7.87248
7.86873
4.30885
3.98354
7.89055
7.86918
7.87211
7.8731
-0.00933638
-0.145939
5.20963
7.87678
-0.00132469
7.6092
7.62045
-0.427669
0.0111284
-0.0706235
7.61169
0.0253481
-0.0234069
0.0241356
0.0138609
7.8724
7.87559
7.87981
7.87598
7.61143
7.6104
7.61117
7.84016
7.61202
7.61135
7.87197
7.61109
-0.11075
7.61031
7.87234
8.61564
7.87435
7.87282
2.7028
7.61069
7.87158
-0.00635892
-0.101069
7.84821
7.85175
7.87259
0.0166911
7.64487
7.86003
-0.113622
7.61176
7.87293
7.86847
7.87649
-0.0491251
7.61021
-0.176519
7.87653
7.85599
7.8712
7.87208
7.86973
-0.112777
-0.14717
0.0204497
7.87461
7.63569
7.90935
-0.128393
7.87197
-0.137844
-0.0878334
7.60864
7.84345
5.93744
-0.406701
7.85506
7.01479
-0.394063
6.01653
-0.0124222
7.6431
-0.0420989
5.98351
5.61258
7.87176
-0.00236674
7.6116
-0.0153893
-0.0557967
7.88106
-0.00359933
-0.28664
7.86994
-0.0706062
7.61364
7.85624
7.8652
7.85212
7.86697
7.60904
7.87182
7.87213
-0.154594
7.10495
7.87237
7.86985
7.87078
7.87477
0.0175417
4.03822
-0.135339
-0.309321
7.87117
0.0127724
0.0018747
7.87239
6.99265
7.78687
7.86189
7.89912
7.962
6.43054
7.16365
-0.0369458
7.87398
7.87801
6.097
6.63596
7.61013
-0.00811062
7.87999
7.62554
7.87437
-0.0817573
7.87652
7.6106
-0.0179783
7.61079
7.57074
7.7635
7.92035
-0.0175252
7.87333
7.87176
7.87161
7.8431
-0.0174229
-0.0680094
-0.0589492
-0.00445024
-0.0327025
-0.0412182
7.61133
6.542
-0.167376
-0.0346233
6.5319
-0.1523
7.86832
-1.08694
7.6335
-0.0913335
7.87443
7.61604
-0.0334947
-1.38596
7.87667
-0.0348861
7.87566
7.87588
-0.0976887
-0.0587508
7.87249
7.61097
7.91699
7.61031
7.8691
6.8596
7.87379
7.87157
-0.0351979
7.87334
7.86813
7.87087
-0.0264341
7.88397
6.9017
7.611
7.61053
7.29786
6.91972
-0.0279466
7.61552
6.92841
0.00393229
7.86627
-0.0446504
-0.0275466
7.87401
-0.000806787
7.87099
7.45376
7.93463
6.78294
7.61295
7.85163
7.86561
7.87607
0.0193523
7.87493
7.87305
7.87158
7.73377
7.87174
7.78448
-0.118432
7.87193
7.87714
-0.0724585
7.87292
7.61132
7.60962
0.0308649
7.87417
-0.165395
6.70145
-0.381434
0.0153966
7.60758
6.53662
0.00617469
6.26607
7.61168
-0.199257
-0.38084
-0.00268972
-0.0593887
-0.259288
-1.1686
7.63489
7.61698
0.00708633
-0.103331
-0.0862763
0.0154657
-0.401581
7.60879
0.0193359
-0.00270158
0.0037309
7.61298
0.00640024
0.0219813
0.0217048
0.00302977
-0.125112
0.0135523
0.0416454
-0.00565379
0.0100349
0.0254166
0.00959971
6.91522
0.0912092
0.00628021
-0.00373842
-0.0314323
0.0234314
0.0110459
0.0147516
7.07619
-0.117268
7.02492
0.0340749
0.00941129
-0.0382178
0.00101622
7.01343
7.60878
0.0113911
0.013939
-0.129842
-0.0663603
0.024014
-0.00218492
4.82669
0.00762363
7.87192
0.000753393
-0.115232
-0.050414
0.0288952
-0.14359
-0.179552
-0.005006
0.00466983
-0.00689369
0.0303049
-3.19267e-05
0.123477
6.13654
5.39891
0.000173467
7.87604
7.87259
-0.000112143
0.0204858
0.0231323
7.87333
-0.0746713
-0.0586536
0.0162825
5.58405
7.87141
-0.219523
0.00767593
-0.12232
7.87576
0.0286629
7.87202
0.00656197
-0.00718277
-0.0487354
-0.0481769
7.87185
7.87391
-0.0402155
0.0110424
0.0261003
7.86538
0.00637868
0.0259177
-0.00818408
7.61794
0.0324615
0.0501241
7.004
0.0210274
-1.50796
-0.108379
7.57957
-0.0646777
-0.103912
7.87186
0.000864511
0.0175697
1.38713
-0.0158247
0.00656803
0.0223587
0.019641
-0.0367385
-0.0231269
-0.241142
-0.112985
0.0301984
0.0217448
-0.0160927
-0.173832
0.0192952
-0.0217244
0.0585958
0.0131372
-0.163585
0.039603
7.87198
-0.00480387
-0.0148712
-0.10835
0.038231
-0.0432752
7.63878
-0.0068221
0.0225778
7.86741
-0.0767629
-0.0178246
-0.00664704
0.0002225
0.022312
-0.0457412
0.010626
-0.0190612
-0.0554939
7.87162
7.87212
-0.0516625
7.61448
-0.0482849
-0.006587
7.70474
0.0222376
-0.0219185
0.0383513
7.87162
0.024297
0.00978429
-0.065005
-0.146527
0.0191341
0.0445304
0.00668652
-0.0126146
7.87208
7.8548
-0.0986439
-0.0350753
-0.0608566
0.0191016
7.85448
-0.0354762
0.0135319
7.70516
-0.00105176
0.00943939
-0.0837906
-0.224647
-0.0331654
-0.0403272
0.037927
-0.00552851
7.61946
0.00129526
0.00156568
-0.0022157
-0.205427
7.85569
-0.0242554
8.01267
7.87287
0.0111107
-0.0144169
0.00397357
0.122392
-0.120276
1.48137
7.61308
-0.0335026
0.0236892
0.0655112
0.00755859
7.87907
7.61182
7.60134
-0.0025842
0.00215168
-0.231919
0.0234169
7.62575
7.85901
-0.010855
0.00440989
-0.0454307
0.0118162
0.00673104
0.0284377
-0.0529232
4.37351
7.61055
-0.00649704
0.0233608
7.85849
-0.00587753
0.0238733
-0.0776081
0.00784363
0.00863691
-0.0444994
7.85866
0.0242066
0.00497195
7.6129
7.64223
0.0292131
0.0793905
0.0146434
0.020806
0.0172176
0.0122848
0.0325305
0.0279779
0.0229391
0.0138301
7.85443
7.84685
0.00995018
0.0305987
0.0162045
-0.102984
0.0199128
-0.00375533
-0.00329193
0.0225744
0.016453
7.61328
7.62007
-0.116337
7.85316
6.86158
0.0120671
0.0185227
2.5155e-05
-0.0983143
7.16145
-0.0370304
-0.0844169
7.29252
-0.105964
-0.211189
0.0194457
0.0215836
0.020005
0.0283501
-0.147204
0.0205733
7.87239
7.23542
-0.0825002
0.0283261
0.00334874
0.0256814
-0.110494
-0.0350876
-0.112451
7.26157
0.0244476
0.0530787
0.0129361
-0.126495
-0.0395223
-0.0973737
-0.205973
0.0020846
0.0221684
7.15356
-0.00579029
0.0258916
2.78495
6.78918
6.2381
0.0367312
6.63379
0.013788
0.0221535
0.00524863
0.0217086
-0.109953
5.04336
3.04191
8.06112
6.72859
-0.0495773
7.61029
7.61001
-1.2847
7.87004
0.0264778
0.0108904
0.0277918
0.0213482
0.0212692
0.00462252
6.26621
0.0224419
0.0252238
-0.0332504
0.0137663
0.0338165
0.0126247
7.61035
-0.208453
0.0287403
-0.0985589
7.61043
-0.0109974
-0.0065507
7.61037
7.86395
-0.0827465
0.0182375
7.90812
0.0109418
0.0162586
-0.0861802
7.87343
7.61037
0.020359
-0.212075
0.0217977
7.61041
7.59497
7.61048
0.000250536
2.54775
2.32024
-0.00351719
-0.371508
7.88148
0.0258739
-0.348765
0.0172644
0.0234821
0.00701145
0.0194133
-0.507322
0.0282259
7.65972
0.00970661
0.0393446
0.0179493
0.018943
0.0137978
0.0349735
0.0167056
0.00948848
0.0304343
-0.0647164
-0.390552
0.0109783
-0.0872435
-0.135419
-0.461951
0.0103856
-0.37462
0.0196577
0.030255
0.0214204
0.0389095
-0.0559496
0.0342956
-0.381123
0.0221694
7.46931
0.00937399
3.8131
0.0126644
-0.00751317
7.61358
-0.0180781
7.46876
-0.005816
7.49682
7.90392
0.0418804
-0.0272902
6.84516
0.0238287
0.0184499
-0.0251946
7.85983
7.87407
0.0123546
-0.000199003
-0.183475
0.0152428
0.031761
-0.0262379
-0.0670669
-0.0103091
-0.0188727
6.50819
0.0087935
7.60986
7.80599
0.0301167
0.0290815
-0.0995812
0.0294974
0.0311497
-0.0123693
-0.0250608
7.78065
-0.114253
0.0214874
-0.0146001
7.79287
7.88019
0.00866239
-0.0029207
6.16022
-0.0443456
0.0291859
-0.00120564
-0.135747
0.0323443
0.0214288
7.86329
4.57246
0.0206189
-0.0766969
7.67731
0.0391573
-0.0507893
-0.0155205
-0.123612
0.0157839
-0.153746
0.00840402
-0.0405573
4.83082
-0.0513283
7.87335
-0.00176376
-0.0217241
0.0307197
0.00972465
6.57156
0.0145319
-0.0826923
-0.0159379
-0.111832
7.42133
7.61057
0.0276755
-0.0763596
-0.00587743
0.00310006
-0.0448352
0.0203945
-0.00243534
0.00682125
0.0417424
0.0265641
-0.0526862
7.03099
-0.135539
-0.025376
-0.00084849
-0.0427576
7.22611
7.61047
-2.39104
-0.118693
8.15336
-0.145005
-0.0271163
7.36771
4.99666
5.45584
-0.0461632
0.022915
0.17263
5.83954
-0.0794361
0.0298993
7.61619
0.22691
6.88477
-0.0153279
0.0209669
7.64361
-0.0289636
-0.0286391
-0.0324559
0.0262182
7.6101
-0.272244
-0.0431673
-0.0795544
-0.0229163
-0.0222071
-0.0434695
-0.0123665
-0.177557
-0.0251313
0.0212141
0.021672
7.87162
6.44426
6.55459
7.72585
-0.0332707
0.0239907
0.02967
-0.0666193
0.019882
0.0280585
-0.00792074
-0.0221686
-0.0182386
0.0227083
-0.0170976
-0.0886852
0.0008058
0.0258295
7.87257
-0.0449822
-0.0635551
-0.0201846
-0.0126858
7.60847
8.87974e-05
0.00251685
0.0339765
0.00129308
0.0119361
7.63055
0.0222155
0.0114393
6.8778
0.0233772
-0.0133628
7.71985
-0.00245751
7.71121
7.60761
0.00103386
-0.0638212
-0.00923527
0.0135856
7.6136
0.034367
-0.0413817
7.612
0.0306762
0.010847
0.0169343
-0.0149873
7.75098
-0.0346993
-0.0292426
0.00750664
7.69478
0.0446847
0.0200948
-0.00456292
0.025742
0.0111385
7.90141
7.4523
7.05862
0.0268144
7.18702
0.0270535
0.0149052
0.024649
7.83372
0.0210803
7.6549
7.87317
7.80803
0.00789854
-0.0127392
-0.212514
0.00119918
0.033053
7.51557
6.88213
-0.0429965
-0.0480425