/*--------------------------------*- C++ -*----------------------------------*\
  =========                 |
  \\      /  F ield         | OpenFOAM: The Open Source CFD Toolbox
   \\    /   O peration     | Website:  https://openfoam.org
    \\  /    A nd           | Version:  10
     \\/     M anipulation  |
\*---------------------------------------------------------------------------*/
FoamFile
{
    format      ascii;
    class       surfaceScalarField;
    location    "27";
    object      phi;
}
// * * * * * * * * * * * * * * * * * * * * * * * * * * * * * * * * * * * * * //

dimensions      [0 3 -1 0 0 0 0];

internalField   nonuniform List<scalar> 
214403
(
-0.00340534
0.00261135
0.000144389
0.000649598
-0.00169433
-0.00570909
0.000484407
0.00691901
-0.00520368
3.4927e-05
-7.20578e-05
0.00524081
0.00447919
-0.00301199
-0.00750808
0.00604088
0.00623995
-0.00788796
0.00188051
-0.000232499
-0.00275119
0.00286521
-2.72031e-05
-8.68189e-05
-0.000432122
-0.0008222
-0.00468312
0.00593744
-0.00866835
0.00492797
-0.00129628
0.00503666
-0.0118128
0.00833801
0.00841842
-0.00494367
0.00722643
0.000856939
-0.00807426
-9.10467e-06
0.00255884
-0.00506683
0.00104133
0.00146666
-0.00525359
0.00165371
0.00272099
0.000878885
0.000242687
-0.0058082
0.00699347
-0.00142796
-0.00507323
0.00510742
-3.41943e-05
0.000973988
0.006064
-0.00776992
0.000731926
-0.00615027
0.00514352
0.00155799
-0.000551237
-0.00618441
0.00603628
0.000148133
0.00199791
5.55213e-06
-0.000540333
-0.00146313
0.00796057
-0.00476504
-0.0105847
0.00738917
-3.84463e-05
-0.00157665
4.56448e-05
0.00156945
0.00324959
-0.0031727
-7.68899e-05
-0.00630525
-0.00218145
0.00216923
0.00631747
-0.00115977
0.00692375
-0.00558158
-0.000182405
0.00342549
0.000361321
0.00119665
-0.00498346
-0.005233
-0.00249871
0.00676657
0.000965143
0.00464805
-0.0058868
3.65499e-05
0.0012022
0.00164335
-0.00143413
0.00537202
-0.00558124
0.00388158
0.0050761
-0.00611661
-0.00284107
0.00567586
-0.00356077
-0.00016102
-0.00195407
-0.00296912
0.00302625
-5.71251e-05
0.00124922
-0.00259102
0.0068876
-0.0055458
0.00720139
0.000340506
-0.00125723
-0.00628467
-0.00285116
-0.00292698
0.00299781
0.00278033
-0.000613343
-0.00345803
0.00306277
0.00100861
0.00227073
-0.0015992
-0.00481032
0.00413878
-0.000875286
0.00436637
-0.0015775
-0.00191359
0.00815258
-0.000189737
-0.00796284
-0.00351553
0.00685727
-0.00334174
0.000633387
-0.00751592
0.00435073
0.00253181
0.00125146
-0.000502936
0.00305991
-0.00380843
0.00292124
-3.1037e-05
-0.0028902
0.00521035
-0.000110895
0.000920831
-0.00602029
-0.00662261
0.000830254
0.00704382
0.000436954
0.00045127
0.00438015
-0.00526837
-0.00207685
-0.0136598
0.0132326
0.00250413
0.00287959
0.000522976
0.000649086
-0.00405165
0.0021501
0.0016358
-0.00526138
0.00147548
0.00680873
0.00408139
-0.00746463
0.000615159
0.00576256
-0.00116737
0.000919332
-0.00344011
-0.00202863
0.00454941
0.001571
0.00241664
0.000718185
-0.00470583
0.000945081
-0.000709196
-0.00219039
0.0019545
0.00347901
-0.00629467
0.00438667
0.00604671
-0.00569293
-0.00195425
0.00160048
0.0053824
-0.000984065
-0.00436874
0.00592279
-0.000251345
-0.0013027
0.00450254
-0.0057571
6.4499e-05
0.00119007
-0.0042389
0.000280244
0.00677387
-0.00281521
-0.00780356
-0.00732797
0.00615565
0.00897588
-0.00416849
0.00419349
0.000825354
-0.000850345
0.000655211
-0.00532664
-0.00433333
-8.9566e-05
0.00225205
0.00217084
-0.00684706
0.00293689
0.00443382
-0.000523653
0.00799935
-0.00644084
0.000410398
-0.00196891
0.000367551
0.00013438
-0.00531062
0.00480868
0.000263275
-0.00145118
0.0071657
-0.00597779
-0.0176736
0.00182805
0.0019399
0.0139057
-0.00163133
0.00481091
-0.00152822
-0.00165136
0.00236964
-0.00124512
-0.00505975
0.00393523
0.00056604
0.00353128
-0.00448941
0.000392091
-9.13545e-05
0.00432372
0.00149902
-0.00573138
-0.000863645
-0.000138575
-0.00178176
0.00278398
-0.00456618
0.00499048
-0.000189553
-0.000234742
0.000160388
-0.00463781
-0.00321866
0.002851
0.000864963
-0.000497308
-0.00861535
-0.000538258
0.00420217
0.00495144
-0.00261643
-0.00111477
0.00222642
0.00150478
0.00382043
-0.0128156
0.00177646
0.00721866
-0.00200965
0.00404508
-0.00220919
0.000173758
0.00290639
-0.00225505
0.000289206
-0.000940549
6.82463e-05
-0.00540116
0.00533292
1.55141e-05
0.00439286
-0.00440838
0.00389167
-0.000760981
0.000515527
-0.00364622
-0.0022996
0.00327999
0.00108799
-0.00206838
-0.00163279
0.00694492
-0.00166884
-0.00364329
0.00327789
-0.00558673
-0.000214395
0.00252324
0.00375531
0.003987
-0.00774231
0.00553708
-0.00622375
0.00159506
-0.000908389
0.00053269
-0.000998416
0.007233
-0.00676727
0.00020973
-0.00117416
0.00521813
-0.0042537
0.00123819
0.010896
0.00313413
-0.0152683
-0.0095123
0.00837082
0.0054232
-0.00428172
0.00043835
0.00335476
-0.00451122
0.000718117
0.00445454
0.00495069
-0.00162366
-0.00778156
0.00825175
-0.00501418
-0.000164567
-0.003073
0.000359134
-0.00105191
-0.00330241
0.00399518
-0.00334715
1.93683e-05
0.00332779
0.00501739
0.000173768
0.000345922
0.00623762
0.000529383
-0.00946482
0.00269781
-0.0049979
0.00110252
0.000888319
0.00300707
-0.00315362
0.000781885
0.000387521
0.00198421
0.00077657
0.000557119
-0.00659132
0.00525764
-0.00136096
-0.00791838
0.00504808
0.00423126
0.00315531
-0.00373122
-0.00243314
0.00300905
0.00511547
-5.64187e-05
-0.00511516
5.61114e-05
0.0039312
-0.005545
-0.00193837
0.00355217
0.0101593
-0.00307336
-0.00158292
-0.00550302
0.00574884
-6.91645e-06
-0.00529212
-0.000449804
-0.00288816
0.00340084
0.00708574
-0.00759841
0.00619359
-0.0021684
-0.0059587
0.00193351
0.00113935
-0.00166242
0.0072374
-0.00671433
-0.00820156
0.0074786
0.00708268
-0.00635971
0.000369703
-0.00637139
0.00245901
0.00354268
0.00797476
-0.000422512
-0.000162275
-0.00738997
0.00558743
-0.00109063
0.00108031
-0.0055771
-0.00653649
-0.00594139
0.00703351
0.00544437
-0.00122798
0.00352634
0.000955334
-0.00325369
-0.00280229
0.000152666
0.00543247
-0.00278285
-0.0006216
0.0070164
-0.00653175
0.000136956
-0.00599642
0.00556854
0.00108443
-0.00065655
-0.000199261
-0.00349881
0.00834612
0.00111915
-0.00373355
-0.00272209
0.00533648
-0.00297296
3.9773e-05
0.00293319
0.000909298
0.004136
-0.00382577
-0.00121953
0.00657307
-0.00379011
-0.00100798
-0.00177498
4.43452e-05
-0.00192798
0.00188364
-0.00371556
-0.000999374
0.00139189
0.00332305
0.000380996
0.00210241
-0.00471676
0.00223335
0.00797995
-0.000720449
0.00311936
-0.0103789
0.000578646
-0.000709564
-0.00973424
0.00986516
0.000632627
-0.00277597
-0.00369204
0.00583539
0.000233209
0.00506607
-0.000281888
2.05028e-05
-0.00296659
0.00294609
0.00619628
-0.00229288
-0.00278425
-0.00375897
0.00314334
-0.00309993
0.00680696
-0.00566615
-0.000685111
-0.000455703
0.000685244
-0.00324091
0.0014166
0.00113906
-0.00556794
-0.00168534
0.00113114
0.00612214
0.00462543
-0.00752541
0.00499527
-0.0020953
-0.000203645
0.00680266
-0.0068128
0.000213783
-2.2202e-05
0.00620386
-0.00614958
-3.20782e-05
-0.00866661
0.00691403
-0.00554826
0.00730084
0.00722746
-0.0069907
-0.000236767
-0.0065972
0.00883623
-0.00161794
-0.000621082
-0.00589429
0.00141683
-0.000443511
0.00492098
-0.00973134
0.000744309
0.00626653
0.0027205
0.0017351
-0.00236976
0.0013199
-0.00236705
0.00269155
0.0043309
-0.0046554
-0.00259965
-0.0011665
0.00148708
0.00227907
-0.00350208
0.00229221
-0.00442817
0.00563804
0.00105321
8.60044e-05
-0.00773642
-0.00344095
0.00343354
7.41309e-06
0.00379678
-0.00365079
-0.000145996
-0.00570124
-0.000373311
-0.00151599
0.00140932
-0.00750664
0.00874132
-0.002644
0.00337653
0.00581143
-0.00738893
-0.00179903
0.00644782
-0.0070037
0.000188173
0.000367715
0.00344187
0.000896992
-0.00355931
-0.000779555
-0.00543722
-0.000299848
0.00714639
0.00311101
-0.000225416
-0.00379198
0.000906395
0.00350195
-0.00299822
0.00345359
-0.00395732
-0.00613859
0.0011549
0.00836022
-0.00207527
-0.00291186
0.00960922
-0.0046221
-0.00296698
-0.00326338
0.000793145
0.000884252
0.00234268
-0.00619391
-0.00421113
-0.000370801
0.00676423
-0.00218231
0.000652171
0.00103369
0.00374268
-0.00542854
-0.00200698
0.00491281
-0.00290583
0.0015847
-0.00759364
0.00274556
0.00451946
0.00315945
-0.00679466
-0.00642299
7.75642e-05
0.00800411
-0.00165868
0.00107615
0.000920316
0.00288025
-0.00487672
0.00431404
-0.00434503
3.09946e-05
0.00162545
-0.00061354
0.00545512
-0.00646703
0.0056894
-0.00180227
0.00273482
-0.00662195
0.0104368
-0.00335122
0.00778582
-0.0148714
0.00172235
0.00320034
-0.00133297
-0.00358972
-0.00469984
0.00193119
0.00246757
0.00030108
0.00338667
-0.00255263
-6.9477e-05
-0.000764563
-0.00220684
-0.00280209
0.0081554
-0.00314647
-0.00377873
0.00490161
0.00195849
-0.00308138
0.00568475
-0.000310466
-0.00187234
-0.00889414
0.00588079
-0.000488729
-0.00846432
0.00780786
0.00362611
-0.00296965
0.00539866
-0.00608574
-0.000878092
0.00156517
0.003065
-0.00553104
-0.00290324
-0.00314448
-0.0028875
0.00163107
0.00440091
-0.00449602
0.00139665
0.00443495
-0.00133558
0.00518861
-0.00493838
-0.0033964
0.00314616
3.13898e-05
-4.47949e-05
-0.004847
0.0048604
0.000119421
-0.00429256
-0.00016243
0.00433557
-0.00122516
-0.00725341
0.00114066
-0.00419989
0.00377851
-0.000719283
-0.00287663
-0.00121335
-0.000406045
-9.80237e-05
0.00722104
0.000103411
-0.0172053
0.0121003
0.00874491
-0.00363989
-0.00508569
0.000346375
0.000186983
0.00455233
-0.00101095
0.0160854
-0.0189267
0.00385226
0.000799567
0.00123305
-0.00276801
0.000735394
-0.0108819
0.00585945
0.000758063
0.00426439
-0.00012723
-0.00723541
-0.00102871
0.00839136
-0.0030196
0.0108983
-0.00756093
-0.000317751
0.00489085
0.00710885
-0.00656907
-0.00543063
-0.00583311
0.00556001
0.00690103
-0.00662792
0.00225138
0.00314662
-0.00391904
-0.00147896
0.00225707
-0.00152319
-0.00361052
-0.0115805
-0.00045562
0.0094629
0.00257326
0.00338345
0.000517685
-0.00196994
0.00349838
0.00468264
-0.00432372
-0.0038573
-0.00578202
0.00129012
0.00564268
-0.00115077
0.000687419
0.00181545
0.00633336
-0.00673438
0.00665168
0.000642947
-0.000560239
0.00412838
0.00324081
-0.00292445
-0.000115543
-0.000822754
0.00386275
-0.0044504
-0.000887326
0.00247335
-0.00858792
0.00364883
0.00246574
0.000260046
0.00461652
-0.00512346
0.00024689
-0.00178754
0.000345318
-0.00166175
0.00310397
0.00716408
-0.00512217
0.00021517
-0.00404762
-0.00316081
0.00425978
0.00294865
0.0152871
-0.0163576
0.00534704
-0.00427658
-0.00292277
0.00363187
0.00146279
-0.00217188
-0.00671817
0.00291958
0.00585818
-0.00205958
-0.00291392
0.00423544
0.00543899
-0.00676052
0.0081822
-0.00317054
-0.00541956
0.000407897
0.000142453
-0.00199328
0.00484994
-0.00299912
-0.00084348
0.000836887
-0.0064164
0.00586821
0.00190779
-0.0062842
-0.0014918
0.0073709
-0.00604559
-0.00162516
0.00155803
0.00230437
-0.00544457
0.00158218
-0.0030144
-0.00553086
0.00491641
0.00362884
-0.000922887
-0.00239733
-0.000727402
0.00300266
-0.00321133
0.00691014
-0.00670147
0.000730619
-0.00842135
0.00769074
0.00288104
-0.00376268
0.00243967
0.00154523
0.000897447
0.00126774
-0.00371041
-0.000147786
-0.00699806
0.00714584
-0.00379234
0.000502973
-0.0012307
0.00452006
-0.000456336
0.00528478
-0.00481726
-1.1182e-05
-0.00359049
-0.00190175
0.00207817
0.00341407
-0.00133772
-0.00317565
-0.00295526
-0.00433598
0.00361714
0.00367411
0.00015576
-0.00444874
0.00771139
-0.00317024
-0.000410302
-0.00413085
0.00406936
-0.000389377
-0.00296874
-0.000711246
-0.000655411
0.00574442
-0.0071735
0.0020845
0.00371802
0.000142241
0.00181012
-0.00567038
-0.000135967
-0.00305382
0.00147315
0.00171663
-0.00210694
0.00274426
0.00530365
-0.00594096
-0.00747094
-0.00194413
-0.00209677
0.00692194
-0.00637246
0.000149228
0.00199859
0.00422464
0.000614052
-0.00226081
-0.00403127
0.00567803
-0.00290671
-0.00567496
0.00143139
0.00715028
-0.00267913
-0.00297173
0.00309338
0.00255749
-0.00691663
0.0066567
0.00701522
-0.00675529
-0.000928005
-0.00162045
-0.00489399
0.00744244
-0.00668177
0.000690919
0.00679953
-0.00080867
-0.00116879
0.00314088
-0.00197209
-0.00271131
0.00500999
-0.00377359
0.00147492
-0.000116825
0.00905238
-0.00336093
-0.00557462
-0.00323736
-0.0015656
0.00650348
-0.00170052
0.0010493
-0.00274721
0.00623123
-0.00453332
0.000283573
0.0040213
-0.000704487
-2.42411e-05
-0.00664506
0.00664395
2.53526e-05
0.00751358
-0.00133045
-0.0109824
0.00479929
-0.00694154
-0.000679894
0.00866672
-0.00104528
-0.00377157
0.0056977
0.000468242
-0.00239437
0.00337597
-0.00333584
-4.01297e-05
-0.00403272
0.000389558
-0.0034809
0.00712406
-0.00584144
0.00804969
-0.00167839
-0.000529856
0.00363339
-0.00152334
-0.0043799
0.00226985
-0.00703812
0.00710364
-6.55168e-05
0.00577415
-0.00839935
0.000681888
0.00194331
-0.00656218
-0.00179552
0.0112229
-0.00286523
0.00483258
-0.000203335
-0.00101502
-0.00361423
-0.00273641
-0.00467677
0.0104158
-0.000496403
-0.00688272
0.00416779
0.0108847
-0.0121427
-0.00115365
0.00241164
0.00289578
0.00137906
-0.00319869
-0.00304141
0.0031669
-0.000125485
-0.0012396
0.00692435
-0.000438858
-0.00524589
-0.00151019
0.00179141
0.00603434
-0.00631556
0.00392557
0.00921789
-0.00539388
-0.00774959
0.00670748
-0.00804717
0.00255818
-0.00121849
0.00615135
8.48004e-05
-0.00623615
0.000112097
0.00599381
-0.00610591
0.00672745
-0.00814223
0.00718893
7.78526e-05
-6.30841e-05
0.00524195
-0.00525672
0.000127893
0.00954783
-0.00951083
-0.00016489
-0.000812737
-0.0024134
-0.00487663
0.00810276
-0.00298344
-0.00178252
0.000598531
0.00564939
-0.00984148
0.00359355
-0.00479384
-0.00125704
0.00513969
0.000911194
-0.00562349
0.00620913
-0.00165998
0.00107434
0.000891042
0.00464502
-0.00157993
-0.00395613
-0.00228373
0.000578628
0.00385007
-0.00214497
-4.55729e-06
0.00171212
-0.00214312
0.000435551
-0.0024013
0.00587048
-0.00338432
-8.48668e-05
0.00176323
-0.00555632
-0.00324503
3.91787e-05
-0.00518217
0.00514299
-0.00190762
-0.00182981
0.000849558
0.00288787
0.00290173
-0.00167433
-0.0012274
0.00723686
-0.00718655
-0.00146643
0.00141612
-0.000658636
-0.00427494
0.00394083
0.000992746
-1.75468e-05
2.39506e-05
0.00385904
-0.00386545
0.00192125
-0.00157781
-0.00610867
0.00576524
0.00444287
-0.000114184
-0.00432869
-0.00653988
-0.00423221
0.00630944
0.00446266
0.00381237
0.00598261
-0.0102914
0.00362517
-0.00130386
0.00204057
-0.00436187
-0.0014512
0.00143321
-0.00797511
0.00799311
0.00226351
-0.00445789
-0.00433656
0.00653094
-0.000456161
-0.00102863
0.0048536
-0.00336882
0.00338155
-0.00415696
0.00150657
-0.000731167
0.00183258
-0.00303814
-0.00293648
0.00414204
-0.00595191
0.00670821
-0.00179226
0.00103596
0.00674703
0.00869053
-0.00956391
-0.00587365
-0.00524771
0.00522323
2.44713e-05
-0.000581883
0.00617455
-0.00772213
0.00212946
0.000238343
-0.000389461
-0.00593732
0.00608844
0.00586551
0.000246952
-0.00674901
0.000636549
-0.00247883
-0.00418966
0.00526864
0.00139985
-0.00598633
0.0084824
-0.00300453
0.000508463
-0.00249615
-0.00304414
0.00180675
-0.000369284
-6.18551e-05
-0.00428109
0.00471223
-0.0139972
6.0122e-05
0.00125873
0.0126784
0.000555605
-0.00357071
-0.00184783
0.00486294
0.00871716
-0.00071678
-0.00282109
-0.0051793
-0.00156638
-0.00337242
0.000662048
0.00427675
0.00244634
-9.64002e-06
-0.0024367
0.00409467
0.00218197
-0.00135889
-0.00491774
0.00317398
-0.00251751
0.00626766
-0.00692413
0.000206906
0.00652703
-0.00215474
-0.00457919
0.00158145
0.00225494
0.00488078
-0.00314875
0.000217797
0.00293096
-0.00406937
0.000573844
0.00108156
0.000683052
-0.00563646
0.00387185
-0.00530343
0.00776063
0.00235093
0.00802227
-0.00170075
-0.00867245
-0.00509614
0.00501017
-0.00792509
0.00801106
-0.000771445
-0.00386541
0.00135221
0.00328464
-0.00424896
0.00800427
0.00237084
-0.00276017
0.000619135
-0.000229804
-0.00261215
-0.0083507
0.00261298
0.00834987
0.00549423
-0.00548366
-4.92232e-05
3.86505e-05
0.00443304
-0.00517622
0.00110286
-0.000359676
0.00113771
0.00444589
-0.00792556
0.00234196
1.96518e-05
0.00384759
-0.00386724
0.00247561
-0.00635283
0.00501493
-0.00239185
0.00642808
0.00541428
-0.00945052
0.00182827
-0.0018632
-0.00866621
0.00870114
-0.00260461
0.00431818
-0.00866711
0.00695354
-0.00623509
0.00496437
0.00650702
-0.0052363
-0.00391905
0.00537093
-0.00347011
0.00201823
-0.000816992
0.00355921
0.000578521
-0.00332074
0.00182365
-0.00265895
0.00274283
-0.00190753
0.00340434
0.00126762
0.00111943
-0.00579139
0.0097593
-0.00663097
-0.000397946
-0.00273039
-7.27374e-06
-0.00474584
0.00475311
0.00295062
-0.00432159
-0.013248
0.014619
-0.000594721
-0.00642428
-0.00194744
0.00896644
-0.000394027
-0.00298055
0.00337457
0.000903264
0.00427488
-0.000679513
-0.00449863
-0.00119985
-0.00433144
0.00349513
0.00203617
0.00331142
-0.00277282
-0.00487193
0.00849454
-0.00661365
0.00186508
0.00197548
-0.00384056
0.00640738
-0.000201139
-0.000779969
-0.00542627
-0.00122631
-0.00208558
0.00331189
0.00230699
0.00153306
0.0128072
-0.015401
-0.00544271
0.00803657
0.00198118
0.00422072
-0.00322818
-0.00297372
-0.00449788
0.00859975
0.00572069
-0.00982256
0.00505719
0.00175482
-0.000677139
-0.00613487
0.00840997
-0.00560785
0.00361937
-0.00642149
-0.00470069
0.00214733
-0.00589007
0.00844343
-0.00763192
0.0136797
-0.00535964
-0.000688153
-0.000200322
-0.00328946
-0.00452629
0.00801607
0.00621524
0.00256575
-0.00729024
-0.00149075
0.00331498
-0.00883569
0.00557495
-5.42375e-05
-0.00782866
-0.000296927
0.00512251
0.00300307
-0.0015707
0.00405877
0.00176402
-0.00425209
-0.000997229
0.00399878
0.00321546
-0.00621701
-0.00814428
0.00418813
-0.000398875
0.00435502
0.00075453
-0.00223453
0.00442953
-0.00294953
0.00344429
-0.00172844
0.00122895
-0.0029448
0.00335595
0.000646047
0.000326029
-0.00432803
-0.00497811
0.00534186
0.00197751
-0.00234126
-0.00117098
0.00627675
0.000127212
-0.00523298
0.00505471
-0.00296661
-0.00195978
-0.00012832
0.00441311
3.52211e-05
-0.00444833
0.00321694
0.00249096
-0.000564747
-0.00514315
0.00149675
0.00395382
0.00338457
-0.00883514
-8.23647e-06
-0.00710361
0.00711184
-0.003703
0.014343
-0.00209207
-0.00854791
-7.15163e-05
0.00535776
-0.00528625
-0.00035814
-0.00386536
0.000695221
0.00352828
-0.00696137
0.00354884
0.00269173
0.000720799
0.00141889
0.00118027
-0.00813771
0.00553855
0.00417466
0.00659443
-0.0024647
-0.00830439
0.00627425
-0.00214529
-0.00600569
0.00187673
-0.00783213
0.00446403
0.0119464
-0.00857832
-1.96444e-05
0.00298316
-0.00298293
1.94208e-05
-0.00308897
0.00305687
3.21059e-05
-0.00797467
0.000122884
0.0033539
0.000887925
0.00192122
0.00525967
-0.00806881
0.00417989
-0.00497102
0.00320564
-0.00241451
-0.00396124
0.00346973
-0.000130928
0.000622437
-0.000833402
-0.0065321
0.00836439
-0.000998884
-0.00290806
0.00140002
0.00460534
-0.00309731
0.00507109
-0.00195584
0.000750392
-0.00386564
-0.00339553
-0.00059297
0.00397664
1.18633e-05
-0.000575348
-3.08166e-05
0.00546476
-0.00485859
0.000704339
-0.000590586
0.00552031
-0.00563406
-0.00496313
0.00693059
-0.00725961
0.00529215
2.54257e-05
-0.00626086
0.00623543
-0.00222259
0.000196754
0.00560436
-0.00357853
-0.00428897
0.00501418
-0.00683823
0.00611301
-0.00439905
0.000335076
0.00134188
-0.00202408
0.00549259
0.00030632
-0.00377483
-0.00146905
0.000206024
-0.00249594
-0.00215966
-0.00702126
0.00705255
0.00212837
-0.00312862
-0.00036544
-0.00078806
0.00428212
-0.0107055
0.0036151
0.00105273
0.0060377
-0.00341934
0.00778209
-0.00384823
-0.00051452
0.002386
0.000930804
-0.00478586
0.00468583
0.00477908
-0.00946491
0.000635698
0.0102299
-0.00237433
-0.00849127
-0.000128688
-0.000181703
-0.00448899
0.00479938
-0.004913
0.00809356
-0.00326364
8.30771e-05
0.00466752
-0.0029479
-0.00423067
0.00251104
0.00115804
-0.00015537
0.0014174
0.00717345
0.00200279
-0.0103904
0.00121413
-0.00497206
-0.000649206
0.00162977
0.00399149
0.00189387
-0.00209272
-0.00284529
0.00863119
-0.00580697
0.00451424
-0.00733846
-0.000957975
0.00557718
-0.00964558
0.00502638
0.00336074
-0.00424482
-0.000431153
0.00131524
-0.00372708
-0.00129842
-0.000125774
0.00515127
-0.00277687
-0.00262507
0.00540194
0.000693137
-0.00741756
0.00658213
0.000142286
0.00285575
-0.00275513
-0.00287749
-0.0046702
0.00592588
-0.00112591
-0.000129765
0.00667068
0.0018374
-0.00719085
-0.00131723
-0.002574
-0.0037791
-0.00043638
0.00678948
0.00418985
-0.00127589
0.00485692
-0.00777088
-0.00470339
-0.000259745
-0.00564755
0.00302248
0.000727325
-0.00633417
0.00202682
0.00358002
0.0018306
-0.00655577
0.00360967
0.00111551
0.000984265
0.000255166
-0.00493001
0.00369058
0.000756386
0.00323516
-0.000216283
0.00549537
-0.00108575
-0.00419333
-0.00216003
-0.000217077
-0.00201364
0.00439075
-0.00127464
-0.00171642
0.00328206
-0.000290998
-0.00515691
-7.6097e-05
-0.00871073
0.00312802
0.00458549
0.0123276
-0.000101528
0.00167691
-0.013903
-0.0053966
0.00838284
0.0017015
-0.00468774
-0.00154082
0.000844584
0.0053157
-0.00461946
0.000646971
0.00183857
-0.00142156
-0.00106398
-0.00927653
-0.00192051
0.00800125
0.00319579
0.000201132
0.00389087
-0.000780575
0.000118459
0.00197135
-0.0061883
0.00409849
-0.00385061
-1.39269e-05
0.0014194
0.00244513
-0.00521694
0.0064476
-0.00102953
0.00295089
-0.00266085
-0.000290045
-0.00437479
0.00062871
-0.00339358
0.00713966
-0.00196582
0.00295968
-0.00228109
0.00128723
-0.00422617
0.00475911
-0.00196634
0.0014334
0.00191471
-0.000316022
-0.00456551
0.00296682
-0.00188874
0.0118434
-0.015941
-0.00174466
-0.00121735
0.00119166
0.00177035
0.00566795
-0.00884449
-0.000403054
0.0035796
-0.00240785
0.001797
0.00309622
-0.00248538
-0.000710217
0.00379876
-0.00104966
-0.00203888
-0.00427919
0.000949755
0.000999454
0.00232998
-0.00236119
0.00020331
0.00215788
0.0055125
-0.00262411
-0.00279906
-8.93324e-05
0.00039789
0.00271567
-0.00412183
0.00100828
-0.00295279
-0.00358156
0.00365171
0.00288264
-0.00151538
0.00391246
-0.00335523
0.000958149
0.00142356
-0.00269533
0.00185749
-0.000585719
0.00513842
0.000135807
-0.00527423
0.00441743
-0.00543602
0.00268983
-0.00167123
-0.00694286
-0.000193539
0.0071364
0.00286921
-0.00237899
0.000555434
-0.00104566
-0.000221642
0.00492213
-0.00537456
0.000674076
-0.00248046
0.00310475
0.000799267
-0.0027162
0.00582097
0.00537762
-0.00468293
0.00464368
3.92533e-05
9.769e-05
-0.00742933
0.00733164
0.00995069
0.00120084
-0.00211753
-0.00903401
0.00208166
-0.00811378
-0.0010074
0.00703952
0.00158508
0.00188182
0.00105337
-0.00452028
-0.00279075
-0.00279038
3.87116e-05
0.00554243
-0.00133231
0.00182663
-0.00328508
-0.00615179
0.00110891
0.00807518
-0.00303229
-0.0120856
0.00885369
0.00389236
-0.000660469
0.00535619
4.48099e-05
-0.005401
-0.00301236
-0.0040542
0.00262255
0.00444401
-0.0030463
-0.00442783
0.00132235
-0.00439517
0.00238962
0.00276194
0.00177205
-0.0023253
-0.00421429
0.00476754
-0.00301816
2.97191e-06
0.00301519
-0.00701007
0.00283376
0.00288231
0.00129401
0.00177321
-0.00474041
-0.00142797
0.00600756
-0.00190381
-0.000151659
-0.00395209
-0.00402414
0.00666892
0.00395662
-0.0066014
-0.0011734
-0.0024667
0.000898382
0.00274172
-0.00171211
-0.00137803
0.00309014
-0.00297531
-0.0062477
-0.00286257
0.0013828
1.89031e-05
0.0027905
-0.00419221
0.00570445
-0.00415076
-0.00601142
0.00445773
-0.00211535
0.0007541
0.00427528
-0.00291403
0.00404083
-0.00284498
-0.000400795
-0.000795061
-0.00463689
0.000752285
0.00362249
0.00026211
-0.00288779
0.00661867
-0.00714185
0.00278405
0.000206843
0.00415095
0.00667853
-0.00533001
-0.00419839
0.00284987
-0.00529619
0.00110313
0.00989751
-0.00516965
-0.003408
0.00556427
0.00301337
-0.000607264
0.00539615
-0.00204566
-0.00274322
0.000303479
-0.00315828
-0.00208041
0.00493521
0.00613488
-0.00404745
-0.000248224
-0.00183921
0.00188387
0.0014078
-0.00462398
-0.00129057
0.001462
0.00360245
-0.00377388
-0.00106324
0.00556179
-0.00685635
0.0023578
-0.00331224
0.000798539
0.000802228
0.00171147
-0.00732443
0.0074462
-0.000121771
0.00505205
-0.00497783
-7.42219e-05
0.00202462
-0.00781638
-0.00300155
0.00879331
0.00179654
0.00341618
0.000794841
-8.71487e-05
0.00300893
-0.00292178
0.00479005
0.00429496
-0.00908501
-0.00534048
0.0032607
0.002304
-0.000224223
-0.00299905
0.000988349
0.00243851
-0.000427814
-0.00890253
0.00415676
0.00487395
-0.00012818
-0.00291242
-0.00324375
0.00313801
0.00458279
-0.000722036
-0.00295381
-0.000906937
-0.00497793
0.00537181
-0.00328168
0.000860765
-0.0054857
-0.00027989
0.00490483
-6.21675e-06
-0.00269687
0.00270308
0.0133148
0.000108071
0.00141618
-0.014839
-0.000496899
-0.000972531
-0.00716991
0.00863934
0.00232112
-0.00314357
-0.00146727
0.00228972
0.000891465
0.00690451
-0.00278346
-0.00501251
0.00753604
-0.00754026
-1.74425e-05
2.16597e-05
-0.00421553
-0.00380181
0.00594275
0.00207458
0.00246819
0.00189483
-0.00492247
0.000559453
3.42078e-05
0.00456066
-0.00466131
6.64426e-05
-0.0063037
0.00201708
0.00510802
-0.000821406
0.00485907
0.00293904
-0.0049196
-0.00287851
0.000112883
-0.0042942
0.00218003
-0.00112716
0.00648318
-0.00349604
-0.000455281
-0.000545528
0.00449685
-0.00581321
0.000319296
0.00549391
0.00848929
0.00367391
-0.00275603
-0.00940716
-0.00554663
0.000117087
0.00554243
-0.000511677
-0.00133372
-0.00340134
0.00524673
-0.000696263
-0.000659182
-0.00178101
0.00313645
0.00139974
-0.00709241
0.00534749
0.000345171
0.0044184
-0.000688471
-0.00429869
0.000568762
-0.00547187
0.00115082
0.000452968
0.00386808
-0.00207388
0.0013532
-0.00278497
0.00350564
0.00119425
0.000769666
-0.00705921
0.0050953
0.000245434
-0.00477007
-0.000331617
0.00485625
0.00474045
0.000619427
-8.09203e-05
-0.00527895
-0.0056383
0.00131193
0.00510294
-0.00406316
-0.00539767
0.00946083
0.00783026
-0.0039934
0.00167701
-0.00551387
0.000613232
0.00440899
-0.0027011
-0.00631728
0.00117355
0.00222665
0.00291707
0.00780078
-0.0080324
0.000231616
-0.00468498
-0.00159292
0.00328037
0.00299753
-0.0061156
-0.00474959
0.00318519
0.00768
0.00641825
-0.00670246
-0.00082029
0.0011045
-0.00093451
0.0031128
-0.00245192
0.00027363
-0.00796716
0.00260043
0.00182957
0.00353716
-0.0117546
0.0146453
0.00241598
-0.00530669
0.00524387
-0.0113755
-0.000569818
0.0067014
-0.0046706
0.00592105
-0.0109698
0.00971932
-0.00491932
0.0108569
0.00107438
-0.00701191
0.000431578
0.00511988
-0.00119697
-0.00435449
0.0078038
-0.00585593
-0.000194984
-0.00175289
-0.00137487
-0.00132111
0.00201842
0.000677558
-0.00370562
-0.00769229
0.0065523
0.00484561
-0.00523673
0.00698045
0.00606008
0.00421343
-0.00309808
-0.00385882
0.00274347
0.00157886
-0.00204217
-0.000902221
0.00136553
0.00350082
-0.00346354
-0.00460856
0.00457128
-0.00141612
0.00406185
-0.000293675
-0.00235205
-0.00560222
-0.0008937
0.00692749
-0.00424585
-0.00104364
0.00524881
4.06829e-05
0.001716
-0.00383372
0.00211772
0.00137634
-0.00182662
0.00681372
-0.00636344
0.00532856
-0.00749017
0.00108399
0.00107762
0.00338303
-0.0036495
0.000266476
-0.00537917
0.000142437
0.00481641
-0.00183319
-0.0046458
0.00166258
0.00151258
0.00122724
0.00537264
-0.00811246
0.00329697
-0.00357927
0.000282302
-4.04881e-05
0.00419714
-0.0047449
0.000588249
-0.00589339
-0.00056686
0.00783659
-0.00256099
-0.000437814
0.000592296
0.00240651
0.000353694
-0.00292024
0.00215312
0.000413432
0.00478581
-0.00458293
-0.00113739
0.000545972
0.00787015
-0.00495716
-0.00345897
-0.00271038
0.00574173
-0.00303134
-0.00731667
0.00280068
-0.00171795
0.00623395
0.00574997
-0.00520602
-0.00851111
-0.00278887
-0.00334069
0.0114747
-0.00534514
-0.00823448
0.00524608
0.00747834
-0.00448995
-0.000181006
-0.00704136
0.00722237
0.0111394
2.18778e-05
-0.00641707
-0.00474419
0.00648005
-0.00417751
-0.000578401
-0.00172414
-0.00471711
0.00335196
-0.000851998
0.00221715
6.41652e-05
-0.00485162
0.00478746
-0.0035687
0.00367355
-0.000104852
-0.00257159
-0.00271452
-0.00695713
0.0122432
-0.00655991
0.00143208
-0.000729968
0.00585779
0.00151275
0.00245463
0.00675042
-0.00609423
-0.0050368
0.00438061
-0.0018718
-0.00386133
0.00425975
0.00147337
-0.00388385
-0.00197449
0.0058642
-5.85995e-06
0.00127234
-0.000732487
-0.00360418
0.00306433
0.00428494
0.000190753
-0.00547794
0.00100224
0.00132245
-0.000921358
0.00141126
-0.00170366
0.00169779
-0.0014054
0.00350055
0.00342957
-0.00350133
-0.00342879
0.00172814
0.00404046
-0.00417675
-0.00159185
0.00367911
0.00159447
-0.00288759
0.00452572
-0.00548835
0.00115338
-0.00601464
0.00420496
0.00226435
-0.000454673
0.00718531
-0.00237484
-0.00752086
-0.00191495
0.00510151
0.00256341
0.00497543
-0.0024242
-0.00419168
-0.00114178
-0.000681181
-0.00669628
0.0062611
0.000591398
-0.000156214
-0.000415739
0.00837475
-0.000867644
-0.00709137
-0.00546852
0.00111567
0.0024379
-0.000877714
-0.00556883
0.00156417
0.00488237
0.00500108
0.000696443
-1.74898e-05
-0.00568003
-0.0074715
-6.00681e-05
5.07056e-05
0.00748087
-0.00190932
0.00209658
-0.00339024
0.00320298
-0.00515137
0.00651053
-0.000669065
-0.0006901
0.00677614
-0.00632318
-0.00560433
-0.00499618
0.00450941
-0.00142984
0.00191661
0.00406375
-0.000183595
-0.00127699
-0.00260317
-0.00758435
0.00731615
0.00358219
-0.00331398
0.00356438
0.00135773
-0.000453061
-0.00446905
0.00130171
0.00329903
-0.00412583
-0.000474907
-0.00244598
0.00246041
-1.44246e-05
-0.00142858
-0.00364659
0.00365904
0.00548495
-0.00543531
-4.96422e-05
-0.00310749
-0.0024647
0.00242863
-0.000319091
-0.00372678
-0.000404333
0.0044502
-0.000418836
-0.00322001
0.00288049
0.000758349
0.00511852
-0.00582112
0.000702607
-0.00650933
0.00667338
0.00612008
-0.00628412
-0.00437022
0.00337489
-0.00229695
0.00329229
-0.00173776
0.00074248
0.00157347
-0.000578188
-0.000182247
0.00789487
-6.92587e-05
-0.00764336
-0.00396661
0.00192307
0.00195397
0.00226928
0.00288857
-0.00503977
-0.00011808
0.000218854
-0.00626808
-0.000245447
-0.00572073
0.00571861
2.11325e-06
-0.00382726
0.00192594
-0.00421428
0.00130394
-0.00288553
0.000114322
0.0024902
0.0010811
0.00379757
7.38886e-05
-0.0032481
-0.000623353
0.00317995
-0.00793557
0.00636233
-0.00160671
0.00130879
-0.00178352
0.00663096
-0.00615622
0.00810806
0.00239855
-0.0012467
-0.0092599
-0.00207804
-0.00341294
-0.00110733
0.00659831
0.00246084
0.0102443
-0.00925136
-0.00345382
0.00117917
0.00743016
-0.00717421
-0.00143512
-0.00257138
0.000339101
0.00527101
-0.00303873
-0.00089618
0.00728763
-0.00393061
0.00527674
-0.00416507
-0.0016275
0.000515836
0.00173465
0.00454136
-0.00627601
0.00424882
0.000943417
-0.000566224
-0.00462602
-0.00391463
0.00312923
0.000314585
0.000470814
-0.000375002
-0.00551447
0.000322884
0.00556658
-0.00404164
-0.000513833
-0.000167219
0.00472269
0.0023387
-0.00519005
5.08384e-05
0.00204
0.00309922
4.6307e-05