/*--------------------------------*- C++ -*----------------------------------*\
  =========                 |
  \\      /  F ield         | OpenFOAM: The Open Source CFD Toolbox
   \\    /   O peration     | Website:  https://openfoam.org
    \\  /    A nd           | Version:  10
     \\/     M anipulation  |
\*---------------------------------------------------------------------------*/
FoamFile
{
    format      ascii;
    class       volScalarField;
    location    "27";
    object      SgT;
}
// * * * * * * * * * * * * * * * * * * * * * * * * * * * * * * * * * * * * * //

dimensions      [1 -1 -3 -1 0 0 0];

internalField   nonuniform List<scalar> 
111485
(
3.12433e-15
0.00770429
0.0243467
1.4551e-16
0.0490386
5.18021e-15
0.0465127
0.00617011
0.0190748
0.00124746
0.0468871
0.00949307
0.00482907
0.000792144
0.0065042
0.0301824
0.00143705
2.624
0.0103407
7.31376e-15
2.80263e-15
1.66807e-16
0.0269841
0.0344935
0.00874504
2.77709e-16
0.0393202
0.00178368
0.0152765
5.70137e-16
0.0446514
0.0196146
6.45061e-15
3.41606e-15
0.00629156
3.40121e-14
0.0106472
0.00421619
3.78514e-08
0.0242553
5.22041e-16
0.0707871
0.0158532
0.00156992
6.38251e-05
3.54179e-14
0.029402
0.000711016
0.0474094
5.65841e-15
3.21353e-15
9.72092e-15
7.66191e-15
0.0515587
8.22153e-16
0.043806
0.0030284
3.16284e-15
1.99883e-05
0.00480021
0.0160573
2.96868e-15
0.00481952
0.0984691
5.6917e-16
0.00310235
0.316059
0.0943847
0.00111758
0.00618906
1.9579e-05
0.00668303
4.3187e-15
0.00291915
1.1525e-14
0.000719059
1.73018e-14
0.0411128
7.99052e-16
5.68653e-15
1.06044e-06
0.033923
3.05166e-15
5.35717e-14
0.00941045
0.00380053
3.33267e-10
0.0254645
6.06977e-05
0.00744237
0.000254942
0.0402435
0.0119833
5.80299e-05
0.0521425
6.92228e-15
2.8695e-15
0.0018249
3.15183e-08
0.00111972
8.73066e-16
0.0176407
1.08899e-14
0.0179648
0.00457206
6.89053e-16
2.18576e-15
0.00759215
0.0042082
5.43054e-08
0.00554947
0.00475878
0.00381316
0.00327513
6.86765e-16
3.42408e-05
1.95507e-15
2.10296e-14
0.0128921
4.12287e-15
3.01402e-15
1.53363e-15
1.66028e-15
2.30736e-15
0.00152307
3.02173e-06
2.45537e-15
0.00172656
1.18812e-15
2.2622e-05
0.00152955
0.0329251
8.62486e-15
6.56713e-15
2.38043e-15
0.0482711
1.64168e-15
0.042533
0.0254541
0.00271396
0.000252658
0.00199962
0.0225299
0.0026104
0.00408029
0.0130636
7.74302e-15
2.32586e-14
1.00058e-14
0.028152
0.0015252
3.70384e-15
2.38723e-07
0.00467197
4.22277e-07
0.0109541
0.0161114
0.0108727
5.89148e-08
1.79949e-14
2.37e-15
0.0523835
0.0224535
1.64263e-06
3.00609e-07
0.00585709
0.00338982
3.37207e-15
3.97466e-06
4.26673e-05
6.2322e-18
5.1018e-16
0.000121582
6.73233e-16
0.00548517
0.0020614
1.00655e-15
2.88139e-15
1.16859e-14
3.36428e-15
2.82463e-15
4.19749e-15
0.00152009
0.00677669
0.0299438
0.00412574
0.00771716
0.0040423
7.72552e-05
2.14864e-15
0.0048649
2.22819e-15
1.0789e-15
0.00656017
0.0103466
0.0287995
0.0115069
0.00502926
1.33693e-14
0.00680577
0.00049778
4.08735e-05
0.0144766
0.00233893
3.36644e-14
0.00386169
0.0249351
1.34001e-14
0.000157716
0.00794531
0.00199307
0.000371392
3.41294e-15
8.50963e-15
0.00835378
1.0579e-11
0.119432
1.33056e-15
0.00669934
0.0206168
0.119075
6.77473e-15
0.00330466
0.0137994
2.41441e-13
4.09816e-15
1.89397e-15
0.14996
2.32437e-07
1.87815e-15
6.03853e-15
0.0094404
0.00783286
0.0149772
6.23741e-15
1.11322e-14
1.32724e-05
1.7261e-15
0.00236056
0.00958778
0.016668
0.0116366
0.00966333
2.79541e-15
2.41255e-07
0.000634633
7.32836e-15
5.93014e-15
0.030927
0.0205859
2.20685e-15
0.00657482
0.0107877
5.99809e-16
1.52072e-15
0.000112429
1.23832e-16
7.22047e-16
4.48674e-05
2.93055e-15
0.014752
0.0106013
0.00368822
7.70494e-15
0.0117932
4.19349e-16
2.37663e-15
5.0372e-15
1.73567e-08
0.0230615
0.00616894
0.00552665
0.0362204
0.0124006
0.0015545
0.000563731
0.0321925
0.00870615
8.56402e-16
5.59873e-15
2.32481e-07
0.0226975
0.0245689
0.0117728
6.20519e-16
0.00699845
0.0020231
0.00303849
2.01832e-06
3.54997e-06
0.0138778
0.0021822
0.00198384
6.79099e-15
0.000642367
2.75228e-15
2.1114e-07
3.72657e-13
0.23373
0.0678317
0.0117767
4.61067e-15
1.55448e-14
0.00896981
0.00171828
5.54928e-15
1.34022e-14
7.62001e-15
0.000295558
0.0569004
0.0040264
0.0132408
0.0192244
2.65733e-15
1.6443e-15
1.86538e-14
0.00376977
2.1013e-12
0.000864219
0.184052
2.84754e-07
3.03584e-16
2.27157e-15
1.25161e-15
5.15185e-16
0.0601924
0.0118073
2.53965e-15
0.00529602
2.76988e-15
1.50738e-14
0.0671216
0.00599752
0.0114526
0.00933897
1.97677e-15
3.36521e-15
7.97501e-15
0.00951363
0.0187469
0.00488759
5.69074e-15
3.14235e-10
0.000154457
0.00230933
0.00805305
3.23389e-05
0.028478
1.92957e-15
0.0375079
0.00358351
0.00771634
0.0257891
0.0131308
3.53896e-14
5.35898e-14
2.26631e-14
7.98351e-15
0.0310929
0.00980403
0.0325685
0.0673421
3.29711e-16
0.0182593
3.24807e-16
2.24074e-15
0.0167512
2.74136e-15
0.0816536
3.79534e-14
1.27446e-15
0.0228086
1.5629e-16
0.0135088
0.000283877
3.30463e-15
0.000970914
0.0166518
2.00033e-15
0.0089479
0.00897938
0.00819301
0.000705865
0.00265944
0.00545965
3.20228e-15
6.06893e-15
0.00201435
1.03204e-14
0.00632539
0.118024
2.62814e-16
2.1582e-14
0.0276956
0.000109235
0.00829831
0.020436
5.73225e-15
0.0478788
0.0188993
1.22255e-16
0.000845202
0.00235335
4.30914e-15
1.05598e-14
0.0109178
0.00519201
4.45853e-15
6.54891e-16
4.00245e-08
1.07202e-14
0.0125154
2.35079e-15
4.57326e-15
0.0167055
1.54681e-06
0.0122551
0.0299761
1.48972e-15
2.15035e-15
0.00154102
6.96456e-15
0.000165234
0.0146113
0.121767
0.828792
6.12675e-16
0.00276284
0.000557262
3.11399e-15
0.0390196
0.0308653
9.13887e-15
6.98412e-09
8.60077e-05
7.87195e-16
0.0236997
0.0239311
0.0138518
1.35899e-14
0.00066099
0.0166979
0.0227671
8.25072e-07
8.09501e-16
6.79453e-10
3.00581e-15
1.13366e-05
0.0311992
1.31878e-15
0.00815784
0.000102178
6.45266e-16
7.53532e-15
1.61459e-14
2.03307e-15
0.00371946
0.0095773
0.00628554
0.00203111
0.00257016
2.17768e-14
0.00194487
7.49665e-16
0.0412482
2.59165e-15
5.46132e-16
7.08675e-15
0.0375272
2.09278e-14
1.64034e-15
1.43893e-07
2.39085e-15
2.85616e-14
0.00106885
1.74436e-15
5.65307e-15
4.18205e-15
1.46825e-15
1.19341e-15
7.06714e-15
5.15817e-16
0.00679331
6.23929e-15
0.000542737
0.00198263
0.000828207
1.40738e-15
0.000908109
9.25432e-15
9.04753e-16
0.00272645
0.00175216
0.0267165
0.025142
5.52713e-16
0.00203805
0.0823452
0.00852167
0.00100955
0.00319401
1.72597e-15
0.0232228
4.00925e-16
0.00503036
2.66994e-15
0.0764013
2.71323e-15
0.0212046
0.00024645
5.06008e-07
2.12304e-14
0.00203111
2.95804e-15
0.0800349
0.048931
3.83955e-15
6.12399e-15
3.8556e-15
2.82281e-15
1.35778e-09
0.0546953
9.21927e-16
2.06388e-14
0.00240785
1.84057e-15
0.0339921
6.37576e-15
0.000310876
1.77077e-15
0.000465569
1.18793e-06
0.000979453
0.0127776
7.05009e-15
0.000418257
9.3746e-16
2.79813e-15
0.0147134
6.97751e-16
2.84607e-05
1.56403e-15
0.00163924
1.02319e-14
0.0644629
9.80119e-15
1.94092e-15
0.0177518
0.00319506
0.00174013
0.00384488
0.00687095
0.0206718
1.51663e-15
0.0254441
0.00593262
2.6311e-15
7.46789e-08
0.041307
0.0154712
6.28165e-15
0.00357329
0.00692732
0.00180747
0.000972785
1.96456e-10
0.0136777
0.00123657
0.000118915
0.022822
0.0137444
0.000566272
4.33098e-16
2.99297e-09
0.650779
2.07928e-15
0.00034299
5.71798e-16
5.9607e-15
0.00730878
0.00263118
2.35978e-07
1.79763e-05
1.18482e-15
0.0159092
0.011053
1.58736e-15
2.01382e-10
0.00129723
2.89016e-15
3.90835e-15
3.14663e-15
2.48783e-15
0.0126125
3.43276e-15
1.3327e-14
0.00844834
0.00190829
1.13511e-14
0.0105579
3.96202e-16
0.00845871
3.99104e-15
1.11777e-14
0.0516536
8.71358e-15
5.72046e-16
1.64854e-15
0.00419176
4.39371e-15
0.0279933
0.00625077
5.03997e-15
0.090395
0.00231842
0.0287215
0.0281894
0.000413236
7.34151e-05
7.24327e-16
0.0538393
0.0467176
7.0858e-14
0.000320564
0.0405684
0.00806629
0.00138148
0.027549
0.026067
2.85308e-15
0.0109618
6.77383e-06
8.11818e-16
0.0348478
0.000249174
3.13964e-14
0.0108532
0.0407586
0.00130767
0.0215562
0.0196913
0.00720533
6.66027e-15
0.010452
0.000299642
4.47129e-12
0.0171601
0.0179886
0.035748
3.72857e-15
0.00184031
2.53151e-14
2.30865e-15
9.89698e-15
1.22649e-14
1.31048e-05
2.05177e-15
3.15389e-10
2.78595e-15
6.26816e-15
8.18612e-05
0.0427336
2.05004e-14
0.0303686
5.68308e-15
2.44982e-14
7.30307e-15
0.0385221
0.000392326
3.96166e-15
8.60884e-15
4.83134e-15
4.78209e-16
0.205482
0.0698112
2.75063e-15
0.00200665
1.79142e-06
7.33796e-17
0.0373894
0.00860133
0.0114657
9.52793e-16
2.17543e-15
0.000412468
0.00107311
1.75667e-15
5.99396e-15
1.14134e-14
0.00722673
1.48669e-15
1.96221e-14
8.37783e-15
0.042128
0.00214116
3.89452e-16
3.84031
0.371388
0.00968124
7.72943e-16
3.1282e-15
0.0550216
0.000430482
5.43536e-16
4.77998e-06
0.108577
0.00236918
0.0111973
1.40444e-15
0.0519931
0.00191823
2.40496e-15
3.05572e-15
1.09255e-15
3.7786e-15
1.95724e-15
1.18134e-15
0.0223986
4.7544e-16
3.9057e-15
1.56637e-15
0.0113117
0.023551
2.34976e-16
2.46532e-15
0.105537
0.0143428
0.0098827
9.98645e-15
1.12931e-15
0.0372186
7.50187e-15
0.00168274
0.00263228
0.00396764
2.15079e-15
1.62371e-15
6.82465e-15
4.47172e-16
0.0145732
7.91503e-16
3.55125e-15
0.00106563
1.31807e-14
0.0232905
0.00192977
3.17066e-16
0.0368657
0.338239
0.00253765
0.0289513
0.000140348
0.0434188
7.67738e-11
2.95241e-15
0.0236969
0.0675443
0.00598863
1.33096e-15
4.68894e-10
0.786529
0.0100347
2.10773e-16
0.00240523
0.00240256
0.0011235
6.60295e-16
7.99753e-17
4.05049e-15
0.0134714
2.59702e-16
0.00273485
6.03783e-17
0.00118783
0.00143
0.0367661
0.000566625
1.3891e-16
1.01524e-15
4.66533e-15
0.0204968
1.7826e-16
1.94535e-16
7.52792e-05
8.49408e-15
4.84381e-15
2.96019e-16
1.85884e-15
0.0101492
2.81448e-15
3.53044e-15
4.13382e-10
4.13209e-16
6.28868e-15
1.64978e-15
3.74108e-15
2.9104e-06
0.00161995
1.14924e-15
0.00406341
6.14415e-06
2.87896e-07
5.7445e-05
0.00394556
1.2365e-14
9.3602e-06
0.0101
0.000397876
1.204e-14
5.4755e-09
0.000856559
1.55974e-15
0.00996028
0.000186843
1.59731e-06
0.0229088
0.0094672
0.00224395
0.00483829
0.00197912
8.56131e-15
1.66071e-14
0.0330045
0.0265331
7.72448e-16
0.00841256
0.0539964
0.0284387
6.73212e-15
0.00124469
5.98871e-16
0.0101922
0.0139732
5.25637e-15
0.00158554
0.000446796
1.17639e-06
0.00495919
2.20647e-15
0.0486826
1.46921e-05
0.00139976
2.91156e-05
1.19837e-05
1.12949e-14
8.10656e-15
0.00682228
9.50834e-16
0.000124667
0.000241281
0.000301556
5.98889e-08
6.96824e-08
1.7636e-07
7.29531e-16
3.48256e-16
0.0226418
2.02177e-14
0.000193616
0.0019594
5.00741e-15
1.60658e-15
6.63757e-07
9.62248e-10
9.37777e-16
5.21534e-06
1.26517e-14
7.61242e-15
2.74325e-15
2.1852e-15
2.03053e-14
1.39809e-15
0.000268937
2.38987e-15
9.60116e-18
5.44384e-15
6.5297e-06
4.80787e-05
0.00168355
0.00920165
2.00047e-15
2.01677e-15
0.000155184
1.52569e-15
4.32934e-15
3.03126e-14
0.0184052
0.042063
9.44887e-15
2.8575e-15
7.98056e-15
6.30134e-15
2.0481e-15
3.41424e-16
0.00662706
2.01372e-15
5.44445e-08
0.026308
3.48932e-15
2.22802e-15
4.69932e-15
2.93703e-05
1.48558e-15
2.24762e-15
1.91231e-15
9.79518e-06
7.41508e-15
0.00413536
8.83712e-07
6.3511e-09
5.4096e-15
7.80683e-05
0.00186547
0.0439488
4.56501e-16
8.49522e-06
0.00535458
4.42622e-15
1.7193e-16
2.92556e-14
6.94286e-15
0.00821268
0.00163229
0.00314677
1.82068e-07
1.78358e-16
0.0228908
2.20225e-15
5.79984e-16
1.1753e-14
2.80366e-15
0.0264813
2.21266e-15
1.94046e-14
1.53691e-06
0.0521502
2.35253e-15
0.00229829
1.05734e-15
0.000763812
3.73199e-15
5.05556e-15
1.02182e-14
4.68894e-16
0.00246593
0.000578912
0.3015
5.27429e-15
5.32203e-16
0.00206951
2.3658e-15
9.65892e-16
6.57999e-15
0.0358516
9.9737e-06
0.0319567
5.35022e-15
1.13138e-05
5.17618e-05
2.4517e-15
0.000134486
4.05566e-15
0.00117688
0.0244735
0.0202773
0.00112549
0.000220265
1.27271e-14
7.36245e-16
2.06081e-15
2.29741e-05
1.22566e-15
0.00764443
7.30727e-14
0.173834
1.19505e-15
0.0409453
0.00292882
2.03996e-15
4.278e-15
3.6942e-14
1.84542e-14
0.0419952
6.12347e-15
1.51418e-14
0.0116603
0.0068754
3.31803e-15
8.00172e-15
2.32225e-15
3.72469e-15
1.38561e-14
4.29693e-16
0.0260214
0.000390834
6.25345e-15
6.7837e-16
5.64685e-07
1.45637e-15
0.00154393
0.000101951
1.05082e-15
0.00355911
3.94366e-15
0.00038863
9.09666e-16
0.001115
4.02429e-15
6.5742e-08
2.17557e-06
0.000603919
0.0184641
0.0346179
1.14868e-06
1.12271e-16
0.000574084
2.6344e-15
0.00466945
4.57282e-15
8.19832e-15
1.42529e-14
1.99457e-14
1.04135e-14
9.02044e-15
0.00732775
0.00827542
5.30766e-16
2.07661e-14
6.33314e-15
0.00080733
1.21979e-05
1.3685e-14
0.0179964
0.000166969
3.69408e-15
0.0235147
0.00812626
0.00373478
0.0109516
2.02495e-15
1.09465e-14
9.21982e-16
8.54386e-15
0.0369919
1.55626e-14
0.114911
1.48884e-15
0.000327001
0.000727344
3.10402e-15
0.000994824
1.40035e-15
8.9253e-15
0.00311915
2.19753e-08
0.0097541
1.36707e-15
4.98756e-15
1.02686e-15
0.000846828
9.73061e-16
3.13536e-15
1.97411e-16
2.67259e-07
1.7916e-15
6.22624e-06
1.16955e-15
5.16748e-15
1.93434e-16
0.0183431
0.0098182
0.0182752
0.0359203
8.37754e-15
1.65163e-05
2.67155e-16
6.28354e-15
0.0095471
9.24127e-16
2.07764e-06
0.000365037
0.00674642
0.000381656
1.06901e-09
0.00184965
2.37609e-15
1.40448e-09
3.03697e-10
0.000130377
0.000755801
0.015312
6.71614e-08
4.13322e-15
0.0299623
1.24669e-14
8.11397e-16
1.18522e-05
0.0749889
5.10346e-08
2.04568e-14
1.32148e-14
2.98704e-07
1.38758e-14
1.27861e-14
1.8801e-05
7.4423e-15
1.50527e-15
0.0399408
0.00024016
0.000189629
0.0224238
0.00722418
1.16571e-15
3.12528e-15
2.64419e-05
0.00403807
5.43658e-16
4.11727e-15
0.00956313
2.65087e-15
2.20239e-14
1.58744e-15
8.87984e-16
1.85602e-13
2.56563
7.11478e-15
0.000219969
9.11824e-15
0.0218283
3.88875e-15
7.86099e-13
1.61487e-15
1.72206e-15
1.06378e-14
7.24787e-16
0.00278535
2.13041e-15
7.40729e-15
1.27778e-15
6.54629e-15
3.61569e-15
7.52176e-15
0.00971835
2.29797e-15
0.0109286
0.00317216
2.85896e-15
0.00152073
1.07154e-14
0.000518569
2.09814e-06
0.00382246
0.0128667
1.83382e-15
9.29136e-05
0.00750842
1.05728e-05
6.24283e-15
3.24438e-06
0.0192517
0.00464348
2.4794e-15
0.0256814
6.39368e-16
5.99065e-15
8.97851e-15
5.08836e-15
0.00804938
1.20896e-14
3.15233e-15
0.00829175
4.15727e-07
0.00262465
9.97763e-16
9.3035e-14
0.000649694
6.97488e-15
5.92774e-05
2.86422e-16
0.0235101
9.94437e-16
1.8092e-15
5.32809e-05
1.73074e-15
0.000140357
6.751e-15
1.65502e-15
0.00466136
0.000448455
0.00467844
0.015079
0.217895
0.0202914
1.06835e-15
4.93408e-15
0.00304082
0.0067073
0.0369088
0.0102233
1.31243e-14
0.0125293
2.55924e-15
2.05084e-15
0.00929578
0.0111936
9.86403e-15
0.0133317
3.11998e-15
0.00272609
0.00896973
8.36915e-15
2.16721e-15
3.01912e-16
0.00287701
8.35631e-15
1.43959e-15
0.00424703
0.0216361
3.57621e-06
0.00733418
5.73289e-15
7.70435e-15
8.97177e-05
0.000793613
4.65537e-15
0.0102605
5.89314e-15
0.0025539
5.84755e-15
5.09202e-15
0.0122934
7.22585e-16
3.55709e-05
0.00368987
1.44284e-14
7.00933e-15
0.00446896
5.56775e-11
0.0517572
5.43875e-16
0.24858
1.21585e-15
2.16292e-14
2.17608e-14
0.00756168
5.3139e-15
2.51597e-15
0.00560097
7.12198e-16
0.00025675
1.21982e-15
3.05926e-15
8.10149e-15
9.56571e-08
0.000784251
4.55104e-15
2.42563e-15
0.034623
0.000944646
6.52823e-15
0.000403283
1.16924e-14
5.52206e-15
1.7598e-06
0.00286102
0.00131326
4.92867e-15
1.52117e-14
3.02724e-15
5.81964e-16
5.70254e-15
2.43537e-14
5.26149e-15
4.87515e-16
1.63702e-15
5.16084e-14
9.46465e-15
6.6774e-15
2.02142e-14
2.74118e-15
1.16031e-15
1.53647e-15
1.82451e-15
1.1227e-14
2.52362e-15
9.41932e-16
3.49158e-14
0.0169201
9.28384e-15
2.54388e-15
1.51833e-15
0.00665114
1.40626e-14
1.12133e-15
0.299905
1.19553e-15
1.60285e-16
0.0228779
5.83135e-12
1.34379e-15
0.00810463
0.0244497
9.57906e-16
0.00294253
0.00436752
4.84732e-15
0.013525
0.0391724
0.017775
0.00337674
0.0106259
7.1084e-15
6.66446e-16
0.00300963
0.0104678
0.00322893
6.12001e-15
0.00681657
0.00179815
0.0214548
0.00993674
0.000697458
0.0156019
0.00101025
0.0103325
1.25217e-14
0.0240084
0.00842168
0.00162061
0.00143526
1.47582e-15
7.22384e-15
4.75248e-15
2.85689e-16
9.6317e-15
0.0090965
0.0134753
6.29324e-16
9.3478e-16
2.32108e-14
1.30509e-15
2.6524e-15
3.43412e-16
8.6599e-16
1.01879e-15
0.00467442
0.000212197
0.0216877
7.30739e-05
5.59076e-16
1.73076e-14
0.0297866
7.66267e-06
6.35041e-15
3.41704e-15
0.00711715
3.87623e-14
1.58245e-15
2.34074e-06
0.0077143
0.0135109
0.0334185
0.0344995
3.04116e-15
0.0138808
0.000346637
1.4465e-14
1.22829e-15
0.0119041
4.69521e-15
2.39161e-16
0.0153404
1.04318
0.000173034
3.02768e-15
1.81632e-15
0.0171201
0.0195834
0.0178586
0.00557546
0.00447408
2.71988e-15
1.0759e-06
2.66867e-09
4.28994e-14
1.22518e-15
0.0168292
2.09172e-15
0.00197311
0.0246033
0.0174957
0.0109914
8.57476e-15
0.00594994
1.79367e-14
3.27516e-15
3.94076e-15
2.03384e-15
0.00244488
0.886111
4.22586e-15
4.30055e-15
4.22758e-06
0.0229082
0.00122514
0.00681954
0.032171
0.00466812
0.0204296
7.27107e-16
5.04424e-15
4.0364e-15
0.0289227
0.00552789
3.05031e-08
1.25142e-14
6.14393e-16
6.12552e-15
0.0217886
0.00261827
5.11752e-16
0.00481945
0.0575824
0.00622202
0.00610731
2.62978e-15
1.08573e-14
0.00676146
0.0222548
4.18121e-16
0.000349282
0.0147543
0.000967619
0.00902824
0.00462758
0.00775112
5.5077e-14
0.00318714
0.0205738
0.0350383
3.99623e-10
0.0220166
2.16354e-13
0.0159242
0.000149808
1.20216e-15
0.00246631
0.00744501
0.000408798
0.0113323
4.29693e-07
0.000121888
1.3603e-05
0.0421047
0.00361422
4.6425e-15
0.0369864
0.00126635
6.04866e-15
6.55643e-16
4.26509e-08
1.4569e-05
0.00104332
1.05702
0.0345539
0.012135
1.86773e-07
0.0445295
1.23134e-15
5.57857e-14
0.00377853
3.24414e-15
0.00196626
0.00375289
0.0021463
0.00450167
1.02447e-14
0.000185315
0.104198
9.73167e-16
0.0132116
0.00738324
7.1838e-16
0.00387241
0.00012815
4.05403e-15
6.86816e-09
8.16702e-05
9.46537e-16
5.62475e-16
1.00603e-14
0.0041329
0.00483239
0.0135729
1.05997e-14
0.00456329
0.0317823
1.18076e-15
0.00777204
0.0120126
0.0229276
0.00147644
1.0589e-15
0.000503095
0.0088599
0.0100702
0.00878686
0.0353935
0.157076
0.00314941
5.80505e-16
7.32357e-06
0.0475204
1.90922e-15
0.000405463
5.66401e-16
4.37099e-15
2.19658e-15
2.45836e-15
3.85845e-15
0.00312955
2.78176e-16
0.00689921
0.0010842
5.70238e-15
0.00360636
1.2604e-14
0.0132734
7.54985e-15
2.67178e-05
1.66891e-15
0.0207161
0.000154652
2.45726e-06
0.00409039
0.0271013
0.0157868
0.00375078
0.0260812
6.24179e-12
0.0222729
0.0519305
0.00942939
5.8003e-15
0.00101622
0.000231302
0.00542205
0.00967027
0.000584415
2.32346e-14
1.61283e-15
4.87665e-16
0.00333314
1.77557e-14
0.000351684
0.000202716
0.00171311
0.000247187
5.89048e-15
4.30725e-15
9.05239e-15
0.00838158
0.0203222
0.00112328
9.22588e-06
0.00176488
0.00662789
0.00174297
0.000784373
0.00622169
0.00597642
0.0026002
1.9962e-16
8.85112e-16
1.51816e-15
0.0121973
0.0103056
2.24249e-16
7.64992e-15
5.50841e-14
0.0081486
0.0173058
6.83077e-15
0.00215708
5.08792e-15
5.8625e-07
0.00437286
0.0860452
9.99818e-16
3.99942e-17
0.00344131
5.50364e-15
5.55706e-05
0.0114278
1.18877e-15
0.0103394
0.0310311
0.0182389
3.013e-15
0.00148321
5.18902e-15
8.92651e-05
0.0461067
6.4385e-15
1.80367e-15
0.0100985
2.03064e-13
4.8289e-15
4.16099e-05
0.000900739
1.68518e-15
2.34883e-15
6.18597e-14
7.21916e-05
0.00119772
0.00297552
0.024496
0.00812008
5.99821e-16
6.93977e-07
0.000690228
1.17413e-14
8.37443e-16
2.46774e-15
4.81251e-14
4.05236e-15
3.33561e-15
2.99578e-15
2.37755e-15
6.00873e-15
6.4981e-16
2.53965e-09
6.63911e-15
0.000309548
1.26062e-15
0.000251704
1.8438e-14
0.000101893
6.06705e-14
1.47447e-15
0.0272271
0.00848085
1.2509e-14
0.0813937
9.7964e-09
6.36167e-10
5.40599e-16
0.00114743
1.47823e-11
0.00262189
6.09566e-06
0.000786327
7.58638e-16
5.24588e-15
0.00115739
2.00944e-08
4.12856e-15
8.86285e-15
0.0365298
9.56881e-16
0.0350356
1.39918e-15
6.4517e-15
1.70304e-06
0.026379
0.00732311
2.85556e-15
0.000301234
1.9629e-15
0.00353065
1.85996e-05
0.00164094
4.77213e-06
2.14746e-15
0.0191753
0.00115566
0.00496013
7.61918e-16
6.36933e-15
7.46393e-16
0.01982
0.00356953
0.0498671
2.67331e-14
4.69279e-07
5.84235e-15
1.25122e-14
1.3608e-14
5.19774e-15
0.00320294
0.00212493
0.00290867
0.298592
9.75751e-15
0.0250874
0.033861
0.0158733
0.00166276
1.02454e-14
0.0048528
0.00442131
0.0056667
2.70471e-07
0.00945108
3.96922e-15
0.00139245
0.00123787
0.0307756
1.05225e-06
0.00330571
2.24993e-15
0.0174512
1.88174e-15
4.21338e-15
0.00156408
2.09819e-14
0.00559519
9.79546e-16
1.47813e-15
1.57278e-15
4.45988e-15
6.58356e-15
0.000798161
1.11634e-14
0.000498888
4.42128e-16
1.73716e-15
0.0164372
0.0049784
0.00752829
0.00683607
5.61568e-15
0.549147
4.3468e-15
0.0641457
6.46579e-15
0.0162685
0.0229938
0.0022535
0.0526319
1.9659e-15
4.7182e-14
1.45752e-15
0.00203025
3.27789e-15
2.37251e-14
0.0165581
1.26717e-15
3.52429e-15
0.00522274
3.5193e-16
0.0115781
6.16304e-08
2.10891e-15
8.5329e-16
2.26448e-15
0.00143348
0.00637449
1.14162e-15
0.0216883
0.000338155
1.32284e-15
0.0949626
1.39692e-14
0.0145314
0.0169357
0.00356094
5.63883e-15
0.0169535
0.00963569
0.000862418
0.00516241
0.0116998
5.13209e-14
3.49859e-15
1.76061e-06
4.56507e-15
8.65951e-16
7.61317e-16
0.018505
0.0462589
0.0043046
0.00209195
4.73615e-15
0.0475618
0.0432542
0.00397638
0.00215363
0.0088746
0.0196841
0.00262927
3.6135e-15
1.06712e-14
6.77708e-15
0.00690963
1.24651e-15
0.0233747
1.57585e-14
0.000733541
5.70776e-07
0.00247334
0.0207816
9.00695e-15
1.83512e-15
0.00244793
0.000369045
1.64962e-15
5.57563e-15
3.33519e-14
3.71567e-05
0.000293633
0.000144602
0.000804753
0.00970673
0.081636
1.06773e-15
1.44335e-14
3.94532e-15
0.00359219
0.0164379
0.0189378
0.0331204
0.00162937
0.00292929
1.76995e-15
6.21634e-15
1.40351e-13
1.39669e-15
0.00874006
0.0212164
2.04852e-14
8.12922e-15
9.66079e-15
5.08178e-15
7.09779e-14
1.28807e-14
0.013286
2.02009e-15
0.000888185
0.407045
1.45968e-14
1.27344e-05
0.0217109
0.000723903
1.97692e-15
3.55791e-15
0.00491462
4.77383e-15
0.0139369
8.96568e-07
0.0234429
1.31284e-14
1.27505e-12
5.2412e-16
8.30201e-16
5.39318e-15
4.09136e-15
0.187703
5.58911e-16
0.00587271
0.00120191
2.1613e-15
3.72931e-15
0.00198684
1.17853e-15
6.51272e-15
0.0106247
0.000142472
1.10238e-14
4.29814e-15
3.18468e-15
0.0162563
1.25119e-15
7.49667e-15
0.000455356
0.00261638
0.00309759
2.56405e-15
6.46814e-15
1.59015e-14
0.0037518
0.00184697
0.0125583
0.00363725
9.57828e-15
0.000753171
0.0110612
0.00623982
3.58098e-16
3.17411e-15
6.07641e-16
6.26367e-15
3.45518e-15
0.0296795
0.0048734
0.0057753
1.76792e-14
1.59556e-15
1.63789e-16
6.44272e-15
2.01243e-15
1.03228e-06
0.000214017
0.0020847
1.98056e-15
4.64449e-15
7.0976e-14
2.07232e-09
0.0339379
0.112103
2.10965e-15
9.52122e-10
2.57179e-11
7.45685e-15
4.00272e-15
0.00367237
0.00615023
2.55966e-15
3.8017e-16
0.00278593
1.30256e-14
0.000671357
0.000992656
2.00416
1.44937e-15
2.53206e-15
0.0113788
0.000532438
9.185e-16
0.63682
0.000583022
0.0059689
1.44853e-14
2.61492e-14
2.94583e-14
1.16143e-15
0.00820118
8.72239e-05
3.65121e-15
0.0244957
0.0184857
0.825589
6.30998e-15
2.61617e-16
1.57277e-14
4.42297e-15
0.00656585
8.0261e-08
1.3197e-15
1.14473e-14
0.0179583
0.000786798
0.00457035
2.12844e-15
5.64428e-14
0.0277005
6.0584e-15
7.8564e-16
4.0825e-15
3.15899e-14
0.0203487
8.83479e-15
1.36353e-15
7.85658e-15
0.024639
0.0114544
9.37557e-15
2.45209e-15
1.2371e-15
0.0146766
1.94071e-07
7.30224e-15
6.85931e-16
5.69385e-15
1.20586e-15
0.00231935
0.0108885
7.6229e-16
0.00190509
0.00108044
0.00477095
1.29474e-13
7.58288e-15
1.29986e-14
1.17862e-14
4.36774e-16
0.0181927
5.03982e-15
0.01369
5.57101e-16
0.00152027
1.88195e-14
0.00240009
2.69298e-15
1.09843e-14
0.00983099
0.152686
1.97086e-15
0.00356416
1.35506e-14
0.00037948
2.88853e-14
1.15613e-14
3.00352e-15
5.4923e-08
2.13447e-15
0.000288199
4.11396e-15
0.0337506
6.3143e-15
1.76793e-15
1.81844e-16
5.57409e-15
7.44568e-06
0.00013181
8.56123e-15
0.0055683
1.30313e-15
0.0026702
0.0173205
0.00127693
2.18824e-15
4.77732e-06
0.00044484
2.19447e-06
0.00404608
2.93499e-07
0.00166697
1.37734e-15
5.72767e-15
4.11422e-07
0.00553835
0.000240576
1.21583e-14
2.93415e-15
3.24221e-16
0.563975
2.05231e-14
3.07468e-15
5.12527e-15
1.43432e-14
8.55699e-14
3.19493e-05
0.000181465
0.000980369
6.67116e-05
1.30859e-12
0.00141985
3.80577e-16
0.00518338
2.35858e-15
8.55316e-15
1.08443e-14
1.30349e-14
1.38453e-05
1.24497e-15
7.69734e-15
1.13025e-14
0.0136396
1.21719e-14
4.21864e-15
0.0100191
2.17156e-15
0.0758149
0.121504
0.547444
1.06581e-14
0.193699
1.07841
1.04936
0.60695
1.99913e-15
1.18738e-15
0.00455556
0.0042702
1.40251e-15
0.010338
3.00669e-16
0.029975
6.47129e-15
5.19968e-16
0.000701349
3.5065e-15
3.26501e-15
1.038e-05
3.89108e-05
5.12041e-14
8.18946e-16
2.86428e-06
1.04179e-14
5.92627e-15
1.74103e-05
0.00780726
0.00147484
2.13268e-15
0.00756151
3.49991e-14
0.00326839
4.18428e-07
0.00704895
3.523e-15
1.59095e-08
0.0054667
8.21348e-15
1.58894e-09
1.9033e-15
0.0297808
1.56903e-15
0.00880094
5.70381e-16
2.4669e-07
5.35059e-15
8.30231e-15
7.63987e-15
8.47008e-10
4.91049e-10
1.85912e-14
0.011101
0.00870112
1.32691e-14
5.96238e-15
0.0301148
0.0158255
0.171466
3.67746e-14
6.71429e-05
0.0231618
0.0425159
5.66339e-08
1.46135e-14
0.052774
1.52057e-15
0.21167
8.02713e-15
4.33919e-08
3.7683e-08
6.33022e-16
5.66984e-05
6.84793e-16
0.0192988
3.1808e-15
1.98563e-15
1.37693e-14
2.03161e-14
2.9004e-15
5.18954e-15
0.000256157
0.00186089
0.124556
3.241e-15
6.06184e-15
0.0379924
9.5607e-15
7.33412e-17
3.90737e-15
2.2348e-13
2.04343e-14
0.00549884
1.58926e-16
1.17935e-14
1.51021e-15
0.00304628
3.67444e-15
7.9595e-15
3.28861e-15
0.00306209
1.38549e-15
0.0056482
0.218511
0.00511213
0.00526191
0.0246255
1.08256e-15
1.70861e-14
6.17667e-15
0.00297436
0.00159482
7.53161e-16
2.90701e-14
0.000568021
4.25856e-16
6.23741e-15
0.309765
1.31054e-15
0.019825
8.88257e-15
0.00216916
0.00292813
5.43207e-15
3.23479e-15
7.75926e-15
4.27118e-16
5.46931e-15
0.0163816
1.71422e-14
0.00434865
1.8171e-15
1.64644e-15
0.00641988
1.0808e-14
0.0115029
7.09412e-15
4.70783e-16
0.00213811
6.59096e-05
0.129353
5.32329e-14
1.59045e-14
1.54133e-15
0.00313276
0.163673
3.80432e-15
9.45683e-15
2.72036e-15
0.00137395
2.12601e-15
0.01765
0.0284886
1.24509e-14
2.0104e-15
0.0066668
8.04916e-15
1.25708e-14
2.20674e-15
1.39472e-15
1.83381e-15
0.0630648
7.50083e-14
2.92841e-15
6.16214e-15
1.77347e-15
5.11398e-15
2.30596e-14
9.4787e-16
3.05528e-15
1.90944e-16
0.00690706
4.02075e-16
0.00797057
1.32081e-14
2.00744e-14
0.530775
0.00253989
2.42465e-15
2.7518e-15
7.21531e-17
0.00223959
8.56484e-16
9.07482e-16
6.66968e-15
4.82902e-15
0.00684677
2.31197e-15
0.00432867
2.61002e-14
0.00869149
2.02473e-15
0.0517282
8.1199e-15
5.16192e-15
0.0199295
4.92317e-15
1.37336e-15
0.0243024
0.000243944
3.17813e-15
1.80134e-15
0.0324498
0.00904493
0.00598463
0.000773864
0.00167521
0.0159093
0.000950452
0.00427126
7.6826e-15
0.0266297
5.52806e-15
4.69331e-15
4.07423e-16
6.76304e-15
1.29675e-14
0.00963906
1.48809e-14
3.51091e-15
9.05087e-15
4.48931e-06
7.40912e-06
1.69682e-14
0.00209719
2.65381e-14
0.00397333
2.54486e-15
1.22149e-06
0.00294904
2.34669e-13
0.0415359
1.46445e-15
1.11048e-15
2.15865e-14
0.00273687
0.00113126
1.02324e-15
1.2212e-15
0.00228772
7.04347e-15
0.608878
2.78998e-15
0.0937056
8.59969e-15
2.51862e-15
8.16014e-16
1.76903e-15
0.00918324
1.35406e-15
3.34685e-05
5.6895e-15
0.00891253
1.4274e-14
5.00349e-16
4.62257e-12
5.3359e-14
1.69463e-15
2.1924e-14
8.81771e-16
2.92917e-15
0.00380238
0.170183
3.25646e-15
1.95311e-15
0.000323057
9.4746e-16
3.86518e-15
1.02113e-06
0.0156389
0.000136081
1.88031e-14
0.000622402
0.00296408
0.00492115
0.0075419
3.74721e-15
6.8045e-14
6.7293e-15
4.89159e-15
3.76544e-16
3.15877e-15
1.36669e-14
1.0197e-14
2.28096e-15
4.64461e-16
1.63837e-15
4.56517e-15
0.0686095
1.75001e-15
1.55159e-15
3.75256e-10
3.37601e-14
1.8621e-14
1.00839
1.19605e-15
7.02853e-15
0.00189188
2.46725e-09
7.11819e-16
6.49876e-14
1.90172e-15
0.0209519
3.69378e-15
1.11587e-14
4.93874e-08
1.71638e-16
8.55689e-15
3.22895e-15
2.1705e-15
0.109901
3.61805e-15
0.00014724
4.14566e-15
3.14505e-15
6.93003e-16
1.6653e-14
3.11579e-15
1.49717e-08
2.91091e-08
0.000101213
3.29509e-15
3.68481e-17
2.54158e-14
8.45712e-08
4.74182e-16
2.78671e-07
8.35374e-09
1.7221e-14
5.53694e-16
8.89187e-15
4.33727e-09
6.94946e-15
8.57564e-16
2.20054e-09
8.86826e-16
0.0288277
1.34744e-14
0.00673458
2.21495e-15
2.16577e-06
1.25774e-14
0.00129738
2.3592e-15
0.00372984
0.0244073
7.29509e-15
0.0023303
1.36226e-05
8.73983e-16
0.0102296
4.49527e-16
2.97284e-15
2.29721e-14
9.07022e-16
6.65278e-15
3.41539e-16
8.62033e-15
4.8492e-15
0.268446
1.01691e-16
6.41806e-15
1.62496e-15
2.07477e-15
1.05758e-15
0.0299621
0.765612
3.03401e-06
9.69439e-06
7.39796e-16
0.00198978
0.00139087
1.91056e-15
2.9929e-15
4.44082e-15
9.86898e-16
6.63834e-16
5.68277e-15
3.56802e-15
4.16234e-16
0.000364944
3.49167e-15
9.16988e-15
0.000235031
3.74411e-06
2.49162e-14
0.0241779
1.5644e-15
1.75944e-15
2.68099e-15
0.161233
3.44448e-14
9.16744e-16
0.0250829
3.18512e-15
6.22662e-15
1.47658e-15
2.94145e-14
0.0532667
2.08926e-15
6.48102e-15
1.5569e-15
7.88701e-16
0.00561945
0.22492
0.027864
0.0416557
0.00372488
0.000251658
1.01682e-14
1.02284e-15
0.138792
0.00122337
5.09718e-16
9.04102e-08
3.08247e-15
6.66371e-11
1.90733e-15
0.205405
4.22023e-15
7.42357e-15
0.000227537
2.32329e-10
3.79291e-15
0.00952703
9.3997e-16
1.9428e-15
0.197504
0.0300416
6.56026e-15
3.35212e-15
7.41369e-17
1.73307e-15
1.15932e-14
7.57737e-15
1.5432e-14
7.21593e-16
0.00306261
4.00943e-15
1.37675e-14
1.51071e-15
1.388e-05
1.88817e-15
2.03309e-14
5.4741e-15
1.66939e-15
8.40302e-16
5.20978e-15
0.00335656
2.92912e-15
5.89771e-16
0.00499897
6.90196e-15
0.000357961
0.00446451
3.30206e-15
0.0034223
4.69399e-15
1.87442e-17
3.60747e-15
1.25902e-16
1.38813e-14
2.95002e-14
1.19152e-14
8.24912e-15
0.00235021
3.69224e-14
6.12063e-16
9.51329e-15
2.77585e-15
1.7312e-14
5.10175e-15
0.035555
4.10994e-15
5.70544e-16
0.337396
6.87965e-16
2.32643e-15
5.45055e-15
0.00125746
2.17148e-15
6.02178e-06
1.5507e-15
4.87137e-05
0.00792581
1.97189e-15
2.23461e-15
0.0403559
1.96857e-15
8.8793e-15
0.000127542
7.21183e-07
0.00984106
2.30398e-06
9.14672e-07
1.39395e-07
1.02509e-15
3.86951e-15
0.0010212
0.000119234
0.0157332
0.0120824
2.84496e-05
7.93989e-15
0.00548817
0.0052064
0.0185348
3.23537e-14
0.0122808
0.0166506
0.00276735
0.00139378
0.00126083
0.0032241
0.0189717
0.040901
0.00708636
0.0110706
0.00798772
6.12735e-15
0.00291034
0.00363462
0.000856475
0.00256164
0.0141743
0.0137787
0.0193289
1.00692e-14
0.0115207
5.36059e-14
0.00508501
0.00284847
0.000269277
0.0023207
1.10855e-14
3.76046e-15