/*--------------------------------*- C++ -*----------------------------------*\
  =========                 |
  \\      /  F ield         | OpenFOAM: The Open Source CFD Toolbox
   \\    /   O peration     | Website:  https://openfoam.org
    \\  /    A nd           | Version:  10
     \\/     M anipulation  |
\*---------------------------------------------------------------------------*/
FoamFile
{
    format      ascii;
    class       volVectorField;
    location    "27";
    object      U;
}
// * * * * * * * * * * * * * * * * * * * * * * * * * * * * * * * * * * * * * //

dimensions      [0 1 -1 0 0 0 0];

internalField   nonuniform List<vector> 
111485
(
(1.45882 -1.4587 0.000432389)
(4.28514 -0.00989675 -0.0257705)
(4.2178 0.0110957 0.0126503)
(1.45828 -1.45854 0.000128856)
(4.38165 0.0206659 0.000144757)
(1.54355 1.5424 -0.00017141)
(4.30428 0.0129716 0.00106038)
(4.43486 -0.0133478 0.0053174)
(4.30163 -0.00199094 0.00354672)
(4.4166 -0.0485113 -0.0198975)
(4.24167 0.0102018 0.0126595)
(4.43792 -0.0119318 0.0205729)
(4.17836 0.00396414 0.00935679)
(4.24028 -0.00905111 -0.0296235)
(4.2803 0.0172802 0.00843248)
(4.38475 -0.030031 -0.023057)
(4.32132 -0.00511977 0.00706558)
(1.51231 -0.0950706 0.216198)
(4.38849 0.0135399 -0.00965725)
(1.45512 -1.45348 5.7549e-05)
(1.45679 -1.45641 -0.00137555)
(1.54496 1.54471 -0.000227706)
(4.34189 0.0164255 -0.00410814)
(4.42398 -0.0291756 -0.0100312)
(4.34114 0.013149 -0.00357827)
(1.46876 -1.46324 -0.00220185)
(4.45584 -0.021748 0.0215105)
(4.22374 -0.00812427 0.00170317)
(4.4047 0.00646558 -0.0111987)
(1.45664 -1.45658 -7.11424e-05)
(4.44879 0.0684573 -0.0175867)
(4.39888 -0.00995075 0.00129079)
(1.45173 -1.45433 0.00202259)
(1.54435 1.54779 -0.00357356)
(1.54738 0.655434 0.243414)
(1.55416 1.56483 -0.0226343)
(4.42594 0.0687882 -0.027178)
(4.28945 0.00983986 0.0393818)
(4.40731 1.33399 0.07404)
(4.39605 0.0208756 0.00103809)
(1.52693 1.54097 -0.0108556)
(4.43576 0.00667718 -0.0273277)
(4.39584 0.0215659 0.00732156)
(4.225 -0.0256706 0.00180236)
(4.42129 -0.0750085 -0.0386404)
(1.45943 -1.44755 0.00534366)
(4.43154 -0.0186625 0.0180012)
(4.41721 -0.0278205 -0.00910459)
(4.43801 0.00045358 -0.0225974)
(1.44847 -1.4296 0.0079653)
(1.44523 -1.43182 0.00834659)
(1.75348 1.47675 0.0265297)
(1.44023 -1.43537 0.00481535)
(4.42784 0.020283 -0.0358261)
(1.43695 -1.4317 0.000816822)
(4.37693 0.0115644 -0.00485045)
(4.38315 -0.0192866 -0.0105222)
(1.54631 1.54325 0.000970052)
(3.99938 -0.00788166 -0.0700589)
(4.40198 0.0181121 -0.00263711)
(4.40019 0.0200722 -0.000961696)
(1.45389 -1.45702 0.00214918)
(4.09833 0.00409421 0.0266117)
(4.45101 -0.0116941 0.0342952)
(1.59854 1.45028 0.00382245)
(4.01399 0.00914644 -0.0086471)
(3.08838 -0.237919 0.104621)
(4.41374 -0.0158722 0.00598437)
(3.98722 0.00175904 0.0145316)
(3.77338 -0.00587123 0.00273039)
(4.25319 0.0356258 -0.0133652)
(3.94584 -0.0106105 0.0214341)
(1.57899 -1.42257 -0.031665)
(4.05222 0.00646014 0.0313825)
(1.45821 -1.45741 -0.000139599)
(4.39772 -0.0101881 0.00803829)
(1.54469 1.5451 6.06521e-05)
(4.4274 -0.00892182 0.0229839)
(1.54457 1.54346 5.89584e-05)
(1.40021 1.36894 -0.0447763)
(4.27689 -0.0643894 0.0432402)
(4.4266 0.0151843 0.00173783)
(1.54226 1.53965 -0.000157023)
(1.45821 -1.45792 0.000757847)
(4.15246 -0.000191854 0.00927008)
(3.981 0.0110891 -0.0177301)
(3.42664 2.22742 -0.594897)
(4.37312 0.0531531 0.00443516)
(4.21347 0.106304 0.0907223)
(4.27601 0.00629483 0.0144807)
(4.51145 0.0883665 -0.0561766)
(4.37971 -0.00748227 0.00690927)
(4.10203 -0.00664572 0.0148176)
(4.18455 -0.00466146 0.00512122)
(4.43819 0.0142415 -0.0248602)
(1.45839 -1.45791 -0.000266737)
(1.45787 -1.45758 0.000694278)
(4.37059 0.049299 0.0154404)
(4.49881 -0.880727 0.0627137)
(4.09306 0.0140607 0.0267663)
(1.45844 -1.45816 0.000478619)
(4.39081 -0.0231322 0.00191441)
(1.55278 1.55555 0.00859643)
(4.35836 0.00054244 -0.00237405)
(4.33366 -0.0237098 -0.0286575)
(1.51584 1.35848 -0.0312384)
(1.54501 1.54468 -0.000218411)
(4.40601 -0.0134363 -0.00136507)
(4.05719 -0.0221546 0.00486988)
(3.8905 -0.115041 -0.12053)
(4.14866 -0.00393892 0.00910247)
(4.37104 0.00612361 -0.00268596)
(4.07078 -0.00206999 0.0154879)
(4.00623 -0.0198811 0.00916888)
(1.4718 -1.46425 0.000476732)
(3.86491 -0.0049995 0.0119496)
(1.46368 -1.45874 -0.00221231)
(1.55304 1.54658 0.00628238)
(4.29686 0.0177175 0.0138584)
(1.45784 -1.45693 0.000534677)
(1.46985 -1.46366 -0.00163473)
(2.02896 1.59952 0.0959725)
(1.53583 1.54064 -0.00303934)
(1.5495 1.54573 -0.0035623)
(4.19999 -0.00982638 0.019342)
(1.16833 -0.820807 -0.218291)
(1.93623 1.66723 0.0582962)
(3.90325 -0.00110178 0.0186652)
(1.45801 -1.45735 -0.000453383)
(4.41484 0.331695 -0.119057)
(4.40889 0.0805764 -0.0423808)
(4.36268 0.0502183 0.0162569)
(1.45428 -1.45074 -0.00698304)
(1.98761 1.73176 0.173569)
(1.85793 1.65902 0.0777212)
(4.40417 0.0138487 -0.00666197)
(1.54547 1.54571 -0.000407561)
(4.3796 0.0106294 0.000786583)
(4.34747 0.015175 0.00641723)
(4.28145 0.0184119 0.0154888)
(3.36227 0.000411668 0.0146364)
(4.3918 0.0228012 0.00459677)
(4.35372 0.0282462 0.0163229)
(4.1367 0.00379001 -0.0181529)
(4.32287 -0.00879395 0.0041227)
(4.27866 -0.00070055 0.00817293)
(1.54575 1.54597 -0.00036329)
(1.45798 -1.45808 0.000109594)
(1.54261 1.54335 0.00286014)
(4.37959 0.0174579 0.00212351)
(4.13827 0.0072701 -0.0163439)
(1.45678 -1.45573 0.000531951)
(2.87673 -0.0166209 0.0280792)
(4.2732 0.0204165 0.0100241)
(4.68248 0.188248 0.083534)
(4.40323 0.012445 -0.00894683)
(4.37994 0.0135251 -0.00335843)
(4.06696 0.000303349 -0.00540639)
(4.72531 0.230496 0.0580505)
(1.45054 -1.46409 0.00580418)
(1.45624 -1.4576 0.00123441)
(4.39235 0.0122642 -0.00904626)
(4.305 -0.0148447 -0.015454)
(4.75587 0.259734 0.0630501)
(4.68993 0.22786 0.0866729)
(4.09471 0.00765754 0.0214039)
(4.38645 0.0534181 -0.0194797)
(1.52716 1.53983 0.000347995)
(4.81275 0.32193 0.077692)
(4.58879 0.230567 0.0718891)
(1.54447 1.54524 0.000365854)
(1.45655 -1.45628 -0.000204856)
(3.51783 0.00397302 -0.0257187)
(1.54529 1.54607 0.000101098)
(4.36057 -0.00962709 -0.0016618)
(4.19105 0.00284622 -0.00993638)
(1.54546 1.50993 -0.00710036)
(1.57468 -1.44427 0.0132315)
(1.46156 -1.45385 -0.00245881)
(1.52173 1.4381 -0.0141337)
(1.5854 -1.45891 0.0248496)
(1.45631 -1.45731 0.000939022)
(4.3728 0.0172273 0.00440024)
(4.37053 0.0109549 -0.00831769)
(4.35541 0.0143588 -0.0039309)
(4.32109 -0.0103405 0.0156841)
(4.15026 -0.00922692 0.00311821)
(4.1673 0.00874497 0.0138995)
(3.69504 0.0465945 0.00524229)
(1.45738 -1.45216 -0.000148478)
(4.04751 0.00098822 0.00413166)
(1.57106 -1.45831 0.0144541)
(1.47019 -1.47266 -0.000840206)
(4.20698 0.00961474 0.0144659)
(4.41864 -0.0544515 -0.0190781)
(4.36814 0.00969806 -0.0200746)
(4.19772 -0.00424207 0.00662564)
(4.26343 -0.00220139 0.00511915)
(1.45552 -1.45285 0.00321726)
(4.18668 -0.0197333 0.00379618)
(4.1814 -0.00543345 -0.0260519)
(2.92813 0.940462 0.123502)
(4.2838 -0.0329172 0.00249114)
(4.34405 -0.00749472 0.00406924)
(1.46332 -1.45524 -0.0021783)
(4.18965 0.0121375 0.0148608)
(4.38542 0.00949739 -0.00331113)
(1.59753 -1.44241 0.00588176)
(4.21357 0.0101245 0.0154281)
(4.41894 -0.0060105 0.0232736)
(4.13671 0.00393296 -0.0188846)
(4.17903 0.0106217 0.0189687)
(1.58286 -1.46323 0.0196647)
(1.45701 -1.4575 -0.000208128)
(4.17985 0.0105883 0.0188651)
(2.7404 1.72299 -0.168943)
(4.4699 0.0193656 -0.0427114)
(1.54479 1.54563 -0.000879111)
(4.2042 0.00784068 0.0160091)
(4.19571 0.00664573 0.00472016)
(4.44372 -0.0141593 0.0274323)
(1.45959 -1.45887 0.00059592)
(3.92109 -0.000208922 0.011024)
(4.39971 0.0614139 0.0303277)
(2.42267 1.63145 -0.176821)
(1.54549 1.54557 -0.00119351)
(1.54441 1.54518 0.000340775)
(4.49916 -0.0291077 0.0405937)
(4.19978 0.0995645 -0.0102634)
(1.62622 1.37533 -0.0306353)
(1.81299 -1.40265 0.0555189)
(4.21072 0.00329126 0.00561325)
(4.33956 0.00832471 0.000631488)
(4.40843 0.0108625 0.00249987)
(1.60393 1.39993 -0.0405048)
(1.54192 -1.42458 -0.00534167)
(4.23367 0.0482795 -0.0560396)
(1.45802 -1.45762 0.000872646)
(4.00605 0.00464997 -0.0239007)
(4.16065 0.00467153 0.0134537)
(4.20785 0.00175321 0.00724951)
(4.21556 0.0106126 0.00888581)
(4.23152 0.00850352 0.0120659)
(1.54081 1.54085 0.00487547)
(3.1868 -0.0098266 -0.121358)
(4.29393 0.0102406 0.0161584)
(1.53794 1.54099 -0.00200841)
(1.54448 1.54526 -0.000239024)
(4.47018 -0.0525199 -0.00612705)
(4.37017 0.0181998 -0.00731531)
(1.58325 1.35313 -0.0412384)
(3.97437 -0.00251875 0.0120563)
(4.27706 0.0119453 0.0124819)
(1.4586 -1.45776 -0.000499783)
(1.95314 1.84016 -0.0120451)
(4.39968 0.0378261 -0.0168706)
(1.46205 -1.44322 0.000707858)
(1.61864 -1.14492 -0.0277622)
(2.2401 -0.781017 -0.0798024)
(1.45901 -1.45506 -0.000212749)
(4.29597 -0.00767442 -0.00771083)
(4.17802 -0.00760209 -0.0102979)
(4.3591 0.0069123 -0.0126321)
(1.45747 -1.45769 -7.79013e-05)
(4.31701 0.0130576 0.010878)
(1.45831 -1.4586 0.000144274)
(1.45829 -1.45896 0.000256118)
(1.45588 -1.45045 0.00250637)
(2.94515 0.0110806 -0.044688)
(4.42111 -0.0205177 0.0245268)
(4.22316 0.0149039 0.0195574)
(4.29176 0.0136405 0.0105594)
(4.45473 -0.0291321 -0.000914549)
(4.26806 0.00941488 0.00951857)
(4.38626 0.0157898 0.00544312)
(4.40956 0.0735773 -0.00785706)
(4.30737 0.00951347 0.000578708)
(4.35058 0.0100709 0.000571375)
(1.56992 1.5444 -0.000805396)
(1.4563 -1.45614 -0.00162864)
(2.68735 0.0160604 -0.0645464)
(4.37357 -0.0101397 0.00139193)
(4.42361 0.0333197 0.0370751)
(4.16046 -0.0052127 -0.0073822)
(1.45806 -1.45725 0.000375509)
(4.36552 0.0132227 0.00830761)
(4.38863 0.0214219 0.0103123)
(4.28141 0.00819561 0.00706796)
(3.77275 -0.00400301 -0.0182122)
(3.95172 -0.0455949 -0.0981609)
(4.34726 0.0147815 0.00238341)
(4.2726 0.0111086 0.00953754)
(4.36158 0.0321957 -0.0193915)
(1.546 1.54601 0.00014306)
(3.99526 0.0209723 -0.00057026)
(1.54456 1.54498 -0.000578174)
(1.26242 0.968727 -0.19657)
(1.64415 -1.04862 -0.106123)
(4.52941 -0.0394189 0.0580237)
(4.45705 -0.0291297 -0.000964848)
(4.35152 -0.00233989 0.000513575)
(1.46041 -1.45681 -0.000539651)
(1.54013 1.54886 0.0125364)
(4.35772 0.0141366 0.00795388)
(4.17089 0.00746575 -0.00647629)
(1.45744 -1.45647 0.000125418)
(1.45872 -1.45791 0.00131686)
(1.42789 -1.43524 0.0112369)
(4.14641 0.00583013 -0.00314481)
(4.33173 0.00588198 -0.00517033)
(4.1353 0.000797113 0.0145974)
(3.99384 0.00697608 -0.0230104)
(4.41664 0.0101123 -0.0103179)
(1.76836 1.52249 0.0401192)
(1.54212 1.54577 0.00303574)
(1.45829 -1.45613 -0.000865964)
(4.34208 0.0144404 0.0122228)
(2.80737 -2.37664 -0.171135)
(4.14021 -0.004883 0.00464365)
(4.49725 -0.0314165 0.0956556)
(3.61895 0.00254644 -0.0739288)
(1.54513 1.54511 -0.000213643)
(1.45672 -1.45811 0.000791272)
(1.45833 -1.45919 -0.000801014)
(1.94481 1.63434 0.0986582)
(4.39208 0.0140522 -0.000441258)
(4.43352 -0.0253913 0.00154832)
(1.54896 1.55277 0.000555809)
(4.35421 0.0117509 -0.00120144)
(1.63204 1.32607 0.0922691)
(1.46557 -1.44914 -0.00220146)
(4.46355 -0.0155475 0.0364067)
(4.3476 0.0153636 0.00663389)
(4.45098 -0.0069522 0.0109455)
(4.35735 0.0121997 -0.000817214)
(1.49076 1.32598 0.0790978)
(1.92564 1.65867 0.10505)
(1.54238 1.54448 -0.0023759)
(4.35093 0.0149461 0.00566209)
(4.34758 0.0129122 -0.000280382)
(4.4318 0.0745099 -0.0241887)
(1.5321 1.52903 0.00334694)
(3.04396 2.69966 -0.642183)
(4.15208 0.0404191 0.0367989)
(4.43043 -0.0209824 0.0107613)
(4.36901 0.0161104 0.0103382)
(4.14976 0.42909 -0.0339914)
(4.41491 0.0104378 -0.0102838)
(1.54207 1.54205 0.000287662)
(4.41811 0.0120261 -0.00873929)
(4.23965 0.00558499 0.0085029)
(4.47348 -0.103446 0.000278389)
(4.47658 -0.0262027 0.0532258)
(4.34022 -0.0331902 -0.0299228)
(1.54038 1.54686 -0.0060447)
(1.45682 -1.45864 -0.00273059)
(1.54853 1.5402 0.00564547)
(1.4489 -1.453 -0.000537706)
(4.42711 -0.0214502 -0.000153643)
(4.40097 -0.0081016 0.00283922)
(4.3761 0.0206578 -0.0150036)
(4.4112 0.0122278 -0.0130851)
(1.53585 1.53754 -0.00634027)
(4.37259 -0.0286785 -0.00954753)
(1.54355 1.54426 0.000579161)
(1.45186 -1.4562 0.000244031)
(4.41306 0.0123145 -0.0095806)
(1.34506 -1.34676 0.0196357)
(2.42489 -0.421148 -0.0361533)
(1.44219 -1.43677 0.00128619)
(1.55925 1.53849 0.0122811)
(4.36526 0.00847157 -0.00584718)
(1.5454 1.54457 0.000604992)
(4.32343 0.0108687 -0.00314519)
(4.10566 0.00256491 -0.0190465)
(1.54633 1.54621 -0.000341863)
(3.96442 -0.00163584 -0.0194528)
(4.29351 0.00702777 0.00801983)
(1.55544 1.36706 -0.050237)
(4.28759 0.0187493 0.019262)
(4.04301 0.0206943 -0.00306995)
(4.31136 0.0244764 0.00617075)
(4.01238 0.0153848 0.0493469)
(4.35484 0.012733 0.00204253)
(4.14939 0.000651109 -0.00942489)
(1.52449 1.30723 -0.00558572)
(1.45726 -1.45185 0.00547558)
(3.72723 0.00828145 0.0880431)
(1.53532 1.54061 -0.00890618)
(4.30292 0.0223451 0.0197168)
(4.46544 -0.0225931 0.0435494)
(1.55673 1.4892 0.0124736)
(1.5422 1.54859 -0.000270697)
(4.41599 -0.00923243 0.00312998)
(4.25093 -0.0194597 -0.0394365)
(4.26806 0.0222895 0.00236325)
(4.43126 0.00885225 -0.00213416)
(1.545 1.54337 -0.000490808)
(4.48534 -0.0131325 0.0706801)
(4.41399 -0.0150397 0.0218974)
(1.54824 1.54545 4.08706e-05)
(4.33613 0.0655819 0.0534405)
(4.13302 -0.0170154 -0.0428054)
(1.45722 -1.45614 -0.000251257)
(1.45718 -1.45698 0.000278659)
(4.32002 0.0137037 -0.00373969)
(4.33623 0.00415326 -0.00615992)
(1.55226 1.55255 -0.00199149)
(1.46045 -1.45577 -0.00153164)
(2.58372 -1.38853 0.316053)
(1.45794 -1.45889 0.00052669)
(4.3373 -0.00223539 0.00931625)
(1.53734 1.54229 0.00365982)
(1.45838 -1.45876 9.63281e-05)
(4.45247 -0.00519953 0.0144645)
(4.02844 -0.0474105 -0.114834)
(4.40566 -0.0247225 0.00639293)
(4.24384 0.000267309 0.00794464)
(1.54683 1.54578 4.27958e-05)
(2.00123 1.54641 0.0747284)
(4.24911 0.0538681 0.0793191)
(1.87695 1.65857 0.0872708)
(4.23274 0.0183113 0.0329334)
(4.21685 -0.0348281 0.0033419)
(4.39609 -0.0118854 -0.0101465)
(3.06633 0.106293 0.106802)
(1.84377 1.59033 0.078105)
(4.40989 0.00763243 -0.0415139)
(4.45381 0.134121 -0.0455396)
(1.45634 -1.45911 0.00245598)
(4.43645 0.0113006 -0.0432578)
(4.44562 -0.0213316 0.0159137)
(1.46013 -1.45979 0.00153114)
(4.28602 0.246064 -0.136288)
(3.74834 -0.000683753 -0.0526751)
(1.94689 1.53364 0.062689)
(4.42039 -0.00846432 0.0186902)
(4.37008 0.00612082 -0.00603605)
(4.35836 0.0118753 -0.00226084)
(1.54461 1.54349 -0.000430894)
(4.34695 -0.00709041 0.0298742)
(4.4434 -0.00392018 0.014604)
(4.33016 0.0416806 -0.00455964)
(2.73796 -0.0366232 0.0465755)
(1.87655 1.77263 -0.037043)
(2.57905 -0.0653828 0.0846531)
(1.45661 -1.45839 0.00102139)
(4.00183 -0.130254 -0.129308)
(4.34804 -0.00771312 -0.0285652)
(1.54589 1.54486 0.0021755)
(4.11965 0.00995701 -0.0306963)
(3.40534 -0.0083522 0.06054)
(1.99989 1.76998 -0.0185507)
(1.45837 -1.45739 0.000159801)
(1.70989 -1.44903 0.0459061)
(1.45796 -1.4574 0.000101269)
(4.32314 0.0215228 -0.000856487)
(4.35671 0.0225662 -0.00762486)
(4.30006 -0.0131516 -0.0122638)
(4.04315 0.0104661 -0.0225959)
(4.40962 -0.0902501 -0.0182102)
(1.54462 1.53869 -0.00329221)
(4.27568 0.000300179 -0.00933942)
(1.46174 -1.45099 0.000493321)
(4.2304 0.0163671 0.00962409)
(1.54994 1.54958 -0.000899947)
(1.45732 -1.45621 -2.83228e-05)
(1.44637 -1.45041 -0.00204719)
(4.15764 -0.0282511 0.00616451)
(1.45487 -1.45539 -0.000961851)
(1.45873 -1.45834 0.000473377)
(1.52181 1.01781 -0.0629355)
(1.45817 -1.45932 0.000459148)
(1.53025 1.5514 0.014422)
(4.26185 -0.0149609 -0.00673592)
(1.54651 1.54428 0.000649225)
(1.82869 1.35288 0.00250225)
(1.54667 1.54672 0.0016456)
(1.456 -1.45192 -0.00100464)
(1.54612 1.54231 -0.00105086)
(1.45404 -1.44663 -0.00762024)
(1.54094 1.54077 -0.000221124)
(3.88168 0.00084695 -0.033181)
(1.54866 1.54026 0.00631198)
(3.98572 0.0554614 0.0783426)
(4.35489 0.00402457 0.00067785)
(4.50056 -0.167378 -0.0247141)
(1.54676 1.54002 -0.000307557)
(3.79569 0.0117102 0.0613723)
(1.54847 1.54288 0.00178887)
(1.45837 -1.45923 -0.000708826)
(4.31032 -0.0415345 -0.0462879)
(4.30707 -0.0344767 -0.0357652)
(4.30357 -0.00920479 -0.0121253)
(4.499 0.0119647 -0.0753705)
(1.77298 1.49365 -0.0481605)
(4.40361 0.00364503 -0.0230242)
(4.40221 0.00211231 -0.0208464)
(4.36184 0.00947724 -1.23083e-05)
(4.2942 0.00474612 0.000920699)
(4.37911 -0.0447088 -0.029245)
(1.45514 -1.45538 -0.000538174)
(4.36818 0.00769679 -0.0014138)
(2.01681 1.75691 -0.0116764)
(4.34111 0.00905649 -0.00896191)
(1.5455 1.54435 0.000249497)
(4.42518 0.0152258 -0.0244827)
(1.99522 1.65793 0.0155582)
(4.36568 0.00419009 -0.00613806)
(4.37147 -0.0198865 0.0158912)
(1.68541 -0.840827 -0.00999185)
(1.54788 1.54963 0.0170092)
(4.30117 0.00766176 0.00694561)
(1.45809 -1.45697 0.000154972)
(4.43994 0.0181078 -0.0262204)
(4.40576 0.0212685 -0.0181302)
(1.54511 1.54088 -0.0126103)
(1.54314 1.54239 0.00373815)
(1.51325 1.35667 -0.0385976)
(1.54453 1.54552 0.000919399)
(3.08957 -0.163782 0.0824464)
(4.44226 0.0157325 -0.0258147)
(1.56475 1.52831 -0.00112084)
(1.54269 1.54546 0.00179988)
(3.80099 0.00212531 -0.0107207)
(1.5455 1.54535 -8.18192e-05)
(4.37325 0.0157254 -0.0172699)
(1.54536 1.54466 0.000130108)
(4.33422 -0.0263779 -0.0184709)
(1.45897 -1.45848 0.000496169)
(4.07211 -0.0217975 -0.06035)
(3.37145 -0.0127259 0.00480025)
(4.07113 0.012379 -0.0095506)
(4.3679 0.00571723 -0.00751587)
(1.55467 1.54308 -0.00470771)
(3.97094 0.00385504 -0.000489885)
(1.54813 1.54279 0.0013295)
(1.54526 1.54651 -0.00374016)
(4.30822 -0.0165593 -0.0101562)
(1.54574 1.54432 -0.000164424)
(3.67769 0.000354675 -0.0376962)
(1.49562 1.37714 -0.0433928)
(4.38437 0.021395 -0.0138581)
(1.4572 -1.45769 -0.000287443)
(4.41283 0.0105086 -0.00937708)
(1.4585 -1.45731 0.000180593)
(1.82988 1.62184 0.0459546)
(4.47116 0.156082 -0.00939128)
(4.30475 -0.0355453 -0.0466539)
(4.35149 0.0164596 0.000108402)
(4.40338 -0.0527258 -0.0328151)
(4.33158 0.00912466 -0.00582901)
(4.44901 -0.0303689 -0.00412343)
(1.53553 1.54743 -0.00682038)
(4.34966 0.0226671 0.0143578)
(4.31675 -0.0393582 -0.0462229)
(1.54476 1.54546 -0.000718228)
(3.6536 -0.0462209 -0.157525)
(4.45097 -0.03122 -0.0221686)
(4.27583 0.0193255 0.0158275)
(1.53197 1.5106 -0.00888864)
(1.90355 0.393528 -0.29538)
(4.1846 0.0113174 0.0128064)
(3.4357 -0.0135943 0.0344246)
(3.5546 0.920758 -0.00699254)
(1.89418 -0.958117 -0.0801098)
(4.43526 -0.0477498 -0.0069984)
(4.16303 0.016102 0.0293317)
(4.30131 -0.0416517 -0.0446413)
(4.37066 -0.024197 -0.00946788)
(4.31541 0.0257083 0.0105276)
(3.82252 0.499686 -0.0253181)
(1.90652 1.62006 0.0133339)
(3.88377 -0.141896 0.0316471)
(3.75277 -0.326727 0.0776796)
(1.45637 -1.45696 0.000849158)
(3.82508 0.0265542 -0.0117464)
(1.55411 1.52527 -0.0077683)
(1.81244 1.64836 0.0151521)
(4.32689 0.00508612 -0.00222676)
(3.84782 0.654887 -0.0212583)
(4.62687 -0.389367 -0.0724505)
(4.16714 -0.714931 0.0148501)
(1.80739 1.71863 -0.124068)
(4.40894 -0.0257501 -0.00739284)
(4.36145 0.0248306 0.0186733)
(1.54186 1.53741 -0.000456154)
(1.98322 1.10701 -0.044577)
(4.36371 0.0315583 0.0185227)
(1.45679 -1.45151 0.000970812)
(1.54517 1.54491 -0.000141981)
(1.54346 1.54304 0.000245729)
(1.54644 1.53847 0.00162619)
(4.41272 -0.0455211 -0.0207006)
(1.54558 1.54531 0.000902659)
(1.46412 -1.46406 0.00786148)
(4.33029 -0.0266371 -0.0224379)
(3.99105 -0.000569783 -0.0124123)
(2.153 -1.88385 -0.0991568)
(4.3645 0.0308731 0.0180139)
(1.79304 1.45162 0.0323658)
(4.38663 -0.0173947 -0.00893991)
(1.43378 -1.4327 -0.00642827)
(1.54226 1.54532 -0.000687295)
(4.3955 -0.0270507 -0.00801037)
(1.54623 1.53739 -0.00578519)
(1.54492 1.54151 0.0010608)
(1.76971 1.69559 0.0496327)
(4.14361 -0.00316372 -0.0028506)
(2.53912 2.12866 -0.279848)
(4.33136 -0.01861 -0.00936831)
(4.32358 0.00461566 -0.00297247)
(1.44745 -1.43811 -0.0117197)
(4.49753 -0.0134224 0.140944)
(4.12662 -0.0240824 -0.0600949)
(4.31236 0.00150118 -0.00230274)
(4.38019 0.077294 0.00971055)
(4.39612 0.0456205 -0.0943461)
(3.78919 0.00194138 -0.0359107)
(1.54365 1.54285 0.000576224)
(4.3979 0.00469541 0.0111971)
(4.36735 0.0176301 -6.31304e-05)
(1.44493 -1.46391 0.00296748)
(4.07755 -0.00273407 0.000335666)
(4.41711 0.0252284 -0.00856113)
(4.40741 0.0201181 -0.00703038)
(4.01924 -0.0173425 -0.0405697)
(4.40402 0.0212257 -0.0056248)
(4.40935 0.0216519 -0.00431759)
(1.46249 -1.44319 0.00866323)
(4.40485 -0.00929192 0.022001)
(3.65985 -0.0219487 -0.00559365)
(1.86178 1.61844 0.10047)
(4.4023 0.0176602 -0.00934654)
(4.20311 0.00497558 -0.00957314)
(2.46978 2.01446 -0.301151)
(4.32734 0.00594658 -0.00154912)
(4.40504 0.0150438 -0.0132568)
(4.20501 0.00132108 -0.0170891)
(4.3734 0.0217021 -1.70115e-05)
(4.32427 0.0464869 0.0177215)
(4.33359 0.00552708 0.000355116)
(1.51191 1.47907 0.00192757)
(4.37282 0.0223763 -0.000795051)
(4.10767 -0.0247585 -0.0543367)
(1.63212 -0.973733 0.0386745)
(4.35258 0.0338991 0.022259)
(4.3049 0.0349279 0.034612)
(4.35885 0.0139979 -0.00241634)
(1.54437 1.54151 0.00170349)
(4.24168 0.0252834 -0.0405433)
(1.45829 -1.45193 0.00377258)
(1.54527 1.54573 -0.000803624)
(1.54063 1.52854 -9.68219e-05)
(1.54702 1.53883 0.000833177)
(3.67171 0.00201202 -0.0174124)
(1.83635 1.58499 0.0629598)
(3.32843 -0.229233 0.273438)
(1.45447 -1.45443 0.000255895)
(1.54458 1.5633 -4.47115e-06)
(4.3679 0.0418792 0.0233714)
(4.37849 0.0105218 -0.0174973)
(1.45895 -1.45878 4.9922e-05)
(4.38802 -0.0272366 -0.00385838)
(1.45799 -1.45667 0.00483282)
(1.45918 -1.45804 -0.000741474)
(1.43634 -1.43666 0.00444597)
(4.46015 -0.0374064 -0.00782373)
(3.70939 0.0200923 -0.0109147)
(1.81813 1.63988 0.0203765)
(1.47344 -1.45707 0.00390289)
(1.54336 1.54785 -0.00196225)
(1.54422 1.54542 -0.000290091)
(4.48004 0.00863601 -0.048771)
(4.34391 0.00749668 -0.00322293)
(1.83655 1.72769 0.0794747)
(4.4281 0.0141736 -0.0230175)
(4.12544 -0.0574752 -0.167807)
(1.54285 1.54338 -0.000862326)
(4.41628 0.0122474 -0.019987)
(4.05286 0.00361294 0.0213823)
(4.31939 0.0236926 -0.0284989)
(1.54647 1.54551 -0.00021238)
(1.54397 1.54336 -3.19386e-05)
(4.28084 0.0188923 0.0226356)
(4.36459 0.00852742 -0.00141957)
(1.82374 1.6602 0.0259558)
(1.53963 1.54012 -6.27537e-05)
(1.56814 1.52231 -0.003078)
(4.32618 -0.0086485 0.00499297)
(1.45651 -1.45667 -0.00195889)
(1.45851 -1.45376 0.00126666)
(1.54069 1.54135 0.000745719)
(4.41397 0.0135181 -0.0170667)
(3.86857 -0.018467 0.00661891)
(1.54587 1.546 0.00022756)
(1.71281 0.355761 0.294824)
(1.85758 -0.185393 -0.0691451)
(4.29411 0.0225874 -0.00211081)
(1.54296 1.54557 -0.000742453)
(1.54534 1.5424 -0.000794872)
(4.44517 -0.0451127 -0.0102378)
(4.2488 0.072138 0.0649194)
(1.85028 1.65513 0.0770046)
(2.68781 0.882188 0.0635042)
(4.18891 0.101118 0.117384)
(4.00626 0.0112306 -0.0287013)
(4.24973 0.00351777 -0.00339163)
(1.60298 1.5048 -0.00277923)
(4.23212 0.0113355 0.000659088)
(4.3868 -0.0292178 0.0301741)
(1.54907 1.54505 -0.00177908)
(1.44841 -1.42524 0.00192495)
(1.54085 1.54175 -0.000203585)
(1.54358 1.54397 -0.000544996)
(1.54568 1.54787 -0.00168776)
(1.54631 1.54661 -0.000121101)
(4.42431 0.0145561 -0.0184134)
(1.45711 -1.45702 0.00105786)
(1.54379 1.54413 -5.52195e-05)
(1.53636 1.51626 -0.000196609)
(4.42781 0.0145658 -0.0238681)
(4.3603 0.00952061 -0.00314596)
(1.4643 -1.44509 -0.000539777)
(1.44135 -1.42659 0.00223479)
(4.46302 -0.0211051 0.0380614)
(4.24249 0.00368293 0.00550885)
(4.23569 0.00523158 0.00692834)
(1.45903 -1.45498 -0.000780923)
(1.54295 1.54352 0.000828449)
(4.2393 0.00317716 0.00653616)
(1.45856 -1.4575 -1.67374e-05)
(4.1889 0.0110759 0.00112117)
(4.29885 0.00691147 0.0147183)
(4.30684 0.01525 0.00701867)
(1.46791 -1.45727 0.0045985)
(1.45788 -1.45844 0.000434725)
(1.45768 -1.45858 0.000447269)
(1.5454 1.54564 0.00041176)
(4.34887 -0.0187867 -0.012259)
(1.54374 1.54483 0.000240976)
(1.54278 1.54316 0.00037927)
(4.32495 0.0114943 -0.0154416)
(1.45771 -1.45842 0.00062816)
(4.25536 -0.00148404 0.00528946)
(3.89489 -0.031736 0.0128763)
(1.5582 1.50836 0.00747386)
(4.35871 0.0139325 -0.00270262)
(2.06099 0.313702 -0.0530204)
(4.29476 0.00337095 0.00391929)
(4.45758 -0.0165718 0.00891339)
(3.92424 0.0157358 0.00487875)
(4.44271 -0.00035333 0.0283626)
(3.21301 0.0710229 -0.120367)
(1.83621 1.47291 0.0299432)
(4.2851 0.000220735 0.00237697)
(4.46147 0.0317546 0.00195543)
(4.35706 -0.0125022 -0.00519948)
(1.58222 1.3787 -0.0465973)
(1.95134 0.194067 -0.0983268)
(2.32826 -0.148466 0.0749074)
(4.28533 0.00679365 0.00380473)
(1.54301 1.54527 0.00200796)
(4.21298 -0.00959327 -0.0312277)
(4.30147 -0.00358335 -0.0106994)
(4.17993 -0.0376348 -0.0669314)
(1.59571 -1.1245 -0.0856479)
(1.45829 -1.45842 0.000781695)
(1.45783 -1.45783 -1.82275e-05)
(4.38365 -0.0143539 -0.00255565)
(1.79767 1.49255 -0.0184099)
(4.15523 0.0140745 0.00670904)
(1.67437 1.52675 0.0206163)
(4.13939 -0.00784141 -0.02776)
(4.24482 -0.00636124 0.00523836)
(4.20475 -0.00348135 0.0155194)
(4.36106 0.0109952 -0.00406714)
(1.54431 1.54321 -0.000477629)
(1.53588 1.53167 -0.00226367)
(1.55946 -1.42081 0.00666313)
(4.3559 0.0160668 0.000785801)
(1.54592 1.54175 -0.000225)
(1.7791 1.53401 -0.066264)
(4.45485 0.0783884 -0.0676217)
(1.55132 1.5495 -0.000779228)
(1.53903 1.54643 0.00452789)
(1.45512 -1.44927 -0.00377683)
(1.54557 1.54613 0.00040407)
(4.15933 -0.00243357 0.0148471)
(1.58287 1.50078 0.00498402)
(1.5455 1.54375 0.000184564)
(3.53985 0.500574 -0.367224)
(1.8033 1.46123 -0.0198431)
(1.53958 1.54043 -0.0128629)
(2.10502 -1.24409 0.0763942)
(1.54517 1.54293 -0.00131861)
(3.405 0.0129701 -0.0299155)
(4.24197 -0.00525882 0.0118376)
(1.45708 -1.45687 -0.000560719)
(4.17087 0.00487155 -0.00973611)
(4.2169 0.684997 -0.0951059)
(4.15241 -0.0407162 -0.0652682)
(4.56307 0.17095 0.00460967)
(4.09603 0.00483183 -0.00728154)
(1.54545 1.53466 0.00487744)
(4.31493 -0.0404411 -0.0458543)
(4.47091 -0.0176779 0.00985341)
(4.15161 -0.0408866 -0.0658688)
(1.45759 -1.45809 -2.1672e-05)
(4.52919 1.19859 0.315011)
(4.14973 0.00578406 0.00801715)
(2.05239 1.64267 -0.0959757)
(4.12262 0.00194789 0.00598925)
(4.50165 0.0554322 -0.0420607)
(4.29744 0.0850682 0.00497531)
(4.25984 -0.0137665 -0.017731)
(4.26116 0.0137422 0.000946311)
(4.53661 0.0650464 -0.0240533)
(4.38169 -0.00704975 -0.0074954)
(4.3451 -0.00766887 0.00497745)
(1.53516 1.54014 0.00608971)
(1.54099 1.5336 0.00482162)
(4.17862 0.011071 0.00554984)
(4.10997 0.00438593 0.00573831)
(1.5423 1.54601 -0.00027909)
(4.235 0.00566154 0.000352089)
(4.45309 -0.0181085 0.00538992)
(4.36879 -0.0121393 0.00462522)
(1.54969 1.53445 9.2141e-05)
(4.28249 0.0847996 0.0196187)
(1.54303 1.54168 0.000305215)
(4.34884 -0.00673677 0.00350227)
(4.37356 -0.00837002 0.00330593)
(1.54414 1.5434 -0.000224048)
(4.16576 0.0188558 -0.0148153)
(4.36366 -0.00616631 0.00139689)
(4.26532 0.0793803 0.00687662)
(4.20765 0.00142815 0.0138975)
(1.57364 1.54428 -0.00225355)
(4.37853 -0.0131888 0.0146265)
(4.27834 0.0967454 0.00133573)
(4.5096 -0.104734 0.0265053)
(3.79724 0.049053 0.0150294)
(3.38905 0.0102582 -0.0473643)
(1.54709 1.53118 -0.00279763)
(1.54182 1.54055 0.00147452)
(4.20566 0.0565635 0.00747798)
(1.5454 1.54578 -0.000416507)
(3.68177 -0.0104651 -0.00982008)
(4.22484 -0.0213107 -0.0322932)
(2.58097 0.36663 -0.0901494)
(4.67861 -0.296994 0.111929)
(4.13086 -0.183581 0.0525651)
(4.59901 -0.163312 0.0435087)
(1.54542 1.54575 -0.000403942)
(2.09292 1.77758 0.0150792)
(4.37257 0.0125495 -0.00366644)
(1.45213 -1.45735 -0.00442446)
(0.797302 -0.552894 0.243856)
(4.34052 -0.0815038 -0.0657331)
(1.54539 1.54132 -0.00287783)
(1.5458 1.54416 -2.74689e-05)
(3.86672 -0.0760743 -0.00420266)
(3.16631 -0.203041 0.0403475)
(1.54595 1.54586 -0.000255121)
(3.9195 -0.0713507 0.0115919)
(1.54422 1.54272 0.000214028)
(1.54443 1.5466 -0.00257715)
(1.45738 -1.45756 -0.000264127)
(1.45926 -1.45567 0.00352477)
(1.43072 -1.41986 0.00520244)
(1.45732 -1.45468 1.68405e-06)
(3.90506 0.031096 -0.0143344)
(1.54294 1.53413 -0.00127822)
(1.54435 1.54494 0.000458466)
(1.53672 1.54526 0.00283482)
(3.63723 -0.803517 -0.210793)
(4.12683 -0.0345339 -0.0759804)
(3.99572 -0.000833826 -0.0399447)
(4.37279 0.012765 -0.00401239)
(1.5398 1.5297 0.000278127)
(1.54862 1.5432 -8.80526e-06)
(4.19276 -0.0711622 -0.0864047)
(1.54517 1.54605 -0.0013975)
(1.54466 1.54339 0.000674642)
(2.44896 1.41322 0.0522013)
(4.46695 -0.0602316 -0.00514082)
(4.35885 0.0108028 -0.00333719)
(1.54348 1.54366 -0.000435134)
(1.54535 1.54228 0.00178192)
(1.54115 1.5372 -0.00203136)
(1.54348 1.54093 -0.000325238)
(1.5474 1.54721 -0.00168615)
(1.54798 1.54389 0.000185374)
(4.37724 -0.101033 -0.0634203)
(1.54616 1.54187 -0.000393184)
(3.03615 0.0441614 0.100257)
(4.39811 -0.00984773 0.0111937)
(1.54412 1.54626 -0.000329967)
(1.44878 -1.4547 -0.00394976)
(1.43874 -1.42526 0.00164321)
(3.69619 0.0426381 0.197722)
(1.43145 -1.42969 -0.00573276)
(1.45617 -1.45716 0.00144094)
(1.53745 1.53975 -0.00967005)
(3.964 -0.0602961 0.00261606)
(1.54234 1.54218 -0.000247127)
(4.34118 -0.0563267 -0.0356933)
(3.46074 0.0552456 -0.0175434)
(2.86275 0.00433812 0.112774)
(1.54259 1.54291 0.000473489)
(2.96818 -0.755556 0.0598085)
(4.3749 -0.00845176 0.000765685)
(4.40511 0.00993079 -0.0117844)
(1.56442 -1.49024 -0.018265)
(4.24353 -0.0676762 -0.0119454)
(4.329 -0.00849537 -0.00670129)
(1.45815 -1.44813 0.00146188)
(1.59342 1.51208 0.00752635)
(2.06454 -1.58811 -0.130375)
(1.54064 1.53961 0.000221717)
(4.38367 0.00960065 -0.00201431)
(4.36543 -0.00583204 0.00666714)
(4.44701 -0.0528135 0.0218209)
(2.93517 -0.00173775 0.159399)
(1.54569 1.54507 -0.000168167)
(4.38604 0.00980657 -0.0030329)
(1.59042 1.51374 -0.00183501)
(1.92689 1.63228 -0.0074963)
(1.96318 -1.52509 -0.061831)
(1.54455 1.54503 0.000589895)
(4.38701 0.012467 -0.00372057)
(1.54213 1.53847 0.00154393)
(1.44298 -1.41886 0.000393715)
(4.00178 -0.0549046 -0.0988436)
(4.28761 -0.00975115 0.00549724)
(1.44305 -1.41974 -0.00445955)
(4.31361 0.00728056 -0.00226192)
(1.64695 1.60983 -0.0102723)
(4.3807 -0.0371923 -0.0191142)
(1.45744 1.3951 0.0158948)
(1.54584 1.54665 -0.000737529)
(1.55383 1.54856 0.00519597)
(1.45843 -1.45866 0.000438924)
(4.26025 0.0087838 -0.00743727)
(3.80916 0.00635105 -0.01648)
(4.41641 -0.00193458 0.0796507)
(1.54048 1.54082 0.000937917)
(1.5411 1.51235 0.00987426)
(4.24097 0.00947591 -0.00707829)
(1.5455 1.54583 -0.000513796)
(1.78823 1.62298 0.0223016)
(1.4576 -1.45647 0.000659515)
(4.19358 0.0265143 -0.00268927)
(4.46312 -0.113041 -0.031634)
(4.37204 0.0115033 -0.00443511)
(1.46067 -1.45708 0.00237356)