/*--------------------------------*- C++ -*----------------------------------*\
  =========                 |
  \\      /  F ield         | OpenFOAM: The Open Source CFD Toolbox
   \\    /   O peration     | Website:  https://openfoam.org
    \\  /    A nd           | Version:  10
     \\/     M anipulation  |
\*---------------------------------------------------------------------------*/
FoamFile
{
    format      ascii;
    class       volScalarField;
    location    "0.3";
    object      SgT;
}
// * * * * * * * * * * * * * * * * * * * * * * * * * * * * * * * * * * * * * //

dimensions      [1 -1 -3 -1 0 0 0];

internalField   nonuniform List<scalar> 
111485
(
6.37801e-14
2.66159e-14
2.44065e-14
4.38705e-16
4.79748e-14
4.1636e-15
1.28186e-14
5.67118e-16
6.81026e-16
1.60322e-13
2.26184e-14
4.22538e-14
5.71205e-16
1.49001e-14
4.15965e-15
1.09866e-13
1.02219e-12
7.95248e-14
1.10529e-14
3.39563e-13
2.26186e-13
1.03755e-15
1.58981e-14
5.26841e-14
1.65352e-13
2.01109e-14
1.53921e-13
4.7266e-14
1.50635e-14
2.79424e-14
2.57767e-13
9.29508e-13
4.59527e-14
3.55076e-14
2.89082e-16
2.27838e-11
6.9588e-14
9.64584e-14
2.46501e-13
2.95598e-14
1.68729e-13
5.5365e-14
3.14556e-14
2.43773e-13
8.88517e-15
0.00097983
2.94676e-14
1.87593e-13
4.56413e-14
3.2243e-14
4.13711e-14
4.20017e-14
1.22008e-13
2.41882e-13
2.11849e-13
7.94755e-14
2.54958e-14
7.09176e-13
7.13178e-15
6.92117e-14
1.73348e-14
2.05493e-14
1.7745e-14
2.27702e-14
4.59794e-14
9.98333e-14
1.52689e-14
2.05724e-14
6.84121e-15
2.98681e-15
8.41077e-14
9.13675e-14
2.2148e-14
8.45254e-15
1.16181e-12
2.41169e-13
2.50161e-14
1.26099e-14
2.7643e-14
4.86034e-14
1.957e-13
1.6873e-13
2.81592e-14
2.46088e-12
9.39679e-15
4.13271e-14
4.23008e-13
9.73447e-14
2.34295e-14
1.79723e-13
1.50635e-14
4.1609e-15
1.16271e-14
7.7179e-13
1.52005e-13
1.51599e-14
3.79864e-15
1.29999e-13
2.68159e-13
8.52448e-13
3.3791e-15
4.49552e-15
1.13653e-14
5.86268e-14
1.37786e-14
1.08058e-15
6.16333e-16
6.33642e-13
3.66023e-15
2.40853e-13
8.32407e-13
7.29961e-15
2.03878e-14
8.5612e-14
1.19649e-13
4.32736e-13
3.75478e-14
1.59434e-11
2.66785e-14
5.90185e-14
9.47929e-14
6.05528e-14
7.32111e-15
1.35348e-12
8.83418e-14
3.82385e-13
3.88898e-15
4.96951e-13
9.56512e-14
2.69056e-13
7.45511e-14
1.51023e-13
4.30264e-13
1.67071e-13
1.22735e-14
2.47723e-14
1.32514e-15
1.58281e-13
3.67002e-14
3.12361e-15
3.83603e-14
2.69083e-15
9.50705e-15
3.41688e-14
1.12893e-13
1.60066e-13
1.91366e-14
1.8873e-13
1.45298e-12
2.30861e-15
8.35209e-14
3.41792e-14
4.62772e-14
8.19535e-13
1.33068e-13
2.73301e-15
8.2971e-15
1.16177e-15
7.17115e-14
1.95664e-08
9.57019e-15
4.75291e-15
2.17304e-14
2.51948e-13
1.41618e-14
9.80226e-14
8.84699e-14
2.39866e-12
3.5996e-14
4.78113e-13
5.46663e-14
1.63487e-13
1.47155e-13
1.52515e-14
6.32855e-14
3.56401e-14
8.67485e-15
3.76757e-15
4.66827e-15
3.53183e-14
1.56902e-14
1.99794e-14
2.83335e-14
9.18048e-15
2.67273e-14
5.03232e-12
1.48564e-13
9.18441e-13
3.39709e-14
2.29745e-15
1.65338e-13
8.00195e-15
2.56327e-15
7.19321e-16
1.41543e-13
2.59588e-14
1.85531e-14
6.23079e-14
2.51726e-12
1.03229e-14
1.07183e-14
6.03003e-14
1.45566e-13
1.99349e-13
4.01721e-13
3.16843e-13
1.37592e-14
1.6804e-13
1.82724e-13
1.45612e-14
3.26086e-14
2.18795e-12
9.74558e-14
2.32353e-14
3.16019e-13
2.98084e-14
1.40837e-13
1.48289e-13
1.24545e-13
1.00934e-12
5.65412e-15
0.00183243
1.37446e-13
7.48961e-14
7.00655e-15
2.47448e-14
8.64461e-14
1.65404e-13
1.69893e-13
2.885e-14
5.18139e-15
5.13858e-13
3.75633e-13
1.45162e-14
2.06404e-14
6.77556e-14
8.65217e-14
1.05519e-12
4.97827e-15
7.67203e-13
9.17155e-13
1.22375e-13
1.62153e-13
2.1739e-13
8.6824e-13
2.96021e-13
1.10561e-12
1.59262e-14
6.1978e-14
2.925e-14
6.24784e-15
1.02444e-13
1.50716e-13
6.05463e-14
2.21979e-13
8.65417e-14
6.11501e-14
4.27015e-15
2.00556e-14
3.16722e-14
1.12165e-13
5.31421e-15
1.09351e-12
0.00113464
3.99856e-13
2.87529e-15
9.50563e-15
2.40594e-12
1.56205e-13
2.83334e-14
2.06142e-14
1.77777e-15
5.30167e-14
6.30212e-16
1.28547e-14
4.08645e-13
2.37272e-14
6.41775e-14
1.04475e-15
2.9832e-13
9.04076e-13
1.79168e-12
5.36114e-14
1.56411e-13
1.00377e-14
2.37004e-14
2.36052e-14
7.04152e-15
7.10072e-14
5.55162e-13
5.8948e-15
3.09909e-15
8.19379e-14
4.40561e-12
5.97128e-15
7.07576e-14
4.83241e-15
3.1355e-14
4.24298e-15
5.36275e-14
4.50363e-14
1.33952e-14
6.19352e-13
1.99917e-13
8.3197e-14
2.02528e-13
9.1568e-15
1.60191e-13
9.0645e-13
7.00019e-14
4.45951e-15
8.82096e-15
1.56544e-13
6.13437e-15
4.47936e-14
9.11695e-13
8.87023e-14
7.48488e-14
3.81326e-14
1.6387e-13
2.16397e-13
2.34599e-15
8.10412e-16
1.43497e-14
7.38077e-14
1.78225e-13
6.89358e-15
1.47814e-12
3.00015e-14
2.63101e-14
2.20041e-13
6.51215e-14
5.26794e-14
8.88584e-15
8.67267e-14
9.76185e-15
5.18569e-14
4.7239e-13
8.26874e-14
1.17828e-12
7.30598e-14
3.0403e-14
3.04958e-13
8.52164e-13
4.75632e-14
1.77403e-13
5.82955e-13
2.90355e-14
4.71198e-15
7.52817e-14
8.67063e-15
1.7631e-13
4.65631e-14
1.57314e-14
1.03796e-13
1.43931e-12
1.10859e-13
9.82515e-15
5.18066e-15
1.40026e-13
6.92915e-16
5.76248e-14
1.195e-14
1.25307e-14
1.58542e-14
4.59e-14
3.43305e-14
1.04504e-14
1.39878e-14
3.56274e-06
1.82997e-12
2.55324e-15
6.92945e-13
2.39315e-13
2.87039e-14
5.59976e-15
2.04459e-15
9.35921e-14
1.07715e-14
2.54629e-14
1.98031e-14
3.21549e-14
3.81414e-13
6.96984e-14
3.77447e-13
2.38254e-14
1.02549e-12
1.01492e-13
3.56345e-12
7.67639e-14
1.03535e-15
5.14237e-14
2.00333e-12
2.29736e-14
1.13976e-13
1.70912e-13
3.10889e-14
1.39863e-15
1.34692e-13
1.21075e-14
3.35035e-14
5.45902e-14
8.39941e-14
7.47999e-15
4.14674e-14
7.05336e-14
2.27405e-14
5.36092e-13
8.17394e-15
3.01701e-13
7.32438e-15
8.12131e-14
7.17733e-14
6.39475e-15
2.59242e-13
6.57371e-15
6.9659e-14
1.38255e-13
7.60527e-16
1.52255e-13
1.25005e-13
2.21555e-15
5.21405e-14
8.86383e-14
4.4542e-15
4.3429e-14
3.11092e-14
5.92295e-14
1.1085e-14
9.61319e-14
2.49028e-14
8.89299e-14
0.00110954
2.04796e-14
2.99512e-13
4.59093e-14
3.30066e-14
9.10379e-14
4.39269e-13
3.2883e-16
7.0797e-14
2.46069e-14
2.60916e-13
2.21437e-13
7.01587e-14
2.33331e-14
5.78203e-13
2.38208e-15
1.78911e-13
1.23351e-12
1.13765e-13
3.19908e-14
5.2749e-13
0.00107427
7.41219e-14
8.1039e-14
3.76309e-13
1.70053e-13
1.25188e-13
5.47272e-14
1.68156e-13
2.26278e-13
1.15061e-14
2.92703e-14
1.26638e-14
2.48518e-14
7.74222e-15
4.60874e-14
3.19202e-14
6.97141e-14
1.30053e-14
7.09483e-15
8.07183e-15
1.53139e-13
9.60564e-15
4.91293e-12
5.36432e-14
5.16033e-13
1.13591e-13
7.03184e-14
1.33196e-13
5.29493e-15
4.35754e-13
1.08842e-12
1.90884e-13
3.08259e-14
5.33456e-15
3.44639e-14
3.222e-13
4.01969e-13
2.6295e-15
3.95024e-13
2.33563e-13
4.88095e-14
3.28922e-15
1.27709e-14
1.60208e-13
2.31935e-13
4.82188e-13
7.36492e-14
1.32962e-14
1.87296e-14
1.95646e-13
1.0112e-13
7.34568e-14
1.37612e-14
3.33091e-14
9.64327e-15
4.71762e-13
5.63887e-14
5.3436e-14
5.28364e-13
8.91394e-14
5.26412e-14
8.98056e-14
6.17255e-15
4.78164e-13
2.04504e-13
3.18304e-14
7.88525e-14
1.9846e-13
4.91861e-14
1.00351e-14
1.20752e-12
5.82163e-14
8.10057e-16
4.36601e-14
1.43353e-14
1.09424e-13
1.59457e-14
2.39761e-14
9.32707e-14
2.52747e-14
1.83959e-13
2.85792e-14
2.04193e-14
1.1408e-15
1.78064e-15
1.50091e-13
5.67533e-14
7.58331e-13
2.66495e-14
9.17571e-14
5.41226e-14
1.55074e-14
1.99018e-14
1.6643e-14
9.92394e-13
2.42399e-14
1.34371e-14
4.06064e-14
7.11492e-14
1.58525e-13
4.98656e-13
2.57049e-13
1.41623e-14
2.47445e-15
1.16103e-13
4.26307e-14
1.36549e-13
1.12975e-13
9.93054e-15
7.79927e-14
2.37281e-13
1.20537e-12
5.70084e-14
5.64034e-14
1.3314e-14
6.38991e-14
6.31321e-15
8.89587e-14
9.8198e-14
4.13718e-14
1.09906e-13
5.07827e-14
8.98384e-16
2.52712e-13
6.3446e-13
1.46717e-13
3.12696e-13
5.49342e-14
3.60457e-13
2.5281e-14
1.68253e-14
1.22183e-13
1.27457e-13
3.44479e-14
2.83498e-16
4.36991e-13
3.30193e-13
2.45984e-14
3.42625e-14
7.26455e-15
7.20712e-14
6.28844e-15
3.43867e-12
1.03629e-14
3.743e-13
1.40662e-13
1.5312e-13
7.69624e-15
1.14161e-13
6.81441e-14
1.20875e-12
1.24147e-14
2.87485e-14
9.61554e-15
5.15508e-15
1.53368e-13
1.69785e-14
1.30481e-13
1.47678e-13
1.25177e-14
2.3199e-13
8.75601e-15
3.09286e-14
6.73832e-14
7.16938e-14
2.29299e-14
1.98813e-14
1.09945e-13
7.6088e-14
2.41996e-12
1.77072e-14
1.03632e-14
1.25116e-13
1.41405e-13
2.0068e-13
1.25951e-14
4.68715e-12
4.56088e-13
1.22033e-13
1.29031e-14
1.86583e-13
9.96601e-14
3.12646e-14
8.18788e-15
1.82526e-13
1.0964e-14
6.74276e-14
2.02333e-13
8.2563e-13
3.70991e-14
2.67381e-14
2.11045e-13
3.28921e-14
1.11124e-13
7.96793e-14
8.28874e-13
1.6909e-16
4.0741e-13
3.6533e-13
8.59001e-15
3.0874e-13
9.33087e-15
3.47329e-13
1.47493e-14
6.88561e-13
3.0076e-15
2.78119e-15
9.87742e-15
3.50455e-15
2.40552e-13
2.46238e-14
6.13811e-15
7.06996e-13
2.67121e-13
2.1625e-13
2.94512e-14
1.01774e-13
0.00415121
1.84388e-14
1.0663e-13
5.14981e-14
2.21442e-12
1.03251e-14
1.30215e-13
1.19976e-13
9.485e-13
9.38066e-14
6.6263e-14
5.16775e-13
9.97283e-15
1.95417e-14
9.54738e-14
5.24998e-13
7.01368e-14
8.64897e-13
6.85767e-14
2.27298e-14
2.72188e-14
3.5846e-14
4.32702e-14
2.3015e-14
3.01766e-14
7.75136e-15
1.55033e-14
2.39494e-13
2.71222e-13
4.5267e-13
1.02996e-13
1.12837e-13
1.74363e-13
1.353e-14
9.01197e-14
8.23227e-13
2.28809e-13
2.2893e-13
2.68203e-14
8.56133e-15
4.74827e-15
2.13177e-12
1.36449e-13
1.23546e-14
2.82749e-14
3.72089e-14
2.72559e-15
6.86918e-14
7.70022e-15
1.72071e-15
6.59691e-14
1.04938e-13
2.39413e-12
3.98622e-14
6.38148e-14
1.33155e-14
2.28276e-13
2.75158e-13
9.84729e-14
7.51491e-15
1.67218e-13
5.67802e-14
2.40944e-13
7.0695e-13
9.18712e-14
1.44076e-13
4.98473e-14
9.5442e-15
4.226e-14
9.23582e-15
4.18434e-15
3.84759e-14
4.98577e-13
2.81128e-14
2.76635e-13
6.69565e-14
1.2534e-13
1.88926e-12
3.23381e-14
2.73541e-13
1.6957e-14
1.02217e-13
5.05666e-14
1.3518e-13
3.89493e-14
8.47812e-14
2.06098e-14
5.64262e-13
1.52665e-14
2.87958e-13
7.69723e-15
8.53782e-14
4.55005e-14
2.11209e-14
9.93569e-14
1.25402e-14
8.20108e-14
1.32845e-14
0.00132401
7.51101e-13
3.58864e-14
1.49196e-12
5.55837e-15
3.93906e-14
2.68565e-13
9.76286e-13
2.6545e-14
2.12715e-14
3.34682e-14
2.72549e-14
1.02067e-12
7.38647e-15
6.71627e-15
2.24303e-13
5.07655e-13
1.77534e-13
7.13975e-15
2.2859e-15
2.02909e-12
7.35254e-14
5.16597e-15
2.07638e-14
2.1802e-14
4.52327e-12
7.48616e-14
3.7377e-14
2.29177e-13
1.49087e-13
2.67557e-14
1.20892e-14
5.85645e-13
2.81547e-14
2.52647e-13
1.05764e-13
5.44565e-13
1.92139e-15
2.42117e-13
3.55028e-14
7.93497e-13
8.03568e-14
6.90168e-13
3.49715e-14
1.41538e-12
1.31426e-13
3.82459e-14
3.03204e-15
1.12685e-12
2.42891e-14
8.47771e-15
3.89956e-13
6.72098e-13
2.68983e-14
4.62617e-13
7.29248e-13
3.04743e-12
3.745e-14
1.04955e-13
1.06046e-12
5.03199e-13
7.53151e-13
1.1422e-14
7.88404e-14
2.03295e-12
3.38131e-14
2.20967e-13
1.19705e-13
5.38366e-13
9.17169e-14
3.56351e-15
1.2027e-14
2.95615e-13
1.12141e-13
4.2851e-13
7.71242e-14
3.38044e-14
2.5289e-14
6.36364e-14
8.57733e-15
9.06439e-14
8.61865e-14
1.95269e-14
5.0387e-13
2.18744e-13
2.55851e-13
9.3392e-15
3.66519e-14
4.34517e-12
9.66359e-12
2.92919e-13
8.39548e-14
1.10002e-14
3.07657e-14
4.10878e-13
2.00632e-13
1.97173e-15
7.391e-14
1.23391e-14
2.22992e-13
1.98224e-13
4.90139e-14
3.97318e-13
4.43803e-13
4.6043e-14
3.0662e-14
1.09092e-12
1.9582e-12
3.08773e-13
4.55825e-14
1.19702e-13
9.05915e-13
6.69088e-15
2.47721e-15
1.18086e-13
1.45758e-14
2.59193e-14
2.31436e-15
4.64573e-15
1.34294e-13
7.64631e-14
1.63168e-15
7.91473e-14
1.71411e-14
8.91211e-14
4.89816e-15
2.77612e-13
1.7411e-14
8.0174e-14
3.33787e-16
3.36143e-14
8.38857e-16
8.33955e-14
3.37084e-13
1.51467e-13
8.07771e-15
6.43421e-14
9.27398e-16
1.23791e-13
1.9628e-13
5.7847e-13
1.57601e-13
3.64137e-15
3.97155e-14
3.73131e-14
1.88996e-14
2.42022e-13
3.88532e-14
7.26267e-13
8.08826e-14
6.67285e-16
5.0167e-13
6.04109e-15
1.77624e-12
2.91513e-15
7.49948e-14
5.81058e-15
4.42794e-16
1.61178e-12
7.08843e-14
1.19092e-14
1.83154e-13
2.18067e-13
3.16445e-14
2.91048e-14
1.7366e-13
2.2777e-13
1.07705e-13
2.03151e-13
3.28957e-14
1.80413e-14
1.80611e-13
8.02419e-14
2.00431e-14
1.80421e-12
1.82784e-14
3.79795e-13
4.41626e-15
3.11009e-13
9.66136e-15
1.64692e-13
4.71541e-15
6.79412e-16
1.47133e-13
1.18893e-14
1.39179e-14
3.07981e-14
2.30406e-14
1.28387e-13
2.80342e-14
5.35174e-14
9.83395e-15
4.07686e-14
6.72122e-14
5.78919e-14
2.16751e-15
1.64727e-15
9.32724e-14
3.74114e-14
1.42322e-13
8.51841e-15
4.02405e-14
1.10155e-13
1.34251e-12
5.5993e-13
1.15908e-10
1.62558e-13
9.4344e-15
7.88287e-15
2.78173e-14
2.5185e-13
1.43307e-14
4.29716e-13
2.5236e-12
3.30688e-14
2.23735e-13
2.40817e-13
4.24421e-14
9.04483e-14
3.4089e-14
1.66478e-13
8.9689e-14
8.15157e-14
1.32323e-13
2.6553e-15
2.29664e-13
6.79993e-14
1.99827e-14
3.63042e-15
9.12453e-14
1.16907e-14
1.34286e-13
4.45833e-13
8.51448e-14
7.87789e-14
2.60163e-14
1.98594e-13
4.12566e-15
1.66708e-14
2.50099e-14
8.24048e-15
5.69367e-15
2.75437e-14
7.10502e-14
6.31396e-13
4.84237e-14
1.20368e-15
5.31061e-14
1.42048e-14
2.07955e-14
2.24691e-14
8.17233e-14
1.78528e-13
1.83116e-13
7.25709e-13
2.55325e-12
2.6107e-14
5.97162e-14
2.31979e-15
5.49479e-14
3.04425e-13
8.07069e-14
1.28163e-13
4.52332e-15
1.173e-14
1.75163e-13
1.82888e-13
3.34365e-14
3.60728e-13
1.23119e-14
5.36415e-14
2.9776e-15
2.28333e-14
3.73335e-14
5.01655e-14
1.91009e-14
1.74561e-12
9.61401e-15
3.07741e-15
5.36682e-14
1.83739e-14
2.18824e-14
6.33677e-14
6.66352e-13
2.77503e-14
5.87636e-14
9.88386e-14
1.29155e-14
3.35118e-14
4.78081e-14
1.17603e-14
4.49369e-15
2.47487e-14
1.08136e-12
1.5433e-15
2.23511e-13
2.51553e-14
4.45614e-13
1.15888e-13
9.58239e-14
9.74307e-15
2.19162e-12
6.41566e-13
1.10433e-13
1.8226e-15
1.29394e-11
3.95431e-14
2.06641e-14
8.24553e-13
1.70761e-13
1.41318e-15
1.35663e-13
1.04673e-13
1.92251e-13
1.06217e-13
1.89367e-13
2.207e-14
4.63343e-13
1.38624e-13
3.93369e-13
2.79852e-13
1.63198e-14
8.00572e-14
1.34644e-14
1.73939e-15
1.66871e-14
3.53761e-14
1.25835e-14
4.76737e-14
9.39168e-14
1.5686e-14
8.05184e-14
2.36601e-14
6.45428e-14
2.78667e-14
3.11157e-14
3.14525e-14
4.05847e-13
5.60082e-14
2.07225e-14
1.0895e-13
1.89848e-13
3.62581e-14
3.19416e-13
5.22936e-14
5.98205e-14
5.23063e-14
4.86115e-15
8.13853e-15
3.31994e-13
4.69332e-14
3.82558e-15
2.74304e-14
2.41104e-14
7.70848e-14
4.63295e-14
2.96604e-13
2.96622e-14
5.31051e-15
9.7628e-16
1.35637e-14
4.24007e-15
5.53278e-14
1.46171e-13
6.08951e-14
4.84422e-13
4.68658e-14
4.79068e-15
5.21231e-16
4.19252e-15
6.7454e-14
2.45655e-15
6.49251e-14
2.96137e-14
2.83339e-14
1.07395e-14
7.75392e-15
1.6319e-13
8.33331e-14
1.17423e-13
6.48484e-14
1.58518e-14
3.10982e-13
2.90314e-13
2.15403e-12
3.73841e-14
3.48745e-13
7.80057e-14
2.86387e-13
4.97967e-13
8.80637e-14
8.46942e-14
1.87749e-14
1.0444e-14
1.29699e-13
9.7718e-15
4.34794e-13
1.17006e-13
4.58397e-15
6.5139e-14
7.01133e-15
8.14775e-15
4.1576e-13
4.62938e-15
6.18155e-14
1.56646e-13
2.59823e-15
1.01895e-13
1.72775e-14
1.2992e-14
1.06969e-13
1.07669e-14
6.58857e-15
3.68139e-15
1.61392e-14
5.53196e-14
6.19285e-15
3.6768e-14
7.13031e-15
8.24572e-14
6.09616e-16
6.37562e-13
2.07922e-14
4.16561e-14
2.20517e-15
4.54306e-14
1.40423e-14
1.12882e-13
2.02207e-13
8.70892e-14
1.7054e-14
7.55824e-15
2.12454e-14
2.68617e-15
4.51629e-14
9.55527e-14
1.23609e-13
1.10147e-13
3.18012e-13
6.10329e-13
8.51806e-13
3.51318e-13
1.66365e-14
3.01352e-16
1.13799e-14
3.08869e-15
1.72653e-13
1.76405e-14
4.35601e-15
2.619e-13
8.6516e-14
1.33254e-14
3.48601e-15
2.10413e-13
1.61163e-13
3.18129e-14
2.3734e-15
2.19782e-14
2.09411e-13
6.34902e-16
8.99277e-15
7.29966e-15
8.23292e-15
1.36473e-14
3.71861e-15
1.60739e-14
1.25184e-14
6.27502e-16
2.54131e-14
6.1819e-14
2.4951e-14
1.61586e-14
4.82143e-14
5.10488e-14
8.89327e-14
3.45386e-14
2.47395e-15
1.51941e-14
7.8472e-15
2.82585e-15
6.8746e-14
1.96081e-14
3.60795e-14
3.27467e-14
1.62681e-13
4.58303e-13
4.10928e-14
6.74925e-14
2.03242e-14
2.40119e-14
3.08493e-14
3.14611e-15
7.09174e-15
1.20542e-14
1.16291e-13
1.85303e-14
2.65377e-14
1.27802e-11
3.15968e-14
1.18146e-13
1.48628e-13
1.05786e-15
3.17022e-14
4.45995e-14
7.10076e-15
8.9677e-15
2.62141e-15
6.46884e-14
4.19487e-14
1.0821e-14
1.09445e-14
2.30106e-14
1.55399e-15
4.47493e-14
1.19652e-14
3.59742e-14
2.50154e-14
8.31195e-14
1.0371e-12
1.59628e-14
8.88213e-14
2.62663e-14
1.08952e-12
1.00071e-14
6.14855e-12
2.8342e-14
1.20863e-13
6.48481e-15
1.32251e-14
2.55811e-14
7.34144e-14
6.5876e-15
2.13556e-15
1.0697e-14
9.92323e-15
9.85179e-14
3.50361e-13
2.17539e-14
1.26517e-13
9.39981e-14
1.48203e-15
9.02619e-15
4.32273e-13
1.93674e-14
5.14122e-15
4.33811e-14
7.64369e-15
1.74168e-14
1.1356e-14
1.32638e-14
3.38154e-14
1.42825e-14
6.643e-13
1.21562e-13
1.52711e-14
3.71182e-13
6.39354e-15
6.40598e-12
6.54943e-15
3.54154e-14
3.52089e-14
2.14562e-14
1.63461e-13
9.71005e-14
3.54302e-13
3.75416e-15
2.21112e-13
4.25176e-13
1.28389e-14
3.16184e-15
7.13673e-15
1.44538e-13
1.17563e-14
1.62825e-15
8.23109e-14
2.07791e-14
8.00334e-14
1.8944e-13
2.65164e-13
8.42666e-15
6.76291e-15
7.5463e-15
3.32092e-14
1.25621e-14
5.23241e-15
8.98263e-16
1.9064e-15
1.17589e-13
5.78085e-12
1.59326e-14
2.50093e-13
9.44875e-15
1.8311e-15
3.04172e-14
2.61262e-13
7.72482e-14
2.02078e-12
9.78972e-15
3.91949e-14
5.86716e-14
2.03944e-15
1.47967e-14
3.13983e-14
6.76495e-14
1.27677e-13
1.12753e-14
1.72064e-13
5.33213e-13
1.49133e-14
3.30903e-14
6.01523e-12
2.07789e-13
3.42374e-14
4.60381e-15
1.04166e-14
3.96772e-14
1.20507e-12
6.48372e-14
9.8167e-14
3.20173e-15
1.15564e-13
3.21155e-13
4.96868e-15
3.02219e-14
7.39975e-15
2.16178e-13
1.63737e-13
1.21592e-13
1.6371e-13
1.69769e-15
2.36632e-13
1.69261e-13
1.12061e-15
1.43871e-14
4.68715e-13
1.41113e-13
4.17763e-13
5.58157e-14
4.12595e-13
5.51847e-14
2.6488e-13
4.64229e-14
1.31338e-13
5.17247e-14
1.08106e-14
3.89365e-13
1.72639e-13
2.794e-14
6.28261e-15
4.39734e-13
1.59343e-13
1.46854e-13
6.04528e-15
3.58021e-13
1.49758e-13
1.65686e-14
2.64082e-13
4.16443e-15
2.42831e-13
1.16763e-13
9.62875e-14
3.58286e-15
9.73395e-14
1.56895e-14
8.5618e-14
4.42159e-14
1.22964e-13
6.89496e-14
3.22875e-14
1.64027e-13
1.99722e-14
3.79189e-14
3.38015e-16
1.9767e-14
1.23469e-13
1.15196e-14
6.07461e-14
0.000523472
2.22723e-12
2.18247e-13
2.30292e-13
4.02029e-16
4.43588e-15
1.14111e-13
9.19924e-14
4.75167e-14
2.15214e-14
2.95396e-14
4.72198e-14
1.9231e-13
6.75042e-14
4.48559e-15
4.28625e-13
1.80535e-13
1.48946e-15
8.50084e-14
1.62677e-13
3.476e-14
1.48649e-13
3.82249e-13
7.53937e-15
6.82276e-12
2.47075e-13
9.94274e-15
3.76162e-14
2.20725e-13
1.08959e-13
8.71471e-13
1.29628e-14
3.58575e-13
1.77318e-13
2.24904e-14
1.05687e-14
5.02307e-14
1.06334e-13
9.91385e-14
1.46766e-13
1.62136e-14
5.23451e-14
2.57154e-14
9.49929e-14
7.39237e-15
4.19099e-12
5.96125e-14
9.47764e-14
1.34803e-14
3.93103e-12
2.04243e-14
2.9899e-13
1.02157e-14
1.07358e-12
5.30684e-13
8.5199e-14
4.14301e-13
4.33156e-14
7.52359e-14
2.33841e-13
6.24265e-13
3.15552e-12
3.40733e-13
2.06939e-13
1.36248e-14
6.03453e-15
1.5156e-13
1.01882e-14
7.82168e-15
5.00309e-13
2.02801e-12
2.09548e-14
8.39929e-13
1.64077e-12
1.76241e-15
8.05778e-14
4.49553e-14
1.17394e-12
1.16776e-14
8.80474e-13
1.66612e-14
1.16509e-13
2.51261e-13
1.79692e-13
1.74528e-13
1.37388e-15
1.054e-14
8.75842e-14
1.16883e-12
6.02924e-13
1.89952e-13
5.00526e-14
6.56015e-13
5.80495e-13
8.67826e-14
1.553e-12
2.92407e-14
6.08179e-13
5.7265e-12
9.82655e-15
6.61021e-14
3.65059e-13
2.17649e-14
9.41849e-14
1.12096e-12
4.5149e-14
2.16454e-15
5.53324e-15
6.70069e-14
7.6155e-14
4.68129e-13
2.65218e-13
1.71794e-13
1.55008e-14
6.74318e-12
6.74892e-15
3.96786e-14
4.22363e-14
1.49234e-12
2.80996e-14
5.24088e-14
8.8756e-15
2.14969e-13
4.50472e-14
6.1014e-13
6.89324e-14
4.49645e-13
9.05258e-15
4.41765e-14
0.000827352
2.35224e-15
1.26662e-13
1.30616e-13
4.15559e-16
4.44608e-13
1.62643e-13
1.22313e-13
5.17516e-14
1.83346e-13
6.27893e-14
4.67205e-13
3.04268e-15
4.00654e-14
1.66588e-14
5.47153e-16
6.41465e-15
4.20015e-15
1.40863e-13
8.23683e-13
1.49988e-14
5.57795e-15
1.4261e-13
1.03679e-14
1.62509e-14
2.10567e-14
1.68589e-15
5.65045e-14
8.77535e-15
7.71845e-15
3.48028e-13
1.32817e-13
3.41756e-14
6.40221e-13
7.2131e-13
1.56084e-14
3.23973e-14
1.26774e-15
3.52328e-14
1.82825e-13
1.5362e-13
4.91075e-15
2.48319e-14
2.12706e-13
3.03952e-14
1.94405e-13
1.7074e-13
5.62736e-14
6.57035e-15
2.10914e-14
1.8883e-14
1.03971e-14
5.43383e-14
1.10097e-14
5.74058e-15
1.59926e-13
3.0412e-15
7.38448e-14
1.22088e-13
5.27025e-14
1.4356e-13
5.70065e-14
2.27975e-13
3.47717e-14
1.18703e-13
4.42497e-15
2.04588e-13
1.38215e-13
7.55547e-14
3.43794e-14
9.00759e-14
2.57591e-13
2.59321e-15
5.01111e-14
8.29086e-14
8.32591e-14
9.30584e-14
1.88776e-14
1.25124e-14
7.43087e-14
1.39135e-13
1.41903e-14
7.78421e-14
2.56933e-12
1.11484e-14
1.12615e-14
1.21879e-14
2.99904e-14
2.12103e-15
8.29855e-15
7.92039e-15
6.85445e-15
5.69808e-14
6.98093e-14
1.12183e-14
5.86536e-13
4.94162e-14
1.65175e-14
6.34372e-14
3.4548e-13
2.00194e-15
4.91275e-13
1.80418e-14
3.73695e-15
2.33911e-14
4.48634e-16
2.15372e-13
3.4021e-14
2.25799e-13
1.13619e-13
1.14391e-13
3.20472e-14
9.71243e-15
2.64446e-13
7.02636e-14
1.68781e-14
7.96974e-14
4.02518e-14
1.20366e-13
0.0017928
1.76501e-15
8.96178e-15
2.76746e-14
1.37704e-13
1.85641e-12
1.8531e-13
3.33791e-14
7.88641e-15
4.11496e-14
9.01926e-15
1.50164e-14
2.33656e-15
1.77328e-14
8.96918e-15
1.56091e-14
5.79453e-14
5.38447e-14
1.47362e-14
4.34463e-14
1.33531e-14
4.51683e-15
1.72165e-14
2.40602e-13
2.12181e-14
6.88087e-14
4.39184e-14
7.30486e-14
1.71118e-13
4.27269e-14
4.47937e-14
3.54675e-13
4.06482e-15
4.95584e-14
1.9791e-14
2.89089e-14
3.29446e-13
9.67152e-14
5.38949e-13
5.17661e-13
6.62933e-14
1.0974e-13
1.02869e-13
1.34668e-14
1.37689e-13
5.94482e-15
2.88626e-14
8.11548e-13
9.02912e-13
9.46681e-15
2.48526e-14
7.14749e-14
7.6245e-14
1.07716e-13
1.60892e-14
3.94811e-14
1.26299e-14
2.41693e-13
2.00877e-15
7.75305e-14
5.37562e-14
9.25898e-15
1.42738e-14
3.19015e-14
5.38583e-15
3.12788e-14
4.55207e-12
1.66825e-13
1.47726e-14
1.32818e-13
3.29211e-13
7.34515e-13
7.25814e-14
1.31134e-12
1.50745e-14
1.13079e-13
6.93789e-15
2.74943e-13
1.816e-13
6.19566e-14
3.84379e-13
7.96645e-14
5.15799e-14
6.86783e-16
2.76871e-16
1.92116e-14
1.58213e-13
3.64177e-14
7.50266e-14
3.37891e-13
4.08062e-14
1.3433e-13
3.42499e-14
3.70191e-14
8.8964e-13
6.65882e-15
8.19219e-14
8.24082e-14
1.40503e-14
3.76364e-14
2.16863e-14
1.95511e-14
8.41092e-14
1.20394e-14
5.29513e-14
1.61e-14
2.36639e-13
5.48482e-14
1.34519e-12
2.56591e-16
4.69366e-14
4.24989e-14
4.14564e-14
4.91323e-15
5.38801e-14
2.5091e-07
2.24349e-13
3.17742e-14
1.58838e-13
1.31094e-13
1.69217e-13
2.69423e-15
5.00945e-13
8.35806e-13
1.42207e-14
4.18653e-14
6.98844e-16
7.91072e-14
2.08699e-15
3.52399e-14
3.82641e-14
2.52753e-14
1.84467e-14
9.69095e-14
5.25558e-14
2.66862e-14
3.91302e-14
7.77541e-14
1.35431e-13
1.21824e-14
3.6511e-12
5.5721e-05
1.05464e-13
1.98249e-14
3.05315e-13
3.72576e-15
6.34431e-15
6.76668e-14
7.60606e-15
1.02904e-13
5.61628e-13
3.9517e-14
7.03488e-14
5.60372e-13
3.88477e-15
2.76161e-14
1.02144e-13
1.12011e-14
2.51944e-13
3.50269e-13
2.31413e-15
3.0177e-14
1.54993e-15
2.69607e-13
3.44472e-13
6.21749e-14
1.15612e-14
1.0763e-13
7.42466e-15
4.87437e-14
3.24529e-14
7.85701e-15
7.41187e-14
1.25189e-14
3.30049e-14
4.54248e-14
6.49855e-14
5.24762e-14
3.00322e-13
1.26506e-14
6.42996e-15
6.45374e-14
1.09892e-13
1.44172e-15
6.40187e-14
9.50286e-15
2.64833e-15
3.46565e-14
2.35671e-14
8.33189e-14
5.47435e-15
5.70295e-15
8.71139e-14
1.3121e-13
7.83066e-14
3.13086e-13
1.87189e-13
4.3863e-14
2.80781e-12
1.66443e-14
8.92497e-16
1.22171e-14
1.11015e-13
4.71533e-12
5.29694e-14
6.6604e-16
1.39169e-14
9.47447e-15
8.73168e-15
4.3218e-13
1.04322e-12
3.05926e-14
6.04143e-15
6.79507e-12
1.70853e-13
8.55529e-14
3.24879e-14
1.44778e-13
5.81158e-14
1.6637e-13
3.3336e-14
3.30908e-15
4.61862e-14
1.58527e-15
4.2896e-14
5.53173e-14
2.92448e-14
4.2217e-14
3.64207e-14
4.91628e-15
9.6724e-13
1.38298e-14
1.94425e-14
1.01078e-14
3.87616e-14
3.33619e-14
4.35963e-14
1.38908e-13
9.79956e-16
1.12942e-13
4.6524e-14
1.48804e-11
7.02258e-15
8.2719e-13
2.77965e-13
1.32501e-13
3.62056e-13
7.44116e-14
4.53676e-14
3.1694e-14
3.64804e-15
2.47954e-14
3.14221e-14
1.25242e-13
7.29555e-14
8.97012e-14
1.76391e-13
1.7335e-12
5.63163e-14
5.15395e-14
2.90531e-14
9.76987e-13
1.87462e-15
1.59526e-13
5.31037e-15
2.33779e-15
2.41583e-14
1.93465e-15
5.27793e-14
1.80309e-14
2.74297e-14
4.2315e-13
4.68149e-16
1.06912e-14
1.72103e-13
4.97798e-14
1.17089e-14
4.32774e-15
1.5567e-13
2.90031e-14
1.69737e-14
3.11382e-13
3.43442e-14
4.67425e-14
0.00122577
1.91542e-15
8.39771e-14
8.86119e-15
1.90204e-10
5.64032e-12
7.41971e-14
4.26276e-12
5.62312e-16
7.86773e-14
1.24386e-12
6.40316e-14
8.2712e-15
3.25127e-13
2.66345e-13
8.76587e-14
7.29304e-15
7.61113e-14
5.95467e-13
2.60728e-13
1.11178e-13
1.08252e-13
5.93014e-15
3.24911e-13
8.85407e-15
5.22448e-14
1.12907e-13
1.41607e-13
9.16613e-14
8.5193e-13
2.97139e-14
3.08935e-14
1.67372e-13
1.73221e-14
1.0237e-13
7.46336e-14
3.57132e-13
3.37327e-14
9.316e-15
1.18751e-14
3.40659e-13
1.07645e-13
3.90747e-14
5.97678e-14
1.97858e-12
6.56767e-14
4.55026e-14
1.17725e-13
1.01912e-13
1.33437e-14
6.5883e-14
1.75562e-13
3.05491e-15
8.20023e-14
9.92176e-14
3.63931e-14
2.81237e-13
1.83571e-14
2.43243e-14
6.06321e-14
7.60815e-07
5.38024e-14
7.08597e-13
1.17127e-12
0.000434527
1.30324e-13
8.89682e-14
1.56977e-13
1.39047e-13
3.90933e-14
3.52513e-14
1.06583e-13
1.75725e-14
1.4584e-14
2.14871e-06
5.06395e-14
6.29674e-14
2.9105e-14
1.07518e-13
1.16908e-11
6.31129e-14
5.1702e-14
3.90469e-13
7.35894e-15
3.83434e-15
1.92497e-14
1.12163e-13
1.70123e-14
1.51489e-13
2.56336e-12
1.6752e-13
1.17545e-13
2.23673e-14
5.40879e-14
2.46168e-14
5.4824e-15
1.33427e-14
5.49052e-14
3.67333e-15
1.49478e-13
7.17408e-15
2.89083e-14
6.88275e-15
9.35193e-15
6.63887e-14
6.02248e-14
5.60201e-15
5.72651e-14
2.34419e-14
0.000106091
1.36376e-15
7.19935e-14
3.73827e-14
2.0919e-14
3.69816e-13
8.0574e-15
8.25502e-15
2.29831e-13
4.74346e-14
2.15565e-13
3.27606e-13
2.94703e-14
2.02822e-14
5.5098e-14
7.64173e-15
2.8663e-14
2.76934e-14
3.08964e-13
2.72656e-14
2.63232e-15
4.28104e-15
4.89062e-15
1.99141e-14
2.73816e-13
8.27848e-14
1.11327e-13
8.716e-14
1.47243e-13
3.711e-13
9.30402e-14
2.27651e-14
1.57374e-13
0.00145952
1.05544e-12
1.85373e-14
1.20174e-13
1.13546e-13
4.15864e-12
2.45725e-14
4.26229e-14
4.09997e-13
5.02583e-13
0.000226483
3.40956e-14
2.55064e-15
4.59501e-15
2.16357e-14
4.7504e-13
5.08037e-13
2.41684e-14
4.94249e-15
2.53466e-14
2.52656e-13
3.6625e-15
6.72413e-15
1.38344e-13
4.15333e-14
2.50863e-14
1.73396e-14
2.05596e-14
3.14005e-14
2.31538e-13
3.66757e-13
8.95801e-14
5.77824e-14
1.52667e-14
0.00214543
1.43082e-13
4.88101e-12
9.93322e-14
2.32898e-14
1.26311e-14
4.61874e-13
2.11694e-15
1.98563e-13
1.18623e-14
2.96758e-14
2.54772e-15
7.96856e-14
1.10126e-14
1.4649e-13
7.0583e-14
1.67181e-13
6.98831e-14
7.05528e-13
2.1845e-15
1.7209e-13
2.52633e-13
8.15663e-14
2.75739e-16
3.50419e-15
1.76523e-13
4.59296e-13
3.06553e-14
2.3838e-12
1.19666e-13
9.92087e-14
3.52047e-14
1.5445e-13
1.38297e-13
3.99705e-14
2.54517e-13
1.40089e-14
2.97838e-13
8.85574e-14
9.47797e-14
3.6566e-14
4.03924e-13
9.30459e-13
7.99717e-15
1.37967e-13
1.22118e-13
1.32317e-13
5.9781e-14
6.49602e-14
1.02372e-14
2.42378e-14
1.1582e-14
4.76214e-14
6.14223e-14
8.61016e-15
1.47821e-14
4.9689e-16
5.36205e-14
1.05652e-14
2.85e-14
9.81008e-14
3.77263e-13
6.20021e-14
5.18818e-15
2.04949e-13
1.32742e-13
8.44988e-14
1.63259e-12
5.9021e-15
9.42885e-14
1.02104e-14
2.88648e-13
1.63046e-13
1.59148e-13
1.43925e-13
6.21933e-14
2.22216e-14
1.11984e-13
2.18697e-13
3.06877e-14
2.70809e-14
1.12012e-13
1.57029e-13
1.74137e-14
7.57897e-15
1.52146e-12
2.85097e-13
9.1404e-14
2.46996e-13
1.75654e-13
2.75865e-13
4.78813e-14
4.99519e-14
1.16765e-12
9.47219e-14
1.58609e-14
8.43502e-14
1.1529e-13
7.93603e-14
7.93976e-15
1.0078e-14
7.03069e-08
1.24951e-13
2.21228e-14
9.99349e-14
4.44904e-13
4.24264e-14
1.21627e-13
2.13673e-14
5.22366e-15
8.85882e-14
1.11724e-14
6.34877e-13
2.70612e-13
2.871e-14
1.87243e-13
2.07841e-13
1.02899e-12
3.87918e-13
1.02328e-13
2.04177e-13
6.92511e-14
1.51706e-14
9.1413e-15
1.88866e-14
2.20732e-14
3.75253e-14
8.25873e-14
1.02243e-13
2.04506e-13
1.18616e-11
0.000559825
3.18551e-13
8.89969e-14
2.68589e-13
7.65494e-14
5.76856e-14
7.6286e-13
6.30023e-14
6.72512e-14
6.70902e-14
4.68535e-13
7.30413e-15
2.55705e-14
5.06936e-14
2.52577e-13
1.9016e-14
7.71936e-14
1.24987e-14
5.47857e-15
7.33372e-15
2.40984e-13
1.84798e-13
1.43191e-13
5.7273e-15
3.05677e-13
6.35093e-15
1.32174e-15
4.8054e-13
1.5164e-14
4.02309e-14
3.63501e-14
1.3516e-13
2.57663e-13
3.54382e-14
1.80805e-13
1.01828e-15
9.17383e-14
1.75758e-13
6.51901e-14
7.70409e-14
8.77292e-15
1.90395e-12
4.63592e-14
3.66694e-13
2.76423e-14
1.93681e-13
6.02514e-14
1.71418e-15
1.06767e-13
4.8196e-14
3.30204e-15
7.9048e-14
2.43138e-14
4.74919e-13
2.39095e-14
2.81409e-14
3.00633e-14
1.69605e-13
0.000230672
0.000831465
1.75219e-13
2.32898e-15
3.99533e-14
2.85108e-14
1.42605e-13
2.06775e-15
1.21905e-14
1.4586e-14
1.52913e-15
6.16215e-13
1.93109e-14
5.90323e-15
3.32487e-15
8.98734e-14
5.53836e-15
2.08755e-13
4.4763e-15
2.74647e-15
1.74275e-14
8.4163e-14
6.44793e-14
3.75912e-05
8.37699e-16
2.48232e-14
3.84996e-12
1.24962e-14
4.59986e-13
1.92679e-14
1.39833e-13
4.44614e-14
2.31045e-14
4.14272e-14
3.29278e-15
1.56521e-14
1.24354e-14
3.03266e-14
1.70476e-14
9.39338e-15
8.70134e-15
2.53516e-14
4.35879e-14
1.79292e-12
1.84819e-13
2.30735e-14
6.2149e-12
2.76646e-14
4.90845e-15
3.35712e-14
7.82619e-15
3.98837e-14
1.26895e-15
9.85608e-14
2.38981e-14
4.31973e-14
5.43014e-15
4.0194e-15
3.05781e-14
7.60878e-14
1.36348e-13
9.03145e-14
5.08428e-16
3.69785e-14
2.55871e-14
2.39279e-13
4.57042e-15
6.66769e-14
1.20459e-13
1.99118e-14
7.8553e-14
1.13785e-14
3.07845e-15
4.07099e-15
1.40351e-13
2.71674e-14
1.5967e-13
1.62565e-14
3.97893e-14
2.76406e-15
2.45692e-14
1.34439e-12
4.89544e-13
1.0413e-14
3.15019e-14
9.65546e-16
7.40217e-15
5.89432e-14
2.08575e-14
1.5454e-14
5.63138e-14
4.92075e-16
7.08894e-15
6.85785e-14
9.20761e-14
4.56851e-15
3.19295e-15
5.87926e-15
7.79792e-15
2.24633e-14
1.24248e-14
2.50962e-14
1.545e-14
5.2277e-15
8.2511e-14
5.70088e-12
3.80456e-13
2.06862e-13
6.64439e-14
3.1328e-15
3.75707e-14
2.8872e-14
9.2556e-13
2.87755e-14
9.7149e-12
3.7348e-15
8.88174e-14
2.94326e-14
3.74749e-12
4.41042e-15
1.18634e-06
1.12352e-14
5.57998e-15
1.92705e-14
8.14324e-14
9.23682e-15
1.17432e-13