/*--------------------------------*- C++ -*----------------------------------*\
  =========                 |
  \\      /  F ield         | OpenFOAM: The Open Source CFD Toolbox
   \\    /   O peration     | Website:  https://openfoam.org
    \\  /    A nd           | Version:  10
     \\/     M anipulation  |
\*---------------------------------------------------------------------------*/
FoamFile
{
    format      ascii;
    class       volVectorField;
    location    "0.3";
    object      U;
}
// * * * * * * * * * * * * * * * * * * * * * * * * * * * * * * * * * * * * * //

dimensions      [0 1 -1 0 0 0 0];

internalField   nonuniform List<vector> 
111485
(
(0.144065 -0.142832 -0.00890501)
(0.365381 -0.0267786 -0.0345321)
(0.374269 0.0287652 0.0276451)
(0.132419 -0.143803 0.0179456)
(0.383991 -0.0329985 0.00959335)
(0.145268 0.114679 -0.0213531)
(0.365711 -0.000472448 -0.0344969)
(0.393243 -0.00200453 0.0125029)
(0.381038 -0.00839034 0.00328467)
(0.388545 0.021486 0.0325164)
(0.395853 -0.0220001 0.0150229)
(0.386313 -0.0103919 0.00876938)
(0.349636 -0.0150534 0.0441825)
(0.344814 -0.0519639 0.00406971)
(0.385231 -0.00978744 0.0136441)
(0.368552 0.0299806 -0.0212697)
(0.380845 0.0560666 0.0588328)
(0.12839 0.0117239 0.0470584)
(0.409211 0.0234717 0.00596243)
(0.139058 -0.112154 -0.0050667)
(0.149855 -0.14477 0.0421716)
(0.119593 0.154334 0.016769)
(0.397058 0.00838734 -0.00536951)
(0.380455 -0.0187139 -0.01154)
(0.372064 -0.0257952 -0.020353)
(0.110182 -0.142197 -0.0112623)
(0.395266 0.00941896 -0.00354943)
(0.413325 -0.0111398 -0.0595618)
(0.384564 -0.000156851 0.0230121)
(0.125968 -0.154447 0.0278108)
(0.365758 0.00976424 -0.024419)
(0.360144 0.0158777 0.0364397)
(0.146102 -0.146617 0.0100262)
(0.145391 0.143204 0.0166065)
(0.139376 0.0695168 0.0167696)
(0.116933 0.145763 -0.0148579)
(0.391337 -0.0126226 -0.00901317)
(0.380345 0.0196711 -0.0264555)
(0.399292 0.15934 -0.00666717)
(0.372666 -0.000437013 0.0236048)
(0.110833 0.139972 -0.0510193)
(0.377192 0.0228472 -0.022142)
(0.396273 0.0247012 0.000724335)
(0.38167 0.0235599 -0.00402197)
(0.40113 -0.0343795 -0.0196669)
(0.112756 -0.1482 -0.0192804)
(0.3946 -0.0146637 0.014764)
(0.411847 0.00165413 -0.00140868)
(0.3639 -0.0220338 -0.0397759)
(0.118076 -0.130814 -0.0182152)
(0.152841 -0.118565 0.0119694)
(0.142965 0.122631 0.0191903)
(0.143627 -0.140504 0.0358246)
(0.398776 0.0222633 0.0132939)
(0.136604 -0.115687 -0.0121285)
(0.379898 0.0130853 -0.017581)
(0.37986 0.00115296 -0.000907806)
(0.108552 0.168356 0.0310011)
(0.405761 -0.0125433 -0.00682276)
(0.369303 -0.00307862 -0.0186535)
(0.377288 0.0054753 -0.0312273)
(0.142561 -0.152252 -0.00814771)
(0.408974 -0.037988 -0.0271317)
(0.380854 -0.00902228 -0.00567437)
(0.146922 0.129581 -0.0245541)
(0.380891 -0.00596177 0.00802342)
(0.276192 -0.0553162 -0.013767)
(0.350791 0.034584 -0.00520198)
(0.363717 0.000555782 0.000490196)
(0.391926 -0.0152751 -0.0155894)
(0.40232 0.0178981 0.0292994)
(0.359929 -0.00880074 0.0282461)
(0.13025 -0.146487 0.00813354)
(0.38338 -0.0413112 -0.0305397)
(0.134876 -0.133075 0.00625832)
(0.408613 0.0100936 0.0414052)
(0.120433 0.103108 -0.0184678)
(0.388251 -0.0062507 -0.0112861)
(0.115956 0.141536 0.00454152)
(0.128978 0.0922221 0.0042783)
(0.391871 0.0100639 0.0222676)
(0.38626 -0.0238137 -0.00793547)
(0.0952858 0.154837 -0.0226924)
(0.148369 -0.132606 -0.00269081)
(0.400542 -0.0209036 0.0100217)
(0.392235 0.0432864 -0.0222457)
(0.320187 0.197959 -0.0769973)
(0.40426 -0.000628544 -0.0104724)
(0.404009 0.0265977 -0.0299576)
(0.364111 -0.0670422 -0.0119287)
(0.382361 -0.000811931 -0.0205296)
(0.381015 -0.00326564 -0.0130954)
(0.404696 -0.0282721 -0.0448456)
(0.415027 0.0340343 0.0175202)
(0.37736 -0.045442 0.0207517)
(0.158035 -0.100452 -0.0114853)
(0.156155 -0.125154 0.016325)
(0.386113 0.00496666 -0.0272385)
(0.407904 -0.0430852 0.0127117)
(0.404965 0.0247464 -0.0171995)
(0.129579 -0.132803 0.044217)
(0.408145 0.0246976 -0.0370188)
(0.136927 0.168479 -0.0143121)
(0.40185 0.0127277 -0.00582834)
(0.384998 0.0345915 -0.00367724)
(0.129623 0.104574 -0.0226911)
(0.138084 0.122284 -0.0141037)
(0.363963 -0.00401013 0.00327989)
(0.424119 0.00217838 -0.0176064)
(0.404303 -0.0214246 0.0406234)
(0.371775 0.00608789 0.0365535)
(0.401118 0.00743893 0.00482816)
(0.384686 -0.0361677 -0.00748017)
(0.346714 0.0116923 0.0618736)
(0.117922 -0.142882 -0.0233713)
(0.411193 0.0125428 -0.00524744)
(0.119983 -0.128 -0.0189074)
(0.141579 0.140446 0.00698402)
(0.401873 -0.00694205 0.0109914)
(0.140187 -0.152579 -0.0268329)
(0.112751 -0.135148 0.0081648)
(0.201458 0.15369 0.00390668)
(0.102959 0.117361 -0.0141912)
(0.143101 0.120749 0.01421)
(0.380429 0.0175254 0.0104234)
(0.117978 -0.112241 -0.0213153)
(0.187464 0.138755 -0.0159004)
(0.378255 -0.0209058 -0.0194419)
(0.160772 -0.104674 -0.0378242)
(0.38365 0.00866315 -0.0226917)
(0.344607 0.00102705 -0.0434422)
(0.385778 -0.04021 -0.0068911)
(0.135186 -0.0865861 0.0011913)
(0.152778 0.163327 0.0384879)
(0.183157 0.149443 0.00519198)
(0.390361 0.0236299 -0.0205696)
(0.164094 0.106102 -0.0173001)
(0.374792 0.0323567 -0.0453214)
(0.393022 0.00275313 0.00121416)
(0.36797 0.00121638 -0.0427852)
(0.364727 0.0267316 0.0136095)
(0.418731 0.00133514 -0.00471997)
(0.381876 0.00771712 0.00316776)
(0.372014 -0.0327559 0.0194175)
(0.376674 0.0423661 0.00549395)
(0.382383 0.00767034 -0.0189865)
(0.12502 0.0752493 0.0308923)
(0.139476 -0.16527 0.00744856)
(0.124904 0.116704 0.0191697)
(0.37714 0.00220795 0.0236639)
(0.365856 -0.0356864 0.0223579)
(0.145308 -0.107717 -0.0238702)
(0.355918 0.0727399 0.0021885)
(0.375287 -0.0314146 -0.0213272)
(0.403344 0.0174246 0.0374064)
(0.404068 0.0190852 -0.00731568)
(0.378646 -0.0323514 0.00572361)
(0.371172 0.00946182 0.00613411)
(0.378115 -0.05465 -0.0436269)
(0.136939 -0.131201 0.0272222)
(0.132525 -0.122854 0.00923726)
(0.381818 0.00248168 -0.00554501)
(0.332921 -0.0632302 0.0142712)
(0.365101 -0.000537116 -0.00771973)
(0.415494 0.00606524 0.0133429)
(0.369409 -0.0459937 -0.0267707)
(0.380897 0.00155129 -0.000184342)
(0.119466 0.122865 -0.00132438)
(0.379723 0.0305324 0.00388463)
(0.387896 -0.0130613 0.021081)
(0.146191 0.117657 0.0183145)
(0.150147 -0.105885 0.012131)
(0.347368 0.00536174 0.00566561)
(0.141425 0.122811 0.0305338)
(0.383039 -0.014877 -0.0105758)
(0.396239 -0.00516892 -0.00337953)
(0.134953 0.117549 -0.00800637)
(0.136374 -0.136512 0.00162208)
(0.105009 -0.152061 0.0117205)
(0.140274 0.123415 -0.00406768)
(0.130686 -0.106137 0.0242768)
(0.126458 -0.152666 -0.00232904)
(0.404419 -0.0258026 3.66275e-07)
(0.383532 0.017234 0.00401574)
(0.38835 0.0265574 0.015055)
(0.387757 0.0474776 -0.0371404)
(0.382062 -0.0044392 0.0192846)
(0.387343 0.0308465 -0.0135009)
(0.40222 -0.00667258 0.00212602)
(0.144999 -0.139883 -0.0132997)
(0.368635 -0.0275628 -0.0145783)
(0.157041 -0.12733 0.00298434)
(0.111463 -0.114964 0.0105155)
(0.362801 0.0297333 0.0137102)
(0.358918 -0.0254129 0.0248112)
(0.406846 0.0206958 -0.0159066)
(0.37162 0.0248117 -0.00276391)
(0.335576 0.0256903 0.0583325)
(0.144006 -0.109036 0.0260326)
(0.387533 -0.00299747 0.0371623)
(0.394199 -0.0142061 0.026539)
(0.265267 0.0386226 0.026849)
(0.39605 0.0182119 0.00913914)
(0.384486 0.0113698 0.0175511)
(0.135974 -0.170555 0.0120328)
(0.395304 -0.00666965 -0.00346034)
(0.381629 0.0275291 -0.015975)
(0.133007 -0.12499 -0.0179515)
(0.419482 -0.00867836 0.00190788)
(0.392938 0.00175615 -0.037695)
(0.382799 -0.0251103 0.0355756)
(0.381627 0.00217312 -0.0326306)
(0.164164 -0.158405 0.00563821)
(0.110917 -0.130085 -0.0272952)
(0.380899 -0.0131812 -0.00368231)
(0.221188 0.147847 0.00370535)
(0.367018 0.0234485 0.00132276)
(0.124554 0.139275 -0.00448541)
(0.396997 0.00432086 -0.0094367)
(0.383927 0.005198 -0.00424087)
(0.393209 0.0397994 -0.00655687)
(0.138854 -0.100573 0.0218504)
(0.378982 -0.00232768 -0.0237514)
(0.394492 -0.0540335 0.00268672)
(0.19597 0.107816 -0.027842)
(0.144271 0.0980784 -0.0206199)
(0.119526 0.133156 0.0190367)
(0.37819 0.024675 -0.0237986)
(0.357827 -0.0659589 0.0124407)
(0.124473 0.133588 -0.0109903)
(0.156008 -0.134605 0.00103752)
(0.367459 -0.00698207 -0.00669106)
(0.37824 -0.0173664 0.00897546)
(0.403532 -0.0035787 0.0173447)
(0.13719 0.107864 -0.00420008)
(0.128524 -0.131667 -0.0102844)
(0.401764 -0.00730151 0.0142851)
(0.136642 -0.138822 0.00334467)
(0.38405 0.0331316 0.0180669)
(0.377296 0.00599532 0.00449569)
(0.369053 0.00771846 -0.00410656)
(0.384376 0.00650247 -0.00558557)
(0.372783 0.000148126 0.00539994)
(0.144598 0.139143 0.0310234)
(0.372181 0.0387847 0.0138979)
(0.41115 -0.00618608 -0.00574938)
(0.124903 0.159188 -0.0291734)
(0.118242 0.106979 -0.0189073)
(0.389972 -0.00718598 0.00255575)
(0.374115 -0.00442244 0.020501)
(0.105054 0.119772 -0.0108033)
(0.396182 -0.0159381 0.0107274)
(0.389199 -0.00395617 0.000571706)
(0.123571 -0.131775 -0.0023414)
(0.115328 0.156722 0.00251472)
(0.408755 0.00878682 -0.0125195)
(0.133179 -0.123652 -0.0331021)
(0.14059 -0.126713 -0.0644699)
(0.181487 -0.0672363 0.0326538)
(0.134271 -0.138851 -0.0128826)
(0.370402 -0.0250185 -0.00968545)
(0.320478 -0.00871067 -0.03068)
(0.356107 0.00755948 -0.0109142)
(0.149001 -0.131852 -0.015653)
(0.399648 -0.0229356 0.0460504)
(0.146334 -0.155319 -0.0204893)
(0.118822 -0.146315 0.00431901)
(0.137716 -0.129409 0.0122507)
(0.358368 -0.00862858 0.00532501)
(0.357047 -0.0255051 -0.0345003)
(0.378992 0.0181546 0.0266142)
(0.379525 0.00462983 0.00790692)
(0.389816 0.00173815 -0.0295568)
(0.390387 0.0183013 -0.0143225)
(0.402209 0.0048585 -0.00662158)
(0.385345 0.0185646 0.0413797)
(0.356422 0.0111421 -0.0254262)
(0.382055 -0.0342983 0.0116645)
(0.144246 0.142227 0.00186806)
(0.116131 -0.132263 0.0248827)
(0.358097 -5.65696e-05 -0.00380915)
(0.393463 -0.012185 0.0169296)
(0.399025 0.017636 0.0339472)
(0.38417 -0.0167079 -0.0049335)
(0.113818 -0.114201 0.0501925)
(0.370389 0.016513 -0.00801154)
(0.350092 0.02835 -0.0492645)
(0.407213 0.0110959 -0.00462694)
(0.362753 0.0287369 -0.00232569)
(0.377503 -0.0127652 -0.0157494)
(0.385752 0.000245993 0.0057694)
(0.396597 0.0104518 0.00533682)
(0.392705 4.31964e-05 0.0194503)
(0.115793 0.114335 0.0490963)
(0.381699 -0.0234714 0.0106785)
(0.129263 0.139556 0.00992402)
(0.118005 0.0797369 -0.00864873)
(0.156999 -0.0699827 0.0190135)
(0.385622 0.0356049 0.000432169)
(0.39671 -0.0066128 -0.0303083)
(0.381205 -0.00701333 -0.0319662)
(0.121702 -0.12792 -0.0134359)
(0.13602 0.117129 -0.0333103)
(0.392362 -0.0131638 -0.00330169)
(0.342864 -0.0253084 0.0037967)
(0.143396 -0.122886 -0.0344508)
(0.125642 -0.142548 0.035566)
(0.129516 -0.111487 -0.0260622)
(0.42413 0.0114177 -0.000448425)
(0.398295 -0.00481428 0.00231648)
(0.402406 -0.00526409 0.00851967)
(0.386062 0.00146768 0.00218596)
(0.385221 0.0313065 -0.0166287)
(0.157869 0.118707 -0.0475712)
(0.128176 0.137877 0.00989004)
(0.14149 -0.152777 0.0096458)
(0.383817 -0.00632326 0.0135815)
(0.295266 -0.228458 -0.0256014)
(0.349658 0.00811796 0.017291)
(0.373178 0.00437552 -0.00170483)
(0.384454 -0.00536788 0.0386436)
(0.111034 0.150126 -0.0271901)
(0.144133 -0.134393 3.86604e-06)
(0.121978 -0.0982019 -0.00773601)
(0.144819 0.134591 0.0175916)
(0.379815 -0.0224957 0.0075596)
(0.410558 -0.0233316 -0.0199348)
(0.141737 0.135903 0.00306496)
(0.382777 0.00907967 -0.0544492)
(0.129568 0.0891108 -0.0122061)
(0.111874 -0.120668 0.0421511)
(0.372591 -0.00199174 -0.000285213)
(0.403491 -0.00439252 -0.00916733)
(0.379804 -0.0275308 0.028431)
(0.37908 0.0161497 -0.0597802)
(0.164691 0.107058 -0.00925529)
(0.150635 0.135816 0.0380797)
(0.157448 0.114616 0.00722208)
(0.387581 -0.0135655 0.015733)
(0.397477 0.0303283 0.0384989)
(0.407074 0.00720275 0.00558471)
(0.154611 0.0880229 0.0213009)
(0.203185 0.244793 -0.0990381)
(0.376492 0.0160633 0.0249209)
(0.379723 0.0180483 -0.0404901)
(0.362928 0.0481368 0.00575291)
(0.3663 0.0303261 0.0114739)
(0.349974 0.0205041 0.00974547)
(0.140961 0.131966 0.0110221)
(0.384453 -0.0103862 0.0376953)
(0.39792 0.0226582 -0.00351227)
(0.399966 0.00561796 -0.000469564)
(0.3737 -5.93584e-05 0.0169903)
(0.412262 -0.00572584 -0.00818602)
(0.149297 0.159991 0.0238181)
(0.117823 -0.141175 -0.00128571)
(0.152933 0.120635 0.0175323)
(0.139 -0.0999533 0.009101)
(0.389737 -0.014464 0.0162106)
(0.39634 -0.0122287 0.00187457)
(0.39891 -0.021597 -0.0204737)
(0.390168 -0.0235629 -0.00478241)
(0.127579 0.154827 0.00792012)
(0.357617 -0.0211178 0.00622744)
(0.115136 0.148646 0.0212283)
(0.139316 -0.163265 -0.0130878)
(0.400137 -0.00806491 -0.0174124)
(0.163069 -0.100538 0.0128342)
(0.22846 -0.0404515 -0.0118814)
(0.115216 -0.114936 -0.0257754)
(0.0893492 0.149444 0.0325282)
(0.413369 0.0182999 -0.0240325)
(0.112002 0.115512 0.00487291)
(0.404174 0.00529138 -0.0220708)
(0.407477 0.0188646 -0.00782421)
(0.174045 0.141944 0.0136657)
(0.410889 -0.00431801 -0.0141046)
(0.34868 0.0171867 -0.0388858)
(0.143607 0.108042 -0.00376886)
(0.393811 -0.0106854 0.0307015)
(0.383651 -0.00573172 -0.0172633)
(0.384607 -0.039006 0.0310744)
(0.372679 -0.0417686 0.00534133)
(0.397962 -0.00313218 0.0205298)
(0.3544 0.00332526 0.0531259)
(0.14136 0.113244 0.00580935)
(0.184958 -0.0910694 -0.0135386)
(0.378794 -0.000168527 0.0106177)
(0.154782 0.106026 -0.00795472)
(0.387919 0.0404805 0.0130157)
(0.362475 -0.025759 0.0526432)
(0.136663 0.121196 0.00326803)
(0.138296 0.154011 -0.0432577)
(0.353582 0.0150547 0.015581)
(0.379841 -0.0900568 0.0486264)
(0.386493 0.00686635 -0.0132835)
(0.386974 0.0308296 -0.0361828)
(0.121474 0.135941 0.00958808)
(0.392801 0.0291934 -0.0225673)
(0.384319 0.0168649 -0.0312681)
(0.136031 0.161378 -0.018823)
(0.37743 0.0502113 0.034099)
(0.409221 -0.00562658 -0.00665631)
(0.160985 -0.099737 -0.0255416)
(0.14356 -0.162942 -0.00636475)
(0.382486 -0.00979348 -0.00744667)
(0.383981 -0.00355464 -0.0204906)
(0.135327 0.125458 0.000930534)
(0.111113 -0.146257 0.0159704)
(0.220687 -0.163946 0.0251472)
(0.128221 -0.131835 -0.00829774)
(0.395041 0.0337729 0.0108201)
(0.141339 0.0807961 -0.0318447)
(0.112884 -0.133813 0.0257836)
(0.389999 -0.0343779 7.14239e-05)
(0.404192 -0.0213127 0.0232147)
(0.39638 0.00675233 -0.00849883)
(0.325298 -0.0388135 0.00672729)
(0.153465 0.150152 0.0273229)
(0.16717 0.127048 -0.00575305)
(0.373759 0.00803471 0.0213947)
(0.162562 0.116233 0.00600639)
(0.393929 -0.00348167 0.0235708)
(0.315634 0.0771528 -0.00574787)
(0.385071 -0.0472077 -0.0225948)
(0.279246 0.0218838 0.0105278)
(0.154659 0.141765 0.0113973)
(0.400205 -0.00792004 -0.0361984)
(0.39734 -0.0190303 0.00483894)
(0.142354 -0.136302 -0.00277783)
(0.340562 0.0286769 -0.0358351)
(0.376022 -0.00660014 0.00527623)
(0.152725 -0.126763 0.010086)
(0.433768 0.0442863 0.0131028)
(0.396516 0.0293278 -0.0013415)
(0.15482 0.114436 0.000781274)
(0.37799 0.000267916 -0.0149115)
(0.422136 0.0140678 -0.0147459)
(0.367001 -0.00231779 -0.0093106)
(0.151688 0.0685307 0.0124866)
(0.394202 -0.00884102 -0.0284657)
(0.373132 0.0246173 -0.0334789)
(0.376356 0.00657959 0.0190457)
(0.38802 0.0027608 -0.061353)
(0.207036 0.151782 -0.00921639)
(0.414162 -0.0175859 0.00489206)
(0.139282 -0.145431 0.0150743)
(0.362344 -0.0166449 0.00637382)
(0.368283 -0.00759756 -0.0392198)
(0.130222 0.131142 -0.0108039)
(0.388249 0.0254352 -0.032132)
(0.389294 -0.036142 -0.00310898)
(0.199749 0.127188 0.00589155)
(0.133529 -0.121741 -0.00534697)
(0.119943 -0.126807 -0.0028973)
(0.133024 -0.139282 -0.00554718)
(0.382876 -0.0121113 -0.0259264)
(0.382075 -0.0328477 -0.0251016)
(0.400632 0.00588051 0.0116549)
(0.407685 -0.0316919 0.0157244)
(0.385044 0.0165887 -0.00814612)
(0.126459 0.118499 -0.00236031)
(0.397331 0.0149617 0.0304157)
(0.133428 -0.116765 0.0149017)
(0.378516 -0.0204491 -0.00145938)
(0.123788 0.124442 0.0154033)
(0.107401 -0.145487 -0.00223449)
(0.109951 -0.115765 -0.0190483)
(0.369689 0.0140485 0.0160331)
(0.133167 -0.165946 -0.00910103)
(0.134472 -0.14845 0.000814399)
(0.166743 0.0690789 -0.0190639)
(0.166958 -0.132191 0.0053593)
(0.0983835 0.0798108 -0.0159908)
(0.399502 0.00609674 -0.0244644)
(0.11129 0.101856 -0.0197289)
(0.145858 0.109796 -0.0172523)
(0.157795 0.111814 -0.0176388)
(0.120676 -0.145421 -0.0142104)
(0.156297 0.106569 -0.0367762)
(0.132669 -0.128209 0.0149711)
(0.152478 0.155641 0.0040965)
(0.392766 -0.000227565 0.0163291)
(0.135869 0.141642 -0.0339255)
(0.367686 -0.00920932 0.00190451)
(0.395359 0.00664021 -0.00372846)
(0.354447 0.00522598 0.0184633)
(0.0895916 0.0964233 -0.0166612)
(0.410158 0.0198777 -0.0273413)
(0.140853 0.139299 -0.0248947)
(0.139794 -0.130252 -0.00950378)
(0.385489 0.00738237 -0.0153245)
(0.385249 -0.00582842 -0.0145886)
(0.376856 -0.0107352 9.71591e-05)
(0.403915 -0.0358899 0.0571224)
(0.144606 0.117478 -0.00589924)
(0.371292 -0.00552239 0.000848852)
(0.382376 -0.0231334 -0.0168402)
(0.390184 -0.0345967 0.0115275)
(0.38564 0.0436683 -0.0496891)
(0.355072 -0.00426238 0.0600746)
(0.142537 -0.156776 0.00386637)
(0.367508 0.00343091 0.0185428)
(0.160353 0.169279 0.022056)
(0.4011 0.00177669 -0.0166725)
(0.133696 0.103748 -0.00360648)
(0.382752 -0.00483685 0.0392213)
(0.152573 0.145183 0.0074692)
(0.40037 -0.000725611 0.0153991)
(0.391219 0.00630023 -0.0192683)
(0.180616 -0.0780705 0.00261135)
(0.120913 0.13891 -0.0280755)
(0.345777 0.016375 -0.0303647)
(0.13105 -0.145371 0.00231703)
(0.383087 -0.0124959 -0.0113245)
(0.382873 0.00771438 -0.0020212)
(0.126362 0.139004 -0.0051396)
(0.133133 0.151227 -0.0178254)
(0.114575 0.116245 -0.00592432)
(0.129949 0.137997 -0.0186985)
(0.377899 -0.06729 0.0709891)
(0.374683 0.00255744 0.057865)
(0.129996 0.135762 0.00594264)
(0.127705 0.142889 -0.00375382)
(0.386317 -0.00457983 -0.0188807)
(0.113165 0.151369 -0.0211349)
(0.378911 0.00763781 -0.000540492)
(0.138683 0.151336 0.0152677)
(0.392159 0.0111847 -0.0105573)
(0.154836 -0.123353 -0.00873478)
(0.368845 -0.0532174 0.0304833)
(0.402774 0.0290721 0.0186886)
(0.386656 -0.0451342 0.00971776)
(0.373971 0.0157767 -0.00583268)
(0.133467 0.132352 0.0308594)
(0.400075 0.00498051 0.0213317)
(0.142592 0.154875 0.0145472)
(0.146527 0.115473 0.00488614)
(0.393877 -0.00161631 0.0465154)
(0.162841 0.162328 -0.0041232)
(0.365773 -0.00114046 0.0207011)
(0.151183 0.120555 0.0143992)
(0.387065 -0.00575171 -0.00267962)
(0.1141 -0.116182 -0.0269788)
(0.413216 0.0593706 0.050877)
(0.135305 -0.116761 -0.0269881)
(0.169081 0.157599 0.00822488)
(0.386647 -0.0044727 0.0152516)
(0.386201 -0.0104973 -0.00223125)
(0.401426 -0.0192274 -0.0215086)
(0.407544 0.00102261 0.00447658)
(0.387495 -0.00113923 0.0108826)
(0.38492 0.0384845 -0.00895811)
(0.166637 0.176754 -0.0140281)
(0.374879 0.0116695 0.0248167)
(0.376647 0.0016126 0.000458535)
(0.122847 0.134459 -0.00513559)
(0.3803 0.00446967 -0.0316725)
(0.396605 0.00226887 0.0229961)
(0.364074 -0.0119772 0.000422365)
(0.123333 0.121342 -0.0127124)
(0.151673 0.0269406 -0.0346905)
(0.407465 0.0313555 -0.00782025)
(0.362801 -0.0373926 0.0115367)
(0.286667 0.0629874 -0.000794953)
(0.18708 -0.0861552 -0.00478724)
(0.39598 -0.0114199 -0.00957023)
(0.400166 -0.00626668 0.0228659)
(0.372337 0.00647964 -0.020885)
(0.407602 0.0206377 -0.0513609)
(0.387923 0.0277447 -0.0152141)
(0.339216 0.0522293 -0.0278606)
(0.189988 0.129834 -0.0188474)
(0.390615 0.0288768 0.0158845)
(0.321024 -0.00830962 0.0393685)
(0.159218 -0.144936 -0.00110809)
(0.41305 -0.0176323 -0.00601813)
(0.112597 0.12604 -0.0633253)
(0.157089 0.124587 0.0052171)
(0.38474 0.0444698 0.0247595)
(0.353392 0.0159828 0.017428)
(0.38242 0.0313228 0.00634918)
(0.372411 -0.0702672 0.00477582)
(0.166158 0.151932 -0.0650255)
(0.322574 -0.0294124 -0.0674931)
(0.389063 0.00770475 0.00376255)
(0.128815 0.131802 -0.0251126)
(0.185527 0.0845041 -0.00569085)
(0.405984 -0.00535502 0.0147885)
(0.14326 -0.135575 -0.0295442)
(0.104448 0.0837063 -7.58041e-05)
(0.127927 0.162422 0.0257077)
(0.132994 0.130159 -0.00306692)
(0.338161 -0.0469656 0.0337143)
(0.113792 0.142347 -0.00389893)
(0.13345 -0.148255 -0.0199777)
(0.391109 0.0248459 -0.0134767)
(0.371518 0.00899224 -0.00119085)
(0.214454 -0.157338 0.0348485)
(0.335277 -0.00890195 0.015899)
(0.187279 0.12193 -0.00390941)
(0.382422 -0.0301826 -0.028682)
(0.144487 -0.137411 -0.0244463)
(0.13128 0.126959 -0.0153336)
(0.37608 0.00663126 -0.0223291)
(0.11154 0.152681 0.0305488)
(0.110468 0.132748 0.00204905)
(0.136103 0.169739 -0.0257618)
(0.365682 -0.0105756 0.0142319)
(0.248555 0.183071 0.00128479)
(0.381514 0.0202393 -0.00818856)
(0.426439 0.00373068 -0.0163051)
(0.140703 -0.11101 0.0081202)
(0.395664 0.0224595 -0.0234783)
(0.389643 0.0207297 -0.0209724)
(0.371291 -0.00485144 -0.0597923)
(0.348244 -0.0148666 0.0375814)
(0.356404 0.00435447 -0.00362541)
(0.370877 -0.0345331 0.0233984)
(0.115313 0.151508 0.0360957)
(0.342001 0.0156149 0.0180221)
(0.408852 0.00206456 0.028369)
(0.126815 -0.12572 0.00375704)
(0.404678 0.00748 0.00640663)
(0.35875 0.00367503 0.0279974)
(0.371104 -0.0340866 -0.0268113)
(0.405634 0.0213016 0.00330004)
(0.393231 0.0203535 0.00481083)
(0.352962 0.021053 -0.0163507)
(0.102584 -0.107743 0.0127594)
(0.380773 0.0096211 -0.00279215)
(0.401553 0.00161111 0.0438735)
(0.151968 0.140735 -0.00569439)
(0.383136 -0.018328 -0.00101053)
(0.394233 -0.0182227 -0.0408099)
(0.240091 0.193635 -0.0324994)
(0.404217 -0.00323904 0.00649774)
(0.406676 -0.0160528 0.00724478)
(0.368348 -0.00113224 -0.0523424)
(0.392988 0.029171 -0.0535276)
(0.388608 -0.00685739 -0.00260118)
(0.37528 -0.0069033 -0.0327817)
(0.105063 0.114291 -0.00277839)
(0.414401 0.0185652 0.0221029)
(0.389456 -0.00265501 0.0168713)
(0.195852 -0.0846403 0.0183602)
(0.352136 0.0218565 -0.0043134)
(0.406936 -0.00524271 0.012508)
(0.356854 0.00456908 0.00548369)
(0.119403 0.102207 -0.000860941)
(0.411225 -0.00893039 0.00488491)
(0.155427 -0.107507 0.0269973)
(0.143463 0.115123 -0.0235523)
(0.141357 0.137573 0.00910523)
(0.129168 0.135099 0.0166475)
(0.372247 -0.0299911 0.0165041)
(0.17349 0.148961 0.0224143)
(0.355093 -0.019855 -0.00640947)
(0.108555 -0.13764 0.0165564)
(0.118323 0.135377 -0.00764838)
(0.421816 -0.0108234 0.0180524)
(0.379594 0.00387153 0.00148996)
(0.116434 -0.146825 0.0002303)
(0.386138 0.0186963 -0.000989563)
(0.146434 -0.140058 0.0109422)
(0.145286 -0.144791 0.0059387)
(0.133609 -0.119124 0.0274598)
(0.386738 -0.0145179 -0.0385664)
(0.372583 0.0241985 0.00807966)
(0.152317 0.136809 -0.0182903)
(0.121393 -0.114745 -0.0390323)
(0.112937 0.140066 -0.0246261)
(0.153638 0.137155 -0.00314459)
(0.371831 0.0256309 0.000925398)
(0.384281 0.0296551 -0.000429793)
(0.128803 0.15156 0.00608857)
(0.388912 0.00552054 0.00242301)
(0.415141 0.00276432 -0.0254158)
(0.12025 0.129257 0.040141)
(0.378908 0.00604985 -0.00837082)
(0.359301 -0.00747713 0.00657259)
(0.388822 0.00767701 0.033066)
(0.0904289 0.124049 -0.00300672)
(0.132885 0.121358 0.016329)
(0.383061 0.00353565 -0.0393962)
(0.393209 -0.00574016 -0.0134581)
(0.170544 0.14079 0.00823719)
(0.137279 0.130585 0.0106909)
(0.126559 0.120993 -0.00839743)
(0.378185 -0.048792 -0.012068)
(0.154817 -0.126054 -0.0277657)
(0.114087 -0.14259 -0.0101401)
(0.113865 0.140064 0.0218453)
(0.389757 0.0102747 -0.00428591)
(0.378358 -0.0185892 -0.0174318)
(0.129596 0.146362 0.0391553)
(0.164904 0.0886344 0.0183968)
(0.154679 -0.0234619 0.0153887)
(0.350993 0.0679553 -0.0130214)
(0.142184 0.14477 0.00110836)
(0.118466 0.129901 0.00318021)
(0.370481 -0.0241141 -0.0174914)
(0.401424 -0.0381299 0.00206709)
(0.167422 0.147107 0.020906)
(0.232669 0.067586 -0.0056581)
(0.385799 0.00792532 0.00653763)
(0.356686 0.0361414 -0.00661819)
(0.353727 0.000128958 0.00151262)
(0.150158 0.107428 0.0240559)
(0.361417 0.0245445 0.00736509)
(0.383466 0.015499 0.00931324)
(0.118186 0.10346 -0.0048253)
(0.121764 -0.157748 0.0033247)
(0.151102 0.144661 -0.0153591)
(0.14702 0.0976257 -0.00587412)
(0.14218 0.126063 0.00335548)
(0.143643 0.133469 -0.0165024)
(0.390936 0.00559383 0.0131004)
(0.142031 -0.162874 0.0291232)
(0.120818 0.12707 0.0155515)
(0.111933 0.14851 0.046358)
(0.399793 0.00539236 0.0152278)
(0.377592 -0.00330279 0.00893886)
(0.141195 -0.129132 0.0227016)
(0.129684 -0.120361 -0.0272929)
(0.371539 0.0385069 0.0305608)
(0.374206 0.0168435 0.0016875)
(0.384693 0.0509222 0.0227528)
(0.115316 -0.130827 0.0404466)
(0.116307 0.185235 -0.0159116)
(0.411564 0.0319397 -0.00540998)
(0.153117 -0.11362 0.015689)
(0.368558 0.00796988 0.0181855)
(0.376614 0.0060022 0.0288699)
(0.373258 0.0159649 0.00826371)
(0.114068 -0.146542 -0.0130981)
(0.1497 -0.13346 0.0134759)
(0.132282 -0.127057 0.00654619)
(0.15472 0.150556 0.0187824)
(0.391184 -6.78548e-05 -0.00220986)
(0.134693 0.149238 0.0137773)
(0.140557 0.138949 0.00296547)
(0.391349 -0.00911936 0.00621551)
(0.145175 -0.152799 0.00979219)
(0.38829 0.00845511 0.000165619)
(0.381066 -0.00767424 0.00769998)
(0.133984 0.118272 -0.00297279)
(0.388102 -0.00755048 0.00794743)
(0.174533 0.0198237 -0.00345842)
(0.404488 0.0207223 -0.0240722)
(0.380262 -0.00126819 -0.0169102)
(0.385034 0.0209324 -0.0230723)
(0.377231 -0.0364588 -0.0198619)
(0.39614 -0.0251651 0.0227396)
(0.175981 0.113209 0.0119155)
(0.397396 0.0191498 -0.0102709)
(0.341748 0.00519389 -0.0362912)
(0.394153 0.0101937 0.0151994)
(0.130586 0.121097 -0.00201779)
(0.388482 -0.00766497 -0.00678351)
(0.213878 -0.0262056 0.0132036)
(0.365737 -0.00764786 -0.0362917)
(0.148002 0.13006 0.000541496)
(0.386987 -0.0129392 -0.003376)
(0.398563 -0.0371017 0.0253022)
(0.377682 0.0149857 -0.0103251)
(0.139482 -0.102881 0.014654)
(0.132786 -0.145343 0.0198061)
(0.124436 -0.146451 -0.020198)
(0.407507 0.00575387 0.00178592)
(0.117755 0.113274 -0.00446903)
(0.38649 0.0205361 0.0167249)
(0.102338 0.111272 -0.0360474)
(0.35761 -0.014566 0.0367565)
(0.384953 0.0465397 0.00878954)
(0.389764 0.00883267 0.000973919)
(0.430547 0.00261134 -0.057486)
(0.118559 0.139414 -0.004363)
(0.144563 0.12142 0.00286639)
(0.168398 -0.112185 -0.0141361)
(0.402057 -0.00250984 -0.00939833)
(0.159857 0.159197 -0.00364278)
(0.155595 0.112783 -0.0221224)
(0.417262 0.00534427 0.010972)
(0.148064 0.118742 -0.0223017)
(0.107857 0.0911751 0.028299)
(0.13586 -0.138189 -0.00838856)
(0.148617 0.135643 0.0241338)
(0.377341 0.0185229 0.00342979)
(0.117139 0.132239 -0.00594692)
(0.138944 0.13671 -0.00255151)
(0.425781 0.0617496 -0.0116996)
(0.15606 0.145059 -0.00523388)
(0.138864 0.0937949 0.0313616)
(0.170848 -0.123196 0.00683627)
(0.142351 0.133747 0.0241471)
(0.373081 -0.000595297 0.0465224)
(0.370892 0.0242734 0.0101175)
(0.162269 -0.124056 -0.0107832)
(0.389348 -0.0175976 0.011633)
(0.36273 0.0697339 -0.0154627)
(0.379448 -0.0650789 0.0308603)
(0.403899 0.00130083 0.00471318)
(0.398249 0.00513808 -0.0153089)
(0.155452 0.151758 -0.0309747)
(0.426248 0.0254429 -0.0480294)
(0.384854 0.0181007 -0.0166585)
(0.343842 -0.0608901 0.0355441)
(0.14812 -0.0948122 -0.0250136)
(0.397137 0.117577 0.0316191)
(0.38699 0.0247104 -0.0198697)
(0.190049 0.146245 -0.0233436)
(0.360692 -0.0510714 0.00469992)
(0.368644 0.00535401 0.0123925)
(0.39067 -0.00115215 -0.0158868)
(0.39678 0.000564662 -0.0137079)
(0.411422 0.0177863 0.0298988)
(0.375954 -0.0250339 -0.0508694)
(0.416111 -0.0427272 -0.00991668)
(0.404127 0.000598472 -0.0204775)
(0.133182 0.0994462 0.0321923)
(0.147865 0.103687 0.00114199)
(0.379052 -0.0171515 -0.0175125)
(0.370563 -0.0366667 0.0408312)
(0.138367 0.139545 -0.0129594)
(0.374915 0.0104173 0.00301743)
(0.331689 0.00252594 0.048209)
(0.373898 0.00410736 0.00161934)
(0.153545 0.153572 0.00336396)
(0.323131 0.0387614 -0.0100059)
(0.150793 0.132847 -0.00996361)
(0.379858 -0.00252461 0.0217731)
(0.381584 -0.00398961 0.0200794)
(0.142126 0.13966 -0.0196364)
(0.35874 0.0511527 -0.0422985)
(0.336312 -0.00372649 0.0772029)
(0.383029 -0.022113 0.0204175)
(0.402259 -0.0193807 0.043022)
(0.158434 0.153128 -0.0225035)
(0.410135 0.0237548 0.0188849)
(0.370804 0.02012 0.00436589)
(0.370528 -0.0175114 -0.0131378)
(0.395443 0.0160376 0.0136915)
(0.392115 0.00846967 0.00278816)
(0.134216 0.149681 0.0140022)
(0.166807 0.137378 0.0230915)
(0.364382 -0.00398015 -0.0134709)
(0.140119 0.121665 -0.00949203)
(0.36667 -0.00660131 -0.0254678)
(0.400973 0.0226683 -0.0523339)
(0.222041 0.0332376 0.0108581)
(0.385295 0.00553528 0.00978674)
(0.387789 0.00537942 -0.00402942)
(0.380021 -0.00665174 -0.0396554)
(0.137644 0.14514 -0.00809011)
(0.144175 0.129135 0.00853918)
(0.395192 0.00353159 -0.0965298)
(0.129481 -0.122863 -0.0154431)
(0.0832145 -0.0344426 0.020024)
(0.3865 0.0129844 -0.0416837)
(0.135278 0.136263 -0.0131507)
(0.135249 0.117757 -0.0126569)
(0.401695 -0.0234432 0.0104763)
(0.436875 0.00985122 0.0885884)
(0.119701 0.131563 0.0175958)
(0.385849 -0.0196473 0.00963793)
(0.128409 0.110209 0.030705)
(0.107775 0.13411 -0.00590051)
(0.148649 -0.182375 0.00551581)
(0.13405 -0.146393 -0.00125394)
(0.128891 -0.152888 -0.0394392)
(0.14785 -0.135696 -0.00852444)
(0.394337 -0.0219535 -0.00278516)
(0.122295 0.121992 0.0559247)
(0.154025 0.14354 0.0170209)
(0.158573 0.13056 0.0110147)
(0.382498 -0.0254557 -0.026575)
(0.401752 -0.015963 -0.0516475)
(0.385484 0.0260296 5.40023e-05)
(0.387482 -0.0616103 -0.048987)
(0.126322 0.147686 0.0109134)
(0.17588 0.117406 -0.00801192)
(0.372191 -0.0435941 -0.0075926)
(0.130181 0.128199 -0.0122566)
(0.145772 0.0998532 -0.00280128)
(0.237889 0.0915025 -0.00624789)
(0.378106 0.011982 0.00124138)
(0.36634 0.00476371 0.00551707)
(0.133499 0.13851 -0.00425655)
(0.145323 0.119794 -0.0153788)
(0.156179 0.112487 0.0158644)
(0.147408 0.138022 0.00475604)
(0.158091 0.10935 0.0297112)
(0.107862 0.15693 0.00360219)
(0.382138 -0.0282437 -0.00312902)
(0.133848 0.12851 -0.0073566)
(0.390263 0.00652684 -0.0296873)
(0.411986 -0.00565799 0.0170307)
(0.136101 0.147816 -0.00591737)
(0.143162 -0.160357 0.0359028)
(0.141398 -0.130531 -0.00564245)
(0.400589 0.0219466 -0.00303024)
(0.143704 -0.123913 -0.00531518)
(0.140465 -0.118875 -0.0143244)
(0.137398 0.129794 0.00412715)
(0.376096 0.0186974 -0.00909306)
(0.124083 0.147282 -0.00810388)
(0.400921 0.00649546 -0.00361991)
(0.398343 0.0260389 -0.00501316)
(0.402581 -0.029353 0.0205892)
(0.125449 0.133486 -0.0256399)
(0.247861 -0.0643965 -0.0198827)
(0.404229 -0.00714283 0.0283628)
(0.398713 -0.00259619 -0.00931845)
(0.131616 -0.0950378 -0.0141729)
(0.366448 0.0263284 -0.00148223)
(0.394065 -0.00342508 0.0320073)
(0.122394 -0.111781 0.0204747)
(0.167726 0.118602 -0.0203668)