/*--------------------------------*- C++ -*----------------------------------*\
  =========                 |
  \\      /  F ield         | OpenFOAM: The Open Source CFD Toolbox
   \\    /   O peration     | Website:  https://openfoam.org
    \\  /    A nd           | Version:  10
     \\/     M anipulation  |
\*---------------------------------------------------------------------------*/
FoamFile
{
    format      ascii;
    class       surfaceScalarField;
    location    "54";
    object      phi;
}
// * * * * * * * * * * * * * * * * * * * * * * * * * * * * * * * * * * * * * //

dimensions      [0 3 -1 0 0 0 0];

internalField   nonuniform List<scalar> 
109758
(
-3.19888e-06
0.00121986
-0.00121666
-0.00125268
0.00128852
-3.58429e-05
0.000104111
-0.00114987
0.00104576
-0.00144006
8.7858e-05
0.0013522
0.00146228
-0.000168298
-0.0012577
-3.62783e-05
-0.000405293
0.000396325
8.96742e-06
-0.00110845
-6.47812e-06
0.00111492
0.0020238
-0.000255902
-0.000384876
-0.00138302
-2.37287e-05
0.000849313
1.44647e-05
-0.000840049
0.000466446
-7.22036e-05
0.000596521
-0.000990762
-3.94418e-06
0.00058648
-0.000582535
0.00187435
-0.00152688
-0.00143886
0.00109139
0.000320892
0.00125915
-0.00143779
-0.000142253
0.00118864
-0.00121937
3.07315e-05
-0.000973925
0.00110816
0.00132805
0.000691313
-0.000946112
-0.000684517
0.000939317
0.00081959
-0.00157363
0.00140327
-0.000649232
0.0014843
0.000242365
-0.00110138
-0.000625278
0.00150007
0.000227945
-0.00121147
-0.000516543
-0.00144003
0.000171263
-0.00010886
0.00137762
0.000215226
-0.000290085
7.48593e-05
-2.64185e-05
-0.00119632
0.000285682
0.000937056
-0.000275691
0.000846958
-0.000571267
0.000251248
-0.000301533
0.00102946
0.00116206
0.00042013
-0.00040524
-0.00117695
1.77023e-05
0.000563466
0.000903128
0.00124141
0.0015164
-0.00194186
-0.000815946
-0.0010912
0.00108139
9.8124e-06
3.42226e-05
0.00112784
0.00149192
-0.00102642
0.00079521
-0.00126071
-0.00146094
0.00152968
-8.4304e-05
1.55636e-05
-4.98674e-05
0.000604441
-0.000554574
-1.44489e-05
0.000898687
-3.48531e-05
-0.000849385
-0.000827251
0.000824101
3.15067e-06
-0.000123724
-0.00131762
0.00110507
0.000336268
-0.00115981
0.00212099
-0.00071881
0.000577823
0.000170078
-0.000747901
0.000198069
0.00103973
-0.00147413
0.000236334
-0.000252275
-0.00111668
8.15482e-06
0.0013608
0.00114049
5.17389e-06
-0.00114566
0.00167382
-0.00110248
0.00073491
-0.00130625
-0.000392233
-0.000504918
0.000676484
0.000220667
-3.41672e-05
3.33188e-05
0.00167467
-0.0014472
0.00142462
1.32283e-05
9.34483e-06
0.000796995
-0.00079802
1.02532e-06
0.000330628
-0.00214984
-0.000329157
0.00214837
0.000997936
-0.000282627
-0.000251216
-0.000464093
-0.00111255
0.00138815
-0.000195403
-8.01926e-05
1.65653e-05
0.00102434
-0.0010409
-0.00224762
0.000142323
0.00018778
0.00191752
0.00107968
-0.000522356
0.000520004
-0.00107733
0.000398918
0.000616721
1.4338e-05
0.00140048
-0.00141482
-0.00105835
0.00106189
-3.53685e-06
-0.00122001
0.00125423
-0.000329725
-0.00175407
-0.000430745
0.00251454
-0.00228281
0.00318366
-0.000667437
-0.000233407
-0.00111419
0.00098306
0.00117056
-0.00103943
-0.00180372
0.00070847
-5.92354e-05
0.00115448
-0.000719119
0.0002648
0.000646665
-0.000192347
-0.00149364
0.00142215
7.14884e-05
-0.00323423
0.000189518
0.00163172
0.00141299
-0.000314196
0.00130137
-0.0012495
0.000262334
0.00156926
0.00151353
-0.001891
-0.00113802
0.00151549
-0.00190104
0.000921703
0.000514723
0.000464614
0.0013926
-0.00153986
-0.000857904
0.00100516
-0.00147634
9.85659e-05
0.000349152
0.00102863
-0.00112268
-0.000798879
0.000445212
0.00107496
-7.64976e-05
-9.37172e-05
-0.000904748
0.00100534
-0.000591258
0.000373322
-0.000787406
0.00141975
5.18483e-05
0.000602388
-0.00207398
-0.000520789
0.000192366
0.000328423
-0.00211835
0.0013466
0.00158258
-0.000810835
0.000803011
-0.000759562
-4.34494e-05
-0.000627232
0.000200885
-0.001692
0.000106493
-0.000881207
-0.00028364
-0.000270547
5.59847e-05
-0.000860611
0.00107517
0.00174248
-0.00158309
-0.000333493
0.000174101
-0.00170478
0.00153667
-0.0010519
0.0011982
-0.000810973
-0.0010033
0.00061607
-0.000650729
0.00269958
-0.00135002
-0.000698825
-0.000152327
8.23392e-05
0.00152944
-0.00145945
3.6399e-05
0.00216824
0.000227613
-0.00243225
0.000866524
-0.00157252
-0.000132525
0.000838521
0.00123806
-0.00023315
-0.000898421
0.000128781
0.000991273
-0.00135853
0.000238477
0.000543356
0.00204821
0.000129529
-0.0027211
0.000961751
-0.00113398
0.000180341
-8.10895e-06
0.000655172
0.000735447
-0.00276357
0.00137295
0.00093333
-0.000103677
6.16178e-05
-0.000891271
0.00199179
-0.00149349
-0.00296906
0.00247077
0.00169135
-0.00190477
0.000844997
-0.000631575
2.06219e-05
-0.00159275
0.00146395
0.000108179
0.0016464
-0.00115281
-0.000363106
-0.000130487
0.000889516
2.0869e-05
-0.000910385
-0.00170022
0.000294124
0.00118686
0.000219237
0.001115
0.00074363
0.000571255
-0.00242989
0.000918873
-0.00165734
0.00114789
0.00249095
-0.00144436
-0.00219448
0.000917243
1.62999e-06
-0.000367647
0.0011936
0.00119926
-0.00202522
0.00105168
0.000300457
-0.000148985
-0.00120315
8.12529e-05
0.000922366
-0.00100362
0.00141392
-0.000116755
5.53391e-05
-0.0013525
-0.000577879
-1.89613e-06
0.000579775
-0.00132411
0.00102149
-0.000798762
-0.000237686
0.00179639
-0.00188909
0.000330385
0.000431879
-0.000362747
-0.00145273
0.0013836
0.000287593
-0.000293291
-0.000681618
0.000687316
-0.000368718
-0.000989348
0.00123681
0.000121256
0.000447792
-0.00121932
0.00126871
-0.00049718
0.000927692
0.000283676
-9.27752e-06
-0.00054947
-9.87643e-05
0.000657512
0.00017957
0.000352967
-0.00203727
0.00150473
-0.00131192
0.000166444
0.00134819
-0.000202714
0.000973629
0.000158179
9.90359e-05
-0.00123084
0.000205021
0.000768609
0.00143167
0.000288447
-0.00156194
-0.000766629
-0.000873132
0.00130308
0.000336683
0.00135802
0.000183648
0.000199575
-0.00174124
-0.00146802
0.00125525
-0.000411804
0.000624577
0.00134629
0.000290408
-0.00104611
0.00117849
-0.00108773
0.000955352
0.00146319
-0.0002112
-0.000286444
-0.000965549
4.01936e-05
-0.00160662
0.00174202
-0.000175597
-0.00152927
-3.7575e-05
-0.000422747
0.00198959
0.000938752
0.000505942
-0.00148563
4.09399e-05
-0.00101895
9.45295e-05
0.000894845
2.95787e-05
0.000184208
5.68948e-05
-0.00188299
0.00164189
-0.000930527
-6.13318e-06
0.00093666
0.000193153
0.00133207
-0.00134102
-0.00106142
0.00142123
-0.000773864
0.000414051
-0.00121288
-0.000778018
0.00157812
0.000412779
0.00127431
0.000244309
-0.000722693
-0.000795924
-0.0020102
-2.81242e-05
-0.000282996
0.00232132
-0.00129459
-0.000777575
0.000565861
0.00150631
0.00177661
-0.00174071
-0.000112042
7.61464e-05
-0.000263761
-0.000789098
-0.00070121
0.00146083
0.00108165
0.000271137
-0.00281361
0.00211354
0.000267147
-0.00234429
0.000214723
0.00110498
-0.00131971
3.51778e-05
-0.00108863
0.00105345
-0.00103479
-0.000214748
0.000197583
0.00105195
9.21854e-05
0.00134674
-0.00128483
-0.000154098
-0.00221982
-0.000254854
0.000576582
0.00189809
0.00122523
-0.0012964
0.00110861
-0.00103745
0.000159172
0.000143148
0.000922907
-0.000874116
0.000847548
2.65682e-05
-0.000919795
3.02595e-05
0.00133314
-0.000443608
0.000264661
-0.00067207
-0.000492993
0.000900402
0.000674457
-0.000702073
2.76159e-05
-0.000961833
0.000910022
-0.000218736
-5.08523e-05
-0.00101121
-1.05843e-05
0.00107265
0.00171118
-0.000192346
-0.00108588
-0.000432961
-0.000408176
-0.00186735
0.00250692
-0.000231389
-0.00162342
0.000562168
-0.0013566
0.00151467
-0.000158062
-0.000731666
0.000659162
-0.00102721
0.00109971
0.000547793
-0.000670697
-0.000497649
0.000620554
-0.000920553
-0.00126232
0.00100163
0.00118124
5.03252e-05
0.00141137
-0.000139998
-0.0013217
-0.000358612
0.00170979
-0.000286499
-0.00106468
-0.00159265
0.00134674
-9.64275e-05
0.000342336
-0.00117001
0.000933187
-0.0010075
0.00124432
0.00121545
6.65129e-06
-0.0012221
-0.00180187
0.000389453
0.00176156
-0.000345025
0.0014217
-0.00107668
8.78665e-05
0.00143507
-0.00152293
0.000197937
0.00123675
-0.00189563
0.000460948
-0.000951322
-0.000989062
0.00106155
0.000878833
0.000694447
-0.000200863
0.000511758
-0.00142009
0.00148314
-3.79793e-05
-2.50671e-05
-0.00141762
1.41083e-05
-1.65802e-05
0.000752235
-0.00045113
0.00184947
-0.00215057
-6.86161e-05
0.00180465
-0.00173603
-0.00118324
0.000849685
-6.60634e-06
0.00034016
-0.000902673
-0.00109806
0.00200073
-0.000674703
-0.000253296
0.000927999
0.00100455
1.2522e-05
-0.00101707
-0.00159623
-2.5701e-05
0.00131312
0.000308815
-0.000461594
0.000638503
0.000839039
-0.00101595
-0.00176748
0.000484128
0.000821761
0.00172075
-0.0027113
0.000575315
0.000415242
-0.00144938
0.00146282
-3.98611e-05
2.64244e-05
0.00193048
-0.00192971
-1.55913e-05
1.48291e-05
-0.00109047
1.54057e-05
0.000269007
0.000806054
7.65388e-05
-0.0011369
0.00106036
-0.00123427
-0.00175227
0.00118842
0.00179811
0.000148977
0.00161166
-0.000746219
-0.00101441
2.03212e-05
-0.00155706
-2.33125e-05
0.00156005
0.000256088
0.00139847
0.000329884
-0.00198444
0.000203747
0.00139805
-0.00147295
-0.000128843
-7.47383e-05
-0.00109364
0.00137212
-0.00089471
-0.000757645
0.000384949
0.00126741
0.000841606
4.8315e-05
-0.000889921
0.00135827
0.0013037
-0.00157375
-0.00108822
1.71254e-05
-0.00108206
0.00106494
0.000302562
0.000131834
5.99457e-05
-0.000494342
-0.00142038
-2.27976e-05
0.000469878
0.000973302
-0.00104626
-0.000536684
0.00158294
0.000845584
-0.00111025
0.000393582
-0.00012892
-0.00146896
0.000185134
0.00134023
-5.64048e-05
-0.00148
0.00179848
-0.00141293
0.00109445
-5.91188e-06
-0.000888798
-0.00114272
0.00111069
3.20329e-05
-0.00147865
-0.000770736
0.000146034
0.00210335
-0.000136582
0.0013004
-0.00116382
0.00103751
-0.000815781
-0.000221728
0.000925021
-0.000930932
-0.00111197
-1.85203e-07
0.00111215
0.000508605
0.00138602
-1.33929e-05
-0.00188123
-0.00113552
0.000173009
0.000962512
-0.0012633
-0.000444592
0.00131581
0.000392086
-0.00190957
0.000262469
0.00186421
-0.000217113
0.000944201
-0.000916814
-2.73868e-05
-0.000726215
-0.00101909
0.00390905
-0.00216374
-0.00148232
0.000543013
-0.000373402
0.00131271
-0.000750796
-0.00017947
-0.00117524
0.0021055
-4.27248e-06
2.69819e-06
0.0013069
-0.00130533
0.000708461
-0.00209741
0.00285907
-0.00147012
-0.00121625
0.00121198
0.00155708
0.000401066
-0.00190735
-5.07953e-05
0.0010853
0.000148491
-0.00136321
0.000129417
0.000950355
0.000445366
-0.00159417
0.000198452
0.00090359
0.000181706
-0.000541831
0.00169142
-8.92255e-05
-0.00106037
0.000326686
-0.00148646
0.00190081
-0.000741028
-0.00167253
0.000121896
-4.27824e-07
0.00155106
0.000972751
0.00374422
-0.000593796
-0.00412317
0.000450127
0.000343071
-0.000596688
-0.000196509
0.000310158
0.0011236
-0.000508279
-0.000925483
-0.000905619
0.00088429
-0.000520502
-5.05436e-06
0.00169152
4.95643e-06
0.00133532
-0.00135026
0.000214008
-0.000199063
0.000316173
-0.000105606
0.000806855
-0.00101742
-0.00130094
0.00126669
0.000182745
0.000392561
-0.000768648
-0.00087994
0.00125603
0.000541992
0.00150816
-0.00150679
0.00112912
-0.00147853
0.000199699
0.000149714
0.00111299
1.95045e-07
-0.00111318
0.00242812
-0.00249726
0.00202066
-0.00195152
0.000370258
-0.000955493
-0.000476571
0.00106181
0.000384902
0.000204412
-0.00163409
0.000973994
-0.000580731
0.00124083
-0.00200268
0.000452174
0.0016851
-0.000134595
-0.00156208
-0.000862147
0.00313269
-0.000158921
0.00191862
-0.000633712
-0.00112599
0.000924593
-0.000466556
0.00171247
-0.00217051
0.000184422
-0.000870261
0.000741014
-5.51751e-05
-0.000382603
-0.0012557
0.00144248
0.000195823
0.0010811
-0.000611828
-0.000439657
-2.96109e-05
0.000548051
0.000229707
0.000290549
-0.00106831
-0.000776212
0.000995615
-0.000219403
0.000889423
-0.000828532
0.000123531
3.05354e-05
-0.00135782
0.00132729
0.00104326
-0.00121555
-0.000210305
0.00026465
0.00118147
-0.000265089
-0.00118103
-3.99424e-06
-0.000963846
0.00096784
0.000524872
0.00161288
-0.000883508
-0.00125424
-8.83898e-05
-0.000630095
-0.00042906
0.00114754
-0.000294674
-0.0016219
1.07084e-05
0.00190587
-0.00102994
0.000416977
0.00125933
-0.000646363
7.62819e-05
0.000966975
-0.000857645
0.000933926
0.000926256
0.000247601
9.96178e-05
-0.00127347
-0.000489263
0.00218874
-0.000142403
-8.92257e-05
-0.000621662
0.000566717
0.000144171
-0.000206145
0.00243519
-0.000115506
0.00197589
-0.00102621
-0.000424807
0.00225371
-0.000275454
-0.00120933
0.00180751
-0.000322726
-0.00228038
0.0019149
0.000937762
-0.000572278
5.77212e-05
0.00104784
0.000870331
-0.00100401
-0.00131891
0.00139239
-0.000716487
-0.0009883
0.0019098
-0.000205009
0.000740337
0.000843253
-0.00158359
2.62027e-05
0.000168856
0.00222427
-0.00241933
-0.00117463
0.000992975
0.00144024
-0.00125858
0.00135764
-0.00214587
0.00172482
-0.000936594
0.000449862
-2.2856e-05
-0.000427006
-0.000923921
-0.000517186
0.000171924
0.00126918
-0.000473731
-0.000679157
8.94715e-05
0.00117073
-0.000968883
-0.000291321
0.000984407
-0.00102498
4.05684e-05
0.000109479
-0.00130635
0.0013785
-0.000181625
0.00114615
-0.00282833
0.00139765
0.000284537
0.000655368
-0.000874263
0.000218895
0.000867491
-0.000110779
-0.000859828
0.000103116
-0.000174029
-0.00286951
0.00259039
0.000453144
-0.00113296
0.000195139
0.00132033
-0.000382513
-0.00118631
3.82048e-05
0.0011481
0.00118295
0.000200048
0.000785235
-0.000590193
-4.9027e-05
0.00152864
0.00010278
-0.0016814
0.00140459
-6.40154e-05
0.00116672
-0.00110271
-0.000816956
0.000505901
0.00135506
-0.001044
-0.000185993
0.00155266
-4.38283e-05
-0.00132284
-0.000187238
0.00144232
-0.000975386
-0.000279692
-0.00100244
-2.22186e-05
0.00118132
-0.000156661
0.00083242
-0.0017401
0.000949974
-4.2293e-05
-0.000891555
0.000696973
-0.000716482
0.000911063
0.000863738
3.41362e-05
-0.000100879
0.000132404
-0.00125903
-0.000303385
0.00143001
-0.00025813
-0.00138333
0.000618344
0.00102312
0.000493546
-2.11317e-05
0.00113429
0.000275131
-0.00138829
0.000581734
-0.000410084
0.00117228
-0.00134393
-0.000751441
0.000930955
0.00124244
-0.00142195
0.00203437
0.000510703
-0.00205153
1.73971e-07
-0.00121049
0.00121032
7.48709e-06
-0.00122643
0.00127535
-5.64108e-05
2.39189e-05
0.00131066
-0.00117888
-0.000155701
0.000394341
-0.00198937
-6.49561e-05
0.00165999
-0.00110095
0.00132101
-0.000220053
0.000202251
-9.24081e-05
0.0013259
-0.00143574
-0.00102586
0.000227836
-0.000709006
0.00107355
-0.00143077
0.00106622
-0.000327224
-8.10722e-05
0.000408296
0.00324053
-0.00158162
-0.000703462
-0.000955452
0.00130479
0.00334327
-0.00140753
0.00216043
-0.00199884
0.000188989
0.00110084
-0.000852254
0.00121911
-0.000386519
1.96666e-05
-0.000256903
4.99464e-05
0.00178954
-0.001251
0.000470911
0.000960669
-0.000180585
-0.00105227
0.00174107
0.000130785
0.00122123
-0.00139806
0.000708613
-0.000531783
0.000181392
0.00245659
-0.00243573
0.000735105
6.38407e-07
-0.000735743
-3.79857e-07
-0.000956609
0.000956988
0.00170507
0.000137896
-0.000381595
-0.00146137
0.00221021
-0.000712141
-0.000935262
-0.000562808
-0.000139817
-0.00280383
0.000846244
-8.60726e-06
-0.000679291
0.000687898
0.00147048
-0.00134927
-0.00133355
0.00121234
0.00106481
0.000444015
-0.00125274
0.000864083
-0.000532508
-0.00131813
0.000986555
-0.0010428
-9.42258e-06
-0.00080349
0.00185571
-0.00159304
-6.82372e-06
0.00159987
0.000993011
9.3751e-05
-0.00105662
-3.01389e-05
-0.00127231
-2.08166e-05
0.00129313
6.42943e-05
0.00107031
-0.00113461
-0.000782629
0.00173422
-0.000125976
-0.000825619
-0.00187843
0.00226234
0.00142708
-0.00181098
0.000901218
0.00076938
-0.000208431
0.00133807
-0.000865022
-0.000264621
-0.000229787
-7.79218e-05
-0.00115528
0.00146299
0.00130449
-0.00114734
0.000912626
-0.00106978
-0.00123774
0.00128824
-5.05013e-05
-0.00151431
0.000253317
0.00130058
-3.95915e-05
-0.00264262
0.000528657
0.00201037
0.000103592
0.000260872
-0.000334662
-0.00130887
0.00138266
0.00190151
0.000181185
-0.00109221
-0.000990489
0.00103468
-0.000786559
-0.00104217
0.000794045
0.00119115
1.19813e-05
-0.00120313
0.00011011
-0.00202613
0.00148247
0.000433552
0.000752773
0.000448906
-0.000300462
0.000273721
-0.000881836
0.00128577
-0.000677658
-0.000545329
0.000529508
-0.000121954
0.000137774
-0.00362618
0.00437318
0.00141028
-0.00215729
0.00181973
-1.18976e-05
-0.00181892
1.10945e-05
9.16438e-06
0.00146347
-0.00157285
0.000100225
-0.00219282
0.00192113
-0.000510941
0.000974379
0.00121974
-0.00110392
-0.00109019
-0.000967718
-6.94972e-05
-0.000105247
0.00114246
0.00101054
5.27173e-05
-0.00106326
0.00128827
-7.10641e-05
-0.00121721
-0.00227761
0.00214629
8.45019e-05
4.68136e-05
7.04883e-05
0.00146774
-7.17869e-05
-0.00146644
0.000909433
0.000458529
-0.0029775
0.00160953
-0.000630636
0.000630642
-6.17429e-09
0.00092418
2.11607e-06
-0.000926296
-4.63272e-07
-0.00055687
0.000557333
-0.000530741
0.00108031
0.000725872
-0.00127544
3.54005e-06
-0.00114345
0.000897108
0.000242805
-0.0012832
-0.000526049
-0.000468357
3.24774e-06
-0.000888544
-0.000132227
0.00101752
-0.000687393
1.28567e-05
0.000674537
0.000235012
0.000729252
-0.000237595
-0.000726669
0.000502841
-0.000895074
0.000392234
-0.000243039
-0.000833077
-0.000310432
0.00138655
0.000709499
0.000940625
0.000138605
-0.00178873
0.00185642
-0.00067519
-0.000601584
-0.000579649
-6.80672e-05
-0.00153317
0.00178692
-0.000185678
0.000736143
0.000387781
0.000211834
-0.00133576
0.0023203
0.00103345
-0.00217624
-0.00117751
-2.8426e-06
0.000587582
-0.000584739
-0.00137313
4.09064e-05
0.000317724
0.0010145
-0.00134583
-0.000149411
0.00153111
-3.58642e-05
0.000374583
-0.000468983
0.00191413
-0.000476423
0.000629244
-0.000152821
0.000937428
2.69454e-05
-0.000964373
0.000194407
0.000122395
-0.00123669
0.000919891
0.00131899
-0.000130226
-0.00122685
3.80916e-05
-0.00111343
-7.61852e-07
0.000237849
0.000322023
-0.001461
0.00090113
-0.00135679
9.78362e-05
0.00125895
-5.32429e-05
-0.000949196
-0.000123771
0.00208952
0.000147247
-0.002113
0.0011165
-0.00118251
6.60182e-05
-0.00119418
0.00118139
1.27897e-05
0.000959577
-0.00108335
0.000262538
0.00087631
0.0010891
-0.00222795
-0.00117263
-0.000640147
0.00181277
-9.07526e-06
0.000836222
-0.000827147
-1.95745e-05
-0.00090959
0.000929165
0.00111452
-0.00110769
-6.83779e-06
-0.00123531
4.73899e-05
0.00124198
-5.40663e-05
0.000302138
-0.00139076
0.0010622
0.000693737
0.000583363
-0.00233827
0.00106117
0.000721227
4.94543e-06
-0.000726172
4.73445e-05
0.00136518
-0.00141253
0.00067203
2.42662e-06
-0.00153956
0.00137049
0.00129891
-0.00112984
-0.000969644
0.000122925
0.00124342
-0.000396703
0.00169647
-0.00244432
0.000590937
0.000156913
-0.00218937
0.000487473
-0.00104584
0.00115608
-0.000110234
2.53962e-05
-0.00115974
0.00113434
-0.00100315
-1.98751e-05
0.00102303
-0.00117456
6.29347e-06
0.00116827
0.00112362
-0.00123203
0.000108405
1.40094e-05
0.00173512
-0.00174913
-0.000256879
-0.000234224
0.00124388
0.00123781
-0.00129281
-0.000883955
0.000938947
-0.000698663
0.000127294
0.00135654
-0.000785173
0.000666992
-0.0015686
-0.000101545
-7.29207e-05
0.00153348
-0.00146056
0.0004549
0.000424172
-0.000580051
-0.000299021
-0.000706418
0.00115822
-0.00139178
0.000939988
-0.00112384
-0.000426919
0.00155076
0.00227615
-0.00140325
-0.000872904
-0.000432104
0.00163506
0.00107134
-0.0022743
-0.00118637
0.0014389
-0.00143574
0.0011832
0.000508831
-0.000382338
-0.000584561
0.000458068
2.1248e-05
-1.36429e-05
-0.00127992
0.00127231
-0.000120116
-0.00180172
0.00192184
0.000404993
5.33164e-05
-0.00152678
0.00106847
-0.00150305
0.00116644
0.000336617
-0.000702811
-0.000351915
0.00101383
4.08973e-05
-0.000991028
0.000985987
5.04124e-06
0.000963437
-0.000814834
0.00120904
-1.03633e-05
-0.00157778
0.00158069
7.45289e-06
0.00304721
-0.000787982
-0.00152944
-0.000729786
-0.000471149
0.00166293
7.97292e-06
-0.00119976
-0.000550097
0.000819094
0.00045737
-0.000726366
-0.00132476
0.000778042
0.00137623
-0.000829505
0.000727336
-0.000868492
-0.000339381
0.00150744
3.97574e-05
-0.00120781
0.000906334
-0.000999646
0.000103566
-0.00213752
2.41044e-05
-2.1126e-05
0.00213454
-0.000297315
-8.38149e-05
-0.000799625
0.00118075
-0.00108437
0.0013948
-0.00110853
0.000798088
-0.00247904
-0.000334649
0.00260754
-0.00160746
2.27366e-05
0.00160915
-2.44324e-05
0.00100649
0.000162801
-0.000678807
-0.000490487
-0.000317301
-0.00123361
0.000655419
0.000895489
0.00106768
-0.000418643
-0.00140725
0.000758207
-0.00138744
-0.000357662
-3.09282e-05
0.00177603
0.00111012
-0.000136197
-0.00101856
4.46347e-05
0.000940085
-0.000944072
3.98743e-06
-0.000745547
0.0024268
-0.00201604
0.000334789
0.000156319
0.00143145
-0.00230355
0.000715787
-0.000945311
-0.000307774
0.000993413
0.000259672
0.000330125
-0.000316896
-0.000958541
0.000822377
3.31591e-05
0.000161056
-0.00101659
-8.80668e-05
0.000615805
-0.00266525
-0.00138855
2.849e-05
0.00178203
-0.000421963
-0.000995178
0.00116128
-0.000166105
0.000489782
-0.000459339
-0.000649085
0.000618643
-0.000700627
-0.00128676
0.000808934
0.00117846
-0.000577192
0.00179593
-0.000661467
-0.00055727
-0.00148021
1.02601e-05
-0.0012957
0.00161557
-3.92487e-05
3.46197e-05
-0.00128144
0.00128607
0.00123736
0.00132702
-0.0014103
-0.00115408
0.000982106
-0.00101301
3.09002e-05
0.00125366
-7.86464e-06
-0.0012458
0.00106974
-0.00124164
0.000351285
-0.000179379
-0.000312021
-0.000915247
0.00222068
-0.00164465
0.00141174
-0.000212787
0.000445705
0.000547119
-0.000744567
0.00176753
-0.00157008
-0.00157608
-0.00114984
0.00187382
0.00085209
-8.45337e-05
-0.00173661
0.000176489
0.000274851
-0.00144881
-1.18834e-05
0.00118585
0.001335
0.00035159
0.00180879
-0.00158399
-0.000594412
0.000369614
-0.00133912
0.00132917
0.00108382
-0.00107388
0.00101467
0.000503303
-0.00115195
-0.000366025
0.000508361
-0.00111698
0.000927908
-0.000319287
0.00139175
-0.00114097
-0.00181294
0.00156216
0.00145933
-0.00162442
8.05488e-05
-0.000901069
0.000905038
-3.96887e-06
0.00011262
-0.000102101
0.00151071
-0.00180488
0.00170268
-0.0014085
0.00111972
-0.0010071
0.00113741
-0.00122995
-3.7603e-05
0.000130146
-2.44457e-05
-0.000519487
0.000543932
-0.000123567
-0.00103694
0.00124387
-8.33714e-05
0.00191012
-0.00171907
0.000135752
-0.000326803
0.000204313
-0.0022669
0.000184153
0.00169606
-0.001736
-0.000187501
0.000227439
0.000371551
0.000279054
0.000461247
-0.00111185
-0.000100996
0.000948671
0.000923879
-0.00177155
-8.04602e-05
-0.00117135
-0.000325272
0.00157708
-0.000570262
0.00170885
-0.000464639
-0.000673954
-0.00106834
0.000453079
0.001685
0.00104581
-0.00211865
0.000232264
0.000840572
-0.00030533
7.1395e-05
0.00193
0.000313033
0.00142702
-0.000488582
-0.00125147
-5.18359e-05
5.39969e-05
-0.00123909
0.00123693
0.00185861
0.00010445
-1.30837e-05
-0.00194998
0.00103639
0.000454096
-0.000412047
-0.00107844
-0.00112278
-0.000479898
0.000534343
9.1919e-05
0.000648199
-0.000657844
-8.22738e-05
0.000189501
1.63504e-05
-0.0014475
0.00100858
-0.000527313
-0.000136939
-0.000344329
0.000148167
0.000701588
-9.81244e-05
-0.00075163
-0.00112207
0.00096295
0.00120494
0.000743301
-0.00323126
0.000629973
0.00185798
0.000176842
-2.98211e-05
3.30067e-05
0.00127208
-0.00127527
0.00220461
-0.000708037
-0.00073217
-0.000764407
-0.00107612
1.36718e-05
0.00147784
-0.00041539
-0.000136292
-0.0010383
0.00125229
-7.7692e-05
0.001043
-0.0014221
-0.00069468
0.00107379
-0.000986744
0.000958574
2.81699e-05
-2.94937e-05
0.000952357
-0.000922863
-0.00046613
-0.00109053
-0.000402438
0.0019591
-0.000810172
0.000907268
-9.70958e-05
-0.000152963
-0.00132768
-0.000334601
0.00181524
-0.0023432
0.00086387
-0.0012788
0.00275813
-0.00160391
3.71434e-05
0.00156677
0.000757879
0.000839144
-0.000810992
-0.000786032
0.000976152
-0.00055923
-0.000184669
-0.000232253
0.0013038
2.83818e-05
-0.00133218
0.00124571
-0.00372525
0.000136338
0.000845564
-3.13728e-05
-0.000814192
-0.00144436
-0.000572997
0.00194078
7.65783e-05
-0.000876867
0.00452866
-0.00277259
-0.000879206
-0.00263805
0.00317647
-0.000465201
-7.32239e-05
0.00157678
-0.000908689
0.00219098
-0.000771822
-0.00168096
0.00248287
-3.0086e-05
-4.83027e-06
-0.000121806
-0.000680348
0.000806984
0.00148836
0.00190608
-0.00216798
-0.00122646
-0.00152934
0.00180797
0.000496114
-0.000774739
0.00169575
-0.000310946
-0.00066319
-0.000721614
0.000145383
-0.00108561
-0.000188546
0.00112877
-0.00322221
9.97231e-05
0.0016492
0.00147328
-0.000591302
0.00225044
-0.000872472
-0.000786669
0.000382051
-0.000937495
0.00178658
-0.00123114
-0.000193149
-0.000553031
0.00104585
-0.000299667
-0.000918768
0.00097762
-6.24377e-05
3.5853e-06
0.00160061
-0.00180674
-8.66779e-05
0.000292807
-4.87207e-05
-0.00159581
0.00160845
3.60877e-05
0.000130414
-0.000116286
-0.00152643
0.0015123
0.00220871
-0.000362554
9.40459e-05
-0.0019402
-0.00145324
-0.000305387
0.000372924
0.00138571
0.000491612
-0.000491625
1.31484e-08
0.0010893
-0.000741141
0.000726799
0.000226325
0.00208679
-0.00012477
-0.00218834
-0.000333306
0.000222336
0.000278603
-0.000167632
-0.00162885
-0.00202537
0.00292801
-0.00115806
0.00132611
0.00126298
-0.00143103
-6.503e-05
0.0012922
-0.00163012
0.000402949
-0.00123955
-0.00129809
-8.23604e-05
-0.00033438
0.00171483
-7.02375e-06
-0.000660541
0.000667565
-7.60245e-06
-0.000952222
0.00221979
-0.00125997
0.000650555
0.000916144
0.00163433
-0.000818302
7.66085e-05
-0.000892631
0.000717875
-0.000199445
-0.00119857
0.000680142
0.000901561
4.29011e-05
-0.00137384
0.000429379
-0.000649001
0.00053752
0.00203442
-0.00192294
0.00174325
0.00124582
0.000163177
-0.00315225
-0.00155844
-9.83832e-05
0.000315741
0.00134108
-0.00130656
0.00139167
-8.51087e-05
-9.11255e-05
0.000865388
-0.000129781
-0.000644482
-0.00026796
0.00055118
-0.00028322
0.00109025
0.00154932
-0.000695657
-0.00194391
0.000933196
-0.000934035
8.38736e-07
-0.00264369
0.000617084
0.00147719
0.000549416
0.000107173
-4.72278e-05
0.00128426
-0.0013442
0.000822259
3.41919e-06
-0.000825678
0.00168882
-0.00187532
-0.00120429
0.00139079
-0.00148672
-0.0028719
0.00171494
-0.000290469
0.000187605
0.00119568
-0.00109282
-0.00051232
0.00155844
-0.000164334
-0.000881783
0.000320291
-0.0008466
0.00124418
0.000973911
4.67186e-05
-0.00102063
0.00289242
-0.000699372
0.000171908
-0.00236496
0.00109293
0.000312772
0.000699756
-0.00167179
0.000803471
0.000168562
-0.00175995
4.98385e-05
0.00131963
0.000390486
-0.000328167
-0.00072403
0.000767102
0.000285095
0.00103133
-0.0013281
0.000296768
-0.000365139
-0.000709917
0.00107506
0.00091058
-0.000589648
-0.00103367
0.000712742
-0.000390015
-0.000217005
0.00156008
-0.000953065
-0.000766341
-0.00122497
0.000947768
0.00104354
-0.00150503
0.00137438
-2.55163e-05
0.000156165
-8.76254e-06
-0.000928733
-0.000225009
-0.000820704
0.00103524
1.04676e-05
0.00156999
-0.00147643
0.000428706
-0.000522275
0.00238294
-0.00237115
0.00108114
-0.000415451
0.000456056
-4.06052e-05
-0.000871003
0.0008597
1.13029e-05
-7.87365e-05
0.00109041
0.000372501
-0.00138417
-0.000691268
-0.00108915
-0.00042969
0.00221011
-0.000645524
-0.00049605
0.00224166
-0.00110009
0.00110985
0.000297602
-0.00148619
-0.000214391
0.00165447
-0.00075224
-0.000687844
0.000235185
-0.00109263
-0.000478897
0.00133634
-0.000304484
0.00018717
-0.0015233
0.00164061
0.00151747
-0.00109889
-0.000839999
-0.000626488
-0.000186879
0.00165337
0.000453043
-0.000229575
-0.000227058
3.59002e-06
-0.00177938
0.00207583
-0.000211442
-8.50081e-05
0.000581175
0.000641819
-0.000610885
-0.00061211
-0.000244578
0.0012686
2.66726e-05
-0.0010507
0.00141763
6.04631e-05
-0.00126686
-0.000211236
-0.000174921
-0.00174036
-0.000431442
0.00234672
-0.000150273
0.00125956
-0.00110929
0.00152474
0.00129502
-0.00173588
-0.00108388
0.0010111
7.46517e-07
-0.00101185
0.000111314
-0.00133188
-0.000333241
0.00155381
0.00238337
-0.000340057
-0.00112024
-0.000923071
3.39301e-05
0.00239626
-4.68259e-05
0.00117146
-0.00111949
-5.19706e-05
-0.000421808
-0.00082147
0.00124328
0.00217767
-0.00058111
-0.00136862
-0.00101852
-0.000995937
0.0016744
9.48023e-05
0.000402994
-0.00157213
0.00107433
5.64997e-05
-0.00135669
0.000848712
0.000451477
-6.63321e-06
0.00118251
6.85921e-06
-0.00118273
-0.000230251
-3.16558e-05
-0.00111782
-0.000294176
0.00141199
-1.9025e-05
-0.000970241
0.000989266
0.00207632
0.000157711
-0.000133205
-0.00210083
0.000869602
-0.00161069
0.000388186
0.000352898
0.000548517
1.34407e-06
-0.000549861
-0.00158317
0.000258333
-6.39466e-05
0.00138878
0.000566896
4.19128e-05
0.00123644
-0.00184525
-0.000582825
0.000629062
-0.00174774
0.0017015
0.000174461
-0.000229333
-0.00163483
0.00168971
0.00116278
-0.00108624
-0.00249664
0.000284749
0.000736541
-0.000751317
-0.000762014
0.000776791
-0.000672315
0.000675193
-2.87816e-06
-0.00159848
-0.00056455
0.00239532
-0.000343185
-0.00148758
-0.000931587
-0.000283282
0.00126392
-4.90552e-05
0.000268457
0.00151826
-0.000581401
-0.00120532
-0.00300911
-0.00252845
0.000197096
0.00242342
-9.20595e-05
0.000179793
0.000129665
-0.00104289
0.000733432
0.00166677
-0.00153987
-0.00171994
0.0012151
0.000348062
-0.00156316
0.00173166
-0.000320208
-0.00123912
-0.000172328
-0.00103541
-5.73691e-05
-0.000699109
0.00179189
0.00170073
-0.00143858
-0.000506308
0.000244149
7.49067e-05
0.000527316
-0.00162522
0.00102299
5.64635e-06
0.000884386
0.000135615
-0.00102565
-0.000824986
0.00105043
0.000296723
-0.000522168
1.23256e-05
0.00145331
-1.14867e-05
-0.00145415
-0.00109797
0.00111029
-0.00102338
-2.2875e-06
0.00102566
-0.00167013
-0.000154229
0.000417824
0.00140654
0.00117466
-0.00114862
0.000687411
-0.000713447
0.000289876
0.00102039
-0.00110176
-0.000208508
-0.00141381
0.00206929
-0.000238194
-0.000417292
0.000823464
-0.000786866
-3.65982e-05
1.60605e-05
0.000652596
0.00171429
-0.00138145
0.00117765
0.00050708
-0.000303276
-0.000340574
0.00075888
-0.000418306
-3.54422e-05
0.00118654
-0.0011511
-0.00185958
0.000705308
0.000361767
0.000792503
-0.00333997
0.00243421
0.000921821
0.00247912
-0.000296437
-0.000424098
-0.00175859
0.000991701
0.000121639
0.000634621
-2.9436e-05
-0.000665033
5.98476e-05
0.000686738
-0.000538571
2.6803e-05
-0.00159544
0.00156863
-0.00275521
0.00197001
-0.000875207
0.00211122
-0.00142883
0.000192809
0.0014412
-0.00194932
0.000602922
0.0011079
-0.00202365
0.000390122
0.000525621
-0.0010291
0.00123609
-0.000206986
0.00214738
0.000449579
-5.27456e-06
-0.00259168
-0.00103172
0.00104051
-8.79131e-06
0.00280674
-0.00251562
0.000324683
0.00166339
-5.42819e-05
-0.00160911
0.00119367
-0.00121683
2.31623e-05
-0.00119339
0.000134075
0.00105931
-0.000459971
-0.00112923