/*--------------------------------*- C++ -*----------------------------------*\
  =========                 |
  \\      /  F ield         | OpenFOAM: The Open Source CFD Toolbox
   \\    /   O peration     | Website:  https://openfoam.org
    \\  /    A nd           | Version:  10
     \\/     M anipulation  |
\*---------------------------------------------------------------------------*/
FoamFile
{
    format      ascii;
    class       volScalarField;
    location    "54";
    object      SgRate;
}
// * * * * * * * * * * * * * * * * * * * * * * * * * * * * * * * * * * * * * //

dimensions      [1 -1 -3 -1 0 0 0];

internalField   nonuniform List<scalar> 
59698
(
0.0163667
0.00189842
0.00240476
0.00285599
0.0304239
0.00145199
0.00463018
0.000135759
1.98818e-09
3.92017e-09
0.000586478
0.000244773
1.58442e-09
0.00229226
0.000353784
4.28409e-07
6.94714e-06
0.000276263
3.50639e-05
0.000270942
0.00175918
0.0140363
0.000498744
8.81923e-08
0.0422225
0.000113945
0.000342006
0.0100365
0.00911243
0.00747894
0.00480868
0.000600625
6.69072e-08
0.0163422
0.00245867
0.000186479
0.0191669
0.020511
1.79589e-08
0.0249531
0.00863582
2.30465e-07
0.00369833
0.00064256
0.000402108
0.0321409
7.33486e-05
0.000731241
0.00315442
0.000211822
0.00151583
0.000169392
0.00206578
0.00273444
0.0113479
7.42121e-05
0.00132402
0.000213023
0.000806616
0.00273424
0.00525022
0.000498489
0.122
4.30604e-05
0.0124603
0.00160961
1.75116e-09
0.000271069
2.57007e-05
6.76588e-09
6.06527e-07
0.000252392
0.000364177
0.0417943
0.000411953
0.0391897
0.000118818
0.00924282
0.000359781
0.00617604
0.00887085
0.000476635
3.99151e-09
5.91287e-05
0.00859123
0.00055217
3.64059e-06
4.05028e-05
0.0635785
0.0001294
4.51201e-09
0.00206083
0.0148387
1.11095e-05
7.38621e-05
0.00375008
0.00537369
6.04423e-06
0.000266654
8.59937e-10
0.0770559
0.00181172
0.0162836
0.0154214
0.000574462
0.000564777
6.71564e-05
0.000403215
2.67666e-09
4.3968e-10
0.000690538
0.000364713
0.0381056
1.56283e-07
1.0111e-07
3.55979e-08
3.61811e-07
0.00366205
3.03039e-07
1.14002e-08
2.35599e-09
0.000703834
2.33816e-07
3.45965e-09
1.68249e-09
8.10873e-09
0.0108244
7.20054e-09
1.30534e-08
3.99579e-07
0.0450645
3.98257e-09
1.10386e-09
0.100144
0.0043045
0.00440765
5.08354e-07
2.23031e-10
0.000168697
0.000130824
6.92957e-05
0.00231873
0.00269603
0.00266842
1.97256e-07
0.00069276
5.54145e-07
3.92836e-07
0.00465146
0.0292809
0.000299421
0.000434378
0.00148204
2.63807e-07
0.000161362
0.000343238
6.02531e-05
0.00168829
0.012462
6.03621e-10
0.000863689
7.9809e-09
0.0163572
0.00162588
0.00338236
0.0345143
0.000322427
0.0722162
0.00202567
0.000412845
0.0119089
1.47574e-06
0.0107967
0.0146403
0.0790829
0.0019458
4.38177e-09
0.00144662
0.000326017
0.00924538
0.00944177
0.0181828
0.0148024
1.16228e-08
0.0458843
0.000235694
0.0114752
0.00247927
1.43962e-10
0.0011811
0.00040621
6.72757e-05
0.00265479
0.0386213
0.00407028
0.00472625
0.00985235
0.0586062
2.71707e-05
0.00774801
0.000227088
0.00610118
0.021188
6.61409e-05
0.0104559
0.00276836
0.00610627
0.00286372
0.00782475
0.011464
0.00256056
2.35878e-05
0.00279323
1.56713e-08
0.00409171
0.0034897
2.46057e-05
3.5981e-05
0.0127893
0.00661951
0.00562183
0.00268337
0.000276169
0.0662072
0.000823052
0.0263849
0.00733613
0.00324523
0.00689488
0.158688
7.5369e-09
0.00471101
0.00292439
0.00323349
9.86535e-09
0.009642
0.0831093
1.90864e-05
4.02611e-05
0.000442791
0.00270687
0.00147694
0.0135064
0.000664542
0.00611182
6.1124e-05
0.00377311
0.229626
0.00122076
0.000477338
0.000703376
0.00164665
0.000629543
0.000233554
0.000319651
0.00239331
0.00601115
0.00128651
0.00336076
2.98965e-09
1.47901e-05
1.83564e-09
0.000392538
0.00592367
0.0047251
0.0477781
0.000269741
1.06682e-07
0.000237276
6.19728e-10
0.000202129
0.044052
0.000223328
6.8686e-10
0.0179512
0.000205996
0.00151623
0.000509938
0.00210685
1.2308e-09
0.000574132
4.61111e-05
0.000297591
0.105233
0.0491855
0.0201
0.000134611
0.000647476
0.0730914
0.000445379
0.0908838
0.00234005
0.000216366
0.000250845
0.000322067
0.00292079
0.000356463
0.000804465
0.00422868
0.00045067
0.00272419
2.23649e-09
6.86639e-08
0.000823329
4.32663e-05
3.85992e-05
0.0519631
0.00101003
2.01136e-06
0.000228221
0.00196816
4.23193e-08
0.000171442
2.37967e-08
0.00193944
0.00513338
0.000403389
0.000392065
0.000829308
0.00080496
0.000341037
0.324276
0.000319993
2.97063e-09
0.0481067
0.0103789
0.0003275
0.000352823
0.000438536
0.000361922
0.00928904
0.00417379
0.0202618
0.207385
0.000430955
1.90744e-05
9.91778e-06
0.000664409
0.00911755
0.0044979
0.010244
0.00206596
0.00270678
0.00147451
9.67951e-05
1.41562e-09
9.90894e-05
0.0393606
4.778e-05
0.00204892
0.00799961
5.29504e-07
0.040131
7.95622e-10
0.243839
0.00217304
0.0140917
1.48979e-08
2.64815e-05
1.82475e-09
1.8979e-05
8.76374e-06
1.10454e-07
0.000882683
1.37097e-10
1.04127e-07
0.00285646
0.00203048
0.000108096
0.00166506
0.00189847
0.000533998
0.00379309
0.00065112
0.00619232
2.98572e-09
0.00018314
2.13327e-09
0.000460541
2.49176e-09
0.000347124
0.000565176
0.000125058
0.000523804
0.000118989
1.9702e-05
0.000210612
0.000544828
8.76521e-10
0.000131743
8.75306e-05
0.000457504
0.00456294
0.00257868
0.00134802
0.00227494
0.0483304
0.00189953
0.00333211
0.000324561
0.00284733
0.00238741
0.00293054
5.75335e-06
0.00154976
0.00433345
0.0855363
0.0279917
2.21501e-05
0.00539504
0.0316025
0.000404298
0.00178509
0.000434526
4.90922e-10
0.059607
2.08431e-09
0.010369
0.00241054
0.00183828
0.00303841
0.00226152
0.0025276
0.311481
8.08797e-09
2.1253e-09
7.90238e-09
0.000221453
0.00143398
5.44318e-10
0.000262138
0.00214696
0.0163276
0.00303168
0.00212599
1.44057e-08
1.40067e-08
0.21376
8.52782e-07
0.00317645
1.92329e-07
0.00325785
5.07847e-09
2.47886e-05
3.40601e-05
0.00239752
0.0699404
4.51559e-10
0.000122476
0.00906912
0.00313081
0.000266727
5.90567e-05
0.033116
0.000283555
6.86902e-05
0.108245
1.391e-09
0.00959133
1.71011e-07
0.054128
4.92566e-09
0.0157316
0.0133257
2.18917e-09
0.000972866
0.00044465
0.00847684
3.3382e-05
0.00805307
0.0029246
4.4433e-09
2.01087e-10
6.91221e-09
0.000385328
0.000813007
0.00112928
0.0690966
0.00620955
0.00220121
2.432e-08
0.000496178
3.76024e-05
1.94495e-08
0.00544
4.88859e-05
5.98311e-05
0.000102207
0.0659188
0.00178391
0.0232196
0.0655877
0.00111835
0.000149909
0.0586207
4.46841e-05
0.000280933
0.0023694
0.00948539
0.000365618
9.70636e-10
0.0642656
0.00712685
0.00460106
1.71035e-08
1.1188e-09
8.46221e-08
2.16251e-09
5.5122e-09
0.00316245
0.000583758
0.0747946
0.00728822
5.41923e-08
0.0091261
2.83754e-09
6.89168e-09
1.05207e-08
7.04023e-08
2.48526e-08
0.00546907
0.00377712
5.35758e-09
3.87894e-09
2.18237e-09
0.00124826
0.00948744
0.000152275
0.0106464
0.00389971
3.00032e-09
0.0430309
1.82776e-08
2.53803e-05
0.00163144
3.565e-10
1.35531e-08
0.00185768
0.000113069
0.000384877
0.00966108
0.000354843
3.53725e-05
0.0682996
0.00818556
0.0135313
0.0101009
0.000173443
0.011704
7.81096e-06
4.16076e-08
2.28482e-09
5.46023e-08
1.91301e-09
0.000611646
6.40219e-08
1.92427e-08
0.00114779
0.00689088
0.000443282
0.000768495
1.75113e-09
3.71684e-08
9.3977e-05
3.31323e-05
1.80996e-09
0.0741761
4.15604e-08
0.00554149
0.000539255
0.00288436
0.000255367
1.97384e-07
0.00259856
0.00287768
0.00338441
3.30783e-10
0.00400988
0.00211781
2.31321e-09
0.000732637
0.000509183
0.00518487
9.8865e-05
0.00408835
0.000313358
0.00242535
5.15818e-05
0.00420291
0.00268931
0.00216178
0.00332295
0.00030981
0.000177091
8.52807e-10
1.37192e-07
9.29025e-07
0.0043247
0.000349776
7.34487e-09
0.00519492
3.36538e-05
2.81588e-09
0.00349774
0.00146754
0.00216165
0.000299248
0.00108758
0.00393094
1.58958e-08
1.29385e-08
0.000546583
1.14701e-08
0.00434011
0.00141965
0.00279416
5.12984e-09
0.224591
1.87897
7.58301e-09
5.02488e-09
0.000594417
0.00212935
0.000929393
0.00247987
4.82846e-05
0.00712963
0.00246144
0.00318635
0.00155341
0.00276835
0.000211199
8.78964e-05
0.00113702
6.18378e-05
0.0013384
0.000239025
2.95497e-09
0.00156929
0.109395
0.000237114
5.14313e-06
0.00060789
1.44946e-09
0.00242991
0.00382885
0.00047582
0.00244262
8.96701e-05
1.77129e-09
0.000439475
6.58822e-05
0.00827777
0.000798196
0.000582643
0.000115921
9.68363e-10
7.9688e-06
0.000327262
0.00203012
0.000307234
0.000815519
0.000894212
0.0197353
0.0907086
0.0013651
3.34018e-05
0.00233366
0.00319824
0.0415355
3.86114e-09
2.15715e-05
0.000830339
0.00354647
0.000255183
0.00168125
0.000428464
0.0108139
0.0472812
0.000123204
0.000422251
8.01963e-05
3.53431e-07
0.000378101
0.00140696
1.15872e-10
0.00215036
0.000257564
0.000191712
0.0114889
0.00439662
0.0395246
0.000805171
0.00138569
0.00211635
0.00244225
0.000242265
0.00118076
0.000650653
0.000262311
2.29501e-10
1.06469e-09
0.00660455
0.000820223
7.45281e-05
1.49252e-09
0.00639162
3.34295e-05
4.4095e-06
2.72011e-09
0.00343323
4.17938e-08
0.000504742
0.000362184
1.00214e-08
0.00198478
0.00923798
2.64082e-05
1.36213e-09
0.000646947
0.0617796
0.00323469
2.94208e-05
0.000947577
0.00146261
0.0256959
0.00888479
1.34922e-09
0.0554515
2.32921e-05
0.0025674
0.000344565
0.00941312
7.23951e-05
1.48108e-07
0.0112663
0.00449416
0.000532169
0.00307488
0.0598585
0.000516554
6.91661e-05
0.246693
0.00232641
0.000731352
0.00240627
0.00191904
0.00179283
5.30451e-06
0.0150894
2.57185e-09
0.0600461
0.00316843
0.0247452
6.85115e-10
0.000212134
0.104978
0.238683
0.000599771
2.23323e-05
0.0499381
0.000383645
0.00225172
0.00520028
0.00194282
0.00834046
0.00410872
7.85034e-09
0.000401553
0.00195383
0.0141974
0.000373922
3.50693e-10
0.00269249
2.5602e-09
0.00438171
3.35103e-05
0.000224852
0.00609822
0.00520279
1.23051
3.75427e-09
0.0246999
0.00972021
0.0210709
0.00104513
0.00470007
0.000326089
0.000990656
0.00162175
0.00150055
0.00670869
0.0111172
0.104463
0.00219117
0.00548818
0.000541475
6.91629e-09
0.000382981
0.000378798
0.000242537
1.62682e-09
0.00322375
6.43453e-05
0.00949309
0.000211805
0.00072258
0.00158241
1.65696e-07
0.0068805
3.5875e-09
0.00100439
0.000116669
0.00130438
0.000115361
0.0136998
0.000651796
0.00182854
0.0200695
0.210313
0.000136573
0.00882729
4.32911e-05
0.000724888
0.000444773
0.000428774
0.00380376
0.000847187
0.00749957
0.000561237
0.00628066
0.00254571
0.000603301
0.000401152
0.000210372
0.00031551
3.33832e-05
0.000503637
0.000274892
0.000320167
7.69698e-09
5.15953e-09
1.90364e-09
0.000487242
2.07655e-09
0.00558239
0.0049576
0.00153461
0.000499705
0.00405856
0.000376185
2.93917e-09
0.0158583
0.000469632
0.000422922
1.3019e-09
0.0358944
0.00489951
0.000874993
3.21982e-05
1.12135e-06
0.0105701
2.63805e-07
0.00979686
3.92083e-06
0.000532565
0.000487967
0.000128414
0.000183365
2.50217e-09
0.00134248
1.49003e-09
0.00890075
8.98244e-08
0.00209263
0.000108822
8.91054e-05
0.00163697
0.00164855
0.000597508
0.00192404
1.71932e-06
0.00202577
0.000307134
1.24158e-09
0.00212957
8.94578e-05
1.13179e-06
0.00424118
3.05417e-09
0.000268963
0.00373284
0.0183099
0.000319936
0.00106296
0.00297681
4.42961e-05
0.00460497
0.000633467
0.000584033
0.0044955
0.000149388
0.000379941
0.002452
0.00162585
8.57544e-09
0.00261702
1.20152e-08
2.92381e-09
0.0653057
0.000412233
0.00150021
0.00271739
1.49187e-07
2.03947e-09
0.00276412
0.00414851
0.00538872
0.0202011
0.00398366
6.52106e-07
0.0407122
9.37095e-05
0.00132627
0.114743
4.56122e-05
0.00458748
0.00452215
0.0324523
0.0583055
7.36193e-09
0.00254349
1.61681e-09
0.0247248
0.000271865
0.000345421
0.0014161
3.91894e-10
0.000761136
0.00245126
0.00057582
0.00195243
0.00676497
0.00282391
0.00328157
8.17827e-05
0.0250709
0.000727888
8.69966e-05
2.52003e-08
0.000825789
5.67511e-05
0.00238173
0.00107082
2.05564e-07
0.000105936
0.00552429
0.000295019
0.000164436
9.71187e-05
0.00542269
1.44989e-09
0.000123016
0.00960457
0.0035774
0.000294445
0.000414625
0.000265762
0.000129559
0.000423829
2.37449e-08
7.50301e-09
0.000429219
0.00234245
0.000466222
0.00039746
0.0141252
0.0187359
0.0177763
6.80625e-06
0.0018414
0.00291547
0.00270349
0.00481211
0.00594338
0.000406018
1.6605e-05
0.00255989
4.45193e-05
0.0109678
0.0564049
0.00197864
0.000443779
2.15466e-08
0.000538421
0.000105287
0.00114581
0.00228156
0.00233486
0.000608729
6.88431e-09
0.000131282
0.00237442
0.00235289
0.00231811
0.00377624
0.0473198
0.000395621
0.00190288
0.00142722
0.0227764
5.65678e-10
0.00039613
1.39581e-05
0.00460287
0.000453437
0.0015991
0.00468171
5.49417e-09
0.0035971
0.003565
0.00379161
0.00546678
0.00948102
0.0100953
0.00817246
0.00528702
0.00574716
1.83027e-08
0.000149102
0.000475233
0.00593652
0.00474126
0.00222945
5.26767e-10
0.00174184
0.00394975
0.000178792
0.00161883
2.77127e-10
0.0147827
7.83757e-05
0.0406698
0.00314985
0.736601
0.000136496
1.56401e-08
0.00211447
0.00317351
1.78213e-07
0.000760416
0.00398717
0.00699068
0.00431212
0.000637485
0.00681682
0.000542245
1.04721e-09
0.0197914
0.000765795
0.000932888
0.00115777
0.00267953
0.000323926
0.00112658
3.11734e-09
0.000534605
0.00817668
0.00271463
0.0921956
9.39564e-09
0.00240768
0.0821524
2.54769e-10
0.00879358
0.00277838
0.0251791
0.00130961
0.00361969
0.000238941
2.28708e-05
0.00132495
1.5479e-08
0.0012463
4.23287e-05
9.97184e-06
6.84698e-05
1.30251e-09
0.00177323
0.00323485
0.00969706
2.94806e-08
0.00231459
0.000518433
0.00016207
0.0362685
0.0544671
0.00504571
0.000369412
0.0042809
0.457166
0.0240153
0.0262784
0.000207441
0.000449091
0.102471
0.000136786
2.28867e-07
8.80169e-05
0.0166356
0.000267957
0.00170443
0.000327576
0.00174739
2.99229e-08
0.00463065
0.00901402
0.00288531
0.000644287
0.000738455
0.000477736
2.24985e-09
0.000141304
0.00364285
2.44748e-10
0.00114593
0.000585091
0.00777741
0.000262082
0.116545
6.04792e-05
0.00118561
3.02685e-08
0.00563476
0.000112923
0.00109852
0.00258226
0.000380629
0.00250674
7.00078e-08
3.3798e-08
0.00285875
4.47032e-06
0.0187706
0.0121813
6.525e-06
0.00150582
0.0837353
0.00296311
0.00400773
0.000272451
2.25127e-07
0.00368954
0.036237
0.00874363
0.00264705
0.00018302
0.00192621
0.00336402
0.00299745
0.00371473
0.00537511
7.53699e-09
0.115783
0.0512718
0.000490028
1.24614e-06
3.18577e-05
0.00312787
0.00244909
0.0261826
0.00113442
1.82052e-06
0.00229524
0.000371951
2.89485e-09
0.00355883
4.22149e-09
0.00269148
0.000210725
0.00148265
0.00377086
0.000101656
0.0195151
0.000118285
0.00043443
0.00363591
0.00413179
0.00204899
0.00211286
0.0119283
0.000579702
0.00034517
0.000374275
0.000263627
9.27655e-06
2.27499e-09
8.45058e-05
7.26582e-05
9.70349e-05
0.000781455
0.000646993
0.000855786
1.22056e-08
8.17752e-09
3.44904e-07
0.000317162
0.00284252
0.000496409
4.38748e-05
0.000238788
7.28183e-09
0.000315418
0.000232169
0.00022359
0.00389795
0.103423
7.15789e-05
0.00477367
0.00167624
0.00414016
4.89647e-09
4.30676e-08
7.19831e-09
0.00840355
0.0194377
0.00481982
0.00235754
2.25854e-08
0.000221761
0.000377611
0.00476619
0.00953151
1.04529e-08
0.00516372
0.0028463
0.00107656
0.00349451
0.00263962
0.0145217
0.0018913
0.00383591
9.72703e-05
4.63656e-10
1.38978e-09
5.26268e-05
0.00561456
8.23372e-06
6.14404e-10
1.52747e-05
0.00502291
0.000211186
0.00100822
0.00101784
6.03256e-05
0.00191192
9.69334e-05
0.00388662
0.000751233
0.00208579
0.0283619
0.00207305
0.0012239
6.1003e-05
2.25157e-07
0.00101899
0.000983776
0.0145634
3.21984e-10
1.21938e-07
0.00124065
1.22676e-07
0.000864533
0.000183058
1.49925e-07
6.8847e-09
0.0002155
0.000155161
0.000584267
0.00218841
0.002081
0.000184777
0.000574029
2.51993e-05
1.07316e-08
0.00568418
0.000203539
6.53758e-10
0.0475108
6.51823e-05
4.78383e-05
0.000284349
6.10939e-08
1.18771e-05
0.000547257
2.00439e-05
0.000563698
2.17435e-05
0.000952612
0.000349535
0.00274221
0.0043004
0.0012936
1.51904e-05
0.0630546
0.00238273
2.12071e-07
0.00607304
0.00289555
0.00670878
1.13354e-05
2.11965e-07
0.351999
3.70057e-05
2.48718e-08
3.5708e-05
0.025494
0.00302643
0.000635586
0.000492198
1.46066e-05
0.00321631
0.0361084
0.00482401
0.00871332
0.0142031
5.58887e-08
0.000340304
1.64647e-09
3.64863e-05
0.00828805
0.000746722
0.0747176
4.15842e-10
0.000476303
6.35032e-10
0.000532961
0.000313614
0.000377214
0.0104798
0.0181036
0.000544683
0.00184694
0.00450508
6.14519e-09
0.000241644
0.000988879
0.00202695
0.000398915
0.000824012
0.00750034
0.0107007
0.000591938
0.0017073
0.00266931
3.70108e-05
6.39551e-09
0.000432447
0.013802
0.011549
0.00503243
0.0472616
0.00269156
8.34201e-09
0.00522864
0.000183306
0.000681329
0.0010638
0.0223229
0.000287462
0.0205099
0.0115152
0.0340615
1.82191e-09
0.101353
0.00878667
0.00175474
0.00466791
0.064648
0.00039996
0.00282763
0.00240396
0.0023179
0.00798959
0.00112718
1.18709e-09
3.48997e-08
0.00203178
0.0248894
0.294058
0.000156303
0.00903281
0.000291542
0.0012553
0.000444877
0.1902
0.00061556
0.28704
0.782003
0.000103965
2.22746e-09
1.89874e-08
0.00136136
0.0106632
0.00562705
0.0101646
0.0633552
0.0340876
0.00183709
0.00163815
0.0103948
0.0113616
1.21342e-08
0.000535455
0.000427673
0.00035999
0.000419373
0.000637651
0.138208
0.000273669
0.00292571
0.000398952
0.00307696
0.00201958
0.00221777
4.55636e-10
0.479363
0.0314212
0.184647
0.148873
0.00217245
2.01839e-09
0.00650541
0.0012528
1.7404e-05
0.000761567
0.0851322
8.99305e-10
0.00178725
1.93511e-05
0.000207826
0.0165844
8.68039e-06
0.00854365
2.79444e-05
2.89698e-05
0.00158822
0.000601266
0.00112684
0.012984
2.93541e-05
0.00245273
0.00137895
0.0178953
4.9255e-09
0.000502803
0.00155078
0.0151894
0.00164791
0.000165636
0.00226388
0.0313608
0.000501835
0.000195816
6.34053e-09
0.0015536
0.00185048
0.00306783
1.45957e-08
2.88772e-05
2.91629e-05
0.000298097
0.00380533
0.00142432
8.20177e-08
0.00268909
8.21509e-10
0.010758
0.00114649
0.000804543
0.00191007
0.00171364
0.00952503
0.000578766
0.0137456
0.000302275
0.000423339
1.17256e-09
0.000378709
0.000405409
0.000581335
0.00196213
2.84723e-05
0.00163368
0.00946868
0.00173955
0.000460534
0.0187665
0.00225161
0.00130346
0.0145555
0.00744246
0.012303
0.0131386
0.00624348
1.64015e-07
0.321814
0.0624173
0.000808689
0.000573418
0.0148843
0.00091036
0.0242563
0.000104488
0.000403273
0.0142115
5.57898e-05
0.0067717
0.000614677
2.12518e-05
0.00755953
4.24023e-05
0.0312711
0.356846
0.00113648
0.0573535
8.42641e-10
0.000256107
0.00435144
1.69596e-06
0.104585
0.0024421
0.00173273
0.00050339
2.46947e-09
0.00341989
0.00279654
5.09785e-10
0.000489117
0.0264348
0.000618779
5.71744e-05
0.0619867
5.13553e-07
0.00271174
7.80795e-11
0.000345788
0.00241819
0.000152685
1.1919e-09
0.00218519
1.11143e-08
0.00251291
0.000523976
1.87839e-09
7.87771e-08
0.00438922
0.00210001
0.00279357
5.44236e-10
0.00221563
0.000625179
0.00279637
5.10817e-05
0.0319029
4.56936e-08
5.5957e-05
2.75068e-09
0.00168627
0.0371694
5.04954e-09
2.79715e-07
0.000274718
0.00254573
0.000453095
0.00195341
0.296225
2.56778e-09
0.000232175
0.00232204
9.17306e-10
3.74675e-09
3.97742e-08
0.000176145
0.00050253
0.000845161
0.000529726
0.000105412
0.000199835
5.87775e-11
0.0114619
0.000221125
0.000394062
0.00147987
0.00394916
0.00385478
0.0445835
3.00452e-10
0.000172066
0.000122611
8.51415e-05
0.000106804
0.00277824
0.000620101
0.00051408
0.000120102
0.000348243
0.000381681
2.84258e-09
4.27244e-08
8.41802e-05
0.022628
1.89053e-08
0.00855591
0.000123329
0.0155384
0.0011775
0.000118642
7.24575e-05
0.00436213
1.69276e-09
0.00410701
0.0192506
0.00222079
6.13966e-05
1.49289e-08
0.000150063
0.000858599
0.000347377
0.00386257
0.0163175
7.15411e-05
0.01038
1.08836e-09
0.878477
0.443353
0.000109977
0.0414664
9.60293e-05
0.000390578
0.00937713
1.04048e-05
0.602654
0.0441022
0.00755103
0.000620904
0.0283218
0.393637
0.00291711
0.025136
0.00437646
0.00223182
0.125032
0.0441026
0.000576129
0.000947938
0.0260151
0.0487598
0.00412354
0.000309248
0.0327513
0.000205319
0.0140705
1.11763e-08
7.16055e-10
0.0066286
0.000213452
0.00421544
0.00392907
0.000451514
0.00012834
0.000295398
1.08355e-09
0.00785061
0.00604931
2.82256e-09
0.000442822
0.00170122
0.00228615
0.00409783
0.000384366
0.0115719
0.063362
2.66642e-06
0.0333712
0.000141024
0.00431368
0.000154794
0.00222927
0.0304058
0.00412856
0.000218329
0.0270139
0.000304495
8.735e-05
0.000365598
0.000259112
0.000626648
0.00758733
0.025853
0.0146922
0.00733114
0.00549327
0.00105468
0.000110915
0.000354458
0.000129082
0.00413486
2.78458e-06
0.00482448
0.000390116
6.76613e-06
0.00159314
0.00147549
0.00177274
1.71661e-08
0.0101908
0.00187367
0.000246665
0.00336926
0.00027549
0.00183762
0.000459348
0.00679071
0.00263572
0.00503972
0.000437542
0.00632374
0.00293185
0.00040931
0.00238898
0.00311891
0.00198428
0.00153408
4.3985e-09
6.3102e-09
0.000240563
0.0347333
0.00179561
0.00703082
0.00184199
0.000150933
0.00334166
0.00843075
0.00228077
0.0025793
0.00362711
1.20762e-06
0.00187712
0.00190192
0.000431982
4.22272e-05
0.00300096
0.00277054
0.00797815
0.0288834
0.00167119
0.000365771
0.00300825
0.000327067
0.00425942
7.62789e-05
0.00614937
0.000356771
0.00278708
1.4695e-08
0.000733119
0.000924917
0.00721482
1.16438e-06
0.0198621
0.00617349
4.15347e-06
0.00138955
0.00159569
0.000251387
4.00342e-08
0.00247489
0.0219354
1.6048e-09
0.0378175
0.00208362
3.58764e-08
5.33492e-09
0.00188527
3.25107e-09
0.000880568
0.0138691
0.0230415
0.00208578
0.0117326
0.00153792
1.78603e-08
0.00437058
0.0145027
0.000445846
0.00163063
5.09975e-08
0.0826869
0.0419987
0.000193646
0.00243882
0.00154787
1.94478e-09
3.23833e-09
0.0337707
0.0086157
0.0158429
7.61789e-09
0.0010025
6.79496e-08
0.0193626
2.49367e-09
0.00338224
6.53149e-09
0.00104517
0.0201661
0.000624044
0.000396678
0.00444317
0.00150092
0.0026582
0.00160696
0.0235317
0.000226778
0.00208244
0.020005
2.06297e-05
0.000410058
0.000426458
0.000363298
0.00236924
0.0134055
0.000464904
2.30281e-08
5.26233e-05
0.00141177
8.47235e-09
9.83358e-10
2.10796e-07
2.65155e-09
4.85262e-07
3.77869e-05
0.0116666
0.0050023
0.000370112
0.000460348
0.000297801
0.0623406
4.02693e-10
5.04843e-09
0.0180723
0.0028066
0.00186082
0.00332017
0.000517997
1.49302e-07
0.0183376
0.00217017
0.0228963
0.000773443
0.0497373
0.0142437
0.000125098
0.0256587
0.0032627
0.0895529
0.00747397
5.63683e-09
3.53827e-05
0.256565
0.00667349
0.00100706
0.00308972
0.000159947
0.00335579
0.030865
0.0108393
0.00288762
0.143971
0.0063621
1.35797e-09
0.0177126
0.0639453
0.0346396
0.00132784
0.00261946
0.000210582
0.0031735
0.000666677
0.0188917
0.0197623
0.000894224
0.0522539
0.0229628
0.000629058
0.00262239
0.0136723
0.00323748
0.000695149
0.0502445
0.00261291
0.000113526
0.0107641
0.0108552
0.0218932
0.00261646
0.000270663
0.00279702
0.0162808
0.000358055
6.83638e-05
0.173044
0.00337866
0.0012268
0.00160769
4.67716e-05
0.00436858
2.63888e-09
0.0186663
0.00287918
0.0141003
2.5009e-09
0.00555281
1.12545e-08
0.0164648
0.000301463
2.81366e-09
0.00870754
0.00260372
0.00668017
0.00770538
0.00211007
0.0159046
0.000134051
0.0156707
0.00658743
0.00925603
0.0564004
0.00558442
0.029313
0.0345739
0.0170465
0.00114079
0.00452962
0.00265471
0.000976253
0.000916132
0.00397789
0.00222451
0.000636662
9.86754e-09
1.34221e-07
0.00238921
0.00133763
0.00127927
0.0536319
0.00324811
0.00276115
1.45638e-09
2.36352e-05
0.000451676
8.7488e-09
0.00258115
0.0299097
0.00254365
0.00192933
1.48814e-08
0.0170344
0.00255111
4.96352e-09
4.80219e-09
0.000217634
0.0346521
0.00687336
0.000513989
0.00230177
0.00447556
0.000220839
6.50578e-09
0.00491097
0.000429644
6.72503e-07
1.66354e-10
1.0459e-09
0.00187178
0.0022171
0.00104463
0.00858498
0.102858
0.000239267
9.40135e-10
0.00356664
0.00049176
0.0110971
0.00240484
1.81442e-08
2.08833e-08
0.00319727
9.88018e-09
0.0101131
0.0738044
0.0450894
0.000174863
0.00052584
6.26014e-08
5.50363e-09
0.00263447
0.00392073
0.000450589
0.00272526
0.0142018
0.00195304
0.000278334
0.0023104
0.000435602
0.0298739
3.38199e-09
3.70005e-08
0.0110298
0.00234375
0.000563163
0.00459338
0.000611817
0.000105722
0.000508251
0.00250143
0.0227244
3.99086e-10
0.000113958
0.000299977
0.00701804
7.78528e-05
0.000698921
3.58186e-09
0.00128989
0.00962414
3.60767e-05
0.0285954
1.03298e-09
5.08848e-05
0.00237392
7.49518e-05
0.000337831
0.00346178
0.00119833
0.00239814
5.8296e-06
0.00180358
2.12321e-09
9.83594e-10
0.00226702
0.00334997
0.00488992
0.29981
0.00164028
0.000953568
0.00223023
0.00295746
0.000282913
0.000244386
0.00370108
0.0021543
0.00309222
7.25111e-05
0.000904723
0.0139856
0.00279131
0.111893
0.000860662
0.0101608
0.0103222
0.0123953
0.0012579
9.04934e-10
6.37782e-09
9.65829e-09
0.000101189
5.07161e-09
0.000257581
0.0115518
3.40632e-11
3.36456e-09
0.00377338
5.83187e-09
6.64246e-08
0.0149407
0.00196555
0.00289316
0.00190898
0.00228231
1.66614e-07
0.00159069
7.09341e-05
0.0242811
0.0132359
0.010235
0.00191462
0.000139128
0.00158887
3.41245e-05
5.8298e-06
2.87895e-05
1.41376e-07
0.00168533
0.0110269
0.0068765
0.00145385
0.00184772
0.0022923
0.0023221
0.00176667
0.000341766
0.00411266
2.92523e-09
0.000264545
7.59683e-09
1.38852e-06
0.00275979
6.72121e-05
0.000334294
0.00227855
2.31107e-09
0.000392436
7.74239e-07
3.15508e-06
0.0535514
0.000489286
0.000673795
0.000310384
0.00341207
0.0022121
0.00192048
0.00343766
3.81094e-05
7.52518e-07
0.00105424
2.80755e-05
0.0194714
0.00321433
0.0241282
0.00158306
0.0511485
0.000790737
0.00168115
0.000412796
4.18286e-08
0.0037306
0.00010613
0.00166947
0.000102505
0.00224502
0.0192771
0.00166046
0.00232611
0.00867247
0.00239341
0.0108941
0.00360987
0.00163523
0.000934619
0.00507077
0.0297009
0.000302927
5.10261e-10
0.0635652
0.00888919
0.00651318
4.23593e-05
0.065586
0.00193088
0.0152892
3.22908e-05
0.0172245
0.00327968
0.00136155
0.00245145
0.00235309
5.50492e-09
0.0403164
0.0145586
0.0145694
0.00314584
0.00231869
0.00164402
0.00333207
0.000959747
3.26524e-09
0.00166363
0.00313808
2.93636e-08
0.000133588
0.00169068
0.0363252
0.00307776
0.000346423
9.63036e-08
0.000405978
0.00169226
0.000455167
0.00151699
0.000734145
1.50621e-06
0.0140754
0.000252025
0.000666942
0.00205705
0.0012611
0.000135164
7.54476e-05
0.000176169
0.00205091
0.00293989
3.52869e-10
0.000108276
0.000671935
9.51703e-05
1.56176e-06
0.0167345
0.000216265
0.00327853
0.00153968
0.00150366
0.00211243
0.00695851
0.00426724
0.000596069
0.00397921
7.33818e-05
0.00228161
0.00433877
9.16734e-06
0.00753302
0.00039174
0.00296589
0.00187262
0.100127
3.17252e-07
0.000187399
0.000347946
9.29248e-09
0.00137832
0.00297224
0.000185159
1.73025e-05
0.00137479
0.0053778
0.000582942
0.00287058
3.52684e-07
0.000461434
0.00947757
0.0024158
0.000142282
0.00216669
8.49052e-08
0.00420039
0.0033831
8.01813e-08
0.000264767
0.00365687
8.95783e-09
8.51197e-07
0.000344637
0.000199808
0.120077
7.82143e-06
0.000564484
0.00314539
0.000107871
0.0117304
8.84841e-06
0.00274723
7.64376e-05
8.76892e-05
0.000521953
1.86652e-05
0.000206981
0.0029515
3.83079e-06
0.00011197
0.000122437
0.018533
0.000602168
0.000349458
0.000355744
0.00217765
5.49201e-05
0.0031166
0.00457643
5.06722e-09
0.000360669
3.05803e-09
0.00116681
1.53018e-05
0.0124082
0.000304108
0.00158128
0.00219844
0.000126606
0.0849295
0.000383693
0.00306164
0.00110986
4.8212e-08
0.00237335
0.00498847
0.0266461
0.0111006
0.000410464
0.000294816
0.0380885
0.0398876
0.000563895
0.0179809
0.00845529
0.000394375
2.38036e-09
0.000636407
0.000341712
0.000316722
0.000460457
0.00429621
1.07978e-07
0.000162054
2.64995e-05
5.71876e-05
0.00600581
7.7457e-05
0.00246999
1.36058e-08
1.38961e-08
0.000199205
1.21998e-07
1.65924e-09
0.99999
0.000184597
0.019417
0.00306861
1.69624e-07
0.00029709
0.0177803
0.00188608
7.16022e-09
0.00238253
0.00563705
3.70369e-08
2.36172e-08
0.000404925
3.224e-09
0.00222326
0.000555825
0.00246472
0.00486802
5.71199e-06
6.90322e-05
0.0195883
0.00282844
0.00305913
0.000394484
0.00355324
9.58746e-05
9.30112e-05
0.00236675
0.00934676
0.0126411
0.00605755
0.000756248
0.000178837
0.00253827
0.00189776
0.0020297
0.00266397
0.00022882
0.00031061
0.00366273
0.00169248
0.00332998
0.00270904
0.000751612
0.00464855
1.07854e-09
1.4728e-09
0.0226228
5.1444e-09
0.000907494
0.00209364
0.00330748
0.00991501
0.0038513
0.000213311
0.00712397
0.0031179
0.000125133
0.00340501
1.50143e-08
1.32434e-08
1.85262e-08
0.00360832
0.0130035
4.6363e-08
0.00604794
0.00159236
0.151305
0.000166459
0.00371976
3.05888e-05
0.0120842
8.62527e-10
8.54003e-05
5.54167e-09
0.0221239
8.77379e-09
0.00274959
0.00260838
0.00311666
0.00677081
0.0021595
0.00221082
0.0168553
0.00692156
8.18354e-09
1.31247e-08
0.0122755
3.18481e-06
2.94599e-07
0.00190103
0.00359147
0.00188843
2.1125e-05
0.000266426
0.00465774
0.00326938
0.00206856
2.21505e-05
0.0031995
0.00189412
0.000624961
7.63899e-05
4.90717e-08
0.00269467
0.0185143
0.00284724
0.00156243
0.0070731
0.000491657
0.0314486
0.00132653
0.00742073
0.000252498
3.12843e-08
0.000235626
4.29525e-08
0.000449604
6.45854e-06
2.70227e-08
0.00365664
1.19838e-05
0.0375116
0.000766184
0.00781895
0.00214115
0.00748187
0.00332251
0.0148819
0.0174257
0.00139732
0.00971513
1.0827e-05
0.000372878
0.00130017
0.00181652
0.000174414
0.00404169
4.73054e-06
0.00307501
9.9312e-05
0.00264194
4.06327e-06
0.00265521
0.00134768
0.000427414
0.0265944
0.000161755
0.00131668
3.14174e-06
2.77163e-05
3.1494e-05
0.00541973
0.00245486
0.00203469
1.85474e-08
0.00159789
0.00312678
0.00028975
0.0157191
0.0132627
6.18328e-09
0.000208695
0.00174141
9.99359e-05
0.000291393
0.000473461
0.000452866
2.37833e-05
0.00320079
0.000450514
0.00531435
0.000526663
0.00116592
0.000540334
0.00838215
0.00527296
0.00869882
2.50278e-08
0.0538982
0.0219968
0.0973499
0.00186407
0.000145962
1.53474e-09
0.000290672
0.00674605
0.0100155
0.0299945
0.0247112
2.50435e-07
1.61011e-05
0.00773075
0.000400292
0.0175208
0.301828
0.0180637
0.000343119
0.000449053
0.0160079
0.00158487
0.000116427
0.000726702
0.1616
1.36624
6.95385e-05
5.62865e-08
5.12115e-06
0.00480629
0.00104974
0.0018554
0.00269948
0.001966
0.00438097
0.000885489
0.00222082
5.06744e-09
0.0025212
0.00283298
0.0025599
0.000445096
2.17694e-07
0.000102426
0.00467799
0.0146054
0.00402556
0.00272994
2.45369e-08
0.00159922
0.00137022
6.61477e-05
2.22137e-09
0.00868814
5.23004e-09
0.0311004
0.000107831
0.0483311
0.0149993
0.00025051
0.00496906
1.01719e-05
0.00236401
0.000150239
0.000872627
0.0835454
6.11931e-05
3.11062e-08
8.2527e-06
0.00388048
0.00345343
0.00150644
0.00101275
0.000980205
0.00125546
0.00104052
0.00181991
9.94082e-06
0.0681907
0.0264979
0.00286012
0.00150372
0.00287938
0.0669129
0.0119585
0.00411711
0.000288713
0.00721774
0.00268258
8.19429e-05
3.81261e-05
0.00480932
0.00681374
0.0173006
0.00526973
6.90349e-09
0.00453668
0.0374154
0.0240711
0.00323957
7.667e-05