/*--------------------------------*- C++ -*----------------------------------*\
  =========                 |
  \\      /  F ield         | OpenFOAM: The Open Source CFD Toolbox
   \\    /   O peration     | Website:  https://openfoam.org
    \\  /    A nd           | Version:  10
     \\/     M anipulation  |
\*---------------------------------------------------------------------------*/
FoamFile
{
    format      ascii;
    class       volVectorField;
    location    "3";
    object      U;
}
// * * * * * * * * * * * * * * * * * * * * * * * * * * * * * * * * * * * * * //

dimensions      [0 1 -1 0 0 0 0];

internalField   nonuniform List<vector> 
111485
(
(0.198604 -0.199968 0.00112141)
(0.5647 0.000176367 -0.000268821)
(0.56656 0.000147612 -0.00035325)
(0.199474 -0.200139 -0.000496965)
(0.566101 -0.000536882 0.000652141)
(0.199926 0.200326 0.000183482)
(0.565593 0.000476322 -0.000615229)
(0.564749 -0.000341637 -0.000206978)
(0.564004 0.000450852 -0.000570349)
(0.564619 0.00024181 -5.72588e-05)
(0.565802 0.000533668 -0.000690862)
(0.565931 0.000451807 0.000725492)
(0.565829 0.000848467 -0.000630631)
(0.564294 -1.3884e-05 -0.000492606)
(0.565482 0.000746568 -0.000699811)
(0.563049 0.000164265 -0.00042729)
(0.563016 0.00034502 -2.90709e-06)
(0.203693 -0.0173961 0.0353355)
(0.564066 0.000480454 -0.000607361)
(0.199782 -0.199746 9.80137e-05)
(0.198431 -0.199068 0.000879379)
(0.200474 0.200021 -0.000691363)
(0.564973 0.000619746 -0.000451413)
(0.565316 -0.00141258 -0.000458639)
(0.565006 -0.000487249 0.0003677)
(0.201898 -0.201032 0.000390604)
(0.565058 -0.000456952 0.000387771)
(0.565489 7.82121e-05 -0.000289404)
(0.565134 -0.000572758 -0.000316619)
(0.20052 -0.200565 0.000412494)
(0.579732 0.0128807 -0.00428233)
(0.5647 0.000129967 -0.000158444)
(0.198961 -0.198193 0.000515753)
(0.199791 0.200053 -0.000297193)
(0.203985 0.0815826 0.0357677)
(0.200677 0.201853 -0.00285069)
(0.573879 0.0138338 -0.00610538)
(0.563625 -0.000651668 0.00392318)
(0.58101 0.17492 0.0136828)
(0.564035 -0.000544769 0.000199558)
(0.196597 0.198193 -0.00140096)
(0.564834 6.18858e-05 -0.000309543)
(0.563757 -0.000425499 4.93171e-05)
(0.566203 0.000347961 -0.000256398)
(0.587139 -0.011736 -0.00565075)
(0.200884 -0.200362 -0.000138222)
(0.564658 0.000267193 6.50692e-05)
(0.565133 -0.0011204 -0.000413928)
(0.565259 -0.000412345 -0.00016565)
(0.199694 -0.196087 0.000514047)
(0.198892 -0.197268 0.000979231)
(0.22808 0.191469 0.00248155)
(0.198179 -0.197149 0.000530859)
(0.564712 0.000408249 0.000399228)
(0.197881 -0.196405 2.44239e-05)
(0.565076 0.000107331 -4.28297e-06)
(0.565247 -0.000609675 -0.00041642)
(0.200069 0.199793 4.05397e-05)
(0.566005 -5.8565e-05 0.00010104)
(0.565336 -0.000141217 0.000182579)
(0.565168 -0.000190804 9.41556e-05)
(0.199998 -0.199799 0.000714988)
(0.563611 -2.60365e-05 7.80158e-05)
(0.576444 0.00475085 0.000528456)
(0.207676 0.188067 0.000152618)
(0.566061 -0.000465603 0.000408065)
(0.414823 -0.039262 0.00960844)
(0.56567 -2.49791e-05 -0.000163166)
(0.565421 -0.000355456 -0.00066692)
(0.565261 -5.12988e-05 -0.000183686)
(0.564469 0.00666271 -0.00666155)
(0.565462 0.000241222 0.000412278)
(0.216391 -0.194917 -0.0035311)
(0.563412 1.8731e-05 0.000267095)
(0.199893 -0.199763 8.45465e-05)
(0.565905 0.000106503 -0.000182562)
(0.200456 0.200318 -0.00016481)
(0.564174 8.94089e-05 7.23054e-05)
(0.200321 0.200277 0.000560703)
(0.181563 0.176781 -0.00699505)
(0.563087 -0.0102697 0.00633803)
(0.564065 0.000499059 0.000415795)
(0.199432 0.199771 -0.000203441)
(0.199863 -0.199819 5.44646e-05)
(0.566713 -4.9788e-06 -0.000246203)
(0.56611 -0.00021526 0.000244387)
(0.455823 0.289764 -0.0800204)
(0.564463 0.00097134 0.000136254)
(0.554887 0.0155114 0.0141236)
(0.564789 6.68934e-05 9.45707e-05)
(0.599496 0.00561376 -0.00742607)
(0.564782 0.000131648 1.20524e-05)
(0.566751 -7.11944e-05 -0.000318815)
(0.564345 9.33378e-05 -0.000360262)
(0.565146 0.000148162 -0.000202101)
(0.199903 -0.19991 -1.31847e-05)
(0.199283 -0.199308 0.00114954)
(0.564361 0.000692179 0.000659938)
(0.606866 -0.126773 0.00159557)
(0.56509 -0.00219695 0.000103482)
(0.199036 -0.200163 -3.23807e-05)
(0.565053 9.50124e-05 -0.000562834)
(0.200925 0.20122 0.0011032)
(0.565152 0.00027024 0.000628328)
(0.564025 0.000694193 5.98429e-05)
(0.194921 0.174538 -0.00444181)
(0.200218 0.200143 -2.67018e-05)
(0.564776 -0.000410177 -0.000221853)
(0.566019 0.000137673 2.24461e-05)
(0.516574 -0.0134198 -0.0135332)
(0.565294 0.000368429 -0.000243263)
(0.565535 -9.60726e-05 0.000174964)
(0.566429 0.000420342 0.000392064)
(0.564556 -0.000526178 9.95974e-05)
(0.20174 -0.201694 0.000634226)
(0.56523 7.81789e-05 -3.32364e-05)
(0.200828 -0.199598 3.70444e-05)
(0.20083 0.199606 0.00117309)
(0.565645 0.000157812 -0.000231338)
(0.200295 -0.199989 0.000228882)
(0.20163 -0.201058 0.000652798)
(0.264087 0.207369 0.0130044)
(0.198263 0.198717 -0.000392013)
(0.199967 0.199465 -0.000723245)
(0.564385 0.000143165 -0.000100191)
(0.161866 -0.115768 -0.0283558)
(0.252986 0.216321 0.00855401)
(0.565393 -5.60296e-05 0.000152368)
(0.200137 -0.200038 -8.70266e-05)
(0.585633 0.0380744 -0.0173779)
(0.567224 0.0185002 -0.00809175)
(0.56439 0.000675382 0.000626013)
(0.198959 -0.198539 -0.00113591)
(0.259974 0.225371 0.0242876)
(0.242496 0.215184 0.0108721)
(0.565588 -5.41466e-05 -0.000236733)
(0.200836 0.200209 -0.000269056)
(0.565862 -0.000764537 -0.000113475)
(0.564416 -0.000459706 -0.000177074)
(0.564614 -0.00092185 -0.000501956)
(0.564137 3.10915e-05 0.000955891)
(0.564741 -6.84453e-05 -0.000317695)
(0.563117 -0.000601394 -0.000351692)
(0.565271 0.000245367 -0.000134305)
(0.56577 4.71549e-06 -0.000271076)
(0.564741 -0.00100679 -5.35994e-05)
(0.200973 0.199594 -0.00080152)
(0.200061 -0.20006 -4.00415e-05)
(0.199738 0.199934 0.000426797)
(0.566431 -0.000462388 -0.000322145)
(0.565642 0.000273421 -0.000223722)
(0.199826 -0.199514 0.000383374)
(0.457495 -0.000881389 0.00552265)
(0.56546 0.00144646 0.0021599)
(0.61745 0.0272989 0.00970201)
(0.566554 -0.000427424 -0.000187277)
(0.566452 -0.000552554 -0.000470946)
(0.564869 6.2514e-05 0.000485047)
(0.623717 0.0291574 0.00794266)
(0.198828 -0.200841 0.00104004)
(0.199812 -0.200125 -0.000359409)
(0.565894 -0.000423118 -0.000288582)
(0.564515 0.000629101 -0.000558589)
(0.628544 0.0330415 0.00923824)
(0.618099 0.0284161 0.0126186)
(0.563165 -5.91267e-05 0.00033237)
(0.570176 -0.00331217 -0.000674738)
(0.196865 0.198964 -0.000248691)
(0.637085 0.041113 0.0103062)
(0.606575 0.0314778 0.0134647)
(0.200025 0.200158 5.1206e-05)
(0.199822 -0.199525 0.000154104)
(0.561879 5.78205e-05 -0.000119998)
(0.198417 0.199713 -0.000455694)
(0.565524 -0.000500003 -3.13082e-05)
(0.565963 0.000535032 -0.000156475)
(0.200358 0.194876 -0.0010245)
(0.215101 -0.197965 0.00294952)
(0.198613 -0.197724 -0.000147366)
(0.194892 0.18432 -0.001735)
(0.215671 -0.199673 0.00384661)
(0.199744 -0.200075 -0.000339713)
(0.566339 -0.00041171 -0.000289715)
(0.56457 -0.00010598 -0.000613719)
(0.565568 -0.00035243 -0.000533521)
(0.561342 -0.00375102 0.00210073)
(0.565037 0.00023935 -0.000133486)
(0.565039 -0.000456574 -0.000196613)
(0.540678 -0.0015793 0.00434653)
(0.198907 -0.198906 -0.000150927)
(0.562947 -0.000306442 -0.00124609)
(0.214043 -0.199785 0.00279971)
(0.20171 -0.201966 6.55681e-05)
(0.564508 -0.000387707 -0.000236187)
(0.564595 2.26296e-05 -5.31407e-05)
(0.568358 0.00532353 -0.00152775)
(0.565705 -0.000746863 0.000525501)
(0.565283 0.000270259 1.74624e-05)
(0.199344 -0.199031 0.000490835)
(0.566419 0.00038986 0.000292597)
(0.564085 0.000553632 -0.000261871)
(0.383768 0.118589 0.017385)
(0.565848 -0.000184193 -0.000453953)
(0.565939 0.000362758 0.00066227)
(0.200417 -0.199169 -0.000507235)
(0.564617 -0.00036191 -0.000290059)
(0.563978 -0.000373694 -0.000553015)
(0.21733 -0.197605 0.00125787)
(0.56217 -0.0047329 0.00115433)
(0.565734 0.000334714 0.000380871)
(0.565267 0.000316607 -0.000227017)
(0.563198 -1.09354e-05 -0.000329154)
(0.215579 -0.200248 0.00329848)
(0.201031 -0.200956 0.000482271)
(0.563145 -0.000186825 -0.000410121)
(0.362192 0.224127 -0.0203581)
(0.56553 0.000281543 0.000344004)
(0.201109 0.20187 -9.56719e-05)
(0.563687 -0.000784315 -3.6354e-06)
(0.564963 0.000665962 -2.59669e-05)
(0.565286 3.38254e-05 -0.000561939)
(0.20012 -0.200077 3.02104e-05)
(0.565966 2.66456e-06 3.54058e-05)
(0.56383 0.0006683 0.0011634)
(0.321009 0.214595 -0.0241435)
(0.199991 0.199167 0.000556494)
(0.200007 0.200144 4.0401e-05)
(0.595953 0.00169308 0.00513751)
(0.554915 0.0124814 -0.00121403)
(0.21148 0.177814 -0.00340377)
(0.246232 -0.19262 0.00782211)
(0.56515 0.000606387 -0.00012136)
(0.566029 -6.18159e-05 3.37562e-06)
(0.565953 5.87232e-05 0.000858304)
(0.20826 0.180983 -0.00482856)
(0.210961 -0.196471 -0.000205282)
(0.55045 0.0115721 -0.0130989)
(0.199882 -0.199835 0.000120345)
(0.565861 0.00015361 6.62607e-05)
(0.565328 0.000519705 -5.15385e-05)
(0.565505 0.000545034 -0.000157597)
(0.565014 9.29727e-05 -0.000655311)
(0.565086 0.000446099 -0.000317053)
(0.199297 0.199396 0.000623413)
(0.442098 -1.85424e-05 -0.0150973)
(0.56458 0.000704252 0.000305956)
(0.198214 0.19881 -3.41767e-05)
(0.1987 0.199851 0.000450987)
(0.566422 -0.00038924 -0.000164069)
(0.564556 0.00164345 -0.000436581)
(0.205099 0.17467 -0.00509076)
(0.565744 0.000390456 -9.6663e-05)
(0.565031 0.000478261 0.000400457)
(0.200202 -0.200298 -0.000353123)
(0.255254 0.241083 -0.00068097)
(0.564532 0.000300753 0.000261372)
(0.200047 -0.197402 -0.000771477)
(0.22091 -0.158196 -0.00381195)
(0.300803 -0.107981 -0.0105937)
(0.200182 -0.200187 -0.000730007)
(0.56469 -0.000109567 -6.56728e-05)
(0.564597 -0.000550896 0.000157115)
(0.565502 -0.000241607 -0.00139032)
(0.199978 -0.200056 -3.98318e-05)
(0.565133 0.000352695 0.000191525)
(0.199422 -0.200447 -0.000372012)
(0.199429 -0.199211 0.000272971)
(0.19917 -0.198301 0.00039621)
(0.501275 0.000175583 -0.00321616)
(0.565479 -0.000156231 0.000526851)
(0.564842 5.67482e-05 -0.000446492)
(0.566563 -2.58172e-05 -0.000342692)
(0.564967 -0.000494572 -3.03582e-05)
(0.566794 -8.46843e-05 -0.000241786)
(0.565043 -0.00083471 -0.0003075)
(0.5836 0.00782664 -0.000631225)
(0.565651 -0.000148934 -0.000583684)
(0.566253 7.20406e-06 -8.20357e-05)
(0.202647 0.199993 0.000352081)
(0.199294 -0.199171 -0.000185135)
(0.404781 0.00083757 -0.00645127)
(0.566978 0.000543499 0.000108686)
(0.566889 -0.00168991 0.00222437)
(0.566134 0.000175428 0.000316816)
(0.20063 -0.200176 0.000190095)
(0.565001 -0.00066951 -0.000342782)
(0.563613 -0.000613905 -0.000376922)
(0.566555 -7.66357e-05 -0.000205411)
(0.56343 -0.000132832 -0.000330338)
(0.522275 -0.00581735 -0.0122216)
(0.565962 -0.000139664 -0.000176778)
(0.56667 2.2674e-05 -0.000254607)
(0.56389 6.47815e-05 0.000252868)
(0.2 0.200095 8.10636e-06)
(0.565964 -8.48885e-05 0.000301318)
(0.200744 0.202153 -0.000107111)
(0.162527 0.119882 -0.0273137)
(0.225227 -0.145452 -0.0122366)
(0.600051 -0.00404919 0.0107129)
(0.565013 -0.000500294 -2.39145e-05)
(0.563265 0.000103332 0.000274147)
(0.198276 -0.199603 -0.00122316)
(0.199233 0.200341 0.00172498)
(0.565416 -7.85869e-05 0.000192321)
(0.56506 -0.000667413 -0.000342964)
(0.199532 -0.199192 0.000782136)
(0.200574 -0.200405 0.000135349)
(0.197515 -0.198242 0.000969951)
(0.562417 0.000262079 -6.22092e-05)
(0.565767 -0.000530815 -0.000463573)
(0.566081 -0.000642564 -4.2608e-05)
(0.565928 0.000120228 0.000289853)
(0.565675 -0.000497487 0.000371166)
(0.230758 0.19732 0.0056842)
(0.19973 0.200217 0.000408779)
(0.199618 -0.199443 -9.68377e-05)
(0.565633 7.58424e-05 0.000647611)
(0.377838 -0.320886 -0.018464)
(0.563658 0.000184873 -0.000434842)
(0.595686 -0.000833805 0.0123904)
(0.528743 -0.0028477 -0.00615172)
(0.199674 0.199259 -0.000449633)
(0.199975 -0.201118 -3.38105e-05)
(0.199815 -0.199031 0.000648739)
(0.253319 0.212383 0.0136103)
(0.565588 7.92948e-05 -0.000116864)
(0.564342 -0.00056584 -0.000306966)
(0.199753 0.200772 5.22827e-05)
(0.565162 -6.68506e-05 -1.64777e-05)
(0.211424 0.170594 0.0127487)
(0.199722 -0.197507 0.000268177)
(0.565885 0.000373453 -0.000369005)
(0.565704 6.92248e-06 0.000108947)
(0.566536 0.00034765 0.000445005)
(0.565233 2.72607e-05 2.81184e-05)
(0.191362 0.168976 0.0100689)
(0.250972 0.215498 0.0148523)
(0.19938 0.199636 -0.000386392)
(0.565655 5.34312e-06 0.000124276)
(0.565532 0.000494861 -9.11809e-05)
(0.581418 0.0142833 -0.00602727)
(0.198221 0.198679 -0.000401639)
(0.406014 0.356225 -0.0876441)
(0.55114 -0.00262211 0.0077254)
(0.565143 9.3465e-05 -0.000366236)
(0.564612 4.85603e-05 0.000568063)
(0.54748 0.0505938 -0.0049675)
(0.56555 -0.000440641 0.000512363)
(0.199073 0.199481 4.39889e-05)
(0.56554 -0.000546801 0.000223133)
(0.566465 0.000323117 -0.000214359)
(0.589103 -0.0107003 0.00112782)
(0.565486 0.000100524 0.00024654)
(0.562284 0.000131155 0.000193217)
(0.198813 0.199802 -0.000696813)
(0.199059 -0.199505 -0.000500474)
(0.200202 0.198852 0.000764623)
(0.197836 -0.198127 0.000417815)
(0.564616 0.000190466 -4.51276e-05)
(0.562482 -7.31835e-05 -0.000156598)
(0.564799 0.000203122 -7.83611e-05)
(0.56525 -0.000879419 0.000503385)
(0.198745 0.197986 -5.02435e-05)
(0.564219 0.000451505 -0.000555423)
(0.200029 0.200003 8.26396e-05)
(0.199715 -0.199646 0.000497858)
(0.565423 -0.000769563 0.000351705)
(0.18544 -0.18548 0.00325804)
(0.326296 -0.0690177 -0.0043055)
(0.196989 -0.196211 -0.000215248)
(0.200343 0.196652 0.00116692)
(0.563713 -2.18924e-06 -0.000440728)
(0.200038 0.199903 2.21033e-05)
(0.56473 0.000326255 -0.000120496)
(0.565612 -3.80606e-05 -6.63064e-05)
(0.199022 0.199653 0.000245349)
(0.562856 -0.000131428 -0.000129714)
(0.565603 0.000376791 -0.000213494)
(0.201036 0.175977 -0.00621765)
(0.565682 0.000127157 0.000350782)
(0.565804 -0.000266392 -0.000171546)
(0.565998 5.13481e-05 -9.14763e-06)
(0.558509 0.00582988 0.00169843)
(0.564253 0.000395801 0.000374374)
(0.566014 0.000463509 0.000519256)
(0.197689 0.16609 -0.000839848)
(0.19888 -0.198588 0.00105778)
(0.563235 -0.000297063 -0.000726902)
(0.198286 0.198928 -0.00117627)
(0.565229 8.24756e-05 0.00028017)
(0.567265 0.00101887 0.000269553)
(0.202004 0.192896 0.00183591)
(0.199499 0.20039 -3.47567e-05)
(0.565216 -0.000180944 -0.000231818)
(0.564091 0.000542146 4.96251e-06)
(0.563526 0.0008815 -0.000914899)
(0.564049 -0.000339484 -9.05769e-05)
(0.200838 0.200635 0.000228143)
(0.587662 0.00284258 0.00666654)
(0.564717 0.000428363 0.00041044)
(0.200735 0.199397 0.000546252)
(0.562062 0.000427591 0.0019181)
(0.564953 0.000435962 5.04379e-05)
(0.201016 -0.201388 -1.36721e-05)
(0.198726 -0.198788 0.00024871)
(0.564301 0.000437514 -0.000152775)
(0.565595 -0.000535903 0.000374214)
(0.200109 0.200041 -0.000304208)
(0.197952 -0.198455 -8.87508e-05)
(0.344949 -0.191339 0.0408453)
(0.201488 -0.199898 -0.000864547)
(0.56636 0.000500414 0.000796051)
(0.199639 0.200017 0.000354253)
(0.199166 -0.200593 6.94885e-05)
(0.566055 0.000102482 0.000433716)
(0.529775 -0.00797084 -0.0167438)
(0.563071 -0.000726861 0.000269564)
(0.565927 1.35864e-05 -7.78463e-05)
(0.199534 0.199745 0.000464397)
(0.260982 0.200382 0.0101504)
(0.565411 0.000496532 0.000239579)
(0.245275 0.215027 0.0123665)
(0.566226 5.3856e-05 0.00013754)
(0.566174 -0.000767573 -0.000348116)
(0.563743 0.000358538 -0.000488939)
(0.406598 0.0125087 0.0156237)
(0.240706 0.206068 0.0109493)
(0.568925 -0.000998963 -0.00560217)
(0.591116 0.0199855 -0.00371539)
(0.200852 -0.200433 0.000992545)
(0.565226 0.000775106 -0.000118652)
(0.566093 0.00013198 0.000113213)
(0.200043 -0.199982 0.000184433)
(0.576745 0.0374828 -0.0204629)
(0.564293 -0.000298397 -0.000363874)
(0.253053 0.198357 0.00757566)
(0.564395 0.000149663 0.000178192)
(0.565565 0.000320592 -3.31037e-05)
(0.563973 0.00015417 -0.000547159)
(0.200556 0.200224 3.06066e-05)
(0.56195 -0.00183564 0.0045758)
(0.565873 -4.74864e-05 0.00109343)
(0.559806 0.00334524 -0.00126873)
(0.369769 -0.00734596 0.00701271)
(0.245447 0.230697 -0.00493702)
(0.338281 -0.0109602 0.012049)
(0.199779 -0.200062 0.000208224)
(0.512167 -0.015815 -0.0154813)
(0.561167 -0.00193733 -0.0048404)
(0.200059 0.199968 0.000282303)
(0.565829 0.000250727 -0.000256779)
(0.562491 -0.000179864 0.000723466)
(0.262512 0.230336 -0.002056)
(0.200057 -0.199932 -3.39197e-05)
(0.232771 -0.198841 0.00606912)
(0.200253 -0.201185 0.000514322)
(0.563633 -0.000223122 0.000168778)
(0.563851 0.00171817 -0.000565582)
(0.565911 0.000514031 -0.000481342)
(0.56582 -0.000165 -4.94293e-05)
(0.564066 -0.00476689 -0.000691075)
(0.200926 0.19938 -0.000730943)
(0.565383 -2.69086e-05 2.34668e-05)
(0.200954 -0.198931 0.000323102)
(0.566256 -0.000159018 -0.00034378)
(0.201158 0.200158 -0.000385868)
(0.199709 -0.199245 0.000222229)
(0.197363 -0.19817 -0.000180152)
(0.564283 -0.000372465 -0.00013366)
(0.199116 -0.199282 -0.000256145)
(0.199849 -0.19899 9.31462e-05)
(0.197497 0.126431 -0.00805857)
(0.199883 -0.19915 0.000384596)
(0.197569 0.200149 0.00186491)
(0.566305 -9.94054e-05 -0.000284991)
(0.200049 0.19986 -3.2171e-06)
(0.238145 0.17628 0.000552962)
(0.200162 0.200261 0.000287983)
(0.199763 -0.198373 -0.000136977)
(0.200026 0.199715 0.000284729)
(0.198841 -0.197775 -0.00105621)
(0.199186 0.199396 -0.000931284)
(0.565048 0.000134077 0.000262633)
(0.200193 0.199029 0.000869033)
(0.562802 0.000154219 8.10333e-05)
(0.565893 0.00043066 -0.000263609)
(0.597079 -0.0184725 -0.00326938)
(0.200906 0.199698 0.000519919)
(0.563782 -0.000448782 0.000340337)
(0.200268 0.199504 9.18167e-05)
(0.199654 -0.199123 0.000378282)
(0.561929 -8.06661e-05 -0.00034648)
(0.562531 0.000374148 0.000146774)
(0.565587 0.000309193 -0.000168658)
(0.595535 -0.000543835 -0.00964376)
(0.230744 0.192956 -0.00626911)
(0.564858 0.000259777 -3.73893e-05)
(0.564947 0.000258186 0.000171592)
(0.565262 -2.00862e-06 -9.27882e-06)
(0.56418 0.000288468 -0.000284508)
(0.562352 -0.000247387 -3.53287e-05)
(0.19866 -0.198945 -0.000463677)
(0.565559 -0.000475164 0.000166992)
(0.264535 0.227669 -0.001682)
(0.56623 6.94545e-05 0.000280566)
(0.199005 0.19974 -0.000833543)
(0.565679 -8.68673e-05 0.000252002)
(0.26104 0.215461 0.00239705)
(0.566852 -0.000774706 -4.33639e-05)
(0.564209 6.37576e-05 -0.000139808)
(0.230196 -0.119944 -0.000561149)
(0.199686 0.199861 0.00229983)
(0.563973 0.000614118 0.00123781)
(0.20086 -0.200423 0.000277664)
(0.565514 -0.000344511 -0.000146798)
(0.566522 -0.000123604 0.000218294)
(0.199864 0.19923 -0.00165349)
(0.199293 0.199337 0.000445051)
(0.194772 0.174708 -0.00437961)
(0.200077 0.200205 9.35399e-05)
(0.408006 -0.0228225 0.00915771)
(0.565423 -0.000453833 -0.000118253)
(0.202087 0.197441 -0.000428653)
(0.199551 0.199994 0.000364617)
(0.565134 0.0002485 0.000186705)
(0.200644 0.200085 -0.000670921)
(0.5665 2.69062e-05 -1.59929e-05)
(0.199632 0.200407 0.000903938)
(0.564982 0.000282171 0.000276214)
(0.198809 -0.199555 0.000124596)
(0.564619 -0.000328921 -0.000339404)
(0.563693 -0.000353639 0.000164025)
(0.56684 0.000278399 0.000537324)
(0.56702 -0.000308067 -0.000296419)
(0.200841 0.199198 -0.000569665)
(0.565341 0.00061476 -0.00177703)
(0.200157 0.199562 -0.000683955)
(0.200576 0.199947 0.000328648)
(0.564985 0.000100191 -0.000320845)
(0.1993 0.199886 -0.000848964)
(0.564491 -0.000311699 -0.00103735)
(0.192711 0.177722 -0.00627471)
(0.566609 -4.8012e-05 0.000293229)
(0.198882 -0.199529 -0.00116959)
(0.563902 0.000331256 -0.000222367)
(0.199721 -0.198787 0.000116416)
(0.238291 0.210059 0.00613378)
(0.594909 0.0232707 -0.00241802)
(0.563281 -0.000277203 -0.000392616)
(0.566177 9.85369e-05 -0.000122118)
(0.563282 -1.22533e-05 -0.000359208)
(0.565985 0.00027659 -3.43086e-05)
(0.565152 -0.000762512 -0.000448905)
(0.197822 0.199269 -0.000902055)
(0.566188 2.95653e-05 -9.48837e-05)
(0.563839 -6.6221e-05 -0.000296528)
(0.201868 0.201218 0.000462444)
(0.488682 -0.00576095 -0.0163141)
(0.579887 0.00194641 -0.00105699)
(0.565965 0.000210461 -0.000411654)
(0.197447 0.194106 -0.00119886)
(0.249951 0.0461197 -0.038589)
(0.566247 -0.000102207 -0.000424781)
(0.564034 -4.51121e-05 -0.000348697)
(0.469252 0.112202 -0.00386904)
(0.256353 -0.13522 -0.00939504)
(0.564691 -0.000382499 -0.000259398)
(0.564315 -0.000745657 -0.00138949)
(0.561128 -0.000389313 0.000106164)
(0.565025 7.26253e-05 -0.000627073)
(0.558778 0.00205756 0.00174212)
(0.505375 0.0667046 -0.000461281)
(0.248304 0.209936 0.00147262)
(0.510835 -0.0230408 0.00548614)
(0.498726 -0.0469958 0.00943599)
(0.199928 -0.200056 9.58135e-05)
(0.565945 -0.000322742 -0.000238353)
(0.201321 0.197441 -0.00104866)
(0.236271 0.213212 0.00216055)
(0.563286 7.56853e-05 3.63586e-05)
(0.509114 0.0804354 0.00207019)
(0.612409 -0.0574364 -0.00898503)
(0.554626 -0.101697 -0.00105636)
(0.235349 0.223013 -0.0148708)
(0.564855 -7.59068e-05 -0.000643016)
(0.565408 -0.000149536 0.000595433)
(0.200165 0.198617 0.000177079)
(0.258697 0.140995 -0.00448578)
(0.565285 0.000307927 0.000354741)
(0.200183 -0.200282 0.000634841)
(0.19937 0.199009 -0.000406029)
(0.198689 0.199519 -0.000694169)
(0.200291 0.199796 0.0012016)
(0.564571 -0.000200059 -0.000466335)
(0.200151 0.200144 0.000147927)
(0.200308 -0.200512 0.0010123)
(0.56505 0.000249219 -0.000466524)
(0.566332 0.000120459 -0.000503366)
(0.290802 -0.255821 -0.0130057)
(0.56507 -6.28097e-05 0.000198556)
(0.233389 0.187769 0.00406698)
(0.564402 0.000211826 0.000186825)
(0.197071 -0.196997 -0.000524653)
(0.1996 0.200019 -6.78628e-05)
(0.564956 -6.05985e-05 -0.000491967)
(0.200449 0.198695 -0.00117837)
(0.200532 0.200061 3.5638e-05)
(0.230411 0.219697 0.00728028)
(0.5625 -0.000894959 0.000569551)
(0.334731 0.278979 -0.0373327)
(0.56553 -1.44818e-05 -0.000327788)
(0.563368 2.68363e-05 -0.00012145)
(0.198901 -0.198641 -0.00179003)
(0.598894 0.00295206 0.017158)
(0.564164 9.50578e-05 -0.000736864)
(0.564875 -0.00020849 2.71429e-06)
(0.561064 0.00491671 -0.00102014)
(0.583276 0.0047314 -0.0135321)
(0.563293 0.00010294 0.000261977)
(0.199515 0.199121 0.000161323)
(0.564744 -7.21343e-05 -0.000598342)
(0.565626 -0.000212311 0.000128892)
(0.197842 -0.200443 0.000285653)
(0.563486 -0.000143876 -3.81451e-05)
(0.564828 8.40518e-05 -0.000123519)
(0.56635 6.76895e-05 -0.000162458)
(0.562421 -0.00268497 -0.00365311)
(0.566463 0.000156641 -0.000190464)
(0.566446 0.000120259 -0.000161833)
(0.19988 -0.197229 0.00131139)
(0.56626 -0.000113438 0.000469771)
(0.561279 0.00437639 -0.00103188)
(0.24304 0.209892 0.0137711)
(0.56616 0.000126977 -0.000254839)
(0.566299 -0.000534389 0.000228851)
(0.324919 0.26326 -0.0401497)
(0.563144 9.99395e-05 5.07037e-05)
(0.566019 9.11534e-05 -0.000282501)
(0.566279 -0.000511836 0.00028881)
(0.5663 9.98773e-05 -0.000132867)
(0.565069 0.000125231 -0.000259019)
(0.563143 0.000104409 4.61755e-05)
(0.196225 0.190641 0.00104644)
(0.566221 7.43982e-05 -0.000142777)
(0.56556 -0.00049974 -0.000315638)
(0.222731 -0.136811 0.00411485)
(0.565102 0.000135244 -6.46681e-05)
(0.564591 -0.000161154 -0.000252956)
(0.565177 0.000463957 -0.000105389)
(0.200317 0.199563 0.000536114)
(0.561453 0.00290901 -0.00487516)
(0.199856 -0.198714 0.0006228)
(0.201023 0.199858 -0.00011121)
(0.198845 0.197422 -1.71993e-05)
(0.200298 0.199731 0.000877232)
(0.563736 -5.59201e-05 9.52304e-05)
(0.23863 0.205211 0.00815286)
(0.45036 -0.027082 0.0299272)
(0.200879 -0.200661 -0.000435405)
(0.200038 0.202342 -0.000637995)
(0.5645 0.000305775 -0.000213744)
(0.565099 0.000623498 -0.000527075)
(0.199846 -0.199686 -0.000209272)
(0.565859 -0.000151389 -7.95511e-05)
(0.20091 -0.200047 0.00102155)
(0.200246 -0.200108 -4.24385e-05)
(0.197474 -0.197193 0.000428242)
(0.562603 -0.000809549 -0.000576112)
(0.566008 -0.000355177 -0.000360853)
(0.237197 0.212068 0.00297084)
(0.199669 -0.197806 0.000759094)
(0.199924 0.199893 -0.000863697)
(0.199422 0.200356 3.99317e-05)
(0.579245 -0.00154225 -0.00273919)
(0.563911 0.000207555 -3.65625e-05)
(0.239445 0.224529 0.010906)
(0.565386 0.000368892 0.000111196)
(0.547792 -0.008432 -0.0201788)
(0.199673 0.199818 -7.38013e-05)
(0.56487 0.000399455 8.64469e-06)
(0.566451 -0.000154192 0.000102809)
(0.559428 0.00244345 -0.00388681)
(0.200411 0.200382 -0.000247883)
(0.199019 0.199756 -0.000778166)
(0.565616 0.000175596 0.000577463)
(0.56498 0.000290414 -3.8409e-05)
(0.237836 0.215009 0.00395335)
(0.199112 0.199043 5.7349e-05)
(0.202171 0.19597 -0.00111202)
(0.564152 -0.000382987 0.000403087)
(0.199855 -0.200064 -0.000356332)
(0.198775 -0.199063 0.000360412)
(0.200456 0.200818 0.000604083)
(0.565525 0.000240288 8.39658e-05)
(0.566133 -0.000477814 0.000245731)
(0.199609 0.200988 0.00129908)
(0.225355 0.0374826 0.041559)
(0.248174 -0.0311241 -0.00751607)
(0.560167 0.00250639 0.000476703)
(0.199708 0.199999 -7.73448e-05)
(0.200085 0.199757 -0.000439701)
(0.564296 -0.000665219 -0.000410213)
(0.550444 0.0125625 0.00969946)
(0.240591 0.214664 0.0109349)
(0.353243 0.113299 0.0057088)
(0.556373 0.0168467 0.0166623)
(0.565807 0.000338336 -6.94321e-05)
(0.565846 0.000710828 -0.000224169)
(0.205826 0.194624 -0.000280442)
(0.565607 0.000286773 -0.000482965)
(0.564624 -1.00693e-06 0.000643113)
(0.200372 0.199753 -0.000234007)
(0.199225 -0.195742 0.000492221)
(0.198917 0.198941 0.000155148)
(0.199851 0.201289 0.000397599)
(0.200144 0.200534 -0.000279157)
(0.199575 0.201061 0.000735858)
(0.565718 0.000110318 0.000148484)
(0.200018 -0.199275 0.000699981)
(0.198577 0.199241 0.00047894)
(0.198916 0.196308 0.00037234)
(0.565626 0.000172111 0.000101463)
(0.564918 0.000265588 6.34072e-05)
(0.200873 -0.198335 0.000397818)
(0.198724 -0.195665 0.000425692)
(0.564895 0.000285218 5.96203e-05)
(0.565513 0.000169642 0.000354002)
(0.565567 0.00020584 0.000469445)
(0.198635 -0.199784 -0.000679383)
(0.19968 0.199758 0.000102732)
(0.565438 0.000120956 0.000479903)
(0.200344 -0.20012 -5.37942e-05)
(0.56518 -0.000211915 0.000600275)
(0.56455 0.000385683 0.000467091)
(0.564989 0.00013298 0.00020427)
(0.201406 -0.199775 0.000801594)
(0.199131 -0.199134 -0.000637337)
(0.200068 -0.199159 -0.000459634)
(0.200096 0.200245 0.000156916)
(0.564153 0.000341768 -0.000532968)
(0.199049 0.200438 0.000998664)
(0.19784 0.198586 9.41899e-05)
(0.566055 0.000192349 -2.24622e-05)
(0.200678 -0.199104 -0.000832)
(0.564833 -0.00035347 0.000339062)
(0.566545 -0.00051515 0.000233412)
(0.201766 0.195013 0.00126785)
(0.565031 0.000436447 -0.000127539)
(0.268707 0.028089 -0.00391606)
(0.564438 -0.000504087 0.000328856)
(0.562528 5.01985e-05 0.000105196)
(0.56566 -2.66604e-05 -0.00039232)
(0.564038 0.000272985 0.000295464)
(0.434505 0.00986523 -0.0103654)
(0.239505 0.191652 0.0040866)
(0.56454 -0.000520307 0.000311283)
(0.563517 0.000290895 0.000282256)
(0.566579 -0.000374734 -0.00127373)
(0.204748 0.178093 -0.00567965)
(0.301485 0.0127558 0.000848586)
(0.311345 -0.0346824 0.00492254)
(0.564533 0.00016085 0.000480215)
(0.198935 0.19932 0.000219625)
(0.566058 -0.000234732 -1.53246e-07)
(0.565724 0.000184541 0.000263899)
(0.565941 -0.000203569 0.000128757)
(0.214741 -0.157438 -0.0122657)
(0.199388 -0.200061 -0.00156878)
(0.2 -0.200002 -4.91646e-06)
(0.565515 -7.91353e-05 7.18979e-05)
(0.234924 0.19302 -0.00248478)
(0.567446 0.000997635 -0.00115714)
(0.217241 0.198412 0.00262828)
(0.563373 0.000451938 0.000602136)
(0.565098 -0.000973115 -0.000196936)
(0.565387 5.53359e-05 0.00022546)
(0.564917 0.000319852 -9.53581e-05)
(0.198802 0.198603 -0.000754757)
(0.198222 0.197236 -0.000125046)
(0.213854 -0.195085 0.00101106)
(0.565118 0.000421925 -0.000161154)
(0.19989 0.199531 -0.000261779)
(0.231771 0.19912 -0.00875032)
(0.592242 0.014384 -0.0113389)
(0.200119 0.199813 -0.000165748)
(0.198786 0.199723 0.000700427)
(0.197677 -0.197987 -0.000124443)
(0.199579 0.199488 0.000314969)
(0.565657 -0.000104354 0.000274635)
(0.2047 0.194613 0.000522715)
(0.198445 0.198661 -0.00102766)
(0.462061 0.0669845 -0.040905)
(0.235934 0.189407 -0.00210515)
(0.197828 0.198225 -0.00187476)
(0.282253 -0.172362 0.0103839)
(0.200423 0.200073 -0.000276761)
(0.564335 -7.72663e-05 -0.000553351)
(0.566813 0.000206628 -0.000273499)
(0.198654 -0.198434 0.000689463)
(0.566539 0.000182649 0.000101306)
(0.55311 0.0863594 -0.00817857)
(0.564069 2.0042e-06 -0.000211251)
(0.603261 0.0232291 0.0028182)
(0.56521 0.000249593 1.23168e-05)
(0.199911 0.198204 0.000826059)
(0.56287 3.82223e-05 -0.000384889)
(0.568705 2.36918e-05 8.82616e-05)
(0.563308 0.000195416 -4.15185e-05)
(0.200018 -0.200198 3.82372e-05)
(0.598915 0.153954 0.0378581)
(0.5662 -0.000243776 6.39278e-05)
(0.268644 0.213817 -0.012877)
(0.56609 -0.000266325 -0.000206406)
(0.596728 0.00327496 -0.00403005)
(0.579884 0.00825885 0.00096932)
(0.565677 -0.000213536 -0.000479409)
(0.566156 0.000959748 -0.000554579)
(0.601365 0.00568983 -0.00204941)
(0.565359 -9.71657e-05 -0.000787385)
(0.565017 6.4717e-05 0.000194993)
(0.198253 0.199071 0.000774146)
(0.19986 0.198964 0.000826219)
(0.565798 0.000725859 -0.000992843)
(0.565744 0.000304866 -0.00043501)
(0.199534 0.200082 -3.78118e-06)
(0.566022 0.000325275 0.000349828)
(0.564931 -0.000397774 -0.000265853)
(0.563418 0.00010522 -0.000219236)
(0.200347 0.198629 -6.64776e-05)
(0.577009 0.00620636 0.0028735)
(0.199158 0.198944 -5.25567e-05)
(0.566296 -8.33159e-05 0.000214733)
(0.563241 0.000724073 -4.73489e-05)
(0.200751 0.200019 4.78815e-05)
(0.56047 0.00173382 -0.0049511)
(0.5629 0.000215552 -9.48366e-05)
(0.573533 0.00779296 0.00137127)
(0.56611 -0.00159074 0.000428732)
(0.203062 0.200027 -0.000472824)
(0.565984 -0.00017952 0.000437887)
(0.578668 0.00927917 0.000819165)
(0.600964 -0.0181925 0.00299069)
(0.507711 0.00722603 0.00151201)
(0.562932 3.64554e-05 -0.000484517)
(0.199961 0.197625 -0.000171532)
(0.199525 0.199372 6.51434e-05)
(0.566046 7.84493e-06 0.000458886)
(0.200199 0.200116 -3.76096e-06)
(0.562897 -0.000175295 4.09393e-05)
(0.56533 -0.000928257 -6.41517e-05)
(0.339256 0.0411886 -0.00660304)
(0.624232 -0.0433948 0.0158729)
(0.551398 -0.0261141 0.00689492)
(0.612853 -0.0249282 0.00566723)
(0.200258 0.199999 -8.33357e-07)
(0.274553 0.232525 0.00184863)
(0.566634 -0.000180846 -0.000792264)
(0.199286 -0.200195 -0.000802961)
(0.115574 -0.0808331 0.0326052)
(0.562922 0.00013152 -2.23585e-05)
(0.198993 0.198708 -0.000446269)
(0.200752 0.200358 0.000257618)
(0.516171 -0.0106776 -0.00103277)
(0.41641 -0.0299589 0.00110558)
(0.200852 0.200101 0.000940654)
(0.519227 -0.00952328 0.00176964)
(0.199719 0.200982 0.00088894)