/*--------------------------------*- C++ -*----------------------------------*\
  =========                 |
  \\      /  F ield         | OpenFOAM: The Open Source CFD Toolbox
   \\    /   O peration     | Website:  https://openfoam.org
    \\  /    A nd           | Version:  10
     \\/     M anipulation  |
\*---------------------------------------------------------------------------*/
FoamFile
{
    format      ascii;
    class       volVectorField;
    location    "14";
    object      U;
}
// * * * * * * * * * * * * * * * * * * * * * * * * * * * * * * * * * * * * * //

dimensions      [0 1 -1 0 0 0 0];

internalField   nonuniform List<vector> 
59698
(
(0.584696 0.00595882 -0.00173003)
(0.564173 -0.00101495 -0.000733082)
(0.56602 -0.000542104 0.00170181)
(0.578474 -0.00332431 -0.00138195)
(0.563032 0.000768498 -0.00291237)
(0.197727 0.198049 -0.00635018)
(0.564938 0.000117204 0.00031687)
(0.563684 0.000943894 -0.000381877)
(0.199886 -0.199537 -0.000422014)
(0.201208 -0.200796 -3.56187e-06)
(0.200368 -0.198725 -0.000622247)
(0.566795 -0.000256743 -0.000325421)
(0.199805 0.200486 -0.000570901)
(0.561794 -0.000742318 -0.000228895)
(0.5621 0.0011003 -0.00254695)
(0.203959 -0.19711 0.00182307)
(0.564846 0.000139822 0.000144243)
(0.566138 -0.00123203 0.000408938)
(0.567252 -0.00047051 0.000389623)
(0.564758 -0.000391118 1.93533e-05)
(0.14291 -0.0999932 -0.025003)
(0.536315 -0.00146514 -0.00272815)
(0.265043 -0.172677 -0.00708582)
(0.198823 -0.199921 -0.00136798)
(0.57016 0.000287929 0.000989457)
(0.566309 -0.00112174 0.000457714)
(0.566225 -0.000314998 -0.000419455)
(0.558382 -0.000101786 -0.000773194)
(0.570126 0.00115989 0.000812083)
(0.572415 -0.000383435 0.000398297)
(0.548173 -0.000319944 -0.000413734)
(0.19852 -0.198579 -0.000190948)
(0.20116 -0.197946 0.00229685)
(0.559696 0.00128073 -0.000895084)
(0.549047 0.0114396 -0.00745361)
(0.566667 -0.000883189 -0.000366019)
(0.275025 0.0657453 -0.0384973)
(0.539137 0.000760684 0.000226372)
(0.562446 0.000191027 0.000458965)
(0.56829 0.00152246 -0.00278479)
(0.564098 7.49732e-05 0.00012999)
(0.194901 0.197809 -0.00173778)
(0.563897 0.000407506 -0.000407402)
(0.564039 0.000444281 0.000126046)
(0.196728 0.199572 -0.000252654)
(0.560628 0.00340696 0.00503011)
(0.566741 -0.000810432 0.000397251)
(0.562251 -0.000306597 0.00163119)
(0.562526 0.000251607 0.000982414)
(0.565385 -0.000660838 0.000174127)
(0.567503 0.000150897 -0.000157173)
(0.566644 -0.000807784 0.000363493)
(0.566052 -0.000139213 -0.000805708)
(0.560705 -0.000164771 0.000427563)
(0.572238 0.00259715 0.000980149)
(0.567111 -0.000436914 -6.70404e-05)
(0.562736 -0.000996293 0.000691491)
(0.524893 -0.00187152 -0.00011696)
(0.564713 -0.000811593 -0.00029258)
(0.268465 0.121013 -0.0193898)
(0.559045 0.00466314 -0.0025425)
(0.564548 0.00126531 0.000542411)
(0.577842 0.0147627 0.00652069)
(0.567207 -0.000503246 0.000472922)
(0.561847 0.000156334 0.000853033)
(0.561713 0.000282772 0.00216518)
(0.199516 -0.199941 -1.22098e-05)
(0.56696 -0.000497681 -0.000550313)
(0.566787 -0.000398023 -0.00052633)
(0.199517 -0.19921 -8.02926e-05)
(0.209108 0.182353 -0.0079297)
(0.564832 -0.0006379 -8.86007e-05)
(0.16649 0.118466 -0.0341953)
(0.593034 -0.0111286 0.0199965)
(0.202915 0.203541 -0.000370738)
(0.589961 -0.0251302 0.0212218)
(0.561366 0.000209498 0.000925499)
(0.561005 0.000259451 -0.00185443)
(0.566639 0.000837371 -0.000653318)
(0.571356 0.00134579 9.45379e-05)
(0.552727 -0.001892 2.15208e-05)
(0.56748 0.000220298 -0.000100014)
(0.201239 -0.200754 -5.21532e-05)
(0.56525 -0.000660651 0.000586568)
(0.399789 -0.103679 0.0148566)
(0.563274 0.000156882 -0.000198588)
(0.563211 -0.00122643 0.00172499)
(0.557595 0.000506224 0.00703132)
(0.561976 0.00122672 0.000940003)
(0.560922 -0.000146807 0.00149761)
(0.199601 -0.199152 -0.000113206)
(0.561606 0.000895078 0.00057104)
(0.56065 -0.000385818 0.00165097)
(0.565657 -0.000338092 0.000416117)
(0.561616 0.00115736 0.000964223)
(0.563133 -0.00369191 0.00131988)
(0.558653 0.000568209 0.00118867)
(0.561966 0.000566737 0.000450695)
(0.559269 0.000528499 0.00119421)
(0.199679 0.200038 -3.88715e-06)
(0.556385 0.00140203 0.000786792)
(0.567458 0.00517676 0.00631508)
(0.563454 -0.000125553 5.47218e-05)
(0.563036 -0.00171676 -0.00451299)
(0.567041 -0.000542745 0.000801486)
(0.198838 0.198575 0.000130829)
(0.565588 -0.000973774 0.000595994)
(0.567119 -0.000360543 -0.000372919)
(0.200753 -0.200895 -7.35245e-05)
(0.199794 0.199689 -0.000369112)
(0.566265 -0.000767032 -0.000418302)
(0.570642 -0.0104165 -0.000130814)
(0.561767 0.00132496 0.00149089)
(0.200897 0.198779 -0.000338098)
(0.561264 -0.000107557 0.000169254)
(0.567377 6.78468e-05 0.000123845)
(0.567054 0.00145471 -0.00142343)
(0.565075 0.00316098 0.000718589)
(0.563816 -0.000776585 0.00198297)
(0.200912 -0.200448 0.000434946)
(0.565498 3.30199e-05 -8.23973e-05)
(0.558759 -0.00632674 -0.00376247)
(0.563205 -0.00492133 0.00567903)
(0.5646 0.000145969 0.00012151)
(0.564446 0.000153203 9.24905e-05)
(0.565985 -0.000188868 -0.000134617)
(0.566327 -0.000107937 -0.000301888)
(0.199564 -0.199512 0.000486006)
(0.56233 -0.000224621 -0.000340684)
(0.566831 0.000338826 -0.00180769)
(0.567103 0.000436063 0.00060086)
(0.566742 -0.000186523 -0.000989246)
(0.20146 -0.200553 -1.90927e-05)
(0.57934 0.00688929 0.000437038)
(0.572558 -7.35022e-05 0.000165432)
(0.567666 -9.1314e-05 -0.000124056)
(0.569095 0.00381572 -0.000908005)
(0.201044 -0.200687 0.000303096)
(0.567106 -0.000275727 -0.000185715)
(0.56843 -3.79896e-05 -0.000296687)
(0.565463 -0.000312938 0.000998762)
(0.562754 0.00317564 -0.00104233)
(0.565417 -0.000827636 -0.000472299)
(0.565858 -0.000385371 -0.000316181)
(0.565513 0.0021945 -0.000311319)
(0.567321 -0.000264419 -1.93432e-05)
(0.563997 -0.00382943 0.000186132)
(0.566833 -0.003588 -0.000665065)
(0.562902 0.000435259 0.000738671)
(0.552795 -0.000185319 0.000214246)
(0.40861 0.144155 0.0731775)
(0.200205 -0.199659 0.000118229)
(0.56204 -0.000166968 4.47923e-05)
(0.557231 -0.00231834 -0.00379613)
(0.563615 -0.000203738 -0.000128889)
(0.561326 0.000277511 -0.000428854)
(0.566498 -0.00101786 -0.00024596)
(0.559054 -0.00094048 0.00298566)
(0.56363 -0.000176201 -0.000557728)
(0.199701 0.199542 -0.000105436)
(0.564839 0.000152229 -6.18352e-05)
(0.563005 -0.000296795 0.000208609)
(0.567821 -0.000554418 -0.000247681)
(0.55493 0.00190568 -0.00128022)
(0.563628 -0.000156313 -0.000525316)
(0.567584 0.000474537 -0.000519372)
(0.566844 -0.000143658 -0.00056588)
(0.412221 0.086987 0.00602674)
(0.554429 -0.000733994 -0.00134409)
(0.566252 -0.000191145 -0.000465496)
(0.559636 0.0019057 -0.00260602)
(0.210923 0.173754 0.000740251)
(0.553506 0.00151749 -0.0022368)
(0.553027 0.00139247 -0.00214718)
(0.57837 0.00132342 -0.00546325)
(0.563076 0.000256278 0.000358497)
(0.199575 -0.198906 0.000798242)
(0.538368 0.00497735 0.00299796)
(0.198949 -0.19782 -0.00579649)
(0.561848 0.000582355 -0.000466395)
(0.510706 -0.00190102 0.0051543)
(0.548189 -0.000559008 -0.000473068)
(0.562488 0.000380661 -0.000919874)
(0.565681 -3.07143e-05 -0.000326184)
(0.564799 0.000597686 -0.000858791)
(0.543475 -0.000312105 -0.000276857)
(0.543318 5.46534e-05 -0.000838959)
(0.559969 0.00365055 0.00122675)
(0.566062 -4.15095e-05 0.000258923)
(0.564463 0.00160948 0.000808829)
(0.562226 0.000198582 0.000691225)
(0.562512 -0.0003014 0.00055605)
(0.56275 0.00058708 0.000540599)
(0.561808 -0.00033413 -0.000470909)
(0.555103 0.000485813 -0.000699065)
(0.557751 0.00314906 0.000678759)
(0.576607 0.00578443 -0.0137702)
(0.575745 0.00363839 -0.00212116)
(0.152155 -0.144098 -0.0195762)
(0.554733 -0.000463165 -0.000312476)
(0.203036 0.205886 0.00271269)
(0.545965 0.000501396 0.000770667)
(0.573116 0.00076591 0.000248415)
(0.566593 -0.000346436 -0.000471683)
(0.553389 0.00104718 0.00090881)
(0.565768 0.000172728 0.000134629)
(0.564494 0.000660038 -0.0010332)
(0.558569 -0.00206092 0.00130431)
(0.554121 0.0110571 0.00032027)
(0.56284 0.000629297 -0.000307492)
(0.565583 0.000195716 0.000149477)
(0.565174 0.000191904 0.000398114)
(0.554001 0.000218074 0.00179538)
(0.199004 -0.197044 -0.00110262)
(0.565919 -0.000110058 -0.000190551)
(0.560696 0.000638287 -0.000247629)
(0.566187 -0.000747645 -3.21297e-05)
(0.561147 -0.000621505 -0.00187527)
(0.561772 -0.000564128 -0.000537054)
(0.564733 0.000425724 -0.000445626)
(0.581884 0.0244835 0.0227104)
(0.564209 -0.000192712 0.000297271)
(0.564774 2.58232e-05 0.000205293)
(0.55718 0.00113029 0.00269576)
(0.564211 -0.000326753 0.000102084)
(0.553797 0.00271231 0.00276187)
(0.564622 9.27878e-05 0.000173339)
(0.565806 0.000708252 -0.00043956)
(0.578021 0.00283793 -0.00085497)
(0.593295 0.0122788 0.00964546)
(0.199023 0.198597 -0.00039297)
(0.563473 -4.9723e-05 0.000155321)
(0.566076 0.000235323 7.74764e-05)
(0.564715 0.000206126 -0.000180402)
(0.563815 -0.000450619 0.000426454)
(0.566683 -0.000487272 -3.10983e-05)
(0.565119 0.00142335 0.0015015)
(0.564029 0.000374471 0.000132597)
(0.558545 0.00144012 0.00333021)
(0.56327 -0.000755682 0.000592689)
(0.56466 2.67978e-05 -7.17636e-05)
(0.563624 -0.00169711 -0.000597395)
(0.56969 0.000727122 0.000260866)
(0.197427 -0.19788 0.00334431)
(0.566674 -7.78721e-05 -0.000122331)
(0.563971 0.000365143 0.00375585)
(0.582462 0.00515168 0.016188)
(0.591259 -0.00718647 0.012733)
(0.566272 8.37103e-05 0.00023015)
(0.566622 -0.000737255 0.000423471)
(0.56203 0.00113297 0.00393264)
(0.562605 -0.000498624 0.000568143)
(0.564048 0.00107766 0.00085638)
(0.198209 -0.193514 0.00311952)
(0.566318 -0.00135107 -0.000142447)
(0.563055 0.000286859 0.000538165)
(0.561369 0.0021262 0.000651837)
(0.561929 -0.000737086 0.000610526)
(0.565452 -0.00032464 -6.80618e-05)
(0.56508 -9.46757e-05 -8.98448e-05)
(0.197744 -0.108684 -0.00113094)
(0.200409 0.200047 0.000142146)
(0.563222 -0.00103415 0.000594024)
(0.560767 0.000631801 -0.00109147)
(0.559012 -0.00143499 0.00237068)
(0.586979 0.00759521 0.00244448)
(0.565118 3.5804e-05 2.87516e-05)
(0.196915 -0.198439 -0.00166987)
(0.565639 -0.00118251 0.00048256)
(0.565127 -0.000106315 -0.00022479)
(0.566616 -0.000920221 -7.89884e-05)
(0.56294 -0.00123577 -0.000703507)
(0.545982 -0.118323 0.0772304)
(0.564994 -6.26891e-05 -0.000257516)
(0.564733 -0.00016385 0.000101687)
(0.558242 0.000373477 0.00139533)
(0.564349 -0.00167276 -0.00357891)
(0.564688 -0.000657437 0.00143899)
(0.570274 0.00050001 0.000156237)
(0.200814 -0.200152 0.000118374)
(0.19599 -0.195353 0.00168453)
(0.567316 4.36833e-05 6.8443e-06)
(0.566654 -0.00082741 0.000489688)
(0.581548 0.00201207 0.00125577)
(0.587079 0.00653088 0.000880664)
(0.577971 -0.00128442 0.00142418)
(0.56621 -0.000201649 -0.000723207)
(0.299254 -0.213128 -0.0187136)
(0.574199 0.00141488 0.000527632)
(0.564156 0.00231644 0.00305289)
(0.586311 0.0175075 0.000570792)
(0.566033 0.000205493 0.000167798)
(0.565403 -0.000799401 0.000538487)
(0.566778 -0.00092646 0.000170742)
(0.570617 -0.00103382 0.000952213)
(0.560396 -0.00147202 0.000587364)
(0.567957 -0.000210341 -0.000586486)
(0.567428 0.00139974 -0.00066767)
(0.565783 -1.40058e-05 -0.000196958)
(0.56283 0.00113707 0.0038092)
(0.566296 0.00159606 -0.000142001)
(0.198731 0.198913 -9.79511e-05)
(0.195968 0.197806 0.00149916)
(0.566803 -0.000149432 -0.000359531)
(0.566968 -0.000414026 -0.000111899)
(0.566842 -0.00017377 -0.000202617)
(0.569126 0.0001333 -0.00135968)
(0.561026 -0.00102971 -0.00026451)
(0.562836 -0.000382065 0.000321082)
(0.567024 -5.99462e-05 -0.000151163)
(0.564463 0.000276105 0.000202828)
(0.563135 -0.00193605 0.000503509)
(0.56589 0.000402762 6.63394e-05)
(0.200736 0.200934 0.00131606)
(0.561441 -0.00320093 0.00164022)
(0.565947 0.000684843 -0.000133901)
(0.202035 0.202598 -0.000457802)
(0.566563 -0.000198936 0.000147353)
(0.195216 0.197028 -0.00207554)
(0.564931 0.00242965 -0.0019786)
(0.562243 0.00299614 -0.00304888)
(0.594348 -0.0098312 0.0184275)
(0.564483 -0.000535237 3.42739e-05)
(0.199744 -0.199393 0.00059925)
(0.600386 -0.0119667 0.0176318)
(0.555559 -0.000109841 0.000841309)
(0.564359 1.0691e-05 -0.000384238)
(0.566516 -0.000302622 0.000411197)
(0.566202 0.00057803 -0.000233281)
(0.19917 0.199225 -0.000186024)
(0.548221 -4.45107e-05 -0.00214663)
(0.563903 -0.00088061 0.000320108)
(0.558845 0.000278965 -0.000731046)
(0.582456 -0.0106954 0.0166854)
(0.199628 -0.20001 -0.000180541)
(0.56553 0.000286583 0.00059419)
(0.56275 -0.000616981 0.00013662)
(0.565406 -0.000130457 0.000111904)
(0.55671 -0.00146189 -0.00108083)
(0.564912 0.000196352 -0.000253825)
(0.563427 0.00108923 0.00123333)
(0.567587 0.00253049 -0.0015291)
(0.564895 -0.000434056 0.000255476)
(0.566008 0.000154129 0.000130769)
(0.5581 0.000855266 -0.00183806)
(0.56507 -0.00010519 -0.000221564)
(0.565746 0.000276555 5.01542e-05)
(0.541289 0.00129953 -0.00123805)
(0.562833 9.21245e-05 -0.000264355)
(0.563456 0.000200722 0.000231571)
(0.564578 5.18823e-05 -1.00089e-05)
(0.562465 -0.00109843 0.000630412)
(0.56972 -0.00316098 -0.000936839)
(0.199481 -0.199204 -0.000146045)
(0.590109 0.00255845 0.00642784)
(0.54679 0.000590086 -0.000755338)
(0.554122 0.00305304 -0.00728648)
(0.565029 -5.22343e-05 9.79652e-05)
(0.561693 0.000400178 0.000723811)
(0.199416 -0.199044 1.99256e-06)
(0.566499 0.00111952 -0.000604352)
(0.559512 -0.000220567 0.000423182)
(0.203249 -0.194652 0.000338711)
(0.566256 -1.47564e-05 0.000342782)
(0.199991 0.200041 -5.35096e-05)
(0.196477 0.201287 0.000519481)
(0.562984 8.78186e-05 3.58296e-05)
(0.564504 -0.000673519 0.00115213)
(0.564441 -0.000323206 0.000103389)
(0.49092 -0.00575069 0.00271641)
(0.567823 -8.59392e-05 0.000368121)
(0.19799 0.19855 0.000301234)
(0.565705 0.000262193 -0.000161499)
(0.19731 0.199025 0.00130145)
(0.564752 -2.10008e-05 -0.000312025)
(0.200088 -0.200252 -1.41668e-05)
(0.564252 -0.000294816 0.000331291)
(0.564567 0.00039256 0.000303)
(0.198906 0.198355 -1.10212e-05)
(0.199016 -0.199214 0.000126579)
(0.201362 0.198084 -0.00338395)
(0.563092 -0.000138315 -0.000173055)
(0.565426 0.00148712 0.000392157)
(0.560997 0.000838247 -0.000454714)
(0.56672 -0.000234042 -2.97247e-05)
(0.277679 0.142048 -0.00535669)
(0.56357 -0.000484988 0.000918289)
(0.199301 0.1995 2.89895e-05)
(0.199588 0.200002 -4.08694e-05)
(0.564546 0.0027419 0.000954139)
(0.560333 -0.00067026 2.53682e-05)
(0.19936 -0.196652 0.000734472)
(0.563291 0.000266362 0.00124891)
(0.574173 0.000390143 8.5789e-06)
(0.379608 -0.147406 0.0155664)
(0.527002 -0.00157349 -0.000200766)
(0.551111 0.0161865 -0.0114162)
(0.562139 0.00272435 0.00150359)
(0.560927 -0.00029335 -0.00234506)
(0.563559 -0.00182201 0.00146469)
(0.562449 0.000573882 -0.000610084)
(0.564558 -4.75013e-05 -6.25181e-06)
(0.564979 -9.55297e-05 -0.000273817)
(0.564656 -0.000452339 -0.000589293)
(0.553219 -0.00284763 -0.000776464)
(0.560693 0.0046481 0.000475619)
(0.575965 0.0042017 -0.00282509)
(0.581612 0.00302876 -0.00078814)
(0.565007 0.000325516 -0.00136224)
(0.530921 0.000416325 -0.00295718)
(0.571626 0.00236844 -0.00159611)
(0.198918 -0.199116 9.01746e-06)
(0.561109 0.000632619 -0.00128777)
(0.199602 -0.199563 0.00020084)
(0.56213 -1.53179e-05 0.000104326)
(0.58399 0.00162432 0.00227294)
(0.566734 5.8192e-05 -5.95208e-05)
(0.567399 -0.027738 0.0126273)
(0.53327 -0.00235931 0.000991031)
(0.535374 0.00022949 -0.00655894)
(0.56221 -0.000526105 0.000231428)
(0.563212 -0.000198536 0.000626513)
(0.564123 0.00126838 0.00229005)
(0.58799 0.0126825 0.0120646)
(0.563979 5.80317e-05 -3.76658e-05)
(0.564446 -0.000189253 0.000101997)
(0.199986 -0.199844 0.000334001)
(0.562216 -8.21934e-05 -0.000232276)
(0.558602 -0.00171675 -1.82273e-05)
(0.199438 0.199208 -3.62046e-05)
(0.565506 -0.00147391 0.000763304)
(0.575435 0.0178686 0.00860844)
(0.572376 -0.00463361 0.00660902)
(0.565075 0.000118817 -0.00145559)
(0.561318 -0.000213759 0.0014787)
(0.200482 -0.200413 -0.000927911)
(0.205282 -0.202196 0.000291342)
(0.574182 0.00535397 -0.00150958)
(0.565425 -0.000240933 -0.000383399)
(0.563304 -0.00186597 -0.00377694)
(0.202961 0.200382 -0.00178361)
(0.564698 -0.000597405 -0.000211527)
(0.200597 -0.199897 0.000289939)
(0.561846 -0.000445981 -0.000216816)
(0.564158 -0.000882447 -0.00105216)
(0.516787 -0.0074279 -0.00342551)
(0.580743 -0.00180695 0.00291035)
(0.200021 0.19974 -4.22031e-05)
(0.565541 -0.00100368 0.000618204)
(0.554303 -2.72228e-06 -0.000245645)
(0.562367 -0.000178511 -0.00175228)
(0.566111 -0.000686861 -0.000165784)
(0.564544 0.00103849 -0.000882828)
(0.564972 -0.00119119 -0.000104598)
(0.563317 0.00165087 0.000109685)
(0.562468 0.00021792 -6.1011e-05)
(0.580761 0.001253 0.00227741)
(0.199644 -0.199556 0.000249658)
(0.547009 0.000346529 -0.000420731)
(0.562152 -0.000291399 0.000963794)
(0.577691 -0.0012686 0.0014383)
(0.564769 -8.80462e-05 -0.000177396)
(0.555191 -0.00156599 0.00148391)
(0.577041 0.000178224 0.000644884)
(0.200504 -0.199438 -0.000183382)
(0.56084 0.00506753 0.00196658)
(0.56037 0.00722332 0.00691206)
(0.565296 -0.000212676 -0.000393074)
(0.5644 0.000680932 -0.000573944)
(0.565816 0.00039251 0.000103578)
(0.560194 -0.00541147 -6.36532e-05)
(0.198388 0.19859 -0.000304638)
(0.199872 0.199799 -6.66318e-07)
(0.198963 0.199802 2.45892e-05)
(0.564441 0.00222353 0.00289392)
(0.554866 -0.00313232 -0.00796492)
(0.504481 -0.00181345 0.000792025)
(0.577243 0.000848843 0.000543871)
(0.565299 -0.00292308 0.000978909)
(0.562708 -0.000517662 0.000702823)
(0.563397 0.000739088 -0.000122051)
(0.560739 0.000118184 0.000581588)
(0.563859 -0.000218932 0.000149163)
(0.202955 0.198916 -0.000345415)
(0.555943 -0.00670708 -9.44581e-06)
(0.563087 -0.000615419 -0.000153031)
(0.56069 0.00091022 0.00124403)
(0.563098 -0.000600073 0.000499788)
(0.5719 0.000592469 0.00052954)
(0.565303 0.000546361 3.94306e-05)
(0.560462 0.000688919 -0.000827469)
(0.59034 -0.00134957 0.00686782)
(0.574072 0.00104393 0.000290161)
(0.560512 -0.000593281 -0.00136536)
(0.570949 0.00073828 0.000202498)
(0.560307 0.000772145 0.00139096)
(0.562405 -0.000196793 -0.000299385)
(0.556735 0.00343165 0.00260557)
(0.566295 -0.000303122 -0.000721728)
(0.197299 0.196543 0.000418534)
(0.198801 0.19875 -9.66267e-05)
(0.573666 -0.00176739 0.000830039)
(0.557462 0.000387178 -0.000441677)
(0.565914 -7.74199e-05 0.000421386)
(0.199186 0.200505 0.000237539)
(0.200013 -0.199958 -0.000250937)
(0.563272 -0.000770859 -0.000197129)
(0.200489 -0.200705 -3.68134e-05)
(0.564204 0.000338129 -0.00010197)
(0.566784 -7.90179e-05 -0.00039943)
(0.565797 -0.000216595 0.00017941)
(0.570577 0.000304075 0.000338619)
(0.560907 -0.00422426 -0.001114)
(0.197936 0.200093 0.00148542)
(0.566044 -0.000646495 -3.84244e-05)
(0.564786 -0.000108439 -9.82328e-05)
(0.198153 0.198359 0.000185155)
(0.563654 0.000392292 0.000392556)
(0.19828 0.200199 0.000328777)
(0.197313 0.196194 9.63063e-05)
(0.566347 5.64286e-05 -0.000605354)
(0.567283 0.00052983 -0.000203466)
(0.564393 -1.17596e-05 -4.5673e-05)
(0.199173 0.198923 -0.000636105)
(0.199053 0.199096 0.000120006)
(0.486588 -0.000412052 -0.000839902)
(0.56521 -0.000308621 0.00137424)
(0.565778 9.10002e-05 -0.000145974)
(0.565265 -0.000535937 -0.000482256)
(0.564916 0.000185978 -0.000925874)
(0.565915 0.000349922 -0.00049547)
(0.56398 0.0209911 -0.0140771)
(0.199761 -0.200313 -0.000235267)
(0.564431 -0.000429041 -3.80096e-05)
(0.561091 -5.41734e-05 -1.72782e-05)
(0.19943 0.199453 -4.02027e-05)
(0.200329 0.19868 -0.000271698)
(0.556932 -0.000196869 0.000313029)
(0.564111 -0.000425017 4.21636e-05)
(0.198438 -0.198836 0.000601653)
(0.565422 -0.000332263 -0.000218953)
(0.565233 0.000154847 -0.00016589)
(0.565104 -3.45391e-05 -0.001029)
(0.590473 0.0430336 -0.0159554)
(0.563698 0.000537999 3.71046e-05)
(0.56696 -0.00033144 -0.00017175)
(0.559011 0.0245067 -0.00298183)
(0.637496 0.129771 -0.0577781)
(0.565619 2.76593e-05 9.44979e-05)
(0.255633 0.159959 -0.00767963)
(0.561952 0.000525581 -0.000196122)
(0.200372 -0.200006 -1.09374e-05)
(0.558496 7.89247e-05 0.000885632)
(0.199713 -0.19953 0.000634528)
(0.564848 0.000244309 -0.00043546)
(0.56385 0.000404727 -0.000449994)
(0.199495 0.200291 -0.000231526)
(0.562589 0.000714857 0.000736067)
(0.565544 -0.000511415 -0.00042804)
(0.56712 -0.000305293 -0.000459339)
(0.19942 0.199113 4.96083e-05)
(0.198753 -0.199012 -0.000234586)
(0.561782 -0.000533856 0.000712661)
(0.163298 0.116079 0.0440969)
(0.566911 -0.00117939 -0.000685113)
(0.200421 -0.199736 0.000193933)
(0.58244 -0.00106548 0.00728265)
(0.561991 0.000416569 -0.000155574)
(0.566692 4.54753e-05 -0.000301401)
(0.200398 -0.198007 -0.00141188)
(0.567125 -0.000349346 -0.000201652)
(0.565663 -0.000967504 0.000629121)
(0.207184 0.195901 -0.00106663)
(0.56726 0.000251389 -0.000872405)
(0.565902 0.000252524 -0.00118343)
(0.567367 0.000267566 7.59836e-05)
(0.566203 -0.00027099 -1.96594e-05)
(0.566804 -9.68944e-05 -0.000331651)
(0.567889 -0.000273509 -0.000489313)
(0.200167 -0.20066 -0.000272927)
(0.19247 0.193548 0.000609636)
(0.56081 0.000393507 0.000812476)
(0.565375 0.000793607 0.00217038)
(0.565036 -4.73714e-05 -0.000341582)
(0.567013 0.000140811 -0.000423825)
(0.199529 0.199447 2.10945e-05)
(0.566084 -0.000182051 -0.000106787)
(0.565614 0.000130849 -0.000931845)
(0.570824 -0.000208313 0.000424452)
(0.565326 0.000130785 -0.000399781)
(0.567604 4.76536e-06 -0.000384273)
(0.562507 0.000847995 0.00077811)
(0.565627 0.000458222 -0.00101909)
(0.565405 0.000500382 -0.000715316)
(0.198824 0.198661 -0.000341073)
(0.559091 0.000384069 -0.000206816)
(0.227807 -0.191995 -0.0076287)
(0.553852 -0.00350945 0.000485149)
(0.196659 0.191303 -0.00190579)
(0.198302 0.198712 -5.4925e-05)
(0.564663 -8.28435e-05 8.57217e-05)
(0.564354 2.51811e-05 8.4441e-05)
(0.199242 0.198901 -4.98218e-05)
(0.556347 -0.000520153 0.000410607)
(0.564792 -0.000669454 6.41749e-05)
(0.565241 -0.000499489 -0.000159736)
(0.566348 3.24056e-05 -0.00046573)
(0.199187 0.198417 0.000755436)
(0.56425 0.000199357 7.106e-05)
(0.560863 -0.000162887 0.000590742)
(0.561431 -9.82755e-05 0.000497094)
(0.566797 0.000216542 -0.000324355)
(0.563156 -1.74133e-05 0.000322175)
(0.566475 -4.96004e-05 -0.000396924)
(0.565076 -3.97589e-05 -0.000321323)
(0.56541 0.000163454 -0.000301108)
(0.563089 -0.000159337 0.000215787)
(0.573845 -0.00076187 0.000547431)
(0.15724 0.0629619 -0.071763)
(0.563514 -0.000119483 0.000276953)
(0.198253 0.198715 0.00026761)
(0.565306 0.000133979 0.000795539)
(0.566074 -0.000200109 -0.000644309)
(0.562935 0.00225966 -0.000381485)
(0.559294 -0.00217665 0.00387773)
(0.564491 -0.000959509 0.0020158)
(0.566971 5.30176e-05 -0.00020628)
(0.56684 -0.000155686 -0.000750723)
(0.566258 -0.000288908 -0.00027186)
(0.566419 -0.00082099 -0.00083913)
(0.562877 -0.00107592 0.000832733)
(0.198 0.199514 -0.00289698)
(0.566154 -0.000137024 0.000308901)
(0.565587 0.000344408 0.000321726)
(0.567514 -0.000229758 0.000144129)
(0.565667 -0.000199394 -0.000399551)
(0.565686 -0.000813796 -0.000883054)
(0.563349 -0.000166412 0.000304895)
(0.556991 0.00646632 -0.0010302)
(0.572302 0.000805582 0.000651319)
(0.558724 0.00168277 -0.00088438)
(0.562798 0.000383218 -0.00092567)
(0.19932 0.199329 8.64782e-05)
(0.200489 -0.199745 7.55948e-06)
(0.566646 0.000161786 0.000188251)
(0.566436 0.000259255 0.000296986)
(0.562607 -0.000618501 0.000552413)
(0.559293 0.000634444 -0.00220163)
(0.561697 -0.000824683 -3.34907e-05)
(0.198846 0.199064 -0.000325799)
(0.199092 0.199298 -0.000156466)
(0.566762 -0.000730601 -0.000762757)
(0.564244 -0.000365214 0.000152823)
(0.565211 -0.00026468 -0.000360854)
(0.565331 -0.000107418 -0.000257621)
(0.565227 -0.00019729 -0.00067126)
(0.565954 -0.000313501 -2.97903e-05)
(0.220655 -0.153296 -0.0146194)
(0.56497 7.16783e-05 -0.000146088)
(0.562135 -0.00106372 0.000821273)
(0.560419 0.000463792 -0.000963582)
(0.557152 3.05178e-05 -0.00175634)
(0.56681 -0.000207946 -0.000250117)
(0.54165 0.0037124 -0.0128915)
(0.557093 0.0158199 -0.0107538)
(0.566601 0.000277011 0.000133562)
(0.562073 -0.00088164 0.000834572)
(0.560659 -0.000292113 0.000329097)
(0.563775 -0.000698613 4.37022e-06)
(0.573146 0.000278188 -0.00100672)
(0.199319 0.19935 1.59085e-06)
(0.556927 0.00227866 -0.00220513)
(0.566893 1.77427e-05 0.00012623)
(0.551015 -0.00215791 -0.00590612)
(0.566199 0.000121144 -0.000509143)
(0.566358 4.38371e-05 -0.000629)
(0.19973 0.197603 -0.000812304)
(0.563624 -0.00107713 0.00407434)
(0.573319 -0.000393642 5.80872e-05)
(0.566942 -1.12885e-05 -0.000459889)
(0.561339 0.000372862 0.000999897)
(0.55408 -0.000207212 -0.00173465)
(0.199309 0.20511 -0.00187086)
(0.197821 0.195524 -0.00103343)
(0.565914 0.000350342 0.00018942)
(0.566158 -0.000197863 -5.27996e-05)
(0.56626 -0.000196949 4.89695e-05)
(0.567341 8.59588e-05 0.000117372)
(0.566262 0.000163748 3.59024e-06)
(0.565517 0.000566561 0.000444725)
(0.562585 -0.00061657 0.000787675)
(0.566298 0.00148274 -0.0026942)
(0.56572 -0.000269317 -0.000936438)
(0.565934 0.000854146 -0.000374149)
(0.563965 -0.00128303 0.00228724)
(0.56163 0.0011385 -0.000766202)
(0.563244 -0.000689204 9.47942e-05)
(0.56629 0.00018698 -0.000411761)
(0.198621 0.198611 0.00010589)
(0.566768 5.86274e-05 -0.000177553)
(0.200425 0.200587 -0.000123948)
(0.199601 0.199155 1.22711e-05)
(0.565938 0.000965871 -0.000463675)
(0.563029 0.000124685 0.000134057)
(0.566487 -0.000745347 0.000555383)
(0.200412 -0.200242 -3.10742e-05)
(0.564441 5.36519e-06 0.000465)
(0.561313 0.000991032 -0.00171118)
(0.567397 0.000574322 -0.000969846)
(0.199548 0.199649 9.19212e-05)
(0.564047 -0.000390436 -0.000101489)
(0.197085 0.198847 -0.000605531)
(0.563691 -0.000304201 0.00330216)
(0.198073 0.196986 -0.00012885)
(0.561986 -0.000207504 0.000936723)
(0.559956 0.000125801 0.00134477)
(0.563587 -4.24999e-05 4.14851e-05)
(0.565772 0.00073498 -0.000113202)
(0.200337 -0.200238 9.95051e-05)
(0.198373 0.198344 -0.000172138)
(0.566992 0.0027523 -0.0030521)
(0.557539 -0.000299725 0.00211417)
(0.567364 9.7876e-05 -0.000883281)
(0.565697 -0.00013015 -0.000505391)
(0.565779 -0.00012041 -0.000578831)
(0.564979 0.00164135 -0.000858711)
(0.574692 0.00328493 -0.00128731)
(0.199735 0.199935 -0.000270424)
(0.582054 0.00715649 -0.000911054)
(0.565303 -0.000547059 -0.000795376)
(0.541629 0.0637043 -0.0393124)
(0.198089 0.196666 0.000534237)
(0.567574 0.00129683 -0.00162363)
(0.546547 0.000455392 0.00145245)
(0.19941 0.197822 0.00170556)
(0.581633 0.002314 0.00104511)
(0.567141 -0.000142691 -0.000450638)
(0.199709 -0.199588 -8.41412e-05)
(0.559783 0.000359401 0.00152979)
(0.596178 0.0083072 0.00139311)
(0.566047 -0.00037313 -0.000104435)
(0.562084 -0.0014357 0.00239672)
(0.576275 0.00527253 0.0274042)
(0.563146 0.000800674 -0.000541934)
(0.564813 -9.60177e-05 -0.000371462)
(0.561396 0.000153764 -0.001915)
(0.53936 -0.000123476 -3.61733e-05)
(0.566923 -0.0230689 0.025789)
(0.564428 0.000239826 0.000859734)
(0.555319 -0.0010445 -4.39318e-05)
(0.566046 7.93038e-05 -0.000191377)
(0.575509 -0.00148478 0.00100727)
(0.566419 -0.00012112 0.000182924)
(0.567592 0.00200262 -0.00151267)
(0.199415 0.19949 2.31189e-05)
(0.566505 0.000679518 -0.000263536)
(0.580729 0.000419502 0.00146229)
(0.591094 0.00559089 0.00826506)
(0.199749 -0.199762 -7.56227e-05)
(0.562464 -0.00113691 0.000970503)
(0.568965 -4.51499e-05 -0.00028884)
(0.197202 0.195145 0.000401062)
(0.559565 0.00047919 5.26369e-05)
(0.563068 0.000510739 -0.000457623)
(0.565537 0.000394971 -0.000737592)
(0.567774 0.000382876 7.20926e-06)
(0.563469 -0.000155738 -0.000389763)
(0.564988 -2.77214e-05 0.000178851)
(0.198912 0.199225 -0.000231318)
(0.562221 -0.000294911 -0.00188688)
(0.570532 0.000610674 -0.000327202)
(0.198979 0.19897 0.000236974)
(0.200022 0.199452 -0.000105838)
(0.56541 0.000525885 0.000312274)
(0.19943 0.199785 -0.000111155)
(0.564292 -0.000311682 0.000501903)
(0.560339 -0.00407779 -0.000499479)
(0.56572 0.000240999 -0.000381745)
(0.562299 -0.000648556 -0.00235662)
(0.562136 -7.84127e-05 -0.00193832)
(0.283945 -0.0195984 0.0421425)
(0.199424 0.199669 0.000193532)
(0.571532 0.00100735 -0.000104037)
(0.564775 5.04496e-05 1.02249e-05)
(0.56289 0.00069514 -0.000543451)
(0.562163 0.00274062 -0.00188049)
(0.563027 -0.000105869 -0.000933329)
(0.19914 0.199304 -0.000232989)
(0.544146 -2.42675e-05 -0.000878664)
(0.560555 -0.000196506 -0.000841359)
(0.555983 0.00170656 0.00407051)
(0.567153 -0.000196569 0.00111251)
(0.563704 -0.00102688 -0.000395009)
(0.556261 0.017552 -0.0219078)
(0.565984 -0.00162799 8.27873e-05)
(0.551416 0.00608924 -0.011411)
(0.19862 0.195274 -0.00116862)
(0.199608 0.199506 0.000210892)
(0.199098 0.199156 -2.7325e-05)
(0.566066 0.000206256 -0.000254114)
(0.565596 -0.00027712 -0.000555654)
(0.199128 0.198569 -0.000101425)
(0.563789 -6.44754e-05 0.000970481)
(0.557455 0.00387188 0.0028186)
(0.556649 -0.000992434 -0.00110132)
(0.501124 0.0707104 -0.0406519)
(0.55991 -0.000762801 -0.000498019)
(0.565434 0.000159825 4.96201e-05)
(0.199838 0.204359 0.000335873)
(0.556836 0.0129845 -0.0208876)
(0.19988 0.199841 0.000175647)
(0.198917 0.198376 0.000351587)
(0.56588 -0.000186119 0.000117838)
(0.318046 0.243328 0.0367633)
(0.289889 -0.117868 -0.00403808)
(0.562591 -0.00128207 -0.000189912)
(0.194326 -0.197747 0.000260612)
(0.565853 0.000185882 8.05448e-05)
(0.56073 -0.00258092 -0.00517931)
(0.569985 0.0195012 -0.0138105)
(0.565349 -8.70796e-05 0.000463991)
(0.575574 0.0109776 -0.00378698)
(0.563563 0.000542824 8.38925e-05)
(0.570636 -0.0366274 -0.0106962)
(0.199024 0.198992 4.25266e-05)
(0.198891 0.19803 0.000209852)
(0.563428 -0.0011372 -0.000126345)
(0.563193 -0.000756203 0.00117139)
(0.566964 -0.000378202 0.000126287)
(0.195871 0.198988 -0.00154642)
(0.562194 0.00109103 4.61056e-05)
(0.56516 -0.000351746 0.000210817)
(0.565455 -5.60018e-05 -0.000130063)
(0.199253 0.199479 0.000834066)
(0.56513 0.000300588 -0.000487083)
(0.565382 -0.000197323 -0.000161039)
(0.51088 0.057163 0.0378055)
(0.199124 0.199152 -0.000145429)
(0.645194 0.172883 -0.00642117)
(0.522248 0.0736835 -0.0535228)
(0.200195 -0.199484 4.04505e-05)
(0.199811 0.199085 0.000347273)
(0.19892 0.198536 5.30064e-05)
(0.200425 0.199854 0.000398796)
(0.199968 0.199684 -0.000791373)
(0.564634 0.000296696 -0.000250305)
(0.565968 0.00013595 0.00010422)
(0.564371 0.00052531 0.00011811)
(0.199454 0.198451 0.000168298)
(0.565475 -0.000305896 -0.000204911)
(0.567348 5.40552e-05 0.000387834)
(0.199648 0.198945 0.000266593)
(0.579139 -0.00445813 0.0096817)