/*--------------------------------*- C++ -*----------------------------------*\
  =========                 |
  \\      /  F ield         | OpenFOAM: The Open Source CFD Toolbox
   \\    /   O peration     | Website:  https://openfoam.org
    \\  /    A nd           | Version:  10
     \\/     M anipulation  |
\*---------------------------------------------------------------------------*/
FoamFile
{
    format      ascii;
    class       volScalarField;
    location    "2.6";
    object      SgRate;
}
// * * * * * * * * * * * * * * * * * * * * * * * * * * * * * * * * * * * * * //

dimensions      [1 -1 -3 -1 0 0 0];

internalField   nonuniform List<scalar> 
111485
(
2.26851e-15
5.74449e-15
2.60505e-15
9.89582e-17
1.8187e-15
7.73971e-18
3.8164e-15
1.26707e-15
8.24645e-17
2.95809e-13
1.26215e-15
8.10615e-16
5.5048e-17
1.41229e-15
1.21347e-15
2.98499e-15
2.9044e-16
0.00287276
6.17771e-16
1.00013e-15
4.30558e-16
1.78247e-17
4.92939e-15
3.49505e-15
6.39458e-16
1.0973e-15
1.17846e-13
1.47048e-15
2.19841e-15
1.45386e-17
7.89663e-05
2.04308e-15
3.26741e-16
1.9402e-16
1.03112e-05
2.51695e-15
3.40928e-05
1.42018e-15
9.3976e-11
3.55727e-15
8.98461e-17
3.38752e-12
8.70662e-16
3.63521e-06
2.63465e-08
1.02747e-14
7.98034e-09
1.16023e-16
6.53264e-12
1.69918e-16
1.35536e-17
2.08568e-15
2.74464e-16
5.88519e-06
2.37392e-17
1.93274e-16
3.98883e-16
3.26279e-16
1.48673e-12
7.2848e-16
1.88426e-15
1.39411e-15
7.98175e-15
0.000216078
8.86482e-16
1.05763e-15
0.000345287
6.8521e-15
3.01153e-15
8.49695e-15
1.5626e-08
9.37704e-16
2.84009e-16
4.74515e-15
1.51669e-15
1.73907e-15
1.05664e-15
4.46048e-13
6.90398e-16
8.21084e-15
5.93538e-09
7.34312e-08
4.16925e-17
5.03664e-16
2.19426e-15
1.88679e-15
5.28599e-13
3.49999e-05
8.89924e-08
1.16029e-15
1.23754e-06
4.47435e-15
2.91004e-15
4.31295e-16
2.0006e-11
4.36814e-16
3.83129e-16
1.21138e-05
8.71233e-12
2.14004e-07
6.0737e-16
5.26657e-14
1.42406e-16
1.98526e-15
8.57254e-16
6.37205e-16
1.7769e-16
4.44088e-15
1.8391e-15
9.81758e-11
1.72865e-15
1.61304e-15
1.15674e-16
2.03738e-15
6.13916e-16
3.22604e-16
6.31937e-16
3.29812e-15
4.40619e-15
1.0178e-15
1.88954e-15
2.96408e-15
2.70912e-16
1.20867e-15
7.06155e-13
2.00055e-09
2.56802e-16
6.11706e-16
1.83254e-16
1.62678e-07
1.19845e-05
1.7204e-05
1.94101e-16
7.98454e-15
1.5036e-15
1.70489e-15
6.92118e-16
1.48463e-17
1.55106e-16
6.80972e-15
2.82786e-12
4.96368e-17
1.80522e-18
7.25281e-16
2.09886e-08
2.65128e-16
8.44624e-16
4.42843e-16
2.31078e-16
7.89343e-16
2.17648e-16
4.77427e-15
1.06573e-05
1.76402e-15
6.67112e-10
3.16582e-15
3.89967e-16
4.82646e-16
1.21363e-10
1.08371e-15
7.81955e-17
5.25376e-15
2.52809e-16
3.14488e-09
3.07056e-10
3.43332e-15
1.67037e-06
5.02016e-16
7.44587e-09
6.4893e-08
2.64072e-17
4.66498e-16
1.19578e-15
1.41444e-17
1.09232e-16
5.92716e-16
1.00428e-16
3.94388e-17
1.58925e-15
1.41799e-15
6.59242e-16
4.59873e-16
2.51885e-16
5.17179e-16
2.02246e-15
2.97701e-15
3.54033e-13
5.3572e-15
8.48761e-08
5.36568e-16
2.16425e-15
1.7191e-17
5.43872e-16
7.30662e-15
1.34802e-13
4.29032e-05
1.88688e-15
7.64093e-17
8.88854e-16
2.70716e-15
4.1464e-16
5.81244e-08
3.6514e-07
1.42138e-15
5.83128e-16
7.29549e-16
1.42389e-15
2.87104e-16
4.8652e-08
5.94366e-08
1.42782e-16
8.35496e-16
2.57608e-16
9.72201e-17
5.58479e-15
6.02662e-15
2.15551e-05
5.1279e-16
3.44168e-15
1.30726e-15
7.76067e-11
3.12209e-15
3.63253e-15
7.03439e-05
6.88599e-16
3.42756e-17
9.17946e-17
0.000178065
5.42292e-10
8.67049e-16
1.01145e-15
1.50399e-15
8.90453e-17
2.35531e-15
5.87482e-17
4.30205e-16
1.37266e-06
1.57236e-16
7.10312e-15
4.18627e-15
3.77077e-15
3.03132e-15
4.80289e-16
1.37789e-16
2.0752e-10
3.36596e-16
2.5003e-15
1.36829e-16
4.79681e-07
1.69457e-15
1.34561e-15
1.09943e-15
4.04968e-15
5.40336e-16
5.51297e-15
1.12483e-07
4.92824e-16
2.31368e-15
4.1154e-08
6.32123e-16
1.15716e-15
5.60124e-16
4.21768e-16
3.02927e-15
7.78228e-16
4.10442e-17
3.69932e-16
8.31454e-16
5.75142e-13
5.66933e-13
6.7206e-15
7.4581e-16
1.09517e-16
3.34268e-15
1.68817e-15
1.03428e-06
1.35156e-17
1.41542e-17
3.99576e-16
1.03445e-15
1.63927e-10
1.59152e-15
3.7872e-11
5.38877e-16
8.66634e-17
4.54878e-16
1.67053e-17
4.16187e-16
2.85187e-14
5.15002e-09
4.9812e-16
2.76012e-15
8.62824e-07
1.30646e-15
1.6028e-15
5.03568e-16
5.02759e-10
3.4472e-16
0.000287032
1.18264e-16
1.54128e-15
2.47635e-15
1.75452e-16
9.78226e-16
3.666e-16
2.80539e-16
1.9802e-15
1.19709e-14
1.43284e-16
6.26831e-17
1.5934e-16
2.1564e-14
4.40011e-16
5.76927e-16
1.91928e-16
1.76222e-16
2.85706e-16
1.90122e-14
1.98426e-16
0.000224904
8.29353e-11
1.01184e-16
1.11378e-16
4.49985e-16
7.67727e-15
1.18592e-15
1.25189e-15
5.90711e-16
7.39727e-16
6.81813e-15
6.02741e-16
0.000149346
1.01759e-16
5.91034e-16
5.7646e-16
1.13603e-15
4.54761e-15
9.45554e-16
8.22531e-16
2.2805e-17
7.08463e-06
1.68514e-16
5.33539e-13
2.27797e-07
5.58049e-16
6.10075e-16
9.4149e-08
3.60794e-15
2.77521e-17
1.74043e-15
1.31495e-15
7.19972e-06
1.92146e-05
4.87396e-15
5.42143e-17
2.38954e-15
2.02798e-15
1.54251e-15
3.97382e-15
7.69875e-16
1.79716e-15
2.06531e-15
8.51064e-17
5.09028e-15
1.90861e-16
5.68893e-16
2.32151e-15
1.08472e-16
1.52204e-05
2.86305e-15
1.81948e-16
8.88849e-16
3.24403e-16
6.54605e-16
1.49091e-16
6.6449e-17
5.22954e-16
2.19818e-15
6.19601e-16
1.36678e-15
4.3703e-16
8.62267e-16
7.04185e-05
1.36799e-16
1.52303e-15
3.62042e-15
1.59164e-16
1.05036e-05
5.44736e-16
3.82811e-15
0.000164896
2.84002e-17
1.46448e-15
9.29491e-16
4.48633e-17
5.64946e-15
2.57899e-16
3.03817e-16
5.92923e-05
9.48306e-16
1.67418e-16
8.40705e-07
4.23513e-16
1.87757e-15
2.0488e-16
2.14425e-16
8.78667e-16
5.2139e-15
2.68512e-16
2.66412e-11
4.21787e-16
1.09682e-15
8.40475e-17
2.07372e-15
4.76666e-17
7.91281e-10
9.61083e-11
1.54193e-16
2.10858e-17
3.51979e-15
1.67014e-06
4.06932e-16
3.53296e-06
1.77269e-05
3.40232e-11
0.00104582
3.3094e-16
9.22329e-18
2.87487e-07
4.89102e-17
4.08795e-05
5.80413e-16
3.04588e-15
1.58686e-11
5.43126e-15
3.48163e-15
3.38975e-16
3.51598e-15
2.73995e-17
3.24745e-16
1.30081e-16
1.1781e-15
1.37061e-16
6.72627e-10
2.94703e-15
2.43241e-10
1.8873e-16
2.13619e-09
1.17426e-16
2.55393e-16
7.35361e-16
5.59864e-08
2.79459e-15
2.45196e-16
2.0737e-15
8.92486e-16
1.61708e-15
1.46119e-16
7.23349e-16
3.15856e-16
4.3084e-07
3.25495e-16
1.18897e-16
1.15934e-15
3.58335e-15
3.34677e-16
2.26359e-16
2.10726e-17
5.2611e-16
7.99713e-17
7.23033e-17
4.34872e-10
2.42832e-17
1.38682e-15
2.53959e-07
1.96451e-15
2.18653e-15
3.95304e-17
8.11489e-17
1.139e-15
2.26031e-16
3.09953e-16
3.50962e-16
7.87725e-16
1.74406e-06
1.84361e-15
1.13279e-06
2.48871e-16
5.85631e-07
3.99457e-16
2.58762e-17
7.75207e-16
4.35723e-16
4.69338e-16
2.245e-05
4.94305e-16
1.51786e-10
3.32501e-10
3.81896e-18
5.03528e-17
1.28551e-16
3.17893e-16
1.93967e-17
7.89187e-15
5.6538e-10
7.6332e-17
3.84476e-10
4.5347e-15
3.25431e-16
5.03045e-16
2.34079e-12
3.82884e-16
9.50055e-17
3.42548e-17
4.52267e-10
6.08388e-10
1.52625e-15
3.74373e-16
2.44942e-15
4.52985e-17
8.8088e-12
1.93816e-10
3.76365e-17
4.52005e-16
5.87726e-16
8.82844e-17
2.27608e-10
4.53863e-16
7.01315e-11
2.19526e-15
8.58152e-15
3.34924e-12
1.22073e-14
4.36963e-16
2.48632e-18
4.57707e-16
5.64128e-16
1.11064e-16
9.55567e-16
1.07922e-17
4.69985e-15
8.36699e-16
1.29517e-09
2.52419e-16
2.87924e-14
1.64208e-15
2.22541e-15
1.92755e-05
2.09569e-16
9.86328e-10
5.34017e-16
6.85299e-10
8.11005e-16
4.01318e-16
4.88382e-10
2.75414e-16
2.12182e-16
2.58207e-11
5.49671e-05
3.56332e-10
1.90826e-15
6.24966e-06
4.22636e-15
3.43275e-09
1.38028e-06
2.05274e-13
5.0236e-16
1.0052e-16
1.89836e-16
1.27597e-14
2.2419e-16
1.00665e-06
7.79711e-16
9.16934e-12
0.00076102
1.17727e-16
8.78073e-14
3.2323e-16
6.37701e-15
1.73486e-16
3.9337e-06
1.41329e-10
1.18776e-08
1.04983e-14
9.97699e-15
9.54415e-16
6.75886e-16
2.37001e-13
9.2338e-17
7.81745e-15
1.72908e-17
2.13933e-17
3.20639e-16
1.30652e-14
2.81945e-16
1.65248e-15
7.62097e-14
1.06668e-16
3.10151e-16
1.53278e-16
1.00741e-15
3.37589e-15
9.57414e-16
2.86546e-15
1.79628e-13
3.21807e-18
2.17421e-16
1.1919e-14
1.44762e-16
1.98388e-15
3.01666e-12
1.93456e-16
1.10724e-15
9.66465e-05
3.30027e-14
2.17429e-15
9.10441e-05
1.50695e-06
1.45416e-15
1.07867e-15
2.68935e-11
3.97591e-15
5.21841e-15
3.75626e-16
2.88169e-07
4.64539e-16
2.52733e-16
1.19349e-15
1.34143e-15
3.03058e-16
2.44935e-10
0.000102628
9.82706e-16
1.14233e-15
7.42133e-12
9.16716e-17
8.2081e-17
5.62903e-15
9.83658e-12
2.83919e-15
2.23523e-15
3.6526e-16
8.39107e-15
2.47138e-15
6.41394e-15
5.57509e-15
5.38492e-14
1.75425e-13
1.45337e-16
2.34304e-16
2.88738e-16
7.61247e-17
1.2081e-15
3.33838e-16
8.5179e-16
9.25042e-17
1.63477e-15
5.0294e-10
4.01588e-16
1.22484e-16
1.12968e-13
7.44942e-13
4.32323e-15
6.9696e-11
9.54487e-16
1.54892e-15
3.25611e-16
1.11838e-10
2.86067e-14
2.71459e-15
7.16675e-15
4.36122e-16
4.39367e-17
0.000154599
7.86989e-17
3.82523e-15
2.05494e-14
3.57619e-09
6.27787e-16
3.82993e-14
2.63959e-07
1.25809e-15
1.00455e-16
1.10754e-15
1.59137e-16
5.79246e-17
3.84373e-15
5.97866e-17
6.15428e-16
5.30087e-15
5.85482e-16
1.50166e-15
4.20069e-17
1.45741e-14
1.02156e-15
1.10515e-16
0.00493966
0.000170234
1.09474e-15
1.11224e-16
2.20712e-15
1.04579e-10
1.97686e-06
1.06571e-15
6.99987e-09
0.000174104
1.40127e-10
1.31889e-16
4.72168e-15
4.9637e-16
1.63805e-07
5.1946e-16
4.8209e-16
1.09667e-16
6.26251e-16
1.65684e-16
1.18066e-17
8.79646e-15
1.04283e-15
9.62207e-16
4.17111e-16
1.10943e-14
1.78756e-16
4.73421e-16
1.53444e-16
5.19306e-08
2.71602e-15
1.92394e-15
5.04163e-16
4.91826e-18
3.60754e-15
6.77285e-16
1.94427e-15
1.40241e-15
3.56413e-16
9.08747e-16
2.25116e-15
3.75329e-15
6.39721e-17
3.07596e-15
4.63199e-18
2.3033e-15
8.32164e-06
3.90592e-15
4.10329e-15
8.45885e-08
1.18379e-15
1.3589e-16
0.00110694
4.30599e-15
7.75592e-14
2.84893e-14
1.3687e-08
1.2418e-13
5.6971e-15
1.26435e-15
6.46666e-08
2.28482e-16
4.2254e-16
7.52368e-13
0.000717031
1.03503e-16
1.77723e-16
1.38209e-09
4.07392e-10
2.14694e-10
1.17421e-15
1.3466e-15
2.5941e-15
2.24668e-15
4.2233e-15
1.06346e-15
1.68765e-15
3.3555e-15
6.94786e-16
5.1453e-15
1.65197e-17
1.37385e-16
1.66316e-16
5.14169e-16
2.17371e-17
3.57565e-16
2.2029e-16
6.29617e-08
4.09797e-16
2.27656e-16
2.06075e-16
2.39779e-16
1.74123e-15
9.73442e-16
5.37879e-17
1.6305e-12
1.71949e-15
1.55679e-16
1.24632e-14
8.9299e-16
6.53158e-13
4.12614e-16
5.24202e-17
5.6694e-16
1.58264e-08
5.19535e-12
8.22091e-08
4.32741e-16
1.45179e-16
7.86338e-16
4.38369e-06
2.09962e-11
3.64991e-16
1.84585e-11
3.34313e-16
1.38898e-15
3.84671e-15
5.12217e-07
2.31506e-09
1.98415e-15
2.01274e-15
2.49417e-06
5.96343e-17
3.22419e-16
4.41103e-17
4.84557e-16
9.09648e-15
3.70045e-15
3.93864e-15
1.41917e-15
1.48483e-15
1.40159e-15
1.2625e-15
2.17037e-06
1.12264e-16
8.95474e-17
2.30052e-15
1.02347e-15
1.38231e-15
1.17935e-16
1.96475e-09
2.60389e-15
5.65727e-16
1.80715e-16
2.52325e-08
2.09443e-06
3.05997e-08
4.22679e-10
1.91926e-17
2.56565e-16
2.59559e-07
7.6649e-16
2.87015e-14
2.34295e-08
4.24381e-07
8.11576e-11
4.84447e-11
1.35911e-09
3.8736e-16
8.05769e-15
2.35443e-15
4.81595e-15
3.01809e-07
4.72993e-08
6.5282e-16
1.33841e-15
5.00813e-10
1.6203e-10
1.75406e-17
5.16504e-09
6.53382e-16
1.40958e-16
3.44923e-16
9.53394e-16
1.25856e-15
5.31732e-16
1.35665e-08
4.5132e-16
1.20166e-17
2.51838e-15
7.00932e-09
2.78618e-10
2.60827e-15
2.39621e-15
7.00382e-18
1.97814e-16
9.62822e-09
4.32595e-16
3.76845e-17
7.08411e-16
1.71299e-06
2.26759e-15
3.0539e-16
2.23273e-15
1.64992e-15
2.07851e-16
3.78902e-17
2.68666e-17
7.14926e-07
2.39047e-16
1.53686e-11
1.92422e-15
1.95256e-17
5.25493e-16
4.65067e-16
1.11269e-08
1.16082e-15
2.31648e-16
2.51783e-16
7.03393e-09
4.43877e-16
5.31171e-07
8.05106e-10
3.08438e-09
1.64345e-16
5.85447e-08
3.56973e-07
1.18838e-15
2.17679e-15
5.39275e-09
1.81146e-11
4.13404e-15
1.55028e-16
1.55274e-15
2.1726e-15
4.34548e-15
2.00927e-15
1.49684e-06
1.7664e-10
3.96204e-18
1.79384e-15
3.77636e-16
1.34632e-15
7.11507e-17
3.87591e-16
3.35571e-16
7.51846e-17
6.78748e-16
9.61218e-10
9.85724e-15
2.87441e-16
6.17851e-13
5.10584e-15
1.34482e-07
1.99627e-15
7.11967e-17
5.32704e-16
7.28605e-16
2.82817e-18
3.10299e-15
0.000406972
1.58482e-16
2.45045e-16
4.77626e-16
1.88166e-16
2.6838e-15
1.1151e-15
1.12186e-15
3.34922e-09
9.56802e-16
2.01146e-15
1.0577e-06
7.99944e-07
5.82613e-15
6.87946e-08
1.12129e-15
2.50981e-08
6.68393e-10
9.06701e-17
1.07753e-06
1.24773e-07
1.62053e-16
2.93497e-16
1.35216e-15
1.40131e-06
2.74042e-16
8.50084e-06
7.04089e-16
0.000209844
5.95258e-16
3.43367e-15
1.67826e-14
7.74422e-16
2.11452e-16
1.43691e-15
3.38828e-16
4.20556e-05
3.33894e-16
1.76558e-16
4.73881e-17
7.81482e-06
5.11135e-16
2.56639e-15
2.38605e-15
2.08985e-15
1.96024e-16
1.22484e-17
2.82644e-05
3.2979e-13
1.04461e-15
1.76341e-16
2.33366e-10
1.90917e-15
6.25077e-06
1.21116e-16
5.57005e-16
7.10012e-06
1.28363e-15
2.1783e-15
2.08402e-17
4.54453e-16
4.47064e-16
1.20785e-10
1.16553e-09
1.01527e-06
1.33577e-05
1.02547e-05
1.1329e-09
1.62748e-16
1.30558e-07
7.98175e-16
6.84679e-16
1.58503e-15
2.47857e-16
1.34071e-16
2.91315e-17
7.17342e-18
3.24427e-15
9.50888e-06
1.5004e-05
2.02671e-15
5.41637e-16
1.45746e-14
3.1318e-06
1.50852e-08
8.71199e-16
1.45122e-15
1.73618e-07
1.57573e-16
1.19228e-15
6.15314e-17
1.83859e-15
1.49138e-05
1.69293e-16
2.46979e-15
2.15562e-16
9.14941e-17
6.35749e-15
2.2171e-17
6.07586e-05
1.03647e-16
4.90416e-06
5.4308e-16
1.23556e-16
4.42116e-06
1.72357e-16
8.16602e-16
9.57976e-06
6.0873e-11
8.64849e-06
1.42536e-16
6.84256e-17
1.64233e-16
1.5646e-15
6.04375e-16
7.70126e-17
2.6556e-15
6.76545e-10
1.80066e-15
1.22467e-08
2.60391e-16
1.0093e-15
4.20977e-16
3.87253e-15
2.46603e-17
1.13098e-16
5.70493e-16
9.52741e-16
2.49722e-05
4.16502e-16
2.82812e-16
4.07085e-17
8.22178e-16
3.10458e-09
3.7335e-06
8.14482e-16
1.93322e-05
4.72108e-12
7.24596e-16
2.50738e-17
4.6316e-11
5.25748e-13
1.08241e-09
3.0757e-07
1.35125e-16
9.33156e-11
3.07732e-15
1.08322e-15
6.90851e-15
1.29759e-16
2.4246e-08
3.84441e-11
7.59116e-11
3.96257e-16
6.89604e-17
5.99893e-10
8.28677e-16
1.22068e-15
0.000143955
1.09785e-15
8.29115e-17
6.37831e-16
1.3016e-05
1.21515e-06
4.55496e-15
1.381e-15
1.90649e-17
1.08765e-16
1.13342e-08
2.19473e-15
6.87112e-16
2.9401e-15
2.88652e-15
1.30505e-15
3.75627e-16
4.42064e-15
4.74168e-15
1.40783e-15
0.00309013
1.41028e-15
5.35669e-15
2.98676e-15
4.56701e-05
7.56264e-17
2.86381e-16
4.53326e-15
2.07838e-15
3.24501e-16
3.87631e-16
1.94034e-16
1.06935e-16
9.47164e-16
1.87618e-15
1.78313e-15
5.78379e-16
2.17332e-16
7.09195e-16
9.33139e-16
4.99847e-16
8.89226e-06
2.01383e-16
1.73722e-15
4.83174e-16
5.50834e-08
4.65888e-09
7.70754e-17
2.59402e-15
9.9946e-16
2.73974e-16
1.42021e-15
2.20277e-08
2.53574e-15
4.94637e-05
4.67417e-16
1.91461e-16
4.04445e-15
5.62235e-16
1.02367e-15
1.03118e-16
3.70314e-16
1.01099e-15
7.77038e-17
8.50893e-16
2.0073e-16
1.58912e-16
2.89193e-05
1.86218e-16
2.01173e-16
9.94643e-17
8.89243e-16
1.68713e-16
1.31216e-07
1.32146e-15
9.14428e-16
3.29877e-16
4.14544e-16
1.29106e-15
2.62466e-16
2.63187e-05
6.29032e-16
1.21932e-17
4.55193e-15
1.30462e-08
1.57706e-15
8.38171e-15
0.000271723
7.72364e-15
1.70599e-16
1.27094e-14
2.28863e-16
2.30645e-15
9.04179e-16
6.55131e-06
5.72841e-16
4.10577e-16
5.83227e-16
3.74454e-16
1.14973e-15
2.0724e-05
2.05293e-16
1.83027e-15
2.96013e-16
1.28235e-15
2.57023e-16
2.25843e-16
1.89248e-16
2.69336e-17
4.25511e-16
8.8041e-17
5.64377e-17
8.48213e-16
2.50625e-16
1.83714e-09
1.92833e-16
2.50654e-16
1.3382e-16
6.95176e-16
1.7746e-15
2.897e-15
1.02412e-15
7.13586e-15
7.57712e-16
4.65803e-16
4.87563e-16
2.17319e-16
2.47844e-15
5.32822e-15
1.53875e-15
1.02226e-15
8.96242e-17
6.93501e-15
4.41264e-14
3.28815e-15
2.04399e-15
8.06898e-05
1.89766e-15
1.21433e-16
5.61604e-16
5.34509e-17
2.57113e-15
2.50266e-16
1.68678e-16
1.26552e-15
3.104e-07
3.28963e-15
5.8143e-16
6.68011e-16
1.71089e-10
2.61893e-17
8.96158e-17
3.28824e-17
3.25515e-15
2.02298e-17
1.47919e-16
8.1145e-17
1.00879e-16
3.37817e-16
6.75717e-15
3.34834e-15
6.00704e-16
1.97342e-15
1.36034e-16
1.48499e-16
6.87514e-18
6.00668e-16
4.64291e-16
2.66996e-16
5.8591e-17
1.97228e-16
4.94998e-16
3.07117e-17
2.39772e-16
1.22817e-17
1.40794e-16
1.88066e-16
1.07129e-16
2.53824e-16
2.77194e-16
4.6167e-16
1.66009e-17
6.04976e-16
4.87378e-15
1.79828e-16
7.72272e-17
5.9424e-16
2.29937e-16
7.74321e-16
7.83045e-15
0.000270166
3.06207e-15
4.57716e-17
1.61872e-17
5.16283e-13
7.45109e-17
6.70082e-06
1.85487e-16
6.61992e-18
7.99181e-07
1.39094e-06
9.92216e-16
5.74367e-06
1.19976e-15
3.8066e-16
3.24927e-15
6.2432e-16
8.59475e-15
4.91413e-16
4.55558e-16
3.62184e-15
4.49368e-15
5.58676e-17
1.49217e-15
3.65666e-07
2.45296e-15
8.14946e-16
3.00521e-16
4.19664e-15
1.43942e-15
6.13024e-15
1.91398e-15
9.87215e-15
1.40599e-15
4.65936e-16
7.9137e-16
7.65351e-17
5.86013e-16
8.07477e-16
1.22937e-15
2.66376e-16
2.10247e-15
1.6958e-15
7.65603e-17
3.2645e-17
2.42987e-16
1.12214e-17
3.19362e-16
4.26511e-16
4.34739e-16
5.14921e-15
1.94269e-16
2.1147e-07
6.59472e-16
8.14623e-15
3.02343e-16
2.72143e-15
3.17191e-08
2.41438e-09
4.32217e-17
1.08976e-16
1.64824e-15
4.09105e-16
1.4201e-16
4.20385e-16
6.12175e-16
1.30225e-15
1.43342e-15
3.26801e-07
5.78373e-16
1.31984e-16
2.89981e-16
1.75827e-15
7.75558e-16
1.60364e-15
3.09603e-15
1.66536e-16
3.92841e-05
0.00128029
3.28135e-15
1.69108e-15
4.29026e-16
4.99829e-07
1.70371e-15
5.38257e-16
5.61994e-16
3.11531e-06
1.62369e-15
7.70854e-05
2.76981e-12
4.84785e-16
4.61317e-16
4.90841e-16
2.20282e-17
8.44946e-16
1.211e-15
9.59337e-15
7.64707e-15
1.83696e-16
2.49049e-15
5.12755e-18
6.00149e-16
2.69859e-16
5.10975e-16
4.92931e-16
0.000934336
5.21805e-17
3.90995e-17
9.96712e-09
4.7319e-15
3.02637e-07
4.95998e-16
1.79255e-15
5.36855e-16
1.98515e-15
3.34984e-16
8.93686e-16
1.06654e-15
2.33033e-16
4.52311e-16
2.64245e-11
6.63112e-18
2.77072e-17
3.20027e-16
4.10302e-06
9.16034e-16
2.75311e-16
2.58603e-15
6.10614e-05
1.49851e-14
4.38591e-16
2.15408e-16
7.86417e-16
1.86301e-16
2.04323e-16
3.86594e-16
7.70673e-13
2.0443e-12
1.80519e-15
1.19661e-15
2.70427e-16
1.52005e-15
8.59432e-16
6.12524e-17
7.46036e-16
1.09394e-16
1.29443e-12
2.64842e-15
6.75252e-16
6.71855e-16
1.63476e-15
7.13692e-16
8.06217e-16
5.20032e-15
8.81909e-15
7.53257e-16
1.97869e-08
2.53759e-07
7.69527e-09
3.41203e-05
2.23573e-15
2.28665e-16
3.15305e-15
1.49117e-15
4.01027e-16
2.70577e-17
4.56847e-11
1.34281e-08
1.04537e-15
0.00123831
1.40404e-15
1.33649e-05
2.1727e-10
8.80057e-05
4.07515e-16
1.48094e-15
1.17111e-15
2.47668e-15
8.77945e-15
5.09439e-06
1.83554e-15
8.7993e-17
1.57743e-15
1.42959e-13
7.72693e-17
1.09808e-15
3.60014e-05
8.56026e-16
5.82897e-16
4.39163e-15
1.63445e-15
2.80546e-15
5.33263e-12
3.99621e-16
3.99523e-16
1.80078e-16
5.14904e-16
4.692e-16
4.80251e-06
3.62025e-16
4.08819e-16
5.66811e-16
3.07563e-15
1.57752e-15
4.78551e-15
7.42741e-15
2.00721e-15
2.05316e-06
2.31309e-17
7.88726e-16
3.40976e-16
7.56206e-15
4.21503e-15
3.01223e-15
0.000157597
8.84171e-17
1.37623e-15
3.7795e-16
4.09465e-15
1.90776e-16
4.84163e-17
7.68828e-16
2.90798e-16
2.73919e-16
4.24227e-16
2.04011e-16
2.30026e-07
1.77613e-16
2.80794e-15
4.03213e-16
1.10554e-15
1.77608e-15
4.67745e-15
1.02461e-15
1.5073e-15
5.63234e-08
7.38752e-16
1.20506e-15
4.62965e-06
2.71867e-09
8.91228e-16
2.19005e-15
2.59803e-15
7.65112e-17
3.51178e-15
6.02341e-14
3.0429e-15
6.74189e-16
1.50334e-15
9.01394e-16
4.59097e-15
2.82523e-07
1.28879e-15
9.60999e-16
1.20992e-06
1.87498e-15
3.39706e-15
9.75047e-16
7.31614e-16
4.42247e-17
1.70194e-07
7.9656e-17
5.97267e-07
9.19389e-14
1.04167e-15
2.11926e-16
6.70862e-16
1.449e-15
3.04833e-15
5.41543e-17
4.99616e-06
2.04866e-16
2.39394e-16
2.63071e-15
6.03073e-16
4.65717e-17
9.64312e-16
5.52995e-16
1.5067e-16
2.35071e-16
3.56789e-15
8.44025e-16
4.28744e-16
2.06028e-15
2.12555e-16
6.88468e-16
3.44173e-15
9.54917e-17
3.23198e-15
3.5974e-16
1.70482e-15
6.64166e-10
5.82525e-16
0.00011568
4.93333e-16
1.86199e-16
5.98078e-16
4.28145e-17
1.88172e-13
2.27447e-16
3.31232e-16
1.05043e-15
2.62712e-15
1.32965e-15
7.78375e-16
1.47099e-06
4.59481e-16
1.76219e-12
3.34734e-15
1.81394e-16
1.61647e-16
2.48682e-16
3.17458e-15
2.79211e-16
8.39977e-18
6.49464e-17
6.24766e-16
5.78146e-16
3.44494e-16
6.62362e-16
4.26831e-07
1.75911e-15
2.23662e-06
1.51072e-12
1.23331e-15
2.57068e-10
1.25371e-06
1.53401e-16
8.26913e-17
8.20567e-17
6.01387e-16
2.11863e-15
2.42257e-16
9.01629e-16
4.75778e-16
2.40161e-16
3.14182e-15
3.04482e-12
6.25113e-16
4.26241e-13
1.92329e-16
1.44591e-08
7.89891e-16
5.60348e-08
2.64246e-16
3.22983e-16
1.97637e-06
1.04855e-05
3.98819e-16
5.11379e-06
3.84866e-13
1.30296e-12
3.33768e-17
3.27468e-06
4.54523e-15
1.95152e-06
3.20837e-06
5.4308e-16
7.17053e-16
2.10275e-15
1.38182e-06
8.85369e-11
1.91518e-16
7.18527e-17
5.38641e-15
4.92068e-16
2.24714e-15
8.41923e-16
1.0586e-16
3.31594e-09
5.25152e-15
3.11107e-15
1.97382e-16
5.29628e-16
2.82046e-15
1.34159e-06
2.34049e-07
6.38848e-16
1.18565e-06
1.4003e-15
2.10366e-15
4.18827e-07
5.90374e-13
1.18361e-16
2.59025e-15
9.87261e-17
2.92486e-06
4.14158e-15
1.17929e-15
1.34163e-17
1.71173e-10
1.17527e-15
3.7164e-15
1.4319e-14
1.84443e-15
4.1812e-08
4.78229e-08
6.71966e-15
0.000353426
5.49669e-15
4.56209e-16
2.9102e-15
1.56668e-15
1.25756e-07
4.69351e-17
1.18182e-16
1.03511e-07
3.51586e-15
1.23453e-09
2.16334e-15
3.82741e-17
1.28097e-15
3.56398e-07
2.44981e-15
2.20169e-07
3.19251e-06
2.16303e-16
6.95695e-06
3.94957e-16
7.10926e-16
1.19929e-15
2.66774e-17
6.28328e-16
7.79328e-16
1.26947e-16
3.40064e-15
1.34914e-15
7.34744e-17
8.61826e-08
1.46001e-15
1.24654e-15
1.017e-15
5.80992e-16
2.97502e-15
1.35341e-11
1.57478e-15
4.47521e-16
3.69764e-17
0.000639312
2.46219e-16
2.96442e-13
1.63523e-16
6.15408e-16
1.27057e-07
1.51292e-07
1.21564e-12
1.18749e-15
1.84069e-15
1.77155e-16
5.71491e-16
6.7402e-17
6.07875e-16
5.87439e-15
7.0144e-16
1.52735e-16
2.77216e-07
1.85121e-16
1.00432e-16
1.58182e-10
1.46785e-16
1.63147e-16
1.91189e-15
2.45137e-15
8.15981e-16
1.26837e-16
3.49664e-16
2.33786e-15
2.57441e-15
9.81334e-07
3.33968e-16
6.37207e-16
1.50999e-15
1.86244e-15
1.6437e-15
6.08575e-16
3.89941e-16
1.70526e-06
1.11151e-08
2.55795e-15
1.19904e-15
9.49038e-16
6.13183e-09
3.01418e-16
8.42385e-17
7.12069e-16
2.72975e-15
4.38682e-08
4.70781e-16
4.5613e-16
4.95852e-16
1.71257e-15
4.43609e-15
1.14882e-15
2.09738e-16
1.00387e-15
6.35705e-11
3.30523e-15
6.6769e-16
2.08615e-16
5.55344e-16
1.76826e-15
6.05978e-16
7.86297e-15
2.60701e-15
4.00423e-15
2.03872e-10
1.95329e-15
9.46318e-16
6.98272e-17
1.13557e-16
5.38325e-15
1.34291e-15
1.79661e-15
1.30269e-15
1.77871e-15
4.29207e-16
9.74057e-16
1.22872e-15
3.01714e-15
4.13853e-16
1.15827e-14
9.29724e-16
3.87422e-16
1.79887e-15
2.39641e-16
5.23986e-15
2.84107e-16
3.67836e-16
1.4337e-15
7.55299e-15
2.63988e-16
2.11029e-15
3.08765e-15
1.88905e-16
1.92876e-16
6.68989e-17
1.82139e-16
1.02617e-15
3.98894e-16
1.47444e-16
4.75928e-15
4.73253e-15
2.48132e-12
2.35396e-15
7.24774e-08
0.000410521
1.89354e-15
1.05134e-16
1.0789e-15
3.91922e-17
2.92834e-16
9.95109e-16
5.34767e-13
1.32807e-15
4.39422e-12
1.05409e-09
7.27092e-16
1.07269e-15
1.02951e-14
3.26574e-17
9.77533e-16
7.63743e-17
1.28305e-15
0.000222269
7.32206e-16
1.78136e-12
8.98623e-17
4.82336e-16
3.15716e-15
5.73511e-12
3.86884e-15
8.59196e-17
5.67881e-15
7.38748e-08
1.07635e-15
8.27469e-16
1.03416e-16
2.13728e-15
1.237e-15
1.21774e-15
3.67743e-07
1.76961e-11
1.9843e-11
9.29118e-16
2.26152e-15
2.66386e-15
1.505e-11
5.63015e-12
4.34627e-11
1.3544e-15
8.43278e-18
2.70333e-15
6.21199e-16
4.87319e-16
3.45963e-16
1.00523e-15
2.11827e-15
3.89922e-16
2.66616e-16
2.3359e-15
2.24697e-15
3.48703e-15
7.29388e-16
2.07703e-16
1.40417e-15
2.55034e-16
2.43749e-16
1.75259e-06
2.24636e-17
2.56706e-16
4.17711e-16
1.13851e-16
6.90648e-16
3.30479e-12
2.29954e-06
0.000178097
1.31178e-16
9.11734e-14
4.21727e-15
9.11753e-16
1.45099e-15
3.33364e-16
2.79427e-16
2.12051e-15
2.8581e-15
3.01537e-16
1.4986e-16
2.98625e-16
2.51884e-15
0.00246399
4.50057e-16
1.41751e-15
3.57501e-15
2.42111e-05
2.34307e-16
0.00077944
1.30242e-15
4.12214e-16
4.02922e-15
1.60106e-14
2.15061e-15
6.78052e-16
1.08831e-15
1.66085e-16
4.04152e-15
8.62163e-05
6.3808e-09
0.000980321
2.02158e-16
1.26818e-15
9.3133e-15
2.23459e-15
4.8083e-16
8.21131e-11
1.89707e-16
1.53084e-15
7.84009e-15
6.36777e-15
2.00758e-16
1.74597e-16
6.05904e-16
9.38702e-09
2.59051e-16
6.74594e-16
3.62546e-15
1.20555e-14
4.18425e-15
7.78529e-16
4.38471e-16
1.28548e-16
6.83186e-16
1.91732e-15
5.92043e-16
1.07842e-16
7.01085e-16
1.05828e-15
1.31308e-10
1.04285e-15
1.86754e-15
1.75058e-15
4.56922e-17
2.70437e-06
1.93876e-15
4.7261e-16
6.50736e-16
2.85631e-16
6.43186e-15
9.94821e-15
4.87955e-16
8.24486e-16
2.42849e-17
4.14383e-17
1.2965e-15
3.02531e-15
1.79066e-05
3.69963e-16
6.65386e-09
2.93757e-15
1.43667e-09
6.47488e-17
7.33781e-16
7.84669e-05
0.000265992
2.77083e-15
1.9651e-08
6.11212e-17
3.59128e-09
5.82522e-17
5.9548e-15
1.19081e-15
4.11701e-10
4.25802e-16
7.61776e-09
2.93166e-16
2.3961e-15
4.4442e-17
3.3782e-15
3.25258e-16
4.58908e-16
2.29597e-16
1.35794e-13
7.94823e-16
5.37166e-06
6.62606e-16
7.09726e-10
6.55324e-07
2.05625e-13
5.71635e-16
4.39449e-09
1.9834e-14
3.17859e-05
1.72164e-15
4.64282e-10
6.49623e-13
1.77206e-15
1.2558e-16
4.58725e-10
1.43658e-15
2.02481e-13
2.75134e-15
3.6213e-16
8.94004e-16
0.000574981
2.10818e-15
2.42353e-16
2.32124e-16
2.92196e-15
2.36253e-15
9.11671e-08
9.17133e-15
1.01065e-05
2.79855e-15
3.98093e-16
5.7692e-06
1.04315e-16
1.57212e-15
3.182e-16
1.12128e-16
1.3656e-16
8.93498e-16
0.000153267
1.14213e-15
3.91096e-15
2.30963e-15
4.59144e-16
1.90914e-15
1.48527e-16
4.28187e-05
1.19487e-15
5.1702e-05
7.03482e-05
0.000349653
9.43164e-17
0.000233723
0.00142341
0.00253724
0.000814788
1.80001e-16
2.91676e-17
5.79449e-16
9.96742e-13
8.29439e-17
2.40995e-06
1.64775e-16
2.61472e-15
4.21893e-15
9.35649e-16
5.06341e-05
4.68604e-16
1.20862e-15
1.62911e-08
6.71875e-05
7.08278e-16
5.11326e-16
2.67613e-08
4.61355e-15
8.83112e-17
2.41538e-08
2.94573e-16
2.40002e-16
3.4501e-15
1.48762e-16
3.0415e-16
2.53754e-16
5.25968e-10
1.40146e-15
4.60534e-16
1.48559e-11
1.97462e-16
1.01652e-16
1.52858e-10
3.2627e-16
2.79926e-15
1.95089e-16
7.53293e-15
6.02554e-16
8.87111e-05
6.41026e-16
4.4739e-16
6.86728e-16
1.30498e-11
3.22015e-12
3.93548e-16
1.94454e-15
4.68049e-06
1.93821e-15
6.29455e-17
1.18525e-15
7.58411e-16
0.000227231
1.37003e-15
6.91124e-17
1.10169e-15
1.46407e-05
5.19084e-13
3.1867e-15
7.1523e-05
9.73316e-16
0.000265054
4.19375e-16
7.74319e-12
1.21432e-11
2.03172e-15
6.05328e-16
5.91679e-16
0.000113304
1.72524e-16
2.73635e-15
8.18219e-15
9.34311e-16
2.55281e-16
1.56494e-15
1.86709e-13
4.73328e-15
0.000171787
8.24127e-15
1.16475e-16
4.90075e-05
5.23067e-15
5.11038e-17
4.82542e-16
1.91564e-15
7.45133e-15
1.10174e-15
4.59102e-16
4.39856e-16
4.75081e-18
1.3065e-15
3.31525e-15
3.06121e-17
1.5414e-15
3.25311e-15
1.3752e-16
1.66274e-15
0.000248192
7.17924e-12
3.77074e-15
1.47487e-14
5.84966e-16
5.33744e-15
9.97059e-17
2.87428e-15
2.71461e-16
5.04e-17
2.07559e-14
1.88507e-16
9.30378e-16
2.48929e-16
0.000358714
9.85035e-16
2.76689e-15
6.8117e-15
1.98898e-15
7.50901e-07
3.32501e-15
1.28109e-17
1.10166e-16
3.1239e-17
4.26662e-16
2.10431e-06
1.47854e-15
3.01153e-15
1.20314e-15
1.195e-15
1.38909e-15
3.33197e-16
6.23491e-16
5.18416e-16
6.62292e-17
2.03458e-11
6.06748e-17
0.000147329
7.58727e-16
8.05005e-16
3.73557e-16
1.19486e-15
0.000148616
8.89101e-18
4.91747e-16
1.98429e-15
4.54353e-15
9.68885e-16
1.66462e-15
2.82676e-05
1.4643e-15
4.37296e-16
6.22267e-17
1.57943e-15
5.85031e-15
2.96481e-17
6.36869e-16
9.96784e-16
6.3958e-05
3.30283e-16
3.16562e-15
6.86088e-16
5.51346e-17
1.86239e-16
3.65327e-16
8.38694e-16
1.34861e-15
2.34576e-15
2.1948e-15
7.27348e-16
1.15029e-15
2.8649e-15
1.76736e-15
0.000665487
1.24205e-16
5.03576e-16
5.40162e-16
2.7505e-17
1.7441e-16
1.60788e-15
2.04511e-15
1.79441e-15
8.24212e-16
7.00244e-15
1.26496e-15
3.76832e-06
3.05908e-15
7.00272e-15
9.75081e-16
2.7027e-08
5.88765e-16
2.00695e-15
5.3858e-15
1.05143e-15
2.98226e-16
9.65379e-17
3.80751e-15
6.8156e-16
7.72924e-16
1.61942e-11
6.67912e-08
7.30939e-16
2.67945e-16
7.6452e-16
5.52233e-11
3.58495e-16
5.84662e-08
2.54724e-15
2.87515e-05
5.39774e-17
1.78165e-16
9.7246e-16
5.28292e-15
3.96463e-16
2.1097e-15
9.45229e-16
4.24633e-16
3.70314e-16
1.99432e-07
2.62745e-11
4.78561e-15
1.86988e-10
9.89644e-16
2.47496e-07
2.87786e-16
5.57792e-05
1.10401e-15
1.90197e-15
2.33007e-15
2.68493e-16
1.93206e-15
2.91306e-16
9.66699e-16
2.81623e-16
6.2658e-17
1.81952e-15
1.64042e-15
1.36066e-16
0.000743924
1.14789e-15
9.62019e-05
1.26837e-16
3.77847e-15
9.38052e-16
1.44301e-16
1.08798e-15
2.16834e-16
5.18387e-08
1.82402e-16
1.0067e-14
2.71544e-15
1.63651e-17
5.1504e-15
1.76247e-15
5.34528e-16
1.88305e-16
5.1796e-16
9.61049e-17
7.25862e-16
0.000243437
1.7519e-15
1.4412e-16
2.41581e-16
4.96414e-17
3.72644e-17
2.21282e-09
7.93874e-16
2.28163e-07
2.40588e-15
2.4661e-16
3.51527e-12
2.37255e-15
2.70254e-17
4.22427e-16
3.69276e-15
1.4745e-14
2.60157e-16
3.23021e-17
7.43651e-16
2.84339e-15
6.33201e-16
2.20927e-15
3.42403e-15
8.98166e-16
5.93491e-16
7.95256e-05
3.27766e-16
3.18968e-16
1.78213e-12
1.54023e-15
3.72962e-16
0.0012507
3.14485e-16
5.57947e-16
1.86144e-15
2.39373e-09
1.1633e-16
3.37139e-15
2.2682e-17
2.89238e-15
1.78216e-15
4.40794e-16
3.71271e-09
4.12506e-18
6.87576e-15
1.24529e-15
6.44473e-17
6.51484e-05
2.89913e-16
2.0398e-07
8.69161e-17
1.95034e-17
2.67708e-16
2.23315e-15
6.61671e-16
4.7471e-09
4.14587e-09
2.71711e-15
7.58102e-16
5.80143e-16
1.43704e-15
7.38289e-10
8.10231e-15
1.94457e-10
4.20974e-09
2.37921e-17
2.87151e-16
1.30638e-15
4.38209e-11
5.23508e-17
7.98901e-16
2.3032e-10
1.04962e-14
1.16203e-10
3.33623e-16
1.39119e-05
3.90867e-15
2.324e-09
1.95613e-15
8.38221e-16
6.62282e-17
8.878e-16
1.54089e-05
4.14744e-15
9.96085e-17
8.91919e-09
9.32179e-16
7.10372e-06
1.94764e-15
6.67527e-16
3.50485e-15
1.13106e-15
2.9157e-16
1.39306e-16
5.82431e-16
4.60141e-16
0.000323146
1.08794e-16
7.75076e-17
1.92138e-16
4.81879e-16
4.46884e-16
5.92439e-15
0.000952178
3.44143e-09
1.4436e-08
3.01052e-16
1.66593e-15
2.73801e-16
1.39e-15
2.86628e-15
8.36603e-16
4.49932e-16
7.11193e-17
1.01522e-14
1.07478e-15
6.68886e-16
6.15378e-12
2.13004e-16
6.85603e-16
1.21303e-07
1.05562e-09
1.30748e-16
4.64847e-16
3.21553e-16
2.51325e-15
1.08017e-16
0.000131866
1.00743e-15
5.8509e-17
2.15264e-10
2.34097e-16
7.06257e-15
2.80701e-16
8.04343e-15
3.85335e-10
3.46736e-15
4.65118e-16