/*--------------------------------*- C++ -*----------------------------------*\
  =========                 |
  \\      /  F ield         | OpenFOAM: The Open Source CFD Toolbox
   \\    /   O peration     | Website:  https://openfoam.org
    \\  /    A nd           | Version:  10
     \\/     M anipulation  |
\*---------------------------------------------------------------------------*/
FoamFile
{
    format      ascii;
    class       volScalarField;
    location    "21";
    object      SgT;
}
// * * * * * * * * * * * * * * * * * * * * * * * * * * * * * * * * * * * * * //

dimensions      [1 -1 -3 -1 0 0 0];

internalField   nonuniform List<scalar> 
59698
(
0.0132104
7.72763e-14
1.21005e-14
3.08418e-14
0.0303765
4.54019e-19
2.74937e-15
4.80509e-14
1.03085e-15
5.86641e-17
4.32179e-16
2.57636e-14
3.18237e-18
9.07402e-14
0.000353111
5.52856e-17
1.51622e-14
1.90427e-14
5.23005e-15
4.00787e-15
0.00137955
0.0139783
1.21183e-07
2.92294e-17
0.0423417
1.55628e-14
2.8291e-14
5.44541e-09
0.00705165
0.00732748
0.00510687
1.71522e-17
8.252e-16
0.0123004
0.00246372
1.57481e-14
0.0186486
0.0205563
4.4335e-15
0.0218405
4.35539e-17
8.72979e-19
2.57661e-16
7.94718e-15
1.88907e-17
0.0174875
1.28655e-14
5.66161e-16
1.98714e-16
6.79543e-15
3.67629e-15
7.44749e-16
5.25246e-14
9.32611e-15
0.00961188
1.62227e-14
9.50213e-16
0.000213209
4.58075e-15
0.00273175
1.45357e-15
5.26127e-16
0.122091
4.34506e-15
0.0126117
1.57186e-15
2.27152e-17
4.88505e-14
4.55148e-15
3.01257e-15
7.90026e-10
7.50346e-16
3.69912e-06
0.0408164
3.68979e-19
0.0389289
6.49099e-15
1.03914e-08
1.68044e-16
0.0060394
0.00879228
2.59158e-15
2.09457e-16
1.41898e-14
0.00860566
1.07405e-14
2.90905e-15
1.60908e-14
0.0627215
2.44008e-14
3.88199e-16
9.1818e-16
0.0146378
1.31826e-13
4.90486e-14
6.88259e-14
0.00528396
1.64856e-14
0.000278816
8.40932e-18
0.0739704
0.0018047
0.016191
0.0122544
4.99371e-14
1.25517e-17
9.83885e-15
1.48569e-14
2.63629e-16
2.61635e-17
7.9183e-14
1.85405e-14
0.0384078
4.40137e-19
7.34252e-15
3.86087e-16
6.2709e-15
1.79465e-14
7.77512e-15
2.98117e-16
7.91576e-15
1.55617e-14
1.55118e-14
2.3161e-14
2.27323e-14
6.69746e-14
9.16509e-16
1.5095e-17
1.83546e-14
3.48343e-15
0.0416208
6.12951e-15
3.1763e-16
0.100229
0.00450604
2.41782e-15
6.94846e-15
5.6563e-17
4.8503e-14
8.16711e-15
1.01562e-14
9.08679e-14
1.29845e-15
3.59301e-16
5.84245e-15
2.20501e-14
3.95025e-17
4.18066e-16
2.07643e-15
0.0294103
4.19425e-05
3.1612e-15
4.58488e-08
3.68601e-15
3.49352e-15
9.76688e-15
3.68473e-14
7.06079e-14
0.00501809
6.93942e-17
2.33999e-08
3.11058e-16
0.0161633
0.00585775
0.00387115
0.00748824
9.94909e-14
0.0715859
0.00301973
9.99264e-15
0.0119997
2.34319e-08
0.0108576
0.0148679
0.079076
2.17099e-15
1.64687e-16
5.05247e-05
3.81981e-15
0.00643401
0.00942427
0.0184942
0.014957
3.1938e-15
0.0458305
0.000239016
0.0115849
2.93859e-15
4.42253e-14
2.64153e-15
4.21039e-15
3.25124e-14
0.00260857
0.0387409
0.00309256
1.92417e-14
0.00982387
0.055403
1.41877e-05
0.00553356
4.66783e-16
0.00611852
0.0122772
7.76107e-14
0.00507824
4.14e-15
0.00742016
2.28985e-15
8.64295e-05
0.00579875
3.76201e-14
1.93132e-14
0.0027837
1.52152e-16
5.09697e-16
4.41621e-14
2.0904e-14
2.56564e-14
0.00799852
1.62041e-15
0.0056318
1.64109e-16
2.68087e-16
0.0616469
1.5823e-15
0.0202563
4.39111e-15
1.65795e-15
0.00680771
0.159616
5.57819e-18
4.91532e-15
2.40169e-15
6.64766e-16
1.01043e-15
2.74912e-15
0.0730053
5.35104e-14
1.04004e-14
2.43751e-15
1.11749e-14
0.00169165
0.0052693
1.01199e-17
7.95044e-15
1.42445e-14
0.00377368
0.230503
1.99697e-15
6.01671e-14
1.1913e-15
5.03454e-15
4.03366e-15
3.16317e-15
9.96849e-15
2.05999e-16
2.25569e-15
2.90365e-15
5.5257e-14
3.84056e-15
6.98507e-06
3.20909e-17
2.63658e-15
1.44843e-15
9.12028e-17
0.0476625
3.42213e-15
4.60751e-15
5.19012e-14
5.12555e-15
2.64761e-14
0.0440961
0.00015302
3.38579e-15
0.0174597
5.88642e-15
8.96069e-15
2.02738e-15
0.00013579
2.30648e-16
2.99447e-16
2.07287e-14
3.79112e-14
0.104972
0.045664
0.0201285
7.07012e-16
3.44017e-10
0.0731084
2.45271e-15
0.0915236
9.01493e-16
1.2237e-14
4.17871e-14
1.16828e-15
1.73929e-14
2.45754e-14
6.63845e-16
4.12315e-15
9.57502e-15
1.51617e-15
2.18986e-18
1.27636e-17
2.39279e-14
6.1092e-15
6.6471e-15
0.0521035
3.51151e-15
7.96629e-16
4.52018e-14
1.96975e-14
1.73298e-14
1.04021e-16
1.36317e-18
1.26147e-14
2.69692e-15
6.32816e-18
3.24256e-14
3.09044e-18
1.52827e-14
1.93325e-14
0.323538
5.04698e-14
4.13532e-17
0.0485482
0.00789745
1.71532e-14
2.14518e-14
8.35189e-15
5.23135e-17
0.00669336
4.07643e-15
0.0208027
0.207623
2.74281e-16
9.46754e-17
3.27065e-14
5.94507e-15
0.000645149
7.05571e-16
4.3827e-16
4.00099e-16
9.53374e-15
4.51019e-16
0.00242417
4.64873e-15
5.99077e-16
0.0397073
2.6002e-14
4.38325e-17
9.20407e-16
9.05396e-14
0.0399782
8.91796e-18
0.24352
0.000262664
0.0140302
1.11525e-14
1.87138e-14
3.77972e-16
1.64963e-14
3.51195e-15
1.34768e-15
5.2151e-16
2.11078e-17
3.98601e-18
1.30413e-14
1.28801e-15
3.93607e-14
0.00165458
0.00365937
4.98817e-17
1.13838e-13
8.665e-18
2.78293e-16
5.5574e-17
4.19347e-14
5.15752e-14
1.34037e-17
4.20494e-15
3.08306e-18
1.05474e-14
3.53812e-14
3.49574e-15
2.71229e-14
1.30471e-05
1.02327e-14
1.40862e-17
5.15782e-16
1.34072e-14
7.63834e-15
6.59094e-17
2.91692e-16
0.0024112
0.0012926
0.000479873
0.0488603
2.34968e-14
3.15025e-15
1.05249e-14
4.65881e-08
1.70299e-15
5.01021e-15
1.30924e-14
1.00818e-14
1.56081e-14
0.0815192
0.0252797
1.72059e-15
0.00554507
0.0315229
6.88421e-16
1.02788e-17
5.35793e-15
5.7036e-14
0.0596237
1.91926e-15
0.0104013
0.000515741
8.06761e-05
1.58808e-15
4.16588e-16
6.67866e-16
0.309205
1.31373e-14
1.40552e-15
3.52558e-16
2.67873e-15
1.29586e-14
2.29017e-16
1.27839e-15
0.000187263
0.0151447
1.80192e-15
0.00210063
3.52553e-16
1.99278e-15
0.212191
4.43012e-14
0.00139958
1.95507e-19
1.81709e-14
4.93606e-16
1.07133e-15
1.94534e-14
0.00238873
0.0699223
1.91824e-19
1.20869e-14
0.000307793
5.39826e-15
8.99281e-14
1.99432e-15
0.0330359
2.74456e-16
1.2643e-14
0.108304
3.7755e-17
0.00963909
1.89488e-15
0.0541038
5.45641e-14
0.0125957
0.0132338
9.48352e-17
1.64631e-15
1.67745e-15
5.15952e-16
1.94555e-15
1.43324e-16
1.78799e-15
2.58966e-16
5.89771e-17
2.80497e-17
4.01948e-16
3.49543e-16
0.00113226
0.0689507
7.19103e-16
2.75999e-15
5.09104e-14
1.89336e-16
1.1708e-13
1.88774e-16
0.0054187
5.34849e-14
3.03664e-14
2.18828e-14
0.0579431
1.34497e-15
0.0230908
0.0654315
0.000437699
3.65933e-14
0.00342332
7.81819e-14
1.03232e-14
4.2411e-14
1.9823e-08
3.68953e-17
3.01403e-17
0.0650559
0.0017849
1.21433e-16
2.96512e-17
2.23108e-17
5.57387e-15
7.37301e-17
1.22014e-14
5.63737e-09
8.69168e-16
0.058813
0.00720006
8.34571e-19
4.38624e-15
6.02775e-14
1.56226e-17
5.19283e-14
7.86988e-18
2.55269e-18
5.09877e-09
2.74771e-14
5.71243e-14
1.25379e-17
4.58646e-18
0.00125854
7.18672e-15
6.8926e-14
9.72899e-16
4.11925e-16
1.99105e-15
0.0394476
1.47058e-18
1.63505e-14
1.24209e-14
1.91109e-17
4.85432e-19
4.58885e-05
1.01244e-15
1.01511e-15
6.17708e-16
1.28535e-14
5.92183e-14
0.0682732
2.65943e-15
9.04566e-17
0.010113
6.43761e-06
3.76079e-15
3.83384e-07
4.70086e-15
6.71242e-16
1.62009e-14
8.87912e-17
1.92912e-14
1.19781e-14
6.88898e-17
8.97339e-16
2.89088e-15
1.27227e-15
1.94632e-17
8.07079e-16
1.27351e-14
8.3703e-05
3.3639e-14
6.87948e-17
0.0739773
8.07238e-15
2.29827e-16
4.02933e-16
1.70496e-16
5.04577e-14
2.28216e-16
2.39488e-15
7.3918e-16
1.27057e-14
7.73221e-14
2.23057e-15
1.97194e-15
9.13402e-18
6.74838e-20
1.55837e-14
0.00195481
3.96006e-14
6.931e-15
3.89471e-17
5.2413e-16
1.99978e-14
0.00447228
9.14621e-15
4.34768e-15
8.70142e-16
6.11028e-14
2.66152e-14
1.88732e-18
3.76659e-14
1.27243e-12
0.0016835
2.74119e-18
3.45312e-17
4.72141e-16
6.3876e-16
2.02942e-16
2.04501e-14
3.8896e-15
2.09407e-15
3.41916e-14
1.89375e-18
2.20798e-15
8.44228e-14
5.23893e-14
6.52016e-16
4.21533e-14
7.48068e-16
3.20301e-16
4.8726e-16
6.16455e-14
0.228371
1.87828
6.47698e-14
4.53983e-17
5.03664e-16
2.90171e-16
0.000880816
8.62555e-16
1.05652e-13
9.05893e-10
2.88693e-15
8.95073e-15
3.69807e-15
7.71466e-16
1.28959e-16
8.38903e-15
7.27463e-15
1.33043e-14
3.56712e-15
1.50892e-15
2.39187e-14
1.67599e-14
0.106349
1.66172e-15
4.43845e-14
9.37166e-17
2.88265e-16
6.63112e-16
9.96356e-15
3.04848e-14
2.30221e-15
3.00446e-14
2.6727e-16
1.80091e-17
5.14149e-15
3.8017e-07
8.34561e-15
1.23496e-14
9.30261e-14
1.15533e-14
2.83527e-07
9.81982e-17
1.08126e-15
6.97969e-15
8.42907e-15
5.24506e-16
0.0199038
0.0910086
3.8327e-16
9.17585e-15
3.9129e-15
2.25746e-16
0.0413912
1.63929e-17
8.75629e-15
1.50441e-13
1.13524e-15
7.67514e-14
3.38153e-15
3.89198e-19
6.06697e-16
0.0479043
4.29917e-14
4.62985e-15
3.65421e-15
2.97446e-18
5.33291e-18
5.35134e-15
1.16694e-14
6.17196e-16
3.8862e-14
1.04285e-14
0.00829739
2.4965e-16
0.0363788
2.50702e-16
1.56151e-16
2.14818e-16
2.214e-14
5.8727e-14
4.82687e-15
1.58828e-17
9.02813e-14
8.05377e-19
3.02115e-17
1.86803e-15
4.10883e-15
1.13795e-14
8.37664e-16
0.00634131
3.15572e-14
7.8332e-15
2.76552e-17
4.14814e-17
5.54672e-19
2.21332e-13
1.04634e-16
2.52854e-14
9.30035e-10
8.33656e-15
2.36826e-14
1.78409e-15
5.36553e-17
0.059895
3.33267e-10
2.64075e-14
1.075e-14
2.04835e-15
0.00358463
0.00688295
1.0288e-16
0.0553352
3.16058e-14
0.00257286
4.56213e-18
0.00774842
0.000124909
2.87e-18
0.0112543
9.85268e-15
3.55385e-15
8.69929e-10
0.0605005
1.3848e-13
4.26307e-14
0.245979
1.5636e-15
1.69335e-15
7.33954e-15
0.00190885
0.00174724
5.30981e-14
0.010658
1.82135e-15
0.0600763
9.34954e-16
0.022644
5.15094e-17
9.00152e-14
0.105045
0.236642
3.70422e-15
2.14952e-14
0.00132276
1.78155e-17
1.18889e-09
1.47886e-09
3.66308e-14
5.73376e-09
8.9772e-10
7.8177e-15
1.55048e-16
4.048e-06
0.000770685
5.69374e-17
1.07073e-17
5.44341e-14
1.50392e-17
1.68257e-15
1.16531e-14
4.34736e-14
8.73626e-06
9.17596e-06
1.22979
7.65763e-18
0.00350616
1.76734e-15
4.44197e-06
1.37711e-15
3.95785e-06
2.69803e-18
0.00098593
0.00160943
1.4927e-14
0.00656344
0.0108992
0.104697
7.68781e-15
0.00546875
2.46363e-16
5.73551e-17
3.0045e-16
4.58867e-14
1.26119e-14
6.57068e-16
3.64938e-14
1.18257e-14
0.000384869
0.000141996
2.67143e-16
4.13725e-16
1.91055e-17
0.00690543
3.2354e-17
8.93907e-17
2.4894e-14
8.26858e-11
6.03266e-05
0.0136519
9.74717e-17
8.52016e-15
0.0202106
0.209751
7.77979e-14
0.00882588
3.38039e-14
0.000682534
2.27358e-16
1.11341e-16
7.9997e-16
7.90256e-16
0.0073735
4.47055e-17
2.31869e-15
5.39047e-16
5.67552e-16
1.03294e-17
3.40531e-15
5.80578e-16
4.03854e-06
1.39511e-16
6.87717e-05
0.000214031
3.11734e-15
9.61681e-16
2.18004e-16
2.21601e-15
1.03819e-17
1.14925e-15
1.41636e-14
2.41114e-15
5.63473e-18
2.86673e-16
2.37734e-15
5.35999e-17
0.015838
6.33998e-18
4.64177e-15
1.53652e-16
0.0358814
5.86631e-16
2.98398e-15
7.98352e-15
7.3767e-14
0.0005177
3.86153e-17
0.000147944
7.32998e-14
4.17818e-17
1.41961e-15
7.93562e-07
3.99643e-14
8.36565e-16
1.16346e-15
1.57218e-17
0.00887894
1.59844e-18
2.95575e-16
4.45489e-18
2.48184e-14
4.82878e-16
1.16055e-15
8.34538e-16
7.79174e-16
6.98625e-14
4.74707e-15
1.28729e-17
1.92884e-16
1.85259e-14
1.59174e-14
2.70012e-14
1.25735e-15
2.86954e-16
2.65197e-16
1.03392e-15
2.63988e-15
1.39993e-18
1.06193e-16
2.81661e-15
2.40325e-14
1.28853e-16
1.35145e-15
3.79453e-18
3.89708e-15
1.00383e-14
3.14208e-18
7.69502e-14
1.49631e-15
6.94049e-18
7.78064e-16
3.99108e-14
5.4831e-14
0.00259319
3.72111e-17
9.67621e-15
1.59093e-15
6.29506e-18
2.25641e-16
4.7682e-14
1.00911e-13
1.13384e-15
0.00246412
2.97266e-15
6.40818e-15
0.0408124
2.52718e-15
1.30135e-15
0.114939
1.93704e-14
2.30155e-15
3.31444e-15
0.0327501
0.0583399
1.71906e-16
2.77518e-15
7.5443e-17
0.011241
1.42052e-15
6.51319e-16
1.21892e-15
5.75149e-18
3.9701e-17
4.56023e-15
1.66912e-15
5.96908e-15
0.00162568
5.9927e-15
5.73794e-15
1.00633e-14
0.0252578
1.38294e-07
5.58356e-14
7.34167e-15
5.27072e-14
2.01826e-14
8.82881e-15
5.27091e-15
6.30189e-15
4.35797e-14
1.51994e-15
2.64985e-16
7.62971e-14
1.24396e-14
8.34049e-15
2.51575e-16
5.90638e-15
1.21149e-14
2.28113e-15
1.40662e-15
2.71559e-15
2.56802e-15
3.79544e-15
3.03562e-14
3.58632e-16
2.46251e-16
1.10828e-17
7.83175e-16
4.31836e-19
4.731e-15
4.2255e-16
0.0163305
0.0178961
5.32806e-14
3.89822e-15
0.00291807
3.34995e-16
3.61842e-15
6.368e-15
2.26376e-15
1.51028e-14
6.75042e-16
2.55522e-15
0.0115721
0.0564041
2.00265e-15
3.57272e-17
9.41382e-15
1.41547e-17
8.60889e-05
1.41236e-15
0.000314404
2.45875e-16
2.50517e-15
2.14936e-15
1.74484e-14
1.18004e-15
2.91955e-16
1.88792e-15
4.669e-14
0.0472202
6.26625e-18
3.44771e-16
1.08926e-14
0.0199453
1.70628e-17
3.24996e-17
2.61127e-16
0.00104393
1.25877e-13
1.15154e-15
0.00111702
2.28087e-15
4.28185e-15
4.91355e-05
9.87773e-14
5.15184e-16
1.4325e-15
1.02928e-15
6.63828e-16
5.46357e-16
0.0057318
3.592e-15
1.75212e-15
1.36837e-16
1.40328e-15
3.58198e-16
4.95648e-15
7.01446e-17
7.53996e-16
5.2234e-15
4.65362e-14
6.07365e-15
3.30546e-14
0.0146724
2.47553e-14
0.040373
1.36487e-15
0.73881
4.41162e-14
3.65913e-17
7.94337e-15
4.55581e-08
1.55391e-15
2.30022e-10
4.57953e-16
6.25806e-16
2.22675e-15
3.93773e-15
4.60016e-08
4.04988e-17
2.24507e-17
0.0197533
1.06354e-16
5.08492e-15
8.57273e-15
4.07175e-15
2.0547e-15
2.60483e-15
8.57911e-17
3.84334e-16
0.00820571
3.75679e-16
0.0922275
2.95223e-16
3.7092e-15
0.0820127
2.82463e-16
0.00882954
2.47632e-15
0.02523
9.71546e-15
2.40314e-15
4.14559e-14
1.16273e-14
4.72847e-15
6.05748e-19
3.7998e-15
1.42594e-15
5.97348e-14
1.8956e-14
3.21163e-15
1.12182e-15
8.18092e-16
0.0097201
6.07841e-16
0.00245668
0.000509614
7.93336e-15
0.0361714
0.0545292
4.49392e-16
7.03298e-16
0.00148682
0.457069
3.78358e-08
3.23528e-05
4.91612e-15
1.53239e-18
0.102408
1.40859e-13
6.33781e-18
1.86072e-14
0.0146514
3.09647e-14
1.25359e-16
5.13915e-15
1.05296e-15
6.74445e-18
0.00249805
9.90138e-06
7.41545e-16
7.27602e-16
2.9647e-14
1.37544e-18
1.2131e-16
1.55922e-14
0.00227381
2.33055e-17
8.83371e-14
7.43173e-14
1.39552e-15
2.29896e-14
0.118415
1.17518e-14
5.01834e-16
2.5628e-15
0.000694532
1.0652e-14
0.00062839
1.94524e-15
2.87879e-17
2.94928e-14
1.33339e-14
6.74134e-14
7.79696e-16
1.32228e-14
0.0186805
0.0101341
1.02405e-14
6.43471e-15
0.0835614
0.00110095
6.65237e-15
8.23529e-14
6.35169e-15
0.00370174
0.0362679
0.00902396
8.39838e-16
1.06958e-13
1.16754e-14
1.33119e-15
1.58996e-15
4.72788e-16
3.2573e-15
1.29158e-17
0.116313
0.0498725
3.96226e-15
9.57534e-14
3.75922e-14
5.98251e-17
1.15327e-14
0.0261393
2.26088e-15
3.39307e-14
1.28005e-15
2.99488e-15
1.32306e-16
3.96987e-15
5.28027e-17
1.66677e-15
9.14882e-14
4.84766e-17
4.55792e-16
4.53543e-14
0.0196102
4.78809e-14
3.62695e-17
2.66795e-15
2.37336e-15
1.07994e-15
5.25537e-16
0.00139524
1.99911e-17
4.84262e-18
3.99688e-15
1.28596e-15
3.44517e-10
5.13459e-16
4.91932e-14
6.21049e-14
3.80103e-15
4.90597e-18
6.88049e-17
5.94502e-15
9.22276e-16
1.25532e-14
1.79153e-14
0.000314097
4.88126e-15
3.65807e-17
4.33466e-05
2.16294e-15
5.20175e-15
2.15829e-15
4.34936e-06
1.58708e-15
0.000175994
0.103644
1.17359e-14
0.000139477
4.93204e-16
2.35487e-15
1.32524e-16
9.03966e-15
7.3933e-15
3.07047e-15
0.0196033
4.30347e-16
1.41231e-14
5.78209e-17
4.37027e-14
3.34238e-16
3.58165e-16
0.0095946
8.77529e-17
1.91655e-15
7.26145e-16
3.94291e-15
0.0035162
1.05576e-15
0.0136811
7.1971e-15
4.2149e-15
3.17166e-16
1.20856e-17
6.62789e-17
6.82887e-15
1.91345e-15
4.47043e-16
2.41004e-17
2.29586e-14
9.91496e-10
2.99142e-17
1.26659e-15
6.10683e-16
7.27076e-16
3.87564e-17
2.44456e-14
1.28624e-16
3.83752e-14
7.30322e-05
0.028368
6.03498e-17
0.000843241
8.7377e-15
2.40497e-18
4.79324e-15
2.35748e-17
0.0147494
8.63722e-16
1.31705e-15
0.0032142
5.99984e-18
0.000850469
1.88579e-14
4.10726e-12
7.49234e-18
6.61443e-16
2.10203e-14
8.40784e-17
1.53344e-15
6.0942e-15
2.95398e-14
1.71438e-14
2.30346e-05
2.53514e-16
0.00550736
9.31484e-15
4.24605e-17
0.0470932
1.18445e-15
2.02329e-14
0.00026692
4.95812e-18
1.38002e-14
2.3753e-16
2.80665e-14
2.17612e-16
3.00945e-15
6.75647e-12
2.23049e-12
2.4138e-13
4.29023e-12
1.05432e-15
1.67066e-14
0.0631302
2.11787e-14
2.4557e-14
1.49982e-15
6.57943e-13
5.31942e-16
2.96256e-15
3.06316e-15
0.350101
2.37373e-14
1.26566e-15
3.44276e-14
0.00492579
7.91361e-16
1.8605e-15
8.32943e-17
7.49232e-15
1.55729e-14
0.0362023
1.88014e-15
1.04561e-16
1.76824e-05
9.28083e-17
4.67078e-16
3.32932e-17
9.01612e-14
9.73044e-07
9.05312e-16
0.0746617
1.01202e-17
1.91268e-06
8.44201e-16
3.37291e-15
4.3198e-16
4.05285e-16
0.00852103
0.00657816
3.60574e-16
1.88214e-05
1.55578e-15
1.24163e-16
5.60741e-15
3.10282e-06
0.00201703
4.13752e-15
0.000804586
8.09476e-16
2.09575e-15
1.55796e-15
0.00161881
1.17057e-14
3.83096e-15
9.27636e-17
5.40915e-16
0.0138294
0.0116031
4.45167e-16
0.0474609
0.00271146
1.27089e-13
3.56095e-16
1.08205e-13
3.69972e-15
6.86977e-15
6.6763e-16
2.7765e-15
0.0203889
0.0114674
0.0343706
2.43311e-19
0.102081
0.00874775
1.15491e-15
1.27989e-06
0.064087
5.43104e-14
1.10931e-16
3.01518e-15
2.83172e-14
0.00800128
2.34586e-15
8.47821e-15
3.09953e-14
0.000101082
0.0249654
0.296569
3.29478e-14
0.00906592
4.90205e-15
0.00013481
1.74566e-15
0.189955
2.43967e-16
0.286591
0.780886
3.27627e-06
4.53102e-16
3.15406e-14
0.000172745
2.95072e-15
0.00573854
0.0101001
0.0632561
0.0343802
1.37404e-15
1.72385e-05
0.0104029
7.64974e-16
3.63473e-16
0.000212099
7.90054e-18
0.000243688
0.00041406
7.53444e-18
0.138632
0.000200903
2.02913e-14
2.82812e-15
0.000253258
0.000186133
4.45997e-18
2.88857e-16
0.479152
0.0316127
0.184294
0.147791
0.00214926
2.80582e-15
0.00640916
1.19887e-15
1.40995e-14
4.29904e-18
0.0851356
7.6415e-18
3.25686e-06
1.92662e-14
1.71825e-17
1.46788e-15
2.56991e-15
7.61064e-16
2.59701e-14
1.16805e-14
1.4059e-14
0.000607727
0.00191744
0.0125566
3.36158e-06
0.00389391
4.1237e-15
0.0154736
1.42484e-16
2.82116e-17
3.4165e-14
0.000701228
0.000128389
4.7105e-14
6.20746e-15
0.031097
3.28756e-16
5.79424e-14
2.32486e-14
8.92919e-15
4.55688e-15
0.00749424
2.25103e-17
0.00277172
2.06086e-14
1.27381e-14
3.09813e-17
2.91118e-15
9.38483e-17
3.59839e-12
8.72818e-16
0.00637908
6.05972e-15
1.52019e-15
0.00253564
0.00173843
1.93985e-07
1.57165e-14
0.00981818
1.77597e-07
1.35924e-16
5.81751e-18
8.68397e-18
6.06407e-17
1.43346e-17
2.60824e-15
5.75974e-15
1.60013e-05
1.78774e-07
0.00173305
1.51244e-15
5.68343e-07
1.73861e-16
8.42076e-08
0.00998306
5.13998e-07
9.2358e-15
4.05269e-16
0.00336161
6.17961e-17
0.323993
0.0628479
8.60633e-15
9.97357e-18
0.0148407
5.91249e-15
0.0243992
0.000102678
1.2587e-16
0.000325309
1.72635e-14
8.51481e-15
2.88201e-16
4.76206e-14
1.02916e-14
2.23612e-14
0.0314988
0.354922
3.70326e-15
0.0550974
6.52413e-16
1.73543e-15
6.00624e-15
3.30939e-15
0.10375
3.63045e-15
0.00165292
0.000495917
3.84175e-16
0.00164899
7.08048e-15
2.34081e-16
4.43774e-17
0.0265421
6.16601e-19
3.93674e-15
0.0618219
1.06781e-13
4.72232e-15
1.77805e-16
1.97411e-16
0.00111017
5.734e-15
2.76048e-18
3.44117e-06
3.26125e-15
4.55648e-17
6.36184e-15
9.07408e-16
7.87608e-16
1.9861e-15
5.47948e-06
1.2862e-15
2.07991e-17
3.66703e-06
4.77311e-14
6.92675e-15
3.69264e-15
0.0317957
1.4027e-18
1.15063e-14
2.25759e-16
0.00166344
0.0337727
5.4218e-16
2.43632e-14
1.19578e-15
4.7917e-15
2.39619e-16
3.80497e-15
0.296568
1.13561e-15
2.86258e-06
3.92927e-16
6.05031e-17
4.28181e-15
6.88912e-16
3.60172e-15
4.27196e-17
6.95258e-15
2.84564e-17
3.49627e-15
1.27598e-14
1.48752e-17
2.73747e-15
8.3468e-17
1.01841e-17
2.01564e-15
6.8055e-16
9.69175e-16
0.0443661
5.31867e-16
3.18384e-15
5.19219e-16
7.44648e-16
1.13128e-14
2.67479e-05
6.17204e-17
1.29902e-15
4.26392e-05
1.44437e-16
1.21807e-17
2.28154e-15
1.12674e-16
1.80181e-14
0.02296
1.23337e-15
0.00619731
1.04354e-14
8.29815e-15
3.17872e-15
7.7744e-15
2.79628e-15
0.00234445
7.45177e-15
4.42746e-15
0.000206657
3.67431e-14
6.44802e-14
3.33877e-14
8.69316e-14
1.92286e-14
2.10227e-14
5.43598e-14
0.0088285
1.11052e-14
0.0103962
8.502e-15
0.87909
0.442346
6.30576e-14
0.0420279
8.45539e-05
6.33737e-14
6.63176e-16
8.27153e-10
0.601556
0.044091
6.59989e-16
4.20377e-14
0.0285229
0.393489
4.96593e-14
0.0251029
3.12312e-16
0.00222958
0.124661
0.0438821
1.83616e-14
0.000946006
0.0260128
0.0482485
3.5236e-15
5.91939e-15
0.0321656
2.4467e-13
2.10633e-15
1.68673e-16
2.82038e-14
4.01006e-15
2.20236e-14
9.4836e-07
0.00394702
3.75305e-14
5.86262e-08
1.17854e-13
1.31743e-16
0.00798159
0.00429531
2.25275e-16
3.47768e-14
4.04039e-16
1.38542e-14
1.20762e-06
1.32675e-16
9.10578e-10
0.0628872
1.64021e-14
0.0336215
3.79678e-15
7.28607e-17
3.15027e-15
2.40951e-15
0.0297374
1.5557e-15
2.77298e-13
0.027053
1.57302e-14
5.08751e-14
2.76399e-15
6.20054e-16
2.7812e-16
0.00136501
0.0249787
0.0146652
0.00527416
0.00548143
2.77264e-15
4.13108e-14
7.37027e-14
3.81207e-14
6.86026e-14
1.32499e-08
1.37637e-15
1.17731e-14
1.58519e-14
4.81871e-06
2.25632e-14
3.5773e-15
3.41608e-15
0.0102799
1.02613e-14
6.71197e-16
0.0033788
4.79475e-15
5.64416e-15
2.46568e-16
0.00239552
1.52153e-14
0.00505699
0.000436301
9.42657e-08
1.27407e-15
1.13499e-14
6.1141e-16
3.92332e-14
4.55701e-15
1.72482e-15
1.56605e-15
3.44364e-14
8.04316e-14
2.83472e-11
0.000166555
1.84448e-16
8.09984e-05
8.39071e-16
2.26438e-06
7.92806e-11
1.84198e-07
4.10141e-14
1.74192e-15
3.91966e-15
2.46826e-15
5.31605e-16
5.20241e-15
4.18488e-05
1.27545e-15
1.30932e-15
4.01736e-15
0.0287873
3.6808e-05
4.23083e-14
4.71804e-06
2.73779e-15
0.00413963
1.46474e-14
3.09858e-15
1.04304e-07
0.000431763
5.13104e-15
1.91227e-15
9.40936e-06
2.80429e-15
2.72423e-14
9.40819e-06
0.00616124
3.62681e-14
2.31142e-15
1.02794e-11
2.37321e-14
8.26406e-15
1.8761e-15
0.0212214
3.09809e-16
0.0375478
2.26134e-14
1.6864e-14
2.48711e-14
4.55002e-15
2.12087e-14
5.16052e-15
0.0140727
0.0214183
0.00207653
1.27042e-05
5.68529e-15
9.86951e-14
2.81136e-15
0.0147132
2.46273e-15
6.32801e-15
7.40151e-15
0.0820494
0.0418357
6.46233e-15
4.19421e-15
5.22225e-15
7.63885e-14
8.7819e-14
0.035203
6.40617e-05
0.0154802
3.73118e-14
5.45831e-15
4.35026e-14
0.019626
1.83153e-17
2.27564e-15
1.2633e-14
5.16132e-14
0.0199412
3.2789e-14
0.000361228
4.97118e-14
2.14116e-14
1.1875e-14
1.85619e-15
0.02368
5.66875e-14
4.38018e-15
0.0199587
2.77596e-14
1.70963e-17
1.6892e-16
1.06623e-15
3.99952e-14
0.000121415
1.03719e-17
1.28426e-18
1.42988e-15
1.37646e-05
2.57986e-15
2.13635e-15
9.09938e-15
1.6806e-16
6.54439e-16
3.39975e-05
0.0112339
1.61035e-15
1.5099e-15
9.36218e-10
0.000297942
0.0602372
6.99584e-15
7.42023e-18
0.0180126
1.8957e-15
5.6818e-16
6.70925e-16
7.56111e-15
2.17291e-17
0.018269
4.44896e-16
0.00122032
1.12985e-15
0.0493529
0.0142196
8.22541e-14
0.0258399
7.38161e-16
0.0896339
5.95347e-16
3.92338e-15
2.37292e-14
0.256074
1.83051e-14
1.11865e-15
5.03406e-16
0.000160518
0.00311955
1.27272e-15
1.48575e-15
8.82382e-16
0.144132
2.09663e-15
1.05797e-20
0.01857
0.0639472
0.0345279
2.61484e-15
6.33674e-14
1.39971e-14
2.81538e-15
4.65727e-14
0.0190442
0.0164888
1.85818e-14
0.0520474
0.0228717
9.87198e-16
4.25683e-15
0.00870048
4.8531e-15
0.000723737
0.0494508
0.000547831
3.54958e-15
7.71588e-08
2.62233e-07
0.0218649
2.04095e-14
4.85937e-07
0.00161913
3.53182e-15
8.08198e-17
1.46735e-14
0.173133
0.00256941
1.76864e-15
0.000721905
4.32858e-05
7.65893e-17
1.85534e-17
0.000906947
8.00075e-16
7.12181e-06
2.97503e-14
0.00568143
2.52594e-17
1.24472e-15
1.98282e-11
8.2889e-14
0.00867688
1.05134e-14
0.00667562
4.46014e-14
1.2333e-14
0.0158734
1.69903e-15
0.000195005
0.00663604
0.00853367
0.0563865
9.49555e-16
0.00315926
0.0223043
0.0170821
4.32622e-05
6.10978e-16
2.17349e-15
0.00150307
1.71969e-14
1.89874e-15
3.49908e-14
8.14019e-15
8.53391e-15
1.42108e-15
1.44772e-15
5.04199e-16
1.77775e-16
0.0518414
1.18557e-16
9.64724e-16
7.84657e-16
2.2439e-15
7.10325e-14
2.57089e-14
5.73784e-16
0.00347555
1.95391e-15
1.49708e-15
3.25086e-14
6.81365e-15
2.45643e-15
3.19535e-14
4.35523e-15
9.13624e-15
0.0262054
0.00675008
1.09701e-15
0.00113005
1.17703e-15
3.59492e-16
1.9806e-14
4.58678e-16
9.86768e-17
5.42066e-15
6.83968e-15
1.73503e-15
1.15746e-15
8.1124e-16
2.17992e-16
1.15158e-05
0.100869
1.06583e-16
3.11677e-14
6.8398e-06
5.3918e-14
3.71878e-15
1.37765e-16
2.30852e-14
1.47314e-14
8.78486e-16
9.92781e-15
1.0577e-15
0.073033
0.0455996
8.27987e-15
2.69738e-15
3.36682e-14
3.38975e-14
6.88816e-15
1.90979e-15
3.9658e-15
8.78429e-16
0.0130346
4.87321e-16
6.59486e-15
1.13678e-15
0.000472068
0.0299805
2.35288e-15
7.38274e-18
0.012479
5.70644e-16
3.4671e-15
0.00486218
2.01475e-09
4.86321e-14
1.93688e-14
5.88542e-15
0.0220737
1.39278e-15
9.4799e-15
3.02676e-14
8.45544e-16
9.09247e-14
1.48766e-15
6.72464e-15
5.57188e-16
0.00957165
5.64736e-15
0.0273048
6.91162e-18
1.82987e-14
0.000161119
9.31296e-15
6.51402e-15
4.64602e-15
2.8e-15
7.46071e-16
1.12174e-14
2.39864e-15
1.39069e-15
5.00383e-16
4.94081e-17
7.47872e-16
4.46641e-14
0.300554
7.43516e-15
1.08518e-15
1.00173e-14
7.24292e-18
3.54882e-16
1.6527e-15
4.42459e-15
6.0519e-16
9.64936e-17
1.32379e-14
2.5969e-15
0.0147654
1.04403e-16
0.111893
1.67082e-15
0.00806816
0.01044
2.55667e-16
9.30948e-15
2.36538e-14
4.79841e-14
8.55772e-14
9.35651e-14
6.6465e-17
8.9859e-16
2.37219e-07
3.29926e-17
2.78786e-18
1.33335e-15
6.74579e-14
4.92862e-14
0.0149413
5.91569e-14
5.31483e-14
3.45878e-15
8.17288e-14
5.33504e-14
5.1496e-15
7.95091e-16
0.0244226
0.0131308
0.000242018
2.87469e-15
6.00401e-15
3.7761e-15
4.33278e-14
8.67638e-16
9.6726e-15
3.43158e-18
6.91407e-15
1.46788e-14
4.76558e-14
1.47885e-14
6.11068e-15
3.27892e-15
0.000255044
7.62339e-15
2.64909e-14
1.58971e-14
2.68598e-14
1.66736e-14
1.43785e-15
6.39687e-14
1.94023e-14
5.91569e-15
1.46695e-14
8.94716e-16
3.43727e-14
1.85954e-14
4.47839e-14
7.22518e-18
0.0533853
4.69942e-16
1.65763e-15
2.89715e-14
3.87552e-14
1.11213e-15
1.67186e-14
3.35141e-16
1.75024e-16
2.58298e-19
4.85871e-18
6.32286e-16
1.86749e-08
1.83414e-15
9.0124e-14
1.6571e-14
0.050545
1.06918e-14
1.51589e-14
3.86054e-14
3.37063e-18
0.000888156
2.88533e-14
1.52788e-14
7.20456e-16
1.52804e-14
0.0188533
1.39118e-14
1.15289e-15
0.00582963
9.88987e-16
0.0107516
2.8676e-16
1.20717e-15
2.47003e-15
0.00318002
0.0298246
7.52153e-16
6.93192e-17
0.0633514
0.00892427
0.00650678
2.3641e-14
0.0625412
3.18279e-15
0.0152093
5.15576e-16
0.0174101
3.94871e-14
4.5553e-15
2.58064e-14
4.70878e-14
9.98912e-14
0.0403824
0.0142838
0.0140945
5.75584e-14
2.60676e-15
3.04559e-14
5.2275e-15
0.000948354
8.0507e-14
2.59175e-14
4.11321e-14
4.23948e-16
3.10346e-15
4.56487e-16
0.0362564
3.83653e-16
1.20485e-15
1.12858e-15
2.20507e-16
1.39294e-15
5.5324e-15
3.0308e-15
7.62312e-16
1.96125e-14
4.54657e-09
1.42519e-14
2.10246e-14
1.0347e-14
3.57345e-15
4.4011e-16
1.13555e-14
5.67664e-15
8.11361e-15
6.27035e-14
1.92031e-14
4.99818e-15
4.8748e-06
5.28608e-15
8.65343e-07
1.04672e-05
1.03464e-14
1.77738e-15
8.45933e-15
5.66228e-05
7.64988e-16
1.09102e-05
0.00290916
3.04676e-14
1.09905e-13
1.56369e-14
7.57851e-14
8.39388e-06
2.875e-14
9.70757e-07
3.66337e-14
6.99471e-15
0.00190456
0.0959182
1.64126e-13
9.3346e-16
8.21363e-14
1.83503e-14
8.7778e-15
6.72792e-16
7.28944e-14
2.603e-14
2.38603e-15
0.000197829
1.21666e-15
1.42606e-15
5.66012e-16
2.20472e-14
1.99026e-06
1.27568e-16
8.96957e-14
1.01343e-14
3.50774e-14
1.69614e-14
4.94338e-14
4.5346e-15
1.33523e-14
4.89218e-16
1.99719e-14
7.34403e-13
1.86795e-17
1.88979e-14
0.120218
2.63993e-15
5.50067e-15
1.8621e-14
1.53385e-14
5.38618e-13
4.59563e-14
4.75733e-15
2.17059e-14
1.15809e-14
5.70228e-15
2.75751e-15
7.59269e-14
2.48449e-15
5.87493e-14
1.57935e-14
2.25379e-14
1.34342e-12
3.62572e-15
4.50247e-14
3.84929e-15
1.87712e-15
2.00727e-14
3.30523e-14
0.00264842
7.58722e-16
3.72013e-17
2.94752e-14
1.92079e-14
9.13358e-14
1.32046e-14
8.967e-14
2.12344e-16
3.72525e-14
1.71158e-14
0.084769
2.44371e-15
7.13404e-15
6.9592e-19
1.12428e-18
0.000208615
2.45691e-14
0.0266171
0.00855414
4.30953e-15
1.89689e-14
0.037963
4.08964e-12
1.46317e-17
1.74066e-05
1.94861e-14
2.49418e-14
1.49401e-14
1.26129e-16
2.71073e-17
5.46956e-14
1.23259e-15
2.91042e-10
1.04742e-16
7.55423e-15
1.31853e-15
1.88889e-16
1.40132e-12
3.48243e-14
1.55598e-15
3.26502e-15
2.20811e-18
0.000196609
1.37074e-17
5.58356e-16
1.00164
4.09192e-15
3.87563e-06
1.02009e-15
1.6754e-14
9.34673e-19
0.0154651
7.52315e-15
5.80347e-15
1.19887e-15
0.00373885
4.08361e-15
1.31369e-15
5.34573e-14
2.08435e-15
2.50677e-15
4.00798e-14
0.000504712
2.82211e-14
1.95699e-14
1.93765e-14
0.0262261
4.44418e-16
1.62568e-14
2.16377e-17
6.72273e-16
1.75109e-15
4.73693e-14
2.04684e-15
0.00935711
0.0126581
1.3228e-15
8.13617e-15
2.16886e-15
1.61103e-15
2.36522e-15
1.19258e-15
0.000445612
2.80712e-14
2.16791e-18
6.90717e-16
8.73229e-16
9.33624e-16
1.00424e-15
3.27024e-16
2.3018e-16
5.76984e-17
6.03051e-16
0.0115207
2.75848e-14
1.23835e-14
3.94928e-15
1.37109e-15
0.00759778
3.49041e-07
1.03571e-14
0.00558338
7.42376e-14
1.13413e-15
2.18275e-15
6.77205e-15
1.21473e-14
2.46904e-14
3.90951e-06
5.35131e-16
1.58876e-18
4.53264e-10
0.00158683
0.151305
3.5849e-10
5.16863e-09
3.6794e-15
5.60179e-15
1.7442e-15
1.29906e-10
6.40854e-15
0.0203386
4.3087e-15
2.23769e-14
5.1944e-09
1.67192e-14
5.53853e-15
8.88541e-13
1.26187e-05
3.16486e-09
3.31925e-16
1.29185e-15
6.61285e-15
0.000120341
1.56925e-14
9.49622e-15
3.08076e-15
2.34326e-14
4.42713e-16
5.09519e-14
1.93706e-15
5.22162e-15
3.49127e-15
1.74899e-15
1.95537e-14
2.01294e-17
1.46509e-14
8.48127e-18
1.28281e-14
2.52788e-14
1.43873e-14
0.0154776
7.69616e-16
2.4782e-16
0.00340301
3.12214e-15
0.0241
6.71879e-16
3.07271e-15
8.43412e-15
1.30943e-14
5.7347e-17
3.59548e-15
4.01874e-15
1.00808e-14
2.26305e-17
0.0012296
1.63722e-14
0.0359017
1.46972e-14
1.05285e-15
6.63721e-16
5.08716e-16
1.86129e-16
6.29893e-05
1.19635e-05
6.9684e-16
5.92041e-07
2.88273e-15
1.87112e-14
5.20813e-15
8.06922e-16
1.35802e-14
9.34938e-15
1.2074e-14
2.01408e-14
1.06046e-15
6.22759e-16
7.055e-15
5.88226e-15
4.35479e-15
6.6357e-17
0.0108089
4.15137e-15
4.58515e-16
6.08298e-15
1.76062e-14
8.15299e-15
6.19628e-15
4.33342e-14
3.02489e-16
1.57169e-14
2.0694e-15
6.53451e-05
2.86005e-14
0.015664
0.0132212
3.66342e-16
2.30901e-14
4.93623e-15
1.51906e-14
1.46716e-15
2.27087e-15
3.58039e-16
1.92883e-14
9.14518e-16
7.29688e-16
0.00529648
6.16898e-17
4.55855e-15
1.12626e-15
0.00838218
1.66335e-15
0.00875229
6.66915e-15
0.0539889
0.0221113
0.0972493
1.21009e-15
1.79736e-15
8.51056e-15
0.000286815
6.81981e-15
0.00949626
0.0302258
6.65293e-05
6.55269e-14
1.07925e-13
1.14241e-10
4.65328e-17
0.0174905
0.301426
0.0179422
1.17705e-14
1.97569e-14
0.015971
0.00159679
3.71628e-14