/*--------------------------------*- C++ -*----------------------------------*\
  =========                 |
  \\      /  F ield         | OpenFOAM: The Open Source CFD Toolbox
   \\    /   O peration     | Website:  https://openfoam.org
    \\  /    A nd           | Version:  10
     \\/     M anipulation  |
\*---------------------------------------------------------------------------*/
FoamFile
{
    format      ascii;
    class       volScalarField;
    location    "21";
    object      T;
}
// * * * * * * * * * * * * * * * * * * * * * * * * * * * * * * * * * * * * * //

dimensions      [0 0 0 1 0 0 0];

internalField   nonuniform List<scalar> 
59698
(
286.619
283.15
283.15
283.15
299.952
283.15
283.15
283.15
303.15
303.15
303.15
283.15
283.15
283.15
300.133
303.15
283.15
283.15
283.15
283.15
303.282
302.128
303.148
303.15
295.717
283.15
283.15
283.153
295.736
295.348
300.239
303.15
303.15
298.812
302.364
283.15
283.383
283.465
283.15
297.539
283.15
283.15
283.15
283.15
283.15
294.736
283.15
283.15
283.15
283.15
283.15
283.15
283.15
283.15
294.393
283.15
283.15
302.176
283.15
282.978
283.15
283.15
299.62
283.15
286.801
283.15
303.15
283.15
283.15
303.15
283.15
283.15
283.136
298.555
283.15
297.793
283.15
283.155
283.15
294.15
299.92
283.15
303.15
283.15
303.703
283.15
283.15
283.15
298.88
283.15
303.15
283.15
298.975
283.15
283.15
283.15
299.054
283.15
298.902
283.15
299.116
283.128
285.899
284.502
283.15
283.15
283.15
283.15
303.15
283.15
283.15
283.15
298.849
283.15
283.15
283.15
283.15
283.15
283.15
303.15
283.15
283.15
283.15
283.15
283.15
283.15
283.15
303.15
283.15
283.15
287.43
283.15
303.15
292.763
290.037
283.15
283.15
303.15
283.15
283.15
283.15
283.15
283.15
283.15
283.15
283.15
283.15
283.15
283.15
301.185
283.138
303.15
283.157
283.15
283.15
283.15
283.15
283.15
292.578
283.15
283.156
283.15
290.771
296.531
291.766
291.449
283.15
280.914
290.896
283.15
300.377
283.151
300.949
301.014
285.526
283.15
303.15
283.237
303.15
298.926
302.764
300.422
298.632
283.15
298.698
300.858
300.774
283.15
283.15
283.15
283.15
283.15
296.595
297.454
294.303
283.15
293.927
296.577
303.155
292.626
283.15
284.142
290.045
283.15
294.727
283.15
292.4
283.15
284.142
293.986
283.15
283.15
292.75
303.15
283.15
283.15
283.15
283.15
292.003
283.15
282.052
283.15
283.15
298.929
283.15
298.976
283.15
283.15
295.651
285.009
283.15
283.15
283.15
283.15
283.15
283.15
295.805
283.15
283.15
283.15
283.15
288.357
285.866
303.15
283.15
283.15
282.929
285.614
283.15
283.15
283.15
283.15
283.15
303.15
283.15
283.15
283.15
283.15
283.15
283.15
303.12
283.15
283.15
283.15
283.15
295.347
283.15
303.15
283.15
283.15
283.15
286.647
303.101
283.15
287.26
283.15
283.15
283.15
283.731
303.15
303.15
283.15
283.15
289.066
295.136
290.68
283.15
303.15
286.021
283.15
301.406
283.15
283.15
283.15
283.15
283.15
283.15
283.15
283.15
283.15
283.15
283.15
283.15
283.15
283.15
283.15
287.829
283.15
283.15
283.15
283.15
283.15
283.15
283.15
283.15
283.15
283.15
283.15
283.15
283.15
283.15
293.404
283.15
303.15
298.337
285.688
283.15
283.15
283.15
283.15
300.183
283.15
298.863
281.566
303.15
283.15
283.15
283.15
284.955
283.15
283.15
283.15
283.15
283.15
287.458
283.15
283.15
301.443
283.15
283.15
283.15
283.15
301.356
303.15
284.211
300.753
302.092
283.15
283.15
303.15
283.15
283.15
303.15
283.15
283.15
283.15
283.15
283.15
283.15
282.755
290.849
283.15
283.15
283.15
283.15
303.15
283.15
283.15
283.15
303.15
283.15
283.15
283.15
283.15
283.15
283.148
283.15
283.15
283.15
283.15
283.15
303.15
283.15
290.636
303.133
301.991
301.751
283.15
283.15
283.15
283.161
283.15
283.15
283.15
283.15
283.15
295.956
293.285
283.15
302.253
297.894
303.15
283.15
303.15
283.15
289.825
283.15
283.574
302.3
302.831
283.15
283.15
283.15
282.003
283.15
283.15
303.15
283.15
283.15
283.15
283.15
302.787
285.303
283.15
287.594
303.15
303.15
298.656
283.15
287.607
283.15
283.15
303.15
283.15
283.15
302.913
294.847
283.15
283.15
284.421
283.15
283.15
283.15
286.328
283.15
283.15
290.64
303.15
284.303
283.15
290.054
283.15
283.96
293.931
303.15
283.15
283.15
283.15
283.15
283.15
283.15
283.15
283.15
283.15
283.15
283.15
302.758
292.111
283.15
283.15
283.15
283.15
283.15
283.15
300.932
283.15
283.15
283.15
290.948
283.15
299.035
290.494
290.499
283.15
284.919
283.15
283.15
283.15
283.154
283.15
283.15
295.191
287.267
283.15
283.15
303.15
283.15
303.15
283.15
283.153
283.15
289.438
283.148
283.15
283.15
283.15
283.15
283.15
283.15
283.15
283.152
283.15
283.15
283.15
283.15
302.994
283.15
283.15
283.15
283.15
283.15
301.461
303.15
283.15
283.15
283.15
283.15
285.857
283.15
303.15
283.15
283.15
283.15
281.265
283.15
283.15
282.228
283.132
283.15
283.147
283.15
303.15
283.15
303.15
283.15
283.15
283.15
283.15
283.15
283.15
283.15
303.15
283.15
283.123
283.15
303.15
286.371
283.15
283.15
303.15
283.15
283.15
283.15
283.15
283.15
283.15
283.15
283.15
283.15
303.15
283.15
283.15
285.258
283.15
283.15
283.15
283.15
283.15
289.656
283.15
283.15
283.15
283.15
283.15
283.15
283.15
303.15
282.782
283.15
283.15
283.15
283.15
283.15
283.15
283.15
283.15
283.15
283.15
283.15
283.15
283.15
283.15
283.15
283.15
283.15
283.15
283.15
297.875
285.624
283.15
283.15
283.15
283.15
302.964
283.15
283.15
283.151
283.15
283.15
283.15
283.15
283.15
283.15
283.15
283.15
283.15
283.15
283.15
283.15
286.958
283.15
283.15
283.15
303.15
283.15
283.15
283.15
283.15
283.15
283.15
283.15
283.15
283.173
283.15
283.15
283.15
283.15
303.147
283.15
283.15
283.15
283.15
283.15
283.798
301.825
283.15
283.15
283.15
283.15
288.918
283.15
283.15
283.15
283.15
283.15
283.15
283.15
283.15
293.198
283.15
283.15
283.15
283.15
283.15
283.15
283.15
283.15
283.15
283.15
295.734
283.15
297.151
283.15
283.15
283.15
283.15
283.15
283.15
283.15
283.15
283.15
283.15
283.15
283.15
283.15
303.15
296.516
283.15
283.15
283.15
283.15
283.15
283.15
283.15
283.15
283.151
283.15
283.15
303.15
283.15
297.874
283.151
283.15
283.15
283.15
286.193
295.561
283.15
296.233
283.15
282.859
283.15
290.534
300.324
283.15
291.115
283.15
303.15
283.151
287.953
283.15
283.15
283.272
283.15
283.15
283.15
283.597
283.45
283.15
285.562
283.15
296.873
283.15
298.09
283.15
283.15
290.271
295.08
303.15
283.15
285.497
283.15
283.151
283.152
283.15
283.153
283.151
283.15
283.15
283.259
286.214
283.15
283.15
283.15
283.15
283.15
283.15
283.15
283.249
283.289
297.435
283.15
286.361
283.15
283.232
283.15
283.268
283.15
284.361
298.832
283.15
288.647
297.621
301.055
283.15
302.765
283.15
283.15
283.15
283.15
283.15
283.15
283.15
283.15
284.534
283.164
283.15
283.15
283.15
282.348
283.15
283.15
283.15
283.15
303.103
298.454
303.15
283.15
284.574
288.625
283.15
282.177
283.15
283.228
283.15
283.15
283.15
283.15
296.645
283.15
283.15
283.15
283.15
283.15
283.15
283.15
283.162
283.15
283.132
283.174
303.15
283.15
283.15
283.15
283.15
283.15
283.15
283.15
283.15
283.15
283.15
283.15
285.406
283.15
283.15
283.15
299.431
283.15
283.15
283.15
283.15
285.842
303.15
284.501
283.15
283.15
283.15
283.149
283.15
283.15
283.15
283.15
284.111
283.15
283.15
283.15
283.15
283.15
283.15
283.15
283.15
283.15
283.15
283.15
283.15
283.15
283.15
283.15
283.15
283.15
283.15
283.15
283.15
283.15
283.15
283.15
283.15
283.15
303.15
283.15
283.15
283.15
283.15
283.15
283.15
283.15
283.15
283.15
283.15
286.096
283.15
283.15
283.15
283.15
303.15
283.15
283.15
283.15
286.464
283.15
283.15
296.701
283.15
283.15
295.628
283.15
283.15
283.15
286.606
292.105
283.15
283.15
283.15
290.813
283.15
283.15
283.15
283.15
283.15
283.15
283.15
283.15
286.107
283.15
283.15
283.15
285.349
283.167
283.15
283.15
283.15
283.15
283.15
283.15
283.15
283.15
283.15
303.15
283.15
283.15
283.15
303.15
283.15
283.15
283.15
283.15
283.15
283.15
283.15
283.15
303.15
303.15
283.15
283.15
283.15
283.15
283.15
302.711
298.563
283.15
283.15
302.162
283.15
283.15
283.15
283.15
283.15
283.15
283.15
290.13
287.745
283.15
283.15
283.15
303.15
283.168
283.15
300.404
283.15
303.15
303.15
283.15
283.15
283.15
283.15
283.15
292.598
283.15
283.15
283.15
298.388
283.15
283.15
283.15
302.803
283.15
283.15
302.8
283.15
283.15
302.808
283.15
283.15
283.15
283.15
283.15
283.15
295.208
283.15
283.15
303.15
283.15
283.15
283.15
283.15
283.15
283.15
283.15
283.15
283.15
295.338
283.15
287.661
283.15
290.969
283.15
303.15
283.15
283.16
283.15
303.15
283.15
283.15
283.15
283.15
283.156
303.15
303.15
293.091
283.15
283.15
283.15
283.15
283.15
283.15
303.15
303.15
284.106
283.15
295.123
303.15
283.15
296.129
303.15
282.443
283.15
283.569
283.15
283.15
283.15
283.15
283.15
303.15
283.15
283.15
283.15
283.15
283.15
283.15
283.15
301.059
303.15
297.252
302.918
283.15
301.674
287.114
283.15
283.15
289.592
297.124
283.158
283.308
283.15
283.15
288.113
283.15
303.15
283.15
300.986
283.15
283.15
283.15
283.15
283.15
302.392
283.283
283.15
283.15
283.15
283.15
303.15
283.15
285.397
283.15
283.15
283.15
283.15
283.15
304.94
283.15
283.15
283.15
286.227
283.15
284.669
283.15
303.15
283.15
283.15
283.15
283.15
283.15
300.81
301.125
283.15
283.15
299.152
302.603
283.15
283.15
283.15
302.578
287.714
300.269
283.15
283.15
283.15
283.15
283.15
283.15
283.15
303.15
286.066
298.867
283.15
283.15
283.15
283.15
283.15
298.999
283.15
283.15
283.15
283.15
303.15
283.15
303.15
283.15
283.15
283.15
283.15
283.15
285.397
283.15
303.15
283.15
283.15
283.15
283.15
287.824
303.15
303.15
283.15
283.15
283.15
303.15
283.15
283.15
283.15
283.15
303.15
283.15
283.15
283.15
283.15
285.236
283.15
283.15
284.978
303.15
283.15
283.15
303.143
303.15
284.197
290.56
283.15
283.961
283.15
283.15
303.15
283.15
283.15
283.15
282.331
283.15
283.15
303.15
283.15
303.15
283.15
284.591
283.15
283.15
283.15
283.15
302.763
283.15
295.704
283.15
283.15
283.15
283.15
283.15
283.15
283.15
283.15
303.15
283.15
283.151
283.15
283.15
283.15
283.15
283.15
283.15
283.15
283.15
300.623
285.592
283.15
303.023
283.15
303.15
283.15
283.15
299.96
303.15
303.15
290.026
283.15
300.662
283.15
283.15
303.15
283.15
283.15
303.15
283.15
283.15
283.15
283.15
302.96
303.15
297.466
283.15
283.15
288.944
283.15
283.15
283.096
303.15
283.15
303.15
283.15
303.15
283.15
283.15
283.15
283.15
283.15
283.15
283.15
286.805
283.15
283.15
283.15
283.15
283.15
283.15
283.15
301.151
283.15
303.15
283.15
290.943
283.15
303.15
303.15
283.15
283.15
287.347
283.15
283.15
283.266
303.15
303.15
283.15
283.15
283.206
303.15
299.774
303.15
283.208
303.15
303.15
303.15
283.15
290.767
295.156
303.15
283.418
283.15
303.15
283.15
283.248
282.678
283.15
283.733
283.15
283.15
283.15
283.311
283.15
283.15
303.15
303.15
285.191
288.663
283.15
283.578
283.283
283.15
283.15
283.15
283.15
283.15
283.15
283.15
287.696
285.207
293.949
303.15
292.239
284.059
283.15
283.206
300.945
283.15
283.15
283.15
283.15
298.068
283.15
283.15
283.15
283.9
286.777
283.771
283.15
284.863
283.15
284.223
303.15
294.048
283.15
288.493
292.641
303.112
303.15
283.15
284.406
283.15
300.635
284.976
285.121
298.433
283.15
284.945
282.308
283.15
303.15
284.46
283.15
283.129
285.15
303.15
297.592
283.151
283.15
303.15
284.927
299.318
303.15
283.15
289.261
295.103
296.525
297.861
283.514
303.15
285.241
283.15
283.15
283.15
293.922
283.15
303.125
283.15
303.15
283.15
283.15
283.15
283.15
283.15
283.15
300.118
295.085
285.745
283.138
295.693
283.15
299.412
303.15
283.15
283.15
285.648
285.627
283.15
283.15
287.801
283.15
283.15
283.15
283.15
283.15
294.098
303.15
289.024
283.15
303.15
283.15
283.15
283.15
283.15
303.15
293.023
283.15
303.15
293.801
302.674
283.161
283.15
286.864
283.166
303.15
283.15
303.15
283.15
283.15
283.15
283.15
283.14
283.165
283.209
303.15
283.168
283.15
283.163
293.467
283.174
283.15
283.15
286.229
303.15
287.443
291.772
283.15
303.15
300.56
283.15
289.555
303.228
303.15
284.659
283.15
283.15
303.15
283.15
283.15
283.15
297.71
297.128
283.15
295.022
303.15
303.15
283.15
283.15
283.937
283.15
283.154
283.576
303.15
283.799
283.15
303.15
283.15
283.003
283.15
283.15
299.84
303.15
283.15
303.15
303.15
283.682
283.15
283.15
283.149
303.15
283.15
283.15
303.15
303.15
283.15
283.127
283.15
303.15
283.139
283.15
283.15
283.15
300.711
283.15
283.15
303.15
294.701
294.214
303.15
303.15
303.15
283.15
283.15
283.15
291.876
303.15
283.14
283.15
303.15
303.15
303.15
283.15
283.15
283.15
283.15
283.15
283.15
283.15
283.15
303.15
283.15
283.15
283.15
283.15
294.062
283.15
283.15
283.15
283.15
283.15
283.14
283.15
303.15
283.15
283.15
283.15
283.15
303.15
283.15
294.232
303.15
285.307
283.15
283.15
283.15
283.15
283.15
291.552
283.15
283.15
284.185
283.15
283.15
283.15
283.15
283.15
283.15
283.15
295.24
283.15
287.276
283.15
304.959
284.04
283.15
300.312
283.134
283.15
283.15
303.15
294.391
296.51
283.15
283.15
301.444
296.242
283.15
298.929
283.15
302.824
297.689
300.387
283.15
285.253
294.215
289.337
283.15
283.15
297.483
283.15
283.15
283.15
283.15
283.15
283.15
283.143
299.571
283.15
283.162
283.15
283.15
297.87
289.049
283.15
283.15
283.15
283.15
283.217
283.15
283.151
298.386
283.15
300.304
283.15
283.15
283.15
283.15
298.419
283.15
283.15
284.609
283.15
283.15
283.15
283.15
303.15
288.051
297.144
298.035
301.585
283.455
283.15
283.15
283.15
283.15
283.15
303.151
283.15
283.15
283.15
283.139
283.15
283.15
283.15
301.989
283.15
283.15
303.188
283.15
283.15
283.15
289.217
283.15
302.105
302.828
283.165
283.15
283.15
283.15
283.15
283.15
283.15
283.15
283.15
283.15
283.15
302.942
283.15
284.059
283.15
283.229
283.15
283.158
283.15
283.15
283.15
283.15
283.15
283.15
302.926
283.15
283.15
283.15
298.232
302.944
283.15
283.247
283.15
298.503
283.15
283.15
283.162
285.198
283.15
283.15
283.304
283.15
283.15
283.257
302.813
283.15
283.15
283.15
283.15
283.15
283.15
299.708
283.15
294.568
283.15
283.15
283.15
283.15
283.15
283.15
286.361
298.561
299.523
283.231
283.15
283.15
283.15
295.993
283.15
283.15
283.15
298.662
285.524
283.15
283.15
283.15
283.15
283.15
296.194
283.377
296.557
283.15
283.15
283.15
299.556
303.15
283.15
283.15
283.15
296.974
283.15
299.684
283.15
283.15
283.15
283.15
299.668
283.15
283.15
301.302
283.15
283.15
283.15
283.15
283.15
283.471
283.15
303.15
283.15
301.446
283.15
283.15
283.15
283.15
283.15
301.374
287.138
283.15
283.15
283.15
283.231
295.982
283.15
283.15
298.926
283.15
283.15
283.15
283.15
303.15
298.539
283.15
285.457
283.15
295.006
301.379
283.15
301.193
283.15
292.986
283.15
303.15
283.15
300.081
283.15
283.15
283.15
302.833
285.915
283.15
283.15
283.15
296.231
283.15
283.15
291.143
292.619
295.737
283.15
283.15
283.15
283.15
283.15
296.071
294.369
283.15
294.292
295.793
283.15
283.15
289.017
283.15
295.799
296.775
300.27
283.15
283.161
283.175
301.233
283.15
303.146
283.15
283.15
283.15
283.15
301.792
303.553
283.15
303.01
303.129
283.15
283.15
284.255
283.15
283.283
283.15
300.61
283.15
283.15
303.15
283.15
293.49
283.15
301.067
283.15
283.15
302.013
283.15
283.423
302.275
286.438
295.423
283.15
288.738
292.474
300.547
302.96
283.15
283.15
286.915
283.15
283.15
283.15
283.15
283.15
283.15
283.15
283.15
283.15
295.81
283.15
283.15
283.15
283.15
283.15
283.15
283.15
289.108
283.15
283.15
283.15
283.15
283.15
283.15
283.15
283.15
285.612
302.178
283.15
299.261
283.15
283.15
283.15
283.15
303.15
283.15
283.15
283.15
283.15
283.15
283.15
283.379
298.712
283.15
283.15
283.143
283.15
283.15
283.15
283.15
283.15
283.15
283.15
283.15
297.91
300.874
283.15
283.15
283.15
283.15
283.15
283.15
283.15
283.15
294.699
283.15
283.15
283.15
300.95
296.74
283.15
303.15
291.23
283.15
283.15
293.895
283.15
283.15
283.15
283.15
290.171
283.15
283.15
283.15
283.15
283.15
283.15
283.15
283.15
290.852
283.15
293.086
283.15
283.15
285.129
283.15
283.15
283.15
283.15
283.15
283.15
283.15
283.15
283.15
283.15
283.15
283.15
297.953
283.15
283.15
283.15
283.15
283.15
283.15
283.15
283.15
283.15
283.15
283.15
299.555
283.15
296.181
283.15
296.275
295.647
283.15
283.15
283.15
283.15
283.15
283.15
303.15
283.15
283.164
283.15
283.15
283.15
283.15
283.15
299.287
283.15
283.15
283.15
283.15
283.15
283.15
283.15
300.834
286.328
283.636
283.15
283.15
283.15
283.15
283.15
283.15
283.15
283.15
283.15
283.15
283.15
283.15
283.15
284.194
283.15
283.15
283.15
283.15
283.15
303.15
283.15
283.15
283.15
283.15
283.15
283.15
283.15
283.15
303.15
287.069
283.15
283.15
283.15
283.15
283.15
283.15
283.15
283.15
283.15
283.15
283.15
283.155
283.15
283.15
283.15
291.602
283.15
283.15
283.15
303.15
283.411
283.15
283.15
283.15
283.15
295.844
283.15
283.15
285.197
283.15
289.297
283.15
283.15
283.15
302.024
294.38
283.15
283.15
294.237
293.202
296.865
283.15
300.486
283.15
301.247
283.15
297.609
283.15
283.15
283.15
283.15
283.15
293.898
295.048
292.919
283.15
283.15
283.15
283.15
292.151
283.15
283.15
283.15
283.15
283.15
283.15
299.352
283.15
283.15
283.15
283.15
283.15
283.15
283.15
283.15
283.15
283.152
283.15
283.15
283.15
283.15
283.15
283.15
283.15
283.15
283.15
283.15
283.15
283.26
283.15
302.666
283.244
283.15
283.15
283.15
285.564
283.15
283.306
303.388
283.15
283.15
283.15
283.15
283.293
283.15
283.196
283.15
283.15
286.388
285.96
283.15
283.15
283.15
283.15
283.15
283.15
283.15
283.15
283.15
284.065
283.15
283.15
283.15
283.15
283.241
283.15
283.15
283.15
283.15
283.15
283.15
283.15
283.15
283.15
283.15
303.15
303.15
283.15
292.028
283.15
283.15
283.15
283.15
283.15
283.15
283.15
283.15
283.15
283.15
283.15
283.15
283.15
283.15
283.15
283.15
283.15
283.15
283.15
283.15
283.15
283.15
283.15
303.244
283.15
303.15
283.15
283.15
283.15
283.15
283.15
283.15
283.15
283.15
291.148
283.15
283.15
283.15
303.15
282.89
283.15
301.984
284.039
303.15
283.15
300.862
283.15
283.15
283.295
283.15
283.15
283.15
303.15
303.15
283.15
283.15
283.15
283.15
283.15
283.15
283.15
283.15
283.15
283.15
283.15
283.15
300.795
303.15
303.15
297.815
283.15
283.258
283.15
283.15
283.15
300.97
283.15
283.15
283.15
291.703
303.15
283.15
283.15
283.15
283.15
283.15
300.84
283.15
283.15
283.15
293.441
283.15
283.15
283.15
283.15
283.15
283.15
283.15
301.942
302.711
283.15
283.15
283.15
283.15
283.15
283.15
300.574
283.15
283.15
283.15
283.15
283.15
283.15
283.15
283.15
283.15
303.15
293.932
283.15
283.15
283.15
283.15
295.425
283.146
283.15
283.672
283.15
283.15
283.15
283.15
283.15
283.15
283.243
283.15
303.15
283.151
284.939
292.874
283.15
283.154
283.15
283.15
283.15
283.15
283.15
296.205
283.15
283.15
283.153
283.15
283.15
283.15
283.301
283.152
283.15
283.15
283.15
283.813
283.15
283.15
283.15
283.15
283.15
283.15
283.15
283.15
283.15
283.15
283.15
283.15
283.15
283.15
283.15
283.15
283.15
299.645
283.15
283.15
286.326
283.15
290.32
283.15
283.15
283.15
283.15
283.15
283.15
283.15
283.15
283.15
290.753
283.15
296.316
283.15
283.15
283.15
283.15
283.15
283.627
283.272
283.15
283.191
283.15
283.15
283.15
283.15
283.15
283.15
283.15
283.15
283.15
283.15
283.15
283.15
283.15
283.15
286.187
283.15
283.15
283.15
283.15
283.15
283.15
283.15
283.15
283.15
283.15
283.697
283.15
302.764
301.086
303.15
283.15
283.15
283.15
283.15
283.15
283.15
283.15
283.15
283.15
302.513
283.15
283.15
283.15
294.409
283.15
300.311
283.15
288.348
300.863
287.184
283.15
283.15
283.15
283.117
283.15
289.883
282.4
283.869
283.15
283.15
283.15
283.15
284.92
291.394
302.404
283.15
283.15
297.397
303.181
283.15
283.15
294.837
290.949
283.15
283.15
283.15
284.31
283.15
283.15
283.15
283.15
283.15
283.15
283.15
283.15
283.15
283.15
300.228
283.15
283.15
283.15
283.15
300.451
283.15
283.15
283.15
283.979
283.15
283.15
283.15
283.222
283.15
297.191
283.15
285.056
283.861
283.145
283.15
283.15
298.608
283.15
283.15
290.653
283.15
283.15
283.149
283.15
283.15
282.639
289.522
283.15
283.15
303.151
283.15
283.15
293.61
286.004
283.15
283.15
283.15
297.338
286.008
283.743
283.15
284.422
283.286
283.15
283.15
283.15
283.15
284.348
284.028
283.15
289.48
297.359
287.129
283.15
283.15
283.15
295.693
283.15
285.055
283.15
283.15
292.314
285.226
283.15
303.15
287.451
283.765
285.609
283.151
285.82
283.15
283.15
287.975
293.028
303.15
286.262
283.15
288.214
285.276
285.176
283.15
285.455
288.531
283.15
283.874
283.15
283.15
289.252
283.15
283.15
283.15
283.15
283.15
283.15
283.15
288.53
299.545
288.239
287.167
285.403
283.15
285.473
302.408
283.15
283.15
283.15
283.15
283.15
283.15
283.15
283.15
283.15
283.15
283.15
283.15
283.15
283.15
283.15
283.15
302.583
283.15
286.892
283.15
283.15
292.983
283.15
303.103
283.15
283.15
283.15
283.15
290.407
286.634
283.15
283.15
284.078
292.979
283.15
283.15
283.15
283.15
283.15
283.15
300.073
283.15
295.145
283.15
295.088
299.184
302.337
302.086
295.686
295.846
294.802
284.803
283.15
283.15
283.15
283.15
283.16
293.257
283.15
283.15
283.15
285.606
283.15
283.15
283.15
289.99
283.15
283.15
301.04
283.15
299.978
301.473
283.15
283.15
283.15
283.15
290.236
299.055
283.15
283.15
283.15
283.15
283.15
283.15
283.15
283.15
283.15
283.15
283.15
283.15
283.15
283.15
283.15
283.15
283.15
283.15
283.15
283.15
283.15
283.15
283.15
283.15
283.15
295.935
283.15
283.15
283.15
283.15
283.15
283.15
283.15
283.15
283.15
301.897
302.26
283.15
283.15
301.111
304.619
283.15
302.21
302.155
283.15
283.15
283.15
283.15
302.348
283.15
283.15
283.15
302.346
283.15
283.15
283.15
283.15
283.15
283.15
283.15
303.081
283.15
283.15
283.15
283.15
283.15
283.15
283.15
283.15
283.15
283.15
283.15
283.15
283.15
283.15
283.15
299.24
283.15
283.15
283.15
287.046
301.454
283.15
301.11
291.197
300.514
283.15
301.548
283.15
297.638
283.15
283.15
290.453
296.04
298.689
295.536
283.814
283.15
283.15
300.212
283.15
283.15
284.174
283.15
283.151
283.15
284.225
283.95
287.908
283.805
283.15
283.15
283.15
295.762
283.15
283.15
283.15
283.15
283.153
284.659
283.15
284.195
283.15
283.15
283.15
284.313
283.15
290.007
284.27
290.322
287.445
283.231
283.235
303.15
283.15
285.553
283.15
304.28
283.15
287.61
283.232
283.15
283.289
283.15
283.15
283.15
283.785
283.15
283.15
283.15
283.15
283.15
283.15
283.15
301.836
283.15
287.461
286.144
287.148
283.15
283.15
283.15
301.925
283.15
283.15
287.413
286.131
287.325
300.024
283.15
283.15
283.15
283.15
299.321
296.576
283.15
283.15
283.15
283.15
283.15
283.15
303.144
283.15
283.15
283.15
299.1
283.15
283.15
303.15
283.15
283.15
283.15
283.15
286.961
283.68
283.15
283.15
283.15
283.15
283.15
283.15
283.162
283.15
283.532
283.15
283.15
289.721
283.15
283.155
283.15
300.464
283.15
283.15
283.15
283.15
284.596
283.151
283.152
283.15
283.153
283.15
283.152
283.152
300.142
283.15
283.15
283.15
283.15
283.15
303.109
303.15
283.15
283.15
283.15
283.15
283.15
303.15
303.15
283.15
283.15
283.15
283.15
283.15
283.949
283.15
283.15
283.15
283.15
283.15
289.767
283.15
283.15
297.263
283.15
283.15
283.15
283.15
302.51
283.15
283.15
283.15
283.15
283.15
283.15
283.15
283.15
283.15
283.15
283.15
283.15
302.705
283.15
283.15
283.153
283.15
303.15
288.095
283.153
300.893
283.15
283.15
283.15
283.15
283.15
283.15
283.15
283.15
283.15
283.15
283.15
296.349
283.15
283.15
283.15
283.15
283.15
283.15
283.15
283.15
283.15
283.15
283.15
283.15
283.15
283.15
300.819
283.15
283.15
283.15
283.15
283.15
283.15
283.15
283.15
283.15
283.15
283.15
303.15
283.15
283.15
283.15
283.15
283.15
283.15
302.428
283.15
284.194
283.15
283.675
283.15
283.15
283.15
283.15
283.15
283.15
283.15
283.15
283.15
283.15
283.15
283.15
283.15
283.15
294.245
283.15
285.176
283.15
283.15
283.15
283.15
283.15
283.15
283.15
283.15
283.15
283.15
283.15
283.15
283.15
283.15
283.15
283.15
283.15
283.15
283.15
283.15
283.15
302.969
283.15
283.15
296.877
285.475
283.15
283.15
285.429
283.15
283.15
290.358
283.15
282.849
283.15
294.913
283.15
283.15
299.671
297.295
283.146
289.016
283.15
300.962
283.15
283.15
283.15
283.15
301.334
283.15
283.15
283.15
283.15
283.15
283.15
283.15
283.15
283.15
283.15
283.896
283.15
283.15
283.15
283.15
283.15
283.15
295.005
283.15
283.15
283.15
283.15
283.15
283.15
290.427
283.157
283.15
283.15
283.15
285.269
286.664
283.15
289.798
283.16
283.15
303.202
283.15
283.15
283.15
283.15
283.15
283.15
283.15
283.15
283.15
283.15
283.15
283.15
283.15
283.452
284.886
283.15
283.15
283.15
283.15
283.603
283.15
286.843
303.15
283.15
283.15
283.15
283.15
283.15
283.15
283.15
283.15
283.15
288.486
303.15
283.15
283.15
287.427
283.15
283.15
283.15
286.286
303.15
283.15
289.672
286.576
283.15
283.15
283.15
283.15
283.15
283.15
283.15
283.15
283.15
283.15
283.15
301.589
283.15
288.659
283.15
283.15
283.15
292.548
283.15
283.15
300.894
283.15
283.15
283.15
283.15
283.15
286.223
283.15
283.15
295.873
283.15
283.15
283.15
302.446
283.15
283.15
283.15
303.113
283.15
283.15
283.15
283.231
283.15
283.15
283.15
283.15
283.15
283.15
283.15
283.15
283.15
283.15
296.619
283.15
283.15
283.15
283.15
303.15
283.15
283.15
283.15
283.15
283.15
283.15
283.15
283.15
287.473
283.185
283.15
283.15
283.15
293.484
283.15
283.15
283.15
283.15
283.15
283.15
283.15
283.15
283.15
283.15
283.15
283.15
283.15
283.15
283.151
283.15
286.823
298.839
283.15
283.15
283.15
283.15
283.15
283.15
283.15
283.15
283.15
283.15
283.15
283.15
283.15
283.15
297.221
283.193
301.639
283.15
283.15
283.15
283.15
283.15
283.15
283.15
283.15
283.15
283.15
293.565
287.038
283.15
288.471
283.15
283.15
291.965
283.15
283.15
283.15
283.15
283.15
283.15
283.15
283.15
283.15
283.15
283.15
283.15
283.15
290.973
283.163
283.15
283.2
283.15
283.15
283.15
283.15
290.206
286.721
287.809
283.15
283.15
283.15
283.15
283.15
283.15
283.15
300.971
285.019
283.15
283.15
285.05
284.931
283.15
283.15
283.15
283.15
283.15
283.15
283.15
283.15
283.15
283.938
285.017
283.15
283.15
283.15
296.922
289.185
283.15
283.15
300.254
283.15
301.694
283.15
283.15
283.15
283.15
283.15
283.15
283.15
283.15
284.093
283.15
283.15
283.15
283.15
283.15
283.15
283.15
283.15
283.15
283.15
283.15
283.715
283.15
283.15
283.15
283.15
284.776
283.15
283.15
283.15
283.15
283.15
283.15
283.15
283.15
284.397
283.15
283.15
301.234
283.574
283.15
288.4
283.15
283.15
288.464
283.15
283.15
293.863
283.15
283.15
283.15
283.15
283.15
283.15
283.15
283.15
283.15
283.15
286.26
283.15
283.15
283.15
283.15
283.15
283.15
283.15
283.15
283.15
283.15
283.15
283.15
283.15
283.15
283.15
283.15
283.15
287.009
283.15
283.15
283.15
283.15
283.15
283.15
283.15
283.15
283.15
283.15
283.15
283.15
283.15
283.15
283.15
283.15
302.489
283.15
284.735
297.176
283.15
283.15
283.15
283.15
283.15
283.15
283.15
295.691
283.15
283.15
290.942
283.15
283.15
293.404
283.15
283.15
283.15
283.15
283.15
283.15
283.15
283.15
283.15
283.15
283.15
283.15
283.15
283.15
283.15
283.15
283.15
283.15
283.15
283.15
283.15
283.15
283.15
283.15
283.15
283.15
283.15
283.15
283.15
283.15
283.15
283.15
283.15
283.15
283.15
283.153
283.15
283.15
283.15
283.15
283.15
283.15
283.15
283.15
284.893
283.15
283.15
283.15
283.15
283.727
283.15
283.15
283.215
284.925
283.15
283.15
283.15
283.749
283.15
283.15
283.15
284.994
283.15
283.15
283.15
283.15
283.15
283.15
283.15
283.15
283.15
283.15
283.15
283.15
283.15
285.306
283.15
283.15
285.513
285.351
283.15
283.15
283.15
283.15
283.15
283.15
283.15
283.15
288.354
283.15
283.15
283.15
283.15
283.15
283.15
283.15
283.15
283.15
283.15
283.15
283.15
283.15
283.15
283.15
283.15
283.15
283.15
283.15
283.15
283.15
283.15
283.15
283.15
283.15
283.15
283.15
283.15
283.15
283.15
283.15
283.15
283.15
283.15
283.15
283.15
301.691
283.15
283.15
283.15
283.15
283.32
283.15
283.15
283.15
283.15
283.15
283.15
283.15
283.15
290.8
283.15
303.15
283.15
283.15
283.15
283.15
283.15
283.15
283.15
283.15
283.15
300.421
283.21
283.15
283.15
283.15
283.15
283.15
290.607
283.15
283.15
283.15
283.15
283.15
283.15
289.672
283.15
283.15
283.15
284.929
283.903
283.15
283.15
283.15
283.15
283.15
283.15
283.15
285.77
286.407
283.15
292.306
283.15
283.15
303.15
283.15
283.15
296.823
303.15
288.183
283.15
283.15
283.15
283.219
291.673
283.15
283.647
283.15
283.15
285.254
283.15
283.15
283.15
283.15
283.15
283.15
283.233
283.15
283.15
283.15
283.15
283.15
284.922
283.741
283.15
283.15
283.15
283.15
283.15
285.968
283.15
283.15
283.15
303.15
283.15
283.15
283.195
283.15
283.15
283.15
283.15
283.15
283.15
283.15
283.15
283.15
283.15
283.15
283.15
283.15
283.15
283.15
283.15
283.15
283.15
283.15
283.15
283.15
283.15
283.15
283.15
283.15
283.15
283.15
283.15
283.15
283.15
283.15
283.15
283.151
298.853
283.15
283.15
283.15
283.15
283.15
283.15
283.15
283.15
283.15
283.15
283.15
283.15
283.15
283.15
283.15
283.15
283.15
284.86
283.15
283.15
283.15
283.15
283.15
283.15
283.15
283.15
283.15
302.579
283.15
283.15
283.15
283.15
283.15
283.15
283.15
283.15
283.15
294.101
283.15
283.15
283.15
283.15
283.15
283.15
283.15
283.15
283.15
283.15
283.15
283.15
283.15
283.15
283.15
283.15
283.15
283.15
283.15
283.15
283.15
283.15
283.151
283.15
283.15
283.15
296.235
283.15
283.15
283.15
283.15
283.15
283.15
283.152
283.15
283.15
283.15
283.15
283.15
283.15
283.15
283.15
283.15
283.15
283.15
283.15
283.15
283.15
283.15
283.15
283.15
283.15
283.15
283.15
283.15
283.15
283.15
283.15
283.15
283.15
283.15
283.15
283.15
283.15
283.15
283.15
283.15
283.15
283.15
283.15
283.15
283.15
283.15
283.15
283.15
283.15
283.15
283.15
283.15
283.15
283.15
283.15
283.15
283.15
283.15
283.15
283.15
302.647
283.15
283.15
283.15
283.15
283.15
283.15
283.15
302.754
283.15
302.966
302.574
297.016
283.15
283.15
283.15
283.15
283.15
283.15
286.722
303.15
283.15
283.15
283.15
283.15
283.15
283.15
283.15
283.15
283.15
303.15
283.15
283.15
283.15
283.15
283.15
283.15
283.15
283.15
283.15
283.15
283.15
283.15
283.15
283.15
283.15
283.15
283.15
283.15
283.15
302.725
283.15
283.15
283.15
283.15
283.15
283.15
283.15
283.15
283.15
283.15
283.15
283.15
283.15
283.15
283.15
283.15
283.15
283.15
283.15
283.15
283.15
283.15
283.15
283.15
283.15
283.15
283.15
283.15
283.15
283.15
283.15
283.15
290.176
283.15
283.15
295.451
283.183
283.15
287.916
293.436
283.15
296.297
283.15
283.149
303.15
293.531
283.15
283.15
283.15
283.15
283.15
283.15
283.15
285.415
284.973
298.972
283.15
303.15
283.15
283.15
283.15
283.15
283.15
283.15
283.15
283.15
283.15
283.15
284.64
283.15
285.219
283.15
283.15
296.908
283.15
283.15
283.15
283.15
283.15
283.15
283.15
283.15
283.15
283.15
283.15
283.15
283.15
283.15
283.15
283.15
285.653
283.15
283.15
283.15
289.719
283.15
283.555
283.279
282.276
283.15
283.15
283.15
283.15
283.15
283.15
295.112
295.639
283.15
283.15
283.15
283.15
283.15