/*--------------------------------*- C++ -*----------------------------------*\
  =========                 |
  \\      /  F ield         | OpenFOAM: The Open Source CFD Toolbox
   \\    /   O peration     | Website:  https://openfoam.org
    \\  /    A nd           | Version:  10
     \\/     M anipulation  |
\*---------------------------------------------------------------------------*/
FoamFile
{
    format      ascii;
    class       volScalarField;
    location    "17.5";
    object      SgP;
}
// * * * * * * * * * * * * * * * * * * * * * * * * * * * * * * * * * * * * * //

dimensions      [1 -1 -3 -1 0 0 0];

internalField   nonuniform List<scalar> 
111485
(
9.11039e-10
0.000119857
2.80023e-05
5.91516e-11
8.4825e-06
3.17194e-08
1.5104e-05
2.47901e-07
1.06273e-05
2.9199e-06
2.54993e-05
9.52617e-07
6.82555e-06
0.294603
6.69667e-06
1.60125e-05
0.208482
0.00104925
8.94465e-07
4.79269e-08
0.0372112
3.4297e-09
3.15751e-06
1.12643e-05
4.11988e-05
3.52752e-08
6.02406e-07
1.44678e-05
1.06461e-06
0.0481425
4.17609e-06
5.02555e-07
2.17891e-07
1.45242e-06
0.00073696
9.1305e-05
0.136278
0.205204
0.0024728
8.80316e-07
0.0433307
1.18514e-06
2.95585e-06
0.000107965
1.87691e-05
1.58563e-06
6.52624e-06
4.387e-07
6.25729e-06
4.27375e-07
1.09479e-06
1.72295e-05
4.62699e-07
9.60224e-06
1.50716e-06
1.9873e-07
2.77266e-06
4.37402e-08
4.98674e-05
3.87368e-07
5.72942e-07
2.64783e-07
8.57887e-05
6.98474e-06
6.52255e-06
2.14243e-05
0.000423961
2.37516e-06
7.17527e-05
0.000141627
4.92686e-05
8.7044e-05
1.1195e-05
9.21184e-05
4.63187e-08
1.79554e-06
1.53215e-08
7.19996e-07
2.79732e-08
3.12945e-05
0.28023
0.524906
4.39301e-08
5.21913e-09
1.58775e-05
3.79604e-05
0.14318
9.15877e-06
0.000247056
4.41276e-06
1.35308e-06
6.56455e-06
4.63709e-05
4.8125e-07
2.27431e-06
6.66164e-09
0.0270624
1.12706e-05
0.00152923
0.000574867
1.33312e-09
2.59106e-06
1.95507e-06
1.43636e-05
6.08361e-06
1.64548e-05
5.82697e-09
2.78642e-07
1.51121e-05
0.000726064
4.19167e-05
1.37413e-06
1.32594e-05
7.4133e-05
1.03716e-07
1.68272e-07
3.06047e-08
6.52076e-06
2.29878e-05
5.06321e-09
9.16193e-08
0.000189892
0.0749163
2.25626e-06
5.81603e-05
0.0279504
0.000106898
1.33875e-05
2.8081e-10
0.00032059
0.000137185
1.71254e-05
0.0472005
0.000175204
7.8348e-05
8.2659e-07
9.15642e-10
3.1516e-07
9.36416e-06
2.44247e-05
7.12208e-05
3.94642e-07
0.179843
9.82216e-05
4.11154e-05
2.39085e-06
1.10212e-09
8.93352e-10
4.75348e-08
5.07558e-07
3.32998e-05
0.0285461
0.115222
1.40024e-05
3.61893e-05
5.69581e-07
5.65543e-06
0.0001537
0.000820102
5.43725e-06
9.6076e-10
7.40812e-07
3.99301e-05
7.3772e-05
6.45621e-05
3.83909e-05
7.24451e-06
0.02695
0.00155717
0.000128416
1.50263e-09
1.51597e-08
0.197714
1.04506e-10
2.65826e-07
2.78562e-06
5.30063e-07
9.58886e-06
3.59677e-08
5.81233e-06
9.84934e-06
3.70936e-08
2.65793e-06
5.08227e-07
2.33988e-06
2.05424e-05
9.85684e-06
5.55692e-05
0.00038666
1.78485e-07
5.42953e-05
5.72807e-06
7.13316e-06
3.75932e-05
5.15038e-06
1.20348e-05
2.11384e-06
1.39213e-06
8.46527e-07
8.88768e-06
2.97285e-06
0.00165494
8.04804e-05
9.35221e-07
1.82817e-06
4.09446e-06
1.24484e-05
1.17851e-05
1.81701e-05
2.45424e-06
5.61555e-06
9.86472e-06
8.64105e-06
7.55961e-09
7.01599e-05
0.000311514
4.16159e-07
7.25351e-09
1.19524e-05
1.76666e-05
8.66084e-07
8.32712e-08
1.61781e-05
1.63717e-05
0.000277792
6.82578e-09
4.32512e-10
3.11071e-05
0.00415985
2.35259e-05
9.33186e-05
1.3928e-05
2.35177e-06
0.145712
3.85905e-05
2.03628e-05
0.160497
4.65127e-08
6.14965e-05
2.20466e-05
2.69798e-05
3.28955e-05
4.82718e-06
3.88261e-06
0.00193225
9.33897e-07
7.80554e-06
1.16383e-08
5.18624e-06
0.136181
1.81618e-05
1.08989e-05
2.17471e-05
7.79749e-10
0.000192284
4.58148e-07
2.79832e-07
6.55149e-05
0.0995519
1.85417e-08
4.60625e-06
5.43104e-05
2.50234e-06
3.37911e-09
1.19343e-05
6.25145e-11
6.11851e-08
5.09693e-07
0.164991
4.35178e-06
3.2128e-05
1.42062e-06
0.176961
1.96873e-05
1.39437e-06
0.000250959
4.67774e-06
1.18589e-06
4.513e-07
5.35103e-09
0.111791
4.27004e-07
4.01356e-05
2.07163e-05
1.89867e-09
0.217143
0.265235
1.55635e-06
0.000319313
3.44793e-05
3.13094e-06
8.92757e-06
1.19773e-05
2.0581e-08
7.31354e-06
2.62691e-09
0.000360652
0.000276699
1.41806e-05
1.80742e-06
0.345806
1.77426e-08
0.085591
1.00484e-06
7.69481e-06
3.20733e-09
1.15244e-07
0.0246237
4.73092e-06
1.53082e-06
5.93599e-06
0.000170973
7.58909e-07
3.04078e-05
3.04812e-08
3.52947e-08
5.40303e-06
0.00435785
0.249498
3.28509e-06
0.000782666
1.70027e-09
8.70548e-09
1.37996e-08
8.45953e-05
5.60624e-07
5.83795e-07
2.16185e-06
9.0767e-07
7.13449e-05
0.0608045
5.48782e-06
1.22044e-07
1.88713e-06
2.25856e-06
0.0480579
4.98615e-05
7.34297e-07
7.41549e-07
8.00514e-07
1.34967e-05
7.06333e-08
0.150743
0.000170066
8.34471e-07
3.15534e-06
0.000302396
4.69318e-07
0.0389171
5.34802e-07
1.07391e-05
6.11375e-06
3.94595e-07
2.01791e-05
9.06652e-06
1.96583e-07
5.44792e-07
7.12857e-07
1.76503e-06
0.36122
2.95535e-05
1.71913e-07
0.0527047
1.64659e-05
1.7275e-08
4.0823e-07
3.74274e-07
0.0469321
0.000621591
0.0458971
0.0494078
2.78692e-07
2.46461e-08
2.78205e-06
4.01991e-06
4.24119e-10
7.70938e-06
3.00735e-06
1.58325e-05
2.62228e-05
0.000140743
5.513e-06
0.00070682
4.75086e-07
8.10746e-06
4.30547e-05
1.16572e-06
0.000670897
3.88029e-07
1.46939e-05
2.74653e-06
0.0302064
1.16646e-07
2.08852e-07
0.154348
4.73355e-06
0.30564
6.75808e-08
4.68173e-06
3.54229e-06
7.41779e-09
5.1835e-06
4.57344e-05
3.80793e-09
0.0320398
3.20025e-06
2.84099e-06
4.56421e-07
2.58689e-08
0.000755656
3.7899e-09
1.03287e-05
3.60838e-06
4.32762e-10
1.12618e-06
3.85806e-05
0.246111
0.000134779
1.92257e-09
7.95875e-05
0.000102273
9.73044e-05
3.89782e-05
0.000629349
2.35439e-06
0.00112254
5.1768e-05
0.204261
0.000203845
4.58627e-08
7.19011e-06
1.05034e-06
2.03332e-07
0.00141735
0.000219685
8.3527e-05
1.48857e-06
1.39976e-06
9.5714e-06
3.69257e-08
0.350534
8.39678e-07
3.35692e-05
0.00438776
9.13236e-05
0.00127035
3.56929e-08
0.252907
0.331434
2.60081e-08
3.49797e-05
0.000261941
0.000103443
4.04708e-09
3.00417e-05
3.61876e-09
0.284264
7.21893e-05
2.10655e-05
0.000107195
2.11408e-05
1.93166e-07
1.79214e-06
4.99498e-07
6.91685e-05
1.54974e-07
5.97559e-07
0.0523998
9.58728e-05
4.0234e-08
1.49301e-09
0.000383661
8.48654e-08
1.59302e-06
3.62457e-06
2.72407e-08
6.1481e-05
6.70553e-08
0.0741519
6.90833e-08
1.65893e-06
3.69942e-08
0.000237917
4.267e-07
0.223538
1.95422e-05
0.236197
1.4404e-08
6.62344e-05
2.57333e-06
2.74201e-09
0.368727
0.1428
2.60749e-05
3.06247e-06
3.05866e-05
6.5115e-07
1.19217e-05
7.86207e-07
4.57818e-05
0.289023
2.51731e-08
2.38888e-06
0.000108505
1.77884e-05
0.0587755
5.62361e-06
0.000114806
2.45969e-06
1.38584e-06
0.000777756
0.0815701
1.76881e-05
2.20952e-08
1.30348e-06
3.43355e-06
3.53857e-06
1.1384e-06
1.96417e-05
1.76513e-09
0.00169679
1.70932e-07
3.51053e-07
1.78967e-07
9.41302e-05
4.8173e-09
9.94225e-06
2.7517e-08
9.14112e-06
1.75089e-09
0.115987
0.114356
1.97632e-05
1.17061e-06
0.0649405
0.0811585
4.79389e-08
2.48261e-07
1.5093e-05
4.67099e-08
0.000172812
1.78947e-05
1.09527e-05
0.0426488
1.66737e-06
2.4111e-09
4.68142e-05
4.18613e-05
6.22271e-05
1.64158e-06
1.57473e-05
1.0443e-05
1.20679e-06
9.72185e-07
2.10518e-05
3.32261e-05
2.57224e-09
0.126287
6.73653e-05
4.32557e-05
1.34028e-06
0.00118694
3.18956e-05
0.000463092
0.00301527
0.000386048
4.19658e-06
8.60737e-05
1.24449e-05
2.07755e-05
0.114715
0.000212422
7.41439e-05
0.00358563
0.0768521
3.17497e-08
6.57923e-05
4.56818e-06
4.06675e-05
3.59029e-07
0.000519545
0.00274639
0.000428803
0.000166672
2.62749e-05
2.34298e-06
5.60926e-08
0.00019796
3.44517e-06
2.89753e-08
5.95221e-10
5.37546e-08
3.26175e-08
9.91572e-06
1.90838e-09
0.0347505
1.27147e-05
2.5244e-05
0.0987878
0.318565
6.03163e-05
3.01546e-06
0.0371497
5.48637e-08
1.86738e-05
1.76458e-07
2.0046e-08
4.7706e-05
2.36001e-05
0.120997
2.63217e-05
1.66486e-07
2.69332e-06
2.80858e-05
0.143449
7.06117e-06
2.74789e-05
6.96197e-05
0.196588
0.0413623
2.81278e-06
1.75787e-05
5.95844e-06
2.39998e-06
6.03247e-06
1.08359e-06
3.17964e-05
4.16388e-06
2.15268e-06
1.13952e-06
4.36934e-06
0.000659907
3.24114e-05
4.21535e-06
5.02011e-06
0.000658982
4.07454e-07
5.15264e-07
1.79629e-05
3.06829e-06
1.64806e-05
3.07119e-06
3.27742e-06
3.39173e-06
3.23899e-05
0.000197026
1.25735e-05
1.8317e-05
3.09914e-06
5.14043e-07
4.44782e-05
4.45414e-06
3.94008e-09
0.0774179
1.63761e-08
0.136556
5.90211e-05
0.0117235
8.08441e-08
0.0293615
1.43348e-06
1.12939e-05
1.38017e-09
7.17936e-06
3.00948e-07
1.64582e-08
8.16766e-07
0.282077
0.000130005
2.95839e-05
0.0411834
1.00619e-07
2.76017e-09
3.72499e-06
1.89127e-06
8.35647e-05
5.31232e-07
0.000128279
6.44715e-08
7.3478e-06
0.000124813
0.167816
7.31155e-10
4.66991e-09
3.28549e-06
8.38156e-07
0.000132521
4.29961e-07
0.0628346
1.19401e-06
2.58203e-08
1.22922e-07
0.0453895
6.48987e-06
0.000139153
5.91978e-10
0.0050353
0.00104685
0.181768
1.61411e-08
1.9036e-08
3.62934e-06
2.28035e-05
3.95752e-05
0.000584905
0.000330336
0.000257935
4.96345e-06
0.0632985
2.66242e-05
8.10132e-07
6.82097e-08
1.2007e-06
1.38995e-08
9.41056e-09
7.64927e-08
9.25754e-10
3.33397e-06
7.10917e-08
1.92258e-08
3.30919e-07
1.94473e-07
1.66162e-06
1.06616e-07
5.8185e-07
2.73104e-07
1.49389e-05
1.66608e-05
2.69719e-08
7.25639e-09
2.21582e-05
8.03259e-10
9.10148e-05
2.14618e-06
5.30442e-06
1.27942e-07
1.43556e-10
9.41642e-10
1.55989e-09
1.556e-05
1.83375e-08
6.57623e-08
2.09855e-05
4.81965e-09
1.397e-05
8.27009e-05
2.35367e-06
1.70889e-06
0.000526012
4.59441e-06
0.251603
0.000111048
8.27497e-06
0.209361
8.23287e-05
6.10573e-06
2.85084e-05
9.6216e-07
2.03287e-05
0.0888172
0.000704465
6.18524e-07
3.67385e-08
1.27576e-05
7.94981e-05
9.91051e-05
9.17755e-05
1.83142e-09
1.59482e-10
1.29917e-06
3.86222e-05
9.34729e-06
3.90566e-06
0.000204245
3.39557e-06
2.98201e-05
1.43218e-07
1.5505e-08
0.0334101
8.22718e-06
3.63671e-07
2.75469e-08
4.97316e-05
0.00013125
1.77586e-06
3.44997e-07
0.0407062
1.56504e-09
2.7316e-05
0.063685
1.00803e-08
0.0727212
4.2996e-05
0.0370286
0.000608416
1.0606e-07
2.44031e-05
2.20949e-05
0.0458685
5.70624e-05
0.00131106
0.161428
0.000141572
1.13973e-05
9.93833e-07
1.20247e-06
0.485723
0.161778
4.29484e-08
0.241336
1.38828e-05
0.000162284
2.51431e-05
2.20359e-05
0.00120773
3.93894e-05
1.39369e-05
6.84366e-06
1.35206e-07
1.78594e-06
0.0455857
8.12805e-08
5.54422e-05
2.80543e-05
9.72421e-08
3.95171e-06
0.217013
4.40906e-06
2.94646e-07
0.000640096
1.54427e-08
3.99626e-06
0.212046
2.28029e-08
0.177651
0.341952
0.0013463
1.76989e-05
1.07946e-06
3.76313e-06
6.22357e-05
0.000224891
0.00119525
0.000315745
4.27829e-06
0.0453051
0.000111035
9.07143e-10
0.000304336
0.000296659
0.00061023
0.000467052
0.000863267
0.00017159
1.13877e-09
6.86469e-05
1.01003e-06
4.12215e-07
0.00169194
0.349012
1.74292e-07
3.25729e-08
0.00323998
0.0032993
2.99239e-09
0.00060621
8.61084e-08
1.5705e-08
1.25656e-08
4.49588e-07
5.04884e-06
1.65504e-07
7.77816e-05
0.0518016
1.51025e-09
5.0797e-07
0.00450487
0.115865
7.44222e-05
7.82881e-07
0.0325458
9.2257e-09
0.000133472
4.01714e-09
2.26406e-09
0.000572237
0.129785
2.52589e-06
5.69257e-09
6.76509e-08
0.0356769
1.80164e-08
0.0231219
4.73277e-08
0.000103558
7.41144e-09
0.00196194
3.15533e-06
2.70452e-09
7.56542e-07
5.60211e-07
0.00140705
6.26561e-07
2.36282e-08
2.08043e-06
0.00444294
0.054059
7.21805e-05
0.000608119
0.00107115
4.31971e-08
0.00132241
1.02632e-05
3.63798e-07
3.06263e-06
0.000216701
2.25523e-05
1.1807e-07
9.52667e-06
0.000150261
1.00319e-07
1.35369e-06
7.49871e-07
1.645e-05
0.0731842
1.14293e-09
8.81948e-07
0.060854
0.000121734
7.73009e-05
5.84627e-09
8.77603e-07
1.69028e-08
1.1336e-06
2.71463e-05
5.32369e-05
5.52544e-07
3.01624e-05
2.75749e-05
8.2815e-05
1.69473e-05
7.30108e-09
3.81549e-06
1.64974e-09
5.01852e-07
6.65265e-05
0.00018506
3.13358e-08
5.08414e-07
4.47183e-06
2.09834e-10
4.77629e-05
4.47528e-07
7.26861e-05
0.00084044
7.51292e-05
1.44555e-08
0.00139558
0.000119007
6.3103e-05
0.000159051
4.74095e-08
0.00016345
2.55659e-06
0.117122
3.48222e-05
9.71666e-05
6.29575e-08
6.52708e-10
2.31166e-08
0.186433
0.0747414
4.46515e-05
6.85501e-10
0.000140804
2.97622e-08
0.173182
0.000158654
7.61059e-07
9.11293e-08
3.40024e-06
6.15594e-07
8.98012e-05
2.11896e-06
0.00012292
0.312518
4.15317e-06
7.22428e-05
3.39168e-05
7.09367e-05
5.15033e-05
3.18608e-08
2.86532e-10
2.81876e-06
3.63804e-05
8.24726e-09
2.01351e-07
0.000610952
4.59794e-07
1.42729e-06
0.422909
1.76671e-06
6.8223e-05
3.94852e-10
3.31947e-06
2.63766e-07
0.331128
2.73415e-09
0.119119
0.00553953
0.000137064
1.75654e-05
1.54319e-05
0.000945907
2.57246e-06
3.36321e-06
2.31194e-06
1.02902e-06
6.15994e-08
1.86271e-06
8.56908e-05
2.38713e-06
0.0706344
2.7499e-07
4.41971e-06
0.000307504
2.05419e-09
0.000384129
8.55742e-08
3.96141e-05
0.0008272
6.85862e-08
2.19725e-06
6.96549e-05
5.51713e-07
9.37441e-06
0.182131
8.11176e-07
9.81721e-06
1.70223e-10
0.0465975
8.95358e-06
1.92577e-07
1.93552e-07
4.93155e-06
7.27019e-06
9.10007e-09
0.152065
1.49874e-06
1.99835e-09
0.000125226
4.08517e-07
2.61879e-09
4.5845e-05
0.00101764
0.000886691
8.59332e-09
1.1198e-06
4.62688e-08
4.89524e-05
5.04825e-05
0.0343463
6.27668e-06
0.000905527
6.76577e-05
0.00116475
3.09189e-05
3.5181e-06
1.08592e-06
4.73137e-07
5.20288e-05
2.09158e-06
7.36249e-06
0.0440738
0.000251646
0.0479534
9.97365e-10
7.95722e-06
1.20743e-07
6.11854e-05
0.000102231
1.18847e-05
4.91723e-05
0.000541693
0.000151083
8.7197e-10
0.0071985
0.00839009
8.7269e-05
4.71442e-05
8.23634e-07
0.000999739
1.68695e-06
2.88749e-06
1.36751e-07
5.91766e-09
0.000252666
9.85578e-06
0.000993986
6.52459e-07
0.0474467
0.000671966
7.18814e-07
1.3767e-07
0.000581056
2.91155e-06
0.0557513
0.281256
0.000132184
0.000236789
1.61992e-06
5.21389e-07
2.2579e-08
1.29568e-08
6.29088e-05
5.01132e-06
0.0349355
0.0551732
3.15038e-05
3.18147e-08
0.000322848
0.0417197
2.76173e-05
0.00115679
0.0026016
0.0441267
0.121996
0.0513294
0.000123162
1.23545e-09
0.00203881
6.6671e-07
1.62848e-07
1.93546e-07
7.45338e-09
2.87024e-05
3.99393e-09
2.15091e-09
9.18773e-05
4.9389e-08
6.68024e-09
9.53171e-07
5.60836e-07
0.0599725
6.33711e-06
3.08442e-05
0.0774266
0.262839
5.66382e-09
0.188253
0.000157165
0.391208
3.79892e-07
1.10894e-07
6.88893e-08
4.48734e-05
0.262674
1.73848e-09
0.00118315
7.45035e-08
3.93545e-06
1.63567e-05
7.6842e-06
1.11325e-06
2.40421e-07
0.078816
1.02601e-08
7.08832e-06
1.15633e-07
9.0823e-07
1.73614e-06
0.000460381
0.000120818
1.16068e-06
0.00038989
2.17901e-05
4.2252e-07
0.000142364
7.47663e-07
2.51726e-05
1.43462e-07
1.31931e-07
0.254992
0.0445031
0.000401319
3.32666e-07
6.64769e-09
4.4365e-06
0.194889
2.58669e-07
1.16561e-05
6.19521e-07
3.01939e-06
2.39909e-09
0.0362894
0.000111041
7.52835e-07
5.82022e-07
1.76851e-05
7.83358e-09
0.180595
1.11235e-09
0.0405902
7.95445e-05
5.18287e-06
1.43643e-08
3.35896e-06
1.32672e-06
1.01854e-06
3.60555e-06
5.09056e-06
2.92172e-10
4.73744e-09
9.64727e-05
0.0817479
2.38536e-09
3.43317e-05
5.1461e-06
9.71288e-05
3.90537e-07
0.0490828
2.33035e-06
5.22856e-05
5.55767e-05
6.12604e-08
5.87969e-05
1.98532e-06
1.72941e-05
2.8872e-08
2.62234e-08
1.07005e-05
6.01418e-09
0.000183224
3.99728e-05
3.16016e-08
8.074e-08
0.000135285
0.000549118
0.306083
1.18259e-07
4.99428e-06
1.8479e-06
0.000370443
0.000170853
2.72316e-05
8.36919e-05
0.0803927
3.50524e-06
5.51779e-05
0.000833859
0.0678925
7.14863e-07
5.01652e-08
0.00042758
2.93462e-06
0.0422541
1.91216e-07
6.97716e-06
3.51543e-06
1.6907e-08
0.231516
9.94135e-09
1.70484e-07
6.27302e-07
2.73594e-05
0.310057
0.0583394
4.63659e-07
2.46613e-08
1.66487e-09
1.11083e-07
1.09049e-07
6.57553e-07
1.2047e-07
6.65044e-09
6.42686e-08
1.15664e-08
1.8463e-07
0.0639781
0.0379402
2.90022e-09
1.38167e-05
7.92773e-09
7.83517e-08
1.2749e-08
0.037189
0.0824313
5.66473e-06
4.15071e-08
1.21611e-08
8.33173e-07
1.28259e-06
4.0705e-06
1.36246e-07
0.000334318
2.67752e-07
3.12731e-06
3.5174e-06
0.00019018
5.35572e-06
0.000805051
1.77852e-06
2.9867e-08
0.00049326
0.000451642
1.78536e-08
2.3151e-05
3.97696e-06
1.36998e-05
4.36719e-05
1.04338e-05
3.66614e-06
1.1246e-07
0.331618
5.04261e-07
4.00086e-05
0.0640079
0.000119715
1.22148e-05
1.49604e-05
1.65663e-06
2.33542e-06
2.26486e-05
6.71564e-05
5.70907e-05
3.37417e-06
4.54471e-05
7.48949e-06
3.93834e-06
2.15768e-06
5.45104e-09
6.26875e-08
4.67377e-08
6.97887e-10
1.78092e-07
3.29738e-08
7.33174e-06
1.96244e-08
2.79651e-09
1.83427e-07
1.73345e-05
4.5858e-09
9.96438e-09
8.22232e-07
1.11928e-06
9.55162e-07
8.73638e-05
6.50207e-06
0.2474
1.22507e-07
1.15728e-05
1.55869e-05
4.16918e-06
4.05474e-09
1.80666e-08
0.224699
5.61939e-07
5.64409e-09
2.34713e-06
0.225816
1.73632e-06
5.89526e-05
5.87604e-05
1.09997e-06
7.65937e-06
9.32296e-06
0.000386649
1.96463e-08
4.39571e-05
4.98357e-06
1.89975e-07
0.000322496
0.000398245
0.19673
6.80167e-06
1.37656e-06
7.43197e-06
3.81017e-05
1.60798e-05
1.99705e-07
0.00261269
1.20352e-08
0.000640231
0.000415704
0.0611001
1.00415e-05
0.25854
3.04248e-08
1.4172e-07
5.11028e-06
2.5099e-05
7.35306e-05
3.26592e-06
0.000117099
3.60028e-08
9.78376e-06
1.10996e-09
2.00511e-08
1.60525e-06
0.000490132
1.00635e-07
5.54547e-09
0.000419361
1.87532e-07
0.000548919
3.44977e-06
1.96488e-06
1.47704e-06
4.63535e-07
2.00819e-05
4.59906e-06
0.000205394
6.40986e-07
8.23932e-06
0.00331261
1.21479e-06
7.19781e-09
0.00015765
2.19904e-06
4.07818e-05
4.82909e-09
0.144065
0.000117024
7.24582e-05
1.77392e-06
7.46685e-09
0.000196337
4.68089e-06
2.34296e-07
7.82271e-10
6.60727e-05
7.25155e-05
8.0797e-05
0.196198
2.90042e-06
6.02801e-06
0.000246616
1.00207e-05
6.58302e-06
2.66841e-06
8.88487e-05
3.59902e-06
0.000120097
0.183653
1.50671e-05
4.32427e-10
1.68421e-06
5.29078e-05
1.50853e-05
2.50688e-07
0.000463371
0.000881532
0.000481102
0.000878783
1.73287e-05
5.26703e-05
7.09745e-06
2.03597e-05
1.1831e-07
1.06976e-08
0.102098
0.000507199
2.89365e-06
0.001664
5.22202e-06
2.46113e-05
0.000428555
4.39597e-06
2.26771e-06
3.2299e-06
3.98748e-07
4.21216e-05
3.01623e-05
0.000151141
2.83265e-05
5.58257e-07
6.38793e-09
2.77985e-05
9.36339e-07
1.98016e-08
0.000313003
2.98516e-06
8.04325e-06
3.79892e-05
7.44696e-06
4.06398e-08
0.00059713
0.138708
4.77177e-08
5.48281e-09
2.10699e-08
0.14457
0.246791
4.26531e-07
0.0533354
5.40965e-06
2.03339e-05
8.00152e-06
8.3487e-06
1.17412e-05
1.371e-05
3.07703e-05
0.117702
0.339905
0.392014
1.20186e-05
3.19423e-05
6.5377e-06
7.31209e-06
0.360814
1.38991e-08
0.175048
4.06666e-06
1.09379e-08
7.36673e-07
5.8682e-07
2.96367e-08
3.74462e-08
2.28724e-07
1.80599e-08
0.136901
5.14864e-08
2.89302e-05
0.000197122
2.28651e-08
4.6068e-06
7.34452e-06
6.30861e-06
6.50375e-08
0.000587011
6.44303e-06
8.5559e-07
6.87312e-05
4.26117e-06
3.03069e-05
4.60174e-06
1.19771e-06
5.26767e-07
2.01966e-05
0.00337767
4.7797e-05
8.7563e-07
1.33975e-05
8.35025e-07
2.52673e-05
9.72872e-05
1.18274e-05
2.22764e-06
5.39133e-06
1.15509e-06
5.79101e-05
1.43285e-07
8.17344e-06
0.0412156
0.000423808
0.328531
0.000771228
0.000115201
1.75254e-08
0.061549
1.16812e-09
4.96269e-05
1.59735e-05
8.22709e-07
8.73668e-05
1.63357e-06
1.01563e-06
4.4782e-05
7.85341e-07
1.94611e-07
1.95861e-05
6.53578e-07
2.24742e-05
0.0785959
3.55552e-07
3.75414e-05
1.384e-06
8.01516e-07
7.23433e-10
0.000260703
9.14059e-05
3.7022e-06
1.39586e-08
7.24969e-07
0.0443932
0.000211675
9.86377e-06
1.49363e-05
1.70337e-09
8.32853e-11
9.27571e-07
4.11464e-09
4.89927e-05
3.50684e-07
2.1721e-05
1.65115e-06
2.00686e-07
5.99374e-07
3.08227e-08
4.81115e-05
9.04661e-05
4.41673e-05
5.06776e-07
2.90541e-08
9.82159e-07
2.25637e-06
0.000536058
9.89895e-07
0.161662
2.16781e-05
2.90385e-08
4.11723e-08
0.000230847
1.28061e-05
0.00114167
5.25582e-07
9.8803e-05
0.233832
3.17156e-10
0.000332719
2.6968e-05
0.0425292
1.75345e-06
0.0474969
0.0830745
0.000119451
7.64439e-06
2.00705e-05
1.12917e-08
1.59864e-05
2.70319e-05
0.000376688
1.91811e-05
6.82129e-06
2.59939e-05
0.000429701
0.00034519
0.000509754
0.000130243
1.67763e-08
8.95542e-05
0.000888624
6.27519e-06
3.96738e-06
0.000248029
0.000213732
1.38128e-05
1.86404e-05
0.000264815
1.55875e-05
0.000379831
0.00024891
1.93169e-05
2.46959e-08
3.47525e-05
0.000418995
0.0668697
2.13293e-06
5.30269e-07
4.89503e-05
1.96492e-07
8.51681e-05
8.36322e-07
0.000395694
6.07457e-07
6.95271e-05
2.5143e-08
9.96277e-08
1.10482e-05
0.000918382
0.00120624
0.338424
4.15059e-05
2.03318e-06
1.89941e-07
0.000411003
2.37118e-05
0.0336615
0.070418
5.82412e-10
0.000790113
6.39629e-05
6.92841e-06
5.68416e-09
0.00114686
5.68968e-07
0.0427465
4.96602e-08
4.83003e-09
3.00167e-05
1.14708e-06
1.30548e-06
3.73396e-05
0.039547
2.03143e-05
2.27728e-07
8.28311e-05
0.218686
0.0430079
6.65975e-06
0.000283855
2.9902e-05
0.000571709
2.99371e-06
0.0374061
3.84728e-05
0.000186337
2.27518e-07
8.86632e-07
4.71964e-06
5.2063e-07
2.41364e-05
2.31825e-06
7.70311e-07
2.55096e-06
4.15049e-06
0.000100559
2.48085e-08
3.65566e-07
0.0801754
9.68688e-09
7.68775e-08
4.31583e-05
6.30891e-08
0.000180922
3.55602e-05
0.0655334
2.35848e-05
0.260571
1.2814e-05
2.14225e-05
0.0399164
0.000158835
2.15054e-10
2.08341e-06
0.0279825
1.59337e-05
7.89547e-05
1.69254e-05
1.62464e-07
7.01792e-06
7.45107e-06
8.55516e-07
0.127187
1.09117e-06
1.02767e-07
1.75747e-06
6.61185e-07
1.46747e-08
8.70153e-05
2.47536e-06
0.273534
8.1112e-05
3.51669e-05
4.61513e-05
5.84372e-05
1.67789e-05
2.94275e-06
1.278e-10
8.84808e-07
7.40845e-05
2.14845e-05
6.5861e-06
6.93096e-08
1.12163e-05
1.26147e-06
4.02899e-05
3.22327e-08
1.35639e-07
1.2364e-06
2.85932e-05
2.19333e-05
3.30431e-05
2.91676e-08
2.2445e-08
0.00165938
2.22191e-08
1.44305e-09
2.74377e-09
1.45567e-06
0.308032
8.9845e-07
0.00011564
6.92323e-05
2.07863e-05
1.67994e-07
1.23563e-06
0.000226034
7.35718e-06
3.64932e-07
3.74279e-05
3.92257e-09
2.60956e-09
4.04588e-09
9.86159e-05
1.11981e-07
0.328048
0.000526631
3.54875e-05
0.00183852
6.79035e-07
1.69889e-05
2.59217e-09
0.0592734
8.20717e-06
6.26168e-06
1.5517e-06
4.11311e-07
1.61816e-07
0.47997
1.67738e-05
0.000437616
6.59173e-05
1.37473e-06
0.122096
3.17054e-07
3.20273e-07
4.99683e-07
7.17597e-07
3.59553e-05
4.991e-07
2.44761e-05
1.789e-05
0.000502358
3.6076e-06
5.38499e-10
0.000190292
3.84406e-07
0.156439
3.42818e-06
2.40395e-07
1.25049e-06
1.89663e-05
0.0606368
0.0297473
1.82804e-05
4.84929e-05
0.0905454
3.53019e-06
2.53567e-05
0.0470901
1.25397e-05
5.91541e-06
0.172741
0.018641
1.05077e-05
3.33652e-05
1.53753e-08
3.83989e-05
0.00171505
1.0329e-05
1.13054e-05
0.000379373
1.19582e-09
0.0231212
1.03901e-08
2.87417e-05
0.193848
1.20523e-07
1.2176e-05
4.47467e-06
3.74893e-07
4.05085e-08
4.82563e-05
4.18017e-07
1.16757e-07
3.12436e-05
9.73367e-06
1.37552e-08
0.0232758
0.0440736
4.94885e-06
2.77047e-10
1.92101e-09
0.000143821
1.40831e-05
5.36918e-06
3.34631e-09
9.60414e-08
0.000132514
6.94957e-05
4.74593e-05
8.32765e-05
0.362527
1.19955e-09
0.140446
1.75706e-05
6.84138e-06
0.0559233
1.0851e-06
2.11956e-08
0.0228038
7.64855e-10
6.83879e-06
6.36341e-06
7.32343e-06
1.10171e-06
9.32676e-09
4.00733e-09
1.6277e-08
2.03723e-05
0.133515
0.211683
3.13172e-05
2.53517e-06
1.70102e-10
0.0557381
0.224851
0.000279211
1.0034e-06
1.4926e-07
0.000965715
0.000245459
2.37296e-07
1.31644e-08
2.15154e-06
7.9743e-06
3.68612e-08
1.10668e-05
6.97769e-05
0.0599419
0.203821
5.58189e-05
0.000845171
9.93788e-09
3.72985e-07
3.27158e-05
0.000179343
3.35949e-05
0.000446135
8.20688e-06
1.48201e-05
7.73129e-09
8.68651e-08
1.26514e-05
0.0582363
1.13756e-06
0.177264
2.02404e-08
1.21552e-05
2.3495e-06
1.65555e-05
1.14166e-08
1.2861e-09
1.10245e-07
3.52024e-08
1.2178e-06
0.000325092
1.02818e-08
0.0373013
1.78124e-05
0.158824
1.92478e-06
3.00477e-06
1.65099e-06
1.9714e-06
1.32906e-05
3.09831e-08
2.32753e-08
1.34605e-08
3.27272e-06
9.52524e-06
0.0579142
0.0560612
5.15627e-06
9.92918e-07
5.96071e-09
2.39236e-09
2.48024e-08
1.71813e-06
0.000249435
2.02117e-07
3.58948e-08
3.57433e-09
0.0219293
2.69072e-05
4.42444e-05
0.0403604
8.59868e-07
0.310064
9.82881e-06
4.3931e-07
4.28373e-10
2.59177e-07
0.053439
8.68428e-10
2.26696e-05
2.23947e-08
0.000701392
4.49538e-05
8.43564e-05
0.000144983
2.90467e-05
3.92247e-09
1.52124e-08
0.358109
3.29638e-05
3.50289e-05
0.000233842
4.22465e-07
8.58088e-05
9.59373e-05
3.00922e-06
3.29857e-06
0.000301864
7.82695e-08
0.000713361
0.0391391
1.41699e-06
2.0618e-07
8.32516e-05
9.06035e-07
0.0340646
0.181605
2.17024e-05
9.30585e-10
0.00410373
3.41098e-07
2.22765e-05
1.54875e-06
0.000126854
1.12612e-08
0.000878485
8.74496e-05
0.000132397
2.12481e-05
0.000123199
3.04102e-05
5.38377e-06
8.54576e-10
0.000157411
4.72505e-05
5.83987e-05
6.63061e-07
9.64499e-06
0.000122286
0.000452597
9.4263e-09
1.93961e-08
3.49164e-08
3.57926e-10
1.27288e-07
0.0216039
0.000405536
0.000143892
4.04481e-05
0.000205463
8.3035e-05
2.67792e-10
1.16111e-05
6.8876e-09
5.38408e-07
7.16895e-09
2.60416e-05
0.00203758
1.54407e-05
1.11339e-07
1.33183e-08
1.49288e-06
1.22694e-07
7.48208e-09
0.146078
9.24609e-06
0.000672585
0.00102544
0.000735361
8.91296e-09
0.000674678
0.00074805
0.00135095
0.000731503
2.43632e-09
3.59548e-10
3.38334e-06
8.62295e-06
6.81704e-05
0.00032284
0.0422461
8.29869e-06
3.28327e-05
4.47696e-06
0.000558158
3.40709e-08
1.25849e-09
0.000113881
0.000371882
0.026086
6.79206e-09
0.117572
0.000126613
3.36379e-07
9.2228e-05
4.95432e-06
8.96848e-05
2.27842e-06
9.83182e-05
6.6738e-09
9.44103e-06
0.00216458
3.65474e-05
5.75755e-08
0.00175431
4.46881e-05
1.06158e-05
0.00322447
8.75e-08
7.70179e-06
5.69536e-05
0.000101528
8.58083e-07
0.192484
5.62905e-08
8.6382e-07
2.73464e-08
0.117683
0.120672
2.06726e-06
1.80269e-06
0.000155647
0.0550511
3.33334e-08
1.09366e-05
2.11901e-05
1.33119e-05
1.27936e-06
0.19482
7.18372e-06
1.69425e-05
0.00363163
1.60374e-07
7.15517e-06
1.71882e-06
2.52838e-06
1.83297e-09
0.00240539
0.00397638
1.10862e-07
7.60456e-07
1.26706e-06
0.000101731
7.50905e-09
0.0397907
2.89143e-07
9.99898e-06
1.09941e-06
5.30256e-07
4.98118e-06
3.3613e-05
1.27929e-06
4.95349e-06
0.000246834
1.57092e-06
1.33734e-06
0.0429905
7.60187e-07
3.38015e-06
2.4867e-06
1.97918e-05
1.60768e-10
4.97225e-09
8.35295e-10
5.93632e-06
5.60684e-08
0.0673105
2.21526e-05
1.20522e-05
3.90911e-09
3.27558e-05
0.117124
7.95579e-05
1.38707e-05
6.16897e-05
1.25425e-05
1.99683e-07
7.89203e-08
2.43956e-05
4.33979e-06
2.73596e-06
0.000544486
9.69602e-06
4.67943e-08
2.95798e-08
2.29514e-06
7.00905e-08
6.94026e-06
4.1029e-08
1.20486e-05
1.62433e-05
1.9857e-07
8.79549e-10
0.0456927
7.37497e-09
2.56733e-09
2.49316e-05
0.0564409
2.05392e-05
2.23597e-06
1.43602e-08
1.00344e-05
5.33301e-06
2.22975e-05
6.01356e-06
8.37301e-09
1.7802e-06
1.5739e-06
5.50709e-06
4.00926e-09
5.08472e-09
4.39192e-09
5.35978e-06
1.71155e-05
9.56517e-07
1.5625e-08
7.54045e-06
5.2108e-05
1.91457e-08
2.49205e-05
4.55872e-07
5.25096e-08
4.41724e-09
3.93998e-05
2.3994e-07
2.08788e-05
1.61841e-09
2.54706e-05
1.00187e-08
1.53105e-06
0.000349555
1.3545e-07
5.54638e-09
0.0687446
2.99378e-08
0.0565294
2.53094e-07
5.09697e-08
9.51436e-06
2.56945e-05
0.0467409
5.88939e-05
0.0499123
0.0606456
8.95381e-05
1.14817e-05
0.0403636
1.08842e-05
1.66775e-08
4.33373e-05
0.14045
0.0370041
0.0421986
1.18433e-08
1.03193e-05
1.5504e-08
5.53819e-06
9.88874e-07
7.87912e-06
0.000171105
7.02563e-06
5.28293e-07
1.63435e-08
3.69567e-06
0.00029433
2.42823e-08
1.2095e-05
3.82945e-05
1.97671e-06
9.54425e-10
6.31017e-05
2.61013e-05
2.60211e-05
1.7855e-05
1.65305e-05
2.21695e-06
7.54479e-06
0.000152869
8.69094e-06
6.7626e-06
0.000125974
0.000457409
3.85306e-09
6.28479e-07
2.79332e-08
2.00494e-05
9.05248e-08
2.31269e-06
9.93603e-11
0.000396974
0.390669
0.0886203
0.000148994
5.01045e-09
1.19868e-05
0.0550013
0.102561
2.49891e-06
0.00027111
2.13267e-06
5.57748e-07
1.19056e-07
2.84106e-09
9.29996e-06
4.42215e-05
3.95844e-08
4.26257e-09
1.7757e-05
1.65528e-07
0.175814
0.0539083
1.17224e-05
5.25849e-09
1.14123e-08
0.0420731
4.95563e-09
2.54936e-05
9.5637e-09
0.000612017
2.0755e-08
5.17258e-06
5.15371e-08
6.11092e-09
0.00108022
0.154303
0.0646294
1.42632e-08
0.0689746
4.25226e-08
1.36494e-05
1.63939e-06
0.117512
2.39579e-07
0.000161602
3.77485e-09
1.96175e-06
0.000277077
1.70078e-06
0.000164121
1.0146e-08
1.16528e-05
3.25365e-05
2.08195e-05
5.43177e-06
3.66762e-07
3.32099e-07
3.38284e-06
6.09864e-07
9.97635e-09
3.54711e-09
0.0749427
0.037156
1.43292e-08
0.0840273
3.48771e-10
2.10042e-08
5.25788e-05
5.11407e-09
4.75442e-09
0.0399469
1.83568e-08
7.36222e-10
0.000645585
2.00458e-09
1.30674e-09
5.05222e-05
0.0924786
1.29945e-07
0.0371292
8.61455e-09
4.62034e-06
0.0500899
6.27747e-06
0.000872003
6.07303e-10
7.26e-08
1.04477e-06
1.78825e-07
0.20922
0.0453854
0.000109011
3.35038e-08
0.0462766
1.05481e-09
2.03876e-08
1.83097e-09
0.102842
0.00178539
8.94638e-06
1.31547e-09
1.29495e-06
0.0481424
0.000908405
3.65123e-07
0.000262019
0.108534
0.0857693
3.43292e-05
0.0849517
0.000924869
0.0426741
4.20096e-05
0.0655476
0.000344281
4.83598e-06
1.46894e-06
2.32182e-06
0.000457848
0.000927729
6.94521e-10
3.88259e-06
7.42114e-08
4.58676e-05
7.42985e-06
9.99858e-07
8.05027e-06
0.000298165
1.74511e-07
8.04441e-06
9.04539e-08
2.67664e-08
2.75997e-08
4.49661e-08
5.06363e-06
4.45571e-08
4.78642e-08
7.44085e-08
1.0553e-05
4.3169e-05
2.22015e-10
1.69556e-09
5.52022e-08
9.94223e-08
1.09187e-06
0.00128889
0.00209468
0.000130535
9.69899e-09
3.21705e-05
5.71893e-06
0.0463544
3.19812e-05
1.2963e-05
5.65779e-07
1.08906e-06
2.43856e-06
0.00022255
0.000116886
0.178949
0.0671783
8.23193e-08
0.000825759
0.000295523
1.35729e-08
2.71139e-06
4.58793e-06
3.75085e-08
1.72956e-06
3.92152e-06
0.0621587
1.5098e-09
8.36311e-05
1.35611e-08
0.0485254
5.11796e-05
0.0355059
3.33135e-05
4.70232e-09
6.61366e-09
2.32156e-08
2.50562e-05
2.42304e-05
4.22061e-06
7.27259e-06
9.71135e-07
0.000762916
0.000288715
1.04629e-09
0.000116503
4.83759e-05
5.25068e-05
9.51708e-05
0.00295544
4.05097e-06
0.0988783
5.03296e-08
5.90256e-06
0.0383598
1.42478e-08
0.000261817
0.00713183
4.01824e-08
0.000102352
1.39839e-08
1.85754e-07
2.56057e-06
3.90191e-06
5.34365e-08
8.05325e-09
6.90135e-07
2.56149e-09
6.03839e-09
0.000126339
2.44873e-08
5.66681e-10
2.91901e-05
7.71848e-09
9.76611e-08
2.70047e-07
0.000214605
2.20917e-07
0.000168732
1.05232e-07
4.70221e-08
2.25557e-05
6.59079e-05
0.000231021
0.0429836
8.05644e-05
4.28385e-05
2.2989e-06
0.318968
0.31017
1.26455e-07
2.90356e-05
1.76606e-08
0.0456397
0.0380284
0.000404508
0.0899476
0.0684989
7.15479e-06
1.21931e-09
0.000115464
1.12864e-08
1.23775e-09
3.97302e-07
1.59089e-05
7.32623e-09