/*--------------------------------*- C++ -*----------------------------------*\
  =========                 |
  \\      /  F ield         | OpenFOAM: The Open Source CFD Toolbox
   \\    /   O peration     | Website:  https://openfoam.org
    \\  /    A nd           | Version:  10
     \\/     M anipulation  |
\*---------------------------------------------------------------------------*/
FoamFile
{
    format      ascii;
    class       volScalarField;
    location    "17.5";
    object      SgRate;
}
// * * * * * * * * * * * * * * * * * * * * * * * * * * * * * * * * * * * * * //

dimensions      [1 -1 -3 -1 0 0 0];

internalField   nonuniform List<scalar> 
111485
(
9.11051e-10
0.00794088
0.0241876
5.91519e-11
0.0490712
3.17194e-08
0.046344
0.00616021
0.0190411
0.0012343
0.0467536
0.00941188
0.00480307
0.295393
0.00652464
0.030435
0.209905
2.62245
0.0103539
4.79269e-08
0.0372112
3.4297e-09
0.0267186
0.0346663
0.00869051
3.52752e-08
0.0395425
0.00178136
0.0154151
0.0481425
0.0445652
0.0194783
2.17891e-07
1.45242e-06
0.00723694
9.1305e-05
0.146891
0.209423
0.00247284
0.0241643
0.0433307
0.070918
0.0158463
0.00164471
8.09719e-05
1.58563e-06
0.0296941
0.000712497
0.0475096
4.27375e-07
1.09479e-06
1.72295e-05
4.62699e-07
0.0512112
1.50716e-06
0.0437057
0.00308258
4.37402e-08
7.03378e-05
0.00479542
0.0160716
2.64783e-07
0.00486706
0.0974863
6.52255e-06
0.00316385
0.315828
0.0944261
0.00118
0.00623298
6.71425e-05
0.00668117
1.1195e-05
0.00298957
4.63187e-08
0.00071343
1.53215e-08
0.0412201
2.79732e-08
3.12945e-05
0.280231
0.558936
4.39301e-08
5.21914e-09
0.00933192
0.0038907
0.14318
0.0253398
0.000306916
0.00743455
0.000269572
0.0404314
0.0119283
5.8092e-05
0.0522455
6.66165e-09
0.0270624
0.00182404
0.00152926
0.00171253
1.33317e-09
0.0179002
1.95507e-06
0.0180511
0.0046137
1.64548e-05
5.82697e-09
0.00757976
0.00414971
0.000726122
0.00548329
0.00472947
0.00378668
0.00329615
1.03716e-07
3.39906e-05
3.06047e-08
6.52076e-06
0.0128638
5.06321e-09
9.16193e-08
0.000189892
0.0749163
2.25626e-06
0.0015973
0.0279533
0.000106898
0.00171678
2.8081e-10
0.000346206
0.0016186
0.0327468
0.0472005
0.000175204
7.8348e-05
0.0483475
9.15642e-10
0.0425413
0.0253472
0.00273875
0.000319605
0.00200262
0.202344
0.00275754
0.00405413
0.0130556
1.10212e-09
8.93375e-10
4.75348e-08
0.0280816
0.00158444
0.0285461
0.115222
0.00474766
3.66323e-05
0.0107975
0.0162959
0.0108637
0.000820163
5.43725e-06
9.6076e-10
0.0522263
0.0227707
7.54813e-05
6.48824e-05
0.0058713
0.00342576
0.02695
0.00156134
0.000172843
1.50263e-09
1.51597e-08
0.19784
1.04507e-10
0.00550204
0.00207931
5.30063e-07
9.58886e-06
3.59677e-08
5.81233e-06
9.84934e-06
3.70936e-08
0.00150834
0.00678535
0.0298034
0.00414849
0.00763817
0.00407634
0.000465148
1.78485e-07
0.00488653
5.72807e-06
7.13316e-06
0.00656553
0.0104207
0.0284895
0.0113494
0.00504286
8.46527e-07
0.00673671
0.000511774
0.00169664
0.0143566
0.00232773
1.82817e-06
0.00380864
0.0252522
1.17851e-05
0.000180191
0.00785261
0.00202171
0.000376186
8.64105e-06
7.55962e-09
0.00837371
0.000311514
0.119426
7.25351e-09
0.00668608
0.0205396
0.119343
8.32712e-08
0.00328387
0.0137668
0.000277792
6.82578e-09
4.32512e-10
0.151179
0.00416011
2.35259e-05
9.33186e-05
0.00946554
0.00779093
0.160543
3.85905e-05
2.03628e-05
0.16051
4.65128e-08
0.00246502
0.00954439
0.0166422
0.011673
0.00964175
3.88261e-06
0.0019325
0.000631465
7.80554e-06
1.16383e-08
0.0309411
0.15674
1.81618e-05
0.00650846
0.010773
7.79751e-10
0.000192284
0.000115198
2.79832e-07
6.55149e-05
0.0995971
1.85418e-08
0.0148446
0.0107692
0.0036737
3.37915e-09
0.0118765
6.25146e-11
6.11851e-08
5.09693e-07
0.164991
0.0229212
0.00620644
0.00545399
0.213421
0.0123482
0.00157926
0.000819284
0.0324245
0.00879487
4.513e-07
5.35103e-09
0.111791
0.0226797
0.0245258
0.011882
1.89867e-09
0.224146
0.267279
0.00302006
0.000321254
3.80866e-05
0.0137998
0.00219417
0.00196515
2.0581e-08
0.000657858
2.62691e-09
0.000360858
0.000276699
0.236971
0.0679717
0.357648
1.77426e-08
0.085591
0.00898469
0.00172311
3.20733e-09
1.15244e-07
0.0246237
0.000299917
0.0570438
0.00398975
0.0136463
0.0192209
3.04078e-05
3.04812e-08
3.52947e-08
0.00378924
0.00435785
0.250344
0.184793
0.000782964
1.70027e-09
8.70549e-09
1.37996e-08
8.45953e-05
0.0599953
0.0118882
2.16185e-06
0.00525839
7.13449e-05
0.0608045
0.0671072
0.0059364
0.0114424
0.00929493
0.0480579
4.98615e-05
7.34297e-07
0.00945644
0.0187589
0.00483765
7.06333e-08
0.150743
0.000328287
0.00223353
0.00804671
0.000335714
0.0284815
0.0389171
0.0375316
0.00356746
0.00778704
0.025473
0.0132946
9.06652e-06
1.96583e-07
5.44792e-07
7.12857e-07
0.0312883
0.370982
0.032913
0.0673224
0.0527047
0.0184786
1.7275e-08
4.0823e-07
0.0166465
0.0469321
0.0798248
0.0458971
0.0494078
0.0228847
2.46461e-08
0.0135656
0.000290054
4.2412e-10
0.000996219
0.0165626
1.58325e-05
0.00893175
0.00926717
0.00815923
0.0013974
0.00270082
0.00550955
4.30547e-05
1.16572e-06
0.00265534
3.88029e-07
0.00628897
0.117364
0.0302064
1.16646e-07
0.0275779
0.154457
0.00828822
0.32617
6.75808e-08
0.047152
0.0188184
7.4178e-09
0.0008388
0.0024435
3.80794e-09
0.0320398
0.0109477
0.00521214
4.56421e-07
2.58689e-08
0.000755694
3.7899e-09
0.0123551
3.60838e-06
4.32765e-10
0.0168171
4.01738e-05
0.258422
0.0300068
1.92258e-09
7.95875e-05
0.00161762
9.73044e-05
0.000201498
0.015054
0.121843
0.837923
5.1768e-05
0.207018
0.000743471
4.58627e-08
0.0388964
0.0311652
2.03332e-07
0.00141736
0.000308042
8.3527e-05
0.0238705
0.0240795
0.0139099
3.69257e-08
0.351196
0.0169331
0.0229204
0.00438858
9.13236e-05
0.00127035
3.56929e-08
0.252919
0.362701
2.60081e-08
0.00832172
0.000362461
0.000103443
4.04708e-09
3.00417e-05
3.61877e-09
0.287965
0.0096454
0.00638311
0.00217783
0.00265416
1.93166e-07
0.0019731
4.99498e-07
0.0410544
1.54974e-07
5.97559e-07
0.0523998
0.0371749
4.0234e-08
1.49301e-09
0.000383812
8.48654e-08
1.59302e-06
0.00106699
2.72407e-08
6.1481e-05
6.70553e-08
0.0741519
6.90833e-08
1.65893e-06
3.69942e-08
0.00715246
4.267e-07
0.224072
0.00196867
0.23706
1.4404e-08
0.00095846
2.57333e-06
2.74201e-09
0.371472
0.144574
0.0270134
0.0249442
3.05866e-05
0.00203487
0.0819417
0.00848288
0.00105922
0.292237
2.51731e-08
0.0233313
0.000108505
0.00503174
0.0587755
0.0760126
0.000114806
0.0210384
0.000246073
0.000778254
0.0815701
0.00202204
2.20952e-08
0.0799352
0.0487129
3.53857e-06
1.1384e-06
1.96417e-05
1.76513e-09
0.00169679
0.0547615
3.51053e-07
1.78967e-07
0.00254472
4.8173e-09
0.0338221
2.7517e-08
0.000327313
1.7509e-09
0.116462
0.114358
0.00101624
0.0126374
0.0649405
0.0815744
4.79389e-08
2.48261e-07
0.0148787
4.671e-08
0.000202111
1.78947e-05
0.00164585
0.0426488
0.0643795
2.41111e-09
4.68142e-05
0.0174458
0.00329857
0.00173409
0.00389208
0.00686203
0.0207354
9.72185e-07
0.0252691
0.00606238
2.57224e-09
0.126287
0.0408571
0.0153859
1.34028e-06
0.00490386
0.00686815
0.00224059
0.00400656
0.000386048
0.0137291
0.00131094
0.00013684
0.0232483
0.128444
0.000803904
7.41439e-05
0.00358563
0.725528
3.17497e-08
0.000416458
4.56818e-06
4.06675e-05
0.00732364
0.00323432
0.00274662
0.000445999
0.000166672
0.0161404
0.0110621
5.60926e-08
0.00019796
0.00133274
2.89753e-08
5.95223e-10
5.37546e-08
3.26175e-08
0.0128748
1.90838e-09
0.0347505
0.00859924
0.00193536
0.0987878
0.329127
6.03163e-05
0.00850506
0.0371497
5.48637e-08
0.0522981
1.76458e-07
2.0046e-08
4.7706e-05
0.00423542
0.120997
0.0284785
0.00624278
2.69332e-06
0.089112
0.145804
0.0285997
0.028177
0.000502074
0.196663
0.0413623
0.0539021
0.046545
5.95844e-06
0.000318987
0.0405562
0.00795332
0.0014332
0.027657
0.0261061
1.13952e-06
0.0108355
0.000666455
3.24114e-05
0.03477
0.000256985
0.000658982
0.0109275
0.0405723
0.00134154
0.0214711
0.0195972
0.00721119
3.27742e-06
0.010402
0.000338179
0.000197026
0.0171263
0.0179352
0.0357597
5.14043e-07
0.00188647
4.45414e-06
3.94009e-09
0.0774179
1.63761e-08
0.13657
5.90211e-05
0.0117235
8.08442e-08
0.0293615
8.22279e-05
0.0428504
1.3802e-09
0.0309791
3.00948e-07
1.64582e-08
8.16766e-07
0.3207
0.000529042
2.95839e-05
0.0411834
1.00619e-07
2.76017e-09
0.207062
0.0695313
8.35647e-05
0.00198621
0.000130178
6.44716e-08
0.0373198
0.00861335
0.17934
7.31158e-10
4.66992e-09
0.000415789
0.00106664
0.000132521
4.29961e-07
0.0628346
0.00723065
2.58203e-08
1.22922e-07
0.0453895
0.0420284
0.00223602
5.91978e-10
3.8541
0.35399
0.191481
1.61411e-08
1.9036e-08
0.0552554
0.000448121
3.95752e-05
0.000589973
0.112334
0.00267177
0.0112664
0.0632985
0.0524494
0.00189546
6.82097e-08
1.2007e-06
1.38995e-08
9.41056e-09
7.64927e-08
9.25758e-10
0.0223073
7.10917e-08
1.92258e-08
3.30919e-07
0.0113783
0.0236662
1.06616e-07
5.8185e-07
0.105565
0.014317
0.00990033
2.6972e-08
7.25639e-09
0.0370925
8.0326e-10
0.00178506
0.00264805
0.00396106
1.27942e-07
1.43558e-10
9.41643e-10
1.55989e-09
0.0147482
1.83375e-08
6.57623e-08
0.00105997
4.81966e-09
0.02316
0.00198384
2.35367e-06
0.036883
0.349489
0.00253107
0.280686
0.000253007
0.0437129
0.209361
8.23287e-05
0.0236142
0.0681
0.00599696
2.03287e-05
0.0888172
0.770042
0.00997074
3.67385e-08
0.00247433
0.00254179
0.00125179
9.17755e-05
1.83142e-09
1.59511e-10
0.0134539
3.86222e-05
0.00270046
3.90566e-06
0.00140937
0.00142257
0.0366064
0.000575141
1.55051e-08
0.0334101
8.22718e-06
0.0205023
2.75469e-08
4.97316e-05
0.000204053
1.77586e-06
3.44997e-07
0.0407062
1.56504e-09
0.0101251
0.063685
1.00803e-08
0.0727212
4.2996e-05
0.0370286
0.000608416
1.0606e-07
2.73698e-05
0.00162636
0.0458685
0.00405245
0.00131745
0.161428
0.000200739
0.00400718
9.93833e-07
1.04958e-05
0.495814
0.162171
4.29484e-08
0.241336
0.00086602
0.000162284
0.00989717
0.000210709
0.00120934
0.0231967
0.00940555
0.00224558
0.00486504
0.00197245
0.0455857
8.12805e-08
0.0329513
0.0263705
9.72421e-08
0.00843367
0.271136
0.0283025
2.94646e-07
0.00190225
1.54427e-08
0.0101557
0.225947
2.28029e-08
0.179239
0.342398
0.00134749
0.00496099
1.07946e-06
0.0484882
7.70516e-05
0.00165426
0.00122537
0.000328004
4.27829e-06
0.0453051
0.00702437
9.07144e-10
0.000425925
0.000543357
0.000908574
0.00046711
0.000863338
0.0001718
1.13877e-09
6.86469e-05
0.0226039
4.12216e-07
0.0018191
0.350997
1.74292e-07
3.25729e-08
0.00324064
0.0032993
2.99239e-09
0.000611328
8.61084e-08
1.5705e-08
1.25656e-08
4.49588e-07
5.04884e-06
1.65504e-07
0.000352626
0.0518016
1.51025e-09
5.0797e-07
0.00451137
0.115914
0.00178445
0.00915531
0.0325458
9.22571e-09
0.000292669
4.01714e-09
2.26406e-09
0.000572237
0.14827
0.0421201
5.69258e-09
6.76509e-08
0.0356769
1.80164e-08
0.0231219
4.73277e-08
0.00684009
7.41144e-09
0.00196199
0.0263905
2.70452e-09
7.56542e-07
5.60211e-07
0.00143562
6.26561e-07
2.36282e-08
2.08043e-06
0.00445249
0.054059
0.00428782
0.000609023
0.00107115
4.31971e-08
0.00139891
0.00194162
0.0440522
3.06263e-06
0.000225218
0.00542593
1.1807e-07
9.52667e-06
0.000150261
1.00319e-07
0.00814697
0.00161411
0.00321494
0.0731844
1.14293e-09
0.0231394
0.060854
0.000121734
7.73009e-05
5.84627e-09
0.0263359
1.69028e-08
1.1336e-06
2.874e-05
0.0517334
5.52544e-07
0.00236583
2.75749e-05
0.000874414
1.69473e-05
7.30108e-09
3.81549e-06
1.64974e-09
0.00247746
0.000655919
0.305327
3.13358e-08
5.08414e-07
0.0021155
2.09836e-10
4.77629e-05
4.47528e-07
0.0361477
0.000850157
0.0319836
1.44555e-08
0.0014066
0.000169374
6.3103e-05
0.000289355
4.74095e-08
0.00136113
0.024737
0.137257
0.0011913
0.000322387
6.29576e-08
6.52708e-10
2.31166e-08
0.186455
0.0747414
0.00760166
6.85533e-10
0.174454
2.97622e-08
0.214354
0.00313932
7.61059e-07
9.11293e-08
3.40024e-06
6.15594e-07
0.0416417
2.11896e-06
0.00012292
0.324203
0.00682336
7.22428e-05
3.39168e-05
7.09367e-05
5.15033e-05
3.18608e-08
2.86532e-10
0.0257804
0.000435187
8.24726e-09
2.01351e-07
0.000611494
4.59794e-07
0.00154048
0.423014
1.76671e-06
0.003583
3.94853e-10
0.000387328
2.63766e-07
0.332231
2.73415e-09
0.119119
0.00554167
0.000754096
0.0182889
0.0342799
0.000947072
2.57246e-06
0.000554502
2.31194e-06
0.00462927
6.15994e-08
1.86271e-06
8.56908e-05
2.38713e-06
0.0706344
2.7499e-07
0.00724705
0.00847066
2.05419e-09
0.000384129
8.55742e-08
0.000833704
0.000839801
6.85862e-08
0.0180304
0.000241467
5.51713e-07
0.0233602
0.190211
0.00368424
0.0111913
1.70225e-10
0.0465975
8.95358e-06
1.92577e-07
0.0369549
4.93155e-06
0.114016
9.10007e-09
0.152385
0.000729814
1.99835e-09
0.0011015
4.08517e-07
2.61879e-09
0.00312787
0.00101766
0.0103253
8.59332e-09
1.1198e-06
4.62688e-08
0.000885826
5.04825e-05
0.0343463
6.27668e-06
0.000905804
6.76577e-05
0.00117124
3.09189e-05
3.5181e-06
1.08592e-06
0.0183062
0.00976334
0.0182059
0.035881
0.0440738
0.000267682
0.0479534
9.97365e-10
0.00958685
1.20743e-07
6.33538e-05
0.00046046
0.00670226
0.000423416
0.000541694
0.00201881
8.71972e-10
0.0071985
0.00839009
0.000215562
0.000814132
0.015176
0.000999802
1.68695e-06
0.0302281
1.36751e-07
5.91767e-09
0.000265285
0.0745979
0.000994039
6.52459e-07
0.0474467
0.000672277
7.18814e-07
1.3767e-07
0.000599332
2.91155e-06
0.0557513
0.320901
0.000366534
0.000420651
0.0223031
0.00721277
2.2579e-08
1.29568e-08
8.62425e-05
0.00405695
0.0349355
0.0551732
0.00966982
3.18147e-08
0.000322848
0.0417197
2.76173e-05
0.00115679
2.5712
0.0441267
0.122211
0.0513294
0.0215735
1.23545e-09
0.00203881
6.6671e-07
1.62848e-07
1.93546e-07
7.45339e-09
0.00285083
3.99393e-09
2.15091e-09
9.18773e-05
4.93891e-08
6.68024e-09
9.53171e-07
0.00968876
0.0599725
0.0108834
0.00316201
0.0774266
0.264348
5.66382e-09
0.188767
0.000159224
0.395045
0.012983
1.10894e-07
9.29568e-05
0.0076045
0.262684
1.73849e-09
0.0011862
0.0191141
0.00468842
1.63567e-05
0.0258432
1.11325e-06
2.40421e-07
0.078816
1.02601e-08
0.00810901
1.15633e-07
9.0823e-07
0.00830268
0.00046076
0.00278128
1.16068e-06
0.00038989
0.000663433
4.2252e-07
0.000205316
7.47663e-07
0.0233175
1.43462e-07
1.31931e-07
0.255045
0.0445031
0.000539786
3.32666e-07
6.64769e-09
0.0047162
0.195331
0.00468322
0.0151756
0.217967
0.020233
2.39909e-09
0.0362894
0.00311403
0.00672497
0.0368327
0.0104847
7.83358e-09
0.19305
1.11235e-09
0.0405902
0.0092732
0.0110772
1.43643e-08
0.0132462
1.32672e-06
0.00273218
0.00900574
5.09056e-06
2.92172e-10
4.73744e-09
0.00293947
0.0817479
2.38536e-09
0.0042424
0.0214958
0.000100775
0.00735598
0.0490828
2.33035e-06
0.000140426
0.000838284
6.12604e-08
0.0102901
1.98532e-06
0.00257799
2.8872e-08
2.62234e-08
0.0122383
6.01419e-09
0.00021983
0.00369191
3.16016e-08
8.074e-08
0.00456313
0.000549118
0.358251
1.18259e-07
0.251303
1.8479e-06
0.000370443
0.000170853
0.00752765
8.36919e-05
0.0803927
0.00557007
5.51779e-05
0.00108548
0.0678925
7.14863e-07
5.01652e-08
0.000427677
0.000783716
0.0422541
1.91216e-07
0.0348993
0.000945963
1.6907e-08
0.23192
9.94135e-09
1.70484e-07
2.33607e-06
0.00291402
0.311362
0.0583394
4.63659e-07
2.46613e-08
1.66488e-09
1.11083e-07
1.09049e-07
6.57553e-07
1.2047e-07
6.65044e-09
6.42686e-08
1.15664e-08
1.8463e-07
0.0639781
0.0379402
2.90022e-09
1.38167e-05
7.92773e-09
7.83517e-08
1.2749e-08
0.037189
0.0824313
0.0171537
4.15071e-08
1.21611e-08
8.33173e-07
0.00659056
4.0705e-06
1.36246e-07
0.292753
2.67752e-07
3.12731e-06
0.022867
0.00019018
5.35572e-06
0.00861966
0.0243365
2.9867e-08
0.00333106
0.00466194
1.78536e-08
0.0133439
0.0390665
0.0176773
0.00339974
0.0106509
3.66614e-06
1.1246e-07
0.334608
0.0105456
0.0032425
0.0640079
0.00685991
0.00178432
0.0213348
0.0100131
0.000699767
0.0155459
0.00106476
0.0102593
3.37417e-06
0.0243516
0.00840933
0.00163578
0.00140658
5.45105e-09
6.26875e-08
4.67377e-08
6.97888e-10
1.78092e-07
0.00918451
0.0134798
1.96244e-08
2.79651e-09
1.83427e-07
1.73345e-05
4.5858e-09
9.96439e-09
8.22232e-07
1.11928e-06
0.00463798
0.000287114
0.0216233
0.247472
1.22507e-07
1.15728e-05
0.0301265
1.14465e-05
4.05474e-09
1.80666e-08
0.231761
5.61939e-07
5.6441e-09
4.83443e-06
0.233531
0.0135106
0.033335
0.0342249
1.09997e-06
0.0139271
0.000350114
0.000386649
1.96463e-08
0.0118361
4.98357e-06
1.89975e-07
0.0161181
1.0377
0.196899
6.80167e-06
1.37656e-06
0.0170637
0.019792
0.01774
0.00552945
0.00685758
1.20352e-08
0.000641248
0.000415707
0.0611001
1.00415e-05
0.275275
3.04248e-08
0.00197731
0.0247267
0.0174154
0.011157
3.26592e-06
0.00605177
3.60028e-08
9.78376e-06
1.10997e-09
2.00511e-08
0.00245743
0.876786
1.00635e-07
5.54548e-09
0.000423703
0.0229715
0.00173027
0.00680796
0.0322128
0.00469135
0.0201183
2.00819e-05
4.59906e-06
0.000205394
0.0291526
0.00554562
0.00331264
1.21479e-06
7.19781e-09
0.00015765
0.021736
0.00263072
4.82909e-09
0.148866
0.0569874
0.00630567
0.00606666
7.46685e-09
0.000196337
0.00675518
0.0223099
7.82271e-10
0.000410153
0.0146387
0.00103266
0.205269
0.00459511
0.00776082
0.000246616
0.00322908
0.020406
0.0351307
8.88492e-05
0.0220142
0.000120097
0.199612
0.000165888
4.32432e-10
0.00248345
0.00743898
0.000418671
0.0112754
0.00046347
0.00100575
0.000495274
0.0415257
0.00359834
5.26703e-05
0.0371781
0.00127847
1.1831e-07
1.06976e-08
0.102098
0.000519985
0.00102591
1.06356
0.0343048
0.0117543
0.000428747
0.0438264
2.26771e-06
3.2299e-06
0.00381745
4.21216e-05
0.00198425
0.00402441
0.00215275
0.004508
6.38795e-09
0.000215769
0.10427
1.98016e-08
0.0151946
0.00732116
8.04325e-06
0.00389746
0.000137254
4.06398e-08
0.000597136
0.138792
4.77177e-08
5.48282e-09
2.10699e-08
0.148731
0.251475
0.0135932
0.0533354
0.0045812
0.0316883
8.00152e-06
0.00775394
0.0119991
0.0230777
0.00149026
0.117702
0.340406
0.400817
0.010083
0.00876326
0.0356081
0.155852
0.363937
1.38991e-08
0.175055
0.0479026
1.09379e-08
0.000405747
5.8682e-07
2.96367e-08
3.74462e-08
2.28724e-07
1.80599e-08
0.140022
5.14864e-08
0.00689951
0.00129384
2.28651e-08
0.00366042
7.34452e-06
0.0133488
6.50375e-08
0.000611735
6.44303e-06
0.0207293
0.000219002
6.56189e-06
0.00409763
0.0272389
0.0158789
0.00375349
0.0260197
0.00337767
0.0221713
0.0520319
0.00935015
8.35025e-07
0.0010676
0.00033532
0.00539387
0.00982923
0.000590764
1.15509e-06
5.79101e-05
1.43285e-07
0.00335951
0.0412156
0.000746763
0.328738
0.00243559
0.000360084
1.75254e-08
0.061549
1.16812e-09
0.00837472
0.0202036
0.00114023
9.62957e-05
0.00177915
0.0065776
0.00177351
0.000801385
0.00636295
0.00590849
0.00256201
2.24742e-05
0.0785959
3.55552e-07
0.0124041
0.0103718
8.01516e-07
7.23436e-10
0.000260703
0.00813154
0.0174369
1.39586e-08
0.00212846
0.0443932
0.000212274
0.00441718
0.0854694
1.70337e-09
8.32856e-11
0.00350034
4.11464e-09
0.000105135
0.0114517
2.1721e-05
0.0103384
0.0310321
0.0180818
3.08227e-08
0.00147545
9.04661e-05
0.000131743
0.046043
2.90541e-08
9.82159e-07
0.0101668
0.000536058
9.89895e-07
0.161704
0.000926158
2.90385e-08
4.11723e-08
0.000230847
8.2464e-05
0.00232141
0.00300969
0.0243826
0.242012
3.17162e-10
0.000333393
0.00070163
0.0425292
1.75345e-06
0.0474969
0.0830745
0.000119451
7.64439e-06
2.00705e-05
1.12917e-08
1.59864e-05
2.70319e-05
0.00037669
1.91811e-05
0.000321461
2.59939e-05
0.000669396
0.00034519
0.000586491
0.000130243
1.67763e-08
0.0270989
0.0094762
6.27519e-06
0.082005
0.000248038
0.000213732
1.38128e-05
0.00115351
0.000264815
0.00261649
0.000385696
0.00105267
1.93169e-05
2.46959e-08
0.00117593
0.000419016
0.0668697
2.13293e-06
0.0365885
4.89503e-05
0.0351021
8.51681e-05
8.36322e-07
0.000397406
0.0263527
0.00750042
2.51431e-08
0.000298548
1.10482e-05
0.00416016
0.00122439
0.340092
4.611e-05
2.03318e-06
0.0191763
0.00154816
0.00491287
0.0336615
0.070418
5.82413e-10
0.0198013
0.00368954
0.0495331
5.68417e-09
0.00114731
5.68968e-07
0.0427465
4.96602e-08
4.83003e-09
0.00318927
0.00208753
0.00289268
0.297877
0.039547
0.0252375
0.0338449
0.016126
0.220319
0.0430079
0.00491247
0.00464042
0.00465542
0.000572002
0.00951995
0.0374061
0.00145209
0.00140435
0.0307979
1.91756e-06
0.00324599
5.2063e-07
0.0172837
2.31825e-06
7.70311e-07
0.00157047
4.15049e-06
0.005764
2.48085e-08
3.65566e-07
0.0801754
9.68689e-09
7.68775e-08
0.000831702
6.30891e-08
0.000691614
3.55602e-05
0.0655334
0.016586
0.265603
0.00746145
0.00694171
0.0399164
0.549213
2.15054e-10
0.0644869
0.0279825
0.016391
0.0227942
0.00225756
0.0526949
7.01792e-06
7.45107e-06
8.55516e-07
0.129223
1.09117e-06
1.02767e-07
0.0166543
6.61185e-07
1.46747e-08
0.00524629
2.47536e-06
0.285214
8.11777e-05
3.51669e-05
4.61513e-05
5.84372e-05
0.001441
0.00637247
1.27813e-10
0.0217795
0.000407331
2.14845e-05
0.0950245
6.93096e-08
0.014666
0.0169675
0.00355256
3.22327e-08
0.016984
0.00952947
0.000868914
0.00511972
0.0115991
2.91676e-08
2.2445e-08
0.00166111
2.22191e-08
1.44305e-09
2.74377e-09
0.0185643
0.354511
0.00426353
0.00218864
6.92323e-05
0.0474435
0.0431552
0.00399661
0.00238039
0.00883688
0.019626
0.00263642
3.92257e-09
2.60956e-09
4.04588e-09
0.00690575
1.11981e-07
0.351526
0.000526631
0.000761259
0.00183907
0.00249053
0.0206612
2.59217e-09
0.0592734
0.0024266
0.000369417
1.5517e-06
4.11311e-07
1.61816e-07
0.480006
0.000309304
0.000579862
0.000863462
0.00965188
0.204161
3.17054e-07
3.20273e-07
4.99683e-07
0.00364881
0.0166748
0.0190026
0.0331318
0.00168296
0.00338931
3.6076e-06
5.38499e-10
0.000190292
3.84406e-07
0.16525
0.0212412
2.40395e-07
1.25049e-06
1.89663e-05
0.0606368
0.0297473
1.82804e-05
0.0132192
0.0905454
0.000917751
0.399165
0.0470901
2.56387e-05
0.021671
0.173456
0.018641
1.05077e-05
0.00488042
1.53753e-08
0.0138017
0.00171599
0.023313
1.13054e-05
0.000379373
1.19582e-09
0.0231212
1.03901e-08
2.87417e-05
0.384366
1.20523e-07
0.00581895
0.00119143
3.74893e-07
4.05085e-08
0.00199458
4.18017e-07
1.16757e-07
0.0121898
0.000144232
1.37552e-08
0.0232758
0.0440736
0.0162299
2.77049e-10
1.92102e-09
0.000580793
0.00259829
0.00305355
3.34633e-09
9.60414e-08
0.000132514
0.00378533
0.00187373
0.0125683
0.36613
1.19955e-09
0.141199
0.0111545
0.00621367
0.0559233
1.0851e-06
2.11956e-08
0.0228038
7.64855e-10
0.0296225
0.00494245
0.00566487
1.10171e-06
9.32677e-09
4.00733e-09
1.6277e-08
2.03723e-05
0.133516
0.211892
0.00214586
2.53517e-06
1.70104e-10
0.0557381
0.224851
0.0338261
0.11088
1.4926e-07
0.000965716
0.000245459
2.37296e-07
1.31644e-08
0.00365983
0.0062258
3.68612e-08
1.10668e-05
0.00281748
0.0599419
0.204487
0.00107173
2.01149
9.93788e-09
3.72985e-07
0.0113407
0.000702867
3.35949e-05
0.641315
0.000586406
0.00605484
7.7313e-09
8.68651e-08
1.26514e-05
0.0582363
0.00815035
0.177353
2.02404e-08
0.0242392
0.018398
0.827205
1.14167e-08
1.2861e-09
1.10245e-07
3.52024e-08
0.00652105
0.000325168
1.02818e-08
0.0373013
0.0179523
0.159611
0.00461773
3.00477e-06
1.65099e-06
0.0276208
1.32906e-05
3.09831e-08
2.32753e-08
1.34605e-08
0.0205582
9.52524e-06
0.0579142
0.0560612
0.0247932
0.0115301
5.96071e-09
2.39236e-09
2.48024e-08
0.0146844
0.000249628
2.02117e-07
3.58948e-08
3.57434e-09
0.0219293
0.00233795
0.010789
0.0403604
0.0019263
0.311135
0.00469332
4.3931e-07
4.28387e-10
2.59177e-07
0.053439
8.68428e-10
0.0183938
2.23947e-08
0.0144907
4.49538e-05
0.00158242
0.000144983
0.00238897
3.92248e-09
1.52124e-08
0.367928
0.155108
3.50289e-05
0.00374325
4.22465e-07
0.000458949
9.59373e-05
3.00922e-06
3.29857e-06
0.00030192
7.82695e-08
0.00100843
0.0391391
0.0338106
2.0618e-07
8.32516e-05
9.06035e-07
0.0340646
0.181613
0.000151927
9.30586e-10
0.00952856
3.41098e-07
0.00267332
0.0174869
0.0013832
1.12612e-08
0.000883141
0.000525061
0.000134543
0.00411954
0.00012351
0.00167312
5.38377e-06
8.54579e-10
0.000157833
0.00552876
0.000295305
6.63061e-07
9.64499e-06
0.000122286
0.556239
9.42631e-09
1.93961e-08
3.49164e-08
3.57929e-10
1.27288e-07
0.0216308
0.000583974
0.00111382
0.000106487
0.000205463
0.00147232
2.67793e-10
0.00523798
6.88761e-09
5.38408e-07
7.16895e-09
2.60416e-05
0.00205183
1.54407e-05
1.11339e-07
1.33183e-08
0.0137654
1.22694e-07
7.48209e-09
0.156027
9.24609e-06
0.074824
0.121568
0.540424
8.91297e-09
0.192474
1.08431
1.07762
0.611557
2.43633e-09
3.59548e-10
0.00459123
0.00432831
6.81704e-05
0.00995548
0.0422461
0.0302095
3.28327e-05
4.47696e-06
0.00124761
3.40709e-08
1.25849e-09
0.000124043
0.000410225
0.026086
6.79206e-09
0.117574
0.000126613
3.36379e-07
0.000110222
0.00777895
0.00154272
2.27842e-06
0.00755033
6.6738e-09
0.0032756
0.00216499
0.00700524
5.75755e-08
0.00175432
0.00543705
1.06158e-05
0.00322447
8.75001e-08
0.030087
5.69536e-05
0.00903447
8.58083e-07
0.192485
5.62905e-08
8.6382e-07
2.73464e-08
0.117683
0.120672
2.06726e-06
0.0112239
0.008763
0.0550511
3.33334e-08
0.0302354
0.0159771
0.171155
1.27936e-06
0.194886
0.0233178
0.0428295
0.00363168
1.60374e-07
0.0530315
1.71882e-06
0.212288
1.83297e-09
0.00240543
0.00397642
1.10862e-07
5.51482e-05
1.26706e-06
0.0192517
7.50905e-09
0.0397907
2.89143e-07
9.99898e-06
1.09941e-06
5.30256e-07
0.000258359
0.001869
0.125141
4.95349e-06
0.000246834
0.0381207
1.33734e-06
0.0429905
7.60187e-07
3.38015e-06
2.4867e-06
0.00548536
1.60773e-10
4.97225e-09
8.35295e-10
0.00304049
5.60684e-08
0.0673105
2.21526e-05
0.00304513
3.90911e-09
0.00566632
0.333938
0.00510222
0.00518357
0.0246734
1.25425e-05
1.99683e-07
7.89203e-08
0.00294947
0.00161497
2.73596e-06
0.000544486
0.000567442
4.67943e-08
2.95798e-08
0.310458
7.00905e-08
0.0200379
4.1029e-08
0.00218403
0.00300449
1.9857e-07
8.79553e-10
0.0456927
7.37497e-09
2.56733e-09
0.016749
0.0564409
0.00434179
2.23597e-06
1.43602e-08
0.00639039
5.33301e-06
0.0115959
6.01356e-06
8.37301e-09
0.00215926
6.73419e-05
0.129513
4.00929e-09
5.08473e-09
4.39192e-09
0.00311451
0.164108
9.56517e-07
1.5625e-08
7.54045e-06
0.00143229
1.91457e-08
0.0177683
0.0285353
5.25096e-08
4.41725e-09
0.00666026
2.3994e-07
2.08788e-05
1.61841e-09
2.54706e-05
1.00187e-08
0.0630563
0.000349555
1.3545e-07
5.54638e-09
0.0687446
2.99379e-08
0.0565294
2.53094e-07
5.09697e-08
9.51436e-06
0.00690105
0.0467409
0.00792675
0.0499123
0.0606456
0.53265
0.00251899
0.0403636
1.08842e-05
1.66775e-08
0.0022614
0.14045
0.0370041
0.0421986
1.18433e-08
0.0067901
1.5504e-08
0.00433026
9.88874e-07
0.00877964
0.000171105
0.0521089
5.28293e-07
1.63435e-08
0.019837
0.00029433
2.42823e-08
0.0244861
0.000290361
1.97671e-06
9.54432e-10
0.0329877
0.0091458
0.00594451
0.000786386
0.00167958
0.0159493
0.000942888
0.00452462
8.69094e-06
0.0264625
0.000125974
0.000457409
3.85307e-09
6.28479e-07
2.79332e-08
0.00956421
9.05248e-08
2.31269e-06
9.9363e-11
0.000400948
0.390676
0.0886203
0.00224943
5.01046e-09
0.00392545
0.0550013
0.102562
0.00287794
0.00027111
0.041311
5.57748e-07
1.19056e-07
2.84106e-09
0.00271732
0.00119777
3.95844e-08
4.26258e-09
0.0022885
1.65528e-07
0.784998
0.0539083
0.0929514
5.25849e-09
1.14123e-08
0.0420731
4.95563e-09
0.00911754
9.5637e-09
0.000646293
2.0755e-08
0.0089418
5.15371e-08
6.11092e-09
0.00108022
0.154303
0.0646294
1.42632e-08
0.0689746
4.25227e-08
0.0038584
0.172595
0.117512
2.39579e-07
0.000492914
3.77486e-09
1.96175e-06
0.000278102
0.0156591
0.000301518
1.0146e-08
0.000632461
0.00303964
0.00488137
0.00756624
3.66762e-07
3.32099e-07
3.38284e-06
6.09864e-07
9.97635e-09
3.54712e-09
0.0749427
0.037156
1.43292e-08
0.0840273
3.48774e-10
2.10042e-08
0.0686582
5.11407e-09
4.75443e-09
0.0399469
1.83568e-08
7.36223e-10
1.01257
2.00459e-09
1.30675e-09
0.00191407
0.0924786
1.29945e-07
0.0371292
8.61455e-09
0.0209764
0.0500899
6.27747e-06
0.00087205
6.07304e-10
7.26e-08
1.04477e-06
1.78825e-07
0.318901
0.0453854
0.000260088
3.35038e-08
0.0462766
1.05481e-09
2.03876e-08
1.83097e-09
0.102842
0.00178542
0.000111425
1.31547e-09
1.29495e-06
0.0481424
0.000908491
3.65123e-07
0.000262296
0.108534
0.0857693
3.43292e-05
0.0849517
0.000924874
0.0426741
4.20096e-05
0.0655476
0.000344281
0.0289838
1.46894e-06
0.00662563
0.000457848
0.000929864
6.94521e-10
0.00132351
7.42114e-08
0.00382603
0.0241994
9.99858e-07
0.00235478
0.000311677
1.74511e-07
0.0101511
9.04539e-08
2.67664e-08
2.75997e-08
4.49661e-08
5.06363e-06
4.45571e-08
4.78642e-08
7.44085e-08
0.266037
4.3169e-05
2.22027e-10
1.69556e-09
5.52022e-08
9.94224e-08
0.0299559
0.769308
0.00209766
0.000140637
9.699e-09
0.00200586
0.00138098
0.0463544
3.19812e-05
1.2963e-05
5.65779e-07
1.08906e-06
2.43856e-06
0.00022255
0.000116886
0.179315
0.0671783
8.23193e-08
0.00105347
0.000299104
1.35729e-08
0.0243729
4.58793e-06
3.75085e-08
1.72956e-06
0.162554
0.0621587
1.5098e-09
0.0247957
1.35611e-08
0.0485254
5.11796e-05
0.0355059
0.0527296
4.70232e-09
6.61367e-09
2.32156e-08
2.50562e-05
0.00567678
0.225767
0.0275725
0.041908
0.00443315
0.000535664
1.04629e-09
0.000116503
0.137045
0.00129732
9.51708e-05
0.00295553
4.05097e-06
0.0988783
5.03296e-08
0.20584
0.0383598
1.42478e-08
0.00048636
0.00713183
4.01824e-08
0.00979164
1.39839e-08
1.85754e-07
0.198255
0.0295578
5.34365e-08
8.05325e-09
6.90135e-07
2.56149e-09
6.03841e-09
0.000126339
2.44873e-08
5.66683e-10
0.00311115
7.71849e-09
9.76611e-08
2.70047e-07
0.000228301
2.20917e-07
0.000168732
1.05232e-07
4.70221e-08
2.25557e-05
6.59079e-05
0.00354002
0.0429836
8.05644e-05
0.0049997
2.2989e-06
0.319331
0.314677
1.26455e-07
0.00341129
1.76606e-08
0.0456397
0.0380284
0.000404508
0.0899476
0.0684989
7.15479e-06
1.21932e-09
0.00243844
1.12864e-08
1.23777e-09
3.97302e-07
1.59089e-05
7.32623e-09
1.72829e-05
0.0355944
5.09e-09
2.42331e-08
0.33745
1.54643e-09
0.0171875
8.24895e-06
0.00131366
9.88895e-09
0.000442426
0.00014555
0.239073
0.00797191
0.0238511
0.000182475
0.0402507
0.000268988
0.0750203
0.000151012
0.000227236
0.00982591
0.0578551
0.000324117
0.00127612
4.29498e-06
1.78428e-07
0.00109774
0.000228855
0.0160756
0.0120823
0.000148118
1.89445e-06
0.00549038
0.00518665
0.0184696
2.14333e-09
0.0122704
0.0166482
0.00272691
0.00148698
0.00127216
0.00327807
0.0190036
0.0406111
0.00716996
0.0110235
0.00801034
9.0405e-05
0.00288941
0.00362958
0.00106738
0.00264902
0.0142133
0.0137737
0.0194819
0.000121753
0.0112185
0.000421309
0.00504506
0.00283328
0.000362338
0.00236691
0.000203218
0.0754024
0.00397408
0.00121846
0.00014245
0.000728722
0.0159572
0.00243576
0.212461
0.00351358
6.95806e-10
0.231186
0.0452809
0.0219976
0.00708748
0.0202092
0.000403757
0.00868383
0.462173
0.00212068
0.00139122
0.0024866
0.174623
0.00119515
0.074523
7.47425e-05
7.79155e-08
1.31169e-08
0.00221007
0.00612935
0.0118332
0.0709395
0.00688434
0.0609394
0.055015
0.0690274
2.88687e-08
0.00721115
0.00266302
0.025627
1.05812e-06
0.0063337
9.17005e-08
0.22483
0.0115549
0.00745128
0.220809
5.10419e-09
8.98201e-08
0.00219128
0.000109683
0.000760197
1.55862e-07
0.00656072
0.000963131
0.0787231
9.33932e-07
0.0221569
0.00308866
0.000350296
0.00012632
0.00239898
0.00133863
2.39908e-07
0.00184623
5.28606e-05
9.78582e-09
0.268604
0.0037759