/*--------------------------------*- C++ -*----------------------------------*\
  =========                 |
  \\      /  F ield         | OpenFOAM: The Open Source CFD Toolbox
   \\    /   O peration     | Website:  https://openfoam.org
    \\  /    A nd           | Version:  10
     \\/     M anipulation  |
\*---------------------------------------------------------------------------*/
FoamFile
{
    format      ascii;
    class       volScalarField;
    location    "17.5";
    object      SgT;
}
// * * * * * * * * * * * * * * * * * * * * * * * * * * * * * * * * * * * * * //

dimensions      [1 -1 -3 -1 0 0 0];

internalField   nonuniform List<scalar> 
111485
(
1.18783e-14
0.00782102
0.0241596
2.96932e-16
0.0490628
2.73836e-15
0.0463289
0.00615996
0.0190305
0.00123138
0.0467281
0.00941093
0.00479624
0.000790139
0.00651795
0.030419
0.00142352
2.6214
0.010353
6.80153e-14
6.64179e-15
3.15153e-15
0.0267155
0.0346551
0.00864931
1.21765e-15
0.0395419
0.00176689
0.0154141
9.95088e-17
0.044561
0.0194778
2.77562e-14
1.95166e-15
0.00649998
3.48764e-15
0.0106123
0.00421983
3.91515e-08
0.0241634
9.07601e-16
0.0709168
0.0158433
0.00153675
6.22028e-05
4.3627e-14
0.0296876
0.000712059
0.0475033
5.01403e-15
3.51781e-15
1.75032e-14
8.65678e-15
0.0512016
7.87057e-15
0.0437055
0.00307981
6.39256e-16
2.04704e-05
0.00479503
0.016071
6.67815e-15
0.00478127
0.0974794
1.5033e-14
0.00314243
0.315404
0.0944238
0.00110825
0.00609136
1.7874e-05
0.00659412
1.00944e-14
0.00289745
2.344e-16
0.000711634
1.58823e-15
0.0412194
1.93511e-15
1.48301e-14
1.36552e-06
0.0340299
2.44332e-15
7.43808e-15
0.00931605
0.00385274
3.4767e-10
0.0253306
5.98596e-05
0.00743014
0.000268219
0.0404248
0.0118819
5.76107e-05
0.0522432
7.98098e-15
8.00348e-16
0.00181277
2.91684e-08
0.00113767
4.4754e-14
0.0178976
1.34165e-15
0.0180367
0.00460761
7.42672e-16
1.02458e-16
0.00757948
0.0041346
5.75987e-08
0.00544138
0.00472809
0.00377342
0.00322201
1.82684e-14
3.38223e-05
3.93263e-15
1.08489e-14
0.0128408
4.75975e-15
1.28744e-14
3.05299e-15
2.37594e-15
1.24892e-15
0.00153914
2.98872e-06
1.23697e-14
0.00170339
3.22866e-16
2.56167e-05
0.00148142
0.0327297
5.863e-15
7.86287e-14
1.96844e-14
0.0483467
5.63907e-16
0.042541
0.0253378
0.00271433
0.000248384
0.00200222
0.0225006
0.00265932
0.00401301
0.0130532
2.72242e-15
2.35501e-14
5.22678e-16
0.0280811
0.00155114
3.5723e-16
2.32798e-07
0.00473366
4.43073e-07
0.0107969
0.0162903
0.01071
6.15367e-08
9.61335e-15
2.24234e-16
0.0522255
0.0227308
1.70935e-06
3.20332e-07
0.00583291
0.00341852
1.10148e-15
4.1698e-06
4.44274e-05
2.47201e-16
1.51109e-15
0.000125977
6.93572e-16
0.00550177
0.00207652
1.79766e-15
2.49674e-14
3.86956e-15
1.16482e-15
2.18224e-14
9.90612e-15
0.00150568
0.00678485
0.0298011
0.00412795
0.00762832
0.00402077
7.84884e-05
6.52348e-15
0.00483224
2.33102e-14
1.38546e-15
0.00652793
0.0104156
0.0284774
0.0113473
0.00504146
7.12781e-15
0.00672782
0.000508801
4.16925e-05
0.0142761
0.00232679
6.57575e-15
0.00380454
0.0252397
6.62342e-14
0.00016202
0.00785016
0.00201609
0.000366321
4.78091e-14
9.04345e-15
0.00830355
1.14504e-11
0.119426
1.46401e-16
0.00667413
0.0205219
0.119343
1.31991e-14
0.00326769
0.0137504
2.14683e-13
3.6452e-17
4.36109e-16
0.151147
2.5139e-07
5.25593e-15
4.88222e-15
0.00945162
0.00778858
0.0148309
7.95188e-15
1.05382e-14
1.29445e-05
7.52705e-15
0.00240352
0.00952234
0.0166152
0.0116401
0.00963693
6.61159e-16
2.4891e-07
0.000630531
4.99885e-15
1.80896e-15
0.0309359
0.0205592
8.45966e-15
0.00649756
0.0107512
2.35521e-15
4.03554e-14
0.00011474
2.26494e-15
5.61974e-15
4.517e-05
1.80497e-14
0.01484
0.0107149
0.0036712
3.57022e-14
0.0118646
1.46022e-16
1.31988e-14
8.73524e-16
1.82059e-08
0.0229169
0.00617432
0.00545257
0.0364607
0.0123285
0.00157786
0.000568325
0.0324198
0.00879369
1.52484e-15
3.40634e-15
2.40932e-07
0.0226793
0.0244857
0.0118613
2.50658e-16
0.00700286
0.00204426
0.0030185
1.94078e-06
3.60727e-06
0.0137967
0.00218524
0.00195318
2.12647e-15
0.000650544
4.08988e-16
2.05795e-07
3.30264e-13
0.236957
0.0679699
0.0118428
3.55532e-15
9.28125e-16
0.00898369
0.00171542
4.59477e-15
2.85104e-15
1.31686e-14
0.000295186
0.0570423
0.00398381
0.0134753
0.0192202
7.48665e-15
3.8476e-16
6.522e-15
0.00378384
2.41761e-12
0.00084525
0.18479
2.98623e-07
5.11087e-16
2.75745e-15
2.02588e-15
3.24359e-14
0.0599947
0.0118876
6.68716e-16
0.00525748
1.08877e-14
2.11185e-14
0.0671017
0.00593627
0.0114405
0.00929267
4.69621e-15
2.02931e-14
2.33667e-15
0.00945569
0.0187581
0.00482415
9.60602e-16
3.24043e-10
0.00015822
0.0022327
0.00804356
3.33174e-05
0.0284811
1.60292e-15
0.0375311
0.00355672
0.00778092
0.0254726
0.0132745
1.07014e-15
2.57779e-15
9.87851e-15
7.62131e-15
0.0312865
0.00976211
0.0328835
0.0673222
4.22493e-15
0.0184621
2.53772e-16
2.66443e-14
0.0166461
9.01243e-16
0.0792032
1.76982e-14
4.81863e-16
0.0228844
2.94125e-16
0.0135628
0.000286034
8.40428e-16
0.000988509
0.0165596
4.42371e-16
0.00890553
0.00912643
0.00815371
0.000690585
0.00270034
0.00550145
1.35611e-14
8.78727e-15
0.00198444
8.84607e-15
0.00627428
0.117362
2.3174e-15
5.76005e-15
0.0275777
0.000109922
0.00828349
0.0205304
9.59668e-16
0.0471473
0.0188148
4.12218e-15
0.000833617
0.00239776
2.89882e-15
2.43828e-15
0.0109445
0.0052093
6.99699e-17
1.62767e-15
3.85291e-08
4.53692e-16
0.0123448
1.51494e-15
2.21344e-15
0.0168159
1.5932e-06
0.0123116
0.0298721
2.93373e-15
8.8074e-15
0.00151535
2.9292e-14
0.000162519
0.0144246
0.12184
0.836801
4.94947e-16
0.00275738
0.000539626
9.55084e-15
0.0388892
0.0311642
2.60628e-14
7.14012e-09
8.83571e-05
1.67755e-14
0.023869
0.0240781
0.0139004
2.02113e-14
0.000661737
0.0169323
0.0228868
8.23602e-07
2.37609e-14
6.46729e-10
1.35757e-15
1.17196e-05
0.0312669
1.8201e-15
0.00828674
0.00010052
1.04067e-13
1.13081e-15
7.94479e-15
6.35468e-15
0.00370165
0.00957321
0.00636204
0.00207063
0.00263302
1.05752e-15
0.00197131
5.77835e-15
0.0409852
1.20483e-15
8.23655e-16
8.2749e-16
0.037079
2.68599e-14
4.28268e-15
1.51823e-07
2.59873e-15
7.73359e-16
0.00106336
2.97751e-15
2.4759e-14
7.1602e-16
9.79985e-16
8.12254e-15
7.12883e-15
5.44279e-15
0.00691454
7.64778e-15
0.000533655
0.00194913
0.000862781
3.44854e-16
0.000892225
3.63506e-15
8.63079e-16
0.0027455
0.00177361
0.0269873
0.0249411
2.79705e-15
0.00203422
0.0819297
0.0084821
0.00101344
0.00321488
1.30543e-14
0.0233289
6.44948e-14
0.00501395
3.49117e-15
0.076007
2.31795e-14
0.0210359
0.000244687
4.97782e-07
1.71969e-15
0.00200435
1.99133e-15
0.0799339
0.0487095
2.3412e-15
3.2779e-15
2.23909e-15
4.32339e-16
1.38974e-09
0.0547613
1.85292e-16
1.38044e-15
0.00245059
3.9232e-15
0.0338121
5.11204e-15
0.000318171
4.00749e-15
0.000475176
1.16096e-06
0.000996474
0.0126362
4.1301e-14
0.00041584
7.29987e-16
3.91572e-16
0.0148636
8.45891e-15
2.92997e-05
1.06554e-15
0.0016349
3.76729e-15
0.0643779
4.27735e-15
5.62464e-15
0.0174039
0.00323634
0.00173245
0.00387633
0.00685159
0.0207342
7.8157e-16
0.025248
0.00602915
2.0396e-16
7.59388e-08
0.0407897
0.0153427
2.84586e-15
0.00371692
0.00683625
0.0017775
0.000991294
2.25121e-10
0.0137249
0.00122487
0.000124395
0.0232275
0.013729
0.000591482
4.04246e-14
3.13807e-09
0.648676
6.12815e-16
0.000350665
5.33214e-16
3.13257e-14
0.00732328
0.00271478
2.28238e-07
1.71957e-05
4.78827e-15
0.0161142
0.0110598
3.56973e-17
1.96048e-10
0.0013293
1.19225e-14
1.91833e-15
2.55467e-16
9.06596e-16
0.0128649
2.09576e-15
1.139e-14
0.00858652
0.00191012
1.03578e-13
0.0105623
2.10299e-15
0.00850204
3.82595e-15
5.09738e-15
0.0522795
1.22316e-15
6.53275e-17
2.47969e-14
0.00421182
6.11558e-14
0.0284522
0.00624262
1.52241e-15
0.089084
0.00235475
0.0285926
0.0281495
0.000432455
7.50588e-05
8.31533e-16
0.0538992
0.0465274
3.18344e-14
0.000316587
0.0405501
0.00795224
0.0014014
0.0276528
0.0261039
6.85823e-16
0.0108311
6.54814e-06
4.12788e-15
0.0347657
0.000251965
7.75023e-14
0.0109271
0.0405717
0.00132357
0.021468
0.0195807
0.00720812
3.36682e-15
0.0103986
0.000305789
4.1554e-12
0.0171138
0.0179169
0.0357567
6.02966e-16
0.00184199
6.41269e-15
2.36402e-16
1.25008e-15
1.27038e-15
1.3566e-05
9.37012e-15
3.10013e-10
1.9246e-14
4.70154e-15
8.07944e-05
0.0428391
3.64428e-14
0.030972
1.35065e-14
7.4728e-15
6.407e-15
0.0386223
0.000399038
2.38841e-14
4.8933e-14
3.31045e-16
9.21288e-17
0.207058
0.0695294
1.12002e-14
0.00198568
1.89989e-06
2.14221e-15
0.0373125
0.00848853
0.0115238
2.88623e-15
3.64363e-15
0.000412503
0.00106581
1.33409e-14
1.29263e-15
2.87075e-15
0.00722945
3.27957e-15
3.60044e-15
1.49313e-15
0.0420219
0.00209686
2.0647e-16
3.84907
0.352943
0.00971275
2.98643e-16
1.32961e-15
0.0552518
0.000425318
7.98287e-15
5.06816e-06
0.112003
0.00241383
0.0112614
1.01219e-14
0.0524227
0.00189465
1.37517e-15
1.06122e-14
2.02277e-16
1.00509e-16
7.6478e-17
4.20998e-15
0.0223039
5.78735e-15
3.95063e-15
2.57383e-15
0.0113781
0.0236646
1.22803e-15
2.97824e-15
0.105565
0.014302
0.00988366
1.75543e-14
3.86192e-16
0.0370703
9.86236e-16
0.00169405
0.00264591
0.00395576
2.26639e-15
2.43007e-15
1.2829e-15
4.30066e-16
0.0147326
7.77645e-16
1.76289e-15
0.00103898
7.5664e-15
0.023146
0.00190113
6.54105e-15
0.0368813
0.348963
0.00252647
0.0290836
0.000141959
0.0437046
7.47443e-11
1.6183e-15
0.0236081
0.0680715
0.005996
4.35295e-16
4.76437e-10
0.769337
0.00997012
2.73718e-16
0.00246157
0.00246229
0.00115268
8.19714e-15
2.04339e-15
2.88238e-14
0.0134526
2.00671e-15
0.00269111
1.87403e-15
0.00120512
0.00141918
0.0365765
0.000574998
2.58659e-15
1.37612e-15
2.33921e-15
0.0205019
2.32477e-16
3.24398e-15
7.28028e-05
4.4528e-16
3.79937e-16
6.0772e-15
4.48898e-17
0.0100978
1.72656e-14
5.74053e-16
4.1298e-10
1.73742e-15
3.68264e-15
4.3196e-14
2.33348e-15
2.96672e-06
0.00160427
1.82745e-14
0.00399539
6.39332e-06
2.94715e-07
5.91665e-05
0.00399578
1.43763e-15
9.29333e-06
0.0100902
0.000392848
3.30027e-15
3.58407e-09
0.000852137
3.18446e-14
0.00987203
0.000188673
1.61161e-06
0.0231573
0.00939161
0.00223874
0.00486491
0.00197066
2.05418e-15
1.74839e-16
0.0328959
0.0263424
9.04164e-15
0.00842971
0.0541233
0.0282981
9.38157e-16
0.00126215
1.17317e-15
0.0101517
0.0139006
6.47529e-15
0.0015875
0.000445809
1.19086e-06
0.00494329
7.14447e-16
0.0484844
1.4816e-05
0.00142937
3.01186e-05
1.22588e-05
2.13606e-16
2.24213e-15
0.00691333
1.65626e-15
0.000121588
0.000246699
0.000298344
5.80115e-08
7.03856e-08
2.09708e-07
2.06877e-16
3.05563e-14
0.0226029
1.54955e-14
0.000127157
0.00198483
1.49179e-14
8.64057e-15
6.57268e-07
9.29382e-10
3.82699e-17
5.11798e-06
1.01832e-15
2.52382e-15
1.96415e-15
8.62453e-15
8.49587e-14
1.1098e-14
0.000274845
1.7807e-16
7.30918e-16
2.57929e-15
6.50839e-06
4.91056e-05
0.00171003
0.00915453
1.15779e-16
4.0071e-15
0.000159197
4.7127e-16
9.89926e-16
4.7617e-14
0.018485
0.0421176
9.32806e-15
6.33296e-15
1.89214e-15
1.78126e-15
5.26551e-16
1.48385e-15
0.00673653
4.95008e-16
5.33088e-08
0.0263873
1.0711e-15
1.88961e-15
4.23195e-15
2.8567e-05
1.50605e-14
5.8326e-15
3.15993e-15
9.55672e-06
1.47492e-15
0.00421564
9.04621e-07
6.01782e-09
4.57861e-16
7.6496e-05
0.00193135
0.0440518
2.60652e-14
8.51668e-06
0.00540338
7.76082e-15
4.70349e-15
1.65994e-13
2.09596e-15
0.00814562
0.00161336
0.00319849
1.79062e-07
4.56922e-16
0.0231386
3.64608e-15
3.36108e-14
2.24027e-14
2.8481e-15
0.026335
1.79257e-15
1.01222e-14
1.59375e-06
0.0516802
2.58013e-14
0.00233566
1.07e-14
0.000791599
2.3877e-14
7.07475e-16
1.92305e-15
2.99244e-15
0.00247696
0.000589392
0.305141
4.00292e-15
9.44031e-16
0.00211103
2.51351e-15
2.49831e-14
2.97723e-15
0.036075
9.71675e-06
0.0319085
7.98261e-15
1.10216e-05
5.03674e-05
7.52452e-15
0.000130304
1.33412e-16
0.00119768
0.0247345
0.0201355
0.00115648
0.000225221
1.68339e-15
4.46709e-16
3.87573e-16
2.23969e-05
6.59844e-16
0.00755701
3.25753e-14
0.174313
1.50642e-15
0.0411721
0.00298067
2.23724e-14
7.9667e-16
4.74036e-14
2.61034e-15
0.0415519
2.3772e-15
4.01604e-14
0.0116849
0.0068192
2.82419e-14
8.58799e-14
4.2526e-14
9.90705e-15
1.43759e-14
1.46466e-16
0.0257775
0.000398807
3.48879e-16
1.33512e-15
5.42497e-07
2.11891e-15
0.00153905
0.000104801
8.47483e-16
0.00351478
3.40202e-16
0.000384008
9.04861e-17
0.00110354
4.60806e-15
6.9378e-08
2.1471e-06
0.000617033
0.0182713
0.0342644
1.1647e-06
2.85354e-15
0.000551139
6.90774e-15
0.00462824
2.21886e-15
3.8126e-15
3.41067e-14
3.24527e-16
2.38837e-16
5.59078e-15
0.00724263
0.00816316
4.94631e-16
3.83862e-14
5.98085e-15
0.00079409
1.26017e-05
2.53941e-15
0.0180282
0.000171812
1.70126e-14
0.0233508
0.00807958
0.00368343
0.0111815
1.45412e-15
4.32161e-15
3.87622e-16
3.88296e-15
0.0369547
1.19891e-15
0.114009
2.19202e-16
0.000319668
0.000728315
1.44628e-15
0.000976275
5.30825e-16
1.08441e-15
0.00308202
2.25221e-08
0.00943856
8.03207e-16
1.21098e-14
1.66036e-15
0.000836874
1.44746e-15
1.25743e-15
3.94677e-15
2.76405e-07
2.20551e-14
6.49231e-06
3.38107e-15
7.74043e-15
1.78683e-15
0.0183058
0.00971131
0.0182038
0.0358736
5.21191e-15
1.60358e-05
1.13401e-15
2.4573e-16
0.00957889
3.67318e-16
2.16842e-06
0.000358229
0.00669037
0.000374244
1.07114e-09
0.00186773
2.14367e-15
1.30146e-09
3.415e-10
0.000128293
0.000766988
0.0151752
6.28464e-08
1.21305e-14
0.0302252
3.95438e-14
3.31947e-15
1.26193e-05
0.0745881
5.33016e-08
1.42864e-15
7.94073e-17
3.11382e-07
1.56256e-15
1.14592e-14
1.82759e-05
8.04519e-14
1.40489e-14
0.0396455
0.00023435
0.000183862
0.0223015
0.00721225
1.04996e-15
2.75553e-16
2.33337e-05
0.00405194
2.49878e-16
4.68699e-14
0.00963831
1.22936e-15
2.97122e-14
1.28616e-14
3.21249e-15
2.19503e-13
2.5686
4.53035e-15
0.000214581
2.77838e-15
0.0214503
3.11069e-16
6.10578e-13
8.32977e-16
1.02766e-15
9.93475e-16
1.01309e-15
0.00282213
3.36407e-17
2.07252e-16
6.79829e-15
1.8758e-14
8.7089e-16
9.0263e-16
0.0096882
1.89236e-15
0.010877
0.00313116
2.6645e-15
0.00150904
1.67512e-15
0.000513513
2.05925e-06
0.00383649
0.0129826
2.07261e-15
9.28879e-05
0.00755963
9.8381e-06
2.67873e-15
3.04629e-06
0.019114
0.00468448
3.83409e-15
0.0258355
2.77645e-15
1.10517e-15
5.26178e-15
5.05027e-17
0.00810192
8.77423e-16
6.52215e-15
0.00830094
3.78814e-07
0.00266046
2.28132e-16
1.68267e-13
0.000641643
6.98062e-16
6.29516e-05
1.51862e-14
0.0232923
1.01601e-15
9.62345e-16
5.2702e-05
4.16083e-15
0.000138467
4.51929e-15
9.21529e-17
0.00471177
0.000442559
0.00468296
0.0151639
0.217966
0.02023
1.50682e-16
3.94878e-15
0.00300298
0.00672421
0.0368321
0.010467
1.55508e-16
0.012456
1.58974e-16
5.00058e-15
0.00919365
0.011072
1.19649e-15
0.0132429
7.01078e-16
0.00273116
0.00900213
3.88566e-14
6.96091e-17
5.08271e-16
0.002843
1.02806e-15
3.67567e-16
0.00420807
0.0214906
3.64601e-06
0.00735559
1.17554e-16
7.19381e-16
8.81409e-05
0.000782707
8.10149e-15
0.0102313
3.34786e-15
0.00256069
1.81787e-16
1.02703e-14
0.0122276
3.79132e-15
3.66059e-05
0.00365194
1.21689e-15
1.73915e-15
0.00442785
5.41769e-11
0.0521671
4.10737e-15
0.251298
7.85226e-15
9.70126e-14
3.57106e-14
0.00750042
1.43421e-14
1.506e-14
0.00556657
8.42363e-15
0.000251623
4.45665e-14
1.44206e-15
1.2721e-15
9.68457e-08
0.000780782
2.94777e-16
3.79471e-16
0.0348924
0.000942448
5.4563e-15
0.00040416
2.22911e-15
1.31198e-14
1.70877e-06
0.00288666
0.00130451
4.83113e-15
5.55282e-16
2.83217e-15
2.00791e-15
7.46182e-14
5.80918e-15
4.1408e-16
4.28719e-16
6.35148e-15
2.76728e-15
3.96642e-16
2.32735e-15
2.28629e-15
4.82827e-16
6.86139e-16
9.13771e-16
6.4964e-16
1.5795e-15
1.21508e-15
9.54963e-16
2.47799e-15
0.017148
1.25062e-15
4.30362e-16
1.816e-15
0.00658928
5.14371e-15
5.84023e-15
0.292419
8.34361e-16
5.31201e-16
0.0228635
3.04342e-12
3.7417e-16
0.00781461
0.0243347
3.29003e-16
0.0028378
0.0042103
1.16915e-15
0.0133208
0.0390625
0.0176636
0.00335607
0.0106404
5.26223e-15
1.60142e-15
0.00298987
0.0105451
0.00320249
2.5377e-15
0.0067402
0.00177211
0.0213199
0.0100114
0.000697432
0.0155233
0.000997604
0.0102022
2.30776e-14
0.0243061
0.00840184
0.00163184
0.00140442
2.39543e-15
2.25835e-15
6.27041e-16
1.20523e-15
5.47515e-16
0.00918448
0.0134725
6.07273e-16
8.2514e-16
1.00926e-13
5.16541e-16
3.72784e-15
1.06265e-14
1.0887e-14
9.16163e-15
0.00463702
0.00019975
0.0216168
7.15606e-05
1.36548e-15
1.33676e-14
0.0301109
7.27731e-06
7.13857e-16
8.28707e-16
0.00706229
1.73435e-14
3.67082e-15
2.4873e-06
0.00771465
0.0135089
0.033276
0.0341662
7.6388e-16
0.0139194
0.000340792
2.80531e-14
9.63738e-15
0.0117922
4.36327e-15
1.12537e-15
0.0157956
1.0373
0.000168944
6.86122e-16
2.1191e-15
0.0170563
0.0197539
0.0177239
0.00552925
0.0042449
3.35178e-15
1.01775e-06
2.62222e-09
6.08749e-15
1.10277e-15
0.016735
4.01117e-16
0.00197717
0.0247216
0.0173903
0.0110834
2.85616e-15
0.00593467
4.07252e-15
3.09262e-15
4.82008e-15
9.87579e-16
0.00245582
0.876296
4.72738e-16
7.13426e-15
4.34146e-06
0.0229713
0.00118135
0.00680451
0.0322108
0.00468987
0.0201178
2.73653e-16
1.48388e-14
1.07915e-14
0.029152
0.00553738
2.95194e-08
1.85706e-15
9.32185e-16
1.02232e-13
0.0217338
0.00258994
1.11005e-15
0.00480101
0.0568704
0.00623322
0.00606489
5.13868e-16
1.00738e-13
0.0067505
0.0223096
6.62714e-17
0.000344081
0.0145662
0.000951858
0.00907088
0.00459221
0.00775479
7.10016e-14
0.00321906
0.0203994
0.035128
4.63586e-10
0.0220106
3.12614e-13
0.0159596
0.000150821
5.49954e-15
0.00248177
0.00738607
0.000403586
0.0112751
9.90309e-08
0.000124213
1.41717e-05
0.0406469
0.00358101
8.94235e-15
0.037171
0.00125811
1.29551e-14
3.81184e-16
4.20852e-08
1.27856e-05
0.00102302
1.0619
0.0342995
0.0117297
1.92163e-07
0.043822
3.56694e-15
1.96266e-14
0.00381705
2.74075e-15
0.00195409
0.00387327
0.00212442
0.00450744
2.18592e-14
0.00018797
0.104269
5.41269e-15
0.0148816
0.00731817
3.78184e-16
0.00385947
0.000129807
5.7017e-16
5.49754e-09
8.35242e-05
7.1059e-16
8.03732e-15
3.88887e-15
0.00416029
0.00468369
0.0135927
1.35685e-14
0.00457579
0.031668
2.15135e-15
0.00774559
0.0119874
0.023064
0.00145949
1.10417e-15
0.000500359
0.00880305
0.010071
0.00873132
0.0356016
0.155845
0.00312241
9.75773e-15
7.3437e-06
0.0478985
1.9942e-16
0.00040501
2.63249e-15
6.55167e-16
6.02062e-16
1.43577e-15
1.75895e-15
0.00312168
4.90832e-16
0.00687058
0.00109672
1.69369e-14
0.00365582
1.17606e-14
0.0133425
2.49128e-14
2.47236e-05
1.9893e-14
0.0207284
0.000150271
2.30072e-06
0.00406733
0.0272343
0.0158778
0.00375296
0.0259995
5.51947e-12
0.0221235
0.052031
0.00933675
7.08219e-16
0.00104233
0.000238032
0.00538204
0.00982701
0.000585372
1.30375e-16
1.25837e-14
3.43133e-15
0.00335134
1.70971e-15
0.000322955
0.000206496
0.00166436
0.000244883
6.10184e-15
6.59614e-15
1.04671e-15
0.0083251
0.0201876
0.00113941
8.92886e-06
0.00177752
0.00657658
0.00172873
0.000800599
0.00636276
0.0058889
0.00256136
3.65351e-14
2.52724e-15
2.36857e-14
0.0123666
0.0103705
2.17772e-16
2.53789e-15
2.36059e-13
0.00804014
0.0174332
7.80681e-15
0.00212774
5.48163e-15
5.99124e-07
0.00440732
0.0854544
1.0203e-15
2.99473e-16
0.00349941
2.37302e-15
5.61424e-05
0.0114514
7.28082e-15
0.0103367
0.0310319
0.0180812
1.03238e-15
0.00142734
1.10416e-15
8.75754e-05
0.0460425
5.58617e-15
1.43609e-16
0.0101645
1.48158e-13
1.76225e-14
4.15461e-05
0.00090448
6.32182e-15
1.40884e-15
7.08268e-14
6.96579e-05
0.00117974
0.00300917
0.0242838
0.00818024
6.497e-15
6.74701e-07
0.000674662
7.43159e-15
5.32781e-16
3.84066e-15
1.55444e-14
9.03788e-15
5.35428e-14
1.06673e-14
6.4656e-15
2.11314e-14
8.20852e-15
2.62829e-09
1.8095e-14
0.000314639
2.01174e-14
0.000239695
8.35943e-14
7.67369e-05
1.06789e-13
3.12304e-16
0.0270094
0.00858758
6.71527e-15
0.082001
9.71739e-09
5.31905e-10
1.38393e-15
0.00113487
1.26688e-11
0.0026009
5.86481e-06
0.000803759
5.58341e-15
3.46506e-15
0.00114117
2.13985e-08
2.22608e-15
1.18635e-14
0.036588
3.71603e-14
0.035102
3.37832e-15
4.36719e-16
1.71215e-06
0.0263521
0.00743089
4.22597e-15
0.000298448
2.3579e-15
0.00324178
1.81501e-05
0.00166771
4.60405e-06
1.28919e-15
0.0191761
0.00113715
0.00488916
1.08929e-16
2.50556e-15
3.45289e-16
0.0190112
0.00362558
0.0495262
1.12189e-14
4.51913e-07
6.29849e-15
1.08422e-14
9.55288e-15
2.70687e-15
0.00315925
0.00208638
0.00289137
0.29784
4.47463e-14
0.0252172
0.0338446
0.0160432
0.00163288
2.85759e-15
0.00490581
0.00435657
0.00462552
2.93056e-07
0.00951695
5.14662e-15
0.00141361
0.00121802
0.0307976
1.03093e-06
0.00324127
3.62896e-15
0.0172596
3.84389e-15
4.21358e-15
0.00156792
5.97297e-15
0.00566344
1.73396e-15
2.12319e-15
3.81369e-15
2.5081e-15
1.23986e-14
0.000788543
3.04373e-15
0.000510691
5.67174e-15
9.38145e-16
0.0165624
0.00503192
0.00744863
0.00692029
1.691e-15
0.549054
4.216e-16
0.0644848
1.58607e-14
0.0163751
0.0227152
0.00224064
0.0526948
2.22332e-14
8.95724e-14
3.10145e-15
0.00203655
2.82159e-15
1.32517e-14
0.0166525
3.62291e-15
1.6737e-15
0.00515927
1.26877e-15
0.0116803
6.56941e-08
3.29555e-15
4.49871e-15
1.29974e-14
0.00142422
0.00636953
1.25283e-14
0.0217786
0.000333246
1.02562e-14
0.0950179
6.57312e-15
0.0146548
0.0169663
0.00351227
7.29904e-15
0.0169838
0.00952823
0.000840321
0.00509779
0.0115661
1.84321e-14
6.38119e-15
1.73583e-06
3.51798e-15
1.81913e-16
3.60798e-16
0.0185628
0.0464788
0.00426263
0.002073
9.17672e-15
0.0474228
0.0431551
0.00399538
0.00215435
0.00882952
0.0196256
0.00259899
1.0703e-16
1.65581e-15
2.85262e-16
0.00680713
7.32844e-15
0.0234784
6.80945e-14
0.000725772
5.51566e-07
0.00248985
0.0206442
4.93086e-15
4.80538e-15
0.00241839
0.000363155
1.43985e-14
3.3067e-15
7.03478e-15
3.61627e-05
0.00029253
0.000142246
0.000797545
0.00965051
0.0820649
7.45168e-15
6.03094e-15
4.2855e-14
0.00364809
0.0166388
0.0190021
0.0331073
0.00166507
0.00288695
6.87136e-16
2.77823e-16
3.30915e-13
1.53732e-15
0.00881056
0.0212378
5.27588e-15
1.03419e-14
7.36269e-15
6.18283e-15
1.63795e-14
2.0412e-14
0.0131707
9.44476e-15
0.00091422
0.39914
1.07314e-15
1.3099e-05
0.0216651
0.000715203
1.5612e-15
1.40414e-14
0.00484705
3.91207e-15
0.0137633
9.40402e-07
0.0233026
1.42537e-14
1.30443e-12
5.50785e-16
1.58409e-15
8.9622e-15
1.09221e-14
0.190518
3.63887e-15
0.00580677
0.00118695
6.63262e-16
6.11721e-15
0.00194633
3.06435e-15
4.9879e-16
0.0121586
0.000134498
2.44179e-15
1.19786e-14
1.66584e-14
0.0162249
1.86695e-15
6.46843e-15
0.000436972
0.00258421
0.00304818
1.59965e-14
3.89788e-15
2.04588e-15
0.00371583
0.00182627
0.0124851
0.00360267
2.06956e-15
0.00075305
0.0111369
0.00620683
1.00177e-16
3.80382e-15
2.10151e-15
1.90229e-14
1.41569e-16
0.0296157
0.00493609
0.00565755
3.655e-15
5.88335e-15
1.35658e-15
7.95214e-15
3.38064e-15
1.01008e-06
0.000208678
0.00211454
3.09543e-15
1.29826e-15
3.32202e-15
2.1064e-09
0.0335469
0.110879
1.18154e-15
8.53305e-10
2.32258e-11
2.99571e-16
4.49797e-16
0.00365767
0.00621783
3.61474e-15
5.01833e-15
0.00274771
5.19415e-15
0.000666048
0.00101591
2.01065
2.66052e-15
1.69563e-15
0.011308
0.000523523
3.24321e-14
0.640869
0.000578199
0.00604002
8.95552e-15
3.31054e-14
5.45609e-15
2.00916e-14
0.00814922
8.86691e-05
6.53614e-15
0.0242271
0.0183956
0.827189
1.15969e-14
2.52292e-16
3.06647e-14
6.56539e-15
0.00651983
7.58345e-08
7.06745e-16
4.50933e-14
0.0179345
0.000787404
0.00461581
5.72699e-15
1.94644e-15
0.0276188
2.59745e-14
7.09195e-16
3.59261e-15
2.37602e-14
0.020555
5.79622e-15
3.43107e-16
7.37989e-16
0.024788
0.0115291
1.16968e-15
3.62616e-15
1.28982e-15
0.0146827
1.92973e-07
9.44573e-15
1.72886e-15
9.16708e-15
1.03956e-15
0.00231104
0.0107448
4.13972e-15
0.00192544
0.00107099
0.0046835
7.31311e-14
1.40201e-14
4.61972e-15
4.26205e-15
3.02442e-16
0.0183711
7.11684e-15
0.0137893
1.49581e-15
0.00149807
3.2221e-14
0.00235992
1.55057e-14
4.11404e-16
0.00981917
0.155075
1.49813e-14
0.00350941
7.41398e-15
0.00037314
7.88646e-14
1.04396e-14
4.05229e-15
5.63632e-08
2.0312e-14
0.000295072
7.57442e-15
0.0338092
3.1361e-15
8.24434e-15
7.08539e-16
2.35838e-14
7.52047e-06
0.000130225
7.11842e-16
0.00542483
1.66048e-16
0.00265105
0.0174853
0.00125634
1.64326e-15
4.65549e-06
0.000437611
2.14601e-06
0.00409829
3.10738e-07
0.00164271
5.61397e-14
2.49711e-15
4.21486e-07
0.00548151
0.000236906
4.2862e-14
2.67816e-15
9.70416e-15
0.555786
1.74627e-15
7.70839e-16
1.19144e-14
2.69684e-15
2.30815e-15
2.68848e-05
0.000178438
0.000969929
6.60388e-05
1.11296e-12
0.00138929
9.60393e-16
0.00522637
9.9871e-15
5.30649e-16
2.3163e-16
2.75205e-15
1.4246e-05
1.19864e-15
6.92863e-15
1.65681e-14
0.0137639
4.43361e-15
8.01533e-15
0.00994878
4.36528e-16
0.0741514
0.120543
0.539689
9.48439e-15
0.1918
1.08356
1.07626
0.610826
1.35037e-15
3.36185e-16
0.00458784
0.00431969
5.96445e-15
0.00963264
5.71866e-16
0.0302012
3.62226e-15
4.15888e-16
0.000689449
2.68561e-15
2.30377e-15
1.01626e-05
3.83427e-05
6.44373e-16
2.07235e-15
2.66025e-06
1.32228e-14
6.51542e-15
1.79938e-05
0.00777399
0.00145303
2.94677e-14
0.00745201
2.67414e-15
0.00326616
4.16662e-07
0.00696869
2.65164e-15
1.41764e-08
0.00539236
3.7477e-15
1.49684e-09
5.02421e-15
0.0300793
5.58171e-15
0.00893294
1.63021e-16
2.08345e-07
2.40161e-14
2.56135e-15
2.07921e-15
8.08043e-10
4.68964e-10
1.41873e-15
0.0112221
0.00860735
1.25086e-14
6.08087e-15
0.0302244
0.0159559
0.171142
8.21198e-16
6.5995e-05
0.0233106
0.0428125
5.61358e-08
1.78307e-14
0.0530244
7.21466e-15
0.212286
1.64487e-15
3.95291e-08
3.58214e-08
3.30284e-15
5.43877e-05
4.14562e-16
0.0191499
2.00022e-15
3.13988e-15
9.257e-15
1.54025e-15
3.15473e-15
1.52458e-14
0.000253378
0.00183539
0.12514
1.3295e-14
5.4003e-14
0.0381191
1.43965e-14
3.88571e-16
9.17e-15
8.51962e-14
1.13921e-14
0.00546556
5.3124e-15
6.42453e-16
2.97711e-16
0.00303456
3.60618e-14
9.29988e-16
3.73083e-16
0.00303308
3.91018e-17
0.00563357
0.216814
0.00502267
0.0051697
0.0246117
7.54469e-16
6.33782e-14
8.65041e-16
0.00292508
0.00161063
1.2338e-15
2.18141e-14
0.000557746
3.67368e-15
3.64374e-15
0.310455
7.46068e-15
0.020031
1.2513e-14
0.00217198
0.00298824
4.82887e-14
3.81073e-15
3.23635e-14
2.47627e-15
7.3405e-15
0.016724
5.54338e-14
0.00432125
8.92711e-15
5.77959e-15
0.00638036
6.44262e-16
0.0115736
1.69751e-14
1.03842e-15
0.00215747
6.5768e-05
0.129508
3.15105e-14
4.3735e-15
5.22745e-15
0.00310915
0.164091
2.44751e-15
9.80632e-15
7.71564e-15
0.00138018
9.38805e-15
0.0177434
0.0285349
1.75056e-14
4.78735e-15
0.00662086
7.09049e-16
1.1774e-14
4.07397e-16
3.4085e-14
9.17412e-17
0.0630548
2.03693e-13
2.24766e-15
4.53906e-16
4.71761e-14
3.36976e-14
6.21e-14
4.17964e-16
1.36774e-15
7.00984e-15
0.00687536
5.5953e-16
0.00786786
4.0309e-14
1.98701e-14
0.53256
0.00250751
1.25397e-14
4.03374e-15
3.9107e-15
0.00221806
1.63615e-14
6.1578e-15
2.63811e-14
2.85576e-15
0.00677978
2.98135e-16
0.00432473
1.46016e-14
0.00877176
3.77832e-15
0.0521019
2.00956e-14
1.32145e-14
0.0198333
2.00549e-14
9.81544e-16
0.024474
0.000252066
6.01343e-15
7.1586e-15
0.0329246
0.0091197
0.00591849
0.000768531
0.00166305
0.0159471
0.000935343
0.00437175
3.31486e-15
0.0264557
2.40279e-14
4.27169e-14
1.77805e-15
8.78999e-15
1.74111e-14
0.00954416
2.98455e-15
4.03813e-15
2.61693e-15
3.97339e-06
7.5898e-06
7.72101e-14
0.00210044
4.11063e-15
0.00391346
1.71013e-15
1.19587e-06
0.00287544
1.85769e-13
0.0413088
3.21919e-15
1.40985e-14
3.38431e-16
0.00270802
0.00115354
6.24122e-15
9.65432e-16
0.00227074
4.13177e-15
0.609184
5.95928e-15
0.0929397
3.23585e-16
4.04343e-15
3.07493e-15
4.39046e-16
0.00909204
2.13815e-15
3.4276e-05
1.49409e-15
0.00893662
2.04458e-14
5.05354e-16
5.34329e-12
1.2107e-13
1.26698e-14
1.02342e-14
8.74894e-15
2.46816e-14
0.00384475
0.172594
3.42602e-14
4.70416e-16
0.000331312
7.02609e-15
3.94014e-15
1.02573e-06
0.0156574
0.000137397
5.71506e-16
0.000620808
0.0030071
0.00486056
0.00756081
8.36727e-15
9.12731e-15
6.9057e-14
1.59688e-14
5.77726e-16
6.78656e-16
2.34439e-15
1.01187e-14
3.18776e-15
3.56245e-15
2.94297e-15
1.04609e-16
0.0686056
2.79972e-16
1.5152e-14
1.46852e-10
4.19183e-15
1.34828e-15
1.01193
3.50559e-16
7.60221e-15
0.00186355
2.19858e-09
8.82842e-15
7.29872e-15
6.26332e-16
0.0209718
1.1776e-15
1.74998e-14
4.79419e-08
4.48056e-16
9.41726e-15
5.09841e-16
2.99419e-15
0.109681
7.69176e-16
0.000151078
2.06187e-16
6.16055e-15
4.29191e-15
1.92165e-14
3.5896e-16
1.57213e-08
3.02545e-08
0.000102479
3.49813e-15
8.50613e-16
1.36893e-14
8.65199e-08
1.47725e-15
2.7653e-07
8.9251e-09
1.32541e-15
5.75636e-15
1.11969e-13
5.03912e-09
3.05754e-15
1.89151e-15
2.13346e-09
2.08388e-14
0.0289789
4.07526e-16
0.00662331
1.75504e-14
2.13497e-06
3.86637e-16
0.00131963
8.21169e-16
0.00378016
0.024192
5.31167e-15
0.00234673
1.35126e-05
1.39274e-14
0.010143
1.50052e-15
2.92469e-15
7.73919e-15
3.05888e-16
7.14641e-15
2.75813e-15
3.14671e-15
2.48532e-15
0.266027
6.30221e-15
1.27327e-14
6.65513e-16
2.51564e-15
9.11602e-15
0.0299548
0.768019
2.97558e-06
1.01023e-05
2.52871e-15
0.00197369
0.00137526
1.73558e-15
8.4338e-15
1.39785e-15
7.77364e-17
2.50475e-15
5.76848e-15
3.79393e-14
4.14407e-15
0.000366209
4.53172e-15
1.7312e-14
0.000227708
3.58067e-06
5.38137e-15
0.0243702
1.88552e-16
2.16685e-15
1.10127e-15
0.16255
2.00006e-14
4.76849e-17
0.0247121
1.14047e-15
2.92943e-15
8.99172e-16
3.1405e-14
0.0526963
4.6312e-16
1.3294e-15
7.14438e-16
6.31928e-16
0.00565255
0.225762
0.0275653
0.041907
0.00367024
0.000246949
1.8867e-15
2.53242e-14
0.136997
0.00124481
9.27055e-15
8.75496e-08
2.3396e-16
6.87489e-11
7.66345e-15
0.205834
5.37845e-15
1.04911e-15
0.000224544
2.06319e-10
2.39361e-15
0.00968928
9.1077e-16
2.40828e-15
0.198253
0.0295539
4.0491e-15
8.13394e-16
2.62411e-16
8.81483e-16
1.4403e-14
1.00588e-14
3.63551e-15
1.85244e-15
0.00308196
2.69551e-15
1.39735e-14
8.11912e-15
1.36961e-05
3.42897e-15
3.8393e-14
3.67911e-15
1.02715e-15
8.273e-15
6.41602e-15
0.003309
9.25989e-16
4.76039e-15
0.00495686
9.91991e-15
0.000362468
0.0045068
3.64157e-15
0.00338226
4.14103e-15
2.59552e-15
1.04693e-15
3.6051e-14
2.18074e-15
3.01403e-14
1.1071e-13
8.71954e-15
0.00232297
6.83354e-15
1.67512e-14
6.63522e-16
1.15292e-15
6.25014e-15
6.06685e-15
0.0355608
4.57634e-16
1.58888e-15
0.337442
1.61164e-16
8.70494e-17
3.37645e-15
0.00123858
5.26812e-15
5.84579e-06
3.59993e-15
4.96403e-05
0.00796111
6.57959e-16
1.12498e-14
0.0402302
7.90479e-15
1.05902e-15
0.000124378
6.94487e-07
0.00982448
2.24104e-06
8.74538e-07
1.29687e-07
8.61777e-16
4.18884e-15
0.00100192
0.000123034
0.0160686
0.012069
2.93392e-05
1.80127e-15
0.00548896
0.00516876
0.0184694
2.29998e-14
0.0122578
0.0166462
0.00271703
0.00138207
0.00121096
0.00324293
0.0189998
0.0405956
0.00711365
0.0110215
0.00799917
2.44477e-14
0.00288218
0.00362468
0.000838679
0.00259709
0.0142117
0.01377
0.0194772
5.48523e-14
0.01121
4.33026e-14
0.00501684
0.00281732
0.000276688
0.00234105
3.55255e-14