/*--------------------------------*- C++ -*----------------------------------*\
  =========                 |
  \\      /  F ield         | OpenFOAM: The Open Source CFD Toolbox
   \\    /   O peration     | Website:  https://openfoam.org
    \\  /    A nd           | Version:  10
     \\/     M anipulation  |
\*---------------------------------------------------------------------------*/
FoamFile
{
    format      ascii;
    class       volScalarField;
    location    "3.4";
    object      SgRate;
}
// * * * * * * * * * * * * * * * * * * * * * * * * * * * * * * * * * * * * * //

dimensions      [1 -1 -3 -1 0 0 0];

internalField   nonuniform List<scalar> 
111485
(
1.18139e-16
1.08436e-05
2.30817e-05
6.1674e-17
5.50618e-05
1.0445e-17
4.66349e-05
7.24199e-06
1.78774e-05
9.32743e-07
4.74505e-05
1.25923e-05
4.44641e-06
6.7367e-08
6.504e-06
3.22233e-05
2.0421e-08
0.00286548
1.15676e-05
1.05935e-15
1.86372e-16
7.35616e-18
2.6964e-05
3.57335e-05
1.28118e-05
1.24713e-16
4.83532e-05
4.68232e-06
2.34352e-05
3.83103e-17
5.67951e-05
1.01786e-10
3.21714e-15
2.62011e-17
1.03699e-05
8.98087e-17
1.38141e-05
2.9312e-15
7.17598e-11
2.21384e-05
1.30308e-17
8.47979e-05
1.84876e-05
1.47162e-06
4.36216e-08
8.3748e-17
3.38719e-05
7.47206e-07
5.81122e-05
5.04576e-17
2.3671e-16
2.04759e-15
2.75329e-16
4.87088e-05
5.0173e-16
1.72512e-05
4.04486e-06
1.33988e-17
2.3777e-08
5.55891e-06
1.94161e-05
4.42022e-17
3.37238e-06
0.00011994
8.56363e-16
2.86623e-06
0.000370716
0.000121831
1.54759e-05
5.91235e-07
1.03506e-08
2.95577e-05
2.65801e-16
1.0299e-05
1.14034e-15
1.75082e-07
1.73803e-17
4.75305e-05
2.76518e-17
2.88731e-15
3.10148e-08
3.43404e-05
5.60401e-17
1.25565e-16
4.08397e-06
5.0177e-06
5.35632e-13
2.5611e-05
5.47034e-08
1.53158e-09
8.8964e-07
3.95085e-05
3.02719e-06
2.80745e-13
6.98505e-05
9.56054e-16
2.75542e-16
1.52802e-06
1.5155e-11
1.99666e-06
3.34358e-16
2.246e-05
7.79009e-18
2.68993e-05
4.45666e-06
3.66868e-16
2.31349e-18
8.92397e-10
3.90627e-06
1.14542e-10
2.24939e-11
3.73076e-06
3.41977e-06
3.64005e-06
2.77853e-16
9.81163e-09
1.22499e-16
1.203e-16
7.99043e-06
4.06544e-16
3.59201e-17
2.11603e-15
2.0583e-18
1.91662e-17
2.52835e-06
2.53109e-09
9.31819e-18
4.38451e-10
4.05874e-17
1.40611e-07
1.64006e-06
3.20059e-05
2.49446e-17
6.61947e-15
1.31269e-16
6.14388e-05
6.81421e-18
6.30668e-07
2.57719e-05
2.24876e-06
1.72289e-07
2.45421e-06
2.62894e-05
3.35781e-06
5.45011e-06
1.123e-15
8.89066e-18
3.60196e-19
2.69076e-16
2.98864e-05
2.37892e-06
8.78538e-18
1.21044e-10
3.93235e-16
5.78142e-10
1.07431e-05
2.0085e-05
1.42582e-05
1.2871e-10
1.3146e-17
1.25302e-16
6.30459e-05
2.41372e-05
3.68614e-09
2.8679e-10
9.12814e-08
5.10989e-06
6.51265e-18
8.30511e-09
6.60832e-08
2.36432e-17
1.08806e-16
1.08551e-07
5.36459e-18
1.21594e-14
4.32938e-17
2.39593e-17
3.07919e-16
1.78384e-16
1.05919e-15
4.3852e-16
1.53047e-16
1.36484e-06
7.99174e-06
3.22293e-05
1.20164e-15
7.86875e-06
5.92069e-06
1.20203e-07
5.03843e-17
6.63139e-07
2.79689e-16
9.64801e-18
1.11723e-05
1.05605e-05
2.53061e-05
4.10284e-06
3.02974e-15
3.45549e-16
7.91453e-06
9.97157e-07
5.4297e-08
1.42097e-05
2.64405e-09
1.34134e-16
8.21193e-07
2.80159e-05
2.29735e-16
2.97187e-07
9.68865e-06
3.56539e-06
1.55835e-06
1.57693e-16
7.65195e-16
1.19901e-05
7.5179e-15
0.000142434
9.8034e-18
4.51953e-06
2.79867e-07
0.000141191
3.45036e-17
2.74059e-06
1.68228e-05
5.14998e-16
8.56701e-18
8.63316e-17
0.000187858
4.87713e-10
7.5006e-16
2.42793e-17
4.80229e-07
2.33756e-13
1.62015e-05
2.62996e-16
8.66777e-16
1.58117e-08
5.12833e-17
2.35818e-06
4.76482e-07
3.09511e-07
4.16096e-07
2.15764e-07
8.92278e-17
3.35368e-10
4.7616e-08
1.7341e-16
1.81713e-17
3.49565e-05
1.74324e-05
3.67506e-16
3.16412e-11
4.05724e-08
2.30998e-16
5.11871e-15
1.84073e-07
7.65747e-17
2.23763e-16
4.59854e-08
1.50239e-16
6.9037e-08
1.93772e-07
8.3194e-16
4.48922e-18
2.09736e-08
1.50042e-17
1.3218e-16
1.47687e-16
2.5307e-11
3.16876e-05
1.51262e-06
6.2268e-06
4.53352e-05
4.8488e-06
2.17575e-06
7.834e-07
2.42941e-13
4.91588e-13
8.86593e-17
1.69252e-16
3.11007e-10
1.42603e-09
2.88842e-05
5.31653e-13
5.27389e-17
6.54854e-06
2.95489e-06
3.74105e-06
2.39598e-08
4.82595e-09
1.53905e-05
6.96075e-07
2.73124e-06
2.4483e-17
1.07844e-06
1.72418e-17
4.37397e-10
4.24165e-16
0.000299883
8.07621e-05
1.70578e-05
5.24168e-16
1.20932e-17
3.64704e-06
1.72782e-12
4.00745e-16
5.75684e-17
2.59396e-15
1.14819e-08
2.95063e-13
3.11519e-06
1.78935e-05
2.39979e-05
3.9088e-16
4.58456e-17
1.65281e-16
5.03748e-06
1.74642e-15
1.14105e-06
0.000224811
5.42957e-10
5.75699e-18
2.95177e-16
1.21276e-16
6.14813e-15
4.07256e-05
1.40634e-05
7.63684e-18
2.90123e-06
3.41502e-15
3.89503e-16
9.06134e-05
5.45009e-06
1.34626e-05
3.66244e-06
3.02076e-15
3.67616e-15
4.04353e-17
7.3997e-06
1.29816e-15
6.62479e-06
1.57083e-17
2.5057e-13
2.77077e-07
1.59249e-06
2.1975e-06
7.28786e-08
3.57312e-05
4.4114e-18
4.45918e-05
5.1601e-06
8.20769e-06
3.21631e-05
1.34794e-05
2.36241e-17
1.59858e-15
2.15693e-16
7.29932e-17
3.66832e-05
5.59735e-06
4.95007e-05
8.17512e-05
2.83648e-19
2.01754e-05
3.0427e-18
6.19185e-16
1.62234e-05
4.01355e-17
4.90906e-05
9.32584e-17
1.03843e-17
2.75449e-05
5.62048e-18
1.44705e-15
9.90127e-07
5.89394e-18
1.22672e-06
1.43443e-05
5.574e-16
6.84867e-06
1.35285e-05
7.20733e-06
4.46725e-07
2.42147e-15
1.0106e-13
3.44021e-15
5.29077e-17
1.30714e-06
9.33575e-17
5.45685e-06
0.000151713
1.29453e-16
3.09076e-17
1.37707e-05
8.6244e-08
2.93827e-13
3.00907e-05
2.94718e-17
5.23677e-05
3.14109e-05
5.40138e-19
8.5419e-07
2.79611e-06
7.95263e-17
3.40183e-16
3.24239e-16
5.23853e-06
1.31722e-17
1.71472e-17
1.70911e-11
3.36588e-16
1.35625e-05
4.88743e-18
2.27727e-16
2.23137e-05
2.19829e-09
1.6962e-05
2.70557e-05
1.6664e-17
1.42502e-15
1.07283e-06
3.38275e-16
1.26997e-07
1.17511e-05
0.000136319
0.00106958
2.49571e-17
1.04649e-10
3.35472e-07
1.61371e-15
3.99596e-05
4.18523e-05
1.13069e-17
1.38294e-11
1.04604e-07
2.04928e-15
2.60876e-05
3.46248e-05
3.1765e-15
3.01859e-17
1.68009e-15
2.62969e-05
4.23503e-15
6.9557e-10
1.30397e-15
1.64692e-13
7.4467e-17
1.42968e-08
3.53384e-15
9.69777e-18
1.03232e-05
7.88151e-08
1.89042e-15
3.73999e-18
7.73055e-16
6.91424e-16
6.76414e-06
2.70129e-15
5.74695e-06
3.04338e-06
3.51797e-06
3.69729e-18
3.75909e-06
5.59814e-16
3.75323e-05
1.42275e-16
2.02697e-16
1.88956e-16
4.20582e-05
6.43495e-16
2.29321e-16
3.47143e-10
8.13163e-17
1.46253e-17
9.1589e-07
3.34766e-17
1.99607e-15
2.63639e-18
6.7619e-17
1.02577e-15
4.13038e-16
6.52786e-17
8.86385e-06
2.52677e-19
3.57861e-07
2.47922e-06
1.49767e-06
1.34208e-16
6.06676e-07
1.25513e-17
8.81368e-17
2.56355e-06
1.64395e-06
2.96546e-05
2.58703e-05
4.17212e-16
2.56398e-06
7.55828e-05
1.7146e-14
1.87931e-13
3.08538e-06
1.46957e-16
1.32898e-14
2.5149e-15
3.8259e-06
3.87916e-17
7.71159e-05
1.83759e-15
2.81383e-12
6.62809e-07
2.72938e-11
8.06417e-17
8.07149e-13
7.41521e-17
9.69607e-05
5.14425e-05
4.19842e-17
3.06918e-17
1.84005e-15
3.51674e-17
2.46076e-13
6.57784e-05
4.97433e-17
1.44931e-17
3.9987e-06
8.48091e-18
3.32911e-05
3.03675e-17
4.25156e-07
2.16568e-16
5.88257e-07
8.18755e-10
8.20467e-07
2.96343e-12
5.90681e-17
2.73236e-16
5.25339e-16
6.08861e-18
1.60118e-05
8.48083e-18
3.64607e-08
5.36563e-16
1.60567e-06
9.28343e-16
8.01765e-05
2.27173e-16
1.35574e-15
1.82725e-05
3.01616e-06
1.55824e-06
4.04876e-06
5.68288e-06
2.51433e-05
3.70237e-17
2.03403e-05
6.5411e-06
8.74268e-18
7.41827e-11
4.02721e-05
1.27501e-05
1.80736e-15
6.36636e-06
6.32231e-06
1.33245e-06
1.50945e-06
2.22478e-13
1.52667e-05
9.11681e-07
2.17983e-07
2.77219e-05
1.38685e-12
1.06323e-06
9.50826e-16
2.85199e-12
0.000758022
2.53719e-16
5.55573e-07
8.04694e-18
3.81247e-15
3.82837e-09
3.96365e-06
1.51665e-10
1.2657e-08
3.63603e-15
1.86176e-05
1.35107e-05
5.40569e-17
7.05653e-14
3.34326e-06
3.48552e-16
5.8142e-17
3.11602e-18
3.16762e-16
1.73777e-05
4.23263e-17
1.49507e-16
1.06627e-05
4.08357e-08
9.35893e-16
1.12914e-05
1.13194e-15
3.33811e-07
1.64681e-16
2.96078e-17
6.05279e-05
6.07789e-18
2.50821e-16
7.22784e-15
6.62274e-17
2.66627e-16
3.62755e-05
5.27867e-09
5.7399e-17
9.42959e-05
2.46398e-06
3.01089e-05
2.98914e-05
1.28494e-06
8.10403e-08
5.77498e-17
7.25003e-05
4.30831e-05
2.62323e-16
3.36473e-06
5.08526e-05
6.23714e-06
3.92987e-17
3.30623e-05
3.02053e-05
4.0914e-17
1.64814e-05
3.66539e-09
6.37372e-16
3.55588e-05
3.00015e-07
7.9136e-17
4.46432e-09
4.04079e-05
1.93783e-06
1.99182e-05
1.93837e-05
1.82027e-09
4.12349e-15
1.022e-05
2.95766e-07
1.43963e-14
1.60677e-05
1.59057e-05
1.45039e-08
1.269e-17
5.34245e-17
7.25395e-17
1.31624e-17
6.18383e-18
6.43123e-17
1.55489e-08
2.32269e-15
1.32491e-13
7.94503e-16
2.04859e-16
2.97606e-08
4.4267e-05
2.93205e-16
4.14595e-05
6.96765e-17
5.00533e-16
7.0342e-16
4.60559e-05
5.7418e-07
2.91645e-15
3.02918e-17
5.3973e-18
7.08086e-18
0.000298962
2.67853e-09
3.11087e-15
1.95216e-06
3.93094e-09
1.82928e-16
4.08048e-05
7.00575e-06
1.70665e-12
1.69632e-17
1.41942e-17
1.80419e-06
6.33585e-09
3.46194e-15
8.58148e-17
1.0133e-15
2.65779e-06
1.29869e-16
1.10785e-15
8.1459e-18
4.71981e-05
2.20093e-06
5.70137e-18
0.00495117
0.000204159
5.91449e-13
6.07714e-18
3.32452e-16
6.38461e-05
3.01697e-07
5.47811e-16
7.64952e-09
0.000178774
3.48706e-06
3.11405e-16
2.87467e-15
7.11644e-05
1.90072e-06
1.27624e-17
9.15981e-17
2.8377e-17
8.79984e-18
2.08211e-17
3.60159e-17
2.37727e-05
2.83324e-16
2.48983e-17
3.72431e-16
1.01345e-05
1.39928e-08
2.67768e-16
8.19524e-17
0.000126706
2.54925e-08
3.56861e-08
1.16932e-15
7.90901e-18
1.90017e-08
1.70894e-16
2.95845e-06
1.90643e-08
9.35214e-09
1.17686e-17
2.72412e-16
4.18507e-16
3.12745e-18
1.56191e-05
7.11998e-18
2.84687e-17
1.24869e-06
4.32306e-17
3.64471e-06
1.48328e-06
5.48148e-16
7.74339e-09
0.000673274
2.93166e-06
3.48035e-05
2.96172e-07
5.84924e-05
1.72222e-13
9.29207e-15
7.27222e-07
9.28761e-05
4.21676e-16
2.21123e-16
1.24405e-12
0.000790668
6.47077e-14
6.30965e-17
3.61353e-06
3.17294e-06
1.55216e-06
1.9944e-16
3.08491e-16
1.08941e-17
5.65443e-09
2.3806e-15
3.57335e-11
1.02144e-15
1.0553e-06
1.51087e-14
1.99088e-10
6.50134e-09
5.40216e-17
9.09496e-17
1.84096e-16
2.26013e-08
9.58418e-17
1.14003e-16
6.0464e-08
1.54276e-17
2.63284e-17
4.50973e-18
5.70973e-18
5.23591e-11
4.1176e-16
3.69729e-18
6.633e-13
1.09252e-15
2.05121e-17
6.50177e-16
8.38709e-18
4.89835e-09
3.38508e-10
1.60111e-16
5.09477e-06
1.14522e-08
6.81551e-10
8.32703e-08
1.82008e-10
4.19825e-17
9.38199e-09
1.13569e-05
3.51967e-07
4.81114e-16
1.42213e-11
7.90193e-11
6.44521e-16
8.26936e-11
3.99739e-07
2.31903e-09
2.45554e-05
3.11822e-12
2.65831e-06
1.24002e-15
4.08122e-11
4.28365e-17
1.59854e-16
3.83768e-12
1.66672e-12
9.86436e-17
1.38709e-12
6.56006e-05
5.36923e-11
9.82901e-16
1.93736e-06
8.25122e-18
7.06377e-11
5.19817e-11
2.86199e-16
3.0092e-14
4.43959e-11
1.80365e-09
4.0231e-15
3.19529e-16
6.3439e-05
2.42951e-08
2.12292e-06
3.88185e-08
1.89979e-08
1.37616e-17
2.02945e-17
1.07693e-05
4.27947e-18
1.72108e-07
3.08935e-07
2.77691e-08
8.81751e-11
6.60271e-11
1.48001e-09
6.31087e-19
2.79437e-15
3.77468e-06
4.87057e-16
8.69092e-07
2.28329e-06
9.32709e-16
1.85342e-16
6.73326e-10
2.1946e-13
4.07741e-18
4.1258e-09
2.10853e-18
2.77547e-18
1.0022e-16
1.37162e-16
2.01058e-16
1.42318e-16
4.28942e-07
2.99579e-16
2.08645e-17
5.00756e-16
7.12272e-09
5.53114e-08
1.66744e-06
1.83414e-06
1.49754e-17
5.9588e-17
2.01192e-07
5.2269e-18
7.38007e-17
2.64197e-16
2.12527e-05
1.73478e-05
5.4484e-17
2.52789e-16
4.02239e-16
1.11959e-16
5.5931e-18
1.2656e-16
8.21058e-06
5.69228e-17
5.10677e-11
2.84649e-05
3.42247e-17
5.15721e-16
2.87942e-17
1.64775e-08
8.54954e-17
1.87747e-16
3.37224e-18
6.77274e-09
5.31876e-17
5.15666e-06
1.22695e-09
5.2912e-12
1.40229e-17
6.17255e-08
2.89517e-06
5.49455e-05
8.3902e-16
6.48736e-09
8.162e-06
2.02429e-16
9.06606e-17
2.59251e-15
5.28287e-16
1.47854e-06
5.94919e-06
3.93546e-06
1.89466e-10
2.02667e-18
2.3419e-06
4.05299e-16
1.24888e-15
5.52869e-16
3.82505e-17
2.74589e-05
5.279e-18
2.67547e-16
2.37079e-09
1.44146e-05
8.7746e-17
3.75481e-06
1.51189e-15
1.11574e-06
2.23493e-15
7.24788e-18
3.08846e-17
3.9018e-16
1.44811e-11
8.08312e-07
0.000409528
1.94315e-17
7.21845e-16
2.71786e-11
6.83078e-18
3.69205e-15
1.01117e-16
5.5537e-05
6.16875e-09
2.95434e-05
3.62608e-16
6.81145e-09
3.34684e-08
3.98144e-15
7.80551e-08
2.35958e-16
2.52442e-06
2.90137e-05
2.89147e-05
1.62105e-06
2.96029e-07
2.34958e-18
1.33989e-17
5.06949e-17
1.53793e-08
9.53955e-18
5.86926e-06
8.81648e-17
0.000211847
9.0217e-17
4.83463e-05
2.91698e-06
1.13439e-16
6.50044e-18
6.45936e-16
2.4332e-17
3.55665e-05
3.44271e-16
1.69041e-15
6.2598e-12
6.77394e-06
2.00694e-15
3.71397e-15
3.51295e-15
2.84312e-15
5.54182e-16
3.31296e-18
2.42416e-05
4.50121e-07
1.9825e-16
5.74393e-17
3.49218e-10
4.93649e-17
2.033e-06
2.84516e-13
4.05658e-16
2.7989e-06
2.23958e-16
2.45349e-14
1.06335e-16
8.36076e-07
3.01985e-16
1.28511e-10
2.28887e-09
1.01279e-06
1.60698e-05
3.11312e-05
1.23971e-09
7.8877e-17
5.65323e-07
4.69125e-16
5.48932e-06
1.67262e-16
8.51935e-17
4.36064e-16
6.49277e-17
5.72206e-17
1.0507e-16
6.43238e-06
6.63962e-06
1.27427e-16
3.19524e-16
1.34439e-15
4.97001e-07
1.67735e-08
4.24188e-16
2.17149e-05
2.21651e-07
7.43537e-17
2.71976e-09
5.42422e-11
3.91419e-06
1.51183e-05
7.84564e-18
1.54225e-18
8.30635e-18
5.04169e-17
4.06568e-05
6.43032e-18
0.000124101
8.81147e-18
2.24414e-07
7.91972e-07
6.20276e-18
6.77654e-07
3.25444e-18
2.47438e-18
2.42673e-06
3.52764e-11
8.36285e-06
3.20589e-18
7.01329e-17
1.80201e-17
1.35684e-06
3.94303e-16
3.29305e-17
6.49583e-16
5.36742e-10
1.40361e-15
1.18246e-08
7.50632e-16
3.17643e-16
2.16194e-17
7.85931e-10
1.67723e-10
2.40506e-05
3.86931e-05
2.12551e-16
7.81416e-09
5.26979e-18
9.74912e-17
3.26493e-12
2.92763e-16
3.08509e-09
2.72832e-07
5.0077e-12
2.52526e-07
1.54414e-13
3.4205e-06
5.41803e-17
3.74894e-13
9.50944e-13
9.08557e-08
1.48008e-06
2.30787e-05
8.91617e-11
2.22814e-16
3.17534e-05
1.61488e-16
1.3072e-16
2.60612e-08
9.92099e-05
9.26646e-11
4.15346e-18
2.93243e-18
6.45917e-10
1.71142e-16
1.36986e-17
9.04481e-09
2.32841e-16
1.82981e-16
3.14896e-05
1.35765e-07
1.08923e-07
2.3331e-05
1.40736e-07
2.58904e-16
5.55001e-18
9.42786e-09
4.64459e-06
1.71187e-17
4.2539e-16
1.49227e-05
4.72148e-16
2.9849e-16
1.17201e-15
1.71361e-15
1.15953e-15
0.00308415
4.05239e-18
3.20195e-07
2.96442e-16
1.85291e-05
1.8922e-17
1.42773e-15
1.85167e-15
7.26071e-16
2.22215e-17
1.91617e-17
5.18126e-06
2.61302e-19
8.61579e-18
9.49888e-16
1.14991e-16
1.00471e-16
5.04796e-17
1.00226e-05
1.21259e-17
3.49186e-06
2.50783e-06
5.71974e-17
2.89925e-06
5.58965e-17
4.44421e-07
2.09401e-09
2.44326e-12
7.3702e-12
1.02273e-16
1.63024e-11
1.20921e-05
8.36244e-09
4.6661e-16
1.23887e-09
5.36322e-06
1.09078e-14
1.66646e-15
5.10195e-14
7.49457e-16
6.82332e-17
9.78465e-17
1.11488e-17
2.7864e-14
2.38505e-17
9.37045e-17
2.30286e-14
8.24091e-11
8.6286e-16
2.86548e-17
1.28718e-16
9.69689e-07
5.58903e-17
1.31809e-07
8.62741e-17
9.10235e-12
7.72106e-17
1.05477e-16
9.08391e-08
1.70563e-16
1.11523e-07
5.16153e-16
9.29106e-17
2.72503e-06
5.39524e-07
1.00994e-07
2.21607e-05
0.000265255
1.40102e-05
2.13357e-17
8.88979e-15
1.82391e-06
1.48932e-07
2.11529e-05
1.51756e-05
5.87592e-18
8.95706e-06
1.25456e-18
9.26465e-17
8.18758e-06
1.3238e-05
1.3217e-16
4.60072e-07
6.05835e-17
2.73714e-07
6.7303e-08
1.21276e-16
1.00385e-17
6.72891e-18
2.60633e-06
1.88847e-18
3.82741e-17
3.79512e-06
1.86004e-07
5.32777e-09
5.6152e-14
1.31642e-16
1.30576e-17
7.21237e-08
8.71159e-07
1.76093e-16
9.42428e-06
3.61595e-15
2.18696e-06
7.87645e-17
1.6074e-16
1.19394e-05
3.47838e-18
3.92243e-08
2.25874e-06
2.99292e-16
8.94941e-18
2.25036e-06
4.10063e-14
5.59727e-05
3.92282e-16
0.000314496
8.62193e-17
5.07632e-16
4.99315e-17
6.29074e-06
1.95931e-15
9.4439e-17
5.40432e-06
7.13534e-16
2.34947e-07
3.5191e-15
4.17023e-16
8.95576e-17
1.81036e-10
6.22994e-07
1.75042e-17
3.16308e-18
3.76235e-05
7.09216e-07
9.25354e-17
6.94502e-07
2.36031e-17
2.9332e-16
1.24302e-09
5.03574e-06
2.18243e-16
1.11913e-16
8.98614e-18
1.41549e-17
4.00968e-18
8.59762e-17
1.52531e-16
6.41051e-17
2.33187e-17
1.74277e-16
3.13519e-18
5.51694e-18
1.66397e-16
9.35204e-19
1.68368e-17
2.24011e-17
3.50931e-17
3.43259e-17
3.77668e-17
1.30218e-17
2.73902e-18
1.62489e-16
2.01579e-05
2.64724e-18
6.23767e-17
1.07263e-17
5.85092e-06
5.16379e-17
1.95278e-16
0.000265358
1.23722e-15
4.01176e-17
1.94638e-05
3.30359e-14
6.05482e-17
6.38115e-06
2.30731e-05
7.31892e-18
1.64276e-06
2.81013e-06
1.13111e-15
1.51381e-05
4.03474e-05
1.40341e-05
2.91809e-06
1.58952e-06
1.48588e-15
1.94694e-16
2.06564e-06
1.18222e-05
1.22362e-06
3.43889e-18
3.23172e-05
2.00314e-06
1.19855e-05
1.78906e-13
1.5808e-13
7.40109e-06
8.8259e-10
5.88095e-06
3.40435e-17
3.07674e-05
7.28165e-06
2.61669e-06
2.44152e-06
3.16474e-18
1.01094e-17
3.34754e-18
1.95189e-16
1.79418e-17
9.24018e-06
1.22442e-05
6.37528e-19
2.96179e-17
6.00726e-16
3.09005e-18
1.74228e-16
1.19041e-16
1.06157e-16
1.17396e-15
4.53271e-06
1.46311e-07
2.02355e-05
6.59525e-08
1.50975e-16
2.5381e-15
3.3862e-05
4.87914e-09
1.08943e-17
4.73474e-17
1.01918e-05
1.0776e-16
1.99476e-17
5.24693e-07
7.96795e-06
2.45525e-05
3.08419e-05
2.9093e-05
6.35077e-17
2.25604e-16
2.73637e-07
7.52067e-17
1.01713e-16
6.25846e-06
9.13999e-16
1.27625e-16
3.1026e-05
0.00124457
2.59219e-07
2.68396e-15
3.31143e-17
1.09944e-05
3.25848e-05
7.58905e-16
4.72858e-06
3.03862e-06
3.62763e-17
1.99898e-09
2.80183e-12
2.05014e-17
3.6741e-16
2.4175e-05
6.07269e-17
3.19347e-06
6.95787e-16
1.33755e-05
8.39767e-06
1.07463e-15
3.36114e-05
2.31727e-17
5.51606e-16
2.06975e-16
9.08453e-18
5.45009e-11
0.00091577
6.13402e-18
4.51052e-18
8.00096e-09
2.05855e-05
6.15765e-07
3.9126e-06
1.85215e-05
1.5281e-11
8.79282e-06
4.63078e-16
5.95423e-16
1.03826e-15
3.63841e-05
1.57169e-06
2.95402e-11
1.8766e-16
1.73342e-16
1.89055e-15
2.26521e-05
4.35853e-06
3.07721e-18
3.3717e-06
6.00901e-05
1.0506e-05
1.17331e-06
5.73573e-17
1.34875e-15
5.76797e-07
2.16424e-05
7.58271e-18
2.35175e-07
1.40103e-05
1.36425e-06
6.96414e-06
3.29576e-06
1.49733e-06
9.24899e-16
4.26032e-12
4.39286e-06
1.04211e-06
1.10892e-12
2.64195e-05
1.98114e-16
1.7312e-05
1.78787e-06
9.60901e-19
1.95974e-13
4.03638e-06
8.7392e-06
7.77095e-06
1.3567e-09
2.15291e-07
2.30738e-08
3.33531e-05
2.89212e-06
1.40536e-16
5.4055e-12
1.94703e-06
2.73444e-17
1.2827e-17
3.77614e-11
9.05527e-09
4.13633e-06
0.0012325
4.41535e-05
1.15728e-05
2.66271e-10
5.09306e-05
5.63392e-18
1.69845e-16
5.40586e-06
4.30314e-16
8.71281e-06
5.82065e-06
2.46946e-06
1.16668e-12
4.6501e-17
1.58023e-07
5.43776e-05
1.61426e-16
4.46975e-05
1.99361e-07
3.49869e-16
5.65231e-07
5.62137e-09
3.52009e-16
6.93642e-12
5.39014e-08
6.73124e-16
4.20727e-17
5.10249e-17
1.888e-13
4.8048e-06
1.54651e-05
4.63247e-17
6.56098e-06
3.12214e-09
4.58761e-16
1.39586e-09
3.2736e-09
1.07597e-11
1.75185e-06
1.31479e-17
5.46191e-06
2.88225e-13
3.13289e-09
3.07579e-09
2.07294e-11
0.000173437
5.63326e-06
5.17785e-16
4.44995e-16
8.5284e-11
1.67647e-16
2.04483e-09
3.50293e-17
1.7195e-18
4.59136e-16
1.38038e-17
1.59174e-17
3.64595e-06
1.48872e-17
1.52179e-09
2.12663e-06
3.40041e-16
5.71716e-06
4.3657e-15
1.77567e-11
1.13928e-17
1.89254e-08
1.07651e-15
2.13534e-05
1.79991e-07
2.26645e-09
6.4739e-09
5.16686e-11
1.95018e-05
4.03388e-12
6.65099e-09
2.92442e-15
1.20641e-08
4.9502e-05
8.67361e-09
3.47101e-16
3.58386e-07
3.37049e-07
8.44458e-09
1.48454e-05
9.45369e-07
9.49723e-16
2.35036e-15
2.07956e-17
5.37595e-06
3.00216e-16
8.11876e-08
1.09985e-13
6.63836e-07
4.4795e-07
4.79931e-17
2.70886e-16
3.65938e-17
9.54825e-06
2.84172e-05
1.53896e-09
1.12396e-08
2.85143e-13
3.04834e-06
6.08965e-06
1.99991e-06
3.90692e-11
4.16407e-06
1.87694e-06
6.39882e-16
7.44564e-17
1.08861e-17
1.49441e-05
8.94883e-06
1.36877e-15
9.54936e-18
1.64703e-15
4.80969e-05
2.1838e-10
3.29326e-16
4.92115e-06
1.67113e-17
5.68421e-10
7.17078e-06
0.000101516
4.66944e-17
2.20422e-17
4.77795e-06
5.42521e-17
1.2484e-07
2.84192e-09
3.99959e-16
1.33252e-05
3.8496e-05
5.41263e-13
8.93412e-17
1.23592e-06
5.03052e-16
6.74671e-08
5.68219e-05
5.34749e-16
2.9822e-16
3.33615e-09
2.73074e-15
2.54154e-16
6.63275e-09
3.46176e-14
1.59394e-16
3.44474e-16
1.16633e-15
1.24395e-05
1.46182e-06
4.08535e-06
2.1717e-05
1.21238e-05
2.88449e-16
4.1332e-10
6.46298e-07
4.72923e-17
1.23093e-18
1.5937e-16
1.43622e-16
1.19523e-16
1.25992e-16
7.31822e-16
1.4458e-16
2.27552e-16
1.13629e-15
2.16094e-12
2.22622e-16
5.29418e-07
6.21229e-16
1.01493e-07
5.44775e-16
7.82023e-08
1.30615e-16
4.84885e-17
2.36195e-05
1.03284e-05
1.81939e-16
0.000101863
3.73364e-13
2.09339e-12
2.13551e-17
1.25849e-06
1.85641e-14
2.64344e-06
7.37768e-09
1.28443e-06
3.97613e-16
2.12512e-16
6.20562e-07
5.81191e-11
5.14479e-17
1.16721e-16
4.61241e-05
1.48955e-15
4.40457e-05
4.20583e-16
4.52991e-18
5.65545e-10
3.1951e-05
8.975e-06
1.55972e-16
5.05751e-07
2.25187e-15
1.52449e-06
1.65722e-08
3.16453e-08
6.3298e-07
3.21693e-17
2.36769e-05
9.71013e-07
7.50153e-06
1.02623e-17
3.53363e-17
4.60388e-17
6.98586e-06
4.9677e-08
1.40242e-05
9.38728e-18
2.72924e-10
3.83442e-17
3.18264e-17
9.19387e-16
2.3657e-17
2.48045e-06
1.42241e-06
2.52215e-06
0.000350371
1.63102e-17
3.6189e-05
3.93008e-05
1.82793e-07
1.10956e-06
7.28773e-17
3.59797e-07
3.2809e-06
5.97449e-06
8.48768e-10
8.88446e-06
2.37662e-16
2.36458e-06
8.77139e-07
3.76524e-05
7.06677e-10
3.33897e-06
2.87229e-16
2.37906e-05
3.24707e-16
1.94304e-16
1.67287e-06
6.57265e-16
9.78848e-06
4.87603e-16
1.80124e-16
1.77184e-15
6.25473e-17
1.63047e-18
6.19406e-07
3.51932e-16
7.34614e-07
4.23614e-16
4.42315e-17
2.47596e-05
6.86243e-06
3.16948e-06
1.09648e-05
1.49598e-17
0.000641125
1.9851e-16
7.51825e-05
4.28535e-18
2.34925e-05
1.9988e-05
1.88416e-06
6.62337e-05
5.85079e-16
6.19512e-16
5.46036e-18
5.62674e-07
1.28503e-16
6.71416e-17
1.74636e-06
4.95353e-16
2.16733e-16
4.5021e-06
2.91812e-16
9.89075e-06
1.14758e-10
2.90461e-17
6.04051e-17
4.15369e-17
1.75945e-06
6.51999e-06
1.86401e-16
7.33788e-16
2.48797e-07
5.67497e-16
0.000125091
1.0307e-16
8.71085e-07
1.77995e-05
9.36817e-07
6.76761e-16
2.16896e-05
7.54834e-06
9.48853e-07
4.49957e-06
1.67403e-05
1.20339e-17
3.65673e-16
1.86969e-09
7.3698e-17
1.89564e-17
6.75536e-17
2.65956e-06
4.96302e-05
6.16329e-06
1.18828e-06
3.40384e-16
4.60242e-05
4.84091e-05
4.88352e-06
3.77692e-06
8.25392e-06
2.41171e-05
2.15413e-06
1.63724e-17
6.8149e-18
7.87517e-18
5.49979e-06
4.87466e-17
2.93426e-05
1.21519e-15
8.21956e-07
3.12254e-10
6.10519e-07
4.31904e-10
9.39124e-18
3.96077e-16
2.45313e-06
3.57475e-07
1.28905e-16
2.45532e-17
1.57487e-17
7.56455e-08
1.79508e-07
1.03253e-07
6.55537e-07
7.13767e-13
9.46619e-05
4.95598e-16
1.90877e-16
1.36304e-16
1.34015e-13
1.45737e-05
1.44814e-15
3.19618e-05
3.58447e-07
2.20084e-06
3.57878e-17
1.70564e-16
6.75026e-16
6.95891e-17
1.55505e-13
2.3346e-05
6.17126e-17
5.40866e-16
7.565e-16
8.78719e-17
8.08229e-17
2.51315e-16
1.18913e-05
1.82166e-15
1.43293e-06
0.000401894
2.29696e-16
1.79219e-08
2.93987e-15
3.56881e-08
1.49988e-17
2.52265e-16
4.22614e-06
4.29712e-17
1.4775e-05
1.27626e-09
3.6938e-06
1.58347e-16
6.15147e-15
3.06762e-17
4.70334e-17
1.57991e-16
2.57095e-15
0.000219894
1.06686e-16
4.65012e-06
3.15615e-06
4.24638e-17
1.23156e-15
2.08961e-06
5.82018e-16
3.75976e-17
1.29469e-05
5.78341e-08
1.56564e-17
1.18663e-15
1.06768e-16
6.506e-09
2.80183e-16
3.12957e-16
3.72543e-07
2.11435e-06
2.70242e-06
2.78244e-16
1.95649e-16
3.47049e-16
3.06604e-06
1.50717e-06
1.02552e-05
2.8318e-06
3.26517e-18
3.24127e-10
2.02899e-15
1.51673e-14
3.71473e-17
1.0667e-15
6.70717e-17
1.9306e-17
4.5823e-16
2.80122e-05
8.40163e-06
2.69884e-06
3.13346e-17
7.38183e-18
2.68959e-16
7.94706e-17
1.00253e-16
9.86292e-10
3.34846e-15
2.12201e-18
1.04369e-16
1.36143e-15
7.25159e-17
3.76248e-12
3.27254e-05
0.000125096
1.80118e-17
1.25988e-13
1.0987e-14
1.71832e-16
4.07331e-16
2.19646e-06
7.01861e-06
5.93526e-17
1.43215e-15
3.93795e-06
4.60211e-16
1.50916e-06
5.46254e-07
0.00244403
9.19343e-17
4.29039e-16
2.43395e-06
3.65267e-07
8.89661e-17
0.00077262
1.03577e-15
8.83142e-06
1.14979e-16
7.5448e-16
2.74663e-16
4.83458e-17
4.59735e-12
5.76239e-10
1.24837e-15
3.08485e-05
1.84328e-05
0.000996747
1.32851e-17
7.06701e-17
4.47525e-17
4.71827e-17
5.67494e-06
4.32076e-11
6.13141e-16
4.70472e-16
1.86276e-09
1.64497e-06
5.64074e-09
1.07145e-16
2.33356e-16
3.05539e-05
2.45481e-16
2.29427e-16
8.23843e-18
1.58511e-16
2.66879e-05
5.78006e-16
2.26627e-17
5.13328e-17
2.68777e-08
1.91657e-05
5.32014e-17
2.61831e-16
8.81428e-18
1.7402e-05
1.18717e-10
2.37695e-16
4.61099e-17
1.25823e-15
1.06263e-15
2.7001e-06
1.00174e-05
3.48174e-19
2.20406e-06
8.19591e-07
4.65604e-06
2.12191e-16
3.401e-16
6.05156e-17
6.38434e-17
1.22628e-17
2.85431e-05
2.98524e-15
1.82089e-05
4.42544e-17
1.26702e-06
7.94863e-16
1.79161e-06
1.64135e-17
6.68634e-17
1.34019e-05
0.000256849
4.03202e-15
2.60638e-06
4.72295e-16
2.91594e-07
1.73029e-17
4.19895e-16
1.56846e-16
1.54561e-10
1.98657e-16
4.67228e-07
1.41525e-16
3.84724e-05
5.32025e-17
2.66869e-15
1.56756e-17
1.4269e-16
6.42144e-09
1.77415e-07
1.81317e-18
5.17952e-06
3.71308e-18
4.87641e-06
2.0583e-05
1.04348e-06
2.42363e-17
4.19928e-09
3.31339e-07
1.35626e-09
7.38244e-06
4.4321e-10
1.20191e-06
2.48932e-15
3.31172e-17
4.00164e-10
2.19587e-06
1.88128e-07
2.32161e-16
1.45706e-16
5.13434e-16
0.000564854
7.47736e-17
1.06053e-16
5.78798e-17
4.83208e-16
1.5685e-16
9.81406e-08
1.50416e-07
8.84417e-07
2.80815e-06
4.21279e-16
1.30696e-06
2.66701e-16
8.53291e-06
6.52044e-16
5.91153e-18
7.31913e-18
1.25813e-16
2.50062e-08
5.16896e-17
9.36549e-17
6.0414e-16
1.59295e-05
8.42031e-16
7.14255e-18
1.42653e-05
1.08774e-15
5.10973e-05
8.55194e-05
0.000470277
1.73956e-16
0.000246172
0.00147689
0.0020838
0.000821496
1.66345e-16
1.27839e-18
4.90628e-06
6.5905e-06
4.1953e-16
4.26582e-06
1.26476e-17
3.07262e-05
6.87793e-16
1.39995e-16
5.01564e-07
5.80162e-16
9.03198e-16
9.99264e-09
2.80264e-08
4.24041e-17
3.60236e-17
2.78729e-09
1.14517e-15
5.91724e-16
2.40384e-08
8.28609e-06
1.00534e-06
1.02772e-15
6.77314e-06
4.71796e-16
1.4748e-06
5.02729e-10
5.87076e-06
8.45498e-17
6.25619e-12
5.43822e-06
7.79517e-17
5.13918e-13
7.98386e-17
3.55876e-05
6.7707e-17
1.11911e-05
9.25003e-17
4.99312e-10
3.72865e-17
2.95183e-16
7.72659e-17
1.02238e-13
4.79839e-13
1.79647e-16
1.12092e-05
6.85181e-06
5.08092e-17
7.97724e-17
3.87141e-05
4.46204e-16
0.000218076
1.50481e-16
7.64576e-08
2.43959e-05
5.17303e-05
3.54571e-12
9.66183e-18
7.17605e-05
8.66926e-17
0.000261868
3.37112e-16
1.83019e-11
1.9186e-11
1.17586e-17
5.1905e-06
1.47098e-15
2.67951e-05
9.05898e-18
2.83496e-16
1.83859e-16
6.79311e-17
2.53741e-16
1.19776e-16
3.19771e-07
2.04407e-05
0.000166789
9.73965e-16
3.3934e-16
4.94399e-05
3.87438e-16
3.25613e-19
1.76292e-16
5.32536e-16
1.01506e-15
3.27677e-16
4.74165e-17
2.03027e-16
2.49492e-18
6.95292e-16
1.03949e-15
9.18868e-18
4.7513e-16
4.77261e-13
1.32539e-17
1.03632e-12
0.000245857
5.22209e-06
1.93766e-12
3.37752e-12
1.84077e-16
3.27616e-16
1.60703e-16
2.3582e-13
6.26345e-09
2.87373e-17
4.89241e-15
8.295e-13
2.47512e-15
1.33168e-16
0.000373931
2.41833e-16
2.28386e-05
3.3694e-16
3.32279e-12
3.77041e-06
4.90872e-16
2.59561e-18
2.57456e-17
1.46142e-17
3.92424e-16
2.0307e-05
9.52251e-16
1.86315e-12
1.07325e-16
1.68913e-16
6.32377e-08
6.19087e-17
1.76375e-05
1.60538e-16
3.80111e-18
1.94542e-06
3.22583e-06
0.000152231
1.63434e-15
7.71416e-17
1.51411e-16
1.07394e-05
0.000194321
6.30916e-17
6.043e-18
1.78314e-15
7.30666e-07
8.84514e-16
2.64155e-05
3.01063e-05
1.49876e-15
7.49716e-18
4.87681e-07
4.13002e-16
1.62865e-15
6.74068e-19
1.42226e-16
1.84281e-17
7.04039e-05
9.4089e-16
1.83609e-15
1.38262e-17
1.93023e-16
1.29233e-16
1.69731e-17
4.86552e-17
1.16033e-16
1.60995e-15
3.4395e-06
1.60446e-15
2.71579e-07
1.82451e-15
1.25759e-16
0.000660497
2.52023e-07
9.37819e-17
3.49798e-16
1.91287e-16
2.38884e-07
6.87616e-16
8.73774e-16
9.5513e-16
3.1952e-16
6.50196e-07
9.1447e-18
3.3216e-06
9.18359e-17
1.41984e-05
1.18328e-16
5.98049e-05
5.1926e-16
3.63096e-16
1.81242e-05
3.98577e-16
1.61074e-16
2.67606e-08
3.20724e-07
8.27113e-17
2.64556e-17
4.39917e-05
1.55169e-05
2.00728e-07
8.56674e-08
1.52454e-07
1.84055e-05
3.99421e-08
5.60504e-06
3.6068e-16
2.73099e-05
1.1669e-16
2.3351e-16
6.67192e-17
1.57235e-15
2.36327e-16
3.82237e-07
9.08256e-16
1.2471e-17
1.12301e-16
9.82627e-10
1.73498e-08
4.30194e-15
4.07541e-06
9.02467e-16
6.00792e-06
1.24477e-16
7.67302e-10
1.81987e-06
1.25763e-15
5.00166e-05
7.98828e-17
2.05988e-16
1.05698e-17
8.18376e-07
1.34857e-06
5.13629e-17
2.25653e-17
8.2086e-07
7.84527e-16
0.000743131
1.29194e-16
9.80332e-05
1.54111e-16
7.68409e-18
6.51247e-16
6.18848e-17
1.1026e-07
4.40196e-18
5.40187e-08
1.14224e-17
8.42606e-06
2.75486e-16
8.8394e-17
6.80414e-15
4.52968e-16
3.98667e-16
2.14964e-15
5.8819e-16
3.54205e-17
4.11242e-06
0.000249291
2.46899e-15
2.14614e-17
5.09983e-07
2.88505e-18
2.30323e-17
2.11483e-09
2.0122e-05
2.28465e-07
1.91894e-17
3.88049e-11
4.78349e-06
3.43133e-06
1.06147e-05
4.00887e-16
1.53667e-16
9.91679e-18
9.37725e-17
5.95883e-18
4.3888e-17
1.16699e-17
9.18294e-17
3.76505e-17
2.65212e-17
6.68815e-18
1.76669e-18
8.49443e-05
3.69188e-17
7.85671e-17
2.60187e-12
6.62199e-16
2.52444e-16
0.00125414
3.92218e-17
2.28752e-17
1.6213e-06
1.81019e-13
7.0904e-17
2.72382e-16
7.44595e-17
2.15346e-05
1.17899e-16
3.19943e-16
4.21533e-11
1.76808e-18
3.43794e-16
2.6639e-17
8.32956e-17
0.000125179
1.26083e-18
2.26526e-07
2.26922e-17
5.21001e-17
1.12802e-16
3.20966e-16
2.56589e-17
3.75059e-11
6.3799e-11
1.52318e-08
4.28125e-16
3.96437e-16
3.11494e-16
1.09164e-10
2.84727e-16
3.38548e-10
2.35367e-11
6.53434e-19
2.11639e-16
1.60433e-15
1.2945e-11
1.95089e-16
6.23863e-16
2.06158e-12
4.18239e-15
3.5269e-05
1.82444e-17
7.92866e-06
1.98075e-15
2.29025e-09
9.0081e-17
1.67422e-06
2.54684e-17
3.7986e-06
2.23097e-05
6.96902e-16
2.4141e-06
1.08117e-08
8.38682e-17
9.46948e-06
1.45921e-16
7.32771e-17
5.05281e-16
2.60571e-16
1.90223e-16
4.9349e-18
3.00705e-16
3.31503e-16
0.000309195
1.21891e-16
1.83968e-16
6.44953e-17
5.71273e-17
6.34479e-17
3.56373e-05
0.000945097
2.2445e-09
1.594e-08
1.9358e-16
1.69806e-06
1.13376e-06
4.69369e-16
1.8424e-15
2.8525e-15
4.67306e-17
8.57314e-17
5.45144e-16
2.51447e-16
1.42762e-16
3.66866e-07
2.05186e-15
1.63346e-16
1.30956e-07
1.9192e-09
2.28089e-17
3.35537e-05
2.86552e-17
6.84084e-16
2.44339e-16
0.000183769
1.46249e-15
1.23454e-17
3.07095e-05
6.92575e-18
5.30887e-17
2.57018e-16
3.13822e-17
6.29432e-05
6.07972e-17
1.31344e-16