/*--------------------------------*- C++ -*----------------------------------*\
  =========                 |
  \\      /  F ield         | OpenFOAM: The Open Source CFD Toolbox
   \\    /   O peration     | Website:  https://openfoam.org
    \\  /    A nd           | Version:  10
     \\/     M anipulation  |
\*---------------------------------------------------------------------------*/
FoamFile
{
    format      ascii;
    class       volScalarField;
    location    "3.4";
    object      T;
}
// * * * * * * * * * * * * * * * * * * * * * * * * * * * * * * * * * * * * * //

dimensions      [0 0 0 1 0 0 0];

internalField   nonuniform List<scalar> 
111485
(
303.15
284.965
301.369
303.15
298.986
283.15
299.525
292.687
296.969
285.986
300.959
295.848
300.654
284.424
300.493
286.305
283.411
299.944
294.911
303.15
303.15
283.15
297.949
288.142
301.291
303.15
292.745
289.823
289.48
303.15
300.675
283.166
303.15
283.15
283.482
283.15
302.242
283.15
283.149
297.143
283.15
290.152
297.536
302.904
303.184
303.15
287.313
288.011
290.139
303.15
303.15
283.15
303.15
299.524
303.15
290.47
287.441
283.15
283.31
296.112
296.518
303.15
300.849
300.253
283.15
284.303
301.054
291.147
299.638
300.708
303.169
295.026
303.15
300.801
303.15
284.278
283.15
293.595
283.15
283.15
283.25
293.551
283.15
303.15
299.351
284.371
283.15
301.834
303.146
283.247
283.479
289.744
299.609
283.151
290.614
303.15
303.15
301.835
303.15
283.466
303.15
286.528
283.15
285.537
285.369
283.15
283.15
283.19
301.529
283.146
283.153
287.779
301.56
301.835
303.15
283.336
303.15
283.15
300.254
303.15
303.15
283.15
283.15
283.15
283.446
303.153
283.15
283.172
303.15
283.185
303.062
302.227
303.15
283.15
283.15
293.273
283.15
284.132
299.294
301.453
303.141
297.341
299.473
284.791
302.229
283.15
283.15
303.15
283.15
297.807
285.01
303.15
303.144
283.15
283.156
294.475
296.35
302.441
283.154
303.15
303.15
293.006
286.088
283.153
283.157
283.326
283.764
283.15
283.154
283.154
283.15
303.15
283.227
283.15
283.15
283.15
283.15
303.15
303.15
283.15
303.15
303.15
298.258
294.329
296.542
283.15
301.643
285.959
283.196
303.15
283.855
303.15
303.15
286.435
286.01
301.725
296.542
283.15
303.15
300.71
284.568
283.162
301.112
283.255
303.15
286.384
288.659
303.15
283.249
300.019
284.856
285.885
303.15
303.15
286.031
283.15
293.675
283.15
286.493
284.211
290.206
303.15
287.026
300.728
283.15
283.15
283.15
289.534
283.159
283.15
303.15
284.337
283.151
289.383
283.15
303.15
303.104
303.15
284.346
284.267
284.409
284.399
284.438
283.15
283.144
283.472
283.15
283.15
288.552
288.031
283.15
283.154
283.332
303.15
283.15
300.828
303.15
303.15
303.123
303.15
283.393
283.349
283.15
303.15
283.415
303.15
303.15
303.15
283.148
298.064
299.877
299.013
290.703
298.776
296.294
283.219
283.15
283.151
283.15
303.15
283.149
283.194
299.025
283.15
303.15
298.123
297.788
298.314
302.96
283.166
296.717
298.845
301.91
283.15
283.74
283.15
283.149
303.15
283.948
289.754
286.653
303.15
283.15
291.79
283.151
303.15
303.15
303.15
283.271
283.15
301.269
284.592
293.636
283.15
283.15
303.15
292.534
303.15
283.967
289.714
283.153
283.15
303.15
303.15
283.15
291.713
289.425
283.15
292.46
283.15
303.15
301.026
293.741
293.495
292.263
283.15
283.15
283.15
293.177
283.15
302.346
283.15
283.15
283.148
289.59
290.037
283.235
291.158
283.15
293.419
294.514
284.194
298.675
285.051
283.15
303.15
283.15
303.15
290.039
288.637
288.604
292.827
283.15
286.086
283.15
303.15
294.491
303.15
302.177
303.15
283.15
292.632
283.15
283.15
284.664
283.15
283.932
294.709
283.15
296.139
284.915
295.541
303.062
283.15
283.15
283.15
303.15
303.152
283.15
301.347
300.83
283.15
283.15
290.461
284.269
283.15
296.233
283.15
295.145
296.023
283.15
302.21
283.856
303.15
303.15
283.15
299.207
283.15
303.15
303.15
303.15
300.532
283.15
303.15
293.444
283.17
287.156
300.438
283.15
283.15
302.753
283.15
302.619
301.738
298.519
290.152
283.15
283.162
303.391
303.15
299.243
291.836
303.15
283.15
283.304
283.15
289.992
286.552
283.15
283.15
283.15
296.176
283.15
303.147
283.15
303.15
303.15
283.167
283.15
283.15
284.369
303.142
283.15
303.15
303.15
303.15
301.588
283.15
285.964
284.251
284.283
283.15
285.709
303.15
301.109
283.15
303.15
303.15
300.886
303.15
303.15
283.151
303.15
283.15
301.074
283.15
283.15
283.15
303.15
283.15
303.15
283.15
283.694
283.15
303.142
301.668
283.78
283.15
303.108
283.15
303.15
284.541
284.525
286.056
298.2
283.15
298.272
298.356
283.15
283.151
285.04
303.15
283.15
283.15
300.43
283.15
297.538
283.15
283.153
298.666
303.15
283.15
283.151
303.15
296.274
299.699
283.15
283.15
283.15
283.15
303.15
294.393
283.15
283.15
283.263
283.15
300.368
283.15
284.768
303.15
283.411
303.128
284.176
283.152
283.15
283.15
283.15
283.15
285.611
283.15
283.272
283.15
300.241
303.15
291.288
303.15
283.15
302.441
284.346
300.613
285.443
300.633
288.952
283.15
301.077
284.412
283.15
283.14
300.822
301.893
283.15
282.303
301.401
303.084
283.12
303.15
287.191
302.393
284.281
285.268
283.151
282.431
283.15
303.15
301.027
303.15
283.599
283.15
283.15
283.23
282.644
303.15
303.123
283.15
286.126
300.033
283.15
283.15
300.031
303.15
283.15
283.15
283.15
285.981
283.15
303.15
284.731
283.239
303.15
300.102
283.15
283.722
303.15
283.15
286.042
283.15
283.15
283.15
283.15
283.15
285.405
283.247
303.15
300.515
283.421
299.308
301.112
283.408
283.454
283.15
289.237
299.066
303.15
297.349
296.078
297.467
283.15
298.033
297.665
303.15
300.078
303.139
283.15
297.793
284.914
283.15
283.242
296.508
284.908
299.35
301.027
283.241
283.15
299.45
283.439
303.15
300.983
302.179
283.309
283.15
283.15
303.15
283.15
283.15
283.15
283.322
283.15
303.15
303.15
283.15
300.709
299.91
303.15
285.544
303.15
303.15
303.15
289.683
283.439
283.15
303.15
283.15
283.15
287.412
283.292
283.15
295.951
283.134
283.15
296.126
302.41
283.151
283.15
283.15
298.552
283.283
283.15
283.15
283.15
286.924
303.15
303.15
283.15
296.944
302.421
283.15
282.697
301.97
283.151
283.15
283.15
287.147
303.024
283.15
283.16
287.852
283.819
283.15
283.15
285.824
300.321
283.15
303.15
283.15
283.15
283.15
283.15
296.351
303.15
283.15
283.15
296.003
283.277
303.15
303.15
289.729
283.281
283.299
303.15
283.15
283.281
303.15
284.004
283.308
283.34
303.15
303.15
303.15
283.15
285.853
283.15
283.15
302.674
303.15
288.729
302.424
283.15
283.266
283.258
288.554
291.549
283.487
290.03
283.15
283.15
288.514
288.67
283.15
283.15
283.15
298.635
283.15
283.15
283.918
284.637
283.458
303.15
303.15
303.15
283.256
283.15
283.157
283.15
284.279
283.15
283.16
283.312
283.15
283.15
303.15
283.351
283.15
283.15
303.104
283.15
283.15
303.15
283.15
283.161
283.15
283.15
283.15
283.15
283.15
303.15
283.15
283.175
283.165
303.15
302.47
283.127
283.376
283.091
283.16
283.15
284.332
290.406
283.376
303.15
283.15
283.161
283.15
283.156
283.179
283.142
286.172
283.152
283.239
283.15
283.16
283.15
283.15
283.151
283.151
283.15
283.151
290.778
283.159
283.15
283.255
283.15
283.163
283.16
283.15
283.15
283.158
283.149
283.15
283.15
295.403
283.143
303.117
283.162
283.16
283.15
283.15
284.588
283.15
302.979
283.609
283.145
303.148
303.148
303.149
283.15
283.15
285.565
303.15
303.135
283.83
283.15
283.15
303.154
303.15
283.15
303.162
283.15
283.15
303.15
303.15
303.15
303.15
283.387
283.15
283.15
283.15
303.159
283.305
283.87
285.336
283.15
283.15
283.332
283.15
283.15
283.15
287.118
290.157
283.15
283.15
283.15
283.15
283.15
283.15
283.976
283.15
303.151
291.496
283.15
303.15
303.15
303.151
303.15
303.15
283.15
303.166
283.15
283.699
283.144
303.151
283.15
303.067
284.46
292.914
303.15
303.132
284.692
303.15
283.15
303.15
283.15
285.375
293.765
284.654
303.148
283.15
285.047
283.15
283.15
303.15
283.15
295.365
283.15
303.15
283.163
292.15
303.15
284.64
283.15
283.596
283.15
283.15
283.15
303.15
283.154
283.498
284.657
283.15
283.15
283.153
283.15
283.15
303.15
284.61
303.161
299.203
303.15
303.133
303.135
283.15
303.139
283.15
283.518
289.176
300.587
283.833
283.164
283.15
283.15
283.15
303.176
283.15
302.969
303.15
293.489
303.15
288.107
283.81
303.15
283.15
303.15
283.15
302.061
303.15
303.15
283.154
300.957
283.15
283.15
283.15
283.15
283.15
283.15
301.212
283.564
303.15
303.15
303.155
303.15
300.595
283.151
283.15
302.326
303.15
283.15
283.15
302.716
283.15
283.147
303.152
283.339
302.353
300.702
283.147
283.15
289.153
303.15
294.031
303.15
283.15
303.15
283.15
283.15
283.15
301.227
302.275
303.15
303.15
303.15
302.958
283.149
303.15
293.512
283.085
303.15
283.255
283.16
296.687
283.392
283.15
283.15
283.15
283.15
295.094
283.15
295.065
283.15
303.09
289.276
283.15
302.931
283.15
283.15
302.854
283.148
302.919
283.15
303.15
283.15
301.13
283.15
303.15
283.15
283.147
283.15
283.174
283.15
283.15
303.15
283.176
283.158
296.18
297.634
303.15
303.131
283.15
283.15
283.153
283.15
283.158
302.923
283.152
303.007
303.15
283.427
283.15
303.15
283.15
303.028
283.39
293.626
283.15
303.15
287.842
303.15
283.15
283.119
295.2
283.147
283.15
283.15
283.147
303.15
283.15
303.147
303.15
303.15
289.643
303.036
303.05
288.85
283.664
283.15
283.15
303.104
288.878
283.15
303.15
285.032
283.15
303.15
283.15
283.15
283.15
298.178
283.15
302.948
283.15
300.811
283.15
283.15
283.15
283.15
283.15
283.15
285.407
283.15
283.15
283.15
283.15
283.15
283.15
291.239
283.15
293.813
303.009
283.15
302.201
283.15
302.655
303.145
283.152
283.152
303.15
283.155
285.076
303.114
303.15
303.14
288.002
283.15
283.15
283.15
283.15
283.15
283.15
283.15
283.15
283.15
283.15
283.15
303.14
283.15
283.15
283.15
302.443
283.15
283.192
303.15
283.154
283.15
283.15
302.786
283.15
303.177
303.15
283.15
285.147
297.645
283.787
286.093
292.782
292.683
283.15
283.15
302.431
283.741
291.675
284.505
283.15
290.531
283.15
303.15
301.055
298.652
283.15
284.654
283.15
283.96
283.698
303.15
283.15
283.15
302.017
283.15
283.15
300.915
284.115
283.199
283.15
283.15
283.15
302.872
300.931
283.15
301.057
283.15
300.939
283.15
283.15
301.201
283.15
283.222
301.933
283.15
283.15
302.527
283.15
287.545
303.15
290.462
303.15
303.15
303.15
301.26
283.15
283.15
300.01
283.15
302.996
283.15
283.15
303.15
283.15
287.758
283.15
283.15
287.628
287.795
283.15
283.81
283.15
303.15
302.593
283.853
283.15
283.15
283.15
283.15
283.15
283.15
283.15
283.15
283.15
283.15
283.15
283.15
303.15
283.15
283.15
283.15
283.15
283.15
283.15
283.15
283.15
303.15
286.622
283.15
283.15
283.15
295.18
283.15
303.15
303.04
283.15
283.15
295.246
283.15
283.15
302.078
295.698
283.15
303.492
303.533
283.15
301.603
294.605
297.777
300.359
286.956
303.15
283.15
291.017
289.763
300.626
283.15
296.089
302.387
299.923
283.15
283.15
300.474
283.164
300.028
303.15
285.998
296.829
285.891
296.728
283.15
283.15
283.15
303.15
283.15
289.839
297.686
283.15
283.15
283.15
283.15
283.15
303.15
283.15
303.15
290.65
303.138
298.094
302.806
283.15
283.15
285.253
283.174
283.15
283.15
301.46
303.15
283.15
297.424
298.797
297.081
299.286
301.215
303.15
283.15
301.06
303.15
303.15
300.285
303.15
283.15
282.807
295.951
302.957
283.15
303.15
290.206
286.419
283.15
290.063
302.544
303.15
303.137
303.15
303.15
283.15
298.457
283.15
289.539
283.15
300.06
284.61
303.15
287.109
303.15
283.15
303.15
303.15
283.158
300.217
283.15
303.15
303.142
289.518
303.065
291.599
290.943
283.154
290.796
283.15
303.15
283.15
292.137
286.43
303.151
303.15
303.15
303.15
297.984
302.485
283.15
286.515
301.285
285.231
286.451
303.15
303.15
286.407
290.731
283.15
302.954
300.015
302.556
287.795
287.391
287.57
303.15
283.152
288.285
284.302
283.15
289.779
303.15
287.894
287.029
303.15
283.151
285.749
289.411
291.792
283.146
283.162
283.251
301.943
286.065
303.15
283.151
285.446
303.15
283.15
303.15
303.207
297.68
291.821
296.364
303.24
283.149
297.659
303.15
303.15
290.766
303.15
290.778
283.313
285.402
283.152
303.15
283.625
290.9
303.15
283.005
283.986
303.15
283.729
283.277
303.15
303.15
283.929
303.15
283.15
283.15
283.15
299.592
292.075
303.15
285.538
283.199
283.15
283.206
283.225
283.152
303.101
283.15
291.105
283.15
283.211
283.194
283.152
291.238
302.387
303.15
283.15
283.153
303.15
283.22
283.15
283.15
303.15
283.15
303.15
297.681
283.15
283.181
283.729
303.15
283.953
283.15
283.155
303.15
303.146
303.15
294.04
302.987
303.123
283.213
283.155
288.937
283.152
283.246
303.15
283.226
291.797
283.245
303.15
283.449
283.47
283.247
287.089
283.54
303.15
283.15
303.15
285.659
303.15
303.258
283.15
303.255
302.939
303.15
303.15
283.15
296.288
300.322
283.192
303.086
283.151
291.478
290.9
292.196
283.159
290.429
291.17
283.15
283.15
303.15
285.751
287.063
283.15
283.15
303.15
290.518
283.162
303.15
291.208
303.15
283.156
285.508
300.95
303.15
303.15
291.806
303.15
283.342
283.229
283.15
297.443
294.176
283.151
303.15
302.714
283.15
302.792
294.257
303.15
303.15
283.191
283.15
303.15
283.304
283.15
303.15
303.15
283.15
287.782
303.272
289.929
300.258
297.584
303.15
303.156
302.631
303.15
283.15
303.15
303.15
303.15
303.15
303.15
303.15
303.15
283.15
303.15
303.15
283.398
303.15
303.265
303.15
303.162
303.15
303.15
301.34
303.669
303.15
291.77
303.15
303.15
283.15
302.678
303.15
302.283
303.115
283.307
283.15
303.15
302.988
283.149
303.15
303.15
291.957
283.15
293.205
283.15
283.15
283.148
291.84
284.687
303.15
296.273
283.15
303.558
303.135
283.235
302.729
283.15
292.778
303.09
301.7
283.15
303.15
283.15
303.808
283.301
289.33
303.15
303.15
303.15
303.15
303.15
303.15
302.549
302.9
290.007
292.375
303.15
287.737
293.239
283.249
303.202
283.15
283.665
302.857
284.493
283.147
286.926
303.15
283.437
302.984
293.172
302.928
301.973
303.15
302.162
303.15
303.15
297.601
303.15
284.757
303.15
303.15
283.15
303.15
303.15
302.927
303.15
283.307
283.15
283.15
286.33
285.051
293.219
286.357
303.15
295.397
303.15
290.091
303.15
287.774
301.08
301.802
293.182
303.15
303.15
303.15
284.456
283.15
303.15
284.307
283.15
283.15
302.106
303.15
285.746
283.147
283.15
303.15
303.15
290.333
298.809
303.15
283.15
303.06
283.15
298.291
303.15
283.67
287.777
283.954
303.15
296.744
292.045
302.953
302.14
301.605
303.15
303.15
303.147
303.15
283.15
303.15
284.629
299.764
291.561
302.254
283.15
300.809
292.034
298.8
283.698
298.969
290.447
302.362
283.15
283.15
283.15
302.397
283.15
290.794
283.15
301.58
303.158
284.67
283.182
283.15
303.15
301.568
301.543
303.15
283.15
303.15
283.93
301.78
303.029
302.529
283.151
287.805
303.15
303.15
303.15
283.15
286.385
283.15
296.644
283.348
303.016
303.15
303.15
283.15
283.15
283.15
300.025
303.15
303.15
283.15
303.15
303.15
303.15
300.735
303.15
285.364
293.319
283.15
283.254
283.15
283.651
303.15
303.15
302.15
303.15
299.725
283.146
290.192
303.15
303.15
283.15
303.15
303.15
303.15
305.568
303.15
302.106
296.113
303.15
303.15
301.905
303.15
283.15
286.832
303.146
303.15
303.15
303.15
283.248
303.15
303.15
302.63
302.646
302.058
303.15
283.15
303.15
302.271
302.663
301.826
302.686
283.15
283.161
283.15
283.15
283.15
303.15
303.15
303.15
303.15
294.202
287
295.37
303.15
303.15
303.15
303.15
283.15
303.151
283.15
283.15
283.15
303.15
303.15
283.147
299.933
295.071
283.15
303.15
303.15
303.15
303.15
288.613
289.838
303.15
303.15
302.287
303.15
291.669
283.694
292.267
303.15
283.15
291.994
303.137
303.15
303.485
283.15
287.411
303.15
303.15
303.15
303.15
283.153
283.196
303.15
302.645
298.873
290.822
303.15
303.15
303.15
303.15
299.985
303.151
303.15
303.15
283.195
302.498
283.261
303.15
303.15
298.536
303.15
303.15
303.15
303.15
288.428
303.15
283.15
283.15
283.397
291.12
303.15
303.15
303.15
297.53
303.147
303.15
303.15
303.15
303.15
303.46
301.225
303.15
287.237
302.774
299.379
303.15
303.15
303.15
303.15
283.15
286.163
303.15
302.827
283.15
302.39
303.15
303.147
303.15
283.15
301.845
286.545
283.15
302.921
303.15
302.579
283.15
303.15
303.15
303.151
303.15
283.286
303.15
290.291
283.15
283.15
303.15
303.15
283.291
302.493
283.15
302.519
283.15
284.356
287.925
302.758
283.15
303.154
303.026
303.141
284.683
283.156
303.035
283.15
283.15
283.156
284.515
302.484
303.15
283.15
283.15
296.394
303.15
283.15
303.15
303.15
303.15
303.1
303.082
302.992
290.204
303.15
302.964
303.15
285.058
303.15
303.15
283.15
303.15
303.116
303.15
283.15
303.15
287.774
303.15
303.15
303.176
283.15
303.446
302.825
298.397
303.15
291.699
297.024
284.638
292.093
283.15
283.15
286.75
284.549
283.15
303.615
283.15
286.014
303.15
283.15
303.161
303.15
303.15
303.005
303.155
303.15
283.15
303.14
303.15
283.15
283.101
299.167
302.661
303.15
301.941
303.15
284.264
303.151
301.443
303.15
303.15
301.227
303.15
303.15
303.15
287.339
303.15
284.994
303.15
303.146
303.15
283.15
283.15
303.15
303.15
303.15
288.401
302.695
303.15
303.15
288.987
283.15
292.085
303.15
302.745
287.222
287.422
303.15
303.15
288.447
283.15
292.538
303.15
303.152
303.15
303.15
295.461
283.15
302.268
283.15
303.15
303.15
303.15
303.15
303.15
284.538
300.091
291.721
303.15
303.15
291.232
303.15
303.15
303.15
303.15
303.15
283.15
303.15
303.15
283.15
283.15
303.15
283.15
303.15
283.15
283.15
283.151
290.878
302.672
283.151
283.151
303.15
303.15
303.15
283.151
283.277
283.15
303.15
283.151
303.15
303.15
292.696
303.15
287.429
303.15
283.153
284.417
303.15
283.15
303.15
303.15
303.15
285.466
303.15
283.151
303.15
303.15
283.53
283.15
284.975
303.15
303.15
288.396
297.18
297.03
303.15
303.15
303.15
296.566
292.642
303.15
283.15
303.15
283.784
303.15
284.997
296.923
303.15
303.15
283.656
303.15
303.15
283.15
303.15
283.15
295.333
303.15
283.15
303.15
303.15
303.15
303.15
303.15
303.15
283.15
297.278
283.15
283.408
303.15
303.15
296.279
283.785
303.15
283.15
303.15
283.542
283.15
303.15
303.15
303.15
284.631
303.15
298.216
303.15
286.351
283.15
286.541
303.15
303.15
299.002
283.15
303.15
283.25
283.258
303.15
303.15
285.23
283.997
283.579
283.466
283.608
292.76
283.437
283.841
303.15
298.352
283.15
283.15
303.15
303.15
303.15
283.499
303.15
303.15
303.15
303.13
283.174
283.15
283.609
303.15
301.997
283.15
303.146
284.789
283.15
294.55
303.15
303.15
283.15
284.551
283.912
303.15
283.15
284.718
303.15
297.897
303.15
295.705
303.15
283.15
303.15
283.15
283.502
283.15
283.239
283.15
285.958
303.15
303.15
283.15
283.15
303.15
303.15
303.15
303.15
284.711
285.118
283.15
303.15
283.237
283.15
283.15
303.155
290.699
283.607
283.15
283.156
285.01
297.885
288.892
303.15
303.15
303.15
303.15
283.15
283.15
283.15
303.15
283.15
283.15
303.15
283.15
297.496
283.15
303.15
283.15
303.15
303.15
283.574
283.15
303.15
302.16
303.15
303.15
303.15
303.15
288.214
283.15
303.15
303.149
283.15
303.15
303.15
303.15
295.085
283.15
283.192
303.15
303.15
303.15
303.15
303.15
303.15
303.147
283.371
303.15
283.15
303.15
303.15
303.15
303.148
303.15
283.15
283.15
283.15
303.15
303.15
283.15
303.15
283.15
287.37
283.15
301.805
283.15
303.154
303.15
284.464
283.15
284.355
297.88
303.15
284.535
303.168
303.15
297.884
283.15
303.15
303.15
303.15
303.15
283.15
303.15
303.15
299.276
283.15
303.15
303.15
303.15
303.15
291.658
291.516
303.166
283.169
303.15
302.083
302.512
303.15
283.15
283.15
303.15
303.15
303.15
283.15
283.15
283.758
303.15
303.15
303.184
303.151
283.15
289.576
303.15
283.15
303.15
288.504
303.15
283.15
302.152
283.15
283.15
283.15
303.15
299.739
303.15
303.15
303.15
283.15
284.422
293.965
295.748
290.401
303.146
303.06
283.15
283.15
301.174
283.652
283.15
303.149
303.15
303.15
283.15
294.975
303.15
283.15
303.029
303.15
303.15
283.753
303.15
303.15
288.819
290.216
303.15
283.15
303.15
283.15
303.15
303.15
303.15
303.15
283.907
303.15
303.15
303.15
302.996
303.15
303.15
283.15
283.15
283.15
283.15
303.003
283.15
283.15
301.215
303.15
284.668
284.812
303.15
301.452
303.15
283.15
303.15
283.15
283.15
303.15
303.15
303.15
302.747
303.15
303.15
303.15
283.15
303.15
283.15
286.369
303.15
303.15
291.934
303.15
283.15
283.15
302.494
303.15
303.149
283.15
303.204
283.15
283.15
283.15
299.604
283.15
283.15
303.056
303.159
283.15
303.165
303.151
303.152
283.15
283.15
302.733
283.468
285.878
301.25
283.161
283.15
283.163
301.855
301.799
283.15
300.634
283.154
297.645
302.419
302.811
284.987
283.196
299.785
283.15
286.679
300.523
303.15
283.15
283.15
302.843
283.717
283.15
301.498
283.15
303.15
301.241
303.15
294.108
301.781
283.694
285.24
303.15
283.15
302.162
301.554
283.144
303.17
283.217
302.797
302.008
301.205
303.15
303.211
301.17
294.948
298.118
289.531
302.987
301.453
301.915
302.031
283.793
302.639
283.15
283.178
303.15
302.955
303.15
303.15
302.267
302.352
283.15
303.15
284.888
292.53
291.64
301.379
303.15
284.076
283.15
284.475
303.15
283.298
303.15
295.735
295.184
300.761
303.148
303.15
303.15
302.195
301.562
302.859
303.15
292.103
302.85
290.86
283.15
297.788
283.15
303.15
298.314
283.15
283.207
283.15
302.596
303.113
303.15
302.966
283.151
283.147
300.839
302.402
283.222
283.613
296.117
283.15
283.48
303.134
285.097
283.184
283.321
297.093
300.595
300.647
287.121
302.017
290.338
283.165
303.15
302.83
302.787
302.647
283.746
302.868
283.15
302.246
291.512
303.15
283.423
283.15
301.521
302.665
283.153
283.15
287.527
302.716
296.689
303.15
303.15
295.262
283.15
292.895
283.415
303.15
283.153
290.533
283.874
303.15
295.297
297.617
284.387
301.559
293.265
283.302
300.266
303.126
303.15
303.15
283.654
302.749
283.338
286.165
303.15
303.008
303.071
303.15
285.281
300.455
283.15
283.263
299.495
302.513
283.204
287.502
283.15
303.113
299.043
283.895
283.15
303.15
303.103
303.15
303.15
284.249
302.684
295.672
283.056
283.151
303.15
283.15
303.012
303.077
302.026
301.652
303.15
283.15
283.15
301.973
302.005
283.23
293.44
303.15
303.15
301.887
285.925
283.264
301.907
301.929
301.977
284.329
303.15
283.15
298.006
283.15
303.15
302.804
302.228
285.05
285.1
302.313
303.035
303.15
298.721
284.322
283.15
303.15
283.15
283.15
283.299
283.152
302.241
286.062
283.185
297.817
289.736
283.152
303.15
303.15
283.15
283.15
302.238
283.151
300.843
301.888
283.697
287.699
302.468
283.15
283.15
283.034
303.15
303.15
300.433
296.707
302.38
283.145
283.15
283.976
283.15
283.15
283.151
303.082
301.245
299.59
283.15
283.425
303.105
283.152
303.15
283.15
302.567
283.263
301.151
283.456
283.57
303.065
283.147
283.15
302.854
283.155
302.355
283.157
291.216
285.122
303.15
284.456
283.168
283.15
283.295
285.307
284.584
283.15
283.15
301.936
283.15
283.15
302.056
301.473
301.656
283.477
299.697
290.828
283.15
303.285
292.39
283.15
283.15
283.15
303.15
298.33
302.137
298.901
292.148
297.312
289.537
283.155
283.311
283.151
303.057
291.344
296.367
291.506
283.15
286.359
291.763
301.76
283.15
284.169
300.076
283.15
303.15
283.199
291.396
303.15
283.949
302.153
303.054
303.15
283.15
283.15
303.152
301.958
283.15
283.15
283.15
302.278
297.897
303.141
284.068
303.163
303.15
283.826
303.163
289.837
283.15
283.15
286.322
283.159
283.15
283.15
285.175
283.159
283.15
289.591
283.154
283.151
283.151
283.153
283.15
285.054
283.178
302.346
286.018
283.148
283.146
283.153
283.077
283.153
283.15
289.715
283.436
289.706
283.409
283.122
284.565
283.15
290.397
290.655
298.312
283.38
283.15
300.76
283.15
302.798
283.15
303.15
285.974
286.237
283.15
283.348
298.041
286.975
303.15
303.15
301.843
284.447
303.04
283.755
283.162
287.447
303.147
284.393
288.091
303.15
301.719
283.15
283.15
285.623
283.726
283.144
284.2
283.407
286.276
300.978
303.15
285.501
283.348
290.843
303.15
303.15
301.886
302.256
303.15
293.535
283.15
283.804
283.15
283.212
290.03
303.15
302.969
294.557
285.101
283.15
285.636
292.345
299.943
283.169
283.509
282.895
302.178
303.144
283.15
303.14
303.15
300.392
292.97
283.278
283.15
283.15
283.15
296.044
285.467
283.22
294.427
283.15
297.683
303.165
292.989
284.23
303.149
285.487
283.15
288.73
283.15
283.15
287.694
283.15
303.143
285.154
283.15
293.288
283.15
283.15
283.15
303.142
283.15
283.136
286.298
303.15
283.15
303.162
283.178
288.179
289.833
303.218
302.973
289.692
303.15
283.152
303.168
302.233
284.345
283.15
283.152
303.15
303.112
283.588
283.15
283.15
283.452
286.229
303.086
303.148
287.419
289.205
283.517
283.168
283.178
290.366
303.15
283.15
303.115
303.15
302.511
284.593
296.704
303.11
283.174
283.573
284.188
302.825
302.305
286.59
293.649
303.1
291.253
283.415
303.15
303.114
302.724
285.485
283.441
303.15
285.88
283.406
302.987
301.458
302.297
283.15
300.792
302.132
303.15
302.229
285.207
303.15
298.539
303.15
283.15
301.047
302.699
286.211
302.578
283.15
283.15
303.029
283.15
299.736
285.1
294.554
284.26
303.15
303.004
302.844
286.225
283.15
286.48
283.153
289.474
284.918
298.202
303.15
283.15
283.15
283.15
283.15
297.948
287.159
283.154
283.15
283.163
283.15
303.15
283.15
299.525
283.15
283.151
285.268
300.063
303.113
303.157
292.735
295.151
288.216
283.26
300.308
283.145
303.15
303.156
300.056
283.15
302.551
283.15
303.15
297.83
286.99
300.219
283.15
288.729
283.15
287.452
287.463
298.899
303.068
283.15
303.15
291.347
287.607
283.08
283.147
287.265
298.494
303.149
284.673
283.955
283.15
283.952
303.151
284.437
287.405
284.838
283.172
284.251
283.744
283.092
303.158
303.15
303.15
283.288
283.162
283.15
303.15
303.149
283.152
283.15
283.15
287.504
302.688
303.15
283.15
301.57
303.15
298.027
283.784
301.78
303.15
284.716
284.99
283.151
302.684
303.15
303.15
285.188
283.228
283.206
283.15
303.15
303.15
283.15
286.969
302.526
283.19
303.15
285.33
303.15
303.15
283.15
283.15
283.15
283.195
283.197
283.15
283.15
303.15
284.88
286.914
303.15
283.165
283.154
283.155
303.15
303.15
303.15
283.156
283.169
302.833
283.154
283.15
283.156
287.678
291.416
300.999
303.15
303.15
283.152
303.105
286.669
296.787
303.15
303.148
283.15
283.183
299.383
285.531
303.15
303.15
283.357
303.125
303.15
303.15
283.15
289.711
303.15
303.15
284.88
298.923
283.15
303.15
284.496
283.151
283.154
286.933
293.137
303.15
283.527
303.15
303.15
283.228
301.008
290.013
283.154
303.15
303.136
302.167
293.548
299.975
301.442
284.356
283.54
300.536
283.155
303.15
302.857
284.349
283.156
301.214
287.936
303.15
296.912
301.01
300.945
301.261
283.224
303.15
283.15
299.207
283.15
283.15
287.292
283.15
283.682
283.15
283.15
283.15
283.15
301.951
283.191
302.034
283.15
284.993
290.233
284.713
283.15
303.15
301.964
301.657
303.174
301.906
283.15
283.15
283.153
283.152
283.15
283.15
287.774
283.438
283.15
283.15
303.149
283.15
283.15
287.095
303.151
303.152
284.219
283.15
288.905
293.621
283.15
283.15
302.97
285.729
302.632
292.077
286.145
283.15
283.578
291.451
303.114
289.162
302.744
283.15
291.516
287.33
297.434
300.902
285.277
303.114
283.15
296.963
302.961
303.151
283.382
303.149
303.039
293.008
302.614
283.15
303.15
303.15
294.812
290.982
283.156
301.282
284.577
284.085
284.601
303.145
287.92
283.217
283.15
283.15
302.604
303.154
294.28
302.93
303.176
300.111
303.206
302.94
283.15
283.183
302.934
283.15
303.15
283.15
303.15
284.523
299.249
283.166
291.783
283.15
287.175
303.048
283.151
283.15
303.051
283.182
301.452
303.142
303.089
283.15
283.15
301.451
302.217
283.477
302.907
302.533
302.556
303.14
283.15
283.15
283.15
302.885
283.202
303.022
303.15
283.15
302.906
285.351
290.789
302.278
283.15
302.696
302.227
283.15
302.619
303.055
303.193
303.038
303.15
283.15
300.655
298.066
303.101
303.15
287.563
285.298
303.15
283.15
283.248
303.184
303.162
302.966
301.414
284.487
303.114
290.71
283.151
303.148
288.651
303.161
283.15
284.03
283.15
300.407
298.776
284.945
288.115
299.927
283.15
294.858
299.587
293.378
303.152
293.499
296.364
283.156
299.735
283.33
303.15
283.246
299.564
303.15
284.397
303.169
301.789
303.15
286.596
285.704
302.804
289.125
283.15
283.15
300.447
300.858
283.862
283.15
303.15
283.15
302.47
300.979
290.165
302.293
291.31
289.079
283.15
290.717
284.223
287.313
283.32
295.049
289.734
294.048
287.738
283.497
303.16
283.285
303.147
283.838
300.893
283.151
296.838
283.15
288.218
301.979
283.738
284.439
283.15
302.993
283.156
283.109
288.156
299.811
303.15
299.776
303.058
283.157
302.836
303.15
301.574
284.843
283.15
302.245
303.149
283.661
283.15
291.098
283.15
285.562
303.173
303.149
283.15
283.15
283.178
303.15
293.606
303.15
303.157
295.448
303.439
303.15
283.15
303.15
303.15
293.796
290.1
303.15
289.255
300.982
288.998
303.15
303.15
286.015
283.354
290.013
303.209
303.15
303.147
285.303
283.304
283.15
288.735
287.374
303.15
284.23
303.15
303.15
303.133
287.064
303.15
303.148
283.281
303.152
302.722
287.486
283.152
283.68
296.877
291.037
303.15
285.627
283.155
287.929
283.15
302.287
283.177
293.507
303.15
303.15
283.947
303.161
303.003
294.68
303.001
301.402
283.15
283.15
283.15
283.222
283.17
302.722
283.842
303.15
283.834
286.389
303.126
283.177
303.15
286.45
283.15
283.276
303.15
300.027
299.972
283.336
283.413
302.292
283.15
301.111
303.15
301.665
301.98
303.15
303.15
283.15
294.28
283.15
283.15
303.15
290.607
283.371
303.15
283.153
299.217
288.55
303.15
302.814
283.237
296.032
284.328
303.163
283.151
296.885
283.32
303.126
302.868
287.286
299.091
283.15
283.15
289.156
283.15
303.003
303.151
303.15
303.166
293.979
297.058
302.957
301.464
303.15
283.678
303.15
303.068
302.91
303.15
294.101
295.735
303.15
285.343
303.109
303.15
303.111
303.155
286.367
293.99
290.482
287.894
283.15
303.15
283.166
292.356
295.074
293.582
303.142
303.15
283.286
303.185
284.292
303.186
303.15
303.15
303.143
303.15
284.94
303.15
284.237
303.147
303.15
290.141
303.146
292.937
295.351
303.138
295.838
283.413
283.423
303.134
302.915
284.761
283.15
283.151
303.15
285.446
302.934
301.211
303.001
298.043
286.95
303.15
283.151
289.345
299.375
283.15
283.674
303.15
303.145
303.187
283.155
303.15
291.96
288.919
303.192
303.15
284.842
283.15
293.904
283.15
302.599
298.882
283.15
303.15
284.576
296.287
302.253
285.88
287.236
285.866
284.512
292.222
303.15
286.791
288.461
283.289
283.15
303.15
286.024
283.165
303.15
301.461
287.655
293.142
283.15
303.15
299.938
284.212
283.15
284.131
301.744
284.423
303.15
289.716
284.994
284.049
284.028
283.15
303.15
283.2
303.15
284.185
303.15
302.913
303.15
292.245
303.15
296.764
283.15
290.235
303.15
283.15
283.15
293.283
293.221
288.725
293.691
303.15
302.553
303.15
295.103
283.764
303.15
293.254
286.557
303.15
292.795
303.15
303.15
286.715
283.15
285.765
283.15
290.033
303.15
283.161
283.151
287.923
288.791
287.525
298.859
299.817
290.713
283.15
286.707
291.433
283.15
303.15
303.15
303.15
283.155
284.184
303.15
302.949
288.793
303.15
301.849
303.15
283.15
301.499
303.15
283.15
303.156