/*--------------------------------*- C++ -*----------------------------------*\
  =========                 |
  \\      /  F ield         | OpenFOAM: The Open Source CFD Toolbox
   \\    /   O peration     | Website:  https://openfoam.org
    \\  /    A nd           | Version:  10
     \\/     M anipulation  |
\*---------------------------------------------------------------------------*/
FoamFile
{
    format      ascii;
    class       volScalarField;
    location    "8.5";
    object      p;
}
// * * * * * * * * * * * * * * * * * * * * * * * * * * * * * * * * * * * * * //

dimensions      [0 2 -2 0 0 0 0];

internalField   nonuniform List<scalar> 
111485
(
8.02869
0.443328
0.511676
8.0151
0.522313
7.83519
0.445992
0.395902
0.450481
0.642839
0.439958
0.560944
0.453154
0.422474
0.452015
0.483981
0.163263
8.78811
0.451288
8.00975
8.00659
7.85217
0.450553
0.464437
0.516851
7.95971
0.630485
0.280592
0.509604
8.03849
0.77887
0.113539
8.02038
7.89257
8.6149
7.88976
0.792086
0.0680398
0.922935
0.471092
7.95146
0.640917
0.471687
0.719301
0.714271
8.08205
0.6856
0.461088
0.63565
8.01703
8.01546
7.57002
8.02271
0.720437
8.02699
0.295312
0.454427
7.93248
0.62711
0.468015
0.469409
8.02851
0.367946
0.768976
7.83512
0.331131
5.50944
0.416511
0.361223
0.394386
0.778874
0.34545
7.83315
0.358904
8.06
0.212063
7.8625
0.613793
7.85144
8.18587
0.768805
0.69665
7.87271
8.05148
0.36939
0.476569
2.59234
0.718928
0.791792
0.155828
0.763578
0.48081
0.370583
0.088874
0.641329
8.05038
8.03014
0.731394
0.286634
0.853383
8.02383
0.625393
7.90278
0.601067
0.423214
8.05861
7.90595
0.12838
0.487684
0.644267
0.105579
0.345744
0.482793
0.579646
7.95712
0.204498
7.97596
7.92645
0.360677
8.01134
7.9587
6.94619
7.87508
7.93312
0.668832
8.92423
6.91534
0.150483
8.06147
1.33194
0.757493
0.729263
8.0592
6.81058
7.06852
0.437156
7.86583
0.210815
0.394649
0.418152
0.618712
0.401602
0.407701
0.506933
0.665724
0.0435385
7.86522
8.04738
7.92191
0.427238
0.504473
8.00491
0.7908
0.00941043
0.393129
0.42775
0.421144
0.444238
0.516707
8.07267
8.01533
0.424503
0.499744
0.552758
0.450093
0.182089
0.759987
7.95397
0.587528
0.617372
7.91783
8.04477
0.539694
7.88852
0.0535455
0.0179291
7.85735
7.81227
7.97547
7.97505
7.78745
8.01371
0.432763
0.43314
0.427923
0.0638366
0.618234
0.247041
0.802452
8.02246
0.206301
7.80956
8.02146
0.255052
0.634329
0.769673
0.321638
0.0397232
8.0606
0.432303
0.500698
5.72
0.703915
0.148171
8.05863
0.252455
0.586836
7.80715
0.760405
0.680422
0.500225
0.234097
7.78004
8.03293
0.247924
5.43047
0.731572
7.88638
0.251516
0.223128
0.650775
8.06928
0.262789
0.742676
6.34618
7.88797
7.91914
0.807934
0.45589
7.8942
7.442
0.224241
0.0683696
0.245896
7.89135
7.90706
0.770052
8.06074
0.421277
0.21534
0.219015
0.20771
0.216583
7.92199
0.777587
0.170288
7.92881
7.87238
0.721073
0.345401
7.94346
0.116231
0.16626
8.04652
6.67525
0.692587
7.99218
8.09328
7.34758
7.99573
0.188141
0.20671
0.00711797
8.07397
0.167381
8.01685
8.02622
8.06536
0.774197
0.611671
0.359127
0.354493
0.575352
0.353961
0.358453
0.802636
0.0601931
0.0672853
7.77566
8.04513
0.80869
0.134704
0.571424
0.0839127
8.01303
0.363566
0.428644
0.352768
0.601937
0.781391
0.344358
0.355361
0.700222
7.93051
0.601691
7.88902
8.77405
8.15317
0.798937
0.574167
0.459285
7.9846
7.98307
0.284943
0.107247
8.00342
8.0331
8.03186
0.206367
0.0754366
0.425456
0.444954
0.471044
7.45088
7.91141
8.05438
0.284387
3.82652
0.449023
0.787649
0.753692
7.8729
8.02665
8.02941
7.0622
0.305166
0.522418
7.92338
0.3042
7.93735
7.9725
0.749899
0.304413
0.574165
0.30151
8.11918
7.03162
7.91591
0.302758
0.031095
0.784724
7.84964
1.44766
0.730204
0.530781
0.27557
2.13106
0.474152
7.85875
0.469478
0.312446
0.788354
0.741654
0.528153
7.8993
8.0554
7.91115
8.01845
0.423189
0.264409
0.562511
0.478928
7.90904
0.553969
7.90958
8.03568
0.475131
8.20349
7.14722
8.10665
7.88894
0.431587
7.93245
0.0269844
0.550748
7.85153
0.378896
0.31868
8.00616
0.312748
0.555651
0.320219
0.768943
0.0574955
0.0777688
8.12841
8.04763
0.725932
7.94147
0.568947
0.747646
7.85025
7.92466
0.298129
0.567776
0.0465334
0.557947
7.86336
0.778974
0.554613
7.82826
0.716025
0.552581
8.03229
8.01187
0.0311961
0.517052
7.90835
7.98003
6.15547
8.02271
0.533866
7.88711
8.02104
0.556734
0.765811
0.673996
0.528165
7.83806
7.07695
0.736612
7.16716
0.715573
0.747328
0.63924
5.66725
7.2334
-0.337394
0.668004
8.036
0.733282
0.548092
8.06818
0.550548
0.648719
7.20025
0.576844
0.557608
0.059116
7.84403
0.258184
0.586459
0.0668333
0.800349
6.89551
0.404706
8.05392
0.811147
-0.124963
7.91688
0.569191
0.702906
6.73321
8.07228
7.59941
8.00546
0.527829
0.0920962
0.573513
0.579422
0.756875
7.88887
0.539709
8.03968
0.533779
7.81544
8.03719
8.05773
0.572558
8.05009
8.03267
8.42768
8.02887
7.92896
0.697478
7.93207
7.61294
7.90607
8.0233
7.82986
8.0609
7.85608
0.574238
7.90534
0.70016
0.589903
0.87595
7.83108
0.703163
7.91334
8.02757
0.565515
0.557939
0.609763
0.781351
7.53436
0.646373
0.641917
0.0541078
0.0559568
0.58685
8.04418
0.0322289
6.74269
0.679873
7.89182
0.65761
6.94204
0.0944216
0.576251
8.32975
7.96435
0.0434959
8.00053
0.647781
0.638208
7.92977
7.92261
8.06519
7.91351
0.0781601
0.645547
7.80823
7.93356
0.522928
7.85272
0.64091
7.85939
0.680906
8.02886
0.651847
0.66447
0.329535
0.0897177
7.80071
-0.102001
7.81827
7.89333
0.599307
7.89401
0.646652
8.07166
0.664744
8.04062
0.62659
8.00512
7.20916
0.851228
0.583713
0.641357
0.61854
0.62649
0.555082
7.92001
0.634694
0.600871
7.88241
0.852793
0.771017
0.651434
7.86946
8.13364
0.536486
0.644057
4.27096
7.82006
0.609529
0.526898
0.622079
0.62
0.204547
3.24169
7.12535
0.315174
3.76555
8.0174
0.662154
7.94237
7.23787
0.155312
3.19525
0.305015
2.21896
7.12488
0.613367
0.524889
7.83597
7.62933
0.529236
7.99594
7.85084
7.85716
7.82707
0.623669
7.90828
8.02343
0.633845
0.218819
6.29409
0.484357
7.52077
0.216412
8.02134
7.92091
0.62268
7.89085
7.83226
7.2083
0.0514484
5.15037
0.62235
0.162256
8.00055
0.748659
0.59198
0.534847
0.798382
1.19968
0.51932
7.89694
0.634348
0.534149
8.06551
0.319148
0.707538
0.551291
0.0465501
0.553535
0.551269
8.0659
0.656023
0.760115
7.18824
0.553842
0.671062
5.32663
0.162326
0.552353
0.666146
0.578588
0.590156
0.160497
7.93135
0.584412
0.647953
8.27704
0.611597
0.607485
0.167442
7.89622
0.0549257
8.08095
7.86835
7.91129
7.82548
0.541818
7.29005
0.0156469
8.02888
7.78706
0.61731
0.615693
7.99915
0.65039
8.02647
8.06124
8.02495
0.671629
0.662309
7.23358
8.0241
7.89233
7.89836
0.773298
0.160729
7.07239
0.605468
0.597045
7.92597
0.611171
0.687575
0.144458
7.84597
7.88633
0.332567
0.1646
7.17542
7.91671
7.80041
0.244864
8.04856
7.98581
7.88494
0.602067
0.491039
7.85322
8.51883
8.27504
0.204061
7.93072
7.83211
0.657443
0.769228
7.16056
6.28812
1.98576
0.681909
0.00432036
7.77956
0.494242
0.7092
7.92979
8.02011
7.86681
7.88883
7.91239
7.85641
0.618021
8.027
7.86693
7.86373
0.613128
0.151817
7.98396
8.03211
0.676855
0.159615
0.173947
7.98953
7.86898
0.163431
8.04901
0.597857
0.160581
0.172048
7.9622
8.02334
8.02309
7.90056
0.542573
7.87288
7.86051
0.731586
8.02177
0.271262
0.715777
7.82536
0.163172
7.95595
0.263836
0.628838
0.631886
0.675302
-0.130574
7.45028
0.259869
0.680378
0.00364133
7.94718
-0.874465
7.32553
0.0597056
7.90526
0.693265
0.691946
0.688998
8.14339
8.02546
8.0729
0.163192
7.51995
0.0723615
7.6473
0.481937
0.0618624
0.107132
0.16092
7.85643
7.84137
7.8435
0.164936
7.82985
7.45003
0.795556
7.92834
7.93336
8.02355
7.86818
0.113162
7.79109
7.88636
-0.372362
7.50312
7.94659
7.23533
7.8822
0.68505
0.111921
8.00575
0.530859
1.90533
0.687543
0.637415
0.143507
7.91586
0.627124
0.794618
0.690114
8.05252
-1.29827
0.111009
6.77419
0.0859315
0.789051
0.831237
0.380921
0.0910495
0.782008
0.0501947
0.111227
7.88291
7.83278
0.0778507
0.0675991
7.92323
0.080677
0.56978
0.105169
7.81213
0.808798
7.90204
0.108041
0.098887
7.84226
-0.0139946
0.108358
0.778765
0.00474826
7.77295
0.418923
0.785873
0.891018
0.774694
0.745048
7.88763
7.91083
0.742349
7.86672
0.603776
0.722867
6.96338
0.532401
0.215236
0.684112
7.86836
6.69754
0.230148
8.06082
9.38015
0.735102
7.81975
7.83614
0.306535
0.17754
7.86749
0.813409
7.88839
7.89046
8.06409
8.02835
8.04846
8.04715
0.762468
7.82235
7.91823
7.92973
-0.339766
0.790444
0.481122
0.226289
7.85763
7.82721
0.770771
7.87991
7.83903
6.18439
0.748108
0.291744
7.84795
7.83032
7.83332
7.83223
7.86577
7.82755
0.744647
7.83183
0.74275
0.475234
7.89729
8.03493
8.02853
0.81109
8.02205
8.01611
7.91257
0.7381
7.90396
0.748658
0.779316
0.753063
7.85159
5.65804
0.773608
0.456747
7.78349
0.746899
0.658279
7.99676
7.7821
7.08585
7.83076
0.227791
0.414151
0.770317
0.6302
7.84454
0.228424
7.76098
7.09531
7.04762
7.9192
0.384749
7.88352
8.03691
0.798004
0.296221
8.0346
0.652487
7.53395
0.755477
8.11796
7.89238
7.88517
8.02079
0.11805
0.416579
1.28667
7.84821
7.85355
0.110461
7.86765
7.31406
8.03002
0.594484
0.623589
0.551146
7.97996
0.803111
0.808693
8.34476
0.811435
7.82942
0.714542
0.653295
0.399712
0.785375
0.707142
7.8736
7.88944
7.88996
0.800447
7.99227
0.779154
8.0677
1.62269
7.98557
0.469403
0.480022
8.03908
7.86209
8.05285
7.9329
0.775208
8.05927
7.093
0.101208
0.781021
8.05488
7.28371
7.86346
7.30284
7.82443
7.87559
0.788275
0.682046
8.01468
7.97347
0.393264
8.03565
0.787341
0.120963
7.88003
0.73312
8.02213
0.0763482
7.82445
0.510167
7.84033
0.459081
0.657012
0.773295
0.731618
0.727594
5.17732
7.74257
0.743311
8.01836
0.378749
7.99466
7.93231
7.7354
7.91634
7.94209
7.92237
0.718994
0.709238
8.02257
6.86599
7.99412
0.731901
0.808306
8.03242
0.388989
0.782445
8.02917
0.151758
0.111665
0.363139
0.77739
7.86709
7.88138
7.92185
7.85878
0.385904
7.84842
0.751287
7.87702
0.748996
0.514942
7.90686
0.738408
7.91053
7.86484
0.749552
0.759387
2.86773
7.87731
8.04666
7.82626
0.397267
7.69792
8.10932
7.72626
1.77936
7.00382
0.502454
7.27645
7.69377
7.87691
0.126081
0.103487
0.572172
0.433006
8.0515
0.757369
7.89366
7.92249
0.110306
7.79903
0.411103
0.748909
0.09141
0.7571
0.0941096
0.55256
7.91497
-0.328621
-1.62638
0.671304
0.777462
0.297663
5.93436
8.02396
0.537913
7.99444
7.83422
0.751274
0.629749
0.00824597
7.87974
7.74448
0.791142
8.02859
7.82074
0.754942
8.04382
8.03558
0.423848
0.758777
0.742262
0.366831
0.188721
7.83006
7.87275
0.708487
0.345999
7.85707
8.03915
0.599206
7.83234
6.82723
7.0363
7.0698
4.90406
6.85986
7.85843
0.561455
7.82145
0.752501
7.84175
4.08091
7.86362
7.83686
7.91646
7.86693
0.529188
7.86784
7.86665
7.17647
7.83263
7.91506
7.88854
0.328852
7.88445
0.29702
0.752304
7.8384
0.586717
7.85042
0.670798
0.740899
0.0872834
0.0958053
7.95868
0.0998955
0.527217
0.767151
8.06186
0.74873
0.264042
0.0581656
7.54731
0.0622682
7.87207
7.91365
7.84032
7.85406
0.0645877
7.88817
7.8305
0.0545605
0.72552
0.043982
7.93048
5.85
0.576636
7.90619
0.649423
8.02618
0.0902962
7.81288
7.82087
0.54285
7.8381
0.820946
8.03363
7.84127
0.264499
0.679709
0.197181
0.408553
0.806104
0.325711
7.84281
8.15225
0.480826
0.207808
0.330148
0.758003
7.86743
0.300561
7.86297
7.92658
0.48057
0.785977
7.83419
0.207478
7.9034
0.194529
0.191514
7.82249
7.85467
7.90056
0.480165
7.88655
7.88731
0.48718
0.190867
0.76911
0.0608349
7.86077
7.91885
0.613844
0.499596
7.84813
0.48248
7.8854
0.476685
7.85131
7.84539
0.46452
7.86853
0.656363
0.457783
7.8316
7.85468
0.437326
6.76658
0.553399
8.02749
0.764472
8.03927
6.88913
6.69019
0.460331
7.21768
7.1468
0.412124
7.11326
4.74064
6.65373
7.86005
7.99501
0.745026
0.548116
7.92002
7.89218
0.522115
0.534662
7.83421
0.484933
7.85722
7.99865
0.607567
0.570247
0.12101
7.84883
7.89528
7.8891
7.86673
7.81911
7.82298
7.89011
7.82577
7.83155
7.85406
7.88871
7.9962
7.87819
7.84725
7.83421
7.94936
7.84559
7.8551
7.87132
7.90524
8.00946
0.547292
7.88311
7.84687
7.92874
0.384735
7.93499
7.99813
3.5937
7.79959
7.71593
0.381472
8.33896
7.75803
4.06377
0.379475
7.87662
6.9704
7.4165
7.83545
0.718262
0.381569
0.380796
0.360943
0.248133
8.01431
7.83344
0.287844
0.307524
0.357682
7.86032
0.342978
0.706847
0.373608
0.0742308
0.0841949
0.361176
0.136258
0.36448
8.07294
0.417565
0.345718
0.509866
0.340136
7.90025
7.89009
7.91079
8.02234
7.89712
0.307525
0.348748
7.90059
7.83299
7.82804
7.9767
7.84016
7.99735
7.81742
7.99651
0.348959
0.725766
0.347688
0.571342
7.79668
7.80878
0.7079
0.714554
7.85367
7.86683
0.532025
8.07614
7.88358
0.376357
0.325628
0.337951
0.543227
0.705701
8.01546
0.0162307
0.410152
7.0948
7.99528
0.396426
8.00914
7.82963
3.102
2.10285
0.542565
7.93234
8.04392
0.794535
0.413864
0.0327301
0.308986
3.98375
8.02346
0.761285
8.28178
8.06603
7.75392
0.523822
7.83917
0.306116
0.0193686
0.390731
0.4053
8.04943
0.279345
8.0535
7.66114
8.04664
7.97899
0.111855
4.96529
7.86843
8.01287
8.39391
0.308913
7.05428
0.267462
0.30309
0.106181
0.305642
7.98095
7.96712
6.92013
0.521975
0.241296
0.129947
8.02046
8.02777
7.01951
0.721185
0.528794
7.86648
0.188232
3.18842
0.408924
0.23407
8.01807
6.85724
0.229153
0.306656
7.89279
0.646695
0.626439
0.547653
0.247995
0.24299
0.263696
7.09742
0.106754
0.252644
0.220611
8.09302
0.394466
7.17486
0.51491
0.259592
8.07269
0.0768724
0.244914
0.264458
0.322183
8.77394
2.83664
0.775246
4.77513
0.249273
7.75798
0.0892681
0.245714
7.9877
7.87195
0.630386
0.803796
0.352352
8.74021
0.566342
0.74924
-0.0348162
0.766689
7.98249
8.08179
0.304195
8.38426
0.27711
0.726836
0.252231
0.0962853
8.00777
0.677771
0.301593
7.98927
7.15606
0.207554
8.05691
0.203496
0.193071
8.03067
8.77691
0.41524
7.99813
7.8467
7.93242
0.0956267
0.986255
0.525265
8.11181
0.508735
0.149194
7.85294
0.1463
0.160264
0.0982895
0.794679
7.85833
0.269382
0.0972559
0.166318
0.146515
0.0996281
0.755612
0.482099
8.0271
-0.0290921
0.1053
8.01776
0.161606
7.92575
7.8855
8.05655
7.9365
8.01279
0.740228
7.91041
0.144809
0.585804
8.06526
0.590007
7.96878
0.104317
7.99461
0.740365
7.76966
0.487933
0.769606
0.763914
0.165576
0.106723
0.506087
0.100087
0.165851
3.41219
0.158347
0.32249
0.169863
8.06324
0.318463
0.796123
0.166746
0.461036
0.769462
8.06171
7.04164
7.9866
0.516159
8.00932
6.44421
0.10643
8.42394
0.632752
7.9818
8.02975
7.86757
0.329547
0.563896
0.167226
0.749487
0.0927091
0.284625
0.28412
0.329724
0.114017
0.281521
0.282451
8.03131
7.86787
8.06537
0.414539
0.302791
7.84044
7.86724
6.5549
0.297038
0.118951
8.00445
0.285165
8.03181
0.58984
0.521149
0.759537
8.01804
8.02887
0.326014
8.02185
0.666206
0.160375
7.65349
0.372872
0.457382
0.0778968
7.98317
0.749785
7.2296
0.622875
0.523124
8.02123
8.06713
0.151794
5.93649
8.0742
0.199144
0.0914066
8.02672
7.96991
7.18495
0.26938
6.54579
0.414848
0.705484
0.632134
8.02861
7.21014
0.69716
8.02881
7.89393
8.04275
8.01176
7.30853
7.83
7.69374
7.98959
7.97896
7.52069
8.42535
7.755
0.674173
7.76219
6.96453
6.63209
8.8831
7.08373
8.02932
0.709868
7.53604
7.81541
0.728453
8.25736
8.58429
7.93614
0.706835
8.40002
0.713673
0.746041
0.64143
7.39878
8.0069
0.720056
0.568399
7.94279
8.05646
0.415544
7.32645
0.413306
7.25865
7.87898
7.87439
0.410772
0.410042
8.0365
0.578086
8.04701
7.53063
0.721803
0.238894
0.714077
7.92086
0.415373
7.38804
0.600007
7.8581
7.98529
7.84594
7.17151
0.232701
0.273773
8.05126
0.266434
7.99601
8.00637
7.99515
8.01167
0.675831
0.665114
0.280479
0.93786
8.03557
0.518224
0.413866
0.22197
0.670167
7.96435
0.222048
0.692506
0.356842
0.594846
0.395166
8.02565
0.468372
0.686051
0.419575
0.690334
0.703351
8.00767
0.715345
7.88748
8.03425
0.345223
8.0554
0.526456
8.03847
8.03598
7.74352
7.99109
8.05661
0.668859
7.98692
0.575282
7.42354
7.90165
0.510863
0.678121
0.291085
0.555136
8.06941
1.58822
8.05129
0.605896
8.03678
0.504919
0.669824
0.69128
0.624013
8.06095
8.06727
7.97947
0.239591
7.9114
7.98463
0.235934
7.80711
7.83849
0.703728
8.06034
0.393952
0.580125
7.38211
7.62679
7.57067
0.265621
0.440861
8.00971
0.0147382
0.597645
7.24245
0.701231
8.04288
0.236097
0.5108
0.218843
8.00726
0.53712
0.29315
0.717551
0.685975
0.588517
8.02093
8.02486
0.812124
7.99021
7.85609
8.03398
0.235567
0.704538
0.307698
0.42278
7.13094
0.522118
0.414591
0.440633
0.4675
0.542898
0.64509
0.587236
7.86663
7.86522
7.86567
0.603291
7.89969
0.582738
5.68942
0.579952
0.45461
0.230444
0.120064
7.83954
8.03814
0.581834
0.579415
8.04382
7.86869
8.06824
0.2531
0.581373
0.603806
0.604612
0.0804905
0.413725
7.99482
8.05276
8.0274
0.0814216
0.392612
0.00733376
0.454806
0.276945
0.606377
7.9475
8.02726
6.65746
7.85067
0.0846054
0.539168
8.01932
8.01028
8.02015
8.06447
8.03605
7.8197
0.620219
8.00469
0.724733
0.852887
7.83743
0.610971
0.0423329
0.25122
8.08426
7.86803
0.617725
8.02145
0.61924
-0.0907119
0.271473
7.77945
6.24317
7.85982
8.00624
7.99188
7.72244
2.83838
7.99474
0.635989
0.315819
8.03062
8.02675
0.632707
7.99839
7.88598
0.365373
0.714007
7.97917
7.97767
7.79483
0.162203
8.02239
8.02374
1.99869
0.622456
0.633069
8.00694
7.83607
7.36339
0.630729
0.627726
0.630662
0.459385
7.85004
0.153454
0.0318087
0.035297
7.87346
8.05264
8.0276
8.01837
8.02262
0.371563
0.373426
0.291504
8.07883
8.04241
8.02123
8.03521
7.86108
0.746983
0.134632
0.0260826
7.82542
8.019
8.11202
0.0907568
0.694108
0.781938
7.88901
-0.810621
8.30124
7.9519
8.02366
0.368911
0.413343
7.99261
8.00599
0.485026
8.02605
0.268088
0.343521
3.39717
7.98789
7.85738
0.276325
0.734672
7.99651
3.2242
0.0835176
0.537536
8.00447
7.9961
8.07002
8.0351
0.0910242
0.199428
7.99686
0.744925
0.667758
1.14541
8.0101
7.99399
7.99224
7.99718
0.532578
8.4161
8.01227
7.88091
0.141298
0.588679
0.170786
7.94743
8.0565
0.666139
7.74197
8.02568
7.99756
8.00456
0.388602
7.80834
7.82686
7.84272
0.164864
0.406697
7.99119
8.04889
7.96914
0.462832
8.20928
7.98423
7.97151
8.05176
8.04448
0.76784
0.538393
8.10855
0.430209
0.532756
0.376359
8.07079
8.06187
8.0191
8.02689
7.83799
0.518836
8.01093
7.52063
7.54401
0.66431
7.76072
0.655191
8.02289
7.90056
0.801696
1.22396
7.28255
0.676421
8.01084
0.670682
8.2409
7.99958
8.037
9.05952
7.99536
0.74425
7.98851
0.447005
7.90707
7.18986
8.05018
7.99023
0.152654
0.649917
7.86384
3.32332
7.92702
0.627468
0.739823
0.627631
7.93336
0.628319
0.600047
0.737723
0.546713
0.426165
0.605464
7.77913
7.84426
0.32491
0.239428
0.622227
8.01089
7.70663
6.69056
3.86998
8.06826
7.83011
8.05036
8.06331
8.07281
8.34628
0.62966
0.76001
0.310972
7.14874
0.78745
8.05009
0.507931
8.02794
8.07495
7.88151
7.81182
0.732563
7.80682
7.92532
8.00904
0.441552
8.01118
8.03754
0.761762
7.98546
6.08286
5.35667
5.06011
8.06536
5.25388
5.10584
5.20934
5.82878
7.84676
7.84704
0.433776
0.636002
7.21056
7.30805
7.85059
0.433342
8.24682
7.88989
0.727835
7.99886
8.02074
0.661189
0.757166
8.03755
7.83252
0.848791
7.2075
7.80899
0.614307
0.46961
0.490272
7.91594
0.475239
8.05698
0.296052
0.589322
0.467585
8.01241
0.593671
0.473607
8.04776
0.0258469
7.97608
0.442555
7.65489
0.455349
7.90989
0.733278
7.98652
7.77214
7.90567
-0.3724
-0.366601
8.06741
0.473941
0.783823
8.11286
8.01138
0.347638
0.0264458
0.831679
8.0706
0.493462
0.485167
0.772416
0.201315
8.07235
0.791869
7.84879
0.774612
8.02835
-0.588428
-0.831935
7.96603
0.31508
7.86308
0.763712
7.86399
7.96954
8.00093
8.04556
7.97442
8.01521
0.642234
0.380058
0.767067
7.99564
6.59264
0.775724
7.99762
8.03195
8.00785
8.05883
8.01223
0.0340033
8.01258
8.05454
7.84322
0.0273358
7.97414
7.87035
7.66746
0.095976
7.88089
0.0767093
0.266072
0.587955
0.0974133
0.059592
8.27441
7.99537
8.01442
0.128764
0.174171
7.74429
6.5595
0.0855886
8.03615
8.05805
0.784053
7.97444
0.484924
7.99062
0.0646984
0.754912
7.99766
7.84524
7.99215
8.0514
8.03338
0.784337
7.98954
0.0879192
8.03904
8.00724
0.18925
7.90172
0.507216
7.88053
8.03698
0.64485
0.324174
0.802579
8.05046
8.05221
8.01714
0.322472
0.795717
8.04306
7.86962
7.75907
0.193587
7.98402
0.516565
0.788354
8.00327
7.99213
0.199529
8.02212
7.75764
7.88087
8.04115
7.89247
0.770546
6.47672
7.83774
8.04495
6.62364
7.99304
6.82166
7.95665
7.98147
7.89968
0.312918
7.9518
0.191826
7.95065
7.98822
0.900076
0.188775
7.98076
7.98292
7.99552
0.201405
6.98794
8.01186
7.84538
7.99121
0.216699
7.98191
0.759771
8.06863
0.601007
7.17565
0.709399
7.99316
8.03238
0.583338
6.84444
7.99478
0.17129
0.590421
8.07838
8.05073
0.637952
0.701245
0.201538
0.197487
0.187418
0.648372
0.200896
0.728049
8.03991
0.747896
6.58433
6.48422
8.00841
7.97205
8.03054
0.207973
8.06525
8.06555
8.06261
0.753863
0.720433
6.3087
0.655663
8.05578
0.685418
7.8087
0.776957
0.237867
6.64867
0.599891
7.97103
7.95799
7.86523
0.233104
0.604456
8.0165
7.8875
0.224142
8.04994
0.816524
8.06664
0.806883
8.02495
7.86524
8.0407
7.86316
0.17935
7.86312
1.22224
7.90727
0.625141
8.00777
7.99442
4.86064
4.57552
8.0103
7.99719
8.02765
8.05487
0.597849
0.802959
5.65759
8.04931
0.610257
7.85146
7.90686
0.566709
0.476084
0.795334
7.86715
0.132991
0.63415
0.33579
0.502076
8.03018
8.07212
8.07596
8.05397
7.8686
7.86329
7.86378
7.94817
7.86726
7.86388
8.02231
7.86222
0.787057
7.86493
7.99384
8.6708
8.05281
8.00883
3.39519
7.85055
7.99962
0.488359
0.828383
7.95968
8.0488
8.02143
0.444048
7.95487
8.01686
0.809048
7.88511
7.99092
8.03196
8.04674
0.784972
7.87695
0.789516
8.04833
8.02255
8.00055
8.00888
7.99428
0.815519
0.790832
0.255165
8.05407
7.82488
8.08893
0.805421
7.98912
0.790545
0.84102
7.88021
7.99351
6.30278
0.578752
7.96685
7.26208
0.589169
6.37762
0.659877
7.92932
0.73957
6.3465
5.94182
8.02269
0.588648
7.88723
0.585025
0.769664
7.99091
0.599071
0.674844
8.02431
0.765525
7.84038
7.97153
7.98625
7.96602
7.96321
7.85754
7.98875
8.06234
0.780627
7.34239
8.01324
8.03241
7.9836
7.9829
0.443558
4.57278
0.80757
0.710181
7.98954
0.571732
0.565896
8.0169
7.24514
7.95081
7.96628
7.99903
8.0515
6.74155
7.38877
0.687616
8.00575
8.06887
6.37945
6.8553
7.87062
0.580796
7.97647
7.83586
8.0511
0.7869
8.0643
7.85163
0.648421
7.87942
7.89377
7.92585
8.11114
0.652836
8.0076
8.00275
7.99662
7.99605
0.686688
0.803248
0.810866
0.58645
0.721544
0.717797
7.88842
6.84303
0.799538
0.703996
6.83477
0.80553
8.04245
-0.00825169
7.83832
0.785846
8.01582
7.83307
0.725711
-0.287403
7.9877
0.702648
8.0143
8.03323
0.780514
0.774472
8.05211
7.85851
8.01763
7.86702
7.9933
7.05243
8.05381
8.02904
0.698569
8.05491
8.02064
8.00771
0.733572
8.00072
7.08951
7.87522
7.86159
7.51804
7.17273
0.732457
7.82748
7.18458
0.443924
8.04415
0.693788
0.701625
7.9971
0.454107
8.02494
7.65966
8.09543
7.06167
7.91026
8.04694
8.06511
8.06938
0.464446
8.0586
8.03896
8.05571
7.90309
8.01143
7.94599
0.780209
8.02314
8.0504
0.762248
8.01722
7.87097
7.93063
0.471481
8.00497
0.720175
6.98339
0.61271
0.0682362
7.86382
6.8392
0.446064
6.59897
7.86561
0.755324
0.604846
-0.000285944
0.741772
0.725452
-0.0882739
7.93476
7.82332
0.555101
0.798067
0.78487
0.54622
0.620873
7.90121
0.114009
0.545126
0.550476
7.93416
0.550225
0.10103
0.332913
0.521727
0.777789
0.577771
0.153949
0.504637
0.01658
0.253394
0.528782
7.1023
0.0952869
0.00972826
0.586999
0.665473
0.0477929
0.528973
0.0311793
7.24548
0.804445
7.1989
0.307582
0.557532
0.657636
0.415492
7.18965
7.86725
0.518945
0.429028
0.779293
0.807315
0.163367
0.550187
5.25882
0.557197
8.02307
0.958921
0.795044
0.74628
0.339901
0.777068
0.76085
0.632457
0.39619
0.382913
0.310517
0.553814
0.134876
6.45279
5.74562
0.556762
7.99711
8.02256
0.527461
0.550404
0.0622053
7.99983
0.737468
0.777305
0.395692
5.93226
8.02261
0.717995
0.0192831
0.792466
8.07244
0.158919
8.0347
0.417771
0.621833
0.72389
0.732287
7.9965
8.0273
0.799947
0.544819
0.55789
8.02078
0.43535
0.551095
0.665001
7.88593
0.403858
0.0545097
7.1837
0.333501
-0.320067
0.760585
7.78827
0.76103
0.860162
8.0253
0.665131
0.0767023
2.25113
0.661692
0.681394
0.141472
0.61254
0.653652
0.0629429
0.698602
0.765903
0.6312
0.129876
0.554805
0.769226
0.43122
0.661167
0.281756
0.532984
0.781067
0.157025
8.02966
0.67273
0.662673
0.783267
0.19304
0.749278
7.84089
0.669776
0.334458
8.02794
0.736324
0.0129163
0.671634
0.652122
0.0970369
-0.0253977
0.592906
0.637415
0.759439
8.03101
8.02113
0.767629
7.92204
0.770748
0.786387
7.81822
0.099178
0.673542
0.396748
8.05561
0.335859
0.368421
0.744432
0.772591
0.369097
0.174549
0.443222
0.722499
8.02234
7.96978
0.791644
0.702482
0.747497
0.474144
7.96946
0.703087
0.640226
7.81731
0.430241
0.562281
-0.0333146
0.75546
0.728463
0.597957
0.161817
0.47952
7.92713
0.678451
0.348428
0.639278
0.767997
7.97107
0.741583
8.09568
8.01614
0.374103
0.617376
0.400119
1.07904
0.727441
2.25896
7.87522
0.605495
0.653605
0.467964
0.409687
7.99538
7.93335
7.92214
0.40998
0.413384
0.746513
0.330421
7.74493
7.97578
0.399689
0.455531
0.7398
0.41382
0.408262
0.508251
0.70849
4.83173
7.84672
0.612212
0.0632542
7.97457
0.565675
0.500148
0.893773
0.619888
0.488863
0.77061
7.97507
0.430448
0.50332
7.91774
7.76155
0.0550131
0.110033
0.183428
0.0880939
0.496921
0.495091
0.149756
0.335709
0.463645
0.0829359
7.96909
7.96029
0.00857752
0.104933
0.49208
0.840625
0.483289
0.453681
0.63346
0.410574
0.477829
7.85951
7.92328
0.820855
7.96601
7.05632
0.514208
0.336569
0.49074
0.818996
7.38762
0.733102
0.858361
7.50831
0.842199
0.750568
0.480133
0.485061
0.0484111
0.556296
0.763959
0.097771
8.0184
7.45781
0.778415
0.17291
0.383574
0.178282
0.706601
0.694316
0.782736
7.48169
0.514623
0.156203
0.440012
0.823304
0.724932
0.773793
0.753251
0.497095
0.133836
7.38514
0.69277
0.496607
3.46654
7.05991
6.56985
0.458843
6.92174
0.0354781
0.444437
0.409787
0.557273
0.739737
5.4626
3.68315
8.17879
6.94467
0.767305
7.86467
7.86448
-0.133696
8.01804
0.336401
0.432071
0.407495
0.31163
0.3297
0.554778
6.57752
0.169577
0.0868003
0.68951
0.534838
0.320225
0.501527
7.87014
0.755276
0.311019
0.564726
7.86569
0.655948
0.50855
7.86433
7.98442
0.725095
0.302585
8.07096
0.58818
0.532566
0.724167
8.04614
7.86296
0.0644
0.743559
0.562651
7.8669
7.89657
7.86435
0.629963
3.24131
3.02194
0.198705
0.609331
8.07371
0.219865
0.627094
0.45676
0.0725642
0.0569567
0.232434
0.542785
0.0753867
7.97367
0.232777
0.150052
0.0335083
0.373572
0.0963931
0.109486
0.0971026
0.113252
0.0457971
0.76648
0.634258
0.497361
0.735338
0.77913
0.567141
0.0930779
0.645331
0.106132
0.0426126
0.278071
0.191602
0.749732
0.185594
0.647996
0.202218
7.66416
0.50543
4.36935
0.379493
0.545184
7.91851
0.663007
7.66517
0.570491
7.69109
7.99448
0.423433
0.67385
7.10353
0.17163
0.417551
0.675435
7.97669
8.05115
0.820721
0.220901
0.763973
0.377466
0.14886
0.656872
0.808971
0.637285
0.665815
6.73639
0.500193
7.87262
7.97345
0.301494
0.225584
0.823606
0.291646
0.204195
0.674565
0.684264
7.89097
0.779309
0.191735
0.655991
7.90081
8.06637
0.501466
0.576028
6.42563
0.751334
0.0416269
0.593477
-0.0724994
0.170574
0.387588
7.98525
5.03847
0.313292
0.785097
7.98916
0.309519
0.747779
0.611551
0.874375
0.308
0.843466
0.501379
0.784703
5.31602
0.795557
8.00675
0.570097
0.672589
0.158666
0.0153992
6.86582
0.022657
0.783186
0.641753
0.73231
7.57808
7.86329
0.333296
0.777937
0.652335
0.566914
0.746741
0.241204
0.060819
0.433957
0.0845689
0.0523881
0.74932
7.27157
0.796087
0.626938
0.00386523
0.736725
7.44293
7.84217
-1.10279
0.800096
8.26661
0.778974
0.694969
7.51128
5.4631
5.80453
0.661916
0.304789
1.11701
6.15257
0.718243
0.351547
7.73121
0.268918
7.07963
0.609278
0.242471
7.92609
0.0401841
0.752826
0.74937
0.223231
7.85264
0.703745
0.707381
0.762101
0.75693
0.789274
0.786939
0.697221
0.792608
0.708202
0.136598
0.309129
7.98425
6.75188
6.78527
7.83191
0.641534
0.358464
0.324055
0.721466
0.18893
0.324543
0.589353
0.676972
0.649826
0.237504
0.702592
0.704478
0.62709
0.184767
8.01026
0.734695
0.71716
0.664817
0.709818
7.72732
0.408407
0.412028
0.587691
0.562342
0.45946
7.8322
0.464899
0.457284
7.06831
0.473356
0.631913
7.82939
0.450723
7.81925
7.92932
0.396169
0.642958
0.639311
0.457792
7.84113
0.100327
0.685658
7.93207
0.390522
0.472826
0.395948
0.645681
7.85343
0.668731
0.671047
0.623108
7.86901
0.357211
0.138674
0.621287
0.296316
0.35535
8.07988
7.66254
7.30004
0.0465996
7.41814
0.335413
0.270489
0.105408
7.99564
0.113026
7.82949
8.01108
7.96475
0.405491
-0.00104673
0.75326
0.623024
0.362588
7.64448
7.07795
0.748693
0.732252
0.289987
0.746914
0.356335
0.600675
8.0106
6.05966
6.17255
7.85502
6.23603
0.0286415
8.02136
0.343106
0.579433
0.358519
0.0787959
0.417172
6.63808
0.266063
0.584022
0.673641
0.773014
6.67631
8.00571
0.691209
0.277977
0.704603
0.491345
0.786453
0.781504
0.705275
0.763686
0.245157
0.0549545
0.235413
0.238079
0.220848
0.593246
0.626957
0.157127
0.218682
0.778115
0.430486
0.505336
0.100034
-0.175709
0.143085
0.770857
7.93179
0.00470437
-0.841589
0.0994483
0.0661943
0.0167646
0.593973
0.474386
-1.01144
0.0686442
0.807259
8.02171
0.339346
0.425543
0.487421
7.99518
0.361405
0.209744
0.0724989
0.445694
8.07082
8.01738
0.636103
0.141151
0.146694
0.0289683
7.93605
8.03116
7.89088
0.495117
0.59324
0.125
8.03201
0.333335
8.02063
8.03909
0.0759008
0.0565852
7.82598
0.129954
0.140321
0.000803376
7.92263
8.04833
0.225148
0.596101
8.02833
0.116552
0.144127
0.0448429
8.07472
8.07987
8.05179
0.0372922
0.115837
0.753317
0.13267
7.9125
0.105055
0.552818
0.752114
0.702181
7.79275
8.00184
0.137797
0.778616
0.760479
0.424669
7.7909
0.760105
7.87213
0.156776
0.793385
0.560783
7.84004
7.31133
0.776725
0.829582
7.1808
7.2225
7.8754
0.404251
7.6804
6.90677
0.578571
0.570965
7.87475
7.07666
0.505866
0.146671
0.124592
0.40055
0.33951
7.18277
0.597618
6.66029
6.51265
7.99977
0.411435
0.652028
0.112046
6.54927
8.48933
0.582623
0.786936
0.621642
0.660414
0.523411
0.472429
0.527786
0.142906
6.44246
0.550251
0.403858
0.133531
0.399707
0.644629
4.89227
0.378906
0.382702
0.383637
0.382941
0.149504
6.26009
7.36169
0.442252
7.41264
7.49139
0.524736
7.42605
0.33395
7.27482
7.35277
7.84964
7.09154
0.425424
0.154627
0.422597
7.25574
0.224597
0.404744
0.537575
7.36297
8.02952
0.432172
0.448199
0.796501
0.429426
7.0597
0.00264449
0.130386
0.0903984
7.84012
7.88876
0.265631
0.221693
7.91535
7.38766
0.726078
0.0108475
7.24287
0.78923
0.714435
0.723429
0.469923
7.31335
0.523072
1.87002
0.0809636
0.0966234
0.745845
0.710337
0.682921
0.289602
0.54333
7.16525
0.595107
0.540117
0.762658
0.768662
0.727739
7.34362
0.367441
0.549589
0.32291
0.453973
0.543293
0.755174
0.153259
0.741642
0.689365
0.736799
0.233448
0.73676
0.784058
0.531135
0.648955
8.03292
0.572
8.06796
0.53322
0.550109
0.735605
0.755262
0.747157
0.536344
0.54131
0.763848
0.424866
0.164305
7.82828
6.16194
0.759712
0.772014
0.624844
0.778394
0.799609
0.758139
0.805569
0.882943
6.39733
0.151224
0.901902
-0.708001
6.64255
0.0301454
6.21462
0.411205
0.523461
0.654562