/*--------------------------------*- C++ -*----------------------------------*\
  =========                 |
  \\      /  F ield         | OpenFOAM: The Open Source CFD Toolbox
   \\    /   O peration     | Website:  https://openfoam.org
    \\  /    A nd           | Version:  10
     \\/     M anipulation  |
\*---------------------------------------------------------------------------*/
FoamFile
{
    format      ascii;
    class       surfaceScalarField;
    location    "8.5";
    object      phi;
}
// * * * * * * * * * * * * * * * * * * * * * * * * * * * * * * * * * * * * * //

dimensions      [0 3 -1 0 0 0 0];

internalField   nonuniform List<scalar> 
214403
(
-0.00324195
0.00248581
0.000137635
0.000618504
-0.00159162
-0.00536385
0.000453815
0.00650166
-0.00489427
3.2534e-05
-6.7414e-05
0.00492915
0.00426412
-0.00286663
-0.00714796
0.00575048
0.00586358
-0.00741025
0.00176591
-0.000219246
-0.00255889
0.00266488
-2.53551e-05
-8.0631e-05
-0.000409848
-0.000773347
-0.00439657
0.00557976
-0.00813027
0.0046263
-0.00121878
0.00472275
-0.0111085
0.00784542
0.00791578
-0.00465268
0.00678016
0.00080463
-0.0075803
-4.49552e-06
0.00240695
-0.00476487
0.000979269
0.00137864
-0.00493429
0.00155063
0.00255766
0.000825994
0.000228053
-0.00546449
0.00658266
-0.00134622
-0.004762
0.00479042
-2.84144e-05
0.000915643
0.00570028
-0.00730495
0.000689023
-0.00576799
0.00482376
0.0014588
-0.00051457
-0.0058162
0.00567327
0.000142934
0.00188905
-1.60737e-05
-0.000464336
-0.00140864
0.0074728
-0.00447214
-0.00993633
0.00693567
-3.67814e-05
-0.00150111
4.34547e-05
0.00149444
0.0030934
-0.00301999
-7.34086e-05
-0.00586427
-0.00202816
0.0020172
0.00587523
-0.00108996
0.00650155
-0.00524353
-0.000168056
0.0032153
0.000336528
0.00112112
-0.00467295
-0.00491907
-0.00235448
0.0063623
0.000911246
0.00442608
-0.00560401
3.34008e-05
0.00114453
0.00154118
-0.00134432
0.00504615
-0.00524302
0.00366019
0.00478485
-0.0057664
-0.00267864
0.00532899
-0.00334254
-0.000151389
-0.00183506
-0.00282678
0.00288162
-5.48389e-05
0.00117103
-0.00243395
0.0064836
-0.00522068
0.00675099
0.000320485
-0.0011755
-0.00589598
-0.00271435
-0.00278658
0.00285399
0.00264694
-0.000570456
-0.00321599
0.00284827
0.000938177
0.00211286
-0.00143777
-0.00448261
0.00380752
-0.000813892
0.00406057
-0.00146705
-0.00177963
0.00767366
-0.000184056
-0.0074896
-0.00329474
0.00643243
-0.00313769
0.0005914
-0.00704164
0.00407939
0.00237085
0.00117472
-0.000471706
0.00287382
-0.00357683
0.00271642
-2.81528e-05
-0.00268826
0.00489084
-0.000103267
0.00086603
-0.0056536
-0.00622032
0.000779748
0.00661529
0.00041342
0.000424348
0.00412013
-0.0049579
-0.0019679
-0.012862
0.0124705
0.00235936
0.00274147
0.000498187
0.000617669
-0.00385732
0.0020226
0.00153293
-0.00494377
0.00138824
0.00638828
0.0038263
-0.00699929
0.000578489
0.0054119
-0.00109955
0.000876033
-0.00327603
-0.0019322
0.00433219
0.00149644
0.00230092
0.000683525
-0.00448089
0.000882543
-0.000662743
-0.00203688
0.00181708
0.00331251
-0.00599371
0.00417764
0.00568515
-0.00535364
-0.00183573
0.00150422
0.00512592
-0.000937382
-0.00409964
0.00555768
-0.000234549
-0.00122349
0.00422468
-0.00540369
6.2319e-05
0.00111669
-0.00394237
0.000261228
0.0062997
-0.00261856
-0.00733872
-0.00690862
0.00579547
0.00845187
-0.00391368
0.00393828
0.00077384
-0.000798444
0.000616373
-0.00500176
-0.00412584
-8.57362e-05
0.00214438
0.0020672
-0.00644917
0.00276651
0.00417439
-0.000491726
0.0075246
-0.00605703
0.000383467
-0.00185104
0.000344187
0.000127395
-0.00494169
0.00447011
0.000249646
-0.00137263
0.00677721
-0.00565422
-0.0167225
0.00176258
0.00186296
0.013097
-0.00153058
0.00451637
-0.00143461
-0.00155119
0.00223399
-0.00117184
-0.00477412
0.00371197
0.000535926
0.00334867
-0.00425513
0.000370538
-8.13707e-05
0.00406947
0.0014068
-0.0053949
-0.000813887
-0.000131516
-0.00168321
0.00262861
-0.00434867
0.00474831
-0.000177763
-0.000221874
0.000151521
-0.0043667
-0.00306421
0.00271436
0.000823329
-0.000473479
-0.00808161
-0.000501654
0.00394102
0.00464225
-0.00243362
-0.00103681
0.00207043
0.0014
0.00359018
-0.0120423
0.00166858
0.0067835
-0.00186946
0.00376213
-0.00205469
0.000162024
0.00269615
-0.00209378
0.000267284
-0.000869654
6.67821e-05
-0.00507951
0.00501273
1.74714e-05
0.0041263
-0.00414377
0.0036192
-0.000709086
0.000479255
-0.00338937
-0.00218921
0.00312266
0.0010359
-0.00196936
-0.00153572
0.00653912
-0.00157277
-0.00343064
0.00309565
-0.00528076
-0.000200068
0.00238518
0.0035232
0.00372333
-0.00724653
0.00520668
-0.00585331
0.00149979
-0.00085317
0.000503797
-0.000940393
0.00680487
-0.00636827
0.000196817
-0.00109648
0.00490183
-0.00400217
0.00116881
0.0102352
0.00294062
-0.0143446
-0.0089329
0.00786086
0.00509267
-0.00402063
0.000411529
0.00316339
-0.00425105
0.000676123
0.00421042
0.00467291
-0.00153071
-0.00735263
0.00775141
-0.0047121
-0.000153182
-0.00288613
0.000341958
-0.00100164
-0.00314374
0.00380343
-0.00318577
1.79751e-05
0.0031678
0.00471761
0.000162832
0.000326243
0.00587467
0.000497015
-0.00893332
0.00256164
-0.0047085
0.00103599
0.000837814
0.0028347
-0.00300226
0.00074456
0.0003688
0.00188891
0.000728742
0.000523179
-0.0061903
0.00493838
-0.00126563
-0.00736449
0.00469478
0.00393534
0.00296426
-0.00350496
-0.00228551
0.00282622
0.0048031
-4.9837e-05
-0.00480041
4.71413e-05
0.00365551
-0.00515492
-0.00179537
0.00329478
0.00944795
-0.00285874
-0.0014719
-0.00511731
0.00539026
-6.29061e-06
-0.00495868
-0.000425297
-0.00272638
0.00320739
0.00668048
-0.0071615
0.00583042
-0.00203939
-0.00561091
0.00181987
0.00107118
-0.00157115
0.00682927
-0.00632931
-0.00769459
0.00701602
0.00664566
-0.00596709
0.000348277
-0.00600208
0.00231627
0.00333753
0.00751451
-0.000394411
-0.000154968
-0.00696513
0.00531976
-0.00103665
0.00102734
-0.00531045
-0.00620108
-0.00563898
0.00667442
0.00516564
-0.00116979
0.00335693
0.000910442
-0.00309758
-0.00260619
0.000142045
0.00505224
-0.00258809
-0.000583095
0.00659535
-0.00613863
0.000126378
-0.00570957
0.00530169
0.00103264
-0.00062475
-0.000190465
-0.00332916
0.0079457
0.00104593
-0.00347776
-0.00254306
0.00497489
-0.00276423
3.60798e-05
0.00272815
0.00084569
0.00384665
-0.00355816
-0.00113418
0.00617903
-0.00356456
-0.000948049
-0.00166642
4.93669e-05
-0.00184662
0.00179725
-0.00346452
-0.000933833
0.00130102
0.00309733
0.000361563
0.00199593
-0.0044746
0.00211711
0.00759823
-0.000686223
0.00296976
-0.00988176
0.000541477
-0.000680663
-0.00913204
0.00927123
0.000593901
-0.00261544
-0.00347044
0.00549198
0.000218881
0.00476408
-0.000265353
1.93353e-05
-0.00282382
0.00280448
0.00578228
-0.00214366
-0.0025927
-0.0035048
0.00292798
-0.0028877
0.00638941
-0.00531776
-0.000645167
-0.000426489
0.000637484
-0.00301437
0.00131783
0.00105905
-0.00521986
-0.00158282
0.00106176
0.00574092
0.00435777
-0.0070677
0.00467334
-0.00196341
-0.000193026
0.00639386
-0.00640206
0.000201226
-1.91447e-05
0.00586888
-0.00581795
-3.17883e-05
-0.00813728
0.00649143
-0.00520831
0.00685416
0.00678385
-0.00656254
-0.000221311
-0.00621916
0.00832558
-0.00152137
-0.000585055
-0.00554723
0.00133448
-0.000418245
0.00463099
-0.00913234
0.00069768
0.00587792
0.00255674
0.00161345
-0.00220396
0.001228
-0.00225376
0.00256218
0.00412321
-0.00443163
-0.00241769
-0.00108472
0.00138285
0.00211956
-0.00329032
0.00215156
-0.00415573
0.00529448
0.000988464
8.3366e-05
-0.00729099
-0.00327628
0.00326888
7.39964e-06
0.00357025
-0.00343314
-0.000137114
-0.00536327
-0.000350844
-0.0014239
0.00131831
-0.00705929
0.00821095
-0.00246996
0.00316984
0.00545523
-0.00693643
-0.00168864
0.00605406
-0.0065757
0.000177043
0.00034459
0.00325175
0.000844557
-0.00336026
-0.000736048
-0.00510998
-0.000280408
0.0067087
0.00296178
-0.000214476
-0.0036101
0.000862793
0.0033339
-0.00285385
0.00328706
-0.00376711
-0.00576253
0.00108334
0.00784903
-0.00195102
-0.00273343
0.00902722
-0.00434277
-0.00277989
-0.00306716
0.000737066
0.000822615
0.00220715
-0.00580965
-0.0039677
-0.000347601
0.00637316
-0.00205786
0.000613792
0.000975364
0.00351377
-0.00510292
-0.00186658
0.00456887
-0.00270229
0.00147365
-0.00712617
0.00258535
0.00424013
0.0029639
-0.00638142
-0.00597413
7.27481e-05
0.00744368
-0.00154229
0.00102379
0.000876071
0.00274205
-0.0046419
0.00410143
-0.00413118
2.97428e-05
0.00151174
-0.00057077
0.00507353
-0.0060145
0.00533286
-0.00168723
0.00256073
-0.00620636
0.00984473
-0.00316857
0.00734293
-0.0140191
0.00160012
0.00297687
-0.00123936
-0.00333762
-0.0044731
0.00183836
0.00234679
0.000287954
0.00322405
-0.00242985
-6.61868e-05
-0.000728016
-0.00205272
-0.00260143
0.00757687
-0.00292272
-0.00359313
0.00466737
0.00186077
-0.00293501
0.00541171
-0.000295495
-0.00178231
-0.00835307
0.00552455
-0.000461796
-0.00794765
0.00733274
0.00340574
-0.00279082
0.00507203
-0.00571689
-0.00082486
0.00146972
0.00286887
-0.00518891
-0.00271652
-0.00295988
-0.00271599
0.00153405
0.00414181
-0.00422887
0.0013142
0.00417399
-0.00125931
0.00490041
-0.00466507
-0.00321382
0.00297848
2.98389e-05
-4.25858e-05
-0.00461416
0.00462691
0.00011253
-0.00405252
-0.000151864
0.00409185
-0.00116635
-0.00689988
0.00108632
-0.00399901
0.00359721
-0.000684523
-0.002705
-0.00113993
-0.000383939
-8.80167e-05
0.00677506
9.31139e-05
-0.0161792
0.0113783
0.00822575
-0.00342484
-0.00479277
0.000326484
0.000173427
0.00429286
-0.000943148
0.0151056
-0.0177822
0.00361978
0.000761188
0.00117381
-0.00263509
0.000700101
-0.0102461
0.00551385
0.000714917
0.00401732
-0.000118075
-0.00680866
-0.000970724
0.00789746
-0.00278712
0.010233
-0.00709594
-0.000349937
0.00459601
0.00668503
-0.00617709
-0.00510395
-0.00547818
0.00522515
0.00648093
-0.0062279
0.00214343
0.00299553
-0.00373107
-0.00140789
0.00212328
-0.00143175
-0.00339653
-0.0108812
-0.000430158
0.00888095
0.00243043
0.00321729
0.00049561
-0.00187455
0.00328911
0.00440258
-0.0040649
-0.00362679
-0.00543423
0.00121587
0.00530379
-0.00108543
0.000643717
0.00171255
0.00596932
-0.00633591
0.00625585
0.000605597
-0.000525531
0.00392696
0.0030872
-0.00278356
-0.000109959
-0.000783643
0.00367717
-0.00418502
-0.000836702
0.00232388
-0.00801958
0.00341068
0.00228502
0.000243157
0.00433837
-0.00481314
0.000231612
-0.00166257
0.000321399
-0.00154559
0.00288676
0.00673747
-0.00481734
0.000203149
-0.00380226
-0.00296908
0.004
0.00277134
0.0143614
-0.015369
0.00502493
-0.00401733
-0.00278257
0.00345749
0.00139252
-0.00206744
-0.00637079
0.00276304
0.00555224
-0.00194449
-0.00273978
0.00398201
0.00511527
-0.0063575
0.00765202
-0.00295247
-0.00506275
0.000363195
0.000132107
-0.00185433
0.00451081
-0.00278859
-0.000784578
0.000777089
-0.00596664
0.00551809
0.00178839
-0.00590966
-0.00139682
0.00693373
-0.00568929
-0.00152484
0.0014468
0.00213435
-0.00506068
0.00147953
-0.00287717
-0.00524769
0.00467685
0.003448
-0.00086838
-0.00225069
-0.000683191
0.00281767
-0.00301573
0.00648488
-0.00628682
0.000685086
-0.00789851
0.00721342
0.00267131
-0.00350006
0.00227555
0.00146981
0.0008561
0.00120632
-0.00353223
-0.000141979
-0.00658383
0.0067258
-0.00361046
0.000479156
-0.00117187
0.00430317
-0.000433047
0.00499553
-0.00455062
-1.18632e-05
-0.0033768
-0.00179127
0.00195447
0.0032136
-0.00125831
-0.00298687
-0.00277422
-0.00407959
0.00340285
0.00345096
0.000149737
-0.00418227
0.00717228
-0.00294821
-0.000381776
-0.00384229
0.00385752
-0.000372873
-0.00281328
-0.000671369
-0.000615347
0.00539138
-0.00673401
0.00195798
0.00345799
0.000132195
0.00168352
-0.0052737
-0.000125309
-0.00283971
0.00137124
0.00159378
-0.00198357
0.00257906
0.00498143
-0.00557692
-0.00700951
-0.00180717
-0.00195201
0.0064305
-0.00604467
0.00014461
0.001892
0.00400807
0.000578493
-0.00212716
-0.00378555
0.00533422
-0.00276744
-0.00540282
0.00136313
0.00680713
-0.00250092
-0.00277211
0.00288706
0.00238597
-0.00650369
0.00625903
0.00660161
-0.00635695
-0.000882884
-0.00154181
-0.00465959
0.00708429
-0.00636724
0.000641157
0.00648179
-0.000755706
-0.00111969
0.00297518
-0.0018555
-0.00258164
0.00477014
-0.00359259
0.00140408
-0.000108663
0.0084983
-0.00315903
-0.00523061
-0.003051
-0.00147421
0.00611914
-0.00159393
0.000982884
-0.00257665
0.00584167
-0.00424791
0.000269989
0.00382816
-0.000670632
-1.62204e-05
-0.00623791
0.00623244
2.16944e-05
0.00715303
-0.00126711
-0.0104557
0.00456979
-0.00660975
-0.000645642
0.00825031
-0.000994909
-0.00359052
0.00542433
0.000445593
-0.0022794
0.0032096
-0.00317407
-3.55315e-05
-0.00378965
0.000367354
-0.00327046
0.00669275
-0.00549377
0.00756911
-0.00157409
-0.00050124
0.00341495
-0.00143106
-0.00411666
0.00213276
-0.0066119
0.00666977
-5.78656e-05
0.00542751
-0.0078954
0.000640776
0.00182712
-0.00615933
-0.00168493
0.0105335
-0.00268925
0.00454637
-0.000194551
-0.000953504
-0.00339831
-0.00258182
-0.00438537
0.00978485
-0.000463746
-0.00646241
0.00391042
0.0101292
-0.0112921
-0.00108184
0.00224467
0.00275615
0.00131276
-0.00304513
-0.00290906
0.00303027
-0.000121213
-0.00116156
0.00649466
-0.000413625
-0.00491948
-0.00142067
0.00168539
0.00567216
-0.00593688
0.00369835
0.00868856
-0.00507429
-0.00731261
0.00638675
-0.00766246
0.00243651
-0.00116081
0.00577399
7.9585e-05
-0.00585358
0.000105515
0.0056283
-0.00573382
0.00632113
-0.00764995
0.00675633
7.10817e-05
-5.79368e-05
0.00495975
-0.00497289
0.000124438
0.00898732
-0.00895951
-0.000152256
-0.000763168
-0.00226496
-0.00458086
0.00760899
-0.00280543
-0.00167502
0.00056303
0.00531897
-0.00925982
0.00337782
-0.00445823
-0.00116907
0.00477995
0.000847347
-0.00530947
0.00586197
-0.00156815
0.00101565
0.000828574
0.00432062
-0.00146948
-0.00367972
-0.0021008
0.000522015
0.00356516
-0.00198638
-5.58462e-06
0.00162161
-0.00204002
0.000423988
-0.00225585
0.00551449
-0.00317974
-7.89047e-05
0.00165055
-0.00521801
-0.00304444
3.55603e-05
-0.00486341
0.00482785
-0.0018159
-0.00174208
0.000808582
0.0027494
0.00269899
-0.0015573
-0.00114169
0.00679193
-0.00674485
-0.00137636
0.00132928
-0.000620665
-0.0040317
0.00371937
0.000932999
-1.68293e-05
2.31736e-05
0.00367436
-0.00368071
0.00182776
-0.001502
-0.00581518
0.00548942
0.00423034
-0.000108776
-0.00412157
-0.00616397
-0.0039907
0.00594598
0.00420869
0.00358328
0.00561347
-0.0096605
0.00341244
-0.00122722
0.00192051
-0.00410574
-0.00137002
0.00135823
-0.00754808
0.00755986
0.00212466
-0.00418508
-0.00407026
0.00613068
-0.000427605
-0.000960175
0.00452023
-0.00313245
0.00314488
-0.00386554
0.00140092
-0.000680261
0.00174402
-0.00289213
-0.00279539
0.0039435
-0.00559263
0.00629551
-0.00167313
0.000970259
0.00639127
0.00821608
-0.00904635
-0.005561
-0.00494045
0.00491619
2.42639e-05
-0.000548625
0.00580504
-0.00725792
0.00200151
0.000223485
-0.000362951
-0.00560763
0.0057471
0.00545468
0.000229731
-0.00627648
0.000592072
-0.00236011
-0.00398873
0.00501595
0.00133289
-0.00569776
0.00807378
-0.00286015
0.00048413
-0.00232236
-0.00284211
0.00168672
-0.000345931
-5.82564e-05
-0.00401605
0.00442024
-0.0131342
5.38525e-05
0.00117342
0.0119069
0.000516853
-0.00332093
-0.00171858
0.00452265
0.00818271
-0.000674049
-0.00264824
-0.00486042
-0.00144767
-0.00314094
0.000605268
0.00398335
0.00232888
-9.07626e-06
-0.0023198
0.00385208
0.00205126
-0.00127927
-0.00462408
0.00298069
-0.00236274
0.00588305
-0.006501
0.000191938
0.00613114
-0.00202374
-0.00429934
0.00148322
0.0021181
0.00458139
-0.00292681
0.00020935
0.00271746
-0.00379448
0.000538286
0.00100602
0.000635172
-0.00524206
0.00360087
-0.00497843
0.00728507
0.00220278
0.00752149
-0.00159092
-0.00813335
-0.00479802
0.00471245
-0.0074555
0.00754107
-0.000717618
-0.00359444
0.00125751
0.00305455
-0.00397172
0.00749492
0.00223216
-0.00259981
0.000587055
-0.000219406
-0.00245443
-0.00783456
0.00245192
0.00783708
0.00515555
-0.00514518
-4.69809e-05
3.66087e-05
0.00415389
-0.004861
0.00103437
-0.000327266
0.00106802
0.00417281
-0.00743878
0.00219796
1.83926e-05
0.00357841
-0.00359681
0.00232476
-0.00596399
0.00470725
-0.00224763
0.00604356
0.00509259
-0.00888852
0.00171139
-0.00175185
-0.00813769
0.00817815
-0.00244632
0.00405851
-0.00814876
0.00653657
-0.00585439
0.00466049
0.00610648
-0.00491258
-0.00364419
0.0049943
-0.00322712
0.00187701
-0.000778378
0.00338823
0.000550208
-0.00316006
0.00169564
-0.0024729
0.00255075
-0.00177349
0.00324174
0.00120669
0.00106601
-0.00551443
0.00915749
-0.00621986
-0.00037617
-0.00256146
-4.10993e-06
-0.00445492
0.00445903
0.00277166
-0.0040598
-0.0124474
0.0137355
-0.000558689
-0.00603052
-0.00182751
0.00841672
-0.000366179
-0.00277159
0.00313777
0.000848616
0.00401366
-0.000640268
-0.004222
-0.00111535
-0.00402841
0.00325008
0.00189368
0.00315294
-0.00264096
-0.00463783
0.00797471
-0.00620865
0.00177822
0.00188266
-0.00366089
0.00604184
-0.000110976
-0.000727579
-0.00520329
-0.0011673
-0.00198554
0.00315284
0.00214541
0.00142587
0.0120259
-0.0144637
-0.00510596
0.0075437
0.00184343
0.00392394
-0.00300193
-0.00276543
-0.00421756
0.00807537
0.00536326
-0.00922107
0.004766
0.00165471
-0.000636586
-0.00578412
0.00782169
-0.00521624
0.00336601
-0.00597146
-0.0044335
0.00202702
-0.00556784
0.00797432
-0.00717326
0.0128513
-0.00503161
-0.000646407
-0.000193854
-0.00305374
-0.00420483
0.00745242
0.00583959
0.00241136
-0.00684982
-0.00140113
0.00313178
-0.00834132
0.00525869
-4.91547e-05
-0.00735516
-0.00027735
0.00481166
0.00282086
-0.00147791
0.00381917
0.0016607
-0.00400196
-0.00093436
0.00374628
0.00301567
-0.0058276
-0.00767831
0.00394654
-0.000370064
0.00410183
0.00069563
-0.00207192
0.00411472
-0.00273843
0.0032774
-0.00164848
0.00116983
-0.00279874
0.00316214
0.000608056
0.000307241
-0.00407743
-0.00462918
0.00496782
0.00183914
-0.00217777
-0.00110009
0.00590168
0.00011732
-0.00491892
0.00475431
-0.00278904
-0.00184271
-0.000122559
0.004105
3.11465e-05
-0.00413615
0.00299169
0.00231622
-0.000525685
-0.00478223
0.00140627
0.00371234
0.00317011
-0.00828872
-2.70479e-06
-0.00667403
0.00667673
-0.00348039
0.0134667
-0.00196681
-0.00801947
-6.41601e-05
0.0050317
-0.00496754
-0.000333124
-0.00359509
0.00064664
0.00328157
-0.00654675
0.00333926
0.00253294
0.000674541
0.00133468
0.00110701
-0.00763945
0.00519775
0.00388228
0.00613242
-0.00229177
-0.00772293
0.0059025
-0.00201869
-0.00564977
0.00176597
-0.00735822
0.00419749
0.011241
-0.00808024
-1.8425e-05
0.00284018
-0.00284
1.82444e-05
-0.00294045
0.00291015
3.03004e-05
-0.0074823
0.000112995
0.00315175
0.000836262
0.00180337
0.00494333
-0.00758296
0.0038869
-0.0046229
0.00298152
-0.00224552
-0.00377189
0.00330377
-0.000124015
0.000592135
-0.000778563
-0.00619584
0.00791165
-0.000937241
-0.00276819
0.00133251
0.00438397
-0.00294829
0.00477112
-0.00184077
0.000704797
-0.00363515
-0.00315769
-0.000550182
0.00369652
1.13448e-05
-0.000547618
-2.92661e-05
0.00520261
-0.00462573
0.000659339
-0.000554903
0.00518526
-0.0052897
-0.00466864
0.00652052
-0.00683249
0.00498062
2.26429e-05
-0.00587854
0.0058559
-0.0020898
0.00018376
0.00527206
-0.00336603
-0.00398799
0.00466246
-0.00635976
0.00568529
-0.00410076
0.000313696
0.001244
-0.00190486
0.00516719
0.00029033
-0.00355267
-0.00137233
0.000190979
-0.00232345
-0.00203144
-0.00660379
0.0066326
0.00200263
-0.00294244
-0.000342065
-0.000742908
0.00402741
-0.0100612
0.00339831
0.000992758
0.00567011
-0.00317871
0.00731578
-0.00363656
-0.000500518
0.00221956
0.000868671
-0.00446056
0.00439429
0.00447754
-0.00887182
0.00060273
0.00962741
-0.00223548
-0.00799466
-0.000122629
-0.000172911
-0.00427343
0.00456897
-0.00462025
0.00760793
-0.00306907
8.13896e-05
0.00438274
-0.00276654
-0.00397233
0.00235613
0.00110247
-0.000147955
0.00134936
0.00675158
0.00187187
-0.00975587
0.00113242
-0.00470197
-0.000608762
0.00153901
0.00377173
0.00176011
-0.00195495
-0.00264727
0.00810294
-0.00545542
0.00424805
-0.00689557
-0.000900747
0.00523908
-0.00905919
0.00472086
0.00314781
-0.00397844
-0.000404058
0.00123468
-0.00346692
-0.00120765
-0.000116745
0.00479131
-0.00260376
-0.00245832
0.00506208
0.000650549
-0.00696975
0.00618203
0.000137174
0.00267487
-0.00258359
-0.00269505
-0.00436888
0.00554228
-0.00105494
-0.000118459
0.00622162
0.00171277
-0.00670302
-0.00123138
-0.00241259
-0.00352552
-0.000404894
0.00634301
0.0039894
-0.00121479
0.00462408
-0.00739868
-0.00442847
-0.000240176
-0.00529257
0.00283425
0.000676517
-0.00589061
0.0018846
0.0033295
0.00172157
-0.00617657
0.00340006
0.00105495
0.000928045
0.000240796
-0.00465169
0.00348285
0.000701753
0.00301895
-0.000206023
0.00523091
-0.001033
-0.00399189
-0.00205129
-0.000215346
-0.00191109
0.00417773
-0.00121331
-0.00163405
0.00312428
-0.00027692
-0.0048505
-6.85693e-05
-0.00816681
0.00293536
0.00429708
0.0115855
-9.78419e-05
0.00157884
-0.0130665
-0.00509476
0.00790521
0.00160798
-0.00441844
-0.00145091
0.000792288
0.00499357
-0.00433494
0.000601668
0.00170981
-0.00132192
-0.00098955
-0.00872113
-0.00180884
0.00752279
0.00300718
0.000192283
0.00370418
-0.000743519
0.000112699
0.00185457
-0.00582035
0.00385308
-0.00358157
-1.25158e-05
0.00132007
0.00227402
-0.00496718
0.00613924
-0.000979774
0.00280919
-0.00253322
-0.000275972
-0.00411859
0.000588407
-0.00319436
0.00672454
-0.00187104
0.00281722
-0.00217163
0.00122544
-0.00402357
0.00453114
-0.00187243
0.00136486
0.00179559
-0.000302223
-0.00423675
0.00274338
-0.00179853
0.0112767
-0.0151759
-0.00162239
-0.00113204
0.00110822
0.0016462
0.005329
-0.00831704
-0.000377016
0.00336505
-0.00223904
0.00167062
0.00287986
-0.00231145
-0.000666476
0.00353757
-0.000975029
-0.00189607
-0.00397966
0.000883143
0.000929697
0.00216682
-0.00224788
0.000193225
0.00205466
0.00512699
-0.00244045
-0.00260334
-8.32077e-05
0.000379212
0.00258522
-0.00392411
0.000959684
-0.00274598
-0.00333055
0.00339565
0.00268088
-0.00143491
0.00369825
-0.00316641
0.000903066
0.00132432
-0.00250633
0.001727
-0.000544994
0.00483899
0.000127069
-0.00496606
0.00415332
-0.00511468
0.00253187
-0.0015705
-0.00653173
-0.000181855
0.00671358
0.00266703
-0.00221233
0.000516928
-0.000971627
-0.000208009
0.00463607
-0.00506286
0.000634806
-0.00230707
0.0028878
0.000743597
-0.00258571
0.00554057
0.00511893
-0.00439765
0.00435815
3.9498e-05
8.61847e-05
-0.0069746
0.00688841
0.00934782
0.00112675
-0.00198451
-0.00849006
0.00195993
-0.00763336
-0.000946774
0.00662021
0.00147418
0.0017453
0.000990255
-0.00420974
-0.00262212
-0.00262037
3.5529e-05
0.00520696
-0.0012532
0.00171771
-0.00308664
-0.00576644
0.00104226
0.00756826
-0.00284407
-0.0113542
0.0083171
0.00365742
-0.000620267
0.00502129
3.95504e-05
-0.00506084
-0.00286783
-0.0038599
0.00249731
0.00423042
-0.00285701
-0.00414808
0.00123865
-0.00410201
0.00222905
0.00257472
0.00166972
-0.00217246
-0.00398292
0.00448566
-0.00280653
2.3359e-06
0.00280419
-0.00657061
0.002668
0.00271039
0.00119221
0.00164724
-0.00441455
-0.00133469
0.00563155
-0.00178631
-0.000141449
-0.00370379
-0.00378261
0.00626932
0.00371705
-0.00620376
-0.00112113
-0.00234714
0.000873145
0.00259512
-0.00159213
-0.00128156
0.0028737
-0.00279497
-0.00587054
-0.00268873
0.00131652
1.80466e-05
0.00265606
-0.00399063
0.00535971
-0.00390121
-0.00564675
0.00418825
-0.00198878
0.000709235
0.00401865
-0.00273911
0.00375791
-0.00264599
-0.000372317
-0.000739606
-0.00431225
0.000700296
0.00336871
0.000243252
-0.00268187
0.00614352
-0.00664267
0.00258986
0.000191722
0.00386108
0.00626444
-0.00500649
-0.00394239
0.00268444
-0.00497479
0.00103807
0.00929643
-0.00480562
-0.00317212
0.00517383
0.00280391
-0.000564394
0.00501799
-0.00190314
-0.00255046
0.000287126
-0.00299472
-0.00196867
0.00467626
0.00570615
-0.00376438
-0.000230955
-0.00171082
0.00177085
0.00132387
-0.00434792
-0.00120065
0.00135997
0.00335007
-0.00350939
-0.0010039
0.00522227
-0.00643247
0.00221411
-0.00315293
0.000760454
0.000763313
0.00162916
-0.00689133
0.00700414
-0.000112813
0.00478289
-0.00471452
-6.83744e-05
0.00191664
-0.00738936
-0.00283804
0.00831076
0.00168407
0.00320052
0.000746966
-8.05835e-05
0.00279828
-0.0027177
0.00454502
0.0040655
-0.00861052
-0.00496694
0.00303311
0.00214235
-0.000208514
-0.00278937
0.000919052
0.0022683
-0.000397984
-0.00837206
0.00390926
0.00459055
-0.00012776
-0.00270822
-0.00301662
0.00291831
0.00433792
-0.000686201
-0.0027907
-0.00086102
-0.00462296
0.00498744
-0.00304635
0.000814375
-0.0051836
-0.000265351
0.00463457
-6.20976e-06
-0.0025672
0.00257341
0.0125055
9.12145e-05
0.00133874
-0.0139355
-0.000472157
-0.000926358
-0.00682662
0.00822513
0.00216355
-0.00293097
-0.00136495
0.00213238
0.000841828
0.00649734
-0.0026221
-0.00471707
0.0070722
-0.00707467
-1.2464e-05
1.49379e-05
-0.00396227
-0.00357331
0.00558653
0.00194905
0.00231799
0.00177118
-0.00461716
0.000527992
3.21051e-05
0.00428794
-0.00438304
6.29987e-05
-0.00592076
0.00189715
0.00479654
-0.000772939
0.00451944
0.00273329
-0.00457561
-0.00267711
0.000105625
-0.00403579
0.00204788
-0.00105073
0.00607505
-0.00325211
-0.000423183
-0.000507106
0.00418239
-0.00548156
0.000297437
0.00518412
0.00798099
0.00345326
-0.00258818
-0.00884607
-0.0052158
0.000111277
0.00521014
-0.000475315
-0.00123986
-0.00316248
0.00487766
-0.000623588
-0.000625157
-0.00168463
0.00293337
0.00131664
-0.00667309
0.00503155
0.000324903
0.00417169
-0.000649015
-0.00405948
0.000536804
-0.00511038
0.00106405
0.000407271
0.00363906
-0.00195067
0.00128165
-0.00265465
0.00332367
0.00112066
0.000726747
-0.0066285
0.00478109
0.000231032
-0.00448936
-0.000311528
0.00456986
0.00444733
0.000585659
-7.94647e-05
-0.00495352
-0.00529531
0.00123225
0.0047918
-0.00381184
-0.00506213
0.00887397
0.00733689
-0.00372236
0.0015793
-0.00519383
0.000575638
0.00410785
-0.00251994
-0.00594276
0.00109566
0.00210472
0.00274238
0.00734179
-0.0075747
0.000232905
-0.00446006
-0.0015164
0.00312286
0.0028536
-0.00579026
-0.00449487
0.00301625
0.00726888
0.00596723
-0.0062311
-0.000763114
0.00102698
-0.000868435
0.00290013
-0.00228474
0.000253038
-0.00748118
0.00244429
0.00171704
0.00331985
-0.0110481
0.013738
0.00229863
-0.00498858
0.00494262
-0.0107095
-0.000547891
0.00631476
-0.00439396
0.00559015
-0.0103562
0.00916001
-0.00459211
0.0101213
0.00100343
-0.00653265
0.000405384
0.00480759
-0.0011254
-0.00408758
0.00733324
-0.00550305
-0.000183663
-0.00164652
-0.00127871
-0.00122825
0.00187718
0.000629781
-0.00344037
-0.00716614
0.00612862
0.0044779
-0.00492102
0.00655867
0.00569559
0.00401221
-0.00295005
-0.00367442
0.00261226
0.00146836
-0.00189962
-0.000838701
0.00126996
0.0032563
-0.0032232
-0.004284
0.0042509
-0.00131709
0.00377637
-0.000272597
-0.00218668
-0.0052544
-0.000842354
0.00650214
-0.00394818
-0.000970528
0.00488108
3.76269e-05
0.00163382
-0.00364976
0.00201593
0.00129363
-0.00171683
0.0063997
-0.00597649
0.00504706
-0.00709677
0.00102977
0.00101994
0.00320758
-0.00345922
0.000251634
-0.00505473
0.000133709
0.00448144
-0.00170936
-0.00432702
0.00155493
0.00142077
0.00114782
0.00503312
-0.00760171
0.00313983
-0.003409
0.00026917
-3.74864e-05
0.00390321
-0.0044127
0.000546974
-0.00553308
-0.000531581
0.00735829
-0.00238111
-0.000406698
0.000550343
0.00223746
0.000328983
-0.00271511
0.00200263
0.000383504
0.00445908
-0.00426986
-0.00105765
0.000515711
0.00742565
-0.00468294
-0.00325842
-0.00253847
0.00536713
-0.00282866
-0.00687742
0.00263271
-0.0016119
0.00585661
0.00539825
-0.00488777
-0.00799166
-0.00265577
-0.00318023
0.0109248
-0.00508877
-0.00774851
0.00493693
0.0070421
-0.00423052
-0.000167052
-0.00661897
0.00678602
0.0104666
2.0309e-05
-0.00603254
-0.0044544
0.00609481
-0.00392904
-0.0005428
-0.00162297
-0.00443371
0.00314446
-0.000793248
0.0020825
5.98149e-05
-0.0045931
0.00453329
-0.00331913
0.00341672
-9.75889e-05
-0.00241562
-0.00255481
-0.00653568
0.0115061
-0.00616461
0.00134572
-0.00068465
0.00550354
0.00144027
0.00233698
0.00638135
-0.00575917
-0.00476061
0.00413842
-0.00175887
-0.00363179
0.00400206
0.0013886
-0.00364784
-0.00185411
0.0055085
-6.55712e-06
0.00120856
-0.000694471
-0.00341036
0.00289627
0.00402428
0.000179437
-0.00514712
0.000943402
0.00124263
-0.00086619
0.00134354
-0.00162194
0.00161619
-0.00133779
0.00329269
0.0032231
-0.00329326
-0.00322252
0.00162624
0.00380541
-0.00393423
-0.00149743
0.00342923
0.00148507
-0.00269473
0.00425148
-0.00515591
0.00108387
-0.00566291
0.00395875
0.00213373
-0.000429567
0.00671077
-0.00222176
-0.00702748
-0.00179982
0.00479066
0.00240741
0.00467435
-0.00227698
-0.00394499
-0.00107782
-0.000640101
-0.00629142
0.00588439
0.000554724
-0.000147691
-0.000390955
0.00787268
-0.000814014
-0.00666772
-0.00513327
0.00104607
0.00228738
-0.000817672
-0.00517461
0.00145572
0.00453656
0.00469942
0.000653415
-1.46837e-05
-0.00533815
-0.00703184
-5.48943e-05
4.54532e-05
0.00704128
-0.00181319
0.00198195
-0.00322796
0.0030592
-0.00483881
0.00611949
-0.000633028
-0.000647644
0.00637042
-0.00594567
-0.00526356
-0.00468942
0.00422927
-0.00133943
0.00179958
0.00377952
-0.000170754
-0.0011886
-0.00242016
-0.00713449
0.00687806
0.00337406
-0.00311763
0.0033938
0.00129272
-0.000431389
-0.00425514
0.00120989
0.00306832
-0.00383693
-0.000441281
-0.00227403
0.0022881
-1.40626e-05
-0.00132939
-0.00339186
0.00340416
0.00520904
-0.0051616
-4.74388e-05
-0.00289257
-0.00230192
0.00226352
-0.000303571
-0.0034927
-0.000382798
0.00417907
-0.000398616
-0.00306495
0.00274139
0.000722169
0.0047596
-0.00541338
0.000653776
-0.00612202
0.00627547
0.00575479
-0.00590824
-0.00410619
0.00317044
-0.00215713
0.00309288
-0.00165415
0.000706764
0.0014978
-0.000550416
-0.000170963
0.00741587
-6.57524e-05
-0.00717916
-0.003777
0.00183114
0.00186012
0.00216051
0.00274993
-0.00479755
-0.00011289
0.000208397
-0.00596869
-0.000233424
-0.00537101
0.00537205
-1.04097e-06
-0.00362531
0.00182564
-0.00399058
0.00121525
-0.0026888
0.000108606
0.00237076
0.00102922
0.0035317
6.88605e-05
-0.0030206
-0.000579957
0.00295788
-0.00738104
0.00591774
-0.00149458
0.00123146
-0.00167637
0.00622914
-0.00578422
0.00761483
0.00224635
-0.00117101
-0.00869017
-0.00193886
-0.00317874
-0.00103313
0.00615073
0.00231082
0.00962371
-0.00868874
-0.00324578
0.00110761
0.00699153
-0.00674925
-0.00134988
-0.00239155
0.000315209
0.00490208
-0.00282574
-0.000843212
0.0068457
-0.00369168
0.00496523
-0.00392028
-0.00152959
0.000484643
0.00162953
0.00425941
-0.00588893
0.00395061
0.00087737
-0.000526396
-0.00430158
-0.00364037
0.0029101
0.000292505
0.00043776
-0.000352221
-0.00518315
0.000303779
0.00523159
-0.00379207
-0.000482303
-0.000154764
0.00442913
0.00217652
-0.00482755
4.79465e-05