/*--------------------------------*- C++ -*----------------------------------*\
  =========                 |
  \\      /  F ield         | OpenFOAM: The Open Source CFD Toolbox
   \\    /   O peration     | Website:  https://openfoam.org
    \\  /    A nd           | Version:  10
     \\/     M anipulation  |
\*---------------------------------------------------------------------------*/
FoamFile
{
    format      ascii;
    class       volScalarField;
    location    "8.5";
    object      SgP;
}
// * * * * * * * * * * * * * * * * * * * * * * * * * * * * * * * * * * * * * //

dimensions      [1 -1 -3 -1 0 0 0];

internalField   nonuniform List<scalar> 
111485
(
1.28697e-09
9.33923e-05
2.26848e-05
7.70363e-10
6.67688e-06
2.56005e-08
1.18391e-05
1.71811e-07
1.05911e-05
2.31591e-06
2.08603e-05
8.34596e-07
5.47131e-06
0.260351
5.33525e-06
1.34561e-05
0.184994
0.000933874
8.02253e-07
4.24709e-08
0.0337202
6.19975e-10
2.29544e-06
9.18456e-06
3.44389e-05
2.1094e-08
4.90536e-07
1.04822e-05
9.76882e-07
0.0436451
3.38047e-06
3.87491e-07
1.95174e-07
1.28476e-06
0.000668896
7.94392e-05
0.120987
0.18095
0.0021927
7.07505e-07
0.0376935
9.91956e-07
2.3836e-06
9.2567e-05
1.98032e-05
1.41718e-06
5.08276e-06
4.68667e-07
5.16534e-06
3.80392e-07
1.11605e-06
1.52619e-05
4.69677e-07
8.00544e-06
1.32297e-06
1.5414e-07
2.19653e-06
2.73425e-08
3.92453e-05
3.3919e-07
4.38741e-07
2.2833e-07
6.95986e-05
5.73832e-06
5.94126e-06
1.60349e-05
0.000371614
1.87834e-06
5.64169e-05
0.00011052
4.56401e-05
6.60152e-05
1.0374e-05
7.44092e-05
3.05639e-08
1.80257e-06
9.5929e-09
6.31861e-07
2.59236e-08
2.80032e-05
0.248473
0.464738
3.23347e-08
4.73576e-09
1.25444e-05
3.02365e-05
0.12621
7.87303e-06
0.000219486
2.25834e-06
1.13001e-06
5.70743e-06
3.75577e-05
3.82588e-07
1.53236e-06
8.29392e-09
0.024521
1.00016e-05
0.00137033
0.000473419
2.08319e-09
2.2854e-06
1.70648e-06
1.19023e-05
5.45143e-06
1.44992e-05
1.13621e-08
3.43712e-07
1.11712e-05
0.000624171
3.11245e-05
1.12338e-06
1.06541e-05
6.11343e-05
8.29512e-08
1.78145e-07
2.09197e-08
5.69038e-06
1.85098e-05
3.7318e-09
8.1734e-08
0.000170186
0.0651858
1.92018e-06
4.82483e-05
0.0256359
9.54831e-05
9.25483e-06
7.3811e-10
0.000276181
0.000120425
1.49174e-05
0.0427662
0.000156651
7.03528e-05
6.61517e-07
3.14686e-09
2.054e-07
8.23966e-06
2.07292e-05
5.99363e-05
2.52622e-07
0.159137
7.65436e-05
3.46401e-05
1.93912e-06
1.45285e-08
1.26889e-09
4.07071e-08
2.23679e-07
2.59458e-05
0.0258769
0.102301
8.66305e-06
3.35787e-05
4.37325e-07
4.64066e-06
0.000119189
0.000712726
4.92525e-06
1.57713e-10
5.9097e-07
3.22598e-05
6.54289e-05
5.746e-05
2.9937e-05
5.38906e-06
0.0234507
0.00134707
0.000113828
1.59871e-09
1.32328e-08
0.179009
1.24065e-09
1.90952e-07
2.2011e-06
5.1366e-07
9.37938e-06
3.23036e-08
5.16346e-06
8.70805e-06
2.92571e-08
1.82923e-06
4.20398e-07
1.87585e-06
1.78453e-05
8.23737e-06
4.06529e-05
0.000320781
1.51875e-07
4.07382e-05
5.3944e-06
6.42331e-06
2.89891e-05
4.34303e-06
1.04587e-05
1.58993e-06
9.59468e-07
7.83986e-07
6.43095e-06
2.01791e-06
0.00145848
6.95259e-05
7.15956e-07
1.59685e-06
3.41104e-06
9.39502e-06
1.05418e-05
1.53205e-05
1.92505e-06
4.05058e-06
7.79668e-06
7.3307e-06
8.55081e-09
5.43031e-05
0.000276398
3.72679e-07
9.57541e-09
9.18043e-06
1.44387e-05
7.67845e-07
8.05928e-08
1.1236e-05
1.45091e-05
0.000248259
1.34524e-08
9.30077e-10
2.67465e-05
0.00361898
2.10625e-05
8.21176e-05
1.32481e-05
1.76946e-06
0.128546
3.43881e-05
1.76032e-05
0.142601
4.47621e-08
4.60699e-05
1.62554e-05
1.9585e-05
2.34933e-05
3.63521e-06
3.51523e-06
0.00162885
7.87295e-07
6.77384e-06
3.01769e-08
4.25318e-06
0.120209
1.65083e-05
9.73019e-06
1.79212e-05
5.22881e-10
0.000171643
3.68652e-07
2.3509e-07
5.99799e-05
0.0893098
2.02231e-08
3.47869e-06
3.90176e-05
1.94981e-06
4.91891e-09
8.16275e-06
1.74485e-10
3.76788e-08
4.4771e-07
0.149251
3.56644e-06
2.53755e-05
1.19275e-06
0.156459
1.61828e-05
1.01413e-06
0.000210009
3.49723e-06
1.03808e-06
4.62316e-07
6.32701e-09
0.101816
3.41008e-07
3.562e-05
1.44212e-05
1.53732e-09
0.191849
0.234389
1.27159e-06
0.000264025
2.91172e-05
2.56327e-06
7.0077e-06
1.05324e-05
4.10724e-08
5.64923e-06
4.40843e-09
0.000321612
0.000237033
1.27159e-05
1.65516e-06
0.305571
1.56009e-08
0.0744758
6.58467e-07
5.15854e-06
6.10054e-09
9.97967e-08
0.0223287
3.45152e-06
1.29154e-06
4.80936e-06
0.000131737
5.57462e-07
2.69168e-05
2.79962e-08
2.32369e-08
3.79797e-06
0.00387925
0.221886
2.98489e-06
0.000658207
1.27962e-09
9.26557e-09
1.36425e-08
7.59753e-05
5.53642e-07
6.70318e-07
1.86172e-06
7.60377e-07
6.37563e-05
0.0551015
4.34093e-06
1.03498e-07
1.73685e-06
1.76792e-06
0.0417178
4.46494e-05
6.68184e-07
6.1248e-07
5.18627e-07
1.24324e-05
3.29176e-08
0.132839
0.000143407
5.44284e-07
2.46291e-06
0.000266226
3.44968e-07
0.0338786
4.69872e-07
8.25554e-06
5.73431e-06
3.32229e-07
1.7813e-05
8.00555e-06
1.28105e-07
5.05331e-07
6.17147e-07
1.64479e-06
0.319089
2.42816e-05
1.46527e-07
0.0458646
1.4056e-05
2.13041e-08
3.63615e-07
3.69933e-07
0.0426685
0.000539721
0.0415967
0.0429958
2.37753e-07
2.70353e-08
1.72978e-06
2.64262e-06
1.88483e-09
5.64072e-06
2.37688e-06
1.38229e-05
2.15464e-05
0.000112687
4.05402e-06
0.000617989
4.10406e-07
5.14568e-06
3.79852e-05
5.98697e-07
0.000580409
3.52191e-07
1.29017e-05
2.22431e-06
0.026288
9.90095e-08
1.11166e-07
0.136541
3.81764e-06
0.270549
6.58114e-08
4.0857e-06
2.84739e-06
5.97889e-09
4.3196e-06
3.79212e-05
5.6044e-09
0.0290401
2.08654e-06
2.2618e-06
4.09137e-07
2.12587e-08
0.00066981
4.82983e-09
8.07109e-06
2.82516e-06
7.02281e-10
8.00686e-07
3.33549e-05
0.217661
0.000111264
2.29271e-09
7.13632e-05
8.8359e-05
8.75743e-05
3.32526e-05
0.000545275
2.29858e-06
0.000993042
4.78195e-05
0.179862
0.000179385
3.8956e-08
6.14524e-06
9.69215e-07
1.71804e-07
0.0012546
0.000174742
7.47056e-05
1.30603e-06
1.14842e-06
8.43224e-06
3.20331e-08
0.308427
8.8793e-07
2.93312e-05
0.00393606
8.07726e-05
0.00114203
3.61671e-08
0.224757
0.291644
2.13028e-08
2.76898e-05
0.000225481
9.18163e-05
2.54814e-09
2.66091e-05
4.21284e-09
0.252374
6.33189e-05
1.64777e-05
8.81838e-05
1.88512e-05
1.45127e-07
1.34816e-06
4.67132e-07
5.77502e-05
1.50528e-07
5.38066e-07
0.0474971
7.84123e-05
3.039e-08
1.05883e-09
0.000341016
7.61154e-08
1.31212e-06
3.18752e-06
2.03886e-08
5.51646e-05
6.05941e-08
0.0672194
6.07125e-08
1.50334e-06
1.64646e-08
0.000190928
3.77447e-07
0.198771
1.65918e-05
0.20913
5.12451e-09
5.65742e-05
2.15676e-06
3.41337e-09
0.326022
0.126318
2.14452e-05
2.84367e-06
2.77323e-05
7.4681e-07
1.03744e-05
5.78724e-07
3.81483e-05
0.255144
1.71849e-08
1.95637e-06
9.63598e-05
1.41321e-05
0.051152
4.35739e-06
0.000103381
1.87895e-06
1.11938e-06
0.000669755
0.0709612
1.42046e-05
1.83566e-08
1.13402e-06
3.22126e-06
3.19796e-06
9.89263e-07
1.75167e-05
2.51079e-09
0.00154415
6.63808e-08
2.86594e-07
1.94472e-07
7.29396e-05
1.82941e-09
7.03779e-06
3.00356e-08
6.92293e-06
3.36093e-10
0.10292
0.102918
1.47671e-05
5.21888e-07
0.0565161
0.0729851
3.3315e-08
2.13589e-07
1.14319e-05
5.78942e-08
0.000128824
1.5554e-05
1.09804e-05
0.0386577
1.41441e-06
3.27778e-09
4.16401e-05
4.01782e-05
5.22021e-05
1.03317e-06
1.35041e-05
8.88666e-06
8.41769e-07
8.51991e-07
1.91832e-05
2.56807e-05
1.4113e-09
0.112717
6.05278e-05
3.72116e-05
1.1355e-06
0.00105518
2.66835e-05
0.00039459
0.00267166
0.000342083
4.80076e-06
7.38061e-05
1.09627e-05
1.74366e-05
0.101158
0.000183824
6.61441e-05
0.00323407
0.0683259
3.07939e-08
5.29056e-05
3.86945e-06
3.63557e-05
2.79853e-07
0.000461075
0.0025014
0.000382505
0.000148441
2.17743e-05
1.88766e-06
6.46205e-08
0.00017687
2.92315e-06
3.22633e-08
8.1887e-09
2.81487e-08
4.68818e-08
8.56572e-06
7.76849e-09
0.0314983
1.08344e-05
1.85894e-05
0.0888842
0.28198
5.41737e-05
2.44426e-06
0.033704
5.0294e-08
1.60272e-05
1.55958e-07
1.41272e-08
4.26414e-05
2.0345e-05
0.106261
2.23227e-05
1.02203e-07
2.43886e-06
2.60427e-05
0.127062
5.93797e-06
2.38706e-05
5.97214e-05
0.1765
0.0359864
2.23329e-06
1.48757e-05
5.25501e-06
1.96554e-06
5.51799e-06
1.06045e-06
2.73219e-05
3.42321e-06
1.81978e-06
9.8178e-07
3.61916e-06
0.000576137
2.9373e-05
3.59576e-06
3.93184e-06
0.000587606
2.36078e-07
4.60766e-07
1.34606e-05
2.63069e-06
1.37413e-05
1.81765e-06
2.93922e-06
2.8948e-06
2.62039e-05
0.000173149
1.23808e-05
1.72797e-05
2.16852e-06
4.77737e-07
3.29643e-05
4.08159e-06
5.562e-09
0.0673539
2.86055e-08
0.123347
5.22344e-05
0.010575
7.91438e-08
0.0255387
1.28676e-06
1.11319e-05
6.48724e-10
6.56715e-06
2.87001e-07
1.55796e-08
8.10543e-07
0.249384
0.000104095
2.64708e-05
0.0373291
9.43773e-08
2.17005e-09
3.81327e-06
1.33411e-06
7.48522e-05
4.75481e-07
0.000112364
5.24285e-08
6.28939e-06
0.000107326
0.148047
4.6534e-09
8.87049e-09
2.59564e-06
5.36818e-07
0.000119029
3.07445e-07
0.0546631
8.26696e-07
2.65938e-08
2.06089e-07
0.0394841
5.45933e-06
0.000114909
1.05284e-09
0.00451734
0.000909582
0.160539
2.35262e-08
1.70002e-08
3.26908e-06
2.04348e-05
3.55453e-05
0.000519737
0.000296202
0.000209983
3.51109e-06
0.0551072
2.16137e-05
6.48605e-07
5.03472e-08
1.12773e-06
1.40193e-08
4.9608e-09
6.12034e-08
2.2774e-09
2.71473e-06
4.66215e-08
1.16755e-08
4.3071e-07
1.70511e-07
1.16269e-06
9.65799e-08
5.44306e-07
1.96058e-07
1.20226e-05
1.26581e-05
2.23403e-08
6.7716e-09
1.66433e-05
7.20342e-10
7.04821e-05
1.44238e-06
2.43904e-06
7.64833e-08
8.41981e-10
1.12555e-09
1.42768e-09
1.25556e-05
2.9384e-08
5.86332e-08
1.82984e-05
7.00538e-09
1.10392e-05
7.22075e-05
2.04859e-06
1.14889e-06
0.000464925
3.20597e-06
0.222538
9.17093e-05
7.33332e-06
0.186258
7.36302e-05
4.74534e-06
2.32832e-05
6.50071e-07
1.80796e-05
0.0797538
0.00061529
4.66625e-07
3.87013e-08
1.08926e-05
7.27905e-05
8.48554e-05
8.24169e-05
3.59087e-09
7.07088e-10
1.09999e-06
3.46989e-05
6.35283e-06
3.44533e-06
0.000157642
1.61742e-06
2.18711e-05
1.23798e-07
1.82837e-08
0.0290807
9.55873e-06
1.36643e-07
1.21619e-08
4.49287e-05
0.000116865
1.5335e-06
2.83116e-07
0.0369007
1.07061e-09
1.92693e-05
0.0554425
1.60404e-08
0.0644233
3.8435e-05
0.0322212
0.000541786
7.7266e-08
2.12825e-05
1.8057e-05
0.04157
4.56467e-05
0.00116791
0.143155
0.000121852
8.00531e-06
8.37035e-07
1.0607e-06
0.429998
0.143418
3.28413e-08
0.213048
9.69074e-06
0.000145482
1.91361e-05
1.88208e-05
0.00103787
3.09e-05
1.04254e-05
6.35321e-06
1.84669e-07
1.22516e-06
0.039661
6.2338e-08
4.03066e-05
2.05991e-05
7.88706e-08
2.70257e-06
0.191899
2.69964e-06
2.81307e-07
0.000540544
1.46836e-08
2.73241e-06
0.187324
2.10855e-08
0.157345
0.302346
0.00114849
1.46812e-05
9.63714e-07
2.52533e-06
5.16344e-05
0.000206428
0.00103077
0.000259508
3.75165e-06
0.0394346
9.38252e-05
1.51214e-09
0.000256524
0.000249401
0.000541346
0.000419902
0.000774726
0.0001549
2.21069e-09
6.13397e-05
9.88792e-07
3.53006e-07
0.00144078
0.308762
1.60973e-07
2.71059e-08
0.00290508
0.00297658
8.37425e-10
0.000539322
9.44574e-08
1.17548e-08
1.58699e-08
4.02365e-07
4.1932e-06
1.61114e-07
6.56264e-05
0.0450798
4.46702e-09
4.67482e-07
0.00402496
0.10278
5.87359e-05
4.34738e-07
0.0283102
2.71636e-09
0.000114377
2.87315e-09
2.09676e-09
0.000514528
0.114852
2.08411e-06
9.63542e-09
7.69438e-08
0.0310596
1.33921e-08
0.0201195
3.98925e-08
9.05779e-05
3.27949e-09
0.00176529
2.57887e-06
3.77199e-09
6.56835e-07
5.42053e-07
0.0012563
5.59411e-07
2.11996e-08
1.81498e-06
0.003996
0.0470449
6.32246e-05
0.000515882
0.000965218
6.46918e-08
0.00117198
8.84917e-06
3.539e-07
3.11856e-06
0.000196819
1.8364e-05
1.4528e-07
8.06027e-06
0.000131896
7.24755e-08
9.37161e-07
5.70224e-07
1.40319e-05
0.0647012
1.28369e-09
5.5854e-07
0.0529646
0.000109008
6.79175e-05
1.07071e-08
7.07518e-07
1.88872e-08
9.534e-07
2.28819e-05
3.98376e-05
4.9377e-07
2.52719e-05
2.43443e-05
7.17406e-05
1.45647e-05
2.05129e-08
3.39126e-06
1.4382e-09
4.04471e-07
5.12367e-05
0.000160969
3.06207e-08
5.32084e-07
2.76332e-06
1.49721e-09
4.3289e-05
4.12834e-07
5.76358e-05
0.000738525
6.28016e-05
4.03132e-08
0.00124536
0.000104665
5.70005e-05
0.000140089
3.84616e-08
0.000134052
2.36199e-06
0.103885
3.00258e-05
8.45367e-05
5.41462e-08
7.48225e-10
2.73637e-08
0.165645
0.0650363
4.02854e-05
2.68604e-09
0.000124
3.25907e-08
0.152883
0.000128197
6.15773e-07
5.76031e-08
2.74394e-06
5.65164e-07
7.73703e-05
1.88076e-06
0.000108149
0.277164
3.1773e-06
6.52918e-05
3.09443e-05
6.33405e-05
4.65345e-05
1.41952e-08
3.56612e-09
2.08992e-06
2.90839e-05
1.35218e-08
1.75443e-07
0.000562207
3.71516e-07
9.57598e-07
0.380411
1.88194e-06
5.92648e-05
9.62186e-10
2.3618e-06
2.0352e-07
0.294251
3.78254e-09
0.106194
0.0049795
0.00011534
1.48547e-05
1.3516e-05
0.000842637
2.33449e-06
2.32024e-06
1.92612e-06
7.42506e-07
4.09494e-08
1.68608e-06
7.56493e-05
2.0947e-06
0.0614568
2.43935e-07
3.81732e-06
0.000269129
2.695e-09
0.000340209
8.638e-08
3.42592e-05
0.000713889
5.84532e-08
1.54247e-06
5.88236e-05
5.20569e-07
6.24232e-06
0.161395
5.14554e-07
8.49429e-06
6.39794e-09
0.0405466
7.91266e-06
1.82101e-07
1.67932e-07
4.41573e-06
6.20769e-06
2.40635e-09
0.135111
1.18933e-06
2.20088e-09
0.000111626
3.9378e-07
3.00719e-09
3.94905e-05
0.000861229
0.000805505
1.13493e-08
9.80974e-07
4.5351e-08
4.0313e-05
4.49371e-05
0.0311321
5.93116e-06
0.000816681
6.08602e-05
0.00100254
2.79564e-05
3.05069e-06
8.62019e-07
5.20776e-07
3.26865e-05
1.64758e-06
6.00488e-06
0.0399457
0.000225828
0.0417393
9.44608e-10
5.34742e-06
1.11501e-07
5.75512e-05
9.0494e-05
7.96697e-06
4.18273e-05
0.000519177
0.000118942
2.05856e-09
0.00645577
0.00735689
7.27299e-05
4.02741e-05
4.66717e-07
0.00076081
1.56509e-06
2.49391e-06
1.2246e-07
4.91587e-09
0.000220692
7.43824e-06
0.000883882
5.77754e-07
0.0412939
0.000562078
6.34978e-07
8.84532e-08
0.000504706
2.48248e-06
0.0505644
0.248146
0.000114432
0.000208105
1.6242e-06
3.35802e-07
9.77024e-08
1.30736e-08
5.70823e-05
4.07946e-06
0.0303973
0.050071
2.54688e-05
1.87692e-08
0.000284313
0.0364559
2.48301e-05
0.00102913
0.00225415
0.0383966
0.109571
0.0446665
0.000108651
3.36806e-09
0.00181247
6.26589e-07
1.15013e-07
1.73534e-07
1.56341e-08
2.30618e-05
3.2778e-09
4.89428e-09
8.09699e-05
4.81093e-08
6.46683e-09
8.60843e-07
4.44912e-07
0.0521791
4.63994e-06
2.66381e-05
0.0673652
0.233686
5.73979e-09
0.167072
0.000146238
0.344436
3.01828e-07
8.18725e-08
8.57365e-08
3.61203e-05
0.233163
3.33408e-09
0.00103296
5.48887e-08
2.84053e-06
1.47474e-05
7.04237e-06
9.73361e-07
2.17282e-07
0.068567
1.28963e-08
5.06896e-06
1.02757e-07
5.35494e-07
1.24848e-06
0.000407492
8.60485e-05
1.0372e-06
0.000349461
1.74664e-05
3.77125e-07
0.000123199
6.67196e-07
1.57744e-05
1.30846e-07
1.18105e-07
0.227462
0.0387374
0.00035752
2.69892e-07
4.35258e-09
2.99651e-06
0.172731
2.71815e-07
9.00994e-06
6.45814e-07
2.10239e-06
9.6071e-10
0.0315009
9.31673e-05
5.66341e-07
4.93012e-07
1.50897e-05
8.22437e-09
0.159388
3.28845e-09
0.0367933
6.49752e-05
4.49171e-06
1.84122e-08
2.32649e-06
1.13602e-06
7.71826e-07
3.02636e-06
4.50449e-06
4.82423e-10
3.75632e-09
7.93765e-05
0.0711714
3.59145e-09
2.77177e-05
3.71312e-06
7.95394e-05
2.2687e-07
0.0427069
2.06704e-06
4.52777e-05
4.54309e-05
6.65868e-08
4.87918e-05
1.7019e-06
1.42464e-05
2.86343e-08
1.33317e-08
8.69374e-06
5.67997e-09
0.000146261
3.41161e-05
3.11391e-08
7.05393e-08
0.000110974
0.000492202
0.270165
9.63855e-08
4.59244e-06
1.6319e-06
0.000326865
0.000149867
2.16e-05
7.58505e-05
0.0702667
3.02191e-06
4.8627e-05
0.000743189
0.0594068
8.82577e-07
2.55584e-08
0.000365687
3.27743e-06
0.0367735
2.06185e-07
6.27855e-06
3.45832e-06
3.17641e-08
0.20604
1.09164e-08
1.45995e-07
6.86457e-07
2.3039e-05
0.279621
0.050772
4.48726e-07
2.0506e-08
1.75994e-09
1.10962e-07
1.0326e-07
5.45529e-07
9.50654e-08
4.08102e-09
5.7793e-08
7.0172e-09
1.70229e-07
0.0556426
0.0330174
3.98263e-09
1.23115e-05
6.82511e-09
4.96958e-08
7.82303e-09
0.032359
0.0747191
5.33392e-06
2.88313e-08
7.46963e-09
7.15583e-07
1.01766e-06
3.58514e-06
1.21771e-07
0.000300924
2.71861e-07
2.94693e-06
2.46428e-06
0.000170126
4.7174e-06
0.00071094
1.44541e-06
2.43428e-08
0.000437538
0.000435295
1.79822e-08
2.04071e-05
3.28863e-06
1.07732e-05
3.53604e-05
8.29484e-06
3.37812e-06
1.14807e-07
0.292821
4.80491e-07
3.34017e-05
0.0556991
9.2686e-05
1.07388e-05
1.24166e-05
1.2714e-06
1.51348e-06
1.92228e-05
5.0437e-05
4.76026e-05
3.14065e-06
3.46306e-05
5.94656e-06
3.00895e-06
1.54413e-06
6.05105e-09
6.57468e-08
2.90286e-08
9.68687e-10
1.69191e-07
6.86512e-08
5.93741e-06
2.26959e-08
2.54374e-09
1.43762e-07
1.532e-05
1.87221e-08
1.03709e-08
7.17219e-07
9.73904e-07
7.55356e-07
7.67229e-05
5.06256e-06
0.221025
1.17753e-07
1.04034e-05
1.36726e-05
3.38055e-06
3.77012e-09
1.9617e-08
0.199353
4.81994e-07
2.70557e-09
2.20021e-06
0.199718
1.42725e-06
4.92951e-05
5.07776e-05
9.88999e-07
6.93066e-06
1.48875e-05
0.000339464
1.65911e-08
3.58228e-05
4.51492e-06
1.56695e-07
0.000291705
0.000347074
0.176752
6.15764e-06
1.26526e-06
6.02804e-06
3.01665e-05
1.22902e-05
1.76417e-07
0.00232209
1.53908e-08
0.000554569
0.000370348
0.0553844
8.25424e-06
0.228838
2.3262e-08
1.1452e-07
3.61891e-06
2.04206e-05
5.40733e-05
3.01418e-06
9.08506e-05
3.08209e-08
8.42188e-06
2.4719e-09
9.21755e-09
1.14229e-06
0.000422777
8.30842e-08
3.25871e-09
0.0003791
1.41247e-07
0.000479018
2.94669e-06
1.40973e-06
1.37379e-06
3.62212e-07
1.82736e-05
3.6991e-06
0.000185002
5.01063e-07
5.82171e-06
0.00298951
1.04887e-06
9.13997e-09
0.000139547
2.42009e-06
3.26538e-05
4.67948e-09
0.127391
0.000107321
5.62512e-05
1.53331e-06
3.39963e-09
0.000173838
3.5585e-06
2.19015e-07
1.67562e-09
5.27967e-05
5.95495e-05
6.56212e-05
0.172948
2.27568e-06
4.6683e-06
0.000219003
5.41267e-06
5.61265e-06
1.68987e-06
7.46402e-05
2.72149e-06
0.000105675
0.162227
1.12736e-05
5.69893e-10
1.24044e-06
3.60319e-05
1.33874e-05
2.14034e-07
0.00042312
0.000764638
0.000404605
0.00078766
1.29632e-05
4.66807e-05
5.9007e-06
1.36328e-05
9.10604e-08
1.76396e-08
0.0909059
0.000462132
1.94951e-06
0.00147984
4.24201e-06
2.18387e-05
0.000380592
2.8534e-06
2.04959e-06
2.86075e-06
2.70441e-07
3.70364e-05
2.25234e-05
0.000131549
2.21743e-05
4.08755e-07
8.17512e-09
2.28015e-05
6.69963e-07
1.56493e-08
0.000280347
2.31866e-06
7.35905e-06
2.94415e-05
4.20132e-06
4.23475e-08
0.000521107
0.123327
4.63315e-08
6.07783e-09
1.71272e-08
0.128134
0.219216
3.94917e-07
0.0483432
4.62948e-06
1.50694e-05
7.28221e-06
5.95979e-06
1.15345e-05
1.06945e-05
2.58207e-05
0.102406
0.303151
0.348776
1.01283e-05
2.25064e-05
5.28694e-06
6.31037e-06
0.321223
1.07017e-08
0.157772
4.12469e-06
5.30055e-09
9.89375e-07
4.72999e-07
3.69236e-08
3.48381e-08
2.10284e-07
6.14046e-09
0.121392
5.32254e-08
2.30903e-05
0.000160573
1.51284e-08
3.98788e-06
6.58843e-06
4.86701e-06
7.33993e-08
0.000520015
5.67754e-06
5.88197e-07
5.85405e-05
3.94658e-06
2.17012e-05
4.12708e-06
1.21063e-06
3.4004e-07
1.59681e-05
0.00301053
3.47615e-05
8.89458e-07
1.04658e-05
7.63213e-07
1.80141e-05
8.77531e-05
8.89796e-06
2.04534e-06
4.61632e-06
1.13226e-06
5.17571e-05
8.81234e-08
6.83464e-06
0.037369
0.000372565
0.29478
0.000679697
8.98839e-05
2.47886e-08
0.0557861
8.70212e-10
3.72897e-05
1.22643e-05
6.63376e-07
7.52381e-05
1.09411e-06
6.98693e-07
3.36542e-05
6.92041e-07
1.47564e-07
1.49027e-05
4.83574e-07
1.98386e-05
0.0683911
3.18352e-07
2.79494e-05
1.30498e-06
6.54394e-07
1.11532e-08
0.000230666
7.14447e-05
2.74446e-06
7.88401e-09
5.87962e-07
0.0402533
0.000183236
8.05849e-06
1.28428e-05
2.58783e-09
4.23705e-10
7.60965e-07
2.01186e-09
4.02017e-05
1.8928e-07
1.94841e-05
1.39165e-06
4.67758e-07
3.59119e-07
4.3799e-08
4.24746e-05
8.10305e-05
3.84496e-05
5.0445e-07
2.86865e-08
8.99305e-07
1.63256e-06
0.000480454
9.49991e-07
0.145519
1.68196e-05
1.48715e-08
3.7184e-08
0.000206193
1.0404e-05
0.00101374
3.56657e-07
7.91673e-05
0.207233
5.963e-10
0.000291344
2.28778e-05
0.0385525
1.53457e-06
0.0430465
0.075307
0.000104307
7.6368e-06
1.76999e-05
1.11555e-08
1.40726e-05
2.40607e-05
0.000333334
1.64808e-05
4.78194e-06
2.3756e-05
0.000377128
0.00030415
0.00043409
0.000113892
1.25022e-08
7.46032e-05
0.000779434
5.84822e-06
3.13446e-06
0.000218604
0.000186972
1.22558e-05
1.65775e-05
0.000229185
1.35746e-05
0.000329166
0.000200088
1.73999e-05
8.04238e-09
3.0315e-05
0.000364158
0.060604
1.88718e-06
4.96762e-07
4.37487e-05
1.78254e-07
7.57404e-05
7.65079e-07
0.000345542
4.87638e-07
6.03593e-05
1.52193e-08
8.23744e-08
1.01771e-05
0.000818861
0.00107343
0.302978
3.58219e-05
1.7134e-06
1.70059e-07
0.000362214
1.94717e-05
0.0292735
0.0638255
3.72736e-09
0.000706896
4.5788e-05
4.79406e-06
1.14588e-08
0.00102466
5.17584e-07
0.0387483
4.82344e-08
4.88393e-09
2.5917e-05
8.12885e-07
1.0117e-06
3.59524e-05
0.0358425
1.63741e-05
1.83105e-07
5.76331e-05
0.194148
0.0374206
4.58746e-06
0.000244749
2.25261e-05
0.000494483
2.1965e-06
0.0339215
3.04612e-05
0.000160149
1.79276e-07
7.55685e-07
3.63398e-06
5.04351e-07
2.08137e-05
2.36405e-06
7.46247e-07
2.24147e-06
3.76134e-06
7.91016e-05
2.01369e-08
3.21694e-07
0.0698333
1.08853e-08
4.88349e-08
3.7498e-05
5.58051e-08
0.000151467
3.18603e-05
0.0570312
1.84736e-05
0.230619
9.83954e-06
1.7055e-05
0.0361758
0.000137838
3.71614e-10
2.53169e-06
0.0253699
1.27226e-05
6.76614e-05
1.40864e-05
8.32646e-08
5.8712e-06
6.46094e-06
7.43841e-07
0.112049
9.68862e-07
8.10236e-08
1.39578e-06
5.80089e-07
6.84583e-09
7.5685e-05
2.21806e-06
0.241214
6.98528e-05
3.10893e-05
4.08954e-05
5.16896e-05
1.22083e-05
2.41496e-06
7.31944e-10
5.64544e-07
6.28856e-05
1.90831e-05
5.63674e-06
6.63424e-08
9.53071e-06
1.40988e-06
3.21225e-05
2.09091e-08
1.32892e-07
9.12087e-07
2.53346e-05
1.85627e-05
2.69999e-05
2.93658e-08
1.65695e-08
0.00148128
1.89269e-08
1.0142e-09
3.149e-09
1.29347e-06
0.273077
5.93366e-07
8.99405e-05
6.16577e-05
1.76911e-05
1.77715e-07
9.63602e-07
0.000180074
6.20331e-06
2.0571e-07
3.21396e-05
2.93227e-09
1.08373e-09
3.7025e-09
8.05381e-05
1.0161e-07
0.290047
0.000470591
2.89517e-05
0.00164643
5.56054e-07
1.14818e-05
1.10262e-08
0.0537044
7.10087e-06
5.14229e-06
1.39687e-06
3.03909e-07
1.20219e-07
0.423096
1.38411e-05
0.000365867
5.67734e-05
8.70731e-07
0.107708
2.89737e-07
2.84472e-07
5.14428e-07
5.17803e-07
2.14312e-05
3.58698e-07
1.98779e-05
1.46062e-05
0.000421038
2.84941e-06
5.09738e-10
0.000169415
3.73363e-07
0.138786
2.73019e-06
1.83732e-07
1.1978e-06
1.71724e-05
0.0549543
0.0269589
1.50341e-05
4.06185e-05
0.0820442
2.80392e-06
2.28712e-05
0.0409929
9.90543e-06
3.74049e-06
0.152665
0.0168936
1.07526e-05
2.85915e-05
1.30238e-08
3.35717e-05
0.00149571
7.51729e-06
1.04189e-05
0.000334259
2.64959e-09
0.0209643
1.15972e-08
2.62541e-05
0.172373
1.12444e-07
1.00808e-05
2.38855e-06
3.59138e-07
4.73774e-08
4.16865e-05
4.02719e-07
9.64031e-08
2.47484e-05
1.23005e-05
1.05258e-08
0.0211032
0.0398446
3.2142e-06
1.30697e-09
2.17756e-09
0.000129574
1.1941e-05
4.88401e-06
4.40499e-09
8.29661e-08
0.000117656
5.94117e-05
4.09647e-05
7.10293e-05
0.322149
8.32586e-10
0.124653
1.05002e-05
3.50297e-06
0.0486654
9.70945e-07
2.06947e-08
0.0206713
1.81116e-09
5.17955e-06
4.83073e-06
6.51817e-06
9.90392e-07
7.67982e-09
6.03284e-09
1.54694e-08
1.84245e-05
0.119132
0.190043
2.42154e-05
2.1983e-06
5.34124e-10
0.0505086
0.19939
0.000242117
8.13745e-07
1.15274e-07
0.000864853
0.000215416
2.08113e-07
1.15487e-08
1.68014e-06
6.53274e-06
2.42904e-08
1.00693e-05
5.5589e-05
0.0543409
0.181597
4.02158e-05
0.000744786
9.47501e-09
3.08694e-07
2.39043e-05
0.000155095
3.00241e-05
0.000394519
7.52542e-06
1.14565e-05
1.40923e-08
7.72136e-08
1.15662e-05
0.0527659
7.98831e-07
0.159176
2.02689e-08
1.05639e-05
1.92434e-06
1.50192e-05
1.28085e-08
5.07404e-09
9.60039e-08
3.51932e-08
1.06034e-06
0.000283472
7.08228e-09
0.0337766
1.32028e-05
0.141094
1.27887e-06
2.36519e-06
1.49379e-06
1.6117e-06
1.15589e-05
2.07849e-08
1.27166e-08
1.41057e-08
2.42828e-06
8.37023e-06
0.0503838
0.0487802
4.1103e-06
6.6371e-07
1.04524e-08
1.67495e-09
2.17788e-08
1.44306e-06
0.000218458
1.88818e-07
3.66766e-08
4.34115e-09
0.0198784
2.47455e-05
3.77129e-05
0.036581
8.6834e-07
0.275583
8.04788e-06
4.15767e-07
1.06151e-09
2.35332e-07
0.0484363
5.44643e-10
1.77754e-05
1.52244e-08
0.000619954
3.99471e-05
7.27794e-05
0.000129523
2.51136e-05
8.96963e-09
1.15089e-08
0.317913
3.00785e-05
3.11897e-05
0.000200683
4.13045e-07
7.38015e-05
8.68616e-05
2.74428e-06
2.9727e-06
0.000263127
7.25786e-08
0.000583211
0.0354667
1.09958e-06
1.85269e-07
7.44636e-05
8.29759e-07
0.030883
0.16024
1.87852e-05
2.37401e-09
0.00366268
3.06239e-07
1.87908e-05
1.32671e-06
9.63442e-05
8.78341e-09
0.000793735
7.32596e-05
0.000114669
1.68994e-05
0.000105585
2.44961e-05
5.01832e-06
1.69847e-09
0.000140018
3.60262e-05
4.85719e-05
5.6538e-07
8.59129e-06
0.000109459
0.000396101
8.62474e-09
5.88264e-08
3.76955e-08
1.50253e-09
1.20592e-07
0.0195207
0.00035402
0.000127342
3.27044e-05
0.000181243
7.46984e-05
7.61421e-10
9.49457e-06
6.11005e-09
4.83422e-07
1.29603e-08
2.03353e-05
0.00179446
1.43648e-05
1.1163e-07
1.44569e-08
1.26726e-06
1.03525e-07
5.46096e-09
0.129596
8.1487e-06
0.00059208
0.000884342
0.000656902
4.38802e-09
0.000593972
0.000651627
0.00117758
0.000645835
2.63628e-09
1.5651e-09
2.4781e-06
7.06981e-06
6.08188e-05
0.00029183
0.0367643
7.20843e-06
2.83847e-05
3.92446e-06
0.000490323
2.79409e-08
3.18577e-09
9.45135e-05
0.000321431
0.0236452
1.36559e-08
0.104535
0.000112361
2.94911e-07
8.0324e-05
3.97565e-06
7.0936e-05
2.02402e-06
7.82263e-05
2.20242e-09
6.85805e-06
0.00195239
3.0006e-05
6.07889e-08
0.00158166
3.66813e-05
9.70216e-06
0.00291233
6.73743e-08
6.30048e-06
4.99302e-05
7.14125e-05
8.74849e-07
0.172112
4.9555e-08
7.31147e-07
2.3447e-08
0.104562
0.107469
1.87871e-06
1.56343e-06
0.000136441
0.0498883
2.37061e-08
8.3151e-06
1.67545e-05
1.05818e-05
1.14855e-06
0.174875
6.65728e-06
1.40047e-05
0.00317275
1.4132e-07
5.87545e-06
1.38925e-06
2.12825e-06
1.90569e-09
0.00219062
0.00358916
1.11365e-07
5.82787e-07
1.20083e-06
8.8688e-05
1.16339e-08
0.0360466
2.3474e-07
9.19712e-06
1.01973e-06
4.70629e-07
3.5689e-06
2.93302e-05
1.07842e-06
4.67474e-06
0.000217498
1.27569e-06
1.18845e-06
0.0389695
7.06072e-07
3.19573e-06
2.33415e-06
1.62157e-05
2.91028e-10
8.48496e-10
2.09741e-09
5.00268e-06
5.58148e-08
0.0585724
1.96759e-05
8.81567e-06
4.98957e-09
2.21539e-05
0.103948
6.61666e-05
1.07017e-05
4.59878e-05
1.09261e-05
1.92033e-07
8.06104e-08
2.099e-05
2.92243e-06
2.50755e-06
0.000483939
7.29522e-06
4.56103e-08
1.86354e-08
1.79765e-06
5.94465e-08
5.70294e-06
3.11329e-08
9.04808e-06
1.42151e-05
1.89898e-07
2.9744e-09
0.0414201
3.45462e-09
1.82356e-09
2.03376e-05
0.0511513
1.48971e-05
1.95429e-06
1.36976e-08
7.56243e-06
4.70082e-06
1.83581e-05
5.45068e-06
1.36359e-08
1.37581e-06
1.13929e-06
4.6793e-06
1.14805e-08
9.58069e-09
6.14295e-09
3.7205e-06
1.48928e-05
8.60645e-07
1.7314e-08
6.62384e-06
3.85588e-05
2.22739e-08
2.04818e-05
3.27435e-07
5.30332e-08
1.66663e-08
2.84985e-05
2.43952e-07
1.80559e-05
1.63285e-09
2.25185e-05
1.09146e-08
1.37513e-06
0.00030891
1.23477e-07
6.54627e-09
0.0618952
3.8011e-08
0.0509496
2.15363e-07
3.34237e-08
8.70828e-06
1.93735e-05
0.0406131
4.14431e-05
0.0452279
0.0549815
8.03988e-05
8.57531e-06
0.0365793
9.72457e-06
1.49176e-08
2.88622e-05
0.122698
0.0335392
0.0382361
6.92872e-09
7.9347e-06
1.67777e-08
4.76906e-06
8.98229e-07
6.79359e-06
0.00015263
6.34151e-06
4.58788e-07
9.93119e-09
3.37975e-06
0.000261962
2.19259e-08
8.41333e-06
3.00915e-05
1.79231e-06
3.88633e-10
5.22763e-05
2.23881e-05
2.02097e-05
1.10473e-05
1.25218e-05
2.06455e-06
6.34448e-06
0.000131231
7.91188e-06
6.27958e-06
0.000111078
0.000408916
5.84974e-09
5.60142e-07
2.40431e-08
1.39543e-05
7.08222e-08
2.12957e-06
3.26479e-10
0.000347399
0.347171
0.0776433
0.000121443
3.57806e-09
1.05033e-05
0.0478848
0.0911641
5.13057e-07
0.000241149
2.11914e-06
4.69738e-07
2.00465e-07
2.30481e-09
8.01503e-06
3.46816e-05
4.72641e-08
7.71548e-09
1.25574e-05
1.54035e-07
0.155971
0.0488868
1.04476e-05
7.2973e-09
8.73587e-09
0.0381249
3.80636e-09
1.8916e-05
1.47776e-08
0.000548362
8.08448e-09
4.38697e-06
3.99141e-08
8.36698e-09
0.000960701
0.135781
0.0585688
1.40732e-08
0.0625237
4.13243e-08
1.03829e-05
1.41877e-06
0.103139
2.30463e-07
0.000130056
4.8461e-09
1.65295e-06
0.000247697
1.80723e-06
0.000135784
7.83331e-09
7.21445e-06
2.69978e-05
1.63151e-05
4.26039e-06
3.21646e-07
2.92707e-07
2.97153e-06
5.78964e-07
3.62614e-09
2.50622e-09
0.0652037
0.033696
3.49867e-08
0.0730961
1.27732e-09
2.13389e-08
4.09104e-05
5.76937e-09
2.01537e-09
0.0344349
3.17367e-08
8.29267e-10
0.000552135
2.65126e-09
8.24503e-10
4.15447e-05
0.0815504
1.25008e-07
0.0336449
1.14664e-08
3.82851e-06
0.0435785
5.55173e-06
0.000766187
4.06617e-10
5.92975e-08
9.39721e-07
1.1159e-07
0.185337
0.0394911
9.67931e-05
2.86417e-08
0.0419488
7.63103e-10
1.14058e-08
5.19843e-09
0.0903469
0.00157382
7.01364e-06
1.46487e-09
1.18429e-06
0.0436372
0.000801413
3.75267e-07
0.00023138
0.0955862
0.074631
3.21655e-05
0.0743824
0.000832534
0.0386945
3.7512e-05
0.057791
0.000306717
4.28508e-06
1.36627e-06
1.91411e-06
0.000409393
0.000816369
5.9791e-10
2.62934e-06
7.4857e-08
3.635e-05
6.4743e-06
9.73114e-07
7.13649e-06
0.000264767
1.65961e-07
7.27168e-06
7.57812e-08
2.0525e-08
3.79237e-08
4.42501e-08
4.53697e-06
3.23003e-08
5.21853e-08
6.14765e-08
9.21543e-06
3.85498e-05
7.02936e-10
2.36878e-09
7.26494e-08
1.18427e-07
1.10339e-06
0.00112301
0.00186772
0.00011411
1.20469e-08
2.6882e-05
4.81206e-06
0.0420138
2.87573e-05
1.15655e-05
4.80204e-07
9.61394e-07
2.1744e-06
0.000199353
0.000104988
0.15836
0.0608879
7.16187e-08
0.000733784
0.000263135
5.03776e-09
2.1851e-06
4.24818e-06
3.66598e-08
1.5117e-06
3.54554e-06
0.0563503
2.27926e-10
7.17478e-05
2.25799e-08
0.0422176
4.66295e-05
0.0321813
2.80782e-05
3.91365e-09
9.59087e-09
2.98313e-08
2.24646e-05
2.13418e-05
4.14072e-06
7.72332e-06
8.08424e-07
0.000660368
0.00025138
9.74796e-10
0.000104246
4.18675e-05
4.36486e-05
8.47894e-05
0.00262939
3.67025e-06
0.0878094
7.33775e-08
5.02407e-06
0.0347624
9.79763e-09
0.000226782
0.00649611
3.90099e-08
8.85121e-05
2.18615e-08
2.01217e-07
2.43251e-06
3.17743e-06
4.84764e-08
4.01609e-09
6.09707e-07
4.03185e-09
3.46109e-09
0.000112116
1.98654e-08
1.43608e-09
2.47385e-05
6.84481e-09
8.30086e-08
2.34807e-07
0.00018624
1.88676e-07
0.000148285
1.09253e-07
4.38129e-08
2.01082e-05
5.88199e-05
0.000198862
0.0373961
7.1834e-05
3.47097e-05
2.07485e-06
0.282081
0.274261
1.03539e-07
2.34926e-05
1.52014e-08
0.0397647
0.0344698
0.000357405
0.0782662
0.0620812
6.41934e-06
1.81134e-09
9.66524e-05
1.63677e-08
5.17573e-09
3.73861e-07
1.41676e-05
6.90555e-09