/*--------------------------------*- C++ -*----------------------------------*\
  =========                 |
  \\      /  F ield         | OpenFOAM: The Open Source CFD Toolbox
   \\    /   O peration     | Website:  https://openfoam.org
    \\  /    A nd           | Version:  10
     \\/     M anipulation  |
\*---------------------------------------------------------------------------*/
FoamFile
{
    format      ascii;
    class       volScalarField;
    location    "8.5";
    object      SgT;
}
// * * * * * * * * * * * * * * * * * * * * * * * * * * * * * * * * * * * * * //

dimensions      [1 -1 -3 -1 0 0 0];

internalField   nonuniform List<scalar> 
111485
(
8.94951e-15
0.00843587
0.0227505
5.93984e-15
0.0477723
3.37009e-15
0.0442636
0.00614459
0.0183595
0.00112362
0.0443228
0.00934704
0.00447286
0.000632077
0.00620115
0.031427
0.00155438
2.53403
0.010195
1.14961e-13
7.01176e-15
8.58491e-16
0.0255511
0.0353082
0.00831963
8.38114e-15
0.040352
0.00175068
0.0166431
4.17858e-15
0.0430893
0.0189005
1.94723e-13
4.29276e-15
0.00779079
8.03819e-14
0.0102541
0.00391015
4.77558e-08
0.0229212
4.42956e-15
0.0712343
0.0156273
0.00136616
4.89431e-05
3.46244e-14
0.0309874
0.000720263
0.0478947
5.81937e-15
1.47539e-14
1.01654e-13
3.8584e-15
0.0478174
4.68853e-14
0.042976
0.00338378
3.69217e-15
2.22736e-05
0.0047701
0.0160163
1.00339e-15
0.00432425
0.0922285
3.70689e-14
0.0034813
0.310082
0.0951142
0.000988617
0.00567031
1.07037e-05
0.00606572
3.49354e-15
0.00263036
3.51582e-14
0.000690281
8.26572e-15
0.0411908
3.01008e-15
2.60519e-13
6.28685e-06
0.0336303
8.92188e-15
5.99973e-14
0.00868525
0.00417052
4.32845e-10
0.0239033
5.2714e-05
0.00702644
0.00042697
0.0404429
0.0110213
5.98853e-05
0.0538013
6.78123e-15
1.01406e-14
0.00165645
1.99373e-08
0.00130248
1.10686e-14
0.0190674
2.24149e-15
0.019315
0.00469275
2.89037e-14
4.94663e-17
0.00776662
0.00376848
8.02579e-08
0.00632605
0.00476518
0.00348006
0.00296861
7.61329e-14
3.19473e-05
1.04066e-14
6.63299e-14
0.0119499
1.81983e-14
2.44206e-15
1.25101e-13
6.86278e-16
6.99125e-15
0.00165931
2.56245e-06
2.07987e-15
0.00163128
9.29652e-16
5.7274e-05
0.0012266
0.0307406
2.65068e-14
5.12024e-13
2.42217e-14
0.0490801
5.09313e-15
0.0423147
0.024231
0.00248796
0.00021874
0.00199023
0.0221384
0.00293063
0.00370591
0.0125685
5.09626e-15
5.74837e-15
2.93907e-15
0.0273601
0.00174884
1.29058e-14
1.8348e-07
0.00497924
4.97043e-07
0.0103807
0.0165274
0.0101191
8.28295e-08
2.03526e-14
4.74156e-15
0.052336
0.0238686
2.33016e-06
3.31662e-07
0.00531192
0.00369893
6.58387e-15
5.60248e-06
5.21714e-05
9.6109e-16
1.56594e-15
0.000135542
2.29587e-15
0.00623889
0.00220098
2.02497e-15
3.79592e-14
2.19726e-14
1.1657e-13
9.77033e-15
6.93724e-15
0.00141922
0.00680474
0.0288738
0.00438888
0.00718338
0.00366157
8.84019e-05
9.21822e-16
0.00432605
2.78442e-15
1.05706e-14
0.00605879
0.0106705
0.0259626
0.0107748
0.00444833
1.08453e-14
0.00639077
0.000604525
4.48198e-05
0.0129424
0.00225797
1.68046e-14
0.00356134
0.0262069
2.86475e-14
0.000196182
0.00745893
0.00226052
0.000345098
8.32648e-15
2.90775e-14
0.00752452
7.64426e-12
0.119793
2.65551e-14
0.00622044
0.0195556
0.120097
1.84711e-14
0.00293404
0.0132287
3.255e-13
4.77573e-15
1.03559e-14
0.158659
3.44297e-07
3.31129e-14
3.25655e-15
0.00917984
0.00823611
0.0147949
3.32402e-14
6.17725e-14
1.07588e-05
1.96568e-14
0.00250417
0.00877697
0.0153869
0.0108226
0.0094385
2.35588e-15
2.82171e-07
0.00059753
4.71453e-14
9.69535e-15
0.0310573
0.0209849
1.45506e-14
0.00593178
0.0102196
2.22196e-15
3.12434e-13
0.000122143
1.8832e-15
2.92376e-14
3.97409e-05
1.67484e-14
0.0152696
0.0111643
0.00385792
2.86683e-15
0.0113449
1.05978e-15
8.3655e-15
1.11186e-14
2.25418e-08
0.0223777
0.00572534
0.00509014
0.0373185
0.0115398
0.00163054
0.000602937
0.0334481
0.00898387
6.76032e-15
3.21038e-15
2.7531e-07
0.0227103
0.0238558
0.0123912
1.79923e-15
0.00679035
0.00209614
0.00286531
1.73906e-06
3.81427e-06
0.0132786
0.00207268
0.00181268
1.55986e-14
0.000752213
1.75289e-14
1.15677e-07
1.81924e-13
0.253536
0.0694501
0.012612
2.91358e-14
8.81632e-15
0.00878325
0.00187348
1.71555e-14
3.09215e-14
7.63165e-14
0.000316074
0.0600639
0.00374595
0.0147028
0.0193759
3.31253e-14
1.01481e-14
5.30713e-15
0.00367966
1.52142e-12
0.000785377
0.188799
4.03587e-07
4.65573e-15
6.77492e-15
3.08446e-15
3.9518e-13
0.0591694
0.012208
3.71435e-15
0.0050877
1.56816e-13
1.31381e-14
0.065686
0.00572273
0.0113226
0.00891103
1.71219e-13
1.64474e-13
3.29256e-14
0.00914543
0.0189822
0.00449787
1.89007e-15
2.71535e-10
0.000188877
0.00196882
0.0078543
4.40295e-05
0.0286894
2.00504e-15
0.0378384
0.00337528
0.00769156
0.0242517
0.0137935
3.1595e-15
5.46486e-14
1.03314e-15
5.30663e-15
0.0321591
0.00965254
0.0352643
0.0676964
2.81038e-14
0.0194031
1.9794e-15
1.11155e-14
0.0159299
7.29547e-16
0.0604822
1.84001e-14
3.91744e-15
0.0231105
3.36016e-15
0.0142603
0.000343543
2.12304e-15
0.0010672
0.0159493
3.08437e-14
0.00829063
0.0101088
0.00779364
0.000584281
0.00275324
0.00618913
2.17663e-13
1.34057e-14
0.00170995
2.18701e-14
0.00577409
0.113373
2.61304e-14
2.54494e-14
0.0271563
0.000110691
0.00777416
0.020893
1.30363e-14
0.0440075
0.0190009
1.47454e-15
0.000765553
0.00263213
2.95601e-14
1.90392e-14
0.011669
0.00504626
5.04613e-15
2.8288e-16
2.21215e-08
5.84549e-15
0.011609
1.5789e-14
1.81873e-14
0.0171048
1.88731e-06
0.0130181
0.0278739
3.08585e-16
1.54745e-13
0.00128793
2.9877e-14
0.000143969
0.0129363
0.121002
0.874394
3.5343e-15
0.00271507
0.000385559
2.79049e-14
0.0370091
0.0322093
1.75678e-15
8.87148e-09
9.93823e-05
1.5809e-13
0.0245976
0.0254851
0.0152115
1.63182e-14
0.000654162
0.0178199
0.0230827
8.20349e-07
8.77895e-14
5.41206e-10
1.29469e-14
1.34976e-05
0.0319913
1.48235e-14
0.00897336
8.93853e-05
1.41006e-13
5.61216e-15
6.89613e-14
2.79082e-14
0.0036439
0.00985572
0.00651855
0.00233973
0.00301617
1.31596e-14
0.00222603
1.21358e-14
0.0382191
3.96993e-15
7.20892e-15
1.50563e-14
0.0348131
4.57231e-14
2.48586e-14
2.43853e-07
1.12663e-15
1.5762e-14
0.000999718
1.61834e-14
5.63136e-14
1.00287e-14
4.71728e-15
5.5763e-14
9.06161e-15
2.43869e-15
0.00759787
3.70412e-14
0.000447705
0.00181799
0.00113059
1.60383e-14
0.000776658
1.56253e-14
2.03643e-15
0.00278175
0.00184796
0.027899
0.023467
1.8137e-14
0.00195587
0.0780052
0.00870157
0.00108866
0.00327097
1.21486e-14
0.0234423
1.47553e-13
0.00461211
1.05254e-15
0.0731946
1.09732e-13
0.0218568
0.000230158
2.45103e-07
3.52862e-14
0.00211501
7.8503e-15
0.0797502
0.0469373
7.34256e-15
1.02215e-15
9.67716e-14
3.62224e-16
1.37973e-09
0.0552126
3.70123e-17
2.29415e-14
0.00278447
5.97746e-16
0.0324465
5.6984e-15
0.000342536
9.55567e-15
0.000522398
9.93706e-07
0.00111166
0.0130085
3.4386e-15
0.00035595
1.42368e-14
2.35632e-15
0.0153068
5.65275e-15
3.29272e-05
3.5229e-14
0.00151939
3.30795e-15
0.0643298
5.98493e-15
3.54409e-14
0.0152932
0.00340944
0.00161338
0.00399401
0.0063526
0.0212238
7.69688e-15
0.0232513
0.00645296
1.46774e-15
7.63527e-08
0.037148
0.0140484
1.03884e-13
0.00455218
0.006274
0.00157363
0.00115927
2.28986e-10
0.0138364
0.00106676
0.000156642
0.0249981
0.0143662
0.000746907
3.92921e-14
2.90205e-09
0.634129
1.68226e-14
0.000407305
2.13485e-15
2.09749e-13
0.0072939
0.00307953
1.89919e-07
1.24402e-05
3.94848e-13
0.0171397
0.0108785
2.69764e-15
8.64262e-11
0.00140296
1.46345e-14
4.93913e-15
1.2083e-15
3.45793e-14
0.0143735
4.88773e-15
1.78035e-14
0.00924229
0.00213895
3.28182e-14
0.010081
3.12532e-14
0.00853834
6.9279e-15
3.67504e-14
0.0549395
3.26304e-14
1.23898e-14
2.36551e-13
0.00461398
5.0688e-14
0.0307611
0.00632334
1.394e-14
0.0806541
0.00251833
0.0273771
0.0264463
0.000690339
8.35281e-05
1.23332e-14
0.0548008
0.0439509
7.31154e-14
0.000303218
0.0404478
0.00732482
0.00149959
0.0272184
0.0256426
4.32011e-14
0.0104394
5.55586e-06
4.02985e-14
0.0335647
0.000266572
8.73029e-14
0.0110021
0.0393376
0.00142272
0.0203773
0.0183989
0.00732253
2.19311e-13
0.00990546
0.00033161
2.41543e-11
0.0159559
0.0164855
0.0354653
1.10099e-14
0.00200664
2.63478e-14
6.44766e-15
6.94637e-15
2.55341e-15
1.52177e-05
1.20269e-13
1.97947e-10
3.94075e-14
8.14442e-15
7.11123e-05
0.0414999
1.3386e-14
0.0342679
4.33845e-15
1.0211e-14
6.04634e-14
0.0392699
0.000457492
6.30836e-14
9.34165e-15
1.05861e-14
8.20045e-16
0.22179
0.0693216
9.18522e-14
0.00187933
2.7082e-06
5.82186e-15
0.0362299
0.00764526
0.012289
2.0537e-15
1.5173e-14
0.000385109
0.00106455
1.62579e-13
2.80681e-14
8.39637e-14
0.00703489
7.64733e-15
9.52912e-14
2.54626e-16
0.0405255
0.00190744
1.09624e-15
4.04899
0.25834
0.0104173
1.26321e-15
9.95583e-15
0.0568188
0.000372463
2.32207e-14
7.62046e-06
0.134919
0.00269191
0.0118107
1.09842e-13
0.0552148
0.00175769
9.2263e-15
1.3066e-14
1.93327e-15
2.61675e-14
4.0771e-15
2.10579e-15
0.0211049
5.48775e-15
5.47265e-15
2.93891e-14
0.011552
0.0241838
2.43374e-14
1.27616e-14
0.105579
0.0137576
0.00936983
1.21104e-13
9.07369e-16
0.0358574
1.08189e-15
0.00186327
0.00249963
0.00376757
2.2333e-15
1.66496e-14
2.71369e-14
1.41867e-15
0.0152759
2.77748e-15
1.5066e-14
0.000923523
4.06391e-15
0.02225
0.00170228
3.26561e-14
0.0365635
0.462442
0.00242287
0.0297208
0.000172234
0.045534
1.50241e-10
2.96515e-13
0.0226986
0.0712075
0.00628855
2.22715e-14
8.01841e-10
0.681891
0.0101419
1.29718e-15
0.00284282
0.00275887
0.00129496
4.13468e-14
6.49999e-15
3.96389e-15
0.0131234
1.69103e-13
0.00268282
4.18535e-14
0.00124503
0.00132119
0.0351941
0.000580588
1.78187e-15
4.97981e-15
1.09248e-15
0.0201625
7.46417e-15
7.85327e-15
5.43201e-05
1.66951e-14
7.09965e-15
9.45836e-16
1.73784e-15
0.00902169
1.61328e-14
6.28613e-15
5.20092e-10
9.16555e-14
8.15703e-15
5.18194e-14
2.40561e-14
3.42438e-06
0.00160793
1.35521e-14
0.003719
8.10358e-06
3.23675e-07
6.68035e-05
0.00420116
9.15277e-15
9.29263e-06
0.0099163
0.000384269
2.24574e-14
2.33224e-09
0.000761877
2.68625e-14
0.00942779
0.000221081
1.81781e-06
0.0240882
0.00912126
0.00222661
0.00545201
0.00201794
1.69147e-14
9.25841e-15
0.0304592
0.0254479
3.16277e-14
0.00779454
0.0551729
0.0284802
4.28153e-14
0.00141196
1.39369e-15
0.0103471
0.0138758
6.87186e-14
0.00142632
0.000475481
1.30954e-06
0.00450274
2.44439e-14
0.0477145
1.64259e-05
0.00161931
3.38608e-05
1.42573e-05
1.23038e-14
4.27827e-15
0.00763908
3.15012e-15
0.000108852
0.0002845
0.00021055
4.98773e-08
7.96494e-08
9.39528e-07
2.20667e-15
6.98494e-14
0.0221326
2.99159e-14
0.000240391
0.00211319
1.27394e-14
2.2005e-14
5.30304e-07
7.8659e-10
2.82764e-15
4.20685e-06
4.32791e-15
4.94211e-15
8.35449e-15
2.23906e-15
8.58424e-15
8.35486e-15
0.000313859
1.23265e-14
7.24177e-16
2.67958e-14
6.46873e-06
5.43361e-05
0.00178512
0.009048
2.88404e-16
3.80057e-15
0.000183192
3.14515e-15
1.72024e-15
6.49661e-14
0.019011
0.0417988
7.72593e-15
1.61626e-14
1.68209e-14
3.16277e-15
7.26176e-16
3.72815e-15
0.00739509
1.8417e-15
4.00582e-08
0.0265297
2.55042e-16
2.75679e-14
3.35303e-15
2.21555e-05
2.88235e-14
1.07839e-14
1.88594e-16
7.85506e-06
1.09996e-15
0.0046331
1.06039e-06
4.43573e-09
2.15922e-14
5.99676e-05
0.00231783
0.0444189
7.46205e-14
6.51181e-06
0.00580447
9.19543e-15
2.48112e-15
1.18736e-13
1.77725e-14
0.00793666
0.0017843
0.00352349
1.74732e-07
1.19269e-15
0.0240878
1.88568e-14
3.28206e-14
2.19236e-14
1.01924e-14
0.0257872
2.2949e-14
1.3222e-14
1.9435e-06
0.0505812
3.5455e-15
0.00254087
1.15928e-13
0.00094743
2.86007e-13
9.79708e-16
6.58666e-14
1.18154e-14
0.00266144
0.000651922
0.336822
1.39118e-15
5.44566e-14
0.00231754
4.57945e-15
5.3648e-14
9.53665e-15
0.0385439
7.57686e-06
0.0298459
3.69471e-14
9.00616e-06
4.12689e-05
2.23113e-13
0.000102255
2.42485e-14
0.00143553
0.0258705
0.0196837
0.00132595
0.00025592
7.27829e-15
1.62139e-14
1.84017e-14
1.85733e-05
4.22499e-15
0.00660031
6.09176e-14
0.175818
4.84438e-15
0.0423203
0.00315048
3.06416e-14
1.29262e-15
4.17345e-15
4.61623e-14
0.0370716
1.72801e-14
8.66876e-14
0.0124972
0.00620121
1.50145e-13
9.03496e-14
1.36739e-13
7.42351e-14
1.09358e-14
4.51965e-15
0.0233917
0.000438965
9.76196e-15
3.09399e-15
4.30551e-07
1.28237e-15
0.00145006
0.000109789
1.34408e-14
0.00311316
5.15414e-15
0.000342754
1.54767e-14
0.000968545
2.1784e-14
9.19206e-08
2.05863e-06
0.000713916
0.0166721
0.0314897
1.09428e-06
5.74459e-15
0.000476986
1.08636e-14
0.00448821
8.85625e-15
7.53866e-15
2.49976e-14
2.68407e-14
1.57919e-14
3.47949e-14
0.00658486
0.00723691
1.01149e-14
1.4303e-14
4.24051e-14
0.000690093
1.41672e-05
1.29787e-14
0.018278
0.000190796
3.34548e-15
0.0238099
0.00804226
0.00350505
0.0122962
5.01521e-16
1.27847e-14
2.89321e-15
4.54257e-15
0.0367571
2.88828e-14
0.108791
3.41395e-15
0.000260789
0.000729199
2.28724e-15
0.000830544
6.08316e-15
1.6396e-15
0.00269006
2.58911e-08
0.00743417
2.25504e-15
1.81645e-15
7.20996e-15
0.00075058
1.62259e-14
6.34888e-15
4.87886e-14
3.59848e-07
7.19953e-14
8.76573e-06
4.42839e-14
3.07647e-14
5.07269e-15
0.0184593
0.0098313
0.017956
0.0350014
5.23881e-15
1.20731e-05
1.27303e-15
4.63652e-15
0.0102515
1.18218e-14
2.52647e-06
0.000297963
0.0066456
0.000320887
9.66776e-10
0.00211694
2.59581e-14
1.00823e-09
6.02142e-10
0.00011261
0.000915315
0.0146835
6.65824e-08
1.139e-14
0.0308345
5.2041e-15
2.13915e-14
1.77268e-05
0.0731899
6.70723e-08
3.11772e-15
4.57245e-15
4.04309e-07
7.72271e-15
2.20813e-15
1.4734e-05
7.9745e-15
3.21973e-14
0.0394834
0.000189516
0.000147773
0.022539
0.00729071
3.35788e-15
3.89136e-16
1.24557e-05
0.00421262
2.89064e-15
1.3991e-14
0.0104409
3.81034e-14
1.22215e-15
8.96678e-14
1.48598e-13
3.90072e-13
2.57641
4.37911e-15
0.000193701
3.47558e-14
0.0188911
8.17606e-16
1.57629e-12
1.2009e-13
4.23994e-14
8.67966e-15
1.59361e-14
0.00320247
7.6972e-15
1.51354e-16
9.68396e-14
9.12605e-15
1.17352e-14
5.81424e-15
0.00975223
6.8505e-15
0.0107855
0.00278008
1.19139e-15
0.00144745
2.05175e-16
0.000452193
1.84731e-06
0.00409679
0.0140211
8.71959e-15
9.25017e-05
0.00817404
6.98277e-06
3.16135e-15
2.05647e-06
0.0187713
0.00430968
1.15819e-13
0.0257249
5.22976e-14
2.07994e-15
4.96845e-15
7.36009e-15
0.0078391
8.24453e-15
2.97597e-15
0.00821771
1.61512e-07
0.00240794
3.1337e-15
3.09965e-14
0.000604964
1.61993e-14
8.92255e-05
2.05869e-15
0.022816
5.07648e-15
7.79212e-15
5.0006e-05
1.70774e-14
0.000122678
1.49376e-14
7.49534e-15
0.00532863
0.000420191
0.00492273
0.0161238
0.21737
0.0199477
1.9509e-15
5.29069e-13
0.00265733
0.00675969
0.0364288
0.011729
1.0435e-14
0.0121986
2.94101e-15
5.09512e-15
0.00847372
0.0104289
9.66867e-15
0.0129782
6.06187e-15
0.00278817
0.00872843
3.34177e-14
6.66326e-16
1.14799e-15
0.00262057
1.10954e-14
5.54341e-14
0.00389618
0.0209915
4.01767e-06
0.00772708
1.34936e-14
2.59654e-15
7.80722e-05
0.000753958
1.76572e-14
0.00955045
2.89979e-13
0.00237933
9.02421e-15
2.40118e-14
0.0115696
4.31497e-15
4.04222e-05
0.00330737
6.03328e-15
3.4344e-15
0.00400107
3.50282e-11
0.0538109
2.6882e-14
0.264138
1.64689e-15
4.5796e-14
1.3966e-14
0.00694252
3.87778e-14
9.1779e-15
0.00530313
4.77234e-14
0.000226718
1.34823e-13
2.82097e-14
4.59081e-15
1.24974e-07
0.000754432
3.33339e-15
9.06377e-15
0.0359612
0.000913878
3.19644e-15
0.000434198
8.49556e-15
2.93364e-14
1.49204e-06
0.00315144
0.00115786
5.62647e-15
6.58137e-14
8.16229e-15
3.46626e-15
9.78163e-17
8.93614e-15
1.89818e-14
1.89788e-15
9.46185e-15
2.60986e-14
1.8455e-14
8.31555e-15
2.39572e-15
4.38731e-15
1.58741e-15
2.19078e-15
5.88449e-15
2.90564e-15
2.36064e-14
3.78964e-15
3.56351e-14
0.0181381
6.47834e-16
1.35353e-14
6.72608e-15
0.00632704
2.43226e-14
6.76034e-15
0.246733
6.39098e-14
1.89388e-15
0.0223955
3.92427e-13
7.42078e-16
0.00618134
0.0237783
1.92552e-15
0.00199959
0.00321411
6.11514e-14
0.0123655
0.0385867
0.016954
0.00306902
0.0102043
9.46672e-14
1.44086e-14
0.00295943
0.0110295
0.00291346
1.56435e-14
0.00618237
0.00161592
0.0199553
0.010568
0.000602203
0.0144264
0.00107776
0.00939277
3.74271e-14
0.0258208
0.00806843
0.00177176
0.00127185
4.33846e-15
1.21179e-14
1.27458e-14
6.0169e-15
5.04899e-15
0.00964316
0.0129942
1.18291e-15
3.10139e-16
2.89228e-14
9.91041e-16
5.5132e-15
1.41691e-14
7.26969e-15
4.9406e-14
0.00453387
0.000142573
0.0206866
6.47325e-05
5.57863e-15
1.98372e-13
0.0316008
4.96571e-06
9.89957e-16
5.17143e-15
0.0068626
5.32697e-14
1.52328e-14
3.09041e-06
0.00740232
0.0133063
0.0311299
0.0310556
1.24076e-14
0.0141271
0.000316847
9.84383e-15
6.34043e-15
0.0109792
8.3862e-14
3.27242e-15
0.0201801
1.01881
0.000153034
1.22938e-13
2.06859e-14
0.0147979
0.0213341
0.0174152
0.00532873
0.0030124
8.91004e-15
8.61073e-07
2.44148e-09
9.75121e-14
2.29465e-14
0.0163815
3.35018e-15
0.00197366
0.0253602
0.016328
0.0110183
4.06299e-14
0.00531916
2.68501e-16
3.74835e-14
6.75402e-15
1.08458e-15
0.00252355
0.808405
2.65332e-16
2.37095e-15
3.43899e-06
0.0234314
0.000809796
0.00651927
0.0321925
0.00424913
0.0188982
2.18848e-14
5.28374e-14
5.31648e-14
0.0300325
0.00527889
2.54784e-08
1.03523e-14
1.49216e-14
4.29837e-14
0.020733
0.00245635
3.87011e-15
0.00450681
0.0516165
0.00669132
0.00578804
3.37241e-15
2.63519e-14
0.00645538
0.0224959
1.08322e-14
0.000302386
0.0134779
0.000882715
0.00930624
0.00439475
0.00749252
6.41248e-14
0.00332492
0.0199004
0.0358757
5.42794e-10
0.0221778
5.07225e-14
0.0161333
0.00012723
4.6e-16
0.0023542
0.00668094
0.00035167
0.0109468
9.5561e-07
0.000150584
1.75291e-05
0.0316735
0.00331711
5.43628e-15
0.0373827
0.00109002
3.22658e-16
1.89832e-15
3.6303e-08
8.8905e-06
0.00098534
1.05146
0.0333189
0.00955276
2.17838e-07
0.0405152
9.96212e-16
4.30593e-14
0.00398786
3.11634e-15
0.00196247
0.00465279
0.00191963
0.00457046
4.5594e-15
0.000198638
0.103916
3.38112e-15
0.0261208
0.00694418
2.09337e-15
0.00345826
0.000221073
9.29447e-15
5.45237e-09
8.73382e-05
3.41846e-14
7.886e-15
1.98393e-14
0.00392327
0.00404083
0.0135455
2.04482e-14
0.00477997
0.0304761
3.25136e-14
0.00722474
0.0111869
0.0236066
0.00135976
4.99806e-15
0.000515968
0.00896053
0.00938643
0.00804811
0.0363818
0.152422
0.00303478
7.79342e-15
4.67179e-06
0.0498081
6.47615e-15
0.000371169
8.83418e-15
4.30002e-15
4.20615e-15
8.36301e-16
2.4378e-15
0.00306993
2.19513e-15
0.00617411
0.00127355
2.20343e-14
0.00407891
3.49075e-13
0.0137536
2.9603e-15
1.69394e-05
1.31711e-13
0.0204215
0.000127308
1.62588e-06
0.00358887
0.0274028
0.0163257
0.00373585
0.0245672
4.42288e-12
0.020353
0.0518042
0.00858798
1.52871e-14
0.00112914
0.00027807
0.00507762
0.0110481
0.00063138
3.17999e-14
1.03402e-13
1.03138e-15
0.00363299
2.24809e-14
0.000105985
0.000203182
0.00101186
0.000231085
8.73965e-15
1.1879e-14
4.70516e-15
0.00775218
0.0196407
0.00127743
7.16725e-06
0.0017735
0.00636266
0.00175167
0.000866228
0.00673762
0.00552653
0.00243049
2.68639e-14
7.09468e-15
6.37809e-15
0.013179
0.0104303
6.51565e-14
4.20166e-16
2.40867e-13
0.00763493
0.0182769
8.15822e-15
0.00202135
9.16982e-15
5.89822e-07
0.00483698
0.0805902
1.12724e-14
1.53337e-15
0.00371051
3.54537e-15
6.88455e-05
0.0113463
3.40836e-14
0.0100802
0.0315588
0.0174041
3.39947e-15
0.00113152
2.17171e-14
8.03085e-05
0.0459319
2.69638e-14
7.11832e-16
0.0105481
4.99731e-13
1.63539e-14
3.69211e-05
0.00105046
6.01398e-15
1.13739e-14
7.29856e-15
6.36815e-05
0.00125983
0.00330491
0.0221719
0.0084161
1.57005e-14
5.74867e-07
0.000599698
1.36102e-14
1.0368e-15
2.35257e-16
1.30308e-14
1.73247e-14
1.48385e-14
7.77446e-14
1.0189e-14
3.48793e-14
8.81967e-14
2.68527e-09
2.73491e-14
0.000340819
3.43368e-14
0.000159827
3.15901e-14
5.4667e-05
2.97511e-14
1.15332e-15
0.0246693
0.00876729
5.80302e-14
0.0841188
4.61552e-09
1.67646e-10
2.01878e-15
0.00103731
5.80191e-12
0.00240367
4.75468e-06
0.000930963
2.41474e-14
4.60934e-15
0.000997533
3.42702e-08
3.94558e-15
3.87225e-14
0.0370488
1.47007e-13
0.0354977
2.03859e-14
1.50986e-15
1.33695e-06
0.0264267
0.00794635
2.91035e-15
0.000291521
1.61003e-13
0.00206315
1.5592e-05
0.00173866
3.12452e-06
6.12722e-15
0.019261
0.00100737
0.00465012
7.89325e-15
6.33452e-16
4.63423e-16
0.0110469
0.00362182
0.0477089
4.17051e-15
3.5174e-07
1.17803e-14
2.9639e-15
3.14733e-14
1.1324e-15
0.00282053
0.00176295
0.00261532
0.290516
8.85105e-15
0.0265601
0.0338087
0.0164443
0.00137666
2.76736e-14
0.00539518
0.00386516
0.00461713
4.74337e-07
0.00961378
2.76348e-14
0.00159655
0.00106036
0.0310207
9.065e-07
0.00290161
2.26509e-14
0.0163287
3.37268e-14
1.10855e-15
0.00154699
7.51733e-15
0.00631109
5.60831e-15
3.19076e-14
2.00447e-13
3.04919e-15
2.83891e-15
0.000688466
1.32841e-14
0.000587942
3.12111e-14
9.38763e-15
0.0177089
0.00520722
0.00718541
0.00756344
7.36954e-16
0.534121
1.31698e-15
0.0659877
2.26216e-15
0.0173132
0.0207043
0.00205335
0.053192
1.89749e-16
1.21945e-14
2.75351e-15
0.00208419
4.50726e-15
5.64829e-15
0.0168061
2.25231e-14
5.86988e-15
0.00468991
1.20851e-14
0.0117852
7.56616e-08
4.15916e-15
9.23427e-15
3.01631e-16
0.00143181
0.00607198
1.59663e-14
0.0212881
0.000296447
2.95211e-14
0.0932507
8.82798e-15
0.01504
0.0170783
0.00318503
4.0184e-14
0.0169418
0.00910019
0.000739918
0.00464149
0.0110936
9.34932e-15
1.56752e-14
1.60367e-06
2.22797e-14
1.18401e-15
1.33782e-14
0.0186473
0.0455398
0.00417238
0.00184624
2.26847e-14
0.044726
0.04301
0.00397135
0.0023262
0.00832617
0.0195324
0.00235576
1.41666e-14
4.93228e-15
2.07343e-15
0.00613968
7.62123e-15
0.0247509
1.89582e-13
0.000709316
4.14264e-07
0.00244926
0.0210115
3.87298e-15
4.49227e-14
0.00226096
0.000339775
2.60444e-15
2.08425e-15
2.14197e-14
3.5295e-05
0.000253282
0.000124369
0.000707842
0.00898405
0.0841525
1.79758e-14
1.19787e-14
3.05807e-14
0.00346455
0.0179954
0.0188096
0.0317469
0.00186367
0.00255788
1.51321e-14
3.85817e-15
1.64146e-13
7.00747e-15
0.00876752
0.0202921
7.07577e-15
2.28846e-14
6.12568e-14
8.00198e-15
6.12078e-14
5.26415e-14
0.0121632
1.35422e-13
0.00106342
0.359367
2.87251e-14
1.49594e-05
0.0207272
0.00054737
3.8633e-15
2.32709e-14
0.00443021
5.35304e-17
0.0128986
1.02358e-06
0.0225597
2.2718e-14
2.12988e-12
5.43737e-15
2.51012e-15
3.35638e-14
3.7225e-14
0.18212
1.08688e-14
0.00521921
0.00112328
1.94417e-15
7.70423e-14
0.00185566
1.52286e-14
1.22322e-14
0.0134451
7.04641e-05
1.87835e-14
1.20819e-13
3.76947e-15
0.0153699
2.26915e-14
7.36933e-15
0.000357309
0.00233437
0.00278871
1.11838e-14
3.63549e-14
1.68937e-14
0.00334434
0.00163993
0.0113778
0.0032664
3.97369e-16
0.000674847
0.0120466
0.00598362
1.69176e-15
5.34131e-15
1.24987e-15
2.1968e-14
2.53884e-14
0.0284498
0.00670908
0.00527035
7.20875e-14
2.32886e-15
1.40608e-14
3.74786e-15
7.50084e-15
8.52712e-07
0.000232756
0.0020751
1.54454e-15
7.55504e-14
9.36476e-14
2.70825e-09
0.0310569
0.105527
1.17013e-15
1.80607e-09
4.636e-12
3.41248e-14
3.05339e-14
0.00330108
0.00644357
9.88864e-15
1.31521e-13
0.00259307
1.44037e-14
0.000648385
0.00104802
2.03608
4.6204e-15
3.18429e-14
0.0111948
0.000455112
4.41446e-15
0.640672
0.000508699
0.00649791
2.01007e-14
1.93275e-14
1.90186e-14
1.06227e-14
0.00715379
9.88181e-05
5.26132e-14
0.0225809
0.0172473
0.842522
8.76058e-15
1.79837e-15
2.77746e-14
4.7271e-15
0.00608733
5.62256e-08
2.56453e-14
1.54006e-14
0.0170743
0.000763681
0.00491298
5.23574e-15
4.37692e-14
0.0267923
1.35054e-14
9.91529e-15
4.71189e-15
3.22262e-15
0.02155
7.80233e-14
3.0064e-15
5.55578e-16
0.0240256
0.0122058
7.68173e-15
4.66599e-15
1.38023e-15
0.014526
1.43372e-07
4.44884e-15
5.09821e-15
8.3611e-15
3.9645e-14
0.0022222
0.00987224
6.62549e-17
0.00199948
0.000942255
0.00429088
2.39631e-14
1.87186e-14
1.55074e-15
1.63491e-14
3.10433e-15
0.0198084
1.05709e-13
0.0147309
1.79393e-14
0.00135785
8.43113e-14
0.00208837
7.41714e-15
1.34183e-15
0.00953465
0.180951
1.21753e-13
0.00311342
3.85967e-14
0.000327828
1.09335e-14
2.79233e-14
1.90018e-14
3.7918e-07
2.82629e-14
0.000344856
3.57796e-14
0.0338024
6.00935e-15
1.37511e-13
1.25768e-14
4.55572e-14
7.00767e-06
0.000122173
1.98021e-15
0.00460239
1.08508e-15
0.00303704
0.0183259
0.00111919
9.89594e-15
3.97399e-06
0.000388597
1.79927e-06
0.00461311
3.65341e-07
0.00144323
1.76965e-13
3.84042e-15
4.00703e-07
0.0050144
0.000216544
5.98591e-15
1.71264e-14
4.74047e-14
0.502282
9.71068e-15
3.24594e-15
1.27033e-14
7.5237e-15
8.75312e-14
5.8376e-05
0.000159965
0.00093013
5.56222e-05
4.32957e-13
0.00116078
3.50886e-15
0.00573466
3.87042e-14
6.35138e-15
1.47559e-15
1.45862e-14
1.50373e-05
2.8031e-14
4.91583e-14
1.93691e-14
0.0143591
4.72629e-14
1.72241e-15
0.00962219
5.25469e-14
0.0545708
0.0975707
0.475579
3.48299e-14
0.196506
1.17311
1.36002
0.645735
5.65039e-15
1.32461e-15
0.00471776
0.00460484
1.99202e-14
0.00602206
2.63578e-16
0.0307873
4.46905e-14
9.52803e-15
0.000594195
5.82103e-14
4.49374e-14
9.11186e-06
3.32454e-05
3.49349e-14
8.7325e-15
1.85772e-06
9.32901e-14
2.12223e-14
2.02815e-05
0.00752811
0.00130115
4.79233e-14
0.00684445
3.0846e-14
0.00321486
3.94808e-07
0.006426
9.2397e-15
8.51409e-09
0.00502539
1.7572e-14
1.35922e-09
4.18463e-16
0.0313409
8.48714e-15
0.00952054
8.40346e-15
9.3911e-08
2.11036e-15
2.45002e-14
1.03199e-14
4.03135e-10
2.11385e-10
3.14085e-14
0.0115813
0.0076639
4.02701e-14
3.47805e-15
0.0312531
0.0176272
0.17693
2.4247e-14
6.0612e-05
0.0239613
0.0446235
5.10624e-08
1.11382e-14
0.0556235
4.43233e-15
0.214399
1.85559e-14
3.63309e-08
3.71494e-08
1.44702e-14
5.60893e-05
8.12856e-14
0.018277
1.37551e-15
1.01132e-14
2.89375e-15
2.67411e-15
4.69132e-14
1.22883e-14
0.000246846
0.00169257
0.130205
3.91288e-14
7.25927e-14
0.0392046
1.04541e-14
1.45875e-16
6.06972e-15
1.7342e-13
2.98278e-14
0.005045
1.40448e-15
1.566e-14
1.3907e-16
0.00277785
1.33262e-13
2.16905e-15
2.22816e-14
0.00280312
2.94747e-15
0.00503076
0.211811
0.00457128
0.00514703
0.022681
2.5182e-14
1.00357e-14
5.81661e-15
0.00290473
0.00170515
1.44669e-15
8.77947e-13
0.000504736
9.27152e-14
2.30867e-14
0.311545
9.64874e-15
0.0207824
9.87448e-15
0.00209194
0.00328978
1.57995e-14
2.38832e-15
6.83052e-16
1.3422e-14
4.7662e-15
0.0181024
3.37086e-14
0.00393251
6.34777e-15
6.04778e-15
0.00600371
2.41675e-15
0.0124748
3.89535e-14
1.80119e-14
0.00209408
6.54418e-05
0.128765
2.81372e-14
1.30444e-15
1.09468e-14
0.00309229
0.165755
1.17395e-14
3.15535e-15
1.88988e-13
0.00120522
2.10134e-14
0.0190415
0.0269948
9.18507e-14
5.60851e-15
0.00602606
1.5286e-14
8.56008e-14
4.25189e-16
2.38738e-14
1.41346e-14
0.0616575
5.40659e-14
1.11585e-13
4.22778e-16
6.53201e-15
2.43978e-14
5.56736e-15
3.90414e-14
2.41662e-15
1.01348e-13
0.00684187
5.24381e-14
0.00721398
9.82877e-14
3.80734e-14
0.549476
0.00236879
5.87296e-15
1.49261e-14
7.6045e-15
0.00203019
4.70319e-14
1.22594e-14
1.08905e-13
3.18826e-14
0.0063183
1.75743e-15
0.00353753
2.14696e-14
0.00952034
2.07795e-14
0.0540455
5.99854e-14
2.22021e-15
0.0186599
1.84633e-14
1.23709e-14
0.0257395
0.000290844
2.37165e-14
1.2305e-14
0.0354739
0.0101502
0.00562471
0.000661173
0.00148928
0.0160804
0.000853645
0.00492284
4.07468e-14
0.0243177
5.81489e-14
3.61858e-14
1.08637e-15
8.60232e-14
1.92144e-14
0.0087091
4.00727e-14
1.31222e-14
2.77199e-15
1.71666e-06
9.79017e-06
3.22418e-13
0.0024214
1.7684e-14
0.00367161
2.74708e-15
9.6995e-07
0.00351716
3.85604e-13
0.0402595
3.52253e-15
1.30006e-15
8.25261e-15
0.00254543
0.0012598
1.29374e-15
1.61264e-14
0.00211385
4.42559e-15
0.616957
2.51861e-15
0.0882493
3.0098e-15
6.30367e-15
6.63396e-15
5.15767e-15
0.00879528
2.38136e-15
4.0665e-05
3.00136e-15
0.00895299
5.43052e-15
9.73961e-15
6.11836e-12
4.55881e-13
7.4016e-15
1.05415e-13
1.86173e-14
4.54041e-15
0.00403578
0.18819
4.20631e-14
3.12763e-15
0.000384217
2.95818e-15
2.2042e-14
1.53795e-06
0.0159626
0.000153276
5.98305e-15
0.000511856
0.00336743
0.00461786
0.0078372
4.03108e-14
6.53402e-14
3.19185e-15
1.24332e-14
6.36205e-15
1.02963e-15
5.63395e-15
2.58232e-15
1.22147e-14
4.81384e-15
3.16239e-15
1.87804e-15
0.0700468
8.67159e-15
2.52945e-15
8.31511e-10
1.96214e-14
1.22503e-14
1.03749
2.46386e-15
8.45005e-16
0.00168409
1.58949e-09
1.33394e-14
6.6171e-14
5.49306e-15
0.0210585
1.04498e-14
1.11927e-14
4.0871e-08
2.67171e-15
1.81092e-14
3.64281e-16
5.03012e-15
0.108614
6.73303e-16
0.000180943
1.13348e-15
3.02704e-15
9.42838e-15
2.28733e-14
4.84018e-15
2.19793e-08
4.04518e-08
0.000116044
6.63662e-15
2.41934e-14
5.15831e-14
9.59393e-08
9.75393e-15
2.68902e-07
1.35184e-08
1.17798e-14
8.46148e-15
1.19834e-13
7.82678e-09
9.91526e-15
3.69335e-14
1.77721e-09
1.79103e-13
0.029899
1.07524e-14
0.00613148
7.4689e-14
2.03304e-06
6.04628e-15
0.00143102
3.60708e-15
0.00396476
0.0219307
9.91049e-15
0.0024125
1.09944e-05
9.71479e-15
0.00906517
7.39142e-15
8.95507e-15
1.88114e-14
1.46419e-14
2.6886e-14
1.38563e-15
2.0803e-14
1.01236e-14
0.251974
1.47864e-14
4.6507e-15
1.02874e-14
5.9749e-15
2.05508e-15
0.0302394
0.78401
2.63491e-06
1.22629e-05
2.72254e-15
0.00179687
0.00124928
4.77293e-14
5.03517e-14
2.82912e-13
4.43275e-15
6.34758e-15
3.40374e-14
1.65001e-14
3.82299e-14
0.000382939
6.84126e-14
3.19136e-14
0.00015899
2.49653e-06
3.11955e-15
0.0254179
2.62403e-15
3.23738e-14
1.10687e-14
0.159868
2.22621e-14
5.61644e-16
0.0230512
1.4758e-15
2.74645e-14
2.27023e-14
2.80856e-14
0.0500877
1.32465e-15
1.19058e-14
1.15415e-15
2.21474e-14
0.0057307
0.227478
0.0286626
0.0435545
0.00326971
0.000206471
3.22987e-16
4.0413e-14
0.123164
0.00135411
2.48852e-13
6.8357e-08
2.69116e-14
9.9053e-12
5.44715e-14
0.20938
1.05736e-14
8.08289e-15
0.000204098
1.02673e-10
4.06335e-15
0.0105899
1.19095e-15
3.93083e-14
0.198444
0.0269134
3.16647e-15
4.61259e-15
6.74905e-15
7.1949e-15
4.52983e-15
3.23715e-15
1.04436e-14
3.83507e-15
0.00313396
1.19768e-14
1.90139e-14
1.41715e-14
1.19352e-05
2.42445e-14
7.14424e-15
3.23472e-15
2.85803e-15
1.56665e-13
2.11205e-15
0.0029364
6.68783e-15
2.3887e-14
0.0045529
6.02759e-14
0.000373809
0.00466046
1.88621e-14
0.00309243
2.27454e-15
1.56249e-14
8.04199e-16
1.78426e-13
1.86092e-14
4.27197e-14
6.10836e-15
9.99208e-15
0.00208258
6.44026e-14
4.93387e-14
1.36021e-14
1.29629e-14
9.88593e-15
2.18571e-14
0.0380812
1.07846e-15
8.23439e-16
0.33875
1.80999e-14
3.51164e-15
3.48013e-14
0.0011142
1.60476e-15
4.97533e-06
2.09196e-14
5.78839e-05
0.00869939
8.34436e-15
2.64808e-13
0.0386453
1.76913e-13
1.06186e-15
0.00010523
5.56321e-07
0.0100281
1.84193e-06
6.6576e-07
1.16376e-07
8.40905e-15
3.25249e-14
0.000910361
0.000142738
0.0179517
0.0114138
3.29055e-05
2.22369e-14
0.00548126
0.0046534
0.017254
1.36818e-13
0.0117157
0.0163647
0.00258828
0.00120789
0.00087473
0.00342783
0.018863
0.0383048
0.00699565
0.011075
0.00765626
1.55848e-14
0.0027694
0.00349835
0.000745966
0.00291406
0.0146143
0.0128745
0.0200811
1.47364e-14
0.00976361
3.06655e-14
0.004757
0.00259189