/*--------------------------------*- C++ -*----------------------------------*\
  =========                 |
  \\      /  F ield         | OpenFOAM: The Open Source CFD Toolbox
   \\    /   O peration     | Website:  https://openfoam.org
    \\  /    A nd           | Version:  10
     \\/     M anipulation  |
\*---------------------------------------------------------------------------*/
FoamFile
{
    format      ascii;
    class       surfaceScalarField;
    location    "1.5";
    object      phi;
}
// * * * * * * * * * * * * * * * * * * * * * * * * * * * * * * * * * * * * * //

dimensions      [0 3 -1 0 0 0 0];

internalField   nonuniform List<scalar> 
214403
(
-0.00302607
0.00231628
0.000130151
0.000579642
-0.00141508
-0.00484152
0.000366171
0.00589042
-0.00449164
1.03524e-05
-5.23712e-05
0.00453366
0.00397424
-0.00265244
-0.00667145
0.00534965
0.0052382
-0.00660507
0.00154049
-0.000173612
-0.00230202
0.00240052
-2.99508e-05
-6.85425e-05
-0.000364334
-0.000717382
-0.00396189
0.00504361
-0.00713387
0.00406854
-0.00106506
0.00413039
-0.0100916
0.00709335
0.00722695
-0.00422872
0.00591599
0.000714391
-0.00669323
6.28447e-05
0.00221576
-0.00436644
0.000912782
0.0012379
-0.00432089
0.00133814
0.00224474
0.000738015
0.000206883
-0.00506038
0.00612642
-0.00127292
-0.00437381
0.00435998
1.38326e-05
0.000851806
0.00516656
-0.00664804
0.000629679
-0.00508517
0.00422791
0.00127052
-0.000413265
-0.0052031
0.00506171
0.000141384
0.00171379
-1.24233e-05
-0.000439706
-0.00126166
0.00661784
-0.00394982
-0.00883136
0.00616334
-3.36117e-05
-0.00139243
4.00074e-05
0.00138604
0.00284963
-0.00277069
-7.89324e-05
-0.0052774
-0.00182387
0.0018121
0.00528917
-0.000987518
0.00583109
-0.00468562
-0.000157951
0.00284381
0.000277648
0.000971323
-0.00409278
-0.00437916
-0.0020838
0.00565889
0.000804064
0.00412302
-0.00521998
3.89139e-05
0.00105804
0.00134466
-0.00114832
0.00439393
-0.00459028
0.00337254
0.00438943
-0.00529946
-0.00246251
0.00472412
-0.00295162
-0.000143214
-0.00162929
-0.0026267
0.00267819
-5.14928e-05
0.00104895
-0.00216712
0.00576065
-0.00464248
0.00596705
0.000286486
-0.00103419
-0.00521935
-0.00251698
-0.00258149
0.00264794
0.00245052
-0.000508116
-0.00289075
0.00255118
0.000847685
0.00190062
-0.00124365
-0.00414496
0.00348799
-0.000728557
0.00364964
-0.0013223
-0.00159878
0.00681806
-0.00015485
-0.00666321
-0.00296168
0.00582451
-0.00286283
0.000533137
-0.0064222
0.00373772
0.00215134
0.00102194
-0.000415068
0.00255059
-0.00315745
0.00243852
-2.01671e-05
-0.00241835
0.00426484
-0.000106707
0.000789821
-0.00494795
-0.00548509
0.000663049
0.00584398
0.000413328
0.000408719
0.00373554
-0.00455759
-0.00171797
-0.0117051
0.0113316
0.00209147
0.00256449
0.000474752
0.000566053
-0.00360529
0.00175715
0.00137331
-0.00434899
0.00121854
0.0056305
0.00335563
-0.00614232
0.000492808
0.00474932
-0.000977291
0.000819224
-0.00304621
-0.00179912
0.00402611
0.00140483
0.00213769
0.000628065
-0.00417059
0.000802402
-0.000609602
-0.00183533
0.00164253
0.00310038
-0.0056054
0.00390985
0.00499685
-0.0047446
-0.00159325
0.00134099
0.00478458
-0.000864975
-0.00365487
0.00494785
-0.000196402
-0.00109658
0.00373764
-0.00480605
7.02183e-05
0.000998194
-0.003556
0.000245036
0.00567581
-0.00236485
-0.00695581
-0.00690495
0.00559749
0.00826327
-0.00346974
0.00347928
0.000682051
-0.000691585
0.000530881
-0.00441569
-0.00384789
-8.01261e-05
0.00199842
0.0019296
-0.00609799
0.00261301
0.00390828
-0.000423305
0.0066997
-0.00536888
0.000284756
-0.00161558
0.000311442
0.000127421
-0.0044511
0.00401223
0.000258168
-0.00133166
0.00652796
-0.00545447
-0.0156308
0.0018931
0.00169976
0.0120379
-0.0013316
0.00399608
-0.00127027
-0.00139421
0.00217781
-0.00112844
-0.00464268
0.00359331
0.000532237
0.00343078
-0.00433838
0.000375362
-4.52779e-05
0.00372975
0.00125631
-0.00494078
-0.000776453
-0.000126866
-0.00166136
0.00256468
-0.00402159
0.00439955
-0.000169111
-0.000208854
0.000172592
-0.00409277
-0.00284684
0.00252761
0.000765394
-0.000446158
-0.0071671
-0.00045513
0.00348429
0.00413795
-0.00219694
-0.000927947
0.0018532
0.00127169
0.00315273
-0.0105875
0.00141489
0.00601983
-0.00169309
0.00339387
-0.001859
0.00015822
0.00238015
-0.00185599
0.000226397
-0.000750555
8.14631e-05
-0.00461047
0.00452901
5.09174e-06
0.0036117
-0.0036168
0.00325673
-0.000637216
0.000418032
-0.00303754
-0.00203752
0.00290923
0.00096398
-0.00183569
-0.00141393
0.00610201
-0.00148065
-0.00320743
0.0029736
-0.00513134
-0.000162092
0.00231983
0.00323264
0.00337442
-0.00660706
0.00462041
-0.00520144
0.00136339
-0.000782361
0.000419281
-0.00084671
0.00619211
-0.00576469
0.000197399
-0.000995756
0.00444218
-0.00364383
0.00112916
0.00926188
0.00261813
-0.0130092
-0.00794638
0.00697471
0.00453479
-0.00356311
0.000382967
0.00300727
-0.00401645
0.000626218
0.00387393
0.00430035
-0.00139173
-0.00678255
0.00680367
-0.00417666
-0.000100045
-0.00252696
0.00031299
-0.000926497
-0.00291621
0.00352971
-0.00294219
1.076e-05
0.00293143
0.00422367
0.00013243
0.000264305
0.00538736
0.000465014
-0.00822759
0.00237522
-0.00442457
0.000896171
0.000775256
0.00275314
-0.00278936
0.000692966
0.000342308
0.00175409
0.000608929
0.000487216
-0.00549343
0.00439728
-0.00114661
-0.00663958
0.00423769
0.0035485
0.00264622
-0.00312657
-0.00205531
0.00253567
0.00431098
-1.4101e-05
-0.00431114
1.42561e-05
0.00329502
-0.00465304
-0.00156445
0.00292247
0.00852447
-0.00259536
-0.00132781
-0.0046013
0.00475955
-8.49914e-06
-0.00436682
-0.000384226
-0.00263338
0.00308891
0.00638117
-0.0068367
0.00538998
-0.0018066
-0.00520121
0.00161783
0.00101655
-0.00148741
0.00642627
-0.00595541
-0.00683802
0.00621977
0.00591401
-0.00529576
0.000342618
-0.00572931
0.0022024
0.0031843
0.00725774
-0.000361965
-0.000184189
-0.00671158
0.00496713
-0.000968011
0.000958173
-0.00495729
-0.0061409
-0.00561799
0.00663873
0.00512016
-0.00108719
0.00312698
0.000849985
-0.00288978
-0.00234599
0.000127294
0.00454643
-0.00232774
-0.000507105
0.00597574
-0.005528
5.93633e-05
-0.0053436
0.0049603
0.000969812
-0.000586509
-0.000174017
-0.00309851
0.00739555
0.000944122
-0.00312289
-0.0023103
0.00448907
-0.00247769
3.05512e-05
0.00244714
0.000764531
0.00346874
-0.00320797
-0.0010253
0.00568575
-0.00332093
-0.000884141
-0.00148068
7.61066e-05
-0.00174209
0.00166598
-0.00313929
-0.000858965
0.00119512
0.00280314
0.000358415
0.00198183
-0.00441253
0.00207228
0.00710296
-0.0006421
0.002761
-0.00922186
0.000485776
-0.000682463
-0.00828101
0.00847769
0.000525893
-0.00232483
-0.00308583
0.00488476
0.000179993
0.00423397
-0.000190295
1.62923e-05
-0.00260642
0.00259013
0.0052386
-0.00195722
-0.00233726
-0.00316186
0.0026388
-0.00261622
0.00564035
-0.00470762
-0.000579928
-0.000352798
0.000579948
-0.00271923
0.00119361
0.000945671
-0.00463353
-0.0014148
0.00095134
0.00509698
0.00389825
-0.00627044
0.00418002
-0.00180783
-0.00013016
0.00584566
-0.00584621
0.000130705
2.28829e-05
0.00657529
-0.00657494
-2.32376e-05
-0.00715512
0.00574832
-0.00462287
0.00602967
0.00602243
-0.00587278
-0.000149655
-0.00585651
0.00781332
-0.00138599
-0.000570826
-0.00500188
0.00121688
-0.00037483
0.00415983
-0.00828941
0.000618695
0.00534063
0.00233009
0.00145276
-0.0019872
0.00111439
-0.00210473
0.00238034
0.00384508
-0.0041207
-0.00216986
-0.000979058
0.00124074
0.00190818
-0.00295153
0.0019274
-0.00368135
0.00470548
0.000895343
8.584e-05
-0.00683769
-0.0030401
0.00303122
8.88283e-06
0.00412312
-0.00399341
-0.000129713
-0.00488182
-0.000319646
-0.00129198
0.00116134
-0.00639229
0.00742479
-0.00219385
0.00282104
0.00481547
-0.0061419
-0.00149461
0.00537349
-0.00585411
0.000177483
0.000303131
0.00307697
0.00079576
-0.003188
-0.000684725
-0.004649
-0.000237993
0.00604833
0.00275728
-0.000195877
-0.00336063
0.00079923
0.00310788
-0.00264072
0.00304095
-0.00350811
-0.00508973
0.000962664
0.00694811
-0.00182149
-0.00241829
0.00814415
-0.00390437
-0.00248758
-0.00277568
0.00061426
0.000705422
0.00202838
-0.00522138
-0.003734
-0.00030052
0.00597983
-0.0019453
0.000542203
0.0010043
0.00308739
-0.00463389
-0.00168451
0.00411011
-0.0024256
0.00124891
-0.00641174
0.00238716
0.00381129
0.00270012
-0.00580599
-0.0053948
7.42356e-05
0.00670621
-0.00138564
0.000937688
0.000818295
0.00255223
-0.00430822
0.00438326
-0.00437916
-4.10331e-06
0.00136628
-0.000520034
0.00456998
-0.00541622
0.00476732
-0.00150223
0.00228712
-0.00555221
0.00915851
-0.00295276
0.00682323
-0.013029
0.001444
0.00268509
-0.00111638
-0.00301271
-0.0041495
0.00170605
0.00217443
0.000269025
0.00297735
-0.00224043
-6.8257e-05
-0.000668664
-0.00185556
-0.00234783
0.00682704
-0.00262366
-0.00333329
0.00432462
0.00172589
-0.00271722
0.00503505
-0.000271899
-0.00165527
-0.00743221
0.00490404
-0.000423364
-0.00706481
0.00654967
0.00302566
-0.00251052
0.00452556
-0.00510359
-0.000722144
0.00130017
0.00255981
-0.00464884
-0.00241153
-0.00277099
-0.0025542
0.00143446
0.00389073
-0.003905
0.00122956
0.00387911
-0.00120367
0.00486848
-0.00463501
-0.00322895
0.00299548
3.11653e-05
-3.87959e-05
-0.00429223
0.00429986
0.000120317
-0.00390497
-0.000132376
0.00391703
-0.00107277
-0.00641002
0.0010083
-0.00371958
0.0033471
-0.000635818
-0.00248943
-0.00104347
-0.000372105
-4.85958e-06
0.00591416
6.69388e-06
-0.0145118
0.0101664
0.00736794
-0.00302254
-0.00442056
0.000298291
0.000154051
0.00396822
-0.000879658
0.013786
-0.0162457
0.00333927
0.000701687
0.00109549
-0.00244884
0.000651664
-0.009488
0.00510478
0.000683069
0.00370015
-0.000104538
-0.00631707
-0.000933413
0.00735502
-0.00247749
0.00935097
-0.00650764
-0.000365846
0.00421819
0.00609419
-0.00565993
-0.00465245
-0.00492113
0.00469197
0.00580857
-0.00557941
0.00199713
0.00277634
-0.0034687
-0.00130477
0.00196935
-0.00130915
-0.00314963
-0.00965998
-0.000368816
0.00786757
0.00216122
0.00297242
0.000476185
-0.00174256
0.00298617
0.00406383
-0.00372092
-0.00332908
-0.00480317
0.00108842
0.00466338
-0.000948626
0.000574978
0.0016457
0.00559264
-0.00587357
0.00576795
0.000556893
-0.00045128
0.00363796
0.00286108
-0.0025764
-9.57999e-05
-0.00073539
0.00340759
-0.0038426
-0.000801401
0.00217268
-0.00726238
0.00303303
0.00205667
0.000172619
0.00380679
-0.00420375
0.00022435
-0.00150361
0.00029538
-0.00139461
0.00260284
0.00619659
-0.00443179
0.000204554
-0.00350983
-0.00276413
0.00371586
0.00255811
0.0125157
-0.0135077
0.0044909
-0.00349898
-0.00259081
0.00321986
0.00129232
-0.00192136
-0.00627835
0.00270302
0.00545431
-0.00187897
-0.00248568
0.00358518
0.00453389
-0.00563338
0.00693214
-0.00261508
-0.00462717
0.000310119
0.000123664
-0.00168934
0.0040715
-0.00250582
-0.000702757
0.000671884
-0.00536393
0.00496136
0.00157154
-0.00532896
-0.00120394
0.00637138
-0.00523058
-0.0013788
0.0012923
0.00193081
-0.00455772
0.00133461
-0.00269138
-0.00486768
0.00439417
0.0031649
-0.00080274
-0.00209276
-0.000614338
0.00255456
-0.0027101
0.00583543
-0.00567989
0.000620075
-0.00697705
0.00635697
0.0024072
-0.00315654
0.00204164
0.00136243
0.000802822
0.00111193
-0.00327718
-0.000102017
-0.00597483
0.00607684
-0.00335712
0.000448974
-0.00109567
0.00400381
-0.000440243
0.00484076
-0.00438559
-1.49252e-05
-0.00313439
-0.00169092
0.00183104
0.00299427
-0.00114704
-0.00279009
-0.00255434
-0.00375956
0.00313721
0.00317669
0.000149268
-0.00385064
0.00646035
-0.00265009
-0.000349175
-0.00346108
0.00397662
-0.000465792
-0.00287613
-0.000634689
-0.000532591
0.00485466
-0.00607749
0.00175543
0.00311285
0.000120311
0.00151112
-0.00474428
-0.000119189
-0.00256985
0.00124424
0.00144479
-0.00175914
0.00228329
0.00431329
-0.00483744
-0.00621795
-0.00164386
-0.00174986
0.00580092
-0.00584289
0.000152335
0.0018185
0.00387206
0.000538007
-0.0019677
-0.00342283
0.00485252
-0.00258033
-0.00504579
0.00127427
0.00635185
-0.00225468
-0.00249794
0.00258076
0.00217186
-0.0057545
0.00553447
0.00576172
-0.00554169
-0.000820054
-0.00142934
-0.00434318
0.00659257
-0.00590855
0.000589325
0.00602957
-0.000710339
-0.00103908
0.00273121
-0.00169213
-0.00241292
0.0044667
-0.00335986
0.00130609
-8.8267e-05
0.00770612
-0.00289251
-0.00472534
-0.00282435
-0.00139682
0.00565508
-0.00143391
0.000877083
-0.00231467
0.0052284
-0.00379081
0.000253017
0.00356009
-0.000623182
1.27954e-05
-0.00562535
0.00561625
-3.70158e-06
0.00667242
-0.00119585
-0.00976177
0.00428519
-0.00616566
-0.000602337
0.00769734
-0.000929337
-0.00333028
0.00504047
0.000408313
-0.0021185
0.00361706
-0.00362363
6.57177e-06
-0.00335676
0.000364058
-0.00285139
0.0058441
-0.00500028
0.00690026
-0.00138753
-0.000512461
0.00309314
-0.00127932
-0.00374575
0.00193193
-0.00576169
0.00579852
-3.68259e-05
0.00495946
-0.00718326
0.00055715
0.00166665
-0.0054389
-0.00150221
0.00934343
-0.00240231
0.00414882
-0.000229778
-0.000846045
-0.00307299
-0.00233527
-0.00395833
0.00884816
-0.000408038
-0.00580987
0.00350781
0.00912754
-0.010182
-0.000972861
0.00202728
0.00254889
0.00121742
-0.00282863
-0.00335541
0.00344917
-9.37583e-05
-0.00103383
0.00580124
-0.000380335
-0.00438708
-0.00120206
0.00143613
0.00497311
-0.00520718
0.00343175
0.00811093
-0.00468848
-0.0068542
0.00597477
-0.00715085
0.00227783
-0.00110174
0.00514056
4.26921e-05
-0.00518326
7.023e-05
0.00497449
-0.00504472
0.00574427
-0.00693502
0.00615022
9.5128e-05
-5.80012e-05
0.00504244
-0.00507956
4.52241e-05
0.00834366
-0.00834019
-4.86855e-05
-0.00067105
-0.00201192
-0.00413983
0.0068228
-0.00258236
-0.00150776
0.000517012
0.00470885
-0.00828944
0.00306358
-0.00401924
-0.00105233
0.00430541
0.000766161
-0.00516108
0.00567915
-0.00152365
0.00100558
0.000753
0.00389712
-0.00132515
-0.00332497
-0.00180885
0.000403615
0.00317787
-0.00177264
1.20658e-06
0.0014694
-0.00190005
0.000429437
-0.00203803
0.00496767
-0.0028751
-5.45441e-05
0.00142886
-0.00455272
-0.00263784
2.86892e-05
-0.00432168
0.00429299
-0.00169366
-0.00161811
0.000747928
0.00256385
0.002435
-0.0014035
-0.0010315
0.00604429
-0.00603503
-0.00120226
0.00119299
-0.000571998
-0.00373955
0.00345787
0.000853674
-1.80167e-05
2.45216e-05
0.00340603
-0.00341253
0.00169022
-0.0013998
-0.00540554
0.00511512
0.00395083
-0.000117432
-0.0038334
-0.00573013
-0.00372435
0.00552996
0.00392452
0.00323691
0.00504053
-0.00868548
0.00320147
-0.00113413
0.00179759
-0.00386493
-0.00131864
0.00130456
-0.00732666
0.00734074
0.00185433
-0.00368102
-0.003573
0.00539968
-0.000390365
-0.000886081
0.00408973
-0.00281328
0.00283143
-0.0034775
0.00126541
-0.000619338
0.00161678
-0.00269106
-0.00259403
0.00366831
-0.00502389
0.00564726
-0.00147677
0.000853395
0.00587612
0.00756089
-0.00833647
-0.00510053
-0.00461545
0.00459185
2.36053e-05
-0.000541945
0.00519582
-0.006511
0.00185712
0.000166177
-0.000240703
-0.00558082
0.00565534
0.0049172
0.000207919
-0.00565548
0.000530368
-0.00220537
-0.00371365
0.00467202
0.001247
-0.0052918
0.00749349
-0.00265609
0.000454401
-0.00208435
-0.00258223
0.00154369
-0.000294964
-6.44548e-05
-0.00355905
0.00391847
-0.0115066
7.00829e-05
0.00098781
0.0104488
0.000467447
-0.00299162
-0.00155015
0.00407433
0.00731824
-0.000610388
-0.00237935
-0.00432851
-0.00129188
-0.00283941
0.000547359
0.00358393
0.0021585
-2.40271e-06
-0.00215609
0.00340673
0.00175801
-0.00115527
-0.00400947
0.00268852
-0.00212326
0.00525514
-0.0058204
0.00016156
0.00533568
-0.00175107
-0.00374617
0.0013174
0.00190887
0.00409198
-0.00263383
0.000200544
0.00243329
-0.00345167
0.000508357
0.000908502
0.000573042
-0.00472584
0.0032443
-0.0044344
0.00651254
0.00197193
0.00674452
-0.00141602
-0.00730043
-0.00427528
0.0041809
-0.00664256
0.00673694
-0.000636572
-0.0032273
0.00112624
0.00273764
-0.00361224
0.00684489
0.00210169
-0.00243416
0.000556503
-0.000224027
-0.00217
-0.00688308
0.00213175
0.00692132
0.0045822
-0.00455536
-7.33584e-05
4.65173e-05
0.00377727
-0.0044491
0.000935827
-0.000263995
0.000922074
0.00367383
-0.00655603
0.00196012
2.37609e-05
0.00322243
-0.00324619
0.00206172
-0.00526499
0.00412534
-0.00206483
0.00553852
0.00468469
-0.00815838
0.00144473
-0.00157785
-0.00722327
0.00735639
-0.00205381
0.00348138
-0.00715016
0.00572259
-0.00529084
0.00417222
0.00544991
-0.00433129
-0.00328133
0.00448532
-0.00289399
0.00168999
-0.000717772
0.00314812
0.000510311
-0.00294066
0.00152478
-0.00223028
0.00229501
-0.0015895
0.00301338
0.00112497
0.00100203
-0.00514038
0.008055
-0.00545652
-0.000349662
-0.00224881
-7.27572e-07
-0.00391892
0.00391965
0.00244655
-0.00362632
-0.0110489
0.0122287
-0.000526074
-0.00532251
-0.00160127
0.00744986
-0.000332034
-0.00248793
0.00281996
0.000758389
0.00357265
-0.000611474
-0.00371957
-0.00100336
-0.00362977
0.00292232
0.00171081
0.00293227
-0.00246491
-0.00431525
0.00702068
-0.00548503
0.00165044
0.0017587
-0.00340914
0.00554207
8.05479e-05
-0.000660372
-0.00496225
-0.0010822
-0.00184618
0.00292837
0.00192715
0.00128703
0.0107644
-0.0129272
-0.00454717
0.00670992
0.00164569
0.00354518
-0.00270296
-0.00248791
-0.00378821
0.00729706
0.00479599
-0.00830483
0.00450797
0.00156032
-0.000590918
-0.00547737
0.00706471
-0.00472822
0.00303372
-0.00537022
-0.00423716
0.00194111
-0.00544127
0.00773732
-0.00654658
0.0116404
-0.00454953
-0.000544309
-0.000213477
-0.00273233
-0.00377011
0.00671591
0.00531085
0.00219903
-0.00618211
-0.00132777
0.00299251
-0.00792369
0.00494403
-1.28546e-05
-0.00663341
-0.000258764
0.0043259
0.00256627
-0.00145681
0.00363968
0.00160501
-0.00378788
-0.00083305
0.00334033
0.00270175
-0.00520904
-0.00718343
0.00367757
-0.000317198
0.00382307
0.000602982
-0.00184808
0.00369823
-0.00245313
0.00303485
-0.00151719
0.00108254
-0.0026002
0.00318472
0.000693076
0.000306661
-0.00418445
-0.00414752
0.00446458
0.00165044
-0.00196749
-0.00102065
0.00532219
9.51199e-05
-0.00439666
0.00417845
-0.00242733
-0.00158495
-0.000166175
0.00370073
1.81855e-05
-0.00371892
0.00268682
0.00208245
-0.000472183
-0.00429708
0.00125483
0.00326574
0.00277221
-0.00729279
7.564e-05
-0.00613279
0.00605715
-0.00320373
0.0122702
-0.00180254
-0.00726399
-6.94973e-05
0.00439597
-0.00432647
-0.000296756
-0.00323968
0.000582155
0.00295428
-0.00585021
0.00302214
0.00227428
0.000553791
0.00121371
0.000942306
-0.00676699
0.00461097
0.00350307
0.00551965
-0.00205778
-0.00696494
0.00520825
-0.00170354
-0.00498826
0.00148354
-0.00669487
0.00389906
0.0105402
-0.00774444
-1.39122e-05
0.00263877
-0.0026443
1.94469e-05
-0.002713
0.00269113
2.18659e-05
-0.00673324
9.58344e-05
0.00284919
0.000763162
0.00160648
0.00443933
-0.00680897
0.00347242
-0.00414947
0.00269605
-0.002019
-0.00349329
0.0030465
-0.000103069
0.000549866
-0.000691643
-0.00571935
0.00727829
-0.000867291
-0.00258369
0.00123463
0.00408698
-0.00273792
0.00429058
-0.00165681
0.000622696
-0.00325646
-0.00284199
-0.000487998
0.003317
1.2987e-05
-0.000511625
-1.7831e-05
0.00484589
-0.00431643
0.000564153
-0.000466383
0.00450277
-0.00460054
-0.00422624
0.00596809
-0.00635705
0.00461519
-2.00153e-05
-0.00516224
0.00518225
-0.00189454
0.0001641
0.00484818
-0.00311774
-0.00358652
0.0042008
-0.00573651
0.00512223
-0.0036919
0.000277868
0.00110373
-0.00163629
0.00471635
0.000248577
-0.00332864
-0.00123627
0.000171511
-0.0020971
-0.00179191
-0.00607552
0.00606578
0.00180165
-0.00274876
-0.000299346
-0.000746885
0.00379499
-0.00889784
0.00298992
0.000865261
0.00504265
-0.00290702
0.0067299
-0.00335289
-0.000469988
0.00198428
0.000823152
-0.0040437
0.00392611
0.00396318
-0.00788929
0.000593657
0.00868036
-0.00202344
-0.00725058
-0.000111179
-0.000162994
-0.00398611
0.00426028
-0.00406553
0.00668475
-0.00274463
0.000125414
0.00385589
-0.00240635
-0.00348218
0.00203265
0.00102565
-0.000136761
0.00125622
0.00617101
0.00172072
-0.0089075
0.00101576
-0.00486201
-0.000520759
0.00152969
0.00385307
0.00155206
-0.00176155
-0.00237273
0.00710436
-0.00480567
0.00380221
-0.0061009
-0.00080307
0.00465662
-0.008069
0.00421545
0.00279926
-0.003556
-0.000357058
0.0011138
-0.00312396
-0.00109284
-0.00010287
0.00431967
-0.00232579
-0.00217873
0.00450452
0.000546524
-0.00609634
0.00541044
0.00013938
0.00237627
-0.00231223
-0.00238983
-0.00467756
0.00590378
-0.00108453
-0.000141696
0.0056389
0.00155794
-0.00604402
-0.00115282
-0.00234257
-0.00355666
-0.000449682
0.00634891
0.00372047
-0.00113642
0.00431845
-0.00690249
-0.00408192
-0.000144316
-0.00470089
0.00252216
0.000609665
-0.0053061
0.0016964
0.00300004
0.00160792
-0.00582312
0.00317308
0.00104212
0.00108008
0.000185665
-0.00517115
0.0039054
0.0006406
0.00274362
-0.000187564
0.00486908
-0.000964199
-0.00371732
-0.00191111
-0.000192077
-0.00177684
0.00388003
-0.00113359
-0.00152246
0.00291021
-0.000254162
-0.00430343
-7.57279e-05
-0.00729204
0.00262676
0.00383223
0.0104862
-0.000123009
0.00145878
-0.0118219
-0.00502096
0.00760731
0.00160547
-0.00419183
-0.00135804
0.000701002
0.00442201
-0.00376498
0.000544482
0.00153805
-0.00119214
-0.000890398
-0.00794361
-0.00164312
0.00684584
0.00274089
0.000177241
0.00345458
-0.000699545
0.000128086
0.00169932
-0.00534842
0.00352102
-0.00323148
-8.7643e-06
0.00119363
0.00204662
-0.00462141
0.00571155
-0.000912894
0.00260286
-0.00233674
-0.000266127
-0.00386709
0.000476455
-0.00296487
0.0063555
-0.00173299
0.00261237
-0.0020197
0.00114031
-0.00375087
0.00422689
-0.00174628
0.00127026
0.00163951
-0.00028961
-0.00377377
0.00242387
-0.00167753
0.0105213
-0.0141355
-0.00145535
-0.00101479
0.000993102
0.00147704
0.00490455
-0.00760502
-0.000346739
0.00304721
-0.00201011
0.00149827
0.00259152
-0.00207969
-0.000621078
0.00320768
-0.000889204
-0.0016974
-0.00358248
0.00079296
0.00084307
0.00194646
-0.00208003
0.000176022
0.00190401
0.00461963
-0.00219392
-0.00234993
-7.5774e-05
0.000362289
0.00239981
-0.00365149
0.000889393
-0.0024708
-0.00298062
0.00304298
0.00240843
-0.00146406
0.00369538
-0.00311926
0.000887943
0.00119612
-0.00225778
0.0015528
-0.000491139
0.00465676
1.46802e-05
-0.00467144
0.00370618
-0.00456605
0.00225969
-0.00139983
-0.00592412
-0.000101906
0.00602602
0.00238922
-0.00198741
0.000475354
-0.000877168
-0.000111661
0.00465032
-0.00516444
0.000625787
-0.00208166
0.00260725
0.000670533
-0.00241694
0.00514029
0.00477014
-0.0039694
0.00388609
8.33075e-05
-8.18658e-09
-0.00621148
0.00621149
0.00843419
0.000997894
-0.00175149
-0.00768059
0.00179925
-0.00686713
-0.000871604
0.00593949
0.00130306
0.00156694
0.000918814
-0.00378881
-0.00231961
-0.00229673
4.35399e-06
0.00461198
-0.00112739
0.00152666
-0.00271888
-0.00515261
0.000941716
0.00675855
-0.00254765
-0.0102518
0.00750718
0.00330555
-0.000560937
0.00446285
-3.67573e-05
-0.0044261
-0.00265729
-0.00359335
0.00231661
0.00393403
-0.00255982
-0.00369324
0.00110045
-0.00371878
0.0020201
0.00233928
0.00148452
-0.00197508
-0.00354532
0.00403588
-0.00251311
-4.53388e-06
0.00251764
-0.00578792
0.00238718
0.00237542
0.00102532
0.00149142
-0.00398175
-0.00122845
0.00503138
-0.00160065
-0.000116212
-0.00331452
-0.00337924
0.00563076
0.00325824
-0.00550976
-0.00105827
-0.00220614
0.000876124
0.00238829
-0.00142727
-0.00114971
0.00257698
-0.00251077
-0.00530945
-0.00243157
0.00122707
1.81708e-05
0.00246413
-0.00370937
0.00472846
-0.00340144
-0.00496571
0.00363869
-0.00177827
0.000648238
0.003539
-0.00240896
0.00337879
-0.00238299
-0.000327055
-0.000668746
-0.00386075
0.000640897
0.00301351
0.000206343
-0.00239583
0.00547737
-0.00598561
0.0023427
0.000167148
0.00347576
0.00594045
-0.00465571
-0.00373541
0.00245066
-0.00436097
0.000965279
0.00812415
-0.00431228
-0.00286069
0.00465092
0.00252205
-0.00050094
0.00451344
-0.00171888
-0.00229361
0.000280136
-0.00304237
-0.00198422
0.00474645
0.00514686
-0.00339862
-0.000204517
-0.00154373
0.0015705
0.00117279
-0.00387067
-0.00108949
0.00123328
0.00301543
-0.00315922
-0.000900122
0.00464576
-0.00576314
0.0020175
-0.00293383
0.000711559
0.000706958
0.00151531
-0.0066147
0.00661496
-2.58074e-07
0.00546511
-0.00539693
-6.8181e-05
0.00184945
-0.00705699
-0.00272527
0.00793282
0.0014987
0.00285014
0.000682546
-6.75573e-05
0.00251385
-0.00244629
0.0044286
0.00392375
-0.00835235
-0.00448587
0.00273721
0.00193617
-0.000187503
-0.00251804
0.000827621
0.00204666
-0.000356237
-0.00752835
0.00352484
0.00412936
-0.000125847
-0.00242179
-0.00270849
0.00261717
0.00454887
-0.00078089
-0.00283976
-0.000928219
-0.00413166
0.00447243
-0.0027366
0.000700424
-0.00460536
-0.000220819
0.00412575
-1.31252e-05
-0.00237408
0.0023872
0.0109721
9.70769e-05
0.00118653
-0.0122557
-0.000431536
-0.00088504
-0.00636587
0.00768245
0.00196407
-0.00266385
-0.00122846
0.00192824
0.000782607
0.00586919
-0.00239142
-0.00426038
0.00636983
-0.00632922
6.71385e-05
-0.000107748
-0.00355678
-0.00319316
0.00500272
0.00174722
0.00206833
0.00151109
-0.00405988
0.000480467
1.50186e-05
0.00386161
-0.00393435
5.77267e-05
-0.00517788
0.00167593
0.00419385
-0.000691904
0.00405832
0.00245179
-0.00410422
-0.00240589
7.27656e-05
-0.00361453
0.00174546
-0.000910367
0.00553473
-0.00293922
-0.000382945
-0.000456069
0.00377823
-0.00508487
0.000180174
0.0049047
0.0071006
0.00318788
-0.00234457
-0.00794391
-0.00475008
7.89278e-05
0.00474392
-0.00042739
-0.00110623
-0.00282695
0.00436057
-0.000554109
-0.000591192
-0.00151494
0.00266025
0.00122281
-0.00620043
0.00468571
0.000291907
0.00464704
-0.000653497
-0.00455719
0.000563647
-0.00465451
0.000957017
0.000358599
0.00333889
-0.0017521
0.00116656
-0.00248035
0.00306589
0.000978351
0.000700076
-0.00583555
0.00415712
0.000170823
-0.00417541
-0.000232014
0.00423661
0.00396261
0.000587026
-0.000142851
-0.00440678
-0.00471741
0.00107653
0.0042498
-0.00339384
-0.00452474
0.00791858
0.00668956
-0.00339214
0.00145576
-0.00475318
0.000532731
0.00369803
-0.00226669
-0.00545756
0.00106536
0.00186941
0.00252279
0.00672971
-0.00690727
0.000177558
-0.00414815
-0.00140733
0.00290687
0.00264861
-0.00592457
-0.00454214
0.00307949
0.00738722
0.0053801
-0.00561162
-0.000691957
0.00092348
-0.000804526
0.00262415
-0.00207093
0.000251307
-0.00674289
0.00220698
0.00154639
0.00298952
-0.0100852
0.012378
0.00216839
-0.00446121
0.0045285
-0.00982011
-0.000438447
0.00573006
-0.00406513
0.00515049
-0.00946196
0.0083766
-0.00417351
0.00915866
0.000905961
-0.00589111
0.000356299
0.00427103
-0.00104823
-0.0035791
0.00650026
-0.00490377
-0.000125167
-0.00147133
-0.00114822
-0.00109939
0.00168732
0.000560291
-0.0030836
-0.00643707
0.00554101
0.00397966
-0.00438923
0.00583444
0.00505506
0.003755
-0.00275112
-0.00344458
0.0024407
0.00131935
-0.00171206
-0.00075307
0.00114579
0.00291805
-0.00289478
-0.00383553
0.00381226
-0.00118784
0.00339922
-0.00024537
-0.00196601
-0.00456618
-0.000822733
0.00574521
-0.00355448
-0.000878895
0.00439298
4.03895e-05
0.0015207
-0.00339338
0.00187268
0.00118892
-0.00153389
0.00572624
-0.00538127
0.00487195
-0.00686749
0.00101616
0.000979385
0.00296507
-0.00320977
0.000244697
-0.00446322
7.39919e-05
0.00403898
-0.00155919
-0.00390831
0.00142853
0.00127836
0.00101563
0.00444458
-0.00673857
0.0029003
-0.00315911
0.000258808
-3.51613e-05
0.00351416
-0.00397463
0.000495634
-0.00489631
-0.000429256
0.00651449
-0.00213968
-0.000359193
0.000491605
0.00200727
0.000298316
-0.0024346
0.0018052
0.000331076
0.00402377
-0.00385597
-0.000972328
0.000483905
0.00689104
-0.00435149
-0.00302345
-0.00234014
0.00489766
-0.00255752
-0.00622539
0.00236033
-0.00139468
0.00525975
0.00486886
-0.00440265
-0.0072091
-0.00248627
-0.00295958
0.0101852
-0.00473938
-0.00709632
0.00446032
0.00647506
-0.00383906
-3.92148e-05
-0.00622354
0.00626275
0.00943433
4.28898e-06
-0.00545125
-0.00398737
0.00544289
-0.00350904
-0.000547122
-0.00138672
-0.00402367
0.00286571
-0.000710873
0.00186883
1.86136e-05
-0.00460942
0.00459081
-0.00298618
0.0030777
-9.15124e-05
-0.00218444
-0.00224074
-0.00574958
0.0101748
-0.00549936
0.00117793
-0.000593484
0.00491492
0.00133363
0.00218421
0.0060235
-0.00544588
-0.00448087
0.00390325
-0.00151191
-0.00320049
0.00353786
0.00117453
-0.00323793
-0.00162898
0.00486623
6.7936e-07
0.00116672
-0.000664398
-0.00325461
0.00275229
0.00355648
0.00018732
-0.00454789
0.000804092
0.00107708
-0.000758527
0.00125066
-0.00150716
0.00149392
-0.00123742
0.0029379
0.00282504
-0.00291818
-0.00284475
0.00160133
0.00400905
-0.00409952
-0.00151086
0.00309233
0.00134918
-0.00245724
0.00378129
-0.00454976
0.000955784
-0.00522839
0.00365075
0.00199344
-0.000415796
0.00609679
-0.00202244
-0.00641448
-0.00162012
0.00431604
0.00217293
0.00415351
-0.00200119
-0.00363101
-0.00103038
-0.000567007
-0.00559964
0.00522014
0.000468575
-8.90802e-05
-0.000294225
0.00705779
-0.000713573
-0.00604999
-0.00461943
0.000944334
0.00205498
-0.000747033
-0.00465947
0.00131542
0.00409109
0.00419563
0.000567348
-2.31306e-05
-0.00473985
-0.00667692
6.3947e-05
-4.90179e-05
0.00666199
-0.00168279
0.00181781
-0.00302834
0.00289333
-0.00438493
0.00545043
-0.000490115
-0.00057539
0.00571124
-0.00529556
-0.00480061
-0.00420344
0.00378037
-0.00119341
0.00161648
0.00339932
-0.000151197
-0.00106773
-0.00218039
-0.00649965
0.00625458
0.003082
-0.00283693
0.00316654
0.00120131
-0.000401118
-0.00396673
0.0010754
0.00275784
-0.00345407
-0.000379175
-0.0020388
0.00205694
-1.81321e-05
-0.00119734
-0.00306413
0.00307363
0.00541646
-0.00539228
-2.41825e-05
-0.00261079
-0.00210098
0.00204791
-0.00021801
-0.00330245
-0.000412022
0.00393248
-0.000363891
-0.00283313
0.00250682
0.000690201
0.00428095
-0.00485975
0.000578799
-0.00547317
0.00554301
0.00513273
-0.00520257
-0.00366055
0.00282369
-0.00190611
0.00274297
-0.00153893
0.000658293
0.00139065
-0.000510015
-0.000115802
0.00660219
-0.000101942
-0.00638445
-0.00351631
0.00170293
0.00173326
0.00201358
0.00255748
-0.00445856
-0.000112504
0.000194666
-0.00557618
-0.000223884
-0.00465191
0.00469103
-3.91165e-05
-0.00374859
0.00191783
-0.00409382
0.00109126
-0.00244347
0.000123756
0.00220138
0.000959324
0.00318413
6.20274e-05
-0.00272146
-0.000524697
0.00267428
-0.00665774
0.00533658
-0.00135312
0.00111102
-0.00151721
0.00551552
-0.00510934
0.0068547
0.00200753
-0.00105478
-0.00780746
-0.00175349
-0.00287185
-0.000931148
0.00555649
0.00205157
0.00846552
-0.00760254
-0.00291455
0.00100332
0.00639299
-0.00620061
-0.0011957
-0.0021571
0.000284393
0.00442049
-0.00254779
-0.000765306
0.00605551
-0.00323864
0.00477943
-0.0038042
-0.00145288
0.000477656
0.00146005
0.0038034
-0.00526345
0.00355051
0.000781816
-0.000465597
-0.00386673
-0.0032594
0.0026124
0.000255438
0.000391564
-0.000290835
-0.00472066
0.00027976
0.00473174
-0.00340127
-0.000429523