/*--------------------------------*- C++ -*----------------------------------*\
  =========                 |
  \\      /  F ield         | OpenFOAM: The Open Source CFD Toolbox
   \\    /   O peration     | Website:  https://openfoam.org
    \\  /    A nd           | Version:  10
     \\/     M anipulation  |
\*---------------------------------------------------------------------------*/
FoamFile
{
    format      ascii;
    class       volScalarField;
    location    "1.5";
    object      SgT;
}
// * * * * * * * * * * * * * * * * * * * * * * * * * * * * * * * * * * * * * //

dimensions      [1 -1 -3 -1 0 0 0];

internalField   nonuniform List<scalar> 
111485
(
1.0139e-06
1.06426e-15
3.62071e-15
2.2518e-05
1.3767e-14
9.2345e-15
3.53573e-16
1.00897e-15
2.31811e-16
3.811e-16
2.04163e-16
8.65243e-15
4.86673e-16
1.67206e-16
3.42512e-16
1.93433e-15
1.25053e-15
4.95878e-13
6.87243e-16
2.03702e-07
1.88165e-09
1.70367e-14
1.16315e-15
4.44494e-15
1.04932e-14
1.70636e-14
1.43388e-14
2.46192e-15
8.47243e-16
4.79117e-12
8.10407e-15
3.22e-15
9.31839e-05
2.98611e-15
2.05383e-14
1.15372e-15
1.3926e-15
3.56493e-15
1.08535e-14
7.70392e-15
1.02965e-16
7.24285e-17
5.50312e-15
2.55887e-15
5.32088e-14
9.91244e-16
1.60899e-15
7.3681e-16
4.526e-16
5.45486e-15
7.10079e-15
1.73684e-15
5.2273e-15
1.74156e-15
7.41587e-15
2.36265e-15
1.62811e-15
1.26009e-15
3.38955e-15
1.04247e-14
7.57283e-15
5.22351e-06
6.81796e-16
1.34787e-14
1.62498e-15
1.04013e-15
1.18357e-14
1.03959e-14
1.00328e-15
1.75639e-15
7.11702e-15
1.43712e-16
2.22994e-14
2.16395e-15
7.04051e-16
4.8997e-16
4.74412e-14
2.50016e-15
2.20573e-14
6.18426e-14
6.41278e-15
3.29383e-15
4.83699e-14
3.64749e-15
1.201e-16
2.65464e-15
2.79995e-14
1.54087e-14
6.30423e-14
1.56621e-15
7.6754e-14
1.54053e-14
2.16275e-16
5.46434e-16
1.85747e-15
7.68181e-15
7.48081e-08
5.73203e-15
4.45918e-14
8.98471e-14
6.71598e-05
8.57475e-16
7.27275e-17
2.84109e-14
1.35134e-16
1.48285e-15
8.04334e-16
8.20294e-15
3.75726e-15
1.01432e-13
4.36944e-14
4.57606e-16
5.04802e-15
2.01564e-15
2.80628e-14
8.90748e-16
2.5343e-14
6.98596e-16
1.99968e-15
2.60009e-06
1.17481e-14
4.72394e-15
3.95485e-14
6.8033e-18
1.14133e-14
5.4807e-15
8.72059e-16
8.22874e-16
1.81483e-15
4.50971e-14
2.51816e-14
8.70311e-15
8.50506e-16
1.20061e-14
4.16616e-15
7.60937e-15
4.82131e-14
8.14444e-15
1.96677e-16
1.1357e-15
1.13454e-15
2.32545e-15
6.73708e-15
5.36797e-16
1.87635e-14
5.02887e-16
1.03342e-13
1.13764e-13
1.41873e-14
2.62024e-16
8.3466e-16
9.00656e-09
2.50744e-16
1.652e-14
2.90641e-13
1.15248e-14
3.47905e-15
2.51135e-14
8.50876e-14
1.6644e-15
1.30598e-05
4.01963e-15
2.47578e-14
6.66626e-15
3.88774e-14
5.55986e-15
9.98881e-14
1.12215e-15
8.81082e-15
9.65862e-15
3.51945e-16
2.26692e-12
1.66683e-14
1.20917e-14
3.25508e-15
6.3473e-15
1.88773e-15
1.97658e-14
1.41747e-14
1.60916e-14
6.07449e-16
3.99018e-06
1.22915e-16
1.39262e-15
6.69126e-16
8.65867e-15
7.89319e-15
6.41778e-15
3.6163e-15
4.37787e-05
7.20926e-16
2.31631e-15
3.47118e-09
1.22382e-14
1.46535e-15
4.3623e-16
7.13028e-16
3.0807e-15
1.19608e-15
6.17774e-15
9.18646e-16
3.25265e-15
2.42152e-14
1.99099e-16
4.6175e-16
6.55362e-16
4.99748e-16
1.47978e-14
4.62623e-14
1.58037e-14
1.12064e-15
1.8712e-15
1.74164e-15
1.15611e-09
2.32759e-15
2.18016e-14
5.90246e-15
1.14332e-14
4.07734e-15
2.92276e-15
8.00449e-15
1.74375e-16
2.77195e-16
6.31011e-15
1.89536e-14
3.56397e-14
1.07121e-15
7.82251e-15
2.32021e-14
3.73305e-16
3.82861e-14
9.22686e-16
2.42262e-14
2.4986e-15
3.04793e-16
2.14634e-13
5.29222e-16
4.24993e-15
4.06162e-17
8.17925e-15
8.45813e-15
5.9391e-15
6.52301e-16
3.93922e-15
3.0777e-14
6.25481e-16
1.38356e-14
3.29302e-14
2.79528e-15
3.55627e-15
1.87266e-16
1.87459e-14
7.17696e-15
8.3251e-15
5.62561e-15
4.85591e-15
7.70153e-15
6.30961e-15
4.65013e-15
3.34964e-14
2.91388e-15
2.20081e-15
5.04723e-15
1.03837e-15
1.76365e-15
5.10304e-05
2.92074e-06
1.07606e-15
3.36819e-15
4.42558e-15
1.50792e-15
1.94568e-15
5.25212e-17
2.74104e-16
1.97291e-15
2.59049e-14
2.57852e-14
6.90046e-15
5.6102e-15
5.58408e-12
8.46218e-15
5.65458e-16
2.41993e-15
1.97836e-14
5.02116e-06
1.41606e-16
3.69637e-15
9.09009e-17
2.29e-15
5.2034e-14
1.02599e-16
6.95162e-16
2.40686e-14
2.89228e-16
4.48657e-15
2.43695e-14
5.55697e-14
1.17107e-14
4.13369e-14
1.50035e-16
3.52941e-15
3.44217e-16
1.99339e-15
1.10786e-14
2.28541e-14
3.05848e-09
2.73104e-08
4.80697e-15
1.22899e-15
3.58675e-16
1.23194e-15
5.64984e-16
1.96443e-14
1.11462e-15
9.94724e-16
1.25478e-15
4.79708e-16
1.10738e-15
2.57065e-16
2.84707e-15
7.90575e-15
4.20848e-14
3.25327e-06
3.28872e-06
2.43044e-14
8.00229e-16
2.24952e-16
5.10311e-17
1.51362e-15
1.16145e-15
2.55243e-15
1.2025e-13
1.88824e-15
2.09029e-15
3.67441e-15
9.90994e-15
7.27001e-15
5.59691e-15
9.18624e-15
3.08269e-15
3.09819e-16
2.99335e-14
8.46968e-14
1.98613e-14
2.99073e-15
7.52219e-15
7.50735e-16
2.1098e-14
8.83867e-14
1.72401e-14
8.12783e-16
1.12813e-14
4.27271e-14
9.85905e-15
4.00498e-16
2.64843e-15
1.3123e-14
2.42397e-05
2.8048e-15
2.42739e-15
2.98716e-16
1.36375e-14
2.57933e-15
3.44392e-15
4.02457e-16
3.22675e-06
2.84113e-14
1.57067e-14
9.44112e-14
1.47916e-15
2.90581e-17
7.46209e-16
9.37684e-17
1.66617e-14
2.08067e-16
1.46692e-14
3.52961e-16
2.43086e-15
3.70632e-15
2.03401e-15
1.78161e-16
8.64913e-16
2.43531e-14
2.0413e-15
4.93482e-15
4.3906e-14
4.65433e-15
3.9742e-14
1.93643e-15
8.26974e-15
5.97501e-14
1.54278e-14
2.68697e-15
9.13186e-16
3.06421e-16
2.77039e-15
1.63624e-15
1.96194e-13
2.12353e-15
3.42285e-16
3.9977e-15
4.02564e-16
1.9081e-14
2.24659e-09
2.18065e-06
4.11801e-15
3.40302e-15
1.77259e-14
1.18227e-14
4.85774e-15
0.000135033
3.87671e-15
3.29298e-14
9.93188e-05
1.46451e-16
4.2065e-14
1.12961e-15
3.87887e-15
8.70627e-15
2.11608e-15
5.25785e-15
8.22214e-15
7.17958e-15
5.03083e-14
2.69855e-15
3.12109e-14
2.40317e-16
8.66264e-15
1.5816e-15
2.27889e-12
3.60082e-15
1.57757e-15
6.96083e-16
1.24949e-14
1.15134e-14
9.28341e-15
3.0236e-17
6.12837e-16
7.0146e-15
2.397e-15
1.38868e-14
1.81727e-15
1.58178e-14
3.08792e-14
1.45001e-14
2.30749e-14
3.36103e-16
9.8909e-14
5.72037e-15
1.01958e-15
3.66406e-15
3.33025e-15
3.14333e-14
4.34246e-16
1.99266e-14
3.64041e-09
1.58584e-14
1.0197e-14
2.34517e-15
8.62392e-15
4.74184e-15
1.63548e-14
1.16171e-15
1.34144e-06
4.54364e-15
1.21092e-15
1.82853e-06
2.70489e-14
3.54157e-15
8.51749e-13
5.488e-08
6.86369e-15
9.05488e-07
3.72844e-15
2.18266e-15
1.64526e-16
4.74989e-15
1.15016e-15
2.85656e-09
9.45015e-15
4.80818e-15
6.54248e-14
6.87582e-15
2.65997e-16
1.1579e-14
6.06254e-15
5.66753e-14
9.00779e-16
3.27198e-15
3.90735e-16
2.49654e-06
3.35376e-16
1.26741e-16
4.6295e-16
4.16908e-16
2.35528e-14
8.7563e-17
7.02682e-15
3.62137e-15
1.66271e-14
4.22224e-15
1.10639e-11
2.42714e-15
6.71212e-14
1.0541e-15
5.63169e-15
4.44564e-15
3.71417e-14
1.05887e-14
4.23214e-15
2.11331e-14
5.8784e-16
3.20854e-14
3.00367e-11
3.78115e-16
7.25806e-16
2.12076e-15
1.06044e-15
5.55187e-15
1.82111e-16
9.08047e-15
4.63566e-16
3.84294e-15
5.89878e-16
6.05079e-15
4.12514e-14
4.15197e-15
4.28349e-14
2.51865e-15
2.01652e-06
3.31169e-15
3.46073e-16
3.91179e-16
3.21015e-15
1.18983e-14
3.49438e-14
2.11343e-14
7.56421e-15
2.68254e-16
6.64374e-16
1.0788e-14
4.47836e-17
3.22322e-15
9.36944e-11
8.1817e-16
4.29474e-09
2.53059e-15
5.33491e-14
2.232e-15
2.35525e-15
9.73864e-15
2.00131e-15
1.66984e-15
2.36168e-15
1.29125e-15
1.6182e-14
3.78299e-14
9.85578e-14
3.26407e-16
1.91352e-14
2.59513e-14
2.99103e-15
7.94963e-15
1.50109e-14
1.65823e-13
6.81331e-15
2.18718e-15
2.07421e-14
1.43923e-15
4.22637e-15
1.4019e-15
2.93552e-15
7.78582e-16
7.57773e-15
1.08235e-14
2.99656e-05
4.30137e-15
1.81067e-15
2.21479e-14
6.33931e-17
1.2204e-15
1.48502e-14
7.31388e-16
5.94872e-14
4.56019e-15
9.85825e-15
3.96723e-15
4.42921e-15
7.37504e-15
2.00254e-14
3.93826e-14
4.9923e-14
4.14407e-14
4.6264e-15
2.33563e-15
4.5862e-15
1.83995e-15
4.16958e-16
4.35773e-15
6.87074e-15
1.12609e-14
4.29503e-15
3.20911e-16
9.11085e-15
2.71261e-15
1.93696e-14
3.12556e-15
4.11853e-14
3.17952e-15
4.2455e-14
1.69526e-15
7.76081e-16
8.49031e-15
5.32928e-14
3.89854e-16
2.57213e-15
2.12452e-15
4.71251e-14
2.76064e-15
2.04289e-15
1.60736e-14
1.51186e-15
7.17689e-16
1.0104e-17
2.22655e-14
8.35767e-15
1.54072e-15
5.15492e-15
5.57917e-15
7.03743e-15
4.72777e-14
5.19754e-15
1.65252e-15
4.25143e-15
2.28677e-14
3.00659e-14
3.83207e-15
2.63959e-15
2.33433e-14
3.87487e-15
2.30202e-14
1.87552e-14
5.4972e-14
5.53094e-15
7.94897e-15
5.76745e-16
3.10458e-14
4.1008e-15
2.74857e-14
2.05266e-15
1.40376e-14
1.58231e-15
9.96693e-14
6.32485e-16
8.00018e-15
4.6355e-15
7.39054e-15
9.35433e-14
2.92969e-08
5.43046e-15
1.61403e-16
1.14021e-14
6.91443e-11
3.41191e-15
1.59411e-06
6.52575e-15
3.27216e-14
7.16049e-15
7.19813e-15
6.94616e-16
1.29029e-15
3.96955e-15
1.91442e-15
3.93318e-14
1.67602e-14
4.18892e-15
3.90433e-16
2.50733e-14
1.92138e-15
7.7096e-15
1.79613e-14
4.04205e-16
4.0966e-15
1.01103e-13
9.27876e-16
9.44163e-16
5.08695e-15
1.73847e-15
4.32687e-15
2.88121e-15
3.82533e-13
3.05839e-14
7.51595e-15
5.31774e-15
6.37816e-16
4.72791e-15
1.08884e-13
2.35138e-15
1.76267e-15
2.9236e-15
3.8977e-15
9.75829e-15
1.41197e-15
3.1653e-15
9.07471e-15
2.7075e-13
5.86992e-15
1.20128e-14
9.75586e-16
2.82279e-16
1.72107e-15
3.29786e-17
2.36528e-14
1.66966e-13
2.28761e-14
8.55619e-16
2.73797e-14
1.11981e-15
8.24643e-06
3.73108e-13
5.67185e-14
9.34194e-16
1.41063e-14
7.1079e-14
1.37076e-14
1.08183e-14
1.89297e-15
5.42001e-15
3.793e-15
7.767e-15
1.01287e-15
7.30784e-15
7.01361e-15
3.48857e-16
7.15707e-16
5.16933e-15
6.7024e-05
0.000127463
1.35299e-16
7.57454e-15
1.00016e-14
5.31218e-13
2.7306e-15
0.000148278
6.07046e-16
1.52521e-14
1.04475e-14
2.08277e-14
3.22546e-13
5.30918e-16
3.6711e-16
2.8271e-16
4.19757e-14
1.7467e-14
3.0892e-15
4.04173e-16
1.7179e-14
5.6731e-15
1.24062e-15
3.49497e-14
6.66879e-15
2.70016e-14
2.62255e-15
7.30831e-15
1.42233e-14
7.33496e-15
8.57378e-15
1.52998e-05
1.39154e-15
3.46546e-15
1.79385e-14
2.95559e-15
2.88522e-15
2.80335e-14
8.20653e-16
6.03155e-15
4.20729e-17
4.38945e-14
1.51257e-16
6.21316e-15
1.96483e-14
6.65425e-15
4.86168e-15
1.82682e-14
6.00686e-15
2.00893e-15
5.10985e-05
7.89957e-14
4.61531e-15
8.78109e-16
9.3652e-15
2.37577e-14
1.41305e-14
6.2555e-15
3.90552e-14
2.04242e-13
2.31858e-15
6.50475e-16
9.18977e-09
3.36241e-15
3.46424e-14
7.50284e-15
3.5114e-15
3.88363e-16
1.77998e-15
1.72871e-16
4.32028e-15
9.1639e-16
8.1748e-16
4.0469e-16
7.52329e-16
9.21997e-15
1.44995e-14
6.4741e-15
1.34987e-13
2.8178e-15
1.91026e-14
3.65107e-14
8.45174e-15
4.3223e-16
1.50287e-15
2.21469e-15
6.02067e-14
2.35542e-14
1.51286e-15
1.86236e-15
5.70366e-15
2.13014e-15
2.72936e-15
2.60757e-13
5.42162e-16
9.70481e-16
5.92065e-16
1.87801e-14
7.08831e-15
2.72776e-15
2.03134e-13
1.13135e-15
3.72418e-15
2.50885e-17
4.5468e-14
1.01915e-14
5.08378e-14
5.68761e-14
1.33492e-15
2.62065e-16
1.12383e-14
9.40225e-14
1.4608e-14
2.94607e-14
5.84835e-15
1.28307e-13
8.73388e-14
6.2666e-15
1.92444e-14
7.89026e-14
2.42001e-14
5.11815e-15
1.03652e-14
7.18294e-17
2.57454e-15
6.05444e-15
4.10157e-14
1.28269e-14
2.21109e-14
1.72336e-15
9.95188e-14
1.04383e-14
4.44584e-15
1.63829e-06
2.66467e-14
7.63535e-15
3.82146e-15
4.3901e-16
2.50372e-15
3.16697e-14
1.44345e-15
1.65159e-14
7.34576e-15
8.67037e-15
4.09247e-14
7.10182e-15
4.73525e-15
2.98241e-14
2.30008e-16
2.7469e-15
3.23506e-15
3.40028e-15
8.01219e-15
1.22876e-14
3.07347e-16
4.12289e-15
9.24103e-16
5.56327e-15
3.61535e-14
4.36937e-15
8.74809e-14
3.55059e-15
2.11641e-15
4.39202e-05
1.8925e-14
9.34886e-14
2.75816e-14
1.75784e-05
3.73361e-16
1.2498e-14
3.59253e-15
5.36445e-15
4.18895e-15
3.1706e-16
3.09592e-14
9.74473e-15
6.15739e-15
1.35335e-15
3.45973e-14
8.38229e-15
4.16471e-15
1.03261e-14
3.30155e-15
7.77403e-15
8.25806e-15
1.7976e-14
5.13325e-15
7.3239e-15
1.02252e-14
3.38889e-15
1.37138e-14
3.68224e-16
7.81853e-16
1.93008e-14
2.56301e-15
5.83715e-16
7.03855e-14
2.83253e-14
7.98193e-14
6.88249e-15
1.08854e-14
1.05331e-15
2.10904e-14
7.93113e-15
5.21529e-14
2.3655e-14
1.95281e-15
8.54704e-05
2.16676e-15
1.23876e-14
3.03683e-13
7.94879e-15
3.91689e-14
1.28191e-14
3.00934e-14
3.02899e-15
5.75871e-06
4.68466e-15
3.52167e-14
2.66672e-15
3.7738e-15
1.49333e-14
1.07973e-14
3.42714e-14
2.4041e-14
9.82285e-15
1.2387e-14
3.51428e-15
3.02498e-15
2.49713e-15
2.21107e-14
4.29491e-14
1.23782e-14
7.4124e-15
5.30672e-15
5.56179e-17
1.89831e-15
5.3973e-15
2.07065e-14
4.00042e-15
7.36354e-15
4.35666e-14
8.8011e-14
8.57733e-14
5.9838e-14
6.18522e-15
1.62512e-15
3.00474e-14
1.09393e-15
4.9343e-14
9.64248e-16
2.38494e-15
1.31615e-15
2.49669e-15
1.0645e-14
6.2088e-15
5.29876e-15
3.87328e-16
1.15339e-15
7.25709e-06
1.20187e-14
3.58835e-14
3.59715e-08
6.46967e-16
7.00411e-15
1.38337e-15
8.28375e-15
5.65256e-05
5.69958e-14
4.98007e-15
5.61774e-15
7.36526e-15
1.71898e-13
2.74131e-14
1.54066e-14
2.55642e-15
1.70514e-16
7.93731e-14
3.16969e-15
7.18133e-15
7.84455e-15
1.19063e-15
6.01313e-15
8.57522e-15
9.84392e-16
2.43333e-16
1.29966e-15
7.33271e-15
7.54775e-16
1.88877e-14
0.000137688
1.97506e-15
4.54117e-14
5.54063e-15
1.52611e-13
3.58877e-08
3.17145e-15
4.33886e-14
4.83134e-15
3.04423e-16
8.53281e-16
2.00496e-15
3.54304e-14
1.80118e-14
2.4078e-13
1.69155e-15
4.10405e-13
2.60307e-15
5.62207e-16
1.36091e-14
1.75887e-14
3.22601e-14
1.01614e-15
4.4651e-16
3.27559e-14
5.06679e-16
1.26221e-13
1.70281e-15
8.44331e-15
1.38514e-14
5.94711e-15
1.08474e-14
1.00415e-15
8.84319e-16
5.08742e-15
7.84529e-16
3.88716e-14
9.1794e-15
3.18002e-16
3.8423e-15
1.63291e-14
8.88246e-15
1.01228e-14
4.42124e-15
6.40055e-16
9.8379e-16
1.94952e-15
1.13858e-16
6.53132e-15
2.80946e-15
3.82796e-15
5.5781e-14
3.13833e-15
5.51198e-14
3.94883e-14
3.5678e-15
8.41869e-14
1.20919e-15
4.31599e-15
6.99088e-16
3.70775e-15
6.90706e-14
2.0395e-14
3.43218e-14
3.00634e-16
5.28049e-15
6.17229e-06
5.4712e-16
2.97062e-14
1.1258e-16
1.34679e-15
1.78266e-14
2.47081e-14
1.59291e-14
3.60745e-16
4.14957e-14
1.10097e-15
4.67019e-15
7.79383e-14
2.41148e-15
6.28418e-14
3.41043e-15
5.10003e-14
4.73155e-14
9.32795e-15
4.66552e-15
3.03109e-15
3.50767e-14
2.18755e-14
4.01895e-15
6.21759e-14
1.52835e-15
5.11261e-16
4.89273e-14
5.12896e-16
5.05214e-14
4.83524e-14
9.30954e-15
2.96401e-14
2.28952e-13
3.28087e-16
7.54612e-15
1.22353e-15
1.13822e-14
5.44788e-14
4.91925e-14
6.15856e-15
2.76768e-15
1.14463e-13
3.47814e-15
3.45146e-14
2.05286e-13
2.3929e-14
8.6389e-15
6.26133e-15
6.07868e-15
6.22725e-16
1.22049e-13
8.42083e-16
1.95136e-15
3.10144e-16
4.67185e-16
8.84242e-14
2.17636e-15
9.8979e-15
6.91985e-16
1.96738e-14
1.06545e-14
3.94989e-16
1.90081e-15
2.20259e-14
1.51027e-14
6.71441e-15
2.26454e-16
1.91996e-15
1.9817e-14
9.3593e-15
2.76548e-14
5.62302e-15
2.56677e-15
1.21386e-14
5.46806e-15
1.73251e-14
1.248e-15
8.57909e-15
9.25089e-15
2.28135e-14
2.40356e-15
1.18536e-15
1.58876e-15
1.4615e-15
1.86802e-15
1.13052e-14
7.25933e-16
3.12453e-14
5.58004e-15
1.97396e-16
4.57564e-15
6.07974e-15
1.2164e-06
3.73389e-15
1.75736e-15
2.79173e-15
4.17254e-16
5.20492e-16
4.65487e-15
1.35589e-14
1.43747e-14
7.60546e-14
1.24795e-15
1.46041e-16
5.76402e-15
2.79629e-15
1.35033e-13
3.402e-16
1.58554e-13
3.01739e-15
1.38847e-14
7.00639e-15
4.70372e-15
1.0481e-15
2.19531e-15
2.5412e-16
9.90277e-15
2.32316e-15
1.39408e-14
3.70611e-16
8.65918e-15
2.80883e-14
3.47679e-14
4.64059e-15
7.32547e-16
3.8051e-15
2.26432e-15
7.99893e-15
9.40597e-16
7.14472e-14
3.49375e-16
3.70774e-15
1.13229e-14
1.15634e-13
1.13609e-15
4.33798e-14
2.86422e-14
1.5241e-15
5.585e-13
2.15686e-15
2.3144e-14
2.89539e-15
2.71581e-14
1.44624e-14
6.83608e-15
6.59161e-17
3.58662e-06
1.05038e-15
1.0119e-06
1.13322e-14
2.94255e-15
7.89065e-16
2.96997e-15
3.86714e-15
4.41459e-16
7.0972e-15
1.55715e-15
2.60327e-14
5.7498e-15
5.88123e-15
1.07611e-15
2.52489e-17
1.74718e-15
7.10004e-15
3.81232e-16
2.60414e-17
1.18829e-15
4.60336e-16
3.47034e-14
1.08439e-15
1.53749e-16
6.88216e-15
1.72596e-15
1.87002e-14
7.09892e-15
7.4234e-15
9.80523e-15
1.30998e-15
3.26248e-15
4.81442e-15
7.20929e-16
1.68052e-14
1.57603e-14
1.78319e-14
3.16585e-15
8.32712e-14
8.64626e-16
3.18204e-15
5.63122e-15
1.4408e-14
1.33344e-14
7.49278e-14
1.72012e-16
2.21207e-15
5.20153e-16
5.04977e-14
1.08981e-14
5.48734e-16
1.50658e-15
1.84735e-15
2.20673e-14
1.11347e-13
3.40581e-14
4.00233e-15
1.41158e-16
1.41058e-15
3.79652e-16
5.45226e-14
2.04961e-15
1.32577e-14
4.13115e-14
2.38204e-14
8.61276e-15
1.46004e-14
2.40435e-15
1.01424e-15
3.34126e-16
1.80134e-16
7.56331e-14
2.71158e-15
1.66538e-16
4.69827e-15
1.38454e-15
8.32627e-14
1.17575e-15
1.38677e-14
6.59112e-16
7.30859e-16
6.44512e-15
1.17094e-15
9.26181e-16
2.44351e-16
2.51365e-15
9.92567e-16
2.58816e-16
1.5212e-15
1.86987e-15
2.55003e-16
9.77709e-15
2.85733e-15
1.9606e-05
4.06016e-16
2.1581e-15
4.32986e-16
5.18491e-17
1.47552e-15
2.51638e-15
3.86803e-15
1.3354e-14
2.13735e-14
5.499e-15
5.25292e-14
9.20446e-16
1.83056e-14
7.26023e-16
1.14056e-14
3.11301e-15
3.66311e-15
3.7024e-16
9.89887e-15
1.34221e-14
2.09315e-14
3.7461e-15
1.18269e-14
9.72147e-14
1.01309e-16
7.97691e-16
1.45795e-15
2.24339e-15
2.11344e-14
1.1025e-15
1.67362e-14
1.1864e-15
8.8067e-15
6.87127e-16
5.90087e-16
1.26958e-14
1.03541e-14
7.56924e-14
2.04719e-14
3.80856e-16
3.40147e-14
4.49827e-15
9.25063e-16
5.61515e-16
3.91231e-15
2.00263e-15
4.72978e-14
6.30187e-05
5.96019e-15
1.42011e-14
1.80282e-14
4.63006e-15
3.13901e-15
1.76292e-15
1.7837e-15
1.39328e-14
7.4772e-16
1.03954e-14
5.4647e-14
2.31691e-16
1.07591e-15
1.68856e-14
1.07417e-13
7.88993e-15
1.22437e-17
4.67186e-14
5.12257e-14
1.12842e-06
1.7257e-14
1.28811e-14
4.88339e-14
1.47381e-16
4.82039e-15
9.34501e-16
2.14512e-15
1.01121e-15
3.43688e-15
2.54817e-15
1.77938e-15
1.37493e-16
2.34236e-13
2.53362e-15
1.38882e-06
7.27029e-15
5.84224e-15
1.48977e-15
1.20028e-13
3.49281e-15
2.67497e-14
1.57371e-15
3.59394e-16
5.54726e-05
6.99049e-15
1.22033e-16
6.78028e-16
5.42725e-15
1.37709e-15
2.87924e-15
5.00439e-15
6.05233e-16
1.1783e-16
1.76197e-15
5.67667e-15
6.14209e-16
8.15663e-16
6.86858e-15
1.77382e-15
4.07676e-16
6.60182e-15
1.00441e-15
9.28542e-16
1.1825e-16
6.33322e-16
1.06817e-15
1.02964e-15
3.36322e-15
1.91701e-13
2.33997e-14
2.44081e-15
9.47435e-14
1.60544e-15
2.0925e-15
1.23366e-14
1.31817e-16
9.78199e-15
1.48173e-14
8.24023e-15
2.34623e-14
9.41581e-17
1.73573e-13
9.90842e-15
6.79773e-15
2.56984e-14
1.05907e-14
1.96208e-14
7.78658e-15
4.99189e-16
5.09364e-14
7.97465e-15
2.74921e-14
3.23172e-16
7.63163e-16
1.37611e-07
3.71616e-16
2.23967e-15
1.6213e-15
4.12824e-14
5.13868e-16
1.71488e-13
2.74842e-15
1.65882e-16
1.02686e-06
4.42383e-14
5.05573e-16
2.26394e-12
1.41761e-14
3.90062e-16
6.38274e-14
2.33884e-14
3.88228e-15
2.93461e-15
1.50696e-15
1.56602e-15
1.93637e-14
1.35622e-15
3.21573e-15
4.25904e-15
6.30441e-16
1.97647e-14
6.95166e-16
1.48417e-15
2.97648e-15
1.15567e-14
2.18545e-14
1.16375e-15
2.96298e-16
5.74274e-06
8.66272e-15
4.62271e-14
8.04771e-05
6.48192e-16
1.91822e-15
3.91365e-14
2.18435e-16
3.58864e-15
1.10584e-06
1.52599e-15
4.41598e-16
9.02589e-15
1.03043e-15
2.35704e-14
1.13478e-15
7.28926e-15
2.25566e-16
8.39989e-15
1.81847e-14
4.16001e-14
9.56076e-15
3.95626e-15
6.87465e-15
7.11555e-16
1.11494e-14
7.50821e-16
3.91353e-15
1.45464e-15
2.25266e-15
1.34339e-15
1.66166e-15
2.02557e-15
2.1901e-15
8.78501e-16
2.56364e-15
5.0598e-16
3.40636e-15
4.64903e-14
1.34068e-15
5.0606e-15
7.58221e-15
8.71516e-16
5.4008e-07
2.54908e-14
5.92202e-15
2.92476e-15
2.24981e-15
8.33209e-15
2.48354e-15
1.71279e-13
2.3291e-15
9.45931e-15
1.39642e-15
1.43594e-15
7.54905e-15
5.43501e-15
1.10296e-15
3.12609e-16
1.18273e-15
1.0849e-15
5.12352e-15
5.02487e-14
2.74954e-15
4.64295e-16
5.87816e-15
3.94055e-15
2.34164e-14
4.2409e-14
8.87198e-15
2.64384e-15
1.53067e-14
2.68504e-09
4.68163e-16
8.99646e-09
7.46163e-14
2.55679e-16
1.4649e-14
3.05432e-05
1.75439e-06
9.34792e-16
8.14029e-05
6.4251e-15
1.66532e-16
1.93973e-14
2.66044e-15
2.74387e-16
4.93603e-15
5.10159e-15
7.26359e-15
2.37811e-14
5.01706e-15
7.66636e-15
7.3052e-05
1.56397e-15
8.79116e-16
1.61842e-14
7.02386e-13
8.35158e-16
3.32968e-15
2.95943e-06
2.96112e-14
1.65537e-14
2.29332e-16
3.95325e-14
4.10791e-16
5.6334e-15
3.05356e-15
5.72909e-06
1.45511e-14
2.95082e-15
3.26311e-08
1.38313e-14
1.49725e-11
1.63461e-07
4.1741e-15
1.56411e-14
1.50995e-14
2.22349e-15
6.4032e-15
3.03587e-14
6.0111e-15
3.96625e-15
1.50988e-14
1.25218e-14
1.07375e-14
5.3942e-15
3.4548e-14
4.08847e-15
5.93751e-07
7.61409e-15
4.32447e-14
3.36317e-15
3.17401e-15
1.10165e-15
2.10069e-15
5.90192e-15
1.49549e-15
3.53648e-14
2.1324e-17
6.35491e-16
5.25547e-16
1.25089e-15
3.34041e-09
4.00046e-15
5.14872e-15
6.97628e-15
1.37417e-14
4.11975e-15
2.48318e-15
1.80702e-16
3.98609e-15
6.56457e-15
1.51487e-14
5.15616e-15
1.1014e-14
6.59158e-11
3.67908e-16
7.08187e-15
4.7486e-14
3.82466e-15
2.09417e-15
1.71312e-15
2.67635e-15
1.94193e-15
6.51013e-14
1.05668e-14
2.33168e-14
5.26006e-15
1.17595e-14
3.91189e-14
5.04857e-15
1.15976e-14
3.33768e-14
1.41349e-13
7.17049e-15
1.20135e-14
2.00413e-14
1.43823e-06
3.22159e-15
3.40478e-15
7.18544e-15
6.07661e-14
2.19839e-15
1.85904e-14
4.07739e-15
2.4985e-15
1.43341e-14
1.48477e-15
1.53448e-15
1.77931e-14
2.2421e-14
5.66406e-15
1.06676e-15
1.68605e-14
3.66306e-14
6.71829e-15
4.51211e-15
5.49667e-15
3.44451e-14
2.03293e-14
3.28264e-15
3.95613e-14
9.50544e-08
8.42342e-16
2.77199e-16
1.06913e-14
2.57291e-11
1.52952e-14
2.19411e-13
5.81184e-16
3.79289e-16
1.76502e-15
5.06492e-15
5.75819e-15
1.08788e-14
9.80158e-16
5.36777e-15
2.41093e-15
6.51287e-16
4.26344e-16
2.29323e-16
2.82677e-14
1.13376e-12
1.02799e-16
1.53956e-14
3.55922e-15
1.54784e-14
8.81269e-16
1.68186e-15
2.95742e-14
2.84683e-14
8.97738e-15
4.02266e-16
2.0092e-15
7.44498e-15
6.58538e-15
1.81875e-15
3.0414e-14
8.61663e-15
9.50878e-15
4.43482e-15
9.08237e-15
4.26013e-16
2.53027e-16
1.71838e-15
7.3834e-16
9.23599e-16
3.39942e-07
2.74492e-15
2.21074e-15
7.13585e-15
1.04622e-13
1.80657e-14
2.49037e-15
2.73206e-15
7.48096e-16
2.40857e-09
9.82547e-15
1.74e-16
4.61328e-15
9.26622e-15
6.83016e-16
0.000105413
1.70836e-05
1.86325e-14
7.93194e-15
1.12105e-13
6.84911e-10
2.78098e-15
1.15993e-14
3.58467e-16
3.12245e-15
4.26709e-15
1.56059e-15
2.70332e-15
8.03315e-15
1.65278e-14
1.10238e-15
9.59055e-15
9.33932e-15
1.13203e-13
9.82974e-14
1.29408e-13
6.5113e-14
2.49476e-15
3.89313e-15
2.70883e-14
1.16148e-15
1.31833e-13
2.22398e-15
1.50911e-16
7.77071e-16
3.19885e-09
5.57422e-15
4.18839e-16
1.25093e-06
5.11795e-13
2.35051e-15
1.74503e-15
2.09812e-15
7.19964e-14
1.44679e-14
5.07594e-15
5.19658e-15
4.06432e-15
2.01723e-15
3.59992e-06
1.34113e-14
1.91988e-15
2.12468e-16
7.99017e-16
4.57273e-16
4.58473e-14
2.08565e-15
4.73103e-06
1.84662e-15
2.79327e-14
5.13191e-14
2.10112e-15
3.53704e-05
1.22642e-14
5.11713e-16
5.10999e-15
5.37599e-16
3.22481e-14
2.54688e-14
6.56969e-11
5.47647e-15
6.00504e-14
1.10859e-14
1.15591e-15
2.36282e-15
2.52451e-15
2.24931e-13
1.08502e-14
3.71297e-14
5.0195e-05
1.87632e-14
3.09715e-14
3.21081e-15
1.25321e-14
1.06804e-15
2.643e-14
7.83478e-11
1.90088e-13
4.34488e-15
3.8958e-15
1.40699e-15
1.13705e-14
3.05692e-16
1.80178e-06
1.22399e-05
1.43911e-14
2.7107e-14
2.8879e-14
4.15389e-15
4.97559e-14
9.53683e-15
9.11601e-15
1.90104e-16
3.64254e-15
0.00010777
4.65871e-05
2.86825e-14
9.8169e-15
1.37992e-14
2.06898e-08
2.42238e-15
2.98943e-14
2.34882e-14
4.68429e-14
2.11066e-14
2.19194e-14
1.04995e-14
8.78605e-15
2.34577e-15
3.42466e-15
4.50614e-15
7.96777e-15
1.32299e-05
4.51951e-15
7.07271e-05
6.09024e-15
3.04303e-15
3.14274e-16
2.84545e-15
2.27239e-12
5.73514e-05
5.71671e-12
4.26246e-15
4.0649e-15
2.82742e-15
2.96298e-14
6.40786e-15
3.61481e-05
2.46572e-16
8.55795e-15
1.81016e-14
3.23072e-15
1.84472e-14
4.67638e-14
7.89735e-15
3.2785e-15
4.02183e-05
8.14824e-16
1.08311e-16
4.00108e-15
5.70308e-15
1.23833e-15
1.51132e-05
6.32668e-17
2.14282e-16
2.24361e-14
5.41505e-15
3.1134e-14
5.9827e-16
1.00283e-14
1.40838e-14
5.86231e-14
6.45749e-14
8.42561e-15
2.76279e-10
6.96529e-14
4.3168e-15
3.49046e-06
8.51506e-15
1.18914e-15
2.50483e-14
5.96662e-14
2.85371e-15
4.25268e-15
8.64733e-07
5.79216e-13
1.15447e-14
5.08672e-15
1.15763e-14
4.21406e-14
1.39041e-06
1.335e-14
8.1771e-15
4.19956e-15
1.9316e-14
1.44374e-14
2.03878e-15
2.0399e-15
3.98075e-15
1.59482e-05
2.50809e-13
3.32165e-09
4.63592e-15
5.73573e-15
3.48343e-15
4.77787e-15
2.69921e-14
3.70456e-15
2.82199e-14
1.53845e-13
5.38947e-15
4.23529e-15
2.51394e-14
7.7924e-15
4.59083e-15
4.974e-15
3.11845e-14
3.43919e-14
1.1586e-14
1.3659e-16
5.00689e-17
1.08146e-14
1.92341e-15
1.99905e-15
2.40078e-14
4.0748e-05
3.45592e-15
2.66515e-15
1.99549e-14
3.68064e-07
3.52419e-14
8.67219e-16
1.05706e-14
3.93444e-15
4.521e-16
5.27145e-05
4.39442e-15
1.12694e-14
1.23892e-13
1.54393e-14
1.83815e-14
1.09148e-07
9.54149e-15
9.74786e-15
2.54858e-14
3.59517e-15
5.02924e-15
2.96033e-15
1.85771e-15
4.70981e-17
2.77165e-16
4.68249e-16
7.13287e-15
2.59679e-14
2.08169e-14
5.81199e-17
3.23611e-15
1.53121e-13
5.9842e-15
1.92837e-15
4.14985e-16
1.35827e-15
1.12777e-14
4.74489e-17
1.65475e-14
4.30546e-14
1.93433e-14
2.08564e-15
1.08166e-13
3.33705e-14
1.07876e-14
7.93072e-15
3.09087e-14
4.99199e-16
5.2783e-15
9.68504e-15
6.93003e-15
3.11592e-15
2.42976e-14
8.54071e-15
2.86733e-15
2.47405e-13
2.64174e-15
1.27508e-16
1.45435e-14
5.53309e-14
3.4435e-14
9.41235e-16
4.23932e-15
2.2249e-15
3.07657e-13
5.97418e-16
2.62396e-06
1.50082e-15
2.55629e-14
2.65444e-14
4.88782e-14
3.42093e-14
9.94295e-17
1.5937e-07
7.12721e-16
3.19941e-06
6.03463e-10
2.09209e-14
3.94504e-15
8.94194e-14
4.07712e-14
1.06096e-14
1.70109e-14
6.65395e-16
8.6213e-15
5.17247e-13
3.46372e-14
6.8219e-15
3.04156e-14
3.04872e-15
9.1552e-15
9.53302e-15
1.18768e-14
3.88846e-14
1.52934e-16
8.95382e-15
2.49861e-14
1.81562e-14
5.26692e-14
0.00010345
3.74033e-16
1.39415e-14
2.15431e-16
5.68508e-16
1.67871e-14
2.00369e-14
3.99314e-15
1.2373e-14
1.0403e-15
1.75872e-15
4.14942e-14
3.85288e-15
1.70568e-15
8.85741e-16
3.85707e-15
1.06824e-14
4.46128e-06
1.26265e-14
1.11789e-15
8.43132e-15
6.78686e-15
3.90278e-15
2.56972e-15
1.19308e-15
1.1006e-15
2.21792e-14
2.91253e-15
4.33271e-15
3.94029e-15
3.8013e-15
2.4787e-16
1.14736e-15
1.58267e-15
7.18154e-15
2.08711e-14
8.78739e-16
7.67249e-07
5.01947e-15
5.16702e-14
1.18558e-14
1.65242e-15
1.24522e-15
5.63063e-15
3.11185e-14
4.59693e-15
2.11915e-15
4.11825e-14
4.73696e-15
8.35419e-15
2.50295e-06
1.14354e-13
2.59575e-14
4.8654e-15
4.96624e-16
4.6898e-15
1.09948e-13
1.35062e-13
2.00045e-14
5.19102e-15
3.21045e-06
4.41354e-15
6.33519e-06
2.6744e-15
7.67083e-16
1.34105e-14
3.93138e-14
2.54828e-14
3.50318e-15
4.13265e-14
4.51025e-18
9.54434e-15
1.32424e-14
2.76868e-14
1.90967e-15
3.84377e-06
3.75374e-15
4.78455e-15
1.81996e-15
1.42827e-14
1.38162e-14
4.51757e-15
5.38916e-14
4.82312e-14
1.55375e-14
1.35293e-14
3.35778e-15
1.29825e-14
2.01188e-14
3.41304e-14
2.8809e-14
1.28773e-05
2.86861e-15
1.95889e-14
4.55397e-15
9.88656e-14
4.11364e-15
6.83251e-09
1.35685e-15
1.787e-14
1.70598e-15
2.35039e-14
1.01863e-14
7.5382e-15
1.2544e-15
3.76632e-14
3.01019e-15
5.66466e-16
7.17832e-16
9.09307e-11
1.19987e-14
6.09364e-15
1.57127e-14
1.90544e-16
5.15694e-09
2.3569e-15
2.9626e-15
5.39532e-16
2.33997e-14
2.02563e-09
1.35005e-14
7.66791e-17
3.49784e-15
3.38072e-14
9.34795e-16
9.18418e-05
3.38061e-16
1.32932e-14
9.29293e-15
2.37845e-13
2.31739e-14
5.59387e-15
3.59998e-15
9.28621e-16
2.92562e-16
3.78887e-10
3.26505e-14
8.32988e-17
2.08182e-05
1.32034e-14
2.48419e-14
1.14172e-14
1.88153e-14
7.26392e-15
3.23692e-15
3.75908e-15
3.60475e-12
1.83696e-15
1.33794e-13
1.0849e-15
1.62307e-14
7.00624e-16
5.34074e-15
1.34274e-16
1.6401e-14
5.44837e-15
1.54652e-15
2.13051e-14
6.03837e-15
6.99625e-17
2.77936e-15
5.87811e-15
3.73167e-14
2.69401e-15
1.45383e-15
4.6946e-07
3.57212e-14
7.17236e-15
2.17103e-15
5.25124e-15
3.97782e-16
5.45175e-15
2.20145e-15
3.30047e-15
3.10083e-15
3.07403e-15
1.11302e-09
2.91813e-15
2.08272e-15
3.92393e-15
2.97366e-14
5.82755e-15
1.57095e-15
1.85129e-14
5.23825e-16
5.62572e-14
1.3425e-16
2.87739e-16
1.42031e-16
7.25351e-15
1.43207e-16
5.66847e-15
1.70901e-14
1.2972e-14
1.19138e-14
8.49159e-15
1.86348e-07
2.92739e-14
3.73014e-08
7.83578e-16
6.20116e-15
4.28178e-17
8.34934e-16
1.03849e-14
4.76435e-14
9.23682e-15
1.67394e-14
3.95174e-15
3.91847e-14
2.37505e-15
7.4773e-15
9.29472e-16
4.16631e-14
2.78839e-15
1.4628e-14
5.29814e-14
8.76632e-14
1.65385e-15
5.32636e-16
3.63845e-05
6.02404e-14
4.40796e-15
2.6787e-16
1.06849e-14
1.29894e-06
1.96491e-15
3.09569e-05
6.95325e-13
8.98095e-15
9.15929e-14
1.43429e-15
1.36765e-13
2.08215e-14
5.26195e-16
1.09215e-15
1.97873e-08
1.30556e-12
2.15905e-14
1.33569e-13
1.08402e-14
7.08653e-12
4.09057e-06
4.89091e-15
2.82621e-15
1.74878e-13
6.1459e-15
1.20803e-14
4.64828e-15
3.66847e-14
2.41898e-16
4.31991e-14
1.59745e-15
5.36278e-15
7.84254e-13
8.77209e-16
5.61439e-15
4.79087e-15
7.60725e-15
2.23712e-07
3.80473e-16
5.11685e-16
3.32249e-15
1.52229e-14
2.16168e-13
6.35821e-13
2.10573e-14
5.98945e-13
1.07153e-12
4.99809e-05
1.83464e-13
7.77169e-15
1.67146e-13
1.61856e-14
1.157e-13
7.40592e-15
1.6428e-07
9.3075e-14
9.4311e-15
4.05006e-10
6.56978e-15
5.90393e-16
1.68835e-14
8.05072e-16
0.000129341
1.55227e-15
6.81484e-15
3.85806e-06
3.94878e-14
1.48026e-14
7.45756e-15
1.41274e-09
7.27856e-14
1.6499e-16
6.05743e-14
1.55391e-14
2.58278e-13
3.15754e-10
2.86709e-10
1.18102e-07
5.79944e-13
5.0978e-14
4.26717e-14
3.37736e-15
1.76905e-15
7.75305e-15
8.0319e-16
4.29982e-14
4.5358e-15
5.90572e-16
3.32107e-14
4.16796e-14
6.97112e-16
5.8037e-16
1.43688e-14
1.97124e-15
9.74686e-16
7.07619e-15
8.62389e-14
1.78783e-15
1.19907e-15
7.55177e-15
4.34622e-14
2.27996e-14
6.84336e-05
4.75993e-15
2.18157e-14
6.76306e-16
1.4557e-15
8.23075e-15
3.54328e-15
4.79008e-15
1.80479e-05
1.09037e-15
1.03125e-14
3.42572e-15
5.76456e-15
2.42718e-14
2.10519e-14
3.98334e-14
1.58715e-15
9.39927e-16
3.53054e-14
1.7472e-15
4.13307e-06
6.37837e-08
4.19025e-15
1.9149e-15
2.3545e-16
2.69716e-13
1.44175e-14
6.68279e-16
9.58878e-15
1.11723e-14
5.6606e-15
2.50003e-05
1.82646e-14
2.01021e-14
1.21747e-14
1.24194e-15
1.10632e-14
1.32614e-15
6.97489e-15
1.25734e-15
5.17309e-10
1.31184e-14
2.83493e-14
2.346e-15
3.57665e-14
4.26387e-16
4.44552e-15
2.63127e-14
9.2007e-16
2.21713e-14
3.0185e-15
7.45881e-15
8.23871e-15
6.37689e-14
1.4791e-15
1.22607e-15
5.61291e-15
1.40939e-15
8.63727e-09
2.0473e-10
3.01294e-13
4.45134e-16