/*--------------------------------*- C++ -*----------------------------------*\
  =========                 |
  \\      /  F ield         | OpenFOAM: The Open Source CFD Toolbox
   \\    /   O peration     | Website:  https://openfoam.org
    \\  /    A nd           | Version:  10
     \\/     M anipulation  |
\*---------------------------------------------------------------------------*/
FoamFile
{
    format      ascii;
    class       volScalarField;
    location    "13";
    object      SgP;
}
// * * * * * * * * * * * * * * * * * * * * * * * * * * * * * * * * * * * * * //

dimensions      [1 -1 -3 -1 0 0 0];

internalField   nonuniform List<scalar> 
111485
(
6.8354e-10
0.000114838
2.7102e-05
6.84603e-11
8.19283e-06
3.07655e-08
1.47145e-05
2.33558e-07
1.04856e-05
2.77667e-06
2.47687e-05
8.7398e-07
6.66482e-06
0.289631
6.41641e-06
1.56743e-05
0.205139
0.00103053
8.84078e-07
4.76723e-08
0.0368296
2.24126e-09
3.10468e-06
1.09036e-05
4.08667e-05
3.33548e-08
5.90728e-07
1.39682e-05
1.05442e-06
0.0476532
3.94623e-06
4.91974e-07
2.18638e-07
1.41713e-06
0.000733356
8.93756e-05
0.13412
0.201797
0.00241997
8.43707e-07
0.0423958
1.19403e-06
2.83984e-06
0.000106555
1.85232e-05
1.57158e-06
6.31709e-06
4.26352e-07
6.07774e-06
4.20402e-07
1.09188e-06
1.68979e-05
4.60285e-07
9.10415e-06
1.48035e-06
2.01311e-07
2.66613e-06
4.16107e-08
4.80671e-05
3.88934e-07
5.53058e-07
2.6203e-07
8.30521e-05
6.71844e-06
6.4006e-06
2.08485e-05
0.000414585
2.28511e-06
6.95897e-05
0.00013709
4.86041e-05
8.47245e-05
1.10268e-05
8.97106e-05
4.2004e-08
1.87018e-06
1.55486e-08
6.95354e-07
2.6552e-08
3.08655e-05
0.275679
0.51635
4.30624e-08
5.11841e-09
1.55814e-05
3.68097e-05
0.1406
8.76392e-06
0.000242965
4.2032e-06
1.20541e-06
6.38222e-06
4.50406e-05
4.89173e-07
2.061e-06
6.59202e-09
0.0267856
1.12567e-05
0.00150603
0.000558203
1.24855e-09
2.71644e-06
1.91489e-06
1.42578e-05
5.93118e-06
1.61803e-05
6.4535e-09
2.78717e-07
1.4444e-05
0.00070792
4.0327e-05
1.34289e-06
1.30038e-05
7.25659e-05
1.02443e-07
1.72244e-07
3.02366e-08
6.40213e-06
2.22188e-05
3.7576e-09
9.00932e-08
0.000187194
0.0733138
2.20475e-06
5.67761e-05
0.0278523
0.00010561
1.27721e-05
2.50581e-10
0.000314996
0.000135163
1.66698e-05
0.0467169
0.000172547
7.72941e-05
7.92284e-07
1.18837e-09
2.82879e-07
9.27499e-06
2.39328e-05
6.95275e-05
3.46691e-07
0.176955
9.46888e-05
4.07849e-05
2.30379e-06
2.15497e-09
7.03534e-10
4.8241e-08
4.7923e-07
3.209e-05
0.0282556
0.113192
1.32246e-05
3.61376e-05
5.48201e-07
5.54789e-06
0.000148743
0.000804713
5.37467e-06
9.00327e-10
7.35081e-07
3.85942e-05
7.28826e-05
6.36466e-05
3.71953e-05
6.84622e-06
0.0263699
0.00152287
0.000128205
1.42101e-09
1.40711e-08
0.195229
1.49726e-10
2.62387e-07
2.66752e-06
5.31289e-07
9.38737e-06
3.4918e-08
5.72008e-06
9.66425e-06
3.7085e-08
2.62247e-06
4.95162e-07
2.23109e-06
2.02413e-05
9.76381e-06
5.38262e-05
0.000376258
1.67773e-07
5.24089e-05
5.59896e-06
7.06836e-06
3.65888e-05
4.89629e-06
1.17598e-05
2.07899e-06
1.31964e-06
8.42375e-07
8.13925e-06
2.81972e-06
0.00160817
7.93751e-05
9.03684e-07
1.80551e-06
3.96769e-06
1.20513e-05
1.15187e-05
1.75703e-05
2.7802e-06
5.34327e-06
9.66297e-06
8.5157e-06
7.45411e-09
6.77963e-05
0.000305975
4.08738e-07
7.60294e-09
1.15675e-05
1.71578e-05
8.66278e-07
8.31586e-08
1.55826e-05
1.6414e-05
0.00027411
7.2778e-09
7.09744e-10
3.08192e-05
0.0040776
2.31863e-05
9.15632e-05
1.35562e-05
2.23286e-06
0.143252
3.80631e-05
1.98788e-05
0.15797
4.69974e-08
5.89959e-05
2.12889e-05
2.61218e-05
3.18348e-05
4.65175e-06
3.83106e-06
0.00188547
1.16821e-06
7.63055e-06
9.3609e-09
5.12067e-06
0.133875
1.80796e-05
1.06081e-05
2.08576e-05
7.60507e-10
0.000189097
4.48016e-07
2.73236e-07
6.57138e-05
0.0982283
1.86876e-08
4.37814e-06
5.17768e-05
2.4404e-06
3.42553e-09
1.11982e-05
5.62315e-11
6.10177e-08
5.02583e-07
0.163053
4.2955e-06
3.12963e-05
1.32691e-06
0.174011
1.91561e-05
1.34767e-06
0.000244267
4.42153e-06
1.15515e-06
4.53048e-07
5.42126e-09
0.110658
4.24274e-07
3.95995e-05
1.97822e-05
1.65445e-09
0.213641
0.260895
1.52802e-06
0.000312835
3.33764e-05
3.14744e-06
8.73153e-06
1.19208e-05
2.31202e-08
6.94148e-06
2.68821e-09
0.000352707
0.000267305
1.30597e-05
1.64442e-06
0.339959
1.75733e-08
0.0837478
9.77551e-07
7.28685e-06
3.55738e-09
1.13477e-07
0.0243754
4.53484e-06
1.50092e-06
5.76699e-06
0.000165489
7.48798e-07
2.98835e-05
2.96132e-08
3.33785e-08
5.30323e-06
0.00432696
0.245454
3.31596e-06
0.000761762
1.26317e-09
8.79867e-09
1.34851e-08
8.36237e-05
5.35005e-07
5.66414e-07
2.11477e-06
9.00604e-07
7.0475e-05
0.0601816
5.37371e-06
1.16691e-07
1.86905e-06
2.21828e-06
0.0469695
4.92053e-05
7.2742e-07
7.15338e-07
7.99283e-07
1.34853e-05
6.53004e-08
0.148033
0.000165578
8.04479e-07
3.03017e-06
0.000297771
4.42813e-07
0.0380836
5.31145e-07
1.03919e-05
6.13567e-06
3.90511e-07
1.97058e-05
8.93603e-06
1.91415e-07
5.38338e-07
7.04291e-07
1.73324e-06
0.355219
2.89074e-05
1.76124e-07
0.0515686
1.60098e-05
1.77378e-08
4.05378e-07
3.79486e-07
0.0464892
0.000613319
0.045428
0.0483451
2.76797e-07
2.34688e-08
2.66757e-06
3.77987e-06
6.06941e-10
7.02345e-06
2.96121e-06
1.55689e-05
2.56678e-05
0.000136669
5.35247e-06
0.000688576
4.71986e-07
7.71944e-06
4.24442e-05
1.18624e-06
0.000656494
3.79623e-07
1.43944e-05
2.68638e-06
0.0295573
1.14153e-07
1.73473e-07
0.151802
4.60428e-06
0.300677
6.60069e-08
4.6237e-06
3.50646e-06
6.52408e-09
5.03722e-06
4.42384e-05
3.92194e-09
0.0317131
3.107e-06
2.79106e-06
4.44949e-07
2.4205e-08
0.000742558
3.97183e-09
9.753e-06
3.49858e-06
3.06233e-10
1.11421e-06
3.78399e-05
0.242
0.000132183
1.89696e-09
7.84361e-05
9.94137e-05
9.67475e-05
3.81935e-05
0.00061782
2.58528e-06
0.00110325
5.32402e-05
0.200797
0.000199681
4.47686e-08
6.99056e-06
1.02161e-06
2.01291e-07
0.00139815
0.000212562
8.22982e-05
1.4598e-06
1.45392e-06
9.40777e-06
3.46742e-08
0.344557
8.99464e-07
3.30258e-05
0.0043453
8.99275e-05
0.00126158
3.58296e-08
0.248928
0.325769
2.55182e-08
3.38778e-05
0.000259471
0.000101855
3.884e-09
2.94721e-05
3.93597e-09
0.279811
7.08952e-05
2.01677e-05
0.000103814
2.08462e-05
1.67851e-07
1.74305e-06
4.96528e-07
6.74387e-05
1.54499e-07
5.93757e-07
0.0518656
9.40347e-05
3.91605e-08
1.04809e-09
0.000377714
8.40139e-08
1.55215e-06
3.55655e-06
2.63678e-08
6.05208e-05
6.54498e-08
0.0733974
6.82229e-08
1.64415e-06
1.53266e-08
0.000230393
4.12972e-07
0.220163
1.90745e-05
0.23228
9.77332e-09
6.36616e-05
2.5123e-06
2.82693e-09
0.36262
0.140441
2.52735e-05
3.11938e-06
3.02639e-05
7.06088e-07
1.18976e-05
7.57549e-07
4.46621e-05
0.284111
2.22286e-08
2.31095e-06
0.000106855
1.72694e-05
0.0575112
5.31431e-06
0.000113294
2.38944e-06
1.36681e-06
0.000764766
0.0798124
1.71855e-05
2.1877e-08
1.2364e-06
3.29614e-06
3.48765e-06
1.11755e-06
1.93708e-05
1.86515e-09
0.0016829
1.62669e-07
3.37387e-07
1.80918e-07
8.98846e-05
2.48585e-09
9.7208e-06
2.74881e-08
8.79182e-06
7.4273e-10
0.114163
0.112601
1.8892e-05
1.13584e-06
0.0635454
0.0799534
4.79202e-08
2.46358e-07
1.50987e-05
4.33638e-08
0.000164896
1.75767e-05
1.04765e-05
0.0422135
1.59053e-06
2.77142e-09
4.60896e-05
3.88983e-05
6.15816e-05
1.67705e-06
1.49876e-05
1.04397e-05
1.05309e-06
9.50751e-07
2.05128e-05
3.30315e-05
2.10546e-09
0.124458
6.64925e-05
4.22715e-05
1.30913e-06
0.00117987
3.08916e-05
0.000453917
0.00294025
0.000378042
4.41928e-06
8.39438e-05
1.17601e-05
2.1266e-05
0.112768
0.000202411
7.30634e-05
0.00354372
0.075644
3.21112e-08
6.38975e-05
4.46182e-06
3.99588e-05
3.44992e-07
0.000507398
0.00271612
0.000433933
0.000164044
2.55128e-05
2.28199e-06
5.51239e-08
0.000195575
3.3878e-06
2.92717e-08
8.52797e-10
5.09323e-08
3.4523e-08
9.6215e-06
2.46044e-09
0.0343957
1.25006e-05
2.42642e-05
0.09756
0.313417
5.95072e-05
2.92952e-06
0.036777
5.41105e-08
1.83405e-05
1.61203e-07
2.14078e-08
4.70455e-05
2.29818e-05
0.118696
2.55123e-05
1.50919e-07
2.66601e-06
2.87921e-05
0.141092
6.87993e-06
2.68996e-05
6.82608e-05
0.193877
0.0404732
2.70561e-06
1.70132e-05
5.89683e-06
2.31865e-06
5.92143e-06
1.09716e-06
3.10498e-05
4.03802e-06
2.08785e-06
1.12683e-06
4.27587e-06
0.000651573
3.21649e-05
4.14552e-06
4.71441e-06
0.000650065
3.8261e-07
5.00165e-07
1.71296e-05
2.92415e-06
1.60496e-05
2.9561e-06
3.24224e-06
3.53061e-06
3.05871e-05
0.00019253
1.27226e-05
1.847e-05
2.99249e-06
4.71711e-07
4.30019e-05
4.41594e-06
4.08713e-09
0.0757542
1.51018e-08
0.134761
5.80421e-05
0.0116367
8.10901e-08
0.0287271
1.69305e-06
1.26617e-05
1.15037e-09
7.59539e-06
2.98167e-07
1.85672e-08
8.17566e-07
0.277407
0.000126029
2.92034e-05
0.0407633
9.96845e-08
2.35084e-09
3.85504e-06
1.8174e-06
8.23691e-05
5.59381e-07
0.000125994
6.1426e-08
7.21294e-06
0.000121463
0.16497
1.13114e-09
5.17409e-09
3.36693e-06
8.05071e-07
0.000130781
4.03486e-07
0.0614856
1.1463e-06
2.65084e-08
1.22615e-07
0.0444139
6.27875e-06
0.000135978
5.08634e-10
0.0049465
0.00101337
0.178701
1.65807e-08
1.97151e-08
3.59209e-06
2.26709e-05
3.89746e-05
0.00057363
0.000327523
0.000249635
4.71966e-06
0.0619371
2.57494e-05
8.12425e-07
6.47919e-08
1.18938e-06
1.20429e-08
9.33825e-09
7.42709e-08
8.0409e-10
3.4287e-06
6.76823e-08
1.7691e-08
3.35967e-07
2.25159e-07
1.59834e-06
1.04436e-07
5.71192e-07
2.48431e-07
1.45276e-05
1.62547e-05
2.56961e-08
6.82503e-09
2.14454e-05
6.89501e-10
8.74386e-05
1.98304e-06
4.95363e-06
1.12351e-07
3.13806e-10
9.80924e-10
1.64013e-09
1.50476e-05
1.88566e-08
6.4622e-08
2.05777e-05
5.4639e-09
1.34385e-05
8.14872e-05
2.3297e-06
1.66407e-06
0.000515279
4.48617e-06
0.247446
0.000107731
8.12778e-06
0.206108
8.10024e-05
5.79737e-06
2.77306e-05
9.14878e-07
2.01e-05
0.0877901
0.000690176
5.95091e-07
3.98466e-08
1.24355e-05
7.72272e-05
9.63956e-05
9.03871e-05
1.87585e-09
1.79898e-10
1.25389e-06
3.81179e-05
9.15089e-06
3.85644e-06
0.00019557
3.32603e-06
2.87091e-05
1.47926e-07
1.67545e-08
0.0326932
8.0453e-06
3.54863e-07
2.76203e-08
4.91329e-05
0.000129314
1.74608e-06
3.34387e-07
0.0402914
1.23135e-09
2.6425e-05
0.0623241
1.082e-08
0.0714143
4.24149e-05
0.0362318
0.00059464
9.07739e-08
2.36796e-05
2.14559e-05
0.0453975
5.56755e-05
0.00130054
0.158836
0.00013903
1.09158e-05
9.7127e-07
1.42562e-06
0.477732
0.159174
4.10391e-08
0.237023
1.34416e-05
0.000160146
2.42295e-05
2.15509e-05
0.00117969
3.77497e-05
1.35094e-05
6.81694e-06
1.35702e-07
1.71391e-06
0.0446046
8.38972e-08
5.34667e-05
2.69886e-05
9.51442e-08
3.79018e-06
0.213381
4.18447e-06
2.89449e-07
0.000623874
1.48001e-08
3.82517e-06
0.20852
2.13039e-08
0.174803
0.336297
0.00131301
1.72997e-05
1.06442e-06
3.5866e-06
6.03616e-05
0.000223808
0.0011662
0.000306415
4.19746e-06
0.044333
0.000108006
6.5062e-10
0.000299234
0.000288468
0.000602423
0.000460364
0.000853064
0.000169435
1.26417e-09
6.75697e-05
9.92723e-07
4.02936e-07
0.00164318
0.343262
1.7236e-07
2.99445e-08
0.00319272
0.00327606
2.81869e-09
0.00060054
8.44452e-08
1.5545e-08
1.32132e-08
4.43738e-07
4.93258e-06
1.64975e-07
7.57824e-05
0.0506911
1.71751e-09
5.27361e-07
0.00443676
0.114018
7.16937e-05
7.48557e-07
0.0318442
4.26161e-09
0.000130628
4.25319e-09
2.18502e-09
0.000565214
0.12763
2.47768e-06
5.12948e-09
6.91664e-08
0.0349082
1.77017e-08
0.0226245
4.68647e-08
0.00010166
6.04248e-09
0.0019432
3.06551e-06
2.59122e-09
7.48987e-07
5.55952e-07
0.00138894
6.17371e-07
2.38133e-08
2.04423e-06
0.00439595
0.0528981
7.08197e-05
0.000591982
0.00106379
4.36024e-08
0.00130338
1.00203e-05
3.53161e-07
3.32285e-06
0.000214721
2.18707e-05
1.22213e-07
9.26872e-06
0.000147746
9.73422e-08
1.30445e-06
7.03382e-07
1.59873e-05
0.0719036
1.14785e-09
8.40764e-07
0.0595427
0.000120027
7.59628e-05
5.95553e-09
8.07772e-07
2.14908e-08
1.10722e-06
2.6348e-05
5.17488e-05
5.4141e-07
2.96264e-05
2.70797e-05
8.09741e-05
1.63542e-05
8.83209e-09
3.74441e-06
1.65894e-09
4.92496e-07
6.41886e-05
0.000177159
2.95761e-08
4.9622e-07
4.12663e-06
3.26255e-10
4.69534e-05
4.43118e-07
7.08158e-05
0.000827932
7.33584e-05
1.2373e-08
0.00138238
0.000116988
6.22091e-05
0.000156098
4.67968e-08
0.00015894
2.68639e-06
0.115257
3.4069e-05
9.54131e-05
6.3381e-08
7.16182e-10
2.07856e-08
0.183465
0.0731325
4.38983e-05
8.51813e-10
0.000141643
2.87638e-08
0.170258
0.000154471
7.40627e-07
8.7793e-08
3.32796e-06
6.085e-07
8.75183e-05
2.0856e-06
0.00012075
0.307365
4.03089e-06
7.12526e-05
3.35295e-05
6.87271e-05
5.10898e-05
3.03855e-08
3.54262e-10
2.73388e-06
3.37434e-05
8.45804e-09
1.96865e-07
0.000606571
4.49793e-07
1.31713e-06
0.416996
1.76673e-06
6.65035e-05
4.0077e-10
3.16588e-06
2.61273e-07
0.326081
3.08167e-09
0.117374
0.0054862
0.000133707
1.70319e-05
1.51034e-05
0.000931515
2.53408e-06
3.31528e-06
2.25032e-06
9.35685e-07
5.86887e-08
1.83614e-06
8.40795e-05
2.33459e-06
0.0691137
2.72772e-07
4.36725e-06
0.000301775
2.21204e-09
0.000377857
8.6283e-08
3.87945e-05
0.000807034
6.69627e-08
1.98169e-06
6.77121e-05
5.45633e-07
8.97934e-06
0.179162
8.08875e-07
9.65061e-06
2.55528e-10
0.0455972
8.78556e-06
1.8814e-07
1.91019e-07
4.84372e-06
7.11968e-06
7.98023e-09
0.149765
1.48961e-06
1.81459e-09
0.000123401
4.01241e-07
2.68575e-09
4.47283e-05
0.000987831
0.000874441
8.54427e-09
1.09351e-06
4.52222e-08
4.75578e-05
4.98775e-05
0.0339956
6.25665e-06
0.00090908
6.69356e-05
0.00112971
3.04213e-05
3.44821e-06
1.05719e-06
4.73741e-07
4.87898e-05
2.05734e-06
7.16506e-06
0.0436227
0.00025095
0.0469249
6.60561e-10
7.61602e-06
1.19354e-07
6.22919e-05
9.98615e-05
1.13913e-05
4.79848e-05
0.000538669
0.000145997
1.61349e-09
0.00710301
0.00823102
8.63753e-05
4.59286e-05
7.58896e-07
0.000840424
1.67818e-06
2.82901e-06
1.35147e-07
6.19487e-09
0.000247702
9.64155e-06
0.000985526
6.21464e-07
0.0464301
0.000653177
7.12672e-07
1.28553e-07
0.000569077
2.85374e-06
0.0551904
0.276506
0.000129737
0.000231728
1.57443e-06
4.9771e-07
3.48733e-08
1.29401e-08
6.23256e-05
4.86358e-06
0.0341851
0.0546244
3.06457e-05
2.63045e-08
0.000316939
0.0408659
2.72542e-05
0.00113967
0.00254852
0.0431768
0.120198
0.0502257
0.00012258
1.46258e-09
0.00200543
6.55819e-07
1.45739e-07
1.86295e-07
8.07117e-09
2.79012e-05
3.48487e-09
2.37838e-09
9.02426e-05
4.93819e-08
5.92889e-09
9.4028e-07
5.56678e-07
0.0586814
6.2796e-06
3.0228e-05
0.0757577
0.258773
4.6972e-09
0.185319
0.000163568
0.384508
3.62506e-07
1.09823e-07
7.47095e-08
4.37246e-05
0.258421
1.71671e-09
0.0011561
7.16062e-08
3.75184e-06
1.61668e-05
7.55497e-06
1.10409e-06
2.33321e-07
0.0771214
1.09619e-08
6.81604e-06
1.07453e-07
8.17375e-07
1.64944e-06
0.000453646
0.000116348
1.13621e-06
0.000383758
2.11115e-05
4.14848e-07
0.000138759
7.39217e-07
2.39035e-05
1.41279e-07
1.34718e-07
0.25115
0.0435487
0.000398902
3.25948e-07
5.63369e-09
4.04048e-06
0.19175
2.73266e-07
1.1378e-05
5.81092e-07
2.82941e-06
1.85888e-09
0.0354957
0.000107405
7.20317e-07
5.69061e-07
1.73663e-05
7.55823e-09
0.177602
1.45348e-09
0.0401768
7.75062e-05
4.93637e-06
1.70676e-08
3.25483e-06
1.29858e-06
1.02718e-06
3.48132e-06
4.97011e-06
3.5342e-10
4.54291e-09
9.49058e-05
0.0799894
2.23675e-09
3.35111e-05
4.97603e-06
9.36202e-05
3.74784e-07
0.0480234
2.28207e-06
5.20611e-05
5.47617e-05
6.12049e-08
5.73676e-05
1.94511e-06
1.69183e-05
2.86505e-08
2.25902e-08
1.03527e-05
5.64153e-09
0.000175736
3.89493e-05
3.45929e-08
6.55379e-08
0.000131615
0.000541055
0.300921
1.16154e-07
4.98982e-06
1.82965e-06
0.000364059
0.000168932
2.64813e-05
8.3071e-05
0.0787528
3.3962e-06
5.41413e-05
0.000818582
0.0665357
7.42938e-07
4.63401e-08
0.00041531
3.04236e-06
0.0413463
1.92511e-07
6.97892e-06
3.54004e-06
1.90324e-08
0.227787
1.0169e-08
1.66471e-07
6.48364e-07
2.66928e-05
0.305751
0.0570851
4.53111e-07
2.26514e-08
1.21276e-09
1.10945e-07
1.05977e-07
6.40177e-07
1.17403e-07
5.11246e-09
6.91304e-08
1.06174e-08
1.82831e-07
0.062597
0.0371248
2.98001e-09
1.35955e-05
6.93548e-09
5.74112e-08
1.11891e-08
0.0363883
0.0815913
5.64679e-06
4.12054e-08
1.21722e-08
8.13225e-07
1.25716e-06
3.98152e-06
1.33424e-07
0.000330013
2.69636e-07
3.10694e-06
3.3468e-06
0.000188223
5.22954e-06
0.000789007
1.72442e-06
3.16454e-08
0.000483533
0.000456659
1.73493e-08
2.31502e-05
3.85395e-06
1.33623e-05
4.26412e-05
1.00861e-05
3.71048e-06
1.1204e-07
0.326126
4.89745e-07
3.88308e-05
0.0626307
0.000116225
1.20172e-05
1.41446e-05
1.57293e-06
2.1992e-06
2.20736e-05
6.54443e-05
5.50889e-05
3.36278e-06
4.3782e-05
7.48279e-06
3.79269e-06
2.15427e-06
5.40941e-09
6.17787e-08
4.35439e-08
6.03716e-10
1.76177e-07
3.29311e-08
7.21571e-06
1.97379e-08
3.93302e-09
1.71387e-07
1.7065e-05
9.47363e-09
9.23273e-09
8.04897e-07
1.10786e-06
9.03899e-07
8.72008e-05
6.29763e-06
0.243691
1.25343e-07
1.14594e-05
1.52888e-05
3.8715e-06
4.05078e-09
1.72413e-08
0.221137
5.52806e-07
4.80457e-09
2.35799e-06
0.222215
1.64088e-06
5.74098e-05
5.71953e-05
1.09095e-06
7.54212e-06
9.05681e-06
0.000380085
1.94237e-08
4.27021e-05
4.92026e-06
1.88167e-07
0.000321672
0.000391085
0.193823
6.70352e-06
1.36837e-06
7.2214e-06
3.68056e-05
1.54678e-05
2.03119e-07
0.00256732
1.21571e-08
0.000629101
0.000409896
0.0604783
9.79858e-06
0.254459
2.87423e-08
1.36012e-07
4.8391e-06
2.4765e-05
6.92911e-05
3.23992e-06
0.000112884
3.5073e-08
9.58128e-06
1.18723e-09
1.81355e-08
1.52037e-06
0.000478176
9.85039e-08
5.41712e-09
0.00041834
1.94228e-07
0.000538636
3.33296e-06
1.88103e-06
1.45473e-06
4.6189e-07
1.98354e-05
4.48197e-06
0.000202628
6.21154e-07
7.96809e-06
0.00327006
1.20666e-06
7.5038e-09
0.000154934
2.18957e-06
3.94269e-05
4.32787e-09
0.141726
0.000115358
7.02755e-05
1.73751e-06
7.4595e-09
0.000193161
4.54147e-06
2.29976e-07
9.2216e-10
6.41748e-05
7.09641e-05
7.89616e-05
0.192889
2.82032e-06
5.8141e-06
0.000243121
9.38571e-06
6.74438e-06
2.53504e-06
8.09738e-05
3.46576e-06
0.000117779
0.180566
1.45668e-05
3.60658e-10
1.60253e-06
5.10026e-05
1.49218e-05
2.49165e-07
0.000462837
0.000857441
0.000467916
0.000869777
1.67603e-05
5.1726e-05
6.89733e-06
1.97421e-05
1.09406e-07
1.10767e-08
0.100591
0.000503224
2.75972e-06
0.00163768
5.08579e-06
2.40664e-05
0.000425707
4.2214e-06
2.24456e-06
3.19263e-06
3.90007e-07
4.13464e-05
2.89336e-05
0.000147696
2.72928e-05
5.22562e-07
5.62186e-09
2.75313e-05
8.77814e-07
1.92108e-08
0.000310681
2.86396e-06
7.99726e-06
3.68174e-05
6.8822e-06
4.06604e-08
0.000582757
0.136403
4.91086e-08
6.17284e-09
2.11512e-08
0.142246
0.242763
4.16278e-07
0.0527912
5.35036e-06
1.95502e-05
7.92266e-06
8.06645e-06
1.13413e-05
1.3136e-05
2.89093e-05
0.115167
0.334707
0.385814
1.15466e-05
3.08088e-05
6.36801e-06
7.35559e-06
0.355287
1.33071e-08
0.172516
4.00638e-06
1.0839e-08
7.29512e-07
5.71957e-07
2.98029e-08
3.55142e-08
2.25396e-07
1.94441e-08
0.134707
4.6504e-08
2.79677e-05
0.000191095
2.19473e-08
4.61804e-06
7.23414e-06
6.06163e-06
6.57978e-08
0.000579113
6.32097e-06
8.40571e-07
6.81466e-05
4.23433e-06
2.96722e-05
4.48351e-06
1.19385e-06
4.94571e-07
1.97228e-05
0.00329007
4.68357e-05
8.98679e-07
1.32376e-05
8.29532e-07
2.4028e-05
9.76692e-05
1.1583e-05
2.17563e-06
5.28897e-06
1.13863e-06
5.71221e-05
1.18728e-07
8.00471e-06
0.0407968
0.000416283
0.32379
0.000754921
0.000106867
1.63472e-08
0.0609202
9.15342e-10
4.77305e-05
1.48487e-05
8.00829e-07
8.57319e-05
1.53935e-06
9.76608e-07
4.32333e-05
7.82906e-07
1.6911e-07
1.87106e-05
6.50857e-07
2.20685e-05
0.0769045
3.53732e-07
3.53734e-05
1.33203e-06
7.74615e-07
1.29135e-09
0.000255999
8.8946e-05
3.5747e-06
1.24681e-08
7.19029e-07
0.0439417
0.000206912
9.57315e-06
1.4711e-05
1.77383e-09
1.10721e-10
8.90306e-07
3.76746e-09
4.76942e-05
3.54119e-07
2.14749e-05
1.57423e-06
2.12782e-07
5.85329e-07
3.28436e-08
4.75739e-05
8.91088e-05
4.36902e-05
4.95677e-07
2.92661e-08
9.73468e-07
2.21482e-06
0.000529305
9.71438e-07
0.15932
2.09347e-05
2.84001e-08
4.04924e-08
0.000227203
1.24824e-05
0.00112324
4.96423e-07
9.69957e-05
0.230065
1.97077e-10
0.00032698
2.63909e-05
0.0420948
1.71325e-06
0.0470112
0.0822266
0.000117161
7.38063e-06
1.97748e-05
1.12137e-08
1.55041e-05
2.66039e-05
0.000370989
1.87471e-05
6.48141e-06
2.55721e-05
0.000420093
0.000339469
0.000493523
0.000127684
1.45748e-08
8.81688e-05
0.000872223
6.23124e-06
3.8233e-06
0.000241593
0.00020881
1.35603e-05
1.82014e-05
0.000258583
1.52564e-05
0.00037341
0.000240858
1.89843e-05
2.1608e-08
3.38099e-05
0.000410281
0.0661797
2.10523e-06
5.19842e-07
4.8329e-05
1.89917e-07
8.37006e-05
8.22385e-07
0.00038845
6.06689e-07
7.13785e-05
2.47803e-08
9.73582e-08
1.09012e-05
0.000906967
0.00118991
0.333479
4.00723e-05
1.97978e-06
1.83616e-07
0.000405024
2.3056e-05
0.0329344
0.0697022
7.28901e-10
0.000775785
6.09537e-05
6.6752e-06
5.72173e-09
0.00113227
5.64343e-07
0.0423128
4.9745e-08
2.89857e-09
2.9164e-05
9.11896e-07
1.31058e-06
3.78943e-05
0.0391431
1.98439e-05
2.14763e-07
7.90635e-05
0.215267
0.0420821
6.47781e-06
0.000276721
2.85662e-05
0.000557258
2.85081e-06
0.0370283
3.74509e-05
0.000181518
2.24286e-07
8.66246e-07
4.56588e-06
5.13972e-07
2.35012e-05
2.30141e-06
7.65058e-07
2.46906e-06
4.11494e-06
9.70523e-05
2.47168e-08
3.55786e-07
0.0784662
9.69245e-09
7.60432e-08
4.21257e-05
6.06047e-08
0.00017527
3.50705e-05
0.0641261
2.29264e-05
0.256229
1.23074e-05
2.063e-05
0.0395084
0.000153278
1.62824e-10
2.11141e-06
0.0276998
1.56617e-05
7.71865e-05
1.65369e-05
1.65895e-07
6.88748e-06
7.33638e-06
8.30069e-07
0.125012
1.07324e-06
1.01593e-07
1.69145e-06
6.68173e-07
1.52188e-08
8.56603e-05
2.46145e-06
0.268881
7.93745e-05
3.43355e-05
4.53244e-05
5.74602e-05
1.60868e-05
2.85679e-06
1.31137e-10
8.39152e-07
7.28823e-05
2.11837e-05
6.51145e-06
6.84756e-08
1.10519e-05
1.25376e-06
3.94017e-05
3.12799e-08
1.38438e-07
1.32342e-06
2.77245e-05
2.14337e-05
3.22279e-05
3.00586e-08
2.29001e-08
0.00164854
2.17236e-08
1.40033e-09
2.93822e-09
1.4031e-06
0.303114
7.59306e-07
0.000112961
6.81769e-05
2.00789e-05
1.67527e-07
1.19795e-06
0.000220072
7.19836e-06
3.55389e-07
3.69091e-05
3.86337e-09
2.34742e-09
3.85742e-09
9.53334e-05
1.09401e-07
0.32259
0.00051845
3.51553e-05
0.00181642
6.61659e-07
1.61396e-05
4.47064e-09
0.0586647
7.9044e-06
6.25471e-06
1.53756e-06
3.96037e-07
1.58741e-07
0.471799
1.67628e-05
0.00043037
6.48927e-05
1.31372e-06
0.120024
3.14489e-07
3.18581e-07
5.01527e-07
6.97788e-07
3.44687e-05
4.75025e-07
2.4038e-05
1.72986e-05
0.000492931
3.51702e-06
4.49484e-10
0.000186851
3.78306e-07
0.153952
3.3143e-06
2.35091e-07
1.24248e-06
1.88199e-05
0.0600162
0.0294429
1.8062e-05
4.71079e-05
0.0896121
3.40561e-06
2.50021e-05
0.0460774
1.21636e-05
5.72122e-06
0.169884
0.0184502
1.03844e-05
3.30991e-05
1.44756e-08
3.78427e-05
0.00168291
1.00867e-05
1.12248e-05
0.000372006
1.20543e-09
0.0228857
8.85819e-09
2.80861e-05
0.190888
1.19895e-07
1.17619e-05
4.83449e-06
3.74382e-07
4.25321e-08
4.77057e-05
4.15653e-07
1.08777e-07
3.0042e-05
9.58433e-06
1.32682e-08
0.0230389
0.0435799
4.73878e-06
3.09464e-10
2.18483e-09
0.000141686
1.37622e-05
5.25382e-06
4.28275e-09
9.29647e-08
0.000130466
6.81945e-05
4.65569e-05
8.16938e-05
0.356999
7.80641e-10
0.138237
1.66482e-05
6.95047e-06
0.0547211
1.0713e-06
2.12171e-08
0.0225713
8.37547e-10
6.67586e-06
6.04667e-06
8.12281e-06
1.09018e-06
9.3218e-09
4.16775e-09
1.61047e-08
2.02195e-05
0.131292
0.208514
3.0414e-05
2.47697e-06
1.64536e-10
0.0551674
0.221194
0.000275819
9.59738e-07
1.32724e-07
0.000953959
0.000240816
2.43329e-07
1.28159e-08
2.0691e-06
7.75229e-06
3.50251e-08
1.09577e-05
6.78747e-05
0.0593296
0.200684
5.36456e-05
0.000824527
9.50511e-09
3.63723e-07
3.17921e-05
0.000172242
3.29962e-05
0.000419263
7.40554e-06
1.41057e-05
7.33583e-09
8.60534e-08
1.25494e-05
0.0576416
1.07642e-06
0.174645
1.95951e-08
1.20107e-05
2.30023e-06
1.67473e-05
1.1881e-08
1.41574e-09
1.07571e-07
3.50222e-08
1.20273e-06
0.000319173
9.67747e-09
0.036911
1.71765e-05
0.156365
1.83447e-06
2.92481e-06
1.63445e-06
1.97097e-06
1.30509e-05
3.14226e-08
2.30526e-08
1.45175e-08
3.11854e-06
9.36732e-06
0.0566641
0.0548548
4.96432e-06
9.30461e-07
6.4179e-09
2.15211e-09
2.49472e-08
1.67928e-06
0.000244285
1.98546e-07
3.59544e-08
3.38099e-09
0.0217054
2.67974e-05
4.30037e-05
0.0399481
8.47468e-07
0.305338
9.70383e-06
4.34654e-07
4.83882e-10
2.57673e-07
0.0528933
7.14864e-10
2.20917e-05
1.17096e-08
0.000684769
4.42894e-05
8.18473e-05
0.00014271
2.78487e-05
4.49459e-09
1.45176e-08
0.352516
3.31577e-05
3.44225e-05
0.000228047
4.19818e-07
8.39572e-05
9.4915e-05
2.97242e-06
3.26469e-06
0.000294306
8.18073e-08
0.000694123
0.0387404
1.3666e-06
2.01695e-07
8.21069e-05
8.98038e-07
0.0337195
0.178611
2.13025e-05
9.26817e-10
0.00403286
3.37849e-07
2.17556e-05
1.53823e-06
0.000121172
1.1308e-08
0.000871111
8.56385e-05
0.000130874
2.05663e-05
0.000120007
2.89955e-05
5.39563e-06
1.30475e-09
0.000155295
4.56344e-05
5.78459e-05
6.51951e-07
9.50308e-06
0.000120424
0.000443807
9.12765e-09
3.0316e-08
3.53457e-08
4.95002e-10
1.27092e-07
0.0213607
0.000401847
0.000140186
3.95987e-05
0.000201878
8.18507e-05
2.75538e-10
1.13313e-05
6.23896e-09
5.33837e-07
7.02542e-09
2.55522e-05
0.00200248
1.51636e-05
1.11528e-07
1.30612e-08
1.46731e-06
1.22742e-07
7.70036e-09
0.143791
9.13937e-06
0.000661112
0.0010019
0.000718884
7.84024e-09
0.000661554
0.000736154
0.00131628
0.00071389
2.0205e-09
5.30406e-10
3.20994e-06
8.74669e-06
6.70966e-05
0.000316696
0.0413394
7.98974e-06
3.20409e-05
4.39561e-06
0.000548021
3.27734e-08
1.38714e-09
0.000111428
0.000367432
0.0258193
1.00439e-08
0.115688
0.000124141
3.30297e-07
9.08276e-05
4.86587e-06
8.7449e-05
2.23477e-06
9.56241e-05
5.85686e-09
8.99214e-06
0.00214458
3.57486e-05
5.66698e-08
0.00173631
4.36108e-05
1.04501e-05
0.0031883
8.20982e-08
7.62082e-06
5.57568e-05
9.21444e-05
8.73067e-07
0.189558
5.53818e-08
8.62882e-07
2.71979e-08
0.115777
0.118823
2.05625e-06
1.77534e-06
0.000154159
0.0544882
2.98671e-08
1.05443e-05
1.9823e-05
1.29072e-05
1.26713e-06
0.191913
7.07415e-06
1.60897e-05
0.00356867
1.59147e-07
6.91638e-06
1.66798e-06
2.43345e-06
1.69003e-09
0.00237516
0.003905
1.11375e-07
7.31298e-07
1.25331e-06
9.99722e-05
7.7941e-09
0.0393812
2.82548e-07
9.92338e-06
1.08887e-06
5.26792e-07
4.83967e-06
3.33917e-05
1.25313e-06
5.04463e-06
0.000241824
1.49713e-06
1.33234e-06
0.0425518
7.60083e-07
3.36481e-06
2.48804e-06
1.96848e-05
1.90612e-10
4.35492e-09
1.13018e-09
5.36237e-06
5.47108e-08
0.065862
2.18184e-05
1.17468e-05
3.3737e-09
3.15015e-05
0.115236
7.90692e-05
1.35003e-05
5.96826e-05
1.22316e-05
1.99505e-07
7.91097e-08
2.38184e-05
4.1372e-06
2.73138e-06
0.000533879
9.45701e-06
4.71298e-08
2.7539e-08
2.12117e-06
7.50862e-08
6.71596e-06
4.04799e-08
1.16435e-05
1.59378e-05
1.89851e-07
1.33143e-09
0.0452284
7.21458e-09
2.12573e-09
2.43489e-05
0.0558647
1.95656e-05
2.21775e-06
2.0131e-08
9.68642e-06
5.24714e-06
2.19334e-05
5.95231e-06
8.12816e-09
1.71885e-06
1.51215e-06
5.42388e-06
4.12693e-09
5.46327e-09
4.75618e-09
5.22861e-06
1.68025e-05
9.42541e-07
1.55183e-08
7.44064e-06
5.05146e-05
1.97405e-08
2.43904e-05
4.46898e-07
4.14313e-08
5.85146e-09
3.77656e-05
2.37214e-07
2.05123e-05
1.66625e-09
2.49725e-05
8.09451e-09
1.52169e-06
0.000343302
1.33315e-07
5.70729e-09
0.0678999
3.15123e-08
0.0558597
2.37994e-07
4.51801e-08
9.39692e-06
2.46898e-05
0.0457229
5.69094e-05
0.0494024
0.0600278
8.83939e-05
1.1017e-05
0.0399516
1.0669e-05
1.64879e-08
4.21878e-05
0.137573
0.0366293
0.0417557
1.11122e-08
1.00354e-05
1.56698e-08
5.58428e-06
9.80796e-07
7.84246e-06
0.000169414
6.98466e-06
5.17885e-07
1.51368e-08
3.83235e-06
0.000289728
2.36121e-08
1.16513e-05
3.70288e-05
1.95962e-06
7.48557e-10
6.11935e-05
2.55047e-05
2.51431e-05
1.73267e-05
1.59015e-05
2.1813e-06
7.32203e-06
0.000149288
8.6132e-06
6.73498e-06
0.000123775
0.000451233
3.29941e-09
6.35123e-07
2.80365e-08
1.94534e-05
8.8845e-08
2.29486e-06
9.77077e-11
0.00039049
0.384374
0.0868712
0.000144745
4.42787e-09
1.17631e-05
0.0538216
0.100981
2.42623e-06
0.000267034
2.12226e-06
5.46336e-07
1.21841e-07
2.62421e-09
9.08947e-06
4.2414e-05
3.96182e-08
4.62514e-09
1.73078e-05
1.63696e-07
0.172984
0.0533594
1.13958e-05
5.57311e-09
1.1359e-08
0.0416434
4.73497e-09
2.46293e-05
1.09648e-08
0.000600832
1.93965e-08
4.81737e-06
5.10652e-08
6.38236e-09
0.0010646
0.151469
0.0639686
1.46251e-08
0.0682776
4.2795e-08
1.32856e-05
1.58087e-06
0.115241
2.3956e-07
0.000156725
4.06912e-09
1.92551e-06
0.000272828
1.66568e-06
0.000159826
9.38376e-09
1.11268e-05
3.13011e-05
2.038e-05
5.15287e-06
3.64225e-07
3.29052e-07
3.34054e-06
6.02456e-07
9.62048e-09
3.39332e-09
0.0733245
0.0367782
1.44812e-08
0.0822159
5.00578e-10
1.97741e-08
5.18598e-05
5.37296e-09
4.98531e-09
0.0390071
2.05139e-08
8.00327e-10
0.000629449
2.08472e-09
1.001e-09
4.9419e-05
0.0907642
1.28805e-07
0.0367493
9.01342e-09
4.43553e-06
0.0490106
6.20644e-06
0.000850716
5.60833e-10
7.17401e-08
1.03391e-06
1.80321e-07
0.205768
0.0444088
0.000106743
3.10258e-08
0.0458092
7.93973e-10
1.91261e-08
2.95011e-09
0.100605
0.0017711
8.49636e-06
1.34243e-09
1.28925e-06
0.0476515
0.000894379
3.72832e-07
0.000252546
0.106429
0.0839171
3.50093e-05
0.0832707
0.000915659
0.0422388
4.13831e-05
0.0643181
0.000338047
4.65014e-06
1.44674e-06
2.27507e-06
0.000451161
0.000911815
7.31635e-10
3.69251e-06
7.25064e-08
4.45194e-05
7.32291e-06
9.96817e-07
7.79748e-06
0.000293781
1.73812e-07
7.89652e-06
8.42725e-08
2.57763e-08
2.91005e-08
4.50032e-08
4.9669e-06
4.39627e-08
4.91478e-08
7.08368e-08
1.06221e-05
4.25437e-05
1.30335e-10
1.66415e-09
5.79251e-08
1.02488e-07
1.08583e-06
0.0012622
0.00206759
0.000127685
8.62479e-09
3.14491e-05
5.5117e-06
0.0458831
3.15156e-05
1.2772e-05
5.53208e-07
1.07927e-06
2.40222e-06
0.000218975
0.000115273
0.176021
0.0664928
8.13392e-08
0.0008133
0.000291366
1.11509e-08
2.64464e-06
4.5369e-06
3.83259e-08
1.70671e-06
3.79304e-06
0.0615246
2.96334e-10
8.23673e-05
1.46361e-08
0.0474801
5.05653e-05
0.0351434
3.29664e-05
4.59285e-09
8.30034e-09
2.51869e-08
2.46628e-05
2.35987e-05
4.09832e-06
7.15545e-06
9.96686e-07
0.000752093
0.000281679
7.37749e-10
0.000114622
4.67497e-05
5.09127e-05
9.37474e-05
0.00291694
4.03522e-06
0.0973502
5.0805e-08
5.77608e-06
0.0379628
1.04802e-08
0.000259593
0.0071122
3.96454e-08
0.00010012
1.47968e-08
1.83415e-07
2.47974e-06
3.79489e-06
5.38978e-08
7.43393e-09
6.68097e-07
2.45599e-09
5.63946e-09
0.000124068
2.38926e-08
5.67597e-10
2.8497e-05
7.67688e-09
9.675e-08
2.64339e-07
0.000211859
2.15557e-07
0.000165529
1.05905e-07
4.76303e-08
2.22414e-05
6.49989e-05
0.000226761
0.0420544
7.93259e-05
4.17878e-05
2.27884e-06
0.31367
0.304991
1.2132e-07
2.84122e-05
1.62771e-08
0.0446721
0.0376404
0.000396964
0.0880138
0.0677995
7.11071e-06
1.32455e-09
0.000112036
1.44704e-08
1.47695e-09
4.03982e-07
1.5658e-05
6.79286e-09