/*--------------------------------*- C++ -*----------------------------------*\
  =========                 |
  \\      /  F ield         | OpenFOAM: The Open Source CFD Toolbox
   \\    /   O peration     | Website:  https://openfoam.org
    \\  /    A nd           | Version:  10
     \\/     M anipulation  |
\*---------------------------------------------------------------------------*/
FoamFile
{
    format      ascii;
    class       volScalarField;
    location    "13";
    object      SgT;
}
// * * * * * * * * * * * * * * * * * * * * * * * * * * * * * * * * * * * * * //

dimensions      [1 -1 -3 -1 0 0 0];

internalField   nonuniform List<scalar> 
111485
(
1.02304e-15
0.0080355
0.0237839
3.11337e-16
0.0489413
8.75479e-16
0.0458915
0.00614556
0.0188767
0.00119921
0.0462638
0.00936207
0.00472347
0.000776982
0.00648025
0.0307673
0.00140054
2.60291
0.0103307
4.16505e-15
6.64005e-16
9.54817e-16
0.0263399
0.0348963
0.00851406
7.15019e-16
0.0398297
0.00175109
0.0157222
6.95292e-16
0.0441635
0.0193065
5.24776e-15
1.31355e-15
0.00692697
2.54037e-14
0.0105234
0.00418998
4.08802e-08
0.0238674
5.83457e-16
0.0710688
0.0158128
0.00148175
5.9537e-05
5.03905e-16
0.0301693
0.000714713
0.0476412
1.67897e-15
1.62158e-15
2.06123e-14
5.91805e-15
0.0505225
1.10903e-14
0.0434787
0.00316924
2.65105e-16
2.13154e-05
0.00478802
0.016069
4.58932e-17
0.00467517
0.0957223
2.01961e-14
0.00323598
0.314046
0.0945538
0.00108279
0.005931
1.48511e-05
0.00643572
1.04919e-14
0.00283555
2.46642e-15
0.000699806
1.57032e-15
0.0412975
3.53899e-15
3.56456e-15
2.05054e-06
0.0338913
1.41171e-14
2.59077e-15
0.00915333
0.00395218
3.76969e-10
0.0250345
5.78934e-05
0.00735827
0.00029912
0.0405906
0.011676
5.75296e-05
0.0525888
7.02307e-16
2.18748e-16
0.00177865
2.6169e-08
0.00117478
4.11554e-15
0.0182773
1.01531e-15
0.0183302
0.00465048
3.32267e-15
8.47263e-16
0.00758107
0.00400881
6.39766e-08
0.0054302
0.00472227
0.00369161
0.00313471
1.21172e-15
3.31585e-05
3.18619e-16
1.66008e-14
0.0126636
1.94179e-15
2.78142e-15
4.98212e-14
7.51205e-15
6.6934e-16
0.0015567
2.89005e-06
6.25854e-16
0.00166896
4.77062e-17
3.40545e-05
0.00140312
0.0323126
5.54129e-15
3.86173e-14
2.11612e-15
0.0485001
3.23558e-15
0.0424959
0.0251036
0.00268444
0.00024007
0.00200049
0.0224202
0.00274724
0.00389897
0.0129902
7.19942e-15
5.38721e-16
2.55361e-15
0.0279279
0.00160535
6.03777e-15
2.20604e-07
0.00483202
4.62969e-07
0.010657
0.0163829
0.0104746
6.64438e-08
1.78717e-16
4.2767e-18
0.0522193
0.0231729
1.84201e-06
3.44005e-07
0.00573513
0.00348861
1.60987e-15
4.52034e-06
4.65572e-05
8.13882e-17
4.0015e-15
0.00013102
4.48922e-16
0.00559553
0.00210734
8.94001e-16
2.49298e-15
5.8384e-15
8.15932e-15
2.45075e-15
1.22395e-15
0.0014842
0.00679315
0.0295506
0.00415428
0.0074833
0.00395375
8.13341e-05
1.71237e-15
0.00473285
7.63971e-15
4.12169e-16
0.00643712
0.0105178
0.0278397
0.0111131
0.00499905
9.41735e-16
0.00660237
0.000531848
4.30677e-05
0.0138636
0.00231156
2.70321e-15
0.00371773
0.0256778
2.99495e-16
0.000170778
0.00768842
0.00207164
0.000358412
2.59509e-15
5.69361e-15
0.00815247
9.82597e-12
0.11983
1.16616e-14
0.00658559
0.0202941
0.11967
2.82463e-16
0.00318871
0.0135433
3.00354e-13
6.80865e-16
1.85159e-15
0.153576
2.80158e-07
1.80948e-14
1.67514e-16
0.00938538
0.00779355
0.0147753
6.97736e-15
1.86706e-14
1.22946e-05
1.06294e-15
0.00245252
0.00938036
0.0164406
0.0115442
0.0095584
1.64352e-15
2.59205e-07
0.000620643
3.27642e-15
7.27878e-15
0.0309104
0.0206437
9.47776e-15
0.00636078
0.0106399
2.07572e-16
1.48401e-13
0.000117711
1.01637e-15
7.2731e-16
4.46209e-05
9.31419e-16
0.0149727
0.0108977
0.00367791
4.26876e-17
0.0118549
4.34354e-17
1.13752e-15
2.12654e-15
1.93824e-08
0.0226915
0.00609645
0.00535722
0.0367976
0.0121629
0.00159408
0.00057643
0.0328114
0.00892229
2.61294e-16
2.53257e-16
2.5317e-07
0.0226117
0.0243588
0.0120228
5.20137e-16
0.0069825
0.00205715
0.00298315
1.83777e-06
3.70344e-06
0.0136145
0.00217487
0.00190155
5.31977e-15
0.000670763
6.07913e-15
1.67589e-07
3.40156e-13
0.242839
0.0683162
0.0120119
3.62585e-15
9.12214e-16
0.00895212
0.00173198
6.26764e-15
3.59733e-16
2.05786e-14
0.000298013
0.0575971
0.00390713
0.0138797
0.0192351
1.31526e-14
2.12564e-15
5.13496e-16
0.0037804
1.72028e-12
0.000815589
0.185847
3.25613e-07
6.64898e-16
1.90161e-15
3.2972e-16
3.83078e-14
0.059702
0.0119942
4.8266e-16
0.00519848
1.97333e-14
8.64345e-15
0.0667489
0.00586164
0.0113949
0.00921398
4.74988e-14
8.72021e-15
8.12116e-16
0.00935649
0.01883
0.00469967
7.15648e-16
2.89513e-10
0.000165342
0.00214241
0.00800093
3.57558e-05
0.0285245
1.03712e-15
0.0376034
0.00350894
0.00775881
0.0249242
0.0134909
6.83739e-15
2.72558e-15
1.89799e-15
6.1502e-15
0.0315896
0.00971177
0.0334553
0.0673754
1.8433e-15
0.0188054
7.6559e-16
2.47024e-15
0.0164789
5.72231e-16
0.0745296
8.39875e-16
2.58466e-16
0.0229867
2.46999e-16
0.0136743
0.00029559
3.56437e-16
0.0010162
0.0163945
6.73209e-15
0.00878061
0.00941857
0.00807193
0.00066111
0.00275635
0.00562486
2.09732e-14
1.99121e-16
0.00191287
1.28584e-14
0.00615789
0.115862
1.4874e-15
5.1344e-15
0.0273661
0.000110916
0.00820032
0.0206662
3.75871e-15
0.0459458
0.0187506
4.76944e-17
0.000817032
0.00247369
3.2169e-17
9.86682e-15
0.0110436
0.00521089
9.78886e-16
3.96208e-16
3.37813e-08
1.12429e-15
0.0120913
9.96664e-15
1.80615e-15
0.0169301
1.68948e-06
0.0125109
0.0294762
1.59279e-15
6.03076e-15
0.00145602
2.74124e-15
0.000157625
0.0140317
0.121896
0.848697
1.30289e-16
0.00274528
0.000492349
1.24992e-15
0.0385066
0.0315221
1.53022e-16
7.46389e-09
9.27353e-05
1.59216e-14
0.024103
0.0244234
0.0140234
4.74353e-15
0.00066288
0.0172751
0.0229754
8.2044e-07
1.93151e-14
6.21369e-10
1.97467e-15
1.22846e-05
0.0314734
1.09519e-14
0.00851751
9.71575e-05
8.0311e-14
5.87443e-17
3.78923e-15
1.19804e-16
0.00367841
0.00961183
0.00646464
0.00214654
0.00275975
1.21126e-14
0.00203023
7.01762e-16
0.0402993
1.03102e-15
1.2539e-15
1.62398e-16
0.0363269
4.93856e-15
1.4573e-15
1.74205e-07
3.98262e-16
9.58346e-15
0.00105101
3.75565e-15
1.73526e-16
3.35562e-15
2.59009e-15
4.88524e-15
4.52352e-16
4.32405e-15
0.00713209
3.15246e-14
0.000511544
0.001897
0.000940806
1.53442e-15
0.000861971
1.25125e-14
1.13551e-16
0.00277328
0.00180776
0.0274044
0.0245906
7.77275e-15
0.00202196
0.0810569
0.00846987
0.00102776
0.00325238
7.1288e-16
0.0234377
3.79653e-14
0.00495029
1.25347e-15
0.0752855
3.44987e-15
0.0209528
0.000240591
5.38757e-07
6.6108e-15
0.00199323
4.44708e-16
0.079995
0.0482891
2.52246e-15
3.84666e-15
1.1514e-14
3.9562e-16
1.42596e-09
0.0549778
1.55846e-16
3.46471e-15
0.00253834
1.03568e-15
0.0334683
8.24514e-15
0.000330492
4.48791e-16
0.000490269
1.11251e-06
0.00102884
0.0125273
1.79091e-15
0.000405828
2.23613e-15
3.17527e-15
0.0151047
1.28649e-15
3.06888e-05
1.76737e-15
0.00161857
3.7506e-15
0.0642382
2.122e-15
9.34424e-15
0.0167786
0.00330851
0.00171145
0.00392074
0.00677077
0.0208402
1.16841e-15
0.0248123
0.00618684
2.93983e-15
7.63574e-08
0.0397771
0.0150604
2.36474e-15
0.00397599
0.0066643
0.0017229
0.00104164
1.62871e-10
0.0137317
0.00119024
0.000133919
0.0238672
0.0138027
0.000643291
8.80306e-15
3.19927e-09
0.645624
5.27057e-16
0.000364752
4.95573e-16
1.02766e-14
0.00732752
0.00283297
2.1548e-07
1.53223e-05
4.3585e-14
0.0164726
0.0110109
3.61911e-15
1.77136e-10
0.00151897
4.20844e-15
1.4561e-15
1.97324e-15
1.82579e-15
0.0133285
8.26874e-16
1.40934e-15
0.00881195
0.00194619
3.28931e-14
0.0104735
3.52256e-15
0.00854608
6.3264e-16
8.22895e-15
0.0532211
2.04768e-15
1.51506e-15
3.37158e-14
0.00428068
1.09842e-13
0.0292186
0.00624959
3.47796e-15
0.0866496
0.00241913
0.0283051
0.0277563
0.000476889
7.81053e-05
2.82407e-15
0.0540128
0.0459456
4.4372e-15
0.000310898
0.0404658
0.00779613
0.00143228
0.027564
0.026009
1.9044e-15
0.0106483
6.13696e-06
1.29229e-14
0.034547
0.000256736
1.56301e-13
0.0109986
0.0403026
0.00135077
0.0212555
0.0193448
0.00722382
4.78397e-15
0.0102828
0.000316459
4.10423e-12
0.0168599
0.0175898
0.0357005
7.65532e-15
0.00186354
2.35421e-15
3.02074e-15
8.09438e-15
1.0954e-15
1.41867e-05
5.16121e-14
2.77935e-10
5.28185e-16
1.8604e-15
7.79628e-05
0.0428773
8.83829e-15
0.0320569
8.24869e-16
1.37544e-15
1.08806e-14
0.0388463
0.000415735
1.97348e-14
5.37591e-16
1.84191e-15
4.68297e-15
0.210457
0.069327
5.00519e-15
0.00195331
2.15022e-06
4.88054e-15
0.0369613
0.00827366
0.0116925
8.29683e-16
1.12424e-14
0.000406914
0.00105917
2.82706e-14
8.58011e-15
1.51952e-15
0.00722421
6.42647e-15
9.00727e-16
1.13956e-14
0.0415508
0.00202512
9.53861e-16
3.89803
0.323718
0.0098392
2.06045e-16
3.17763e-15
0.0557343
0.000414192
1.74488e-14
6.13716e-06
0.118789
0.00249907
0.0114026
1.3983e-14
0.0532551
0.00185476
1.37606e-15
2.71325e-15
4.42853e-15
2.24917e-15
7.53994e-16
2.82272e-15
0.0219011
3.77336e-16
1.18528e-15
2.00643e-15
0.011475
0.0238302
1.44616e-15
1.90842e-15
0.105611
0.014164
0.00976172
5.09023e-15
4.4422e-16
0.0367217
5.46099e-16
0.00172029
0.00263139
0.00391673
7.73459e-16
1.17258e-15
7.60601e-16
3.59824e-15
0.014957
5.47732e-16
7.09535e-15
0.000999105
1.16136e-15
0.022872
0.00184725
3.25625e-15
0.0368395
0.372336
0.00249914
0.0292874
0.000148818
0.0442164
9.12948e-11
4.40594e-14
0.0233826
0.0690324
0.00601948
1.30841e-14
6.03867e-10
0.739788
0.00991974
2.50631e-16
0.0025637
0.00257049
0.00120504
3.57543e-15
1.9305e-15
1.28562e-17
0.013383
4.97405e-14
0.00264125
7.50072e-15
0.00123037
0.00139765
0.0362151
0.000583502
4.01805e-15
3.34065e-15
3.60348e-15
0.0204532
5.63424e-16
8.2566e-15
6.69535e-05
4.40231e-15
1.22053e-15
6.27194e-16
2.94934e-16
0.00992457
3.93312e-15
1.23607e-15
4.78971e-10
2.18866e-14
1.26533e-15
8.34058e-15
9.43349e-15
3.08754e-06
0.00158913
1.52329e-15
0.00389794
6.84619e-06
3.15484e-07
6.09303e-05
0.00407124
1.18729e-15
9.13954e-06
0.0100536
0.000386548
6.02143e-16
3.39983e-09
0.000836817
3.04572e-15
0.00972049
0.000194457
1.67455e-06
0.0235301
0.00927612
0.00224083
0.00495728
0.00196206
1.05518e-14
1.96527e-15
0.0324929
0.0260225
6.92828e-15
0.0083703
0.0543653
0.0281655
2.55212e-16
0.00130474
2.36745e-15
0.0101119
0.0138341
4.70077e-15
0.00156948
0.00044535
1.22172e-06
0.00487847
6.84494e-16
0.0481896
1.51052e-05
0.00148378
3.14155e-05
1.27332e-05
1.04065e-15
3.45331e-15
0.00709468
9.38298e-16
0.000116077
0.00025681
0.000296059
5.32726e-08
6.94994e-08
3.18553e-07
4.31601e-16
1.28386e-14
0.0224973
3.8802e-15
0.000109771
0.00203052
2.12025e-15
2.97151e-15
6.18558e-07
9.32104e-10
1.27625e-15
4.91231e-06
6.18845e-15
6.3613e-15
8.91667e-17
5.65553e-16
1.15793e-14
1.78821e-15
0.000285351
5.51652e-15
9.07284e-15
6.1561e-15
6.31109e-06
5.08764e-05
0.00174097
0.00909425
5.08306e-16
5.50362e-16
0.000166933
2.39467e-15
3.31194e-15
1.94446e-13
0.0186641
0.0421033
2.25912e-15
2.16587e-15
3.53389e-15
2.90983e-15
1.10489e-15
2.33682e-15
0.00694649
8.19526e-16
5.03731e-08
0.0264713
2.26194e-15
7.00512e-16
2.0423e-15
2.6912e-05
6.53162e-15
8.67217e-16
2.45825e-15
9.10386e-06
3.33113e-15
0.00436057
9.52379e-07
6.14191e-09
4.78816e-16
7.32948e-05
0.00205217
0.0442228
3.50298e-15
8.20736e-06
0.00548426
1.02113e-14
2.13447e-16
1.36202e-14
2.26243e-15
0.00806135
0.00161913
0.00331115
1.71698e-07
1.46688e-16
0.0234652
1.0919e-15
8.0591e-16
4.06424e-15
3.49905e-15
0.026149
4.97086e-15
9.25507e-15
1.69943e-06
0.0509635
1.03e-15
0.00237248
2.80645e-15
0.000843617
7.19498e-15
7.21418e-16
2.76644e-14
9.26937e-17
0.00251159
0.000608383
0.312673
1.42476e-16
1.64265e-15
0.00217273
1.00299e-15
4.34412e-14
3.26732e-16
0.0365649
9.16973e-06
0.0315666
5.31181e-15
1.04441e-05
4.7587e-05
2.06967e-14
0.000121974
2.50213e-15
0.00124931
0.0251772
0.019935
0.00121036
0.000234567
8.52707e-15
1.14941e-15
3.26857e-15
2.1237e-05
4.94999e-16
0.00733838
2.18393e-15
0.174635
1.59771e-15
0.0415253
0.00305541
5.16441e-15
1.47788e-15
7.46911e-15
7.12292e-15
0.0404985
5.16385e-15
7.04799e-15
0.0118129
0.00665811
2.46487e-14
1.34555e-14
7.87117e-14
3.26438e-14
1.80698e-14
2.34427e-16
0.0252059
0.000412023
1.84306e-15
1.04289e-15
5.04886e-07
5.4683e-16
0.00151068
0.000108256
1.39223e-15
0.00342066
3.85596e-16
0.000374439
2.83878e-16
0.00107409
1.19824e-14
7.53554e-08
2.10836e-06
0.000641316
0.0178853
0.0335963
1.16582e-06
4.46667e-17
0.000518255
3.64476e-15
0.00457401
2.24752e-15
5.25109e-16
9.86039e-16
6.41594e-15
2.70476e-15
3.72198e-15
0.00708602
0.00793896
2.30024e-16
9.6989e-15
2.53693e-14
0.000770271
1.31475e-05
6.53659e-16
0.0181079
0.000178338
3.20537e-15
0.0231431
0.00802647
0.00362641
0.0115588
2.50894e-15
1.79183e-15
3.24811e-16
2.28249e-15
0.0368903
4.59451e-14
0.112421
1.6338e-16
0.000302859
0.000728561
4.79535e-16
0.000938486
2.20596e-15
1.22175e-15
0.00298872
2.33391e-08
0.00885343
6.53543e-16
8.274e-15
6.17422e-16
0.000815948
1.95505e-14
1.34318e-15
4.73763e-15
2.97008e-07
1.1299e-14
7.15074e-06
5.6555e-15
1.71287e-15
1.10042e-15
0.0182729
0.00960657
0.0180868
0.0357166
1.68055e-15
1.48977e-05
2.09639e-15
1.0284e-15
0.00969501
8.64343e-16
2.26196e-06
0.000341495
0.00661622
0.000360659
1.0927e-09
0.00191775
2.03836e-15
1.18397e-09
4.33507e-10
0.000124318
0.000793852
0.0149773
5.86071e-08
3.78517e-16
0.0305139
9.17026e-15
5.4741e-16
1.42011e-05
0.073961
5.56618e-08
2.21377e-15
4.757e-15
3.42929e-07
9.38639e-16
1.495e-14
1.7202e-05
1.13249e-14
2.16557e-15
0.0395437
0.00022184
0.000172967
0.0223249
0.00720794
4.74639e-15
1.53951e-15
1.91223e-05
0.00409237
9.94833e-16
5.27741e-15
0.00980657
1.7687e-15
2.9366e-15
2.43364e-14
3.30186e-14
3.50633e-13
2.56955
3.51117e-16
0.000207176
8.50201e-16
0.0207638
2.0327e-15
1.47163e-12
1.70894e-15
1.76339e-15
2.29792e-15
5.96015e-15
0.00290215
1.06737e-15
7.27067e-15
1.32627e-14
5.61719e-16
1.06777e-15
2.12185e-15
0.00969566
1.49696e-15
0.0107745
0.00304519
2.39127e-16
0.00148684
2.24015e-15
0.0004974
1.98952e-06
0.00387149
0.0132334
1.0279e-15
9.27179e-05
0.00769189
8.58995e-06
2.16631e-16
2.73655e-06
0.0189729
0.00471444
5.94386e-15
0.0259894
1.35954e-16
5.15792e-16
4.35026e-15
2.61495e-15
0.00813612
7.84227e-16
5.08865e-16
0.00829955
3.12089e-07
0.002676
2.2391e-15
4.96316e-14
0.000629199
1.28235e-15
7.07503e-05
3.75898e-15
0.0230108
1.0003e-15
7.11518e-16
5.17034e-05
4.89368e-15
0.000134889
1.69332e-15
4.32421e-16
0.00478483
0.000433509
0.00472031
0.0153638
0.21792
0.0201215
3.78921e-15
4.80039e-14
0.00292036
0.00674769
0.0367351
0.0108707
2.46162e-15
0.0123358
8.72975e-16
2.93381e-15
0.0089921
0.0108779
9.45236e-15
0.0131212
3.03521e-15
0.00274326
0.00898242
8.58538e-15
3.40756e-15
7.01754e-16
0.00277705
4.88158e-15
1.05777e-15
0.00412655
0.0212848
3.74816e-06
0.0074065
5.09006e-15
1.375e-15
8.52032e-05
0.000766087
2.09863e-15
0.0101258
6.551e-15
0.00254963
1.49955e-15
2.68637e-15
0.0121074
5.17257e-17
3.82591e-05
0.00356651
5.19771e-16
1.43988e-15
0.004329
5.36072e-11
0.0527694
3.04518e-16
0.2557
1.68126e-16
3.28828e-14
9.69832e-16
0.00736553
2.72223e-14
1.99552e-15
0.00549745
1.26742e-14
0.000242778
9.42268e-15
1.16316e-15
9.12156e-15
1.01381e-07
0.000774607
4.06142e-15
1.76279e-15
0.0352867
0.000937101
5.09802e-15
0.000406501
1.03964e-14
1.44959e-15
1.66582e-06
0.00293064
0.00127636
1.69894e-14
1.09043e-15
8.43839e-15
3.25596e-16
4.85005e-15
1.00168e-14
1.12187e-15
4.33773e-16
7.48298e-16
1.17399e-15
3.96874e-15
6.74582e-16
1.0301e-14
1.36664e-15
3.53855e-17
5.15917e-16
2.87007e-15
3.02926e-15
3.12898e-15
5.75622e-15
3.23514e-15
0.0174963
8.84629e-15
1.90517e-15
5.10833e-15
0.00650734
3.56236e-15
4.86352e-15
0.278738
6.96391e-15
5.56095e-16
0.0228206
1.03349e-12
1.20795e-15
0.00729637
0.0241658
7.068e-16
0.00264611
0.00397886
4.12413e-15
0.012999
0.0389284
0.0175066
0.00329158
0.0105807
7.34596e-15
1.58712e-15
0.00298017
0.0106769
0.0031337
2.89223e-15
0.00658723
0.00172398
0.021005
0.0101552
0.000687466
0.0152946
0.000994066
0.00996185
7.23664e-15
0.0248281
0.00834097
0.0016611
0.00137218
7.18733e-15
4.05062e-15
3.04235e-15
8.53082e-16
7.25608e-15
0.00930251
0.0133957
9.07939e-16
4.30984e-16
2.17635e-14
1.16197e-15
1.6126e-15
2.03271e-15
2.62214e-15
4.96733e-15
0.00459419
0.000180412
0.0214314
6.90362e-05
2.14578e-16
3.87057e-15
0.030642
6.23448e-06
4.02356e-15
2.8354e-15
0.00698011
2.2607e-15
1.35551e-15
2.60608e-06
0.00766712
0.0134512
0.0327868
0.033415
1.8216e-15
0.0139855
0.000330141
8.02911e-16
1.74346e-16
0.0115664
4.78494e-15
1.50125e-15
0.0168753
1.02963
0.000163142
1.55628e-14
1.07993e-17
0.0165041
0.0201322
0.01753
0.00547815
0.00385361
9.79481e-16
9.41882e-07
2.53981e-09
1.53901e-16
1.30703e-14
0.0166029
1.08928e-15
0.00197675
0.0249062
0.0171739
0.0111807
7.60852e-16
0.00583036
4.14559e-15
1.19814e-15
1.06247e-15
1.97326e-15
0.00247378
0.857464
1.25918e-15
5.82075e-16
2.74912e-06
0.023088
0.0011007
0.00674853
0.0321952
0.00467969
0.0197704
1.95853e-15
8.50722e-16
3.4287e-15
0.0294935
0.00551119
2.6625e-08
4.26156e-16
4.73174e-16
4.8336e-15
0.0215128
0.00254362
2.25596e-15
0.00474138
0.0555323
0.00629602
0.00598497
4.08129e-16
7.08287e-15
0.00669471
0.022407
2.3611e-16
0.000332735
0.0142604
0.000928003
0.00913351
0.00453225
0.00771825
4.47879e-14
0.0032713
0.0201747
0.0353249
4.55184e-10
0.0220207
1.08888e-13
0.0160147
0.000148734
1.95454e-17
0.00248265
0.00724045
0.000390714
0.0111836
1.97877e-07
0.000130027
1.51944e-05
0.037895
0.00351207
1.66651e-14
0.0374404
0.00122996
5.98416e-15
1.16865e-15
4.09091e-08
1.06707e-05
0.000999904
1.06204
0.0338875
0.011004
2.01562e-07
0.0426108
1.02582e-15
2.56319e-15
0.003866
7.70677e-15
0.00194835
0.00410665
0.00207552
0.00451735
2.20435e-16
0.000192839
0.104192
2.31895e-15
0.0181715
0.00720608
1.31984e-15
0.0037938
0.0001388
2.0421e-15
6.35654e-09
8.73049e-05
1.38015e-15
2.19263e-15
2.65373e-15
0.0041675
0.00445914
0.0136182
7.80055e-16
0.00461831
0.0313695
2.04089e-15
0.00764816
0.0118487
0.0232728
0.00142641
4.79298e-15
0.000499022
0.00876736
0.00996853
0.00859374
0.035948
0.156484
0.0030837
3.59847e-16
7.06257e-06
0.0485623
1.60186e-15
0.000399727
9.73951e-15
1.12306e-15
8.1865e-16
1.80298e-15
4.11695e-16
0.00310296
1.79409e-15
0.00675219
0.00113302
5.99105e-16
0.00376677
4.03489e-15
0.0134549
4.24716e-15
2.15503e-05
4.51673e-15
0.0207087
0.000143343
2.02907e-06
0.00399809
0.0274284
0.0160348
0.00375217
0.0257294
5.56119e-12
0.0218018
0.0520836
0.00918826
9.67943e-17
0.00107104
0.000250416
0.00529166
0.0101427
0.000593611
5.53962e-15
1.44912e-14
8.5923e-16
0.00341026
5.29891e-16
0.000259752
0.000210131
0.00148154
0.000241115
7.44099e-17
7.77388e-16
6.21974e-15
0.00818924
0.0200019
0.00117466
8.43821e-06
0.00179293
0.00650874
0.00171622
0.000819345
0.00655245
0.00574706
0.0025156
6.90599e-15
4.28757e-16
2.85179e-16
0.0126421
0.0104098
2.83651e-15
1.77254e-15
1.14568e-13
0.00787212
0.0176748
1.14945e-15
0.00208897
2.98087e-15
6.1257e-07
0.00449813
0.0840542
2.84933e-16
2.31705e-16
0.00355915
1.6138e-16
5.88199e-05
0.0114682
8.08494e-15
0.0102625
0.0310915
0.0178493
3.00262e-15
0.00134189
1.34516e-14
8.49762e-05
0.0460314
6.83038e-16
1.14993e-14
0.0102805
2.26331e-13
2.26735e-15
4.04859e-05
0.000923329
1.40278e-15
4.59416e-15
9.63067e-15
6.60444e-05
0.00112544
0.00305698
0.0237922
0.00824156
1.29482e-16
6.52593e-07
0.000648965
2.1761e-15
1.78931e-15
3.68265e-16
5.11758e-15
3.08011e-15
2.32809e-15
2.72266e-15
1.66386e-15
4.06114e-15
9.5343e-15
2.86525e-09
4.43215e-15
0.000320023
1.86891e-14
0.000217653
5.99108e-15
5.83089e-05
3.53451e-14
2.49462e-16
0.0264657
0.00867968
3.35944e-14
0.0828982
1.07897e-08
3.65183e-10
5.69542e-15
0.00111107
8.63954e-12
0.00255558
5.46655e-06
0.000837879
3.96639e-15
4.15074e-15
0.00110442
2.43629e-08
5.62207e-16
3.63933e-15
0.0367162
1.87146e-14
0.0351767
1.43427e-14
1.05258e-15
1.6833e-06
0.0263573
0.00759904
1.37961e-15
0.000292505
1.24839e-14
0.00300108
1.73993e-05
0.00170201
4.21816e-06
1.79805e-15
0.0191856
0.00110091
0.00479893
1.9866e-15
1.93141e-15
5.26114e-15
0.0173219
0.0036893
0.0488937
2.09381e-17
4.22511e-07
2.96668e-15
6.09345e-15
2.80647e-14
1.21577e-15
0.00307575
0.00200574
0.00284151
0.295835
3.79892e-17
0.025515
0.0338192
0.0163043
0.00156871
3.98791e-15
0.00501539
0.00423719
0.00462541
3.38085e-07
0.00960445
5.04145e-15
0.00145731
0.00117827
0.0308039
1.00468e-06
0.0031318
1.15585e-15
0.0169456
2.56838e-15
7.24186e-16
0.00156538
8.89141e-16
0.0058017
2.98666e-15
5.10784e-15
1.00361e-14
3.51633e-15
1.23214e-14
0.000763496
8.71498e-15
0.00053288
3.72643e-15
4.10749e-15
0.0168278
0.00506542
0.00735367
0.00710102
1.91617e-15
0.5455
2.04344e-15
0.0650487
5.79745e-15
0.0166055
0.0221934
0.00220642
0.0528244
1.14071e-14
3.27581e-14
8.17291e-17
0.00204699
3.53844e-15
3.24093e-15
0.0167366
8.36852e-17
1.12719e-15
0.00503041
2.47188e-15
0.011811
6.50681e-08
1.73633e-15
2.14794e-15
1.90583e-14
0.00141923
0.00631978
1.11848e-15
0.0218379
0.000323176
1.04258e-14
0.0945208
7.69225e-15
0.0148297
0.017014
0.00341772
6.07709e-15
0.0169539
0.00938782
0.000805485
0.00497735
0.0113407
5.59847e-15
8.38192e-15
1.69918e-06
8.69325e-16
4.90418e-15
4.15249e-16
0.0186239
0.0463348
0.00421023
0.00202263
6.19584e-15
0.0468259
0.043133
0.00399386
0.00217727
0.0087096
0.0195166
0.00253796
4.74535e-15
1.03892e-15
3.40365e-15
0.00661647
4.39666e-15
0.0237762
1.61774e-13
0.000711296
5.14472e-07
0.00249498
0.0205342
3.91389e-15
1.13751e-15
0.00236364
0.000352977
5.12062e-16
3.2555e-14
8.93813e-16
3.55941e-05
0.000287257
0.000137336
0.000777088
0.00952435
0.0827666
6.5107e-16
4.27581e-15
1.80558e-15
0.00368482
0.0170241
0.0190621
0.0329091
0.00171056
0.00279703
7.3029e-16
4.5363e-16
1.04818e-13
1.29085e-16
0.00889422
0.0209474
3.24456e-15
5.08181e-15
1.19015e-14
2.75412e-15
7.54795e-16
9.61584e-15
0.0129269
3.2943e-15
0.000960359
0.386577
1.262e-15
1.36779e-05
0.0215456
0.000688541
7.70555e-16
1.65892e-15
0.00472721
1.1146e-15
0.0134815
9.44105e-07
0.0230584
2.27692e-14
2.14981e-12
8.19064e-15
1.47573e-15
1.38997e-15
2.29842e-15
0.186578
1.13662e-16
0.00565875
0.00116909
1.28518e-15
4.5165e-15
0.00189881
5.42918e-15
5.63692e-15
0.0124928
0.000120592
1.00658e-15
4.32929e-15
1.72832e-15
0.0160677
1.72082e-16
1.5975e-15
0.000406572
0.00251895
0.00296952
4.4439e-16
2.85607e-16
1.64366e-15
0.00362723
0.00178011
0.0122729
0.00352401
2.38636e-16
0.000741648
0.0113317
0.00613655
6.52214e-17
8.00344e-15
2.58944e-16
5.82477e-15
7.46985e-16
0.0293986
0.00506106
0.0054524
1.63929e-15
3.64461e-15
1.74938e-15
3.16823e-16
4.90053e-15
9.63346e-07
0.000206981
0.00215008
4.38748e-15
9.77281e-16
9.55042e-16
2.29535e-09
0.0328586
0.10899
2.69017e-15
6.92608e-10
2.1273e-11
5.24384e-15
7.774e-16
0.00364203
0.00630981
1.79817e-15
3.98693e-15
0.00268961
2.04078e-15
0.000661241
0.00104421
2.01268
2.85116e-16
2.46671e-15
0.0112327
0.000507552
5.33489e-15
0.637487
0.00056435
0.00617553
8.67338e-15
1.99349e-14
3.04753e-16
1.92541e-16
0.00792484
9.17059e-05
8.72825e-15
0.0236794
0.0181645
0.833016
2.40257e-15
1.49536e-15
9.25748e-16
1.53057e-15
0.00640452
6.52578e-08
3.8551e-16
4.86266e-15
0.0177879
0.000783765
0.00470886
2.83216e-15
4.75829e-15
0.0274685
3.87306e-16
6.99826e-16
4.79726e-16
3.54615e-15
0.0208884
4.82047e-15
2.66513e-15
1.10845e-14
0.0247819
0.0116871
1.09656e-15
4.62731e-15
9.53972e-16
0.0146587
1.78506e-07
3.84445e-15
3.45499e-16
2.35044e-15
9.31768e-16
0.0022754
0.0104835
5.56037e-18
0.00195269
0.00104198
0.00456991
1.10276e-15
1.53121e-16
4.85676e-16
5.71708e-16
3.5523e-16
0.0187218
8.78362e-16
0.0140616
9.52607e-15
0.00145903
2.40456e-16
0.00228605
2.31011e-15
1.15065e-15
0.00974342
0.160752
7.18572e-15
0.00341204
3.31979e-15
0.000362227
1.49029e-14
7.7175e-15
2.2586e-15
1.23869e-07
1.20127e-15
0.000308468
2.97955e-16
0.0338576
1.50564e-14
1.62114e-14
7.44515e-16
4.13147e-15
7.46468e-06
0.000127374
2.85169e-16
0.00516388
4.19878e-16
0.00272973
0.0177865
0.0012165
1.19043e-15
4.44119e-06
0.000423489
2.05703e-06
0.00419973
3.23563e-07
0.00159012
2.45352e-14
1.74873e-15
4.22231e-07
0.00536301
0.000231244
2.5165e-14
3.5264e-15
9.41274e-15
0.540207
4.18242e-16
2.71115e-15
1.45433e-15
4.76123e-17
4.89942e-16
3.09129e-05
0.000172529
0.000953605
6.37804e-05
9.2907e-13
0.00130578
4.83817e-16
0.00533279
3.71345e-15
1.55758e-16
5.08121e-15
2.40338e-14
1.53436e-05
4.20544e-15
8.57645e-15
2.70744e-16
0.0139611
5.30166e-16
8.19257e-16
0.00981392
5.6131e-15
0.0684053
0.11644
0.524394
1.29908e-15
0.190719
1.10306
1.14247
0.619246
1.23054e-14
1.24317e-15
0.00463558
0.00438012
3.71356e-15
0.00875874
6.00468e-17
0.0304822
7.24542e-15
2.51324e-15
0.000666066
1.09484e-15
5.09735e-16
9.81946e-06
3.72387e-05
1.34136e-16
3.31703e-16
2.33838e-06
5.62036e-15
6.36522e-15
1.87644e-05
0.00771016
0.00141058
1.45227e-15
0.00725838
4.69355e-15
0.00327959
3.929e-07
0.00681083
1.84706e-15
1.35615e-08
0.00526826
1.00045e-14
1.47964e-09
9.04653e-16
0.0305292
7.34433e-16
0.00914472
1.95462e-16
1.48075e-07
4.16712e-15
2.37038e-15
3.7478e-15
7.42925e-10
4.41908e-10
7.07535e-15
0.0113864
0.0084138
1.64875e-17
4.09351e-15
0.0304893
0.0162797
0.172928
1.71038e-15
6.40357e-05
0.0235404
0.0433671
5.63357e-08
3.77371e-16
0.0539477
2.77862e-15
0.212958
7.13404e-16
3.42581e-08
3.3242e-08
2.47145e-15
5.22587e-05
1.72026e-15
0.0188552
5.81548e-15
4.63376e-15
9.20485e-15
3.12739e-15
2.08077e-15
9.0791e-16
0.000248315
0.00178488
0.126326
1.97496e-14
1.66783e-14
0.0383442
1.82771e-14
1.55083e-17
7.98363e-16
8.57007e-15
2.16208e-14
0.00538681
1.41624e-15
1.82312e-15
1.00185e-16
0.00299557
5.62202e-15
2.46441e-15
2.57244e-15
0.00297366
2.81985e-15
0.00555254
0.215141
0.00487611
0.00506845
0.0243514
2.56238e-16
1.26422e-14
2.66237e-15
0.0028689
0.00163993
9.77421e-16
1.62565e-14
0.000542539
1.11865e-14
5.3945e-15
0.310294
2.6124e-15
0.0203321
1.00425e-14
0.00216303
0.00309164
2.90608e-15
4.65391e-16
7.5401e-15
1.30809e-15
2.33786e-15
0.0172695
4.57593e-15
0.00424138
1.65865e-15
1.04414e-15
0.00629432
4.15967e-16
0.011771
6.10294e-15
3.63819e-16
0.00216955
6.56468e-05
0.1296
3.68146e-16
2.41363e-15
5.72935e-16
0.00308407
0.165526
2.72479e-15
2.86175e-16
2.14522e-15
0.00135982
5.42081e-15
0.0180308
0.0284939
3.38335e-15
1.90379e-15
0.00649634
1.34945e-15
1.44063e-15
5.91269e-16
4.47271e-15
1.00524e-14
0.062676
7.33607e-14
3.09472e-16
2.01019e-15
6.05878e-15
6.62515e-15
1.84653e-15
2.78344e-15
9.78627e-16
2.41473e-14
0.00682896
1.02364e-14
0.00768541
2.28511e-14
5.3711e-15
0.53674
0.00245804
3.51957e-15
2.80088e-15
8.56532e-16
0.00217224
1.43551e-14
1.82331e-16
5.31216e-15
1.71308e-15
0.00664693
4.52267e-16
0.00440576
1.02743e-15
0.00891679
1.58406e-15
0.0526978
4.32035e-15
1.95135e-15
0.0195215
8.39437e-16
6.859e-16
0.0248237
0.000264629
1.75138e-15
1.062e-15
0.0337454
0.00930357
0.00581554
0.000748702
0.00162937
0.0160076
0.000911973
0.00455097
1.46857e-16
0.0258511
1.52147e-14
4.11151e-14
1.30033e-16
1.35429e-14
5.23985e-15
0.0093458
1.69516e-16
1.15672e-16
5.21295e-17
3.39486e-06
8.01406e-06
1.24226e-13
0.00216682
2.01798e-15
0.00381263
5.431e-16
1.13971e-06
0.00284163
3.73006e-13
0.0408881
4.40728e-16
1.33257e-15
1.79139e-15
0.002656
0.0011909
1.17852e-15
4.55022e-15
0.00223275
4.31857e-16
0.610546
3.5869e-16
0.0929754
3.52659e-16
5.48857e-16
4.83098e-15
1.06017e-14
0.00896585
5.85087e-15
3.60226e-05
5.16309e-15
0.00898833
3.70155e-15
1.69992e-16
4.40082e-12
2.27745e-13
6.79824e-15
1.37473e-14
1.06929e-15
7.11109e-15
0.00392066
0.176738
2.35189e-14
4.44913e-15
0.000345744
2.10273e-15
9.58191e-15
1.02204e-06
0.0157126
0.000140522
2.39652e-15
0.000605631
0.00310085
0.00477325
0.00761081
5.28522e-15
4.76648e-16
3.41462e-16
5.05213e-16
1.16283e-16
9.32752e-15
1.81386e-15
8.35627e-15
2.54277e-15
2.11081e-15
7.16268e-16
7.02142e-16
0.0690859
3.5637e-15
3.25733e-16
6.75315e-11
1.68053e-15
8.03331e-16
1.0176
4.52699e-15
2.19323e-15
0.00180977
1.58043e-09
9.43402e-16
4.99337e-16
1.86832e-16
0.021018
9.34091e-15
3.88599e-16
4.66859e-08
8.96804e-16
1.58997e-15
1.9794e-16
4.96545e-15
0.10879
1.01079e-15
0.000159705
1.8847e-16
3.24774e-15
7.44235e-16
2.36036e-15
5.8697e-16
1.77108e-08
3.26964e-08
0.000104998
1.82323e-15
1.70687e-15
8.68107e-15
8.55355e-08
3.14219e-15
2.74741e-07
1.02576e-08
3.4847e-15
2.2931e-14
2.97433e-14
5.08745e-09
2.13692e-15
2.34262e-15
2.06665e-09
2.90219e-14
0.0292636
2.97703e-15
0.00644732
2.68962e-15
2.15405e-06
6.16166e-16
0.00135859
7.51012e-16
0.00386289
0.0237033
2.50335e-15
0.00237782
1.30201e-05
1.8867e-15
0.00994245
4.10171e-17
2.07514e-15
2.01089e-15
1.52868e-15
1.08192e-14
2.03939e-16
2.61931e-15
8.28312e-17
0.261918
1.02928e-14
2.87589e-16
4.19939e-17
2.72806e-15
1.25598e-15
0.0299902
0.772748
2.8711e-06
1.07048e-05
2.44051e-16
0.00193284
0.00134283
8.67453e-16
9.07668e-15
2.06465e-14
1.58024e-16
1.71078e-15
4.34588e-16
4.80095e-15
1.149e-14
0.000369094
2.68278e-15
1.88897e-15
0.000202282
3.25563e-06
3.53302e-14
0.0246413
2.2608e-15
9.96701e-16
7.40539e-15
0.162783
1.15492e-14
1.69918e-16
0.0241095
4.44596e-15
1.26237e-14
7.52236e-15
4.905e-16
0.0517525
3.17091e-16
1.12501e-15
2.54393e-15
4.23928e-15
0.00571403
0.226683
0.0276224
0.042277
0.00355796
0.00023619
3.69246e-15
5.57309e-15
0.133194
0.00127619
4.09841e-14
8.10986e-08
6.02434e-16
7.41305e-11
9.52057e-16
0.206778
9.06523e-16
2.37961e-15
0.000218527
1.71137e-10
3.16665e-16
0.00998602
2.63777e-15
1.13125e-15
0.1991
0.0289306
1.04272e-15
1.33301e-15
9.20776e-16
4.71939e-15
4.52926e-15
1.69483e-15
6.37549e-16
7.56827e-16
0.00311704
6.25922e-16
5.2673e-16
5.95884e-15
1.32468e-05
1.7229e-15
3.53383e-15
5.0535e-15
8.18759e-16
1.70506e-14
2.13752e-15
0.00320959
7.4393e-16
9.95384e-15
0.00486223
4.30683e-15
0.000367573
0.00458526
2.91951e-16
0.00330213
1.53697e-16
2.32078e-14
3.46008e-17
1.07383e-13
4.3301e-15
9.49093e-16
3.76268e-16
1.69255e-16
0.00226032
1.20608e-14
1.78909e-15
6.41636e-15
2.51249e-15
3.39564e-18
3.21517e-15
0.0363302
6.2487e-16
1.9247e-15
0.338081
7.187e-16
2.67842e-16
6.14878e-15
0.00120061
3.65889e-16
5.56147e-06
6.84253e-15
5.38276e-05
0.00808651
7.39574e-16
5.50842e-14
0.0398942
5.4559e-14
2.45489e-15
0.000118349
6.49671e-07
0.0098271
2.1424e-06
8.0806e-07
1.16008e-07
1.57375e-14
3.638e-15
0.000969547
0.000128546
0.0167059
0.0119437
3.0371e-05
1.9271e-15
0.0054837
0.00505002
0.01822
2.08934e-14
0.0121628
0.0166083
0.0026493
0.00134366
0.00113524
0.00324495
0.0189931
0.039995
0.00714725
0.0109832
0.00794081
6.71252e-16
0.00283612
0.00360079
0.000810258
0.00268596
0.0142903
0.0135934
0.0196645
3.63812e-14
0.0106889
1.76911e-14
0.00491308
0.00275411
0.000289227