/*--------------------------------*- C++ -*----------------------------------*\
  =========                 |
  \\      /  F ield         | OpenFOAM: The Open Source CFD Toolbox
   \\    /   O peration     | Website:  https://openfoam.org
    \\  /    A nd           | Version:  10
     \\/     M anipulation  |
\*---------------------------------------------------------------------------*/
FoamFile
{
    format      ascii;
    class       volScalarField;
    location    "52";
    object      SgT;
}
// * * * * * * * * * * * * * * * * * * * * * * * * * * * * * * * * * * * * * //

dimensions      [1 -1 -3 -1 0 0 0];

internalField   nonuniform List<scalar> 
59698
(
0.013179
1.39499e-14
0.000580715
5.81124e-09
0.030555
1.39887e-17
0.00213657
1.18047e-08
4.02034e-16
1.19983e-16
1.70181e-15
0.000496273
3.64489e-16
3.27815e-06
0.000360446
1.00818e-16
6.93087e-06
0.000473547
0.000405865
0.000256014
0.00138438
0.0142766
1.19977e-07
3.22434e-17
0.0422395
0.000344
0.000466868
0.00762937
0.00676123
0.00748986
0.00481446
2.42327e-16
1.44132e-16
0.01243
0.00250594
0.000421485
0.019136
0.0205377
1.52998e-15
0.0225935
0.00863473
4.79434e-18
0.00369318
0.000643095
5.45206e-17
0.0322306
0.000954368
0.000731231
0.00024905
0.000625893
0.00151843
0.000274716
0.00025859
5.04785e-06
0.00920703
0.000360508
0.00132347
0.000212832
0.000805851
0.00287119
0.00345853
0.000500142
0.122482
0.000268269
0.0124732
0.0016041
9.94906e-16
0.000813247
0.000713873
4.77692e-15
7.85452e-10
0.000250981
3.81814e-06
0.0422236
1.59804e-18
0.0394512
0.000119186
0.00922605
0.000358428
0.0061649
0.00881053
0.000479116
4.35822e-16
0.000445589
0.00843156
0.000553775
3.67924e-06
2.13142e-09
0.0630936
0.0001288
3.78986e-16
0.00206576
0.0146571
0.000137711
0.000111912
0.00015341
0.00525498
2.92547e-11
0.000266524
5.02503e-19
0.0728946
0.00177885
0.0161919
0.0119612
1.0549e-05
9.38151e-16
0.000746731
5.68253e-06
7.6728e-16
3.38907e-16
2.25141e-05
7.49119e-06
0.0378739
4.72444e-18
1.90155e-16
8.16247e-16
6.99998e-17
2.82168e-16
4.31947e-16
4.42089e-16
3.97211e-16
0.00070517
4.42932e-16
3.97282e-17
3.55016e-16
1.18659e-15
0.0108129
5.66539e-17
2.6701e-15
2.08736e-16
0.0419086
5.31154e-17
1.04937e-16
0.100038
0.00434212
0.00438598
3.10393e-16
1.21135e-16
0.000273236
0.000131152
0.000481902
3.48146e-05
0.000178256
0.00267572
9.43244e-17
0.000690808
1.06379e-16
1.28604e-15
9.55572e-16
0.0292692
4.2104e-05
5.88393e-16
0.00146058
4.13877e-16
0.000161027
0.000342956
0.000526824
6.20682e-16
0.0124181
2.75425e-16
0.000860409
1.93005e-15
0.0163912
0.00162993
0.00342806
0.0323804
0.000913344
0.0716008
0.00047772
0.000411845
0.0119481
2.34407e-08
0.0108228
0.0147875
0.0791897
0.000725603
1.12961e-17
5.02305e-05
8.62216e-16
0.00637148
0.00948936
0.0184133
0.0148498
2.28002e-16
0.0455577
0.000234293
0.0114729
9.90432e-05
7.59718e-16
0.00118162
0.00040734
9.93162e-05
0.00266772
0.038615
0.00410826
3.33666e-05
0.00985746
0.0558068
1.43694e-05
0.0077285
1.60176e-14
0.00619509
0.0211009
6.6895e-05
0.00694317
0.000327596
0.00615219
0.00079746
0.00511065
0.00801838
0.00012877
2.3584e-05
0.000161181
1.07119e-17
0.00407179
1.12955e-15
1.09536e-09
3.60941e-05
0.0128193
0.00666321
0.00559217
0.000509615
3.5382e-05
0.0665271
0.000825054
0.0236846
0.0073144
0.00323567
0.00692866
0.158447
7.99979e-17
0.00468844
0.00294045
0.00319246
2.01906e-15
0.00960725
0.0831849
1.84799e-05
1.81706e-09
0.000449413
4.26545e-17
0.00147628
0.0134826
2.43179e-17
0.0060863
1.53395e-09
0.00375399
0.229581
0.00122229
0.000521866
0.000704431
0.0016489
0.000628769
2.17575e-15
0.000644379
0.000694025
0.00600367
0.00128889
0.000187808
1.92293e-16
6.93117e-06
5.34351e-16
0.000389283
0.00320704
0.00113809
0.0478989
2.5999e-05
8.81178e-15
0.000863346
8.73995e-16
0.000370316
0.0440817
0.000153366
4.11043e-16
0.0180112
0.000205313
3.67173e-17
0.00050865
0.00209924
2.03603e-16
3.12181e-16
8.873e-09
0.000621293
0.105335
0.0460224
0.0202305
0.000135227
3.33271e-10
0.0731982
0.000445092
0.0906268
1.57903e-05
0.000580506
0.000257278
0.000319999
2.49394e-08
0.000356836
0.000804815
0.00420563
7.6297e-06
0.00272205
3.03294e-17
6.58752e-17
0.000831122
0.000462816
0.000566464
0.0520081
0.00100954
2.02881e-06
0.000344605
6.27623e-17
3.46606e-16
1.35694e-07
1.27631e-17
2.03377e-05
0.00513293
8.96041e-17
0.000392507
1.7814e-17
0.000803711
0.00033953
0.323441
0.000320132
3.88508e-17
0.0478007
0.0104583
0.000327531
0.000352722
0.000439817
4.37826e-16
0.00649788
0.00416156
0.0203501
0.205582
2.67637e-15
1.87617e-05
9.12331e-06
0.000663595
0.00910427
0.00327721
0.0102562
3.98321e-06
0.00017088
0.00147801
9.68295e-05
2.44617e-16
0.000101839
0.0394107
7.59867e-05
1.44605e-05
0.00799539
6.89263e-13
0.0402607
8.27833e-18
0.245542
0.000253021
0.0141976
2.22218e-15
0.000295493
5.47526e-16
6.08424e-10
8.82027e-06
2.30318e-15
0.000889891
1.52317e-16
3.00527e-18
0.000289243
1.32686e-05
0.000286084
0.0016698
0.00188945
4.4854e-16
1.29127e-12
9.41254e-18
0.00619868
8.16618e-17
0.000120538
2.45202e-16
2.92567e-16
3.06939e-15
3.50935e-18
0.000106433
0.000367349
0.000524413
0.000206396
1.27962e-05
0.000211373
2.60956e-16
3.67341e-16
0.0002342
8.71818e-05
4.10304e-17
0.00126995
0.00258807
0.00128241
0.000473989
0.0480257
4.73344e-11
1.17794e-05
8.0195e-06
0.00040906
2.22563e-05
7.01429e-06
3.25357e-11
4.57568e-10
1.59337e-11
0.0820537
0.025351
2.25017e-05
0.00542997
0.0316898
2.2161e-15
0.000146624
2.13265e-15
1.23494e-16
0.0591173
1.80273e-16
0.0103361
0.000503651
8.30607e-05
0.000115616
2.71193e-16
3.61354e-05
0.308429
1.25315e-15
6.77745e-16
3.81578e-16
0.000220469
7.15876e-15
5.83557e-15
0.000258817
0.000189741
0.015184
0.0030307
0.00212965
9.76545e-17
4.39139e-15
0.212053
2.37765e-12
0.00105988
2.51861e-19
4.70061e-05
4.18234e-17
0.000477624
1.58355e-09
0.00240757
0.0700091
6.39683e-17
0.000237979
0.0090673
1.00826e-05
0.00042398
5.89102e-05
0.0328154
0.000283668
0.000409164
0.108512
9.42168e-17
0.00963688
4.87908e-16
0.0543665
8.3924e-16
0.0125163
0.0133239
1.03091e-16
0.000973568
0.000443566
0.0084642
3.32449e-05
0.00804171
0.000447264
7.58178e-16
4.13546e-15
1.24236e-15
0.000385619
0.00081241
0.0011205
0.0690404
0.00321172
0.000256528
5.32659e-16
0.000499184
0.000210849
3.07773e-15
0.00538488
0.000393328
0.000456088
0.000445775
0.0658361
0.00179328
0.0231622
0.06656
0.00109476
0.000242845
0.0544785
0.000107569
1.45531e-07
4.01553e-05
0.0094263
7.64242e-16
1.50437e-15
0.0644378
0.00714556
0.00459678
2.80961e-16
6.64133e-16
9.78317e-16
2.09429e-16
5.24081e-17
0.0031449
0.000586258
0.074823
0.00737738
1.12587e-18
0.00909087
1.17359e-16
9.83471e-17
1.14144e-15
7.12934e-18
8.60713e-17
0.00542522
0.00378383
1.69963e-16
2.22351e-16
4.05463e-16
0.00125177
0.00953625
0.000521264
0.0072752
0.000193044
1.53084e-15
0.0389099
3.11397e-18
0.000418809
6.50043e-08
2.84061e-15
1.24269e-18
6.72231e-05
0.000287762
4.19817e-16
0.00970915
0.00024156
1.4088e-09
0.0676078
0.00819637
0.0135492
0.010013
6.30496e-06
0.0117277
3.83565e-07
1.88466e-15
1.12508e-15
3.76631e-15
1.28902e-16
6.08728e-05
6.81203e-15
6.54517e-15
0.00115421
0.00688506
0.000449821
4.45562e-16
8.12722e-16
2.57343e-15
8.16775e-05
1.6346e-09
1.81537e-17
0.0743624
1.60548e-15
0.00551732
4.65679e-15
0.00288513
0.0012459
1.35208e-15
0.00260024
0.00286936
0.00338352
1.80345e-16
0.00403058
0.00011559
2.04664e-16
1.2462e-18
3.33156e-07
0.00201357
0.000298779
0.00404939
2.85625e-15
0.00242982
0.00051941
0.00418629
0.00268166
0.00216452
0.000157367
0.00049306
0.000143308
1.43761e-16
5.68543e-14
1.27454e-12
0.0016861
2.92684e-17
8.38977e-17
0.00516777
3.36763e-05
5.08814e-15
7.38708e-15
0.00148192
0.00216218
0.000591609
1.13488e-17
7.40437e-05
1.18191e-15
3.54345e-16
0.00054836
2.07186e-16
0.00434035
0.00140661
0.00279163
1.55468e-16
0.22572
1.87957
2.13225e-16
1.80218e-15
0.00059832
0.00213814
0.000920367
6.16527e-05
4.86658e-05
0.00444627
0.00246068
0.00319198
0.00156212
7.39324e-05
2.08221e-15
0.000249863
0.0011429
0.000306816
0.00132661
0.000237725
9.80646e-17
3.77542e-16
0.106199
0.000237551
2.50037e-05
5.27738e-15
8.328e-16
0.00242967
0.00381065
7.06376e-06
0.000336426
0.000306092
2.97992e-15
1.07407e-15
0.000547869
0.00827908
0.000803461
0.000584543
0.000236923
6.05316e-16
2.81232e-07
0.000325973
0.000209235
0.000307881
0.000809993
0.00088221
0.0197924
0.0900954
0.00137074
3.82851e-05
3.25992e-05
8.78022e-05
0.0415036
4.74419e-16
2.12824e-05
0.00116541
0.000113812
0.000656711
0.00168453
7.7777e-18
0.00824498
0.0473159
0.000481131
0.000422188
8.21944e-05
4.99169e-19
4.44091e-17
1.09341e-05
9.84804e-17
0.00215157
0.000389493
0.000191554
0.00861783
0.00441262
0.0362456
0.000806345
6.99009e-05
2.02395e-05
8.11977e-05
0.000244156
0.00117667
2.03419e-17
0.000778308
1.11407e-16
1.36113e-16
0.00660946
0.000820793
0.000616764
6.99595e-16
0.00634794
1.15026e-09
4.39827e-06
2.44387e-16
0.0015676
1.12669e-17
0.000502677
2.00479e-15
8.65406e-16
0.00195777
0.00922347
1.31126e-09
1.05106e-15
6.24922e-16
0.06044
0.00080679
1.87399e-09
0.000951033
0.00146159
0.0256793
0.00694819
3.87188e-15
0.0557976
8.35168e-10
0.00255355
2.50946e-16
0.00769495
7.07689e-05
9.62761e-18
0.0111841
0.00018738
3.06006e-16
0.00308511
0.0596254
0.000191378
6.96009e-05
0.244685
6.49482e-06
0.000743041
0.0024013
0.00191088
0.00173755
5.0745e-06
0.0133268
1.57366e-16
0.0599357
0.00317386
0.0225117
3.78616e-17
0.000210832
0.104944
0.238412
5.0477e-15
1.03792e-09
0.0501116
6.11749e-17
0.00225883
0.00516543
3.91512e-05
0.0060905
0.00405875
1.64343e-16
7.39243e-16
0.00197369
0.0142452
7.36292e-16
6.42752e-16
2.09186e-05
1.294e-15
0.00435995
1.35504e-09
0.000206003
0.00608032
0.00521882
1.23475
5.00134e-17
0.0247054
0.00975223
0.0210485
0.00104928
0.00475656
3.47726e-16
0.000980217
0.00158544
1.71071e-09
0.00657764
0.0111224
0.103639
0.000320941
0.00543296
5.23704e-15
2.58338e-15
1.79794e-14
0.00018578
0.000274614
2.00671e-15
0.000438495
2.36404e-09
0.0095098
0.000141649
0.000730457
2.79617e-06
2.91811e-16
0.0068441
8.39083e-16
1.61017e-15
0.000494511
8.11651e-11
6.38785e-05
0.0137234
5.1267e-16
0.000316419
0.0198641
0.21022
0.000549085
0.00872388
1.2626e-09
0.000668578
3.83716e-15
1.71139e-15
0.00167592
0.000845505
0.0075158
5.75057e-17
0.0062773
1.27523e-05
3.57892e-05
1.48398e-16
1.60157e-05
2.5077e-05
3.91432e-06
6.41527e-15
6.86898e-05
0.000207894
2.51084e-15
1.7809e-15
5.79371e-15
4.94529e-15
1.58936e-15
0.00204007
1.06168e-08
0.00153129
8.1148e-16
0.00406089
1.82876e-07
4.98619e-16
0.0159053
6.2067e-16
3.92e-07
1.11108e-16
0.035585
0.00489032
0.000878696
0.000207747
2.81056e-12
0.0105887
4.47174e-17
0.0098259
1.46656e-11
5.21951e-15
0.0004852
7.99037e-07
0.000707603
1.33188e-14
9.93713e-05
4.46337e-16
0.0089271
4.7756e-18
0.00205183
6.11574e-18
0.000690158
6.50987e-05
0.00164885
0.000596106
0.000177661
4.80699e-12
0.00202449
1.0385e-16
1.28395e-16
4.33364e-12
0.000797607
3.70942e-12
0.000264154
4.70718e-15
0.000267437
0.00372691
0.0182831
3.88539e-16
0.00105711
0.00296996
2.43878e-09
0.0028124
5.65357e-16
1.08418e-17
0.00448926
0.00014898
1.03849e-18
3.48574e-15
0.00161897
2.90182e-17
0.00263216
2.95975e-15
5.8562e-16
0.065491
3.98655e-16
9.15674e-16
1.12199e-16
7.95772e-17
1.60401e-17
9.6737e-17
1.28219e-15
3.40281e-16
0.0202283
0.00399666
4.97588e-07
0.0407915
9.26027e-05
0.00133051
0.115351
0.00112861
0.00457525
0.00453406
0.0323748
0.058635
3.70736e-16
9.23195e-07
1.34688e-15
0.0247121
0.000270634
0.000346994
0.00142067
1.6237e-16
1.6268e-16
0.00243383
0.000576729
1.53132e-05
0.00679414
0.00279412
4.43847e-17
8.29991e-05
0.0251239
0.000744588
0.000383855
1.22792e-15
4.45752e-14
5.66175e-05
0.000483859
0.00106367
2.57303e-16
0.000409335
4.74807e-16
8.25736e-16
0.000431416
0.000281397
0.00544085
8.44211e-17
0.000172831
0.00962674
0.0019098
0.000294477
0.000414229
0.000265974
0.000130067
0.000424021
4.49795e-17
3.04706e-16
6.17086e-16
0.000151713
3.92986e-18
0.000396679
0.0109298
0.0161166
0.0177944
6.74632e-05
8.52403e-06
0.00294858
0.00116716
0.00273848
0.00391681
0.000403138
5.74697e-10
0.000179462
4.38149e-05
0.0110755
0.056561
0.00198659
1.47599e-15
2.02404e-16
1.81685e-17
8.91634e-05
0.00115005
0.000317679
0.00234145
9.35215e-16
2.6625e-15
0.000501918
0.00236677
0.00236045
0.000781794
3.72393e-16
0.0472295
1.67723e-15
1.5682e-05
9.40371e-10
0.020293
5.24514e-17
0.000397359
1.43814e-05
0.00107171
0.000402796
0.00160262
0.00115281
6.90686e-16
1.72043e-15
5.15311e-05
1.15802e-12
0.00547476
0.00952102
0.0100913
0.00816548
0.0052727
0.00586685
5.11235e-16
0.000148955
4.97392e-17
0.00593297
0.0047511
0.00221745
2.07706e-16
0.000118543
0.00393012
0.000249544
0.00161008
9.5894e-17
0.0149315
0.000343839
0.0407268
8.3992e-05
0.733842
0.000427078
2.04952e-16
1.35721e-05
2.35589e-05
1.24266e-14
2.28483e-10
0.00399443
0.00700267
0.00176582
0.000638536
0.00354744
6.27462e-17
3.49568e-19
0.0197356
4.69833e-17
0.000933891
0.00116145
0.00017784
0.000324138
0.00112637
4.20527e-16
1.87358e-15
0.00811657
0.000782321
0.0922682
2.31672e-16
0.000656983
0.0820248
8.26077e-16
0.0087269
0.00277268
0.0252061
1.55689e-05
0.00362495
0.00119738
8.47802e-10
0.00132116
1.09966e-18
0.00123816
4.22527e-05
1.03087e-10
0.000351669
3.5963e-17
1.55744e-10
0.00324241
0.00970768
1.32736e-16
0.00220114
0.000517375
0.000196665
0.0366163
0.0542939
0.00499674
0.000371577
0.00326122
0.459039
0.0239518
0.0262484
0.000571464
1.97276e-17
0.102726
0.000148723
2.81595e-18
0.000528301
0.014423
0.000333711
0.00170633
0.0003303
0.00174817
1.01695e-16
0.00248683
0.00903935
0.00287948
0.00064778
0.000738224
2.18915e-18
9.85488e-17
0.0005414
0.00363455
6.39439e-16
0.00114381
0.000583318
0.00778171
0.00018506
0.114216
0.000327235
0.00118801
3.05637e-15
0.00565975
0.000398878
0.00110761
0.00257434
2.67789e-17
1.45385e-14
1.98951e-14
1.08506e-14
1.29102e-05
4.67354e-11
0.0185621
0.0101763
5.21836e-11
0.00150418
0.0841396
0.00109265
0.00399623
0.000385036
9.81592e-16
0.00369787
0.0363228
0.00896171
0.0026513
0.000183624
0.00191157
0.00336505
0.00297419
0.00373592
0.00536781
3.42372e-17
0.115781
0.0501751
0.000485271
0.000314066
0.000135017
0.000480326
0.000236098
0.0260482
0.00113279
4.99459e-12
0.00230122
0.000372287
3.48819e-16
0.00356163
3.98729e-17
0.00269327
0.00083111
0.00148523
0.00377347
0.000208928
0.0194017
0.000288997
8.63083e-18
0.00363751
0.000183247
0.000401765
0.00211169
0.011854
4.34211e-17
2.7492e-17
0.000374216
0.000263733
3.29695e-10
8.84179e-16
0.000409503
7.80227e-05
9.64925e-05
5.15252e-17
2.88194e-16
0.000853702
1.74523e-16
3.551e-17
9.66136e-16
0.000323084
0.000144129
8.7609e-17
4.49226e-05
3.31874e-16
9.95204e-16
1.7367e-14
4.34429e-06
6.1621e-16
0.00388832
0.103272
0.000407943
0.00479398
0.00168978
0.00173207
9.28854e-17
2.71908e-16
5.56507e-16
0.00830912
0.0200143
0.00286918
1.86261e-16
1.07718e-15
6.12257e-08
4.74854e-16
0.00477172
0.00938951
4.25639e-17
0.00209708
0.00285002
0.00107557
0.00354949
1.78923e-05
0.0145437
0.0019229
0.00254119
9.66325e-05
1.25871e-16
3.7355e-16
5.25805e-05
0.00563915
8.1639e-06
1.71499e-16
5.61349e-10
0.00502677
0.000211674
0.00100869
0.00101631
6.05585e-05
3.35287e-07
0.000394119
0.00389671
2.98462e-07
8.96633e-05
0.0284322
0.00208924
0.000850444
0.000388952
6.21911e-18
0.00101746
3.08938e-17
0.0146547
4.74137e-16
2.17025e-15
0.00120738
3.33003e-17
0.000886569
0.000481592
9.51558e-12
1.1232e-18
0.000215421
0.000360206
7.44959e-18
0.00219618
7.01922e-06
0.000302878
0.000571449
2.42063e-05
8.69453e-17
0.00538692
0.00020239
2.14796e-17
0.0475966
6.52335e-05
2.54819e-09
0.000265697
4.35683e-18
2.28957e-10
1.85343e-16
1.19695e-09
7.9113e-17
4.53312e-10
0.000950784
0.000345053
0.00272918
0.00428843
0.00128602
3.91121e-10
0.0624987
0.000225418
2.7718e-14
0.00214885
0.000800523
0.00342774
1.07564e-05
6.00519e-14
0.35084
1.6291e-09
7.99581e-15
1.71614e-09
0.0229836
0.00304295
2.13888e-15
7.88271e-17
3.86259e-10
0.000588948
0.0363784
0.00217422
0.00868136
0.0117879
3.6025e-17
6.15416e-16
5.69107e-16
3.68114e-05
0.00830236
2.90912e-15
0.075035
1.52263e-16
0.00048141
2.55339e-16
4.34367e-16
3.9524e-15
0.000377861
0.00862186
0.0180599
3.32017e-16
0.00185685
0.00451528
2.31289e-16
0.000241231
0.000990928
0.00197971
0.000393839
0.000808249
0.00748844
0.0106587
0.000591475
0.00160087
0.00265704
3.69154e-05
1.39899e-17
6.90596e-17
0.013759
0.0115957
0.00349726
0.0472947
0.00263568
1.2213e-17
0.0052427
0.000232337
1.30781e-15
0.0010653
0.0223379
0.000285435
0.0206534
0.011642
0.0340345
7.88946e-20
0.100794
0.00885053
0.00173618
0.00463375
0.0651428
0.000402214
0.00282143
0.000454508
0.000468035
0.00802226
0.00112402
6.02236e-16
6.6407e-16
0.000104775
0.0248821
0.292383
0.000137358
0.0089856
0.000290108
0.000143752
3.68077e-16
0.190019
0.000617936
0.286757
0.777968
3.27777e-06
9.79002e-17
3.21275e-16
0.000181665
0.0106814
0.00559578
0.0101425
0.0625068
0.0342693
0.00184455
1.35042e-05
0.0102574
0.011347
3.16146e-16
0.000521545
2.03668e-16
0.000244169
0.000427841
1.31261e-17
0.138349
0.000201982
1.25796e-15
2.65966e-16
0.000261793
0.000181254
1.1612e-17
2.11341e-15
0.477786
0.0313746
0.18513
0.149059
0.00219327
8.33033e-17
0.00665957
0.00125076
4.91574e-10
4.09475e-18
0.0853887
2.88999e-16
3.29821e-06
4.82208e-10
7.95167e-18
0.0164911
2.68295e-10
0.00855033
1.12049e-09
8.6388e-10
1.02686e-09
0.000614403
0.00112459
0.0130192
3.30069e-06
0.00115054
4.79865e-10
0.0148611
1.20854e-16
1.32502e-15
5.92656e-16
0.0134581
0.000150893
0.000165379
0.000122708
0.0314981
0.000503146
0.000196096
1.97527e-16
9.55117e-10
1.0532e-09
0.00307323
2.02831e-16
3.11043e-05
2.45489e-09
3.55234e-15
0.000124804
1.16681e-09
6.23077e-15
0.000209529
6.82228e-16
0.01073
7.9334e-10
8.11765e-15
0.00190206
0.00168348
0.00952585
0.000577416
0.010289
0.000302225
7.71426e-16
7.39907e-17
2.08507e-17
2.7393e-16
4.97812e-16
5.26164e-05
9.73249e-10
1.57942e-05
0.00947623
0.00172681
2.30401e-15
0.0175293
4.34095e-05
0.000205021
0.0145341
0.00622061
0.0123347
0.0131082
0.0033512
3.76643e-17
0.320116
0.0622463
0.000810792
1.31455e-16
0.0147887
0.000911632
0.0242458
0.000103514
1.73291e-16
0.0120036
2.04273e-09
0.00677817
7.61758e-16
6.42896e-10
0.00756454
1.26712e-09
0.0312714
0.355749
0.0011378
0.0548136
6.58304e-15
4.1682e-15
1.57609e-05
1.65173e-06
0.103113
1.29804e-05
0.00163709
0.000465111
7.28456e-16
0.00165484
1.78076e-05
8.58635e-16
4.81701e-16
0.0267755
1.20855e-18
5.75503e-05
0.062003
9.79907e-14
0.00270154
2.66324e-18
3.57539e-15
0.00109462
0.00014502
7.2741e-15
3.38516e-06
2.54732e-15
0.00249213
0.000523545
8.93733e-16
1.86532e-16
0.000857167
5.43008e-06
0.00279358
4.10015e-16
3.58086e-06
0.000624289
9.08583e-05
5.10384e-05
0.0320375
3.02925e-17
5.52482e-05
9.37523e-16
0.00168693
0.0337595
1.45049e-15
2.06724e-14
6.28146e-16
0.000169633
8.49087e-16
0.00195322
0.296541
1.6504e-15
2.84645e-06
4.13075e-05
1.346e-17
3.19669e-15
4.28369e-16
0.000175841
2.06435e-15
0.000844863
5.41649e-16
0.000105411
0.000201263
3.85622e-16
0.0115279
2.10617e-16
7.02211e-17
0.00148094
0.000106595
0.00139203
0.0444663
1.69242e-15
0.000172472
0.000123313
8.53221e-05
0.00010645
2.67708e-05
3.36035e-15
1.07136e-15
4.24307e-05
7.78191e-16
5.30696e-16
3.27786e-16
5.20268e-16
8.47579e-05
0.0226258
7.91154e-16
0.0062063
0.000123159
0.015612
3.79642e-10
0.000118906
0.000428427
0.0043919
2.76301e-16
0.00410599
0.0192766
2.19018e-05
6.18256e-05
3.00621e-16
0.000150132
0.000854498
0.000347075
0.000106799
0.0163146
7.15841e-05
0.0104403
7.80955e-17
0.875202
0.441304
0.000109264
0.0409707
8.15778e-05
0.000388216
0.00939181
1.00697e-09
0.604161
0.0439744
0.00454415
0.000618818
0.02833
0.392737
9.04048e-05
0.0249897
0.00440511
0.00220446
0.122993
0.0441305
0.000575959
0.000958554
0.0259888
0.0487293
0.00411697
0.00031138
0.0320836
0.000206876
0.0139472
8.55774e-15
4.93334e-17
0.00660027
0.000133041
9.38519e-07
0.003914
0.000163695
0.000127083
0.000286019
7.33214e-16
0.00785578
0.0060254
1.07054e-15
0.00044361
0.00170802
2.46718e-16
0.00407223
2.60983e-15
0.0115363
0.0638269
0.00061613
0.0332585
0.000140775
0.00115374
0.000488782
0.000446702
0.0303032
0.00415503
5.57258e-05
0.0273252
0.000303566
6.96145e-05
0.000365514
5.65232e-16
1.0382e-15
0.0053926
0.0259698
0.014662
0.00509723
0.00549718
0.00104383
5.95596e-09
0.000421761
0.00012342
0.000123597
1.34812e-08
0.0017532
3.62736e-05
0.000342397
4.72652e-06
0.000278106
0.000320375
3.13717e-16
0.010182
5.08482e-06
2.24979e-05
0.00339005
0.000274805
5.6169e-17
2.03442e-16
0.00682085
3.08288e-05
0.00505191
0.000442035
0.00428717
4.6573e-05
9.97402e-07
1.10332e-05
2.79417e-13
1.19217e-07
0.00153196
2.5844e-15
3.69379e-16
1.676e-06
0.0346569
0.000165589
0.00427377
1.68891e-05
6.6554e-08
0.000311579
0.00841084
1.89531e-07
1.75969e-12
0.00362523
1.38612e-05
7.99554e-08
0.00190476
1.18961e-05
4.12336e-05
0.00299485
7.91627e-08
0.00599757
0.0290693
3.8002e-05
6.27905e-05
0.00297828
0.000327397
0.00426799
7.54334e-05
0.00615931
0.000357433
0.00280024
3.37217e-16
0.000731122
0.000920866
0.00721362
3.51224e-12
0.0200463
0.00613278
3.77925e-11
0.00138516
0.00159306
0.000250889
5.25382e-15
0.00247664
0.0218969
3.4244e-16
0.0376604
0.000202531
3.25217e-16
2.5784e-15
0.00188475
5.54831e-16
0.000881934
0.0137969
0.0213678
0.0020672
0.00957969
4.82488e-16
2.54313e-16
0.00437799
0.0143447
0.000444835
2.03178e-16
3.21385e-17
0.0822528
0.0418955
1.90016e-07
1.5464e-16
8.96055e-16
1.12882e-15
1.4754e-15
0.0337956
0.00868512
0.015845
3.08634e-16
0.00100364
2.6909e-14
0.019462
2.69687e-17
0.003373
2.97975e-16
0.00104174
0.0202835
3.27202e-05
0.000395347
6.343e-16
1.57527e-15
4.08178e-16
7.27605e-16
0.02372
0.000226702
3.37857e-18
0.0200047
2.05145e-05
2.11207e-16
0.000432689
0.000361571
1.81198e-05
0.0134002
0.000465333
3.20231e-18
5.28608e-05
1.20903e-05
1.16832e-16
8.06791e-17
6.96265e-17
3.52221e-16
1.00449e-16
3.21797e-05
0.0115872
0.00288874
0.000370301
9.71827e-10
0.000292669
0.0602147
1.35589e-16
3.57534e-15
0.0180887
0.00281544
2.23331e-05
0.00332303
3.82677e-14
2.74178e-17
0.0181907
0.00216894
0.0228852
0.000778733
0.0501393
0.0142652
0.000124916
0.0257009
1.54021e-05
0.0893053
0.00325292
9.79622e-16
3.68962e-05
0.256562
0.00480195
0.00100614
0.00309743
0.000159534
0.00335341
0.0308443
0.00853855
0.00287322
0.144364
0.00375374
2.79416e-19
0.0177577
0.0641514
0.0348074
0.00132662
5.69171e-17
0.000210206
2.31196e-05
0.000674448
0.0189898
0.0197303
6.03001e-09
0.0524249
0.0230561
0.000622569
2.01266e-16
0.0137018
0.00324619
0.000716131
0.0504345
0.000534688
0.000113522
0.0107081
0.0108656
0.0218314
4.25496e-16
5.33475e-07
0.0015771
0.0163028
8.59098e-16
0.000573637
0.172761
0.00258089
0.00123642
0.000725157
4.36858e-05
0.00435366
1.37988e-15
0.0186457
9.55943e-06
0.0140996
7.17756e-16
0.00569655
3.56396e-17
0.0164973
2.15045e-11
8.93192e-16
0.00876403
1.82798e-08
0.00661253
0.00771321
5.96902e-17
0.0159244
0.000134133
0.0157002
0.00658342
0.00931973
0.0563182
0.00558999
0.0293374
0.0346537
0.0169562
4.42826e-05
0.00453549
0.000174078
0.000963857
0.000916406
0.00126777
0.0022196
0.000636861
7.61293e-16
5.17196e-17
0.000319287
0.00133734
0.00127796
0.0522807
0.00323867
6.13328e-16
6.91798e-16
2.36056e-05
0.000455125
2.09684e-16
0.00106967
0.0299668
0.00253756
0.00192963
9.57865e-17
0.0169993
4.70857e-07
3.11471e-16
9.89768e-16
0.00021689
0.0346206
0.00686898
0.000519858
0.000721837
0.00447839
0.000221122
5.27376e-15
0.0049416
3.10529e-15
2.91633e-16
3.16327e-16
5.47453e-17
4.52354e-05
4.75832e-05
0.00104566
0.00865884
0.101333
0.000244973
1.55631e-17
6.70508e-06
0.000150487
0.00834969
0.0023991
1.07829e-16
1.38704e-16
0.00318921
8.99996e-16
0.0101075
0.0748878
0.0447434
0.000175138
0.00052572
4.97837e-16
9.57669e-16
5.51388e-05
0.00391729
0.000448067
0.000753496
0.0141853
0.00193593
0.000279422
2.24506e-05
0.000414497
0.0298432
8.07876e-17
7.41378e-18
0.0110572
6.11986e-06
0.000560823
0.0046608
2.0806e-09
0.000104782
0.000386098
0.000274098
0.0226981
2.08892e-16
0.000114991
0.000295738
0.00511207
0.000162605
0.000698446
9.28175e-17
0.00128251
0.0095258
3.57173e-05
0.0285969
1.71257e-15
4.95997e-05
0.00240694
7.41502e-05
0.000334798
0.00347935
0.00119955
8.8731e-16
4.49723e-11
0.00180915
1.92081e-16
3.01302e-17
6.72368e-05
0.00334207
9.28436e-05
0.301126
3.93125e-16
0.000953518
3.28198e-16
3.11005e-05
0.000282939
0.00024541
0.00370528
4.92937e-05
0.000572914
7.45134e-05
0.000906737
0.0140387
0.00278575
0.111882
0.000862204
0.0100779
0.0104182
0.0123507
0.00125934
1.08387e-16
6.16898e-16
1.52073e-15
9.91021e-05
7.78676e-17
0.000258125
0.0115231
4.04295e-15
3.49759e-16
0.00376633
6.55052e-16
2.26244e-14
0.0150451
5.60262e-17
5.32523e-14
0.00191077
0.000188742
7.2621e-14
0.00158595
1.21477e-08
0.0243525
0.0132285
0.0102777
0.00190553
0.000139047
0.00158906
2.44863e-09
5.89051e-06
2.02031e-09
5.25236e-20
2.40862e-09
0.0109959
0.00690992
8.33698e-13
4.07698e-17
1.12624e-09
0.000257633
1.34569e-06
0.000341433
0.00411631
1.20646e-15
1.28494e-06
3.07296e-15
1.91976e-16
0.00276562
6.69788e-05
0.000334498
0.00227727
7.663e-16
2.72202e-06
8.53492e-16
6.68307e-18
0.0537808
0.000479729
0.000669268
1.89505e-06
1.22636e-05
0.00221554
6.5764e-17
0.00343707
3.95875e-05
1.83724e-18
8.11662e-18
2.84919e-05
0.019472
0.00321499
0.0241657
0.00159957
0.0512055
2.83011e-06
2.43442e-06
2.46266e-06
6.26069e-19
0.000883314
0.00026049
1.18232e-06
0.000102884
0.000188788
0.0192565
0.000441404
0.00232357
0.00572353
7.24477e-05
0.0108629
0.00361691
5.11106e-05
0.000933811
0.0032025
0.0297037
0.000301669
2.37072e-16
0.0635186
0.00886838
0.00642352
4.14519e-05
0.0625142
0.000270336
0.0152124
3.22864e-05
0.0172887
0.000248419
6.15596e-08
6.91794e-16
5.1356e-06
3.12189e-16
0.0401769
0.0146012
0.0145523
2.34028e-16
0.00231814
0.000423601
9.35025e-17
0.000966205
4.21937e-15
2.34838e-15
6.13927e-16
1.01991e-16
0.000219541
3.27821e-07
0.0360939
0.00308533
0.000346479
4.01338e-15
2.42278e-14
0.00168865
0.000454998
0.00151582
0.000733262
1.4544e-06
0.0140862
0.000252073
0.000665262
0.002051
0.00125852
0.000129694
8.87248e-05
0.000176927
4.47165e-05
2.11452e-15
2.09493e-16
0.000108221
0.000666331
0.000402484
9.48539e-07
0.0168057
0.000215106
0.000579998
0.000677498
5.52616e-05
0.000490823
0.00695262
0.0029013
0.00058585
0.000196637
0.000306727
4.79823e-05
0.00438549
7.38377e-06
0.00752855
0.00039111
2.48059e-05
0.00188436
0.0957991
2.02155e-13
0.000341392
0.000210155
1.76549e-16
3.88275e-05
1.24631e-16
0.000243301
0.000350933
0.00138331
0.00373195
0.000585131
6.78023e-05
2.26049e-17
0.000461106
0.00949197
5.90908e-07
0.000146414
0.000364443
2.98883e-16
0.00039713
0.000194499
3.20528e-16
0.000240767
8.61139e-17
2.08794e-16
7.37627e-13
9.13017e-17
0.000179648
0.120148
8.2786e-06
0.00056517
0.000443662
0.000233465
0.0117062
8.23967e-05
0.00275413
0.000115056
0.000362625
0.00051368
1.92761e-05
0.000172109
1.81496e-06
3.11313e-05
0.000182159
0.000121597
0.0185812
0.000603531
0.000418382
0.000356294
3.41947e-06
0.000227663
0.000122575
0.0026266
7.60838e-16
2.4134e-16
5.08841e-16
0.0011653
9.43727e-05
0.0122653
0.000432414
1.5236e-17
0.000130915
0.000126572
0.0843481
0.000382081
6.74457e-06
2.68558e-17
2.37521e-17
0.000211916
0.000599912
0.026465
0.00862372
2.92697e-15
8.16434e-05
0.0376284
0.0399806
8.02807e-18
0.017931
0.00592234
0.000395738
2.20851e-16
2.50623e-16
5.76941e-17
0.000339501
2.60874e-16
0.0043716
1.99135e-16
0.000162549
2.60907e-05
5.67308e-05
0.00601037
8.87193e-05
3.96123e-05
1.79112e-15
1.00807e-17
0.000199622
2.06571e-17
4.85131e-16
0.99903
0.000185395
0.0193973
0.00306573
5.43941e-16
2.71239e-16
0.0156804
0.00188683
4.80719e-16
1.6267e-05
0.00328408
2.58897e-15
1.09097e-15
0.000416103
7.6239e-16
0.00222379
0.000524765
0.000475439
0.000492298
5.57602e-06
6.93314e-05
0.0197941
0.00282934
0.000591341
1.19661e-16
0.00355099
9.57999e-05
9.36575e-05
0.000243524
0.00921749
0.0125262
0.00413107
0.000755251
0.000175841
0.00253094
0.00190838
0.00204828
0.000465138
0.000228464
7.07938e-18
0.00366982
0.0016905
0.000126552
0.00010826
0.000751646
0.00158763
3.83695e-16
7.92502e-16
0.0226097
1.49042e-16
0.000902126
0.00029608
0.00331135
0.00988042
3.42564e-07
3.51094e-05
0.00551568
6.75456e-12
0.000124946
5.91424e-08
9.05571e-17
2.66032e-16
1.14367e-16
0.0036209
0.0129037
3.68806e-18
0.00606682
0.00161342
0.151768
0.000167617
0.00137899
3.05985e-05
0.00905674
9.12893e-16
8.62359e-05
1.84511e-16
0.0198341
5.0776e-16
0.000513143
0.000695479
1.96965e-05
0.00680324
6.54128e-05
0.0022
0.0168451
0.00697003
5.10972e-17
4.79353e-16
0.0122146
2.33592e-11
1.02389e-16
0.00189939
0.000769988
0.0018886
1.33887e-05
1.75586e-07
0.00463758
0.00325966
6.36162e-05
0.000405852
0.000257555
0.00191911
2.52516e-17
7.65069e-05
1.26021e-14
0.000921245
0.0148974
0.00284737
0.00155373
0.00338401
0.000488317
0.0313835
0.00132356
0.00739996
0.000251176
2.72819e-15
0.000236774
8.66104e-15
0.0004494
4.73897e-11
6.67751e-19
0.00119875
1.21298e-10
0.0373134
0.000764927
0.00787077
5.43248e-05
0.00743937
0.000341667
0.0148039
0.0174537
0.00139809
0.0097666
1.07971e-05
0.000369244
2.82163e-06
0.000595511
0.000254165
0.000348756
3.23588e-11
0.000309717
9.77605e-05
0.00265257
2.63198e-11
5.55983e-05
0.00039001
1.44914e-15
0.0265278
0.000162305
0.000439662
2.05253e-11
0.000255789
0.000722664
0.00540724
7.92865e-17
0.0004242
6.61987e-16
0.00159261
0.00312472
0.000687336
0.0157582
0.0133251
7.45877e-17
0.000206424
0.000161973
9.95584e-05
0.000293212
0.000471865
0.000448279
2.36096e-05
0.000931983
0.000449204
0.00533258
5.77838e-16
0.00117698
0.000533851
0.00837619
0.0052677
0.00868009
3.63976e-16
0.0538643
0.0219298
0.097166
2.04943e-05
0.000145339
3.72154e-16
0.000270534
0.00676179
0.010187
0.0299027
0.0247136
8.83883e-14
3.89384e-05
0.00778004
0.000404069
0.0173747
0.301685
0.01736
0.000342297
0.000449115
0.0161948
0.00158572
3.6516e-08
0.000727896
0.161408
1.37379
6.94148e-05
1.03973e-16
5.32429e-11
0.00343973
0.00105075
0.00185695
0.00270446
0.00196688
0.00211589
0.000882367
2.87754e-06
6.56986e-17
0.000251559
4.7489e-08
5.67027e-05
0.000444095
3.01722e-13
3.10165e-08
0.00319765
0.0110382
0.0040275
3.77474e-08
2.50215e-17
3.31421e-05
6.65081e-18
8.1862e-05
7.29213e-16
0.0088207
1.96496e-16
0.0312388
0.000107681
0.0486187
0.0150243
0.000246584
0.0021586
1.00683e-05
0.00235108
0.00025864
0.000873888
0.0840119
0.000479657
3.32219e-18
5.62089e-10
4.3243e-05
0.00346999
0.00151535