/*--------------------------------*- C++ -*----------------------------------*\
  =========                 |
  \\      /  F ield         | OpenFOAM: The Open Source CFD Toolbox
   \\    /   O peration     | Website:  https://openfoam.org
    \\  /    A nd           | Version:  10
     \\/     M anipulation  |
\*---------------------------------------------------------------------------*/
FoamFile
{
    format      ascii;
    class       volScalarField;
    location    "52";
    object      T;
}
// * * * * * * * * * * * * * * * * * * * * * * * * * * * * * * * * * * * * * //

dimensions      [0 0 0 1 0 0 0];

internalField   nonuniform List<scalar> 
59698
(
286.625
283.15
285.915
283.154
299.925
283.15
292.522
283.154
303.15
303.15
303.15
287.416
283.15
293.717
300.107
303.15
294.067
286.653
286.671
293.808
303.281
302.12
303.149
303.15
295.676
286.433
293.097
298.341
295.692
295.34
300.292
303.15
303.15
298.826
302.362
286.453
283.381
283.468
283.15
297.585
296.231
283.15
296.572
293.847
283.15
296.598
286.676
295.261
294.643
288.965
293.058
286.432
291.896
294.536
294.379
286.468
294.283
302.178
294.245
282.975
291.247
294.301
299.618
286.396
286.782
294.463
303.15
286.793
287.081
303.15
283.15
293.78
283.136
298.548
283.15
297.749
294.536
287.693
291.645
294.142
299.956
292.582
303.15
287.208
303.698
294.504
294.18
283.152
298.894
293.88
303.15
294.735
298.993
292.754
293.187
293.044
299.071
283.15
298.92
283.15
299.123
283.13
285.892
284.492
283.4
283.15
286.708
283.348
303.15
283.15
283.435
283.419
298.877
283.15
283.15
283.15
283.15
283.15
283.15
303.15
283.15
292.837
283.15
283.15
283.15
283.15
295.475
303.15
283.15
283.15
287.534
283.15
303.15
292.789
290.251
291.652
283.15
303.15
286.672
293.463
287.466
293.193
290.853
292.126
283.15
293.582
283.15
283.15
283.15
301.182
283.138
303.15
288.079
283.15
294.056
293.37
286.435
283.15
296.946
283.15
289.667
283.15
290.778
299.55
297.791
296.668
286.55
280.916
299.359
292.198
300.371
283.151
300.937
300.999
285.547
292.81
303.15
283.239
303.15
298.91
302.763
300.403
298.618
283.15
298.739
300.855
300.76
293.859
283.15
294.718
294.356
293.592
296.605
297.471
299.382
283.663
293.947
296.57
303.155
299.377
283.15
284.15
292.419
292.795
299.287
290.951
297.317
295.415
293.575
298.02
293.069
293.709
299.139
303.15
294.872
283.15
283.152
294.062
297.838
296.003
282.056
296.311
283.728
299.27
295.291
299.324
295.842
291.351
295.608
284.997
283.15
296.172
295.179
295.844
283.15
294.823
295.969
293.733
283.152
295
283.15
293.993
289.921
303.15
294.645
283.151
282.93
285.622
293.632
286.783
293.828
294.937
295.143
303.15
286.609
294.743
294.12
295.303
285.147
283.15
303.12
283.15
294.463
294.342
294.821
295.303
283.673
303.15
287.231
283.15
286.338
286.648
303.101
283.15
287.34
293.706
283.15
293.631
293.999
303.15
303.15
283.156
286.922
289.118
295.101
290.697
292.95
303.15
286.052
294.61
301.43
291.283
287.058
286.478
294.888
283.16
292.714
293.622
295.098
283.37
291.44
283.15
283.15
292.608
287.12
287.23
287.814
293.656
294.629
287.142
283.15
283.15
283.173
283.15
293.689
292.672
283.15
293.728
283.15
293.589
293.874
293.367
294.002
303.15
298.329
286.254
294.108
293.715
292.43
283.15
300.174
290.666
298.875
281.571
303.15
293.804
293.627
292.553
298.462
293.828
295.127
295.539
284.651
294.981
298.951
283.15
295.603
301.435
293.63
289.168
292.837
283.15
301.342
303.15
284.232
300.75
302.075
283.15
290.049
303.15
283.151
293.849
303.15
295.005
283.15
283.15
285.984
290.472
285.168
282.756
292.681
283.15
283.15
283.15
296.429
303.15
285.257
283.15
283.15
303.15
283.15
283.877
285.545
293.516
285.409
283.148
293.501
283.15
283.15
285.754
293.818
303.15
294.603
290.767
303.133
301.993
301.768
283.15
283.39
283.397
288.509
295.723
283.395
283.15
283.151
283.15
295.917
293.237
295.685
302.248
297.867
303.15
295.279
303.15
283.15
289.83
283.15
283.576
302.293
302.827
294.383
283.15
290.793
281.979
283.15
283.15
303.15
294.392
283.15
283.15
295.497
302.786
285.301
291.843
287.586
303.15
303.15
298.648
283.15
291.949
283.15
292.19
303.15
287.52
283.152
302.912
294.872
283.15
286.703
299.212
283.374
286.777
294.104
286.317
294.008
287.22
290.64
303.15
284.305
283.15
290.061
283.15
283.964
293.917
303.15
293.569
293.406
291.883
294.112
294.991
295.111
283.15
283.15
283.15
294.05
293.14
302.758
292.119
293.713
294.017
283.15
293.598
291.524
283.15
300.931
291.746
291.874
291.541
291.952
292.875
299.041
290.504
291.381
291.96
292.108
291.855
283.172
291.817
289.573
283.15
283.15
295.181
299.055
294.681
283.15
303.15
283.15
303.15
283.15
290.266
294.708
290.689
283.154
283.15
291.623
283.15
283.15
283.15
283.15
283.15
289.542
293.961
283.15
283.15
283.15
302.996
294.935
285.647
289.843
288.751
283.15
301.511
303.15
290.394
283.167
283.15
283.15
286.368
290.464
303.15
290.008
289.731
283.152
281.274
289.381
291.84
282.234
283.132
290.846
283.147
283.15
303.15
283.15
303.15
283.651
283.15
283.15
295.583
291.515
291.827
283.15
303.15
283.15
283.124
283.152
303.15
286.387
283.15
291.205
303.15
292.068
287.001
283.15
291.898
290.956
293.523
283.15
292.287
295.528
303.15
283.15
283.174
285.284
286.109
292.359
283.15
292.429
286.318
289.744
291.641
291.952
296.414
286.494
286.23
283.15
283.15
303.15
282.782
283.15
283.15
290.924
290.973
283.15
283.15
291.045
291.623
286.231
283.15
291.076
283.15
283.15
292.536
283.15
292.11
291.111
291.143
283.15
297.839
285.644
283.15
283.15
291.152
291.923
302.957
295.263
293.734
290.904
292.231
292.023
292.082
295.599
283.15
286.779
291.364
286.849
292.143
292.076
283.15
283.15
286.915
293.496
292.665
283.15
303.15
292.041
294.043
283.352
293.72
287.226
283.15
283.15
286.973
288.558
291.779
292.001
286.349
283.15
303.147
293.586
292.388
293.668
293.39
291.003
283.795
301.85
291.631
293.48
293.561
291.803
288.933
283.15
293.513
286.291
293.527
286.138
291.682
283.15
295.31
293.229
286.416
292.429
293.507
283.15
283.15
291.897
283.15
291.902
286.801
291.992
295.748
290.797
297.179
293.963
291.73
290.813
293.614
293.62
292.589
283.15
286.912
283.15
283.15
292.549
291.772
287.338
303.15
296.536
283.152
292.091
283.15
293.663
283.15
293.753
283.15
283.15
297.642
289.343
283.152
303.15
283.15
297.845
297.947
283.152
292.061
295.614
297.223
295.52
283.15
296.225
283.151
282.863
283.15
290.55
300.334
283.15
291.069
292.812
303.15
297.638
287.924
284.86
293.813
283.269
297.043
294.589
294.531
283.597
283.45
292.463
286.011
283.15
296.889
293.733
298.113
283.15
292.916
290.231
295.009
303.15
283.152
296.902
283.15
298.216
295.937
292.257
293.834
296.738
283.15
283.15
294.93
294.566
283.15
283.15
292.235
283.15
289.444
283.152
292.241
294.531
294.547
297.363
283.15
293.691
290.472
294.876
295.291
295.319
283.15
284.366
298.819
283.152
288.638
297.672
301.11
293.49
302.772
283.15
283.15
283.15
291.557
291.335
283.15
287.338
283.152
298.046
283.164
292.523
291.713
283.15
282.35
283.15
283.15
287.031
283.15
303.102
298.499
303.15
286.764
284.563
288.593
286.462
282.178
283.151
283.228
283.15
283.15
291.274
294.719
296.696
283.15
295.801
283.515
283.591
283.15
283.608
283.627
283.162
283.15
283.132
283.173
303.15
283.15
283.15
283.15
283.15
291.181
283.156
291.044
283.15
294.639
283.171
283.15
285.397
283.15
283.181
283.15
299.445
295.183
291.976
286.051
283.15
295.902
303.15
295.894
283.15
283.15
292.599
283.149
286.482
283.15
292.047
283.15
284.107
283.15
290.381
283.15
287.456
291.775
294.914
292.689
291.904
283.15
292.102
283.15
283.15
283.15
286.82
283.15
290.4
283.15
294.32
296.329
296.013
283.15
294.113
295.075
283.153
296.744
303.15
283.15
295.887
292.364
283.15
283.15
293.416
283.15
295.883
283.15
283.15
293.582
283.15
283.15
283.15
283.15
303.15
283.15
283.15
283.15
295.907
297.653
293.998
296.713
290.216
294.982
295.624
286.436
291.432
290.745
286.585
292.077
283.15
289.764
283.15
296.545
295.759
291.921
290.3
283.15
283.15
297.549
291.279
290.058
296.143
296.764
283.15
295.39
285.34
293.992
286.646
283.15
283.15
293.38
290.875
293.241
283.15
286.958
283.15
303.15
286.151
291.145
294.478
303.15
290.477
296.67
294.178
293.515
293.856
294.464
295.689
292.889
303.15
303.15
283.15
295.559
283.15
293.569
291.451
302.709
298.56
292.112
295.02
302.154
297.861
294.942
295.857
293.726
283.151
295.695
293.88
290.666
287.751
294.114
283.15
283.15
303.15
283.168
294.723
300.387
294.707
303.15
303.15
290.87
293.39
294.907
292.728
283.15
292.599
283.15
293.741
283.152
298.341
283.15
294.56
295.254
302.797
293.078
293.698
302.792
283.15
283.15
302.801
283.15
294.549
295.193
296.446
295.368
295.984
295.21
283.15
292.911
303.15
295.486
296.535
293.257
283.15
293.21
297.704
285.919
293.628
283.15
295.321
286.281
287.745
294.506
290.775
285.806
303.15
293.57
288.101
283.15
303.15
294.036
294.207
295.976
294.321
289.322
303.15
303.15
293.108
283.15
295.017
294.44
294.31
294.423
293.948
303.15
303.15
284.097
294.31
295.146
303.15
294.08
296.13
303.15
282.45
292.912
283.571
291.988
294.354
286.855
283.151
294.106
303.15
293.781
291.731
283.15
286.741
283.15
283.15
294.389
301.057
303.15
297.289
302.913
292.8
301.658
287.091
291.084
295.271
297.733
297.186
289.456
289.167
286.672
283.15
288.108
292.83
303.15
286.619
300.972
286.852
294.507
294.322
294.939
283.15
302.394
289.609
294.813
294.647
292.522
283.15
303.15
287.05
286.773
283.15
292.944
292.985
294.665
287.172
304.953
287.004
295.046
283.15
295.301
287.451
287.085
294.944
303.15
283.15
283.15
283.15
290.196
283.15
300.817
301.115
283.15
295.896
299.111
302.607
293.686
286.521
283.15
302.58
287.727
300.252
291.913
292.139
295.942
295.797
295.404
293.309
295.261
303.15
286.056
298.846
295.797
292.028
291.526
297.242
291.751
299.008
293.77
283.15
293.663
293.57
303.15
293.363
303.15
292.584
286.361
294.034
292.086
285.975
285.392
286.045
303.15
294.483
291.95
288.949
292.442
293.378
303.15
303.15
293.553
293.424
283.15
303.15
286.317
293.439
294.141
283.15
303.15
292.819
283.15
283.15
283.15
285.263
284.677
283.15
284.968
303.15
283.15
283.15
303.143
303.15
297.274
290.565
286.675
297.375
296.694
292.339
303.15
283.15
283.15
296.919
282.321
296.648
283.15
303.15
283.162
303.15
296.77
284.58
283.15
291.176
297.597
293.491
302.759
297.487
295.752
297.451
291.409
297.621
283.15
283.15
297.486
297.42
294.319
303.15
283.151
291.919
293.734
293.663
294.082
294.363
294.159
286.4
291.255
283.164
300.609
285.594
297.028
303.022
286.406
303.15
294.742
283.15
299.95
303.15
303.15
293.478
283.15
300.651
287.344
283.15
303.15
292.054
287.069
303.15
293.492
291.788
287.062
293.672
302.958
303.15
297.479
293.755
283.15
289.057
292.017
283.153
283.097
303.15
283.151
303.15
283.152
303.15
283.151
297.885
297.781
296.976
297.557
294.289
283.151
286.796
291.618
283.15
292.034
298.052
294.821
296.655
283.15
301.148
283.152
303.15
283.152
297.029
296.294
303.15
303.15
283.151
288.937
287.367
294.299
289.22
289.622
303.15
303.15
283.15
292.114
287.792
303.15
299.754
303.15
287.573
303.15
303.15
303.15
291.7
290.766
299.277
303.15
292.589
292.933
303.15
291.925
287.302
282.683
293.724
283.736
295.847
291.689
292.134
283.311
293.659
292.229
303.15
303.15
285.181
288.645
292.715
283.572
283.278
283.15
289.881
292.549
283.15
295.281
291.707
294.637
287.714
285.224
293.953
303.15
292.175
284.067
290.957
293.994
300.918
291.983
292.387
287.348
286.898
298.106
292.206
283.15
283.15
283.903
286.787
283.754
292.935
284.855
292.867
284.217
303.15
294.026
290.562
288.468
292.595
303.112
303.15
283.15
284.406
294.766
300.639
284.977
285.11
298.431
294.551
284.949
282.316
294.007
303.15
287.369
283.15
283.129
285.157
303.15
297.645
283.152
283.15
303.15
284.93
300.027
303.15
283.15
289.207
295.141
296.497
297.822
283.516
303.15
285.256
291.855
283.151
283.15
293.956
283.15
303.125
283.151
303.15
294.348
283.151
292.605
283.152
283.151
283.152
300.147
298.993
285.917
283.138
299.312
283.151
299.453
303.15
283.15
283.15
296.281
285.773
292.942
289.606
288.105
293.755
293.565
283.15
283.151
283.152
296.748
303.15
293.673
283.153
303.15
288.563
283.152
283.15
288.199
303.15
296.121
283.152
303.15
296.848
302.681
290.215
292.504
286.92
288.125
303.15
283.15
303.15
283.15
283.15
294.163
283.151
283.14
291.899
283.208
303.15
288.299
288.775
287.964
294.286
288.258
294.9
289.063
286.225
303.15
287.422
291.776
292.992
303.15
300.572
292.905
289.595
303.228
303.15
299.158
283.152
290.461
303.15
283.151
290.512
283.151
297.731
297.185
290.166
295.077
303.15
303.15
290.269
290.294
283.933
295.159
283.153
283.576
303.15
283.8
290.224
303.15
283.15
283.002
283.15
290.35
299.826
303.15
290.323
303.15
303.15
283.675
293.79
283.15
283.149
303.15
293.25
292.425
303.15
303.15
291.367
283.127
290.959
303.15
283.139
293.464
290.99
290.991
300.7
283.15
290.994
303.15
294.756
294.263
303.15
303.15
303.15
292.525
283.15
291.124
291.87
303.15
283.14
291.299
303.15
303.15
303.15
292.418
283.15
293.58
283.15
293.787
291.629
283.15
296.132
303.15
283.15
291.547
291.429
291.41
294.109
283.15
293.469
291.777
291.822
293.856
283.14
283.15
303.15
283.15
283.15
283.15
283.15
303.15
293.618
294.232
303.15
285.312
293.663
293.198
283.151
292.945
289.272
297.184
283.15
296.723
295.932
292.533
293.474
283.15
292.19
292.276
293.48
292.184
298.964
293.639
287.268
283.15
304.961
284.026
292.365
300.346
283.134
293.549
291.724
303.15
294.362
296.501
295.239
292.625
301.438
296.232
292.196
298.936
293.102
302.822
297.637
300.378
292.315
285.251
294.218
289.332
294.341
295.909
297.431
292.775
296.666
283.15
283.15
294.748
292.763
283.143
299.538
284.398
288.1
293.016
283.15
297.87
293.71
283.15
293.605
292.486
283.15
295.055
283.15
293.106
298.438
290.303
300.327
292.886
294.443
290.312
293.626
298.44
291.679
291.984
284.623
293.492
291.694
293.361
283.15
303.15
292.483
297.127
298.059
301.572
283.458
292.5
283.153
285.408
291.288
291.144
303.151
291.676
283.729
288.139
283.139
286.289
286.738
283.15
301.99
293.902
283.669
303.187
293.705
283.15
283.15
299.002
283.661
302.103
302.825
294.64
283.544
283.22
292.054
283.15
283.176
293.537
283.15
283.15
283.25
295.156
302.942
293.045
288.179
283.166
298.906
293.007
283.158
283.15
292.334
293.25
283.164
295.254
283.563
302.926
293.265
283.168
291.265
298.233
302.943
284.068
292.71
292.742
298.507
294.065
294.316
288.183
289.74
283.15
294.454
289.08
294.122
283.15
289.331
302.813
283.15
293.351
289.44
293.385
283.15
294.014
299.7
283.15
294.597
292.219
283.15
283.15
293.135
283.15
295.053
287.19
298.572
299.512
289.323
283.15
283.15
294.787
295.977
293.339
283.15
283.15
298.715
285.525
283.177
283.15
283.15
283.15
283.15
296.202
288.001
296.574
283.15
292.864
283.15
299.562
303.15
293.416
283.15
292.994
296.956
283.522
299.682
283.15
283.15
283.15
283.15
299.644
293.626
283.15
301.3
292.08
283.15
293.161
294.342
292.005
289.346
293.414
303.15
294.296
301.439
283.15
283.15
283.15
283.15
283.15
301.37
287.255
290.349
292.986
283.15
283.228
295.981
283.15
283.15
298.919
291.969
290.404
290.571
283.15
303.15
298.538
293.431
294.384
295.705
295.031
301.377
293.37
301.181
295.292
293.014
292.083
303.15
293.603
300.057
295.461
295.698
291.921
302.833
286.648
295.643
293.882
292.403
296.227
295.415
283.15
291.135
292.625
295.759
294.104
283.15
293.358
283.576
296.434
296.081
295.21
296.197
294.308
295.754
294.787
283.15
291.997
295.615
295.821
296.781
300.256
297.333
297.453
297.952
301.224
283.15
303.146
283.145
290.483
283.15
289.788
301.781
303.554
295.262
303.01
303.129
291.143
283.15
292.11
283.436
290.848
283.15
300.592
283.15
291.104
303.15
283.15
293.485
283.157
301.073
295.242
283.15
302.01
294.058
289.243
302.276
286.675
295.42
291.738
292.615
294.614
300.556
302.959
293.23
289.823
289.037
294.072
295.288
294.65
295.88
283.15
283.15
287.114
294.211
294.251
295.787
291.132
283.15
283.15
293.77
292.969
283.15
290.95
294.069
292.898
292.179
283.15
293.403
294.701
283.15
283.15
293.549
286.561
302.167
291.949
299.933
296.657
294.701
283.15
295.965
303.15
283.15
283.15
283.15
295.295
296.771
295.479
294.337
298.691
288.438
283.15
283.142
284.381
291.363
291.602
283.15
283.15
292.672
283.15
296.162
297.877
300.893
295.605
294.839
283.15
283.15
293.845
295.387
293.745
295.512
294.698
289.674
293.413
295.69
300.951
296.703
283.15
303.15
292.58
295.695
293.366
294.711
283.15
293.629
292.144
290.286
290.617
283.15
293.631
293.594
292.923
292.907
295.197
283.15
295.385
290.862
292.433
293.628
283.15
293.628
292.264
293.736
293.558
295.105
295.189
283.15
283.15
295.48
283.15
283.15
296.65
296.178
283.562
297.931
283.15
293.912
283.15
293.694
293.67
292.315
296.018
293.076
296.427
295.431
294.961
299.988
292.902
296.161
295.107
296.789
295.655
293.662
292.866
283.15
283.15
283.15
293.363
303.15
294.007
289.357
283.15
283.15
292.505
283.15
283.15
299.28
283.15
283.15
293.549
292.463
283.15
292.616
283.156
300.842
286.346
287.373
293.278
293.894
293.731
283.153
294.221
283.153
283.15
283.153
291.736
295.921
283.15
283.15
283.152
284.19
288.499
292.319
294.62
283.15
283.247
303.15
283.15
293.612
293.772
293.252
292.015
283.15
283.284
283.15
303.15
287.171
291.353
293.438
283.256
283.446
292.018
283.15
291.374
290.5
283.15
283.15
294.587
293.409
291.669
294.161
293.511
291.614
283.246
283.237
283.262
303.15
283.41
284.987
283.234
290.628
285.052
295.859
293.202
292.066
285.197
292.973
289.283
295.58
291.023
293.908
302.019
294.39
293.607
283.15
294.275
293.173
296.899
293.816
300.489
291.954
301.243
292.647
297.604
285.466
294.611
283.15
293.644
283.15
293.943
295.032
292.917
283.15
293.367
286.33
283.15
292.195
283.15
283.15
283.15
283.15
290.536
292.069
299.342
293.968
293.885
283.15
283.15
291.125
292.775
294.357
294.574
294.047
291.62
292.199
293.623
292.324
294.093
289.77
292.692
292.178
292.133
283.15
283.15
293.604
290.945
290.263
302.664
290.512
292.681
296.797
288.378
285.561
293.402
298.652
303.389
296.196
293.185
285.414
292.498
298.422
293.626
290.081
292.877
293.94
286.387
285.993
283.15
290.074
284.924
283.15
294.029
283.15
291.603
291.414
293.553
293.045
294.727
294.949
283.15
292.26
292.249
293.064
293.148
288.081
283.15
292.643
292.599
283.15
291.21
283.15
283.15
303.15
303.15
292.408
291.998
295.689
293.268
288.705
291.143
297.013
292.259
291.969
290.969
290.815
291.247
290.807
292.431
290.87
292.457
290.851
292.609
295.405
295.467
291.63
294.525
294.509
291.184
292.406
303.243
283.15
303.15
283.15
291.764
292.423
296.103
292.597
283.15
292.773
292.607
291.13
294.38
294.512
283.15
303.15
282.892
292.764
301.987
284.045
303.15
284.18
300.879
294.276
283.15
291.753
293.047
292.883
283.15
303.15
303.15
293.35
283.15
296.671
283.15
295.56
294.344
294.944
293.903
292.689
296.771
283.15
283.15
300.78
303.15
303.15
297.718
293.862
294.849
294.73
283.15
283.15
300.948
292.102
283.15
291.236
291.782
303.15
283.15
292.669
283.15
291.014
292.784
300.842
292.793
292.667
292.655
294.441
292.199
292.682
283.15
292.165
293.717
292.686
296.701
301.952
302.714
293.578
295.796
293.647
293.21
291.447
292.105
300.578
293.038
283.15
291.817
290.467
290.341
290.515
291.801
290.477
283.15
303.15
297.132
283.15
292.498
295.1
291.547
297.937
283.146
283.771
283.663
283.15
293.464
283.167
283.15
283.15
283.15
292.177
294.942
303.15
295.676
284.942
292.898
297.802
298.036
293.769
292.09
283.15
298.076
283.15
296.169
283.15
292.441
298.675
292.778
294.566
298.117
294.134
296.547
293.862
283.15
283.15
296.993
283.15
283.15
291.939
292.562
293.08
293.24
283.173
291.935
291.518
291.253
290.094
295.864
292.069
283.15
292.533
283.15
291.861
299.687
291.872
294.094
286.32
291.135
290.758
292.063
293.865
292.802
283.15
292.375
283.15
292.743
283.15
283.15
290.825
283.151
296.848
292.611
296.33
294.096
295.961
297.504
295.577
287.433
297.248
294.001
295.383
292.957
294.173
297.505
288.38
292.607
283.15
292.726
290.56
294.811
283.15
293.84
288.218
283.15
290.085
292.471
288.054
283.15
291.286
288.352
292.305
283.15
287.78
283.15
295.597
298.739
288.227
302.763
301.08
303.15
293.803
294.232
293.402
295.417
293.445
295.137
293.735
293.676
292.105
302.514
283.15
298.128
290.012
294.432
292.759
300.335
283.15
288.337
300.867
287.184
290.683
290.295
283.15
283.119
291.997
289.971
282.4
293.564
283.15
293.176
296.771
292.32
284.911
291.396
302.415
292.655
292.301
297.37
303.184
283.16
291.65
294.874
290.948
292.732
283.15
283.15
284.315
293.245
294.577
293.099
293.176
291.424
293.448
293.84
283.15
285.292
283.161
300.292
293.15
283.15
283.163
294.659
300.417
290.236
283.162
283.15
298.932
283.15
292.353
283.15
283.222
283.15
297.23
293.225
285.06
297.045
283.143
291.986
292.085
298.612
285.682
292.453
290.681
287.142
283.15
283.149
292.38
293.228
282.637
291.914
292.1
292.432
303.151
293.612
283.15
293.676
285.986
293.089
292.385
292.093
297.343
285.999
283.741
293.364
284.415
283.286
293.706
289.267
293.808
292.321
284.348
293.843
283.15
289.463
297.407
287.149
291.302
291.968
289.301
295.701
283.15
296.35
293.144
283.15
293.352
296.777
292.734
303.15
287.473
295.001
285.602
293.841
285.805
292.046
296.628
288.002
293.075
303.15
286.253
292.078
288.234
285.276
285.176
290.772
285.465
288.548
291.905
294.53
295.59
288.084
289.255
294.608
293.999
293.046
294.637
293.005
293.062
293.931
288.537
299.561
288.967
288.389
287.418
292.953
286.462
302.408
291.906
295.178
292.969
283.15
294.841
291.017
291.255
289.069
283.15
295.854
283.15
292.507
291.778
293.244
283.15
283.15
302.582
296.429
286.89
293.378
293.616
294.453
293.924
303.105
283.15
292.346
283.15
294.41
292.457
292.75
283.15
292.134
284.085
299.055
291.815
293.567
291.556
293.93
290.924
293.926
300.076
292.614
299.593
291.835
299.152
299.226
302.344
302.08
299.498
299.685
299.541
289.059
293.377
292.458
291.828
292.88
288.853
293.548
294.177
290.624
292.554
285.591
292.304
292.822
291.586
290.025
293.514
291.232
301.031
293.607
299.963
301.465
289.118
283.158
293.621
291.982
290.32
299.052
290.776
292.416
293.639
292.127
283.15
292.031
292.101
293.183
293.888
283.15
292.123
290.844
292.779
290.851
292.179
293.902
293.115
292.829
292.12
297.39
293.438
291.735
284.404
285.209
292.186
295.941
283.15
292.866
289.818
292.13
287.733
290.96
283.365
292.853
293.007
301.89
302.255
294.632
293.479
301.093
304.627
292.427
302.209
302.153
283.15
292.458
283.15
292.976
302.346
294.183
283.15
283.15
302.344
283.202
284.626
292.411
292.26
283.153
294.117
283.15
303.081
283.153
296.167
291.862
291.117
291.259
291.29
293.104
291.251
290.52
291.185
293.152
283.15
283.15
294.123
293.049
299.281
283.432
283.475
283.15
287.061
301.447
283.15
301.102
291.143
300.534
283.15
301.546
283.15
298.685
283.15
290.918
290.413
296.689
298.656
297.845
294.225
283.15
293.572
300.221
283.15
291.797
298.938
283.15
283.151
283.164
284.221
299.032
287.923
299.049
291.658
293.102
293.783
295.786
293.055
286.88
283.45
296.74
289.174
295.223
283.15
297.346
283.15
283.15
298.135
297.084
291.275
291.787
297.144
290.271
287.461
297.548
298.818
303.15
292.21
285.574
293.557
304.305
291.275
287.622
296.08
283.15
296.476
283.15
291.654
294.769
297.499
283.15
292.291
293.738
292.176
292.229
293.894
294.095
301.822
283.15
296.49
286.159
297.302
283.823
294.451
283.876
301.913
294.085
295.006
294.906
288.697
295.603
300.136
283.917
283.974
283.152
293.612
299.377
296.647
287.652
288.142
290.75
283.15
294.538
294.229
303.144
295.586
295.695
290.643
299.184
290.291
293.489
303.15
293.352
283.15
283.151
283.15
286.951
294.936
292.375
293.182
292.322
291.102
283.15
293.513
287.95
292.805
294.373
291.287
292.809
289.719
283.15
298.273
295.803
300.583
291.783
283.15
293.016
294.069
284.598
296.428
297.112
292.208
296.633
293.73
296.615
297.105
300.251
295.158
294.382
290.562
283.15
283.15
303.106
303.15
283.15
295.388
290.323
283.15
283.15
303.15
303.15
293.945
294.79
283.15
295.099
295.233
287.267
295.089
294.703
295.179
295.235
295.838
289.765
291.715
292.534
298.636
293.481
293.974
293.039
283.15
302.512
290.592
293.619
287.961
294.033
283.15
283.15
284.946
292.348
283.15
293.989
291.644
283.15
302.717
283.15
283.15
298.257
295.641
303.15
288.093
297.621
300.901
286.345
292.383
295.835
295.991
293.488
294.07
293.253
294.736
292.652
283.15
291.694
296.37
292.357
293.711
297.257
293.394
297.04
293.498
292.401
283.155
283.523
283.15
294.055
295.57
295.034
293.494
300.81
295.223
292.186
292.247
283.15
293.378
293.272
293.099
292.349
289.487
293.28
291.998
303.15
283.171
293.549
294.246
294.708
283.15
283.15
302.451
295.144
297.43
289.868
289.798
283.15
283.15
293.778
293.696
294.153
290.415
283.15
293.291
293.342
292.915
293.005
283.27
293.353
283.15
294.265
295.604
285.174
291.736
291.993
294.497
294.383
283.151
295.974
295.667
295.903
295.668
295.003
295.666
293.419
295.397
295.333
290.223
292.138
291.501
295.212
283.15
294.781
283.15
302.963
294.68
295.689
296.875
285.487
295.171
290.263
285.422
283.15
290.271
293.733
292.035
282.85
283.15
295.036
292.527
292.885
300.069
297.323
283.146
297.868
292.378
300.961
290.298
293.524
283.15
293.578
301.329
296.123
293.604
291.78
295.25
293.153
283.15
294.646
292.585
293.59
293.081
295.622
292.576
283.15
292.313
283.15
293.674
291.948
295.036
292.805
290.912
283.15
283.15
291.121
290.847
290.419
289.475
292.983
296.969
286.998
297.629
286.653
283.15
299.372
290.195
283.15
303.199
283.15
283.15
283.15
294.596
283.15
283.15
289.773
283.15
293.144
294.365
292.63
290.819
291.366
287.301
290.098
297.476
295.796
293.53
297.284
283.595
292.693
288.659
303.15
297.6
293.006
292.284
292.77
294.259
293.109
294.305
292.814
298.151
290.13
303.15
290.13
289.598
287.553
289.974
289.548
291.988
286.346
303.15
292.122
289.722
286.579
292.625
283.15
292.437
293.042
289.994
296.716
293.361
283.15
292.815
293.816
293.749
301.587
289.526
288.658
283.15
293.504
296.617
292.538
294.979
293.39
300.899
291.685
292.828
294.083
289.295
293.876
286.229
295.418
293.769
295.911
283.15
293.825
284.535
302.445
283.15
286.933
295.441
303.114
283.15
294.447
283.15
293.819
296.743
289.411
283.15
291.567
283.996
295.697
283.158
293.879
295.7
294.576
296.628
283.15
293.731
283.15
284.029
303.15
292.459
283.15
288.442
292.837
293.724
292.303
283.15
292.643
287.507
283.185
289.793
293.897
283.15
293.681
290.309
294.441
285.265
293.455
283.15
283.15
283.15
283.15
283.15
283.15
292.695
294.285
283.15
283.15
293.126
294.406
292.37
298.841
290.601
292.71
296.544
283.991
292.653
296.895
297.081
296.912
283.15
292.742
291.796
292.287
284.079
283.881
297.213
287.572
301.636
292.495
292.285
293.775
293.101
292.568
291.73
291.549
283.15
291.698
292.804
293.585
287.025
294.358
288.466
295.19
283.15
292.012
292.523
283.15
283.15
283.15
283.15
292.894
290.048
296.737
283.15
283.15
283.15
292.99
283.15
290.956
296.125
293.561
291.738
283.15
293.704
293.592
291.634
290.999
286.7
287.819
288.538
291.266
291.322
297.694
294.158
294.192
294.443
300.988
285.033
295.93
294.456
285.061
284.942
293.018
293.2
290.689
291.433
296.451
293.126
283.15
291.204
293.436
297.509
285.028
284.687
291.135
295.809
296.945
289.222
292.232
293.933
300.24
293.378
301.682
294.031
292.721
292.561
293.825
283.259
294.117
291.094
287.81
284.091
291.122
293.644
292.664
294.003
283.15
283.15
293.337
283.15
286.831
292.342
293.038
283.712
292.132
293.159
293.942
290.067
284.783
292.071
283.355
283.15
293.384
294.179
294.107
283.15
283.15
293.754
293.202
293.027
301.231
283.574
292.907
288.405
283.15
283.15
288.454
283.15
283.15
293.876
283.15
283.158
283.15
283.15
283.15
293.906
287.43
283.15
283.15
293.817
286.961
293.966
283.15
293.376
283.15
283.15
293.965
287.347
294.095
283.15
283.15
283.154
283.15
293.227
294.243
293.188
293.874
293.72
287.002
293.672
283.443
294.577
294.163
294.019
294.107
294.466
293.462
290.615
294.085
293.623
292.171
294.142
293.776
294.202
283.15
302.495
294.506
295.23
297.195
283.15
295.384
283.15
292.142
283.15
293.666
293.341
295.686
283.15
291.748
296.672
285.763
290.917
298.88
292.078
291.805
290.552
290.809
294.234
283.317
285.352
283.15
283.15
283.15
283.177
286.303
286.164
285.882
290.335
283.154
291.936
293.11
283.15
293.661
293.739
283.15
283.15
293.155
292.218
292.816
283.15
292.424
292.489
283.15
283.3
283.15
295.006
283.15
285.778
294.63
294.113
293.108
294.376
285.479
292.886
292.95
293.013
283.15
284.885
293.063
292.774
283.15
283.15
283.723
283.246
293.32
283.217
284.918
283.15
293.401
293.449
283.746
293.165
293.121
283.15
284.997
290.1
283.15
283.15
292.737
293.8
294.095
294.194
294.095
294.113
294.162
283.15
283.232
283.309
285.299
283.227
289.571
285.503
285.343
290.977
293.996
293.651
283.238
294.118
294.046
294.463
283.15
290.278
283.15
293.588
284.013
291.618
294.142
293.391
284.205
294.29
293.889
284.227
283.941
294.037
283.15
291.418
284.119
293.345
293.835
294.354
293.048
293.593
283.15
292.661
283.15
283.15
283.15
290.626
293.972
292.299
289.99
283.15
283.958
283.15
283.51
288.736
291.641
289.234
301.695
295.523
289.027
283.15
283.15
296.052
283.15
292.966
290.26
283.15
289.023
283.15
291.68
293.279
296.349
288.941
303.15
291.555
283.456
294.049
288.741
295.602
291.085
293.548
290.806
290.978
300.443
283.21
290.837
295.201
291.123
293.517
291.875
290.599
294.364
293.027
293.093
293.408
291.43
293.558
289.681
291.999
293.976
283.15
284.897
289.158
291.542
293.776
291.372
284
284.546
285.091
283.15
285.766
287.987
292.507
293.688
293.695
294.26
303.15
284.991
293.655
296.84
303.15
288.267
293.281
294.029
283.15
290.415
291.728
284.257
288.983
294.026
284.573
285.252
295.335
283.15
293.426
293.24
293.376
293.232
293.547
294.197
293.536
293.763
293.127
293.87
299.043
292.602
292.03
292.151
294.9
292.313
283.15
286.518
293.016
294.088
292.391
303.15
293.624
293.324
283.196
292.35
283.15
293.521
291.238
283.15
283.15
283.15
293.842
283.15
294.737
283.15
292.665
291.902
293.304
291.785
283.15
293.56
293.297
283.15
294.367
283.15
293.968
283.15
294.054
293.954
294.061
293.122
283.15
293.21
292.327
293.729
283.15
288.341
298.853
293.881
293.981
283.15
293.803
283.15
283.15
293.313
295.294
293.837
293.203
294.072
294.109
292.747
286.006
283.15
283.173
283.15
289.491
283.15
293.437
293.071
283.15
283.15
284.821
293.225
294.031
293.525
302.566
293.96
293.906
293.367
294.636
293.856
294.057
283.15
293.848
294.239
294.127
294.101
288.432
294.35
288.661
283.537
286.653
293.882
283.15
293.185