/*--------------------------------*- C++ -*----------------------------------*\
  =========                 |
  \\      /  F ield         | OpenFOAM: The Open Source CFD Toolbox
   \\    /   O peration     | Website:  https://openfoam.org
    \\  /    A nd           | Version:  10
     \\/     M anipulation  |
\*---------------------------------------------------------------------------*/
FoamFile
{
    format      ascii;
    class       volScalarField;
    location    "103";
    object      SgT;
}
// * * * * * * * * * * * * * * * * * * * * * * * * * * * * * * * * * * * * * //

dimensions      [1 -1 -3 -1 0 0 0];

internalField   nonuniform List<scalar> 
59698
(
0.0132623
0.000152676
0.000210764
2.05304e-06
0.0303413
5.04056e-18
0.00213122
3.02707e-05
5.32745e-16
3.49396e-17
1.074e-15
0.000299047
2.92154e-17
6.20245e-06
0.000352834
6.63222e-17
6.97557e-06
0.000145868
4.51237e-05
0.00027021
0.00138902
0.013976
1.20927e-07
2.29901e-17
0.0422227
6.75554e-05
0.000342722
0.00753458
0.00671668
0.00746473
0.00479915
1.70795e-16
8.97608e-17
0.0123423
0.00246555
0.000163359
0.0187126
0.0205303
3.08448e-05
0.0225249
0.00864304
2.90133e-18
0.00371088
0.000643653
7.596e-18
0.032125
7.37789e-05
0.000730427
0.000245926
0.000174073
0.00151625
0.000119427
0.000337815
5.11609e-06
0.00918384
7.68859e-05
0.00132558
0.000212776
0.000806885
0.00269584
0.00346099
0.000499367
0.122062
7.03839e-05
0.0124889
0.00160991
2.5716e-17
0.000399465
5.56407e-05
1.08454e-15
7.90058e-10
0.000253273
3.82388e-06
0.0410614
1.60089e-17
0.0390116
0.000117951
0.00925006
0.000358587
0.00617208
0.00889504
0.000475159
5.50521e-17
1.60338e-05
0.00857138
0.000551521
3.64099e-06
4.19622e-05
0.0637412
0.000129416
2.8816e-17
0.00205902
0.0148846
9.76962e-06
7.33525e-05
0.000160312
0.00540306
6.09975e-05
0.000268867
5.06782e-19
0.0736482
0.00179306
0.0162877
0.0121556
0.000121449
6.24456e-18
4.37961e-05
3.66992e-05
1.81978e-16
1.83326e-17
0.000250142
4.63159e-06
0.0381529
5.58891e-18
2.62188e-05
4.50063e-05
3.97797e-05
4.38827e-06
2.33042e-05
6.38372e-18
3.63847e-05
0.000707432
9.1956e-07
6.17467e-06
2.12328e-05
3.34905e-05
0.0108244
1.97874e-16
2.77847e-05
2.92989e-05
0.0415317
3.72598e-05
1.8984e-16
0.100196
0.00428284
0.00441118
1.6205e-06
5.01981e-17
0.000255217
0.000130932
0.000109441
1.59449e-06
0.000174942
0.00265996
9.78253e-06
0.00069469
5.817e-06
2.17516e-05
1.73246e-06
0.0292917
4.20202e-05
2.8281e-15
0.00149894
7.34705e-06
0.000161939
0.000342844
4.76346e-05
3.18831e-07
0.0124523
7.93605e-17
0.000862713
5.12938e-05
0.0163687
0.00163172
0.00337201
0.0322807
0.000237954
0.0716166
0.000504973
0.000413514
0.0119322
2.34825e-08
0.010791
0.01464
0.079256
0.000728506
2.46152e-17
5.06695e-05
1.55044e-15
0.00629772
0.00943202
0.0181141
0.0147638
1.98138e-05
0.0460006
0.000236475
0.0114614
9.83268e-05
6.46361e-06
0.0011814
0.000405538
6.72502e-05
0.00266332
0.0386619
0.00404066
3.93055e-06
0.00984689
0.0554436
1.43328e-05
0.0077386
1.94923e-15
0.00611387
0.0211958
6.65356e-05
0.00684071
0.000319453
0.00611393
0.000810404
0.00512044
0.00791041
0.000134185
2.36327e-05
0.000166198
4.96297e-17
0.00409451
4.86381e-07
3.72658e-05
3.60012e-05
0.0127732
0.00660308
0.00560944
0.000510784
2.99056e-05
0.0660973
0.000818995
0.0236328
0.00734437
0.00324652
0.00687107
0.159028
5.26987e-17
0.00472901
0.00291871
0.00324038
1.38522e-05
0.00967292
0.0830244
1.91324e-05
6.84708e-07
0.00044192
1.11446e-05
0.00147473
0.0135243
1.46772e-17
0.0061283
0.000120179
0.00375028
0.230306
0.0012211
0.000426516
0.000702401
0.00164116
0.000629387
3.36873e-16
0.000618174
0.000692377
0.00601292
0.00128553
0.00049714
4.09851e-05
6.94617e-06
1.37545e-17
0.000393904
0.00321751
0.0011507
0.0476352
2.33169e-05
1.05996e-14
0.000165101
1.63333e-05
0.00014147
0.0440346
0.000154322
1.85181e-05
0.0179466
0.000206253
1.61142e-07
0.000510323
0.00209738
1.78983e-16
2.60586e-16
0.000193359
0.000212157
0.105067
0.0456893
0.0201032
0.000134716
3.47202e-10
0.0729777
0.000444728
0.0914965
1.49762e-05
0.000187947
0.000164519
0.000321324
3.25671e-06
0.000356397
0.0008038
0.00423992
1.10245e-05
0.00272403
4.42808e-18
5.98157e-18
0.000824139
6.47118e-05
5.26093e-05
0.0519944
0.00101139
2.0074e-06
0.000267276
7.85033e-05
7.09825e-05
3.84185e-05
6.44328e-19
2.46839e-05
0.00513746
1.25912e-18
0.00039222
3.06473e-18
0.000806153
0.000342303
0.323676
0.000320452
7.69524e-18
0.048421
0.0104161
0.000327954
0.000353112
0.000439544
7.55433e-17
0.00643032
0.0041716
0.0202688
0.207578
3.71037e-16
1.92383e-05
1.00369e-05
0.000664453
0.00911141
0.00327367
0.0102292
3.7852e-06
2.89341e-05
0.00147558
9.66575e-05
6.72293e-06
9.90241e-05
0.0394178
4.79102e-05
1.5188e-05
0.00799355
9.16639e-05
0.0400045
6.66289e-18
0.243608
0.000257901
0.0140635
0.000126262
3.78965e-05
4.82926e-16
2.76281e-05
8.73863e-06
1.75053e-15
0.000883964
1.43601e-17
1.00948e-18
1.64846e-05
1.3509e-05
0.000156557
0.00166054
0.00190391
1.20585e-16
5.03935e-06
3.9221e-17
0.00619149
4.80779e-18
0.000153452
2.4579e-05
4.23493e-17
1.17571e-15
3.2141e-18
0.000103266
5.63942e-05
0.000525707
0.000140009
1.30157e-05
0.000211506
9.11627e-17
4.35242e-16
0.000143589
8.77702e-05
4.75495e-17
0.00126235
0.00259567
0.00129541
0.000480104
0.0487029
1.32201e-05
2.26775e-05
0.000145298
0.000409245
2.22257e-05
1.26825e-05
3.99008e-05
3.5367e-06
2.77848e-05
0.0814801
0.0252617
2.23336e-05
0.00538322
0.0315167
8.72949e-16
0.000147341
1.82284e-15
4.52858e-08
0.0596436
2.72043e-06
0.0103489
0.000514768
8.1532e-05
0.000115639
4.9618e-06
3.57889e-05
0.309108
3.76845e-05
1.31395e-05
2.68767e-15
0.000220138
4.6766e-05
3.26358e-16
0.000264469
0.000186711
0.0151389
0.00303094
0.00212187
3.97544e-17
3.6093e-16
0.212077
0.000123769
0.00105776
2.87014e-18
4.68888e-05
1.01341e-16
2.17738e-05
4.01596e-05
0.00238781
0.0699199
4.1783e-18
6.45817e-05
0.00907659
1.80766e-05
0.000124855
5.84353e-05
0.0331108
0.000282487
9.70571e-05
0.108253
2.71854e-17
0.00963789
2.8733e-05
0.0541114
8.65396e-06
0.0125985
0.0133257
4.68732e-17
0.000975378
0.00044765
0.0084896
3.30789e-05
0.00806545
0.000451998
3.31422e-16
1.08316e-16
7.84465e-17
0.000384635
0.000814711
0.00112951
0.0690408
0.00320094
0.000255275
3.50358e-05
0.000496362
3.96231e-05
2.63386e-16
0.00543986
4.57795e-05
5.55494e-05
9.37683e-05
0.0658819
0.00178381
0.0231499
0.0655371
0.00112998
0.000163503
0.0547089
6.16325e-05
5.52241e-07
3.60066e-06
0.00950892
4.83031e-17
2.52471e-17
0.0641463
0.00713525
0.00460385
1.38134e-17
2.41449e-16
3.82535e-05
3.64885e-17
1.24403e-05
0.00316515
0.000582555
0.0747923
0.00722192
1.66733e-18
0.00914102
5.58936e-05
1.72985e-17
3.85492e-05
4.57168e-18
4.86515e-18
0.00547705
0.00377694
1.16924e-05
1.13751e-17
5.32271e-18
0.0012444
0.00947525
1.02958e-05
0.00726559
0.000193157
3.88629e-05
0.0393872
3.65374e-18
2.22727e-05
7.2262e-07
5.03479e-17
4.44545e-20
6.93402e-05
0.000138895
2.24427e-16
0.00967248
0.000357544
0.000148139
0.0682706
0.00818179
0.0135228
0.010098
6.37161e-06
0.0116959
3.87233e-07
4.19895e-05
1.06873e-15
3.93616e-05
4.49482e-17
0.00028351
2.99717e-06
1.76626e-18
0.00115475
0.00689497
0.000441615
3.69992e-17
2.82577e-16
3.30241e-05
8.42324e-05
5.56309e-05
3.6078e-18
0.0740055
5.27841e-05
0.00554575
8.39786e-16
0.00288181
6.42805e-05
5.70252e-16
0.00259679
0.00287805
0.00338256
6.79419e-05
0.00399887
0.000113149
4.60245e-17
3.61204e-18
7.60112e-05
0.00196668
5.43435e-05
0.00409354
1.95687e-17
0.00242567
1.77886e-05
0.00418877
0.00269172
0.00216034
0.000156191
0.000371893
0.000167726
2.28776e-17
1.89925e-05
1.20349e-12
0.00167391
3.22461e-18
8.3005e-17
0.005194
3.36436e-05
2.05482e-16
3.03928e-05
0.00146591
0.00216276
0.000165087
2.89618e-18
7.55643e-05
6.43908e-07
8.08199e-06
0.000546573
1.0126e-05
0.004341
0.00142248
0.00279356
2.20801e-05
0.224525
1.87847
2.0583e-05
3.19309e-17
0.000594692
0.00212972
0.000896956
6.00212e-05
4.82927e-05
0.00447146
0.00246565
0.00318256
0.00155292
7.37479e-05
8.20974e-16
9.19747e-05
0.00113646
0.000107529
0.00134094
0.000238263
2.42574e-05
5.23413e-05
0.106246
0.000237694
4.92259e-06
3.06982e-16
2.48484e-16
0.00243012
0.00383087
4.11687e-05
0.000335598
0.000120814
1.18055e-16
2.10742e-17
0.000176258
0.00828294
0.000798002
0.000583603
0.000113993
4.06535e-05
2.8192e-07
0.000327525
0.000209678
0.000307362
0.000815974
0.000897237
0.0197571
0.0909637
0.00136167
3.36926e-05
2.54533e-05
8.77155e-05
0.0415624
2.22223e-18
2.08837e-05
0.000460599
0.000109233
0.000143938
0.001676
2.59273e-18
0.00825663
0.0473067
0.000145099
0.000422261
7.97193e-05
8.98778e-19
1.04181e-17
1.04558e-05
1.56308e-05
0.00215
0.000194919
0.000191526
0.00870615
0.00439676
0.0365057
0.000806046
7.04344e-05
1.99612e-05
7.80911e-05
0.000243423
0.00118197
5.87803e-18
0.000159012
2.99149e-17
2.03902e-16
0.00660272
0.000820985
4.48758e-05
3.62942e-15
0.00640249
2.87467e-05
4.40927e-06
5.68866e-17
0.0015687
1.77421e-18
0.000505884
2.1322e-16
2.8126e-05
0.00198655
0.00922159
3.42683e-05
7.80815e-15
1.67394e-16
0.0597465
0.000821173
3.83546e-05
0.000949281
0.00145777
0.0257234
0.0069117
1.77179e-16
0.0553223
5.18221e-05
0.00255463
5.3111e-18
0.00771769
7.00902e-05
2.50947e-18
0.0112643
0.000185506
3.45291e-16
0.00307402
0.0600833
0.000584586
6.95063e-05
0.246678
6.77584e-06
0.000730275
0.00240523
0.00192157
0.0017532
5.21533e-06
0.0132744
1.91135e-05
0.0600685
0.00316765
0.0226293
2.80032e-16
0.00021263
0.105035
0.238178
3.90484e-15
6.85197e-05
0.0498541
1.46061e-17
0.00224745
0.00520774
3.68108e-05
0.00615211
0.00411686
5.96347e-05
2.66394e-16
0.00195497
0.0141851
2.97063e-18
2.73105e-17
3.85364e-05
7.95698e-17
0.00437578
3.8156e-05
0.000223661
0.0060999
0.00520771
1.22967
1.43689e-17
0.0246398
0.00970859
0.0210739
0.00105419
0.00470227
6.05568e-18
0.000982691
0.00162822
1.50775e-06
0.00670483
0.0111244
0.104593
0.000320369
0.00546356
7.08628e-16
1.11505e-16
1.06814e-16
0.000368489
0.000234021
2.1229e-16
6.19166e-05
1.76865e-06
0.00947305
0.00014017
0.00071978
2.73456e-06
1.10546e-17
0.00686853
8.47442e-17
1.16334e-16
6.09952e-05
8.23441e-11
6.09844e-05
0.0137043
1.28934e-16
1.1957e-06
0.0200796
0.210282
8.06564e-05
0.00881698
0.000128871
0.000681243
3.33961e-16
7.87085e-16
0.00169047
0.000846044
0.0074765
3.87673e-17
0.00628045
1.97428e-06
2.0365e-06
3.90326e-17
7.38093e-05
8.32865e-05
3.96775e-06
2.34458e-16
6.88183e-05
0.000211965
1.60544e-16
1.32566e-15
3.70695e-16
4.27291e-15
3.33995e-17
0.00208261
0.000191876
0.00153694
2.2779e-17
0.00405919
1.65164e-05
2.47998e-17
0.0158357
3.4264e-17
0.000153022
2.78506e-16
0.0359169
0.00489929
0.000876058
8.95931e-06
2.46269e-05
0.0105776
6.49689e-17
0.00979818
0.000131799
1.71957e-16
0.000487234
7.92348e-07
3.31651e-05
3.65169e-16
9.97883e-05
3.67954e-17
0.00887862
4.31858e-18
0.00210606
4.46965e-18
7.01939e-05
6.55681e-05
0.00164988
0.00059782
0.000178881
6.01403e-06
0.00202606
2.85422e-18
1.96188e-16
6.49321e-07
6.30337e-05
3.30942e-05
7.99115e-06
5.8731e-18
0.000268874
0.00373362
0.0183143
1.09024e-17
0.00106169
0.00298432
9.16101e-05
0.00279192
1.87661e-15
1.80184e-17
0.00449552
0.000149348
1.08733e-17
0.00018448
0.0016277
1.10043e-17
0.00261036
0.00010605
1.2225e-05
0.065252
2.75177e-18
7.99535e-06
1.3288e-06
1.40281e-17
7.87996e-17
5.44079e-05
2.43522e-05
6.3986e-06
0.0202107
0.00398026
5.10096e-07
0.0407196
9.47237e-05
0.00132531
0.11483
0.000230566
0.0045912
0.00451151
0.0325151
0.0583375
5.80797e-17
1.12828e-06
7.63152e-17
0.0247127
0.000271498
0.000345702
0.00141404
1.15745e-17
2.06814e-17
0.00245585
0.000576972
1.61077e-05
0.00677253
0.0028348
1.60548e-06
8.20882e-05
0.0250317
0.000727214
0.00014152
4.70669e-05
5.24517e-14
5.70225e-05
0.000181325
0.00106973
2.0389e-05
4.81646e-05
1.68287e-07
1.03901e-15
0.000163735
0.00010705
0.00540583
1.39037e-16
0.000140964
0.00959176
0.00190191
0.000294134
0.000414875
0.00026572
0.000127955
0.000424954
3.93468e-16
1.03049e-16
1.82314e-17
0.000148224
3.50594e-18
0.000397538
0.011005
0.0162584
0.0177884
7.65656e-06
8.44144e-06
0.00291071
0.00115787
0.0027418
0.0039317
0.000403759
4.62504e-05
0.000181772
4.40655e-05
0.0109744
0.0564127
0.00197652
4.31375e-16
6.90418e-07
2.59935e-17
8.78587e-05
0.00114455
0.000314556
0.00233832
1.4139e-15
3.65575e-15
0.000123084
0.00237551
0.00235334
0.000784231
6.43464e-06
0.0472859
4.74139e-17
1.57885e-05
2.88632e-06
0.0200201
3.60738e-17
0.000396397
1.40197e-05
0.00105112
0.000454043
0.00159927
0.00112458
3.4264e-05
7.93278e-06
4.95233e-05
1.34997e-06
0.005477
0.00947637
0.010094
0.00817585
0.00526795
0.00575549
1.41019e-07
0.000147588
8.67013e-17
0.00595706
0.00473886
0.00222758
1.26647e-16
0.000118904
0.00393805
0.000245536
0.00161932
6.3654e-05
0.0147012
0.000126937
0.0406184
8.36355e-05
0.737665
7.60931e-06
5.65163e-17
1.34652e-05
2.39689e-05
1.43158e-15
2.24514e-10
0.00398824
0.00699459
0.00173005
0.000636104
0.00361236
2.14387e-17
1.08278e-18
0.0197915
4.49791e-17
0.000930502
0.0011576
0.000177448
0.000323489
0.0011271
9.63379e-17
5.45269e-17
0.00819063
0.000782084
0.0922522
4.16856e-16
0.000658274
0.0822146
7.76925e-17
0.00879678
0.00277698
0.0252159
1.57557e-05
0.00362192
3.49617e-05
6.77612e-06
0.00132675
3.17022e-18
0.001247
4.22789e-05
0.000117395
0.000125715
9.13575e-06
1.88443e-05
0.00322981
0.00966772
1.87626e-16
0.0024087
0.000510048
0.000160418
0.036196
0.0545345
0.0050697
0.000369466
0.0032755
0.457516
0.0240562
0.0262914
0.000459856
8.55858e-19
0.102451
0.000136874
4.36901e-17
1.49252e-06
0.0143331
0.000214621
0.00170416
0.000327906
0.00174673
2.95743e-18
0.00250522
0.00900549
0.00288692
0.000644148
0.000738402
8.67904e-18
4.35542e-17
0.000130985
0.00364773
2.44263e-16
0.0011453
0.000585036
0.0077777
0.000354402
0.115805
4.48991e-05
0.00118461
3.40348e-07
0.00563566
9.28656e-05
0.00109818
0.00258198
6.07185e-17
1.56737e-07
1.23661e-05
0.000137423
1.45174e-05
3.82796e-05
0.0187358
0.0101274
1.04649e-05
0.00150438
0.083602
0.00110046
0.00401
0.000114333
1.80571e-05
0.00366803
0.0361817
0.00876144
0.00264432
0.000182353
0.00193115
0.00336418
0.00300623
0.00371311
0.00537781
3.64302e-17
0.115981
0.0500032
0.000492424
9.98603e-07
3.03941e-05
0.000482958
3.47581e-06
0.0262412
0.00113351
7.01636e-07
0.00229731
0.000371746
1.25423e-17
0.00355437
8.28835e-18
0.00268789
2.66998e-05
0.0014803
0.00376148
9.2505e-05
0.0196343
0.000150968
5.06135e-17
0.00363977
0.000185149
0.000395143
0.00210633
0.0119305
2.49831e-18
1.56362e-17
0.000374788
0.0002656
3.40323e-10
8.87232e-16
0.000190267
7.30072e-05
9.72839e-05
2.72048e-18
1.03205e-16
0.000855235
5.18687e-06
1.83951e-05
1.82693e-05
0.000315186
5.75437e-08
2.14942e-17
4.38284e-05
6.25788e-16
2.93298e-05
1.65754e-15
4.38462e-06
5.8236e-16
0.00390909
0.103535
5.29133e-05
0.004772
0.00166697
0.00173111
9.78521e-17
3.50176e-06
4.40201e-05
0.00844038
0.0193747
0.00286314
5.01284e-05
1.31263e-16
8.48979e-05
6.08253e-15
0.00475683
0.00954975
2.24151e-18
0.00211743
0.00283206
0.00107629
0.00347646
1.64463e-05
0.0145362
0.00187263
0.00252208
9.57511e-05
1.96526e-17
1.07213e-16
5.27927e-05
0.00560801
8.31807e-06
3.27365e-17
3.49736e-05
0.00502307
0.000211096
0.00100833
0.00101764
5.94347e-05
3.234e-07
4.82108e-05
0.00388562
9.71582e-05
8.51563e-05
0.0284026
0.00208243
0.000846492
6.10389e-05
1.71103e-18
0.00101794
4.95539e-18
0.0145772
1.24879e-15
1.87184e-15
0.00125771
2.87896e-17
0.000865011
0.00021702
4.06653e-12
2.44931e-18
0.000215057
0.000283309
1.09033e-16
0.00219606
6.95574e-06
0.000277282
0.000576018
2.31961e-05
2.56894e-17
0.00541842
0.000204577
1.07261e-16
0.0473514
6.54504e-05
3.26719e-05
0.00026688
1.87776e-18
1.62611e-05
8.21613e-17
8.77945e-05
1.16174e-16
9.56577e-06
0.000950139
0.000345885
0.00275327
0.00429674
0.00129555
1.52256e-05
0.0632049
4.19984e-06
2.74869e-14
0.00213739
0.000797404
0.00340329
1.16638e-05
3.51603e-15
0.349956
1.67629e-06
1.32883e-15
3.47901e-05
0.0231662
0.00303487
3.9839e-15
7.38182e-17
2.06811e-05
0.000593309
0.036059
0.0021844
0.00871778
0.0117135
3.20659e-17
2.08698e-16
8.22563e-17
3.62046e-05
0.00829253
3.88587e-16
0.0747195
1.25156e-17
0.000478307
2.48528e-16
1.57537e-15
2.1527e-16
0.000377024
0.00858084
0.0181202
2.77796e-17
0.001841
0.00450137
1.66784e-16
0.000238516
0.000989819
0.00201001
0.000400033
0.000818163
0.00750415
0.010708
0.000592233
0.00160979
0.00267114
3.70722e-05
9.084e-17
4.2944e-17
0.0138229
0.0115744
0.00351814
0.0473323
0.00270356
0.00017169
0.00523163
0.000184797
4.62145e-15
0.00106499
0.0223049
0.00028745
0.0204819
0.0114987
0.0341428
3.38052e-20
0.101664
0.00877558
0.00175018
0.004658
0.0644613
0.00039999
0.00282639
4.14825e-06
7.90004e-05
0.00802297
0.00112624
3.14489e-05
1.79894e-06
0.000101048
0.024897
0.294911
0.000156619
0.00906021
0.000291832
0.000134194
2.90374e-16
0.190504
0.000617038
0.28681
0.782521
3.29715e-06
2.33475e-16
7.58385e-06
0.000172581
0.010643
0.0056437
0.0101747
0.0634924
0.0341204
0.00183654
1.58868e-05
0.0104062
0.011364
3.14464e-16
0.000533666
2.49121e-17
0.000243889
0.000418142
9.26786e-18
0.138319
0.000200639
6.9118e-05
1.72127e-16
0.000256471
0.000182936
6.77018e-18
1.13854e-16
0.47943
0.0314659
0.184666
0.148514
0.00216976
5.14737e-15
0.00648877
0.00125232
2.81004e-05
1.2982e-18
0.085164
1.62957e-17
3.29997e-06
6.97341e-05
2.22294e-17
0.0166282
4.71651e-05
0.00854068
5.30244e-05
6.46044e-05
0.000137436
0.00059988
0.00113229
0.0129698
3.36791e-06
0.00115217
7.02062e-05
0.015018
8.17721e-17
1.56903e-17
2.20306e-06
0.0134522
0.000154038
0.000165895
9.18888e-05
0.0313302
0.000500745
0.000196217
3.08781e-05
9.69032e-06
5.51083e-06
0.00305365
3.44332e-16
2.89545e-05
2.42091e-05
5.02879e-15
0.000123512
5.84186e-07
6.36957e-16
0.000211895
3.13853e-16
0.0107479
4.14638e-08
6.22476e-16
0.00191405
0.00171717
0.00952936
0.000579439
0.0102281
0.000303418
1.09665e-16
4.32189e-17
5.99035e-17
5.60707e-17
1.59287e-16
5.27999e-05
1.79852e-07
1.60674e-05
0.00946879
0.00172259
2.62103e-15
0.0175584
4.38372e-05
0.00020894
0.0145435
0.00621362
0.0122811
0.0131329
0.00331911
2.23783e-17
0.32248
0.0623732
0.000811842
1.87736e-17
0.0148548
0.000912273
0.0242443
0.000103589
1.66443e-16
0.0120565
5.39382e-06
0.0067752
1.31523e-15
0.000131963
0.00756274
1.66301e-05
0.0312565
0.354951
0.00114159
0.0549527
6.36964e-16
2.93067e-15
1.55162e-05
1.67834e-06
0.104445
1.30834e-05
0.00166439
0.000498652
2.68882e-16
0.00164488
1.7557e-05
8.26782e-16
3.80869e-17
0.0265225
2.14151e-18
5.72927e-05
0.0619337
1.06172e-13
0.00272617
2.16921e-18
5.07432e-16
0.00111184
0.00015321
1.8992e-16
3.41672e-06
2.98154e-15
0.00251375
0.000524489
4.29899e-15
4.72105e-17
0.000845669
5.42667e-06
0.00279526
1.52025e-16
3.63015e-06
0.000627527
9.3653e-05
5.09106e-05
0.0317834
1.44793e-19
5.65388e-05
9.80687e-16
0.00167104
0.0338503
5.66713e-16
2.55075e-14
9.92446e-17
0.000169843
1.78056e-16
0.00196072
0.296487
3.77653e-16
2.847e-06
4.15991e-05
3.5468e-18
1.97537e-15
7.4764e-17
0.000176301
3.58333e-17
0.000847303
2.0453e-17
0.000105424
0.000198781
6.92914e-18
0.0114306
9.5046e-17
2.21718e-17
0.00148014
0.000105766
0.00139864
0.0445773
1.0397e-15
0.000172537
0.000122721
8.51748e-05
0.000107055
2.68606e-05
2.96102e-16
9.18872e-15
4.25486e-05
2.9433e-16
2.96267e-17
1.12271e-05
1.186e-16
8.40317e-05
0.0226435
1.00811e-16
0.0061842
0.000123537
0.015513
2.03355e-05
0.00011857
4.67911e-05
0.00434272
2.78881e-05
0.0041029
0.0192668
2.19282e-05
6.12804e-05
2.54821e-05
0.000149678
0.000861225
0.000348297
0.000107079
0.0163557
7.15102e-05
0.010375
4.6594e-06
0.87885
0.442886
0.000109313
0.0414443
8.40549e-05
0.000391578
0.0093838
8.67927e-10
0.60171
0.044134
0.00450228
0.000623139
0.0283289
0.393701
8.95945e-05
0.0251162
0.00436867
0.00223179
0.124424
0.0440338
0.000577253
0.000946057
0.0260455
0.048753
0.00413046
0.000308997
0.0321061
0.000205806
0.0141083
5.98335e-16
1.11614e-05
0.00662661
0.000214169
9.38016e-07
0.00393055
0.000125135
0.000129068
0.000295082
1.09156e-16
0.00783612
0.00605743
1.41114e-16
0.000442972
0.00170438
1.43103e-05
0.00408529
1.14325e-15
0.0115767
0.0632094
4.37374e-07
0.0333201
0.000140607
0.00115686
0.000144002
0.000442629
0.0303622
0.00412803
0.000222829
0.027017
0.000305504
7.62706e-05
0.000365729
2.28542e-16
3.56665e-16
0.00545152
0.0258129
0.0147175
0.00506997
0.00549216
0.00105527
0.000132943
8.03315e-05
0.000136605
1.63566e-05
1.30616e-08
0.00174147
3.20254e-07
3.59926e-06
4.82926e-06
3.70404e-06
9.30539e-06
5.69139e-05
0.0102141
5.01533e-06
2.21673e-06
0.00335315
0.000275681
2.53565e-05
2.84982e-16
0.00679131
4.28383e-06
0.00501452
0.000438041
0.00427626
0.000120478
4.34453e-05
1.10665e-05
0.000117198
7.68701e-07
0.00153518
6.11361e-16
4.71505e-05
8.90819e-05
0.0347071
0.000165607
0.0042797
1.65322e-05
0.000176682
0.000308785
0.00841361
1.87048e-07
1.5478e-05
0.00362455
1.19873e-06
1.01153e-06
0.00189819
0.000365612
4.17904e-05
0.00300219
5.98283e-05
0.00599034
0.0288553
3.67464e-05
8.1208e-05
0.0030122
0.000328492
0.00425918
7.62674e-05
0.00615105
0.000354212
0.00278457
2.85279e-05
0.000733069
0.000927226
0.00721484
6.17382e-05
0.0198556
0.0061683
0.000238123
0.00139102
0.00159349
0.000252104
2.90869e-05
0.00247887
0.0219246
3.37536e-06
0.0378319
0.000203474
3.79987e-08
0.000109471
0.00188479
1.01519e-05
0.000876753
0.0138525
0.0211667
0.00208892
0.0095305
6.56918e-05
7.63724e-05
0.00437866
0.0145444
0.000447168
7.66908e-07
2.47934e-05
0.082742
0.0419647
0.000104221
5.02925e-05
1.42805e-07
7.82331e-06
0.000113531
0.0337597
0.00859077
0.0158476
3.87482e-05
0.00100283
2.86265e-05
0.0193189
9.36552e-18
0.00338317
2.54046e-05
0.00104364
0.0201602
7.43593e-05
0.000398178
3.61213e-05
2.65869e-05
5.98373e-06
1.67956e-06
0.0234804
0.000227694
2.2308e-07
0.0200088
2.05828e-05
5.75976e-18
0.000428694
0.00036461
1.82468e-05
0.0134155
0.000465536
7.88886e-19
5.23147e-05
1.1596e-05
1.45067e-06
5.67584e-06
2.07513e-05
3.44305e-17
2.59662e-05
3.14544e-05
0.0116894
0.00289164
0.000370343
9.3614e-10
0.000297539
0.0602191
3.80386e-05
3.58648e-17
0.0180782
0.00280081
2.17221e-05
0.0033177
7.90277e-15
3.70306e-17
0.0184056
0.00216859
0.0229243
0.000773028
0.0496313
0.0142261
0.000125374
0.0256786
1.52519e-05
0.0895673
0.0032646
1.00379e-15
3.56021e-05
0.256555
0.00483646
0.00100288
0.00309228
0.000159544
0.00334309
0.0308728
0.00850502
0.0029058
0.144097
0.00373428
2.4212e-19
0.0177515
0.0639545
0.0346428
0.00132788
3.29573e-05
0.000211003
6.12536e-05
0.000668198
0.0189119
0.0197477
2.67819e-08
0.0522223
0.022956
0.000627476
4.06979e-06
0.0136693
0.00323991
0.000696101
0.0503177
0.000540561
0.000112488
0.0107984
0.010842
0.0218563
5.90341e-05
4.93178e-07
0.00161355
0.0162911
8.2159e-16
9.40002e-05
0.173074
0.00258173
0.001226
0.000724536
4.34314e-05
0.00436624
6.66885e-18
0.0186419
1.71633e-06
0.0140925
3.28858e-05
0.00554548
3.03346e-18
0.016457
2.03596e-11
0.000118384
0.0086957
1.29352e-05
0.00668775
0.00771269
3.32117e-05
0.0158776
0.000134121
0.0156495
0.0065969
0.00924414
0.056415
0.00557947
0.0292098
0.0345354
0.0170209
4.31591e-05
0.00452965
0.0001712
0.000981278
0.000917006
0.00126027
0.0022251
0.000640796
8.94044e-06
3.29936e-05
2.80919e-06
0.0013387
0.0012802
0.0520011
0.00325086
3.01124e-05
0.000110581
2.36866e-05
0.000452308
8.79484e-06
0.0010662
0.0298648
0.00254373
0.00192824
5.23982e-05
0.0170451
5.12936e-07
3.28668e-05
1.90287e-06
0.000217286
0.0346961
0.00684451
0.000514087
0.000733746
0.00447498
0.000220334
8.84545e-05
0.00489248
1.76567e-15
1.48711e-05
8.47534e-05
2.56358e-05
4.60478e-05
4.64517e-05
0.00104401
0.00859072
0.100946
0.000240553
1.81565e-05
6.77763e-06
0.00032777
0.00834745
0.00240738
5.34942e-05
5.16048e-05
0.00319952
4.8477e-05
0.0101136
0.073396
0.0451624
0.000173623
0.000525094
8.87121e-06
0.000115209
5.57922e-05
0.00392534
0.000450878
0.000754746
0.0142307
0.00195275
0.000277712
2.31062e-05
0.000433417
0.0298449
9.22004e-07
1.05664e-17
0.0110071
6.03957e-06
0.000564458
0.00459536
2.01645e-09
0.000106255
0.000512273
0.000146341
0.0227262
4.00466e-05
0.00011437
0.00030084
0.00513771
7.80652e-05
0.00069804
0.000108776
0.00128857
0.00962606
3.63804e-05
0.0285779
1.51549e-18
5.10497e-05
0.00236929
7.50782e-05
0.000338744
0.00345627
0.00119529
5.56071e-05
8.62792e-06
0.00180633
3.64438e-05
7.59226e-05
6.72806e-05
0.00333122
1.29235e-05
0.299909
0.000144919
0.000953102
8.52211e-05
3.09422e-05
0.000283549
0.000245309
0.00371044
4.92949e-05
0.000576244
7.10927e-05
0.000904493
0.0139795
0.00279274
0.111924
0.000861961
0.010176
0.0103062
0.0124161
0.00126097
3.17857e-05
8.00905e-05
9.49171e-05
0.000101391
1.70891e-18
0.000257367
0.0115909
1.05818e-16
1.61444e-17
0.00376831
2.31127e-05
3.22985e-05
0.0149177
2.48274e-05
0.000112402
0.00190839
5.23943e-05
5.08197e-05
0.00159195
4.24955e-05
0.0242381
0.0133019
0.0102008
0.0019168
0.00013969
0.00158735
0.000292609
5.84995e-06
4.17312e-05
6.50227e-18
0.000101078
0.0110464
0.00690486
5.32552e-05
7.4378e-06
5.03621e-08
0.000259049
1.59739e-06
0.000342052
0.00411581
8.38372e-06
4.06607e-05
1.13466e-15
4.89798e-05
0.00276287
6.71214e-05
0.00033456
0.00227809
5.32722e-05
0.00010004
6.37692e-06
1.57628e-17
0.0534153
0.000490516
0.000675519
3.64111e-05
1.65322e-07
0.00221137
2.12856e-06
0.00343716
3.81855e-05
3.45489e-18
2.54686e-18
2.77597e-05
0.0194684
0.00321381
0.0241503
0.00158488
0.0511539
0.000104779
2.36678e-06
0.000236639
4.84234e-18
0.000886545
7.569e-05
6.41045e-06
0.000102794
5.08669e-05
0.0193009
0.000441456
0.00232756
0.0058255
7.27126e-05
0.0108667
0.00360414
5.16061e-05
0.00093383
0.00319266
0.0296918
0.00030306
1.19952e-16
0.0634584
0.00890083
0.00652182
4.1935e-05
0.062554
0.000270862
0.0152439
3.23013e-05
0.0172221
0.000197979
9.24363e-08
5.95104e-06
9.3345e-06
5.49317e-06
0.0403613
0.0145209
0.0145761
1.51588e-06
0.00231996
0.000107139
1.01052e-06
0.000948388
0.000103791
1.76606e-06
6.22852e-06
3.49179e-07
0.000131008
3.0721e-07
0.0363692
0.0030784
0.000346397
2.23044e-15
1.04865e-16
0.00169302
0.000456298
0.00151589
0.000733254
1.35624e-06
0.0140765
0.000252049
0.00066803
0.00205968
0.00125871
0.00013361
7.51563e-05
0.000176016
4.42247e-05
1.80619e-06
1.35219e-05
0.000108542
0.000673034
0.000102889
1.07451e-06
0.0167168
0.000217244
0.000573644
2.40823e-05
5.54182e-05
0.000489465
0.00695746
0.0029012
0.000595312
0.000214282
7.15504e-05
5.54097e-06
0.00433272
9.41087e-06
0.00751719
0.000392482
2.47966e-05
0.00187112
0.0958832
5.45357e-05
0.00019365
0.000518156
3.77356e-05
3.84254e-05
1.82927e-06
0.000199757
1.62834e-05
0.00137455
0.00370553
0.000582428
6.77251e-05
7.6476e-07
0.00046462
0.00949187
5.98736e-07
0.000140693
8.69937e-06
2.47203e-05
0.000369227
0.000182204
2.15862e-05
0.000292446
4.70448e-08
0.000101424
7.17137e-13
7.04255e-17
0.000198896
0.120175
7.33755e-06
0.000564282
0.000225532
0.00010547
0.0117662
8.44154e-06
0.00274418
0.000120824
7.96393e-05
0.000524044
1.85215e-05
0.000205992
1.66526e-06
3.84983e-06
0.000108743
0.000122802
0.0185044
0.000601968
0.000357399
0.000356009
3.40063e-06
4.46651e-05
0.000179961
0.00268137
3.06229e-05
2.16999e-17
3.0031e-06
0.00116729
1.47515e-05
0.0124492
0.0002911
8.39934e-08
0.000162205
0.000126618
0.0849214
0.000380935
6.76383e-06
7.47894e-18
6.79391e-18
0.000209319
0.000597758
0.0267112
0.00853665
1.40886e-15
3.0867e-05
0.0381258
0.039861
3.0206e-18
0.0179872
0.00592237
0.000393924
0.000130101
3.89054e-17
3.13769e-17
0.000317521
1.10998e-15
0.00429644
1.50577e-05
0.00016224
2.67592e-05
5.7096e-05
0.00601708
7.75346e-05
3.91469e-05
3.91097e-05
2.22058e-18
0.000197437
2.21272e-17
7.51667e-16
1.0005
0.000184174
0.0194169
0.00306481
1.08985e-05
2.37638e-17
0.015453
0.00188608
1.99023e-05
1.619e-05
0.00330877
7.3286e-15
5.38436e-06
0.000396659
1.69734e-05
0.00222568
0.000555762
0.000464974
0.000534301
5.83527e-06
6.96723e-05
0.0195995
0.00283067
0.000591492
2.73486e-17
0.00355489
9.61485e-05
9.41863e-05
0.000250274
0.00933277
0.0126455
0.004104
0.000757045
0.000178801
0.00253623
0.001903
0.00202222
0.000461248
0.000229018
1.57207e-17
0.00366193
0.00169249
0.000123851
0.000105709
0.000751594
0.00157423
8.70197e-17
9.80041e-16
0.0226612
1.10941e-05
0.000909321
0.000302042
0.00330363
0.00987973
3.54895e-07
8.86548e-05
0.00557465
0.000153896
0.000125228
7.26406e-05
4.36709e-06
1.2702e-05
1.75219e-05
0.00360671
0.0130048
2.66966e-19
0.00604101
0.00158842
0.151106
0.000167012
0.0014025
3.06611e-05
0.00908552
1.14481e-05
8.50893e-05
2.58463e-05
0.0198243
1.20522e-05
0.00051154
0.000683546
1.96188e-05
0.00675629
6.51497e-05
0.00220974
0.0168504
0.00689581
5.473e-05
3.78428e-05
0.0122961
0.000135987
4.42524e-05
0.00190049
0.000772961
0.00188894
2.0994e-05
0.000111185
0.00466653
0.00327007
6.46439e-05
2.77944e-05
0.000257357
0.00189013
5.30878e-19
7.60983e-05
2.54243e-06
0.000928657
0.0151071
0.00284708
0.00156236
0.00332342
0.00049202
0.0314281
0.0013244
0.00744412
0.000251393
1.03908e-05
0.000235493
2.74345e-05
0.000448312
5.87874e-06
1.85282e-17
0.0011935
0.000153011
0.0374858
0.000766979
0.00782582
5.24061e-05
0.0074676
0.000336313
0.0149066
0.0174274
0.0014027
0.0097131
1.06208e-05
0.000373133
2.80691e-06
0.000601942
0.000217991
0.000351781
6.17318e-05
0.000307587
0.000100321
0.00264092
2.11168e-05
5.59491e-05
5.96203e-05
2.98687e-17
0.0266178
0.000161637
1.60419e-05
3.39413e-05
3.11447e-05
0.000138155
0.00542282
8.64087e-05
3.27119e-07
3.44577e-05
0.00159833
0.00312787
0.000252653
0.0157084
0.0132382
6.94012e-17
0.000209111
0.000164279
0.000100123
0.000289585
0.00047306
0.000452522
2.38131e-05
0.000933127
0.000451409
0.0053027
9.35864e-17
0.00116107
0.000542124
0.0083835
0.00527174
0.00872952
2.06313e-05
0.0539745
0.021972
0.0971455
2.07358e-05
0.000146173
3.70957e-05
0.000285721
0.00673974
0.0100192
0.030007
0.0246984
9.157e-06
1.58435e-05
0.00773428
0.00039986
0.0175166
0.301992
0.0178689
0.000344476
0.000448435
0.0159695
0.00158166
0.000242559
0.000725496
0.161814
1.36654
6.95108e-05
1.0292e-06
6.39095e-05
0.00339227
0.00104794
0.00185402
0.00269585
0.00196879
0.00212583
0.000884694
2.7928e-06
3.11653e-05
0.000207733
1.03865e-07
5.95741e-05
0.000443714
2.79885e-05
9.014e-07
0.00321241
0.0108661
0.00402729
2.45876e-07
1.08988e-05
3.10519e-05
1.96816e-07
6.59488e-05
3.00649e-05
0.00866592
5.85375e-17
0.0311747
0.000106698
0.0483932
0.0149862
0.000248196
0.00216218
1.01458e-05
0.00236411
0.000137175
0.000872153
0.0835917
1.10397e-05
1.46853e-18
5.97386e-10
4.31993e-05
0.00343565