/*--------------------------------*- C++ -*----------------------------------*\
  =========                 |
  \\      /  F ield         | OpenFOAM: The Open Source CFD Toolbox
   \\    /   O peration     | Website:  https://openfoam.org
    \\  /    A nd           | Version:  10
     \\/     M anipulation  |
\*---------------------------------------------------------------------------*/
FoamFile
{
    format      ascii;
    class       surfaceScalarField;
    location    "6.8";
    object      phi;
}
// * * * * * * * * * * * * * * * * * * * * * * * * * * * * * * * * * * * * * //

dimensions      [0 3 -1 0 0 0 0];

internalField   nonuniform List<scalar> 
214403
(
-0.00675223
0.00517799
0.000285341
0.0012889
-0.00334014
-0.0112294
0.000955628
0.0136139
-0.0102521
6.82528e-05
-0.000139511
0.0103234
0.00888697
-0.00597545
-0.0148959
0.0119844
0.0122956
-0.015547
0.00370325
-0.000451893
-0.00538475
0.00560847
-5.45171e-05
-0.000169196
-0.000853403
-0.00162207
-0.00923158
0.0117071
-0.0170211
0.00968523
-0.00255727
0.00989313
-0.0233169
0.0164585
0.0166124
-0.00975395
0.0142129
0.00168736
-0.0158819
-1.83376e-05
0.00504117
-0.00998574
0.00205431
0.00289026
-0.0103511
0.00325668
0.00536412
0.0017303
0.000476551
-0.0114534
0.0137939
-0.00281707
-0.00995755
0.0100216
-6.40966e-05
0.00192087
0.0119418
-0.0153077
0.00144498
-0.0120682
0.01009
0.00305775
-0.0010795
-0.0121379
0.0118428
0.000295175
0.00393277
-1.38263e-05
-0.000993808
-0.00292514
0.0156995
-0.00939598
-0.0208748
0.0145713
-7.59364e-05
-0.00311202
9.12406e-05
0.00309672
0.00641875
-0.00626824
-0.000150505
-0.0123604
-0.0042759
0.00425173
0.0123846
-0.00228804
0.0136538
-0.011005
-0.000360775
0.00673471
0.000707972
0.00234964
-0.00979232
-0.010256
-0.00492608
0.013276
0.00190605
0.00921979
-0.0116777
6.95264e-05
0.00238835
0.00323168
-0.00282882
0.0105863
-0.0109892
0.00764695
0.0100031
-0.0120494
-0.00560069
0.0111896
-0.00701849
-0.000318428
-0.00385269
-0.00587883
0.00599224
-0.000113414
0.00244269
-0.00508402
0.0135561
-0.0109148
0.0141504
0.00067061
-0.00246941
-0.0123516
-0.00563883
-0.00578689
0.00592634
0.00549938
-0.00120064
-0.00677252
0.00599952
0.00197365
0.00442878
-0.0030625
-0.00942906
0.00806278
-0.00171383
0.00854969
-0.00308878
-0.00374708
0.0160517
-0.000391664
-0.0156601
-0.00690866
0.0134748
-0.00656616
0.00124313
-0.0147855
0.00856234
0.00498
0.00245983
-0.000988816
0.00602041
-0.00749142
0.00571574
-6.03638e-05
-0.00565538
0.0102588
-0.000221048
0.00181828
-0.011856
-0.0130124
0.00163417
0.0138381
0.000863317
0.000885848
0.00863725
-0.0103864
-0.00412047
-0.0269264
0.0261138
0.00493307
0.00572038
0.00103281
0.00129309
-0.00804628
0.00424686
0.00321155
-0.0103727
0.00291425
0.0133834
0.00802104
-0.0146697
0.00121082
0.0113542
-0.00230627
0.00182514
-0.00683263
-0.00402277
0.00903026
0.00310956
0.00477971
0.00142139
-0.00931065
0.00185529
-0.00139323
-0.00429076
0.0038287
0.00688447
-0.0124617
0.00868675
0.0119219
-0.0112244
-0.00385057
0.00315316
0.0106614
-0.00195177
-0.00861014
0.0116741
-0.000496131
-0.00256788
0.00886712
-0.0113382
0.000130437
0.00234067
-0.0083028
0.000548672
0.0132679
-0.00551374
-0.015354
-0.0144302
0.0121183
0.017666
-0.00821085
0.00826108
0.00162485
-0.00167509
0.00129516
-0.0104948
-0.00859307
-0.000178934
0.00446695
0.00430505
-0.0134362
0.00576796
0.00869362
-0.00102535
0.0157656
-0.0126979
0.000809657
-0.00387739
0.000724647
0.000264136
-0.0103792
0.00939041
0.000520937
-0.00285719
0.0141287
-0.0117925
-0.034902
0.00363328
0.00388668
0.027382
-0.00321795
0.0094819
-0.00300661
-0.00325733
0.00466047
-0.00245384
-0.00994034
0.00773371
0.00111756
0.00694876
-0.0088328
0.000766476
-0.000173053
0.00851993
0.00296422
-0.0113111
-0.00169081
-0.000267727
-0.00352389
0.00548243
-0.00902991
0.00986962
-0.00037447
-0.000465241
0.000317403
-0.00909316
-0.00637902
0.00565011
0.00171504
-0.000986129
-0.0169501
-0.00107047
0.00827216
0.00974844
-0.00512845
-0.00218504
0.00436293
0.00295057
0.00753728
-0.0252773
0.00350441
0.0142356
-0.00393927
0.00792786
-0.00432967
0.00034108
0.00565459
-0.00438991
0.000559514
-0.00182418
0.000128699
-0.010627
0.0104983
3.28061e-05
0.0086275
-0.00866031
0.00760819
-0.00148834
0.00100852
-0.00712837
-0.00455726
0.00650217
0.00215501
-0.00409992
-0.00321674
0.0136933
-0.00329022
-0.00718633
0.00646563
-0.0110185
-0.000419811
0.0049727
0.00739208
0.0078177
-0.0152098
0.0109081
-0.0122587
0.00314108
-0.00179051
0.00105987
-0.00196801
0.0142407
-0.0133326
0.000409904
-0.00230321
0.0102556
-0.00836233
0.00243488
0.0214596
0.00618183
-0.0300763
-0.0187678
0.0165105
0.0107051
-0.00844777
0.000862533
0.00661184
-0.00889114
0.00141677
0.00875059
0.00972914
-0.0031855
-0.0152942
0.0162712
-0.00988292
-0.000325959
-0.00606233
0.000711105
-0.00208414
-0.00654442
0.00791746
-0.00662329
3.77308e-05
0.00658556
0.00988501
0.000341468
0.000681655
0.0122864
0.001037
-0.0186827
0.00535931
-0.00985094
0.00217488
0.00175047
0.00592559
-0.00625018
0.00154993
0.000768401
0.00393185
0.00153212
0.00109572
-0.0129959
0.010368
-0.00266437
-0.0155065
0.00988625
0.00828462
0.00621568
-0.00735327
-0.00479159
0.00592918
0.010046
-0.000108593
-0.0100459
0.000108514
0.00769286
-0.0108718
-0.00377309
0.00695201
0.0199078
-0.00602386
-0.00310229
-0.0107816
0.0112904
-1.91533e-05
-0.010384
-0.000887161
-0.00568994
0.00670065
0.0139644
-0.0149751
0.0121992
-0.00428468
-0.011732
0.0038175
0.00224738
-0.00328044
0.0142787
-0.0132456
-0.0161206
0.0146929
0.0139282
-0.0125005
0.000726065
-0.0125543
0.00484515
0.00698309
0.0157125
-0.000829111
-0.000320937
-0.0145625
0.0110797
-0.00215963
0.00214232
-0.0110624
-0.0128424
-0.0116794
0.0138231
0.0106987
-0.00243671
0.00698968
0.00189447
-0.00644744
-0.00548817
0.00029917
0.0106372
-0.00544818
-0.00122331
0.0137945
-0.0128391
0.000267906
-0.0118965
0.0110482
0.00215082
-0.00130259
-0.00039943
-0.00694227
0.0165615
0.00219672
-0.00731801
-0.00534839
0.0104697
-0.00580887
7.62836e-05
0.00573258
0.0017809
0.00809825
-0.00749122
-0.00238793
0.0129198
-0.00744948
-0.00197971
-0.0034906
9.29307e-05
-0.0038103
0.00371737
-0.00728158
-0.00196243
0.00273572
0.00650829
0.000750451
0.00413169
-0.00927036
0.00438822
0.0158171
-0.00142822
0.00618198
-0.0205708
0.0011351
-0.00140043
-0.0191656
0.0194309
0.00123517
-0.00548291
-0.00724882
0.0114966
0.000463802
0.00997776
-0.000556559
4.00979e-05
-0.00587096
0.00583086
0.0121473
-0.0045056
-0.00544501
-0.00736437
0.00615062
-0.00606783
0.0134127
-0.011163
-0.0013523
-0.000897387
0.00134351
-0.00635351
0.0027778
0.0022322
-0.0109479
-0.0033147
0.00222513
0.0120375
0.00911344
-0.0148046
0.00975403
-0.00406283
-0.000405959
0.0133703
-0.0133878
0.00042351
-4.24003e-05
0.0121812
-0.0120692
-6.96471e-05
-0.0170146
0.0135788
-0.0108995
0.0143354
0.0141969
-0.0137397
-0.00045728
-0.0130092
0.0174235
-0.00318446
-0.00122985
-0.011624
0.00279546
-0.00087623
0.00970481
-0.0191618
0.00147628
0.0123202
0.00536533
0.00340234
-0.00464638
0.00258755
-0.00469397
0.00533702
0.00858574
-0.00922878
-0.00509353
-0.00228596
0.0029149
0.00446458
-0.0068986
0.00451439
-0.00872032
0.0111045
0.00207597
0.000167383
-0.0152525
-0.00680231
0.00678795
1.43652e-05
0.00743222
-0.00714505
-0.000287175
-0.0112276
-0.00073401
-0.00298831
0.00276876
-0.014776
0.017207
-0.00519979
0.00665561
0.0114526
-0.0145645
-0.00354368
0.0127143
-0.0138102
0.000371263
0.000724548
0.00677749
0.00176084
-0.00700507
-0.00153327
-0.010705
-0.000595408
0.0140692
0.00616316
-0.000445559
-0.00751315
0.00179554
0.00694467
-0.00594649
0.00684986
-0.00784805
-0.012106
0.0022739
0.0164877
-0.00408943
-0.00573658
0.0189426
-0.00911658
-0.00583701
-0.00642904
0.00156101
0.00173965
0.00461641
-0.0121931
-0.00825622
-0.000727168
0.0132653
-0.00428188
0.00128731
0.00203145
0.00737721
-0.010696
-0.00392991
0.00961995
-0.00569004
0.00311687
-0.014942
0.00539605
0.00890264
0.00621813
-0.0133811
-0.0125837
0.00015157
0.0156805
-0.00324833
0.00213036
0.00182491
0.00570194
-0.00965722
0.00846953
-0.00853502
6.54844e-05
0.00318543
-0.00120265
0.0106929
-0.0126757
0.0112108
-0.00355424
0.00539055
-0.0130471
0.0206143
-0.00663648
0.0153853
-0.0293631
0.00336936
0.00626972
-0.00260414
-0.00703493
-0.00932575
0.00383753
0.00488942
0.000598797
0.00668364
-0.00503497
-0.000137568
-0.0015111
-0.00433063
-0.0054903
0.0159893
-0.00616842
-0.00748878
0.00971825
0.00387764
-0.0061071
0.0112727
-0.000616497
-0.00371148
-0.0175115
0.0115733
-0.000960376
-0.0166992
0.0154071
0.00715523
-0.0058631
0.0106524
-0.0120048
-0.00173179
0.00308422
0.0060123
-0.0108628
-0.00569021
-0.00619782
-0.00568681
0.00321394
0.00867069
-0.00884711
0.00274689
0.00873291
-0.00263269
0.0102268
-0.00972896
-0.00669919
0.00620132
6.39723e-05
-8.91564e-05
-0.00959651
0.0096217
0.000231465
-0.00842283
-0.000319748
0.00851112
-0.00242766
-0.0143869
0.0022599
-0.00831771
0.00748183
-0.00142402
-0.00565774
-0.00238354
-0.000805831
-0.00019116
0.0142032
0.000200809
-0.0339079
0.0238512
0.0172372
-0.00718055
-0.0100225
0.000681764
0.000365402
0.00897529
-0.0019938
0.0317505
-0.0373602
0.00760352
0.00158496
0.00244468
-0.00548599
0.00145635
-0.0214516
0.0115582
0.001494
0.00839943
-0.000253918
-0.0142427
-0.00202705
0.0165237
-0.0059296
0.021457
-0.0148479
-0.000679488
0.00963286
0.014004
-0.0129438
-0.010693
-0.0114969
0.0109493
0.0135994
-0.0130518
0.00445915
0.00623099
-0.00776117
-0.00292897
0.00443676
-0.00299198
-0.00710252
-0.0228416
-0.00089657
0.0186595
0.00507859
0.00670843
0.00102575
-0.00389665
0.00689104
0.00922545
-0.00851799
-0.00759849
-0.0114031
0.00254011
0.0111248
-0.00226183
0.00135642
0.00358252
0.0124846
-0.0132374
0.0130708
0.00126737
-0.00110075
0.00818607
0.00642159
-0.00578666
-0.000229023
-0.00162819
0.00764387
-0.00874981
-0.00174071
0.00486671
-0.0168621
0.00717274
0.00482265
0.000513397
0.00910152
-0.0100989
0.000483953
-0.00350282
0.000677577
-0.00325689
0.00608213
0.0140829
-0.0100659
0.000419757
-0.00797712
-0.00624037
0.00839436
0.00582313
0.0301503
-0.0322533
0.0105357
-0.00843258
-0.00579146
0.00719624
0.0028988
-0.00430358
-0.0132336
0.00575114
0.0115367
-0.00405425
-0.00573547
0.00832599
0.010709
-0.0132995
0.016078
-0.00621611
-0.0106415
0.000779637
0.000279501
-0.00390747
0.00950574
-0.00587776
-0.00165221
0.0016383
-0.0125698
0.0115494
0.00375354
-0.0123649
-0.00293812
0.0145064
-0.0118999
-0.00320193
0.00304612
0.00450461
-0.0106572
0.00310644
-0.00596541
-0.0109338
0.00971291
0.00718628
-0.00181999
-0.00472452
-0.00143261
0.00592661
-0.00633154
0.0136437
-0.0132388
0.0014356
-0.0165236
0.015088
0.00561757
-0.0073503
0.00477885
0.00305438
0.00176323
0.00250526
-0.00732287
-0.000310502
-0.0137656
0.0140761
-0.00751693
0.000998618
-0.00243919
0.00895751
-0.000901467
0.0104267
-0.00950278
-2.24918e-05
-0.00707816
-0.00374668
0.00408724
0.00673761
-0.00263895
-0.00625921
-0.00581271
-0.00854451
0.00712652
0.0072307
0.000314192
-0.00876585
0.0151035
-0.0062101
-0.000804087
-0.00808932
0.00802128
-0.000766294
-0.00585214
-0.00140285
-0.00127999
0.0112925
-0.0141013
0.00408879
0.00728099
0.000280075
0.00354448
-0.0111055
-0.000267702
-0.00598539
0.00288914
0.00336395
-0.00414861
0.00539762
0.0104323
-0.0116813
-0.014685
-0.00380115
-0.00410363
0.0135223
-0.0125624
0.000295087
0.00393676
0.00833058
0.00120972
-0.00445196
-0.00792805
0.0111703
-0.00576361
-0.0112512
0.00283899
0.0141759
-0.00525203
-0.00582421
0.00606046
0.00501578
-0.013594
0.0130854
0.0138086
-0.0133001
-0.00184421
-0.00321943
-0.00969531
0.0147589
-0.0132781
0.00134725
0.0135139
-0.00158305
-0.00230889
0.00619278
-0.00388389
-0.00537863
0.00994198
-0.0074846
0.00292125
-0.0002319
0.0178425
-0.00662524
-0.0109854
-0.00638575
-0.0030853
0.0128144
-0.00334334
0.00206017
-0.00540123
0.0122577
-0.00891661
0.000561929
0.00796838
-0.001396
-4.35594e-05
-0.0130564
0.0130527
4.722e-05
0.0149063
-0.00263976
-0.0217873
0.00952081
-0.0137661
-0.00134895
0.0171882
-0.00207313
-0.00747129
0.0112877
0.000926636
-0.00474302
0.0066545
-0.00657233
-8.21743e-05
-0.00795297
0.000768074
-0.00686232
0.0140472
-0.0114756
0.015814
-0.00329625
-0.00104224
0.00715268
-0.00299983
-0.00862431
0.00447145
-0.0138214
0.0139444
-0.000123049
0.0113887
-0.0165611
0.0013397
0.00383268
-0.0129028
-0.00353205
0.0220648
-0.00562994
0.00952083
-0.000397208
-0.0019997
-0.00712393
-0.00542638
-0.00920418
0.0205572
-0.000967418
-0.0135825
0.00821842
0.0213603
-0.023829
-0.00226216
0.00473084
0.0057277
0.00273001
-0.00632735
-0.00599932
0.00625492
-0.000255602
-0.00244247
0.0136474
-0.000867088
-0.0103378
-0.00297264
0.0035261
0.0118579
-0.0124114
0.00774658
0.0181845
-0.0106384
-0.0152927
0.0133067
-0.0159651
0.00507555
-0.0024171
0.0120873
0.000168986
-0.0122563
0.000224255
0.0117633
-0.0119876
0.0132629
-0.0160538
0.0141797
0.000143765
-0.000121554
0.0103269
-0.0103491
0.000267246
0.0188054
-0.0187365
-0.000336167
-0.00160696
-0.00475091
-0.00961606
0.0159739
-0.00588229
-0.00352611
0.00118126
0.0111336
-0.0193723
0.0070574
-0.00938908
-0.00246196
0.0100665
0.0017845
-0.0110928
0.0122495
-0.00327236
0.00211572
0.00174722
0.00910133
-0.0030963
-0.00775225
-0.0044108
0.00109429
0.00748493
-0.00416842
-1.34443e-05
0.00338774
-0.00425068
0.000876376
-0.00472605
0.011563
-0.00666593
-0.000171018
0.00345595
-0.010907
-0.00637031
7.68607e-05
-0.0101706
0.0100937
-0.00377967
-0.00362676
0.00168189
0.00572454
0.00568082
-0.00327727
-0.00240355
0.0142284
-0.0141299
-0.00288294
0.00278446
-0.00129227
-0.00840849
0.00775428
0.00194648
-3.52968e-05
4.77239e-05
0.00763076
-0.00764318
0.0038066
-0.00312859
-0.0121117
0.0114336
0.00878799
-0.000224244
-0.00856375
-0.0128389
-0.00831405
0.0123896
0.00876336
0.00752311
0.0117881
-0.0202787
0.00714385
-0.00257117
0.00402267
-0.00859535
-0.0028619
0.00283932
-0.0157499
0.0157725
0.00445942
-0.00878254
-0.00854413
0.0128672
-0.000900427
-0.0020163
0.009503
-0.00658627
0.00662662
-0.00814428
0.00295121
-0.00143356
0.00363206
-0.00602052
-0.00581924
0.0082077
-0.0116995
0.0131735
-0.00350904
0.00203497
0.0133245
0.0171394
-0.0188716
-0.0115923
-0.0103057
0.0102617
4.4046e-05
-0.0011545
0.0121762
-0.015208
0.00418635
0.000472086
-0.00077199
-0.0117009
0.0120008
0.0114919
0.000483363
-0.0132267
0.00125151
-0.00491344
-0.00830576
0.0104447
0.00277451
-0.0118736
0.0168228
-0.00595649
0.0010073
-0.00488832
-0.00597697
0.00354728
-0.000727397
-0.000123671
-0.00842344
0.00927451
-0.0275176
0.000111966
0.00246685
0.0249388
0.00108808
-0.00699193
-0.00361884
0.00952269
0.017186
-0.00141262
-0.00556314
-0.0102102
-0.00305718
-0.00661065
0.00128123
0.0083866
0.00483267
-1.80892e-05
-0.00481458
0.00807444
0.00430241
-0.00267853
-0.00969832
0.00625345
-0.00495264
0.0123358
-0.0136366
0.000404771
0.0128329
-0.0042408
-0.00899689
0.00311479
0.00444656
0.00962463
-0.00614359
0.000438008
0.00570558
-0.00798131
0.00113056
0.00211711
0.00133866
-0.0110387
0.00758297
-0.0104498
0.0152907
0.00463405
0.0157962
-0.00334942
-0.0170808
-0.0100364
0.00985319
-0.0155931
0.0157763
-0.0015058
-0.00755052
0.00264122
0.00641509
-0.0083297
0.0157218
0.00467172
-0.00543765
0.0012172
-0.000451275
-0.00515282
-0.0164312
0.00514358
0.0164405
0.0107959
-0.0107743
-9.75584e-05
7.597e-05
0.00872681
-0.0101908
0.0021724
-0.000708447
0.00224023
0.0087643
-0.0156135
0.00460897
3.77005e-05
0.00752556
-0.00756326
0.0048826
-0.0125115
0.0098691
-0.00471971
0.0126726
0.0106743
-0.0186272
0.00360243
-0.00366833
-0.0170565
0.0171224
-0.00514154
0.00851847
-0.017087
0.01371
-0.0122459
0.00975051
0.0127846
-0.0102893
-0.00767171
0.0105105
-0.00679082
0.00395202
-0.00161799
0.00704934
0.00114703
-0.00657837
0.00357194
-0.00520813
0.0053709
-0.00373472
0.00674083
0.00250817
0.00221721
-0.0114662
0.0191862
-0.0130262
-0.000784941
-0.00537498
-9.4358e-06
-0.00930476
0.00931419
0.0058282
-0.0085228
-0.0261326
0.0288272
-0.00117068
-0.0126678
-0.00384017
0.0176787
-0.000769562
-0.00582781
0.00659738
0.00177579
0.00842075
-0.00133072
-0.00886582
-0.00235113
-0.0084863
0.00684861
0.00398882
0.00656664
-0.00549973
-0.00965998
0.0167429
-0.013031
0.00368757
0.0039066
-0.00759418
0.0126415
-0.000304422
-0.00151542
-0.0108217
-0.00242866
-0.00413092
0.00655958
0.00451764
0.0030018
0.0252715
-0.0303958
-0.0107348
0.0158591
0.0038803
0.00826719
-0.00632296
-0.00582453
-0.00884847
0.016943
0.0112571
-0.0193516
0.0099717
0.0034613
-0.00133449
-0.0120985
0.0164933
-0.0109978
0.00709684
-0.0125924
-0.00924306
0.00422642
-0.0115872
0.0166039
-0.0150497
0.0269706
-0.0105705
-0.00135042
-0.00039912
-0.00643992
-0.00887635
0.0157154
0.0122184
0.0050481
-0.0143378
-0.00292879
0.00653984
-0.0174349
0.0110047
-0.000109662
-0.0154138
-0.000587147
0.0100853
0.00591566
-0.00309269
0.00799687
0.00347779
-0.00838197
-0.00196013
0.00785988
0.00632353
-0.0122233
-0.016062
0.00826222
-0.000781484
0.00858131
0.00147092
-0.00437643
0.00869726
-0.00579175
0.00681353
-0.00342748
0.002432
-0.00581805
0.006596
0.00126851
0.00064936
-0.00851387
-0.00974687
0.0104579
0.00387346
-0.00458447
-0.0023079
0.0123558
0.000250156
-0.010298
0.00996806
-0.00585223
-0.0038653
-0.000250538
0.0086196
6.57972e-05
-0.0086854
0.00630092
0.00487867
-0.00110637
-0.0100732
0.0029453
0.0077718
0.00664872
-0.0173658
-1.53039e-05
-0.0139677
0.013983
-0.00729365
0.0282116
-0.00411154
-0.0168064
-0.000132206
0.0105126
-0.0103804
-0.000702446
-0.00757202
0.00135989
0.00691457
-0.013719
0.00698941
0.00530928
0.00142034
0.00280019
0.00232892
-0.0160408
0.0109117
0.00818834
0.0129352
-0.00483421
-0.0162894
0.0123398
-0.00422809
-0.0118113
0.00369958
-0.0154244
0.00879639
0.023514
-0.016886
-3.97183e-05
0.00590577
-0.00590577
3.97178e-05
-0.00610981
0.0060462
6.36138e-05
-0.0156898
0.000243353
0.00659796
0.00175298
0.00378806
0.0103705
-0.0159115
0.00818306
-0.00973296
0.00627755
-0.00472766
-0.00783195
0.00685915
-0.000260059
0.00123285
-0.00163802
-0.0128972
0.0165088
-0.00197362
-0.00576807
0.00277764
0.0091325
-0.00614207
0.0100019
-0.00385534
0.00147505
-0.0076216
-0.00664318
-0.00115811
0.00777668
2.46061e-05
-0.00114144
-6.10848e-05
0.0108404
-0.00963787
0.0013815
-0.00116219
0.0108596
-0.0110789
-0.00976779
0.0136528
-0.0143065
0.0104215
6.60131e-05
-0.0123119
0.0122459
-0.00438453
0.000384159
0.0110531
-0.00705273
-0.00841298
0.00983554
-0.0134135
0.0119909
-0.00862355
0.000654218
0.00262094
-0.00399316
0.0108189
0.00060159
-0.00742738
-0.00288163
0.000401639
-0.00488438
-0.00425837
-0.0138328
0.013896
0.00419518
-0.00616133
-0.000722077
-0.00154786
0.00843127
-0.0211171
0.00713616
0.00208329
0.0118977
-0.00668024
0.0153114
-0.0076125
-0.00101866
0.00466174
0.00182812
-0.00937149
0.0091997
0.00938073
-0.0185804
0.00123528
0.0201807
-0.00467045
-0.0167455
-0.000256387
-0.000358138
-0.00889971
0.00951424
-0.00968632
0.0159558
-0.00643195
0.000162514
0.00919418
-0.00580569
-0.008333
0.00494451
0.00229437
-0.000307679
0.00280854
0.0141275
0.00394677
-0.0204354
0.00236114
-0.00978799
-0.00127556
0.00320914
0.00785441
0.00370462
-0.00411242
-0.00556917
0.0170249
-0.0114521
0.00889828
-0.0144711
-0.00188357
0.0109919
-0.0190105
0.00990219
0.00660435
-0.00834646
-0.000845859
0.00258796
-0.00730339
-0.00254227
-0.000247054
0.0100927
-0.00544648
-0.00515023
0.0105967
0.00136874
-0.0146168
0.0129627
0.000285374
0.00560518
-0.00540506
-0.0056466
-0.00913349
0.0115926
-0.00221121
-0.00024795
0.0130751
0.00359683
-0.0140857
-0.0025863
-0.00505544
-0.00738775
-0.000847287
0.0132905
0.00830253
-0.00252614
0.00962752
-0.0154039
-0.00924878
-0.000519011
-0.0110791
0.00592891
0.00142628
-0.0124104
0.0039709
0.00701319
0.00360806
-0.01292
0.00711547
0.00219644
0.00193057
0.0005073
-0.00968629
0.00724843
0.00148276
0.00634035
-0.000428478
0.0108897
-0.00215173
-0.00830947
-0.00427207
-0.000438444
-0.00399457
0.00870509
-0.0025281
-0.00340539
0.00651108
-0.000577594
-0.0101132
-0.00014279
-0.0170982
0.00613818
0.00899993
0.0243018
-0.000199073
0.00331405
-0.0274167
-0.0106327
0.0165203
0.00334966
-0.0092372
-0.00303039
0.00166155
0.0104621
-0.0090933
0.00126815
0.00359979
-0.00278494
-0.00208299
-0.0182775
-0.00377145
0.0157743
0.00627465
0.000399819
0.00771478
-0.00154795
0.000236385
0.00388749
-0.012198
0.00807411
-0.00754873
-2.68127e-05
0.00278354
0.004792
-0.010345
0.0127845
-0.00203967
0.00583759
-0.00526394
-0.000573648
-0.00861724
0.00124123
-0.0066947
0.0140707
-0.00389227
0.0058571
-0.00451449
0.00254965
-0.00837888
0.00943506
-0.00389934
0.00284316
0.00377056
-0.000620453
-0.00894359
0.00579349
-0.00374707
0.023488
-0.0316146
-0.00341476
-0.00238319
0.00233351
0.00346444
0.011163
-0.0174269
-0.000790227
0.00705409
-0.00471594
0.0035192
0.00606483
-0.00486809
-0.00139964
0.00745097
-0.00205414
-0.00399719
-0.00838359
0.00185997
0.00195956
0.00456406
-0.00467028
0.000401328
0.00426896
0.0107826
-0.00513458
-0.00547069
-0.000177348
0.000789581
0.00537903
-0.00816461
0.001996
-0.00577271
-0.00699794
0.00713582
0.00563483
-0.00298632
0.0077061
-0.00660865
0.00188887
0.00278853
-0.00527888
0.00363841
-0.00114806
0.0101065
0.0002743
-0.0103808
0.00870388
-0.0107172
0.00530378
-0.00329047
-0.0136604
-0.000398135
0.0140586
0.00562775
-0.00467071
0.00109095
-0.00204799
-0.000443982
0.00968686
-0.0105727
0.00132985
-0.0048588
0.0060828
0.00156453
-0.00538825
0.0115443
0.0106668
-0.0091881
0.00910732
8.07797e-05
0.000251791
-0.0145227
0.0142709
0.0196204
0.00237087
-0.00418436
-0.0178069
0.00409888
-0.0159882
-0.00198212
0.0138715
0.00311537
0.0036819
0.00207263
-0.0088699
-0.00549976
-0.00550688
7.41593e-05
0.0109325
-0.00262439
0.00360706
-0.00648243
-0.012099
0.0021855
0.0158822
-0.00596863
-0.023749
0.0173925
0.00765546
-0.00129902
0.0105026
8.83173e-05
-0.0105909
-0.00596237
-0.00802414
0.00518801
0.0087985
-0.00599315
-0.00870303
0.00259714
-0.0086295
0.00468721
0.00542505
0.00350354
-0.00455639
-0.00836329
0.00941615
-0.0059052
3.95319e-06
0.00590125
-0.0137631
0.00559482
0.00568284
0.00248548
0.00347667
-0.00929835
-0.00280781
0.0118259
-0.00375122
-0.000298282
-0.00777644
-0.00793594
0.0131502
0.00780525
-0.0130195
-0.00233079
-0.00489327
0.00180293
0.00542113
-0.00335071
-0.00269502
0.00604573
-0.00583972
-0.0122749
-0.00563436
0.00274173
3.53564e-05
0.00553206
-0.00830915
0.0112418
-0.00818714
-0.0118395
0.00878486
-0.00417092
0.00148689
0.00842763
-0.0057436
0.00791304
-0.00557076
-0.00078448
-0.0015578
-0.00907376
0.0014731
0.00708758
0.000513075
-0.00562151
0.0129153
-0.0139927
0.00545547
0.000404701
0.00813252
0.0131265
-0.0104867
-0.00825962
0.00561989
-0.0104369
0.00217128
0.0195074
-0.0101446
-0.00668875
0.0109184
0.00591499
-0.00118516
0.0105667
-0.00400859
-0.00537297
0.000600259
-0.00621622
-0.00409953
0.00971549
0.0120297
-0.00793612
-0.000488156
-0.0036054
0.00371572
0.00277551
-0.00911562
-0.0025289
0.00286318
0.00706073
-0.00739501
-0.00209785
0.0109544
-0.0135012
0.00464467
-0.00656753
0.00158405
0.00158966
0.00339383
-0.0144051
0.0146526
-0.000247531
0.00991599
-0.00977424
-0.000141753
0.00399051
-0.0154123
-0.00591794
0.0173397
0.00353482
0.00672294
0.00156819
-0.000169462
0.00587964
-0.00571018
0.00941333
0.00843813
-0.0178515
-0.0104658
0.00638922
0.00451601
-0.000439423
-0.00587758
0.00193693
0.00477844
-0.000837792
-0.0175665
0.00819882
0.00963578
-0.000268142
-0.0056963
-0.00635128
0.00614238
0.00901662
-0.00142048
-0.00580995
-0.00178619
-0.00970841
0.010486
-0.00639909
0.00171451
-0.0108792
-0.000557465
0.00972216
-1.27129e-05
-0.00533741
0.00535013
0.026265
0.000207415
0.00279579
-0.0292682
-0.000986315
-0.00193144
-0.014227
0.0171447
0.00455809
-0.00617132
-0.0028764
0.00448963
0.00176873
0.013588
-0.00549085
-0.00986587
0.0148159
-0.0148243
-3.44515e-05
4.28641e-05
-0.00831225
-0.00750046
0.0117231
0.00408964
0.00485281
0.00371373
-0.00967179
0.00110525
6.86447e-05
0.00899617
-0.00919315
0.000128337
-0.0123817
0.00396572
0.0100348
-0.00161876
0.00951605
0.00575293
-0.0096338
-0.00563518
0.000225213
-0.00846882
0.00430301
-0.00220596
0.0127188
-0.00685242
-0.000892206
-0.00106932
0.00881395
-0.0114253
0.000599115
0.0108262
0.0167362
0.00723151
-0.00542443
-0.0185433
-0.0109298
0.00023537
0.0109196
-0.00100077
-0.00260551
-0.00665327
0.0102596
-0.001324
-0.00131311
-0.00351935
0.00615646
0.00275406
-0.0139732
0.0105353
0.000683846
0.00867518
-0.00135362
-0.0084414
0.00111984
-0.0107448
0.00224951
0.00087226
0.00762307
-0.00408575
0.00267621
-0.00552345
0.00693299
0.00235219
0.00148982
-0.013848
0.010006
0.000483605
-0.00938446
-0.000653306
0.00955416
0.00931021
0.00121906
-0.000158219
-0.0103711
-0.0111099
0.00258841
0.0100536
-0.00797677
-0.0105912
0.018568
0.0153976
-0.00784228
0.00331383
-0.0108691
0.00120975
0.00864954
-0.0053012
-0.0124474
0.00228953
0.0044118
0.00574604
0.0153612
-0.0158195
0.000458248
-0.00929015
-0.00315424
0.00650296
0.00594143
-0.0120583
-0.00936704
0.00627953
0.0151458
0.0125693
-0.0131274
-0.00160642
0.00216451
-0.00182759
0.00610144
-0.00480915
0.000535305
-0.0157315
0.0051292
0.0036133
0.00698896
-0.023154
0.0288249
0.00477368
-0.0104446
0.0103339
-0.0224049
-0.00114934
0.0132204
-0.00919795
0.0116899
-0.0216583
0.0191664
-0.00965549
0.0212724
0.00211388
-0.0137308
0.000849014
0.0100888
-0.00235422
-0.00858355
0.0153392
-0.0115052
-0.000386839
-0.00344716
-0.00269492
-0.00258803
0.00395531
0.00132763
-0.00726639
-0.0151091
0.0128833
0.00949221
-0.0102885
0.0137049
0.0119228
0.00835726
-0.00614395
-0.00765617
0.00544286
0.00309263
-0.00400179
-0.00176747
0.00267663
0.00684265
-0.00676689
-0.00901773
0.00894197
-0.00277515
0.00796148
-0.000576057
-0.00461027
-0.0110248
-0.00175767
0.0136315
-0.00831866
-0.00204542
0.0102842
7.98737e-05
0.00339911
-0.00759401
0.0041949
0.00271225
-0.00360251
0.0134219
-0.0125317
0.0104755
-0.0147324
0.0021338
0.00212311
0.00667921
-0.00720688
0.000527674
-0.0105697
0.000281242
0.00945868
-0.00360297
-0.00912676
0.00327106
0.00296975
0.00240917
0.0105629
-0.0159419
0.00651528
-0.00707475
0.000559468
-8.0806e-05
0.00822143
-0.00929445
0.00115383
-0.0116117
-0.00111956
0.0154435
-0.00501332
-0.000856837
0.00115819
0.00471196
0.000692478
-0.00572353
0.00422202
0.000809025
0.00937503
-0.00897343
-0.00222918
0.00107654
0.0154813
-0.00975144
-0.00680642
-0.00532959
0.0112682
-0.00593863
-0.0144226
0.00552305
-0.00338368
0.0122832
0.0113619
-0.0102922
-0.0168011
-0.00552339
-0.00660994
0.0227164
-0.0105831
-0.0162265
0.0103355
0.0147341
-0.00884308
-0.000362193
-0.0138462
0.0142083
0.0219712
4.42448e-05
-0.0126597
-0.00935567
0.0127351
-0.00820228
-0.00113214
-0.00340064
-0.00929026
0.00659432
-0.00166479
0.00436073
0.000126393
-0.00953511
0.00940872
-0.00698667
0.00719133
-0.000204655
-0.00506745
-0.00535675
-0.013727
0.0241512
-0.0129273
0.00281981
-0.00144569
0.0115532
0.00299615
0.0048621
0.0132703
-0.0119746
-0.00990332
0.00860767
-0.00368427
-0.00759485
0.00837869
0.00290044
-0.00765269
-0.00389185
0.0115557
-1.11148e-05
0.00250285
-0.00144108
-0.00708022
0.00601844
0.0084472
0.000374461
-0.0107974
0.00197573
0.00260578
-0.00181127
0.00279527
-0.00337235
0.00335981
-0.00278273
0.0069063
0.00676363
-0.00690647
-0.00676346
0.00339602
0.00793022
-0.0082059
-0.00312034
0.00720289
0.00312269
-0.00566384
0.00892441
-0.0108214
0.00227141
-0.0118603
0.00829182
0.00446379
-0.000895296
0.0140984
-0.00466815
-0.0147599
-0.00375534
0.0100623
0.00505489
0.00981254
-0.00477999
-0.00826497
-0.00225188
-0.00134346
-0.0131896
0.012344
0.00115871
-0.000313159
-0.000820639
0.0164879
-0.00170892
-0.0139583
-0.0107369
0.00218845
0.00479314
-0.001727
-0.0109043
0.00306426
0.009567
0.00985247
0.00136612
-2.55124e-05
-0.0111931
-0.0147096
-0.000123864
0.000101208
0.0147323
-0.00378544
0.00414401
-0.00673361
0.00637503
-0.0101323
0.0128144
-0.00132323
-0.00135889
0.0133127
-0.0124321
-0.0110129
-0.00985181
0.00888126
-0.00282005
0.00379059
0.00795535
-0.000358438
-0.00250227
-0.00509464
-0.0148958
0.0143646
0.00703993
-0.00650873
0.00706236
0.00268986
-0.00089682
-0.0088554
0.00255019
0.00646201
-0.00808278
-0.000929426
-0.00478314
0.00481133
-2.81852e-05
-0.00279942
-0.00714774
0.00717201
0.010782
-0.0106892
-9.27614e-05
-0.00608927
-0.00484898
0.00476693
-0.000637297
-0.00729433
-0.000798255
0.00872988
-0.00082678
-0.00636519
0.00568994
0.00150203
0.0100211
-0.0113902
0.00136911
-0.0127857
0.013129
0.0120077
-0.012351
-0.00861664
0.00665571
-0.00453395
0.00649488
-0.00344484
0.00147223
0.00311907
-0.00114646
-0.00036522
0.0155577
-0.000135966
-0.0150565
-0.00786312
0.00381214
0.00387204
0.00449839
0.00572489
-0.00998845
-0.000234834
0.000433762
-0.0124084
-0.000486988
-0.0112472
0.0112438
3.31575e-06
-0.00754856
0.00380057
-0.0083103
0.00255925
-0.00566325
0.000227591
0.00493319
0.00214207
0.00744288
0.000145071
-0.0063647
-0.00122325
0.00623093
-0.0155465
0.0124645
-0.0031489
0.00257836
-0.00351386
0.0130692
-0.0121337
0.0160177
0.00472131
-0.00246338
-0.0182756
-0.00407699
-0.00668115
-0.00216676
0.0129249
0.00484756
0.0202037
-0.0182432
-0.00680802
0.0023283
0.014634
-0.014127
-0.00283534
-0.00503792
0.000664854
0.0103256
-0.00595253
-0.00176896
0.0143726
-0.00775611
0.0103938
-0.00820637
-0.00320241
0.001015
0.0034046
0.00890982
-0.0123144
0.00833433
0.00184914
-0.00111035
-0.00907311
-0.00766313
0.00612397
0.000616167
0.000922995
-0.000747671
-0.010841
0.000631568
0.0109571
-0.0079612
-0.00101084
-0.000332842
0.00930488
0.0045837
-0.0101638
0.000101043
0.00399543
0.00606736
8.6489e-05
0.00660161
-0.0066881
0.000817007
0.0115862
-0.029605
0.0172017
0.00326841
-0.0082358
0.00782472
-0.00285733
0.00469082
0.00535487
-0.00370877
-0.00633692
4.82358e-05
-0.00592247
0.00587423
-0.00320967
-0.00227758
0.0129989
-0.0075117
-0.00396835
0.0132548
-0.0114409
0.00215446
0.0145037
-0.0100774
-0.00973278
0.00530647
-0.00595691
0.00403741
0.00184699
7.25151e-05
-0.000807336
0.00457368
-0.00245123
-0.00131511
0.0155908
-0.0121862
0.00724768
-0.000837726
-0.0118638
0.00545386
-0.0033092
0.00309433
0.00370737
-0.00349249
0.000188277
0.0149092
-9.33711e-05
-0.0150041
-0.0108797
-0.00358381
0.0147487
-0.00028518
-0.00309003
-0.00132417
0.00339681
0.00439563
-0.00646827
0.00880029
0.006208
-0.0131675
-0.00184075
-0.00270936
-0.00176662
-0.0117794
0.0162553
0.0155145
-0.0122683
-0.021623
0.0183768
-0.00603259
-4.52948e-05
0.00607789
-0.0073184