/*--------------------------------*- C++ -*----------------------------------*\
  =========                 |
  \\      /  F ield         | OpenFOAM: The Open Source CFD Toolbox
   \\    /   O peration     | Website:  https://openfoam.org
    \\  /    A nd           | Version:  10
     \\/     M anipulation  |
\*---------------------------------------------------------------------------*/
FoamFile
{
    format      ascii;
    class       volScalarField;
    location    "6.8";
    object      SgRate;
}
// * * * * * * * * * * * * * * * * * * * * * * * * * * * * * * * * * * * * * //

dimensions      [1 -1 -3 -1 0 0 0];

internalField   nonuniform List<scalar> 
111485
(
6.26788e-18
9.6802e-06
2.82165e-05
6.8192e-20
5.86924e-05
1.39723e-18
5.46927e-05
7.20681e-06
2.26907e-05
1.42985e-06
5.51384e-05
1.11921e-05
5.63927e-06
1.02021e-06
7.77354e-06
3.6644e-05
1.66613e-06
0.0030949
1.24287e-05
2.3146e-17
3.90323e-18
1.47889e-19
3.11605e-05
4.15962e-05
1.0566e-05
2.3245e-18
4.78758e-05
2.16355e-06
1.84982e-05
2.81677e-18
5.48314e-05
2.24696e-05
2.21326e-18
1.81839e-18
8.42391e-06
3.76568e-18
1.31694e-05
4.96664e-06
5.09121e-11
2.79204e-05
8.20596e-20
8.51796e-05
1.88968e-05
1.68434e-06
6.98941e-08
7.49457e-17
3.65294e-05
8.55435e-07
5.68299e-05
2.18853e-18
1.22577e-19
2.84733e-18
4.04359e-18
6.03744e-05
3.01652e-18
5.21449e-05
3.83283e-06
5.15396e-20
2.6371e-08
5.70832e-06
1.92116e-05
2.26969e-17
5.5403e-06
0.000115695
1.08516e-17
3.88752e-06
0.000377967
0.000113312
1.28222e-06
7.04412e-06
1.52374e-08
7.55361e-06
2.93488e-18
3.35925e-06
2.46226e-17
8.29706e-07
2.49577e-19
5.01298e-05
2.72201e-19
3.90758e-19
4.38106e-09
4.00414e-05
1.64081e-18
2.66263e-17
1.08422e-05
4.77415e-06
5.11182e-13
3.00898e-05
6.93519e-08
8.6904e-06
3.72113e-07
4.91494e-05
1.38249e-05
7.21017e-08
6.33981e-05
1.28918e-17
4.96344e-19
2.08358e-06
2.88704e-11
1.41252e-06
7.11031e-18
2.19185e-05
1.4743e-18
2.22669e-05
5.58463e-06
1.12098e-17
4.51663e-19
9.04459e-06
4.71636e-06
8.1642e-11
6.76316e-06
5.75058e-06
4.36102e-06
3.71586e-06
4.34105e-18
3.96847e-08
2.60875e-18
1.34803e-18
1.51166e-05
9.64057e-19
1.70613e-18
1.60756e-17
7.43923e-19
8.11389e-20
2.02881e-06
3.39788e-09
9.73359e-19
1.95929e-06
6.00839e-19
4.64025e-08
1.64597e-06
3.85145e-05
1.42728e-17
1.16434e-17
1.01901e-18
5.83821e-05
5.78409e-19
5.05247e-05
2.99667e-05
3.30225e-06
2.76552e-07
2.40243e-06
2.67585e-05
3.29529e-06
4.74663e-06
1.54289e-05
3.62542e-19
5.85996e-17
3.59603e-18
3.33136e-05
1.91885e-06
2.13696e-18
2.53762e-10
5.81361e-06
5.43544e-10
1.2792e-05
1.96922e-05
1.27118e-05
8.38262e-11
5.60249e-18
3.12565e-18
6.2717e-05
2.81033e-05
2.36149e-09
3.92727e-10
6.87403e-06
4.17271e-06
1.38529e-19
5.80626e-09
5.66806e-08
5.02447e-19
2.24036e-18
1.60983e-07
3.81155e-19
6.86985e-06
2.5464e-06
1.44559e-19
8.92428e-18
4.03212e-18
1.0288e-17
7.87685e-18
1.87624e-18
1.73762e-06
8.14473e-06
3.52736e-05
4.99673e-06
8.87862e-06
4.7417e-06
9.54751e-08
6.20943e-19
5.65534e-06
4.67275e-18
2.81516e-18
7.71213e-06
1.26261e-05
3.31108e-05
1.32962e-05
5.90804e-06
3.75996e-17
7.85922e-06
6.06354e-07
5.25657e-08
1.63555e-05
2.78775e-06
5.58487e-17
4.39567e-06
3.11696e-05
5.07646e-17
2.03047e-07
9.19333e-06
2.4576e-06
4.17779e-07
9.57119e-18
1.60502e-17
9.73204e-06
1.15203e-14
0.000145069
9.95922e-18
7.86902e-06
2.42131e-05
0.000144533
1.7361e-17
3.71361e-06
1.63383e-05
1.87245e-16
6.79752e-19
6.81774e-19
0.000183537
3.46685e-10
1.33239e-17
2.13387e-18
1.15262e-05
9.33447e-06
1.80938e-05
4.73198e-18
8.57976e-18
1.57047e-08
2.55253e-17
2.99169e-06
1.09195e-05
1.90033e-05
1.39033e-05
1.17961e-05
1.53009e-18
3.14284e-10
7.3984e-07
1.21236e-18
9.87873e-19
3.65416e-05
2.48606e-05
4.43573e-17
7.49387e-06
1.2656e-05
2.03427e-18
3.05056e-17
1.6599e-07
2.11922e-19
1.36199e-17
5.08913e-08
3.90475e-18
1.80155e-05
1.31205e-05
4.46299e-06
8.20017e-17
1.39168e-05
2.59865e-19
4.77869e-18
1.69319e-17
2.52517e-11
2.74686e-05
7.3542e-06
6.28607e-06
4.39329e-05
1.45275e-05
1.93566e-06
6.7266e-07
3.93578e-05
1.07432e-05
1.08827e-18
4.664e-18
3.14348e-10
2.68321e-05
2.90369e-05
1.45073e-05
4.37331e-19
8.31769e-06
2.52579e-06
3.57719e-06
4.21012e-09
4.32714e-09
1.60589e-05
2.66534e-06
2.34397e-06
8.25629e-19
8.0606e-07
1.11472e-18
1.54368e-10
6.38876e-16
0.000293719
8.14241e-05
1.45854e-05
4.19259e-18
1.17733e-19
1.06722e-05
1.99084e-06
8.40247e-18
8.01981e-18
2.47828e-17
3.75097e-07
7.05413e-05
4.62348e-06
1.66729e-05
2.2833e-05
1.07004e-17
1.1417e-18
4.16e-17
4.54341e-06
1.77082e-15
1.20417e-06
0.000222461
3.97665e-10
3.56031e-19
6.87243e-19
1.40144e-18
3.26674e-17
7.12356e-05
1.43971e-05
9.47319e-20
6.19311e-06
3.32455e-17
4.7566e-18
8.24237e-05
6.91915e-06
1.33499e-05
1.1067e-05
1.00922e-18
2.10497e-17
2.99099e-18
1.11424e-05
2.23503e-05
6.06453e-06
2.88646e-18
4.07376e-13
1.96949e-07
2.52315e-06
9.4872e-06
4.45079e-08
3.40121e-05
4.53301e-19
4.479e-05
4.17216e-06
9.27356e-06
2.9634e-05
1.63897e-05
2.06509e-18
1.46074e-18
4.59429e-18
7.8613e-18
3.7707e-05
1.14221e-05
4.03692e-05
8.06106e-05
3.68809e-19
2.2632e-05
2.09786e-19
1.49626e-17
1.97441e-05
1.19116e-18
8.61323e-05
4.15825e-17
9.29354e-21
2.78076e-05
4.16056e-20
1.64186e-05
3.44969e-07
1.47681e-19
1.22715e-06
1.94452e-05
1.13385e-17
1.05454e-05
1.13076e-05
9.64224e-06
7.56496e-07
3.27361e-06
6.83813e-06
1.70183e-17
4.73152e-17
2.14735e-06
8.11965e-19
7.22373e-06
0.00014089
4.82959e-19
3.11767e-19
3.22074e-05
1.37959e-07
9.76945e-06
2.59356e-05
9.29424e-20
5.32952e-05
2.30652e-05
8.06999e-20
9.75519e-07
2.97993e-06
2.43663e-18
1.29716e-18
1.33471e-05
6.27606e-06
3.60528e-19
1.13688e-18
3.60689e-11
8.28976e-18
1.42533e-05
1.32878e-18
1.29495e-18
2.05291e-05
2.10676e-09
1.47883e-05
3.53046e-05
3.42432e-20
6.93079e-17
1.70773e-06
7.80823e-19
1.73435e-07
1.64475e-05
0.00014693
0.0010251
4.62345e-18
3.28171e-06
5.6107e-07
1.0394e-17
4.63313e-05
3.82087e-05
6.17716e-17
9.03797e-12
1.12035e-07
1.65875e-17
2.92912e-05
2.93631e-05
1.71236e-05
5.34304e-19
7.999e-07
2.20675e-05
2.7545e-05
9.87479e-10
1.73587e-17
7.23329e-13
9.9275e-18
1.61533e-08
3.74801e-05
9.93123e-19
1.02962e-05
1.10107e-07
3.2408e-18
5.76171e-18
5.97356e-17
1.97725e-18
4.80506e-06
1.15452e-05
7.91997e-06
2.55667e-06
3.34593e-06
1.10945e-18
2.39881e-06
1.59907e-17
4.80343e-05
1.00697e-18
1.20863e-18
2.76859e-18
4.30566e-05
1.58052e-17
1.322e-17
2.26684e-10
3.63635e-18
6.96382e-18
1.23593e-06
6.01924e-19
1.44162e-16
6.37092e-19
2.76271e-18
4.79869e-18
1.88211e-17
5.30267e-19
8.61356e-06
2.99235e-18
6.13568e-07
2.24875e-06
1.20932e-06
1.45293e-18
9.83373e-07
1.28665e-18
2.27935e-18
3.3907e-06
2.1966e-06
3.31152e-05
2.96492e-05
4.03452e-18
2.4463e-06
9.69483e-05
1.02342e-05
1.23687e-06
3.97933e-06
3.60363e-17
2.78994e-05
5.04472e-17
5.87469e-06
1.73501e-20
9.04814e-05
9.83455e-18
2.57817e-05
2.90147e-07
4.3465e-10
7.41892e-19
2.44362e-06
2.35073e-18
9.56011e-05
5.81577e-05
5.96575e-19
3.14132e-18
2.63755e-17
7.2823e-19
1.67605e-12
6.53228e-05
9.19121e-19
3.16801e-19
3.01761e-06
1.56052e-19
4.0015e-05
9.58776e-21
3.81819e-07
3.54465e-18
5.98097e-07
1.25457e-09
1.22709e-06
1.56265e-05
3.48601e-18
4.83267e-07
1.02566e-18
1.99099e-19
1.82931e-05
6.25044e-19
3.74247e-08
8.37328e-18
1.90246e-06
1.24316e-17
7.78919e-05
1.24525e-18
5.3233e-17
2.07313e-05
4.07621e-06
2.07274e-06
4.77079e-06
8.09336e-06
2.48985e-05
2.82618e-18
2.93662e-05
7.52355e-06
6.21751e-19
9.5975e-11
4.71808e-05
1.77465e-05
5.41416e-18
4.98413e-06
7.80229e-06
1.99972e-06
1.30627e-06
2.45773e-13
1.63146e-05
1.41496e-06
1.64713e-07
2.90079e-05
1.64477e-05
7.88233e-07
2.28756e-17
3.89355e-12
0.000776979
1.33858e-18
4.31314e-07
5.63158e-20
2.08495e-17
8.8184e-06
3.50564e-06
2.50986e-10
1.73447e-08
8.34657e-18
2.0028e-05
1.32892e-05
1.84128e-18
1.4477e-13
2.40417e-06
6.4335e-18
6.23324e-20
1.31841e-19
7.41271e-19
1.60898e-05
6.04344e-19
7.10026e-17
1.06821e-05
2.39125e-06
1.72604e-16
1.26099e-05
1.86871e-17
1.01698e-05
3.83103e-18
2.49288e-18
6.41864e-05
4.51375e-19
9.47557e-20
6.2264e-17
5.33911e-06
3.51948e-17
3.53611e-05
7.50638e-06
1.91121e-18
0.000102472
2.97465e-06
3.38695e-05
3.3258e-05
6.23983e-07
9.60045e-08
3.16348e-18
6.5389e-05
5.49826e-05
9.44974e-18
3.82941e-07
4.77895e-05
9.11043e-06
1.73786e-06
3.2838e-05
3.10661e-05
7.0466e-17
1.28063e-05
6.28317e-09
7.87038e-18
4.10336e-05
3.15511e-07
4.36182e-17
1.30707e-05
4.81082e-05
1.65008e-06
2.51688e-05
2.31415e-05
8.41069e-06
1.24034e-17
1.21054e-05
3.93151e-07
1.11284e-14
2.01852e-05
2.09458e-05
4.29577e-05
3.20276e-19
2.28035e-06
3.79256e-18
1.6094e-18
5.10917e-18
9.22398e-19
1.72584e-08
1.11529e-17
3.29568e-13
3.25055e-18
4.87905e-19
8.89098e-08
5.15142e-05
8.40121e-18
3.88298e-05
3.60035e-17
1.96265e-17
1.09499e-17
4.67499e-05
4.97226e-07
6.20395e-17
1.06659e-16
9.63419e-19
1.24075e-19
0.000254525
8.28466e-05
4.51707e-17
2.33095e-06
2.71472e-09
3.10034e-19
4.43763e-05
9.74152e-06
1.46557e-05
7.90715e-21
1.09003e-18
5.07384e-07
1.29316e-06
1.15582e-17
3.62382e-19
5.26267e-18
8.68835e-06
4.96624e-19
4.0024e-18
2.79817e-18
4.96047e-05
2.36437e-06
6.49391e-20
0.00469717
0.000369094
1.22452e-05
4.1618e-20
3.34466e-18
6.61944e-05
4.80202e-07
3.15594e-18
7.22169e-09
0.000144903
3.00767e-06
1.36069e-05
3.86124e-17
6.42896e-05
2.18917e-06
1.49306e-19
5.26994e-18
6.97248e-19
4.79056e-18
3.71025e-19
1.52238e-19
2.5978e-05
4.41257e-18
1.95478e-18
2.13087e-18
1.38701e-05
2.78749e-05
3.38489e-18
2.91977e-18
0.000127024
1.70303e-05
1.13504e-05
7.74506e-18
1.58553e-18
4.41304e-05
4.67438e-18
2.15065e-06
3.086e-06
4.54797e-06
1.65881e-18
4.40584e-18
1.28831e-18
8.72221e-19
1.80576e-05
3.77887e-20
5.96864e-19
1.17916e-06
1.89476e-18
2.71915e-05
2.16822e-06
3.07662e-18
4.42645e-05
0.000464575
3.00532e-06
3.48911e-05
1.76825e-07
5.36115e-05
1.4077e-13
5.42834e-17
2.79091e-05
8.38748e-05
7.29911e-06
6.49869e-18
8.38081e-13
0.000868368
1.20413e-05
7.81161e-19
3.0484e-06
3.15464e-06
1.45275e-06
1.91559e-17
1.79074e-17
6.57161e-17
1.57386e-05
1.29277e-16
3.04969e-06
1.37198e-17
1.53168e-06
1.65298e-06
4.35209e-05
6.65894e-07
2.62262e-19
1.01897e-18
4.9807e-18
2.45859e-05
5.0979e-19
1.88319e-17
7.70197e-08
1.72572e-19
7.2388e-20
1.23064e-18
1.13348e-18
1.17866e-05
2.09044e-17
4.88945e-19
5.77815e-13
1.27063e-17
3.36494e-20
3.36933e-17
1.58123e-18
3.4687e-09
1.91659e-06
2.45529e-18
4.66608e-06
8.51472e-09
3.58647e-10
7.47146e-08
4.91945e-06
1.48014e-18
1.12163e-08
1.17423e-05
4.68997e-07
7.2217e-18
2.83449e-12
9.92277e-07
7.53287e-18
1.14966e-05
2.25974e-07
2.02062e-09
2.83696e-05
1.10614e-05
2.69341e-06
6.10709e-06
2.40529e-06
8.00849e-19
2.07627e-18
3.88902e-05
3.10288e-05
7.82414e-19
9.88162e-06
6.44684e-05
3.39515e-05
1.34445e-18
1.55781e-06
2.63097e-19
1.23655e-05
1.65799e-05
2.04014e-18
1.86261e-06
5.55617e-07
1.45319e-09
5.8121e-06
2.64414e-18
5.82931e-05
1.80352e-08
1.84299e-06
3.95209e-08
1.44956e-08
1.21498e-18
6.90026e-19
8.55619e-06
5.50753e-19
1.38548e-07
3.10043e-07
3.11693e-07
6.02049e-11
8.24625e-11
5.17335e-10
9.06025e-19
8.28188e-17
2.75786e-05
5.70591e-17
1.92916e-07
2.46781e-06
2.09863e-17
3.7794e-18
6.89585e-10
1.03617e-12
2.27729e-19
5.68394e-09
4.20816e-18
1.21959e-18
2.06527e-17
1.81287e-17
4.13362e-17
7.38481e-17
3.39526e-07
1.5298e-18
1.31872e-18
4.16145e-18
7.4112e-09
6.41145e-08
2.16694e-06
1.11229e-05
3.92104e-19
3.58327e-19
2.08229e-07
9.8662e-19
3.08995e-19
2.22949e-16
2.23128e-05
5.05171e-05
1.25933e-19
1.86143e-18
3.90415e-18
5.72312e-19
1.09017e-18
2.04767e-19
8.5082e-06
1.75521e-18
6.03451e-11
3.19889e-05
3.53238e-19
1.53011e-17
2.37922e-18
3.10839e-08
7.48323e-18
2.25064e-18
1.39772e-18
1.05616e-08
8.8957e-18
5.33365e-06
1.15169e-09
6.34951e-12
1.36654e-19
8.36791e-08
2.47529e-06
5.28526e-05
5.07307e-17
9.3592e-09
6.88666e-06
3.43629e-18
1.55571e-19
3.53975e-16
1.06404e-18
9.92763e-06
2.04109e-06
4.00599e-06
2.05453e-10
2.15141e-19
2.65702e-05
9.07735e-18
3.80454e-17
3.98176e-17
1.4115e-18
3.13458e-05
1.1184e-18
7.12987e-18
2.15267e-09
6.10068e-05
1.53774e-17
2.93315e-06
1.10862e-17
1.03552e-06
8.06744e-18
8.14282e-19
3.06923e-18
1.35111e-18
2.95932e-06
7.31951e-07
0.00037096
1.10641e-18
9.69586e-19
2.45301e-06
2.74335e-19
5.41637e-17
2.91231e-17
4.45757e-05
1.06431e-08
3.79741e-05
2.87962e-18
1.19356e-08
5.56041e-08
1.40196e-17
1.40008e-07
7.0935e-20
1.50581e-06
3.06115e-05
2.43209e-05
1.49142e-06
2.9123e-07
3.29811e-19
2.50668e-18
3.64394e-18
2.4852e-08
4.15963e-20
8.60606e-06
2.38064e-17
0.000211341
6.99214e-19
4.9382e-05
3.77158e-06
7.91039e-18
1.05131e-18
5.30755e-18
1.18266e-19
4.79174e-05
4.87532e-18
1.42678e-16
1.43117e-05
8.00215e-06
1.04122e-17
4.11679e-17
6.78812e-17
2.66446e-17
6.61504e-19
1.39029e-19
3.01057e-05
5.07389e-07
1.7306e-18
4.23202e-19
5.83658e-10
1.05674e-17
1.87944e-06
1.30969e-07
1.67807e-18
4.05614e-06
5.36907e-18
4.41814e-07
7.82132e-19
1.27481e-06
5.25422e-19
9.46979e-11
2.51657e-09
7.78975e-07
2.10982e-05
3.97236e-05
1.39823e-09
8.67676e-19
5.78644e-07
5.25311e-18
5.416e-06
3.17353e-18
1.11259e-18
4.87342e-17
6.83432e-19
1.82149e-18
1.29006e-19
8.37667e-06
9.40476e-06
4.91037e-18
1.61705e-17
1.75083e-17
8.771e-07
1.64688e-08
6.13411e-18
2.17912e-05
2.22365e-07
8.9483e-18
2.78114e-05
9.80969e-06
4.22257e-06
1.40859e-05
1.89749e-18
7.28141e-18
5.34226e-19
2.74316e-19
4.39965e-05
9.0411e-18
0.000134863
1.4946e-18
3.59839e-07
8.70807e-07
5.91781e-18
1.09569e-06
7.74974e-20
1.50652e-18
3.54548e-06
2.70974e-11
1.07581e-05
9.58191e-19
6.90144e-18
1.88131e-18
9.65729e-07
2.40532e-17
2.22775e-17
3.62895e-18
3.63969e-10
3.17258e-18
8.70551e-09
2.2527e-17
1.26407e-18
1.8776e-18
2.16935e-05
1.18136e-05
2.1825e-05
4.29078e-05
1.61619e-17
1.79971e-08
6.66544e-19
1.3772e-18
1.1894e-05
1.80521e-18
2.72049e-09
4.1055e-07
7.86362e-06
4.12932e-07
1.29408e-12
2.33812e-06
1.01524e-19
1.30955e-12
5.77635e-13
1.44155e-07
9.82031e-07
1.75109e-05
7.30904e-11
3.50338e-17
3.64867e-05
4.84683e-18
2.19455e-18
1.8106e-08
8.94844e-05
7.30014e-11
1.00047e-18
8.64585e-19
3.84335e-10
2.6133e-18
6.41047e-19
2.00553e-08
4.0902e-17
1.29581e-17
4.81062e-05
2.53842e-07
1.99066e-07
2.70854e-05
8.68196e-06
1.25403e-19
1.13386e-19
1.81461e-08
4.8798e-06
2.90116e-20
4.41485e-17
1.17386e-05
4.97208e-19
1.3996e-17
1.35506e-17
3.67165e-18
3.77103e-16
0.00308453
2.21469e-20
2.53101e-07
1.08538e-18
2.44707e-05
1.08796e-19
2.07896e-15
6.01823e-18
1.31628e-18
3.1926e-19
1.78586e-18
3.46887e-06
1.18406e-18
2.05221e-18
3.83174e-18
1.57906e-18
1.82837e-18
2.3315e-19
1.16795e-05
4.20919e-18
1.32674e-05
3.56356e-06
3.26061e-18
1.93684e-06
1.87426e-19
5.73444e-07
2.30963e-09
4.62923e-06
1.60061e-05
3.26819e-18
1.08774e-07
9.4972e-06
1.01258e-08
9.90939e-19
2.82606e-09
2.20953e-05
5.6409e-06
1.0506e-17
3.11743e-05
7.64235e-18
6.00288e-19
1.68584e-18
4.86562e-19
9.75936e-06
3.81328e-18
4.89893e-19
9.81355e-06
3.13912e-10
3.20196e-06
8.13359e-19
1.22937e-16
7.9381e-07
1.64491e-18
8.9117e-08
5.56258e-18
2.75672e-05
1.3474e-18
9.54383e-19
6.66167e-08
1.63443e-18
1.59741e-07
2.37567e-17
5.10432e-19
5.77529e-06
5.02671e-07
5.73406e-06
1.87452e-05
0.000263912
2.42294e-05
5.1435e-19
3.80215e-17
3.43907e-06
8.03113e-06
4.34131e-05
1.32203e-05
1.1466e-18
1.43864e-05
2.30709e-18
1.21784e-18
1.06219e-05
1.29418e-05
3.91974e-18
1.55988e-05
1.16582e-18
3.2804e-06
1.03972e-05
7.02387e-18
2.6609e-19
2.09047e-19
3.2711e-06
9.60109e-20
4.15092e-18
4.88212e-06
2.51327e-05
4.36643e-09
8.95051e-06
1.18717e-18
5.11038e-19
9.53713e-08
8.9569e-07
1.04804e-19
1.21943e-05
4.39732e-17
3.10423e-06
5.14375e-19
4.88979e-19
1.4491e-05
7.34111e-19
4.69547e-08
4.20403e-06
5.03293e-19
4.27995e-20
5.12443e-06
6.27028e-14
6.27456e-05
2.44364e-18
0.00031155
5.93031e-18
3.09405e-17
2.50881e-17
8.74888e-06
7.69239e-17
1.57985e-18
6.5526e-06
2.0165e-17
2.8152e-07
3.13529e-18
4.2199e-18
2.32124e-18
1.32751e-10
9.11377e-07
1.38897e-18
2.53495e-18
4.199e-05
1.10617e-06
1.73752e-18
5.2754e-07
2.00034e-19
6.18524e-19
1.8905e-09
3.20801e-06
1.52784e-06
1.10942e-18
3.76737e-19
2.76086e-19
9.82792e-20
5.58268e-18
2.98714e-18
1.85317e-18
5.53693e-19
1.22075e-18
7.47235e-20
9.76958e-19
5.00173e-18
2.22528e-18
2.47702e-19
3.65424e-19
6.52376e-18
1.66965e-19
9.95976e-19
2.27278e-18
1.08413e-18
7.71087e-18
2.09744e-05
1.68067e-18
4.87871e-19
1.15089e-18
7.76192e-06
1.48077e-19
6.19849e-18
0.000329199
8.65718e-18
5.35124e-19
2.73501e-05
5.64023e-16
1.68605e-19
8.54053e-06
2.89156e-05
5.81347e-19
2.98431e-06
4.53159e-06
4.5746e-18
1.54842e-05
4.67066e-05
2.09676e-05
3.91419e-06
1.26597e-05
2.25354e-17
5.51278e-19
3.47127e-06
1.24629e-05
3.71746e-06
2.91057e-20
7.61526e-06
2.04397e-06
2.49636e-05
1.22748e-05
8.00423e-07
1.82198e-05
1.26571e-06
1.17843e-05
9.03928e-17
2.9851e-05
9.91478e-06
1.98467e-06
1.56217e-06
5.38195e-18
3.11638e-18
8.67656e-19
2.10149e-18
3.13117e-18
1.09161e-05
1.60081e-05
2.36135e-19
1.01497e-19
6.21962e-18
4.12052e-18
5.03431e-19
2.43412e-18
1.81406e-18
1.89355e-17
5.36065e-06
1.97313e-07
2.55114e-05
7.75884e-08
4.46017e-19
1.55583e-17
3.6917e-05
7.76019e-09
1.19474e-18
4.00327e-18
8.5586e-06
4.20432e-17
7.45308e-19
4.4892e-09
9.23146e-06
1.59463e-05
3.92233e-05
3.94921e-05
4.26303e-19
1.66751e-05
3.83805e-07
6.25705e-17
2.62706e-19
1.37066e-05
3.45188e-18
1.06248e-18
2.07951e-05
0.00123648
2.0231e-07
1.09449e-17
3.70426e-17
2.02634e-05
2.42912e-05
2.05406e-05
6.69091e-06
4.53585e-06
1.19305e-17
1.21029e-09
3.10646e-12
6.78094e-17
5.72536e-18
2.03663e-05
3.13587e-19
2.3448e-06
2.98534e-05
2.03928e-05
1.36651e-05
9.75082e-18
7.01165e-06
1.09123e-17
9.00557e-18
4.95781e-18
1.43126e-18
2.90535e-06
0.0010185
2.23382e-19
1.20076e-18
4.64054e-09
2.7267e-05
1.2296e-06
8.05387e-06
3.85588e-05
5.56938e-06
2.36448e-05
1.24707e-18
2.78166e-17
6.86428e-18
3.55575e-05
6.62749e-06
2.96589e-11
6.60744e-19
7.785e-18
2.13731e-16
2.57872e-05
3.26279e-06
6.49739e-19
5.65903e-06
6.69899e-05
7.97008e-06
7.1078e-06
2.99393e-18
9.23601e-17
8.04774e-06
2.65024e-05
1.35778e-18
3.82586e-07
1.68635e-05
1.15675e-06
1.07434e-05
5.37782e-06
9.36188e-06
1.14411e-16
3.92374e-06
2.39391e-05
4.26904e-05
5.35266e-13
2.66036e-05
2.94564e-16
1.90978e-05
1.79502e-07
1.40433e-17
2.97169e-06
8.6041e-06
4.27865e-07
1.32062e-05
6.07057e-10
1.59193e-07
1.78766e-08
4.50474e-05
4.16474e-06
7.38114e-18
4.48849e-05
1.46304e-06
1.54433e-19
3.65324e-19
4.67199e-11
1.09469e-08
1.1863e-06
0.00127619
4.03817e-05
1.32768e-05
2.46475e-10
5.06909e-05
2.41678e-19
7.82822e-18
4.61404e-06
3.11656e-18
2.45893e-06
5.10007e-06
2.46014e-06
5.35044e-06
6.69646e-18
2.39955e-07
0.000124878
4.6814e-18
2.59609e-05
8.53923e-06
6.38613e-18
4.56023e-06
1.77093e-07
1.99187e-18
8.1887e-12
1.0707e-07
5.16526e-19
3.17246e-19
4.91119e-20
5.01506e-06
5.36242e-06
1.6319e-05
6.98477e-17
5.78667e-06
3.77686e-05
1.27054e-17
9.1213e-06
1.41005e-05
2.80535e-05
1.74465e-06
2.21438e-19
6.83419e-07
1.08554e-05
1.18848e-05
1.02076e-05
4.31949e-05
0.000188146
3.86683e-06
6.15096e-18
8.22161e-09
5.83353e-05
9.21354e-19
4.82804e-07
5.03523e-18
7.69905e-19
2.65369e-18
4.09252e-19
7.69082e-18
3.67666e-06
1.25222e-18
8.085e-06
1.36621e-06
1.43562e-17
4.45584e-06
4.32057e-17
1.62077e-05
9.5035e-20
2.27129e-08
4.29775e-18
2.50258e-05
1.7463e-07
2.62965e-09
4.70663e-06
3.28876e-05
1.926e-05
4.41457e-06
3.06146e-05
6.32356e-15
2.54288e-05
6.18257e-05
1.05761e-05
3.83222e-17
1.29752e-06
3.0903e-07
6.31713e-06
1.20294e-05
6.97237e-07
4.83262e-18
1.28331e-17
1.62956e-19
4.16369e-06
3.47968e-18
2.53006e-07
2.5148e-07
1.62405e-06
3.18955e-07
2.15108e-19
9.59867e-17
7.97929e-19
9.76564e-06
2.45247e-05
1.42453e-06
1.03697e-08
2.15102e-06
7.74995e-06
2.25526e-06
9.38865e-07
7.81469e-06
6.7429e-06
2.95109e-06
1.61531e-17
2.2886e-18
6.21629e-17
1.51762e-05
1.2256e-05
1.88316e-18
3.16296e-19
3.47064e-16
9.36724e-06
2.15141e-05
7.59267e-18
2.42749e-06
2.31063e-17
6.85071e-10
5.44456e-06
9.95424e-05
5.86089e-19
1.51183e-19
4.20107e-06
5.23201e-18
6.99071e-08
1.3367e-05
3.45388e-17
1.21592e-05
3.71587e-05
2.07521e-05
1.20354e-18
1.44453e-06
4.43266e-18
9.43569e-08
5.54115e-05
7.20138e-18
7.11004e-18
1.23865e-05
1.88386e-16
2.29081e-17
4.81096e-08
1.1223e-06
1.20842e-18
2.90595e-18
1.11653e-17
6.75447e-08
1.40774e-06
3.57654e-06
2.85315e-05
1.04726e-05
1.60844e-17
7.88663e-10
7.23697e-07
6.13022e-18
7.74763e-20
2.17378e-18
2.56972e-18
1.95352e-17
7.69159e-18
7.69059e-18
6.25357e-19
1.89112e-17
9.98691e-18
3.64821e-12
2.31827e-17
3.94899e-07
6.18665e-17
2.43775e-07
6.9967e-17
6.51652e-08
9.18398e-17
7.19382e-18
3.14242e-05
1.02755e-05
5.34854e-18
0.000101253
8.23847e-12
3.11692e-13
2.22197e-18
1.46472e-06
6.45942e-15
3.02995e-06
6.99273e-09
9.90978e-07
5.61977e-18
9.048e-19
9.92836e-07
3.03875e-11
1.62433e-18
6.30547e-17
4.38943e-05
6.35213e-18
4.1751e-05
1.41472e-17
6.67151e-19
1.89622e-09
3.16261e-05
9.15532e-06
3.75085e-18
3.65991e-07
1.44234e-17
3.16447e-06
1.98547e-08
2.05672e-06
1.02888e-06
2.934e-19
2.29344e-05
1.30595e-06
5.79714e-06
2.06725e-19
1.13558e-18
1.12993e-20
1.90738e-05
4.4699e-06
5.79202e-05
2.52618e-17
4.9133e-10
1.10248e-18
2.66765e-18
1.37843e-17
1.63844e-18
3.58637e-06
2.39204e-06
3.27742e-06
0.000357496
1.42442e-16
3.11446e-05
4.01143e-05
1.96546e-05
1.87261e-06
1.09473e-18
6.02163e-06
4.96861e-06
5.56529e-06
4.19178e-10
1.14064e-05
3.17017e-18
1.76091e-06
1.37378e-06
3.67698e-05
1.26412e-09
3.65975e-06
2.91161e-18
2.09419e-05
1.3736e-18
1.4393e-17
1.85335e-06
1.32033e-17
7.09389e-06
1.80886e-18
4.11155e-18
6.2469e-17
4.17023e-19
1.3763e-17
8.79378e-07
6.65277e-18
6.32272e-07
5.00116e-18
1.81199e-18
2.04396e-05
6.19139e-06
8.80035e-06
8.55108e-06
5.43941e-18
0.00065779
1.47404e-17
7.86982e-05
8.22184e-18
2.02383e-05
2.62215e-05
2.62358e-06
6.40101e-05
1.60088e-17
2.46129e-17
1.38048e-18
2.43502e-06
1.85461e-19
1.83865e-18
1.99128e-05
8.51664e-18
5.32499e-20
5.91809e-06
6.20126e-18
1.43732e-05
7.66282e-11
9.21442e-18
3.63372e-18
8.58887e-18
1.81517e-06
7.56005e-06
1.12388e-18
2.56717e-05
3.74776e-07
3.95311e-18
0.000116444
2.02256e-17
1.77876e-05
2.02916e-05
3.90533e-06
8.02749e-18
2.01345e-05
1.08419e-05
9.37728e-07
5.90279e-06
1.4092e-05
1.14456e-17
1.33563e-17
1.99618e-09
1.07183e-18
4.78071e-19
2.35789e-18
2.21208e-05
5.00063e-05
4.97704e-06
2.39107e-06
6.55015e-19
5.58773e-05
5.1708e-05
4.79474e-06
2.79587e-06
1.04142e-05
2.36713e-05
2.97459e-06
1.16705e-18
1.26166e-18
1.53551e-18
7.68731e-06
5.56616e-18
2.80601e-05
9.33008e-18
8.43819e-07
5.94986e-10
2.93733e-06
2.51325e-05
7.97404e-19
6.40228e-18
2.77098e-06
4.08362e-07
1.73421e-17
1.68488e-18
7.63272e-18
3.74337e-08
3.49462e-07
1.60978e-07
9.18849e-07
1.12719e-05
9.86028e-05
7.93121e-19
5.78546e-17
7.90499e-18
4.26331e-06
2.05537e-05
2.26714e-05
3.94381e-05
2.06238e-06
3.25308e-06
4.83012e-18
7.24427e-18
2.31607e-16
5.04817e-18
1.07444e-05
2.53917e-05
1.00219e-17
3.89694e-18
9.3217e-18
1.06233e-16
2.48013e-17
1.19572e-17
1.53847e-05
7.96106e-18
1.1407e-06
0.000451551
1.04746e-18
1.63354e-08
2.58715e-05
8.22174e-07
6.02772e-18
1.06546e-17
5.49845e-06
6.35579e-18
1.59948e-05
1.23891e-09
2.75322e-05
3.10131e-17
3.2888e-15
6.33512e-19
1.09028e-18
4.58743e-18
2.59094e-17
0.000222027
5.50034e-18
6.59994e-06
1.37491e-06
2.23857e-17
2.47964e-17
2.18671e-06
1.09027e-17
4.33962e-19
1.50727e-05
1.33351e-07
5.10566e-19
4.42514e-18
9.34172e-18
1.90041e-05
5.53778e-19
9.54699e-18
4.50862e-07
2.92799e-06
3.43933e-06
5.567e-18
1.49265e-18
2.25174e-19
4.26e-06
2.06754e-06
1.46053e-05
4.1589e-06
9.79386e-19
9.01019e-07
1.38058e-05
7.32253e-06
3.96808e-19
7.42911e-18
1.20306e-17
5.53712e-17
1.01254e-17
3.53826e-05
6.0112e-06
6.11068e-06
1.65506e-17
1.39036e-17
2.42824e-18
5.92614e-19
3.45063e-18
1.0703e-09
2.81197e-07
2.59122e-06
1.48174e-18
4.62321e-18
4.16959e-17
2.71711e-12
3.91039e-05
0.0001291
1.12971e-18
7.26895e-13
2.3788e-14
4.21243e-18
2.11858e-18
4.37473e-06
7.61819e-06
1.26968e-18
2.48276e-17
3.28203e-06
1.34891e-17
7.9899e-07
1.27188e-06
0.00241904
3.00205e-18
4.12685e-18
1.3985e-05
5.89961e-07
4.82108e-18
0.000764954
6.70037e-07
7.41952e-06
3.44408e-18
2.95606e-18
8.17205e-17
3.67288e-18
9.05166e-06
1.08617e-07
1.9471e-18
2.87079e-05
2.16579e-05
0.00100236
4.36286e-18
1.5916e-18
7.39049e-19
1.34578e-18
7.36034e-06
7.1485e-11
9.0408e-18
1.97994e-17
2.13786e-05
1.08222e-06
5.67753e-06
1.06603e-18
9.5841e-18
3.28439e-05
4.59331e-17
8.01438e-19
2.53602e-18
1.21616e-18
2.52301e-05
1.28994e-17
3.97271e-19
1.05102e-18
2.89186e-05
1.41091e-05
5.81424e-19
3.15234e-18
2.24592e-18
1.7516e-05
1.95453e-10
5.72818e-18
1.19254e-18
8.56135e-18
1.69983e-17
2.72936e-06
1.233e-05
1.12314e-17
2.35065e-06
1.23642e-06
5.34863e-06
4.68813e-16
1.22931e-16
3.27564e-18
1.86743e-17
1.96485e-19
2.29178e-05
2.13475e-17
1.68921e-05
8.93868e-18
1.7131e-06
4.04535e-17
2.64599e-06
5.59156e-18
3.11542e-18
1.2343e-05
0.000198504
8.56239e-18
3.98391e-06
1.58372e-18
4.31654e-07
5.55292e-18
9.88871e-18
2.38696e-18
2.0815e-10
2.00805e-19
3.65377e-07
2.24427e-18
4.03095e-05
1.90829e-19
3.03662e-17
6.95031e-19
4.59828e-18
8.92274e-09
1.51021e-07
1.22617e-18
6.17384e-06
1.04642e-19
3.27012e-06
2.15867e-05
1.40017e-06
6.41405e-20
5.12801e-09
4.85112e-07
2.35476e-09
5.02398e-06
3.8652e-10
1.84455e-06
6.69562e-18
1.08624e-19
4.79485e-10
6.37615e-06
2.63338e-07
1.19428e-17
2.00403e-17
7.0179e-18
0.000642846
2.27609e-17
5.19781e-19
4.63353e-18
2.25633e-18
5.28964e-18
3.93599e-08
1.9659e-07
1.14273e-06
7.43408e-08
7.63825e-16
1.6214e-06
2.59672e-18
6.4841e-06
1.55633e-17
9.06224e-18
6.48723e-19
2.41743e-17
2.22206e-08
1.17485e-18
5.74921e-19
7.73467e-18
1.66119e-05
9.03295e-18
1.00656e-17
1.24632e-05
8.4427e-18
7.69882e-05
0.000136103
0.000625335
3.57557e-17
0.00023029
0.00134488
0.00141284
0.000752828
3.30748e-18
5.51592e-20
5.50298e-06
5.33048e-06
8.00361e-18
9.42958e-06
6.47355e-20
3.63334e-05
1.07963e-18
4.31211e-18
7.71454e-07
3.777e-18
5.48685e-18
1.12888e-08
4.39658e-08
8.02838e-18
1.6455e-18
2.84132e-09
2.55011e-17
6.40545e-18
2.29556e-08
9.30065e-06
1.64974e-06
2.346e-17
8.57408e-06
2.3098e-17
3.95533e-06
4.43516e-10
8.05138e-06
1.28057e-17
1.58843e-11
6.22842e-06
9.20323e-18
1.67376e-12
2.10322e-18
3.63907e-05
3.25904e-18
1.10372e-05
1.91892e-18
2.04681e-10
3.57651e-19
8.55578e-18
1.58087e-18
8.30425e-13
5.40295e-13
1.45988e-17
1.37038e-05
9.9572e-06
4.29829e-17
5.65346e-17
3.70241e-05
1.97603e-05
0.000207827
2.58383e-17
7.41232e-08
2.80342e-05
5.17834e-05
6.86344e-11
1.42588e-17
6.4461e-05
7.28565e-19
0.00025403
1.10617e-18
3.80173e-11
3.81589e-11
3.97908e-18
5.6683e-08
1.35434e-17
2.38692e-05
2.33696e-19
5.74279e-18
3.1199e-18
3.75427e-17
5.06619e-19
9.87849e-18
3.3949e-07
2.07562e-06
0.000151707
1.6365e-17
4.32093e-17
4.59061e-05
7.28213e-18
6.21815e-19
4.40469e-18
3.73528e-18
1.84351e-17
6.43239e-06
3.51216e-18
1.08467e-18
1.58957e-20
3.59444e-06
1.0169e-17
7.96087e-20
2.57007e-18
3.52266e-06
1.00304e-18
6.66734e-06
0.000256445
5.65574e-06
5.86436e-06
2.9181e-05
1.51138e-18
3.06896e-18
6.29379e-18
3.33102e-06
1.97002e-06
8.27475e-19
1.90298e-16
6.39577e-07
2.22458e-17
5.65426e-17
0.000370586
1.99786e-18
2.45346e-05
4.44725e-18
2.58479e-06
3.76419e-06
8.29405e-18
1.19641e-19
1.1177e-18
2.45206e-18
1.54493e-18
2.10608e-05
1.31089e-17
5.01865e-06
4.37024e-18
3.64752e-18
7.38853e-06
1.93399e-18
1.43489e-05
1.66445e-17
1.12988e-18
2.65638e-06
8.65365e-08
0.000155037
9.50969e-17
1.03303e-17
5.71038e-19
4.07267e-06
0.000198497
3.93875e-19
3.89933e-19
1.56934e-17
1.64971e-06
2.65917e-18
2.20714e-05
3.40766e-05
2.18009e-17
1.54967e-19
7.78112e-06
6.92862e-18
1.03905e-17
1.48673e-19
5.13573e-17
2.87278e-18
7.48275e-05
4.93927e-17
6.98965e-18
1.37531e-18
1.89528e-17
4.44406e-19
2.52387e-17
7.1738e-18
2.32241e-18
2.99772e-18
8.62717e-06
9.24865e-18
8.97714e-06
3.43034e-17
3.87772e-18
0.000641803
2.89442e-06
6.97933e-19
2.45801e-17
7.63968e-19
2.5671e-06
2.80317e-18
8.38671e-19
1.87724e-17
3.20602e-18
7.7164e-06
7.24243e-19
5.30052e-06
3.39012e-18
1.07693e-05
3.55918e-19
6.3046e-05
2.44554e-17
9.57914e-18
2.29918e-05
6.41044e-18
7.51221e-19
2.9795e-05
3.074e-07
1.6507e-17
1.31131e-18
4.10176e-05
1.13308e-05
6.88769e-06
8.84311e-07
1.92703e-06
1.8865e-05
1.03964e-06
5.5145e-06
5.55817e-18
3.09576e-05
4.42725e-17
5.92507e-18
1.1961e-19
2.06994e-17
5.56215e-17
1.10241e-05
7.61584e-17
4.46044e-18
2.10748e-17
2.74023e-09
1.06281e-08
5.84378e-17
2.6018e-06
3.32804e-17
4.65405e-06
2.33507e-19
1.28642e-09
3.98355e-06
3.21697e-16
4.94663e-05
4.0428e-18
3.03495e-17
2.15809e-19
3.1621e-06
1.46061e-06
8.23497e-18
1.88238e-18
2.68429e-06
1.16024e-17
0.000725752
1.24584e-18
0.000111848
2.35323e-18
1.9346e-18
3.46912e-18
6.9455e-19
1.07551e-05
1.26085e-18
4.4731e-08
5.72621e-19
1.07497e-05
5.13043e-18
6.91577e-20
7.66339e-15
7.08931e-17
9.13786e-18
1.43381e-17
5.12936e-18
2.07144e-17
4.76515e-06
0.000213622
5.36492e-18
5.26673e-18
4.10518e-07
5.63367e-20
1.65122e-18
1.35594e-09
1.89665e-05
1.65786e-07
3.98743e-19
7.29241e-07
3.72584e-06
5.61049e-06
9.2814e-06
1.354e-17
5.08236e-18
7.40257e-17
2.3475e-17
1.15253e-19
1.76981e-18
2.40551e-18
1.12389e-17
2.49445e-18
8.41246e-19
5.06771e-18
6.73057e-19
8.3025e-05
1.67261e-18
8.00627e-19
4.67695e-13
3.06578e-17
1.6674e-18
0.00122011
1.26681e-19
5.98534e-19
2.10243e-06
1.71467e-12
2.97263e-18
1.21307e-17
7.17248e-19
2.49422e-05
1.84463e-18
1.01583e-17
5.47878e-11
1.55867e-19
9.28407e-19
3.07247e-18
1.54088e-17
0.000125819
7.89017e-20
1.9507e-07
4.44647e-18
2.66785e-18
1.05518e-18
1.64685e-18
4.38561e-19
2.30305e-11
4.48359e-11
1.28689e-07
3.50133e-18
5.80986e-18
4.58911e-17
1.13827e-10
2.59661e-18
3.29308e-10
1.36932e-11
8.68136e-19
2.51651e-18
5.3126e-18
6.15177e-12
1.51394e-18
9.12103e-19
2.43686e-12
5.57531e-17
3.51576e-05
7.40042e-18
7.62623e-06
3.92644e-17
2.56339e-09
2.11787e-18
1.66411e-06
1.1714e-18
4.7639e-06
2.79165e-05
4.79611e-18
2.89083e-06
1.49817e-08
4.23272e-18
1.16501e-05
4.38918e-19
7.17569e-20
4.88577e-19
6.20069e-19
7.21384e-18
3.0516e-20
1.88965e-18
2.93889e-18
0.000315606
3.45877e-18
2.44743e-18
3.40342e-18
1.52353e-18
9.60961e-19
3.5627e-05
0.000925267
3.39425e-09
1.34611e-08
2.53715e-18
2.27035e-06
1.55013e-06
6.93274e-18
1.64242e-17
1.36454e-17
1.63201e-18
1.50596e-18
1.94701e-18
4.18649e-18
1.67219e-17
4.55285e-07
1.07511e-17
5.07263e-17
2.27032e-07
3.65829e-09
3.1925e-19
2.98037e-05
8.94341e-18
5.35285e-18
7.77777e-18
0.000197315
1.54694e-16
3.4105e-20
2.87006e-05
3.84935e-19
1.38106e-18
2.57327e-18
6.60689e-17
6.18786e-05
1.5954e-19
1.95088e-18
8.75627e-19