/*--------------------------------*- C++ -*----------------------------------*\
  =========                 |
  \\      /  F ield         | OpenFOAM: The Open Source CFD Toolbox
   \\    /   O peration     | Website:  https://openfoam.org
    \\  /    A nd           | Version:  10
     \\/     M anipulation  |
\*---------------------------------------------------------------------------*/
FoamFile
{
    format      ascii;
    class       volScalarField;
    location    "14.5";
    object      p;
}
// * * * * * * * * * * * * * * * * * * * * * * * * * * * * * * * * * * * * * //

dimensions      [0 2 -2 0 0 0 0];

internalField   nonuniform List<scalar> 
111485
(
7.87835
0.0624447
0.0589647
7.87857
0.0535883
7.63537
0.0474772
0.0504064
0.0481771
0.0523984
0.0464838
0.0546678
0.0514573
0.0358176
0.0490143
0.0757833
0.0377999
8.79126
0.0528313
7.87901
7.87883
7.63973
0.0454023
0.0640695
0.048401
7.8515
0.0666036
0.0659998
0.0576368
7.87975
-0.0105198
0.024635
7.88127
7.63993
8.57944
7.60441
0.0119026
0.053151
-0.0256667
0.0593082
7.68843
0.0518005
0.0599681
0.0308021
-0.179877
7.89473
0.0435825
0.0597724
0.0467498
7.91882
7.91698
7.38464
7.92538
0.0194916
7.93033
0.0479149
0.0534209
7.65196
-0.0349125
0.056681
0.0579328
7.87869
0.0479853
-0.00286203
7.67803
0.0505212
5.1339
0.0511689
0.0353132
0.0486554
-0.0627084
0.0575689
7.72946
0.0352157
7.8858
0.0463207
7.64055
0.0463627
7.63826
8.07267
-0.0390469
0.0268137
7.64142
7.88187
0.0530996
0.0485339
1.82619
0.0122702
-0.0299264
0.0494074
-0.129746
0.0505503
0.0518926
0.0497545
0.0522363
7.88152
7.8788
0.0275666
-0.665297
0.133423
7.87834
0.0557484
7.63167
0.04176
0.0454786
7.93023
7.64782
0.0250195
0.0493395
-0.263896
0.0279775
0.0591851
0.0559968
0.0548444
7.84811
0.0448776
7.86472
7.64441
0.0419132
7.87959
7.85043
6.69092
7.64254
7.65222
0.0533555
8.9491
6.65431
0.0301276
7.88289
0.471009
-0.031758
0.0271791
7.88622
6.53925
6.82536
0.0475461
7.6408
0.0476087
0.0412954
0.0599935
0.016518
0.0434489
0.0492089
0.0597651
0.0347801
0.033866
7.64075
7.88088
7.65524
0.0520138
0.0556103
7.87667
-3.00706e-06
0.00932916
-0.571805
0.0537625
0.0488219
0.0461572
-0.431252
7.88791
7.87885
0.0507937
0.0485168
-0.39251
-0.510465
0.0387446
0.00467171
7.67854
-0.354966
-0.320863
7.65004
7.88026
0.0514159
7.64464
0.0314229
0.0172103
7.6895
7.70839
7.86725
7.83089
7.67974
7.87783
0.0588992
0.0544153
0.0613302
0.0692949
0.0526752
0.0466383
0.0207406
7.87895
0.0317907
7.70365
7.86724
0.0546458
0.045334
0.0202555
0.0559916
0.0177404
7.88664
0.0561282
0.0589088
5.32833
0.0381165
0.0356691
7.87724
0.0505784
0.0406181
7.70239
0.0141651
0.049179
0.0548932
0.0330803
7.67256
7.87852
0.0470051
5.00165
0.0292793
7.64415
0.0496416
0.0496712
0.0506488
7.87986
0.0411379
0.00423887
6.02377
7.64435
7.65032
-0.0407357
-0.500368
7.74497
7.30342
0.0479532
0.0268266
-0.0542176
7.74295
7.80913
-0.00071148
7.88369
0.0423572
0.0452306
0.0457106
0.0331608
0.0449359
7.65167
-0.0349431
0.0292463
7.655
7.64134
0.0129388
0.0583023
7.80197
0.0385047
0.0416506
7.88101
6.38665
0.0326456
7.8912
8.02488
7.19637
7.87813
0.0389349
0.0341155
-0.00926845
7.88421
0.041224
7.87849
7.87738
7.88655
-0.0074513
0.0404255
0.053318
0.0447043
0.0479376
0.0474741
0.045544
-0.00668297
0.0137418
0.0248837
7.59502
7.88065
-0.00764338
0.0298246
-0.0382775
0.0306792
7.87953
0.0541899
0.0478885
0.0476438
0.0664046
-0.0380412
0.0422248
0.0464024
0.0358055
7.64868
0.0375448
7.64468
8.74504
8.09084
-0.0443546
0.0425485
0.0473003
7.87105
7.71152
0.0491708
0.0335292
7.87659
7.87642
7.93394
0.0344953
0.034225
0.0542436
0.0537633
0.0508326
7.24935
7.6522
7.88253
0.0514981
3.29746
0.0321032
-0.0379765
-0.0175521
7.64216
7.87785
7.87873
6.81927
0.0475289
0.0595874
7.64115
0.0503678
7.79815
7.86718
0.0315111
0.0482112
0.051436
0.0504918
8.00138
6.78406
7.64314
0.0476848
0.0206477
-0.0121836
7.67322
0.542817
-0.0786316
0.0612367
0.0501703
1.34642
0.0499753
7.6386
0.0447661
0.0540913
-0.0299075
0.0246832
0.0508541
7.64322
7.88387
7.64718
7.88179
0.0590246
0.0450845
0.0354034
0.054642
7.66034
0.0571169
7.64915
7.88577
0.0510661
8.13978
6.96344
7.92369
7.60018
0.0531488
7.65075
0.0177807
0.0616135
7.6381
0.0347536
0.0504973
7.8719
0.0498386
0.0573803
0.0569465
0.020121
0.0419846
0.0339484
8.01009
7.88142
0.0424244
7.66783
0.0528369
0.0188047
7.68743
7.65043
0.0495205
0.0565197
0.00351814
0.068314
7.64035
-0.00923752
0.0501905
7.63294
0.028424
0.0360658
7.87756
7.87785
0.0252115
0.048663
7.6291
7.86864
5.87691
7.87766
0.055701
7.64401
7.87843
0.0461207
-0.0251413
0.048269
0.0616422
7.63671
6.8369
0.0553524
6.93427
0.0327439
0.0599583
0.0572145
5.30726
7.00682
-0.476545
-0.235676
7.87722
0.0146581
0.0558005
7.87799
-0.420641
0.0515909
6.97234
0.0526836
0.0525146
0.0401939
7.63837
0.267524
0.0519548
0.0504736
-0.0587081
6.63203
-0.523943
7.87931
0.0288483
-0.165371
7.65051
0.0424941
0.0491389
6.45178
7.8831
7.47691
7.8779
0.0553806
0.079253
0.0581354
0.0584965
0.0111449
7.64498
0.0037208
7.89054
0.0666348
7.62352
7.88791
7.8958
0.0488308
7.88242
7.87854
8.35617
7.87723
7.65893
0.0405701
7.65017
7.438
7.64384
7.86615
7.63006
7.88879
7.64049
0.046962
7.64246
0.0383043
0.0503331
-0.00284007
7.64313
0.0406043
7.65143
7.87793
0.0423593
0.0419858
0.0885997
-0.0488564
7.34502
0.0408949
0.0307543
0.0257004
-0.00708423
0.0482665
7.88124
-0.00107857
6.46278
0.0571514
7.6447
0.0340109
6.68479
0.0291235
0.0626521
8.2907
7.71
-0.0253765
7.87648
0.0422181
0.0339822
7.65789
7.66353
7.93868
7.64913
-0.89686
0.041561
7.63094
7.65595
0.051926
7.63973
0.039082
7.6396
0.039361
7.87818
0.0624403
0.0615251
0.074822
0.0276283
7.61506
-0.125713
7.63028
7.64497
0.0555221
7.6459
0.0531165
7.9448
0.0205048
7.88042
0.0733553
7.87889
6.9812
-0.0305382
0.00335838
0.0374691
0.0575833
0.025853
0.0428207
7.65425
0.0306964
0.0230455
7.64312
0.0236334
0.0061051
0.0454838
7.70331
8.04414
0.073936
0.0169557
3.73029
7.72376
0.0562203
0.0628908
0.0548941
0.0516986
0.161117
2.58929
6.88833
-0.62107
3.18931
7.87886
0.0632633
7.66717
7.01191
0.0404892
2.54694
-0.642349
1.48151
6.88716
0.0383531
0.0579499
7.65116
7.46385
0.0648526
7.88351
7.63956
7.64092
7.64145
0.0507929
7.64773
7.83803
0.0578195
0.0426379
6.03366
0.0130601
7.33174
0.0429877
7.92423
7.6524
0.045955
7.64361
7.6418
6.97905
0.0465572
4.68604
0.0286652
0.0481598
7.89131
-0.145998
-0.0129624
0.0491113
0.0529946
0.33533
0.0437148
7.64732
0.0453441
0.0517205
7.88477
0.0451965
0.0375039
0.0581626
0.036134
0.0582927
0.0572764
7.89407
0.0543945
0.0128106
6.95703
0.0590842
0.0671549
4.88353
0.0492438
0.059408
0.0584418
0.0554251
0.0641543
0.0435405
7.7778
0.058029
0.0519868
8.22929
0.0454706
0.0318661
0.0475499
7.64713
0.0495794
7.89938
7.64137
7.65735
7.63955
0.0605
7.0715
-0.963544
7.87542
7.57973
0.0548124
0.0494011
7.87529
0.0429935
7.87646
7.88169
7.92666
0.0495453
0.0610583
7.00762
7.82947
7.64592
7.64673
0.00497737
0.0318564
6.82808
0.0516846
-0.327622
7.65357
0.0594278
0.0419889
0.0886419
7.63841
7.64366
0.0483732
0.0422537
6.94282
7.6506
7.62564
0.0353835
7.88369
7.87431
7.6451
0.0570101
0.0598191
7.63922
8.48292
8.2164
0.153995
7.65334
7.6366
0.0344674
-0.00350894
6.92732
5.97771
1.20599
0.0466603
0.00274959
7.61247
0.0230979
0.0546364
7.64724
7.92392
7.64042
7.64471
7.6504
7.63896
0.0749014
7.87752
7.64111
7.69429
0.0649003
0.0271224
7.88125
7.93715
0.0348226
0.0364204
0.0461864
7.87383
7.64189
0.0370713
7.88148
0.0424175
0.0303174
0.0532197
7.85409
7.87839
7.87824
7.64623
0.0776782
7.64226
7.64024
0.0304938
7.87827
0.0547527
0.0660235
7.65783
0.0457224
7.85007
0.0447957
0.0492438
0.0304885
0.040401
-1.17623
7.25273
0.0425378
0.0396639
0.00122031
7.80516
-2.00628
7.15889
0.0267837
7.6491
0.0319177
0.0437932
0.0283754
8.08095
7.87855
7.8833
0.0400811
7.32888
-0.0179563
7.4658
0.0631857
0.0366181
0.0180799
0.035445
7.63867
7.66188
7.75159
0.038343
7.6394
7.2507
-0.0792724
7.65063
7.65733
7.87983
7.64101
0.0187467
7.62299
7.64465
-1.44715
7.31128
7.67002
7.07552
7.64431
0.023222
0.021855
7.87663
0.059309
1.08262
0.0239361
-0.29685
0.0341735
7.65227
0.0428799
0.0381478
0.0248408
7.88136
-2.52803
0.0187058
6.49898
0.00414779
-0.0413798
-0.0245149
0.0346391
0.032543
-0.0624844
0.0396455
0.0352997
7.6251
7.652
0.0170945
0.0056023
7.65194
0.0196972
0.0539026
0.029536
7.63354
-0.0433294
7.64507
0.027367
0.021075
7.63812
-0.0616015
0.0347627
-0.0805159
-0.0195657
7.59215
0.0496763
-0.0745828
0.000374871
-0.078483
0.0260737
7.6351
7.65546
0.0404175
7.64077
0.0774247
-0.0109507
6.74088
-0.39551
-0.746401
-0.227034
7.64096
6.41244
0.043241
7.88215
9.45253
0.0180237
7.63163
7.63659
-0.645385
-0.780664
7.6411
-0.0439567
7.64468
7.64369
7.88396
7.87729
7.95783
7.88051
0.0404397
7.64002
7.65041
7.65748
-1.35959
0.0789921
0.0412453
0.0439977
7.65248
7.63546
0.0194825
7.64336
7.64025
5.84473
0.0133114
0.0475129
7.63883
7.63234
7.64754
7.63635
7.59327
7.63494
-0.00415201
7.64119
-0.123888
0.0517074
7.64634
7.88888
7.93378
-0.0460869
7.926
7.87929
7.66191
-0.133085
7.64436
0.00254891
0.000988603
-0.102055
7.637
5.31543
0.0271348
0.0455415
7.668
-0.119757
0.0420442
7.8857
7.61041
6.90927
7.63307
0.0416691
0.047595
0.00517036
-0.268169
7.63912
0.0442524
7.58835
6.85426
6.86668
7.65046
0.0513941
7.64365
7.9442
0.00681358
0.052794
7.94131
0.0541324
7.33663
-0.0139279
7.99509
7.64446
7.61845
7.87848
0.0338639
0.0552069
0.434713
7.64031
7.68502
0.0237876
7.64112
7.09649
7.87837
0.0466875
-0.256464
0.0880985
7.86724
0.000723252
0.0120554
8.2553
0.0126127
7.64438
0.0230377
0.0317036
0.0440012
-0.0143146
-0.104868
7.6421
7.6448
7.64451
0.000514838
7.71865
-0.034779
7.88432
0.803179
7.87617
0.0570696
0.059667
7.94593
7.64002
7.96297
7.65767
-0.0366396
7.97103
6.91717
0.0132933
-0.0299015
7.92839
7.06163
7.72223
7.08213
7.63748
7.64209
-0.0275503
0.0630697
7.8786
7.86966
-0.548504
7.88477
-0.0272413
0.031693
7.71809
0.0301359
7.87848
0.022852
7.64488
0.0579132
7.63771
-0.496216
-0.22814
-0.069855
0.0240297
0.0208246
4.73026
7.56513
0.0335827
7.92054
0.0454563
7.87553
7.67518
7.62777
7.65677
7.68101
7.65187
0.0100215
-0.00134105
7.87875
6.66561
7.88302
0.0121427
-0.0462016
7.8758
0.0562163
-0.0715817
7.93422
0.0370632
0.0338049
0.0462379
-0.0690646
7.64105
7.64215
7.67298
7.64046
0.0505885
7.57702
0.0312311
7.64251
0.0225543
0.0626016
7.64853
0.0147627
7.63837
7.64058
0.0209482
-0.0125199
2.19297
7.64324
7.95717
7.63017
0.0530913
7.52611
7.93127
7.54531
0.942569
6.75357
-0.439647
7.05367
7.50921
7.77248
0.0286051
0.0160865
0.0599869
0.0551137
7.86668
0.032786
7.64571
7.65038
0.0252663
7.61328
-0.552285
0.0247676
0.0378801
0.0210962
-0.87933
0.0446564
7.64882
-1.33383
-2.85582
0.0487819
0.0327177
0.0457325
5.55042
7.87408
0.0469918
7.881
7.63616
-0.160099
0.0524765
-1.02188
7.62928
7.47616
-0.00254067
7.93379
7.63721
0.0155601
7.9524
7.94157
0.138321
0.0161101
-0.0225451
0.0747429
0.0406075
7.64061
7.64165
-0.194799
0.0530166
7.64083
7.9467
0.0814801
7.64791
6.62294
6.78842
6.82461
4.41203
6.64357
7.64237
0.0664635
7.62501
-0.00791086
7.63917
3.49039
7.69389
7.65994
7.6493
7.64167
0.0717613
7.64158
7.64115
6.94388
7.63412
7.64973
7.64104
0.0508706
7.65883
0.0467468
-0.0125066
7.66214
0.0883354
7.63972
0.031657
-0.125425
0.0238381
0.0324169
7.85026
0.0301159
0.0677285
-0.0746606
7.88326
-0.0359462
0.0460577
0.0290057
7.35223
0.0215448
7.70595
7.64754
7.64084
7.63931
0.0270641
7.64456
7.62834
0.0230213
-0.062747
0.0111319
7.65922
5.46896
0.0772554
7.65063
-0.283028
7.93102
0.0198832
7.63276
7.63586
0.0412241
7.6352
0.0508689
7.88198
7.63874
0.0485424
0.0210294
0.0389068
0.0527546
-0.0554363
0.0441015
7.6392
8.03516
0.0538834
0.0439942
0.0563634
-0.0231116
7.64106
0.0462856
7.64047
7.80372
0.0449189
0.001349
7.64879
0.039358
7.63525
0.0334177
0.0453776
7.71673
7.63922
7.64631
0.0528326
7.64438
7.64432
0.0566238
0.0338089
0.0255967
0.026321
7.65987
7.65787
0.0608037
0.0691279
7.64403
0.0515033
7.7223
0.0472508
7.63994
7.63912
0.0330045
7.64072
0.03454
0.0676795
7.64296
7.6388
0.0413355
6.501
0.0757026
7.87828
0.00930506
7.88881
6.69137
6.47012
0.0650811
6.99009
6.91454
0.0459022
6.87464
4.29069
6.36353
7.69597
7.8818
-0.101107
0.0693787
7.68351
7.6432
0.0459365
0.0572521
7.64733
0.0537957
7.63873
7.8867
0.0557132
0.0438145
0.125116
7.63863
7.64627
7.64434
7.64091
7.63131
7.63454
7.63851
7.63237
7.63638
7.63771
7.64352
7.8831
7.64535
7.63769
7.63872
7.80497
7.63816
7.63951
7.64156
7.66985
7.82611
0.0648765
7.64433
7.63855
7.6589
0.0574905
7.65259
7.88663
3.00029
7.62439
7.53283
0.0493356
8.2555
7.58739
3.52826
0.0449899
7.6431
6.77408
7.26923
7.63651
0.0336361
0.0463359
0.0441882
0.0347992
0.0510714
7.90669
7.63174
0.0413834
0.0477234
0.0335572
7.63808
0.0496112
0.0453756
0.0565087
0.0263582
0.028166
0.0353264
0.0356024
0.0455397
7.89451
0.0558233
0.0537802
0.055795
0.0467178
7.64464
7.64318
7.64579
7.87861
7.64215
0.0495354
0.0525739
7.64745
7.63648
7.6365
7.8377
7.63929
7.87897
7.64134
7.88324
0.0559435
-0.146359
0.0531998
0.0772093
7.61199
7.64961
0.0287588
-0.180631
7.6392
7.6415
0.0543115
7.8935
7.64304
0.0915883
0.0265243
0.0432762
0.0764473
0.0324951
7.90303
0.0145574
0.0555634
6.91899
7.88064
0.0442453
7.89951
7.64869
2.44556
1.33983
0.0381114
7.78551
7.85826
0.0270495
0.0554747
0.0327084
0.0488368
3.4388
7.87833
0.0475291
8.23515
7.88234
7.58038
0.0396594
7.6387
0.051201
0.00962793
0.0446749
0.0463448
7.88688
0.057589
7.88323
7.47703
7.88103
7.86978
0.0297826
4.52748
7.64127
7.87838
8.35823
0.050374
6.86967
0.0333554
0.0445973
0.029163
0.0469706
7.8429
7.87135
6.65881
0.0567893
0.0446579
-0.841356
7.92343
7.87824
6.83535
0.0398003
0.0223395
7.63981
-0.0146566
2.54656
0.0487391
0.038204
7.87823
6.65599
0.0305966
0.0491025
7.64517
0.0598945
0.0570812
0.0441826
0.0169103
0.0399835
0.0579029
6.92169
0.0386649
0.0438971
0.0459829
7.98263
0.0495222
7.00745
0.0757183
0.0415914
7.88308
0.0260013
0.0363276
0.0338302
0.0508199
8.74621
2.1461
0.0171559
4.31832
0.0383314
7.65182
0.0283826
0.0377871
7.88367
7.64183
-0.287727
-0.0404073
0.0485418
8.73031
0.0548064
-0.12839
-1.05947
-0.0111276
7.88404
7.9007
0.0475683
8.34436
0.046711
-0.138973
0.0373432
0.0387687
7.87773
0.0549238
0.0486475
7.87588
6.95176
0.0509149
7.89437
0.0431021
0.0460832
7.87977
8.78349
0.0561158
7.87726
7.63808
7.64917
0.0350556
0.11897
0.0569255
7.93461
0.0528823
0.0389818
7.69417
0.042102
0.0309342
0.0315714
-0.050556
7.64042
0.0409277
0.0580133
0.0422267
0.0307548
0.0330143
-0.0815585
0.0681395
7.87802
-0.0480755
0.0300425
7.87792
0.0377749
7.65388
7.64426
7.88303
7.65862
7.87969
0.064922
7.64734
0.0375449
0.0330371
7.88418
0.0637108
7.82397
0.0250472
7.88319
-0.0914604
7.65792
0.0491472
0.067206
-0.109192
0.0546343
0.0312778
0.0596868
0.0349315
0.0494917
2.82585
0.0468437
0.0329467
0.0518349
7.88157
0.0649007
-0.044832
0.0463829
0.0523387
-0.0895751
7.88356
6.79697
7.88026
0.0567804
7.8772
6.1862
0.0334459
8.38958
0.0683597
7.86825
7.84883
7.64126
0.0447501
0.0890374
0.0353961
0.0216705
0.0309725
0.0465684
0.054776
0.0370858
0.0242729
0.0525028
0.0437368
7.89802
7.60076
7.8748
0.0511322
0.0526159
7.67131
7.64115
6.32074
0.0669301
0.0278323
7.87734
0.0457404
7.87662
-0.346346
0.0607295
0.00242342
7.87912
7.87797
0.0379661
7.87819
0.0489004
0.041173
7.47661
0.0506747
0.0545478
0.0319468
7.87567
-0.0392847
7.0073
0.0285389
0.0540458
7.88072
7.89222
0.0376941
5.56546
7.91142
0.0488348
0.0370947
7.87875
7.85926
6.96289
0.0358034
6.30114
0.049953
0.0279159
0.0525344
7.87833
7.04438
0.0252998
7.87713
7.65019
7.88116
7.88104
7.15526
7.7297
7.57745
7.87728
7.89205
7.32202
8.39606
7.6458
0.0583963
7.65522
6.7681
6.40638
8.9011
6.907
7.87843
0.0284354
7.39867
7.71421
0.0298223
8.20842
8.57016
7.79099
0.0198048
8.36572
0.0308042
-0.0159409
0.0650892
7.19128
7.88046
0.0388414
-0.374861
7.8391
7.87387
0.0544708
7.11232
0.0541603
7.0372
7.62725
7.74496
0.0527341
0.0562369
7.87763
0.0536722
7.91569
7.39703
-0.111803
0.0606431
0.0310015
7.64495
0.0556355
7.23936
0.0281506
7.64072
7.87615
7.6383
7.00096
0.0583219
0.052321
7.8818
-0.688867
7.88565
7.8947
7.88507
7.87881
0.0344737
0.0208796
0.0546719
0.0621355
7.84199
0.0546127
0.0472599
0.0511163
0.0281403
7.69666
0.0448091
0.0572018
0.0266425
-0.34309
0.0543608
7.92716
0.0271251
0.035347
0.0568717
0.0359616
0.0153019
7.90612
0.0230627
7.78294
7.88271
0.0486462
7.88711
0.0686511
7.87676
7.94198
7.57323
7.88343
7.88129
0.0124122
7.88195
0.0388731
7.22086
7.64907
0.063683
0.0541186
0.0542107
0.0326335
7.8979
0.773721
7.88192
0.0328472
7.94321
0.0570556
0.0284235
0.0431127
0.0484331
7.97313
7.98003
7.88315
0.0468804
7.65988
7.87014
0.0425636
7.62763
7.63738
0.0606951
7.97298
0.0415433
-0.353702
7.17259
7.50535
7.44421
0.0333117
0.0492135
7.87791
0.00796904
0.0395692
7.01545
0.0397587
7.87786
0.0395404
0.0649546
0.0547671
7.87986
0.0568272
0.0453901
0.0341876
0.0548626
0.0571279
7.8799
7.87851
-0.0314305
7.87251
7.63809
7.87708
0.0336495
0.0424161
0.0439983
0.00256854
6.89549
0.0414313
0.0502777
0.0487757
-0.015075
0.0637395
0.0372297
0.0623146
7.64087
7.64109
7.64093
0.0807444
7.64601
0.0185526
5.28782
0.0521493
-0.479638
0.027479
0.0227784
7.63693
7.87988
0.0532135
0.0525401
7.89347
7.63589
7.88238
0.0321629
0.0550488
0.0524401
0.0590519
0.0343243
0.0485041
7.87782
7.88108
7.87815
0.043711
0.0386533
0.00289487
0.053321
0.0541131
0.054902
7.85209
7.87833
6.37217
7.67834
0.0294802
0.0709899
7.87376
7.90953
7.88579
7.88376
7.84532
7.72092
0.0462226
7.87963
0.0153368
-0.0357382
7.64428
0.0520004
0.0281873
0.0419318
7.9248
7.76675
0.0470116
7.8787
0.0451197
-1.13282
0.0412117
7.67121
5.97333
7.63996
7.88173
7.87301
7.60992
2.16588
7.88997
0.0606008
0.025205
7.88147
7.87889
0.0444551
7.88321
7.64437
0.0429564
-0.123101
7.86617
7.86655
7.67871
0.0535986
7.87837
7.87815
1.2307
0.0299508
0.0434964
7.87742
7.64358
7.2155
0.0392438
0.0433088
0.0415383
0.0446155
7.63923
0.0619273
0.014116
0.00110643
7.59288
7.87719
7.87822
7.83361
7.87845
0.0534845
0.0503367
0.0434032
7.89809
7.8797
7.87801
7.87652
7.70686
0.0264724
0.109802
0.0202959
7.63991
7.8787
7.93487
-0.914987
0.019744
0.000835817
7.64277
-1.86202
8.25617
7.84295
7.87751
0.0525096
0.0666709
7.87931
7.91011
0.0520139
7.87954
0.0358345
0.0551085
2.78653
7.87494
7.6848
0.0447673
0.00572085
7.91318
2.59691
0.0568538
0.0745043
7.87897
7.88131
7.89041
7.88738
0.0320923
0.0416426
7.88153
0.015648
0.0434099
0.281971
7.87811
7.87643
7.87781
7.88175
0.0538447
8.38214
7.8794
7.77207
0.0342814
0.0426926
0.0414567
7.84895
7.88003
0.0373485
7.62984
7.87907
7.87955
7.87927
0.0517764
7.70015
7.62342
7.64086
0.0321381
0.0585316
7.87381
7.88159
7.85973
0.0532784
8.15239
7.88177
7.86176
7.8818
7.88093
-0.120497
0.0672936
7.92311
0.05491
0.0587613
0.0508531
7.8869
7.88309
7.87984
7.84224
7.63798
0.0733689
7.87906
7.38806
7.35635
0.0404098
7.65605
0.0323628
7.8783
7.64736
0.0466717
0.367779
7.05946
0.0516535
7.8803
0.0469862
8.14053
7.89523
7.9267
9.09839
7.88417
0.0280826
7.87497
0.0468613
7.64781
6.96132
7.88668
7.87252
0.0265584
0.0853655
7.64056
2.69993
7.64579
-0.0169483
0.0252185
0.0633867
7.65057
-0.270505
0.0286428
0.0163188
0.0678527
-0.533744
0.0228711
7.61421
7.63865
-0.656235
0.0409294
0.0507908
7.91301
7.53675
6.40388
3.30641
7.88292
7.64197
7.88215
7.88327
7.88452
8.30333
0.0862799
-0.00341508
0.0546304
6.97832
-0.0193426
7.88176
0.0525213
7.87811
7.88914
7.64364
7.71687
-0.0356768
7.69759
7.64261
7.87786
0.0532736
7.87652
7.8793
0.0124547
7.8467
5.77518
4.9597
4.62475
7.88484
4.84311
4.68431
4.79254
5.48705
7.6388
7.63901
0.0472057
0.0407635
6.98438
7.15064
7.63561
0.0429183
8.1909
7.73322
-0.0315882
7.87959
7.87867
0.0216902
-0.0192038
7.84696
7.63851
0.0421093
7.04272
7.62884
-0.316363
0.0464154
0.0896503
7.8157
0.0604981
7.88253
0.0400357
-0.31455
0.0550291
7.87843
-0.310275
0.0596499
7.96893
-0.95484
7.86859
0.0570096
7.53645
0.0642493
7.80795
0.0178688
7.87791
7.59524
7.64698
-1.38166
-1.38907
7.89356
0.0493373
0.0767133
7.92767
7.87807
0.0246972
0.0207068
-0.0421082
7.88856
0.0562156
0.0498918
0.020407
-0.769234
7.88463
-0.0892819
7.64704
-0.0732521
7.87819
-1.64466
-1.91829
7.85715
0.047239
7.69702
0.0230815
7.63986
7.86128
7.88977
7.89675
7.8557
7.86539
0.0516994
0.0585567
-0.0777509
7.8855
6.3632
-0.066012
7.88486
7.83822
7.90902
7.87503
7.90795
0.023695
7.8785
7.88214
7.63844
0.0167379
7.8624
7.64181
7.54683
0.0424676
7.64328
0.0150041
-0.696437
0.00201957
0.0401858
-0.00844948
8.22112
7.88269
7.87708
0.075196
0.0429547
7.5656
6.32729
0.0173579
7.87939
7.88341
-0.055959
7.86753
0.0562899
7.8793
-0.00546965
0.0124819
7.8868
7.63826
7.88281
7.8825
7.87715
0.043271
7.87601
0.0185098
7.94649
7.87978
0.0384493
7.63978
0.050404
7.77868
7.87922
0.0429652
0.055648
-0.0407959
7.88147
7.88196
7.87869
0.0543706
-0.012493
7.95393
7.64058
7.64751
0.0288506
7.87058
0.0573805
-0.0566433
7.87696
7.87317
0.03788
7.87279
7.64726
7.64346
7.96117
7.64493
-0.0747925
6.23443
7.66052
7.88055
6.39634
7.87293
6.61597
7.85091
7.87141
7.74893
0.0417355
7.80799
0.0264499
7.86336
7.8719
0.0257456
0.0211246
7.86709
7.84428
7.87902
0.0417418
6.73118
7.87956
7.73769
7.87526
0.0362428
7.86845
-0.0999855
7.88279
0.0416229
6.94294
0.0354469
7.89292
7.87713
0.0553878
6.57513
7.88415
0.0409709
0.0430198
7.90062
7.88259
0.0375293
0.00785648
0.035561
0.0321902
0.0227943
0.0472736
0.0372134
0.0256898
7.95104
-0.10996
6.29021
6.17709
7.87895
7.87477
7.87726
0.0501237
7.8831
7.8766
7.88313
-0.0482495
0.0212758
5.98417
0.0204045
7.88346
0.0443292
7.63347
0.0108094
0.0393723
6.36294
0.0533924
7.86988
7.85021
7.6414
0.0581529
0.0408195
7.87878
7.64397
0.048704
7.88127
-0.0528543
7.9208
-0.00661902
7.87821
7.6418
7.86082
7.64058
0.0381803
7.64077
0.35323
7.64791
0.0485166
7.87813
7.87387
4.36425
4.04337
7.89552
7.87449
7.87863
7.88087
0.0434905
-0.0619339
5.25503
7.88413
0.0524071
7.63796
7.65466
-0.348157
0.0512532
0.00541527
7.64213
0.0352598
0.0345699
0.0520041
0.0560084
7.87906
7.88404
7.88824
7.88358
7.64217
7.64058
7.64126
7.84462
7.64245
7.64145
7.87829
7.64099
-0.0320144
7.64064
7.87735
8.62555
7.88197
7.87841
2.76503
7.63918
7.87683
0.0364607
-0.0164461
7.85285
7.86023
7.87885
0.054943
7.68209
7.86668
-0.0324749
7.64441
7.87784
7.87541
7.88352
0.0236245
7.64206
-0.0919933
7.88385
7.86303
7.87655
7.87777
7.87465
-0.0291231
-0.0653229
0.0414858
7.88224
7.658
7.91703
-0.043876
7.87687
-0.0644563
-0.00159975
7.64108
7.86142
5.97518
-0.325177
7.85957
7.04199
-0.312619
6.05451
0.0452252
7.6774
0.0264691
6.02069
5.63533
7.87812
0.05067
7.64461
0.0374213
0.0148487
7.88534
0.0492342
-0.203163
7.87646
0.00186591
7.64055
7.86097
7.87018
7.85682
7.87081
7.63858
7.8767
7.8803
-0.0736049
7.13123
7.87828
7.87672
7.87528
7.87902
0.0559183
4.08694
-0.0522608
-0.218102
7.87593
0.0621082
0.0517376
7.87845
7.02035
7.80658
7.86594
7.90286
7.96465
6.46344
7.1885
0.0257704
7.87939
7.8862
6.11743
6.65189
7.64118
0.0430757
7.88362
7.65056
7.88192
-0.00561235
7.88456
7.63938
0.0404405
7.6428
7.60954
7.78308
7.92851
0.0407937
7.87893
7.87718
7.87667
7.86168
0.0451583
0.00814636
0.0168447
0.0474319
0.033469
0.0253652
7.64438
6.57354
-0.0844978
0.0297614
6.56404
-0.0715393
7.87571
-1.00274
7.65814
-0.0146898
7.88049
7.64187
0.0330261
-1.30003
7.88108
0.029418
7.88137
7.88254
-0.0209362
0.0147159
7.88017
7.64042
7.92072
7.64084
7.87423
6.87125
7.88149
7.87824
0.0288039
7.8811
7.87458
7.87658
0.0402582
7.88861
6.91292
7.6425
7.64045
7.32279
6.94701
0.0386209
7.64073
6.9563
0.042966
7.87386
0.0199618
0.0364103
7.87914
0.0389241
7.87749
7.47733
7.94147
6.81334
7.64846
7.86003
7.87424
7.88426
0.0584348
7.88279
7.88008
7.87944
7.75414
7.87757
7.80391
-0.0359834
7.87832
7.88452
0.000729917
7.87896
7.64228
7.64817
0.0695955
7.87952
-0.0880518
6.73182
-0.302995
0.020371
7.63806
6.56884
0.0453373
6.30144
7.64196
-0.118682
-0.297326
-0.00257908
0.0103962
-0.180717
-1.08525
7.67083
7.64144
0.0553393
-0.0258976
-0.0105932
0.0626763
-0.308498
7.64378
0.0281299
0.0454576
0.0517188
7.65156
0.0540801
0.0294212
0.0491931
0.0483315
-0.0469884
0.0633684
0.0518988
0.0387744
0.0138997
0.0461449
0.0550485
6.92644
0.0915997
0.00634518
0.0484638
0.0335562
0.0255262
0.0562747
0.0172807
7.08562
-0.0366952
7.03459
0.0599456
0.0574
0.00841159
0.0380239
7.0237
7.63962
0.0553226
0.0502343
-0.0504418
0.0100331
0.0365091
0.0464041
4.86129
0.0557983
7.87829
0.0768002
-0.0361491
0.0189077
0.0568187
-0.0627701
-0.0965697
0.0511354
0.0393788
0.0307132
0.0562323
0.0491639
0.12343
6.16649
5.42472
0.0494498
7.88108
7.8789
0.0462361
0.0669877
0.0267896
7.87859
-0.00420912
0.0139356
0.04963
5.61134
7.87779
-0.122155
0.00920485
-0.0419801
7.88423
0.0403211
7.87877
0.042927
0.0478933
0.0187391
0.0200492
7.87687
7.88037
0.0332995
0.0578676
0.0723599
7.87194
0.0447134
0.0729801
0.0316026
7.64973
0.0563982
0.0512878
7.01656
0.0486684
-1.39626
-0.0325532
7.6043
0.00704782
-0.0218874
7.87832
0.0592974
0.0230144
1.46761
0.042996
0.0650955
0.033135
0.0711295
0.0238039
-0.0189997
-0.144707
-0.0365491
0.0852328
0.0317349
0.0340604
-0.0950477
0.0559395
0.0372653
0.0797316
0.0586603
-0.0800577
0.0505506
7.87865
0.0541291
0.0440076
-0.0309172
0.0534758
0.0260005
7.66296
0.0518202
0.0507779
7.87422
-0.00617134
-0.00690162
0.0517092
0.0575627
0.0293195
-0.0434758
0.0631778
0.0379564
0.0154847
7.87831
7.87839
0.0196695
7.65134
0.0226507
0.0623326
7.71035
0.0294366
0.0383586
0.0742287
7.87948
0.0515426
0.0420312
0.00554739
-0.0657449
0.0504597
0.0582643
0.0455515
0.0517911
7.87841
7.85953
-0.0211658
0.0293465
0.00926104
0.0596733
7.85921
0.0293239
0.0683595
7.71081
0.0376493
0.0579992
-0.0791752
-0.138721
0.0344166
0.0150208
0.0495464
0.0348308
7.6564
0.0604839
0.0324522
0.0540868
-0.119642
7.86043
0.0428019
8.01507
7.87887
0.0438732
0.0406139
0.0385932
0.2053
-0.0464378
1.53839
7.64415
0.0222983
0.0784737
0.099876
0.0434472
7.88375
7.65044
7.63987
0.0327183
0.0375235
-0.145839
0.0503631
7.63191
7.86377
0.0250529
0.0431694
0.0230681
0.0476452
0.0426068
0.0703767
0.0135508
4.40659
7.63863
0.0479417
0.0269335
7.86322
0.0457827
0.0659054
0.00879521
0.0609385
0.0507564
0.026179
7.86343
0.0611764
0.0483563
7.64946
7.64824
0.0307226
0.0823496
0.0288772
0.0271663
0.0592181
0.0544914
0.0436572
0.0554627
0.0611744
0.0201422
7.8592
7.85154
0.00985642
0.0380656
0.0583672
-0.0199264
0.0605527
0.0356977
0.0516042
0.0565983
0.0565693
7.64282
7.65662
-0.0346531
7.85786
6.87344
0.0559241
0.0479378
0.0417552
-0.0184142
7.18636
0.0302125
-0.00150479
7.31675
-0.0225892
-0.129308
0.0595885
0.0621048
0.0223506
0.0717376
-0.0681422
0.0275793
7.87852
7.26039
-0.00746637
0.0398496
0.0392895
0.0393265
-0.0395108
0.0279356
-0.0341446
7.28633
0.0676179
0.0613587
0.0509344
-0.043068
0.026956
-0.0214205
-0.123044
0.0453628
0.0322034
7.17909
0.0547343
0.0671071
2.84694
6.81757
6.27121
0.0742784
6.66376
0.0152339
0.0597634
0.0402592
0.0688264
-0.0365258
5.07626
3.0974
8.07607
6.74371
0.0216725
7.64061
7.64026
-1.17977
7.87622
0.0545977
0.0471306
0.0604219
0.0474774
0.0490123
0.0527554
6.29795
0.0365994
0.0308917
0.0302448
0.0593385
0.0595857
0.0555174
7.64132
-0.124271
0.0543644
-0.0405135
7.64085
0.0471311
0.0384957
7.6407
7.86891
-0.0124718
0.0435596
7.91502
0.0621062
0.0584637
-0.0160181
7.88079
7.64048
0.0241393
-0.128124
0.0692442
7.64095
7.63111
7.64075
0.0509713
2.60679
2.37569
0.0155219
-0.288864
7.88973
0.0434568
-0.266499
0.0561666
0.0279576
0.0113681
0.0384704
-0.412075
0.0330176
7.69742
0.0307044
0.0496229
0.0190228
0.0506689
0.0214786
0.0420353
0.0254981
0.0179112
0.0314269
0.00714299
-0.298565
0.0535866
-0.0158175
-0.0561946
-0.366611
0.0158602
-0.282337
0.0265629
0.031121
0.0447758
0.0525929
0.0143215
0.0478376
-0.288211
0.0383608
7.49163
0.0526322
3.85894
0.0451298
0.0410417
7.65014
0.0413624
7.49133
0.0450498
7.5192
7.90671
0.0757974
0.0324074
6.87267
0.0357776
0.0544479
0.0350685
7.86467
7.88164
0.0828624
0.0200413
-0.101559
0.0481675
0.0426908
0.0340934
0.00932689
0.0463256
0.0395555
6.52221
0.0516276
7.64119
7.82644
0.0546308
0.0466225
-0.019017
0.0529742
0.0465522
0.0492189
0.0383816
7.78554
-0.0368908
0.0360516
0.0441606
7.79818
7.88817
0.052189
0.0480317
6.17773
0.0244009
0.029939
0.0513006
-0.129806
0.0445902
0.0540126
7.86842
4.60972
0.0473562
-0.00197692
7.71476
0.0636365
0.0183365
0.0400589
-0.0344466
0.0420071
-0.0651876
0.0518257
0.0311165
4.87772
0.022452
7.87894
0.0486313
0.0380756
0.0418035
0.0100197
6.60274
0.0152543
-0.00763772
0.041452
-0.0377372
7.43554
7.64066
0.0547593
-0.00138983
0.0516578
0.0527909
0.0243263
0.0412512
0.00146545
0.0452771
0.045812
0.0287825
0.0171272
7.05716
-0.0514519
0.0320401
-0.000453094
0.0249662
7.25037
7.63797
-2.27241
-0.0393719
8.16875
-0.065092
0.0363747
7.37703
5.04121
5.48117
0.0158485
0.0483699
0.251965
5.86181
-0.0104923
0.0596556
7.62112
0.230934
6.89848
0.0390977
0.0412342
7.67749
-0.0220168
0.0395592
0.0357343
0.044143
7.63887
-0.187234
0.0226725
-0.00599874
0.0451182
0.048429
0.0331446
0.0506775
-0.092329
0.0382408
0.0322988
0.048036
7.87625
6.47658
6.57125
7.73108
0.0253252
0.0548953
0.0562557
0.00194022
0.0355218
0.0546814
0.0442424
0.0391352
0.0400637
0.0426474
0.0464936
-0.0190783
0.0560724
0.0388922
7.87835
0.023272
0.0039988
0.041244
0.0506283
7.61481
0.0356511
0.0389351
0.0832186
0.0505283
0.0511988
7.65452
0.0613068
0.0503375
6.88927
0.0626268
0.0424336
7.72508
0.037393
7.71638
7.64624
0.0368976
-0.00206102
0.0479863
0.052436
7.64057
0.0409853
0.0225332
7.65042
0.0602119
0.051685
0.0503058
0.0425324
7.75572
0.026961
0.0317679
0.0605898
7.71569
0.0664574
0.0304538
0.0521668
0.0505037
0.0423491
7.90906
7.47666
7.08471
0.0282233
7.21882
0.05471
0.0380956
0.0321809
7.8538
0.0294365
7.67549
7.87892
7.82689
0.0552162
-0.0116945
-0.127441
0.0549255
0.0624338
7.52376
6.89545
0.0256136
0.0189761
0.0584064
-0.0899917
0.0529494
-0.310406
7.88098
5.75963
5.8734
7.63872
5.9473
0.019
7.87853
0.0633869
0.0425457
0.0558327
0.0201527
0.0541861
6.34654
0.0254436
0.0536032
0.0410996
0.0238348
6.3876
7.87965
0.0372287
0.0417457
-0.213402
-0.458043
-0.0342076
-0.0736285
-0.182125
-0.117348
0.0593287
0.0140846
0.0491983
-0.72463
0.0429972
0.0547707
0.0415213
0.0462565
0.0418966
-0.0422388
-0.529103
-0.417691
-0.877575
-1.17602
0.0209186
0.0123057
7.65354
-0.972392
-1.91685
0.0377406
0.0310119
0.00428982
0.0497868
0.0726517
-2.0886
0.0253245
-0.0338254
7.91404
0.0579761
0.0337664
0.0447446
7.88432
0.03012
0.028232