/*--------------------------------*- C++ -*----------------------------------*\
  =========                 |
  \\      /  F ield         | OpenFOAM: The Open Source CFD Toolbox
   \\    /   O peration     | Website:  https://openfoam.org
    \\  /    A nd           | Version:  10
     \\/     M anipulation  |
\*---------------------------------------------------------------------------*/
FoamFile
{
    format      ascii;
    class       volScalarField;
    location    "14.5";
    object      SgP;
}
// * * * * * * * * * * * * * * * * * * * * * * * * * * * * * * * * * * * * * //

dimensions      [1 -1 -3 -1 0 0 0];

internalField   nonuniform List<scalar> 
111485
(
4.35483e-10
0.000117505
2.76182e-05
7.05284e-11
8.3352e-06
3.11863e-08
1.49383e-05
2.41789e-07
1.05575e-05
2.87131e-06
2.52015e-05
8.91079e-07
6.75791e-06
0.292418
6.61164e-06
1.58105e-05
0.206955
0.00104107
8.80047e-07
4.83977e-08
0.0370618
2.63086e-09
3.13827e-06
1.10821e-05
4.03512e-05
3.46823e-08
4.88704e-07
1.43329e-05
1.05565e-06
0.0479491
4.07109e-06
5.00525e-07
2.18096e-07
1.41229e-06
0.000747615
9.03545e-05
0.135299
0.20368
0.00247102
8.50967e-07
0.0428846
1.17019e-06
2.89362e-06
0.000107361
1.87269e-05
1.57768e-06
6.43757e-06
4.35964e-07
6.20472e-06
4.24122e-07
1.09544e-06
1.70905e-05
4.61717e-07
9.27569e-06
1.49384e-06
1.99775e-07
2.71606e-06
4.25927e-08
4.89654e-05
3.90104e-07
5.63542e-07
2.63124e-07
8.45135e-05
6.84881e-06
6.42777e-06
2.12203e-05
0.000423286
2.31669e-06
7.08379e-05
0.000139598
4.97171e-05
8.5915e-05
1.11098e-05
9.11099e-05
4.4213e-08
1.85745e-06
1.57651e-08
7.10669e-07
2.7174e-08
3.11117e-05
0.278156
0.521052
4.50559e-08
5.12266e-09
1.5987e-05
3.74424e-05
0.141974
8.877e-06
0.000245639
4.25807e-06
1.30452e-06
6.47972e-06
4.57393e-05
4.83583e-07
2.26998e-06
6.43416e-09
0.0269533
1.1273e-05
0.00152521
0.000567442
1.16743e-09
2.69639e-06
1.9342e-06
1.42843e-05
5.99725e-06
1.63236e-05
6.14564e-09
2.78986e-07
1.47441e-05
0.00071627
4.11562e-05
1.35979e-06
1.31492e-05
7.35336e-05
1.04143e-07
1.77481e-07
3.02954e-08
6.45461e-06
2.27763e-05
4.141e-09
9.17421e-08
0.000189182
0.0741472
2.22974e-06
5.75513e-05
0.0278577
0.00010632
1.3121e-05
2.55547e-10
0.000318354
0.000136194
1.67933e-05
0.0470094
0.00017434
7.79289e-05
7.95859e-07
1.048e-09
2.99166e-07
9.04802e-06
2.42426e-05
7.04763e-05
3.92989e-07
0.178534
9.65283e-05
4.11603e-05
2.34258e-06
1.30878e-09
7.81184e-10
4.79554e-08
4.9253e-07
3.26219e-05
0.0284279
0.11425
1.3652e-05
3.64406e-05
5.6269e-07
5.59652e-06
0.000151267
0.000814021
5.41499e-06
9.18811e-10
7.43112e-07
3.9335e-05
7.35525e-05
6.42061e-05
3.77789e-05
7.02462e-06
0.0266719
0.00154532
0.000126927
1.51068e-09
1.47799e-08
0.196627
1.00693e-10
2.62766e-07
2.70216e-06
5.35588e-07
9.3316e-06
3.53136e-08
5.76956e-06
9.82797e-06
3.71074e-08
2.66352e-06
5.00348e-07
2.29004e-06
2.03892e-05
9.79836e-06
5.48085e-05
0.000381097
1.75083e-07
5.34669e-05
5.72858e-06
7.10318e-06
3.70787e-05
4.9895e-06
1.18453e-05
2.18608e-06
1.37074e-06
8.45862e-07
8.59058e-06
2.93678e-06
0.0016495
8.00496e-05
9.25379e-07
1.81812e-06
4.02397e-06
1.21944e-05
1.16869e-05
1.79062e-05
2.93354e-06
5.47867e-06
9.7847e-06
8.5672e-06
7.436e-09
6.89482e-05
0.000309169
4.23645e-07
7.20271e-09
1.17877e-05
1.7392e-05
8.69187e-07
8.30126e-08
1.59232e-05
1.6677e-05
0.000276122
6.95378e-09
5.48046e-10
3.13189e-05
0.00411086
2.34418e-05
9.26883e-05
1.3739e-05
2.30343e-06
0.144591
3.82781e-05
2.01636e-05
0.159362
4.59872e-08
6.03635e-05
2.16823e-05
2.66141e-05
3.24178e-05
4.74983e-06
3.85325e-06
0.00191073
1.03827e-06
7.72363e-06
1.15774e-08
5.41803e-06
0.135126
1.81565e-05
1.07357e-05
2.14358e-05
8.04521e-10
0.000191041
4.52948e-07
2.77027e-07
6.62722e-05
0.0990034
1.85744e-08
4.50259e-06
5.28959e-05
2.47388e-06
3.3913e-09
1.13581e-05
7.03712e-11
6.10247e-08
5.06923e-07
0.164158
4.28681e-06
3.19041e-05
1.41134e-06
0.175584
1.95459e-05
1.36383e-06
0.000248977
4.54214e-06
1.18279e-06
4.52651e-07
5.32422e-09
0.111298
4.25711e-07
3.98953e-05
2.02386e-05
1.68163e-09
0.215525
0.26328
1.53616e-06
0.000315287
3.25288e-05
3.09725e-06
8.94666e-06
1.19378e-05
2.16716e-08
7.09461e-06
2.35303e-09
0.000356788
0.0002732
1.53029e-05
1.59467e-06
0.343128
1.79103e-08
0.0847075
9.91142e-07
7.51256e-06
2.57545e-09
1.14599e-07
0.0245257
4.64636e-06
1.52852e-06
5.85491e-06
0.000167814
7.52765e-07
3.0154e-05
3.01376e-08
3.41329e-08
5.329e-06
0.00434512
0.247653
3.2372e-06
0.000772914
1.56328e-09
8.75677e-09
1.36454e-08
8.39914e-05
5.46132e-07
5.7597e-07
2.13808e-06
9.06015e-07
7.10066e-05
0.0605578
5.47479e-06
1.20409e-07
1.9302e-06
2.2384e-06
0.0475168
4.95666e-05
7.2881e-07
7.30747e-07
8.18906e-07
1.35135e-05
6.82681e-08
0.149474
0.000167677
8.16017e-07
3.08973e-06
0.000301813
4.5274e-07
0.0385169
5.35157e-07
1.06106e-05
6.18758e-06
3.9416e-07
1.97702e-05
8.99186e-06
1.95829e-07
5.40547e-07
7.09635e-07
1.75172e-06
0.358507
2.9184e-05
1.74294e-07
0.0521734
1.61468e-05
1.74827e-08
4.07199e-07
3.77153e-07
0.0467636
0.000618005
0.0457119
0.0488981
2.77187e-07
2.40231e-08
2.74933e-06
3.90652e-06
4.82297e-10
7.5899e-06
2.97091e-06
1.56702e-05
2.60491e-05
0.000138901
5.45607e-06
0.000700723
4.71905e-07
7.92759e-06
4.27987e-05
1.17712e-06
0.000667047
3.84766e-07
1.45843e-05
2.75172e-06
0.029895
1.15379e-07
2.0524e-07
0.153199
4.65971e-06
0.303393
6.63815e-08
4.5986e-06
3.49362e-06
7.11031e-09
5.15501e-06
4.49029e-05
3.83168e-09
0.0319117
3.18454e-06
2.83092e-06
4.45108e-07
2.47099e-08
0.000750106
3.85625e-09
1.01209e-05
3.55541e-06
3.52446e-10
1.16997e-06
3.80167e-05
0.244247
0.000133783
1.92355e-09
7.91632e-05
0.00010136
9.692e-05
3.87879e-05
0.000625837
2.47346e-06
0.00111501
5.22278e-05
0.202696
0.000201405
4.53171e-08
7.08301e-06
1.04148e-06
2.01747e-07
0.00141321
0.000216514
8.29641e-05
1.4804e-06
1.44582e-06
9.51157e-06
3.57266e-08
0.347832
8.8403e-07
3.33457e-05
0.00437181
9.06337e-05
0.00126416
3.57301e-08
0.251119
0.32887
2.54333e-08
3.4624e-05
0.000260652
0.000102702
3.97123e-09
2.97574e-05
3.92522e-09
0.282261
7.16387e-05
2.07348e-05
0.000105407
2.10235e-05
1.88046e-07
1.68593e-06
4.97628e-07
6.85223e-05
1.55199e-07
5.95477e-07
0.0521889
9.50224e-05
3.9747e-08
1.22805e-09
0.000380904
8.46786e-08
1.57025e-06
3.58308e-06
2.67301e-08
6.10749e-05
6.62318e-08
0.073854
6.7921e-08
1.65227e-06
3.73974e-08
0.000234324
4.19296e-07
0.221938
1.94607e-05
0.234418
6.37743e-09
6.53254e-05
2.54405e-06
2.79108e-09
0.366009
0.141746
2.56862e-05
3.05115e-06
3.04779e-05
6.85152e-07
1.1963e-05
7.7402e-07
4.52575e-05
0.286787
2.42605e-08
2.34038e-06
0.000107822
1.75464e-05
0.0581688
5.47307e-06
0.000114244
2.43121e-06
1.37987e-06
0.000774582
0.0807277
1.74509e-05
2.18274e-08
1.26398e-06
3.35793e-06
3.51065e-06
1.12684e-06
1.94621e-05
1.78039e-09
0.00169212
1.64366e-07
3.47164e-07
1.79692e-07
9.19608e-05
2.947e-09
9.76075e-06
2.78401e-08
8.98661e-06
1.26863e-09
0.115168
0.113548
1.93798e-05
1.17074e-06
0.0642704
0.0806264
4.81457e-08
2.68891e-07
1.46588e-05
4.3696e-08
0.000168459
1.7672e-05
1.08312e-05
0.0424767
1.65199e-06
2.79551e-09
4.66237e-05
4.48571e-05
6.30461e-05
1.66862e-06
1.53921e-05
1.04465e-05
1.03325e-06
9.58025e-07
2.08627e-05
3.36823e-05
2.63843e-09
0.125476
6.7031e-05
4.29352e-05
1.3271e-06
0.00116962
3.15244e-05
0.000459768
0.00299823
0.000382084
4.09949e-06
8.53043e-05
1.08682e-05
2.1338e-05
0.113823
0.000210301
7.37119e-05
0.00357196
0.0763116
3.19947e-08
6.50086e-05
4.51935e-06
4.04478e-05
3.53722e-07
0.000511974
0.0027386
0.000425211
0.000165554
2.60504e-05
2.32108e-06
5.54033e-08
0.00019745
3.42063e-06
2.90491e-08
7.74191e-10
5.23951e-08
3.33654e-08
9.82947e-06
2.22346e-09
0.0346106
1.25892e-05
2.4789e-05
0.0982595
0.316242
6.00574e-05
2.94467e-06
0.0370033
5.42951e-08
1.85345e-05
1.75444e-07
2.15677e-08
4.74409e-05
2.33294e-05
0.119916
2.5798e-05
1.6428e-07
2.68372e-06
2.94563e-05
0.142363
6.98284e-06
2.72111e-05
6.92751e-05
0.195395
0.0409368
2.74769e-06
1.73004e-05
5.92996e-06
2.35138e-06
5.90562e-06
1.0965e-06
3.14053e-05
4.10327e-06
2.11946e-06
1.13946e-06
4.31239e-06
0.000656245
3.20096e-05
4.18921e-06
4.8267e-06
0.000654496
4.0257e-07
5.06581e-07
1.75575e-05
3.01055e-06
1.63065e-05
3.02331e-06
3.25482e-06
3.37507e-06
3.1182e-05
0.000195019
1.2417e-05
1.80643e-05
3.04209e-06
4.67054e-07
4.37611e-05
4.439e-06
4.08004e-09
0.076621
1.50675e-08
0.135763
5.85203e-05
0.0116896
8.09738e-08
0.0290578
1.42992e-06
1.12582e-05
1.27902e-09
7.5841e-06
2.99343e-07
1.79684e-08
8.16536e-07
0.279933
0.000128159
2.92756e-05
0.0410175
9.95578e-08
2.49335e-09
3.8124e-06
1.8484e-06
8.31106e-05
5.42471e-07
0.000127405
6.29846e-08
7.32075e-06
0.000123626
0.166507
1.06276e-09
4.7561e-09
3.26567e-06
8.23234e-07
0.000131946
4.22088e-07
0.0621858
1.15951e-06
2.60727e-08
1.22647e-07
0.0449222
6.388e-06
0.000138043
6.86097e-10
0.00499782
0.0010398
0.180354
1.62391e-08
1.94993e-08
3.6029e-06
2.27433e-05
3.93536e-05
0.000581934
0.000328994
0.000253963
4.84995e-06
0.0626358
2.61952e-05
8.16781e-07
6.65776e-08
1.1947e-06
1.23518e-08
9.28293e-09
7.56258e-08
8.45698e-10
3.58888e-06
6.96497e-08
1.83621e-08
3.34155e-07
2.3136e-07
1.63868e-06
1.05553e-07
5.74865e-07
2.56562e-07
1.47932e-05
1.64104e-05
2.67429e-08
6.97939e-09
2.17998e-05
6.67091e-10
8.92071e-05
2.12245e-06
5.1255e-06
1.23259e-07
1.92326e-10
9.5215e-10
1.51018e-09
1.53469e-05
1.88326e-08
6.51e-08
2.0773e-05
5.08549e-09
1.37132e-05
8.23933e-05
2.33684e-06
1.67853e-06
0.000522888
4.57322e-06
0.249704
0.00010961
8.21381e-06
0.207927
8.18395e-05
5.9507e-06
2.80844e-05
9.48165e-07
2.03938e-05
0.0883422
0.000697238
6.06987e-07
4.02129e-08
1.26385e-05
7.8444e-05
9.78079e-05
9.18677e-05
1.90559e-09
1.69971e-10
1.26726e-06
3.8414e-05
9.31384e-06
3.87377e-06
0.000199331
3.32443e-06
2.93072e-05
1.45501e-07
1.62099e-08
0.0330646
7.94402e-06
3.56822e-07
2.69343e-08
4.94838e-05
0.00013045
1.75667e-06
3.3979e-07
0.0405423
1.44155e-09
2.68625e-05
0.0630302
1.04245e-08
0.0721648
4.27724e-05
0.0366465
0.000603923
9.97759e-08
2.40054e-05
2.18161e-05
0.0456862
5.66796e-05
0.00130505
0.160261
0.000140518
1.11473e-05
9.81616e-07
1.37372e-06
0.48211
0.160604
4.19163e-08
0.239419
1.37113e-05
0.000161343
2.46966e-05
2.17889e-05
0.00119329
3.87775e-05
1.37532e-05
6.76742e-06
1.34456e-07
1.7582e-06
0.0451144
8.36904e-08
5.45521e-05
2.75291e-05
9.59777e-08
3.87583e-06
0.21534
4.31634e-06
2.91534e-07
0.000631832
1.53149e-08
3.9301e-06
0.210447
2.20102e-08
0.176387
0.339389
0.00132993
1.74743e-05
1.06612e-06
3.69288e-06
6.13732e-05
0.000224388
0.00118108
0.000311328
4.2333e-06
0.0448392
0.000109656
6.89885e-10
0.000302745
0.000293013
0.000607424
0.000464436
0.000858471
0.000170739
1.27294e-09
6.8207e-05
1.00107e-06
4.09553e-07
0.00166801
0.346412
1.73361e-07
3.13918e-08
0.00322277
0.00329369
3.06896e-09
0.000604019
8.47453e-08
1.5669e-08
1.29434e-08
4.47259e-07
4.9983e-06
1.64965e-07
7.68601e-05
0.0512685
1.59887e-09
5.18713e-07
0.00447657
0.115033
7.30827e-05
7.70603e-07
0.0322095
4.76764e-09
0.000131934
4.18125e-09
2.20917e-09
0.000567995
0.128791
2.50398e-06
5.27539e-09
6.86843e-08
0.0353102
1.80492e-08
0.0228834
4.70599e-08
0.00010264
7.14089e-09
0.0019569
3.11476e-06
2.55033e-09
7.53062e-07
5.58728e-07
0.00140046
6.2323e-07
2.38189e-08
2.059e-06
0.00442634
0.0535103
7.14211e-05
0.000600467
0.00106944
4.31085e-08
0.00131651
1.01327e-05
3.57949e-07
3.01411e-06
0.000216156
2.23099e-05
1.20011e-07
9.41567e-06
0.000148873
9.9089e-08
1.32765e-06
7.26919e-07
1.61251e-05
0.0725952
1.38957e-09
8.62189e-07
0.0602069
0.000121073
7.66611e-05
5.5551e-09
8.40802e-07
1.9743e-08
1.12162e-06
2.67428e-05
5.30263e-05
5.47393e-07
2.98432e-05
2.73856e-05
8.19364e-05
1.67151e-05
8.02695e-09
3.78031e-06
1.61601e-09
5.00825e-07
6.5238e-05
0.00018276
3.02048e-08
5.02497e-07
4.2915e-06
2.62727e-10
4.76671e-05
4.46145e-07
7.1551e-05
0.000835392
7.44489e-05
1.36831e-08
0.00139098
0.000118361
6.27105e-05
0.000157964
4.6381e-08
0.000161331
2.71502e-06
0.116286
3.42787e-05
9.59571e-05
6.10572e-08
6.73052e-10
2.16998e-08
0.185058
0.0739699
4.41968e-05
7.57954e-10
0.000141367
2.95015e-08
0.17185
0.000157603
7.54521e-07
8.86618e-08
3.3677e-06
6.1165e-07
8.86629e-05
2.10071e-06
0.000121888
0.310124
4.09922e-06
7.20059e-05
3.34767e-05
7.03277e-05
5.10241e-05
3.10661e-08
3.3129e-10
2.75685e-06
3.44587e-05
8.4277e-09
1.98835e-07
0.00061033
4.55634e-07
1.32514e-06
0.420356
1.76628e-06
6.7613e-05
3.83761e-10
3.25949e-06
2.66186e-07
0.328776
2.82095e-09
0.118378
0.00552017
0.000135304
1.72511e-05
1.52661e-05
0.000938563
2.56069e-06
3.85782e-06
2.28206e-06
9.69573e-07
5.95827e-08
1.84734e-06
8.49112e-05
2.35852e-06
0.069905
2.72891e-07
4.368e-06
0.000305238
2.08943e-09
0.000380994
8.56858e-08
3.91369e-05
0.000817346
6.80929e-08
2.05872e-06
6.87668e-05
5.47376e-07
9.21894e-06
0.180782
7.99158e-07
9.7523e-06
1.49626e-10
0.0461171
8.86409e-06
1.91274e-07
1.90251e-07
4.8889e-06
7.18066e-06
8.58538e-09
0.151009
1.49809e-06
1.88108e-09
0.000125482
4.01912e-07
2.67023e-09
4.54019e-05
0.00100281
0.000885206
8.91451e-09
1.10983e-06
4.57841e-08
4.84981e-05
5.02609e-05
0.0342081
6.27421e-06
0.00090596
6.73325e-05
0.00115291
3.07675e-05
3.4819e-06
1.06897e-06
4.7192e-07
5.11699e-05
2.06737e-06
7.27205e-06
0.0438962
0.000254791
0.0474596
7.5247e-10
7.82511e-06
1.1742e-07
6.12971e-05
0.000101717
1.1714e-05
4.85804e-05
0.000542191
0.00014864
1.2429e-09
0.00716243
0.00831123
8.65076e-05
4.64539e-05
7.61613e-07
0.000985055
1.68193e-06
2.85711e-06
1.358e-07
5.59562e-09
0.000250657
9.74147e-06
0.000985548
6.45941e-07
0.0469535
0.00066211
7.14293e-07
1.30391e-07
0.000576776
2.8844e-06
0.0555315
0.279089
0.000130363
0.000235347
1.58797e-06
5.13268e-07
3.31191e-08
1.42283e-08
6.25356e-05
4.94179e-06
0.0345753
0.0549584
3.1098e-05
2.7848e-08
0.000320251
0.0413174
2.74677e-05
0.00114795
0.00257796
0.0436711
0.121213
0.0508002
0.000122815
1.29628e-09
0.00202361
6.58243e-07
1.56083e-07
1.90261e-07
7.76327e-09
2.83206e-05
3.80042e-09
2.30618e-09
9.11685e-05
4.90591e-08
6.27667e-09
9.45676e-07
5.64681e-07
0.0593535
6.30665e-06
3.05569e-05
0.0766253
0.261037
5.13531e-09
0.186909
0.000161416
0.388161
3.74996e-07
1.11042e-07
6.91297e-08
4.43535e-05
0.260713
1.70349e-09
0.00117267
6.95724e-08
3.84237e-06
1.62796e-05
7.56967e-06
1.08559e-06
2.37354e-07
0.0780041
1.09179e-08
6.93314e-06
1.15557e-07
8.74717e-07
1.69834e-06
0.000457721
0.000118905
1.14943e-06
0.000387558
2.14629e-05
4.19272e-07
0.000140625
7.42534e-07
2.45597e-05
1.43779e-07
1.30222e-07
0.253289
0.0440453
0.000400189
3.29945e-07
6.02992e-09
4.0473e-06
0.193476
2.65599e-07
1.15227e-05
5.43336e-07
2.88781e-06
1.92456e-09
0.0359116
0.000109862
7.36452e-07
5.76313e-07
1.75885e-05
7.82593e-09
0.17924
1.30466e-09
0.040427
7.86689e-05
5.16751e-06
1.52872e-08
3.33834e-06
1.31122e-06
1.0359e-06
3.45962e-06
5.06015e-06
3.17961e-10
4.57391e-09
9.59773e-05
0.0809008
2.31093e-09
3.4057e-05
5.12965e-06
9.53994e-05
3.84026e-07
0.0485759
2.30652e-06
5.21061e-05
5.5408e-05
6.13037e-08
5.83529e-05
1.96045e-06
1.7186e-05
2.85691e-08
2.41257e-08
1.05474e-05
5.94251e-09
0.000179062
3.967e-05
3.54391e-08
7.82661e-08
0.000134074
0.000545893
0.303726
1.17342e-07
5.03996e-06
1.84014e-06
0.000367337
0.000169373
2.69506e-05
8.25895e-05
0.0796256
3.46366e-06
5.48438e-05
0.000829224
0.0672653
7.27637e-07
4.867e-08
0.000422208
2.97545e-06
0.0418188
1.91988e-07
6.9482e-06
3.50113e-06
1.66849e-08
0.229811
9.81746e-09
1.69149e-07
6.21374e-07
2.70443e-05
0.30806
0.0577374
4.81964e-07
2.33335e-08
1.5604e-09
1.1077e-07
1.06811e-07
6.48088e-07
1.18565e-07
5.67794e-09
6.34759e-08
1.11198e-08
1.83585e-07
0.0633171
0.0375497
2.96227e-09
1.37339e-05
7.06813e-09
7.23866e-08
1.17e-08
0.036805
0.0820993
5.67673e-06
3.90695e-08
1.22821e-08
8.2327e-07
1.26934e-06
4.03018e-06
1.35108e-07
0.000334155
2.71684e-07
3.13336e-06
3.40978e-06
0.000188248
5.29592e-06
0.000798774
1.76265e-06
2.93999e-08
0.000490019
0.000449584
1.77478e-08
2.31422e-05
3.94677e-06
1.35108e-05
4.32104e-05
1.02458e-05
3.6399e-06
1.11445e-07
0.329136
5.02159e-07
3.94388e-05
0.0633474
0.000118449
1.21032e-05
1.48664e-05
1.62004e-06
2.26369e-06
2.27058e-05
6.63362e-05
5.6104e-05
3.36361e-06
4.47584e-05
7.36205e-06
3.85882e-06
2.12256e-06
5.49034e-09
6.11331e-08
4.52297e-08
6.52698e-10
1.76934e-07
3.21032e-08
7.22207e-06
1.96264e-08
3.26622e-09
1.77381e-07
1.72568e-05
4.97232e-09
9.95226e-09
8.12537e-07
1.11016e-06
9.05719e-07
8.73528e-05
6.43699e-06
0.245769
1.27649e-07
1.15233e-05
1.54091e-05
4.09723e-06
4.0482e-09
1.74783e-08
0.223098
5.58197e-07
5.33211e-09
2.33198e-06
0.224155
1.70841e-06
5.83155e-05
5.80881e-05
1.09517e-06
7.59742e-06
9.22099e-06
0.000383307
1.95404e-08
4.34596e-05
4.96352e-06
1.9177e-07
0.000318481
0.000391599
0.195467
6.75023e-06
1.37135e-06
7.21437e-06
3.75416e-05
1.58538e-05
2.05262e-07
0.00259339
1.21064e-08
0.000635254
0.000413017
0.0608543
9.93489e-06
0.256868
2.9789e-08
1.40674e-07
5.00614e-06
2.50049e-05
7.24035e-05
3.25203e-06
0.00011508
3.5533e-08
9.69498e-06
1.09514e-09
1.88819e-08
1.56366e-06
0.000482876
9.93423e-08
5.18328e-09
0.000420632
1.89279e-07
0.000542853
3.41114e-06
1.91721e-06
1.45302e-06
4.60872e-07
2.00221e-05
4.45804e-06
0.000204307
6.31422e-07
8.12263e-06
0.00329624
1.2067e-06
7.03886e-09
0.000156448
2.20891e-06
3.98805e-05
4.54531e-09
0.143028
0.00011658
7.14582e-05
1.75212e-06
7.5562e-09
0.000194781
4.61002e-06
2.2895e-07
9.04546e-10
6.51143e-05
7.19614e-05
8.01364e-05
0.194696
2.82155e-06
5.90964e-06
0.000244787
9.75705e-06
6.92898e-06
2.63492e-06
8.41314e-05
3.5345e-06
0.000119057
0.182251
1.48524e-05
3.90969e-10
1.64494e-06
5.20922e-05
1.50092e-05
2.5087e-07
0.000463791
0.000875669
0.000474491
0.00087381
1.70212e-05
5.22682e-05
6.9748e-06
2.01772e-05
1.18891e-07
1.10118e-08
0.101404
0.000505665
2.86366e-06
0.00165589
5.08575e-06
2.42634e-05
0.000426471
4.40252e-06
2.25379e-06
3.21407e-06
3.99492e-07
4.17383e-05
2.95379e-05
0.000149631
2.79144e-05
5.45911e-07
5.98611e-09
2.79095e-05
9.05183e-07
1.93523e-08
0.00031211
2.91292e-06
8.01138e-06
3.73672e-05
7.2267e-06
4.07316e-08
0.000590625
0.137779
4.84444e-08
5.80917e-09
2.09392e-08
0.143552
0.244819
4.15648e-07
0.0531205
5.375e-06
1.99879e-05
7.94432e-06
8.18354e-06
1.1492e-05
1.33841e-05
2.94581e-05
0.116485
0.337549
0.389177
1.17389e-05
3.1422e-05
6.52366e-06
7.20753e-06
0.358351
1.36461e-08
0.173908
4.0044e-06
1.07465e-08
7.28098e-07
5.79178e-07
2.89487e-08
3.69374e-08
2.27078e-07
1.88858e-08
0.135926
4.60267e-08
2.84629e-05
0.000194305
2.23858e-08
4.61256e-06
7.29263e-06
6.17143e-06
6.54056e-08
0.000584218
6.36097e-06
8.58951e-07
6.78826e-05
4.26099e-06
3.05304e-05
4.53062e-06
1.20152e-06
5.0642e-07
2.01053e-05
0.0033401
4.76873e-05
8.59833e-07
1.35613e-05
8.31766e-07
2.46649e-05
9.54186e-05
1.19074e-05
2.21807e-06
5.34543e-06
1.15586e-06
5.76517e-05
1.4242e-07
8.09677e-06
0.0410495
0.000420802
0.326481
0.000769451
0.000108856
1.76872e-08
0.0612999
9.96987e-10
4.89425e-05
1.56107e-05
8.17071e-07
8.66215e-05
1.58163e-06
9.96314e-07
4.40252e-05
7.79126e-07
1.76924e-07
1.91982e-05
6.65115e-07
2.2373e-05
0.0777847
3.53554e-07
3.67392e-05
1.32612e-06
7.88007e-07
8.9676e-10
0.00025888
9.04945e-05
3.65861e-06
1.31191e-08
7.20184e-07
0.0442149
0.000209375
9.76199e-06
1.46304e-05
1.7279e-09
9.3073e-11
9.15379e-07
3.94994e-09
4.84143e-05
3.54701e-07
2.16352e-05
1.61779e-06
2.08982e-07
5.92444e-07
2.99585e-08
4.78311e-05
8.98344e-05
4.3984e-05
4.96436e-07
2.93714e-08
9.77813e-07
2.24981e-06
0.000532964
9.84192e-07
0.160604
2.12914e-05
2.89302e-08
4.08664e-08
0.000229193
1.26448e-05
0.00113393
5.13756e-07
9.79463e-05
0.232124
2.35407e-10
0.000330073
2.67432e-05
0.0423578
1.73235e-06
0.0473051
0.0827399
0.000118404
7.38406e-06
1.99795e-05
1.12488e-08
1.5499e-05
2.6846e-05
0.000371911
1.89825e-05
6.63889e-06
2.59081e-05
0.000424481
0.000342194
0.000501523
0.000129051
1.659e-08
8.89846e-05
0.000881837
6.23087e-06
3.86511e-06
0.000245312
0.000212228
1.37672e-05
1.8528e-05
0.000261658
1.55349e-05
0.000377161
0.000245145
1.92738e-05
2.21511e-08
3.44765e-05
0.000417392
0.0665917
2.1221e-06
5.26758e-07
4.88125e-05
1.93328e-07
8.46401e-05
8.27903e-07
0.000392191
6.11241e-07
6.83736e-05
2.51776e-08
9.90032e-08
1.09943e-05
0.000910041
0.00119855
0.336288
4.10132e-05
2.00981e-06
1.89216e-07
0.000402863
2.35186e-05
0.0333125
0.0701368
7.02553e-10
0.000778908
6.25651e-05
6.76328e-06
5.73148e-09
0.00114041
5.66419e-07
0.0425744
4.94898e-08
3.0396e-09
2.96917e-05
9.17753e-07
1.31242e-06
3.77976e-05
0.0393875
2.0069e-05
2.22595e-07
8.095e-05
0.217081
0.042564
6.657e-06
0.000281122
2.92726e-05
0.000564463
2.93579e-06
0.0372574
3.80095e-05
0.000184677
2.27721e-07
8.79484e-07
4.67162e-06
5.18582e-07
2.38359e-05
2.29934e-06
7.67305e-07
2.53456e-06
4.13291e-06
9.88994e-05
2.48042e-08
3.59341e-07
0.0793619
9.73407e-09
7.49555e-08
4.28008e-05
6.18408e-08
0.000178084
3.53561e-05
0.064859
2.32512e-05
0.258588
1.25607e-05
2.11676e-05
0.0397555
0.000157458
1.81835e-10
2.43907e-06
0.0278715
1.5801e-05
7.83766e-05
1.67572e-05
1.63942e-07
6.96851e-06
7.40659e-06
8.41094e-07
0.126199
1.08197e-06
1.02152e-07
1.71108e-06
6.61016e-07
1.60884e-08
8.65106e-05
2.48871e-06
0.271453
8.12454e-05
3.52278e-05
4.587e-05
5.80428e-05
1.64034e-05
2.89651e-06
1.10726e-10
8.64873e-07
7.35764e-05
2.13138e-05
6.53237e-06
6.91418e-08
1.11812e-05
1.23996e-06
3.97411e-05
3.14619e-08
1.39789e-07
1.3001e-06
2.821e-05
2.17379e-05
3.27206e-05
2.91977e-08
2.19118e-08
0.00165901
2.23613e-08
1.43734e-09
2.92253e-09
1.42158e-06
0.305805
8.34855e-07
0.00011448
6.87666e-05
2.04574e-05
1.70843e-07
1.2165e-06
0.000223741
7.28622e-06
3.65634e-07
3.72108e-05
3.99287e-09
2.62713e-09
3.87377e-09
9.76069e-05
1.10976e-07
0.325551
0.000523391
3.52498e-05
0.00182945
6.74296e-07
1.6674e-05
3.17474e-09
0.0590331
8.08086e-06
6.23977e-06
1.54476e-06
4.03466e-07
1.60664e-07
0.476269
1.67183e-05
0.000434788
6.53599e-05
1.35079e-06
0.121157
3.15628e-07
3.19255e-07
5.00439e-07
7.05921e-07
3.56061e-05
4.93558e-07
2.42773e-05
1.75179e-05
0.000498599
3.54932e-06
4.67892e-10
0.000189533
3.81171e-07
0.155347
3.37484e-06
2.37381e-07
1.24797e-06
1.88921e-05
0.0603921
0.0296272
1.83491e-05
4.79478e-05
0.0901731
3.47903e-06
2.50181e-05
0.0466047
1.24644e-05
5.82855e-06
0.17147
0.0185657
1.03495e-05
3.31829e-05
1.52728e-08
3.82124e-05
0.00169806
1.02656e-05
1.14254e-05
0.000375875
1.16829e-09
0.0230284
9.9371e-09
2.82317e-05
0.192693
1.20695e-07
1.20848e-05
4.77645e-06
3.73942e-07
4.12301e-08
4.81005e-05
4.17212e-07
1.15719e-07
3.06289e-05
9.68938e-06
1.33401e-08
0.0231815
0.0438858
4.75258e-06
2.67816e-10
2.03508e-09
0.000143039
1.39403e-05
5.31126e-06
4.3155e-09
9.84639e-08
0.000131496
6.90581e-05
4.71463e-05
8.27384e-05
0.359952
9.40561e-10
0.139473
1.72548e-05
6.81202e-06
0.0553465
1.07973e-06
2.1233e-08
0.0227121
7.76896e-10
6.76109e-06
6.22896e-06
7.81717e-06
1.09676e-06
9.32019e-09
4.10276e-09
1.6237e-08
2.03048e-05
0.132467
0.210208
3.09261e-05
2.50704e-06
1.76385e-10
0.0555129
0.223142
0.000278448
9.80786e-07
1.4583e-07
0.000958839
0.000243624
2.38818e-07
1.2963e-08
2.11477e-06
7.87429e-06
3.61235e-08
1.10182e-05
6.88394e-05
0.0597003
0.202408
5.50646e-05
0.000842205
9.74028e-09
3.66977e-07
3.25397e-05
0.000177386
3.33354e-05
0.00043329
8.09653e-06
1.44546e-05
8.23254e-09
8.77849e-08
1.26013e-05
0.0580011
1.11664e-06
0.176047
2.02474e-08
1.21317e-05
2.33685e-06
1.64144e-05
1.10578e-08
1.4043e-09
1.09112e-07
3.51378e-08
1.21096e-06
0.000321773
1.02141e-08
0.0371451
1.75265e-05
0.157716
1.88642e-06
2.96243e-06
1.64319e-06
1.97277e-06
1.31227e-05
3.15819e-08
2.33877e-08
1.47353e-08
3.19685e-06
9.56751e-06
0.0573168
0.0554822
5.02987e-06
9.75343e-07
5.96433e-09
2.26362e-09
2.46493e-08
1.70425e-06
0.000247532
2.00377e-07
3.5451e-08
3.53272e-09
0.021841
2.67202e-05
4.37945e-05
0.0401977
8.21263e-07
0.307845
9.83702e-06
4.36893e-07
4.54304e-10
2.58767e-07
0.0532237
7.43102e-10
2.23908e-05
1.40159e-08
0.00069551
4.46756e-05
8.33633e-05
0.000144275
2.86319e-05
4.12575e-09
1.53721e-08
0.355595
3.26349e-05
3.48533e-05
0.000231769
4.20884e-07
8.51721e-05
9.60369e-05
2.98879e-06
3.28564e-06
0.000297108
7.82784e-08
0.000704163
0.038982
1.38735e-06
2.03798e-07
8.28009e-05
9.0272e-07
0.0339282
0.180275
2.15679e-05
9.67757e-10
0.00407744
3.37972e-07
2.2127e-05
1.54594e-06
0.00012396
1.1246e-08
0.000875297
8.66225e-05
0.000131731
2.09919e-05
0.000121505
3.01104e-05
5.32665e-06
1.23518e-09
0.000156238
4.64939e-05
5.81272e-05
6.58516e-07
9.58571e-06
0.000121822
0.000448622
9.31251e-09
2.77751e-08
3.51114e-08
3.78551e-10
1.26895e-07
0.0215064
0.000402862
0.000142276
4.02535e-05
0.000203777
8.24267e-05
2.68431e-10
1.14844e-05
6.85381e-09
5.35733e-07
6.71672e-09
2.62233e-05
0.00202344
1.52917e-05
1.11226e-07
1.38983e-08
1.47962e-06
1.2306e-07
7.69312e-09
0.145033
9.18069e-06
0.00066514
0.00101227
0.000723962
8.50176e-09
0.000667303
0.00074451
0.00133743
0.000722964
2.15578e-09
4.88361e-10
3.2975e-06
8.50157e-06
6.77409e-05
0.000316851
0.0418113
8.31354e-06
3.25703e-05
4.43344e-06
0.000554965
3.34116e-08
1.31102e-09
0.000112382
0.000370197
0.0259809
8.87771e-09
0.116714
0.000125661
3.35056e-07
9.09524e-05
4.91829e-06
8.87574e-05
2.25122e-06
9.70771e-05
6.43002e-09
9.16281e-06
0.00215715
3.62867e-05
5.79123e-08
0.00174598
4.42457e-05
1.05873e-05
0.00321612
8.47187e-08
7.65293e-06
5.64506e-05
9.91147e-05
8.58439e-07
0.191214
5.57673e-08
8.45326e-07
2.67755e-08
0.116779
0.119856
2.06116e-06
1.80574e-06
0.000154914
0.0548288
3.15074e-08
1.07812e-05
2.08074e-05
1.32228e-05
1.2732e-06
0.193428
7.14695e-06
1.6822e-05
0.00359933
1.59436e-07
7.11799e-06
1.69162e-06
2.51291e-06
1.75475e-09
0.00239551
0.00395231
1.11252e-07
7.45177e-07
1.25911e-06
0.00010123
7.99764e-09
0.0396302
2.86702e-07
9.96246e-06
1.09547e-06
5.2781e-07
4.86866e-06
3.36677e-05
1.27588e-06
4.92102e-06
0.000244229
1.56634e-06
1.32815e-06
0.0428175
7.61249e-07
3.37298e-06
2.51625e-06
1.94208e-05
2.00951e-10
4.73209e-09
9.58841e-10
5.82173e-06
5.60049e-08
0.0666151
2.19914e-05
1.18636e-05
3.87437e-09
3.22793e-05
0.11631
7.92801e-05
1.37362e-05
6.08441e-05
1.23642e-05
1.99865e-07
7.95638e-08
2.42371e-05
4.24918e-06
2.71165e-06
0.000540384
9.56103e-06
4.70746e-08
2.88018e-08
2.2575e-06
6.86014e-08
6.85923e-06
4.06684e-08
1.18792e-05
1.60939e-05
1.98939e-07
1.17805e-09
0.0455084
7.13139e-09
2.26903e-09
2.46282e-05
0.0562128
2.01083e-05
2.22326e-06
1.79887e-08
9.8797e-06
5.28154e-06
2.20764e-05
5.92683e-06
8.21785e-09
1.74417e-06
1.55415e-06
5.48396e-06
3.79691e-09
5.34068e-09
4.84378e-09
5.30539e-06
1.69074e-05
9.45299e-07
1.54842e-08
7.50491e-06
5.13456e-05
2.00722e-08
2.46826e-05
4.44232e-07
4.10762e-08
6.60487e-09
3.87411e-05
2.38823e-07
2.069e-05
1.60823e-09
2.52406e-05
8.96366e-09
1.5101e-06
0.000346706
1.34058e-07
5.61248e-09
0.0683922
3.06447e-08
0.0562508
2.44413e-07
5.01033e-08
9.65275e-06
2.52823e-05
0.0462458
5.79369e-05
0.0497071
0.0604006
8.92038e-05
1.13305e-05
0.0402006
1.07777e-05
1.62521e-08
4.31615e-05
0.139087
0.0368561
0.0420216
1.15732e-08
1.03677e-05
1.64457e-08
5.52586e-06
9.84209e-07
7.80539e-06
0.000168609
7.04736e-06
5.24408e-07
1.57352e-08
3.62406e-06
0.000292164
2.42016e-08
1.194e-05
3.76758e-05
1.96878e-06
8.15767e-10
6.21391e-05
2.59211e-05
2.55832e-05
1.75764e-05
1.62508e-05
2.27081e-06
7.42756e-06
0.000151203
8.67383e-06
6.75659e-06
0.000125037
0.000454654
3.3548e-09
6.21975e-07
2.78877e-08
1.9892e-05
8.9728e-08
2.30529e-06
9.11175e-11
0.000393904
0.387803
0.087801
0.000147114
4.6923e-09
1.16506e-05
0.0544373
0.101803
2.47237e-06
0.000269345
2.07091e-06
5.51879e-07
1.21904e-07
2.84339e-09
9.12223e-06
4.28698e-05
3.88441e-08
4.59193e-09
1.75903e-05
1.64756e-07
0.17454
0.0536916
1.16894e-05
5.39897e-09
1.1246e-08
0.0419032
4.78341e-09
2.51409e-05
1.03213e-08
0.000606963
2.18873e-08
4.94269e-06
5.11374e-08
5.3411e-09
0.00107244
0.152966
0.0643689
1.38462e-08
0.0687008
4.26592e-08
1.3403e-05
1.63908e-06
0.116453
2.39372e-07
0.000158953
3.90967e-09
1.93967e-06
0.000275149
1.68001e-06
0.000162076
9.58607e-09
1.14751e-05
3.20495e-05
2.06813e-05
5.27321e-06
3.64806e-07
3.30117e-07
3.36308e-06
6.06427e-07
9.69229e-09
3.31935e-09
0.0741653
0.0370037
1.44197e-08
0.0831579
3.77679e-10
2.03231e-08
5.23079e-05
5.18932e-09
4.78692e-09
0.0394726
1.91989e-08
9.02986e-10
0.000636422
2.08415e-09
1.09233e-09
5.0121e-05
0.0917034
1.34132e-07
0.0369792
8.80148e-09
4.5364e-06
0.0495724
6.24801e-06
0.000861199
6.08965e-10
7.21771e-08
1.04046e-06
1.71374e-07
0.207666
0.0449168
0.000107972
3.14989e-08
0.0460894
8.75913e-10
1.95214e-08
2.68115e-09
0.101841
0.00178402
8.6642e-06
1.31207e-09
1.28196e-06
0.0479485
0.000900242
3.68171e-07
0.000260031
0.107492
0.0848891
3.54644e-05
0.0841613
0.000920445
0.042506
4.17474e-05
0.0649629
0.000341635
4.7712e-06
1.45628e-06
2.29715e-06
0.000454936
0.000920024
7.19694e-10
3.75314e-06
7.47481e-08
4.5345e-05
7.2364e-06
9.9749e-07
7.97192e-06
0.000296192
1.73936e-07
7.95001e-06
9.02337e-08
2.65012e-08
2.83463e-08
4.44497e-08
5.00843e-06
4.36012e-08
4.82161e-08
7.28104e-08
1.07337e-05
4.28937e-05
1.73359e-10
1.73199e-09
5.5871e-08
9.95466e-08
1.11088e-06
0.00127195
0.00208382
0.000128955
9.81542e-09
3.19488e-05
5.64524e-06
0.0461681
3.18124e-05
1.28374e-05
5.60665e-07
1.07693e-06
2.4223e-06
0.000221356
0.000116312
0.177628
0.0669079
8.17928e-08
0.00082151
0.000293617
1.40116e-08
2.70058e-06
4.56061e-06
3.82824e-08
1.71829e-06
3.89598e-06
0.0619083
3.29838e-10
8.30741e-05
1.43272e-08
0.0480241
5.09496e-05
0.0353628
3.31754e-05
4.57866e-09
6.82771e-09
2.41031e-08
2.4858e-05
2.3928e-05
4.15098e-06
7.19729e-06
1.00007e-06
0.000759417
0.000286781
8.74261e-10
0.000115798
4.72815e-05
5.17287e-05
9.45765e-05
0.0029406
4.03678e-06
0.0981695
4.88184e-08
5.79549e-06
0.0382053
1.15888e-08
0.00026115
0.00711768
4.01909e-08
0.000101316
1.44548e-08
1.84938e-07
2.52842e-06
3.86222e-06
5.38008e-08
7.81556e-09
6.81054e-07
2.50739e-09
5.5863e-09
0.000125349
2.42058e-08
5.13216e-10
2.88399e-05
7.66602e-09
9.73797e-08
2.67897e-07
0.000214087
2.18898e-07
0.000167302
1.04168e-07
4.65004e-08
2.24093e-05
6.55835e-05
0.000229689
0.0425391
8.00651e-05
4.24148e-05
2.2885e-06
0.316574
0.307815
1.24961e-07
2.88032e-05
1.71483e-08
0.0451788
0.0378752
0.000401384
0.0890083
0.0682227
7.11897e-06
1.28467e-09
0.000114304
1.13738e-08
1.33426e-09
3.9504e-07
1.56077e-05
6.93318e-09
1.72189e-05
3.30135e-05
5.10453e-09