/*--------------------------------*- C++ -*----------------------------------*\
  =========                 |
  \\      /  F ield         | OpenFOAM: The Open Source CFD Toolbox
   \\    /   O peration     | Website:  https://openfoam.org
    \\  /    A nd           | Version:  10
     \\/     M anipulation  |
\*---------------------------------------------------------------------------*/
FoamFile
{
    format      ascii;
    class       volScalarField;
    location    "14.5";
    object      SgRate;
}
// * * * * * * * * * * * * * * * * * * * * * * * * * * * * * * * * * * * * * //

dimensions      [1 -1 -3 -1 0 0 0];

internalField   nonuniform List<scalar> 
111485
(
4.35485e-10
0.00804831
0.0239556
7.05286e-11
0.0488909
3.11863e-08
0.0460783
0.00615009
0.0189498
0.00121761
0.0464583
0.00939289
0.00475962
0.293212
0.00649259
0.030608
0.208366
2.61428
0.0103417
4.83977e-08
0.0370618
2.63086e-09
0.0265251
0.0347859
0.00861808
3.46823e-08
0.0396255
0.00177054
0.0156222
0.0479491
0.0443245
0.0193487
2.18096e-07
1.41229e-06
0.00747599
9.03545e-05
0.145849
0.207891
0.00247106
0.0239398
0.0428846
0.0710085
0.0158509
0.00161453
7.95488e-05
1.57768e-06
0.0299568
0.000713786
0.0475842
4.24122e-07
1.09544e-06
1.70905e-05
4.61717e-07
0.0508684
1.49384e-06
0.0435802
0.00312099
4.25927e-08
6.99056e-05
0.00479891
0.0160822
2.63124e-07
0.0048055
0.0964643
6.42777e-06
0.00321394
0.315358
0.0944524
0.00116465
0.00614201
6.60042e-05
0.00659696
1.11098e-05
0.00295341
4.42131e-08
0.000706142
1.57651e-08
0.0412359
2.7174e-08
3.11117e-05
0.278158
0.55485
4.50559e-08
5.12266e-09
0.00924463
0.00394437
0.141974
0.0252246
0.000304194
0.00740053
0.00028643
0.0405189
0.0118156
5.78833e-05
0.0524334
6.43416e-09
0.0269533
0.00180233
0.00152524
0.0017265
1.16744e-09
0.0180804
1.9342e-06
0.0182209
0.00464439
1.63236e-05
6.14564e-09
0.00757686
0.00407718
0.000716332
0.00542289
0.00472776
0.00373897
0.00324953
1.04143e-07
3.35946e-05
3.02954e-08
6.45461e-06
0.01277
4.14101e-09
9.17421e-08
0.000189182
0.0741472
2.22974e-06
0.00159256
0.0278607
0.00010632
0.00169511
2.55548e-10
0.000347643
0.00157595
0.0325748
0.0470094
0.00017434
7.79289e-05
0.0484662
1.048e-09
0.0425477
0.0252538
0.00272807
0.000313984
0.00200258
0.201019
0.00280305
0.00399429
0.0130394
1.30878e-09
7.81186e-10
4.79554e-08
0.0280267
0.00161127
0.0284279
0.114251
0.00480618
3.6904e-05
0.0107568
0.0162982
0.010733
0.000814085
5.41499e-06
9.18813e-10
0.0523024
0.0230219
7.53243e-05
6.45421e-05
0.00582735
0.00347047
0.0266719
0.00154966
0.000172967
1.51068e-09
1.47799e-08
0.196756
1.00693e-10
0.00553167
0.00209514
5.35588e-07
9.3316e-06
3.53136e-08
5.76956e-06
9.82797e-06
3.71074e-08
0.00149976
0.00679096
0.0296811
0.00415452
0.00755973
0.00404576
0.000461151
1.75083e-07
0.00484142
5.72858e-06
7.10318e-06
0.0065224
0.0104773
0.0281091
0.0112126
0.00503826
8.45862e-07
0.00666863
0.000523192
0.00169197
0.0141341
0.00231876
1.81812e-06
0.00376509
0.0255216
1.16869e-05
0.000184814
0.00775618
0.00205055
0.000372479
8.5672e-06
7.43601e-09
0.00830413
0.000309169
0.119921
7.20271e-09
0.00664017
0.0204295
0.119458
8.30126e-08
0.00324507
0.0137003
0.000276122
6.95378e-09
5.48047e-10
0.152577
0.00411114
2.34418e-05
9.26883e-05
0.00944385
0.00777703
0.159421
3.82781e-05
2.01636e-05
0.159374
4.59872e-08
0.00249881
0.00947907
0.0165589
0.0116501
0.00960581
3.85325e-06
0.00191099
0.000628162
7.72363e-06
1.15774e-08
0.0309308
0.155739
1.81565e-05
0.00643118
0.0107076
8.04523e-10
0.000191041
0.000116407
2.77027e-07
6.62722e-05
0.0990477
1.85744e-08
0.0149172
0.0108902
0.00366896
3.39139e-09
0.0118536
7.03714e-11
6.10247e-08
5.06923e-07
0.164158
0.022797
0.0061657
0.00539893
0.212108
0.0122552
0.00159181
0.000820844
0.03266
0.00887242
4.52651e-07
5.32424e-09
0.111298
0.0226306
0.0245027
0.0119731
1.68163e-09
0.222506
0.265326
0.00300036
0.000317202
3.61909e-05
0.0137095
0.00218627
0.00193694
2.16716e-08
0.000668319
2.35303e-09
0.000356969
0.0002732
0.240307
0.0682456
0.355055
1.79103e-08
0.0847075
0.0089781
0.00172647
2.57546e-09
1.14599e-07
0.0245257
0.000299922
0.0573173
0.00394939
0.0138591
0.0192667
3.0154e-05
3.01376e-08
3.41329e-08
0.00379265
0.00434512
0.24848
0.185497
0.000773229
1.56328e-09
8.75678e-09
1.36454e-08
8.39914e-05
0.0598351
0.0119324
2.13808e-06
0.005227
7.10066e-05
0.0605578
0.066865
0.00589167
0.0114075
0.00925809
0.0475168
4.95666e-05
7.2881e-07
0.00940455
0.018789
0.00476196
6.82681e-08
0.149474
0.000330375
0.00219979
0.00802502
0.000336513
0.0284944
0.0385169
0.0375824
0.00354207
0.00779569
0.0251854
0.0134336
8.99186e-06
1.95829e-07
5.40547e-07
7.09635e-07
0.0314277
0.368232
0.0332407
0.0673643
0.0521734
0.0186612
1.74827e-08
4.07199e-07
0.0165286
0.0467636
0.0770523
0.0457119
0.0488981
0.0229459
2.40231e-08
0.0136188
0.000294752
4.82298e-10
0.00101138
0.0164747
1.56702e-05
0.00887612
0.00942048
0.00811827
0.00137317
0.00273205
0.00556234
4.27987e-05
1.17712e-06
0.0026061
3.84766e-07
0.00622857
0.116434
0.029895
1.15379e-07
0.027416
0.15331
0.0082489
0.323974
6.63815e-08
0.0465014
0.01878
7.11031e-09
0.000834349
0.00248343
3.83168e-09
0.0319117
0.0109845
0.00520371
4.45108e-07
2.47099e-08
0.00075014
3.85625e-09
0.012224
3.55541e-06
3.52446e-10
0.0168413
3.96623e-05
0.256679
0.0297432
1.92355e-09
7.91632e-05
0.00158137
9.692e-05
0.000198417
0.0147981
0.121871
0.844813
5.22278e-05
0.205451
0.000710827
4.53172e-08
0.038682
0.0312896
2.01747e-07
0.00141321
0.000307483
8.29641e-05
0.0239641
0.0242679
0.0139527
3.57266e-08
0.348496
0.0171119
0.0229779
0.00437263
9.06337e-05
0.00126416
3.57301e-08
0.251131
0.36025
2.54333e-08
0.0084415
0.000359138
0.000102702
3.97124e-09
2.97574e-05
3.92523e-09
0.285948
0.00967402
0.00644033
0.00221905
0.00271479
1.88046e-07
0.00200583
4.97628e-07
0.0406253
1.55199e-07
5.95477e-07
0.0521889
0.0367633
3.9747e-08
1.22805e-09
0.000381069
8.46786e-08
1.57025e-06
0.00105969
2.67301e-08
6.10749e-05
6.62318e-08
0.073854
6.7921e-08
1.65227e-06
3.73974e-08
0.00726958
4.19296e-07
0.222457
0.0019406
0.235305
6.37743e-09
0.000938392
2.54405e-06
2.79108e-09
0.368779
0.143541
0.0272625
0.024745
3.04779e-05
0.00203434
0.08139
0.00847128
0.00106616
0.290034
2.42606e-08
0.0233972
0.000107822
0.00499708
0.0581688
0.0755831
0.000114244
0.020952
0.000244086
0.000775062
0.0807277
0.00200859
2.18274e-08
0.0801841
0.0485029
3.51065e-06
1.12684e-06
1.94621e-05
1.78039e-09
0.00169212
0.0549074
3.47164e-07
1.79692e-07
0.00258946
2.947e-09
0.0336002
2.78401e-08
0.000333493
1.26863e-09
0.115651
0.11355
0.00103384
0.0125441
0.0642704
0.0810381
4.81458e-08
2.68891e-07
0.015002
4.3696e-08
0.000198535
1.7672e-05
0.00164045
0.0424767
0.0643407
2.79552e-09
4.66237e-05
0.0171543
0.0033426
0.00172487
0.003924
0.00682
0.020797
9.58025e-07
0.0249928
0.00614988
2.63844e-09
0.125477
0.04032
0.0152294
1.3271e-06
0.00503369
0.00676927
0.00220415
0.00401806
0.000382084
0.0136712
0.00128711
0.000139363
0.0235707
0.12758
0.00082756
7.37119e-05
0.00357197
0.72401
3.19947e-08
0.000423984
4.51935e-06
4.04478e-05
0.00732727
0.00329921
0.00273882
0.000441028
0.000165554
0.0163304
0.0110292
5.54033e-08
0.00019745
0.001371
2.90491e-08
7.74194e-10
5.23951e-08
3.33654e-08
0.0131018
2.22346e-09
0.0346106
0.00871489
0.00194634
0.0982595
0.326728
6.00574e-05
0.00854166
0.0370033
5.42951e-08
0.0527599
1.75444e-07
2.15677e-08
4.74409e-05
0.00426245
0.119916
0.0288843
0.00624604
2.68372e-06
0.0877055
0.144755
0.0284305
0.0278522
0.000527305
0.195472
0.0409368
0.0539722
0.0461566
5.92996e-06
0.000315933
0.0404861
0.00786544
0.00145208
0.027565
0.0260236
1.13946e-06
0.010742
0.000662565
3.20096e-05
0.0346356
0.000259083
0.000654496
0.0109768
0.0403847
0.00135543
0.0213934
0.0194969
0.00721003
3.25482e-06
0.0103611
0.00034304
0.000195019
0.016946
0.0177152
0.0357509
4.67054e-07
0.00189284
4.439e-06
4.08004e-09
0.076621
1.50675e-08
0.135777
5.85203e-05
0.0116896
8.09738e-08
0.0290578
8.0616e-05
0.0427218
1.27904e-09
0.0315531
2.99343e-07
1.79684e-08
8.16536e-07
0.318708
0.000536736
2.92756e-05
0.0410175
9.95578e-08
2.49336e-09
0.209032
0.0694078
8.31106e-05
0.00196483
0.000129475
6.29846e-08
0.0371447
0.00848039
0.178104
1.06276e-09
4.75611e-09
0.000415219
0.00106361
0.000131946
4.22088e-07
0.0621858
0.00723235
2.60727e-08
1.22647e-07
0.0449222
0.0417904
0.00219447
6.86098e-10
3.87765
0.342056
0.190124
1.62391e-08
1.94993e-08
0.0555354
0.000441017
3.93536e-05
0.000587082
0.11587
0.00271513
0.0113384
0.0626358
0.0529062
0.00187375
6.65776e-08
1.1947e-06
1.23518e-08
9.28293e-09
7.56258e-08
8.45699e-10
0.0220858
6.96497e-08
1.83621e-08
3.34155e-07
0.0114517
0.023767
1.05553e-07
5.74865e-07
0.105584
0.0142398
0.00981421
2.67429e-08
6.97939e-09
0.0369138
6.67092e-10
0.00179938
0.00263978
0.00393963
1.23259e-07
1.92329e-10
9.52153e-10
1.51019e-09
0.0148672
1.88326e-08
6.51e-08
0.00103943
5.08551e-09
0.0230018
0.00195001
2.33684e-06
0.0368752
0.36305
0.00251862
0.278893
0.000255444
0.043986
0.207927
8.18395e-05
0.0234871
0.0686493
0.00600619
2.03938e-05
0.0883422
0.752551
0.00992825
4.02129e-08
0.00252885
0.00259948
0.00127886
9.18677e-05
1.90559e-09
1.70028e-10
0.013413
3.8414e-05
0.00266731
3.87377e-06
0.00142105
0.00141066
0.0364141
0.000578478
1.62099e-08
0.0330646
7.94402e-06
0.020493
2.69343e-08
4.94838e-05
0.000199949
1.75667e-06
3.3979e-07
0.0405423
1.44155e-09
0.0100493
0.0630302
1.04245e-08
0.0721648
4.27724e-05
0.0366465
0.000603923
9.97759e-08
2.70418e-05
0.001613
0.0456862
0.00399926
0.00131164
0.160261
0.000201125
0.0040524
9.81616e-07
1.05557e-05
0.492181
0.160995
4.19163e-08
0.239419
0.000859318
0.000161343
0.00981358
0.000213438
0.00119493
0.0234215
0.00933596
0.00224944
0.00490042
0.00196381
0.0451144
8.36904e-08
0.0327681
0.0261845
9.59777e-08
0.00842056
0.26958
0.0281786
2.91534e-07
0.00191679
1.53149e-08
0.0101128
0.224289
2.20102e-08
0.177967
0.339833
0.00133114
0.00493324
1.06612e-06
0.0483069
7.63565e-05
0.00168554
0.00121194
0.000323869
4.2333e-06
0.0448392
0.00712818
6.89885e-10
0.000421439
0.000545468
0.000906124
0.000464492
0.000858541
0.000171004
1.27294e-09
6.8207e-05
0.0225819
4.09553e-07
0.00176915
0.348422
1.73361e-07
3.13918e-08
0.00322342
0.00329369
3.06896e-09
0.000609028
8.47453e-08
1.5669e-08
1.29434e-08
4.47259e-07
4.9983e-06
1.64965e-07
0.000357716
0.0512685
1.59887e-09
5.18713e-07
0.00448301
0.115083
0.00180257
0.00912677
0.0322095
4.76765e-09
0.000295387
4.18126e-09
2.20918e-09
0.000567995
0.147387
0.0421504
5.27539e-09
6.86843e-08
0.0353102
1.80492e-08
0.0228834
4.70599e-08
0.00694989
7.14089e-09
0.00195695
0.0264296
2.55033e-09
7.53062e-07
5.58728e-07
0.00142813
6.2323e-07
2.38189e-08
2.059e-06
0.00443565
0.0535103
0.00436346
0.000601397
0.00106945
4.31085e-08
0.00139162
0.00200481
0.0441771
3.01411e-06
0.00022464
0.00544294
1.20012e-07
9.41567e-06
0.000148873
9.9089e-08
0.00810543
0.00160953
0.00327177
0.0725954
1.38957e-09
0.0233282
0.0602069
0.000121073
7.66611e-05
5.55511e-09
0.0262386
1.9743e-08
1.12162e-06
2.83903e-05
0.0512892
5.47393e-07
0.00237725
2.73856e-05
0.000900853
1.67151e-05
8.02695e-09
3.78031e-06
1.61601e-09
0.0024927
0.000664914
0.309399
3.02048e-08
5.02497e-07
0.00215495
2.6273e-10
4.76671e-05
4.46145e-07
0.0364222
0.000844862
0.0317334
1.36831e-08
0.00140169
0.000167192
6.27105e-05
0.000283704
4.6381e-08
0.00139106
0.024969
0.136284
0.00122065
0.000326498
6.10572e-08
6.73053e-10
2.16998e-08
0.185079
0.0739699
0.00747367
7.57962e-10
0.174776
2.95015e-08
0.21317
0.00318408
7.54521e-07
8.86618e-08
3.3677e-06
6.1165e-07
0.0410429
2.10071e-06
0.000121888
0.321854
0.00671883
7.20059e-05
3.34767e-05
7.03277e-05
5.10241e-05
3.10662e-08
3.31291e-10
0.0254363
0.000440419
8.4277e-09
1.98835e-07
0.000610853
4.55634e-07
0.0015138
0.420463
1.76628e-06
0.00352443
3.83762e-10
0.000382213
2.66186e-07
0.329861
2.82096e-09
0.118379
0.00552229
0.000764947
0.0180435
0.0338754
0.000939735
2.56069e-06
0.000538139
2.28206e-06
0.00459503
5.95827e-08
1.84734e-06
8.49112e-05
2.35852e-06
0.069905
2.72891e-07
0.00715837
0.00833526
2.08943e-09
0.000380994
8.56859e-08
0.000818137
0.000830266
6.80929e-08
0.0180789
0.000244072
5.47376e-07
0.0232123
0.18882
0.00365435
0.0113953
1.49626e-10
0.0461171
8.86409e-06
1.91274e-07
0.0369028
4.8889e-06
0.113119
8.58538e-09
0.151319
0.000729302
1.88108e-09
0.00108004
4.01912e-07
2.67023e-09
0.00307227
0.00100283
0.0100432
8.91451e-09
1.10983e-06
4.57841e-08
0.000874126
5.02609e-05
0.0342081
6.27421e-06
0.000906246
6.73325e-05
0.00115974
3.07675e-05
3.4819e-06
1.06897e-06
0.0182661
0.00968065
0.0181391
0.0357962
0.0438962
0.00027013
0.0474596
7.5247e-10
0.00963249
1.1742e-07
6.35435e-05
0.000451013
0.00665088
0.000414167
0.000542192
0.00204448
1.2429e-09
0.00716243
0.00831123
0.000212262
0.000831914
0.0150538
0.000985113
1.68193e-06
0.0303402
1.358e-07
5.59562e-09
0.00026425
0.074242
0.000985602
6.45941e-07
0.0469535
0.000662443
7.14293e-07
1.30391e-07
0.000594371
2.8844e-06
0.0555315
0.31874
0.000356818
0.000412829
0.0223566
0.00721067
3.31191e-08
1.42283e-08
8.33481e-05
0.00408517
0.0345753
0.0549584
0.0097693
2.7848e-08
0.000320251
0.0413174
2.74677e-05
0.00114795
2.57263
0.0436711
0.121424
0.0508002
0.0211673
1.29628e-09
0.00202361
6.58243e-07
1.56083e-07
1.90261e-07
7.76327e-09
0.00289697
3.80042e-09
2.30618e-09
9.11685e-05
4.90591e-08
6.27668e-09
9.45676e-07
0.00970341
0.0593535
0.0108125
0.00310838
0.0766253
0.262532
5.13531e-09
0.187412
0.000163437
0.392011
0.0131169
1.11042e-07
9.28955e-05
0.00768091
0.260722
1.7035e-09
0.0011755
0.0190209
0.00472711
1.62796e-05
0.025973
1.08559e-06
2.37354e-07
0.0780041
1.0918e-08
0.00814967
1.15557e-07
8.74717e-07
0.00830422
0.00045806
0.00280665
1.14943e-06
0.000387558
0.000656106
4.19272e-07
0.000208013
7.42534e-07
0.0231229
1.43779e-07
1.30222e-07
0.253341
0.0440453
0.000536643
3.29945e-07
6.02992e-09
0.00475085
0.193915
0.00469754
0.0152607
0.217838
0.0201614
1.92456e-09
0.0359116
0.00306082
0.00673762
0.0367764
0.0107103
7.82593e-09
0.191617
1.30466e-09
0.040427
0.00915328
0.010976
1.52872e-08
0.0131684
1.31122e-06
0.00273535
0.00900002
5.06015e-06
3.17962e-10
4.57391e-09
0.00290155
0.0809008
2.31093e-09
0.00419434
0.0213683
9.90993e-05
0.00737764
0.0485759
2.30652e-06
0.000138657
0.000827587
6.13037e-08
0.0102426
1.96045e-06
0.00257715
2.85691e-08
2.41257e-08
0.0121712
5.94251e-09
0.000216596
0.00363949
3.54391e-08
7.82661e-08
0.00449895
0.000545893
0.356107
1.17342e-07
0.253615
1.84014e-06
0.000367337
0.000169373
0.00744708
8.25895e-05
0.0796256
0.00552979
5.48438e-05
0.00107608
0.0672653
7.27637e-07
4.867e-08
0.000422307
0.000781087
0.0418188
1.91988e-07
0.0350397
0.00094378
1.66849e-08
0.230215
9.81747e-09
1.69149e-07
2.31991e-06
0.00293522
0.309352
0.0577374
4.81964e-07
2.33335e-08
1.5604e-09
1.1077e-07
1.06811e-07
6.48088e-07
1.18565e-07
5.67794e-09
6.34759e-08
1.11198e-08
1.83585e-07
0.0633171
0.0375497
2.96227e-09
1.37339e-05
7.06814e-09
7.23866e-08
1.17e-08
0.036805
0.0820993
0.017292
3.90695e-08
1.22821e-08
8.2327e-07
0.00654948
4.03018e-06
1.35108e-07
0.284809
2.71684e-07
3.13336e-06
0.0228719
0.000188248
5.29592e-06
0.00829782
0.0242488
2.93999e-08
0.0032173
0.00454059
1.77478e-08
0.0131578
0.039029
0.0175964
0.00336447
0.0106192
3.6399e-06
1.11445e-07
0.332116
0.010644
0.00320506
0.0633474
0.00677842
0.00175817
0.0211791
0.0100907
0.000697816
0.0154278
0.00105688
0.0101325
3.36361e-06
0.0246219
0.00836248
0.00165255
0.00138167
5.49034e-09
6.11331e-08
4.52297e-08
6.52698e-10
1.76934e-07
0.00927606
0.0134185
1.96264e-08
3.26622e-09
1.77381e-07
1.72568e-05
4.97233e-09
9.95226e-09
8.12537e-07
1.11016e-06
0.00461467
0.000276192
0.0214998
0.245839
1.27649e-07
1.15233e-05
0.0304155
1.08888e-05
4.0482e-09
1.74783e-08
0.230113
5.58197e-07
5.33211e-09
5.01147e-06
0.231831
0.0134893
0.0330173
0.0337557
1.09517e-06
0.0139568
0.000344255
0.000383307
1.95404e-08
0.0117175
4.96352e-06
1.9177e-07
0.0167175
1.03363
0.195633
6.75023e-06
1.37135e-06
0.0166938
0.0199736
0.017596
0.00549066
0.00660695
1.21064e-08
0.000636237
0.000413019
0.0608543
9.93489e-06
0.273506
2.9789e-08
0.00197496
0.0248354
0.0173108
0.0112592
3.25203e-06
0.0059923
3.5533e-08
9.69498e-06
1.09514e-09
1.88819e-08
0.00246584
0.865409
9.93423e-08
5.18328e-09
0.000424346
0.0230549
0.00167697
0.00677902
0.0322483
0.00470387
0.0198452
2.00221e-05
4.45804e-06
0.000204307
0.0293358
0.00553957
0.00329627
1.2067e-06
7.03886e-09
0.000156448
0.0216538
0.00260408
4.54531e-09
0.147798
0.056373
0.00632292
0.00602673
7.55621e-09
0.000194781
0.006729
0.0223888
9.04546e-10
0.000402313
0.0144748
0.00101953
0.2038
0.00456894
0.00773803
0.000244787
0.00326235
0.0202633
0.0352395
8.41318e-05
0.0219999
0.000119057
0.198242
0.000165115
3.90985e-10
0.00249392
0.00737045
0.000412777
0.0111984
0.000463946
0.00100306
0.000489169
0.0398854
0.00356347
5.22682e-05
0.0373589
0.00126677
1.18891e-07
1.10118e-08
0.101404
0.00051718
0.00101417
1.06499
0.0340524
0.0113279
0.000426669
0.0431828
2.25379e-06
3.21407e-06
0.00385619
4.17383e-05
0.00197871
0.00415155
0.00212835
0.00451067
5.98612e-09
0.000218533
0.104312
1.93523e-08
0.0169591
0.00726491
8.01138e-06
0.00387058
0.000137617
4.07316e-08
0.000590631
0.137864
4.84444e-08
5.80917e-09
2.09392e-08
0.147736
0.249393
0.0136034
0.0531205
0.00460197
0.0315408
7.94432e-06
0.00770738
0.0119354
0.0232098
0.00146701
0.116485
0.338048
0.397938
0.0100355
0.00869794
0.0358173
0.156619
0.361451
1.36461e-08
0.173915
0.0483049
1.07465e-08
0.000403555
5.79178e-07
2.89487e-08
3.69374e-08
2.27078e-07
1.88858e-08
0.139038
4.60267e-08
0.00684838
0.00131091
2.23858e-08
0.00372554
7.29263e-06
0.013409
6.54056e-08
0.000607095
6.36097e-06
0.02073
0.000214527
6.40564e-06
0.00407511
0.027362
0.0159516
0.00375427
0.0259041
0.0033401
0.0220452
0.0520374
0.0092947
8.31766e-07
0.00108408
0.000340139
0.0053413
0.0099785
0.000596349
1.15586e-06
5.76517e-05
1.4242e-07
0.00339443
0.0410495
0.000701333
0.32669
0.00235537
0.000351716
1.76872e-08
0.0612999
9.9699e-10
0.00830264
0.0200875
0.00115893
9.52981e-05
0.00179034
0.00654211
0.00176199
0.000812259
0.00649282
0.00582231
0.00253275
2.2373e-05
0.0777847
3.53554e-07
0.0125526
0.0103905
7.88007e-07
8.96761e-10
0.00025888
0.00802821
0.0175812
1.31191e-08
0.00210181
0.0442149
0.000209991
0.00446875
0.084752
1.72791e-09
9.30731e-11
0.00352718
3.94995e-09
0.000106255
0.0114582
2.16352e-05
0.0102952
0.0310516
0.017933
2.99585e-08
0.00143101
8.98344e-05
0.000130064
0.0460903
2.93714e-08
9.77813e-07
0.0102275
0.000532964
9.84192e-07
0.160645
0.000932136
2.89302e-08
4.08664e-08
0.000229193
7.99316e-05
0.00227425
0.0030245
0.0240948
0.24032
2.35412e-10
0.000330737
0.000688288
0.0423578
1.73235e-06
0.0473051
0.0827399
0.000118404
7.38406e-06
1.99795e-05
1.12488e-08
1.5499e-05
2.6846e-05
0.000371914
1.89825e-05
0.000323546
2.59081e-05
0.000650925
0.000342194
0.000562659
0.000129051
1.659e-08
0.026772
0.00952883
6.23087e-06
0.0824558
0.000245322
0.000212228
1.37672e-05
0.00114441
0.000261658
0.0025961
0.000382799
0.00106726
1.92738e-05
2.21511e-08
0.00115308
0.000417415
0.0665917
2.1221e-06
0.0366646
4.88125e-05
0.0351536
8.46401e-05
8.27903e-07
0.000393897
0.0263508
0.00760077
2.51776e-08
0.000294492
1.09943e-05
0.00405619
0.00121629
0.337979
4.54275e-05
2.00981e-06
0.0191797
0.00152173
0.004862
0.0333125
0.0701368
7.02558e-10
0.0187967
0.00373468
0.0491609
5.73149e-09
0.00114085
5.66419e-07
0.0425744
4.94898e-08
3.03962e-09
0.00313673
0.00204014
0.00287313
0.296683
0.0393875
0.02542
0.0338353
0.016307
0.218676
0.042564
0.00496489
0.00456342
0.00466894
0.00056478
0.00957453
0.0372574
0.00147539
0.00137788
0.030773
1.89265e-06
0.00318385
5.18582e-07
0.0171053
2.29934e-06
7.67305e-07
0.00156893
4.13291e-06
0.00583617
2.48042e-08
3.59341e-07
0.0793619
9.73408e-09
7.49555e-08
0.000815429
6.18408e-08
0.00070118
3.53561e-05
0.064859
0.0167328
0.263601
0.00741629
0.00704014
0.0397555
0.547801
1.81838e-10
0.0647872
0.0278715
0.0165177
0.0224774
0.00223537
0.0527366
6.96851e-06
7.40659e-06
8.41094e-07
0.128243
1.08197e-06
1.02152e-07
0.0167186
6.61016e-07
1.60884e-08
0.00516736
2.48871e-06
0.283241
8.13145e-05
3.52278e-05
4.587e-05
5.80428e-05
0.00143626
0.00633433
1.10732e-10
0.0218495
0.000400931
2.13138e-05
0.0947366
6.91418e-08
0.0147767
0.0169961
0.00350249
3.14619e-08
0.0169306
0.00945709
0.000850051
0.00504753
0.0114728
2.91977e-08
2.19118e-08
0.00166072
2.23613e-08
1.43735e-09
2.92254e-09
0.0186052
0.352319
0.00422667
0.00215616
6.87666e-05
0.0470345
0.0431788
0.00398705
0.00239483
0.00875858
0.0195059
0.00260172
3.99287e-09
2.62713e-09
3.87377e-09
0.00679238
1.10976e-07
0.349168
0.000523391
0.000750611
0.00182998
0.00249366
0.0205697
3.17475e-09
0.0590331
0.00239609
0.000363081
1.54476e-06
4.03466e-07
1.60664e-07
0.476305
0.000306462
0.000574298
0.000853524
0.00958554
0.203554
3.15628e-07
3.19255e-07
5.00439e-07
0.00367813
0.0168714
0.0190551
0.0329998
0.00170811
0.00333223
3.54932e-06
4.679e-10
0.000189533
3.81171e-07
0.164226
0.0210736
2.37381e-07
1.24797e-06
1.88921e-05
0.0603921
0.0296272
1.83491e-05
0.013075
0.0901731
0.000941141
0.391806
0.0466047
2.58853e-05
0.0216192
0.17218
0.0185657
1.03495e-05
0.00481095
1.52728e-08
0.0136576
0.001699
0.0231761
1.14254e-05
0.000375875
1.1683e-09
0.0230284
9.9371e-09
2.82317e-05
0.379354
1.20695e-07
0.00573141
0.00118076
3.73942e-07
4.12301e-08
0.00196708
4.17212e-07
1.15719e-07
0.0123566
0.000137303
1.33401e-08
0.0231815
0.0438858
0.0161519
2.67817e-10
2.03508e-09
0.000560373
0.00256084
0.00300764
4.31551e-09
9.84639e-08
0.000131496
0.00373216
0.0018469
0.0124557
0.363507
9.40561e-10
0.140222
0.0112457
0.00617743
0.0553465
1.07973e-06
2.1233e-08
0.0227121
7.76898e-10
0.0295087
0.004973
0.00554785
1.09676e-06
9.3202e-09
4.10276e-09
1.62371e-08
2.03048e-05
0.132468
0.210413
0.0021728
2.50704e-06
1.76388e-10
0.0555129
0.223142
0.0334184
0.109908
1.4583e-07
0.00095884
0.000243624
2.38818e-07
1.2963e-08
0.00366528
0.0062772
3.61235e-08
1.10182e-05
0.0027838
0.0597003
0.203072
0.00108753
2.00951
9.74028e-09
3.66977e-07
0.0112852
0.000691262
3.33354e-05
0.637555
0.000580025
0.00612446
8.23254e-09
8.77849e-08
1.26013e-05
0.0580011
0.00806048
0.176137
2.02475e-08
0.0239168
0.0182651
0.830479
1.10578e-08
1.4043e-09
1.09112e-07
3.51378e-08
0.00645273
0.000321842
1.02141e-08
0.0371451
0.0178918
0.1585
0.00466752
2.96243e-06
1.64319e-06
0.0275658
1.31227e-05
3.15819e-08
2.33877e-08
1.47353e-08
0.0207194
9.56751e-06
0.0573168
0.0554822
0.0247927
0.0116005
5.96433e-09
2.26362e-09
2.46493e-08
0.0146779
0.000247717
2.00377e-07
3.5451e-08
3.53274e-09
0.021841
0.00232024
0.0106387
0.0401977
0.00194003
0.308896
0.00463508
4.36893e-07
4.54354e-10
2.58767e-07
0.0532237
7.43103e-10
0.0185849
1.40159e-08
0.0146182
4.46756e-05
0.00155743
0.000144275
0.00234395
4.12576e-09
1.53722e-08
0.365369
0.158662
3.48533e-05
0.00367958
4.20884e-07
0.000451546
9.60369e-05
2.98879e-06
3.28564e-06
0.000297208
7.82784e-08
0.00100683
0.038982
0.0338423
2.03798e-07
8.28009e-05
9.0272e-07
0.0339282
0.180282
0.000150396
9.67757e-10
0.00936197
3.37972e-07
0.00271891
0.0176489
0.00135758
1.1246e-08
0.000879825
0.000516034
0.000133821
0.00417982
0.00012183
0.00164148
5.32665e-06
1.23518e-09
0.000156667
0.00546875
0.000291835
6.58516e-07
9.58571e-06
0.000121822
0.547333
9.31251e-09
2.77751e-08
3.51114e-08
3.78551e-10
1.26895e-07
0.0215342
0.000577973
0.00110225
0.00010508
0.000203777
0.00143011
2.68431e-10
0.0052958
6.85381e-09
5.35733e-07
6.71673e-09
2.62233e-05
0.00203833
1.52917e-05
1.11226e-07
1.38983e-08
0.0138539
1.2306e-07
7.69312e-09
0.154901
9.18069e-06
0.0701915
0.118553
0.532193
8.50177e-09
0.192413
1.09757
1.11609
0.616966
2.1558e-09
4.88363e-10
0.00461638
0.00436511
6.77409e-05
0.00949073
0.0418113
0.030388
3.25703e-05
4.43344e-06
0.00123004
3.34116e-08
1.31102e-09
0.000122361
0.000407863
0.0259809
8.87771e-09
0.116717
0.000125661
3.35056e-07
0.000109483
0.0077451
0.00151706
2.25122e-06
0.00743926
6.43003e-09
0.00329084
0.00215756
0.00691548
5.79123e-08
0.00174599
0.00536794
1.05873e-05
0.00321612
8.47187e-08
0.0303156
5.64506e-05
0.00915313
8.58439e-07
0.191214
5.57673e-08
8.45326e-07
2.67755e-08
0.116779
0.119856
2.06116e-06
0.0113097
0.00862922
0.0548288
3.15074e-08
0.0303795
0.016121
0.172869
1.2732e-06
0.193493
0.0234207
0.043113
0.00359939
1.59436e-07
0.0535656
1.69162e-06
0.212147
1.75476e-09
0.00239555
0.00395234
1.11252e-07
5.39362e-05
1.25911e-06
0.0190852
7.99765e-09
0.0396302
2.86702e-07
9.96246e-06
1.09547e-06
5.2781e-07
0.000253126
0.00183978
0.125699
4.92102e-06
0.000244229
0.0382216
1.32815e-06
0.0428175
7.61249e-07
3.37298e-06
2.51625e-06
0.00544725
2.00954e-10
4.73209e-09
9.58841e-10
0.00302312
5.60049e-08
0.0666151
2.19914e-05
0.00301327
3.87437e-09
0.00563382
0.333201
0.00502437
0.00511718
0.0245688
1.23642e-05
1.99865e-07
7.95638e-08
0.00291276
0.00163039
2.71165e-06
0.000540384
0.000559077
4.70746e-08
2.88018e-08
0.309768
6.86014e-08
0.0202106
4.06684e-08
0.00218288
0.00305887
1.98939e-07
1.17805e-09
0.0455084
7.1314e-09
2.26905e-09
0.0170173
0.0562128
0.00430231
2.22326e-06
1.79887e-08
0.0063456
5.28154e-06
0.0117068
5.92683e-06
8.21785e-09
0.00216336
6.7333e-05
0.129414
3.79692e-09
5.34068e-09
4.84379e-09
0.00310106
0.164277
9.45299e-07
1.54842e-08
7.50491e-06
0.00142841
2.00722e-08
0.0179333
0.0284882
4.10762e-08
6.60487e-09
0.00659853
2.38823e-07
2.069e-05
1.60823e-09
2.52406e-05
8.96366e-09
0.0627128
0.000346706
1.34058e-07
5.61249e-09
0.0683922
3.06447e-08
0.0562508
2.44413e-07
5.01033e-08
9.65275e-06
0.006869
0.0462458
0.00782219
0.0497071
0.0604006
0.535477
0.0024909
0.0402006
1.07777e-05
1.62521e-08
0.00223824
0.139087
0.0368561
0.0420216
1.15732e-08
0.00672236
1.64457e-08
0.00441959
9.84209e-07
0.00886948
0.000168609
0.0524376
5.24408e-07
1.57353e-08
0.0196685
0.000292164
2.42016e-08
0.0246809
0.00029698
1.96878e-06
8.15773e-10
0.0334314
0.00923606
0.00588335
0.00077705
0.00166308
0.0159772
0.000929318
0.00462019
8.67383e-06
0.0260904
0.000125037
0.000454654
3.3548e-09
6.21975e-07
2.78877e-08
0.0094636
8.97281e-08
2.30529e-06
9.11314e-11
0.000397586
0.387811
0.087801
0.00228706
4.69231e-09
0.0038699
0.0544373
0.101804
0.00283274
0.000269345
0.0410895
5.51879e-07
1.21904e-07
2.84339e-09
0.00269257
0.00121626
3.88441e-08
4.59194e-09
0.0022726
1.64756e-07
0.784469
0.0536916
0.0930345
5.39898e-09
1.1246e-08
0.0419032
4.78342e-09
0.0090339
1.03213e-08
0.000642456
2.18873e-08
0.00899047
5.11375e-08
5.3411e-09
0.00107244
0.152966
0.0643689
1.38462e-08
0.0687008
4.26592e-08
0.00390227
0.174149
0.116453
2.39372e-07
0.000498268
3.90968e-09
1.93967e-06
0.000276167
0.0156809
0.000301414
9.58607e-09
0.000626826
0.00309109
0.00483035
0.00760097
3.64806e-07
3.30117e-07
3.36308e-06
6.06427e-07
9.69229e-09
3.31935e-09
0.0741653
0.0370037
1.44197e-08
0.0831579
3.77683e-10
2.03231e-08
0.0690385
5.18932e-09
4.78692e-09
0.0394726
1.91989e-08
9.02998e-10
1.01489
2.08415e-09
1.09233e-09
0.00188233
0.0917034
1.34132e-07
0.0369792
8.80148e-09
0.0210055
0.0495724
6.24801e-06
0.000861246
6.08966e-10
7.21771e-08
1.04046e-06
1.71374e-07
0.316988
0.0449168
0.000263847
3.14989e-08
0.0460894
8.75914e-10
1.95214e-08
2.68115e-09
0.101841
0.00178405
0.000112207
1.31207e-09
1.28196e-06
0.0479485
0.00090033
3.68171e-07
0.000260307
0.107492
0.0848891
3.54644e-05
0.0841613
0.000920451
0.042506
4.17474e-05
0.0649629
0.000341635
0.0291483
1.45628e-06
0.00653191
0.000454936
0.000922164
7.19704e-10
0.00134409
7.47481e-08
0.00387569
0.024017
9.9749e-07
0.00237945
0.000309555
1.73936e-07
0.0100547
9.02337e-08
2.65012e-08
2.83463e-08
4.44497e-08
5.00843e-06
4.36012e-08
4.82161e-08
7.28104e-08
0.263836
4.28937e-05
1.73369e-10
1.732e-09
5.5871e-08
9.95466e-08
0.0299552
0.772314
0.00208673
0.000139415
9.81542e-09
0.00198593
0.00136113
0.0461681
3.18124e-05
1.28374e-05
5.60665e-07
1.07693e-06
2.4223e-06
0.000221356
0.000116312
0.177996
0.0669079
8.17928e-08
0.00102911
0.000297008
1.40117e-08
0.0245649
4.56061e-06
3.82824e-08
1.71829e-06
0.161167
0.0619083
3.29838e-10
0.0244883
1.43272e-08
0.0480241
5.09496e-05
0.0353628
0.0522368
4.57866e-09
6.82772e-09
2.41031e-08
2.4858e-05
0.00572216
0.225574
0.0280403
0.0421979
0.00435934
0.000526448
8.74261e-10
0.000115798
0.135039
0.00131432
9.45765e-05
0.00294068
4.03678e-06
0.0981695
4.88184e-08
0.206296
0.0382053
1.15888e-08
0.000482032
0.00711768
4.01909e-08
0.00995296
1.44548e-08
1.84938e-07
0.197887
0.0294055
5.38008e-08
7.81556e-09
6.81054e-07
2.50739e-09
5.58631e-09
0.000125349
2.42058e-08
5.13216e-10
0.00313087
7.66602e-09
9.73797e-08
2.67897e-07
0.000227506
2.18898e-07
0.000167302
1.04168e-07
4.65004e-08
2.24093e-05
6.55835e-05
0.0034759
0.0425391
8.00651e-05
0.00494255
2.2885e-06
0.316939
0.312369
1.24961e-07
0.00336458
1.71483e-08
0.0451788
0.0378752
0.000401384
0.0890083
0.0682227
7.11897e-06
1.28468e-09
0.00240098
1.13738e-08
1.33426e-09
3.9504e-07
1.56077e-05
6.93319e-09
1.72189e-05
0.0359838
5.10454e-09
2.46585e-08
0.337676
1.5548e-09
0.0170101
8.167e-06
0.00129151
9.88958e-09
0.000439205
0.000144693
0.237301
0.00802197
0.0236049
0.000181343
0.0400638
0.000267066
0.0742458
0.000147244
0.000227161
0.0098058
0.0573916
0.00032227
0.00127012
4.24803e-06
1.71855e-07
0.00107915
0.00023218
0.0164258
0.0119914
0.000148041
1.86971e-06
0.00548658
0.00512722
0.0183251
1.9633e-09
0.0122072
0.0166349
0.00268719
0.00146002
0.00122918
0.00325637
0.0190094
0.0402359
0.00719189
0.0109968
0.0079531
8.97037e-05
0.00285973
0.00362031
0.00104955
0.0026979
0.0142346
0.013648
0.0196249
0.000120866
0.0109321
0.000417623
0.00498146
0.00279518
0.000368338
0.00238875
0.000201512
0.0746226
0.00395628
0.00120559
0.000140934
0.000725009
0.016064
0.0023964
0.2059
0.00346448
8.51311e-10
0.229564
0.044396
0.0222242
0.00701271
0.020144
0.00039987
0.00867284
0.459025
0.00209251
0.00141076
0.00244507
0.173492
0.00120557
0.0740171
7.37405e-05
7.67793e-08
1.29022e-08
0.00217536
0.00604023
0.0118253
0.0706558
0.00700878
0.0610171
0.0549973
0.0659051
2.80814e-08
0.00740939
0.00269677
0.0263607
1.05342e-06
0.0062975
9.11871e-08
0.22319
0.0114678
0.00733826
0.219102
5.23147e-09
8.91306e-08
0.00213944
0.000108388
0.000745636
1.54582e-07
0.00655127
0.000946755
0.0794509
9.2206e-07
0.0219503
0.003084
0.000348018
0.000128053
0.0023968
0.00136634
2.38999e-07
0.00180734
5.28474e-05
9.77542e-09
0.266773
0.00374443