/*--------------------------------*- C++ -*----------------------------------*\
  =========                 |
  \\      /  F ield         | OpenFOAM: The Open Source CFD Toolbox
   \\    /   O peration     | Website:  https://openfoam.org
    \\  /    A nd           | Version:  10
     \\/     M anipulation  |
\*---------------------------------------------------------------------------*/
FoamFile
{
    format      ascii;
    class       volScalarField;
    location    "14.5";
    object      SgT;
}
// * * * * * * * * * * * * * * * * * * * * * * * * * * * * * * * * * * * * * //

dimensions      [1 -1 -3 -1 0 0 0];

internalField   nonuniform List<scalar> 
111485
(
1.90168e-15
0.0079308
0.023928
2.39266e-16
0.0488826
1.73272e-16
0.0460633
0.00614984
0.0189393
0.00121474
0.0464331
0.009392
0.00475287
0.000794153
0.00648597
0.0305922
0.00141083
2.61324
0.0103408
2.75247e-14
2.44413e-15
8.2495e-16
0.026522
0.0347748
0.00857772
1.4898e-15
0.0396251
0.0017562
0.0156212
5.45587e-16
0.0443205
0.0193482
1.46784e-14
2.10609e-16
0.00672838
5.44304e-15
0.01055
0.00421013
4.01783e-08
0.0239389
4.16661e-16
0.0710073
0.015848
0.00150717
6.08219e-05
8.72409e-14
0.0299504
0.00071335
0.047578
7.25107e-15
3.80025e-15
1.38593e-14
1.24766e-14
0.0508592
1.87698e-14
0.04358
0.00311828
4.80046e-16
2.09401e-05
0.00479852
0.0160816
5.67239e-15
0.00472098
0.0964575
2.26626e-15
0.00319272
0.314935
0.0944501
0.00109381
0.00600241
1.62872e-05
0.00651105
1.09395e-14
0.0028623
5.02839e-14
0.000704285
2.60221e-16
0.0412352
1.83829e-15
2.00841e-14
1.82369e-06
0.0337974
1.36292e-15
8.5964e-16
0.00922865
0.00390693
3.52815e-10
0.0252157
5.85555e-05
0.00739627
0.000285126
0.0405124
0.0117699
5.73997e-05
0.0524311
1.76132e-15
2.38489e-15
0.00179106
2.75815e-08
0.00115906
1.49948e-14
0.0180777
6.09032e-16
0.0182067
0.00463839
2.17148e-15
5.49797e-16
0.00757658
0.00406244
6.12877e-08
0.00538173
0.0047264
0.00372582
0.003176
6.17969e-15
3.34171e-05
3.51019e-15
3.16883e-15
0.0127472
1.82384e-15
5.67572e-15
3.48918e-15
3.44795e-15
6.95951e-16
0.001535
2.98485e-06
3.5616e-15
0.00168198
1.43994e-15
2.92889e-05
0.00143976
0.032558
1.76792e-14
1.87305e-14
9.78615e-15
0.0484654
6.93475e-15
0.0425474
0.0252447
0.00270382
0.000243508
0.00200219
0.0224856
0.00270652
0.00395313
0.013037
2.22648e-15
2.21998e-15
3.44875e-15
0.0280262
0.00157865
3.17203e-15
2.25507e-07
0.00479253
4.63406e-07
0.0107562
0.0162926
0.0105818
6.43539e-08
6.36525e-15
1.66301e-15
0.0523016
0.0229825
1.77182e-06
3.3598e-07
0.00578957
0.00346345
2.39577e-16
4.34131e-06
4.60407e-05
3.54301e-16
3.19256e-15
0.000128832
2.82346e-16
0.00553141
0.00209244
1.30337e-17
6.09587e-15
5.39194e-16
2.85324e-15
3.82815e-15
5.89456e-15
0.0014971
0.00679046
0.0296788
0.00413413
0.00754993
0.00399095
8.0054e-05
1.2208e-15
0.00478795
2.71156e-15
1.72567e-15
0.00648532
0.0104723
0.0280972
0.0112104
0.00503689
1.55707e-14
0.00666003
0.000520255
4.24728e-05
0.0140541
0.00231783
1.71753e-14
0.00376106
0.0255094
3.71397e-14
0.000166908
0.00775325
0.00204507
0.000362695
2.08764e-14
8.32953e-15
0.00823518
9.99261e-12
0.119921
1.03905e-15
0.00662839
0.0204121
0.119457
1.5694e-14
0.00322915
0.0136836
1.81506e-13
3.34998e-16
7.45363e-16
0.152545
2.73665e-07
3.30053e-16
6.79157e-15
0.00943011
0.00777473
0.0148299
1.60613e-15
2.23709e-14
1.25527e-05
1.39066e-14
0.00243844
0.00945738
0.0165323
0.0116177
0.00960106
2.44685e-15
2.53238e-07
0.000627124
4.18498e-15
3.97369e-15
0.0309253
0.020613
1.0884e-15
0.00642045
0.0106862
1.32004e-15
2.62097e-14
0.000115954
1.09976e-14
3.00919e-14
4.43103e-05
5.3454e-15
0.0149127
0.0108373
0.00366649
8.72572e-14
0.0118423
1.51438e-16
3.15072e-15
1.13456e-14
1.87679e-08
0.0227927
0.00613379
0.00539752
0.0365245
0.0122357
0.00159044
0.000571867
0.0326555
0.00887123
3.54812e-17
1.2718e-14
2.47147e-07
0.0226302
0.0244628
0.0119529
1.17166e-15
0.00698085
0.00204541
0.00299882
1.91423e-06
3.66215e-06
0.0137065
0.00217732
0.001925
5.16201e-16
0.000661225
1.81454e-15
1.80641e-07
3.21478e-13
0.240292
0.068244
0.0119264
1.82309e-15
2.21914e-15
0.00897711
0.00171896
1.15362e-14
1.03635e-14
4.98501e-15
0.000295276
0.0573158
0.00394354
0.0136912
0.0192659
8.17354e-16
1.63471e-15
3.1986e-15
0.00378732
1.64256e-12
0.000826851
0.185494
3.15655e-07
9.23423e-17
2.59118e-15
1.41296e-15
1.73286e-14
0.0598345
0.0119318
5.25917e-16
0.0052261
8.04308e-15
3.86423e-14
0.0668595
0.00589155
0.0114055
0.00925585
6.92378e-15
1.43938e-14
1.76861e-15
0.00940382
0.0187881
0.00474844
5.48422e-15
3.23947e-10
0.000162698
0.00219897
0.00802193
3.47004e-05
0.0284939
1.89503e-15
0.0375819
0.00353146
0.0077895
0.025185
0.0134138
2.49744e-15
1.81021e-14
7.46293e-15
1.71142e-16
0.0314259
0.00972534
0.0332115
0.0673641
1.94664e-15
0.018645
7.51859e-16
7.81862e-15
0.0165283
5.50495e-15
0.0764343
2.63198e-14
5.88948e-16
0.0229457
3.9244e-16
0.0136161
0.000290846
1.07905e-15
0.00100379
0.0164717
5.60242e-16
0.00885007
0.00928158
0.00811281
0.000672445
0.00273158
0.00555442
6.99799e-15
4.96231e-15
0.00193905
1.6889e-17
0.00621399
0.116432
3.32022e-15
7.9182e-15
0.0274158
0.00011078
0.00824424
0.0205804
1.04914e-15
0.0464968
0.0187765
6.62308e-16
0.000829194
0.00243853
4.62462e-15
3.20713e-15
0.0109813
0.00520088
7.90179e-16
2.1777e-15
3.48027e-08
5.66457e-15
0.0122139
4.96363e-16
3.58771e-16
0.0168402
1.64565e-06
0.0124321
0.0296094
1.87177e-15
8.9889e-15
0.00148001
1.1053e-14
0.000159629
0.0141722
0.121868
0.843698
3.36105e-16
0.00275544
0.000509423
9.16739e-15
0.0386749
0.0312885
7.88998e-14
7.32868e-09
9.09691e-05
5.04171e-15
0.0239627
0.0242664
0.0139432
3.43724e-15
0.000663357
0.0171111
0.0229446
8.21796e-07
1.7443e-14
6.16024e-10
4.60756e-15
1.21134e-05
0.0313808
1.16076e-16
0.00840687
9.84856e-05
6.16642e-14
3.56335e-15
3.95421e-14
1.35631e-14
0.00368742
0.00960238
0.00641959
0.00211364
0.00269377
4.25502e-15
0.00200414
1.72739e-15
0.0405568
8.42426e-16
1.72936e-15
6.44284e-15
0.0366683
1.20329e-15
9.54732e-16
1.64569e-07
4.07118e-15
4.67674e-16
0.0010561
1.56866e-15
2.23896e-14
1.5003e-15
8.62793e-15
9.01967e-15
2.3324e-15
3.37454e-15
0.00703526
3.02927e-15
0.000519459
0.00192114
0.000886501
2.19013e-15
0.000873066
2.29434e-15
4.86738e-16
0.0027707
0.00179436
0.0272368
0.0247419
3.41273e-15
0.00203365
0.0813781
0.0084705
0.0010209
0.00324778
4.15636e-15
0.0233949
2.02201e-14
0.00497953
8.8417e-16
0.0755776
1.59825e-15
0.0209495
0.000242706
4.80524e-07
1.74023e-15
0.00199114
1.54674e-15
0.0801828
0.0484996
1.34597e-16
4.74026e-16
3.71743e-15
1.30251e-16
1.37794e-09
0.0549073
1.27608e-15
2.26221e-16
0.0024975
6.23589e-16
0.0335904
3.55014e-15
0.000324507
1.41113e-15
0.000483022
1.13306e-06
0.00101446
0.0125429
5.84586e-15
0.000411721
6.82708e-15
6.29279e-17
0.0149874
1.73209e-16
3.0076e-05
3.82575e-15
0.00162962
5.48072e-15
0.0643391
5.69828e-15
1.49295e-14
0.0171095
0.00327955
0.0017232
0.00390861
0.00680955
0.020796
1.14908e-15
0.0249719
0.0061162
3.03262e-15
7.63737e-08
0.040253
0.0151865
8.46549e-15
0.00386407
0.00673775
0.00174438
0.00101984
1.97287e-10
0.0136671
0.0012018
0.000128494
0.0235494
0.0137569
0.000617259
7.1402e-15
3.23597e-09
0.647699
1.22825e-16
0.000358976
7.07646e-17
4.0961e-14
0.00732691
0.00278724
2.21737e-07
1.58174e-05
4.29352e-15
0.0163043
0.0110268
1.11646e-15
1.94796e-10
0.00136758
1.40612e-14
2.58658e-15
7.47849e-16
6.31791e-15
0.0130919
2.0525e-15
3.04941e-14
0.0087023
0.00192155
1.07595e-13
0.010486
8.80042e-16
0.00853872
5.948e-15
1.79768e-15
0.0527414
6.48417e-16
2.59188e-15
9.85456e-15
0.00423912
1.02972e-14
0.0288585
0.00624588
4.38796e-16
0.0876761
0.00239213
0.0284235
0.027825
0.000458029
7.66272e-05
1.52103e-16
0.0539695
0.0461393
5.86491e-15
0.000313581
0.0404802
0.00786435
0.00142067
0.0275609
0.0260214
1.6794e-14
0.0107377
6.31967e-06
2.70918e-15
0.0346314
0.000254256
4.81629e-14
0.0109763
0.0403842
0.00133787
0.0213904
0.0194806
0.00720701
5.77401e-15
0.0103578
0.000311858
3.53042e-12
0.0169335
0.0176971
0.0357478
6.37312e-16
0.00184908
5.37972e-15
1.50663e-15
2.76349e-15
3.42195e-15
1.39143e-05
4.88161e-15
3.01901e-10
1.93988e-14
1.15388e-15
7.91861e-05
0.0427105
2.22642e-14
0.0315455
3.59056e-15
1.90916e-14
2.52749e-14
0.0387749
0.000408577
1.74161e-14
1.24494e-13
7.23263e-16
2.45354e-15
0.209029
0.069406
3.58666e-15
0.00196429
2.06967e-06
8.89401e-16
0.0371374
0.00835677
0.0115973
5.80387e-16
6.15139e-15
0.000411954
0.00106279
2.18948e-14
3.94709e-15
5.43876e-15
0.00723119
1.09252e-14
3.55344e-15
9.87333e-15
0.041784
0.00205643
8.53885e-16
3.87265
0.341016
0.00977036
4.633e-17
3.8931e-15
0.0555318
0.000418274
2.92544e-16
5.1474e-06
0.115541
0.00246116
0.0113336
4.14328e-15
0.05288
0.00187294
5.3634e-16
1.31598e-14
8.0552e-16
1.65601e-15
7.65639e-16
1.35452e-15
0.0220822
7.09929e-16
1.12661e-15
1.1499e-14
0.0114515
0.0237654
5.19549e-15
5.54913e-15
0.105584
0.014225
0.0097978
6.87062e-15
6.11534e-16
0.036892
7.95592e-16
0.00171017
0.00263766
0.00393451
8.21524e-15
2.51918e-15
2.58994e-15
8.99297e-16
0.0148519
1.72182e-15
2.58358e-15
0.00101865
1.18432e-14
0.0229881
0.00186762
4.38371e-15
0.0368735
0.362527
0.00251405
0.029189
0.000145835
0.0439778
8.41094e-11
5.1653e-15
0.0234811
0.0686213
0.00600524
2.17645e-15
5.0997e-10
0.751854
0.00992764
2.69312e-15
0.00251621
0.00252103
0.00118105
2.99511e-14
3.58529e-17
5.7445e-14
0.0134117
4.37597e-17
0.002658
3.80095e-16
0.00122171
0.00140734
0.0363848
0.000578332
1.53132e-15
5.92507e-15
3.59201e-15
0.0204927
5.38802e-16
2.05312e-16
6.94988e-05
2.51336e-16
4.26809e-16
1.95199e-15
5.48706e-16
0.0100224
1.99102e-14
1.04863e-15
4.54813e-10
1.193e-15
7.10305e-16
1.75309e-14
1.6868e-15
3.03641e-06
0.00159118
5.69315e-15
0.00394258
6.59579e-06
3.04032e-07
6.06072e-05
0.00404126
4.24119e-16
9.18193e-06
0.010071
0.000390778
3.29089e-16
3.96609e-09
0.000845606
8.95676e-15
0.00978888
0.000191649
1.64248e-06
0.0233827
0.0093222
0.00224267
0.00490029
0.00196205
1.79217e-15
5.2521e-15
0.0327136
0.026157
1.62124e-15
0.00841668
0.0542396
0.0281743
3.03374e-14
0.00128496
1.3536e-16
0.0101089
0.0138419
1.08485e-14
0.00158011
0.000444227
1.20698e-06
0.00491576
4.99427e-16
0.0483032
1.49833e-05
0.00146115
3.08615e-05
1.25409e-05
5.90428e-16
1.29923e-15
0.00701852
4.46657e-16
0.000118694
0.000252455
0.0002987
5.53278e-08
6.98472e-08
2.64543e-07
3.5103e-16
9.5626e-15
0.0225809
2.68021e-14
0.000101139
0.00200976
1.62389e-15
2.88172e-15
6.42028e-07
8.89836e-10
9.79173e-16
5.00914e-06
5.24592e-15
1.092e-15
1.16837e-14
1.01846e-15
5.34234e-14
1.35758e-14
0.000280856
9.8926e-15
2.12127e-16
2.06709e-15
6.43697e-06
5.01753e-05
0.00172948
0.009126
2.35799e-16
1.36005e-15
0.000163453
1.78606e-15
4.89759e-15
2.18762e-13
0.0185954
0.0421478
1.51228e-15
2.0893e-15
1.30867e-14
6.70902e-15
1.37807e-16
2.98482e-15
0.00684725
2.87855e-15
5.20001e-08
0.0264264
7.04062e-16
9.33637e-15
7.16566e-15
2.76752e-05
1.56387e-14
2.07062e-15
6.44119e-16
9.30264e-06
4.67371e-16
0.00429204
9.29392e-07
5.71783e-09
1.06894e-15
7.5106e-05
0.00199467
0.0441768
7.21446e-15
8.4841e-06
0.00542063
4.5177e-15
3.70387e-16
9.81731e-14
1.36108e-15
0.0081041
0.0016088
0.00325564
1.75521e-07
5.19992e-16
0.0233274
9.19848e-15
6.00953e-15
9.41163e-14
1.40172e-15
0.0262378
2.59718e-15
2.36346e-14
1.64755e-06
0.0512362
2.29582e-14
0.00234741
5.62111e-15
0.000818917
1.66486e-14
1.8777e-15
1.6456e-15
4.55331e-15
0.0024922
0.000599676
0.309216
3.89011e-16
7.58925e-15
0.00215066
2.89696e-15
1.73996e-14
1.69056e-15
0.0363506
9.47067e-06
0.0316589
2.35037e-15
1.07096e-05
4.88313e-05
7.04409e-15
0.00012574
3.00283e-15
0.00122973
0.0249663
0.019998
0.00118637
0.000230541
8.59359e-15
1.22813e-15
1.07908e-15
2.17602e-05
3.99002e-16
0.00742947
7.53433e-15
0.174635
6.278e-16
0.0413205
0.00302648
2.09239e-14
4.04598e-16
2.84581e-15
8.4585e-16
0.0409543
2.10912e-14
1.01023e-13
0.0117301
0.00671473
6.71163e-15
4.1575e-14
1.16472e-14
6.65432e-15
2.3104e-14
8.17668e-16
0.0254335
0.000405961
6.97299e-15
1.56173e-15
5.2297e-07
3.81291e-15
0.00151247
0.00010733
1.31494e-15
0.00345682
9.08596e-16
0.000378953
9.63396e-16
0.00108523
7.26982e-15
7.27664e-08
2.12121e-06
0.000629643
0.0180262
0.0338601
1.17226e-06
1.17577e-15
0.000534281
2.46631e-15
0.00459406
2.8439e-15
2.12923e-15
4.02014e-14
1.57692e-15
2.50064e-15
2.86525e-15
0.00715401
0.00803002
1.6829e-15
9.0191e-14
1.1082e-14
0.000779
1.29203e-05
1.25516e-14
0.0180769
0.000175305
2.07711e-14
0.0232031
0.00803852
0.00365355
0.0113855
3.75535e-16
1.38057e-15
1.10132e-15
1.1123e-16
0.0369026
3.05158e-16
0.113111
1.66755e-16
0.000310067
0.000727804
3.15504e-16
0.000954562
8.21967e-16
1.62199e-16
0.00302687
2.30289e-08
0.00915802
1.54374e-15
4.5069e-15
2.19411e-15
0.000825628
3.05864e-15
9.09637e-15
1.8208e-15
2.86542e-07
8.86678e-15
6.83648e-06
7.05228e-15
1.03668e-14
9.91967e-15
0.0182656
0.00962948
0.0181371
0.035789
1.16738e-14
1.53381e-05
2.36642e-16
5.30513e-16
0.00962467
1.22408e-15
2.2464e-06
0.000349296
0.00663917
0.000365587
1.08694e-09
0.00189584
3.03018e-16
1.22082e-09
3.60898e-10
0.000125754
0.00078546
0.015053
5.85965e-08
5.4078e-15
0.0303373
5.54487e-15
2.76772e-15
1.35934e-05
0.0742323
5.39095e-08
3.77644e-16
9.36894e-16
3.33174e-07
2.64538e-15
3.67474e-16
1.75947e-05
5.73762e-14
1.22605e-14
0.0396511
0.000226455
0.000177483
0.022355
0.00721015
8.9356e-15
2.01311e-16
2.08125e-05
0.00408022
1.30732e-15
3.23612e-14
0.0097382
3.99721e-15
5.85743e-14
1.03567e-14
1.77659e-14
1.3216e-13
2.57005
1.98084e-16
0.000211071
4.81041e-16
0.0210445
1.18461e-15
8.01329e-13
1.70312e-14
5.32516e-15
3.91002e-15
5.59248e-16
0.00286865
1.95993e-15
1.56531e-15
2.37274e-14
1.10358e-15
1.65642e-15
1.9508e-15
0.00970284
2.561e-15
0.0108062
0.00307782
1.44429e-15
0.00149584
1.70312e-15
0.000503269
2.02053e-06
0.00384963
0.0131165
1.70765e-15
9.28264e-05
0.00763656
9.13135e-06
9.53975e-15
2.83507e-06
0.0190208
0.00472327
3.2937e-15
0.0259654
3.42288e-15
1.40616e-15
1.28291e-14
6.97086e-15
0.00814273
1.80661e-15
8.33038e-16
0.00830252
3.39354e-07
0.00268775
3.03357e-16
1.41072e-13
0.000634643
9.70216e-16
6.73879e-05
1.10682e-14
0.0230984
1.62156e-15
4.81073e-16
5.21513e-05
8.32823e-15
0.000136454
1.02852e-14
7.60737e-16
0.0047468
0.000438059
0.00469727
0.0152492
0.217838
0.0201585
1.97538e-15
1.14831e-14
0.00295096
0.00673689
0.0367759
0.0106927
1.12177e-15
0.0123774
1.25378e-15
5.67254e-15
0.00907461
0.0109708
7.19851e-15
0.0131651
6.24122e-16
0.00273432
0.00899657
1.01218e-14
1.02684e-15
7.3272e-17
0.00280557
2.27821e-15
1.16031e-15
0.00416029
0.0213631
3.69993e-06
0.00737726
4.14386e-15
1.20756e-15
8.65506e-05
0.000772179
5.95818e-15
0.0101843
1.42682e-14
0.00255997
1.37208e-15
2.15349e-15
0.0121606
4.92735e-17
3.75338e-05
0.00359982
2.42575e-15
1.11526e-15
0.00436487
5.39338e-11
0.0523817
1.23088e-15
0.25361
1.35238e-15
2.90317e-14
6.12997e-14
0.00742013
1.97691e-14
8.51221e-15
0.00552633
1.41953e-14
0.00024686
2.55443e-14
8.38825e-15
9.49457e-15
9.87988e-08
0.000778111
6.13784e-15
2.00711e-15
0.0350328
0.000940279
4.67873e-15
0.000404483
8.54535e-15
9.46558e-15
1.69854e-06
0.00290817
0.00129218
8.64709e-15
5.30572e-15
2.64419e-15
4.08957e-16
8.43612e-15
9.80411e-15
9.81822e-16
1.09253e-15
6.1339e-16
2.75969e-15
3.33899e-16
1.45559e-15
8.43856e-15
3.27802e-15
2.70782e-16
7.99151e-15
3.65407e-15
1.2101e-15
6.39585e-16
1.99343e-15
7.29512e-16
0.0172863
6.10932e-15
1.08191e-15
1.72003e-15
0.00654821
1.86926e-15
2.87045e-15
0.284475
9.6657e-16
8.826e-16
0.0228685
2.59878e-12
4.5172e-16
0.00749905
0.024247
4.24794e-16
0.00272728
0.00409101
4.73351e-15
0.0131346
0.039025
0.0175829
0.00332126
0.010609
5.55081e-15
3.17071e-15
0.00298035
0.0106435
0.00316562
5.94601e-15
0.00665997
0.00174607
0.0211642
0.0100891
0.000695552
0.0154051
0.000990542
0.0100764
3.65327e-14
0.0245771
0.00835512
0.00164869
0.00137955
9.65335e-16
3.48604e-15
3.0023e-15
8.48416e-16
1.43034e-16
0.00927603
0.0134113
1.66055e-15
7.15877e-16
5.02597e-14
6.35389e-16
4.73368e-15
7.91987e-16
4.24937e-15
1.2358e-14
0.00461376
0.000188839
0.0214934
7.01254e-05
1.7086e-16
1.41716e-14
0.0304001
6.79157e-06
1.86595e-15
1.6557e-15
0.00701462
1.29136e-14
1.54891e-15
2.67948e-06
0.00767571
0.0134876
0.0329589
0.0336977
3.03289e-15
0.0139492
0.000335034
9.5628e-15
2.99121e-15
0.011674
1.61096e-16
4.76877e-15
0.0163991
1.03324
0.0001662
1.70602e-14
1.30132e-14
0.0166866
0.0199361
0.0175801
0.00549046
0.00401356
4.94084e-15
9.83103e-07
2.588e-09
3.10171e-14
6.72617e-15
0.016638
1.13689e-15
0.00197482
0.0248304
0.0172857
0.0111868
2.45059e-15
0.00587722
9.70293e-15
2.89676e-15
2.67349e-15
7.97089e-16
0.00246428
0.864926
6.73541e-16
1.9318e-15
3.71375e-06
0.0230547
0.00113411
0.00677561
0.0322464
0.00470241
0.0198447
5.23725e-15
1.81942e-14
1.12023e-14
0.0293351
0.00553145
2.74554e-08
3.68719e-15
4.89115e-15
9.62672e-14
0.0216516
0.0025642
5.60638e-16
0.00476936
0.0562565
0.00625147
0.00602498
2.08926e-15
9.87066e-14
0.00672439
0.0223886
3.20073e-16
0.000337199
0.0144028
0.000939394
0.00910387
0.00456612
0.00773212
4.85332e-14
0.00325259
0.0202563
0.0352368
4.14172e-10
0.0219963
1.7452e-13
0.0159912
0.000150262
1.60659e-14
0.00249228
0.00731835
0.000397768
0.0111981
1.543e-07
0.000127388
1.46775e-05
0.0390116
0.00354645
1.26268e-14
0.037352
0.00124659
4.80681e-15
1.66431e-15
4.11716e-08
1.15144e-05
0.00101131
1.06334
0.0340473
0.0113036
1.98104e-07
0.0431784
5.69295e-15
5.1613e-15
0.00385579
2.87428e-14
0.00194917
0.00400191
0.00210043
0.00451012
6.98392e-15
0.000190624
0.104311
2.17451e-15
0.0166469
0.007262
1.12737e-14
0.00383322
0.00013039
1.06861e-14
6.0559e-09
8.52322e-05
1.0376e-14
1.62358e-15
1.54716e-15
0.00418352
0.00457453
0.013603
2.26472e-14
0.0045966
0.0315208
1.57017e-16
0.0076992
0.0119239
0.0231965
0.00143755
1.51704e-14
0.000498706
0.00876121
0.0100237
0.00866652
0.0358108
0.156612
0.00309973
1.2544e-15
7.27327e-06
0.0483009
4.6405e-15
0.000402827
4.13298e-16
3.08234e-17
2.5648e-15
1.05749e-16
2.79355e-15
0.00311276
5.90553e-16
0.00681992
0.00111661
8.19985e-16
0.00372093
5.91603e-15
0.0134029
6.07291e-15
2.28771e-05
5.18675e-15
0.0207291
0.000146645
2.14464e-06
0.00404458
0.0273575
0.0159504
0.00375377
0.025884
5.31221e-12
0.0219976
0.0520366
0.00928114
2.28314e-14
0.00105942
0.00024472
0.00532939
0.00997629
0.000591004
3.77366e-15
9.27964e-15
2.50979e-15
0.00338633
1.27311e-15
0.000280531
0.00020985
0.00158592
0.000242859
1.65316e-15
9.11509e-15
2.98146e-15
0.0082537
0.0200719
0.00115812
8.67662e-06
0.00178876
0.00654111
0.00171797
0.00081148
0.00649264
0.00580311
0.00253209
5.82806e-16
4.1783e-16
5.72009e-14
0.0125158
0.0103892
6.4351e-15
1.59333e-15
7.95284e-14
0.00793772
0.0175776
1.6159e-14
0.00210109
8.39193e-16
6.15583e-07
0.00445899
0.0847374
2.2596e-15
6.63787e-17
0.00352626
9.88285e-15
5.78405e-05
0.0114578
1.53204e-15
0.0102936
0.0310514
0.0179324
1.16822e-15
0.00138318
1.7291e-16
8.60803e-05
0.0460898
9.11845e-15
2.56462e-15
0.0102252
2.94371e-13
4.47817e-16
4.11068e-05
0.000910844
6.68843e-15
1.00768e-15
6.268e-15
6.72868e-05
0.00114032
0.00302398
0.0239969
0.0081966
4.31934e-15
6.64686e-07
0.000661545
1.07835e-15
5.41192e-16
7.20827e-15
2.05705e-15
9.01041e-15
1.125e-14
8.42362e-15
7.22409e-16
3.57577e-14
2.39696e-15
2.60295e-09
1.10948e-14
0.000316907
6.51756e-14
0.000226445
6.28626e-14
6.11362e-05
8.6556e-14
3.1504e-15
0.0266831
0.008647
3.7868e-14
0.0824519
9.27513e-09
3.87074e-10
1.23405e-15
0.00112588
9.17168e-12
0.00258057
5.63838e-06
0.000822111
2.69896e-15
4.63277e-15
0.0011186
2.29185e-08
2.92051e-15
4.03496e-14
0.0366641
2.65199e-14
0.0351534
9.79435e-15
7.08259e-17
1.70678e-06
0.0263502
0.0075324
4.64071e-15
0.000294393
7.12865e-15
0.00314615
1.77401e-05
0.00169038
4.41436e-06
2.84629e-17
0.0191795
0.00111887
0.00483848
2.99555e-15
8.39629e-16
5.06348e-15
0.0180178
0.00367212
0.0491542
9.11209e-15
4.36709e-07
2.77755e-15
3.18014e-15
1.11368e-14
2.11931e-14
0.00310704
0.00203922
0.00287181
0.296645
1.37007e-13
0.0253999
0.0338351
0.0162261
0.00159477
1.58464e-15
0.00495823
0.0042823
0.00463966
3.1723e-07
0.00957159
2.61166e-15
0.00143738
0.00119321
0.0307728
1.01317e-06
0.00317918
6.04634e-15
0.0170815
1.64276e-15
8.38895e-16
0.0015664
2.01745e-14
0.00573727
7.27227e-15
9.71548e-15
1.34129e-14
8.22674e-15
5.70342e-14
0.000772629
7.1471e-15
0.000523096
1.64392e-15
3.75261e-15
0.0167096
0.00501288
0.00740373
0.00701897
1.28773e-15
0.547643
2.99124e-15
0.0647848
1.82308e-14
0.0165019
0.022399
0.00221861
0.0527364
7.39421e-14
1.35569e-13
2.3232e-15
0.0020438
4.37833e-15
2.08961e-15
0.0167169
3.93864e-15
2.83684e-15
0.00508085
3.77294e-14
0.0117883
6.90694e-08
8.73309e-15
1.37912e-14
1.13626e-14
0.00141985
0.00633144
5.59078e-15
0.0218486
0.000327355
6.68152e-16
0.0947301
9.87612e-15
0.0147655
0.0169948
0.00346275
1.98247e-15
0.0169305
0.00945579
0.000821841
0.00502579
0.0114401
2.31934e-14
4.0509e-15
1.71311e-06
9.21053e-16
5.78748e-15
1.38892e-15
0.0186038
0.0465144
0.00422583
0.00204168
7.25124e-15
0.0470141
0.0431786
0.00398583
0.00217108
0.0087513
0.0195056
0.00256451
1.37094e-15
2.08261e-17
1.35093e-15
0.00669478
7.68422e-16
0.0236164
3.81033e-15
0.000715362
5.33854e-07
0.00249298
0.020553
2.68735e-15
2.7455e-15
0.00238801
0.000356841
2.56992e-15
1.91311e-14
5.12676e-15
3.55021e-05
0.000289744
0.00013951
0.000788164
0.00958419
0.0823969
3.42725e-14
7.23219e-14
1.72832e-14
0.00367743
0.0168358
0.0190546
0.0329756
0.00169059
0.00283363
7.86125e-15
7.49566e-15
8.35975e-14
4.52597e-15
0.00887854
0.0210702
1.60828e-14
1.39482e-14
1.30421e-15
9.51785e-14
2.13114e-14
2.45565e-14
0.0130271
3.71816e-14
0.000937662
0.391781
2.79487e-15
1.34209e-05
0.0216133
0.00071051
6.66177e-16
1.20558e-14
0.00477776
7.00894e-15
0.0136194
9.42621e-07
0.0231659
1.99616e-14
2.72383e-12
6.20638e-15
3.27819e-15
6.32332e-15
3.61099e-14
0.186661
4.36244e-15
0.00571933
0.00117599
1.57697e-15
1.02263e-14
0.00191898
3.57871e-15
1.3829e-15
0.012326
0.000127614
1.21966e-15
3.77074e-15
1.52313e-14
0.0161471
8.30693e-16
1.01239e-15
0.000417334
0.0025469
0.00300233
5.76307e-15
1.85207e-15
2.2305e-14
0.0036631
0.00179975
0.012373
0.00355484
1.22932e-16
0.000749235
0.0112285
0.00617062
1.39913e-15
3.17301e-15
2.22226e-15
3.98368e-14
1.81199e-15
0.029502
0.00496677
0.00554003
6.70867e-15
7.55347e-15
8.38545e-16
1.54204e-14
1.3881e-15
9.78893e-07
0.000204994
0.00214188
1.58313e-15
3.35564e-15
1.91615e-14
2.19859e-09
0.03314
0.109907
1.13853e-15
7.43667e-10
2.35173e-11
2.00428e-15
4.04375e-15
0.00366316
0.00626933
2.21593e-15
2.88168e-14
0.00271496
2.33044e-15
0.000664344
0.00103246
2.00867
3.2901e-16
2.76842e-16
0.0112526
0.000513876
3.58282e-15
0.637121
0.000571928
0.00611001
5.27426e-15
1.7887e-14
5.75064e-14
3.15896e-15
0.00805937
9.04123e-05
2.04302e-14
0.0239046
0.0182628
0.830463
2.1491e-15
1.55572e-15
2.24434e-15
2.97089e-15
0.00645151
6.87881e-08
4.3724e-15
2.81997e-14
0.0178743
0.000783166
0.00466563
1.26943e-15
5.88714e-15
0.0275638
2.41866e-14
1.37378e-16
1.54591e-15
1.58709e-14
0.0207162
5.38688e-15
3.16086e-15
1.80433e-14
0.0247877
0.0115995
9.07478e-16
3.6774e-15
3.24423e-15
0.0146762
1.84594e-07
2.10528e-14
1.44201e-15
2.01046e-14
1.37915e-14
0.00229352
0.0105949
1.15206e-14
0.00193921
0.00105164
0.00462524
3.30533e-13
5.07707e-14
1.53859e-14
1.72181e-14
1.2511e-15
0.0185625
3.35442e-14
0.0139227
3.28774e-15
0.00147407
2.2626e-13
0.00231532
8.65706e-15
7.82539e-15
0.00977397
0.158629
3.03793e-14
0.00344781
7.68243e-15
0.000366374
1.16898e-14
2.37883e-15
4.31065e-15
1.00083e-07
4.55688e-15
0.000302665
3.39114e-16
0.0338409
2.76723e-15
2.53901e-15
6.02114e-15
7.12252e-15
7.48827e-06
0.000128828
3.66029e-16
0.00528454
3.13322e-17
0.00269678
0.0176474
0.00123362
9.41947e-16
4.528e-06
0.000429412
2.09022e-06
0.00415883
3.24717e-07
0.00161137
2.92914e-14
2.01325e-15
4.28612e-07
0.00542225
0.000233708
4.61031e-14
1.0907e-15
6.11984e-15
0.546884
5.36473e-15
9.98036e-15
4.99257e-15
2.62373e-16
4.97424e-15
2.78209e-05
0.000175111
0.000959969
6.4827e-05
1.1249e-12
0.00134768
4.49795e-16
0.00528431
6.24544e-15
5.254e-15
1.01081e-14
1.99882e-14
1.4892e-05
2.7822e-14
3.25133e-15
7.51941e-15
0.0138525
2.0532e-14
8.59965e-15
0.00986776
3.44461e-15
0.0695263
0.117541
0.531469
1.05094e-14
0.191746
1.09682
1.11475
0.616243
1.32754e-14
2.10928e-15
0.00461308
0.00435661
1.56835e-15
0.00917388
2.71452e-16
0.0303797
1.11427e-14
2.58628e-16
0.000675078
1.90065e-15
1.36896e-15
9.97881e-06
3.76663e-05
6.10866e-15
7.2244e-16
2.47031e-06
7.37726e-15
4.14255e-15
1.8531e-05
0.00774018
0.0014283
3.44815e-14
0.00734218
1.1067e-14
0.00328168
4.08964e-07
0.00687919
8.83098e-15
1.35049e-08
0.00532369
2.94447e-14
1.50404e-09
4.05048e-15
0.030308
1.66939e-14
0.00905402
1.00241e-14
1.75898e-07
7.16007e-15
7.22438e-15
3.40936e-15
7.61966e-10
4.75795e-10
8.78852e-15
0.0113079
0.00847431
3.20637e-14
5.9455e-15
0.0303688
0.0161002
0.172856
8.54264e-15
6.49226e-05
0.0234136
0.0430962
5.67008e-08
1.3753e-14
0.0535584
3.82784e-15
0.212145
9.93857e-15
3.63331e-08
3.4525e-08
1.82284e-15
5.3191e-05
1.52672e-14
0.018984
3.74884e-15
1.77012e-15
6.39646e-15
6.62442e-16
6.55247e-15
3.75836e-15
0.000248257
0.00180612
0.125698
1.70721e-14
1.55193e-14
0.03822
2.26062e-15
1.10737e-15
1.27572e-14
3.29898e-15
3.28412e-15
0.00542783
2.57589e-15
1.43255e-15
3.61306e-16
0.0030173
1.87167e-15
5.73401e-16
1.99054e-14
0.00300141
2.91859e-15
0.00560154
0.216892
0.00494509
0.00510344
0.024508
1.75329e-16
1.25993e-14
2.66291e-15
0.00288852
0.00162614
2.95053e-16
2.50919e-14
0.000549516
6.50015e-15
5.75354e-15
0.309766
1.35804e-14
0.0202037
4.81622e-15
0.002171
0.00304277
4.01272e-15
1.25299e-15
1.84786e-14
8.86981e-16
1.89777e-14
0.0169927
2.66839e-14
0.0042822
1.22808e-15
6.17979e-15
0.00633572
2.07486e-15
0.0116847
2.29273e-14
1.60166e-15
0.00216161
6.57788e-05
0.129409
1.01396e-14
4.62095e-16
3.88881e-15
0.00309576
0.16426
4.85531e-15
5.64635e-15
9.75991e-15
0.00137707
6.54833e-15
0.0179086
0.0284878
1.48757e-14
5.60806e-15
0.00655978
2.82128e-14
3.51325e-14
6.01397e-17
6.82316e-14
2.38769e-15
0.0627112
3.82916e-14
5.6465e-15
5.09653e-15
7.63248e-14
3.40427e-15
1.3664e-14
3.55196e-15
3.09112e-15
1.6495e-14
0.00684371
3.14845e-15
0.00776425
9.42918e-14
1.74826e-14
0.535388
0.00247956
3.29713e-14
9.61333e-15
1.01091e-14
0.00219508
8.09853e-15
2.04038e-15
1.91543e-14
8.76732e-15
0.00671199
6.24345e-16
0.00441406
3.78593e-15
0.00886167
3.23673e-15
0.0524305
2.28718e-14
2.14033e-14
0.0196649
3.60113e-15
2.03742e-16
0.0246689
0.000259304
1.27864e-14
6.43648e-15
0.0333692
0.00921014
0.00585776
0.000759474
0.00164683
0.0159749
0.00092189
0.00446898
1.68105e-15
0.0260837
1.93659e-15
2.39451e-15
4.6815e-15
1.15892e-14
7.73399e-15
0.00944371
3.84557e-14
1.85583e-15
1.38583e-14
3.68215e-06
7.85666e-06
1.82694e-14
0.00213994
1.23577e-14
0.00385825
6.82225e-16
1.16334e-06
0.00283027
1.83522e-13
0.0410875
5.40804e-15
1.60271e-14
3.85929e-16
0.00268344
0.00117339
2.95346e-15
1.24104e-14
0.00225501
1.75569e-14
0.609929
5.29423e-15
0.0930228
1.10361e-14
1.90718e-16
1.06416e-15
1.07706e-15
0.00900876
3.93107e-15
3.54926e-05
4.03859e-16
0.00898553
4.10054e-15
6.44561e-15
4.69594e-12
8.33196e-14
6.69497e-15
1.26655e-14
2.62874e-15
1.04718e-14
0.00388886
0.174147
9.23142e-15
4.88151e-15
0.000339316
2.88051e-15
4.76736e-16
1.0177e-06
0.0156792
0.000139338
6.93573e-16
0.000615351
0.00305904
0.00480967
0.0075957
2.12331e-15
6.32782e-15
1.12005e-13
1.63943e-15
3.38169e-16
9.36977e-16
6.0939e-15
1.23782e-14
2.25026e-16
1.05285e-14
3.81771e-15
3.43142e-15
0.0689862
6.66451e-16
1.18325e-15
2.10189e-11
7.83422e-15
1.28224e-14
1.01426
1.69807e-15
1.97256e-15
0.00183221
1.90993e-09
9.75768e-15
1.40884e-14
3.94983e-16
0.0210009
2.66644e-16
1.00886e-14
4.6683e-08
1.13811e-15
1.18206e-14
7.87738e-15
1.26257e-14
0.109322
1.12171e-15
0.000155876
4.21073e-16
2.89867e-15
7.06534e-16
1.82812e-14
1.53834e-15
1.65373e-08
3.12202e-08
0.000103542
7.64367e-15
1.29169e-15
2.06186e-14
8.84739e-08
2.15719e-16
2.76086e-07
9.3255e-09
3.54824e-15
2.32661e-15
1.46564e-14
5.26666e-09
5.77103e-15
5.47564e-15
2.07907e-09
1.5553e-14
0.0291435
3.74808e-15
0.00652962
1.65694e-15
2.14016e-06
1.05005e-14
0.00134034
8.23973e-16
0.00383034
0.0240097
6.77465e-16
0.00237148
1.33623e-05
8.30172e-15
0.0100468
1.90196e-15
2.85274e-15
1.27909e-14
4.5965e-16
1.62976e-14
5.05196e-16
1.62077e-15
4.41521e-15
0.263825
9.06765e-16
1.03655e-14
3.53894e-15
4.44688e-16
1.05394e-14
0.0299541
0.771042
2.9121e-06
1.04603e-05
5.07838e-16
0.00195398
0.00135549
2.15278e-16
1.78769e-15
2.13558e-15
1.82846e-15
3.63704e-15
9.82556e-16
2.91145e-15
3.69885e-15
0.000368473
1.97095e-14
1.67778e-14
0.000207603
3.39088e-06
1.93864e-14
0.0245622
1.53502e-14
8.83001e-15
7.73407e-15
0.161163
5.33636e-14
9.63346e-17
0.0244053
1.42583e-15
1.44319e-15
9.93443e-16
5.88183e-14
0.0522036
3.49545e-15
5.94492e-15
4.02259e-15
2.89337e-16
0.00569823
0.22557
0.0280331
0.0421969
0.00359993
0.000239666
5.28264e-16
3.84664e-15
0.134992
0.0012626
1.12995e-14
8.39966e-08
6.10101e-16
7.70101e-11
2.18608e-14
0.20629
4.72208e-15
1.64016e-15
0.000220882
1.89394e-10
1.44619e-15
0.00985165
1.21113e-15
4.95512e-15
0.197884
0.0294017
5.012e-16
1.61067e-15
4.2275e-15
8.04796e-16
4.66632e-15
8.25165e-15
6.63409e-15
4.10453e-17
0.00310203
4.32937e-15
1.21859e-14
8.62264e-15
1.34184e-05
4.43151e-15
2.28132e-14
3.77796e-15
5.78064e-16
5.66778e-15
6.3419e-15
0.00324621
1.57172e-15
1.39964e-15
0.00490014
1.30285e-14
0.00036537
0.00455337
8.8273e-15
0.00333578
1.74802e-15
1.85631e-15
3.47537e-15
1.58538e-14
6.76332e-15
3.53485e-14
2.84915e-13
7.99875e-15
0.00228668
3.14182e-14
7.35336e-16
5.69899e-15
2.48672e-15
6.44709e-15
4.31861e-15
0.0359507
5.38493e-15
6.92752e-16
0.337667
1.35459e-15
2.08142e-16
2.06308e-15
0.00121726
1.13007e-15
5.68538e-06
1.17165e-15
5.2218e-05
0.00801145
5.93204e-17
1.82286e-14
0.0400435
4.40994e-15
2.29674e-15
0.000120944
6.71022e-07
0.0098044
2.18368e-06
8.34062e-07
1.19569e-07
4.79938e-17
4.22278e-15
0.000983898
0.000127035
0.0164188
0.0119782
3.00784e-05
7.09048e-15
0.00548519
0.00510938
0.018325
1.13366e-14
0.0121947
0.0166329
0.00267728
0.00135593
0.00116838
0.00322173
0.0190057
0.0402205
0.00713694
0.0109948
0.00794205
3.0191e-14
0.00285266
0.00361546
0.000822731
0.00264667
0.0142329
0.0136444
0.0196201
7.27573e-15
0.0109237
9.88218e-14
0.00495346
0.00277933
0.000283613
0.00236327