/*--------------------------------*- C++ -*----------------------------------*\
  =========                 |
  \\      /  F ield         | OpenFOAM: The Open Source CFD Toolbox
   \\    /   O peration     | Website:  https://openfoam.org
    \\  /    A nd           | Version:  10
     \\/     M anipulation  |
\*---------------------------------------------------------------------------*/
FoamFile
{
    format      ascii;
    class       volScalarField;
    location    "14.5";
    object      T;
}
// * * * * * * * * * * * * * * * * * * * * * * * * * * * * * * * * * * * * * //

dimensions      [0 0 0 1 0 0 0];

internalField   nonuniform List<scalar> 
111485
(
303.15
285.101
300.968
303.15
298.408
283.15
298.917
293.405
296.307
286.233
300.51
296.2
300.198
284.566
299.971
286.743
299.342
297.591
294.03
303.15
303.15
283.15
297.235
288.689
301.588
303.15
293.18
300.634
288.83
303.15
300.788
294.343
303.15
283.15
283.448
283.15
302.315
297.58
283.149
296.594
283.15
289.563
297.016
302.875
303.191
303.15
287.357
288.548
289.597
303.15
303.15
283.15
303.15
298.911
303.15
293.481
287.888
283.15
283.32
295.43
295.832
303.15
302.05
300.236
283.15
284.558
300.206
291.525
302.101
302.52
303.159
301.884
303.15
302.101
303.15
295.388
283.15
293.432
283.15
283.15
283.237
293.34
283.15
303.15
300.298
284.219
283.15
301.545
303.116
299.082
283.339
289.581
300.848
300.396
289.776
303.15
303.15
301.546
303.149
283.418
303.15
286.634
283.15
285.159
285.731
283.15
283.15
293.081
301.432
283.147
298.889
288.013
301.275
301.677
303.15
301.966
303.15
283.15
300.125
303.15
303.15
283.15
283.15
283.15
283.391
303.151
283.15
301.799
303.15
283.176
303.1
301.934
303.15
283.15
283.15
292.487
283.15
294.17
298.788
301.095
303.136
296.807
298.969
284.774
302.279
297.773
283.15
303.15
283.15
297.124
284.936
303.15
303.144
287.289
283.156
293.696
295.617
302.523
283.154
303.15
303.15
292.161
286.236
283.153
283.157
301.171
283.687
283.15
283.152
283.152
283.15
303.15
283.208
283.15
291.54
287.166
283.15
303.15
303.15
283.15
303.15
303.15
297.636
293.476
295.764
289.713
301.358
300.403
283.191
303.15
301.433
303.15
303.15
300.14
286.261
301.392
301.333
295.717
303.15
300.866
284.595
283.16
300.749
297.073
303.15
300.397
288.202
303.15
283.226
300.169
284.812
300.673
303.15
303.15
300.688
283.15
292.763
283.15
300.593
298.656
290.341
303.15
301.735
300.541
283.15
283.15
283.15
289.503
283.157
283.15
303.15
298.608
291.343
289.858
283.15
303.15
303.11
303.15
284.331
300.071
299.23
299.486
299.357
283.15
283.144
298.843
283.15
283.15
288.748
288.326
283.15
301.162
298.86
303.15
283.15
301.071
303.15
303.15
303.121
303.15
288.261
285.863
290.735
303.15
298.313
303.15
303.15
303.15
283.148
298.05
300.963
299.404
291.199
299.457
296.217
283.212
290.301
291.539
283.15
303.15
283.149
292.446
298.74
286.458
303.15
297.985
297.254
298.867
302.958
283.166
297.075
299.339
302.027
283.15
283.609
283.15
283.149
303.15
283.873
290.262
286.26
303.15
283.15
297.571
285.24
303.15
303.15
303.15
284.566
290.211
301.044
284.407
292.981
283.15
283.15
303.15
298.335
303.15
283.809
289.471
283.153
283.15
303.15
303.15
283.15
294.308
289.949
283.15
295.679
283.15
303.15
301.029
297.271
293.985
295.787
283.15
283.15
283.15
296.58
290.965
302.386
283.15
283.15
283.15
290.063
296.921
283.213
290.435
283.15
292.751
299.536
284.192
298.633
285.242
283.15
303.15
283.15
303.15
290.664
296.694
287.936
291.918
283.15
286.335
283.15
303.15
293.779
303.15
301.746
303.15
283.15
291.927
283.15
288.736
284.625
283.15
283.983
298
283.15
300.135
284.68
298.821
303.021
291.006
286
283.15
303.15
303.145
283.15
300.973
300.818
283.15
283.15
294.728
284.354
298.164
296.896
283.15
295.076
296.075
283.15
302.057
283.889
303.15
303.15
288.203
298.57
283.15
303.15
303.15
303.15
300.739
283.15
303.15
293.959
283.17
286.88
299.939
283.15
283.15
302.618
283.15
302.456
301.417
297.827
288.673
283.15
293.86
303.379
303.15
298.62
292.276
303.15
283.15
283.306
283.15
290.015
286.069
291.597
283.15
292.82
296.574
293.013
303.147
283.15
303.15
303.15
283.168
292.68
283.15
284.32
303.132
283.15
303.15
303.15
303.15
301.859
290.467
285.985
284.194
284.301
283.15
285.692
303.15
300.706
283.15
303.15
303.15
300.646
303.15
303.15
283.151
303.15
283.15
300.649
283.15
283.15
283.15
303.15
283.15
303.15
283.15
283.669
283.15
303.129
301.873
283.747
283.15
303.086
283.15
303.15
284.696
284.667
286.105
297.502
283.15
297.462
297.574
292.239
286.776
285.251
303.15
291.706
283.15
299.84
283.15
296.769
283.15
292.029
298.531
303.151
283.15
286.757
303.15
295.489
299.062
283.15
283.15
283.15
283.15
303.15
293.65
283.15
283.15
283.239
283.15
299.791
283.15
284.785
303.15
283.431
303.12
284.641
291.858
283.15
301.437
283.15
283.15
285.68
283.15
283.257
283.15
299.653
303.15
290.65
303.15
283.15
302.396
284.455
300.062
285.635
300.062
289.457
283.15
300.604
284.532
283.15
283.14
300.304
301.576
283.15
282.459
301.041
303.06
283.119
303.15
287.559
302.167
284.391
285.369
288.143
282.57
283.15
303.15
300.622
303.15
283.553
283.15
283.15
291.745
282.681
303.149
303.116
283.15
286.251
299.58
283.15
283.15
299.598
303.15
283.15
283.15
283.15
286.134
283.15
303.15
284.808
284.223
303.15
299.701
283.15
289.244
303.15
283.15
286.13
283.15
283.15
283.15
285.352
283.15
285.432
291.941
303.15
300.356
283.444
298.679
300.949
283.308
283.457
283.15
288.948
298.427
303.15
302.261
296.006
296.856
284.716
297.42
297.176
303.15
300.221
303.134
283.15
297.117
284.831
283.15
292.352
295.691
284.848
298.746
300.614
292.311
283.15
298.89
283.464
303.15
300.58
301.967
294.069
283.15
286.451
303.15
283.15
283.15
283.15
283.303
283.15
303.15
303.15
283.15
300.417
299.229
303.15
285.602
303.15
303.15
303.15
290.013
283.422
283.15
303.15
283.15
283.15
286.804
292.358
283.15
295.11
283.137
283.15
295.282
302.21
287.727
283.15
283.15
300.237
292.058
283.15
283.15
283.15
293.969
303.15
303.15
283.15
296.215
302.363
283.15
282.394
301.712
286.502
283.15
283.15
287.454
302.963
283.15
283.159
287.243
283.76
288.775
283.15
285.696
300.259
283.15
303.15
283.15
283.15
283.15
283.15
295.64
303.15
283.15
283.15
295.253
291.779
303.15
303.15
289.812
298.381
298.28
303.15
283.15
297.949
303.15
283.828
298.809
298.32
303.15
303.15
303.15
283.15
286.04
283.15
283.15
302.709
303.15
297.784
302.259
283.15
294.024
283.267
296.406
291.964
283.421
289.754
283.15
283.15
296.851
288.049
290.832
283.15
283.15
297.71
294.931
283.15
283.903
284.584
283.472
303.15
303.15
303.15
290.734
283.15
300.03
283.15
284.363
297.576
298.476
292.236
283.15
283.15
303.15
295.347
283.15
283.15
303.1
283.15
283.15
303.15
283.15
299.291
283.15
283.15
283.15
283.15
283.15
303.15
283.15
283.172
298.759
303.15
302.533
283.131
283.394
283.095
285.513
283.15
284.437
290.518
283.394
303.15
283.149
299.71
283.15
300.227
283.146
283.144
286.197
297.461
283.21
291.889
298.026
283.15
283.15
299.033
299.774
283.15
297.318
291.253
297.595
283.15
283.244
283.15
297.898
297.027
283.15
300.05
297.675
283.149
299.75
283.15
295.622
283.144
303.126
283.162
283.16
283.15
283.15
284.43
283.15
302.967
283.584
283.06
303.148
303.149
303.147
283.15
283.15
293.781
303.15
303.191
283.859
283.15
283.15
303.154
303.149
283.15
303.165
283.15
283.15
303.15
303.15
303.15
303.15
283.365
283.15
283.15
283.15
303.157
283.303
283.884
293.435
283.15
283.15
283.332
283.15
283.15
283.15
287.224
293.564
283.15
283.15
283.15
283.15
283.15
283.15
283.998
283.15
303.15
291.554
283.15
303.15
303.15
303.153
303.15
303.15
283.15
303.171
283.15
283.69
283.145
303.152
283.15
303.061
284.389
292.055
303.15
303.128
284.433
303.15
283.15
303.15
283.15
294.008
293.452
284.624
303.148
283.15
293.195
283.15
283.15
303.15
283.15
294.817
283.15
303.15
283.163
298.138
303.15
284.369
283.15
283.573
283.15
283.15
283.15
303.15
285.81
283.472
284.184
283.15
283.15
285.608
283.15
283.15
303.15
284.332
303.164
298.532
303.15
303.127
303.128
283.15
303.13
283.15
283.445
289.121
301.052
283.794
283.166
283.15
283.15
283.15
303.183
283.15
302.9
303.15
292.717
303.15
288.712
283.825
303.15
283.15
303.15
283.15
301.78
303.15
303.15
286.378
300.544
283.15
283.15
283.15
283.15
283.15
283.15
300.794
283.576
303.15
303.15
303.157
303.15
300.181
284.42
283.15
302.105
303.15
301.615
283.15
302.569
283.15
283.148
303.152
283.313
302.108
300.214
283.147
283.15
289.343
303.15
293.354
303.15
283.15
303.15
283.15
283.15
283.15
300.792
302.048
303.15
303.15
303.15
302.905
283.15
303.15
292.861
283.086
303.15
297.521
298.349
296.472
283.376
283.15
283.15
283.15
283.15
294.599
283.15
294.809
283.15
303.058
289.832
283.15
302.86
283.15
283.15
302.735
283.148
302.916
283.15
303.15
283.15
302.385
283.15
303.15
283.15
283.148
283.15
283.171
283.15
283.15
303.15
293.006
301.095
296.091
296.997
303.15
303.116
283.15
283.15
285.655
283.15
283.158
302.844
298.799
302.939
303.15
283.36
283.15
303.15
283.15
302.99
283.318
298.34
283.15
303.15
288.071
303.15
283.15
283.126
295.057
283.147
283.15
283.15
283.149
303.15
283.15
303.142
303.15
303.15
289.89
302.985
302.993
288.965
293.222
283.15
283.15
303.085
289.036
283.15
303.15
284.727
283.15
303.15
283.15
283.15
283.15
297.426
283.15
302.937
283.15
300.469
283.15
283.15
283.15
283.15
283.15
283.15
285.006
283.15
283.15
283.15
283.15
283.15
283.15
291.965
283.15
298.41
302.933
283.15
302.344
283.15
302.514
303.145
292.32
288.794
303.15
292.183
284.762
303.109
303.15
303.14
295.089
288.673
283.15
287.891
283.15
283.15
283.15
283.15
287.516
283.15
283.15
291.666
303.135
285.316
283.15
283.15
302.532
283.15
283.183
303.15
299.904
283.15
283.15
302.825
283.15
303.178
303.15
283.15
289.059
298.025
292.726
285.637
292.55
294.109
283.15
283.15
302.28
290.599
292.744
284.407
283.15
294.411
283.15
303.15
300.719
298.769
283.15
297.44
283.15
292.775
297.186
303.15
283.15
283.15
301.766
283.15
283.15
300.488
296.151
283.197
291.235
283.15
283.15
302.792
300.507
283.15
300.632
283.15
300.488
283.15
283.15
300.791
283.15
283.227
301.592
283.15
283.15
302.43
283.15
287.899
303.15
290.361
303.15
303.15
303.15
300.934
283.15
283.15
299.523
283.15
302.986
283.15
283.15
303.15
283.151
288.191
283.15
283.15
288.053
288.233
283.15
283.673
283.15
303.15
302.419
283.71
301.557
283.15
283.15
283.15
283.15
283.15
283.15
283.15
283.15
283.15
283.15
283.15
303.15
283.15
283.15
283.15
283.15
283.15
283.15
283.15
283.15
303.15
286.936
283.15
283.15
283.15
294.682
283.15
303.15
302.922
283.15
283.15
294.687
283.15
283.15
301.822
295.165
283.15
303.662
303.597
283.15
301.475
293.936
297.524
301.465
298.126
303.15
283.15
296.43
291.719
301.408
283.15
302.135
302.417
300.86
288.043
287.32
301.048
301.776
301.775
303.15
285.869
297.528
285.499
297.232
283.15
283.15
283.15
303.15
283.15
291.945
297.909
283.15
283.15
283.15
283.15
283.15
303.15
283.15
303.15
292.14
303.113
299.007
302.843
283.15
283.15
285.389
283.168
283.15
283.15
301.739
303.15
283.15
298.147
299.503
297.514
298.632
300.794
303.15
291.054
302.578
303.15
303.15
300.304
303.15
283.15
282.98
295.535
302.946
283.15
303.15
289.565
286.161
297.184
292.144
302.399
303.15
303.136
303.15
303.15
283.15
299.002
283.15
291.749
290.456
299.676
284.76
303.15
301.915
303.15
283.15
303.15
303.15
291.499
299.568
283.15
303.15
303.133
291.728
303.029
299.338
292.787
288.328
292.885
283.15
303.15
283.15
291.229
298.286
303.151
303.15
303.15
303.15
297.476
302.57
283.15
299.959
301.134
284.848
299.503
303.15
303.15
298.669
292.933
283.15
302.899
299.704
302.612
291.926
297.293
298.229
303.15
286.986
298.209
291.321
283.15
289.041
303.15
288.383
301.046
303.15
288.711
301.267
300.105
293.146
283.149
283.16
283.239
301.648
300.905
303.15
288.826
301.467
303.15
283.15
303.15
303.21
298.739
290.697
296.773
303.257
283.149
297.465
303.15
303.15
292.765
303.15
300.312
283.302
301.306
291.547
303.15
283.656
293.19
303.15
283.059
298.667
303.15
300.683
286.255
303.15
303.15
283.993
303.15
283.15
283.15
285.919
299.276
291.165
303.15
285.19
297.454
283.15
298.834
298.869
288.973
303.107
283.15
301.529
299.669
298.835
300.07
288.667
290.76
302.492
303.15
301.543
288.723
303.15
298.845
283.15
283.15
303.15
283.15
303.15
297.433
283.15
300.515
283.64
303.15
283.796
283.15
289.847
303.15
303.144
303.15
294.136
303
303.118
299.848
290.418
289.433
290.597
298.39
303.15
299.372
292.139
298.927
303.15
283.874
283.448
299.233
287.166
283.51
303.15
283.15
303.15
285.297
303.15
303.329
284.691
303.366
302.958
303.15
303.15
283.15
300.535
300.677
285.462
303.086
287.004
295.651
301.882
292.479
288.123
302.084
296.083
283.15
283.15
303.15
285.813
289.698
283.15
283.15
303.15
301.988
288.672
303.15
296.377
303.15
283.156
285.16
301.169
303.15
303.15
292.251
303.15
283.299
290.619
283.15
297.142
294.638
296.139
303.15
302.709
283.15
302.667
293.405
303.15
303.15
288.798
283.15
303.15
301.793
284.438
303.15
303.15
283.15
302.34
303.474
289.449
299.685
298.116
303.15
303.159
302.593
303.15
283.15
303.15
303.15
303.15
303.15
303.15
303.15
303.15
283.15
303.15
303.15
283.339
303.15
303.342
303.15
303.161
303.15
303.15
300.914
303.684
303.15
291.987
303.15
303.15
283.15
302.555
303.15
302.141
303.115
283.291
283.15
303.15
302.571
283.149
303.15
303.15
291.337
283.15
292.562
283.15
283.15
283.153
291.188
284.835
303.15
296.653
283.15
303.76
303.133
284.317
302.592
283.15
292.137
303.084
301.662
283.15
303.15
283.15
304.111
284.822
296.904
303.15
303.15
303.15
303.15
303.15
303.15
302.351
302.811
297.61
292.038
303.15
287.138
292.616
284.98
303.208
283.15
286.912
302.755
284.77
283.148
287.473
303.15
283.384
302.922
292.504
302.848
301.877
303.15
302.251
303.15
303.15
297.937
303.15
284.472
303.15
303.15
283.15
303.15
303.15
302.847
303.15
283.298
283.15
283.15
285.813
284.853
300.931
286.109
303.15
294.699
303.15
290.438
303.15
287.138
300.673
301.475
293.322
303.15
303.15
303.15
289.815
283.15
303.15
289.567
283.15
283.15
301.814
303.15
286.177
283.148
283.15
303.15
303.15
300.658
298.181
303.15
293.398
303.035
283.15
298.607
303.15
286.411
288.224
302.141
303.15
296.291
296.781
302.953
301.879
301.652
303.15
303.15
303.147
303.15
283.15
303.15
289.569
300.211
294.33
302.122
283.15
300.36
291.368
298.23
283.593
298.307
289.592
302.158
283.15
283.15
283.15
302.204
283.15
290.429
283.15
301.249
303.161
289.724
298.068
283.15
303.15
301.237
301.214
303.15
283.15
303.15
286.424
301.434
302.977
302.336
298.015
288.436
303.15
303.15
303.15
294.215
285.967
289.784
295.865
283.96
302.956
303.15
303.15
283.15
283.15
285.428
299.598
303.15
303.15
283.15
303.15
303.15
303.15
300.246
303.15
285.349
292.355
283.15
283.249
293.367
285.691
303.15
303.15
301.883
303.15
299.214
283.147
297.56
303.15
303.15
283.15
303.15
303.15
303.15
305.196
303.15
301.834
301.133
303.15
303.15
301.609
303.15
283.15
287.244
303.101
303.15
303.15
303.15
297.919
303.15
303.15
302.44
302.487
301.772
303.15
283.15
303.15
302.04
302.511
301.518
302.532
283.15
300.651
287.47
297.448
283.15
303.15
303.15
303.15
303.15
294.352
287.566
299.688
303.15
303.15
303.15
303.15
283.15
303.148
284.766
285.151
283.15
303.15
303.15
283.148
299.564
294.881
283.15
303.15
303.15
303.15
303.15
289.61
289.669
303.15
303.15
302.41
303.15
301.471
283.952
291.869
303.15
283.15
301.191
303.122
303.15
303.055
301.31
286.836
303.15
303.15
303.15
303.15
293.298
284.144
303.15
302.69
298.056
289.385
303.15
303.15
303.15
303.15
299.553
303.151
303.15
303.15
298.253
302.603
288.33
303.15
303.15
297.748
303.15
303.15
303.15
303.15
288.809
303.15
283.15
283.15
295.917
291.09
303.15
303.15
303.15
297.003
303.146
303.15
303.15
303.15
303.15
303.4
300.861
303.15
287.338
302.644
299.38
303.15
303.15
303.15
303.15
283.15
285.66
303.15
302.844
283.15
302.176
303.15
303.134
303.15
283.15
301.96
285.665
283.15
302.832
303.15
302.415
283.15
303.15
303.15
303.151
303.15
283.273
303.15
290.84
283.15
283.15
303.15
303.15
298.83
302.368
283.15
302.416
283.15
284.103
287.967
302.697
283.15
303.155
302.984
303.134
284.393
283.156
302.983
283.15
283.15
283.156
302.07
302.288
303.15
283.15
283.15
295.346
303.15
283.15
303.15
303.15
303.15
303.108
303.046
302.925
302.441
303.15
302.906
303.15
284.787
303.15
303.15
283.15
303.15
303.111
303.15
283.15
303.15
288.311
303.15
303.15
303.174
283.15
302.844
302.047
296.717
303.15
289.325
294.468
283.817
289.979
283.15
283.15
287.202
284.308
283.15
303.829
283.15
286.401
303.15
283.15
303.156
303.15
303.15
303.015
303.155
303.15
283.15
303.138
303.15
283.15
283.105
298.718
302.698
303.15
301.833
303.15
285.7
303.152
301.167
303.15
303.15
301.029
303.15
303.15
303.15
287.688
303.15
285.139
303.15
303.147
303.15
283.15
283.15
303.15
303.15
303.15
288.7
302.543
303.15
303.15
288.582
286.507
291.212
303.15
302.695
287.664
287.528
303.15
303.15
287.668
283.15
291.896
303.15
303.152
303.149
303.15
300.516
283.15
302.325
283.15
303.15
303.15
303.15
303.15
303.15
284.313
302.242
291.04
303.15
303.15
290.569
303.15
303.15
303.15
303.15
303.15
300.14
303.15
303.15
283.15
299.446
303.15
283.15
303.15
301.36
283.15
299.946
290.682
302.683
300.009
299.428
303.15
303.15
303.15
300.831
288.457
283.15
303.15
300.304
303.15
303.15
291.976
303.15
287.474
303.15
297.817
284.316
303.15
283.15
303.15
303.15
303.15
285.249
303.15
300.476
303.15
303.15
299.688
283.15
284.717
303.15
303.15
288.103
301.559
296.417
303.15
303.15
303.15
301.576
292.228
303.15
283.15
303.15
300.66
303.15
284.741
296.298
303.15
303.15
301.126
303.15
303.15
283.15
303.15
283.15
294.554
303.15
283.15
303.15
303.15
303.15
303.15
303.15
303.15
283.15
301.527
283.15
302.069
303.15
303.15
296.109
300.461
303.15
283.15
303.15
300.867
283.15
303.15
303.15
303.15
300.724
303.15
297.663
303.15
285.829
283.15
286.715
303.15
303.15
298.499
283.15
303.15
287.824
283.247
303.15
303.15
285.085
283.835
300.834
301.722
301.173
293.165
301.728
283.841
303.15
297.697
283.15
283.15
303.15
303.15
303.15
301.202
303.15
303.15
303.15
303.13
283.169
283.15
283.563
303.15
302.003
283.15
303.142
296.075
283.15
294.545
303.15
303.15
283.15
299.871
283.922
303.15
283.15
299.899
303.15
297.706
303.15
295.262
303.15
283.15
303.15
283.15
299.414
283.15
283.225
283.15
286.182
303.15
303.15
283.15
283.15
303.15
303.15
303.15
303.15
284.862
284.73
283.15
303.15
283.233
283.15
283.15
303.154
289.861
283.542
283.15
301.488
284.879
300.467
288.164
303.15
303.15
303.15
303.15
283.15
283.15
283.15
303.15
283.15
283.15
303.15
283.15
297.243
283.15
303.15
283.15
303.15
303.15
283.328
283.15
303.15
301.934
303.149
303.15
303.15
303.15
288.715
283.15
303.15
303.149
283.15
303.15
303.15
303.15
295.321
283.15
283.18
303.15
303.15
303.15
303.15
303.15
303.149
303.147
284.104
303.15
283.15
303.15
303.149
303.15
303.148
303.149
283.15
283.15
283.15
303.15
303.15
283.15
303.149
283.15
287.699
283.15
301.791
283.15
303.154
303.15
284.595
283.15
284.44
297.373
303.15
284.678
303.173
303.15
297.381
283.15
303.15
303.15
303.15
303.15
283.15
303.15
303.15
299.142
283.15
303.15
303.15
303.15
303.15
292.331
290.34
303.17
283.164
303.15
301.808
302.317
303.15
283.15
283.15
303.15
303.15
303.15
283.15
283.15
283.812
303.15
303.15
303.197
303.151
283.15
288.852
303.15
283.15
303.15
288.022
303.15
283.15
302.101
283.15
283.15
283.15
303.15
299.64
303.15
303.15
303.15
283.15
284.489
293.545
295.193
289.538
303.119
303.015
283.15
283.15
301.057
283.686
283.15
303.149
303.15
303.15
283.15
294.514
303.15
283.15
302.976
303.15
303.15
283.785
303.15
303.15
288.376
289.528
303.15
283.15
303.15
283.15
303.15
303.15
303.15
303.15
283.94
303.15
303.15
303.15
302.924
303.15
303.15
283.15
283.15
283.15
283.15
302.937
283.15
283.15
300.945
303.15
284.752
284.911
303.15
301.108
303.15
283.15
303.15
283.15
283.15
303.15
303.15
303.15
302.66
303.15
303.15
303.15
283.15
303.15
283.15
286.363
303.15
303.15
291.571
303.15
283.15
283.15
302.412
303.15
303.147
283.15
303.19
286.648
283.15
283.15
299.182
283.15
283.15
303.052
303.161
293.339
303.167
303.151
303.152
283.15
283.15
302.638
283.448
285.808
300.852
283.157
283.15
291.049
301.563
301.463
283.15
300.217
290.704
300.146
302.204
302.732
284.659
295.454
299.203
286.257
293.304
300.106
303.15
298.012
297.548
302.78
283.666
292.311
301.148
287.331
303.15
301.009
303.15
300.712
301.482
283.638
284.984
303.15
283.15
302.293
301.671
283.145
303.173
288.551
302.676
301.835
300.807
303.15
303.232
301.123
295.016
300.441
288.912
302.907
301.661
302.204
302.267
284.215
302.496
301.58
283.178
303.15
302.892
303.15
303.15
302.081
301.989
294.275
303.15
284.673
292.253
292.337
300.859
303.15
284.001
285.19
284.393
303.15
298.769
303.15
296.427
295.346
300.718
303.142
303.15
303.15
301.928
301.242
302.778
303.15
292.611
302.743
289.954
283.15
298.385
293.995
303.15
300.527
283.15
283.203
283.15
302.562
303.096
303.15
302.984
298.364
283.148
300.508
302.218
295.346
283.528
295.817
297.04
283.456
303.133
284.738
296.37
283.319
296.836
300.479
300.233
300.341
301.979
289.735
301.561
303.15
302.721
302.651
302.666
296.57
302.894
283.15
302.008
293.452
303.15
283.428
286.847
301.196
302.587
290.526
284.823
287.684
302.612
296.359
303.15
303.15
294.976
283.15
292.632
283.425
303.15
290.57
290.245
283.911
303.15
297.278
298.544
284.231
301.225
294.198
290.177
300.528
303.113
303.15
303.15
283.529
302.608
283.344
285.795
303.15
303.021
303.035
303.15
285.408
300.858
297.83
283.245
299.531
302.357
300.492
286.903
283.15
303.104
301.8
283.732
283.137
303.15
303.073
303.15
303.15
284.181
302.53
296.435
283.037
283.153
303.15
283.15
302.952
303.043
302.497
301.4
303.15
283.15
283.15
301.813
301.869
283.214
295.935
303.15
303.15
301.607
285.495
283.259
301.67
301.774
301.714
284.39
303.15
283.15
298.509
297.754
303.15
302.694
302.069
284.686
284.978
302.101
303.059
303.15
298.142
284.42
283.15
303.15
300.593
301.205
302.004
289.617
302.062
285.66
300.14
300.318
290.339
297.524
303.15
303.15
300.925
284.459
302.08
283.151
300.477
301.693
283.628
288.294
302.412
283.15
283.15
283.029
303.15
303.15
299.939
298.936
302.273
283.147
283.15
283.935
283.151
283.15
283.151
303.079
300.911
299.146
295.862
283.363
303.093
300.119
303.15
283.15
302.552
289.246
300.788
292.721
283.508
303.059
283.148
283.15
302.831
301.198
302.605
283.155
291.238
284.881
303.15
284.242
301.03
283.15
283.307
284.94
284.151
283.15
283.15
301.63
283.15
289.372
302.522
302.697
301.785
283.474
298.268
290.072
283.15
303.347
292.056
283.15
283.15
283.15
303.15
301.218
302.407
299.166
301.455
299.932
288.837
283.155
290.998
290.171
303.06
291.065
299.989
292.074
283.15
286.296
301.068
301.557
283.15
283.988
299.652
283.15
303.15
283.187
301.267
303.15
284.009
302.267
303.018
303.15
283.15
292.802
303.153
301.684
283.15
283.15
283.15
302.181
297.569
303.143
302.189
303.167
303.15
288.354
303.167
290.442
300.212
300.171
296.555
283.156
301.689
283.15
290.592
301.403
289.439
290.492
298.959
300.691
301.586
287.179
291.159
285.008
283.172
302.207
286.116
283.15
283.144
300.19
283.079
300.285
286.988
296.094
299.419
289.202
299.264
283.121
299.191
283.15
289.948
289.034
298.646
283.327
283.15
300.545
283.15
302.793
283.15
303.15
286.471
286.466
283.15
298.976
298.604
287.03
303.15
303.15
301.706
289.797
302.993
283.729
301.566
287.098
303.147
284.179
288.183
303.15
301.411
283.15
283.15
287.561
286.995
283.145
285.255
301.486
286.234
301.239
303.15
285.119
301.736
291.201
303.15
303.15
301.603
302.036
303.15
293.001
294.308
283.657
296.372
286.758
290.017
303.15
302.785
297.011
285.002
283.15
287.721
291.872
299.618
283.162
283.752
282.947
301.94
303.117
283.151
303.133
303.15
300.579
293.041
298.811
293.834
283.15
291.961
295.958
285.577
283.212
291.528
283.15
300.313
303.164
292.534
284.103
303.144
291.868
298.596
288.246
300.373
291.352
287.327
283.15
303.142
285.329
289.887
293.461
283.15
283.15
283.15
303.141
283.15
283.137
286.416
303.15
283.15
303.167
283.173
291.128
288.88
303.534
302.909
289.864
303.15
296.957
303.176
302.002
287.268
283.15
292.882
303.145
303.093
286.161
283.15
283.15
283.469
286.017
303.052
303.143
287.502
289.473
283.48
283.163
289.858
293.226
303.15
283.15
303.095
303.15
302.328
285.011
302.34
303.092
284.06
283.774
284.047
302.861
302.165
297.423
294.035
303.068
291.264
291.043
303.15
303.096
302.581
285.434
283.378
303.15
285.943
283.387
302.93
301.702
302.166
283.15
300.327
301.847
303.15
302.143
285.391
303.15
297.883
303.15
283.15
300.687
302.676
286.315
302.486
283.15
285.168
303.004
283.15
302.297
285.355
294.874
284.329
303.15
303.019
302.883
286.492
283.15
287.123
284.253
289.776
285.712
302.244
303.15
283.15
283.15
293.154
283.15
301.053
302.153
290.368
283.15
294.058
283.15
303.15
283.15
300.104
298.546
283.151
285.271
301.741
303.07
303.156
291.847
294.196
301.186
283.203
301.814
283.145
303.15
303.142
299.024
283.15
300.831
294.754
303.15
300.946
287.294
301.966
284.901
288.159
283.15
302.212
287.714
298.409
303.081
283.15
303.15
291.656
302.152
283.078
283.147
286.751
298.325
303.149
284.47
301.011
300.984
301.237
303.153
299.875
287.627
284.91
301.572
299.87
283.718
283.104
303.16
303.149
303.15
297.33
283.163
283.15
303.15
303.149
289.906
298.923
300.286
287.764
302.795
303.15
286.429
301.592
303.15
300.954
283.798
301.443
303.15
284.543
301.393
295.551
302.766
303.15
303.15
285.166
295.058
296.349
287.363
303.15
303.15
283.15
287.196
302.387
296.138
303.15
285.554
303.15
303.15
300.472
288.713
283.15
295.52
295.848
299.095
283.15
303.15
292.672
287.2
303.15
297.923
300.49
300.394
303.15
303.15
303.15
300.2
298.302
302.788
299.867
283.15
292.891
287.654
290.581
300.548
303.15
303.15
300.74
303.094
286.541
296.066
303.15
303.147
283.15
286.431
298.898
285.564
303.15
303.15
283.34
303.123
303.15
303.15
283.15
290.51
303.15
303.15
284.566
299.295
283.15
303.15
284.605
301.306
300.138
286.978
294.967
303.15
283.498
303.15
303.15
283.308
300.512
290.385
300.368
303.15
303.129
302.158
292.618
299.749
301.322
284.436
283.451
300.869
298.355
303.15
302.748
284.127
299.704
301.36
287.671
303.15
297.408
301.389
301.475
301.516
292.893
303.15
283.15
299.148
283.15
283.15
287.724
283.15
284.004
283.15
283.15
283.15
283.15
302.745
288.13
302.693
283.15
295.627
290.925
284.729
283.15
303.15
302.668
301.721
303.166
302.625
283.15
294.78
300.233
290.156
283.15
283.15
299.773
285.919
283.15
283.15
303.149
290.557
283.15
287.115
303.149
303.152
284.301
283.15
288.176
292.266
300.795
294.618
302.951
285.611
302.494
295.215
286.246
283.15
283.539
291.58
303.072
289.068
302.644
283.15
292.363
287.721
301.013
301.292
284.886
303.102
284.889
297.034
302.987
303.146
285.119
303.145
303.002
293.258
302.685
283.15
303.15
303.15
294.716
291.003
283.155
301.055
284.658
284.139
284.608
303.145
288.32
300.43
283.15
283.15
302.488
303.15
294.506
302.891
303.183
299.761
303.223
302.877
283.15
301.269
302.873
283.15
303.15
301.304
303.15
284.303
298.704
283.163
291.431
283.15
287.549
303.009
299.72
283.15
303.021
290.889
301.195
303.125
303.077
283.15
283.15
301.944
301.983
283.797
302.809
302.401
302.368
303.141
283.15
293.645
283.15
302.785
287.849
302.982
303.15
283.15
302.813
285.119
291.461
302.032
283.15
302.569
301.975
301.543
302.469
303.045
303.21
303.006
303.15
283.15
301.498
297.804
303.087
303.15
289.849
284.892
303.15
283.15
285.293
303.184
303.165
302.911
301.101
284.245
303.096
290.693
294.216
303.148
289.016
303.164
283.15
289.791
283.15
299.923
298.088
284.774
288.151
299.56
296.683
295.256
299.121
293.709
303.154
293.853
296.339
283.161
299.328
293.846
303.15
298.874
299.087
303.15
291.125
303.17
301.642
303.15
286.888
285.973
302.789
289.634
283.15
283.15
300.303
301.164
283.714
283.15
303.15
300.191
302.302
300.591
299.831
302.776
292.547
289.605
286.615
292.466
284.282
290.307
283.305
295.706
290.4
293.853
287.063
284.28
303.163
283.273
303.148
285.533
300.672
283.151
300.419
298.405
288.702
302.096
285.391
299.02
283.15
302.946
283.154
283.116
287.605
299.598
303.15
300.341
303.017
299.892
302.75
303.15
301.225
284.929
294.851
302.023
303.149
283.695
283.15
290.256
285.233
285.72
303.127
303.148
283.15
283.15
283.176
303.15
293.378
303.15
303.148
294.097
303.439
303.15
300.421
303.15
303.15
293.581
290.564
303.15
289.795
302.038
289.521
303.15
303.15
285.897
283.334
290.282
303.226
303.15
303.145
285.437
283.244
283.15
288.945
287.548
303.15
284.296
303.15
303.15
303.132
287.295
303.15
303.147
283.272
303.152
302.647
287.881
283.153
283.583
297.364
290.653
303.15
285.896
284.412
301.298
287.089
302.178
290.555
293.812
303.15
303.15
283.996
303.147
302.942
295.893
302.942
302.73
287.15
283.15
285.299
283.217
297.064
302.587
285.329
303.15
283.785
286.679
303.125
283.175
303.15
286.366
283.15
300.134
303.15
299.671
299.816
283.297
283.355
302.314
290.774
301.366
303.15
301.363
301.719
303.15
303.15
298.289
293.368
283.15
288.747
303.15
295.235
283.354
303.15
296.852
298.68
288.951
303.15
302.744
294.158
295.316
284.443
303.16
298.631
296.068
283.978
303.123
302.793
287.339
298.388
289.794
290.772
289.701
283.15
302.942
303.152
303.15
303.175
293.039
296.255
302.975
301.256
303.15
284.436
303.15
303.038
302.848
303.15
293.492
296.213
303.15
285.35
303.094
303.15
303.087
303.158
286.006
293.27
291.072
288.364
293.393
303.15
301.182
291.391
295.294
293.367
303.141
303.15
300.516
303.19
284.216
303.19
303.15
303.15
303.143
303.15
284.915
303.15
284.204
303.146
303.15
290.172
303.144
292.4
295.468
303.133
295.267
285.967
283.44
303.124
302.937
284.675
283.15
297.071
303.15
285.483
302.902
302.02
303.02
298.447
287.016
303.15
298.661
289.862
299.275
283.15
283.616
303.15
303.145
303.191
294.053
303.15
292.382
289.298
303.195
303.15
284.766
298.708
293.162
299.539
302.458
301.597
300.345
303.15
284.701
296.98
302.361
285.584
298.363
292.235
284.448
291.586
303.15
286.599
291.737
290.097
299.388
303.15
286.414
284.084
303.15
302.415
288.1
302.097
283.15
303.15
299.786
301.667
288.93
301.961
301.93
301.788
303.15
289.274
285.101
301.938
302.217
297.088
303.15
283.2
303.15
301.962
303.15
302.792
303.15
291.6
303.15
296.491
283.15
289.451
303.15
283.15
292.182
301.418
300.376
289.153
300.458
303.15
302.477
303.15
302.363
285.179
303.15
300.362
290.358
303.15
300.769
303.15
303.15
293.168
283.15
285.482
293.19
300.885
303.15
291.09
293.794
288.142
289.624
288.077
299.203
300.274
300.756
287.351