/*--------------------------------*- C++ -*----------------------------------*\
  =========                 |
  \\      /  F ield         | OpenFOAM: The Open Source CFD Toolbox
   \\    /   O peration     | Website:  https://openfoam.org
    \\  /    A nd           | Version:  10
     \\/     M anipulation  |
\*---------------------------------------------------------------------------*/
FoamFile
{
    format      ascii;
    class       volScalarField;
    location    "17";
    object      p;
}
// * * * * * * * * * * * * * * * * * * * * * * * * * * * * * * * * * * * * * //

dimensions      [0 2 -2 0 0 0 0];

internalField   nonuniform List<scalar> 
111485
(
7.87217
0.0387323
0.031524
7.87305
0.0252886
7.62016
0.0232478
0.0299093
0.0238392
0.0167074
0.0225034
0.0239048
0.0270463
0.0114098
0.0246898
0.050748
0.0301131
8.79289
0.028511
7.87367
7.87383
7.62356
0.021087
0.039481
0.0196589
7.84724
0.0315152
0.0519645
0.0303707
7.87321
-0.0588043
0.0189191
7.87564
7.62046
8.5755
7.58232
-0.0354885
0.0522869
-0.0856262
0.0344281
7.66807
0.0173617
0.0350953
-0.0107378
-0.233537
7.88691
0.00433637
0.0352792
0.0119971
7.91514
7.91328
7.37132
7.92173
-0.0231268
7.92668
0.0324904
0.0286543
7.63028
-0.0747103
0.0318324
0.0330353
7.87255
0.0290066
-0.0493348
7.66603
0.032954
5.11292
0.0287734
0.0157101
0.0272477
-0.114896
0.0398899
7.72549
0.0157064
7.87858
0.0354393
7.62361
0.0127828
7.62202
8.06317
-0.0878275
-0.0131734
7.62364
7.87488
0.0333574
0.0230797
1.77474
-0.0306428
-0.0796248
0.0413249
-0.184777
0.0247291
0.0324638
0.0471144
0.0173337
7.87457
7.87262
-0.0153432
-0.716394
0.0896954
7.87244
0.0229365
7.61076
0.00850137
0.0224449
7.92043
7.62793
0.01855
0.0226398
-0.318731
0.0231494
0.041784
0.0301995
0.0229374
7.84383
0.0344482
7.86031
7.6226
0.0217404
7.87458
7.84621
6.67345
7.62447
7.63049
0.016604
8.95435
6.6366
0.0223802
7.87549
0.415867
-0.0795458
-0.0159281
7.87907
6.5204
6.80889
0.0234765
7.62361
0.0372848
0.0188123
0.0386437
-0.0196549
0.0204802
0.0286381
0.0326345
-0.003228
0.0331766
7.62358
7.87402
7.63466
0.0290589
0.028445
7.8715
-0.0479482
0.00931003
-0.632339
0.0309161
0.0264145
0.0219097
-0.490503
7.88021
7.87334
0.0281486
0.021783
-0.451476
-0.57111
0.0295929
-0.0414384
7.65726
-0.414048
-0.379407
7.62939
7.87349
0.0216095
7.62592
0.0300022
0.0171917
7.67667
7.70387
7.86303
7.81969
7.67497
7.87238
0.0358838
0.0311339
0.03889
0.0697302
0.0192115
0.0339564
-0.0259388
7.87309
0.0211107
7.69907
7.86092
0.0419302
0.0103334
-0.0255978
0.0400759
0.0165826
7.87942
0.0346961
0.0322317
5.31344
-0.00224279
0.028708
7.8697
0.0378097
0.00709441
7.69795
-0.0315081
0.00980417
0.02775
0.0204874
7.66774
7.87219
0.0342843
4.97372
-0.013358
7.62559
0.0368451
0.0392924
0.0149497
7.87195
0.0268652
-0.0397825
6.00234
7.62566
7.62958
-0.0908656
-0.559021
7.73382
7.29651
0.0373762
0.0238531
-0.0726434
7.73193
7.80476
-0.0474666
7.87633
0.0195128
0.0346227
0.0349772
0.0225005
0.03404
7.63082
-0.0861312
0.0200364
7.63383
7.62377
-0.030182
0.0408767
7.79145
0.0329084
0.0327617
7.8742
6.36675
-0.00743803
7.88741
8.02307
7.19111
7.87342
0.0300846
0.023422
-0.0100784
7.87627
0.032132
7.87291
7.87129
7.87913
-0.0545238
0.00655663
0.0349507
0.0263457
0.0174884
0.0289558
0.0266502
-0.0556227
0.0107835
0.0216797
7.58129
7.87388
-0.0592658
0.0227154
-0.0744992
0.0271402
7.87419
0.0360682
0.024732
0.0292063
0.0341211
-0.0829168
0.0242528
0.0278518
-0.00449301
7.62688
0.00404028
7.6259
8.74224
8.09002
-0.0957465
0.00608494
0.0224867
7.86658
7.69053
0.0343976
0.0284734
7.87118
7.87003
7.9304
0.0239868
0.0307063
0.0319606
0.0292379
0.0260641
7.23593
7.63222
7.8754
0.0365766
3.27375
0.00716381
-0.0881943
-0.0644219
7.62448
7.87178
7.87255
6.80304
0.0315871
0.0315113
7.61933
0.034535
7.78745
7.86317
-0.0120841
0.0322389
0.0190652
0.0347122
7.99176
6.76751
7.62207
0.0318131
0.020144
-0.0602554
7.65988
0.481828
-0.126865
0.0326673
0.0360601
1.29813
0.0248351
7.62184
0.0198538
0.0379843
-0.0784358
-0.0185954
0.0223712
7.62353
7.87686
7.62682
7.87628
0.0370903
0.031197
0.00303898
0.0293863
7.64123
0.0269635
7.62908
7.87963
0.0259089
8.13804
6.95503
7.91608
7.57784
0.0297867
7.62898
0.0174295
0.0318668
7.62183
0.0167807
0.0340507
7.86167
0.0336314
0.0270784
0.0406012
-0.0260845
0.0411472
0.031162
8.00064
7.87462
0.000486775
7.64669
0.0211645
-0.0253118
7.67503
7.62923
0.0341214
0.0245041
0.000522213
0.0386976
7.62334
-0.0564752
0.019062
7.618
-0.0137603
0.00440078
7.87121
7.87255
0.0249662
0.0201816
7.60749
7.86425
5.86277
7.87177
0.0262318
7.6258
7.87264
0.0159448
-0.0729268
0.0107012
0.0333656
7.62137
6.82028
0.0133952
6.91867
-0.00922916
0.0178564
0.0225962
5.28606
6.9943
-0.48554
-0.281704
7.87069
-0.0290339
0.0255325
7.87005
-0.477116
0.0163823
6.95728
0.0212432
0.0220925
0.0391248
7.62273
0.268168
0.0202274
0.0494975
-0.110403
6.61377
-0.578009
7.87208
-0.0191018
-0.167802
7.62998
0.0107031
0.00958805
6.43238
7.87521
7.471
7.8728
0.0276021
0.0786049
0.0262265
0.0268634
-0.0342899
7.62622
-0.028869
7.88443
0.0382203
7.60898
7.88179
7.88914
0.0171567
7.87551
7.87223
8.35028
7.87102
7.63807
0.000672881
7.62837
7.42555
7.62364
7.8597
7.61489
7.88166
7.62403
0.0149443
7.62218
-0.00235397
0.0180999
-0.0620463
7.62899
0.000163226
7.63125
7.87183
0.011225
0.0115411
0.0580073
-0.0990503
7.33135
0.00606621
-0.00351796
0.0238731
-0.0122754
0.0143736
7.87459
-0.00329943
6.44356
0.0225568
7.62554
-0.000802704
6.66696
0.0245016
0.0313686
8.29029
7.69037
-0.0303553
7.87148
0.00634294
-0.000874545
7.6369
7.64357
7.92921
7.62871
-0.952312
0.00563448
7.61756
7.6345
0.0229552
7.62355
0.00403844
7.62283
0.000843648
7.87201
0.0264691
0.0253544
0.0590653
0.0232212
7.60091
-0.127446
7.61602
7.6252
0.0202763
7.62668
0.0166489
7.93537
-0.0147909
7.87381
0.039791
7.87382
6.9651
-0.0785696
-0.0305465
0.00237561
0.0230915
-0.00893411
0.0113802
7.63368
-0.00456453
-0.0108102
7.62486
-0.0266721
-0.0402954
0.0101335
7.69059
8.0405
0.0459693
-0.0205799
3.69482
7.72001
0.00839432
0.0347534
0.021339
0.0183662
0.157436
2.54706
6.87189
-0.675486
3.15519
7.87326
0.0274806
7.64598
6.99598
0.0334015
2.49225
-0.696074
1.44023
6.87043
0.00430695
0.0296639
7.63715
7.45242
0.0367117
7.879
7.62349
7.62442
7.62739
0.01665
7.62767
7.83032
0.0231766
0.0318267
6.02016
-0.0154833
7.31812
0.0323195
7.92059
7.63171
0.011445
7.62471
7.6276
6.96292
0.046237
4.65493
-0.00675473
0.0410092
7.88716
-0.197655
-0.0495085
0.0193862
0.00776321
0.280106
0.0146451
7.62805
0.0104465
0.0221975
7.87726
0.0289891
-0.000546324
0.0280026
0.0353203
0.028183
0.0271566
7.88699
0.0175
-0.03276
6.94279
0.0289344
0.0317793
4.85402
0.0420762
0.0292716
0.0227036
0.0235026
0.0321228
0.0362109
7.76591
0.0260701
0.0167752
8.22888
0.0121552
-0.00185222
0.0397848
7.62794
0.0494762
7.89183
7.62404
7.63777
7.62547
0.0312581
7.05589
-1.01961
7.86913
7.56397
0.0216196
0.0160836
7.87035
0.00817848
7.87033
7.87423
7.92296
0.0116021
0.0252028
6.9916
7.82132
7.62714
7.62736
-0.0427595
0.0239753
6.8111
0.0190468
-0.383748
7.63251
0.0266125
0.00276124
0.0845898
7.62258
7.62506
0.0309827
0.0346434
6.92659
7.62998
7.61235
0.0228333
7.87691
7.8699
7.62674
0.0227446
0.033577
7.62293
8.48165
8.214
0.150454
7.63191
7.62171
-0.00320433
-0.0515377
6.91125
5.95622
1.16174
0.00779751
0.00244582
7.59946
-0.00548033
0.0149169
7.62539
7.92032
7.62314
7.62597
7.63022
7.62239
0.0391583
7.87141
7.62384
7.68137
0.0305702
0.0195888
7.87737
7.93356
-0.00453621
0.0282124
0.0385036
7.86925
7.62451
0.0292302
7.87457
0.00918323
0.0220002
0.0449031
7.84992
7.8725
7.87235
7.62664
0.0497227
7.62463
7.62343
-0.0120436
7.87243
0.0410219
0.026139
7.64512
0.0381646
7.8443
0.0308255
0.0136029
-0.00542545
0.00234349
-1.25153
7.23869
0.0287204
0.000872555
0.000948384
7.79454
-2.08362
7.15094
0.0246465
7.62934
-0.00815628
0.00571125
-0.0116003
8.07812
7.87257
7.87537
0.0326746
7.31515
-0.0237406
7.45208
0.0331483
0.0348894
0.0122336
0.0276821
7.62205
7.64828
7.74736
0.0302801
7.62489
7.23646
-0.131688
7.62916
7.636
7.87395
7.62363
0.0128461
7.61061
7.6261
-1.55948
7.29756
7.64862
7.067
7.62611
-0.0167398
0.0162309
7.8714
0.0308619
1.03393
-0.0163657
-0.355378
0.0273259
7.63195
0.00992331
-0.00867384
-0.0154971
7.87427
-2.60456
0.0129206
6.48011
-0.00145935
-0.0915026
-0.07652
0.0147891
0.0286787
-0.113571
0.0389499
0.0300078
7.60531
7.63837
0.012979
0.00142344
7.63102
0.0155834
0.0223661
0.0243011
7.61996
-0.095009
7.62533
0.0220388
0.0158599
7.62254
-0.0648359
0.0295896
-0.13271
-0.0210689
7.57862
0.0271076
-0.126844
-0.0500676
-0.130342
-0.0176928
7.61575
7.63575
-0.00147639
7.62357
0.0453854
-0.0554186
6.72768
-0.447084
-0.799901
-0.27824
7.62354
6.39285
0.031382
7.87475
9.45874
-0.0253668
7.61729
7.6214
-0.69889
-0.836005
7.62373
-0.0959659
7.62594
7.62473
7.8765
7.87111
7.95448
7.87364
-0.0036362
7.62619
7.62978
7.63613
-1.41436
0.0363057
0.0149182
0.0323048
7.63686
7.62097
-0.0262787
7.6252
7.62513
5.82455
-0.0316356
0.0321643
7.62284
7.61728
7.63347
7.62147
7.57226
7.62033
-0.0498258
7.62667
-0.176256
0.0261331
7.62701
7.88292
7.93023
-0.0979733
7.9224
7.87376
7.64265
-0.185588
7.62434
-0.0429519
-0.045967
-0.153747
7.62057
5.2988
-0.0182345
0.0210075
7.66256
-0.172307
0.00531866
7.88146
7.59743
6.90137
7.61804
0.0298548
0.0254626
-0.0407132
-0.322009
7.62347
0.0325579
7.57572
6.83748
6.85845
7.62968
0.0307976
7.62534
7.94078
-0.0412913
0.0370974
7.93789
0.0181275
7.32217
-0.0607107
7.98518
7.62546
7.59789
7.87273
0.0278673
0.0335421
0.383336
7.62451
7.67217
0.0179601
7.62386
7.0814
7.87217
0.0137451
-0.31015
0.0598473
7.86281
-0.0480507
-0.0361497
8.24762
-0.035776
7.63032
-0.0192874
-0.00592717
0.0221853
-0.0629185
-0.154052
7.62447
7.62602
7.6256
-0.0478483
7.69748
-0.0841681
7.8767
0.755743
7.87196
0.0321106
0.0396373
7.94243
7.62309
7.9597
7.63641
-0.0860083
7.96778
6.90942
0.00713069
-0.0791702
7.91838
7.04672
7.71146
7.06765
7.62338
7.62429
-0.0775211
0.0262085
7.87308
7.86568
-0.601989
7.8786
-0.0772931
0.0261907
7.70569
-0.0127378
7.87268
0.0194374
7.63118
0.0304116
7.6223
-0.5539
-0.28134
-0.121062
-0.0188561
-0.0221045
4.70218
7.55178
-0.00966765
7.91687
0.0247673
7.87081
7.65537
7.62381
7.63678
7.66089
7.63101
-0.032984
-0.0443535
7.87294
6.65621
7.87861
-0.0313933
-0.0980487
7.86942
0.0362028
-0.1235
7.93065
0.0300625
0.0285427
0.0270397
-0.120458
7.62381
7.62374
7.65403
7.62379
0.0308242
7.55607
-0.0124207
7.62465
-0.0219432
0.035887
7.6286
-0.0301306
7.61733
7.62347
-0.0228731
-0.0594441
2.15347
7.62538
7.95393
7.6153
0.0324617
7.5136
7.92387
7.53177
0.889721
6.73644
-0.500237
7.03821
7.49533
7.76841
0.0223988
0.0103542
0.0288004
0.0319912
7.85898
-0.00718709
7.62643
7.6294
0.0195145
7.59914
-0.613254
-0.0179663
0.0340986
-0.0235237
-0.934339
0.0136347
7.62827
-1.39114
-2.94212
0.011226
-0.0126106
0.0286401
5.54592
7.86795
0.0170717
7.87643
7.62113
-0.214173
0.0169592
-1.06638
7.61013
7.45566
-0.0498696
7.93029
7.62321
-0.0291348
7.94908
7.93804
0.121236
-0.028815
-0.0689287
0.0570804
0.0313994
7.62635
7.62403
-0.247178
0.0353377
7.62437
7.9433
0.0497462
7.63394
6.61344
6.77124
6.80755
4.37941
6.63203
7.6259
0.0366554
7.61009
-0.0543672
7.62375
3.45083
7.68093
7.6465
7.62868
7.62447
0.0435867
7.62427
7.62394
6.92745
7.619
7.62927
7.622
0.0338732
7.64162
0.0289142
-0.059038
7.64872
0.0579908
7.62377
-0.007279
-0.180075
0.0196375
0.0281788
7.84601
0.0254308
0.0393874
-0.125203
7.87585
-0.0835921
0.0322036
0.0273192
7.33793
0.0190651
7.69327
7.627
7.62572
7.62294
0.0246676
7.62591
7.613
0.0211438
-0.110618
0.00949532
7.63829
5.44378
0.0468169
7.63097
-0.340328
7.92749
0.0148571
7.619
7.62171
0.0111357
7.6198
0.00387321
7.87578
7.62332
0.0347555
-0.0188921
0.0294132
0.0314097
-0.108023
0.026001
7.62372
8.0252
0.0279628
0.0341095
0.0394917
-0.0700956
7.62376
0.0307561
7.62345
7.79888
0.0185323
-0.043933
7.6347
0.0290108
7.61457
0.0240757
0.0363839
7.71229
7.62281
7.62674
0.0270334
7.62711
7.62562
0.0305486
0.0249828
-0.019753
0.0239895
7.64462
7.63771
0.028444
0.0430176
7.62851
0.0254796
7.70976
0.0213333
7.62384
7.62331
0.00691975
7.62332
-0.0035757
0.043682
7.62873
7.62222
0.017416
6.48402
0.0470664
7.87218
-0.0366421
7.88266
6.68209
6.4597
0.0409571
6.97381
6.89877
0.0237773
6.85766
4.26658
6.34351
7.68334
7.87731
-0.152646
0.0406899
7.66526
7.62407
0.0171898
0.0286074
7.63311
0.0287686
7.62205
7.8823
0.0225303
0.0115893
0.125669
7.62265
7.62714
7.6256
7.62366
7.61699
7.62021
7.61919
7.61774
7.62159
7.62123
7.62468
7.87869
7.6275
7.62187
7.62397
7.79407
7.62235
7.62292
7.62399
7.65239
7.81849
0.0351114
7.62605
7.62267
7.63808
0.0379501
7.63075
7.88232
2.96516
7.61112
7.519
0.0294237
8.24955
7.57459
3.49688
0.0246308
7.62522
6.76489
7.26219
7.62142
-0.00813675
0.0265338
0.0236842
0.0152553
0.0385466
7.90228
7.61642
0.025666
0.0316904
0.0140501
7.62114
0.0316641
0.00519053
0.0376736
0.0231626
0.0244055
0.0157965
0.029176
0.0268092
7.8871
0.0344327
0.0362038
0.0280625
0.0291758
7.625
7.62411
7.62539
7.87277
7.62259
0.033641
0.0352583
7.62801
7.62159
7.62197
7.82719
7.62402
7.8743
7.62797
7.87886
0.0392955
-0.199623
0.035921
0.0476154
7.59791
7.63789
-0.01167
-0.236058
7.62287
7.62429
0.0248199
7.8859
7.62469
0.0742814
0.00899629
0.0256277
0.0476468
-0.00862344
7.89864
0.0144832
0.0343924
6.91113
7.87607
0.022862
7.89543
7.63488
2.40205
1.29486
0.00727072
7.77447
7.85053
-0.0205644
0.0339967
0.0327433
0.0328384
3.40741
7.87241
0.00409599
8.23502
7.87471
7.56748
0.0164094
7.62352
0.0353715
0.00977112
0.0234402
0.0252966
7.88017
0.0435523
7.8762
7.46338
7.87421
7.86551
0.0243909
4.50194
7.62392
7.87301
8.35791
0.0344818
6.86085
0.0188177
0.0286142
0.0238554
0.0309974
7.83239
7.86771
6.64072
0.0284489
0.0328419
-0.895445
7.91979
7.87219
6.82697
-0.00174098
-0.0084417
7.62252
-0.0269976
2.50836
0.0271817
0.0263137
7.87258
6.64654
0.0185374
0.0332616
7.62616
0.0246268
0.0231329
0.0136459
0.00260854
0.0270338
0.0447486
6.9138
0.033654
0.0316621
0.0348128
7.97038
0.0290524
7.00001
0.0496415
0.0277426
7.87515
0.0226521
0.023373
0.0191203
0.0340866
8.74306
2.09014
-0.0289082
4.29179
0.0251311
7.64758
0.0243377
0.0248229
7.87989
7.62422
-0.341285
-0.0905244
0.0304418
8.73082
0.0235701
-0.180655
-1.13453
-0.058203
7.88029
7.89318
0.031651
8.34432
0.0318671
-0.191852
0.0242302
0.0348563
7.87251
0.0182341
0.0328491
7.87139
6.93905
0.0410136
7.88767
0.0331034
0.0370509
7.87359
8.78622
0.0345471
7.8725
7.62227
7.62726
0.0311572
0.0612877
0.0284337
7.92725
0.0250014
0.032247
7.68203
0.035122
0.023465
0.0270365
-0.102689
7.62372
0.026243
0.0552155
0.0350039
0.0232125
0.0292355
-0.132797
0.0430256
7.87192
-0.0489959
0.0247399
7.87223
0.0304663
7.63283
7.6258
7.87583
7.63714
7.87433
0.0233191
7.62711
0.0304999
-0.000295062
7.87664
0.0315734
7.81279
0.0197674
7.87889
-0.141631
7.65322
0.0221451
0.0245575
-0.161351
0.0471251
0.0261876
0.0337808
0.0307127
0.0427662
2.80294
0.0393182
0.0153888
0.0447949
7.87402
0.0491649
-0.0977904
0.0383803
0.0272449
-0.140896
7.87617
6.78011
7.87658
0.0284438
7.87187
6.17366
0.0272212
8.38853
0.0278823
7.86379
7.84129
7.62397
0.0274329
0.0600397
0.0271932
-0.0224997
0.0267585
0.0315172
0.0400751
0.0192545
0.0183469
0.0381769
0.0289793
7.8878
7.58013
7.86684
0.0299352
0.0370331
7.65848
7.62388
6.30935
0.0527133
0.0215059
7.87227
0.0309867
7.87025
-0.404194
0.0322957
-0.0435615
7.87346
7.87181
0.0204676
7.87235
0.0120612
0.0340306
7.46368
0.0314868
0.0297342
0.0288205
7.87153
-0.0870539
6.99196
-0.00690638
0.0255711
7.87503
7.88495
0.0308035
5.54089
7.90471
0.0387123
0.0331722
7.8727
7.85495
6.94782
0.0210244
6.29057
0.0278656
-0.0136479
0.0174099
7.8722
7.03656
-0.0151835
7.87094
7.63142
7.87451
7.87579
7.14686
7.72538
7.57207
7.87285
7.88936
7.30749
8.39677
7.64086
0.021598
7.65046
6.75835
6.39542
8.90436
6.89898
7.87229
-0.0131685
7.39236
7.70986
-0.0127905
8.20776
8.57143
7.78001
-0.022474
8.36602
-0.0114416
-0.0620835
0.0307752
7.17598
7.87526
-0.00319609
-0.42836
7.83503
7.86627
0.0327711
7.09722
0.0325888
7.02154
7.60805
7.73589
0.0312279
0.0346458
7.87112
0.0220475
7.90551
7.39082
-0.162298
0.049366
-0.0108481
7.62358
0.0339316
7.23258
-0.00637377
7.62415
7.87188
7.62251
6.99092
0.0470829
0.0389315
7.87484
-0.742891
7.88141
7.89451
7.8811
7.87348
-0.00539041
-0.0195636
0.0404361
0.00867762
7.83389
0.0262854
0.0252224
0.0413667
-0.0111952
7.676
0.0332396
0.0197932
0.00683317
-0.401605
0.034103
7.92345
0.000951479
-0.0040708
0.0349065
-0.00354172
-0.0263555
7.90228
-0.019168
7.77902
7.8765
0.0310228
7.88016
0.0405795
7.87014
7.93839
7.56059
7.8793
7.87403
-0.0270271
7.87794
0.00577631
7.20633
7.62959
0.0363473
0.0167511
0.0379645
0.00112736
7.89082
0.721304
7.87492
-0.00127867
7.93958
0.0297507
-0.00978645
0.00349618
0.0137281
7.96999
7.97693
7.87951
0.0348124
7.64059
7.86561
0.0304337
7.61404
7.6218
0.021511
7.96966
0.020498
-0.40816
7.15731
7.49974
7.43817
0.0187713
0.0257099
7.87256
0.00762405
0.00597576
6.99958
-0.000717923
7.8711
0.0270474
0.0386585
0.0447871
7.87469
0.0274019
0.0286237
-0.00727499
0.0167208
0.0250065
7.87418
7.87254
-0.0817051
7.86793
7.62137
7.87063
0.020773
0.00197842
0.0273219
-0.0225196
6.87921
0.0122283
0.0283501
0.0249423
-0.0452812
0.0343942
0.00107627
0.0302932
7.62362
7.62396
7.62375
0.0486974
7.62643
-0.0148614
5.26084
0.0202042
-0.532252
0.0145914
0.0166026
7.62151
7.8734
0.0211842
0.0204641
7.88733
7.61813
7.87465
0.0181525
0.0229306
0.0192244
0.0259801
0.0310095
0.0265602
7.87313
7.87398
7.87205
0.0410351
0.017583
0.00266787
0.0290681
0.0401308
0.0216407
7.84849
7.87227
6.35229
7.6651
0.0259979
0.0427216
7.86783
7.90572
7.87521
7.87625
7.83736
7.71659
0.0121075
7.87455
-0.0277858
-0.0888359
7.62964
0.0169475
0.027242
0.028515
7.91823
7.76266
0.0131921
7.8729
0.0111721
-1.17509
0.0264584
7.66663
5.95578
7.62318
7.87675
7.86833
7.60469
2.12907
7.88594
0.0269231
0.00532888
7.87537
7.87285
0.00947658
7.87865
7.62583
0.0233965
-0.176261
7.86168
7.86217
7.6722
0.0455998
7.8725
7.87223
1.18678
-0.00540734
0.00847613
7.87225
7.62898
7.20884
0.00408023
0.00866673
0.00653527
0.0208546
7.62325
0.0579682
0.0133088
-0.000130552
7.57123
7.86992
7.87211
7.82594
7.87263
0.0344779
0.0310707
0.00905327
7.89057
7.87301
7.87221
7.87
7.6951
-0.0173819
0.110209
0.0192088
7.62588
7.873
7.9275
-0.974236
-0.0212019
-0.0460089
7.62365
-1.91844
8.25554
7.83874
7.87155
0.0335916
0.0460221
7.8747
7.9066
0.0257546
7.87359
0.0211246
0.038254
2.7517
7.87048
7.67154
0.030346
-0.0384368
7.91035
2.55965
0.0553187
0.0464514
7.87393
7.87664
7.88294
7.88134
0.0278328
0.0319132
7.87688
-0.028294
0.00626618
0.230375
7.87279
7.87177
7.87318
7.87715
0.0247041
8.38251
7.87403
7.76783
0.0275822
0.00975977
0.0334482
7.84518
7.87271
-1.16976e-05
7.6248
7.87307
7.8748
7.87411
0.0317144
7.69572
7.60796
7.62549
0.0237571
0.0378876
7.86919
7.87471
7.85541
0.0286246
8.15123
7.8779
7.85743
7.87479
7.87419
-0.173704
0.0389245
7.91538
0.0332952
0.0302364
0.031143
7.87925
7.87569
7.87421
7.83455
7.62272
0.0460718
7.8737
7.38226
7.34286
0.00294086
7.65152
-0.00490931
7.87243
7.62785
0.00827259
0.317035
7.044
0.0142945
7.87501
0.00983136
8.13117
7.89132
7.9224
9.10314
7.87979
-0.015234
7.87046
0.0223829
7.62775
6.9459
7.87994
7.86786
0.0180078
0.051772
7.6235
2.66371
7.62404
-0.0555968
-0.0186258
0.03049
7.62872
-0.323904
-0.00514416
-0.0275616
0.0373635
-0.59391
-0.0111719
7.60209
7.62301
-0.718843
0.0283406
0.0166889
7.90932
7.52417
6.38419
3.27221
7.87519
7.62748
7.87522
7.87579
7.87667
8.30285
0.0531519
-0.049895
0.0383433
6.97065
-0.068142
7.87481
0.0246931
7.87199
7.88139
7.6254
7.71246
-0.0821015
7.69299
7.62074
7.87246
0.0290242
7.87104
7.87279
-0.0341747
7.8363
5.76053
4.9395
4.60319
7.87734
4.82185
4.66012
4.77129
5.47159
7.62288
7.62321
0.0230198
0.0056159
6.9685
7.14261
7.61918
0.018445
8.1897
7.72122
-0.0782853
7.87487
7.8729
-0.0169857
-0.0649186
7.83901
7.62376
-0.0069696
7.03506
7.61507
-0.374505
0.0207901
0.0650633
7.81161
0.0353439
7.87532
0.0237122
-0.367351
0.0299998
7.87298
-0.362574
0.0345893
7.96665
-1.01023
7.86443
0.0325321
7.53129
0.0398355
7.80418
-0.0260805
7.87368
7.58201
7.62701
-1.4391
-1.44659
7.88635
0.0235506
0.0337012
7.91995
7.87263
0.00547231
0.0197516
-0.0959761
7.88099
0.0294383
0.0238145
-0.0279804
-0.822965
7.8768
-0.143617
7.63171
-0.124629
7.87206
-1.7031
-1.97832
7.85288
0.030687
7.68436
-0.0217258
7.62274
7.85701
7.88552
7.89067
7.85102
7.85926
0.0168019
0.0393053
-0.128674
7.88204
6.34905
-0.116659
7.88037
7.83012
7.90538
7.86738
7.90399
0.0232091
7.8731
7.875
7.62283
0.0162596
7.85804
7.62429
7.54145
0.0385409
7.6251
0.0106145
-0.753149
-0.0334147
0.0361731
-0.0131653
8.21991
7.87772
7.87152
0.0713282
0.034817
7.55214
6.31454
0.0126297
7.87297
7.87618
-0.106569
7.86339
0.0303008
7.87487
-0.0102673
-0.0328023
7.88106
7.62246
7.87442
7.87552
7.87071
-0.00184715
7.87113
0.0138339
7.9431
7.8753
0.0290477
7.61961
0.0224301
7.77463
7.87272
0.00686972
0.0400351
-0.092019
7.87453
7.87493
7.87305
0.0385517
-0.0619974
7.95065
7.62309
7.64264
0.0184441
7.86609
0.0290857
-0.107777
7.87199
7.86843
0.0271888
7.8667
7.6449
7.62527
7.9587
7.6258
-0.125935
6.22277
7.64709
7.87378
6.38544
7.8681
6.60626
7.84683
7.86712
7.73774
0.0268953
7.7972
0.0166255
7.86019
7.86731
-0.0279773
0.0107568
7.8626
7.83397
7.87445
0.0313719
6.71302
7.87428
7.7331
7.87065
0.024818
7.86398
-0.152554
7.87505
0.00835244
6.92663
-0.00561565
7.88919
7.87069
0.0228467
6.5563
7.87986
0.0329266
0.00982472
7.89324
7.87563
0.0014017
-0.0342684
0.0256289
0.0221857
0.012175
0.0126158
0.0271218
-0.0167958
7.94826
-0.16254
6.27053
6.15643
7.87375
7.87106
7.871
0.0401999
7.87553
7.86872
7.87569
-0.0968925
-0.0211136
5.96284
-0.0179853
7.87636
0.00507807
7.6201
-0.0360515
0.0285468
6.34394
0.0202314
7.86609
7.84605
7.62428
0.0477149
0.00717388
7.87319
7.62526
0.0373537
7.87432
-0.105629
7.91483
-0.0564511
7.87222
7.62476
7.85334
7.62357
0.0295064
7.62379
0.303271
7.62793
0.0138695
7.87289
7.86913
4.33147
4.00761
7.89089
7.86957
7.87259
7.87367
0.0109131
-0.115244
5.22837
7.87731
0.0187151
7.62171
7.6351
-0.401102
0.0261814
-0.0420386
7.62493
0.0289785
-0.00154122
0.0351456
0.0288758
7.8729
7.87619
7.88041
7.87654
7.62481
7.62353
7.62425
7.84065
7.62526
7.62445
7.87245
7.6241
-0.0821604
7.6235
7.8727
8.62059
7.87492
7.87325
2.72612
7.62308
7.87198
0.00918537
-0.0651491
7.84873
7.85237
7.87305
0.0306411
7.661
7.86054
-0.0827065
7.62598
7.87329
7.869
7.87702
-0.0208264
7.62405
-0.145519
7.87706
7.85651
7.87161
7.87249
7.8699
-0.0772198
-0.117964
0.0280317
7.87515
7.64542
7.90989
-0.0953872
7.87233
-0.118346
-0.0507451
7.62278
7.85198
5.95336
-0.377964
7.8554
7.02651
-0.365414
6.03242
0.00868888
7.65785
-0.016867
5.99864
5.61967
7.87224
0.0173508
7.6259
0.00463703
-0.0304021
7.88131
0.0165939
-0.256119
7.87042
-0.0443258
7.62532
7.85663
7.86558
7.85252
7.86735
7.62188
7.87231
7.87272
-0.125174
7.11628
7.87285
7.87036
7.87113
7.87507
0.0315701
4.05668
-0.104443
-0.275631
7.87148
0.0310204
0.0203981
7.87282
7.00446
7.79597
7.86216
7.89923
7.96177
6.44442
7.17473
-0.0136657
7.87438
7.87861
6.10504
6.64165
7.62366
0.0107562
7.88024
7.63639
7.87491
-0.0539746
7.87709
7.62299
0.00353942
7.6247
7.58756
7.77228
7.92091
0.00362436
7.87374
7.87213
7.87197
7.85157
0.0055273
-0.0402684
-0.0313407
0.0146124
-0.00864918
-0.0170092
7.62567
6.5549
-0.136635
-0.0109911
6.54537
-0.123957
7.86886
-1.05777
7.64419
-0.063446
7.87487
7.62731
-0.00935215
-1.35582
7.87698
-0.0112973
7.87608
7.87637
-0.069779
-0.0330254
7.87305
7.62381
7.91711
7.62364
7.86948
6.86294
7.87435
7.87207
-0.0117262
7.87391
7.86859
7.87125
-0.00216102
7.8842
6.90479
7.62473
7.62355
7.30864
6.93172
-0.00376148
7.6265
6.94045
0.0185222
7.86682
-0.0207285
-0.00394953
7.87436
0.0138664
7.87148
7.46393
7.93514
6.79581
7.62837
7.85224
7.86625
7.87658
0.0335259
7.87549
7.87358
7.87215
7.74287
7.87217
7.79335
-0.093293
7.87241
7.87767
-0.0463521
7.87336
7.62478
7.62633
0.0450245
7.87455
-0.137001
6.71445
-0.355488
0.017043
7.62085
6.55012
0.0210461
6.28099
7.62485
-0.169968
-0.350984
-0.00257943
-0.0339202
-0.232051
-1.14021
7.65046
7.62758
0.0248272
-0.0751239
-0.0587198
0.033225
-0.366259
7.62398
0.0223421
0.0149987
0.0213807
7.62969
0.0238992
0.0245997
0.0325109
0.0196871
-0.0968212
0.0318231
0.0454027
0.0105973
0.0127324
0.0330628
0.0261359
6.91828
0.0917393
0.00629726
0.0158078
-0.00454641
0.0242061
0.0280725
0.0155531
7.07862
-0.0873462
7.02747
0.042896
0.027015
-0.0305662
0.0150543
7.01617
7.6222
0.0277587
0.0278201
-0.100522
-0.0383754
0.0289868
0.0157703
4.83891
0.0252677
7.8724
0.0266537
-0.0863656
-0.0253731
0.0400721
-0.114084
-0.148747
0.0165005
0.0184651
0.00875054
0.0399477
0.0183278
0.123539
6.14813
5.40802
0.0184933
7.87637
7.87306
0.0172417
0.0377222
0.0243738
7.8737
-0.049468
-0.0330055
0.0292823
5.59378
7.87189
-0.177687
0.00816603
-0.0929905
7.87637
0.0325822
7.87238
0.0200366
0.0135585
-0.0241635
-0.0234333
7.87219
7.87438
-0.0134703
0.0283206
0.0430302
7.86586
0.0202916
0.043375
-0.00631377
7.63244
0.036133
0.0496631
7.00821
0.0319002
-1.45584
-0.0804951
7.59032
-0.0385923
-0.0742601
7.87234
0.0226501
0.019408
1.41775
0.0063704
0.0285887
0.0263479
0.0387361
-0.0141388
-0.0218585
-0.200821
-0.0850014
0.0509802
0.0253467
0.002302
-0.148877
0.0331922
3.7889e-06
0.066675
0.0301595
-0.132623
0.0435972
7.87248
0.017377
0.00736216
-0.0800584
0.0427932
-0.0178903
7.6494
0.0153428
0.0346754
7.86792
-0.0514034
-0.0109563
0.0150781
0.0216387
0.0247296
-0.0447763
0.029965
0.00210921
-0.0298592
7.87208
7.87259
-0.0257634
7.63045
-0.022628
0.0181807
7.70576
0.0247971
0.000518162
0.0526242
7.87219
0.0344346
0.0220124
-0.0395851
-0.11678
0.0314527
0.0493061
0.0213845
0.0109873
7.87256
7.8552
-0.0703224
-0.0116145
-0.0356826
0.0344724
7.85488
-0.0116769
0.034365
7.70622
0.0133833
0.0272373
-0.0821884
-0.188158
-0.00896115
-0.0198976
0.0421907
0.00734575
7.63544
0.0232353
0.0137207
0.0191435
-0.173706
7.85609
0.000139304
8.01226
7.8732
0.0240746
0.00635197
0.0169704
0.153721
-0.0935812
1.50034
7.62669
-0.0124557
0.0444521
0.0782468
0.0213759
7.87944
7.62855
7.61804
0.0104998
0.0154048
-0.199795
0.0344263
7.62697
7.85938
0.00282777
0.0177758
-0.0200956
0.025708
0.0205898
0.0439384
-0.027371
4.38401
7.62272
0.0142248
0.0243565
7.85886
0.0134123
0.0394574
-0.0458435
0.0274437
0.0242106
-0.0188953
7.85904
0.0383524
0.0212293
7.62875
7.64344
0.0293887
0.0804633
0.0183576
0.0229247
0.0327016
0.0275323
0.0365227
0.0394826
0.03699
0.0159299
7.85486
7.84725
0.00994676
0.0332575
0.031904
-0.072334
0.0349403
0.0105793
0.0170695
0.0355836
0.0310612
7.62624
7.63586
-0.086644
7.85359
6.86467
0.0281265
0.0314282
0.0151626
-0.0690597
7.17252
-0.0124271
-0.0538447
7.30318
-0.0751683
-0.18166
0.0342052
0.0364981
0.0208047
0.0421632
-0.118573
0.02298
7.87285
7.24628
-0.0549957
0.0317647
0.0172851
0.0308224
-0.0850621
-0.0119252
-0.0843683
7.27231
0.0403482
0.0558353
0.0271895
-0.0957387
-0.0161433
-0.070034
-0.175829
0.0178979
0.0257314
7.16437
0.0163109
0.0416606
2.80779
6.80044
6.25025
0.050691
6.64531
0.0142105
0.0362683
0.0178358
0.0389654
-0.0834644
5.0561
3.06173
8.06552
6.73466
-0.023705
7.62348
7.62318
-1.2539
7.87049
0.0379534
0.0241243
0.0489694
0.0311518
0.0325543
0.0220056
6.28021
0.028622
0.0272148
-0.00988644
0.0305265
0.0436852
0.028639
7.62381
-0.1774
0.0382328
-0.076384
7.62367
0.0109623
0.0100468
7.62357
7.86433
-0.0575011
0.0274032
7.90862
0.0298948
0.031845
-0.0606954
7.87397
7.62346
0.021719
-0.181097
0.039219
7.62374
7.61065
7.62365
0.0151345
2.56851
2.33947
0.00302512
-0.341944
7.88208
0.0322123
-0.319184
0.0316775
0.0250329
0.00851587
0.0244426
-0.470633
0.0298761
7.67606
0.0176313
0.0431539
0.0183795
0.0314542
0.0164641
0.0374306
0.020085
0.012409
0.0306215
-0.0387804
-0.356378
0.0266538
-0.0615079
-0.106413
-0.425025
0.0115369
-0.339866
0.0217388
0.0306361
0.0297717
0.0441528
-0.0305468
0.0393621
-0.346836
0.0284974
7.47903
0.0254024
3.83051
0.0251493
0.0102976
7.62945
0.00371633
7.47859
0.0130907
7.50651
7.90391
0.0551707
-0.00481727
6.85702
0.0277191
0.0321882
-0.00307808
7.86019
7.87462
0.0381939
0.00740946
-0.153078
0.0285835
0.0357764
-0.00426572
-0.0391289
0.0111903
0.00293217
6.51211
0.0244805
7.62355
7.81505
0.039074
0.0353414
-0.0700553
0.0378734
0.0364037
0.0105987
-0.000873543
7.78137
-0.0861253
0.025616
0.00771568
7.79389
7.88078
0.0247786
0.0159079
6.16558
-0.0197414
0.029461
0.0184832
-0.133697
0.0367112
0.0342194
7.86368
4.58574
0.030986
-0.0494306
7.69353
0.0480791
-0.0257985
0.00600212
-0.0904074
0.0256026
-0.120432
0.0244598
-0.0154191
4.85042
-0.0244269
7.87378
0.0170642
-0.000107366
0.0343697
0.00985788
6.5847
0.0147726
-0.0548933
0.00575714
-0.0846903
7.42657
7.62367
0.0389475
-0.0489078
0.0154228
0.0214337
-0.0200466
0.0280892
-0.00117357
0.0209513
0.0429629
0.0272754
-0.0273994
7.04242
-0.102786
-0.00357361
-0.000652831
-0.0172746
7.23748
7.62243
-2.35226
-0.089784
8.16021
-0.116223
-0.00356875
7.37037
5.01557
5.4653
-0.0233499
0.0322994
0.201917
5.84809
-0.0546713
0.0415701
7.61693
0.228186
6.88988
0.00526275
0.0284591
7.65839
-0.0265506
-0.00384305
-0.00773639
0.0326271
7.6226
-0.240817
-0.019269
-0.0528745
0.00172255
0.00350409
-0.0188165
0.010539
-0.146054
-0.00207993
0.025119
0.0316348
7.87177
6.45804
6.56047
7.72679
-0.0110136
0.0359777
0.0401604
-0.0417872
0.0260538
0.0382143
0.0111203
0.000516215
0.0032139
0.0307458
0.00602345
-0.0632854
0.021579
0.030607
7.87299
-0.0204287
-0.0395799
0.00297662
0.0106117
7.60989
0.0137423
0.0163613
0.0523953
0.019492
0.0264265
7.64103
0.0368252
0.0252521
6.88094
0.0376776
0.0102314
7.7208
0.0124312
7.71214
7.62435
0.0151268
-0.0409899
0.0130467
0.0272795
7.62535
0.0366621
-0.0179681
7.62865
0.0395071
0.0258569
0.0299043
0.00671816
7.75183
-0.0119267
-0.00682115
0.0274211
7.70386
0.0538758
0.0237355
0.015827
0.0350992
0.0234428
7.90197
7.46281
7.06964
0.0272648
7.19851
0.038255
0.0232789
0.0272865
7.84267
0.0239713
7.6641
7.87359
7.81672
0.0352058
-0.012327
-0.180909
0.0213642
0.0442466
7.51851
6.88684
-0.0184198
-0.0244211
0.0439619
-0.139794
0.0342951
-0.37296
7.87579
5.74417
5.85838
7.62215
5.93453
0.0184029
7.87274
0.0469069
0.00944664
0.0372022
0.0162849
0.0323018
6.3267
0.0101766
0.022043
0.00374987
-0.0220274
6.36773
7.87456
-0.00304346
0.0266819
-0.269908
-0.5176
-0.0840412
-0.125775
-0.234137
-0.170692
0.0473648
0.0115578
0.0378929