/*--------------------------------*- C++ -*----------------------------------*\
  =========                 |
  \\      /  F ield         | OpenFOAM: The Open Source CFD Toolbox
   \\    /   O peration     | Website:  https://openfoam.org
    \\  /    A nd           | Version:  10
     \\/     M anipulation  |
\*---------------------------------------------------------------------------*/
FoamFile
{
    format      ascii;
    class       volVectorField;
    location    "17";
    object      U;
}
// * * * * * * * * * * * * * * * * * * * * * * * * * * * * * * * * * * * * * //

dimensions      [0 1 -1 0 0 0 0];

internalField   nonuniform List<vector> 
111485
(
(1.4586 -1.45847 0.000514469)
(4.27714 -0.0101915 -0.0256727)
(4.21015 0.0110679 0.0127386)
(1.45807 -1.45835 0.000133397)
(4.37351 0.0207515 0.000299343)
(1.53812 1.53696 -0.000175205)
(4.29619 0.0129718 0.00123777)
(4.42627 -0.0131473 0.00541296)
(4.29329 -0.00215106 0.00353926)
(4.40794 -0.0479328 -0.0194427)
(4.23387 0.0101554 0.0127438)
(4.42945 -0.0119232 0.0204857)
(4.17048 0.00390112 0.00950167)
(4.23224 -0.00903046 -0.0296652)
(4.27261 0.0172891 0.00878801)
(4.37596 -0.0299911 -0.0229311)
(4.31337 -0.00505573 0.00700172)
(1.51176 -0.100722 0.218153)
(4.37989 0.013495 -0.00948012)
(1.45491 -1.45327 6.56481e-05)
(1.45658 -1.4562 -0.00136952)
(1.53955 1.53925 -0.000219724)
(4.33362 0.0164197 -0.00380969)
(4.41516 -0.0290532 -0.00996458)
(4.33322 0.0132962 -0.00329573)
(1.46848 -1.46303 -0.0021873)
(4.44712 -0.021484 0.021517)
(4.21613 -0.0079853 0.00161872)
(4.39594 0.00658651 -0.0112845)
(1.45644 -1.45637 -7.95624e-05)
(4.44086 0.0688391 -0.0176447)
(4.3902 -0.00993163 0.00128316)
(1.45152 -1.45412 0.00202509)
(1.53895 1.5424 -0.00352557)
(1.5424 0.651024 0.244715)
(1.54869 1.55932 -0.0225641)
(4.41816 0.0687793 -0.0272147)
(4.28134 0.00992511 0.0393887)
(4.39241 1.33629 0.074348)
(4.38777 0.0211034 0.00123465)
(1.52154 1.53554 -0.0108322)
(4.4269 0.00718063 -0.0273665)
(4.38755 0.0217352 0.00740108)
(4.21675 -0.025738 0.00173448)
(4.41365 -0.0750642 -0.0383827)
(1.45922 -1.44735 0.00533682)
(4.42299 -0.0188333 0.0180767)
(4.40842 -0.0277135 -0.00903184)
(4.42924 0.000840739 -0.0226491)
(1.44829 -1.42945 0.00793133)
(1.44507 -1.43167 0.00835022)
(1.74802 1.47139 0.0265065)
(1.44008 -1.43521 0.00481836)
(4.41925 0.0198524 -0.035835)
(1.43679 -1.43153 0.000812356)
(4.36839 0.0114737 -0.00515413)
(4.37463 -0.0192771 -0.0104548)
(1.54086 1.53784 0.000968152)
(3.99294 -0.00819053 -0.0700266)
(4.39355 0.0183371 -0.00253711)
(4.39178 0.02025 -0.000801015)
(1.45369 -1.45682 0.00215148)
(4.09163 0.00419622 0.0267816)
(4.44289 -0.0117575 0.034134)
(1.59314 1.44501 0.00376394)
(4.00788 0.00921613 -0.00874095)
(3.08351 -0.240215 0.10594)
(4.40508 -0.0158364 0.00606628)
(3.97974 0.0015229 0.0154569)
(3.76602 -0.00590092 0.00298691)
(4.24583 0.0354535 -0.0137869)
(3.93853 -0.0107429 0.0214973)
(1.57852 -1.42242 -0.0315863)
(4.04545 0.00655165 0.0315096)
(1.458 -1.4572 -0.000145409)
(4.38904 -0.0101459 0.00822531)
(1.53931 1.53969 3.11147e-05)
(4.41876 -0.00922568 0.0229522)
(1.53913 1.53801 2.77473e-05)
(1.39486 1.36356 -0.04479)
(4.26903 -0.064114 0.0430871)
(4.41811 0.0152464 0.00150993)
(1.53685 1.53425 -0.00011001)
(1.458 -1.4577 0.000757066)
(4.14514 -0.000440023 0.00921411)
(3.97499 0.0110682 -0.0177077)
(3.41799 2.22125 -0.594303)
(4.36446 0.052349 0.00492452)
(4.20583 0.106381 0.0908178)
(4.26826 0.00644127 0.0146098)
(4.50235 0.0881556 -0.0560443)
(4.37131 -0.00766037 0.00689909)
(4.09483 -0.00701842 0.0140097)
(4.17701 -0.0047059 0.00510884)
(4.42941 0.0144531 -0.0247243)
(1.45817 -1.4577 -0.00026091)
(1.45765 -1.45739 0.000684541)
(4.36198 0.0487199 0.0154977)
(4.49177 -0.883075 0.0633922)
(4.08493 0.0141665 0.0266231)
(1.45823 -1.45797 0.000456226)
(4.38245 -0.0232255 0.00195831)
(1.54732 1.55008 0.00856225)
(4.34954 0.000644626 -0.00250009)
(4.32527 -0.0236713 -0.0285623)
(1.51044 1.35316 -0.0313086)
(1.53956 1.53925 -0.000213047)
(4.39723 -0.0133671 -0.00133878)
(4.04903 -0.0222801 0.00488048)
(3.88339 -0.114776 -0.120399)
(4.14067 -0.00388939 0.00906616)
(4.36221 0.00631834 -0.00271745)
(4.06314 -0.00214448 0.0156105)
(3.99806 -0.0200191 0.00917357)
(1.47151 -1.46401 0.000509731)
(3.85801 -0.00518966 0.0118335)
(1.46344 -1.45854 -0.00220329)
(1.54757 1.54114 0.0062621)
(4.28956 0.0181632 0.0136841)
(1.45768 -1.45673 0.000539728)
(1.4696 -1.46347 -0.00161244)
(2.02331 1.59408 0.0958356)
(1.53038 1.53525 -0.00299674)
(1.54405 1.54029 -0.00355115)
(4.19144 -0.00960561 0.0191548)
(1.16823 -0.822969 -0.216708)
(1.93023 1.66199 0.0580427)
(3.89637 -0.00112452 0.0187189)
(1.4578 -1.45714 -0.000453456)
(4.40545 0.329329 -0.119763)
(4.40107 0.0805831 -0.0425969)
(4.354 0.049778 0.0160092)
(1.45407 -1.45052 -0.00697493)
(1.98196 1.72668 0.173474)
(1.85209 1.65384 0.0775365)
(4.39544 0.0139357 -0.00726792)
(1.54005 1.54027 -0.00041223)
(4.37099 0.0108458 0.000867249)
(4.3389 0.0167236 0.00803012)
(4.27388 0.0185475 0.0157696)
(3.35504 0.000394128 0.0146542)
(4.38377 0.0231104 0.00436337)
(4.34571 0.0270191 0.0154874)
(4.12995 0.00360133 -0.0181154)
(4.31527 -0.00876384 0.00421899)
(4.27058 -0.000604543 0.00822864)
(1.54028 1.54055 -0.000369933)
(1.45777 -1.45787 0.000110593)
(1.53718 1.53792 0.00284895)
(4.37136 0.0175115 0.00224931)
(4.13156 0.00703087 -0.0163503)
(1.45656 -1.45553 0.000540552)
(2.86882 -0.0165931 0.0281733)
(4.26461 0.020441 0.00989223)
(4.67325 0.186037 0.0836493)
(4.39461 0.012583 -0.0087813)
(4.37152 0.0136734 -0.00323726)
(4.05952 0.000359089 -0.00550649)
(4.71505 0.229478 0.0574628)
(1.45033 -1.46388 0.00580425)
(1.45602 -1.45739 0.00124348)
(4.38361 0.0124267 -0.00951142)
(4.29707 -0.0149101 -0.0153843)
(4.74546 0.258625 0.0621553)
(4.67968 0.226719 0.0852508)
(4.08794 0.00768192 0.0214338)
(4.37742 0.0533102 -0.0196042)
(1.52178 1.53442 0.000348707)
(4.80255 0.320607 0.0770059)
(4.57833 0.228946 0.0704969)
(1.53904 1.53984 0.000388102)
(1.45634 -1.45606 -0.000204916)
(3.51499 0.00407577 -0.02629)
(1.53986 1.54061 9.8793e-05)
(4.35197 -0.0096643 -0.00168084)
(4.18387 0.0027737 -0.00994307)
(1.54003 1.50455 -0.00712501)
(1.57427 -1.44403 0.0132667)
(1.46132 -1.45363 -0.00243062)
(1.51629 1.43265 -0.0141676)
(1.58485 -1.45876 0.0248369)
(1.45609 -1.45711 0.00094973)
(4.36451 0.0172749 0.00453902)
(4.36196 0.0109597 -0.00819605)
(4.34689 0.0143952 -0.00376515)
(4.31216 -0.0101305 0.0156055)
(4.14252 -0.00932945 0.00328336)
(4.15985 0.00875656 0.0139963)
(3.68879 0.0466796 0.00506838)
(1.45716 -1.45195 -0.000145885)
(4.04068 0.000909653 0.00407765)
(1.57057 -1.45809 0.014536)
(1.46998 -1.47245 -0.00083501)
(4.1996 0.00962702 0.0145473)
(4.40973 -0.0538191 -0.0193064)
(4.36001 0.00965211 -0.0197797)
(4.19008 -0.00421579 0.00652225)
(4.25521 -0.00220841 0.00520293)
(1.4553 -1.45263 0.00322047)
(4.17844 -0.0197933 0.00384389)
(4.17423 -0.0055237 -0.0259555)
(2.9211 0.935173 0.122938)
(4.27549 -0.0329075 0.00276837)
(4.33568 -0.00748157 0.00403373)
(1.46311 -1.45503 -0.00217997)
(4.18229 0.0121376 0.0149447)
(4.37698 0.00933705 -0.00333052)
(1.59693 -1.44231 0.00575781)
(4.2052 0.0103016 0.0152086)
(4.40964 -0.00526619 0.025256)
(4.12997 0.00374446 -0.0188535)
(4.17165 0.0106676 0.0190403)
(1.58238 -1.46303 0.0196667)
(1.45683 -1.45726 -0.000216854)
(4.1725 0.0106189 0.0189357)
(2.73363 1.7175 -0.169166)
(4.46088 0.0193264 -0.0425057)
(1.53937 1.54017 -0.000882182)
(4.19682 0.00786819 0.0160845)
(4.18777 0.00661275 0.00476591)
(4.43528 -0.0143552 0.0274161)
(1.45938 -1.45866 0.000598038)
(3.91367 -0.000223954 0.0110246)
(4.39167 0.0615301 0.0304029)
(2.41672 1.62626 -0.17679)
(1.54005 1.54013 -0.00118886)
(1.53901 1.53979 0.000377723)
(4.49002 -0.0285986 0.0408065)
(4.19162 0.0992675 -0.0105775)
(1.62062 1.36997 -0.0306363)
(1.81184 -1.40251 0.055341)
(4.20275 0.00320535 0.00561914)
(4.33098 0.00832869 0.000694091)
(4.39957 0.0110694 0.00242805)
(1.59855 1.3946 -0.0403701)
(1.54111 -1.42485 -0.00546059)
(4.2259 0.0483331 -0.0561303)
(1.45781 -1.45741 0.000873032)
(4.00028 0.00456164 -0.0239834)
(4.15303 0.00458412 0.0135522)
(4.20009 0.00163486 0.00746501)
(4.20792 0.0105953 0.00890503)
(4.22378 0.00854614 0.0119628)
(1.53539 1.53544 0.00486863)
(3.18645 -0.0101212 -0.12291)
(4.2867 0.0106761 0.016439)
(1.53253 1.53557 -0.00202062)
(1.53902 1.53978 -0.000217044)
(4.46085 -0.0531714 -0.00457901)
(4.36133 0.0183732 -0.00733859)
(1.57786 1.34787 -0.0412224)
(3.96701 -0.00243415 0.0120512)
(4.26986 0.0117789 0.0127098)
(1.45838 -1.45755 -0.000499971)
(1.94716 1.83441 -0.0119367)
(4.39193 0.0381491 -0.0169031)
(1.46184 -1.44298 0.000656509)
(1.61775 -1.14567 -0.0276815)
(2.23704 -0.781283 -0.0794208)
(1.4588 -1.45485 -0.000216578)
(4.28797 -0.00766282 -0.00773888)
(4.17111 -0.00748816 -0.0103161)
(4.35025 0.00704792 -0.0126128)
(1.45726 -1.45748 -8.04328e-05)
(4.30903 0.0131253 0.0111528)
(1.45811 -1.4584 0.000134729)
(1.45807 -1.45875 0.000262501)
(1.45567 -1.45024 0.00250607)
(2.94449 0.0107443 -0.0453972)
(4.41274 -0.0206892 0.0245702)
(4.21605 0.0150527 0.0196931)
(4.28385 0.0139677 0.0108342)
(4.44602 -0.0286734 -0.000815807)
(4.26003 0.00960349 0.00961879)
(4.3779 0.0159539 0.00565811)
(4.40088 0.0724833 -0.00714494)
(4.29905 0.009493 0.000578748)
(4.34198 0.0101624 0.000636429)
(1.56445 1.53899 -0.000835342)
(1.45609 -1.45593 -0.00162591)
(2.68856 0.0164881 -0.0651795)
(4.36497 -0.0101904 0.00137648)
(4.41548 0.0336709 0.0373183)
(4.15362 -0.00519006 -0.00743882)
(1.45785 -1.457 0.000364044)
(4.35779 0.0132675 0.00838115)
(4.38049 0.021559 0.0103934)
(4.27323 0.00824943 0.00714989)
(3.76572 -0.00382553 -0.01804)
(3.94446 -0.0436082 -0.0978874)
(4.33888 0.0149575 0.00252447)
(4.26452 0.0111985 0.0096567)
(4.35382 0.0321841 -0.0195338)
(1.54056 1.5406 0.000173693)
(3.98822 0.0208711 -0.000574147)
(1.5391 1.53959 -0.000569358)
(1.25704 0.963658 -0.196399)
(1.64339 -1.04876 -0.106421)
(4.51957 -0.0408625 0.0570586)
(4.44826 -0.0288525 -0.000945877)
(4.34304 -0.00192266 0.000224398)
(1.46018 -1.4566 -0.00053606)
(1.53471 1.5434 0.0124823)
(4.34917 0.0145655 0.00825761)
(4.16256 0.00769832 -0.00669789)
(1.45723 -1.45626 0.000112554)
(1.45851 -1.45771 0.00131778)
(1.42771 -1.43507 0.0111844)
(4.1376 0.00599141 -0.00316076)
(4.32308 0.00598561 -0.00518277)
(4.12765 0.000740894 0.0147514)
(3.98873 0.00666953 -0.0228203)
(4.40803 0.0103218 -0.0102086)
(1.76258 1.51695 0.0400966)
(1.5367 1.54032 0.00302246)
(1.45808 -1.45592 -0.000864838)
(4.33441 0.0145342 0.0119323)
(2.80492 -2.37179 -0.168651)
(4.13079 -0.0047601 0.00415017)
(4.4884 -0.0313322 0.0953078)
(3.61492 0.00224572 -0.0739995)
(1.53967 1.53968 -0.000184382)
(1.45651 -1.4579 0.000789531)
(1.45813 -1.45897 -0.00080637)
(1.93905 1.62897 0.098533)
(4.3835 0.0143148 -0.00056465)
(4.42476 -0.025318 0.00149793)
(1.54351 1.54731 0.000553757)
(4.34607 0.0116062 -0.00127733)
(1.62652 1.32092 0.0919267)
(1.46539 -1.44889 -0.00215309)
(4.45538 -0.0156055 0.0361783)
(4.33944 0.0154147 0.0069206)
(4.44243 -0.00678606 0.0108471)
(4.34931 0.0120906 -0.000935511)
(1.48597 1.32061 0.0790056)
(1.9199 1.65334 0.104931)
(1.53696 1.53904 -0.00236887)
(4.34276 0.0149789 0.00589348)
(4.3388 0.0130349 -0.000270486)
(4.42393 0.0748011 -0.0244022)
(1.52669 1.52363 0.00337351)
(3.03621 2.69213 -0.640992)
(4.14432 0.0403758 0.0367268)
(4.42173 -0.0209756 0.0107744)
(4.36058 0.0164116 0.0104989)
(4.13995 0.425395 -0.0347891)
(4.40612 0.0105443 -0.0101927)
(1.53666 1.5366 0.000311146)
(4.40946 0.0121831 -0.00863747)
(4.23208 0.00553084 0.00850154)
(4.46423 -0.103408 -0.000418635)
(4.46822 -0.0264052 0.0531355)
(4.33167 -0.0331379 -0.0298301)
(1.53495 1.54142 -0.00601833)
(1.45662 -1.45843 -0.00270721)
(1.54308 1.53476 0.0056361)
(1.4487 -1.4528 -0.000536614)
(4.41844 -0.0213809 -8.28252e-05)
(4.39252 -0.00791066 0.00278367)
(4.36695 0.020505 -0.0143436)
(4.4025 0.0123355 -0.0130115)
(1.53033 1.53193 -0.00638586)
(4.3642 -0.0286936 -0.00946341)
(1.53812 1.53884 0.00059905)
(1.45166 -1.456 0.000246308)
(4.40443 0.012491 -0.00948638)
(1.34512 -1.34685 0.0196417)
(2.42137 -0.424078 -0.0351385)
(1.44198 -1.43657 0.00128387)
(1.55375 1.53308 0.0122383)
(4.35659 0.00820434 -0.00575603)
(1.53995 1.53912 0.000607878)
(4.31463 0.010939 -0.00316744)
(4.0991 0.00238747 -0.0190475)
(1.54091 1.54079 -0.000342029)
(3.95914 -0.0017304 -0.0195351)
(4.28551 0.00689045 0.007917)
(1.55019 1.36162 -0.0501817)
(4.27988 0.018926 0.0193865)
(4.03667 0.0206071 -0.00314427)
(4.30332 0.0239791 0.00642326)
(4.00513 0.0152927 0.0495297)
(4.34602 0.0128347 0.0020493)
(4.14271 0.000602842 -0.00943979)
(1.51904 1.30185 -0.00563469)
(1.45706 -1.45163 0.00547147)
(3.72088 0.00833369 0.0882793)
(1.52992 1.53517 -0.00887081)
(4.29516 0.0224861 0.0198933)
(4.45731 -0.0227331 0.0434483)
(1.55127 1.48384 0.0124575)
(1.53677 1.54314 -0.000299744)
(4.40737 -0.00917493 0.00315952)
(4.24269 -0.0193851 -0.0389566)
(4.26008 0.0223242 0.0024423)
(4.42309 0.00896465 -0.00207788)
(1.53956 1.5379 -0.000407212)
(4.47696 -0.0130701 0.0705239)
(4.40539 -0.0150995 0.0219688)
(1.54285 1.53999 2.54665e-05)
(4.32837 0.0657439 0.0535067)
(4.12594 -0.0170075 -0.0426874)
(1.45703 -1.45593 -0.00026332)
(1.45697 -1.45678 0.000260217)
(4.31102 0.0138775 -0.00383443)
(4.32807 0.00417843 -0.00603312)
(1.5468 1.54708 -0.00198743)
(1.46022 -1.45557 -0.00153263)
(2.58071 -1.38803 0.315778)
(1.45773 -1.45867 0.000533855)
(4.32917 -0.00257654 0.00919148)
(1.53192 1.53686 0.00364002)
(1.45817 -1.45855 8.29315e-05)
(4.44381 -0.00492941 0.0144477)
(4.02122 -0.0473152 -0.114703)
(4.39673 -0.0246077 0.00638363)
(4.23575 0.000209126 0.00802245)
(1.54139 1.54034 4.8046e-05)
(1.99557 1.54115 0.0745864)
(4.24146 0.0540293 0.0796698)
(1.87102 1.65306 0.0870727)
(4.2251 0.0184611 0.0331133)
(4.20845 -0.0346446 0.00346526)
(4.38753 -0.0120655 -0.0105542)
(3.06093 0.103105 0.107329)
(1.83816 1.58535 0.0777358)
(4.4011 0.00771212 -0.0413925)
(4.44598 0.134073 -0.0452311)
(1.45613 -1.4589 0.00247029)
(4.42816 0.0112782 -0.0429391)
(4.43697 -0.0214132 0.0160152)
(1.45991 -1.45957 0.00153222)
(4.2789 0.240349 -0.133908)
(3.74408 -0.000829109 -0.052667)
(1.94121 1.52843 0.0625923)
(4.41194 -0.00866937 0.0187671)
(4.36135 0.00622299 -0.00621165)
(4.34956 0.0119768 -0.00224622)
(1.53918 1.53804 -0.000421642)
(4.33817 -0.00695197 0.0298276)
(4.43505 -0.00393479 0.0144611)
(4.32146 0.0417153 -0.00452031)
(2.72892 -0.0367244 0.0461157)
(1.87077 1.76695 -0.0370688)
(2.57063 -0.0652422 0.0846858)
(1.4564 -1.45818 0.00102252)
(3.99475 -0.130084 -0.129086)
(4.33922 -0.00756746 -0.0285025)
(1.54046 1.53942 0.00215459)
(4.11284 0.00967156 -0.0307996)
(3.39846 -0.00835942 0.0609393)
(1.99376 1.76429 -0.0184382)
(1.45815 -1.45718 0.000160118)
(1.70903 -1.44881 0.0458185)
(1.45775 -1.45718 0.000111409)
(4.31535 0.0231839 -0.000394304)
(4.34779 0.022652 -0.00759277)
(4.29215 -0.0132645 -0.0121581)
(4.03682 0.0101829 -0.0226295)
(4.40086 -0.0899186 -0.0180636)
(1.53921 1.53331 -0.00320587)
(4.26802 8.94477e-05 -0.00941986)
(1.46153 -1.45078 0.000499884)
(4.22272 0.0163404 0.00971176)
(1.5445 1.54413 -0.000890915)
(1.4571 -1.45598 -1.88206e-05)
(1.44616 -1.4502 -0.00204608)
(4.14931 -0.0283963 0.0061403)
(1.45466 -1.45518 -0.000960066)
(1.45849 -1.45808 0.000463974)
(1.51612 1.01281 -0.0631194)
(1.45796 -1.4591 0.000460384)
(1.52484 1.54593 0.0143685)
(4.25364 -0.014966 -0.00650575)
(1.54105 1.53884 0.000630634)
(1.82297 1.34799 0.00218272)
(1.54124 1.54127 0.0016446)
(1.45579 -1.45171 -0.00100502)
(1.54071 1.53689 -0.00104841)
(1.45383 -1.44642 -0.00761856)
(1.53553 1.53535 -0.000227062)
(3.87657 0.000179664 -0.0326293)
(1.54321 1.53485 0.00630099)
(3.9791 0.0555211 0.0784774)
(4.34694 0.00425327 0.000811832)
(4.49195 -0.163371 -0.0228098)
(1.54128 1.53451 -0.000443578)
(3.78916 0.0117441 0.0615399)
(1.54303 1.53746 0.00178782)
(1.45816 -1.45901 -0.000710315)
(4.30179 -0.0414163 -0.0458717)
(4.29868 -0.0345519 -0.0351742)
(4.29553 -0.00931425 -0.0121284)
(4.49068 0.0119641 -0.0751092)
(1.76736 1.48831 -0.0480622)
(4.39504 0.00381983 -0.0229061)
(4.39424 0.00205486 -0.0207654)
(4.35308 0.00955016 4.89998e-05)
(4.28534 0.00487199 0.000843647)
(4.37014 -0.0445613 -0.0290795)
(1.45492 -1.45517 -0.000543985)
(4.35935 0.00779795 -0.00139061)
(2.0107 1.75139 -0.011723)
(4.33339 0.00793546 -0.00909745)
(1.54004 1.53892 0.000245509)
(4.41716 0.0156712 -0.0240347)
(1.9892 1.65253 0.0154947)
(4.3569 0.00429604 -0.00605045)
(4.36283 -0.0201793 0.015902)
(1.68426 -0.842471 -0.0097714)
(1.54242 1.54417 0.01694)
(4.29228 0.00775381 0.00685193)
(1.45788 -1.45679 0.000162652)
(4.4313 0.0184052 -0.0258722)
(4.39658 0.0219214 -0.0179844)
(1.53966 1.53547 -0.0125683)
(1.5377 1.53697 0.00371369)
(1.50769 1.35141 -0.0383995)
(1.53907 1.5401 0.000917517)
(3.08151 -0.16388 0.0822572)
(4.43373 0.0160281 -0.0255471)
(1.55942 1.52297 -0.00111414)
(1.53727 1.54001 0.00178373)
(3.79456 0.00211841 -0.0109293)
(1.54009 1.5399 -6.95013e-05)
(4.36568 0.0150539 -0.0175002)
(1.53988 1.53913 0.000116366)
(4.32592 -0.026563 -0.018279)
(1.45871 -1.45839 0.000522689)
(4.06522 -0.0216106 -0.0601373)
(3.36407 -0.0127179 0.00472789)
(4.06385 0.0123258 -0.00967045)
(4.35913 0.00581715 -0.00741493)
(1.54925 1.53764 -0.00467792)
(3.96391 0.00382645 -0.00045795)
(1.54272 1.53737 0.00133679)
(1.5402 1.54105 -0.00402265)
(4.30012 -0.0171407 -0.0100503)
(1.54029 1.5389 -0.000162821)
(3.67354 -4.72248e-05 -0.0378311)
(1.49032 1.37182 -0.0434601)
(4.37661 0.0235666 -0.014137)
(1.45699 -1.45747 -0.000288506)
(4.40416 0.0104263 -0.00936058)
(1.4583 -1.45709 0.000177533)
(1.82427 1.61647 0.0458688)
(4.46396 0.157194 -0.0100854)
(4.29656 -0.0356586 -0.0468599)
(4.34379 0.0164777 0.000571461)
(4.39474 -0.052938 -0.0327254)
(4.32385 0.0090362 -0.00518054)
(4.44024 -0.0300936 -0.00405528)
(1.53013 1.542 -0.00680601)
(4.34149 0.022255 0.0144286)
(4.30862 -0.0394363 -0.0455617)
(1.53936 1.54 -0.000673439)
(3.64813 -0.0461479 -0.157)
(4.44283 -0.0312128 -0.0221453)
(4.26807 0.01936 0.01589)
(1.52652 1.50517 -0.00887821)
(1.89556 0.384364 -0.296371)
(4.17688 0.0112879 0.012843)
(3.42867 -0.0136625 0.0343493)
(3.54638 0.91687 -0.00691104)
(1.89253 -0.958854 -0.079652)
(4.42776 -0.0480044 -0.00701712)
(4.1558 0.0164303 0.0295958)
(4.29275 -0.0415966 -0.0446106)
(4.36219 -0.0244496 -0.00952581)
(4.30647 0.0257648 0.0104453)
(3.81307 0.496159 -0.0252962)
(1.90073 1.61452 0.0131389)
(3.87604 -0.142003 0.031798)
(3.74607 -0.327477 0.0772971)
(1.45615 -1.45676 0.000857548)
(3.81979 0.0256353 -0.0112985)
(1.54864 1.51992 -0.00775305)
(1.80672 1.6428 0.0150886)
(4.31839 0.00508438 -0.00218302)
(3.83925 0.652085 -0.021706)
(4.61952 -0.389673 -0.07238)
(4.16069 -0.713582 0.0160149)
(1.80161 1.71296 -0.123908)
(4.40018 -0.0258865 -0.00746246)
(4.35348 0.0249721 0.0187939)
(1.53641 1.53203 -0.000388346)
(1.97713 1.10206 -0.0440872)
(4.35572 0.0316892 0.018658)
(1.45658 -1.45131 0.000965297)
(1.53973 1.53945 -0.000141639)
(1.53804 1.53761 0.000223552)
(1.54101 1.53303 0.00161441)
(4.40391 -0.0453374 -0.0206739)
(1.54013 1.53987 0.000887664)
(1.46391 -1.46384 0.00785813)
(4.32187 -0.0266546 -0.0221609)
(3.98435 -0.000792149 -0.012555)
(2.1509 -1.88243 -0.0990587)
(4.35652 0.0310041 0.0181343)
(1.78741 1.44627 0.0322975)
(4.37788 -0.0173204 -0.00887044)
(1.43362 -1.43256 -0.00640906)
(1.53684 1.53988 -0.000691338)
(4.38673 -0.0271335 -0.00796277)
(1.54062 1.53189 -0.00574487)
(1.53947 1.53602 0.00105917)
(1.76399 1.69001 0.0494814)
(4.13557 -0.00301364 -0.00295443)
(2.53221 2.12245 -0.279293)
(4.32329 -0.0187253 -0.00932532)
(4.31511 0.00460244 -0.00289073)
(1.44724 -1.4379 -0.0117042)
(4.48945 -0.0136842 0.140236)
(4.11923 -0.0242929 -0.0600512)
(4.30409 0.00140215 -0.00223395)
(4.37232 0.0778352 0.00998759)
(4.38695 0.0449993 -0.0941007)
(3.78489 0.00181029 -0.0359807)
(1.5382 1.53743 0.000575169)
(4.3895 0.00442443 0.0112359)
(4.35919 0.0177273 0.000127386)
(1.44472 -1.46369 0.00296608)
(4.07034 -0.00270249 0.000247922)
(4.40821 0.0259216 -0.0080952)
(4.3991 0.0203834 -0.00687954)
(4.01336 -0.0173682 -0.0406084)
(4.39582 0.0215548 -0.00549815)
(4.40107 0.0219575 -0.00418213)
(1.46228 -1.44298 0.00866068)
(4.39653 -0.00941822 0.0219902)
(3.65137 -0.0220502 -0.00549046)
(1.85591 1.61324 0.100043)
(4.39396 0.0178641 -0.00930661)
(4.19602 0.00484549 -0.00974261)
(2.46302 2.00848 -0.300667)
(4.3189 0.00591629 -0.00145112)
(4.39656 0.015229 -0.0132297)
(4.19794 0.00130444 -0.017172)
(4.36528 0.0219665 0.000129639)
(4.31638 0.0464631 0.017857)
(4.32519 0.00559056 0.000543702)
(1.50648 1.47359 0.00190656)
(4.36467 0.022533 -0.000552589)
(4.10059 -0.0255012 -0.0543179)
(1.63141 -0.974862 0.0386615)
(4.34477 0.0340634 0.0223694)
(4.29736 0.0351079 0.0348318)
(4.3503 0.0140742 -0.00234319)
(1.53877 1.53549 0.00144592)
(4.23289 0.0253278 -0.0405334)
(1.45809 -1.45172 0.00377637)
(1.53984 1.54028 -0.000797131)
(1.53522 1.52317 -9.1938e-05)
(1.5416 1.53343 0.000850434)
(3.66735 0.00204279 -0.0176875)
(1.83058 1.5795 0.0628669)
(3.31601 -0.22867 0.27354)
(1.45426 -1.45421 0.000241737)
(1.53912 1.5578 3.03785e-06)
(4.36001 0.0420801 0.0235301)
(4.37038 0.0105282 -0.0171425)
(1.45873 -1.45856 3.6155e-05)
(4.37948 -0.0272989 -0.00381075)
(1.45778 -1.45646 0.0048382)
(1.45897 -1.45784 -0.000741005)
(1.43617 -1.43649 0.0044501)
(4.45146 -0.0370137 -0.00769554)
(3.70426 0.0194185 -0.0105641)
(1.81254 1.63449 0.0202348)
(1.47322 -1.45685 0.00389635)
(1.53792 1.54242 -0.00195381)
(1.5388 1.54 -0.000296879)
(4.47127 0.00903077 -0.0487958)
(4.33528 0.00744191 -0.00315035)
(1.83076 1.72215 0.0793053)
(4.41956 0.0142106 -0.0228453)
(4.11782 -0.0576015 -0.167549)
(1.53741 1.53796 -0.000836487)
(4.4077 0.0122428 -0.0198368)
(4.04501 0.00359923 0.0216541)
(4.31042 0.0237805 -0.0285014)
(1.54102 1.54003 -0.000222506)
(1.53854 1.53792 -3.27519e-05)
(4.27319 0.0189715 0.0228116)
(4.35584 0.00856777 -0.00131969)
(1.81806 1.65472 0.0258067)
(1.53423 1.53471 -5.45929e-05)
(1.5626 1.51697 -0.00309139)
(4.31763 -0.00856624 0.00491416)
(1.4563 -1.45646 -0.00194899)
(1.45829 -1.45356 0.00126549)
(1.53524 1.53594 0.000779905)
(4.40552 0.0136044 -0.0170427)
(3.86089 -0.0185008 0.00665128)
(1.54045 1.54055 0.000209874)
(1.70986 0.350646 0.295812)
(1.85789 -0.189545 -0.0681118)
(4.28512 0.0226657 -0.00216861)
(1.53752 1.54014 -0.000732564)
(1.53985 1.53696 -0.000770586)
(4.4363 -0.0448737 -0.0100628)
(4.24103 0.0720088 0.065481)
(1.84453 1.64962 0.0768174)
(2.68053 0.879324 0.063483)
(4.18003 0.0990516 0.117449)
(4.00026 0.0113669 -0.0286031)
(4.24191 0.00347647 -0.00338883)
(1.59733 1.49944 -0.00273262)
(4.2248 0.0110198 0.000403976)
(4.37868 -0.0292453 0.030325)
(1.54361 1.5396 -0.00178213)
(1.44824 -1.42508 0.00190834)
(1.53543 1.53633 -0.000211071)
(1.53815 1.53852 -0.000539235)
(1.54024 1.54243 -0.00168174)
(1.54086 1.54117 -0.00013251)
(4.41578 0.0146601 -0.0182115)
(1.4569 -1.45681 0.00106101)
(1.53835 1.53868 -5.05527e-05)
(1.53092 1.51082 -0.000163205)
(4.41924 0.014754 -0.0236607)
(4.35146 0.00964407 -0.003239)
(1.46406 -1.4449 -0.00053363)
(1.4412 -1.42644 0.00222897)
(4.4542 -0.0211993 0.0379035)
(4.2346 0.00340743 0.0053841)
(4.22777 0.00509824 0.00699436)
(1.45881 -1.45477 -0.000777532)
(1.53751 1.5381 0.000810691)
(4.2314 0.00288501 0.00645588)
(1.45833 -1.45728 4.05591e-05)
(4.18053 0.0112363 0.000920197)
(4.29069 0.0073643 0.0148702)
(4.29943 0.0151576 0.00690365)
(1.46777 -1.45711 0.00464058)
(1.45767 -1.45823 0.000443686)
(1.45747 -1.45836 0.000448013)
(1.53997 1.5402 0.000395511)
(4.34046 -0.0188281 -0.0121868)
(1.5383 1.53939 0.000185491)
(1.53733 1.53772 0.000382913)
(4.31717 0.0115402 -0.0156556)
(1.4575 -1.45821 0.000635465)
(4.24738 -0.0015971 0.0052938)
(3.88669 -0.0320325 0.0132256)
(1.55273 1.50287 0.00739079)
(4.35012 0.0140416 -0.00272123)
(2.0559 0.311665 -0.0531117)
(4.28635 0.00322896 0.00401276)
(4.44888 -0.0161611 0.0092578)
(3.91733 0.0158218 0.00444321)
(4.43444 -0.000634487 0.028431)
(3.20775 0.070218 -0.120163)
(1.83064 1.46766 0.0298788)
(4.27679 0.000159367 0.00245626)
(4.4516 0.0344647 0.00574496)
(4.34855 -0.0125404 -0.00518827)
(1.57677 1.37346 -0.0466619)
(1.94927 0.192658 -0.0994521)
(2.32408 -0.152278 0.0758338)
(4.27701 0.00674942 0.00383287)
(1.53761 1.53983 0.00201635)
(4.2056 -0.00985495 -0.031145)
(4.2939 -0.00393351 -0.0104076)
(4.17231 -0.0377147 -0.0667781)
(1.59502 -1.12489 -0.0854634)
(1.45808 -1.45822 0.000782394)
(1.45761 -1.45762 -2.10058e-05)
(4.37491 -0.0142986 -0.00264412)
(1.79192 1.48719 -0.0184479)
(4.14754 0.0140496 0.00668298)
(1.66884 1.52135 0.0205643)
(4.13266 -0.00839955 -0.0278115)
(4.2366 -0.00644226 0.00524041)
(4.19686 -0.00350922 0.0155519)
(4.35243 0.0109753 -0.00400658)
(1.53887 1.53778 -0.000480474)
(1.53047 1.52622 -0.00226004)
(1.55904 -1.42073 0.00654451)
(4.34744 0.0161521 0.000861392)
(1.54049 1.53636 -0.000209612)
(1.7734 1.52862 -0.0662126)
(4.4471 0.0785267 -0.0676735)
(1.54586 1.54405 -0.000786502)
(1.53361 1.54096 0.00452036)
(1.45491 -1.44906 -0.00377524)
(1.54009 1.54067 0.00044592)
(4.15158 -0.00242702 0.0149432)
(1.57738 1.49584 0.0050743)
(1.54009 1.53834 0.000194966)
(3.54112 0.503404 -0.365045)
(1.7976 1.45588 -0.0198082)
(1.53415 1.535 -0.0128077)
(2.10322 -1.24425 0.0760819)
(1.53976 1.53753 -0.00142887)
(3.40112 0.0129827 -0.0303437)
(4.2338 -0.00538017 0.0118854)
(1.45687 -1.45666 -0.000547189)
(4.16328 0.00477219 -0.0096541)
(4.20791 0.68259 -0.0945176)
(4.14471 -0.0406141 -0.065102)
(4.55282 0.169224 0.00395429)
(4.08933 0.00478902 -0.00744916)
(1.54001 1.52926 0.00484535)
(4.3062 -0.0414972 -0.0460211)
(4.46254 -0.0170044 0.0101357)
(4.14392 -0.0407927 -0.0656999)
(1.45738 -1.45787 -2.47467e-05)
(4.51868 1.1944 0.314916)
(4.14204 0.00570048 0.00803216)
(2.04646 1.63707 -0.0957504)
(4.1152 0.00194092 0.00604313)
(4.49213 0.0554986 -0.0420685)
(4.28922 0.0846579 0.00505026)
(4.25239 -0.0138235 -0.0177142)
(4.25314 0.0137132 0.00104659)
(4.52735 0.0646567 -0.0241352)
(4.37297 -0.0070543 -0.00742294)
(4.33699 -0.00759114 0.00489747)
(1.52974 1.53473 0.00607328)
(1.53557 1.52819 0.0048106)
(4.1709 0.0110462 0.005603)
(4.1024 0.00429766 0.00579035)
(1.53688 1.54058 -0.000301943)
(4.227 0.00565676 0.000411925)
(4.4444 -0.0178128 0.00539618)
(4.36054 -0.0119877 0.00458205)
(1.54423 1.52899 9.35083e-05)
(4.27394 0.0847583 0.0197377)
(1.53762 1.53625 0.000299728)
(4.34061 -0.00672348 0.00356665)
(4.3653 -0.00830026 0.00330108)
(1.5387 1.53797 -0.000191464)
(4.15839 0.018866 -0.014683)
(4.35544 -0.00595334 0.00136301)
(4.25724 0.0791257 0.00683416)
(4.20012 0.00144975 0.0139453)
(1.56822 1.5388 -0.00234624)
(4.36996 -0.0132829 0.0146274)
(4.27016 0.0962869 0.00143317)
(4.50224 -0.105114 0.0265216)
(3.79366 0.0483029 0.0149886)
(3.38634 0.0100472 -0.0476058)
(1.54165 1.5258 -0.00278677)
(1.53641 1.53514 0.00148668)
(4.19885 0.0562639 0.00742457)
(1.53995 1.54033 -0.000438822)
(3.67488 -0.0104982 -0.00989809)
(4.21708 -0.0215951 -0.032085)
(2.57508 0.363762 -0.0910495)
(4.67114 -0.296947 0.111712)
(4.12375 -0.183795 0.0522205)
(4.59133 -0.163712 0.0435952)
(1.53997 1.5403 -0.00042458)
(2.08687 1.77238 0.0148526)
(4.36406 0.0125525 -0.0036035)
(1.45192 -1.45713 -0.00442558)
(0.799865 -0.556338 0.241609)
(4.33167 -0.0812436 -0.065453)
(1.53993 1.5359 -0.00286569)
(1.54038 1.53871 -4.54678e-05)
(3.85981 -0.0762674 -0.00449724)
(3.15834 -0.203004 0.0402035)
(1.54047 1.54047 -0.000225585)
(3.91163 -0.0711638 0.0117337)
(1.53877 1.53727 0.000229748)
(1.539 1.54116 -0.00255651)
(1.45717 -1.45736 -0.000251789)
(1.45906 -1.45546 0.00353134)
(1.43057 -1.41971 0.00518749)
(1.45711 -1.45447 1.04146e-06)
(3.89983 0.0307066 -0.0144793)
(1.53751 1.52874 -0.00125271)
(1.53892 1.5395 0.000459286)
(1.53132 1.5398 0.00279549)
(3.63109 -0.802946 -0.210843)
(4.11903 -0.0346679 -0.0758618)
(3.98996 -0.000949925 -0.0399028)
(4.36422 0.0127696 -0.00396638)
(1.53436 1.52431 0.000277775)
(1.54321 1.53783 -4.04322e-06)
(4.18483 -0.0710473 -0.0861765)
(1.53972 1.5406 -0.00134046)
(1.53922 1.53792 0.000667517)
(2.44421 1.40647 0.0519067)
(4.4582 -0.0594932 -0.00487943)
(4.35031 0.0106475 -0.00327661)
(1.5381 1.53809 -0.000123641)
(1.5399 1.53685 0.00177722)
(1.53573 1.53181 -0.00204357)
(1.53801 1.53549 -0.000311822)
(1.54196 1.54176 -0.00167534)
(1.54255 1.53847 0.000187314)
(4.36844 -0.100708 -0.0631589)
(1.54075 1.53641 -0.000311231)
(3.02907 0.0439487 0.100308)
(4.38966 -0.010049 0.0112522)
(1.53872 1.54084 -0.000304431)
(1.44857 -1.45449 -0.00394704)
(1.43859 -1.42512 0.00164531)
(3.68904 0.0427821 0.197779)
(1.4313 -1.42956 -0.00570304)
(1.45597 -1.45695 0.00144553)
(1.53204 1.53433 -0.00963905)
(3.95615 -0.0600293 0.00273497)
(1.53691 1.53672 -0.000222083)
(4.33292 -0.0561798 -0.0355388)
(3.45708 0.0547107 -0.0177973)
(2.8551 0.00433787 0.112989)
(1.53713 1.53748 0.000480685)
(2.96397 -0.756023 0.0604193)
(4.36667 -0.00861905 0.000827412)
(4.39641 0.0101913 -0.0117896)
(1.56365 -1.49192 -0.0183125)
(4.23552 -0.0675276 -0.0116466)
(4.32011 -0.00852092 -0.00675403)
(1.45795 -1.44793 0.00145532)
(1.58801 1.50668 0.0074751)
(2.06269 -1.58749 -0.13001)
(1.5352 1.5342 0.000195642)
(4.37505 0.00971684 -0.0019751)
(4.35695 -0.0060278 0.00664464)
(4.43849 -0.0525692 0.0218659)
(2.92731 -0.00182581 0.159347)
(1.54028 1.53963 -0.000177392)
(4.37735 0.00994515 -0.00300097)
(1.58504 1.50848 -0.0023621)
(1.92103 1.62668 -0.00768152)
(1.96167 -1.5245 -0.061553)
(1.53912 1.5396 0.000587172)
(4.37859 0.0126653 -0.00353098)
(1.53681 1.53329 0.00146345)
(1.44279 -1.41872 0.00037987)
(3.99487 -0.0548059 -0.0986304)
(4.27913 -0.00977331 0.00554926)
(1.44284 -1.41963 -0.00447763)
(4.30512 0.00768967 -0.00228051)
(1.64143 1.60432 -0.0102766)
(4.37249 -0.0371335 -0.018891)
(1.45206 1.38973 0.0158996)
(1.5404 1.54119 -0.000712651)
(1.54837 1.54312 0.0051899)
(1.45822 -1.45845 0.000442289)
(4.25143 0.00889776 -0.00749721)
(3.80435 0.00631244 -0.0164973)
(4.40758 -0.00277005 0.0798177)
(1.53505 1.5354 0.000923818)
(1.53567 1.50692 0.00985192)
(4.23233 0.00953543 -0.00705024)
(1.54008 1.54042 -0.000527591)
(1.78242 1.61744 0.0221314)
(1.45739 -1.45626 0.000669199)
(4.18574 0.0263078 -0.00266609)
(4.45534 -0.112888 -0.0312675)
(4.36379 0.0115296 -0.00433842)
(1.46047 -1.45685 0.00236887)