/*--------------------------------*- C++ -*----------------------------------*\
  =========                 |
  \\      /  F ield         | OpenFOAM: The Open Source CFD Toolbox
   \\    /   O peration     | Website:  https://openfoam.org
    \\  /    A nd           | Version:  10
     \\/     M anipulation  |
\*---------------------------------------------------------------------------*/
FoamFile
{
    format      ascii;
    class       volScalarField;
    location    "19";
    object      SgP;
}
// * * * * * * * * * * * * * * * * * * * * * * * * * * * * * * * * * * * * * //

dimensions      [1 -1 -3 -1 0 0 0];

internalField   nonuniform List<scalar> 
111485
(
1.70129e-09
1.62651e-06
5.96572e-07
5.74922e-12
1.42e-07
2.49851e-09
2.88519e-07
1.12373e-08
2.65861e-07
2.48105e-08
5.46854e-07
2.15603e-08
1.36279e-07
0.00519794
1.43336e-07
2.69522e-07
0.00391147
1.60648e-05
1.73614e-08
2.51625e-08
0.000692798
2.32412e-10
5.26698e-08
1.78314e-07
9.60507e-07
2.1606e-09
2.14715e-08
2.84606e-07
5.09316e-08
0.000902648
6.95193e-08
3.4575e-10
6.36867e-09
2.55503e-08
1.3484e-05
1.80201e-06
0.00241825
0.00375795
4.25826e-05
7.31595e-08
0.000722329
1.60881e-08
5.69955e-08
2.02175e-06
2.90227e-07
3.9099e-08
1.22048e-07
1.53764e-08
1.28989e-07
1.45078e-08
2.95827e-08
3.58259e-07
1.06047e-08
1.76041e-07
3.48832e-08
2.96561e-09
2.81461e-08
4.1857e-10
8.73714e-07
8.79688e-09
1.93929e-08
5.81904e-09
2.32795e-06
1.09895e-07
1.50057e-07
4.41764e-07
6.80097e-06
2.66674e-08
1.56667e-06
3.23335e-06
9.55096e-07
2.0741e-06
2.13649e-07
1.99196e-06
5.78082e-09
2.02247e-09
1.11987e-09
1.49633e-08
1.98162e-09
5.01124e-07
0.00496746
0.00922361
9.27569e-10
2.18142e-09
4.09123e-07
7.44429e-07
0.002495
1.40264e-07
4.40102e-06
1.24282e-07
2.8948e-08
1.30188e-07
1.01058e-06
6.12227e-09
4.11892e-08
4.24183e-10
0.000505081
2.72373e-07
3.00353e-05
8.27763e-06
6.20368e-10
5.57026e-08
3.54576e-08
2.34925e-07
1.29514e-07
2.66085e-07
1.92754e-10
6.56718e-09
2.83262e-07
1.17434e-05
6.59433e-07
2.1575e-08
2.51263e-07
1.3745e-06
5.61053e-09
3.27745e-09
1.56447e-09
1.64877e-07
5.67337e-07
1.58585e-10
1.13894e-09
3.36123e-06
0.00124903
4.51687e-08
8.30461e-07
0.000530899
1.9782e-06
3.29496e-07
1.753e-11
5.56377e-06
2.83627e-06
3.6727e-07
0.000884791
3.16968e-06
1.47527e-06
3.64069e-09
1.99101e-10
1.56338e-08
2.56657e-07
4.58131e-07
1.39422e-06
2.95547e-09
0.00334415
1.72595e-06
5.99347e-07
5.65477e-08
2.31381e-10
8.20794e-10
2.22207e-09
2.0753e-08
5.87565e-07
0.000530838
0.00197817
1.49859e-07
1.18616e-06
1.51366e-09
7.82639e-08
3.36379e-06
1.61738e-05
1.09077e-07
6.81734e-11
5.2924e-09
7.34634e-07
1.12049e-06
1.34607e-06
1.03056e-06
1.19268e-07
0.000451772
2.74735e-05
2.21063e-06
4.10373e-11
2.09821e-09
0.00347876
2.87671e-11
3.22106e-09
4.74273e-08
7.95543e-09
1.62867e-07
4.08562e-09
1.02854e-07
1.50123e-07
4.99647e-09
2.64116e-08
7.31273e-09
5.4422e-08
4.21757e-07
1.92905e-07
8.42319e-07
6.41704e-06
5.52566e-09
1.12505e-06
8.98981e-08
1.316e-07
4.44181e-07
1.03025e-07
2.33585e-07
4.83627e-08
8.42928e-09
2.00855e-08
1.68984e-07
3.17612e-08
2.79565e-05
1.44304e-06
6.93989e-09
3.05503e-08
1.00038e-07
2.21592e-07
1.99434e-07
2.89149e-07
7.55992e-08
7.96695e-08
1.5796e-07
1.43729e-07
1.15116e-10
1.6904e-06
5.06288e-06
6.74369e-09
3.01731e-10
2.40731e-07
3.84715e-07
1.92508e-08
1.35315e-09
2.42448e-07
2.66049e-07
5.03785e-06
1.1279e-10
2.2251e-11
6.61504e-07
7.37906e-05
4.08522e-07
1.7254e-06
2.8391e-07
1.28429e-08
0.0026205
6.51642e-07
2.20837e-07
0.00284592
1.38295e-09
9.98965e-07
5.04684e-07
4.72714e-07
6.38442e-07
1.22313e-07
7.49335e-08
3.32428e-05
7.50731e-09
1.44423e-07
1.4807e-09
1.09434e-07
0.00245072
3.57779e-07
4.0603e-07
3.57655e-07
2.51884e-11
3.63582e-06
1.54592e-08
5.7138e-09
1.21305e-06
0.00180411
1.52856e-09
1.12211e-07
1.02949e-06
1.56624e-08
6.55638e-11
1.42939e-07
1.56607e-11
9.69248e-10
1.2452e-08
0.00296707
6.61629e-08
7.13265e-07
2.42234e-08
0.00311248
4.52282e-07
1.84634e-08
4.21052e-06
3.94291e-08
1.54663e-08
9.42668e-09
1.83583e-09
0.00202684
1.62072e-08
7.76924e-07
3.34275e-07
2.82073e-11
0.00401775
0.00489636
4.10605e-08
6.17245e-06
5.75813e-07
7.29655e-08
1.65401e-07
2.44227e-07
1.64558e-10
1.29933e-07
3.2492e-10
6.33196e-06
4.93705e-06
2.86753e-07
3.54401e-08
0.00612616
6.06361e-09
0.00144089
1.76004e-08
7.98079e-08
2.26379e-10
2.20258e-09
0.000461985
6.3415e-08
2.60545e-08
1.45596e-07
2.88347e-06
7.41543e-09
4.57756e-07
7.73241e-10
3.91521e-09
1.02258e-07
7.39369e-05
0.00442314
5.88458e-08
1.39924e-05
1.73411e-10
1.02195e-09
4.49205e-10
1.49622e-06
3.51412e-08
1.46177e-08
5.71652e-08
1.19718e-08
1.32178e-06
0.00112861
9.63433e-08
1.32328e-08
5.48181e-08
4.02443e-08
0.000795767
9.29611e-07
1.07581e-08
2.34628e-08
2.88096e-09
2.38362e-07
2.69378e-09
0.00264764
4.35894e-06
8.13833e-09
7.85604e-08
4.85405e-06
1.18085e-08
0.000652051
2.62096e-09
2.35267e-07
1.05653e-07
8.84406e-09
3.6129e-07
1.75634e-07
6.85922e-09
9.12694e-09
2.04642e-08
5.09059e-08
0.00665043
5.56696e-07
1.28681e-09
0.000882312
3.13456e-07
4.18952e-10
8.77398e-09
2.07578e-09
0.000880244
1.23832e-05
0.000856222
0.000824261
7.12449e-09
2.16556e-10
2.57025e-08
5.45216e-08
3.6012e-11
1.53422e-07
6.00935e-08
2.8359e-07
6.00402e-07
2.54183e-06
9.78006e-08
1.25603e-05
2.17366e-08
1.10468e-07
9.06575e-07
1.22967e-08
1.2586e-05
5.51641e-09
2.28209e-07
5.77211e-08
0.000503783
1.99465e-09
1.27694e-09
0.00272651
1.10907e-07
0.00542417
7.80704e-09
1.1315e-07
6.00352e-08
1.32078e-10
9.79527e-08
8.06737e-07
1.8124e-09
0.00059654
5.86143e-08
4.8601e-08
1.66359e-08
3.24906e-10
1.31492e-05
3.56089e-10
1.65825e-07
6.6874e-08
1.33705e-12
1.59521e-08
9.04824e-07
0.00433057
2.6102e-06
3.89965e-11
1.43967e-06
1.75586e-06
1.7782e-06
6.6287e-07
1.17779e-05
4.3464e-08
1.95472e-05
9.62399e-07
0.00370476
4.16109e-06
3.79298e-09
1.34304e-07
2.65798e-08
1.94484e-09
2.43482e-05
3.89409e-06
1.38938e-06
2.99583e-08
3.10258e-08
2.5661e-07
3.6499e-09
0.00626431
3.41231e-08
6.2807e-07
8.43836e-05
1.68237e-06
2.50079e-05
1.23017e-09
0.00449372
0.00592723
4.12887e-10
6.37015e-07
5.219e-06
2.00441e-06
6.19453e-11
4.76914e-07
4.24696e-10
0.00509082
1.36183e-06
3.73925e-07
2.05098e-06
5.38839e-07
4.6325e-09
9.06356e-08
1.35139e-08
1.39074e-06
2.93115e-09
1.79445e-08
0.000977561
1.76555e-06
1.79282e-09
2.11137e-09
7.28238e-06
1.54081e-09
3.14538e-08
7.88982e-08
6.74828e-11
1.0602e-06
1.66756e-09
0.0013848
8.48198e-09
4.4708e-08
3.12743e-09
4.26218e-06
8.87479e-09
0.00397
4.15064e-07
0.00416095
5.31961e-10
1.13522e-06
4.68543e-08
6.05615e-11
0.00647971
0.00251882
5.28437e-07
6.97486e-08
5.65557e-07
1.45292e-08
2.52457e-07
1.01124e-08
6.47865e-07
0.00507887
1.05595e-09
2.38395e-08
1.93959e-06
3.23529e-07
0.000986913
1.02981e-07
2.00495e-06
2.49041e-08
2.44332e-08
1.31449e-05
0.00136537
1.89873e-07
9.67372e-09
2.17651e-08
7.57944e-08
6.03231e-08
2.3095e-08
4.03243e-07
2.10631e-11
3.07931e-05
1.92137e-09
6.52356e-09
4.78991e-09
1.77953e-06
5.01415e-10
1.46378e-07
4.12339e-09
1.6511e-07
1.41069e-09
0.00205447
0.00198979
4.8142e-07
2.65858e-09
0.00108549
0.00159101
5.65176e-09
4.17216e-09
2.66993e-07
3.85783e-09
2.75332e-06
2.95567e-07
2.28417e-07
0.000795451
3.90419e-08
9.1941e-11
8.19799e-07
7.62415e-07
1.11736e-06
2.23816e-08
3.31272e-07
2.59514e-07
2.56245e-08
1.87739e-08
4.11509e-07
6.13151e-07
1.60149e-10
0.00225985
1.30991e-06
8.67599e-07
3.44548e-08
2.0724e-05
6.92442e-07
8.63469e-06
4.06075e-05
6.14621e-06
4.43772e-08
1.85144e-06
2.24119e-07
4.13456e-07
0.0020476
3.52695e-06
1.31386e-06
6.53257e-05
0.00135811
5.91832e-09
1.17178e-06
8.13621e-08
6.14741e-07
1.1536e-08
8.73847e-06
4.93423e-05
9.2478e-06
3.02859e-06
4.54829e-07
2.0353e-08
6.63624e-09
3.41903e-06
3.01918e-08
1.45078e-09
5.48025e-11
9.04456e-09
8.0104e-10
3.88411e-07
2.99971e-11
0.000651099
2.72077e-07
5.48843e-07
0.00181185
0.00572683
1.01779e-06
4.26718e-08
0.000691462
6.91699e-10
3.84767e-07
3.29013e-09
9.88102e-09
8.02154e-07
3.94246e-07
0.00208431
5.12035e-07
1.84301e-09
6.43791e-08
6.00793e-07
0.00253184
1.39161e-07
5.37048e-07
1.0406e-06
0.00345772
0.000696076
5.52148e-08
3.41078e-07
1.31935e-07
4.09892e-08
1.49299e-07
1.56407e-08
5.6336e-07
7.17879e-08
3.5181e-08
2.15241e-08
7.51821e-08
1.27714e-05
5.48132e-07
6.07703e-08
7.42691e-08
1.23125e-05
2.72277e-09
8.64322e-09
2.98541e-07
8.67081e-08
3.05489e-07
1.76454e-08
7.05522e-08
3.94704e-08
5.37876e-07
3.14789e-06
2.8819e-07
5.85325e-07
3.98257e-08
9.50852e-09
6.03666e-07
9.93213e-08
2.14881e-09
0.00129589
6.16183e-10
0.0024168
1.0155e-06
0.000234497
1.30842e-08
0.000492523
8.48232e-08
2.12308e-07
3.23095e-10
1.84441e-07
6.00003e-09
4.14162e-10
2.01006e-08
0.00497955
2.20006e-06
5.6576e-07
0.000762504
2.26959e-09
4.14353e-10
1.11199e-07
4.201e-08
1.49019e-06
9.04992e-09
2.40335e-06
6.48462e-10
1.26203e-07
2.31004e-06
0.00299393
9.37214e-12
3.67763e-09
2.96153e-08
5.93623e-10
2.27565e-06
9.10679e-09
0.00104539
1.33976e-08
1.12853e-09
4.47144e-09
0.000759274
8.63597e-08
3.04814e-06
1.88216e-11
8.43798e-05
1.55836e-05
0.00322585
2.53221e-10
2.55827e-09
8.30219e-08
4.73091e-07
7.52586e-07
9.56786e-06
6.47332e-06
4.60883e-06
5.65396e-08
0.00105399
5.38123e-07
2.00879e-08
1.45573e-09
2.50237e-08
4.94584e-09
3.74849e-09
1.14178e-09
2.60246e-11
3.28003e-08
1.36278e-09
8.4605e-09
1.96058e-08
2.90582e-09
9.27775e-09
4.70724e-09
1.48726e-08
4.13517e-09
2.87417e-07
3.40698e-07
8.74593e-09
7.26764e-10
4.92173e-07
2.14551e-11
1.57322e-06
3.57436e-08
9.02648e-08
2.95717e-09
8.50608e-11
2.16311e-10
4.41804e-11
3.24185e-07
2.07943e-09
1.18469e-08
3.8574e-07
2.17987e-10
3.19228e-07
1.41785e-06
6.90979e-08
1.68717e-08
9.46918e-06
5.62844e-08
0.00443613
1.9949e-06
2.06053e-07
0.00376527
1.479e-06
1.95172e-07
5.3811e-07
5.70621e-09
3.45403e-07
0.00169267
1.23286e-05
1.23545e-08
3.91749e-09
2.45459e-07
1.5334e-06
1.76618e-06
1.36642e-06
7.61757e-11
4.74089e-13
1.87521e-08
6.73601e-07
5.71886e-08
6.94936e-08
3.23155e-06
2.17398e-08
4.63032e-07
3.17509e-10
2.86618e-09
0.000558351
2.01923e-07
9.0131e-09
2.08413e-09
8.91309e-07
2.26461e-06
3.38363e-08
8.19121e-09
0.000759977
3.52916e-11
4.55059e-07
0.00106068
6.47059e-10
0.00125271
7.64933e-07
0.000617688
8.85709e-06
5.54586e-09
5.20605e-07
3.74559e-07
0.000852469
1.0227e-06
2.26754e-05
0.00285736
2.07085e-06
2.60382e-07
2.11221e-08
1.11991e-08
0.0085559
0.00286179
3.18699e-09
0.00418716
1.80348e-07
2.96815e-06
5.13578e-07
3.70939e-07
2.08058e-05
7.05798e-07
1.89743e-07
1.28528e-07
2.1524e-08
1.04574e-08
0.000765768
3.43693e-09
7.60211e-07
4.90562e-07
9.86679e-10
6.4734e-08
0.00383934
5.23838e-08
6.26524e-09
1.0647e-05
8.1671e-10
1.03918e-08
0.00390224
7.82209e-09
0.00329582
0.00630148
2.29394e-05
2.93918e-07
1.87669e-08
6.53504e-08
1.05002e-06
4.63273e-06
2.04011e-05
5.40203e-06
7.88629e-08
0.000762799
1.99424e-06
6.007e-10
6.21566e-06
5.19956e-06
1.1557e-05
8.35397e-06
1.60236e-05
3.06224e-06
1.02678e-10
1.29162e-06
9.98913e-09
1.3805e-08
2.6618e-05
0.00614106
4.34821e-09
5.61539e-09
5.72877e-05
6.25813e-05
4.23862e-11
1.12148e-05
9.86148e-09
2.30085e-10
3.46029e-10
7.69935e-09
1.06131e-07
8.23941e-09
1.36933e-06
0.00085633
5.60542e-11
1.36575e-08
7.90892e-05
0.0020563
1.44226e-06
1.26606e-09
0.000544608
7.0049e-11
2.46651e-06
5.44e-10
8.47524e-10
1.07867e-05
0.00229185
4.57971e-08
2.00383e-09
3.27443e-09
0.00059383
8.50324e-09
0.000388429
4.64118e-09
2.1586e-06
1.41183e-10
3.85236e-05
4.4386e-08
4.44336e-11
1.79243e-08
9.99034e-09
2.72948e-05
1.60056e-08
3.57527e-09
3.52932e-08
8.49984e-05
0.000907107
1.33035e-06
1.05594e-05
2.04013e-05
4.02056e-09
2.25037e-05
1.8052e-07
3.67093e-09
4.94595e-08
4.26267e-06
3.81392e-07
4.61261e-09
1.56574e-07
2.78572e-06
4.14204e-09
1.38108e-08
1.65038e-08
3.27194e-07
0.00125657
9.67137e-11
1.62963e-09
0.00101243
2.12388e-06
1.3616e-06
2.92235e-10
2.85073e-08
2.85766e-09
1.96801e-08
4.42613e-07
1.03476e-06
1.77864e-08
4.75635e-07
4.42094e-07
1.46784e-06
3.93098e-07
9.42633e-11
6.24082e-08
7.95994e-11
9.8038e-09
1.55867e-06
3.03715e-06
3.64238e-09
8.68715e-09
1.75349e-08
8.83419e-11
7.81415e-07
9.30285e-09
1.27895e-06
1.53205e-05
1.48493e-06
4.79768e-09
2.68902e-05
2.10439e-06
1.31196e-06
2.78888e-06
8.5562e-10
2.69196e-06
6.31566e-08
0.00219262
6.2102e-07
1.80333e-06
8.94749e-09
1.39769e-11
1.30133e-09
0.0032845
0.00125597
9.8876e-07
8.16835e-12
2.40865e-06
6.45356e-10
0.00309821
3.33913e-06
1.50642e-08
2.53514e-09
4.85709e-08
1.55984e-08
1.68709e-06
4.40969e-08
2.0984e-06
0.00559215
9.19945e-08
1.29339e-06
5.26131e-07
1.33871e-06
9.25581e-07
7.93493e-09
1.14207e-11
8.07383e-08
5.70124e-07
4.75454e-09
3.75725e-09
1.07828e-05
6.84261e-09
5.72568e-08
0.00741499
2.72873e-08
1.21328e-06
1.30148e-11
4.22501e-08
3.7474e-09
0.00606812
3.90373e-10
0.00214954
0.000105699
2.37858e-06
3.30452e-07
3.00418e-07
1.78334e-05
4.59894e-08
1.0284e-07
4.82768e-08
8.04338e-09
1.29172e-08
3.82997e-08
1.52627e-06
5.64457e-08
0.00118882
4.63508e-09
9.63374e-08
5.77949e-06
9.32251e-11
7.33421e-06
4.58044e-09
8.51259e-07
1.41078e-05
2.3503e-09
3.44817e-09
1.16638e-06
9.78377e-09
1.0715e-07
0.0033988
9.02197e-09
1.8242e-07
1.32336e-10
0.000778553
1.59213e-07
1.22191e-08
1.18213e-08
8.10085e-08
1.32491e-07
1.41727e-09
0.00270478
1.9916e-08
5.03454e-11
2.28159e-06
8.18873e-09
1.34331e-10
8.20986e-07
1.59554e-05
1.46722e-05
4.4186e-10
3.41761e-08
8.42336e-10
1.09828e-06
8.68501e-07
0.000643251
1.0625e-07
1.45844e-05
1.25442e-06
2.06139e-05
5.22374e-07
5.39408e-08
2.20651e-08
2.14111e-08
7.22141e-07
3.92364e-08
1.49601e-07
0.000820171
5.24489e-06
0.000801464
4.27013e-11
1.3117e-07
1.79874e-09
1.40574e-06
1.68394e-06
7.49932e-08
8.8141e-07
8.7023e-06
2.67089e-06
1.54082e-11
0.000116663
0.000144137
1.90848e-06
7.70928e-07
1.82759e-08
1.5246e-05
3.69369e-08
7.22677e-08
7.13031e-09
1.18152e-09
4.3842e-06
1.50611e-07
1.64517e-05
1.51826e-08
0.000792904
1.13376e-05
1.60573e-08
1.97331e-08
1.11219e-05
5.87691e-08
0.0010403
0.00506099
2.30955e-06
4.23258e-06
1.28137e-07
7.07193e-10
4.90209e-10
2.90692e-09
1.21012e-06
8.57377e-08
0.000582784
0.00102666
5.70791e-07
4.60666e-09
5.68559e-06
0.000704176
4.62058e-07
2.11011e-05
4.41999e-05
0.000739193
0.00221577
0.000859544
2.62283e-06
1.57004e-10
3.59136e-05
3.17167e-08
3.51366e-09
4.58651e-09
5.47379e-09
5.15669e-07
1.30721e-09
3.28646e-09
1.56279e-06
2.33859e-09
2.47147e-10
1.71504e-08
2.937e-09
0.00100099
9.91958e-08
6.19086e-07
0.00129159
0.00465609
1.99159e-09
0.00333588
3.32038e-06
0.00702255
2.29365e-07
1.35809e-09
1.66055e-09
7.99276e-07
0.00464554
3.77234e-11
2.28604e-05
2.20117e-09
9.48946e-08
2.89654e-07
2.37511e-07
2.66366e-08
5.83652e-09
0.0013117
2.59195e-09
8.30541e-08
4.74768e-09
9.23113e-09
1.24138e-08
8.88179e-06
1.29848e-06
1.9846e-08
6.55974e-06
4.10805e-07
9.89657e-09
2.30792e-06
2.20738e-08
3.31148e-07
3.78481e-09
2.28618e-09
0.00452825
0.000743948
7.86631e-06
6.01139e-09
6.77711e-10
2.96912e-08
0.00344429
8.72391e-09
2.00833e-07
1.47585e-08
4.03607e-08
5.26606e-10
0.000601514
2.5816e-06
4.09425e-09
2.00695e-08
3.21833e-07
3.16438e-09
0.00330643
3.66847e-10
0.000756226
1.59347e-06
9.98782e-08
3.4336e-10
3.37937e-08
2.49543e-08
2.61211e-09
5.1421e-08
7.56038e-08
2.23166e-11
1.22291e-10
1.79198e-06
0.00136758
2.60815e-10
6.9312e-07
7.44777e-08
1.81809e-06
4.70382e-09
0.000821963
3.21227e-08
1.11767e-06
1.08758e-06
7.67303e-09
1.18952e-06
4.46857e-08
3.07975e-07
3.45515e-09
6.45083e-09
2.70495e-07
1.36681e-09
3.29528e-06
9.99133e-07
1.24861e-09
5.76241e-09
2.71501e-06
9.51683e-06
0.00548806
2.49732e-09
1.121e-07
3.95382e-08
6.65322e-06
3.70294e-06
5.51073e-07
1.57074e-06
0.00135969
7.79163e-08
9.51344e-07
1.40428e-05
0.00115442
1.55028e-08
9.31262e-10
7.33723e-06
2.08705e-08
0.000707509
4.9081e-09
2.08934e-07
2.32719e-08
4.34494e-09
0.00410879
1.19257e-09
1.08751e-08
1.51233e-08
4.69177e-07
0.00616383
0.000971274
8.77021e-09
2.4544e-09
7.43145e-11
1.11069e-08
1.06769e-08
1.74663e-08
2.98641e-09
1.34211e-10
3.90564e-09
1.91753e-10
5.39277e-09
0.001066
0.000635178
2.1242e-10
2.61693e-07
4.08946e-09
8.39898e-09
2.10564e-09
0.00062297
0.0015455
1.92926e-07
4.37519e-09
1.38471e-09
1.65515e-08
3.76826e-08
8.82731e-08
5.81725e-09
6.42924e-06
5.01882e-09
5.40606e-08
1.01394e-07
3.2038e-06
9.99179e-08
1.36717e-05
4.76577e-08
4.88779e-09
8.34138e-06
7.94447e-06
6.08376e-09
4.9236e-07
7.10997e-08
2.62362e-07
9.20908e-07
1.93772e-07
7.39124e-08
3.46294e-09
0.00610527
2.11121e-08
1.25813e-06
0.00106923
2.53353e-06
2.68058e-07
4.26663e-07
1.0764e-07
4.87599e-09
6.4299e-07
1.46836e-06
1.76563e-06
8.03863e-08
8.16294e-07
8.95536e-08
3.66522e-08
1.66181e-08
1.47981e-10
7.9236e-09
5.61316e-10
1.02036e-11
2.75846e-09
1.62211e-08
1.41774e-07
2.37415e-09
3.56625e-11
8.11277e-09
3.11256e-07
6.46735e-09
2.14818e-10
1.47257e-08
4.15402e-08
2.92588e-09
1.86522e-06
1.60473e-07
0.00439766
2.24273e-09
2.04892e-07
3.68851e-07
7.8673e-08
4.0025e-10
1.0462e-08
0.00400861
9.40809e-09
2.93997e-10
6.56088e-08
0.00419092
1.82133e-08
1.17537e-06
1.12077e-06
2.99175e-08
2.08192e-07
4.72868e-07
6.91638e-06
2.67121e-10
9.21193e-07
1.0557e-07
3.5921e-09
5.23646e-06
7.25694e-06
0.00355784
1.36034e-07
3.03672e-08
1.91859e-07
7.42336e-07
2.32713e-07
1.36987e-08
4.39568e-05
3.89465e-09
1.28841e-05
6.87951e-06
0.00113131
1.42652e-07
0.0046395
4.87521e-09
1.94066e-08
8.5845e-08
4.45428e-07
9.80207e-07
7.15797e-08
2.82767e-06
9.62018e-10
1.66092e-07
4.16606e-10
2.19115e-10
2.44943e-08
7.6963e-06
5.47481e-09
3.57155e-10
8.13216e-06
6.98803e-09
9.66794e-06
5.28022e-08
2.00653e-08
3.89331e-08
3.86702e-09
3.65861e-07
9.80922e-08
3.74343e-06
9.45553e-09
1.40923e-07
6.3272e-05
3.10962e-08
3.21964e-10
2.68152e-06
6.46145e-08
6.27976e-07
8.9402e-10
0.00268067
2.29062e-06
9.34611e-07
3.98258e-08
6.34464e-09
3.73891e-06
1.11302e-07
3.19019e-09
8.11814e-11
1.349e-06
1.39073e-06
1.57199e-06
0.00354037
9.25664e-08
1.77466e-07
4.71024e-06
1.03513e-07
9.27206e-08
2.90608e-08
1.23506e-06
5.00948e-08
2.26247e-06
0.00328148
2.65043e-07
3.16161e-13
4.20074e-08
9.66247e-07
3.40887e-07
5.30485e-09
1.13082e-05
1.52016e-05
8.59253e-06
1.73988e-05
3.2839e-07
9.00347e-07
3.30613e-07
4.0682e-07
6.3958e-09
4.20071e-10
0.00187152
9.45279e-06
3.61866e-08
2.56774e-05
1.07825e-07
5.25924e-07
8.92306e-06
8.53779e-08
4.97324e-08
5.96433e-08
7.19003e-10
7.82154e-07
5.96607e-07
2.28331e-06
6.25648e-07
6.44569e-09
8.48903e-09
4.19554e-07
3.69022e-08
5.51541e-10
5.98443e-06
9.41193e-08
1.82475e-07
9.25326e-07
2.36888e-08
2.81416e-09
9.77505e-06
0.00244117
1.34551e-08
4.12216e-10
1.0265e-10
0.00250893
0.00438474
6.90488e-09
0.00100116
1.64824e-07
4.30694e-07
1.45948e-07
1.92211e-07
2.92416e-07
3.3291e-07
6.08584e-07
0.00195955
0.0064301
0.007394
2.46791e-07
5.50134e-07
3.77022e-07
1.44552e-07
0.00671068
6.27704e-10
0.00345771
7.20171e-07
6.2173e-10
8.26325e-09
1.01516e-08
7.38378e-09
1.44846e-09
3.73069e-09
1.20175e-09
0.00242374
1.22938e-09
7.34352e-07
3.61193e-06
4.2967e-10
8.91192e-08
1.26258e-07
1.30734e-07
2.05106e-09
1.08828e-05
1.01031e-07
2.47143e-08
1.4902e-06
1.04795e-07
4.68223e-07
2.12948e-07
2.00608e-08
7.04964e-09
4.01184e-07
5.41056e-05
7.74484e-07
9.86122e-09
3.28243e-07
1.9655e-08
4.02564e-07
2.39199e-06
2.32473e-07
1.04026e-07
8.83334e-08
2.22883e-08
1.05877e-06
8.8101e-09
2.26468e-07
0.000764474
7.35543e-06
0.00578488
1.29856e-05
1.8706e-06
2.64622e-10
0.00114893
7.94388e-10
1.20732e-06
1.3437e-07
2.32928e-07
1.62782e-06
1.07316e-08
7.53911e-09
7.11738e-07
1.70264e-08
5.87159e-10
4.3683e-07
1.29e-08
4.60035e-07
0.00131566
4.52964e-09
6.78828e-07
3.05933e-08
2.19905e-08
2.99771e-10
4.25571e-06
1.89418e-06
4.99213e-08
7.08094e-09
2.60407e-08
0.000831563
3.94205e-06
2.19213e-07
3.14986e-07
6.47404e-11
3.68066e-12
1.33472e-08
3.11398e-10
8.74515e-07
5.68012e-09
3.94335e-07
3.93155e-08
6.30955e-09
5.79102e-08
6.43975e-10
1.10194e-06
1.53122e-06
8.16612e-07
8.70474e-09
2.0866e-09
1.99046e-08
4.66771e-08
9.93414e-06
2.88975e-08
0.00304456
4.51544e-07
3.95016e-09
6.21045e-09
4.12649e-06
3.09676e-07
1.98884e-05
3.24375e-08
1.9214e-06
0.00412748
3.16977e-10
5.75942e-06
3.57834e-07
0.000796139
2.88445e-08
0.000886341
0.00154927
2.18811e-06
1.30105e-07
3.28133e-07
8.04098e-10
2.74394e-07
4.66154e-07
6.25477e-06
3.24929e-07
9.09979e-08
4.42067e-07
7.05145e-06
6.30576e-06
8.21449e-06
2.7444e-06
1.89298e-09
1.73515e-06
1.4797e-05
1.13582e-07
6.2194e-08
4.23671e-06
3.57539e-06
2.83724e-07
3.15807e-07
4.52706e-06
2.83364e-07
7.06046e-06
4.53285e-06
3.83252e-07
6.58913e-10
6.43944e-07
8.05988e-06
0.00123975
4.74001e-08
2.11668e-08
8.06994e-07
2.73905e-08
1.41447e-06
1.51311e-08
6.84729e-06
9.36199e-09
1.61479e-06
4.4898e-09
2.82338e-09
2.35969e-07
1.64546e-05
2.29912e-05
0.00592312
2.46292e-07
2.95633e-08
1.96084e-09
7.71484e-06
4.20365e-07
0.000562504
0.00131327
1.82423e-11
1.40086e-05
1.17563e-06
7.34038e-08
1.04438e-08
2.26538e-05
2.02482e-08
0.000799702
4.04986e-09
2.73206e-10
5.26785e-07
2.03469e-08
3.84696e-08
6.82863e-07
0.00073695
3.64454e-07
1.61547e-08
1.65208e-06
0.00388352
0.000719259
1.22334e-07
5.30854e-06
4.50343e-07
1.00697e-05
7.9381e-08
0.000698371
8.68892e-07
3.48757e-06
3.1475e-09
8.72978e-09
8.63713e-08
1.38507e-08
3.82652e-07
3.24931e-08
1.22144e-08
4.55569e-08
8.36006e-08
1.76848e-06
5.57138e-10
1.19714e-08
0.00134085
1.64508e-10
1.63497e-09
8.10682e-07
8.3572e-09
4.33198e-06
6.22696e-07
0.00110274
3.78518e-07
0.00458743
2.71719e-07
3.59361e-07
0.000745019
3.09163e-06
9.30422e-12
1.65827e-08
0.000523448
2.41612e-07
1.56807e-06
3.22102e-07
1.38101e-09
1.3202e-07
1.49493e-07
1.97967e-08
0.00228168
3.5587e-08
2.29174e-08
5.84174e-08
1.22843e-08
1.09371e-09
1.70829e-06
5.927e-08
0.00485625
1.63229e-06
6.32381e-07
7.87724e-07
1.00181e-06
3.53554e-07
6.08614e-08
1.13692e-10
1.24354e-08
1.58152e-06
3.82839e-07
7.32167e-08
5.6305e-09
3.08067e-07
1.89562e-08
9.44864e-07
6.25454e-09
1.2859e-08
2.71577e-08
5.84928e-07
4.22101e-07
6.52569e-07
4.66834e-09
4.89532e-09
3.23366e-05
7.019e-09
1.48631e-09
1.58226e-10
2.43333e-08
0.00544423
4.31943e-09
3.39455e-06
1.28782e-06
4.57046e-07
3.10573e-09
1.77942e-08
3.75472e-06
1.45491e-07
4.58313e-09
7.86193e-07
2.20501e-09
1.67926e-09
5.82257e-10
1.6359e-06
4.88549e-09
0.00576831
9.27074e-06
6.86957e-07
3.44891e-05
9.5931e-09
1.83642e-07
9.46762e-10
0.00110659
1.61354e-07
1.0441e-07
3.35452e-08
2.09871e-08
1.25707e-09
0.0084242
3.38658e-07
8.72587e-06
1.20271e-06
1.14603e-08
0.00218893
1.56287e-08
6.42601e-09
1.05881e-08
1.0931e-08
4.21604e-07
5.76507e-09
4.87699e-07
6.419e-07
9.70566e-06
5.574e-08
3.74117e-10
3.21044e-06
9.58493e-09
0.00272734
5.44216e-08
5.98465e-09
2.78071e-08
3.55826e-07
0.00114294
0.000558916
3.08645e-07
9.30614e-07
0.00167381
6.02753e-08
5.6356e-07
0.000784299
2.31195e-07
4.0658e-08
0.00303332
0.000348768
1.74094e-07
6.31757e-07
1.74451e-09
7.25294e-07
3.02159e-05
1.77644e-07
1.66392e-07
6.49918e-06
3.4089e-10
0.000430889
2.56309e-09
4.98255e-07
0.0034372
2.60059e-09
2.20302e-07
9.94609e-08
9.00702e-09
1.02144e-08
9.71338e-07
1.22245e-08
2.79957e-09
6.25224e-07
2.13501e-07
8.86128e-10
0.000432116
0.000820505
1.88898e-07
7.37186e-12
1.3555e-10
2.61007e-06
2.8968e-07
9.27562e-08
5.19328e-09
1.00154e-08
2.48909e-06
1.36679e-06
8.61409e-07
1.61802e-06
0.00677836
1.21806e-10
0.00259794
9.88329e-08
3.05256e-08
0.000939761
2.85961e-08
9.87144e-10
0.000426421
7.34233e-11
1.22012e-07
1.08913e-07
5.09803e-08
1.72486e-08
6.4832e-09
1.79315e-10
6.3286e-10
3.69294e-07
0.00231438
0.00384534
5.30269e-07
6.7503e-08
4.4411e-12
0.00104275
0.00397867
5.75007e-06
2.35011e-08
6.39218e-09
2.19053e-05
4.02763e-06
3.64784e-09
5.84847e-10
1.83872e-08
1.28535e-07
2.39139e-09
1.75694e-07
1.4333e-06
0.00111286
0.00385491
8.55108e-07
1.30379e-05
2.25767e-10
1.17076e-08
4.85511e-07
2.4345e-06
5.28955e-07
7.58679e-06
2.1971e-07
2.55585e-07
2.05559e-09
9.66353e-09
2.76933e-07
0.00108574
1.16243e-08
0.00318388
7.82801e-10
2.08114e-07
4.47482e-08
3.4489e-07
5.82077e-10
3.30966e-11
1.10162e-08
1.16923e-09
4.85396e-08
6.02838e-06
6.60086e-09
0.00069048
3.20487e-07
0.00280327
1.95306e-08
4.64118e-08
3.0481e-08
3.79636e-08
2.04044e-07
2.19889e-10
1.01474e-09
8.58184e-10
7.38899e-08
1.52692e-07
0.000963346
0.000937473
1.29035e-07
1.54147e-08
1.07227e-10
5.41255e-11
4.38689e-10
2.08812e-08
3.61752e-06
7.73235e-09
3.04916e-10
1.05052e-10
0.000407944
7.55693e-07
9.76258e-07
0.000756395
1.34763e-08
0.00562581
1.60782e-07
1.44547e-08
1.79595e-11
4.84689e-09
0.00100054
1.55092e-11
4.47145e-07
9.05404e-10
1.1362e-05
7.72857e-07
1.61553e-06
2.42207e-06
4.95395e-07
6.7886e-10
4.5263e-10
0.00633657
6.92723e-07
6.07795e-07
4.36348e-06
1.62842e-08
1.60751e-06
1.57364e-06
5.14191e-08
9.2417e-08
5.74578e-06
6.28784e-09
1.19528e-05
0.000728443
3.71103e-08
6.96228e-09
1.45641e-06
1.46517e-08
0.00063578
0.00335293
4.2434e-07
7.64507e-10
6.82922e-05
5.82858e-09
2.47667e-07
3.51192e-08
2.45309e-06
4.85161e-11
1.72481e-05
1.72785e-06
2.52843e-06
4.45618e-07
2.12568e-06
4.97969e-07
1.1785e-07
2.67282e-11
3.20915e-06
1.13243e-06
1.0736e-06
2.07746e-08
1.71665e-07
2.10656e-06
7.80321e-06
1.93313e-10
3.97985e-10
1.61888e-09
1.90985e-11
2.18033e-09
0.000395338
8.03655e-06
2.51325e-06
1.1985e-06
3.7498e-06
1.65096e-06
6.39185e-12
3.37429e-07
3.77366e-10
9.48066e-09
1.45974e-09
4.2725e-07
3.80942e-05
4.16174e-07
2.38977e-09
4.7551e-09
2.96415e-08
7.51972e-09
2.5913e-09
0.00259615
1.95806e-07
1.16604e-05
1.77246e-05
1.30037e-05
1.30869e-09
1.00379e-05
1.22265e-05
2.25874e-05
1.24197e-05
6.4081e-10
4.27135e-11
3.03094e-08
2.15295e-07
1.18852e-06
6.35788e-06
0.000705785
4.21977e-07
5.62694e-07
7.29415e-08
1.02146e-05
3.93513e-09
9.48674e-11
2.13995e-06
7.03096e-06
0.000488565
1.9778e-10
0.00207784
2.08539e-06
1.43989e-08
1.50945e-06
1.1284e-07
2.15683e-06
4.98124e-08
2.10954e-06
5.78439e-09
1.61862e-07
3.96829e-05
7.82427e-07
1.45678e-08
3.22085e-05
9.67398e-07
1.83896e-07
5.93107e-05
1.35475e-09
2.00645e-07
9.39076e-07
1.64545e-06
1.25287e-08
0.0033811
2.69307e-09
2.887e-08
4.1343e-09
0.0020921
0.00206703
4.50686e-08
5.14622e-08
3.06265e-06
0.00102865
1.0745e-08
1.62055e-07
3.6714e-07
2.05107e-07
2.62813e-08
0.0036227
2.04079e-07
3.60416e-07
7.71292e-05
1.50094e-09
1.16073e-07
3.40926e-08
4.39255e-08
5.07114e-10
4.55884e-05
6.6412e-05
1.6693e-09
1.88319e-08
3.11996e-08
1.77575e-06
3.51963e-10
0.000737184
1.08868e-08
2.2606e-07
1.46245e-08
1.37189e-08
4.67631e-08
8.46248e-07
2.97093e-08
9.28544e-08
4.24764e-06
2.31202e-08
2.608e-08
0.000800092
2.17156e-08
5.55338e-08
5.90176e-08
3.13451e-07
3.21824e-11
4.58336e-10
4.50713e-11
1.52195e-07
1.17765e-08
0.00112139
3.59717e-07
2.68292e-07
8.94757e-10
3.18433e-07
0.00206866
1.65627e-06
1.73827e-07
7.99625e-07
2.05e-07
6.26285e-09
6.95858e-09
3.79372e-07
3.29271e-08
4.73025e-08
8.82551e-06
1.28381e-07
2.08408e-09
5.78827e-09
2.97959e-08
1.33233e-08
1.20626e-07
9.56362e-10
9.29911e-08
2.79825e-07
5.06352e-09
2.69166e-11
0.000852916
1.42939e-10
1.27939e-10
4.79466e-07
0.00105457
3.89193e-07
3.96435e-08
6.22638e-10
2.44895e-07
1.02621e-07
5.17368e-07
9.38413e-08
2.01369e-09
3.31743e-08
1.61601e-08
1.0438e-07
1.10599e-09
6.68961e-10
8.3069e-09
5.21897e-08
3.18899e-07
2.56939e-08
3.6041e-09
1.28833e-07
1.09083e-06
2.57626e-09
5.6997e-07
9.79373e-09
1.71233e-08
5.9179e-10
9.2035e-07
2.95013e-09
3.66003e-07
5.15558e-11
4.52258e-07
5.08904e-10
2.93362e-08
6.06588e-06
2.54213e-09
1.09087e-09
0.00126557
9.74197e-10
0.00104145
1.00109e-08
1.17471e-08
2.01529e-07
3.89663e-07
0.000774526
1.37468e-06
0.000922645
0.001121
1.78732e-06
1.81292e-07
0.00075215
1.94877e-07
5.06765e-10
3.45935e-07
0.00236736
0.000688207
0.000781322
5.69587e-10
1.90817e-07
1.47758e-10
1.20054e-07
1.79494e-08
1.24844e-07
3.17154e-06
1.57237e-07
1.97427e-08
3.88653e-09
6.54784e-08
5.39686e-06
1.18801e-09
1.67984e-07
6.28834e-07
3.95826e-08
1.26391e-11
1.19883e-06
6.26865e-07
5.79561e-07
3.3337e-07
3.84144e-07
9.30221e-08
2.98758e-07
2.81609e-06
1.57041e-07
1.15692e-07
2.22642e-06
8.29691e-06
1.34935e-10
1.77151e-08
3.87844e-09
1.17853e-06
1.86419e-09
4.95833e-08
6.27398e-12
7.38851e-06
0.00693057
0.00150837
2.55964e-06
3.86804e-10
2.00766e-07
0.000918467
0.00179254
2.10184e-08
4.88728e-06
4.80161e-08
1.07436e-08
7.61724e-09
2.40294e-09
2.75676e-07
7.44397e-07
7.74234e-09
8.68935e-10
2.91049e-07
1.05481e-08
0.00311357
0.00100849
2.33941e-07
2.30719e-10
3.07121e-09
0.000786964
4.72121e-10
4.71695e-07
1.0068e-08
1.08921e-05
3.26326e-10
1.28994e-07
8.15849e-09
3.82879e-09
2.00124e-05
0.00268412
0.0012055
2.6101e-08
0.00127929
7.01312e-10
2.52553e-07
2.96834e-08
0.0020094
7.81568e-09
3.05984e-06
4.26427e-10
5.40518e-08
4.94049e-06
2.441e-08
2.71871e-06
4.83672e-09
9.48751e-08
6.03943e-07
2.83032e-07
7.08998e-08
1.0865e-08
7.12516e-09
6.05366e-08
2.41319e-08
4.17976e-09
2.49444e-09
0.00125142
0.000691125
2.80419e-09
0.00139196
1.76706e-10
5.59648e-09
8.05136e-07
1.18586e-08
1.02945e-10
0.000647879
2.37226e-09
6.78965e-11
1.07638e-05
1.5879e-10
2.96791e-11
1.07856e-06
0.00156567
3.73131e-09
0.000694135
7.7941e-10
3.78528e-08
0.00083276
1.24156e-07
1.68286e-05
1.94435e-11
3.01936e-09
2.30407e-08
3.89391e-09
0.00369596
0.000756747
1.95224e-06
8.65401e-10
0.000864201
1.59823e-10
6.57536e-09
8.56592e-10
0.0017461
3.41496e-05
2.79743e-07
2.49978e-11
1.7297e-08
0.000899341
1.86884e-05
7.58695e-09
4.64254e-06
0.00185283
0.00143098
6.50005e-07
0.0014493
1.81227e-05
0.000795291
7.27704e-07
0.00114004
6.0006e-06
7.77316e-08
3.51843e-08
4.33912e-08
7.82544e-06
1.64057e-05
9.30939e-11
1.02879e-07
1.85476e-09
7.47427e-07
1.57637e-07
2.7839e-08
1.58804e-07
5.40559e-06
4.61326e-09
1.76811e-07
6.8828e-09
4.78303e-10
1.87332e-09
8.83098e-10
8.83756e-08
2.00029e-09
1.33107e-08
2.06056e-09
2.65913e-07
7.62275e-07
7.11807e-11
4.80235e-11
1.06696e-09
2.17704e-09
2.32881e-08
2.10436e-05
4.01008e-05
1.90806e-06
1.36134e-10
5.6747e-07
1.55188e-07
0.000861793
5.26543e-07
2.99647e-07
9.42365e-09
1.67398e-08
5.01115e-08
3.903e-06
2.00957e-06
0.00315654
0.00124967
1.46563e-09
1.42314e-05
5.53052e-06
8.54632e-10
4.83797e-08
8.94554e-08
2.1341e-09
3.88447e-08
8.00218e-08
0.00115007
2.67342e-11
1.56489e-06
3.07089e-09
0.000814037
9.72074e-07
0.000664158
6.2345e-07
8.40473e-10
1.15595e-09
8.85463e-09
4.87573e-07
3.43955e-07
7.43332e-08
1.6496e-07
2.04491e-08
1.4453e-05
5.37307e-06
2.38066e-10
2.01338e-06
9.56044e-07
8.44983e-07
1.70476e-06
5.70986e-05
8.09475e-08
0.00169846
5.67563e-09
1.17103e-07
0.000713285