/*--------------------------------*- C++ -*----------------------------------*\
  =========                 |
  \\      /  F ield         | OpenFOAM: The Open Source CFD Toolbox
   \\    /   O peration     | Website:  https://openfoam.org
    \\  /    A nd           | Version:  10
     \\/     M anipulation  |
\*---------------------------------------------------------------------------*/
FoamFile
{
    format      ascii;
    class       surfaceScalarField;
    location    "93";
    object      phi;
}
// * * * * * * * * * * * * * * * * * * * * * * * * * * * * * * * * * * * * * //

dimensions      [0 3 -1 0 0 0 0];

internalField   nonuniform List<scalar> 
109758
(
-3.25022e-06
0.0012199
-0.00121665
-0.00125267
0.00128852
-3.58429e-05
0.000104123
-0.00114987
0.00104575
-0.00144001
8.78732e-05
0.00135214
0.00146238
-0.000168367
-0.00125787
-3.61464e-05
-0.000405294
0.000396327
8.96712e-06
-0.00110845
-6.47068e-06
0.00111492
0.00202381
-0.000255907
-0.000384878
-0.00138303
-2.3729e-05
0.000849319
1.44627e-05
-0.000840053
0.000466448
-7.22068e-05
0.000596526
-0.000990768
-3.94238e-06
0.000586479
-0.000582537
0.00187436
-0.00152687
-0.00143887
0.00109139
0.000320908
0.00125913
-0.0014378
-0.000142235
0.00118864
-0.00121936
3.07223e-05
-0.000974056
0.00110819
0.00132825
0.000691364
-0.000946151
-0.000684506
0.000939293
0.000819587
-0.00157363
0.00140327
-0.000649229
0.00148429
0.00024236
-0.00110138
-0.000625273
0.00150006
0.000227957
-0.00121146
-0.000516552
-0.00144002
0.000171261
-0.000108862
0.00137762
0.00021598
-0.000290543
7.45626e-05
-2.63295e-05
-0.00119646
0.00028561
0.000937177
-0.000275455
0.000847486
-0.000572031
0.000251248
-0.000301532
0.00102946
0.0011621
0.000420145
-0.000405336
-0.00117691
1.76994e-05
0.00056346
0.000903135
0.0012414
0.00151639
-0.00194186
-0.000815931
-0.00109124
0.00108147
9.76898e-06
3.43219e-05
0.00112778
0.00149196
-0.00102647
0.000795221
-0.00126071
-0.00146098
0.00152969
-8.42921e-05
1.55893e-05
-4.98566e-05
0.000604453
-0.000554596
-1.44578e-05
0.000898703
-3.4835e-05
-0.00084941
-0.000827289
0.00082418
3.1089e-06
-0.000123912
-0.00131743
0.00110478
0.000336568
-0.00115982
0.00212098
-0.000718803
0.000577867
0.000170127
-0.000747995
0.000198048
0.00103984
-0.00147419
0.000236306
-0.000252275
-0.00111668
8.16384e-06
0.00136079
0.00114047
5.04914e-06
-0.00114552
0.00167385
-0.00110249
0.000734921
-0.00130628
-0.000392233
-0.000504919
0.000676483
0.000220669
-3.4194e-05
3.33716e-05
0.00167467
-0.0014472
0.00142462
1.32293e-05
9.34823e-06
0.000796994
-0.00079802
1.02611e-06
0.000330604
-0.00214984
-0.000329122
0.00214836
0.00099794
-0.000282626
-0.000251216
-0.000464099
-0.00111256
0.00138817
-0.000195413
-8.01929e-05
1.65581e-05
0.00102435
-0.00104091
-0.0022476
0.000142302
0.000187788
0.00191751
0.00107968
-0.000522353
0.000520002
-0.00107733
0.000398921
0.000616719
1.43418e-05
0.00140048
-0.00141482
-0.00105838
0.00106191
-3.52985e-06
-0.00121995
0.00125427
-0.000329716
-0.00175406
-0.000430749
0.00251453
-0.00228279
0.00318358
-0.000667403
-0.000233391
-0.00111409
0.000982986
0.0011705
-0.00103939
-0.00180372
0.000708469
-5.92514e-05
0.0011545
-0.000718636
0.000263879
0.000645845
-0.000191088
-0.00149364
0.00142215
7.14934e-05
-0.00323415
0.000189556
0.00163169
0.00141291
-0.000314029
0.00130134
-0.00124954
0.000262233
0.00156926
0.00151345
-0.00189094
-0.0011379
0.00151539
-0.00190104
0.000921676
0.000514711
0.000464654
0.0013926
-0.00153986
-0.000857907
0.00100517
-0.00147634
9.85655e-05
0.000349148
0.00102863
-0.00112268
-0.000798878
0.000445212
0.00107496
-7.64981e-05
-9.37164e-05
-0.000904749
0.00100525
-0.000590188
0.0003727
-0.000787763
0.00141974
5.18704e-05
0.000602377
-0.00207399
-0.000520499
0.000192043
0.000328456
-0.00211827
0.00134941
0.00158318
-0.000814318
0.00080301
-0.000759553
-4.34566e-05
-0.000625596
0.000196537
-0.00168922
0.000106498
-0.000881224
-0.00028365
-0.000270509
5.60311e-05
-0.00086069
0.00107517
0.00174248
-0.00158309
-0.000333493
0.000174105
-0.00170475
0.00153669
-0.00105189
0.00119815
-0.000810862
-0.00100334
0.000616061
-0.000650728
0.00269958
-0.00135003
-0.000698823
-0.000152317
8.23331e-05
0.00152944
-0.00145945
3.64047e-05
0.00216825
0.000227598
-0.00243225
0.000866535
-0.00157358
-0.000132252
0.000839299
0.00123808
-0.000233155
-0.000898422
0.000128782
0.000991273
-0.00135853
0.000238474
0.000543385
0.00204822
0.00012956
-0.00272117
0.000961859
-0.00113389
0.00018023
-8.20095e-06
0.000655163
0.000735462
-0.00276354
0.00137291
0.000933331
-0.000103681
6.16187e-05
-0.000891269
0.00199178
-0.00149348
-0.00296907
0.00247077
0.0016908
-0.00190365
0.000844376
-0.000631526
2.05998e-05
-0.00159272
0.00146395
0.000108175
0.00164641
-0.0011528
-0.000363116
-0.000130491
0.000889514
2.08694e-05
-0.000910383
-0.00170033
0.000293929
0.00118723
0.000219163
0.001115
0.000743623
0.000571255
-0.00242988
0.000918861
-0.00165733
0.00114789
0.00249095
-0.00144436
-0.00219448
0.000917342
1.51931e-06
-0.000367348
0.00119345
0.00119906
-0.00202516
0.00105162
0.000300464
-0.000149039
-0.00120304
8.12713e-05
0.000922282
-0.00100355
0.00141395
-0.000116778
5.53395e-05
-0.00135251
-0.00057788
-1.89526e-06
0.000579775
-0.00132411
0.0010215
-0.000798771
-0.000237697
0.00179639
-0.00188908
0.00033039
0.00043186
-0.000362755
-0.00145274
0.00138363
0.000287593
-0.000293291
-0.000681616
0.000687315
-0.000368711
-0.000989352
0.00123681
0.000121254
0.000447789
-0.00121933
0.0012687
-0.000497157
0.0009278
0.00028347
-9.27808e-06
-0.00054947
-9.87634e-05
0.000657512
0.000179575
0.000352953
-0.00203725
0.00150472
-0.00131194
0.000166439
0.00134822
-0.000202721
0.000973621
0.000158181
9.90378e-05
-0.00123084
0.000205012
0.000768609
0.00143165
0.000288439
-0.00156191
-0.000766644
-0.000873105
0.00130308
0.000336666
0.00135803
0.000183636
0.000199572
-0.00174124
-0.00146801
0.00125527
-0.000411796
0.000624535
0.00134627
0.000290397
-0.00104608
0.00117846
-0.0010877
0.000955314
0.00146317
-0.000211192
-0.000286436
-0.000965543
4.01839e-05
-0.00160661
0.00174202
-0.000175592
-0.00152931
-3.75929e-05
-0.000422845
0.00198975
0.000938753
0.000505938
-0.00148564
4.09454e-05
-0.00101895
9.45232e-05
0.000894848
2.95762e-05
0.000184212
5.68991e-05
-0.00188305
0.00164194
-0.000930542
-6.18494e-06
0.000936727
0.000193161
0.0013321
-0.00134105
-0.00106141
0.00142123
-0.000773872
0.000414052
-0.00121315
-0.000777931
0.00157792
0.000413154
0.0012743
0.000244363
-0.000722733
-0.00079593
-0.0020102
-2.81177e-05
-0.000282983
0.0023213
-0.00129462
-0.000777598
0.000565875
0.00150635
0.00177652
-0.00174078
-0.000112085
7.63437e-05
-0.000263761
-0.000789097
-0.000701206
0.00146079
0.00108168
0.000271137
-0.00281361
0.00211355
0.000267152
-0.0023443
0.000214717
0.00110499
-0.00131971
3.5193e-05
-0.00108864
0.00105345
-0.00103479
-0.000214744
0.00019758
0.00105196
9.21863e-05
0.00134678
-0.00128485
-0.000154109
-0.00221981
-0.000254855
0.000576582
0.00189808
0.00122521
-0.00129639
0.00110861
-0.00103743
0.000159163
0.000143143
0.000922905
-0.000874119
0.000847543
2.65762e-05
-0.000919564
3.02039e-05
0.0013331
-0.000443745
0.000264497
-0.000672249
-0.0004928
0.000900552
0.000674458
-0.000702071
2.76138e-05
-0.000961831
0.000910026
-0.000218704
-5.08482e-05
-0.00101117
-1.05846e-05
0.0010726
0.00171104
-0.000192142
-0.00108591
-0.000432988
-0.000408183
-0.00186734
0.00250693
-0.000231406
-0.00162342
0.000562167
-0.00135661
0.00151467
-0.00015806
-0.0007317
0.00065921
-0.0010272
0.00109969
0.000547792
-0.000670698
-0.000497645
0.000620551
-0.000920508
-0.00126231
0.00100159
0.00118122
5.03256e-05
0.00141135
-0.000139972
-0.0013217
-0.000358594
0.00170981
-0.000286489
-0.00106472
-0.00159261
0.00134672
-9.64605e-05
0.000342354
-0.00117011
0.000933295
-0.00100757
0.00124439
0.00121557
6.57129e-06
-0.00122215
-0.00180189
0.000389472
0.00176157
-0.000345344
0.00142184
-0.0010765
8.7803e-05
0.0014351
-0.0015229
0.00019794
0.00123675
-0.00189563
0.000460947
-0.000951419
-0.000989208
0.00106173
0.000878899
0.000693949
-0.000199954
0.000511257
-0.00142026
0.00148338
-3.80443e-05
-2.50759e-05
-0.0014178
1.42137e-05
-1.66723e-05
0.000752111
-0.000451067
0.0018499
-0.00215095
-6.85899e-05
0.0018046
-0.00173601
-0.00118324
0.000849679
-6.59295e-06
0.000340158
-0.000902556
-0.00109785
0.00200041
-0.0006747
-0.00025329
0.00092799
0.00100464
1.26269e-05
-0.00101727
-0.00159629
-2.5708e-05
0.00131307
0.000308924
-0.000461728
0.000638659
0.000839072
-0.001016
-0.0017677
0.000484154
0.000821815
0.00172075
-0.00271128
0.000575303
0.000415225
-0.00144926
0.00146266
-3.97343e-05
2.63366e-05
0.00193041
-0.0019298
-1.5334e-05
1.47234e-05
-0.00109047
1.53677e-05
0.000268953
0.000806153
7.6516e-05
-0.00113686
0.00106034
-0.00123426
-0.00175227
0.00118841
0.00179812
0.000148951
0.00161167
-0.000746196
-0.00101442
2.03111e-05
-0.00155706
-2.3304e-05
0.00156005
0.000256096
0.00139847
0.000329891
-0.00198445
0.000203735
0.00139801
-0.00147292
-0.000128825
-7.47378e-05
-0.00109357
0.00137204
-0.000894759
-0.000757662
0.000384934
0.00126749
0.000841605
4.83163e-05
-0.000889922
0.00135885
0.0013035
-0.00157417
-0.00108817
1.71502e-05
-0.00108204
0.00106489
0.000302853
0.000132608
5.88239e-05
-0.000494284
-0.00142046
-2.28088e-05
0.000469968
0.0009733
-0.00104625
-0.000536721
0.00158297
0.000845665
-0.00111033
0.000393777
-0.000129107
-0.00146894
0.000185132
0.00134016
-5.63434e-05
-0.00147996
0.00179845
-0.0014129
0.00109441
-5.93782e-06
-0.000888821
-0.00114273
0.00111069
3.2042e-05
-0.00147879
-0.000770769
0.000146091
0.00210347
-0.000136591
0.00130041
-0.00116382
0.00103752
-0.000815804
-0.000221716
0.000925057
-0.000930994
-0.00111197
-1.79601e-07
0.00111215
0.000508604
0.00138602
-1.33941e-05
-0.00188123
-0.00113548
0.000172965
0.00096251
-0.0012633
-0.000444592
0.00131581
0.000392086
-0.00190958
0.000262471
0.00186422
-0.000217108
0.000944203
-0.000916803
-2.73994e-05
-0.000726219
-0.00101909
0.00390906
-0.00216374
-0.00148232
0.000543016
-0.000373406
0.00131271
-0.000750872
-0.000179468
-0.00117522
0.00210556
-4.24629e-06
2.67599e-06
0.00130695
-0.00130538
0.000707913
-0.00209654
0.00285882
-0.0014702
-0.00121628
0.00121203
0.00155709
0.000401068
-0.00190737
-5.07924e-05
0.00108535
0.000148427
-0.00136328
0.000129497
0.000950322
0.00044536
-0.00159415
0.000198468
0.000903689
0.000181666
-0.000541821
0.0016914
-8.92393e-05
-0.00106034
0.000326688
-0.00148648
0.00190082
-0.000741021
-0.00167243
0.000121705
-4.95142e-07
0.00155122
0.000971741
0.00374514
-0.000594218
-0.00412266
0.000450125
0.000343071
-0.000596686
-0.00019651
0.000310169
0.00112358
-0.000508285
-0.000925462
-0.00090559
0.00088428
-0.000520511
-5.07586e-06
0.0016915
4.97589e-06
0.00133531
-0.00135024
0.000213994
-0.000199064
0.000316205
-0.000105697
0.000806875
-0.00101738
-0.00130105
0.00126667
0.000182805
0.00039257
-0.000768654
-0.000879937
0.00125602
0.000542003
0.00150816
-0.00150678
0.00112911
-0.00147853
0.000199701
0.000149714
0.00111297
2.0648e-07
-0.00111317
0.00242811
-0.0024973
0.00202063
-0.00195143
0.00037028
-0.000955438
-0.000476592
0.00106175
0.000384902
0.000204412
-0.00163414
0.000974106
-0.000580764
0.00124079
-0.00200268
0.000452176
0.0016851
-0.000134595
-0.00156251
-0.00086206
0.00313248
-0.000159408
0.00191785
-0.000633975
-0.00112447
0.000924589
-0.000466554
0.00171247
-0.0021705
0.000184432
-0.000870269
0.000741012
-5.51753e-05
-0.000382712
-0.00125563
0.00144249
0.000195849
0.0010811
-0.000611828
-0.00043966
-2.96132e-05
0.000548055
0.000229714
0.000290547
-0.00106832
-0.00077621
0.000995613
-0.000219403
0.000889419
-0.000828529
0.000123543
3.0509e-05
-0.00135782
0.00132731
0.00104324
-0.00121554
-0.000210413
0.000264641
0.00118148
-0.000265106
-0.00118101
-3.99609e-06
-0.000963851
0.000967847
0.000524866
0.00161287
-0.000883497
-0.00125423
-8.71017e-05
-0.000626652
-0.000424781
0.00113854
-0.000294682
-0.00162193
1.08132e-05
0.0019058
-0.00102994
0.000416977
0.00125932
-0.000646361
7.62165e-05
0.000967025
-0.000857691
0.000933908
0.000926203
0.000247569
9.98333e-05
-0.00127361
-0.000489268
0.00218876
-0.000142405
-8.91888e-05
-0.000621673
0.000566717
0.000144145
-0.000206148
0.00243521
-0.000115509
0.00197589
-0.00102622
-0.000424808
0.00225369
-0.000275377
-0.00120923
0.00180742
-0.000322815
-0.00228038
0.00191557
0.000936711
-0.000571894
5.77222e-05
0.00104784
0.00087033
-0.00100408
-0.00131894
0.00139248
-0.000716496
-0.000988294
0.0019098
-0.000205008
0.000740358
0.000843269
-0.00158363
2.62061e-05
0.000168858
0.00222426
-0.00241932
-0.00117465
0.000993011
0.00144018
-0.00125854
0.00135765
-0.00214588
0.00172483
-0.000936606
0.000449863
-2.28552e-05
-0.000427007
-0.000923922
-0.000517181
0.000171922
0.00126918
-0.000473728
-0.000679167
8.94747e-05
0.00117076
-0.000969109
-0.000291124
0.000984411
-0.00102511
4.06938e-05
0.000109504
-0.0013064
0.00137851
-0.000181617
0.00114615
-0.00282831
0.00139764
0.000284524
0.000655323
-0.000874229
0.000218906
0.000867502
-0.000110695
-0.000859819
0.000103012
-0.000174068
-0.00286966
0.00259051
0.000453211
-0.00113333
0.000194811
0.00132068
-0.000382168
-0.0011863
3.82127e-05
0.00114809
0.00118296
0.000200058
0.000785231
-0.000590197
-4.90241e-05
0.00152864
0.00010279
-0.00168152
0.00140466
-6.40072e-05
0.00116671
-0.0011027
-0.000816962
0.000505913
0.00135506
-0.00104401
-0.000185996
0.00155269
-4.38664e-05
-0.00132283
-0.000187231
0.00144232
-0.000975396
-0.000279696
-0.00100245
-2.22223e-05
0.00118133
-0.00015666
0.000832421
-0.0017401
0.000949973
-4.22947e-05
-0.000891554
0.000696967
-0.000716479
0.000911065
0.000863738
3.41355e-05
-0.000100879
0.000132408
-0.00125903
-0.000303375
0.00143
-0.000258137
-0.00138332
0.000618336
0.00102312
0.000493546
-2.11637e-05
0.00113424
0.000275165
-0.00138824
0.00058174
-0.000410095
0.00117228
-0.00134392
-0.000751427
0.000930936
0.00124243
-0.00142194
0.0020344
0.000510693
-0.00205154
1.59545e-07
-0.00121047
0.00121031
7.49058e-06
-0.00122642
0.00127537
-5.64406e-05
2.39025e-05
0.00131063
-0.00117891
-0.000155622
0.000394341
-0.00198937
-6.49562e-05
0.00165999
-0.00110094
0.00132101
-0.000220065
0.00020226
-9.24109e-05
0.0013259
-0.00143575
-0.00102586
0.000227835
-0.000709004
0.00107355
-0.00143077
0.00106622
-0.000327225
-8.10692e-05
0.000408295
0.00324053
-0.00158162
-0.000703459
-0.00095545
0.00130479
0.00334327
-0.00140753
0.00216175
-0.00199884
0.000188993
0.00110084
-0.000852253
0.00121911
-0.000386537
1.96759e-05
-0.000251257
4.69069e-05
0.00178753
-0.00125108
0.000470994
0.000960736
-0.00018065
-0.00105227
0.00174107
0.000130784
0.00122123
-0.00139806
0.000708613
-0.000531782
0.000181385
0.0024566
-0.00243572
0.000735105
6.38375e-07
-0.000735744
-4.21302e-07
-0.000956672
0.000957093
0.00170508
0.000137881
-0.0003816
-0.00146136
0.00221036
-0.000712146
-0.000935435
-0.000562782
-0.000139744
-0.00280313
0.000846335
-8.60912e-06
-0.000679292
0.000687901
0.00147048
-0.00134926
-0.00133356
0.00121234
0.00106482
0.000444026
-0.00125275
0.000864079
-0.000532504
-0.00131812
0.000986549
-0.00104283
-9.42598e-06
-0.000803486
0.00185574
-0.00159306
-6.80551e-06
0.00159987
0.000993015
9.37501e-05
-0.00105663
-3.0139e-05
-0.00127232
-2.08259e-05
0.00129315
6.42876e-05
0.00107033
-0.00113462
-0.000782624
0.00173422
-0.000125972
-0.000825625
-0.00187853
0.00226247
0.00142709
-0.00181102
0.00090121
0.000769379
-0.000208424
0.00133807
-0.00086502
-0.000264625
-0.000229704
-7.78818e-05
-0.00115526
0.00146285
0.00130449
-0.00114736
0.000912642
-0.00106978
-0.00123774
0.00128822
-5.04762e-05
-0.00151433
0.000253322
0.00130058
-3.95706e-05
-0.00264297
0.000528631
0.00201067
0.00010367
0.00026077
-0.000334894
-0.0013086
0.00138272
0.00190152
0.000181185
-0.00109222
-0.000990486
0.00103427
-0.000786404
-0.00104136
0.000793492
0.00119111
1.19198e-05
-0.00120303
0.00011031
-0.00202632
0.00148252
0.000433486
0.000752763
0.00044891
-0.000300463
0.000273709
-0.000881917
0.00128587
-0.000677663
-0.00054533
0.000529508
-0.000121952
0.000137774
-0.00362619
0.00437319
0.00141029
-0.00215729
0.00181969
-1.18921e-05
-0.00181891
1.11199e-05
9.12225e-06
0.00146345
-0.00157281
0.000100237
-0.00219283
0.00192113
-0.000510927
0.000974379
0.00121973
-0.00110391
-0.0010902
-0.000967717
-6.94979e-05
-0.000105247
0.00114246
0.00101052
5.27212e-05
-0.00106324
0.00128827
-7.10599e-05
-0.00121721
-0.0022776
0.0021463
8.4497e-05
4.6808e-05
7.0718e-05
0.00146789
-7.20475e-05
-0.00146656
0.000909405
0.000458535
-0.00297751
0.00160957
-0.000630633
0.00063064
-7.2671e-09
0.000924177
2.11364e-06
-0.000926291
-4.66681e-07
-0.000556871
0.000557337
-0.00053076
0.00108031
0.000725896
-0.00127545
3.54192e-06
-0.00114345
0.000897098
0.000242808
-0.00128321
-0.000526043
-0.00046835
3.25618e-06
-0.000888553
-0.000132238
0.00101754
-0.000687378
1.28534e-05
0.000674525
0.00023501
0.000729257
-0.000237593
-0.000726673
0.00050284
-0.000895073
0.000392234
-0.000243041
-0.000833082
-0.000310434
0.00138656
0.000709478
0.000940652
0.000138596
-0.00178873
0.00185642
-0.000675188
-0.000601585
-0.000579651
-6.80731e-05
-0.00153316
0.0017869
-0.000185671
0.000735846
0.000387508
0.000212753
-0.00133611
0.0023203
0.00103342
-0.00217625
-0.00117747
-2.84192e-06
0.000587579
-0.000584737
-0.00137318
4.09062e-05
0.000317751
0.00101452
-0.00134584
-0.000149404
0.0015311
-3.58617e-05
0.000374607
-0.000468965
0.00191404
-0.000476421
0.000629235
-0.000152814
0.000937428
2.69537e-05
-0.000964381
0.000194473
0.0001224
-0.00123676
0.000919885
0.00131798
-0.000129586
-0.00122666
3.82662e-05
-0.00111338
-7.11766e-07
0.000237698
0.000322009
-0.00146108
0.000901378
-0.00135678
9.78311e-05
0.00125895
-5.32452e-05
-0.000949204
-0.000123771
0.00208953
0.000147247
-0.002113
0.0011165
-0.00118253
6.60285e-05
-0.00119417
0.00118139
1.2781e-05
0.000959585
-0.00108336
0.000262538
0.00087631
0.0010891
-0.00222794
-0.00117263
-0.00064015
0.00181278
-9.07325e-06
0.000836219
-0.000827146
-1.94505e-05
-0.000909696
0.000929146
0.00111466
-0.00110766
-6.99503e-06
-0.0012353
4.73895e-05
0.00124198
-5.40671e-05
0.000302177
-0.0013909
0.00106239
0.000693704
0.000583294
-0.00233832
0.00106132
0.00072123
4.94193e-06
-0.000726172
4.73541e-05
0.00136519
-0.00141254
0.000672029
2.4284e-06
-0.00153956
0.00137049
0.0012989
-0.00112983
-0.000969612
0.000122951
0.00124336
-0.000396696
0.00169646
-0.00244432
0.000590936
0.000156918
-0.00218988
0.000487628
-0.00104584
0.00115596
-0.000110123
2.55934e-05
-0.00115989
0.0011343
-0.00100323
-1.97439e-05
0.00102297
-0.00117457
6.31006e-06
0.00116826
0.00112361
-0.00123202
0.000108409
1.46587e-05
0.00173367
-0.00174833
-0.000256877
-0.000234228
0.00124387
0.00123782
-0.00129281
-0.000883957
0.000938946
-0.000698661
0.000127294
0.00135654
-0.000785177
0.000666915
-0.00156868
-0.000101461
-7.29317e-05
0.00153349
-0.00146056
0.000454907
0.000424171
-0.000580051
-0.000299027
-0.000706413
0.00115821
-0.00139178
0.000939985
-0.00112406
-0.000427519
0.00155158
0.00227589
-0.00140321
-0.000872674
-0.000432104
0.00163506
0.00107133
-0.00227429
-0.00118648
0.00143897
-0.00143581
0.00118331
0.000508853
-0.000382306
-0.000584567
0.000458019
2.12514e-05
-1.36329e-05
-0.00127995
0.00127233
-0.00012002
-0.00179877
0.00191879
0.000404991
5.33188e-05
-0.00152678
0.00106847
-0.00150305
0.00116638
0.000336665
-0.000702811
-0.000351916
0.00101383
4.08981e-05
-0.000991034
0.000985993
5.04123e-06
0.000963444
-0.000814836
0.00120905
-1.03751e-05
-0.00157776
0.00158067
7.4618e-06
0.00304721
-0.000787983
-0.00152944
-0.000729785
-0.000471562
0.00166316
8.01698e-06
-0.00119961
-0.000550196
0.000819064
0.000457406
-0.000726274
-0.00132476
0.000778042
0.00137623
-0.000829506
0.000727336
-0.000868484
-0.000339346
0.00150738
3.97719e-05
-0.0012078
0.00090634
-0.000999647
0.000103565
-0.00213753
2.41617e-05
-2.11269e-05
0.0021345
-0.00029724
-8.38128e-05
-0.000799583
0.00118064
-0.00108436
0.00139484
-0.00110863
0.000798146
-0.00247905
-0.000334645
0.00260755
-0.00160744
2.26979e-05
0.00160911
-2.43698e-05
0.00100649
0.000162804
-0.000678801
-0.000490496
-0.000317255
-0.00123372
0.000655402
0.000895571
0.00106764
-0.000418626
-0.0014072
0.000758182
-0.00138746
-0.000357688
-3.09223e-05
0.00177607
0.00111012
-0.000136198
-0.00101856
4.46348e-05
0.000940139
-0.000944058
3.9186e-06
-0.000745499
0.00242687
-0.00201608
0.000334703
0.000156329
0.00143144
-0.00230353
0.000715757
-0.000945303
-0.000307833
0.0009934
0.000259737
0.000330121
-0.000316894
-0.00095853
0.000822374
3.31688e-05
0.000161046
-0.00101659
-8.82236e-05
0.00061578
-0.00266509
-0.00138856
2.8498e-05
0.00178201
-0.000421951
-0.000995175
0.00116127
-0.000166099
0.000489791
-0.000459338
-0.000649098
0.000618645
-0.000700622
-0.00128675
0.000808932
0.00117844
-0.000577184
0.00179593
-0.000661472
-0.000557275
-0.00148042
1.02522e-05
-0.00129569
0.00161555
-3.91227e-05
3.44989e-05
-0.00128144
0.00128606
0.00123733
0.00132706
-0.00141033
-0.00115407
0.000982107
-0.001013
3.08941e-05
0.00125367
-7.85461e-06
-0.00124582
0.00106973
-0.00124165
0.0003513
-0.000179384
-0.000312091
-0.000915254
0.00222074
-0.00164465
0.00141175
-0.000212801
0.000445708
0.000547068
-0.000744601
0.00176769
-0.00157016
-0.00157597
-0.00115001
0.00187367
0.000852307
-8.45251e-05
-0.00173661
0.000176482
0.000274846
-0.00144882
-1.18722e-05
0.00118585
0.001335
0.00035159
0.00180881
-0.00158397
-0.000594424
0.000369587
-0.00133912
0.00132918
0.00108383
-0.00107388
0.00101487
0.00050311
-0.00115203
-0.00036595
0.000508262
-0.00111715
0.000928091
-0.000319202
0.00139176
-0.00114096
-0.00181293
0.00156214
0.00145935
-0.00162443
8.05549e-05
-0.000901075
0.000905028
-3.95284e-06
0.000112622
-0.000102098
0.00151072
-0.0018049
0.00170269
-0.00140851
0.00111973
-0.00100711
0.00113739
-0.00122988
-3.75989e-05
0.000130096
-2.44462e-05
-0.000519487
0.000543933
-0.000123568
-0.00103694
0.00124388
-8.33706e-05
0.00191015
-0.0017191
0.000135739
-0.000326785
0.00020432
-0.00226693
0.000184073
0.00169606
-0.001736
-0.000187504
0.000227444
0.000371552
0.000279054
0.000461247
-0.00111185
-0.000100998
0.000948677
0.000923882
-0.00177156
-8.0458e-05
-0.00117136
-0.000325272
0.00157709
-0.000570282
0.00170889
-0.000464651
-0.000673954
-0.00106834
0.00045308
0.00168499
0.00104574
-0.00211857
0.000232243
0.000840594
-0.000305331
7.13924e-05
0.00192999
0.000313033
0.00142701
-0.000488565
-0.00125148
-5.20763e-05
5.41964e-05
-0.00123886
0.00123674
0.00185861
0.00010445
-1.30837e-05
-0.00194998
0.00103638
0.000454099
-0.000412052
-0.00107843
-0.00112278
-0.000479897
0.000534342
9.19172e-05
0.000648198
-0.000657842
-8.22732e-05
0.000189501
1.63502e-05
-0.0014475
0.00100858
-0.000527311
-0.000136938
-0.000344334
0.000148166
0.000701587
-9.81237e-05
-0.000751629
-0.00112205
0.000962858
0.00120493
0.000743296
-0.00323127
0.000629977
0.001858
0.000176842
-2.97965e-05
3.30032e-05
0.00127207
-0.00127528
0.00220461
-0.000708034
-0.00073217
-0.000764409
-0.001076
1.36874e-05
0.00147787
-0.00041556
-0.000136301
-0.00103832
0.00125231
-7.76835e-05
0.00104301
-0.00142211
-0.000694701
0.00107381
-0.000986762
0.000958594
2.81687e-05
-2.94996e-05
0.000952355
-0.000922856
-0.000466134
-0.00109054
-0.000402454
0.00195913
-0.000810257
0.000906431
-9.6174e-05
-0.000152964
-0.00132768
-0.0003346
0.00181524
-0.0023432
0.000863879
-0.00127881
0.00275813
-0.00160392
3.71484e-05
0.00156677
0.000757878
0.000839144
-0.000810991
-0.000786031
0.000976153
-0.00055923
-0.000184669
-0.000232254
0.00130381
2.84471e-05
-0.00133226
0.00124571
-0.00372526
0.000136345
0.000845564
-3.13726e-05
-0.000814191
-0.00144438
-0.000573065
0.00194084
7.66084e-05
-0.000876877
0.00452866
-0.00277262
-0.000879162
-0.00263805
0.00317648
-0.0004652
-7.32307e-05
0.00157614
-0.000908688
0.00219137
-0.000771847
-0.00168097
0.00248291
-3.00903e-05
-4.85013e-06
-0.000121767
-0.000680358
0.000806975
0.00148766
0.00190688
-0.00216891
-0.00122563
-0.00152915
0.00180813
0.000495835
-0.000774809
0.00169576
-0.000310944
-0.000663188
-0.000721633
0.000144773
-0.00108525
-0.000188514
0.00112899
-0.00322223
9.97279e-05
0.0016492
0.0014733
-0.00059131
0.00225045
-0.000872465
-0.000786678
0.000382053
-0.000937499
0.00178659
-0.00123114
-0.000193149
-0.000553036
0.00104585
-0.000299661
-0.000918769
0.000977633
-6.24411e-05
3.57687e-06
0.00160059
-0.00180673
-8.66699e-05
0.000292802
-4.87322e-05
-0.00159581
0.00160842
3.61198e-05
0.000130409
-0.000116281
-0.00152643
0.0015123
0.00220871
-0.000362558
9.40509e-05
-0.0019402
-0.00145324
-0.000305387
0.00037292
0.00138571
0.000491615
-0.000491627
1.26088e-08
0.00108931
-0.000741141
0.000726799
0.000226325
0.00208679
-0.000124769
-0.00218835
-0.000333091
0.000223796
0.000278329
-0.000169034
-0.00162884
-0.00202539
0.00292801
-0.00115806
0.00132611
0.00126298
-0.00143103
-6.49261e-05
0.00129224
-0.00163
0.000402695
-0.00123958
-0.00129808
-8.23589e-05
-0.000334373
0.00171482
-7.02326e-06
-0.000660541
0.000667564
-7.59903e-06
-0.000952222
0.00221978
-0.00125996
0.000650568
0.000916155
0.00163397
-0.000818244
7.66605e-05
-0.000892382
0.000717866
-0.000199439
-0.00119857
0.000680144
0.000901556
4.29082e-05
-0.00137382
0.000429356
-0.000648997
0.000537514
0.00203442
-0.00192294
0.00174325
0.00124582
0.000163175
-0.00315224
-0.00155846
-9.83715e-05
0.000315746
0.00134109
-0.00130656
0.00139167
-8.51106e-05
-9.11251e-05
0.000865389
-0.000129781
-0.000644482
-0.00026796
0.000551179
-0.000283219
0.00109025
0.00154933
-0.000695657
-0.00194391
0.000933218
-0.000934267
1.04883e-06
-0.00264369
0.000617079
0.00147719
0.000549419
0.000107166
-4.72243e-05
0.00128426
-0.0013442
0.000822271
3.38503e-06
-0.000825656
0.0016888
-0.00187529
-0.00120429
0.00139077
-0.00148673
-0.00287191
0.00171496
-0.000290421
0.000187566
0.00119571
-0.00109286
-0.000512312
0.00155843
-0.000164335
-0.000881779
0.000320285
-0.000846601
0.00124418
0.000973893
4.67236e-05
-0.00102062
0.00289245
-0.000699379
0.000171901
-0.00236497
0.00109291
0.000312811
0.000699757
-0.00167179
0.00080347
0.000168562
-0.00175999
4.98289e-05
0.00131964
0.00039052
-0.000328025
-0.000724101
0.000767
0.000285125
0.00103112
-0.00132801
0.000296884
-0.000365138
-0.000709917
0.00107506
0.000910562
-0.00058965
-0.00103369
0.000712776
-0.00039002
-0.000217001
0.00156007
-0.000953054
-0.000766329
-0.00122495
0.00094775
0.00104353
-0.00150525
0.00137458
-2.54236e-05
0.000156091
-8.7531e-06
-0.000928745
-0.000225007
-0.000820705
0.00103525
1.0465e-05
0.00157
-0.00147643
0.000428708
-0.000522274
0.00238292
-0.00237115
0.00108114
-0.000415479
0.000456077
-4.05978e-05
-0.000870995
0.00085969
1.13042e-05
-7.86727e-05
0.00109047
0.000372553
-0.00138435
-0.000691249
-0.00108919
-0.000429709
0.00221015
-0.000645517
-0.000496059
0.00224166
-0.00110008
0.00110986
0.000297614
-0.00148615
-0.00021439
0.00165447
-0.000752232
-0.000687845
0.000235179
-0.00109262
-0.000478888
0.00133633
-0.000304486
0.000187167
-0.00152328
0.0016406
0.00151748
-0.00109887
-0.000839893
-0.000626642
-0.000186832
0.00165337
0.00045311
-0.000229503
-0.000227105
3.49786e-06
-0.00177937
0.00207582
-0.00021145
-8.50003e-05
0.000581178
0.000641816
-0.000610881
-0.000612113
-0.000244574
0.0012686
2.66644e-05
-0.00105069
0.00141763
6.04601e-05
-0.00126686
-0.000211235
-0.000174523
-0.00174085
-0.000431493
0.00234687
-0.000150267
0.00125955
-0.00110928
0.00152475
0.00129506
-0.00173592
-0.0010839
0.00101106
7.83868e-07
-0.00101184
0.000111315
-0.00133188
-0.000333242
0.00155381
0.00238337
-0.000340057
-0.00112024
-0.000923073
3.393e-05
0.00239627
-4.68266e-05
0.00117146
-0.00111948
-5.19768e-05
-0.000421739
-0.000821547
0.00124329
0.00217764
-0.000581119
-0.00136857
-0.00101852
-0.000995941
0.0016744
9.48138e-05
0.000402997
-0.00157211
0.0010743
5.65047e-05
-0.00135669
0.000848711
0.000451474
-6.62882e-06
0.00118251
6.85649e-06
-0.00118273
-0.000230253
-3.1639e-05
-0.00111783
-0.000294165
0.00141199
-1.88541e-05
-0.000970206
0.00098906
0.00207604
0.000157788
-0.000133175
-0.00210066
0.000869593
-0.00161069
0.000388195
0.000352902
0.000548516
1.3466e-06
-0.000549863
-0.00158317
0.000258331
-6.39415e-05
0.00138878
0.0005669
4.19088e-05
0.00123644
-0.00184525
-0.00058283
0.000629059
-0.00174775
0.00170152
0.000174464
-0.000229334
-0.00163484
0.00168971
0.00116264
-0.00108612
-0.00249664
0.000284738
0.000736535
-0.000751328
-0.000762017
0.00077681
-0.000672315
0.000675194
-2.87859e-06
-0.00159847
-0.000564538
0.00239535
-0.000343195
-0.00148761
-0.000931589
-0.00028328
0.00126392
-4.90548e-05
0.000268457
0.00151826
-0.0005814
-0.00120532
-0.00300913
-0.00252846
0.00019711
0.00242342
-9.20654e-05
0.000179899
0.000129779
-0.00104314
0.000733461
0.00166676
-0.00153989
-0.00171993
0.0012151
0.000348059
-0.00156316
0.00173154
-0.000320161
-0.00123896
-0.000172428
-0.00103541
-5.73678e-05
-0.00069911
0.00179189
0.00170075
-0.00143862
-0.000506286
0.000244152
7.54164e-05
0.000527038
-0.00162509
0.00102263
5.25646e-06
0.000884642
0.000135528
-0.00102543
-0.000824967
0.00105042
0.000296721
-0.000522172
1.23368e-05
0.00145331
-1.14931e-05
-0.00145415
-0.00109795
0.00111029
-0.00102338
-2.28612e-06
0.00102567
-0.00167024
-0.000154166
0.000417775
0.00140663
0.00117466
-0.00114862
0.000687408
-0.000713444
0.000289875
0.00102037
-0.00110174
-0.000208507
-0.00141381
0.00206931
-0.000238204
-0.0004173
0.000823431
-0.000786847
-3.65837e-05
1.60467e-05
0.00065258
0.00171429
-0.00138146
0.00117765
0.000507083
-0.000303279
-0.000340573
0.000758879
-0.000418306
-3.5452e-05
0.00118656
-0.00115111
-0.00185959
0.000705287
0.000361787
0.000792515
-0.00334
0.00243423
0.000921823
0.00247912
-0.000296434
-0.000424096
-0.00175859
0.000991681
0.000121625
0.000634621
-2.94359e-05
-0.000665032
5.98474e-05
0.000686736
-0.00053857
2.68028e-05
-0.00159544
0.00156864
-0.00275522
0.00197
-0.000875203
0.00211122
-0.00142883
0.000192812
0.00144122
-0.00194934
0.000602934
0.0011079
-0.00202366
0.000390127
0.000525625
-0.00102912
0.00123608
-0.000206965
0.00214741
0.00044958
-5.29197e-06
-0.00259169
-0.00103156
0.00104042
-8.85965e-06
0.00280672
-0.00251559
0.000324647
0.00166339
-5.42819e-05
-0.00160911
0.00119367
-0.00121683
2.31605e-05
-0.00119336
0.000134077
0.00105928
-0.000459954
-0.0011292
0.000395792
-0.00244195
0.00160147