/*--------------------------------*- C++ -*----------------------------------*\
  =========                 |
  \\      /  F ield         | OpenFOAM: The Open Source CFD Toolbox
   \\    /   O peration     | Website:  https://openfoam.org
    \\  /    A nd           | Version:  10
     \\/     M anipulation  |
\*---------------------------------------------------------------------------*/
FoamFile
{
    format      ascii;
    class       volScalarField;
    location    "93";
    object      SgT;
}
// * * * * * * * * * * * * * * * * * * * * * * * * * * * * * * * * * * * * * //

dimensions      [1 -1 -3 -1 0 0 0];

internalField   nonuniform List<scalar> 
59698
(
0.0131338
0.000152975
0.000210209
1.97777e-06
0.0305583
1.93872e-18
0.00213733
3.03706e-05
9.30298e-16
2.1087e-17
7.5553e-16
0.000299245
1.13858e-16
6.21151e-06
0.000360114
1.63827e-16
6.93418e-06
0.00014603
4.52017e-05
0.000258417
0.00137873
0.0142696
1.20243e-07
4.35264e-17
0.0422611
6.79041e-05
0.000343011
0.00762956
0.0067772
0.00748801
0.00481227
1.54023e-16
2.93301e-16
0.012426
0.00249575
0.000163113
0.0190251
0.020565
3.09549e-05
0.0226017
0.00863012
6.58035e-19
0.00369082
0.000640834
2.47134e-17
0.0322324
7.33728e-05
0.000731367
0.000248775
0.000173749
0.00151833
0.000119242
0.000336527
4.91166e-06
0.00922233
7.67857e-05
0.00132335
0.000212908
0.000805563
0.00287258
0.00346258
0.000499482
0.122497
7.03634e-05
0.0125008
0.00160991
6.08705e-17
0.000399411
5.5659e-05
1.42286e-15
7.89408e-10
0.000250925
3.77828e-06
0.0412457
5.28527e-18
0.0392608
0.000119555
0.0092251
0.000359051
0.00615435
0.00880113
0.000479813
3.27114e-16
1.62122e-05
0.00844504
0.000552702
3.74681e-06
4.20119e-05
0.0630327
0.000129269
4.0705e-16
0.00206467
0.0146662
9.75101e-06
7.32579e-05
0.000160461
0.005255
6.11475e-05
0.00026533
6.26819e-18
0.0728706
0.00178466
0.0161933
0.0120101
0.000121527
5.54708e-16
4.42982e-05
3.67779e-05
1.80541e-16
1.06116e-16
0.000250387
4.68626e-06
0.0378702
4.4221e-18
2.61723e-05
4.49162e-05
3.97974e-05
4.45299e-06
2.33587e-05
1.3406e-16
3.63333e-05
0.000708149
9.35849e-07
6.15966e-06
2.12431e-05
3.34406e-05
0.0108148
2.06848e-17
2.79139e-05
2.93305e-05
0.041906
3.72414e-05
2.1773e-16
0.100051
0.0043376
0.00438446
1.66025e-06
1.25657e-16
0.000255386
0.000131352
0.000109291
1.56502e-06
0.000177889
0.00267535
9.80686e-06
0.000692298
5.8035e-06
2.17588e-05
1.72031e-06
0.0292728
4.20534e-05
2.20176e-15
0.00146043
7.35088e-06
0.000160946
0.000342791
4.73101e-05
3.24844e-07
0.0124223
3.55402e-17
0.000860399
5.10502e-05
0.016386
0.00162782
0.00342837
0.0323799
0.00023836
0.0715463
0.00047835
0.000411433
0.0119505
2.34782e-08
0.0108324
0.0147788
0.0791571
0.000727809
2.50849e-16
5.04638e-05
2.65888e-15
0.00636842
0.00948069
0.0183934
0.0148412
1.9827e-05
0.0455753
0.000235108
0.0114718
9.95472e-05
6.53138e-06
0.00118143
0.000403864
6.73944e-05
0.00267091
0.0386282
0.0041116
3.89575e-06
0.00983624
0.0558154
1.4284e-05
0.00772867
9.27272e-15
0.00620122
0.0211024
6.6232e-05
0.00694797
0.000327055
0.00615206
0.000797269
0.00511039
0.00802348
0.000134132
2.3654e-05
0.000161515
1.76723e-16
0.00407319
4.87013e-07
3.72599e-05
3.61605e-05
0.012821
0.00666245
0.00560561
0.000509335
2.98558e-05
0.0665115
0.000825114
0.02368
0.00731649
0.00323767
0.00693048
0.158923
7.13169e-16
0.00468849
0.00293878
0.00319829
1.38765e-05
0.0096164
0.0831715
1.9108e-05
7.17483e-07
0.000447879
1.10691e-05
0.00147704
0.0134793
1.4525e-17
0.00609121
0.000120863
0.0037671
0.2295
0.00122205
0.000426562
0.000705412
0.00164869
0.000628783
1.24949e-15
0.000618444
0.000694513
0.00601096
0.00128894
0.000497105
4.08864e-05
6.938e-06
1.73914e-16
0.000389482
0.00320974
0.00113702
0.0479251
2.32649e-05
2.44484e-15
0.000165148
1.6302e-05
0.000141372
0.0441522
0.000152963
1.8422e-05
0.0180066
0.000205934
1.62561e-07
0.000511423
0.00210129
4.35623e-16
1.42417e-16
0.00019317
0.000212564
0.105353
0.0460425
0.0202134
0.00013497
3.31334e-10
0.0733343
0.00044511
0.0903403
1.55962e-05
0.00018799
0.000164728
0.000320275
3.21068e-06
0.00035671
0.000804887
0.00420639
1.11692e-05
0.00272199
1.16702e-17
1.03611e-16
0.000825182
6.47829e-05
5.26694e-05
0.0520287
0.00101259
2.01702e-06
0.000267548
7.84863e-05
7.08308e-05
3.84238e-05
1.43036e-17
2.45008e-05
0.00513268
4.46312e-17
0.000392999
1.62648e-17
0.000804811
0.000340042
0.323002
0.000320564
6.53896e-17
0.0483867
0.010454
0.000328196
0.000353137
0.000439507
2.79375e-16
0.00649804
0.0041608
0.0203476
0.205782
1.07837e-16
1.87907e-05
9.87279e-06
0.000663065
0.00910781
0.00327895
0.0102582
4.00192e-06
2.87687e-05
0.00147696
9.68666e-05
6.75019e-06
0.000101195
0.039406
4.78349e-05
1.44901e-05
0.00799749
9.16754e-05
0.0402092
1.21439e-17
0.2462
0.000252983
0.0141732
0.000126076
3.81665e-05
5.19148e-16
2.75355e-05
8.86e-06
1.18778e-15
0.000887898
1.06814e-16
1.83783e-18
1.63022e-05
1.32132e-05
0.000156061
0.00167104
0.00188817
1.49473e-15
4.97022e-06
1.97507e-18
0.00619441
2.86003e-17
0.000153431
2.45635e-05
5.11496e-16
1.40897e-15
4.2336e-18
0.000103157
5.65309e-05
0.000523817
0.000140005
1.28471e-05
0.000211575
3.87482e-17
1.85223e-16
0.000143443
8.75552e-05
1.22959e-16
0.00126956
0.00258641
0.00128119
0.000474115
0.0480771
1.32271e-05
2.2919e-05
0.000145529
0.000408943
2.23564e-05
1.26149e-05
3.9948e-05
3.56506e-06
2.81718e-05
0.0820533
0.0253393
2.24312e-05
0.00542904
0.0316882
2.29936e-16
0.000146722
2.12329e-15
4.76686e-08
0.0590994
2.73189e-06
0.0103649
0.000503386
8.28375e-05
0.000115659
4.97611e-06
3.61814e-05
0.309046
3.75827e-05
1.30327e-05
2.27401e-16
0.000219899
4.67701e-05
1.48806e-15
0.000258054
0.000189169
0.0151748
0.00303064
0.00212775
9.06383e-17
1.00259e-15
0.212247
0.000123541
0.00105983
2.42675e-18
4.67495e-05
6.78694e-16
2.17376e-05
4.02753e-05
0.00240275
0.0700317
5.0935e-17
6.47696e-05
0.00906621
1.8274e-05
0.000125332
5.89784e-05
0.032753
0.000283207
9.69202e-05
0.10852
9.85361e-17
0.00963878
2.87836e-05
0.0543571
8.66116e-06
0.0125162
0.0133291
2.05569e-16
0.000974814
0.000446299
0.0084645
3.33416e-05
0.00803863
0.000447329
3.61322e-16
1.69471e-15
3.62713e-16
0.000385505
0.000815156
0.0011214
0.0690406
0.00321017
0.000256209
3.4985e-05
0.000498119
3.91802e-05
9.08809e-16
0.00536167
4.55274e-05
5.57203e-05
9.3902e-05
0.0658403
0.00179118
0.0231576
0.066453
0.00109352
0.000163562
0.0544545
6.14597e-05
5.44224e-07
3.59671e-06
0.00942646
2.33426e-16
4.46738e-16
0.0643879
0.007143
0.00459775
1.1438e-16
2.92511e-17
3.83656e-05
5.64946e-17
1.24674e-05
0.00314475
0.000586064
0.074818
0.0073814
1.54812e-18
0.0090903
5.59039e-05
3.00991e-17
3.85395e-05
3.8774e-18
3.75223e-17
0.00542526
0.00378386
1.16843e-05
3.1798e-17
1.99282e-16
0.00126032
0.00953713
1.03622e-05
0.00727238
0.000192892
3.88224e-05
0.0392577
7.90031e-18
2.22541e-05
7.21269e-07
7.67152e-16
1.69277e-18
6.72668e-05
0.000138717
1.48817e-15
0.00970987
0.000357434
0.000148087
0.0676778
0.00819547
0.0135486
0.0100212
6.35447e-06
0.0117255
3.84337e-07
4.20095e-05
2.29116e-16
3.92944e-05
8.54676e-17
0.000283138
3.01193e-06
7.22048e-16
0.00115045
0.0068863
0.000449534
6.15587e-16
3.41729e-16
3.30131e-05
8.13469e-05
5.57056e-05
4.47496e-17
0.0743441
5.2817e-05
0.00551977
2.12965e-16
0.00288469
6.44218e-05
6.33446e-16
0.00260076
0.00286987
0.0033839
6.7861e-05
0.0040263
0.000115158
2.71135e-17
1.18145e-18
7.60421e-05
0.00200178
5.44279e-05
0.00405025
8.90344e-16
0.00242842
1.7706e-05
0.00418791
0.00268198
0.0021648
0.000156831
0.000371667
0.000167853
1.04625e-16
1.90199e-05
1.29968e-12
0.00169548
9.03217e-18
4.88163e-17
0.00517079
3.36758e-05
6.03965e-16
3.02244e-05
0.00148062
0.00216188
0.000165252
1.2024e-17
7.40858e-05
6.33168e-07
8.08823e-06
0.000547967
1.01566e-05
0.00434019
0.00140827
0.00279235
2.21326e-05
0.225696
1.87939
2.06789e-05
1.30941e-15
0.000597269
0.00213724
0.000916367
6.15797e-05
4.8814e-05
0.00444611
0.00245935
0.00319071
0.00156203
7.38167e-05
1.4545e-15
9.21783e-05
0.00114273
0.000107748
0.00133028
0.000238072
2.42845e-05
5.22202e-05
0.106203
0.000238238
4.93785e-06
3.92769e-15
2.41666e-16
0.0024296
0.00381015
4.10737e-05
0.000337678
0.000120776
4.91886e-16
8.02412e-16
0.000176119
0.0082785
0.000804146
0.000586476
0.00011433
4.06051e-05
2.82213e-07
0.000326113
0.000209204
0.000309014
0.000814784
0.000881966
0.0198968
0.0894955
0.00137109
3.34811e-05
2.53931e-05
8.74506e-05
0.0415104
3.58167e-17
2.07484e-05
0.00046068
0.000109168
0.000144086
0.00168826
1.48868e-17
0.00825011
0.0473204
0.000145214
0.000422028
7.98292e-05
1.54826e-18
1.13039e-17
1.0677e-05
1.56404e-05
0.00215102
0.000194977
0.000191545
0.00861307
0.00440893
0.0362466
0.000807356
6.95468e-05
2.02371e-05
7.78807e-05
0.000242268
0.0011789
3.05576e-17
0.000159435
1.20819e-16
7.48083e-17
0.00660922
0.000819985
4.50874e-05
3.68118e-16
0.00634617
2.87101e-05
4.40001e-06
6.32645e-17
0.00156811
4.55381e-18
0.000504699
1.44925e-16
2.81524e-05
0.00195827
0.00922883
3.43399e-05
3.40866e-16
3.01389e-16
0.0603861
0.000806553
3.84155e-05
0.000954492
0.00146267
0.0256752
0.00695331
8.55668e-16
0.0558418
5.17539e-05
0.00256386
4.02833e-17
0.00769874
7.07336e-05
2.5374e-18
0.0111884
0.000185965
2.30066e-15
0.00308522
0.0598895
0.000585654
6.91333e-05
0.244259
6.4775e-06
0.000740077
0.00240147
0.00190296
0.00172868
5.24576e-06
0.0133216
1.89006e-05
0.0599222
0.00317398
0.022502
7.56791e-18
0.000212577
0.10496
0.237413
2.90569e-15
6.85994e-05
0.0501291
1.28285e-17
0.00225879
0.00516571
3.69201e-05
0.00609087
0.00405905
5.95986e-05
5.37922e-16
0.00197321
0.0142476
2.94393e-16
3.38928e-16
3.83457e-05
5.82426e-16
0.00436292
3.85417e-05
0.000223716
0.00608006
0.00521876
1.23486
1.00828e-17
0.0247213
0.00974875
0.0210489
0.00104571
0.00475579
1.15687e-16
0.000979133
0.00158484
1.55937e-06
0.00657664
0.0111208
0.103572
0.000320964
0.00543949
3.36839e-15
1.95378e-15
4.97641e-15
0.000366124
0.000232853
7.3088e-16
6.25729e-05
1.7651e-06
0.00951801
0.000143052
0.000730452
2.76647e-06
9.95728e-17
0.00686548
4.96683e-16
2.79129e-16
6.10866e-05
8.06315e-11
6.3315e-05
0.0137178
3.79268e-17
1.18547e-06
0.019921
0.209929
8.10453e-05
0.00872724
0.000129132
0.000670934
4.50938e-15
1.36362e-16
0.00167692
0.0008457
0.00751327
2.69497e-17
0.00627673
1.9714e-06
2.02574e-06
1.42024e-16
7.31696e-05
8.30382e-05
3.95428e-06
2.7333e-15
6.88917e-05
0.000209025
1.21223e-15
7.26833e-16
1.99379e-15
1.6892e-15
9.5654e-16
0.00204223
0.000191353
0.00153153
2.59427e-16
0.00406092
1.65162e-05
1.99404e-16
0.0158557
3.27416e-17
0.000153198
1.50849e-17
0.0355951
0.00489134
0.000878434
8.93285e-06
2.48211e-05
0.010587
8.60346e-17
0.00982537
0.000131947
2.02185e-15
0.000486616
8.01727e-07
3.31357e-05
6.5971e-15
9.90426e-05
2.43242e-16
0.00892704
4.636e-18
0.00205365
8.16758e-19
7.04093e-05
6.49718e-05
0.00164756
0.000598155
0.000177379
6.06384e-06
0.00202274
1.12279e-16
1.33595e-16
6.43127e-07
6.28082e-05
3.31445e-05
8.02213e-06
6.63907e-16
0.000267684
0.00372715
0.0182832
1.32078e-16
0.0010587
0.00297063
9.15804e-05
0.00281254
1.16638e-15
3.29787e-17
0.00448984
0.000148862
1.78305e-18
0.000185209
0.00162041
1.76022e-17
0.00263228
0.000106474
1.22462e-05
0.0655031
1.61688e-16
8.0088e-06
1.33421e-06
5.95732e-17
2.29171e-16
5.44607e-05
2.42094e-05
6.40114e-06
0.0202259
0.00399645
4.98254e-07
0.0408309
9.29811e-05
0.00133022
0.115561
0.000230057
0.00457807
0.00453066
0.032456
0.0586203
5.33455e-16
9.02413e-07
4.08615e-16
0.0247121
0.00027073
0.000345834
0.0014196
2.38697e-17
3.71335e-16
0.00243375
0.000575716
1.54048e-05
0.00679249
0.00279393
1.60925e-06
8.27591e-05
0.025107
0.000744317
0.000141625
4.69593e-05
4.98272e-14
5.67971e-05
0.000180698
0.00107203
2.04253e-05
4.84378e-05
1.70274e-07
7.77712e-16
0.000163722
0.00010707
0.00544153
1.80053e-16
0.00014168
0.00962782
0.00190906
0.000295276
0.000415256
0.000265282
0.000129663
0.000425249
1.55521e-16
3.75233e-16
3.65017e-16
0.00015112
5.32719e-18
0.000396077
0.0109298
0.0161405
0.0177991
7.5176e-06
8.50988e-06
0.00294742
0.00116674
0.00274009
0.00391987
0.000402594
4.6236e-05
0.000179609
4.39133e-05
0.0110759
0.0565659
0.00198457
3.62916e-16
6.66022e-07
1.75086e-17
8.76991e-05
0.00114981
0.000316702
0.00234082
1.13638e-15
2.482e-15
0.000122945
0.00236793
0.00235989
0.000784117
6.4738e-06
0.04723
3.47159e-16
1.58015e-05
2.86442e-06
0.0202942
2.51322e-17
0.000397227
1.43463e-05
0.00107092
0.000453846
0.00160225
0.00115259
3.42818e-05
7.90029e-06
5.14618e-05
1.32954e-06
0.00547347
0.00951892
0.0100913
0.0081651
0.00527466
0.0058618
1.39573e-07
0.000149615
2.07159e-16
0.00593032
0.00475263
0.00223039
8.9704e-17
0.000118846
0.00393151
0.000245582
0.00161003
6.35117e-05
0.014924
0.000126854
0.0407174
8.31762e-05
0.734312
7.53135e-06
1.31966e-16
1.35187e-05
2.35548e-05
4.0394e-15
2.33691e-10
0.0039942
0.00700138
0.0017675
0.000638213
0.00354775
4.07708e-18
1.38886e-17
0.0197178
1.79684e-16
0.000933679
0.00116056
0.000177621
0.000324149
0.0011263
9.90769e-17
7.07231e-16
0.0081252
0.000782439
0.092235
2.1237e-16
0.000659713
0.0818459
3.56678e-16
0.00874842
0.00277126
0.025232
1.5449e-05
0.00362457
3.49862e-05
6.72986e-06
0.00132129
3.35343e-18
0.0012382
4.22923e-05
0.000117193
0.000125917
9.18512e-06
1.89949e-05
0.00324174
0.00974954
2.6654e-16
0.00242583
0.000515545
0.00016033
0.0366221
0.0542602
0.00499678
0.000371184
0.00326331
0.457529
0.0239501
0.0262439
0.000459387
1.52953e-17
0.102654
0.000136549
3.90416e-17
1.50037e-06
0.0144391
0.000214542
0.00170602
0.000328455
0.00174844
6.82829e-17
0.00248134
0.00904185
0.00287994
0.000647634
0.000740458
8.81346e-18
1.15135e-16
0.000130967
0.00363419
1.246e-16
0.00114597
0.000584492
0.00778153
0.000354483
0.11636
4.51535e-05
0.00118796
3.37875e-07
0.00565894
9.29711e-05
0.00110712
0.00257566
6.79175e-17
1.57176e-07
1.2318e-05
0.00013782
1.31806e-05
3.82033e-05
0.0185388
0.0101968
1.04528e-05
0.00150417
0.0841296
0.00108698
0.00399532
0.000114634
1.80779e-05
0.00371822
0.0363768
0.00895377
0.0026513
0.000183603
0.00191012
0.00336496
0.00297935
0.00373018
0.00536995
5.27757e-17
0.116062
0.0500956
0.000486294
1.00106e-06
3.0476e-05
0.000480971
3.46058e-06
0.0260188
0.00113326
7.1905e-07
0.00229935
0.000372025
2.3306e-16
0.00356264
5.5685e-17
0.0026935
2.68007e-05
0.00148556
0.00377476
9.24075e-05
0.019401
0.000150777
5.46307e-17
0.00363437
0.000182935
0.000401447
0.002114
0.0118591
4.65466e-17
3.26139e-17
0.000374284
0.000265032
3.31817e-10
3.49083e-16
0.000190239
7.30228e-05
9.67963e-05
5.23494e-18
2.50581e-16
0.000855212
5.1857e-06
1.8365e-05
1.82954e-05
0.000321082
6.04931e-08
1.08144e-16
4.47929e-05
8.45948e-16
2.92823e-05
8.22395e-15
4.33462e-06
6.29399e-16
0.00388434
0.103255
5.30991e-05
0.00479402
0.0016924
0.00173235
2.96503e-16
3.49151e-06
4.41086e-05
0.00830776
0.0200338
0.00287026
5.01374e-05
5.10027e-16
8.51283e-05
1.13959e-16
0.00477262
0.00939734
1.10428e-16
0.00209789
0.00285095
0.00107631
0.00357723
1.78284e-05
0.0145421
0.00192253
0.00253688
9.67482e-05
9.02089e-17
3.32151e-16
5.26122e-05
0.00563887
8.20742e-06
9.85923e-18
3.49007e-05
0.00502698
0.000211621
0.00100936
0.00101874
6.00342e-05
3.36978e-07
4.84779e-05
0.00389414
9.71212e-05
8.94953e-05
0.0284267
0.00208573
0.000847988
6.13345e-05
1.51565e-17
0.00101734
8.36097e-17
0.0146551
6.87918e-16
1.08328e-15
0.00120623
3.45946e-18
0.000885383
0.000216993
9.13749e-12
7.30673e-18
0.000215581
0.000283702
1.17304e-16
0.0021994
6.99709e-06
0.000277633
0.000574201
2.43258e-05
2.14452e-16
0.00568012
0.000202427
6.34858e-18
0.0475973
6.51208e-05
3.27249e-05
0.000266173
5.95417e-18
1.62334e-05
4.29789e-16
8.78213e-05
1.39225e-16
9.55395e-06
0.000950857
0.000345182
0.0027285
0.00428871
0.00128669
1.52913e-05
0.0624888
4.14203e-06
2.48334e-14
0.00214817
0.000800685
0.00343249
1.06431e-05
2.20629e-14
0.351069
1.62939e-06
1.07903e-15
3.47006e-05
0.022979
0.00304136
1.38124e-15
3.82007e-17
2.06564e-05
0.00058858
0.0364502
0.00217504
0.00868382
0.0117863
1.63114e-16
7.08081e-16
2.11598e-16
3.6603e-05
0.00830086
9.23792e-16
0.0750257
9.41104e-17
0.000481228
7.22184e-16
2.03823e-15
4.14377e-16
0.000377703
0.00862742
0.0180554
5.08018e-16
0.00185797
0.0045147
3.27404e-17
0.000242771
0.000990443
0.00198344
0.000394119
0.000799954
0.00748915
0.0106576
0.000590374
0.00160599
0.00265611
3.69391e-05
9.24476e-17
1.05097e-15
0.0137396
0.0116003
0.00349722
0.0473736
0.00263888
0.000172141
0.00524061
0.000185334
2.11487e-15
0.00106471
0.0223434
0.000285397
0.0206113
0.011635
0.0341294
3.17646e-19
0.101068
0.00884292
0.00173676
0.00463446
0.0648686
0.000404673
0.0028243
4.16687e-06
7.91087e-05
0.00802115
0.00112754
3.13522e-05
1.82474e-06
0.000105005
0.0248893
0.293393
0.000157076
0.00898054
0.0002906
0.000143395
2.73455e-15
0.189892
0.00061762
0.286812
0.777439
3.27245e-06
4.49741e-16
7.5901e-06
0.000181487
0.0106889
0.00560344
0.0101492
0.0623957
0.0342665
0.00184309
1.34979e-05
0.0102566
0.0113477
1.21929e-15
0.000522626
6.54847e-17
0.000243292
0.000427451
1.97111e-17
0.138487
0.000201727
6.89091e-05
2.31783e-15
0.000261614
0.000181277
1.69229e-17
7.62361e-16
0.477742
0.0313848
0.184966
0.148555
0.00218714
2.54687e-16
0.00665249
0.00125103
2.80346e-05
3.9863e-18
0.0853471
1.99233e-16
3.2758e-06
6.97923e-05
8.74888e-17
0.016495
4.74203e-05
0.00854863
5.3043e-05
6.48903e-05
0.000137756
0.000616673
0.00112386
0.0130177
3.29898e-06
0.00115183
7.07394e-05
0.0148629
1.94025e-16
5.72534e-16
2.20793e-06
0.0134516
0.000151011
0.000165927
9.2013e-05
0.0314899
0.000503867
0.000196824
3.05116e-05
9.73173e-06
5.55523e-06
0.00307326
4.42125e-17
3.11202e-05
2.42213e-05
8.50884e-15
0.00012477
6.16545e-07
1.49263e-15
0.000209435
1.25388e-15
0.0107329
3.71897e-08
1.75e-15
0.0019019
0.00170574
0.00952572
0.000578031
0.010286
0.000302234
2.73676e-17
4.21695e-17
4.38797e-17
2.70949e-16
3.40321e-16
5.30135e-05
1.64627e-07
1.57183e-05
0.00947611
0.00173443
1.11013e-15
0.0175273
4.33966e-05
0.000204986
0.0145421
0.00621958
0.0123359
0.0131128
0.00334856
7.35892e-17
0.321133
0.0622305
0.000813013
1.20074e-17
0.01479
0.000913454
0.0242456
0.000103394
1.89762e-16
0.0119942
5.38932e-06
0.00677616
8.76343e-17
0.000132039
0.00756243
1.64808e-05
0.031275
0.355773
0.00113569
0.0548568
7.83689e-16
7.97675e-16
1.56263e-05
1.67024e-06
0.102682
1.29874e-05
0.00162615
0.000473384
3.014e-16
0.00165773
1.78797e-05
5.32323e-17
4.65655e-16
0.0267497
3.06406e-18
5.74018e-05
0.0619069
9.18823e-14
0.00269881
1.48146e-16
3.0884e-16
0.0010952
0.00015359
2.71709e-15
3.39918e-06
2.56991e-15
0.00249337
0.000524025
4.93876e-16
9.0987e-16
0.000856697
5.46681e-06
0.00279329
2.98674e-17
3.59964e-06
0.000627285
9.10135e-05
5.10907e-05
0.0320356
3.42969e-18
5.52587e-05
9.69815e-17
0.00168121
0.0337757
5.93269e-16
2.31158e-14
9.88125e-16
0.000169774
3.7229e-16
0.00195182
0.296687
9.58916e-16
2.80697e-06
4.1111e-05
1.87016e-16
2.56788e-15
9.83182e-16
0.000175953
9.48893e-16
0.000847045
3.15248e-16
0.00010571
0.000200383
2.78406e-16
0.0115271
3.03617e-16
4.22307e-17
0.00147907
0.000106388
0.00139592
0.0444707
1.00998e-15
0.000173044
0.000123652
8.53954e-05
0.000106805
2.65731e-05
9.948e-16
1.25576e-15
4.24705e-05
5.3205e-16
1.8656e-16
1.12389e-05
8.43857e-17
8.51785e-05
0.0226571
7.93316e-16
0.00620235
0.000123669
0.0156083
2.03923e-05
0.000119033
4.62798e-05
0.00439374
2.79837e-05
0.00410553
0.0192738
2.19966e-05
6.18977e-05
2.54414e-05
0.000149881
0.000856277
0.000348262
0.000107259
0.0163036
7.16886e-05
0.0104401
4.63713e-06
0.87593
0.440646
0.000109984
0.0409925
8.17648e-05
0.00039153
0.00938774
9.81915e-10
0.602821
0.0439272
0.00454188
0.000620535
0.0283334
0.392825
8.96202e-05
0.0249969
0.00440419
0.00220374
0.124244
0.044101
0.000576383
0.00095797
0.0259569
0.0487303
0.00411701
0.000310946
0.0324297
0.000205484
0.0139463
3.23771e-15
1.11207e-05
0.00660234
0.000214773
9.44124e-07
0.00391422
0.00012555
0.000127067
0.000294799
3.01348e-16
0.00785516
0.00602562
1.66384e-16
0.00044496
0.00170685
1.43637e-05
0.00407284
1.23112e-15
0.0115386
0.0638279
4.2233e-07
0.0331967
0.000140923
0.0011541
0.000143869
0.000444907
0.0302638
0.00415372
0.000222456
0.0273874
0.000303175
7.64045e-05
0.000365502
5.79709e-16
3.3314e-16
0.00539401
0.0259509
0.0146702
0.00509828
0.00548592
0.00104416
0.000132953
8.09926e-05
0.00013641
1.63116e-05
1.3605e-08
0.00175541
3.32524e-07
3.60755e-06
4.73482e-06
3.67021e-06
9.26852e-06
5.66875e-05
0.0102205
5.14026e-06
2.2037e-06
0.00340755
0.000275195
2.53668e-05
3.2652e-16
0.00682159
4.23112e-06
0.00507611
0.000442259
0.00428662
0.000119629
4.33241e-05
1.09174e-05
0.000116907
7.77076e-07
0.00153184
1.68776e-15
4.71733e-05
8.93889e-05
0.0346558
0.000166307
0.00427137
1.71821e-05
0.000176881
0.000311421
0.00841124
1.87696e-07
1.54579e-05
0.0036239
1.19154e-06
1.0228e-06
0.00190435
0.000365694
4.11778e-05
0.00299554
6.02582e-05
0.00599686
0.0290575
3.82939e-05
8.1082e-05
0.00297724
0.000328562
0.0042666
7.60963e-05
0.00615796
0.000357507
0.00279984
2.84214e-05
0.000731347
0.000920337
0.00721535
6.15649e-05
0.0200487
0.00612953
0.000237845
0.00138601
0.00159325
0.000251791
2.91854e-05
0.00247599
0.0218997
3.42183e-06
0.0376507
0.000202154
3.59012e-08
0.000109637
0.00188481
9.95397e-06
0.000882475
0.0137978
0.0213601
0.00206801
0.00957931
6.5775e-05
7.63581e-05
0.00437621
0.0143651
0.000448314
7.57375e-07
2.47917e-05
0.082248
0.041894
0.000104087
5.01361e-05
1.44215e-07
7.80006e-06
0.000114021
0.0337929
0.00869157
0.015851
3.88089e-05
0.00100407
2.85008e-05
0.0194552
3.43781e-17
0.00337341
2.53253e-05
0.0010467
0.0202807
7.46742e-05
0.000395163
3.60832e-05
2.6583e-05
5.96893e-06
1.68131e-06
0.023706
0.000227191
2.30294e-07
0.0199863
2.04082e-05
8.42376e-17
0.00043186
0.000362775
1.78905e-05
0.0133992
0.000466624
3.47328e-18
5.27337e-05
1.19574e-05
1.46417e-06
5.64599e-06
2.08261e-05
1.45102e-16
2.59752e-05
3.19948e-05
0.011592
0.00288841
0.000370077
9.69871e-10
0.000293314
0.0602079
3.80341e-05
6.82496e-16
0.0180784
0.00281543
2.22601e-05
0.0033225
1.81244e-14
7.59636e-17
0.0181833
0.00216915
0.0228802
0.000777221
0.0501432
0.014246
0.000125371
0.0256985
1.53808e-05
0.0892859
0.00325293
2.81528e-15
3.52642e-05
0.256298
0.00480722
0.00100667
0.00309637
0.000159971
0.0033553
0.0308437
0.00853639
0.00287078
0.144414
0.0037539
3.50044e-19
0.0177636
0.064181
0.0348065
0.0013269
3.31622e-05
0.000210848
6.05644e-05
0.000674855
0.0189919
0.0197359
5.13181e-09
0.0524375
0.0230535
0.000622271
4.03173e-06
0.0136987
0.00324626
0.000715459
0.0504374
0.000534987
0.000113558
0.0107079
0.0108663
0.0218345
5.89293e-05
5.27658e-07
0.00157735
0.0162951
2.70135e-16
9.43866e-05
0.172798
0.00257627
0.00123615
0.000724292
4.3617e-05
0.00435519
3.06891e-16
0.0186461
1.70589e-06
0.0140996
3.29595e-05
0.0056864
4.45026e-17
0.0164974
2.08675e-11
0.000118614
0.00874853
1.29214e-05
0.00660219
0.00771382
3.34316e-05
0.015898
0.000134111
0.0157029
0.00660669
0.0093158
0.056229
0.00558944
0.0293578
0.0346558
0.0169791
4.4467e-05
0.00453439
0.000173663
0.000964199
0.000915864
0.00126714
0.00221873
0.000637666
8.92748e-06
3.29829e-05
2.81114e-06
0.00133692
0.00127723
0.0521477
0.00324007
3.00664e-05
0.00011087
2.36681e-05
0.000452494
8.85478e-06
0.00106979
0.0299687
0.00253805
0.0019292
5.23208e-05
0.016998
4.70772e-07
3.2763e-05
1.87906e-06
0.000217404
0.0346166
0.00682745
0.000519908
0.000721904
0.00447939
0.000221133
8.81288e-05
0.00494666
3.264e-17
1.49934e-05
8.4806e-05
2.55349e-05
4.51578e-05
4.77236e-05
0.00104548
0.00865837
0.101293
0.000245162
1.81712e-05
6.74129e-06
0.000327466
0.00834861
0.00240003
5.34499e-05
5.17448e-05
0.00319074
4.86188e-05
0.010108
0.0744361
0.0447373
0.000174816
0.000525844
8.88097e-06
0.000115525
5.52903e-05
0.00391725
0.000451223
0.000754022
0.0141927
0.00193782
0.000279655
2.26665e-05
0.000415622
0.0298477
9.62557e-07
9.33518e-18
0.0110591
6.10454e-06
0.000561855
0.00466103
2.0824e-09
0.000105954
0.0005118
0.000145473
0.0226981
3.99834e-05
0.000114431
0.000300483
0.00511517
7.80797e-05
0.000698592
0.00010851
0.00128316
0.00952876
3.56575e-05
0.0285998
3.29057e-16
5.11272e-05
0.00240728
7.40952e-05
0.000338695
0.00347713
0.0011997
5.56119e-05
8.60241e-06
0.00180706
3.65449e-05
7.58881e-05
6.71775e-05
0.00335132
1.28387e-05
0.301463
0.000145089
0.000954039
8.51728e-05
3.11129e-05
0.000283273
0.000244987
0.00370086
4.92053e-05
0.00057242
7.44099e-05
0.000906583
0.0140386
0.00278659
0.111808
0.000861737
0.0100798
0.0104167
0.0123507
0.00126136
3.18076e-05
8.00561e-05
9.47707e-05
0.000101579
6.90315e-17
0.000258007
0.0115223
8.40518e-16
1.86905e-16
0.00376702
2.29225e-05
3.18356e-05
0.0150599
2.49347e-05
0.000112591
0.00191051
5.22834e-05
5.11475e-05
0.00158844
4.28158e-05
0.0243552
0.0132292
0.0102855
0.00190621
0.000139357
0.00158929
0.000292534
5.92613e-06
4.17557e-05
5.92103e-19
0.000101347
0.0109951
0.00691414
5.32746e-05
7.46644e-06
5.22535e-08
0.000257896
1.34074e-06
0.000341631
0.00411679
8.38822e-06
4.07576e-05
5.95442e-16
4.8975e-05
0.00276611
6.67333e-05
0.000335296
0.00227751
5.33095e-05
9.98617e-05
6.33102e-06
1.24314e-17
0.0537705
0.000479232
0.000671148
3.63493e-05
1.71229e-07
0.00221521
2.11649e-06
0.00343685
3.94696e-05
3.73352e-19
9.02525e-19
2.84058e-05
0.0194717
0.00321499
0.0241686
0.00159998
0.0512182
0.000104256
2.33865e-06
0.000236786
9.93032e-18
0.000883562
7.52775e-05
6.42343e-06
0.000102838
5.0259e-05
0.0192307
0.000441199
0.00232346
0.00572443
7.24804e-05
0.0108601
0.0036177
5.1162e-05
0.000933832
0.00319732
0.0297092
0.00030228
9.08408e-17
0.0635162
0.00887221
0.00642289
4.14899e-05
0.0625314
0.000269525
0.0152097
3.23499e-05
0.0172896
0.000198073
6.60739e-08
5.97792e-06
9.22596e-06
5.50919e-06
0.0402053
0.0146094
0.0145497
1.51797e-06
0.00231785
0.000107217
9.92818e-07
0.000961861
0.000104154
1.76839e-06
6.19906e-06
3.58862e-07
0.000130491
3.1993e-07
0.0360404
0.00308479
0.000345853
1.92661e-15
7.68904e-15
0.00168893
0.000455742
0.00151645
0.000733157
1.44905e-06
0.0140848
0.000252238
0.000665706
0.00204975
0.0012584
0.000129402
7.54463e-05
0.000176521
4.45138e-05
1.80958e-06
1.35148e-05
0.000108491
0.000666329
0.000102964
8.53584e-07
0.0168088
0.000216196
0.000579527
2.41468e-05
5.51676e-05
0.00049064
0.00695302
0.00290308
0.000585231
0.000214525
7.12598e-05
5.65686e-06
0.00438444
9.23646e-06
0.00752842
0.000392486
2.49515e-05
0.00188315
0.0958121
5.46706e-05
0.000193729
0.000518523
3.76116e-05
3.89271e-05
1.83373e-06
0.000199732
1.61109e-05
0.00138286
0.00372769
0.000584285
6.76615e-05
7.6484e-07
0.000462832
0.00948965
5.93352e-07
0.000141314
8.77343e-06
2.45874e-05
0.000369943
0.000182677
2.15857e-05
0.000293254
4.72373e-08
0.000101078
7.35158e-13
8.70653e-17
0.000198337
0.120115
8.22298e-06
0.000566397
0.000226654
0.000105431
0.0117041
8.36714e-06
0.00275415
0.000121935
7.93755e-05
0.000513664
1.92801e-05
0.000205602
1.81237e-06
3.92075e-06
0.000108701
0.000122829
0.0185817
0.000603105
0.000357036
0.000357191
3.41313e-06
4.44376e-05
0.000179613
0.00262435
3.07072e-05
2.32974e-17
2.9797e-06
0.00116526
1.48711e-05
0.0122812
0.000292657
8.34107e-08
0.00016162
0.000127088
0.0842776
0.000382195
6.56345e-06
3.07353e-17
8.58718e-18
0.000211776
0.000597937
0.0264486
0.00862016
1.75663e-15
3.06009e-05
0.037485
0.0399796
1.76277e-17
0.0179311
0.00591977
0.000397457
0.000129758
2.32407e-16
5.79595e-17
0.000316711
3.4349e-16
0.00437113
1.50455e-05
0.000162533
2.60188e-05
5.6523e-05
0.00600953
7.7432e-05
3.94162e-05
3.90811e-05
8.12546e-18
0.000200226
2.49348e-17
3.98581e-16
0.999852
0.000185424
0.0193961
0.00306578
1.08952e-05
5.25906e-17
0.015681
0.00188673
1.99083e-05
1.62849e-05
0.00328521
2.01509e-15
5.40544e-06
0.000397614
1.69695e-05
0.00222335
0.000556957
0.000476382
0.000532948
5.81969e-06
6.98831e-05
0.0197867
0.00282886
0.000591913
2.9759e-17
0.00355068
9.60491e-05
9.38112e-05
0.00024337
0.00921628
0.0125219
0.00413301
0.000755628
0.000178847
0.00253234
0.00190563
0.00204675
0.000464965
0.000229032
3.187e-18
0.00366955
0.00169101
0.000126474
0.000108195
0.000751643
0.00158815
9.92099e-17
4.36808e-16
0.0225966
1.10831e-05
0.000905213
0.000296412
0.00331102
0.0098869
3.40106e-07
8.87363e-05
0.00550348
0.000154123
0.000125337
7.29358e-05
4.34753e-06
1.27392e-05
1.75321e-05
0.00362074
0.0129054
1.37848e-17
0.00606674
0.00161214
0.151912
0.000167637
0.001379
3.06607e-05
0.00905622
1.14362e-05
8.62676e-05
2.58637e-05
0.0198717
1.20226e-05
0.000513592
0.000695366
1.97096e-05
0.00680215
6.54369e-05
0.00220025
0.0168453
0.00697279
5.48107e-05
3.7957e-05
0.012208
0.000135747
4.43147e-05
0.00189965
0.000772567
0.00188783
2.1118e-05
0.00011147
0.00463756
0.00326015
6.36835e-05
2.80567e-05
0.00025745
0.00192066
3.02378e-18
7.62947e-05
2.51982e-06
0.000923445
0.0149139
0.002847
0.00155436
0.00337999
0.000488627
0.0313868
0.0013241
0.00739714
0.000252116
1.03827e-05
0.000236712
2.75052e-05
0.000448988
5.86812e-06
9.43533e-18
0.0011984
0.000153016
0.0373123
0.000764815
0.00785694
5.42658e-05
0.00744197
0.000341972
0.0147984
0.0174549
0.00139783
0.0097652
1.08141e-05
0.000372813
2.8285e-06
0.000595467
0.00021875
0.000349548
6.1909e-05
0.000307355
9.78433e-05
0.00265242
2.10497e-05
5.57676e-05
5.96425e-05
4.01556e-16
0.0265245
0.000162014
1.6094e-05
3.38697e-05
3.1154e-05
0.000138325
0.00540623
8.61168e-05
3.33186e-07
3.43782e-05
0.00159376
0.00312208
0.000253099
0.0157303
0.0133022
1.44782e-16
0.000207511
0.000163578
9.9875e-05
0.000293282
0.000472575
0.000449671
2.3751e-05
0.000931379
0.000450122
0.00532319
5.30719e-16
0.00117708
0.000533862
0.00837108
0.00527024
0.00868548
2.06297e-05
0.0538016
0.0219315
0.0973235
2.05111e-05
0.000145471
3.69925e-05
0.000271271
0.00676359
0.0101798
0.0300469
0.0247168
9.24602e-06
1.58258e-05
0.00777944
0.000404188
0.0173972
0.301462
0.0175946
0.000342622
0.000448542
0.0161882
0.00159748
0.000242413
0.000728502
0.161596
1.37588
6.94907e-05
1.01597e-06
6.36967e-05
0.00344783
0.00105184
0.00185609
0.00270183
0.00196423
0.00211693
0.000882741
2.89117e-06
3.11821e-05
0.000207643
1.07178e-07
5.6854e-05
0.000444318
2.80598e-05
9.13061e-07
0.00319706
0.0110376
0.00402695
2.5111e-07
1.07581e-05
3.32669e-05
1.97782e-07
6.56505e-05
3.00717e-05
0.00885529
5.68781e-16
0.0312399
0.000108334
0.0486366
0.0150296
0.000247462
0.00215975
1.00762e-05
0.00234697
0.000136923
0.000872803
0.0840144
1.10297e-05
2.87143e-18
5.55189e-10
4.31075e-05
0.00347078