/*--------------------------------*- C++ -*----------------------------------*\
  =========                 |
  \\      /  F ield         | OpenFOAM: The Open Source CFD Toolbox
   \\    /   O peration     | Website:  https://openfoam.org
    \\  /    A nd           | Version:  10
     \\/     M anipulation  |
\*---------------------------------------------------------------------------*/
FoamFile
{
    format      ascii;
    class       volScalarField;
    location    "38";
    object      T;
}
// * * * * * * * * * * * * * * * * * * * * * * * * * * * * * * * * * * * * * //

dimensions      [0 0 0 1 0 0 0];

internalField   nonuniform List<scalar> 
111485
(
303.15
285.234
301.178
303.15
298.741
283.15
299.234
293.584
296.714
286.437
300.739
296.447
300.462
284.666
300.214
286.914
299.38
300.895
294.509
303.15
303.15
283.15
297.609
288.888
301.551
303.15
293.485
300.711
289.288
303.15
300.819
294.45
303.15
283.15
283.495
283.15
302.329
297.886
283.149
296.969
283.15
290.081
297.372
302.938
303.181
303.15
287.679
288.743
290.132
303.15
303.15
283.15
303.15
299.322
303.15
293.918
288.089
283.15
283.338
295.86
296.252
303.15
302.155
300.529
283.15
284.662
301.546
291.807
302.213
302.603
303.172
302.023
303.15
302.204
303.15
295.508
283.15
293.872
283.15
283.15
283.255
293.938
283.15
303.15
300.542
284.303
283.15
301.742
303.142
299.337
283.519
289.913
301.068
300.457
290.275
303.15
303.15
301.742
303.15
283.452
303.15
286.904
283.15
285.425
285.873
283.15
283.15
293.202
301.627
283.145
299.118
288.456
301.479
301.866
303.15
302.084
303.15
283.15
300.339
303.15
303.15
283.15
283.15
283.15
283.451
303.153
283.15
301.928
303.15
283.186
303.065
302.137
303.15
283.15
283.15
292.949
283.15
294.598
299.061
301.244
303.142
297.163
299.228
284.891
302.353
298.083
283.15
303.15
283.15
297.484
285.063
303.15
303.145
287.599
283.156
294.161
296.015
302.579
283.153
303.15
303.15
292.623
286.429
283.151
283.156
301.332
283.751
283.15
283.152
283.16
283.15
303.15
283.21
283.15
291.715
287.372
283.15
303.15
303.15
283.15
303.15
303.15
297.975
293.926
296.185
290.145
301.584
300.619
283.195
303.15
301.583
303.15
303.15
300.367
286.465
301.628
301.396
296.06
303.15
300.998
284.705
283.163
301.057
297.207
303.15
300.612
288.579
303.15
283.247
300.351
284.928
300.863
303.15
303.15
300.877
283.15
293.352
283.15
300.785
298.974
290.704
303.15
301.863
300.753
283.15
283.15
283.15
289.963
283.158
283.15
303.15
298.912
291.791
290.344
283.15
303.15
303.112
303.15
284.412
300.304
299.512
299.745
299.622
283.15
283.143
299.104
283.15
283.15
289.003
288.737
283.15
301.321
299.128
303.15
283.15
301.036
303.15
303.15
303.12
303.15
288.463
285.992
291.215
303.15
298.602
303.15
303.15
303.15
283.148
298.411
301.141
299.668
291.414
299.729
296.59
283.217
290.684
292.022
283.15
303.15
283.149
292.647
299.032
286.614
303.15
298.282
297.588
299.161
302.987
283.164
297.432
299.612
302.044
283.15
283.678
283.15
283.148
303.15
284.087
290.473
286.632
303.15
283.15
297.887
285.441
303.15
303.15
303.15
284.753
290.627
301.25
284.509
293.465
283.15
283.15
303.15
298.622
303.15
283.922
290.098
283.151
283.15
303.15
303.15
283.15
294.754
290.168
283.15
296.077
283.15
303.15
301.326
297.614
294.178
296.178
283.15
283.15
283.15
296.949
291.428
302.408
283.15
283.15
283.147
290.305
297.262
283.234
290.918
283.15
293.236
299.788
284.314
299.075
285.392
283.15
303.15
283.15
303.15
290.861
296.687
288.319
292.4
283.15
286.533
283.15
303.15
294.242
303.15
302.201
303.15
283.15
292.368
283.15
289.141
284.734
283.15
284.04
298.323
283.15
300.347
284.798
299.104
303.051
291.475
286.131
283.15
303.15
303.147
283.15
301.179
301.112
283.15
283.15
294.835
284.462
298.454
296.846
283.15
295.625
296.444
283.15
302.167
283.958
303.15
303.15
288.612
298.912
283.15
303.15
303.15
303.15
300.836
283.15
303.15
294.146
283.172
287.425
300.247
283.15
283.15
302.69
283.15
302.557
301.656
298.327
291.038
283.15
294.285
303.393
303.15
299.056
292.572
303.15
283.15
283.317
283.15
290.394
286.417
292.055
283.15
293.259
296.787
293.441
303.147
283.15
303.15
303.15
283.17
293.133
283.15
284.407
303.137
283.15
303.15
303.15
303.15
301.817
290.912
286.183
284.267
284.438
283.15
285.876
303.15
300.966
283.15
303.15
303.15
300.913
303.15
303.15
283.151
303.15
283.15
300.953
283.15
283.15
283.15
303.15
283.15
303.15
283.15
283.699
283.15
303.132
301.873
283.861
283.15
303.095
283.15
303.15
284.824
284.794
286.302
298.063
283.15
297.91
298.011
292.658
287.108
285.409
303.15
292.142
283.15
300.167
283.15
297.224
283.15
292.462
298.922
303.15
283.15
287.086
303.15
296.02
299.437
283.15
283.15
283.15
283.15
303.15
294.192
283.15
283.15
283.249
283.15
300.129
283.15
284.949
303.15
283.461
303.128
284.758
292.304
283.15
301.585
283.15
283.15
285.865
283.15
283.26
283.15
299.99
303.15
291.111
303.15
283.15
302.532
284.575
300.369
285.829
300.374
289.679
283.15
300.872
284.665
283.15
283.138
300.725
301.76
283.15
282.26
301.264
303.078
283.132
303.15
287.778
302.265
284.507
285.564
288.557
282.34
283.15
303.15
301.357
303.15
283.581
283.15
283.15
292.137
282.621
303.15
303.125
283.15
286.501
299.826
283.15
283.15
299.833
303.15
283.15
283.15
283.15
286.367
283.15
303.15
284.964
284.311
303.15
299.912
283.15
289.407
303.15
283.15
286.369
283.15
283.15
283.15
285.563
283.15
285.622
292.329
303.15
300.662
283.482
299.041
301.141
283.415
283.479
283.15
289.335
298.775
303.15
302.318
296.564
297.27
284.8
297.816
297.568
303.15
300.434
303.141
283.15
297.554
284.956
283.15
292.746
296.157
284.973
299.102
300.83
292.713
283.15
299.22
283.501
303.15
300.802
302.072
294.463
283.15
286.767
303.15
283.15
283.15
283.15
283.313
283.15
303.15
303.15
283.15
300.603
299.591
303.15
285.816
303.15
303.15
303.15
290.276
283.432
283.15
303.15
283.15
283.15
287.336
292.759
283.15
295.616
283.13
283.15
295.779
302.338
288.122
283.15
283.15
300.443
292.487
283.15
283.15
283.15
294.323
303.15
303.15
283.15
296.683
302.476
283.15
282.922
301.825
286.828
283.15
283.15
287.666
303.011
283.15
283.161
288.215
283.802
289.052
283.15
285.861
300.57
283.15
303.15
283.15
283.15
283.15
283.15
296.147
303.15
283.15
283.15
295.772
292.202
303.15
303.15
290.246
298.696
298.593
303.15
283.15
298.277
303.15
283.936
299.073
298.614
303.15
303.15
303.15
283.15
286.227
283.15
283.15
302.736
303.15
298.113
302.402
283.15
294.427
283.209
296.776
292.213
283.457
290.191
283.15
283.15
297.213
288.471
291.024
283.15
283.15
299.522
295.304
283.15
283.982
284.724
283.515
303.15
303.15
303.15
290.927
283.15
300.255
283.15
284.457
297.799
298.777
292.658
283.15
283.15
303.15
295.727
283.15
283.15
303.11
283.15
283.15
303.15
283.15
299.552
283.15
283.15
283.15
283.15
283.15
303.15
283.15
283.173
298.93
303.15
302.584
283.125
283.429
283.086
285.674
283.15
284.555
290.865
283.429
303.15
283.15
299.956
283.15
300.446
283.184
283.142
286.378
297.777
283.245
292.005
298.048
283.15
283.15
299.294
299.992
283.15
297.638
291.517
297.614
283.15
283.257
283.15
297.941
297.057
283.15
300.267
297.699
283.148
299.977
283.15
295.975
283.143
303.116
283.163
283.159
283.15
283.15
284.535
283.15
302.997
283.646
283.158
303.147
303.148
303.147
283.15
283.15
294.208
303.15
303.135
283.955
283.15
283.15
303.153
303.15
283.15
303.162
283.15
283.15
303.15
303.15
303.15
303.15
283.382
283.15
283.15
283.15
303.159
283.324
283.942
293.862
283.15
283.15
283.365
283.15
283.15
283.15
287.483
293.987
283.15
283.15
283.15
283.15
283.15
283.15
284.1
283.15
303.151
291.896
283.15
303.15
303.15
303.15
303.15
303.15
283.15
303.166
283.15
283.769
283.143
303.152
283.15
303.071
284.549
292.54
303.15
303.131
284.631
303.15
283.15
303.15
283.15
294.435
293.852
284.827
303.148
283.15
293.638
283.15
283.15
303.15
283.15
295.243
283.15
303.15
283.162
298.359
303.15
284.554
283.15
283.649
283.15
283.15
283.15
303.15
286.106
283.497
285.023
283.15
283.15
285.879
283.15
283.15
303.15
284.476
303.161
298.904
303.15
303.132
303.133
283.15
303.135
283.15
283.489
289.524
301.008
283.915
283.172
283.15
283.15
283.15
303.177
283.15
302.961
303.15
293.86
303.15
288.891
283.873
303.15
283.15
303.15
283.15
302.005
303.15
303.15
286.687
300.891
283.15
283.15
283.15
283.15
283.15
283.15
301.139
283.622
303.15
303.15
303.155
303.15
300.56
284.492
283.15
302.247
303.15
301.748
283.15
302.629
283.15
283.147
303.152
283.346
302.26
300.56
283.147
283.15
289.642
303.15
293.804
303.15
283.15
303.15
283.15
283.15
283.15
301.099
302.189
303.15
303.15
303.15
302.941
283.148
303.15
293.326
283.078
303.15
297.67
298.359
296.842
283.4
283.15
283.15
283.15
283.15
295.047
283.15
295.436
283.15
303.077
290.038
283.15
302.907
283.15
283.15
302.812
283.147
302.896
283.15
303.15
283.15
302.472
283.15
303.15
283.15
283.147
283.15
283.176
283.15
283.15
303.15
293.126
301.184
296.506
297.378
303.15
303.124
283.15
283.15
285.94
283.15
283.159
302.897
298.882
302.986
303.15
283.398
283.15
303.15
283.15
303.018
283.382
298.342
283.15
303.15
288.34
303.15
283.15
283.113
295.498
283.147
283.15
283.15
283.146
303.15
283.15
303.144
303.15
303.15
290.37
303.021
303.029
289.417
293.652
283.15
283.15
303.116
289.489
283.15
303.15
284.935
283.15
303.15
283.15
283.15
283.15
298.45
283.15
302.971
283.15
300.893
283.15
283.15
283.15
283.15
283.15
283.15
285.233
283.15
283.15
283.15
283.15
283.15
283.15
292.433
283.15
298.404
302.989
283.15
302.339
283.15
302.594
303.146
292.439
288.956
303.15
292.305
284.984
303.122
303.15
303.14
295.17
288.866
283.15
288.08
283.15
283.15
283.15
283.15
287.718
283.15
283.15
291.791
303.139
285.422
283.15
283.15
302.547
283.15
283.2
303.15
299.985
283.15
283.15
302.849
283.15
303.175
303.15
283.15
289.311
298.057
292.861
285.926
293.07
294.44
283.15
283.15
302.392
290.769
293.197
284.543
283.15
294.466
283.15
303.15
300.969
298.922
283.15
297.531
283.15
292.947
297.515
303.15
283.15
283.15
301.926
283.15
283.15
300.746
296.276
283.198
291.398
283.15
283.15
302.854
300.764
283.15
300.863
283.15
300.728
283.15
283.15
301.022
283.15
283.233
301.742
283.15
283.15
302.504
283.15
288.112
303.15
290.966
303.15
303.15
303.15
301.154
283.15
283.15
299.807
283.15
303.011
283.15
283.15
303.15
283.149
288.407
283.15
283.15
288.264
288.446
283.15
283.758
283.15
303.15
302.498
283.802
301.695
283.15
283.15
283.15
283.15
283.15
283.15
283.15
283.15
283.15
283.15
283.15
303.15
283.15
283.15
283.15
283.15
283.15
283.15
283.15
283.15
303.15
287.151
283.15
283.15
283.15
295.102
283.15
303.15
303.067
283.15
283.15
295.113
283.15
283.15
302.183
295.582
283.15
303.475
303.52
283.15
301.745
294.375
297.888
301.62
298.414
303.15
283.15
296.416
292.2
301.567
283.15
302.243
302.48
301.054
288.212
287.458
301.232
301.862
301.907
303.15
286.04
297.859
285.798
297.577
283.15
283.15
283.15
303.15
283.15
292.416
298.211
283.15
283.15
283.15
283.15
283.15
303.15
283.15
303.15
292.306
303.157
299.275
302.867
283.15
283.15
285.587
283.172
283.15
283.15
301.698
303.15
283.15
298.437
299.739
297.833
298.997
301.06
303.15
291.211
302.656
303.15
303.15
300.562
303.15
283.15
282.801
296.196
302.978
283.15
303.15
290.274
286.349
297.217
292.612
302.61
303.15
303.141
303.15
303.15
283.15
298.951
283.15
292.23
290.716
299.945
284.871
303.15
302.035
303.15
283.15
303.15
303.15
291.741
300.451
283.15
303.15
303.14
292.209
303.069
299.583
293.238
288.497
293.33
283.15
303.15
283.15
291.726
298.585
303.15
303.15
303.15
303.15
297.938
302.582
283.15
300.174
301.392
285.079
299.742
303.15
303.15
298.949
293.378
283.15
302.942
300.071
302.652
292.398
297.62
298.538
303.15
287.136
298.234
291.702
283.15
289.451
303.15
288.59
301.232
303.15
288.903
301.441
300.32
293.593
283.148
283.158
283.244
302.064
301.104
303.15
288.975
301.626
303.15
283.15
303.15
303.203
299.049
292.303
297.003
303.234
283.149
298.157
303.15
303.15
293.214
303.15
300.425
283.34
301.475
291.676
303.15
283.714
293.636
303.15
282.965
298.949
303.15
300.872
286.413
303.15
303.15
284.049
303.15
283.15
283.15
286.027
299.974
291.664
303.15
285.473
297.791
283.15
299.098
299.132
289.16
303.138
283.15
301.555
299.664
299.099
300.29
288.814
291.506
302.512
303.15
301.679
288.893
303.15
299.109
283.15
283.15
303.15
283.15
303.15
297.867
283.15
300.709
283.681
303.15
283.878
283.15
290.054
303.15
303.147
303.15
294.49
303.012
303.128
300.088
290.586
289.655
290.748
298.713
303.15
299.643
292.603
299.206
303.15
283.922
283.519
299.501
287.402
283.558
303.15
283.15
303.15
285.584
303.15
303.249
284.773
303.266
302.977
303.15
303.15
283.15
300.751
300.655
285.735
303.103
287.14
296.048
301.946
292.929
288.494
302.151
296.461
283.15
283.15
303.15
285.975
289.922
283.15
283.15
303.15
302.063
289.016
303.15
296.739
303.15
283.155
285.433
301.02
303.15
303.15
292.714
303.15
283.335
290.785
283.15
297.48
294.896
296.177
303.15
302.779
283.15
302.723
293.878
303.15
303.15
288.958
283.15
303.15
301.923
284.546
303.15
303.15
283.15
302.426
303.24
289.926
300.062
298.062
303.15
303.157
302.698
303.15
283.15
303.15
303.15
303.15
303.15
303.15
303.15
303.15
283.15
303.15
303.15
283.383
303.15
303.263
303.15
303.162
303.15
303.15
301.225
303.65
303.15
292.494
303.15
303.15
283.15
302.635
303.15
302.24
303.123
283.3
283.15
303.15
302.959
283.149
303.15
303.15
291.816
283.15
293.033
283.15
283.15
283.147
291.656
284.948
303.15
296.902
283.15
303.52
303.136
284.388
302.671
283.15
292.613
303.092
301.843
283.15
303.15
283.15
303.777
284.919
297.019
303.15
303.15
303.15
303.15
303.15
303.15
302.45
302.854
297.878
292.723
303.15
287.459
293.087
285.085
303.201
283.15
287.088
302.804
284.877
283.147
287.642
303.15
283.409
302.951
292.975
302.887
302.102
303.15
302.262
303.15
303.15
298.238
303.15
284.617
303.15
303.15
283.15
303.15
303.15
302.887
303.15
283.307
283.15
283.15
286.068
285.156
300.96
286.32
303.15
295.794
303.15
290.768
303.15
287.484
300.949
301.688
293.724
303.15
303.15
303.15
289.971
283.15
303.15
289.724
283.15
283.15
302.004
303.15
286.334
283.147
283.15
303.15
303.15
300.806
298.52
303.15
293.799
303.058
283.15
298.736
303.15
286.545
288.441
302.224
303.15
296.681
296.846
302.983
302.033
301.778
303.15
303.15
303.147
303.15
283.15
303.15
289.734
300.039
294.602
302.253
283.15
300.594
291.842
298.532
283.678
298.685
290.107
302.279
283.15
283.15
283.15
302.318
283.15
290.957
283.15
301.469
303.158
289.888
298.186
283.15
303.15
301.458
301.44
303.15
283.15
303.15
286.55
301.628
303
302.433
298.205
288.601
303.15
303.15
303.15
294.616
286.197
290.132
296.279
284.011
302.98
303.15
303.15
283.15
283.15
285.529
299.831
303.15
303.15
283.15
303.15
303.15
303.15
300.559
303.15
285.572
294.077
283.15
283.254
293.69
285.809
303.15
303.15
302.034
303.15
299.578
283.145
297.824
303.15
303.15
283.15
303.15
303.15
303.15
305.826
303.15
301.991
301.193
303.15
303.15
301.798
303.15
283.15
287.445
303.139
303.15
303.15
303.15
298.223
303.15
303.15
302.738
302.573
301.943
303.15
283.15
303.15
302.172
302.585
301.695
302.597
283.15
300.834
287.79
297.643
283.15
303.15
303.15
303.15
303.15
294.749
287.722
299.721
303.15
303.15
303.15
303.15
283.15
303.149
284.931
285.25
283.15
303.15
303.15
283.147
299.975
295.636
283.15
303.15
303.15
303.15
303.15
289.785
290.009
303.15
303.15
302.43
303.15
301.498
284.006
292.668
303.15
283.15
301.214
303.133
303.15
303.814
301.461
287.14
303.15
303.15
303.15
303.15
293.501
284.253
303.15
302.767
298.524
291.863
303.15
303.15
303.15
303.15
299.793
303.151
303.15
303.15
298.544
302.6
288.675
303.15
303.15
298.213
303.15
303.15
303.15
303.15
289.05
303.15
283.15
283.15
296.29
291.455
303.15
303.15
303.15
297.358
303.148
303.15
303.15
303.15
303.15
303.497
301.11
303.15
287.571
302.697
299.655
303.15
303.15
303.15
303.15
283.15
285.919
303.15
302.818
283.15
302.3
303.15
303.139
303.15
283.15
301.943
287.009
283.15
302.87
303.15
302.514
283.15
303.15
303.15
303.152
303.15
283.28
303.15
291.105
283.15
283.15
303.15
303.15
299.094
302.489
283.15
302.566
283.15
284.261
288.392
302.771
283.15
303.154
303.015
303.138
284.551
283.157
303.006
283.15
283.15
283.155
302.181
302.4
303.15
283.15
283.15
296.862
303.15
283.15
303.15
303.15
303.15
303.1
303.061
302.977
302.531
303.15
302.972
303.15
285.031
303.15
303.15
283.15
303.15
303.114
303.15
283.15
303.15
288.505
303.15
303.15
303.201
283.15
303.417
302.915
298.507
303.15
291.68
297.436
284.592
292.071
283.15
283.15
287.379
284.497
283.15
303.581
283.15
286.565
303.15
283.15
303.159
303.15
303.15
303.031
303.154
303.15
283.15
303.142
303.15
283.15
283.1
299.097
302.763
303.15
302.001
303.15
285.821
303.151
301.47
303.15
303.15
301.258
303.15
303.15
303.15
287.884
303.15
285.274
303.15
303.148
303.15
283.15
283.15
303.15
303.15
303.15
288.964
302.648
303.15
303.15
288.937
286.676
292.613
303.15
302.764
287.858
287.786
303.15
303.15
288.783
283.15
292.715
303.15
303.151
303.15
303.15
300.733
283.15
302.347
283.15
303.15
303.15
303.15
303.15
303.15
284.513
302.34
291.834
303.15
303.15
291.352
303.15
303.15
303.15
303.15
303.15
300.352
303.15
303.15
283.15
299.685
303.15
283.15
303.15
301.512
283.15
300.175
291.137
302.745
300.233
299.675
303.15
303.15
303.15
301.005
288.817
283.15
303.15
300.512
303.15
303.15
292.788
303.15
287.723
303.15
298.12
284.466
303.15
283.15
303.15
303.15
303.15
285.501
303.15
300.667
303.15
303.15
299.934
283.15
284.956
303.15
303.15
288.487
301.585
297.165
303.15
303.15
303.15
301.603
293.026
303.15
283.15
303.15
300.855
303.15
284.98
297.059
303.15
303.15
301.298
303.15
303.15
283.15
303.15
283.15
295.524
303.15
283.15
303.15
303.15
303.15
303.15
303.15
303.15
283.15
301.549
283.15
302.18
303.15
303.15
296.501
300.675
303.15
283.15
303.15
301.056
283.15
303.15
303.15
303.15
300.869
303.15
298.35
303.15
286.138
283.15
286.958
303.15
303.15
298.833
283.15
303.15
288.189
283.251
303.15
303.15
285.24
283.994
301.029
301.857
301.342
293.404
301.859
283.92
303.15
298.405
283.15
283.15
303.15
303.15
303.15
301.366
303.15
303.15
303.15
303.135
283.173
283.15
283.593
303.15
302.137
283.15
303.144
296.453
283.15
294.99
303.15
303.15
283.15
300.12
283.993
303.15
283.15
300.145
303.15
298.219
303.15
296.073
303.15
283.15
303.15
283.15
299.616
283.15
283.257
283.15
286.396
303.15
303.15
283.15
283.15
303.15
303.15
303.15
303.15
285.007
285.227
283.15
303.15
283.237
283.15
283.15
303.155
290.307
283.588
283.15
301.636
285.014
300.566
288.564
303.15
303.15
303.15
303.15
283.15
283.15
283.15
303.15
283.15
283.15
303.15
283.15
297.825
283.15
303.15
283.15
303.15
303.15
283.966
283.15
303.15
302.086
303.15
303.15
303.15
303.15
288.926
283.15
303.15
303.149
283.15
303.15
303.15
303.15
295.49
283.15
283.21
303.15
303.15
303.15
303.15
303.15
303.15
303.146
284.176
303.15
283.15
303.15
303.15
303.15
303.148
303.15
283.15
283.15
283.15
303.15
303.15
283.15
303.15
283.15
287.934
283.15
301.993
283.15
303.154
303.15
284.718
283.15
284.552
297.918
303.15
284.807
303.169
303.15
297.944
283.15
303.15
303.15
303.15
303.15
283.15
303.15
303.15
299.506
283.15
303.15
303.15
303.15
303.15
292.486
292.053
303.166
283.174
303.15
301.952
302.403
303.15
283.15
283.15
303.15
303.15
303.15
283.15
283.15
283.876
303.15
303.15
303.18
303.151
283.15
289.275
303.15
283.15
303.15
288.665
303.15
283.15
302.264
283.15
283.15
283.15
303.15
299.975
303.15
303.15
303.15
283.15
284.62
294.296
295.932
290.015
303.133
303.044
283.15
283.15
301.374
283.74
283.15
303.149
303.15
303.15
283.15
295.26
303.15
283.15
303.011
303.15
303.15
283.863
303.15
303.15
289.014
290.214
303.15
283.15
303.15
283.15
303.15
303.15
303.15
303.15
284.005
303.15
303.15
303.15
302.97
303.15
303.15
283.15
283.15
283.15
283.15
302.984
283.15
283.15
301.191
303.15
284.91
285.081
303.15
301.327
303.15
283.15
303.15
283.15
283.15
303.15
303.15
303.15
302.716
303.15
303.15
303.15
283.15
303.15
283.15
286.603
303.15
303.15
292.214
303.15
283.15
283.15
302.498
303.15
303.148
283.15
303.206
286.854
283.15
283.15
299.495
283.15
283.15
303.068
303.158
293.543
303.164
303.151
303.152
283.15
283.15
302.719
283.523
286.145
301.024
283.164
283.15
291.238
301.722
301.608
283.15
300.444
290.852
300.243
302.298
302.905
284.903
295.838
299.508
286.379
293.726
300.333
303.15
298.014
297.86
302.844
283.702
292.729
301.302
287.483
303.15
301.372
303.15
300.84
301.666
283.674
285.12
303.15
283.15
302.315
301.837
283.146
303.168
288.717
302.73
302.084
301.051
303.15
303.192
301.377
295.608
300.495
289.742
302.971
301.651
302.229
302.355
284.295
302.577
301.714
283.181
303.15
302.929
303.15
303.15
302.225
302.134
294.541
303.15
284.83
292.89
292.54
301.705
303.15
284.152
285.297
284.459
303.15
299.04
303.15
296.448
295.726
301.009
303.145
303.15
303.15
302.127
301.454
302.835
303.15
292.863
302.79
290.501
283.15
298.418
294.243
303.15
300.571
283.15
283.207
283.15
302.684
303.124
303.15
302.998
298.644
283.147
300.72
302.32
295.496
283.602
296.289
297.353
283.527
303.138
284.939
296.399
283.331
297.404
300.733
300.556
300.559
302.125
290.981
301.704
303.15
302.773
302.711
302.695
296.526
302.915
283.15
302.152
293.61
303.15
283.473
286.969
301.377
302.677
290.733
284.911
287.959
302.702
296.899
303.15
303.15
295.566
283.15
293.253
283.474
303.15
290.735
290.842
283.962
303.15
297.521
298.528
284.338
301.521
294.349
290.342
300.589
303.115
303.15
303.15
283.656
302.692
283.382
285.998
303.15
303.033
303.053
303.15
285.548
300.818
298.132
283.293
299.861
302.488
300.679
287.204
283.15
303.115
301.944
283.842
283.168
303.15
303.088
303.15
303.15
284.264
302.602
296.425
283.083
283.151
303.15
283.15
302.974
303.059
302.57
301.566
303.15
283.15
283.15
301.941
301.992
283.259
295.921
303.15
303.15
301.762
285.708
283.268
301.82
301.906
301.882
284.528
303.15
283.15
298.555
297.977
303.15
302.773
302.207
285.283
285.124
302.231
303.053
303.15
298.446
284.532
283.15
303.15
300.669
301.365
302.121
289.893
302.198
285.871
300.348
300.291
290.531
297.833
303.15
303.15
301.084
284.573
302.218
283.152
300.782
301.86
283.668
288.466
302.51
283.15
283.15
283.02
303.15
303.15
300.189
299.102
302.396
283.145
283.15
284.026
283.149
283.15
283.153
303.09
301.154
299.507
296.21
283.411
303.116
300.338
303.15
283.15
302.658
289.443
300.956
292.846
283.548
303.077
283.147
283.15
302.881
301.358
302.688
283.163
291.788
285.045
303.15
284.403
301.171
283.15
283.324
285.122
284.941
283.15
283.15
301.779
283.15
289.682
302.601
302.766
301.869
283.536
300.007
291.25
283.15
303.269
292.674
283.15
283.15
283.15
303.15
301.27
302.499
299.359
301.616
300.009
289.3
283.154
291.169
290.324
303.074
291.51
300.205
292.274
283.15
286.556
301.256
301.668
283.15
284.089
299.882
283.15
303.15
283.197
301.437
303.15
284.093
302.309
303.044
303.15
283.15
293.052
303.152
301.849
283.15
283.15
283.15
302.327
298.051
303.14
302.276
303.162
303.15
288.743
303.162
290.632
300.41
300.371
296.906
283.158
301.821
283.15
290.828
301.554
289.782
290.693
299.223
300.874
301.728
287.339
291.305
285.259
283.184
302.329
286.329
283.145
283.147
300.397
283.076
300.492
287.248
296.197
299.68
289.691
299.524
283.125
299.165
283.15
290.455
291.081
298.904
283.365
283.15
300.847
283.15
302.854
283.15
303.15
286.636
286.692
283.15
299.252
298.62
287.333
303.15
303.15
301.942
289.959
303.075
283.778
301.709
287.426
303.147
284.357
288.537
303.15
301.61
283.15
283.15
287.759
287.346
283.144
285.399
301.637
286.487
301.182
303.15
285.51
301.87
291.485
303.15
303.15
301.792
302.177
303.15
293.94
294.459
283.797
296.728
287.109
290.359
303.15
303.059
297.36
285.286
283.15
287.918
292.978
299.995
283.176
283.804
282.856
302.083
303.134
283.15
303.138
303.15
300.704
293.499
299.082
294.207
283.15
292.111
296.493
285.803
283.218
294.628
283.15
300.285
303.162
293.042
284.169
303.146
292.068
298.859
288.562
300.434
291.479
287.689
283.15
303.143
285.499
290.237
293.898
283.15
283.15
283.15
303.142
283.15
283.135
286.685
303.15
283.15
303.161
283.172
291.242
290.597
303.198
302.953
290.221
303.15
297.294
303.167
302.121
287.514
283.15
293.321
303.147
303.105
286.465
283.15
283.15
283.511
286.334
303.075
303.145
287.801
289.759
283.574
283.162
290.074
293.415
303.15
283.15
303.117
303.15
302.433
285.126
302.396
303.104
284.129
283.832
284.125
302.872
302.312
297.531
294.204
303.09
291.658
291.2
303.15
303.108
302.673
285.618
283.424
303.15
286.111
283.405
302.959
301.687
302.28
283.15
300.555
301.973
303.15
302.235
285.563
303.15
298.251
303.15
283.15
300.859
302.755
286.567
302.562
283.15
285.315
303.039
283.15
302.401
285.497
295.186
284.446
303.15
303.03
302.888
286.701
283.15
287.331
284.334
290.104
285.983
302.344
303.15
283.15
283.15
293.282
283.15
301.133
302.263
290.534
283.15
294.211
283.15
303.15
283.15
300.076
298.819
283.151
285.438
301.773
303.122
303.155
292.524
294.799
301.364
283.302
301.85
283.145
303.15
303.158
300.292
283.15
302.689
295.092
303.15
301.041
287.533
301.986
284.989
288.589
283.15
302.319
287.991
298.81
303.08
283.15
303.15
291.934
302.261
283.094
283.145
287.227
298.758
303.15
284.88
301.19
301.143
301.402
303.151
300.123
287.91
285.076
301.713
300.12
283.835
283.083
303.158
303.15
303.15
297.653
283.161
283.15
303.15
303.15
290.152
299.027
300.374
288.033
302.849
303.15
286.554
301.695
303.15
301.052
283.841
301.625
303.15
284.669
301.452
295.614
302.797
303.15
303.15
285.329
295.422
296.7
287.651
303.15
303.15
283.15
287.433
302.499
296.492
303.15
285.716
303.15
303.15
300.515
288.916
283.15
295.888
296.21
299.148
283.15
303.15
292.87
287.443
303.15
298.231
300.681
300.591
303.15
303.15
303.15
300.408
298.588
302.866
300.089
283.15
293.025
287.936
291.238
300.852
303.15
303.15
300.92
303.116
286.851
296.483
303.15
303.148
283.15
286.595
299.439
285.739
303.15
303.15
283.373
303.13
303.15
303.15
283.15
290.692
303.15
303.15
284.766
299.377
283.15
303.15
284.72
301.462
300.356
287.198
295.022
303.15
283.515
303.15
303.15
283.191
300.735
290.64
300.57
303.15
303.137
302.284
293.473
300.093
301.575
284.54
283.503
300.862
298.646
303.15
302.795
284.235
299.94
301.523
288.02
303.15
297.61
301.548
301.632
301.665
293.024
303.15
283.15
299.402
283.15
283.15
287.936
283.15
284.06
283.15
283.15
283.15
283.15
302.809
288.266
302.76
283.15
296.018
291.103
284.847
283.15
303.15
302.736
301.871
303.201
302.702
283.15
295.092
300.447
290.35
283.15
283.15
300.008
286.042
283.15
283.15
303.149
290.816
283.15
287.466
303.15
303.152
284.389
283.15
288.585
294.591
300.869
294.688
302.992
285.846
302.574
295.518
286.453
283.15
283.564
291.966
303.12
289.617
302.73
283.15
292.532
287.937
301.108
301.239
285.079
303.13
285.049
297.493
302.991
303.149
285.223
303.146
303.027
293.606
302.691
283.15
303.15
303.15
295.117
291.424
283.156
301.391
284.812
284.222
284.717
303.145
288.532
300.638
283.15
283.15
302.609
303.151
294.894
302.954
303.177
300.223
303.206
302.934
283.15
301.425
302.928
283.15
303.15
301.394
303.15
284.412
299.169
283.171
291.979
283.15
287.755
303.045
299.951
283.15
303.05
291.053
301.354
303.137
303.09
283.15
283.15
301.969
302.119
283.841
302.848
302.503
302.451
303.141
283.15
294.065
283.15
302.827
288.042
303.013
303.15
283.15
302.885
285.269
291.635
302.161
283.15
302.663
302.125
301.679
302.572
303.057
303.183
303.032
303.15
283.15
301.617
298.289
303.096
303.15
290.312
285.457
303.15
283.15
285.46
303.181
303.161
302.952
301.347
284.394
303.108
291.033
294.354
303.148
289.318
303.16
283.15
290.251
283.15
300.252
298.558
284.887
288.453
299.928
296.725
295.545
299.481
294.077
303.151
294.017
296.831
283.152
299.698
293.999
303.15
299.138
299.467
303.15
291.553
303.166
301.841
303.15
287.109
286.128
302.855
289.839
283.15
283.15
300.592
301.136
283.817
283.15
303.15
300.378
302.421
300.793
300.078
302.835
292.778
289.826
286.781
292.666
284.418
290.795
283.314
295.767
290.588
294.452
287.43
284.34
303.16
283.278
303.147
285.848
300.962
283.151
300.384
298.436
288.912
302.156
285.516
299.304
283.15
302.982
283.155
283.102
288.406
299.98
303.15
300.407
303.037
300.069
302.816
303.15
301.468
285.084
295.246
302.183
303.15
283.765
283.15
290.711
285.328
285.927
303.166
303.149
283.15
283.15
283.18
303.15
293.978
303.15
303.164
296.408
303.439
303.15
300.481
303.15
303.15
294.19
290.816
303.15
290.006
302.164
289.731
303.15
303.15
286.371
283.349
290.601
303.205
303.15
303.147
285.647
283.322
283.15
289.223
287.907
303.15
284.369
303.15
303.15
303.133
287.52
303.15
303.147
283.312
303.152
302.734
288.1
283.147
283.737
297.394
291.238
303.15
286.051
284.544
301.479
287.267
302.38
290.724
294.171
303.15
303.15
284.077
303.154
302.976
295.9
302.972
302.793
287.33
283.15
285.455
283.229
297.406
302.662
285.597
303.15
283.887
286.888
303.132
283.181
303.15
286.618
283.15
300.15
303.15
300.063
300.315
283.276
283.399
302.407
291.26
301.319
303.15
301.593
301.911
303.15
303.15
298.54
293.9
283.15
289.02
303.15
295.248
283.398
303.15
297.129
298.996
289.191
303.15
302.82
294.559
295.759
284.563
303.161
298.906
296.598
284.03
303.133
302.85
287.672
298.852
289.969
290.997
289.908
283.15
302.987
303.151
303.15
303.165
293.626
296.771
302.996
301.473
303.15
284.512
303.15
303.064
302.9
303.15
293.932
296.417
303.15
285.577
303.106
303.15
303.106
303.154
286.366
293.734
291.359
288.577
293.517
303.15
301.344
291.992
295.675
293.972
303.142
303.15
300.703
303.18
284.379
303.18
303.15
303.15
303.143
303.15
285.128
303.15
284.387
303.146
303.15
290.579
303.145
292.891
295.974
303.136
295.679
286.091
283.48
303.131
302.955
284.784
283.15
297.306
303.15
285.655
302.957
302.138
303.031
298.463
287.31
303.15
298.819
290.081
299.657
283.15
283.655
303.15
303.144
303.184
294.197
303.15
292.705
289.564
303.188
303.15
285.015
298.978
293.627
299.779
302.575
301.622
300.535
303.15
284.806
296.953
302.419
285.77
298.355
292.526
284.629
292.032
303.15
287.09
292.209
290.252
299.621
303.15
286.576
284.131
303.15
302.5
288.326
302.155
283.15
303.15
300.059
301.808
289.329
302.085
301.912
301.919
303.15
289.678
285.269
302.058
302.319
297.382
303.15
283.209
303.15
302.085
303.15
302.874
303.15
292.099
303.15
297
283.15
290.094
303.15
283.15
292.291
301.567
300.592
289.407
300.664
303.15
302.571
303.15
302.418
285.408
303.15
300.579
290.635
303.15
300.964
303.15
303.15
293.313
283.15
285.836
293.492
301.078
303.15
291.537
294.174
288.516
289.8
288.253
299.193
300.269
300.957
287.551
287.281