/*--------------------------------*- C++ -*----------------------------------*\
  =========                 |
  \\      /  F ield         | OpenFOAM: The Open Source CFD Toolbox
   \\    /   O peration     | Website:  https://openfoam.org
    \\  /    A nd           | Version:  10
     \\/     M anipulation  |
\*---------------------------------------------------------------------------*/
FoamFile
{
    format      ascii;
    class       volScalarField;
    location    "3.7";
    object      SgT;
}
// * * * * * * * * * * * * * * * * * * * * * * * * * * * * * * * * * * * * * //

dimensions      [1 -1 -3 -1 0 0 0];

internalField   nonuniform List<scalar> 
111485
(
1.38457e-16
1.05805e-05
2.37095e-05
4.59573e-17
5.50052e-05
8.55385e-18
4.75431e-05
7.27869e-06
1.90397e-05
1.00188e-06
4.67961e-05
1.24564e-05
4.45459e-06
1.58448e-07
6.71491e-06
3.29376e-05
2.07016e-06
0.0028969
1.1703e-05
5.0545e-16
3.93273e-17
3.02006e-18
2.74221e-05
3.67963e-05
1.24209e-05
4.5675e-17
4.81074e-05
2.62356e-06
2.23338e-05
8.99604e-19
5.38781e-05
1.66958e-05
1.94092e-15
9.65428e-18
1.01758e-05
9.7528e-17
1.3011e-05
1.63152e-06
6.60911e-11
2.25079e-05
4.93119e-18
8.47269e-05
1.84948e-05
1.50152e-06
5.22535e-08
4.82383e-17
3.58231e-05
7.7066e-07
5.7276e-05
2.88075e-17
8.8037e-17
6.75228e-16
1.53492e-16
5.25325e-05
4.61445e-16
4.91072e-05
4.04758e-06
2.04473e-17
2.6251e-08
5.53122e-06
1.9298e-05
1.29992e-17
4.0664e-06
0.000111621
2.26156e-16
4.48234e-06
0.000370405
0.000120034
8.82699e-07
7.05157e-06
1.01617e-08
6.29919e-06
1.96175e-16
2.4898e-06
3.54854e-16
9.44959e-07
4.19143e-18
4.79948e-05
5.30786e-17
1.33866e-15
2.45306e-08
3.80795e-05
9.39722e-17
1.5938e-17
9.0406e-06
5.01308e-06
5.38962e-13
2.67579e-05
5.85706e-08
6.25376e-06
6.88956e-07
4.13635e-05
1.11541e-05
4.80332e-06
6.85667e-05
4.92635e-16
1.22643e-16
1.76738e-06
1.72803e-11
1.70545e-06
3.10321e-16
2.25709e-05
4.05252e-18
2.62523e-05
4.64524e-06
1.68849e-16
7.56536e-19
1.01839e-05
4.07988e-06
1.18221e-10
2.93005e-06
5.61373e-06
3.50798e-06
3.64724e-06
5.9794e-16
2.53691e-07
9.62347e-17
7.65752e-17
1.24105e-05
4.25229e-16
1.84474e-17
6.97906e-16
7.00244e-17
3.91495e-18
2.50452e-06
2.85125e-09
4.9594e-17
9.20693e-07
1.48515e-17
1.17379e-07
1.39854e-06
3.39142e-05
8.42288e-17
1.95801e-15
1.62906e-16
6.08561e-05
1.45225e-17
4.91894e-05
2.65808e-05
2.57328e-06
1.97147e-07
2.42095e-06
2.5982e-05
3.31547e-06
5.09313e-06
1.7659e-06
3.7726e-17
1.6199e-18
2.00944e-17
3.00547e-05
2.30744e-06
1.01852e-16
1.77976e-10
1.53435e-06
5.93675e-10
1.11185e-05
2.04304e-05
1.45e-05
1.28791e-10
1.2463e-17
1.91635e-17
6.30387e-05
2.50564e-05
3.66166e-09
3.18511e-10
9.78026e-07
4.47111e-06
2.57651e-17
8.31598e-09
6.76735e-08
1.08787e-17
9.64085e-17
1.13941e-07
2.48715e-17
2.07082e-06
4.23134e-07
1.67889e-17
1.83113e-16
1.01678e-16
4.77645e-16
1.02727e-16
6.28743e-17
1.40555e-06
7.97654e-06
3.24421e-05
5.64236e-08
8.12265e-06
2.52818e-06
1.10159e-07
4.07736e-17
1.48643e-06
1.22577e-16
5.37426e-17
5.14374e-06
1.12473e-05
2.87848e-05
1.42788e-05
4.72307e-07
8.05038e-17
8.06414e-06
8.95813e-07
5.47564e-08
1.45705e-05
2.26733e-06
1.37646e-17
3.32149e-06
2.8611e-05
6.02325e-16
2.55129e-07
9.12267e-06
3.36857e-06
3.90292e-07
1.31037e-16
2.12962e-16
5.22215e-06
7.75134e-15
0.000144345
2.67234e-17
6.35342e-06
1.82384e-05
0.000142881
8.85707e-18
2.36043e-06
1.56818e-05
4.64308e-16
8.35088e-18
4.20396e-17
0.000192301
4.92264e-10
1.86382e-16
3.77752e-18
9.42163e-06
6.05586e-06
1.70767e-05
2.2212e-17
8.69303e-16
1.31927e-08
2.95615e-17
2.41806e-06
6.50366e-06
1.45935e-05
7.4535e-06
8.70821e-06
2.25404e-17
3.62397e-10
8.49547e-07
1.57138e-16
4.23038e-17
3.59289e-05
2.49793e-05
1.24182e-16
7.36058e-06
6.43384e-06
1.16204e-16
1.96518e-15
1.80227e-07
2.63446e-17
3.51236e-17
4.83391e-08
6.41735e-17
1.8052e-05
1.35367e-05
2.33233e-06
2.15613e-17
8.37149e-06
2.31069e-17
3.70593e-17
4.74619e-17
3.23715e-11
3.01185e-05
5.90128e-06
5.22874e-06
4.49267e-05
1.20015e-05
2.1902e-06
7.24909e-07
1.79083e-05
1.17182e-05
4.4998e-17
8.43211e-17
3.60153e-10
2.30728e-05
2.80949e-05
9.39601e-06
4.8549e-17
7.70831e-06
2.89317e-06
3.13571e-06
1.75282e-08
4.78648e-09
1.48178e-05
2.27662e-06
2.46555e-06
2.99326e-17
1.01833e-06
2.89829e-17
2.88025e-10
6.07788e-16
0.000309482
8.11562e-05
1.6807e-05
2.61728e-16
1.03379e-17
1.01279e-05
2.56805e-06
2.58867e-16
1.51824e-16
1.19757e-15
5.39934e-07
2.41192e-05
3.90792e-06
1.76202e-05
2.35781e-05
2.37865e-16
3.08922e-17
7.37407e-17
4.13271e-06
1.77102e-15
1.27303e-06
0.000226798
5.65568e-10
3.909e-18
6.26572e-17
8.54717e-17
2.52152e-15
6.78764e-05
1.4075e-05
1.0999e-17
5.69085e-06
1.03371e-15
1.42298e-16
8.3614e-05
6.3086e-06
1.3385e-05
9.34842e-06
8.23951e-16
1.54451e-15
2.4853e-17
1.02774e-05
3.23677e-06
5.74654e-06
8.80976e-18
2.18169e-13
2.46237e-07
1.77123e-06
9.00132e-06
6.22264e-08
3.49431e-05
2.00194e-17
4.45102e-05
3.53118e-06
8.98598e-06
2.95605e-05
1.41166e-05
8.96212e-18
4.49884e-16
3.5643e-17
2.93171e-17
3.67511e-05
1.0982e-05
4.75301e-05
8.13559e-05
3.71791e-18
2.07799e-05
3.86611e-18
6.5444e-17
1.66693e-05
8.14886e-18
5.81929e-05
7.53125e-18
3.01235e-18
2.76029e-05
2.79946e-20
2.95984e-06
8.56288e-07
1.36372e-18
1.27172e-06
1.78611e-05
1.84445e-16
8.52804e-06
1.31158e-05
8.6113e-06
5.85451e-07
7.73701e-07
4.16023e-06
1.62328e-15
3.27542e-17
1.56774e-06
2.69998e-17
5.74005e-06
0.000140607
9.78751e-17
1.80035e-17
3.09838e-05
9.94381e-08
3.52511e-06
2.91512e-05
4.28725e-17
4.98759e-05
2.94914e-05
6.46753e-19
8.47953e-07
2.83118e-06
1.06203e-16
2.93818e-16
3.62605e-06
5.2988e-06
6.20949e-17
2.8032e-17
2.04984e-11
6.89308e-17
1.37093e-05
4.47642e-18
1.65386e-16
2.1898e-05
2.45841e-09
1.66385e-05
2.83234e-05
1.32693e-17
4.24328e-16
1.25371e-06
2.2851e-16
1.43919e-07
1.34675e-05
0.000138366
0.00106697
6.93238e-19
3.48942e-06
3.85212e-07
5.76065e-16
4.16769e-05
4.09531e-05
3.37565e-17
1.20911e-11
1.09547e-07
7.78752e-16
2.68152e-05
3.35152e-05
5.10101e-06
1.1225e-17
1.52776e-06
2.55377e-05
3.58629e-06
8.26821e-10
4.99063e-16
4.89105e-13
3.19573e-17
1.8035e-08
6.26363e-06
1.82968e-17
1.04701e-05
8.87937e-08
5.89448e-16
1.24867e-18
4.68757e-16
3.96185e-16
6.49385e-06
5.20661e-06
6.14461e-06
2.94291e-06
3.78603e-06
3.97375e-17
3.5059e-06
1.61802e-16
3.90471e-05
6.15207e-17
5.07551e-17
1.08321e-16
4.19914e-05
2.10546e-16
8.44241e-17
3.3059e-10
2.92847e-17
2.52828e-17
1.04514e-06
6.59155e-18
7.82514e-16
4.88097e-17
4.7378e-17
7.40841e-16
1.14783e-16
3.14031e-17
8.91779e-06
1.11211e-16
4.21114e-07
2.40094e-06
1.55805e-06
7.2883e-17
7.22513e-07
3.17699e-17
3.29524e-17
2.74228e-06
1.81221e-06
3.05218e-05
2.74622e-05
1.22217e-16
2.45267e-06
8.08439e-05
7.29364e-06
7.37765e-07
3.30071e-06
8.99318e-17
8.05599e-06
1.14527e-15
4.42212e-06
7.02891e-17
8.06351e-05
1.09738e-15
1.12229e-05
4.66371e-07
7.81115e-11
8.36677e-17
1.19725e-06
7.98194e-17
9.57255e-05
5.30488e-05
8.34517e-17
1.00034e-18
5.58617e-16
1.12117e-17
1.21365e-12
6.57428e-05
1.42806e-17
5.67976e-17
3.81107e-06
1.22741e-17
3.49141e-05
6.47441e-17
4.11798e-07
1.23019e-16
6.01707e-07
9.02777e-10
1.52082e-06
5.74817e-06
4.55541e-17
8.63431e-07
2.30392e-16
1.14011e-17
1.65067e-05
4.51175e-18
3.80279e-08
1.91451e-16
1.61678e-06
5.08712e-16
8.02937e-05
1.09122e-16
6.05036e-16
1.78961e-05
3.3366e-06
1.68927e-06
4.30867e-06
6.37117e-06
2.50905e-05
1.2715e-17
2.30743e-05
6.92591e-06
3.15612e-17
9.2843e-11
4.28431e-05
1.3972e-05
6.93439e-16
5.98953e-06
6.49999e-06
1.51096e-06
1.50162e-06
2.42524e-13
1.56899e-05
9.64111e-07
2.07111e-07
2.85485e-05
1.11372e-05
1.05723e-06
2.08838e-16
3.45755e-12
0.000757269
1.46552e-16
5.41016e-07
4.71442e-18
1.11382e-15
5.17949e-06
3.9643e-06
1.9051e-10
1.31497e-08
2.13537e-15
1.94941e-05
1.33924e-05
2.10358e-17
1.46142e-13
3.22201e-06
1.36067e-16
4.82763e-17
8.30808e-19
2.6232e-16
1.75461e-05
8.01115e-18
2.39389e-17
1.08163e-05
3.65716e-06
8.20981e-16
1.13585e-05
4.17362e-16
8.98275e-06
7.59055e-17
3.44455e-17
6.22903e-05
1.14205e-17
2.63326e-16
2.8205e-15
8.13264e-07
3.49045e-16
3.68754e-05
7.63289e-06
1.29612e-16
9.20605e-05
2.68745e-06
3.05407e-05
2.97727e-05
1.11756e-06
8.66384e-08
9.91299e-18
6.98168e-05
4.478e-05
2.5754e-18
4.55095e-07
4.83009e-05
6.6293e-06
1.29012e-07
3.25837e-05
3.00437e-05
1.19737e-17
1.49616e-05
5.69629e-09
3.21334e-16
3.61901e-05
3.11692e-07
1.6876e-16
1.26312e-05
4.17798e-05
1.82109e-06
2.07351e-05
1.98353e-05
8.89399e-06
1.58831e-15
1.04299e-05
3.29348e-07
6.82732e-15
1.64174e-05
1.6566e-05
3.76137e-05
3.08116e-17
9.01543e-07
7.60522e-17
2.01964e-17
2.30785e-17
1.00892e-17
1.55214e-08
7.98467e-16
2.51615e-13
3.54726e-16
1.25546e-16
3.17972e-08
4.54486e-05
2.85202e-16
4.18536e-05
2.6618e-17
1.77384e-16
5.31401e-16
4.68053e-05
5.81598e-07
1.09017e-15
4.81125e-17
8.79439e-18
1.02054e-17
0.00027978
7.85764e-05
9.61717e-16
2.08668e-06
3.99699e-09
2.10593e-17
4.17568e-05
7.81844e-06
1.28536e-05
1.65416e-17
2.4829e-17
3.95701e-07
1.11533e-06
1.05906e-15
2.97952e-17
3.9362e-16
7.00572e-06
3.11791e-17
6.79417e-16
4.26774e-17
4.73016e-05
2.35616e-06
4.96821e-18
0.00494518
0.000234521
8.74208e-06
6.89854e-18
1.88257e-16
6.56714e-05
3.91386e-07
4.52821e-16
7.64289e-09
0.000178514
3.40388e-06
3.19592e-06
1.04915e-15
7.01298e-05
1.92971e-06
5.78692e-18
1.50813e-16
3.71488e-17
4.34115e-18
1.16836e-17
2.57152e-17
2.37871e-05
1.11568e-16
2.04683e-17
2.49848e-16
1.16564e-05
2.92766e-05
1.03101e-16
9.01331e-17
0.000126855
7.33601e-06
2.9359e-06
1.04402e-15
3.05029e-18
2.19237e-05
5.99571e-17
2.83724e-06
1.16316e-06
2.64486e-06
5.96274e-17
1.97252e-16
4.3433e-16
1.34985e-17
1.60962e-05
1.42578e-18
9.08697e-17
1.13244e-06
1.26008e-17
2.57183e-05
1.70025e-06
1.92295e-16
3.99194e-05
0.000630383
2.68699e-06
3.49995e-05
2.55456e-07
5.69135e-05
1.62919e-13
3.0049e-15
2.55523e-05
8.96617e-05
6.18648e-07
4.18228e-17
1.26325e-12
0.000770233
1.14497e-06
1.01966e-17
3.59444e-06
3.30539e-06
1.57471e-06
1.09274e-16
1.40465e-16
1.87372e-17
1.39029e-05
1.33112e-15
2.72725e-06
3.1585e-16
1.13886e-06
5.78061e-07
5.16973e-06
9.87206e-07
1.16947e-16
2.74118e-17
1.2807e-17
2.27282e-05
6.95573e-17
4.52433e-17
6.13511e-08
6.85466e-18
2.33113e-17
1.84005e-17
2.62215e-18
5.09445e-06
1.21067e-16
5.72145e-18
6.66767e-13
3.70313e-16
5.22444e-17
6.17088e-16
2.52696e-17
4.24546e-09
6.5052e-06
1.41431e-16
4.96975e-06
1.08363e-08
4.39897e-10
8.47917e-08
4.40501e-06
8.77828e-18
1.0124e-08
1.14684e-05
3.92e-07
1.04551e-16
1.10459e-11
9.18456e-06
2.43891e-16
1.0423e-05
2.98666e-07
2.28932e-09
2.5269e-05
5.17414e-06
2.65506e-06
1.62132e-06
1.11931e-06
7.31519e-17
1.22194e-16
1.05557e-05
1.36247e-06
6.20974e-17
2.02963e-06
6.5516e-05
2.95825e-05
3.83495e-16
1.79085e-06
1.56366e-18
8.87417e-06
1.77205e-05
1.98721e-16
3.42034e-06
9.32594e-07
1.64835e-09
5.89527e-06
1.42071e-16
6.28482e-05
2.1176e-08
2.12078e-06
4.36833e-08
1.76235e-08
2.95764e-18
3.32943e-17
9.88083e-06
4.77472e-18
1.64931e-07
3.67409e-07
8.5336e-08
7.66353e-11
8.28241e-11
1.52015e-09
2.4988e-18
1.61212e-15
2.60613e-05
4.4706e-17
8.50144e-07
2.51467e-06
2.91468e-16
8.82309e-17
6.32658e-10
7.15823e-13
9.04386e-18
4.53552e-09
3.69719e-17
1.09097e-17
4.86971e-17
8.45914e-17
2.01056e-16
1.34084e-16
4.01424e-07
1.57695e-16
2.63432e-17
2.25913e-17
7.21022e-09
6.40791e-08
1.73188e-06
1.05148e-05
1.01586e-17
3.7296e-17
2.30531e-07
7.01058e-18
6.89552e-17
2.4977e-16
2.24476e-05
4.88766e-05
9.06823e-17
1.16295e-16
2.05826e-16
9.27152e-17
2.30905e-18
5.5155e-17
9.06047e-06
5.13976e-17
5.44139e-11
2.90879e-05
7.51749e-19
3.53328e-16
5.64275e-18
2.14618e-08
5.11846e-17
9.03281e-17
1.1394e-17
8.14664e-09
4.43562e-20
5.70112e-06
1.27865e-09
4.30072e-12
1.40584e-17
6.40527e-08
2.96765e-06
5.43049e-05
9.28944e-16
7.19581e-09
7.98202e-06
7.52433e-17
4.68103e-17
2.50921e-15
2.3053e-16
8.91041e-06
5.46693e-06
4.36496e-06
2.13433e-10
3.88148e-18
2.99632e-05
1.09862e-16
3.5778e-16
7.50551e-16
4.51113e-17
2.96908e-05
9.9491e-18
2.83223e-16
2.53114e-09
7.14799e-05
1.94929e-16
3.59965e-06
5.815e-16
1.21692e-06
9.15281e-16
7.84088e-18
1.01159e-16
1.40617e-16
2.8158e-06
7.87583e-07
0.000412817
9.36701e-18
4.08422e-16
2.59649e-06
4.68184e-18
1.05448e-15
3.14789e-16
5.36354e-05
7.64692e-09
3.0551e-05
3.92205e-16
9.30376e-09
4.2748e-08
1.58209e-15
1.02119e-07
1.79908e-16
2.10144e-06
2.99762e-05
2.83593e-05
1.73222e-06
3.3029e-07
3.36837e-17
1.77404e-17
3.25424e-17
1.9165e-08
3.62114e-18
7.12541e-06
6.39381e-17
0.000212599
4.62042e-17
4.83192e-05
3.0218e-06
1.19193e-16
4.46254e-18
4.75355e-16
3.10254e-17
4.08728e-05
2.9674e-16
9.90577e-16
1.1251e-05
7.02429e-06
7.6583e-16
1.04712e-15
8.86056e-16
1.04698e-15
3.78714e-16
2.25197e-18
2.63861e-05
4.81332e-07
7.35257e-17
3.1176e-17
4.19087e-10
2.72859e-17
1.71798e-06
6.53534e-08
1.27304e-16
3.22698e-06
7.67254e-17
2.31035e-06
6.49557e-17
8.84136e-07
2.74266e-16
1.29288e-10
2.38419e-09
9.32054e-07
1.79462e-05
3.42688e-05
1.24714e-09
6.15809e-17
5.38922e-07
1.77976e-16
5.10186e-06
6.3228e-17
3.61065e-17
4.51852e-16
1.59566e-17
1.32235e-17
2.38443e-17
7.08359e-06
7.62122e-06
1.34581e-16
3.06935e-16
3.64464e-16
6.58478e-07
1.84373e-08
3.95704e-16
2.23524e-05
2.42239e-07
1.25311e-16
2.26117e-05
4.06922e-06
3.79218e-06
1.53445e-05
1.0695e-17
1.08253e-17
5.74788e-19
5.19392e-17
4.22017e-05
3.58368e-17
0.000127331
5.90224e-18
2.62515e-07
8.04978e-07
2.89091e-18
8.26599e-07
4.49068e-18
1.07611e-17
2.78971e-06
3.21426e-11
8.27355e-06
4.15159e-18
6.89641e-17
9.99877e-18
6.95412e-07
8.73554e-17
5.28726e-17
3.14643e-16
4.84906e-10
5.45719e-16
1.17228e-08
1.9708e-16
1.44618e-16
1.25856e-17
2.05029e-05
1.28672e-06
2.33811e-05
3.98316e-05
1.46123e-16
1.07535e-08
3.92088e-18
8.43429e-18
9.47662e-06
1.19893e-16
3.1586e-09
3.07326e-07
7.70696e-06
3.22761e-07
8.93459e-13
3.24508e-06
8.5813e-17
9.11289e-13
9.16037e-13
1.05657e-07
1.31969e-06
1.74252e-05
8.03579e-11
1.12552e-16
3.25512e-05
4.91791e-17
7.76728e-17
2.62481e-08
9.57763e-05
9.41875e-11
5.24214e-19
3.03676e-17
5.1136e-10
1.131e-16
2.48814e-17
1.3202e-08
3.47259e-16
2.68688e-16
4.44611e-05
1.83229e-07
1.44624e-07
2.64874e-05
8.76e-06
1.08988e-16
8.95022e-18
9.06047e-09
5.26163e-06
2.09833e-17
4.96342e-16
1.41656e-05
3.32078e-16
2.39045e-16
7.10924e-16
8.05505e-16
8.3114e-16
0.00308649
4.57717e-18
3.07588e-07
7.89856e-17
2.08287e-05
2.30409e-17
1.21181e-15
8.26734e-16
3.35346e-16
5.87589e-17
6.18897e-17
4.84885e-06
4.3648e-18
8.18282e-17
3.87066e-16
5.1093e-17
6.50179e-17
2.07051e-18
1.13697e-05
1.04158e-17
1.55481e-05
2.97166e-06
3.61342e-17
2.71823e-06
5.24404e-17
4.63673e-07
2.06189e-09
2.69845e-06
1.77334e-05
7.0409e-17
4.24454e-07
1.18517e-05
7.78436e-09
1.51417e-16
2.07516e-09
2.14474e-05
1.5873e-06
6.65426e-16
1.06821e-05
4.50284e-16
8.89578e-18
7.79951e-17
1.97429e-17
2.57868e-06
2.71061e-17
7.45231e-17
3.06137e-06
9.87632e-11
5.93923e-07
2.60981e-17
2.8844e-17
9.24201e-07
2.38995e-17
1.32959e-07
6.4634e-17
8.74834e-06
6.87375e-17
5.99064e-17
8.56921e-08
1.17042e-16
1.32566e-07
2.34929e-16
4.12644e-17
8.15734e-06
5.15069e-07
7.12501e-06
2.21829e-05
0.000263409
2.35505e-05
5.12745e-17
2.97229e-15
2.409e-06
8.09992e-06
4.15599e-05
1.48059e-05
3.00515e-17
1.36247e-05
1.18071e-17
2.01565e-16
8.60047e-06
1.21425e-05
1.07132e-16
1.62167e-05
4.85023e-17
4.38168e-06
8.50222e-06
1.25727e-16
1.66986e-17
6.53706e-18
2.70564e-06
2.38016e-17
1.07151e-17
3.9301e-06
2.59414e-05
4.75898e-09
3.17344e-06
1.40336e-16
1.48727e-17
7.62546e-08
8.67347e-07
8.45687e-17
9.75284e-06
1.79586e-15
2.3363e-06
9.89805e-17
1.0125e-16
1.21993e-05
1.80695e-17
4.33775e-08
3.21272e-06
9.10742e-17
1.08735e-17
3.81738e-06
3.41786e-14
5.73378e-05
2.76712e-16
0.000324366
2.10687e-16
2.05094e-16
4.31491e-17
6.87073e-06
8.5759e-16
1.09225e-16
5.72231e-06
3.46442e-16
2.3575e-07
1.14485e-15
9.41633e-17
2.38053e-17
1.74125e-10
6.83274e-07
8.71068e-17
1.02534e-17
3.84274e-05
7.99782e-07
4.812e-17
6.93787e-07
8.02927e-17
2.37665e-16
1.31253e-09
4.57363e-06
1.83169e-06
1.74615e-16
2.7216e-18
1.25698e-17
4.51837e-18
4.51147e-17
1.20099e-16
3.64297e-17
1.08343e-17
9.08814e-17
7.75026e-18
2.42976e-17
1.45534e-16
2.82993e-17
3.20279e-17
1.89533e-17
1.34289e-17
5.28921e-17
1.95553e-17
2.44404e-17
3.19269e-17
2.52802e-17
2.03379e-05
4.6209e-17
2.99686e-17
4.40687e-17
6.96862e-06
6.29198e-17
6.22224e-17
0.000268003
7.12602e-16
1.53782e-17
2.47952e-05
3.03849e-15
2.48927e-17
6.47785e-06
2.75979e-05
1.26081e-17
1.85565e-06
3.188e-06
6.48543e-16
1.44459e-05
4.59856e-05
1.84777e-05
2.9607e-06
1.11661e-05
3.80247e-16
1.30431e-16
3.97868e-06
1.42578e-05
2.81246e-06
2.5106e-17
6.21171e-06
1.92693e-06
2.08261e-05
5.69726e-06
1.35497e-07
1.48097e-05
3.97238e-05
9.67345e-06
1.74774e-17
3.09451e-05
8.77595e-06
2.50062e-06
1.0387e-06
2.31561e-17
2.88434e-17
2.08961e-18
9.77088e-17
3.68243e-17
1.3085e-05
1.46018e-05
6.47285e-18
2.46441e-17
7.38135e-16
7.08354e-18
1.23924e-16
6.08301e-17
2.70343e-17
3.98313e-16
5.00971e-06
1.41739e-07
2.25989e-05
6.71986e-08
4.56726e-17
8.45449e-16
3.62222e-05
5.23127e-09
1.77202e-17
4.71555e-17
9.85335e-06
2.8881e-17
1.68626e-17
8.37824e-09
8.22873e-06
1.56897e-05
3.18962e-05
3.23609e-05
1.0945e-16
2.25147e-06
3.6364e-07
2.18945e-16
6.95437e-17
1.14607e-05
3.4756e-16
4.77789e-17
2.76845e-05
0.00122591
2.48278e-07
5.2906e-16
6.00833e-18
1.73683e-05
3.14511e-05
1.4209e-06
5.61992e-06
3.07286e-06
5.87853e-17
1.38637e-09
2.92641e-12
1.86809e-17
1.98462e-16
2.34166e-05
4.52536e-17
2.26483e-06
5.76355e-06
1.71413e-05
9.50816e-06
4.60861e-16
4.17944e-06
9.32212e-18
1.78919e-16
9.67096e-17
8.02618e-18
4.03551e-06
0.000919877
8.65404e-18
7.90019e-18
9.46853e-09
2.84099e-05
7.32944e-07
7.12729e-06
3.84682e-05
2.8007e-06
1.83725e-05
6.49518e-17
6.46442e-16
2.7304e-16
3.60273e-05
5.70782e-06
2.75453e-11
1.22348e-16
7.19639e-17
1.79571e-15
2.32357e-05
4.11345e-06
1.77782e-17
4.67397e-06
5.97681e-05
1.04783e-05
6.32377e-06
4.43429e-17
8.85534e-16
7.05942e-06
2.69042e-05
6.10549e-19
2.66008e-07
1.46675e-05
1.29299e-06
1.15839e-05
4.91516e-06
8.64613e-06
2.48947e-16
3.14313e-06
2.46999e-05
4.49099e-05
1.02501e-12
2.73257e-05
5.19693e-16
1.7615e-05
9.73918e-08
4.52292e-18
1.43382e-06
4.47135e-06
4.22948e-07
1.22846e-05
4.11376e-10
1.97152e-07
2.22392e-08
3.38673e-05
2.93795e-06
7.04634e-17
3.26988e-05
4.80122e-07
5.49724e-18
1.14725e-17
3.76729e-11
8.79569e-09
1.25723e-06
0.00124022
4.30452e-05
1.07358e-05
2.75073e-10
4.71716e-05
1.57366e-17
1.36581e-16
5.40331e-06
5.44954e-17
4.64665e-06
6.19948e-06
1.19752e-06
1.07866e-06
3.45153e-18
1.85635e-07
0.000122472
5.08672e-17
4.28463e-05
6.91321e-06
2.18416e-16
1.4085e-07
8.75432e-07
3.75474e-16
3.13081e-12
6.18235e-08
4.40304e-16
2.30302e-17
3.15404e-17
2.00079e-06
4.7237e-06
1.55725e-05
3.7498e-17
6.57324e-06
1.0901e-05
2.9759e-16
5.52897e-06
5.77837e-06
2.1184e-05
1.64265e-06
6.2236e-17
1.0737e-06
1.80673e-06
2.23124e-06
3.60842e-06
3.45366e-05
0.000178541
5.21922e-06
3.40474e-16
8.62405e-07
5.29533e-05
1.21546e-16
9.04767e-07
1.29186e-17
6.49669e-18
1.59524e-16
1.012e-17
3.35842e-18
3.54728e-06
6.08206e-18
5.99065e-06
1.95427e-06
1.63375e-16
5.41088e-06
1.96707e-15
1.45488e-05
4.11021e-17
1.57902e-08
6.06038e-16
2.23101e-05
1.63786e-07
2.13734e-09
5.70547e-07
2.79994e-05
1.92374e-05
3.57176e-06
8.52464e-06
4.12193e-15
3.0125e-06
6.10844e-05
1.12489e-06
1.38558e-16
1.2659e-06
3.63494e-07
4.36993e-07
1.42466e-05
7.947e-07
1.58554e-16
9.8927e-16
6.04571e-18
5.18449e-06
2.09538e-16
8.22737e-08
1.0833e-07
7.72858e-07
4.03507e-07
1.00261e-16
7.49086e-17
5.62547e-17
7.7711e-06
2.77075e-05
2.65454e-06
9.2219e-09
9.35327e-07
6.99028e-06
3.15285e-06
1.28235e-06
5.66536e-06
7.31841e-06
2.54587e-06
1.77485e-16
5.01958e-17
2.87608e-17
1.50172e-05
1.0821e-05
6.17566e-16
2.36049e-17
1.81232e-15
9.09395e-06
1.81434e-05
1.67454e-16
2.12284e-06
1.35811e-17
5.8258e-10
6.88531e-06
9.54134e-05
1.05012e-16
3.33584e-17
5.12965e-06
6.78489e-17
1.06914e-07
1.34961e-05
1.31244e-16
1.12938e-05
3.82594e-05
1.28338e-05
5.36577e-17
1.0996e-06
9.57984e-17
7.61868e-08
5.68094e-05
2.8628e-16
7.3265e-17
1.29026e-05
1.12633e-15
8.87624e-17
3.28446e-07
7.45984e-07
8.75127e-17
8.81519e-17
6.03536e-17
5.59379e-08
1.70355e-06
4.5043e-06
2.38345e-05
1.16616e-05
1.93905e-16
5.41116e-10
6.47331e-07
2.25129e-17
1.70249e-18
4.54634e-17
1.61905e-16
7.59172e-17
1.14772e-16
4.0802e-16
8.68312e-17
2.80706e-16
5.73447e-16
2.07547e-12
3.58567e-16
5.01596e-07
7.72582e-16
1.36224e-07
6.56973e-16
7.5259e-08
3.32435e-16
3.79312e-17
2.60096e-05
1.03297e-05
1.09707e-16
0.000103128
1.32913e-12
2.67704e-13
4.75553e-18
1.24752e-06
1.57062e-16
2.63992e-06
6.20379e-09
1.22065e-06
2.49477e-16
1.07988e-16
7.42982e-07
5.20952e-11
2.74431e-17
1.30631e-16
4.45471e-05
6.16541e-16
4.35998e-05
4.06785e-17
4.84326e-18
6.19161e-12
3.13917e-05
9.0815e-06
4.67846e-17
4.7082e-07
8.07554e-16
1.77612e-06
1.71063e-08
1.81539e-06
7.53188e-07
3.8151e-17
2.32038e-05
1.07681e-06
6.89689e-06
2.18575e-17
7.18449e-17
6.07457e-17
8.73523e-06
3.21792e-06
5.16939e-05
4.66167e-17
3.47926e-10
5.4689e-17
4.75226e-17
1.69858e-16
4.71589e-17
2.78327e-06
1.62235e-06
1.89757e-06
0.000348983
6.08462e-17
3.57754e-05
3.93908e-05
1.80043e-05
1.26867e-06
1.47562e-16
7.888e-06
3.7349e-06
6.25161e-06
7.23449e-10
9.87266e-06
1.40319e-16
2.26903e-06
1.0133e-06
3.76118e-05
8.61184e-10
3.25134e-06
1.94284e-16
2.13926e-05
2.71932e-16
3.07067e-16
1.84423e-06
2.45132e-16
9.3613e-06
2.70157e-16
1.26621e-16
8.31488e-16
3.29258e-17
6.87371e-18
6.75733e-07
1.74109e-16
7.13173e-07
2.36847e-16
2.99564e-18
2.42464e-05
6.70975e-06
1.07007e-05
1.03148e-05
1.04616e-17
0.000638204
1.65505e-16
7.67104e-05
3.1254e-17
2.31489e-05
2.17436e-05
2.10826e-06
6.6739e-05
3.48059e-16
3.58216e-16
2.78706e-17
2.35455e-06
2.98981e-17
3.52525e-17
1.75057e-05
1.95455e-16
1.438e-16
4.94902e-06
3.45536e-16
1.09102e-05
1.03526e-10
1.76229e-17
7.3527e-17
9.67055e-17
2.15773e-06
6.55421e-06
2.04705e-16
2.07286e-06
2.68387e-07
2.3459e-16
0.000119707
1.70722e-17
1.6241e-05
1.81999e-05
2.01113e-06
4.77943e-16
2.09229e-05
1.07792e-05
8.77416e-07
4.88036e-06
1.60079e-05
5.14003e-17
5.37202e-16
1.8887e-09
9.99687e-17
5.07369e-17
2.81291e-17
2.07463e-05
4.79931e-05
5.31932e-06
1.71157e-06
1.72253e-16
4.71255e-05
4.96028e-05
4.89982e-06
3.75029e-06
8.47404e-06
2.43842e-05
2.30518e-06
3.11267e-17
8.11732e-18
2.52634e-17
5.8491e-06
2.06976e-17
2.96537e-05
6.7267e-16
8.12064e-07
3.91883e-10
2.5149e-06
1.08245e-05
2.38551e-17
1.28737e-16
2.53271e-06
3.63644e-07
7.35163e-17
1.31141e-16
2.09564e-17
6.1331e-08
2.11906e-07
1.12297e-07
6.97567e-07
6.10137e-06
9.52894e-05
2.31947e-16
2.31958e-16
7.08024e-17
2.49735e-06
1.86774e-05
1.08293e-06
3.31253e-05
2.8589e-06
2.38543e-06
8.19283e-17
6.46457e-17
4.55106e-16
2.71696e-17
4.2489e-06
2.33777e-05
3.91362e-17
2.6876e-16
3.46552e-16
4.9057e-17
6.80829e-18
4.10481e-16
1.25797e-05
1.04001e-15
1.3879e-06
0.000402878
7.851e-17
1.76775e-08
6.1849e-07
2.99877e-07
2.96398e-17
3.44921e-16
4.49548e-06
3.3786e-17
1.50955e-05
1.31885e-09
2.70733e-05
4.33353e-16
7.3237e-15
6.17559e-17
7.67e-18
2.71548e-16
7.62421e-16
0.000219705
9.31146e-17
5.04949e-06
1.5242e-06
1.57663e-17
1.13365e-15
2.14861e-06
1.59037e-16
1.20716e-16
1.53267e-05
6.42218e-08
1.21553e-16
6.75844e-16
8.65344e-17
1.03549e-05
2.84572e-16
1.39765e-16
3.74226e-07
2.30296e-06
2.88505e-06
1.1501e-16
5.69013e-17
8.7445e-17
3.30607e-06
1.61287e-06
1.11656e-05
3.15919e-06
1.56268e-18
3.69998e-06
2.25803e-06
1.00915e-06
1.56711e-18
3.74091e-16
1.09525e-16
3.52479e-18
3.01168e-16
3.06621e-05
6.8437e-06
5.53568e-06
1.01561e-17
4.36499e-17
1.97633e-16
5.0679e-17
3.20327e-17
9.40227e-10
3.3003e-07
3.54486e-07
6.2263e-17
7.70535e-16
3.46581e-17
3.83447e-12
3.44281e-05
0.000122623
1.03694e-17
1.2909e-12
3.27294e-15
2.83058e-16
3.01404e-16
3.13187e-06
7.16828e-06
9.55521e-17
6.9864e-16
3.81062e-06
3.48602e-16
1.04784e-06
8.70417e-07
0.00245036
3.72799e-17
1.97926e-16
1.87321e-05
4.58716e-07
5.208e-17
0.000772199
2.20258e-06
8.52885e-06
1.13471e-16
1.01765e-16
1.48524e-16
3.45331e-17
4.43245e-06
1.17392e-07
5.68187e-16
2.79308e-05
1.87603e-05
0.00100519
1.99314e-17
1.85381e-17
3.41772e-16
6.54808e-17
5.85221e-06
5.44192e-11
4.22714e-16
2.95327e-16
6.85495e-06
1.48214e-06
6.90243e-06
6.46871e-17
3.45848e-17
3.08599e-05
3.97551e-16
1.66866e-16
2.92655e-18
1.24378e-16
2.80053e-05
4.36165e-16
2.92673e-17
1.27694e-16
2.06663e-05
1.91403e-05
5.26323e-17
1.05765e-16
1.40924e-17
1.73715e-05
1.22881e-10
1.12647e-16
4.78737e-17
4.93896e-16
3.29719e-16
2.67894e-06
1.02977e-05
4.55028e-18
2.22036e-06
8.62966e-07
4.22993e-06
2.09465e-16
1.56427e-16
9.96655e-19
5.61606e-17
1.09005e-17
2.78276e-05
1.05584e-15
1.80714e-05
4.20338e-17
1.40404e-06
5.13558e-16
2.01323e-06
8.15764e-17
7.40857e-18
1.23612e-05
0.000243432
9.40447e-16
2.95958e-06
3.22426e-16
3.16417e-07
5.29469e-17
1.23645e-16
1.83968e-16
1.60815e-10
1.39292e-16
4.44432e-07
1.73647e-16
3.87523e-05
2.03373e-17
8.31212e-16
1.48264e-17
9.67607e-17
4.19133e-08
1.66607e-07
7.55982e-18
5.16545e-06
7.74228e-18
4.34045e-06
2.19017e-05
1.11699e-06
4.3095e-18
4.31085e-09
3.63751e-07
1.76241e-09
6.98336e-06
4.52277e-10
1.32624e-06
5.64244e-16
4.11688e-17
4.2413e-10
3.48303e-06
2.08028e-07
8.88397e-17
3.91655e-17
2.24548e-16
0.000567092
4.01037e-18
5.65376e-17
2.64439e-17
7.56453e-17
1.20267e-19
9.47123e-08
1.60416e-07
1.02214e-06
4.05078e-08
4.74925e-16
1.29337e-06
1.1588e-16
8.18468e-06
1.41436e-16
3.90069e-18
2.19165e-17
2.02955e-16
2.01752e-08
4.58584e-17
2.59118e-17
1.60338e-16
1.60564e-05
2.66697e-16
3.71285e-18
1.25982e-05
2.89123e-16
5.81623e-05
0.000100994
0.000520904
8.49786e-17
0.000240628
0.00145483
0.00185992
0.000795968
1.60218e-16
8.83958e-18
4.96477e-06
6.21792e-06
7.86691e-17
5.08708e-06
2.11875e-17
3.15612e-05
1.97423e-16
1.28172e-16
6.23402e-07
2.83651e-16
6.19037e-16
1.01756e-08
3.47832e-08
7.56841e-18
1.08216e-17
2.17985e-09
4.76323e-16
2.83064e-16
2.48295e-08
8.47283e-06
1.2245e-06
8.1677e-16
7.36915e-06
1.4648e-16
2.93567e-06
4.945e-10
6.60175e-06
8.10513e-17
4.5629e-12
5.8127e-06
2.27804e-16
1.2976e-12
3.23522e-17
3.51541e-05
2.9565e-17
1.12321e-05
1.46307e-16
2.376e-10
2.30041e-17
1.57645e-16
2.75055e-17
4.13804e-13
3.20321e-13
1.85395e-17
1.14289e-05
7.99725e-06
2.24633e-17
7.44424e-18
3.98416e-05
4.34338e-06
0.000211118
1.0095e-16
6.35832e-08
2.4972e-05
5.3828e-05
4.69586e-11
2.78345e-18
6.95375e-05
7.47342e-17
0.000257991
1.72068e-16
3.23389e-11
3.37683e-11
7.06331e-17
7.59011e-08
5.15054e-16
2.39728e-05
3.57416e-17
7.78481e-17
3.10623e-17
1.59361e-16
4.42107e-16
9.06047e-17
3.35131e-07
1.74639e-06
0.000160653
2.31599e-16
4.89431e-16
4.7985e-05
7.24937e-17
3.55305e-19
1.41374e-16
5.11195e-16
2.37766e-16
1.37429e-06
3.73312e-17
5.70208e-17
2.48769e-18
1.44584e-06
6.38491e-16
2.34734e-17
4.95597e-17
7.37134e-06
4.58639e-18
9.76962e-06
0.000248781
5.22499e-06
7.7067e-06
1.82956e-06
1.45018e-16
9.03427e-17
1.5441e-16
4.20247e-06
2.22914e-06
2.4749e-17
5.4147e-15
4.94634e-06
1.97803e-15
3.35548e-17
0.00037479
9.31666e-17
2.24933e-05
6.95087e-17
8.70173e-07
4.03608e-06
2.9577e-16
5.36548e-18
5.94506e-17
5.52527e-18
1.35871e-16
2.20277e-05
4.15967e-16
3.92388e-06
8.3769e-17
1.98738e-16
4.44265e-06
1.96346e-17
1.72849e-05
5.62502e-16
4.92273e-17
1.849e-06
1.26409e-07
0.000152628
7.18482e-16
3.11228e-17
1.43885e-17
5.80293e-06
0.000200313
8.56737e-17
1.61148e-17
1.14207e-15
6.08714e-08
3.30106e-16
2.61765e-05
3.07136e-05
1.20557e-15
6.44746e-18
1.69594e-06
3.12308e-16
3.01337e-16
1.57903e-18
5.20762e-16
2.84453e-17
7.29556e-05
4.9504e-16
7.07614e-16
3.86169e-18
3.61632e-16
7.27668e-17
4.44336e-17
1.61527e-16
7.66107e-17
3.25359e-16
1.19426e-05
3.401e-16
2.92514e-06
7.95033e-16
5.18152e-17
0.000663268
1.99983e-06
6.22263e-17
8.94795e-17
1.27437e-16
1.3306e-06
3.63905e-16
3.59614e-16
8.10599e-16
3.39554e-16
6.58128e-06
5.49583e-18
3.82141e-06
1.57963e-17
1.32674e-05
1.16666e-16
6.23601e-05
7.21235e-16
2.66798e-16
1.90325e-05
1.43929e-16
1.32778e-16
3.21074e-05
3.14676e-07
1.98753e-17
4.61565e-17
4.45706e-05
1.40674e-05
2.92077e-06
1.67764e-07
1.98469e-07
1.86504e-05
7.2736e-07
6.03606e-06
2.6803e-16
2.70731e-05
8.6938e-17
7.12574e-17
2.48353e-17
8.25198e-16
8.68241e-17
4.68331e-06
2.41634e-16
3.02506e-18
2.08842e-17
1.82025e-09
1.5195e-08
2.14675e-15
3.5233e-06
3.00171e-16
5.24212e-06
2.6899e-17
1.01934e-09
7.44142e-06
9.7259e-16
4.97961e-05
8.20266e-17
1.84529e-16
5.00009e-18
2.03803e-06
1.40125e-06
3.75306e-17
2.24046e-17
1.69362e-06
3.5887e-16
0.000738528
1.56128e-16
0.000101565
7.67145e-17
1.81068e-17
1.68741e-16
1.25988e-16
5.77009e-06
5.35575e-17
5.41909e-08
9.95429e-18
9.0413e-06
8.23541e-17
2.64907e-17
6.35513e-15
1.31142e-15
1.83593e-16
1.4804e-15
1.18211e-16
4.1065e-17
4.32891e-06
0.000244033
6.53841e-16
2.34003e-17
4.83027e-07
7.43683e-18
1.75016e-17
2.13737e-09
2.01949e-05
1.9302e-07
1.60985e-17
3.82892e-06
4.50542e-06
6.08454e-06
1.04887e-05
3.09179e-16
2.05768e-18
3.3123e-17
6.501e-17
3.0557e-18
1.09951e-16
3.97229e-17
8.07675e-17
5.24298e-17
3.02145e-17
3.23383e-17
1.05774e-17
8.43176e-05
5.39187e-17
6.54707e-17
2.27925e-12
1.60899e-16
7.92379e-17
0.00125506
5.32491e-17
4.11641e-18
1.66114e-06
8.90126e-13
1.14154e-16
6.59545e-18
7.63555e-17
2.22283e-05
1.31914e-17
2.04121e-16
4.16245e-11
2.83364e-18
1.74998e-16
2.43211e-17
3.39198e-17
0.00012532
9.87286e-18
2.3423e-07
2.94141e-17
2.83364e-17
7.37043e-17
1.55381e-16
1.82384e-17
3.51584e-11
6.071e-11
1.6958e-07
1.22683e-16
1.96112e-16
5.43053e-17
1.23258e-10
5.06446e-17
3.24905e-10
2.29327e-11
3.6706e-17
5.03029e-17
5.52642e-16
1.59285e-11
6.05094e-17
2.25659e-16
1.80295e-12
2.20728e-15
3.57208e-05
1.25605e-17
7.3144e-06
9.75535e-16
2.29237e-09
3.12949e-17
1.66376e-06
5.93409e-17
4.04444e-06
2.42325e-05
3.52219e-17
2.55133e-06
1.19896e-08
1.12194e-17
1.00849e-05
3.27094e-17
8.40583e-17
3.06888e-16
1.02553e-16
1.31031e-16
9.59814e-18
8.77133e-17
9.03576e-17
0.000298094
3.44766e-17
2.16975e-17
7.66761e-17
5.00881e-17
1.41488e-17
3.55069e-05
0.000944575
2.67328e-09
1.6369e-08
6.18788e-17
1.77962e-06
1.19841e-06
5.80534e-16
7.93148e-16
1.82914e-15
2.54734e-17
5.64388e-17
2.0966e-16
2.7551e-16
1.13226e-16
4.1241e-07
1.23241e-15
7.26472e-17
1.48478e-07
2.32256e-09
1.74043e-16
3.2642e-05
6.31704e-17
3.34353e-16
5.44743e-17
0.000192794
5.89419e-16
3.88085e-18
2.9157e-05
4.30217e-17
2.03736e-17
6.66394e-17
2.4923e-17
6.13335e-05
9.80658e-17
2.15042e-16
1.16129e-16
3.9816e-17