/*--------------------------------*- C++ -*----------------------------------*\
  =========                 |
  \\      /  F ield         | OpenFOAM: The Open Source CFD Toolbox
   \\    /   O peration     | Website:  https://openfoam.org
    \\  /    A nd           | Version:  10
     \\/     M anipulation  |
\*---------------------------------------------------------------------------*/
FoamFile
{
    format      ascii;
    class       volScalarField;
    location    "111";
    object      SgP;
}
// * * * * * * * * * * * * * * * * * * * * * * * * * * * * * * * * * * * * * //

dimensions      [1 -1 -3 -1 0 0 0];

internalField   nonuniform List<scalar> 
59698
(
0.00309492
0.00183544
0.00231271
0.00271399
1.14911e-06
0.00145199
0.00249691
1.0732e-07
1.98022e-09
3.94934e-09
0.000586479
1.77497e-09
1.58064e-09
0.00228618
2.78252e-08
4.28361e-07
9.41108e-09
3.82363e-09
1.63921e-09
5.97018e-10
0.000365374
1.56331e-06
0.000498869
8.81925e-08
2.00676e-07
1.20819e-09
1.17672e-09
0.00248143
0.00239374
2.11634e-09
1.35413e-07
0.000600684
6.67543e-08
0.00403452
1.11128e-06
3.82914e-09
0.000465195
5.06172e-07
1.73209e-08
0.00245339
2.96251e-08
2.30476e-07
2.30873e-08
2.45571e-08
0.000402107
1.04727e-07
2.67538e-09
4.88339e-08
0.00290838
3.14815e-08
2.97029e-10
2.33554e-09
0.00172824
0.00272941
0.00216783
2.04578e-09
8.45359e-08
1.54924e-08
1.77293e-08
2.76221e-05
0.00178292
6.28183e-08
1.9826e-07
1.52517e-09
4.96878e-07
4.16424e-08
1.75407e-09
3.23978e-09
4.19506e-09
6.77223e-09
6.09944e-07
2.79489e-08
0.000360051
1.74711e-06
0.000411944
1.16853e-06
2.15834e-08
2.18925e-08
6.40515e-09
9.79429e-09
4.7888e-07
9.84385e-10
4.05563e-09
8.03913e-09
1.69932e-05
3.14495e-08
9.1638e-09
2.22076e-07
2.34551e-06
2.30874e-08
4.50384e-09
6.3566e-08
1.72389e-07
6.54169e-09
6.05333e-08
0.00359102
1.3683e-07
6.1867e-08
5.0868e-08
8.59604e-10
0.00353785
2.07528e-05
2.95415e-07
0.00329385
5.36829e-08
0.000564774
2.32909e-09
2.27323e-09
2.72239e-09
4.39534e-10
3.7017e-08
2.63035e-06
1.34914e-06
1.5628e-07
9.75519e-08
3.45687e-08
3.4906e-07
0.00353379
2.92511e-07
1.13635e-08
2.26904e-09
2.98491e-07
2.25764e-07
3.44155e-09
1.62621e-09
7.68099e-09
8.35552e-09
7.20411e-09
1.29895e-08
3.86448e-07
0.00335585
3.86415e-09
1.10458e-09
1.82698e-07
6.51865e-08
3.23601e-09
4.91687e-07
2.47321e-10
1.73055e-09
5.67912e-09
2.08207e-08
0.00231721
0.00252087
1.57985e-09
1.90728e-07
7.92744e-10
5.35077e-07
3.78874e-07
0.00448817
7.02612e-07
0.000257465
0.000434379
2.77779e-08
2.54763e-07
9.38304e-09
1.04561e-07
7.44556e-09
0.00162893
6.71831e-08
5.97694e-10
3.11323e-09
7.71766e-09
2.22387e-08
9.69456e-08
1.88821e-08
0.00222848
1.06129e-09
0.000567186
0.00152528
6.91518e-09
2.55832e-07
1.46569e-06
2.17848e-07
9.26659e-07
5.77093e-07
0.00121901
4.37387e-09
0.00139586
0.000326014
0.0029318
2.25347e-06
7.39745e-07
3.99775e-07
1.12406e-08
2.49414e-07
6.74311e-08
3.7065e-07
0.00238045
1.36969e-10
1.82809e-08
6.42028e-09
7.03865e-09
2.29994e-08
6.04999e-07
1.21945e-07
0.00416744
1.81567e-06
0.00294404
1.27541e-05
9.0928e-08
0.000227111
6.75907e-07
1.52928e-09
2.56724e-09
0.00356735
0.00244692
3.6012e-08
0.00205807
0.00270769
0.0035027
0.00242677
6.10453e-09
0.0026274
1.5674e-08
2.34721e-09
0.00336709
9.85833e-09
4.54678e-08
1.55092e-07
4.66013e-09
1.36763e-05
0.0021743
1.72705e-09
5.09696e-07
8.90912e-09
0.0027467
2.11735e-08
5.46595e-09
4.89491e-08
6.81049e-07
7.56777e-09
1.86944e-08
7.42629e-09
1.13645e-08
9.52395e-09
9.06266e-09
3.07832e-07
1.95391e-08
1.76497e-07
8.19365e-09
0.00261371
1.1905e-07
3.43064e-08
0.000664542
8.60947e-09
2.15181e-07
2.2945e-05
3.48072e-06
5.28839e-09
4.94078e-09
6.13408e-08
6.47286e-09
3.10053e-08
0.000233555
1.91618e-08
0.00169893
1.09845e-07
5.4108e-08
0.00314712
2.88055e-09
7.71784e-06
1.80188e-09
7.83061e-09
0.00270858
0.00357785
8.56717e-07
1.08788e-09
1.06974e-07
1.97964e-08
6.06516e-10
3.13151e-09
1.53877e-06
6.91275e-05
6.62861e-10
1.25148e-07
5.01651e-08
0.0014658
3.9723e-08
2.93876e-09
1.21539e-09
0.000574138
1.79003e-09
1.65879e-09
4.71219e-07
0.00334903
1.02121e-07
5.2755e-09
0.000647136
3.808e-07
1.002e-07
2.62552e-06
0.00232504
9.27613e-09
1.35466e-09
7.0317e-07
0.00273237
4.71516e-10
1.52244e-07
1.44945e-08
6.43319e-07
3.08003e-09
2.25582e-09
6.86687e-08
5.72054e-10
1.12151e-09
1.16974e-09
3.60951e-07
2.19332e-08
5.3744e-09
5.31502e-10
0.00190122
4.20341e-08
3.72369e-09
2.37959e-08
0.00191502
5.46909e-09
0.000403389
8.31719e-09
0.000829309
8.51951e-08
9.53088e-08
2.78256e-07
1.67419e-08
2.90701e-09
1.57919e-06
2.5536e-07
1.60897e-08
8.70566e-09
4.30001e-10
0.000361922
0.00289899
4.02352e-08
3.579e-07
2.42801e-06
0.00043095
1.03937e-08
7.75906e-09
4.29188e-09
1.39852e-07
0.00122086
2.13401e-08
0.00206206
0.00250593
4.95276e-09
9.98358e-08
1.35797e-09
2.6679e-10
1.24602e-06
1.34985e-09
0.00203388
9.28936e-10
1.45278e-08
1.23711e-06
7.95623e-10
9.19536e-07
0.00191614
2.74207e-06
1.4409e-08
3.28533e-08
1.82932e-09
2.10064e-08
1.08686e-08
1.1061e-07
3.5937e-09
1.41029e-10
1.04125e-07
0.00279685
0.00201716
2.83687e-08
9.79926e-07
1.13163e-07
0.000533992
0.00366893
0.000651119
2.09484e-08
2.97818e-09
3.63772e-08
2.04124e-09
0.000460525
2.48766e-09
0.000347123
4.46233e-08
4.25779e-08
5.15519e-08
8.56212e-10
6.75196e-06
1.0912e-08
0.000544821
8.29626e-10
3.38364e-08
2.08005e-08
0.000457463
0.00330047
3.23797e-09
5.39254e-05
0.00179787
3.65749e-06
0.00182706
0.00269777
8.14805e-08
0.00243862
0.00236497
0.0025738
5.42302e-09
0.00148346
0.00417838
0.00383885
0.00276238
5.86584e-09
8.26349e-07
1.88417e-07
0.000404303
0.00163746
0.000434528
4.70497e-10
2.07032e-07
2.01228e-09
2.23348e-06
0.00189688
0.00175578
0.0029222
0.00218233
0.00249158
0.00166614
7.82567e-09
2.03425e-09
7.77096e-09
1.73418e-08
0.00138452
5.6197e-10
7.79211e-09
0.0019607
0.00116559
2.34693e-08
3.71271e-08
1.43679e-08
1.39826e-08
0.00126149
3.33747e-09
0.00211842
1.92324e-07
0.00321066
5.09761e-09
4.39856e-08
1.86368e-07
2.03611e-06
8.69504e-08
4.52345e-10
2.15209e-09
1.2888e-07
0.0025433
6.6171e-09
7.21378e-08
1.9707e-06
6.10706e-07
1.15017e-07
3.42092e-07
1.40129e-09
1.15351e-06
1.65075e-07
6.10625e-08
4.6084e-09
0.0032084
6.39688e-09
2.19698e-09
2.03484e-07
3.50982e-07
9.27013e-09
4.35139e-08
6.16153e-09
0.00247476
4.41843e-09
2.03163e-10
6.85631e-09
6.28773e-08
2.03116e-06
8.25878e-07
2.20437e-09
0.00300906
0.00194619
2.34558e-08
2.19438e-07
1.59834e-08
1.9457e-08
2.52646e-07
4.11865e-08
4.4304e-08
1.96955e-08
1.64942e-09
1.65274e-09
2.49539e-07
4.04364e-07
4.08628e-10
4.23501e-08
0.00402063
2.12847e-07
1.5362e-08
0.00236663
3.7093e-08
0.000365618
9.72711e-10
1.18799e-07
2.0412e-07
1.21077e-08
1.71047e-08
1.12024e-09
8.17548e-08
2.15464e-09
5.26934e-09
8.26287e-09
5.75641e-09
7.85683e-09
1.35063e-06
5.41921e-08
1.60343e-08
2.68566e-09
6.88589e-09
9.89259e-09
7.03776e-08
2.48155e-08
1.71309e-08
3.47107e-09
5.05972e-09
3.84889e-09
2.18929e-09
6.31827e-06
3.30021e-08
2.81205e-09
0.00339744
0.00370806
2.90405e-09
0.00384638
1.82751e-08
5.53237e-09
0.00145129
3.54866e-10
1.35536e-08
0.00178824
1.90432e-09
0.000384874
4.32728e-08
2.5693e-09
4.50273e-08
3.00406e-06
1.48547e-08
5.15953e-09
8.93557e-06
0.000167115
1.87724e-08
7.4705e-06
1.82755e-08
2.28833e-09
3.08577e-08
1.91003e-09
5.06913e-09
1.45829e-08
1.9172e-08
1.61955e-08
2.58758e-09
2.22854e-09
0.000768502
1.74656e-09
1.65901e-08
1.01019e-05
1.51038e-08
1.81006e-09
1.2151e-06
2.25063e-08
8.55577e-09
0.000539255
7.78982e-10
7.61525e-09
2.03249e-07
1.57815e-09
4.39969e-08
1.31506e-09
3.17115e-10
4.41324e-10
0.00200342
2.31756e-09
0.000732636
3.90427e-08
0.00320723
1.495e-08
3.2815e-09
0.000313337
1.17984e-09
1.35707e-08
1.78745e-08
1.63825e-08
1.99191e-09
0.00316742
8.12096e-09
1.68621e-08
8.51872e-10
4.13917e-08
9.28591e-07
0.00264958
0.000349775
7.15964e-09
7.93375e-09
1.64394e-09
2.69435e-09
0.00337491
1.35314e-08
4.42845e-09
2.48267e-09
0.00108738
0.00385607
1.53181e-08
1.26032e-08
1.57162e-09
1.13791e-08
4.28703e-09
4.12295e-09
5.12345e-09
4.92068e-09
3.64938e-08
7.87064e-05
7.31626e-09
5.03643e-09
7.87398e-09
1.82093e-08
2.5332e-05
0.00241928
1.09266e-08
0.0026635
1.63326e-09
8.77232e-09
4.32618e-09
0.00269466
0.000211225
9.65533e-10
8.40681e-09
7.1858e-10
2.86182e-08
6.32094e-09
2.85518e-09
0.00151548
0.00323686
1.28449e-07
1.62589e-07
0.000607897
1.45425e-09
5.10916e-09
1.60501e-09
4.1184e-07
0.00210681
3.38297e-08
1.72337e-09
0.000439478
7.69672e-09
3.18646e-08
3.33542e-09
2.38285e-09
4.35511e-09
9.33109e-10
7.70706e-06
1.01968e-09
0.00182038
5.06571e-08
1.12014e-07
6.86585e-09
1.55086e-06
3.45149e-06
5.37506e-09
2.0764e-08
0.00230813
0.00311019
7.33091e-08
3.8651e-09
7.58274e-07
1.5567e-09
0.00343743
3.11122e-10
1.95936e-08
0.000428463
0.00255397
4.31488e-09
1.60519e-09
1.96426e-07
5.88666e-07
3.53426e-07
0.0003781
0.00139636
1.13957e-10
6.58544e-09
8.03444e-10
4.62524e-09
0.00277497
2.71703e-08
0.00303013
9.96965e-09
0.00131534
0.00209608
0.00236437
6.17518e-08
4.10679e-09
0.000650656
1.2693e-09
2.30944e-10
9.99461e-10
4.35367e-09
1.81514e-08
4.55427e-09
1.4977e-09
9.18313e-08
6.73391e-08
7.51944e-09
2.72518e-09
0.00186391
4.18257e-08
3.62407e-08
0.000362146
1.0159e-08
3.48891e-08
3.81933e-08
1.93463e-09
1.38743e-09
0.000646942
0.00196277
0.00241491
3.86413e-09
1.11362e-08
6.99179e-09
1.63557e-07
0.00194535
1.37374e-09
5.68871e-07
2.58773e-08
1.32361e-05
0.000344565
0.00169866
2.25588e-07
1.48158e-07
2.2416e-08
0.00430842
0.000532161
1.89106e-08
8.95727e-07
3.52699e-09
6.81847e-08
3.47065e-06
0.00231974
2.4532e-08
1.20639e-07
1.01275e-07
1.58513e-05
2.51203e-08
0.00185624
2.48167e-09
5.16888e-08
1.16387e-08
0.00213064
7.09094e-10
6.70818e-09
2.06447e-07
4.44641e-06
0.000599772
1.09244e-07
7.028e-08
0.000383643
4.14658e-08
2.52145e-09
0.00190616
0.00219651
5.48181e-09
7.56266e-09
0.000401562
1.00408e-08
1.75217e-08
0.000373921
3.50619e-10
0.00265405
2.46958e-09
1.9327e-08
1.81565e-07
3.97344e-09
3.92753e-08
3.59164e-08
4.98431e-05
3.75605e-09
6.13322e-09
7.11064e-09
1.17324e-08
9.70787e-08
1.49257e-08
0.000326089
6.98881e-09
2.04382e-08
0.00140035
5.73871e-08
9.84172e-08
8.74761e-06
0.00187032
2.40151e-06
0.000541698
6.88908e-09
0.000383168
1.59137e-08
4.1893e-09
1.62159e-09
0.00314077
3.78526e-07
3.24622e-08
7.11522e-05
6.44e-08
0.00157968
1.70376e-07
9.84968e-06
3.55187e-09
0.00100438
3.16119e-09
0.00130484
5.36533e-05
2.43914e-07
0.000651796
0.00179453
1.20226e-06
1.11011e-05
4.11804e-09
1.12625e-06
2.51793e-08
4.08277e-05
0.000444759
0.000428784
0.00211175
3.53511e-08
3.20069e-08
0.000561236
4.54659e-08
0.00227711
6.90591e-10
0.000401153
2.29167e-09
2.67112e-09
2.94239e-05
0.000503634
0.0002063
0.000108616
7.69303e-09
5.13534e-09
1.94016e-09
0.000487248
2.09228e-09
0.00350802
0.0047371
2.49089e-09
0.000499712
2.06887e-09
1.00248e-09
2.92524e-09
3.23745e-06
0.000469631
2.91261e-09
1.30576e-09
1.05389e-06
4.44997e-09
1.12225e-07
3.78236e-09
2.98736e-09
8.8359e-08
2.63808e-07
3.11922e-08
1.04056e-08
0.000532566
8.02781e-10
0.000127593
2.70211e-10
2.48567e-09
0.00124248
1.49953e-09
7.76427e-06
8.9822e-08
7.42492e-09
0.00010882
1.24701e-08
0.00157162
2.72427e-08
4.59576e-10
0.00174582
5.69475e-09
1.1331e-08
0.000307135
1.24708e-09
0.00205969
1.67974e-08
1.42227e-09
0.00422994
3.06311e-09
5.32393e-09
1.49714e-08
1.63681e-08
0.000319935
7.94724e-09
5.56727e-09
1.64933e-07
0.00180901
0.000633464
0.000584038
2.24569e-08
1.77059e-09
0.000379941
0.00237002
6.73715e-09
8.57698e-09
5.57249e-08
1.1634e-08
2.84568e-09
2.55361e-08
0.000412243
0.00144848
0.00262294
1.49198e-07
2.03729e-09
0.00267082
0.00400966
0.0052096
5.07351e-08
1.80094e-08
1.61355e-07
4.36539e-07
1.80946e-08
2.67667e-08
7.86916e-07
2.81474e-08
7.51193e-09
8.16864e-09
1.35601e-06
7.13955e-08
7.38698e-09
0.00254235
1.63387e-09
6.03289e-08
1.87572e-08
2.81949e-08
6.47891e-09
3.85931e-10
0.000761134
1.8852e-08
3.1152e-09
0.00193673
1.91162e-08
2.39574e-08
0.00316675
2.93853e-08
3.34494e-07
5.67936e-09
1.99459e-08
2.43407e-08
0.000825811
3.04338e-08
0.00220049
1.82773e-07
1.98685e-07
3.66393e-08
0.0053311
0.000294934
4.59748e-09
5.44449e-09
9.92176e-07
1.45864e-09
1.12459e-08
8.50433e-09
0.00167349
1.17365e-09
2.28403e-09
8.1355e-09
2.46876e-09
3.57752e-08
2.3908e-08
7.53087e-09
0.000429221
0.00219283
0.000466221
6.29617e-08
0.00314139
0.00256283
5.60972e-08
1.76619e-09
0.00183297
6.45216e-06
0.00154631
0.00208221
0.00203132
3.32359e-09
5.88717e-08
0.00237834
1.95711e-07
3.29959e-08
1.88721e-07
2.6452e-08
0.000443699
2.08802e-08
0.000538422
1.69288e-05
2.57505e-08
0.00196164
2.00028e-08
0.000608738
6.86636e-09
1.66301e-08
1.21992e-09
3.99367e-08
0.00153623
0.00364928
1.29328e-09
0.000395618
0.00188713
0.00135367
0.00278135
5.67775e-10
1.01144e-08
1.17144e-09
0.00355359
7.80152e-10
1.29683e-07
0.0035588
5.33194e-09
0.00346988
0.00351494
0.00366744
1.55169e-08
5.72242e-08
4.63229e-08
8.76823e-09
1.10883e-08
6.13759e-08
1.26673e-08
5.1396e-09
0.000475259
4.12664e-09
3.70989e-08
2.75987e-07
5.24283e-10
0.00162317
2.92291e-08
4.6257e-09
6.6602e-08
2.67809e-10
6.98725e-08
3.90262e-09
2.0306e-07
0.00306613
3.14729e-05
8.90639e-10
1.56054e-08
0.00210096
0.00314928
1.79148e-07
0.000760272
9.99505e-09
7.73304e-09
0.00257373
2.2249e-08
0.00322074
0.000542248
1.0485e-09
7.28278e-08
0.000765799
1.73671e-08
2.49943e-08
0.00250174
6.34866e-09
1.35666e-08
3.12364e-09
0.000534592
3.14467e-06
0.00193136
1.82309e-07
9.36582e-09
0.00175021
1.39301e-07
2.56488e-10
5.94705e-06
2.18512e-09
7.23901e-07
0.00129385
2.73008e-09
9.41249e-10
1.13624e-08
5.92066e-09
1.54743e-08
5.85719e-09
1.25971e-08
1.00025e-06
9.61705e-10
1.24825e-09
0.00169858
4.6568e-09
5.41398e-06
2.93058e-08
4.37968e-06
1.33748e-06
1.17176e-06
5.34609e-06
1.25833e-06
5.34785e-09
1.65848e-08
0.00100311
2.9654e-06
2.48899e-08
2.25965e-08
2.48075e-08
0.00044909
1.36673e-06
7.92043e-08
2.28763e-07
3.46849e-09
0.0022627
4.73377e-09
1.22708e-08
2.08708e-08
1.18538e-08
2.99151e-08
0.00212668
5.59665e-08
2.40596e-08
1.86655e-08
4.73523e-09
0.000477735
2.27136e-09
5.15549e-09
3.3494e-08
2.4871e-10
1.40852e-09
6.11946e-09
9.36387e-09
1.36196e-08
0.000333203
1.14301e-08
1.31698e-08
2.50307e-09
2.00802e-08
1.24314e-08
1.00841e-08
5.84607e-08
0.000380629
0.00242467
1.544e-08
7.86679e-09
0.00284483
1.67218e-09
4.31576e-05
0.00202966
4.95654e-09
7.22418e-07
1.52959e-06
0.00186618
2.20428e-08
3.18085e-08
2.17615e-07
1.74064e-05
8.68745e-07
2.1415e-07
1.40162e-09
3.74586e-09
4.19059e-07
1.08723e-07
5.39359e-09
1.51524e-09
1.23406e-08
7.54859e-09
2.9971e-06
0.00129383
6.40933e-08
3.60839e-08
5.10678e-08
0.00264614
0.00244631
9.10131e-07
1.51433e-08
3.26765e-08
4.01444e-08
4.47018e-09
2.89847e-09
1.81491e-07
4.22278e-09
3.45809e-08
2.03153e-09
1.27092e-08
2.26797e-08
3.33096e-09
4.1442e-07
2.79693e-09
0.000434431
9.50303e-08
0.00394805
0.00165203
1.12392e-07
2.13813e-08
0.000579702
0.000345167
2.77214e-08
2.33973e-08
9.31339e-06
2.32928e-09
1.87999e-09
2.35853e-08
1.74056e-08
0.000781453
0.000646978
9.56806e-09
1.18194e-08
7.74e-09
3.33322e-07
5.08309e-08
0.00267068
0.00049641
1.47977e-08
0.000238787
7.04023e-09
0.000315433
0.000227742
0.000223584
2.82111e-08
1.05101e-07
1.77431e-09
1.00762e-07
2.53876e-08
0.00240356
4.89742e-09
4.13966e-08
6.91738e-09
7.70483e-08
2.27481e-05
0.00194496
0.00227798
2.22785e-08
2.97402e-08
0.000377621
3.99608e-08
1.0389e-06
1.04751e-08
0.00304783
4.07155e-08
2.27641e-08
8.53212e-06
0.00262294
6.85479e-08
2.28216e-08
0.00131292
2.01526e-08
4.65561e-10
1.39693e-09
4.45615e-09
3.16898e-08
1.32862e-08
6.37318e-10
2.24197e-08
3.68805e-08
1.14625e-08
6.06767e-08
1.65857e-08
5.51919e-07
0.00191157
2.81513e-09
1.60724e-08
5.63443e-08
0.00200057
8.71481e-07
2.00942e-08
0.000374177
2.87435e-09
2.25163e-07
1.46256e-07
0.000983774
3.60434e-07
3.19052e-10
1.22059e-07
1.4012e-08
1.22675e-07
5.02686e-08
3.02213e-09
1.47395e-07
6.88512e-09
8.69995e-08
7.83015e-10
0.000584267
4.86566e-08
0.00207399
1.34664e-09
6.32658e-08
2.14919e-06
1.07391e-08
5.2416e-06
4.79145e-09
6.71434e-10
2.46156e-07
4.18548e-08
4.84932e-09
1.74111e-05
6.10863e-08
7.42059e-08
0.000547251
2.99173e-09
0.0005637
3.1622e-08
2.266e-09
7.7273e-09
5.7859e-09
1.98297e-08
3.89829e-07
3.13493e-07
1.50404e-07
0.00237867
2.18325e-07
0.00393241
0.00209531
0.00329159
8.4974e-08
2.20985e-07
0.00143523
3.83158e-09
2.47232e-08
2.97674e-08
0.00237003
9.79805e-09
0.000635585
0.000492188
2.76902e-09
0.0026259
5.05366e-06
0.00263986
1.88962e-08
0.00249641
5.59596e-08
0.000340344
1.61662e-09
3.81293e-09
4.27535e-08
0.000746786
7.68712e-07
4.16523e-10
2.6904e-08
6.34483e-10
0.000532958
0.000313616
5.70172e-08
0.00190927
4.56234e-07
0.000544621
3.19256e-08
5.5822e-10
6.02325e-09
2.59729e-09
8.92398e-08
2.03872e-05
5.68386e-09
1.33236e-06
4.44484e-08
4.21413e-08
4.65499e-09
9.88422e-05
2.24079e-07
1.87798e-09
6.41276e-09
0.000432449
1.09431e-06
7.79577e-08
0.00152074
1.75807e-06
1.4846e-06
7.41257e-09
8.44095e-09
3.90853e-09
0.00068158
2.7242e-08
5.43471e-09
1.49693e-08
3.63796e-07
9.96592e-07
2.08684e-07
1.82264e-09
3.16127e-06
6.70811e-07
7.39208e-09
5.9751e-09
5.49786e-06
2.5136e-09
5.23774e-09
0.00238711
0.00220926
6.17082e-08
4.49806e-09
1.1467e-09
3.33781e-08
0.00192968
2.58872e-07
1.37288e-06
5.49039e-10
5.49499e-07
3.25775e-08
0.00112032
0.000444879
6.96687e-07
2.36563e-08
3.44363e-06
5.50058e-07
0.000100662
2.2432e-09
1.83275e-08
0.00118822
2.5538e-08
7.77787e-07
5.89306e-07
2.03359e-06
1.22266e-06
1.17058e-08
0.00162275
1.30797e-05
2.47488e-09
1.21689e-08
4.66626e-09
0.000427673
0.000113546
1.85885e-08
0.000637652
1.24229e-07
7.26358e-05
0.00282727
0.000398956
0.00281976
0.00183701
0.00221777
4.52933e-10
2.84513e-06
8.42822e-08
3.44655e-06
1.48937e-05
2.21426e-06
2.01601e-09
3.97365e-07
1.474e-08
3.20275e-07
0.000761567
2.89896e-07
8.91332e-10
0.00178399
1.39272e-07
0.000207822
1.83471e-07
4.11093e-07
4.75822e-09
3.87644e-07
2.12085e-07
0.00151227
2.09931e-07
3.56983e-08
1.49908e-07
2.60171e-05
0.00129743
0.00131391
0.00294003
4.8432e-09
0.0005028
0.00149672
0.00175315
0.00149458
2.35494e-07
0.00217389
2.6827e-07
4.70643e-09
5.43627e-09
6.38681e-09
0.00147152
0.00176861
5.60252e-09
1.44888e-08
8.39449e-09
4.08029e-07
0.000298095
0.00368257
0.00135434
8.21116e-08
0.00247915
8.70834e-10
3.61437e-08
0.00108919
0.000804587
5.34812e-09
2.76898e-06
1.21901e-08
6.34867e-09
0.00352004
6.33964e-09
0.000423322
1.1713e-09
0.00037871
0.000405407
0.000581333
0.00190926
3.24769e-07
0.00161712
1.26715e-08
1.18019e-05
0.000460526
0.00124701
0.00220776
0.00109663
7.52747e-09
0.00124438
9.02122e-09
1.59491e-08
0.00292716
1.64006e-07
6.62367e-06
5.65105e-08
5.20416e-08
0.000573425
1.43542e-06
3.26199e-09
1.49173e-07
4.35725e-07
0.000403298
0.00219839
2.72774e-07
7.6114e-09
0.000614692
1.86589e-08
1.57088e-08
5.111e-08
6.0408e-07
0.00214077
3.80953e-09
0.00241696
8.36963e-10
0.000256111
0.00433602
8.69375e-09
2.97767e-06
0.00242905
4.9842e-05
5.11184e-06
2.47429e-09
0.0017791
0.00277879
5.127e-10
0.000489096
8.42331e-07
0.000618778
1.49047e-08
8.51179e-07
5.12138e-07
3.52638e-08
7.81881e-11
0.000345783
0.00131433
6.61975e-09
1.18844e-09
0.00218178
1.11133e-08
2.2083e-09
3.73831e-08
1.87499e-09
7.87674e-08
0.00354115
0.0020943
2.64416e-08
5.46569e-10
0.00221181
1.98914e-07
0.00270366
2.78727e-09
1.91504e-06
4.59015e-08
7.44663e-09
2.7466e-09
1.08248e-08
0.00333616
5.03788e-09
2.80264e-07
0.000274719
0.00237604
0.000453087
1.37853e-08
1.17352e-06
2.56625e-09
0.000229203
0.00228075
9.10676e-10
3.76737e-09
3.97739e-08
3.3103e-08
0.000502526
2.62021e-07
0.000529727
1.92223e-07
6.62906e-09
5.85568e-11
4.98028e-08
0.000221122
0.000394062
5.42165e-09
0.00384294
0.00245682
8.63356e-09
2.93145e-10
3.82226e-09
7.3457e-09
3.79837e-09
1.53725e-08
0.00275075
0.000620088
0.000514076
7.75836e-05
0.000348243
0.00038168
2.77035e-09
4.26982e-08
1.52357e-09
3.0451e-08
1.88797e-08
0.00234566
1.07712e-08
4.93499e-09
0.00111864
1.90209e-08
7.67904e-08
8.81882e-08
1.65452e-09
8.29298e-08
3.47496e-08
0.00219882
5.27341e-09
1.44385e-08
4.25628e-09
1.58373e-08
2.11785e-08
0.00375554
4.52627e-07
1.1207e-07
7.32828e-08
1.06078e-09
4.52878e-05
1.18177e-06
3.32997e-09
5.78853e-07
1.26552e-05
1.0187e-08
1.12707e-08
1.03758e-05
1.6371e-06
2.50706e-07
0.00304074
3.87947e-09
3.96943e-07
1.36523e-06
0.00282684
2.24201e-07
4.31949e-10
1.91556e-06
1.50996e-05
3.4311e-07
1.00954e-08
1.69662e-07
4.59142e-08
6.6171e-08
2.00608e-08
3.31422e-08
0.00185701
2.18139e-09
1.18233e-08
1.10669e-08
6.92457e-10
4.60886e-09
1.0389e-09
0.00421483
1.2573e-07
1.94649e-09
3.29403e-09
3.07938e-09
1.08571e-09
4.9254e-08
5.1245e-09
2.83047e-09
5.4026e-08
1.33835e-08
0.00220951
3.05759e-09
0.000384347
3.48882e-08
1.17759e-07
1.78309e-08
1.21044e-06
1.01716e-09
0.0031576
9.4732e-09
0.00178984
2.97815e-07
4.02386e-08
1.35807e-08
1.81457e-06
2.74992e-09
3.62214e-09
2.93705e-09
0.000259122
0.000626655
0.00213652
1.01126e-07
1.57313e-07
0.00227862
1.71922e-06
3.37161e-09
1.37566e-08
2.87349e-07
1.03262e-08
0.00411984
2.80293e-06
0.00307948
2.82669e-08
7.68122e-09
0.0015889
0.00144431
0.00174766
1.66319e-08
1.47222e-06
0.00186861
1.67478e-09
1.23279e-05
1.51481e-07
0.00177473
0.00045932
1.81518e-07
0.00230819
2.04652e-05
6.17763e-07
0.00205374
0.00216972
1.91585e-08
0.00237784
0.00300985
0.00180866
2.49272e-08
4.37926e-09
6.11744e-09
7.51529e-10
2.86432e-09
0.00163001
0.00275211
0.00182473
2.63003e-09
0.0030332
2.73887e-09
0.00228072
0.00249147
5.76628e-09
3.66067e-08
0.0016539
2.45888e-08
1.33684e-08
3.2065e-07
4.27502e-10
0.0025605
0.0019903
8.289e-07
0.00163463
4.23403e-09
3.04994e-09
7.10596e-09
3.33123e-08
6.72391e-08
3.13282e-07
1.22247e-09
5.60695e-09
1.42018e-08
8.12502e-09
6.20241e-09
1.04393e-07
3.66383e-10
2.31144e-08
2.11414e-06
1.15431e-08
3.43952e-08
2.7511e-09
1.2105e-07
1.5589e-09
5.25244e-09
2.2229e-07
1.56663e-09
3.0193e-09
0.00188087
3.49393e-08
5.16606e-09
6.52801e-07
3.13737e-09
1.47426e-08
4.84491e-08
0.00185699
9.27859e-08
0.00220806
0.00148589
1.72038e-08
2.07225e-08
5.80646e-08
6.57111e-09
0.00157708
4.94558e-08
2.23634e-07
3.6694e-07
2.90339e-08
0.00235742
0.00149677
1.8832e-09
3.14551e-09
7.01631e-09
6.37708e-08
5.88755e-08
7.42277e-09
4.16169e-07
5.32547e-09
1.49417e-06
2.49615e-09
1.52662e-09
6.30787e-09
1.55574e-08
2.33094e-07
8.05631e-09
1.89205e-08
0.00429575
0.00144845
0.00257013
0.00155372
1.49138e-06
1.2065e-08
0.00201321
6.94731e-07
6.72663e-09
0.000410058
1.31885e-09
1.44354e-07
0.00235105
4.41206e-08
1.26002e-07
2.30267e-08
4.28207e-08
0.00139989
8.22377e-09
9.52585e-10
2.03686e-07
2.65679e-09
4.68984e-07
5.96069e-06
6.70667e-08
0.00211104
4.18458e-08
0.000460429
2.66354e-07
0.00209887
3.86585e-10
5.07009e-09
2.68125e-07
3.92634e-09
0.00183882
3.83349e-07
0.00051827
1.49307e-07
1.83494e-07
1.33928e-07
2.65918e-08
8.67587e-09
4.93086e-08
3.01074e-06
4.05307e-08
2.59617e-06
0.00324753
5.32103e-08
0.00421533
5.63911e-09
2.47498e-09
4.57564e-06
0.0018643
1.39895e-08
1.3125e-09
9.03524e-07
5.67249e-08
3.36168e-08
0.00233972
1.34636e-08
6.12355e-07
0.00262077
1.35932e-09
8.03989e-09
4.17916e-07
9.65991e-10
8.18835e-09
0.00253088
5.29348e-09
0.00276769
2.31617e-08
2.15276e-07
3.90875e-08
0.000894191
5.97901e-08
2.79989e-08
1.48683e-07
0.00253483
1.58906e-06
1.2595e-08
9.2782e-09
1.25041e-07
0.0020726
3.4528e-09
5.19187e-08
6.30477e-08
1.60053e-06
0.00252798
0.000270202
0.00119147
1.74254e-08
0.000358107
1.32113e-08
8.97247e-07
0.000789584
1.15693e-08
0.000880779
3.28735e-06
4.85305e-09
2.65811e-09
1.209e-08
0.00253347
1.52581e-08
2.42307e-09
2.59608e-07
1.1249e-08
5.5617e-09
0.000301448
2.73039e-09
4.47762e-08
0.00242962
1.26533e-06
4.5264e-09
0.00203794
3.25761e-06
6.49858e-09
1.38567e-08
1.20199e-05
4.29659e-08
2.23727e-07
1.67656e-08
4.1407e-08
6.06194e-08
4.74879e-06
0.00109764
4.84136e-08
0.00248239
1.51286e-08
3.79503e-08
0.00271655
3.08556e-08
7.83797e-08
9.57479e-09
1.29763e-07
0.00237013
3.00329e-08
2.12871e-08
0.00163503
5.78721e-09
0.00266886
1.40516e-09
8.20947e-09
1.03496e-09
9.7447e-09
0.0015168
5.41507e-08
1.38606e-09
2.58386e-09
1.43206e-08
5.28987e-08
0.0025506
4.76333e-09
4.59887e-09
1.88242e-09
1.54913e-07
5.29529e-06
5.03397e-09
0.00156987
3.50693e-08
1.04575e-08
6.31706e-09
5.1175e-08
0.000429647
6.49722e-07
1.62349e-10
1.005e-09
0.00182629
0.00217013
6.14386e-08
3.86193e-09
0.00183547
1.61826e-08
9.00127e-10
0.00356026
9.04786e-09
0.00275319
2.92207e-07
1.76932e-08
2.02088e-08
9.77503e-09
9.53046e-09
4.4393e-09
3.04249e-05
7.45878e-07
2.26951e-09
4.13798e-08
5.54843e-08
5.32981e-09
0.00257874
8.69276e-09
1.33126e-08
0.00197403
2.62208e-08
3.59157e-08
2.96681e-10
0.00228716
2.81795e-08
1.34433e-07
3.2815e-09
3.70093e-08
4.03443e-09
0.00233767
5.916e-09
7.06969e-09
0.000612531
1.0755e-08
7.10778e-09
0.00233169
6.54886e-08
3.87909e-10
3.14373e-08
5.92675e-09
0.00188358
4.41907e-07
6.02788e-08
3.47078e-09
4.0085e-07
1.41492e-07
8.68693e-09
1.37134e-09
1.02997e-09
3.41027e-08
1.04939e-08
8.25464e-10
7.78718e-09
6.52104e-09
1.02397e-08
0.00231616
6.96455e-07
1.4792e-08
2.04906e-09
9.41257e-10
0.00219981
1.94375e-08
0.00327811
9.38943e-07
0.00158579
7.48037e-10
0.00215253
0.0029264
8.66276e-09
9.41345e-09
8.96672e-08
0.00210519
0.00251638
3.06924e-07
6.75506e-09
2.49736e-07
1.05328e-09
2.21123e-07
8.59837e-09
9.42873e-08
1.66319e-08
1.46602e-09
3.90099e-09
8.53584e-10
6.22743e-09
9.30944e-09
3.79582e-09
5.06282e-09
1.50194e-08
9.02285e-08
3.26989e-11
3.35763e-09
7.4632e-10
5.64538e-09
1.52538e-09
1.7167e-07
0.00189961
0.00279692
4.52476e-09
0.00222556
1.39904e-08
3.06653e-09
4.49053e-09
1.648e-06
1.80199e-07
7.17264e-08
9.9489e-10
1.10273e-08
2.1441e-09
7.94696e-09
1.59431e-09
1.28163e-08
1.41458e-07
0.00158848
2.44071e-09
2.12194e-08
0.0014033
0.0017843
0.00219803
0.00206389
0.00176512
4.65894e-08
3.77917e-08
2.88679e-09
7.89679e-09
7.59726e-09
1.34102e-06
3.93912e-09
2.93244e-08
3.41285e-08
7.18411e-09
2.23629e-09
2.6612e-09
7.43397e-07
3.15501e-06
3.97672e-07
6.00733e-09
1.68318e-09
3.25329e-09
0.00284207
2.53415e-09
0.00185272
1.09123e-07
8.78392e-09
7.52679e-07
0.00105424
6.75861e-08
4.03833e-10
3.78057e-09
3.20636e-08
1.50762e-09
2.36321e-08
8.32396e-10
0.00110409
3.46006e-10
4.18319e-08
0.00284506
3.0046e-09
0.00133038
5.86753e-08
0.00216661
9.80265e-08
0.00121969
3.55558e-10
0.00289503
0.00232083
2.78471e-08
4.16207e-09
0.00158368
2.00643e-08
0.0018697
1.67381e-08
7.87124e-09
5.06871e-10
1.66303e-08
2.04845e-08
1.49707e-08
6.3679e-07
0.00292354
0.00166187
1.22437e-06
3.7939e-09
3.48314e-07
0.00305626
0.00136144
0.00236579
0.00234396
5.3273e-09
6.04684e-08
2.75132e-08
1.25621e-08
0.00303577
6.52049e-09
0.00148775
0.00321498
5.54685e-09
3.13014e-09
0.00160517
0.00302783
2.82204e-08
9.25825e-10
0.00169036
8.61721e-08
2.55386e-09
4.6734e-07
9.53617e-08
0.000406823
7.14227e-08
5.64442e-08
2.47289e-07
2.70172e-07
9.07752e-08
3.91832e-09
4.60478e-09
1.06374e-08
2.02778e-09
2.05498e-08
8.68327e-09
1.88055e-10
2.32273e-09
0.00200649
0.00284309
3.41463e-10
2.54446e-08
6.66234e-09
2.78152e-09
4.81562e-07
1.95036e-08
2.36383e-09
0.00270667
0.0015058
0.0014488
0.00162331
4.89972e-08
0.00136254
2.54898e-07
0.00376686
7.29718e-10
0.00227612
2.73177e-08
3.64956e-08
1.55421e-07
6.06278e-10
0.00294106
1.85626e-07
0.00423654
5.9133e-09
9.43609e-10
9.13837e-09
8.95895e-09
0.00133978
0.00286831
1.38874e-10
3.31362e-09
2.4408e-08
0.0016743
3.98179e-09
0.00280337
3.40421e-07
1.92451e-09
5.77785e-09
0.00241521
3.50666e-08
0.00213609
8.20876e-08
0.00383006
0.00319958
7.75182e-08
3.65884e-09
0.00352896
8.60524e-09
8.51877e-07
0.000344637
1.56826e-08
1.40207e-07
2.28101e-08
8.82949e-09
0.00300983
3.91774e-09
7.38411e-08
3.87537e-10
7.03743e-08
4.04887e-09
5.30591e-09
1.51382e-08
1.0088e-08
1.71174e-08
0.0029498
2.13528e-08
2.75226e-08
4.71825e-09
1.42879e-08
9.10101e-09
9.85757e-09
1.15927e-08
0.00217427
8.53682e-09
0.00293678
0.00189525
4.91043e-09
0.000360672
2.94546e-09
3.30988e-09
2.61388e-08
3.47679e-08
3.01159e-08
0.00152604
0.0020269
1.10592e-07
1.04416e-07
8.37224e-08
0.00305489
0.00110992
4.80816e-08
0.00216349
0.00439063
1.24512e-06
0.00258975
0.000410461
6.31302e-09
7.8234e-07
2.5176e-08
0.000563893
6.70902e-10
0.00252479
3.3106e-10
2.32189e-09
0.000636457
0.000341714
1.9292e-08
0.000460439
4.2541e-08
1.04516e-07
2.57791e-08
2.69686e-09
3.93056e-07
2.86827e-09
4.8533e-09
0.00243082
1.32491e-08
1.38572e-08
4.24618e-09
1.22014e-07
1.65802e-09
4.57707e-05
2.96476e-08
2.03622e-08
7.95365e-08
1.64128e-07
0.00029709
0.00227198
4.17788e-08
6.90657e-09
0.00236628
0.00234086
3.70151e-08
2.28172e-08
1.25366e-08
3.15552e-09
3.05098e-08
1.10336e-08
0.00200164
0.00433465
6.11374e-09
2.04527e-09
3.81561e-09
6.01155e-09
0.00246896
0.000394486
1.7387e-09
1.81107e-08
1.53216e-08
0.00211934
1.05237e-05
1.08991e-06
0.00194331
2.49187e-08
2.49554e-08
5.03778e-09
4.11966e-08
2.52656e-08
0.00220463
5.22266e-08
0.000310665
5.52185e-09
6.25764e-09
0.00320555
0.00260273
7.55872e-09
0.00306981
1.08094e-09
1.47359e-09
4.53018e-07
4.96834e-09
3.55016e-09
0.00179312
2.67005e-08
1.23848e-07
0.00385156
1.22519e-08
0.00155157
0.00300649
1.3763e-08
0.00319277
1.44417e-08
1.27751e-08
1.78768e-08
1.87069e-07
9.86292e-09
4.63599e-08
5.96807e-09
2.45987e-08
4.76874e-07
1.96292e-08
0.00232325
6.60734e-09
0.00301319
8.50159e-10
1.14634e-08
5.35264e-09
0.00231057
8.44748e-09
0.00223805
0.00192339
0.00309696
1.57048e-08
0.00209378
1.44885e-07
2.15214e-08
3.13115e-09
7.93661e-09
1.27312e-08
7.63165e-08
1.42184e-07
2.84709e-07
3.42481e-09
0.00282186
3.20334e-08
1.16585e-09
9.10147e-10
4.50636e-09
7.03998e-10
0.00200403
3.54914e-08
0.00294231
2.70108e-08
0.000624961
3.603e-09
3.64596e-09
0.00176861
0.0034653
6.65917e-08
3.66442e-09
0.00375522
1.56898e-08
1.08612e-09
3.32535e-09
1.32133e-08
6.30191e-10
1.37416e-08
1.51453e-09
1.40862e-08
2.85622e-09
5.91701e-08
2.70128e-08
0.00246211
5.49177e-07
1.01729e-07
1.12207e-08
4.6357e-09
0.00208837
1.39772e-08
0.00298234
4.13685e-08
2.81536e-08
6.6362e-09
6.22266e-09
7.97476e-08
7.42525e-07
0.00129732
0.00121777
7.99393e-09
0.00369083
2.41167e-08
0.00276906
9.04368e-09
2.21484e-08
2.94651e-09
0.00259925
0.00127758
0.000427448
4.43905e-08
2.0289e-09
0.00128975
5.31e-09
3.30924e-09
8.96844e-09
5.33702e-09
0.00237148
0.00202101
1.78884e-08
3.15291e-08
5.16141e-08
3.90487e-09
3.23847e-06
1.8092e-06
6.17407e-09
2.44558e-08
0.00157766
8.81098e-09
3.11616e-08
1.08773e-09
2.99963e-08
4.50563e-09
0.0022681