/*--------------------------------*- C++ -*----------------------------------*\
  =========                 |
  \\      /  F ield         | OpenFOAM: The Open Source CFD Toolbox
   \\    /   O peration     | Website:  https://openfoam.org
    \\  /    A nd           | Version:  10
     \\/     M anipulation  |
\*---------------------------------------------------------------------------*/
FoamFile
{
    format      ascii;
    class       volScalarField;
    location    "111";
    object      SgRate;
}
// * * * * * * * * * * * * * * * * * * * * * * * * * * * * * * * * * * * * * //

dimensions      [1 -1 -3 -1 0 0 0];

internalField   nonuniform List<scalar> 
59698
(
0.0163036
0.00198804
0.00252372
0.00271606
0.0302886
0.00145199
0.00462747
3.0323e-05
1.98022e-09
3.94934e-09
0.000586479
0.000299101
1.58064e-09
0.00229241
0.000352398
4.28361e-07
7.00399e-06
0.000145875
4.51304e-05
0.000268893
0.00174753
0.0139502
0.00049899
8.81925e-08
0.0422222
6.75255e-05
0.000342564
0.0100065
0.00910397
0.00745209
0.00479213
0.000600684
6.67543e-08
0.0163918
0.00240978
0.000163637
0.0192232
0.0205433
3.08453e-05
0.0249837
0.00865226
2.30476e-07
0.00372746
0.000645053
0.000402107
0.0321484
7.40743e-05
0.000730312
0.0031542
0.000173924
0.00151656
0.000119543
0.00206634
0.00273461
0.0113509
7.69415e-05
0.00132586
0.000212631
0.000806468
0.002753
0.00523917
0.000499844
0.122126
7.04368e-05
0.0125142
0.00160892
1.75407e-09
0.000399679
5.57224e-05
6.77223e-09
6.10738e-07
0.000253351
0.000363637
0.0416851
0.000411944
0.0390801
0.000117206
0.009255
0.000357981
0.00617207
0.00889441
0.000475219
4.05564e-09
1.59751e-05
0.00861232
0.000550996
3.63501e-06
4.21753e-05
0.0637713
0.00012941
4.50384e-09
0.00205886
0.0149167
9.80549e-06
7.34225e-05
0.00375141
0.00540351
6.10558e-05
0.000269311
8.59604e-10
0.0771915
0.00182131
0.016304
0.0155485
0.00012137
0.000564774
4.36648e-05
3.67014e-05
2.72239e-09
4.39534e-10
0.000250031
7.25304e-06
0.0381715
1.5628e-07
2.62709e-05
4.50724e-05
4.01042e-05
0.00353819
2.36122e-05
1.13635e-08
3.64049e-05
0.000707664
1.14599e-06
6.17564e-06
2.12574e-05
3.35016e-05
0.0108213
7.20411e-09
2.7728e-05
2.97066e-05
0.0447598
3.72861e-05
1.10458e-09
0.100229
0.00426494
0.00441151
2.11305e-06
2.47321e-10
0.000255275
0.000130946
0.000109463
0.0023188
0.00269624
0.00265357
9.97769e-06
0.000695063
6.36404e-06
2.21184e-05
0.0044899
0.029326
0.000299485
0.000434379
0.00151909
7.59514e-06
0.0001626
0.000342756
4.78321e-05
0.00162925
0.0124432
5.97694e-10
0.000860262
5.13202e-05
0.016409
0.00163537
0.00337035
0.0344992
0.000237833
0.0721497
0.0020307
0.000413405
0.0119487
1.48925e-06
0.0107983
0.0146528
0.0793107
0.00194752
4.37387e-09
0.00144645
0.000326014
0.00920431
0.00942183
0.0180244
0.0147298
1.98269e-05
0.0460817
0.000236962
0.0114489
0.00247863
6.47458e-06
0.00118203
0.000405835
6.7035e-05
0.00267178
0.0387701
0.00402824
0.00417138
0.00982538
0.0581706
2.68911e-05
0.00772892
0.000227111
0.00615572
0.0211844
6.63901e-05
0.0103876
0.00276549
0.00611892
0.0028689
0.00783094
0.0113917
0.00256104
2.36464e-05
0.00279369
1.5674e-08
0.00409035
0.00336757
3.73114e-05
3.61578e-05
0.0127622
0.00659765
0.00563746
0.0026865
2.98391e-05
0.0660542
0.000813276
0.0263835
0.00735083
0.00324649
0.0068581
0.159104
7.56777e-09
0.00474389
0.00291188
0.00324505
1.38497e-05
0.00968819
0.0829579
1.9152e-05
8.63395e-07
0.00044199
0.00262488
0.00147193
0.0135346
0.000664542
0.00613498
0.000120331
0.00379619
0.229427
0.00122162
0.000426757
0.000702094
0.00163502
0.000629366
0.000233555
0.000618181
0.00238981
0.00601442
0.0012846
0.00364434
4.10277e-05
1.46871e-05
1.80188e-09
0.000394229
0.00592718
0.00473055
0.0476318
2.32722e-05
1.06974e-07
0.000164988
1.63328e-05
0.000141639
0.0440395
0.00022329
1.85246e-05
0.0179487
0.000206533
0.00146596
0.00051021
0.00208497
1.21539e-09
0.000574138
0.000193516
0.000212044
0.104757
0.0489523
0.0201646
0.000134782
0.000647136
0.0729787
0.00044445
0.0912543
0.00234016
0.000188067
0.000164531
0.000321938
0.00273563
0.000356575
0.000803613
0.00424148
1.17259e-05
0.00272396
2.25582e-09
6.86687e-08
0.000823738
6.46894e-05
5.26423e-05
0.0520128
0.00101326
2.01754e-06
0.000267308
0.00197968
7.09355e-05
3.83599e-05
2.37959e-08
0.00193979
0.00514151
0.000403389
0.000392313
0.000829309
0.000806631
0.000342626
0.324385
0.000320717
2.90701e-09
0.0483307
0.0104622
0.000327993
0.000353278
0.000440929
0.000361922
0.00933844
0.00416883
0.0202656
0.207356
0.00043095
1.92964e-05
1.00558e-05
0.000664613
0.0091036
0.00449009
0.0102236
0.0020658
0.00253491
0.00147645
9.67729e-05
6.73524e-06
9.92774e-05
0.0394358
4.78111e-05
0.00204902
0.00798475
9.16505e-05
0.0399433
7.95623e-10
0.243105
0.00217495
0.0140235
0.000126245
3.78834e-05
1.82932e-09
2.76421e-05
8.74153e-06
1.1061e-07
0.000885215
1.41029e-10
1.04125e-07
0.00281333
0.00203093
0.000156587
0.00165233
0.00190672
0.000533992
0.00367396
0.000651119
0.00618855
2.97818e-09
0.000153454
2.45805e-05
0.000460525
2.48766e-09
0.000347123
0.00010321
5.64006e-05
0.000526789
0.000140071
1.98404e-05
0.000211577
0.000544821
8.29626e-10
0.000143687
8.77449e-05
0.000457463
0.00456323
0.00261102
0.00134845
0.00228074
0.0487815
0.00184025
0.00272049
0.000145496
0.00284858
0.00238711
0.00258649
3.98626e-05
0.00148699
0.00420609
0.0851705
0.028083
2.25205e-05
0.0053757
0.0314516
0.000404303
0.00178455
0.000434528
4.6078e-08
0.0596315
2.72675e-06
0.0103902
0.002411
0.00183697
0.00303783
0.00218731
0.00252714
0.311222
3.76876e-05
1.3147e-05
7.77096e-09
0.000220133
0.00143127
5.61971e-10
0.00026582
0.00214677
0.0163071
0.00303079
0.00211523
1.43679e-08
1.39826e-08
0.2133
0.000123754
0.00317591
1.92324e-07
0.00325759
5.09762e-09
2.18851e-05
4.03484e-05
0.00238457
0.0699696
4.52345e-10
6.45057e-05
0.00908353
0.00256141
0.000124727
5.86267e-05
0.0330743
0.000283381
9.72348e-05
0.108346
1.40129e-09
0.00968543
2.88974e-05
0.0541305
8.67437e-06
0.0158686
0.0133343
2.19698e-09
0.00097547
0.000447902
0.00849399
3.31618e-05
0.0080731
0.00292846
4.41844e-09
2.03163e-10
6.85631e-09
0.000384938
0.000816819
0.00113293
0.069001
0.00621335
0.00220108
3.50666e-05
0.000496876
3.97571e-05
1.9457e-08
0.00542186
4.58346e-05
5.55662e-05
9.37632e-05
0.0658329
0.00178504
0.0230835
0.0654021
0.00113309
0.000163502
0.0588328
6.18652e-05
5.63137e-07
0.00237023
0.00952851
0.000365618
9.72711e-10
0.064057
0.00714313
0.00460542
1.71047e-08
1.12024e-09
3.83607e-05
2.15464e-09
1.24505e-05
0.00316581
0.000581696
0.0747772
0.00719375
5.41921e-08
0.00914319
5.58509e-05
6.88589e-09
3.85544e-05
7.03776e-08
2.48155e-08
0.00547735
0.00377757
1.17023e-05
3.84889e-09
2.18929e-09
0.00126634
0.00947438
1.02911e-05
0.0106777
0.00390249
3.88606e-05
0.0430472
1.82751e-08
2.22896e-05
0.001452
3.54866e-10
1.35536e-08
0.0018571
0.000138919
0.000384874
0.00968358
0.000357525
0.000148173
0.0682142
0.00817864
0.0135184
0.0101007
0.000173498
0.0116893
7.85603e-06
4.19762e-05
2.28833e-09
3.93356e-05
1.91003e-09
0.000283309
3.00813e-06
1.9172e-08
0.00115799
0.00689687
0.000442755
0.000768502
1.74656e-09
3.30591e-05
9.4214e-05
5.5656e-05
1.81006e-09
0.073985
5.27618e-05
0.00554042
0.000539255
0.00287836
6.41747e-05
2.03249e-07
0.0025951
0.0028778
0.00338105
6.80185e-05
0.00399452
0.00211595
2.31756e-09
0.000732636
7.57945e-05
0.00516771
5.43402e-05
0.00409647
0.000313337
0.00242568
1.782e-05
0.00417626
0.002693
0.00215911
0.00332443
0.000372053
0.00016771
8.51872e-10
1.90274e-05
9.28592e-07
0.00432386
0.000349775
7.15964e-09
0.0051826
3.36548e-05
2.69435e-09
0.00340525
0.00146812
0.00216373
0.000164998
0.00108738
0.00393201
6.6061e-07
8.10116e-06
0.000546776
1.01472e-05
0.0043406
0.00142358
0.00279307
2.20932e-05
0.2246
1.87827
2.06234e-05
5.03643e-09
0.00059481
0.00213267
0.000908203
0.00247891
4.82935e-05
0.00713793
0.00246896
0.00318041
0.00155565
0.00276844
0.000211225
9.19812e-05
0.00113801
0.000107611
0.00134472
0.000238195
2.4312e-05
0.00156784
0.109662
0.000237889
5.07851e-06
0.000607897
1.45425e-09
0.00243048
0.00382991
4.15132e-05
0.00244216
0.000120864
1.72337e-09
0.000439478
0.000176539
0.00829109
0.000798563
0.000584106
0.000113949
4.0664e-05
7.98976e-06
0.00032742
0.00202975
0.000307229
0.000816139
0.000897383
0.0198202
0.091249
0.00136162
3.3702e-05
0.00233352
0.00319781
0.0415588
3.8651e-09
2.15519e-05
0.000460614
0.00354652
0.000143938
0.00167511
0.000428463
0.0108052
0.0473156
0.000145144
0.000422688
8.02259e-05
3.53426e-07
0.0003781
0.00140687
1.56575e-05
0.00215001
0.000194966
0.000191484
0.011487
0.00439775
0.0395218
0.000806434
0.00138576
0.00211591
0.00244234
0.00024307
0.00118319
0.000650656
0.000158887
2.30944e-10
9.99461e-10
0.00660454
0.000821241
4.47913e-05
1.4977e-09
0.00642603
2.88383e-05
4.42321e-06
2.72518e-09
0.0034317
4.18257e-08
0.000505145
0.000362146
2.82332e-05
0.00198551
0.00919393
3.42986e-05
1.38743e-09
0.000646942
0.0616987
0.00323607
3.83798e-05
0.000950095
0.00145396
0.0257464
0.00884919
1.37374e-09
0.0552899
5.18719e-05
0.00257948
0.000344565
0.00942624
6.8925e-05
1.48158e-07
0.0112566
0.00449355
0.000532161
0.0030744
0.0604875
0.000584529
6.95738e-05
0.246628
0.00232635
0.00073099
0.0024049
0.00191537
0.0017732
5.22467e-06
0.0151792
1.91305e-05
0.0601082
0.00316933
0.0247523
7.09094e-10
0.000212196
0.105112
0.237049
0.000599772
6.86402e-05
0.0497786
0.000383643
0.00224496
0.00521116
0.00194307
0.00833975
0.0041188
5.96307e-05
0.000401562
0.00196268
0.0141758
0.000373921
3.50619e-10
0.00269267
2.46958e-09
0.00436035
3.83299e-05
0.000223861
0.00609818
0.00521722
1.22901
3.75605e-09
0.0245774
0.00969735
0.0210694
0.00105824
0.00472112
0.000326089
0.00097097
0.00164222
0.00140185
0.0067292
0.0111248
0.104661
0.00219028
0.00548306
0.000541698
6.88908e-09
0.000383168
0.000368669
0.000234031
1.62159e-09
0.00320264
2.15243e-06
0.0094537
0.00021415
0.000719774
0.00158241
1.70376e-07
0.00689629
3.55187e-09
0.00100438
6.10609e-05
0.00130484
0.000113574
0.0136936
0.000651796
0.00179574
0.020174
0.21014
8.06216e-05
0.00879987
0.000128867
0.000709791
0.000444759
0.000428784
0.00380054
0.000845346
0.00745554
0.000561236
0.00627701
0.00227908
2.0406e-06
0.000401153
7.36648e-05
8.32241e-05
3.34117e-05
0.000503634
0.000275016
0.000320683
7.69303e-09
5.13534e-09
1.94016e-09
0.000487248
2.09228e-09
0.00558443
0.00492907
0.00153777
0.000499712
0.00405972
1.65517e-05
2.92524e-09
0.0157831
0.000469631
0.000152956
1.30576e-09
0.0359407
0.00489486
0.000877228
8.98239e-06
2.45593e-05
0.0105851
2.63808e-07
0.00980102
0.000131715
0.000532566
0.000487337
0.000128385
3.31985e-05
2.48567e-09
0.00134218
1.49953e-09
0.00882485
8.9822e-08
0.00210087
0.00010882
7.00581e-05
0.00163717
0.00165032
0.000597724
0.00192476
5.98974e-06
0.00202694
0.000307135
1.24708e-09
0.00206033
6.3089e-05
3.30974e-05
0.00423794
3.06311e-09
0.000268563
0.00373307
0.0183124
0.000319935
0.00106078
0.00299309
9.17236e-05
0.00460002
0.000633464
0.000584038
0.00449527
0.000149159
0.000379941
0.00255446
0.00162888
8.57698e-09
0.00260718
0.000106087
1.22442e-05
0.065207
0.000412243
0.00145647
0.00262427
1.49198e-07
2.03729e-09
0.0027252
0.00403408
0.005216
0.0202188
0.0039786
6.86941e-07
0.0408047
9.51535e-05
0.00132469
0.114995
0.000230767
0.00459201
0.00450658
0.0327113
0.0583424
7.38698e-09
0.00254346
1.63387e-09
0.0246967
0.000271022
0.00034569
0.00141379
3.85931e-10
0.000761134
0.00245681
0.000577465
0.00195306
0.00678284
0.00283878
0.00316835
8.28485e-05
0.0250186
0.000728359
0.000141639
4.71064e-05
0.000825811
5.70915e-05
0.0023817
0.0010693
2.05751e-05
4.80815e-05
0.00533126
0.000294934
0.000163782
0.000106981
0.00539637
1.45864e-09
0.000141168
0.00958516
0.00357537
0.000293768
0.000414902
0.000265793
0.000127031
0.000424967
2.3908e-08
7.53087e-09
0.000429221
0.00234043
0.000466221
0.000397733
0.0141486
0.0189421
0.0177974
7.66802e-06
0.00184143
0.00292135
0.00270585
0.00483243
0.00597569
0.000401784
4.635e-05
0.00255982
4.41353e-05
0.0109932
0.0564481
0.0019765
0.000443699
7.07455e-07
0.000538422
0.000103192
0.00114473
0.00227094
0.00234099
0.000608738
6.86636e-09
0.000123109
0.00237582
0.00235464
0.00232062
0.00365572
0.0472621
0.000395618
0.00190293
0.00135656
0.0227546
5.67775e-10
0.000396699
1.41024e-05
0.00459981
0.000454269
0.00160022
0.00467474
3.42346e-05
0.00347783
0.00356376
0.00366879
0.00548404
0.00948032
0.0100911
0.00817665
0.00525309
0.00575436
1.53395e-07
0.000148796
0.000475259
0.00596873
0.0047384
0.00222639
5.24283e-10
0.00174208
0.0039283
0.000245589
0.00161898
6.36434e-05
0.0146167
0.000126996
0.0405863
0.00314988
0.739005
7.65155e-06
1.56054e-08
0.00211444
0.00317256
1.79148e-07
0.000760273
0.00399094
0.00700144
0.00430099
0.000634031
0.00684522
0.000542248
1.0485e-09
0.0197696
0.000765799
0.000927531
0.00115707
0.00267871
0.000323045
0.00112739
3.12364e-09
0.000534592
0.00822881
0.00271238
0.0922925
9.36582e-09
0.00240943
0.0821287
2.56488e-10
0.00884024
0.00277213
0.0252286
0.00130963
0.00362468
3.49239e-05
6.7891e-06
0.00132819
1.54743e-08
0.0012434
4.22877e-05
0.000118384
0.000125751
9.14916e-06
0.00171746
0.00322656
0.00969692
2.93058e-08
0.00229981
0.000513794
0.000161543
0.0360442
0.054523
0.00506828
0.000370338
0.0042784
0.457022
0.0241004
0.0263006
0.000460058
0.00044909
0.102337
0.000136937
2.28763e-07
1.4958e-06
0.0165304
0.000214387
0.00170467
0.000328933
0.00174652
2.99151e-08
0.00462583
0.00900169
0.00288531
0.000645319
0.000737281
0.000477735
2.27136e-09
0.000130973
0.00365139
2.48711e-10
0.00114469
0.000584787
0.00777934
0.000354396
0.117747
4.48286e-05
0.00118486
3.42213e-07
0.00563803
9.28646e-05
0.00109876
0.00257758
0.000380629
0.00242483
1.23899e-05
0.000137395
0.00285956
3.82952e-05
0.0187508
0.0121418
1.04516e-05
0.00150463
0.0836265
0.00296601
0.00401071
0.000114224
1.82702e-05
0.00372235
0.0362017
0.00874595
0.0026432
0.000182192
0.00193414
0.0033647
0.00300771
0.00371601
0.00537754
7.54859e-09
0.116327
0.0513057
0.000493342
1.0425e-06
3.04257e-05
0.00313086
0.00244977
0.0262485
0.00113274
7.302e-07
0.00229898
0.000371735
2.89847e-09
0.00355405
4.22278e-09
0.00268701
2.66627e-05
0.00147856
0.00375809
9.25469e-05
0.0197112
0.000151117
0.000434431
0.00364113
0.00413422
0.0020456
0.00210406
0.0119349
0.000579702
0.000345167
0.000375049
0.000265451
9.31374e-06
2.32928e-09
0.000190394
7.30405e-05
9.73798e-05
0.000781453
0.000646978
0.00085442
5.19343e-06
1.83918e-05
1.86094e-05
0.000314471
0.00267074
0.00049641
4.37098e-05
0.000238787
2.93238e-05
0.000315433
0.000232129
0.000223584
0.00391834
0.103593
5.28741e-05
0.0047733
0.00166274
0.00413025
4.89742e-09
3.55173e-06
4.39878e-05
0.0084546
0.0195482
0.00480048
0.00232805
2.22785e-08
8.48402e-05
0.000377621
0.00475218
0.00958011
1.04751e-08
0.00516601
0.00282428
0.00107571
0.00350102
0.00263949
0.0145422
0.00186648
0.00383658
9.48415e-05
4.65561e-10
1.39693e-09
5.28969e-05
0.00560949
8.33698e-06
6.37318e-10
3.50096e-05
0.00502396
0.000210852
0.00100861
0.00101758
6.00358e-05
0.00191189
4.81747e-05
0.00388562
9.7334e-05
0.00208504
0.0284249
0.00209883
0.00121824
6.10056e-05
2.25163e-07
0.00101727
0.000983774
0.0145734
3.19052e-10
1.22059e-07
0.00126579
1.22675e-07
0.000861909
0.000217075
1.47399e-07
6.88512e-09
0.000215127
0.00028345
0.000584267
0.002196
0.00208094
0.000277269
0.000575507
2.50204e-05
1.07391e-08
0.00566826
0.000205216
6.71434e-10
0.047233
6.56073e-05
3.26783e-05
0.000284532
6.10863e-08
1.63283e-05
0.000547251
8.78524e-05
0.0005637
9.60858e-06
0.000948633
0.000342372
0.00275915
0.00429208
0.00129669
1.5544e-05
0.0632397
0.00238288
2.18325e-07
0.00606853
0.00289075
0.00668553
1.19915e-05
2.20985e-07
0.351299
1.68429e-06
2.47232e-08
3.483e-05
0.0255603
0.00304222
0.000635585
0.000492188
2.07144e-05
0.00322132
0.0360391
0.00482335
0.00871259
0.0142353
5.59596e-08
0.000340344
1.61662e-09
3.62264e-05
0.0083035
0.000746786
0.0747165
4.16523e-10
0.000482743
6.34484e-10
0.000532958
0.000313616
0.000377107
0.0104974
0.0181337
0.000544621
0.00183544
0.00450161
6.02325e-09
0.000237461
0.000991333
0.00203862
0.00039972
0.000803663
0.00750445
0.0107082
0.000592668
0.00171357
0.00267172
3.71094e-05
6.41276e-09
0.000432449
0.0138001
0.0115892
0.00504149
0.047417
0.00272243
0.000171777
0.00523568
0.0001848
0.00068158
0.00106718
0.0222925
0.000286802
0.0204101
0.0114919
0.0344243
1.82264e-09
0.101977
0.0087622
0.00174519
0.00463848
0.0643193
0.000399624
0.00282115
0.00239126
0.00228823
0.00804562
0.00112597
3.1431e-05
1.80976e-06
0.00203053
0.0249079
0.296323
0.000156623
0.00907072
0.000292249
0.00125503
0.000444879
0.189333
0.000619012
0.286734
0.781773
0.000103964
2.2432e-09
7.60583e-06
0.00136163
0.0106308
0.00566352
0.0101934
0.0636335
0.0341342
0.00183756
0.0016386
0.0104634
0.0113646
1.21689e-08
0.000531163
0.000427673
0.000358422
0.00041848
0.000637652
0.138605
0.000273168
0.00289634
0.000398956
0.00307657
0.00201992
0.00221777
4.52934e-10
0.479201
0.0314792
0.184294
0.147991
0.00216347
2.01601e-09
0.00649096
0.00125263
2.84064e-05
0.000761567
0.0853506
8.91332e-10
0.00178729
6.98694e-05
0.000207822
0.0166414
4.76035e-05
0.00854179
5.34264e-05
6.48577e-05
0.00164973
0.000613053
0.00113528
0.0129643
2.93757e-05
0.00244501
0.00138417
0.017984
4.8432e-09
0.0005028
0.00149893
0.015222
0.00164894
0.000166023
0.00226564
0.0313243
0.000500611
0.000196315
3.08681e-05
0.00148122
0.00177412
0.00304331
1.44888e-08
2.91349e-05
2.45961e-05
0.000298095
0.00380687
0.00135492
8.21116e-08
0.00269247
8.70837e-10
0.0107395
0.00108923
0.000804587
0.00191589
0.00173842
0.00953633
0.000579445
0.0137509
0.000304951
0.000423322
1.1713e-09
0.00037871
0.000405407
0.000581333
0.00196205
5.04574e-07
0.00163279
0.00947104
0.00173979
0.000460526
0.0188645
0.00225152
0.0013083
0.0145399
0.00748555
0.0122677
0.0131151
0.00623891
1.64006e-07
0.323619
0.0623244
0.000812025
0.000573425
0.0148087
0.000912169
0.0242375
0.000103226
0.000403298
0.0142933
5.67021e-06
0.00677888
0.000614692
0.000131992
0.00756651
1.66497e-05
0.0312639
0.356678
0.00114406
0.0575435
8.36963e-10
0.000256111
0.0043516
1.6877e-06
0.103785
0.00244213
0.00170286
0.000479688
2.47429e-09
0.00340963
0.00279629
5.127e-10
0.000489096
0.0262881
0.000618778
5.7416e-05
0.0618199
5.12138e-07
0.00273042
7.81881e-11
0.000345783
0.00240167
0.000153103
1.18844e-09
0.00218521
1.11133e-08
0.00251018
0.000524296
1.87499e-09
7.87674e-08
0.00438719
0.0020998
0.00279646
5.46569e-10
0.00221547
0.000627919
0.00279774
5.07661e-05
0.0317023
4.59015e-08
5.6928e-05
2.7466e-09
0.00165094
0.0372033
5.03788e-09
2.80264e-07
0.000274719
0.00254573
0.000453087
0.00196746
0.296459
2.56625e-09
0.000232082
0.00232242
9.10676e-10
3.76737e-09
3.97739e-08
0.000176233
0.000502526
0.000848319
0.000529727
0.000105765
0.000197351
5.85569e-11
0.0114236
0.000221122
0.000394062
0.00148032
0.00394836
0.00385849
0.0445663
2.93146e-10
0.000172285
0.000122824
8.5213e-05
0.000107175
0.00277778
0.000620088
0.000514076
0.000120217
0.000348243
0.00038168
1.11816e-05
4.26982e-08
8.37717e-05
0.0226168
1.88797e-08
0.00850721
0.000123574
0.0155133
0.00113899
0.000118433
4.68875e-05
0.00433623
2.80545e-05
0.00409557
0.0192809
0.00222068
6.12717e-05
2.55355e-05
0.000149743
0.000861458
0.000348681
0.00386241
0.0163938
7.16815e-05
0.0103917
4.65862e-06
0.878821
0.442252
0.000109303
0.0415425
9.76243e-05
0.000391486
0.00939006
1.03767e-05
0.603052
0.0441438
0.00754782
0.000622572
0.0283228
0.393647
0.00291641
0.0250478
0.00436912
0.00223313
0.125691
0.0439043
0.000577405
0.000947914
0.0260355
0.0486916
0.00413651
0.000308962
0.0324315
0.000205852
0.0141218
1.10669e-08
1.11579e-05
0.00661643
0.00021396
0.00421577
0.00392701
0.000125214
0.000129812
0.000295576
1.08571e-09
0.00782706
0.00605895
2.83047e-09
0.000442372
0.00170979
0.00222388
0.0040638
0.000384347
0.0115775
0.0631197
4.57614e-07
0.0333204
0.000140241
0.00431341
0.000144048
0.00223681
0.0303684
0.00413132
0.000222569
0.0270881
0.00030586
7.62206e-05
0.000365917
0.000259122
0.000626655
0.00757925
0.025819
0.0147275
0.00735859
0.00548419
0.00105549
0.000132982
8.06313e-05
0.000136491
0.00413614
2.81608e-06
0.00482107
3.51992e-07
3.58623e-06
0.00159374
0.00144804
0.00175698
5.68522e-05
0.0103094
0.0018736
2.21538e-06
0.0033849
0.000276074
0.00180008
0.00045932
0.00679288
0.00231248
0.0050664
0.000438854
0.0063434
0.00229012
4.34816e-05
0.00238888
0.00312707
0.00180941
0.00153616
4.37926e-09
4.71484e-05
8.89691e-05
0.0346728
0.0017965
0.0070314
0.00184046
0.000176746
0.00334354
0.00839494
0.00228091
0.00250694
0.00362252
1.23867e-06
0.00165491
0.00189501
0.000365549
4.20611e-05
0.00300298
0.00262033
0.00798294
0.0288631
0.00167177
8.11829e-05
0.00301181
0.000329299
0.00425411
7.6092e-05
0.00615543
0.000350675
0.00278352
2.8512e-05
0.000733109
0.000929075
0.00721452
6.17177e-05
0.0198879
0.00617065
0.000237989
0.00139094
0.00159113
0.000252445
2.91241e-05
0.00248374
0.0219019
3.36847e-06
0.0378074
0.00208457
7.27672e-08
0.000109185
0.00188556
1.01705e-05
0.000872655
0.013816
0.0230486
0.00208758
0.0117571
0.00155159
7.64215e-05
0.00439111
0.0145586
0.000447299
0.00157785
2.48426e-05
0.0828668
0.0419608
0.000104498
0.00240768
0.00149692
7.80022e-06
0.000113667
0.0337627
0.00857443
0.0158538
3.87367e-05
0.00100491
2.8612e-05
0.0192867
2.49615e-09
0.00338354
2.54263e-05
0.00104959
0.0201855
7.43098e-05
0.000399074
0.00433189
0.00147502
0.00257612
0.00155539
0.0234451
0.000228242
0.00201343
0.0199982
2.05752e-05
0.000410058
0.000430781
0.000364986
0.00236939
0.0134274
0.000465817
2.30267e-08
5.23624e-05
0.0014113
1.4588e-06
5.67568e-06
2.09457e-05
2.65679e-09
2.64285e-05
3.71055e-05
0.0116967
0.00500258
0.000370476
0.00046043
0.000294935
0.0623757
3.80157e-05
5.07009e-09
0.0180732
0.00279932
0.00186037
0.00331699
0.00051827
1.49307e-07
0.018436
0.00216791
0.0229446
0.000773155
0.0495776
0.0142074
0.00012561
0.0256878
0.00326281
0.0896022
0.00748431
5.63911e-09
3.55933e-05
0.256313
0.00671733
0.000999412
0.00309674
0.000161214
0.0033304
0.0308711
0.0108518
0.00291447
0.144134
0.00634996
1.35932e-09
0.0177812
0.0639357
0.03469
0.00132757
0.00256384
0.000211309
0.0028288
0.000670153
0.0189448
0.0197355
0.000894215
0.0521809
0.0229685
0.000626164
0.0025389
0.0136678
0.00324279
0.00069691
0.0503059
0.00261355
0.000111873
0.0108335
0.0108255
0.0218238
0.00258701
0.000270684
0.00281166
0.0163002
0.000358107
9.3967e-05
0.173162
0.00335893
0.00122592
0.00160129
4.64465e-05
0.00435801
2.65811e-09
0.0186191
0.00253518
0.014087
3.2841e-05
0.00552015
1.1249e-08
0.0164549
0.000301448
0.000118457
0.00868161
0.00244252
0.00667189
0.00771764
0.00207108
0.0158397
0.000134277
0.0156328
0.00664662
0.00924081
0.0563907
0.00557617
0.0291324
0.0345084
0.0170129
0.00114068
0.00453174
0.00265316
0.000984028
0.000917173
0.00397716
0.00222407
0.000643504
8.96761e-06
3.31273e-05
0.00237296
0.00133897
0.00127944
0.0536397
0.00325167
0.00269894
0.000110396
2.36769e-05
0.000451918
8.85055e-06
0.00258448
0.0298366
0.0025411
0.00192735
5.24033e-05
0.017051
0.00255111
3.28745e-05
1.90671e-06
0.000216913
0.0347246
0.00675918
0.000514831
0.00230385
0.00447497
0.000219803
8.83214e-05
0.00488254
0.000429647
1.55027e-05
8.47656e-05
2.55951e-05
0.0018729
0.0022164
0.00104379
0.00860618
0.10271
0.000241905
1.81643e-05
0.00356707
0.000327811
0.0111044
0.00241
5.34963e-05
5.16196e-05
0.00319979
4.84533e-05
0.0101121
0.0726854
0.0453584
0.000172816
0.000524866
8.91004e-06
0.0001152
0.00263459
0.00392706
0.000450979
0.00273123
0.0142561
0.00194672
0.000277318
0.00231014
0.000436943
0.0298125
9.23462e-07
3.70093e-08
0.0109977
0.00234371
0.000565685
0.00461113
0.000612533
0.000106157
0.00051283
0.0024779
0.0227129
4.00594e-05
0.00011436
0.000300579
0.00702416
7.85356e-05
0.000697259
0.000108738
0.00128671
0.00965198
3.65309e-05
0.0285806
1.02997e-09
5.10398e-05
0.00236715
7.51872e-05
0.0003387
0.00345523
0.00119292
0.0023717
9.32681e-06
0.00180845
3.64653e-05
7.58677e-05
0.00226719
0.00331886
0.00329103
0.30026
0.00173062
0.000952809
0.00223774
0.00295726
0.000283714
0.000245777
0.0037186
0.00215463
0.00309145
7.06974e-05
0.000904467
0.0139818
0.00279223
0.111953
0.000863478
0.0101742
0.010276
0.0124194
0.00126084
3.17922e-05
8.01728e-05
9.50246e-05
0.00010139
5.06282e-09
0.000257465
0.0116409
3.2699e-11
3.35763e-09
0.00376299
2.30695e-05
3.23287e-05
0.0149159
0.00192445
0.00290923
0.00190826
0.00227798
5.0788e-05
0.00159299
4.24617e-05
0.0242016
0.0133848
0.0101709
0.00191632
0.000139816
0.00158615
0.000292748
5.84233e-06
4.18251e-05
1.41458e-07
0.00168949
0.0110566
0.00692668
0.00145649
0.00179173
0.00219808
0.00232365
0.00176678
0.000342156
0.00411838
8.4083e-06
4.07287e-05
7.59726e-09
5.03389e-05
0.00276536
6.72395e-05
0.000334427
0.00227758
5.32574e-05
9.99874e-05
7.131e-06
3.15501e-06
0.0533367
0.000490451
0.000678316
3.63228e-05
0.00284224
0.00221154
0.00185484
0.0034375
3.84889e-05
7.52679e-07
0.00105424
2.76895e-05
0.01947
0.00321294
0.0241683
0.00158778
0.0511643
0.000104942
0.00110643
0.000236435
4.18319e-08
0.00373464
7.57949e-05
0.00133678
0.000103426
0.00221759
0.0193344
0.00166129
0.00232836
0.00876129
0.0023936
0.0108567
0.00359544
0.00163521
0.000933365
0.00504684
0.0296532
0.000303238
5.06871e-10
0.0633629
0.0089091
0.00652847
4.25232e-05
0.0653246
0.0019344
0.0151715
3.23115e-05
0.0172126
0.00325424
0.00136153
0.00237173
0.00235333
5.49732e-06
0.0403855
0.0144967
0.0145815
0.00303728
0.0023207
0.00159481
0.00321599
0.000935814
0.000103813
0.00160694
0.00303407
3.75642e-07
0.00013092
0.00169066
0.0363027
0.00307992
0.000347115
9.53617e-08
0.000406823
0.00169304
0.000456406
0.00151559
0.000732908
1.4434e-06
0.0140831
0.000252025
0.000667976
0.00206032
0.00125408
0.00013211
7.5064e-05
0.000176125
0.00205074
0.0028449
1.35238e-05
0.000108579
0.000672783
0.000103035
1.32254e-06
0.0167082
0.000217357
0.0032825
0.0015299
0.00150442
0.00211268
0.00695527
0.00426626
0.000594344
0.00398126
7.16195e-05
0.00228167
0.00433662
9.47777e-06
0.00749311
0.000392166
0.00296584
0.00186938
0.100119
5.45112e-05
0.00019355
0.000518246
3.77681e-05
0.00137824
0.00287014
0.000199562
1.63106e-05
0.00137484
0.00538703
0.000582583
0.0028717
1.10517e-06
0.000464064
0.0095138
0.00241581
0.000140845
0.00214478
2.48097e-05
0.00419864
0.00338194
2.16711e-05
0.000292263
0.00352901
0.000101454
8.51878e-07
0.000344637
0.000199223
0.120258
7.13021e-06
0.000564715
0.00323538
0.00010558
0.0117901
8.43713e-06
0.00274206
0.000120913
7.96712e-05
0.000525658
1.84432e-05
0.000206237
0.00295145
3.86675e-06
0.000108797
0.000122701
0.0184936
0.000601917
0.000357388
0.00035583
0.00217766
4.47542e-05
0.00311699
0.00455898
3.06579e-05
0.000360672
2.99449e-06
0.00116754
1.47652e-05
0.0124839
0.000291122
0.00152612
0.00218904
0.000127097
0.0847289
0.000380912
0.00306169
0.00110992
4.80816e-08
0.00236961
0.00498841
0.0267364
0.0111857
0.000410461
3.08299e-05
0.0380247
0.0398632
0.000563893
0.0179828
0.00843552
0.000393406
0.000130046
0.000636457
0.000341714
0.000317557
0.000460439
0.0043093
1.51432e-05
0.000162477
2.68586e-05
5.75722e-05
0.0060274
7.75023e-05
0.00247003
3.91489e-05
1.38572e-08
0.000194493
1.22014e-07
1.65802e-09
1.00188
0.00018412
0.0194075
0.00306049
1.10612e-05
0.00029709
0.0176981
0.00188632
1.9922e-05
0.00238246
0.00565767
3.70151e-08
5.41098e-06
0.000396623
1.69753e-05
0.00222735
0.000555795
0.00247246
0.004869
5.97392e-06
6.99561e-05
0.0196397
0.00283322
0.00306125
0.000394486
0.00355563
9.62188e-05
9.35364e-05
0.00237092
0.00934434
0.0126772
0.00604014
0.000757237
0.000178844
0.00253211
0.00190594
0.0020213
0.00266591
0.000229007
0.000310665
0.00366543
0.00169159
0.00332969
0.00270862
0.000751745
0.00464438
1.08094e-09
1.47359e-09
0.0226927
1.11016e-05
0.000908655
0.00209592
0.00330076
0.00985547
0.00385191
8.85896e-05
0.00714259
0.00316018
0.00012521
0.00326528
4.37991e-06
1.27051e-05
1.75327e-05
0.00360918
0.012991
4.63599e-08
0.00603973
0.00158891
0.151189
0.000167826
0.00373086
3.06383e-05
0.0121043
1.14513e-05
8.49543e-05
2.58393e-05
0.0221115
1.20442e-05
0.00274975
0.00260707
0.00311653
0.00675139
0.00215802
0.00220616
0.0168456
0.00688327
5.47452e-05
3.78503e-05
0.0123024
0.000136069
4.45288e-05
0.00189984
0.00359494
0.00188921
2.10225e-05
0.000111457
0.00467501
0.00326931
0.00206857
2.78363e-05
0.00319992
0.00188978
0.000624961
7.57408e-05
2.53854e-06
0.00269719
0.0186267
0.00284675
0.00155985
0.00706493
0.000491608
0.0314053
0.00132116
0.00745808
0.00025297
1.0419e-05
0.000235717
2.74736e-05
0.000447834
5.94787e-06
2.70128e-08
0.00365535
0.000153687
0.037432
0.000767245
0.00783285
0.00214045
0.00745079
0.0033168
0.0149183
0.0174357
0.00140605
0.00972336
1.05838e-05
0.000373907
0.00130013
0.00182105
0.000217953
0.00404256
6.17736e-05
0.00307667
0.000101099
0.00264064
2.11139e-05
0.00265521
0.00133718
0.000427448
0.0266216
0.000161423
0.00130575
3.39521e-05
3.11144e-05
0.000138407
0.00542332
0.00245776
0.00202134
3.44426e-05
0.00159835
0.00312853
0.000252635
0.015668
0.0132136
6.17407e-09
0.000209341
0.00174157
0.000100325
0.000287998
0.000472205
0.000452136
2.38673e-05
0.00320117
0.000451501
0.0052984
0.000526643
0.00115864
0.000542061
0.00838594
0.00526977
0.00877663
2.0663e-05
0.053912
0.0219857
0.0971158
0.00186413
0.000146179
3.70456e-05
0.000298394
0.00673941
0.0100402
0.0301262
0.0246858
9.17929e-06
1.57931e-05
0.00774683
0.000400122
0.0174096
0.301699
0.0175474
0.000345081
0.000448415
0.0159505
0.0016037
0.000242994
0.000725302
0.162736
1.36886
6.94595e-05
1.06855e-06
6.39418e-05
0.00483047
0.00104796
0.00185374
0.00269095
0.00196958
0.00439128
0.00088308
0.00222072
3.11513e-05
0.00255971
0.00263984
0.0025626
0.000444513
2.80191e-05
9.0891e-07
0.00469059
0.0145705
0.00403053
0.0024935
1.09124e-05
0.00159791
0.00132265
6.60428e-05
3.00563e-05
0.00867851
5.21612e-09
0.0312007
0.000107861
0.0485261
0.014973
0.00024964
0.00496072
1.01181e-05
0.00238816
0.000137231
0.000871369
0.0835379
1.12535e-05
3.11001e-08
8.25407e-06
0.00388094
0.00342534
0.00150835
0.00100727
0.00097774
0.00126255
0.00104021
0.00182035
6.39069e-05
0.0681305
0.0265364
0.00285025
0.00150476
0.00287989
0.0668733
0.0119847
0.00411421
0.000287398
0.0072482
0.00268405
8.18345e-05
5.18498e-05
0.00481791
0.00681483
0.0172743
0.00523409
5.87158e-05
0.00455789
0.0374741
0.0242494
0.00323962
7.66558e-05
2.89728e-05
0.0397653