/*--------------------------------*- C++ -*----------------------------------*\
  =========                 |
  \\      /  F ield         | OpenFOAM: The Open Source CFD Toolbox
   \\    /   O peration     | Website:  https://openfoam.org
    \\  /    A nd           | Version:  10
     \\/     M anipulation  |
\*---------------------------------------------------------------------------*/
FoamFile
{
    format      ascii;
    class       volScalarField;
    location    "50";
    object      SgT;
}
// * * * * * * * * * * * * * * * * * * * * * * * * * * * * * * * * * * * * * //

dimensions      [1 -1 -3 -1 0 0 0];

internalField   nonuniform List<scalar> 
111485
(
3.41776e-17
0.00902274
0.0210425
1.62907e-18
0.0449874
1.97106e-16
0.0416418
0.00587543
0.0184104
0.00112745
0.0418338
0.00915375
0.00424381
0.00083583
0.00593138
0.0316623
0.0012934
1.99783
0.0100356
1.50288e-16
1.46421e-16
7.40761e-18
0.023404
0.0355352
0.00847804
3.12383e-17
0.0401044
0.00173884
0.0159384
1.20511e-17
0.0435693
0.0173581
9.50986e-17
2.38393e-17
0.00966881
4.93148e-18
0.0105174
0.00388732
6.46695e-08
0.0215896
3.1793e-18
0.0720022
0.0144288
0.000997293
3.67224e-05
8.65332e-19
0.0328228
0.000721176
0.0475605
1.89492e-16
2.24992e-16
1.93444e-16
1.23305e-16
0.0444776
6.65834e-16
0.0430302
0.00355214
4.66746e-19
2.70494e-05
0.00449169
0.0149329
3.85126e-17
0.00401752
0.0884062
2.12448e-16
0.00359218
0.301052
0.0972055
0.000922257
0.00512658
6.5927e-06
0.00547934
8.7897e-16
0.00244578
5.36828e-17
0.00063817
4.33986e-17
0.0425197
6.46547e-17
3.84344e-15
5.16996e-05
0.0316045
1.58436e-16
1.1221e-17
0.00812016
0.00442531
5.78906e-10
0.0225444
4.64314e-05
0.00678516
0.000866034
0.0410893
0.0103336
6.14321e-05
0.0559796
6.80529e-17
5.38539e-17
0.00145297
8.55616e-09
0.00147971
1.13446e-15
0.0195162
6.86557e-18
0.0214698
0.00482986
2.67839e-15
3.22873e-18
0.0074788
0.00318749
1.5e-07
0.00563149
0.00507115
0.00313641
0.00264264
1.72711e-16
3.04925e-05
4.81861e-17
2.73931e-18
0.0113611
6.2813e-18
9.06327e-17
2.89273e-15
3.75016e-17
1.58852e-18
0.00233648
2.33268e-06
3.57992e-16
0.00149791
4.50521e-18
0.000173309
0.000989313
0.0280731
6.73928e-18
3.96126e-15
1.41208e-15
0.049163
2.60307e-17
0.0409773
0.0225388
0.00255412
0.000172004
0.00186954
0.0204555
0.00310484
0.00379946
0.0122024
2.69681e-17
1.57148e-17
1.11841e-18
0.0262431
0.00183007
5.00706e-17
1.33262e-07
0.00502816
4.80662e-07
0.0106177
0.0154871
0.00942733
1.68807e-07
1.18061e-18
1.42153e-17
0.0526765
0.0252278
5.15116e-06
2.31686e-07
0.00518687
0.00369019
2.66072e-18
9.95378e-06
6.58952e-05
2.20606e-18
8.34981e-18
0.000148385
6.34583e-18
0.00613833
0.00226944
3.08641e-17
6.39308e-16
6.74287e-16
3.74958e-16
3.73586e-16
5.07602e-17
0.00134094
0.00671535
0.0277186
0.00415874
0.00641957
0.00356521
9.48995e-05
4.55228e-17
0.0042518
2.32791e-16
1.49361e-17
0.00582045
0.0110693
0.0228074
0.0103116
0.00463019
4.66487e-17
0.00604537
0.000572886
4.51879e-05
0.0111814
0.0023047
1.46161e-17
0.0032564
0.0275352
2.97926e-16
0.000230303
0.00653199
0.00227963
0.000309207
5.0187e-15
2.55103e-17
0.00728179
7.69608e-12
0.123854
1.10147e-17
0.00601175
0.0190263
0.121838
6.46717e-19
0.0026688
0.0120008
1.24074e-13
1.25756e-18
1.548e-18
0.166704
4.18937e-07
2.88776e-16
1.18924e-15
0.00914401
0.00847225
0.0160037
1.17363e-15
1.28336e-15
9.37891e-06
2.34175e-17
0.00272584
0.0083296
0.0149868
0.0107747
0.00917427
2.81649e-18
3.22554e-07
0.000565373
3.06393e-18
8.85784e-17
0.0307228
0.0214617
1.95539e-15
0.00559392
0.00978738
1.26591e-18
3.09654e-15
0.000153199
5.88572e-16
5.84414e-15
3.92123e-05
1.10163e-16
0.0156188
0.0117262
0.00335912
1.4723e-18
0.0109617
1.18222e-17
1.51905e-18
3.25736e-18
3.7193e-08
0.0225633
0.00552755
0.00466335
0.0369707
0.0109633
0.00149755
0.00059094
0.0340451
0.00941632
2.92234e-17
3.53018e-17
3.37164e-07
0.0220522
0.0215167
0.0128283
2.79829e-17
0.0063296
0.00194911
0.00276184
6.24483e-06
4.40319e-06
0.0122124
0.00211459
0.00186442
1.14903e-18
0.000778724
4.90672e-17
5.27057e-07
2.11815e-13
0.266755
0.0682796
0.0138384
3.81282e-16
1.43431e-18
0.00831086
0.0019018
2.79566e-16
4.21819e-18
7.34232e-17
0.000416395
0.062261
0.00334074
0.0154445
0.0182879
2.18031e-15
1.20058e-17
2.84029e-17
0.00351261
9.07654e-13
0.00132682
0.187089
5.82399e-07
4.85148e-17
5.19109e-17
5.60419e-18
7.07412e-16
0.0574267
0.0123241
8.90244e-19
0.0048627
6.31778e-16
2.94278e-16
0.0671572
0.0053844
0.0107259
0.00854868
6.19936e-15
1.02003e-15
1.15394e-18
0.00872423
0.0189486
0.00469298
3.25239e-16
1.917e-10
0.000225207
0.00177348
0.00734429
6.34515e-05
0.0284765
4.97713e-17
0.0370433
0.00316027
0.00786656
0.0230653
0.0147267
8.20167e-18
1.81156e-16
3.00662e-18
3.93217e-18
0.0321087
0.00856781
0.0370868
0.0669854
1.10137e-16
0.0201578
5.62435e-18
8.18414e-18
0.0161362
5.88615e-16
0.0399198
2.21059e-18
4.3126e-19
0.0237385
1.81811e-19
0.0141028
0.000335151
3.95338e-17
0.00112379
0.0150677
6.79794e-16
0.00798183
0.0106744
0.00739089
0.000434237
0.00291972
0.00613937
2.83459e-15
6.364e-18
0.0013645
1.13105e-18
0.0050064
0.112035
1.56646e-16
6.5361e-19
0.0256055
0.000127811
0.00759156
0.0224653
5.71737e-17
0.0389929
0.0197498
1.25637e-17
0.000696006
0.00281896
5.5863e-18
2.2288e-16
0.0118089
0.00487468
2.10805e-19
2.58727e-16
1.07362e-08
3.01379e-17
0.0105663
1.5518e-16
3.80244e-18
0.0177306
2.47615e-06
0.0146324
0.0266788
7.84312e-17
1.4564e-15
0.00108298
5.05626e-16
0.000107747
0.010818
0.121681
0.905591
4.22542e-16
0.00260235
0.000234712
5.43404e-18
0.0350468
0.0331134
3.14145e-19
1.13717e-08
0.000108574
1.29285e-15
0.0257002
0.0268942
0.0127458
7.2633e-17
0.000590121
0.0206322
0.0212188
6.06904e-07
1.91955e-15
9.43614e-11
1.44969e-18
2.07591e-05
0.0318496
2.32516e-18
0.00957803
6.80465e-05
1.2537e-14
5.51316e-20
6.6051e-15
1.43211e-16
0.00428829
0.00951337
0.00711299
0.00244129
0.00339019
1.82612e-17
0.00228361
5.19185e-17
0.0356489
3.65761e-17
5.5932e-18
2.36601e-18
0.0317869
7.09479e-18
4.88037e-17
3.37028e-07
5.6849e-18
7.26623e-19
0.000875648
2.23743e-20
2.65573e-15
3.32164e-18
3.11676e-18
3.00869e-16
1.09664e-17
1.89789e-16
0.00815676
5.0822e-18
0.00039287
0.00166197
0.00267262
1.24296e-16
0.000624785
1.17136e-17
5.32743e-18
0.00310756
0.00204925
0.0293977
0.0222592
1.16142e-15
0.00186976
0.0726811
0.00843224
0.00110941
0.00365855
2.36838e-17
0.0223915
2.18016e-15
0.00428115
3.86313e-17
0.0691369
1.01862e-16
0.0210658
0.000323015
7.80999e-08
1.21698e-17
0.0023331
1.63827e-17
0.0759256
0.044328
1.04124e-18
1.15955e-17
5.45012e-16
3.68137e-19
1.93532e-10
0.0545937
2.16966e-16
1.307e-19
0.00287989
2.26969e-17
0.0304272
1.76164e-16
0.000350964
1.97291e-16
0.000586094
7.50173e-07
0.00112122
0.0124569
2.65587e-16
0.000366181
1.0088e-15
3.68324e-18
0.0162851
1.11321e-16
3.57112e-05
2.30189e-15
0.00147683
2.2595e-16
0.0661513
1.07291e-16
7.80802e-16
0.0121491
0.00387918
0.00150494
0.0043081
0.00590937
0.0208801
6.75704e-18
0.0207462
0.00708453
4.05993e-18
5.69762e-08
0.0314722
0.0125534
4.19476e-16
0.0055008
0.00543902
0.00127824
0.00139199
1.47719e-10
0.0137909
0.000982397
0.00016673
0.0267709
0.014179
0.00109232
5.7983e-16
2.93814e-09
0.619507
2.81513e-17
0.000417932
5.74981e-19
2.31954e-15
0.00729815
0.00363716
1.24492e-07
8.39946e-06
2.00271e-15
0.0185031
0.00994194
1.7104e-16
1.0462e-11
0.00204092
2.63787e-16
9.33045e-17
3.45181e-17
8.8191e-16
0.0152484
1.2616e-17
6.28292e-18
0.00987366
0.00233861
4.87713e-14
0.00937487
2.69565e-15
0.00860121
9.77736e-16
5.67354e-18
0.0571384
2.67083e-17
1.74466e-16
2.21722e-15
0.00490328
2.7476e-14
0.0328212
0.0063874
5.08457e-17
0.0726742
0.00283081
0.0261314
0.0235813
0.000929399
9.17345e-05
1.49104e-18
0.0569088
0.0415978
3.6017e-18
0.000308515
0.0361846
0.00708256
0.00155641
0.0244367
0.023772
2.91357e-17
0.0104613
3.68265e-06
2.28286e-15
0.0319994
0.000299218
4.54239e-14
0.0109178
0.0388151
0.00158787
0.0185304
0.0168423
0.00706208
1.77917e-15
0.00915611
0.000400209
8.1142e-12
0.0144616
0.0148984
0.0347877
2.72666e-17
0.00211319
4.75282e-19
1.53193e-17
8.54294e-18
4.98118e-16
1.68483e-05
5.13808e-16
1.42778e-10
6.9394e-17
2.78467e-16
5.14523e-05
0.0396362
1.0223e-16
0.0366064
4.35163e-17
6.49507e-17
9.87306e-16
0.0396579
0.000496125
9.02179e-15
2.45303e-18
2.6521e-17
2.62461e-18
0.238437
0.0684297
2.12415e-15
0.00176923
4.67178e-06
1.69884e-18
0.0348961
0.00649455
0.0129301
2.67409e-17
6.23626e-17
0.000393054
0.00106916
6.41365e-15
6.21962e-18
5.0071e-16
0.00706347
5.91951e-18
1.95308e-16
1.69945e-17
0.0384963
0.00161293
1.23557e-17
4.12142
0.142682
0.0108992
3.90239e-19
7.32945e-16
0.0567962
0.000304803
7.29308e-16
7.58647e-06
0.170002
0.00291215
0.0119164
1.23864e-15
0.0577983
0.0015209
1.79306e-19
2.55483e-16
2.3969e-17
5.98796e-17
6.72487e-18
8.00657e-17
0.0193317
6.41909e-17
9.60976e-17
1.52793e-15
0.0119167
0.0234253
5.69671e-16
4.09977e-16
0.105653
0.0133281
0.00877565
4.44248e-16
2.7309e-17
0.0345889
1.38646e-18
0.0022755
0.00240238
0.00353548
4.75474e-16
1.48151e-17
1.89115e-17
1.13877e-18
0.0158534
8.25631e-17
2.08365e-16
0.00081644
5.32986e-17
0.0211474
0.00140596
7.3756e-16
0.035822
0.601548
0.00232124
0.0294381
0.000200036
0.048011
2.32558e-10
7.94093e-15
0.0218667
0.0766327
0.00620394
1.86796e-17
1.32289e-09
0.51781
0.0098899
4.30425e-18
0.00291487
0.00313543
0.00143423
1.06352e-15
2.20427e-17
1.44656e-18
0.0126383
4.83384e-16
0.00232734
2.65567e-16
0.00145559
0.00127693
0.0343208
0.000535351
2.44227e-18
2.2131e-16
1.02552e-15
0.0197174
2.32545e-17
1.61832e-16
4.30498e-05
6.0713e-19
3.2863e-19
3.06648e-17
1.49892e-18
0.00896836
3.03655e-15
3.44468e-18
7.48097e-10
1.1991e-15
9.56117e-19
1.13731e-14
1.93221e-17
3.26459e-06
0.00151611
4.2312e-16
0.00333646
1.22965e-05
2.77827e-07
8.53164e-05
0.00439133
5.46683e-18
1.00486e-05
0.00928112
0.000371956
2.10152e-18
1.10671e-08
0.000752035
1.7194e-15
0.00888074
0.000299757
2.01323e-06
0.0253072
0.00867006
0.00215783
0.00553786
0.00197606
1.81299e-17
3.2733e-16
0.0301196
0.0243869
2.53328e-19
0.00775461
0.0536559
0.0277347
1.41626e-15
0.00166146
6.22923e-18
0.0102765
0.013481
1.50078e-15
0.00144081
0.00047559
1.50115e-06
0.00451095
4.70582e-16
0.0471602
1.93654e-05
0.00186042
4.0192e-05
1.37686e-05
5.06961e-17
6.27782e-18
0.0083319
1.76579e-17
8.948e-05
0.000328508
1.06686e-05
6.46448e-08
6.15859e-08
1.23208e-06
1.39677e-18
4.97935e-15
0.0216294
1.57781e-17
0.00115824
0.00235067
7.1272e-17
2.5576e-16
6.40541e-07
1.45168e-10
1.44248e-17
3.34032e-06
8.51719e-17
1.09485e-17
7.84516e-19
2.05166e-17
8.3856e-15
2.49997e-18
0.000330532
5.23359e-16
3.51475e-18
3.9932e-18
4.72446e-06
7.05456e-05
0.00204223
0.00916397
8.39007e-17
1.20919e-16
0.000232658
5.66889e-17
4.17126e-16
1.14965e-13
0.0194475
0.0407426
1.59688e-16
1.67327e-16
6.04401e-16
1.61702e-17
2.83092e-19
2.52383e-16
0.00845562
1.20162e-16
7.91991e-08
0.0269259
8.50583e-19
1.71519e-17
1.43435e-15
1.5225e-05
5.71483e-16
4.34028e-17
8.40586e-18
5.88612e-06
2.41066e-18
0.00530372
1.06913e-06
4.34295e-09
1.70859e-16
4.68945e-05
0.00260391
0.0434661
1.46965e-16
5.53807e-06
0.00721926
4.98846e-16
2.06142e-16
2.05287e-14
3.06748e-16
0.00787399
0.00174799
0.00396356
1.59937e-07
1.67387e-17
0.0222959
3.38884e-15
1.31832e-15
3.05344e-14
3.08611e-19
0.0252993
1.58862e-16
1.35789e-15
2.63394e-06
0.0487879
3.8749e-16
0.00300207
5.89193e-16
0.00112407
7.85433e-16
9.56588e-19
3.55846e-17
1.71008e-17
0.00264468
0.000683109
0.339088
1.16972e-16
1.34079e-16
0.00205102
1.0963e-16
4.0728e-15
5.31801e-18
0.0422394
5.62587e-06
0.0286724
1.25684e-15
6.4814e-06
2.96639e-05
4.15326e-14
6.93593e-05
5.53727e-16
0.00182571
0.0276304
0.0200005
0.001647
0.000326046
3.18041e-17
3.44941e-17
2.48988e-17
1.40099e-05
2.4168e-18
0.00543855
1.49984e-18
0.175977
1.30398e-17
0.0417063
0.00354311
6.21691e-16
3.51395e-17
3.46107e-15
4.72842e-18
0.0313112
4.69241e-15
4.42293e-14
0.012989
0.00536004
1.44217e-15
2.92895e-15
4.95574e-15
5.06805e-15
4.6046e-16
1.74764e-17
0.0203855
0.00051964
9.84805e-17
1.3732e-16
2.77495e-07
6.26307e-17
0.00133047
0.00011592
1.08581e-16
0.00271192
7.66085e-18
0.000331908
7.50443e-16
0.000889446
1.32878e-16
1.27644e-07
1.78994e-06
0.000876612
0.0143996
0.0274217
1.01386e-06
6.33451e-17
0.000450846
2.58646e-15
0.00437112
4.83383e-16
3.39082e-18
5.66537e-14
3.81928e-17
5.26759e-19
2.52016e-18
0.00569801
0.0062771
6.31878e-18
1.37229e-14
8.36042e-17
0.000535558
1.76099e-05
3.75381e-18
0.0184317
0.000212827
1.46982e-16
0.0224779
0.00811986
0.00332124
0.0134672
4.07229e-17
9.6629e-18
2.67737e-18
9.85714e-17
0.0362692
8.17758e-18
0.103865
3.72787e-17
0.000216841
0.000729092
2.37207e-17
0.000670604
1.63484e-18
5.03258e-18
0.00226968
2.58759e-08
0.00589975
7.48256e-17
9.34554e-16
8.20113e-17
0.000695426
5.44209e-15
5.09942e-18
1.72134e-16
5.10346e-07
9.47566e-16
1.19197e-05
3.68179e-15
3.54193e-17
3.04167e-16
0.0178248
0.00959243
0.017686
0.0342829
4.04496e-18
9.6642e-06
2.1048e-17
4.85016e-19
0.0107374
5.53613e-17
3.11165e-06
0.000255188
0.00629028
0.000240378
9.72152e-11
0.0024244
6.87131e-18
1.73128e-10
9.92153e-10
9.32414e-05
0.00123741
0.0134783
6.59628e-08
1.83571e-17
0.0311664
1.47311e-16
2.16654e-16
2.96255e-05
0.074509
1.01372e-07
3.93658e-18
1.03628e-17
6.04511e-07
2.20405e-16
1.32336e-15
1.01425e-05
3.47226e-15
4.20573e-16
0.04199
0.000141247
0.000105966
0.0234524
0.00717239
3.0565e-17
7.04201e-18
3.6374e-06
0.00420109
4.28423e-17
6.34509e-15
0.0112389
4.54887e-16
3.34378e-14
5.63355e-16
5.22152e-16
4.34545e-13
2.52264
1.5007e-17
0.000184215
9.83259e-17
0.0153323
1.56031e-16
2.99451e-12
4.46295e-17
1.24227e-16
1.7227e-17
2.30447e-16
0.00336483
5.12489e-17
2.80978e-17
1.32354e-15
1.61681e-16
3.49783e-18
1.40947e-16
0.00996666
1.10305e-16
0.0110315
0.00233799
4.83625e-16
0.00172688
2.04642e-16
0.000399526
1.5022e-06
0.00406675
0.014173
7.66589e-17
8.95762e-05
0.00934158
4.49301e-06
1.41592e-19
1.07734e-06
0.0169643
0.0047605
7.41599e-17
0.0267135
1.94456e-16
1.86136e-17
1.12175e-16
7.67334e-17
0.0082738
6.30826e-17
2.035e-17
0.00805335
1.09701e-07
0.00278592
9.96939e-19
1.00524e-13
0.000676057
3.95253e-18
0.000147369
3.04527e-16
0.0217508
1.73774e-17
1.45172e-16
5.53865e-05
2.34338e-17
0.000101527
1.98581e-17
7.79025e-17
0.0053462
0.000392402
0.00488965
0.0174757
0.217582
0.0197402
2.42162e-17
1.15896e-14
0.00236974
0.00669146
0.0351968
0.013342
4.26076e-17
0.0112832
2.42808e-18
1.26386e-17
0.00763574
0.00960315
1.41254e-16
0.0124313
3.33791e-18
0.00284144
0.00826924
3.62124e-16
1.37142e-17
9.76738e-19
0.00232281
1.80784e-16
8.9095e-17
0.00354672
0.0199354
3.99656e-06
0.00767488
4.44121e-16
1.03197e-17
5.47895e-05
0.000656926
1.09887e-16
0.00923854
5.93548e-16
0.0024359
5.52368e-18
1.35275e-16
0.0111171
4.9565e-17
4.50431e-05
0.00296601
4.8927e-15
4.43482e-17
0.00365141
2.54107e-11
0.0539036
1.70353e-18
0.28525
4.34359e-18
2.11791e-14
4.38358e-14
0.00642315
1.22733e-15
1.5722e-15
0.00501458
1.75511e-15
0.000161862
3.12488e-15
1.88129e-16
3.29536e-16
1.56189e-07
0.000774226
1.38734e-17
9.16696e-18
0.0359535
0.00094093
4.02466e-16
0.000596268
2.90984e-17
2.33417e-16
1.20947e-06
0.0036904
0.00117265
6.79873e-16
1.00509e-16
2.00637e-17
4.72233e-17
7.32966e-16
4.27789e-16
8.86292e-19
4.48581e-17
6.05918e-18
8.12203e-17
4.49467e-18
1.34565e-17
4.06055e-17
6.32032e-17
2.11121e-17
1.64543e-15
3.2181e-16
3.96406e-16
2.59937e-16
4.21297e-17
5.14581e-18
0.0183528
1.21065e-18
1.61773e-16
6.98548e-19
0.00619595
4.44129e-19
5.18244e-17
0.194481
2.26315e-17
5.00021e-17
0.0219279
3.44235e-12
5.20033e-16
0.00437191
0.0232773
3.78363e-17
0.00127677
0.00216778
5.58557e-16
0.0111005
0.0373666
0.0165382
0.00287419
0.00976023
1.08511e-16
1.64577e-16
0.00275141
0.0101761
0.00268426
2.88753e-16
0.00559914
0.00135156
0.0186364
0.0107004
0.000640905
0.0135908
0.00107024
0.00843188
1.16113e-18
0.0265808
0.00755651
0.00181938
0.00117257
1.21145e-16
4.74039e-18
1.2494e-18
2.02631e-18
1.676e-17
0.00874021
0.0121961
6.07487e-18
3.77957e-17
8.97435e-16
5.44393e-16
1.05778e-16
6.13766e-17
4.32692e-17
2.92852e-16
0.0040976
8.71664e-05
0.0194707
4.90818e-05
1.1683e-17
4.49071e-15
0.0331372
2.8471e-06
2.25095e-17
7.09041e-17
0.00701021
1.13565e-18
2.16156e-17
3.6217e-06
0.00701306
0.0122255
0.0293473
0.0270193
8.57787e-17
0.0139848
0.000261177
1.48642e-14
1.10992e-16
0.0101875
2.15261e-17
1.78194e-16
0.0277113
0.993985
0.000149397
1.14251e-15
9.29463e-19
0.0153564
0.0222143
0.016223
0.00576813
0.00198625
5.34504e-17
6.81041e-07
2.28026e-09
2.92272e-18
9.52399e-15
0.0169821
1.00997e-16
0.00194005
0.025872
0.0155167
0.0119725
1.11394e-18
0.00523366
1.2428e-18
5.54989e-16
1.35364e-17
1.63716e-17
0.00251029
0.709773
1.76242e-18
5.24497e-17
4.20584e-06
0.0224808
0.000465776
0.00617232
0.031202
0.00456333
0.0197177
7.44162e-16
8.30852e-16
7.58829e-16
0.0306353
0.00510854
2.70346e-08
1.78142e-15
4.44055e-18
1.09889e-14
0.018697
0.00268964
6.98286e-18
0.00432055
0.045016
0.00817646
0.00544144
1.32801e-16
4.88705e-14
0.00613205
0.0214988
1.96172e-18
0.000238197
0.0120354
0.00085723
0.00884996
0.00411355
0.00747914
5.57198e-15
0.00346538
0.0186933
0.0364773
1.27635e-09
0.0230064
1.3725e-14
0.0159147
0.000146831
7.1051e-20
0.00249356
0.00634184
0.000312335
0.0106768
2.17945e-07
0.000192083
1.72742e-05
0.0245558
0.00311504
1.52992e-15
0.0377492
0.00105519
6.52113e-17
1.50113e-17
2.5563e-08
4.9127e-06
0.0009001
1.01327
0.032512
0.00775326
2.56755e-07
0.0371315
1.41181e-15
1.50944e-17
0.00383228
6.60392e-16
0.00231089
0.00614936
0.00180641
0.00445452
4.30337e-17
0.000238339
0.102125
1.53201e-17
0.0595799
0.00653473
1.54755e-17
0.00341826
0.000180669
1.9155e-17
2.11196e-09
9.47816e-05
6.22365e-16
4.02152e-16
2.79835e-18
0.00426972
0.0044685
0.0132484
4.93183e-18
0.00560923
0.0296842
1.66817e-16
0.00701912
0.0108715
0.0240628
0.00130292
1.31279e-16
0.000616378
0.0089486
0.00917134
0.00780217
0.0368983
0.146416
0.00324675
2.60469e-17
5.94647e-06
0.0502838
4.82025e-17
0.00037502
6.41095e-18
4.73027e-17
4.17712e-17
1.31145e-19
6.2143e-18
0.00265794
1.86872e-17
0.00612778
0.00144124
2.09986e-19
0.00408419
2.03796e-15
0.0139167
8.02305e-17
6.96234e-06
1.28882e-15
0.0206346
0.000111227
1.26312e-06
0.00357243
0.027765
0.0165646
0.00363951
0.0239611
2.2466e-12
0.0196784
0.0497303
0.00819256
4.03332e-19
0.00118967
0.0003581
0.00479125
0.0113093
0.000755934
3.39731e-18
7.14422e-16
9.46523e-17
0.00404699
2.27045e-16
4.75454e-05
0.000227566
0.000531359
0.000271503
3.46872e-16
9.12551e-17
3.45926e-18
0.00738493
0.0199892
0.0012757
7.32401e-06
0.00185366
0.00613007
0.00196649
0.000719909
0.00628524
0.00530294
0.00231741
2.71132e-16
8.79081e-18
4.75827e-19
0.0138037
0.010252
1.6973e-16
4.24579e-17
2.79126e-14
0.00707827
0.0185995
2.00314e-16
0.00189016
6.07526e-18
3.8153e-07
0.00525059
0.0741027
5.11895e-17
7.52498e-19
0.00341974
6.79732e-17
8.4767e-05
0.0109767
6.3253e-16
0.00938724
0.0313385
0.0160337
1.34332e-16
0.000660612
1.05946e-15
5.70521e-05
0.045446
6.34695e-17
7.51034e-17
0.0107303
3.68191e-13
1.15613e-17
3.51396e-05
0.00107322
7.12999e-18
4.14429e-16
8.30344e-15
4.6803e-05
0.00125415
0.00305589
0.0201828
0.0094647
2.24849e-17
3.26824e-07
0.000421006
3.70113e-17
1.69542e-18
1.49705e-17
1.94868e-16
8.19888e-16
3.95302e-16
7.92412e-16
8.94579e-18
3.79967e-15
7.71653e-16
1.38259e-09
1.34526e-15
0.000410256
5.95468e-16
8.66771e-05
1.82027e-14
6.33603e-05
4.17361e-14
2.32682e-16
0.0220012
0.00804342
1.42459e-15
0.0867823
1.44838e-09
3.54148e-11
6.72859e-17
0.00104487
1.11856e-13
0.00218785
4.75657e-06
0.000972588
1.37606e-15
2.29656e-16
0.000634197
5.8272e-08
1.64364e-16
1.1153e-18
0.0368797
1.15002e-15
0.0339046
1.08739e-15
3.27215e-19
1.09353e-06
0.0266637
0.00844017
3.16975e-18
0.000398896
1.15754e-15
0.00103079
1.21993e-05
0.0018659
0.000645878
7.42344e-19
0.0190141
0.000759525
0.00480522
8.97904e-17
1.61429e-17
4.67823e-17
0.00525154
0.00398443
0.0440222
2.45439e-17
2.34987e-07
1.14699e-16
3.53373e-16
9.75965e-17
1.20042e-16
0.00237653
0.00156293
0.00236581
0.279388
3.6715e-19
0.0287024
0.0329532
0.017491
0.00122337
1.22755e-17
0.0054412
0.00326077
0.00476622
8.40646e-07
0.00960916
4.76135e-17
0.00172258
0.000890316
0.0303784
8.03116e-07
0.00241154
4.65818e-17
0.0166098
2.34001e-16
2.85416e-18
0.00142529
1.04146e-18
0.00695369
1.54995e-18
5.98404e-16
1.60282e-15
9.08796e-17
3.05172e-18
0.000591083
3.71447e-16
0.000599346
4.18797e-17
3.4448e-17
0.0187887
0.00592972
0.00722981
0.00808564
2.74423e-18
0.554482
4.6169e-18
0.0666827
2.07642e-15
0.0185506
0.0180554
0.00183429
0.053374
1.4894e-14
2.1785e-14
5.04087e-16
0.00205733
6.89753e-19
3.047e-17
0.0167642
1.30395e-15
3.28758e-16
0.00404253
1.01556e-15
0.0125686
1.10947e-07
4.53637e-15
1.98139e-15
5.90096e-15
0.00143403
0.00574785
1.26982e-16
0.0207062
0.000242267
6.59122e-16
0.0940763
2.22483e-17
0.0153834
0.017011
0.00295959
9.26519e-17
0.0154918
0.00824022
0.000598227
0.00410288
0.0110996
1.76398e-16
2.43695e-16
1.49563e-06
7.72008e-16
3.90083e-17
2.91307e-18
0.0182902
0.0358363
0.00400467
0.00175252
8.45771e-16
0.0416389
0.0429918
0.00365613
0.00300132
0.00796283
0.0200927
0.00204073
7.38787e-17
2.93614e-16
1.25909e-16
0.00504709
7.75511e-19
0.0241632
1.61363e-14
0.000630692
2.93579e-07
0.00238589
0.0208682
3.47376e-16
1.28834e-17
0.00197894
0.000278538
3.68091e-17
6.27504e-17
1.21982e-18
2.69871e-05
0.000257951
0.000105931
0.000634633
0.00876805
0.0836641
3.73039e-16
1.0661e-16
9.14029e-17
0.0035453
0.0188304
0.0186821
0.0309966
0.00191418
0.00211226
2.43667e-16
5.41071e-18
3.60864e-13
1.12653e-16
0.00934272
0.0190642
1.01606e-16
2.99024e-16
1.6774e-15
5.51691e-19
1.68938e-19
3.30635e-15
0.0109357
9.25834e-17
0.00108553
0.291716
3.52274e-16
1.5522e-05
0.0208916
0.000618676
2.53372e-17
9.57686e-16
0.00368011
5.01026e-17
0.0116032
1.45987e-06
0.0218091
3.75344e-16
1.60446e-12
1.65179e-16
1.75288e-16
5.46654e-17
4.57705e-15
0.174309
1.6159e-16
0.00440879
0.00105995
1.16317e-16
1.85231e-17
0.00146314
1.06129e-17
4.87554e-17
0.0141855
5.0105e-05
1.4602e-16
1.57157e-15
6.85023e-17
0.0148035
3.66481e-18
1.09409e-17
0.000242744
0.00196807
0.00224779
2.01733e-16
1.11046e-16
2.65381e-15
0.00295145
0.00140545
0.0103562
0.00295117
3.77926e-17
0.000685091
0.0123625
0.00582501
6.43467e-19
8.77866e-18
4.15366e-18
3.21386e-17
1.21372e-17
0.0281998
0.00716889
0.00425372
1.54111e-19
1.53984e-17
1.19492e-17
1.52038e-17
3.20761e-16
6.33609e-07
0.000291426
0.002301
7.02573e-16
1.02745e-17
2.55621e-18
3.91272e-09
0.0275238
0.0947338
1.37198e-17
5.77669e-11
3.0629e-13
1.54857e-17
1.51768e-17
0.00326873
0.00676245
1.13344e-16
1.1409e-15
0.00243574
5.95377e-18
0.000678934
0.00115171
2.0082
1.47784e-17
1.8744e-15
0.0119916
0.000361738
1.73952e-16
0.634822
0.000510201
0.00672581
4.3059e-16
1.22906e-16
7.72958e-18
6.72921e-17
0.00696237
9.03114e-05
3.46448e-16
0.0217277
0.0159724
0.838314
3.59733e-17
7.54463e-18
4.45848e-17
1.4846e-17
0.00536043
2.81626e-08
4.67016e-17
1.71797e-15
0.0167587
0.00105787
0.00481388
5.34007e-16
3.48934e-18
0.0256123
1.3666e-15
1.48058e-17
7.57714e-17
1.175e-16
0.0227052
3.00932e-15
2.71495e-16
1.28621e-16
0.0228841
0.0126198
9.68588e-17
3.00742e-18
3.75604e-17
0.0133824
7.42603e-08
1.26717e-15
3.50241e-17
6.97518e-18
1.71024e-17
0.00217516
0.00864772
3.87928e-19
0.002056
0.000863505
0.00392797
4.56223e-18
5.15311e-18
1.85542e-16
1.56211e-18
4.08998e-18
0.0213982
1.23569e-16
0.0155171
9.55513e-16
0.00115224
2.84492e-14
0.0017001
1.11381e-16
1.12306e-17
0.0101829
0.261366
4.49081e-15
0.00259143
5.14134e-17
0.000285496
6.7038e-15
1.51829e-16
1.66524e-16
1.66452e-07
1.96761e-16
0.000358493
2.33247e-16
0.033502
8.22429e-18
1.349e-15
1.56019e-17
1.0139e-15
7.1376e-06
0.000110995
2.03463e-17
0.00376517
1.02415e-19
0.00351853
0.0195719
0.000889385
2.00576e-19
2.97944e-06
0.00030545
1.37559e-06
0.00490658
4.95413e-07
0.00119422
4.96631e-16
1.44017e-16
3.25925e-07
0.00471522
0.000168961
4.77539e-16
5.22382e-16
1.08423e-15
0.431156
2.05242e-19
1.12169e-16
7.23953e-18
5.09848e-18
2.37488e-18
8.54102e-05
0.000121463
0.000752916
5.21333e-05
6.2592e-13
0.000912014
1.11106e-18
0.00632733
1.92006e-16
6.01651e-19
2.08575e-17
4.3616e-16
2.3871e-05
1.35413e-16
4.84574e-19
3.66687e-17
0.0145151
2.38581e-17
6.86289e-18
0.0106137
4.34596e-16
0.0364283
0.0654777
0.384916
4.94428e-17
0.204758
1.27521
1.80577
0.66879
6.22799e-16
1.27628e-17
0.00473506
0.00523669
1.21067e-15
0.00294813
5.84074e-17
0.0310645
2.4914e-15
2.95864e-16
0.000470324
3.55438e-16
9.97149e-18
6.805e-06
2.79229e-05
1.68073e-19
8.35079e-18
1.33508e-06
1.67097e-14
4.807e-16
2.01255e-05
0.00739293
0.00113084
4.54924e-15
0.00605272
3.59513e-17
0.00337921
3.81896e-07
0.00512467
2.15376e-16
1.13768e-09
0.00465299
8.21493e-15
2.14464e-10
8.30241e-17
0.031762
1.44727e-15
0.0101951
5.67215e-16
9.54111e-08
1.5832e-16
4.75427e-16
3.05959e-18
7.44064e-11
7.8856e-10
7.67934e-17
0.0119446
0.00671677
2.51094e-19
1.32805e-15
0.0327287
0.0177099
0.173797
4.95198e-18
4.71097e-05
0.0240809
0.0455698
2.93858e-09
2.93986e-19
0.0647527
8.62222e-17
0.213414
2.08135e-17
1.07902e-08
6.73681e-09
3.17483e-17
3.72525e-05
7.5377e-16
0.0198267
4.79648e-17
4.2339e-16
1.99215e-16
1.32514e-17
7.40483e-17
1.14699e-17
0.000365674
0.00147702
0.13768
3.43203e-16
6.14857e-15
0.0407706
2.50059e-16
4.82013e-19
2.84156e-16
1.40148e-18
2.23759e-16
0.00497281
1.08449e-16
1.10937e-18
8.48148e-18
0.00278205
7.75666e-16
6.87667e-17
3.40317e-16
0.00270544
1.0498e-17
0.00512769
0.196024
0.00380781
0.00449601
0.0226567
2.82104e-15
1.36667e-16
8.02271e-17
0.00255892
0.00167132
2.0585e-17
2.48516e-14
0.00048443
1.88837e-16
3.26065e-17
0.31179
1.52957e-16
0.0215498
1.97536e-16
0.00205795
0.00365631
2.08587e-16
4.27649e-17
2.8048e-16
1.14248e-18
2.34468e-17
0.02001
6.25004e-16
0.0038218
7.00602e-16
6.6877e-17
0.00569109
5.89916e-17
0.0137794
1.11876e-15
1.36569e-17
0.00220404
7.76837e-05
0.123556
4.68622e-17
5.25731e-17
5.71428e-16
0.00357338
0.170886
9.63105e-16
4.38302e-17
2.63708e-15
0.00124666
1.69036e-16
0.0212845
0.0233407
6.47881e-16
2.46908e-17
0.00583641
4.30457e-17
3.89866e-15
4.48996e-18
8.30392e-16
2.5624e-17
0.0601729
1.29832e-13
8.55654e-16
1.58428e-17
4.07472e-15
6.76823e-16
4.98565e-16
8.76116e-16
1.8699e-16
2.13019e-15
0.00753865
5.24005e-15
0.00674835
3.70636e-15
2.33964e-16
0.542226
0.00216332
1.543e-15
2.41025e-15
5.41966e-17
0.00193638
8.31701e-17
9.03267e-18
7.55533e-16
1.06903e-17
0.00574039
1.89219e-16
0.0029183
3.04462e-18
0.0100144
2.9251e-15
0.0551317
2.44569e-15
1.43448e-17
0.0170813
3.046e-15
3.25214e-17
0.0259868
0.000268916
1.04897e-18
8.63519e-19
0.0385611
0.011845
0.00527078
0.00065168
0.00145344
0.0156323
0.000769276
0.00543716
2.43186e-16
0.0199256
1.26378e-14
8.34261e-15
3.01299e-17
1.12386e-15
1.44389e-17
0.00827927
4.86523e-18
1.61885e-19
8.35246e-19
5.09861e-07
1.41862e-05
1.3624e-14
0.00280798
1.25273e-16
0.00408186
3.61545e-16
6.99529e-07
0.00310855
1.31722e-13
0.039896
2.87335e-16
1.52048e-15
3.73216e-17
0.00236021
0.00142189
6.9886e-18
7.34215e-18
0.00201508
3.96699e-18
0.622373
1.11458e-17
0.0800824
1.06114e-16
8.68501e-17
3.16987e-18
3.97671e-17
0.00835519
1.46708e-16
6.05421e-05
7.47746e-18
0.00933146
1.44754e-17
3.77417e-17
6.73253e-12
3.17653e-13
4.50922e-17
4.32528e-17
9.26259e-17
8.61183e-19
0.00435551
0.227719
3.28945e-14
4.36556e-17
0.000395524
2.22903e-16
3.03578e-17
1.84195e-06
0.0165652
0.000170209
1.15052e-16
0.000545734
0.00367707
0.00442533
0.00842412
4.99008e-18
3.54762e-19
1.2437e-18
7.4011e-17
5.96894e-17
2.31105e-17
4.42985e-16
1.07986e-15
1.67624e-16
2.74991e-17
3.41483e-17
3.07722e-17
0.070774
1.26882e-17
1.99891e-16
3.92477e-09
3.86365e-17
2.56897e-16
1.05496
1.64951e-18
1.72516e-17
0.00139612
2.35655e-10
2.77547e-16
1.83942e-18
3.88809e-19
0.0207102
1.68132e-18
9.54241e-18
3.50201e-08
2.44511e-18
2.04712e-16
2.92666e-18
1.3314e-18
0.101402
6.95229e-18
0.000249008
2.76379e-18
1.60091e-17
4.04553e-17
1.26145e-16
2.6282e-16
4.43874e-08
6.36774e-08
0.000126712
5.29238e-19
5.51754e-16
9.20639e-17
1.12729e-07
7.38659e-16
2.44956e-07
3.22896e-08
8.65006e-18
3.64381e-16
1.54554e-14
1.31773e-08
1.80186e-17
3.15736e-16
1.13975e-09
2.58356e-15
0.0302543
1.12982e-17
0.00546018
2.23511e-16
1.74822e-06
6.04935e-17
0.00156173
8.43475e-17
0.00448553
0.0193524
3.91159e-16
0.00264359
8.99295e-06
6.88231e-17
0.00818392
1.60866e-17
9.2865e-17
7.77216e-16
2.60888e-16
1.37066e-15
1.88477e-17
3.98904e-16
2.19763e-17
0.239399
1.03496e-15
1.90349e-16
3.31421e-17
3.05047e-17
5.82641e-17
0.0293155
0.779399
1.93979e-06
1.66197e-05
3.2251e-17
0.00156607
0.00104547
2.63126e-16
3.37595e-16
2.71608e-15
2.7573e-16
6.51101e-16
3.39749e-16
1.51094e-15
1.04168e-15
0.000411794
7.91878e-16
7.30529e-19
9.51216e-05
1.53685e-06
3.09683e-16
0.0263803
1.08228e-15
2.40877e-16
1.91372e-17
0.165381
1.67735e-17
2.06755e-17
0.0215628
2.57051e-17
2.90313e-18
5.06274e-16
1.5199e-18
0.0481875
1.04371e-16
7.19524e-17
4.45541e-16
1.73911e-16
0.00645036
0.230561
0.0268432
0.0452023
0.00265961
0.000154028
2.85036e-17
1.01292e-15
0.105736
0.00156852
1.54039e-15
4.70533e-08
4.92392e-18
1.58077e-09
4.90038e-16
0.210737
5.7766e-17
4.79111e-16
0.000165539
5.83135e-11
1.17021e-16
0.0116465
8.56122e-18
1.38323e-17
0.202132
0.0277615
3.58859e-17
6.57319e-17
4.08463e-17
4.7877e-17
2.46119e-17
1.38538e-14
1.80891e-18
1.35014e-18
0.00344036
2.1738e-18
8.55274e-18
4.56406e-17
1.01235e-05
7.56565e-17
1.06669e-14
2.09285e-18
8.35498e-18
5.37454e-16
5.59099e-16
0.00242056
5.75604e-17
6.2298e-16
0.00418817
1.25921e-17
0.000415451
0.00509957
1.24982e-16
0.00277126
5.05881e-17
1.02898e-15
6.51503e-18
6.1762e-15
1.64686e-17
6.15228e-18
3.69929e-18
5.64908e-19
0.00183613
1.4652e-15
5.76721e-17
1.20376e-18
6.87248e-17
1.38268e-17
5.13278e-16
0.0402534
2.00704e-17
1.38723e-18
0.326883
3.34586e-17
1.33971e-17
1.20031e-19
0.000956104
2.12803e-17
3.15553e-06
1.35097e-15
5.0711e-05
0.00854336
6.90575e-17
1.38288e-15
0.0375795
6.64173e-15
6.54754e-17
8.73592e-05
3.73906e-07
0.00971009
1.30255e-06
3.83246e-07
7.63129e-08
4.24429e-17
7.54348e-17
0.000742143
0.000217644
0.0206146
0.0106463
3.54444e-05
2.06494e-17
0.00536766
0.00412382
0.0159494
6.33039e-19
0.0108049
0.0157534
0.00239561
0.00111585
0.000409632
0.00452049
0.0180415
0.0356763
0.00748307
0.0109595
0.00716724
5.19303e-15
0.00254612
0.0034142
0.000571403
0.00309792
0.0135349
0.012141
0.0204326
1.82183e-15
0.00731592
1.57177e-14
0.00442926