/*--------------------------------*- C++ -*----------------------------------*\
  =========                 |
  \\      /  F ield         | OpenFOAM: The Open Source CFD Toolbox
   \\    /   O peration     | Website:  https://openfoam.org
    \\  /    A nd           | Version:  10
     \\/     M anipulation  |
\*---------------------------------------------------------------------------*/
FoamFile
{
    format      ascii;
    class       surfaceScalarField;
    location    "113";
    object      phi;
}
// * * * * * * * * * * * * * * * * * * * * * * * * * * * * * * * * * * * * * //

dimensions      [0 3 -1 0 0 0 0];

internalField   nonuniform List<scalar> 
109758
(
-3.40992e-06
0.00121997
-0.00121656
-0.00125268
0.00128852
-3.58416e-05
0.000104122
-0.00114988
0.00104575
-0.00144001
8.78775e-05
0.00135213
0.00146218
-0.000168304
-0.00125761
-3.62728e-05
-0.000405295
0.000396328
8.96714e-06
-0.00110845
-6.46901e-06
0.00111492
0.00202381
-0.000255906
-0.000384875
-0.00138303
-2.37283e-05
0.000849318
1.44623e-05
-0.000840052
0.000466457
-7.2212e-05
0.000596522
-0.000990767
-3.94392e-06
0.000586479
-0.000582536
0.00187436
-0.00152687
-0.00143888
0.00109139
0.000320906
0.00125913
-0.0014378
-0.000142235
0.00118865
-0.00121937
3.07169e-05
-0.00097387
0.00110807
0.00132799
0.000691347
-0.000946141
-0.00068449
0.000939283
0.000819588
-0.00157362
0.00140327
-0.000649231
0.0014843
0.000242365
-0.00110138
-0.000625278
0.00150006
0.000227958
-0.00121147
-0.000516555
-0.00144003
0.000171264
-0.000108842
0.00137761
0.000215659
-0.000290392
7.47331e-05
-2.64364e-05
-0.0011963
0.00028567
0.00093707
-0.000275506
0.000846995
-0.000571489
0.000251248
-0.000301532
0.00102946
0.00116212
0.000420026
-0.000405218
-0.00117693
1.76994e-05
0.000563468
0.000903129
0.0012414
0.00151639
-0.00194186
-0.000815931
-0.00109121
0.00108142
9.7897e-06
3.4432e-05
0.00112769
0.00149202
-0.00102647
0.000795168
-0.00126072
-0.00146103
0.00152963
-8.42808e-05
1.56831e-05
-4.98591e-05
0.000604452
-0.000554593
-1.44568e-05
0.000898701
-3.48452e-05
-0.000849399
-0.000827329
0.000824306
3.02341e-06
-0.000123593
-0.00131746
0.0011049
0.000336156
-0.00115981
0.00212098
-0.000718803
0.000577891
0.000170869
-0.00074876
0.000198035
0.00103945
-0.00147388
0.000236393
-0.000252273
-0.00111668
8.16448e-06
0.00136079
0.00114057
5.15121e-06
-0.00114572
0.0016739
-0.00110249
0.000734935
-0.00130634
-0.000392233
-0.000504919
0.000676483
0.000220669
-3.41635e-05
3.33461e-05
0.00167472
-0.00144721
0.00142462
1.3238e-05
9.35794e-06
0.000796994
-0.00079802
1.02603e-06
0.000330565
-0.00214994
-0.000329063
0.00214844
0.000997942
-0.000282629
-0.000251216
-0.000464097
-0.00111256
0.00138816
-0.00019541
-8.01943e-05
1.65501e-05
0.00102435
-0.0010409
-0.00224761
0.000142306
0.000187782
0.00191752
0.00107968
-0.000522352
0.000520001
-0.00107733
0.000398926
0.000616715
1.43445e-05
0.00140048
-0.00141482
-0.00105836
0.0010619
-3.54063e-06
-0.00121984
0.00125427
-0.000329721
-0.00175407
-0.000430749
0.00251454
-0.00228279
0.00318362
-0.000667429
-0.000233406
-0.00111404
0.000982947
0.0011706
-0.00103951
-0.00180372
0.000708464
-5.92508e-05
0.0011545
-0.000718746
0.000263819
0.000646149
-0.000191222
-0.00149365
0.00142215
7.15066e-05
-0.00323418
0.000189526
0.00163168
0.00141298
-0.000313876
0.00130127
-0.00124948
0.000262086
0.00156927
0.00151362
-0.0018911
-0.00113798
0.00151545
-0.00190108
0.000921692
0.000514728
0.000464661
0.0013926
-0.00153986
-0.000857905
0.00100516
-0.00147634
9.85652e-05
0.000349146
0.00102863
-0.00112268
-0.000798882
0.000445223
0.00107496
-7.64958e-05
-9.3722e-05
-0.000904746
0.00100592
-0.000590242
0.000373436
-0.000789118
0.00141974
5.18569e-05
0.000602389
-0.00207398
-0.000520341
0.000192397
0.000327944
-0.00211844
0.00134761
0.00158107
-0.000810231
0.00080301
-0.00075955
-4.34604e-05
-0.00062823
0.000201249
-0.00169146
0.000106488
-0.00088121
-0.000283639
-0.000270561
5.60089e-05
-0.000860636
0.00107519
0.00174249
-0.0015831
-0.000333482
0.000174099
-0.00170463
0.00153672
-0.00105193
0.00119811
-0.000810964
-0.00100326
0.000616119
-0.000650725
0.00269958
-0.00135003
-0.000698828
-0.000152333
8.23688e-05
0.00152942
-0.00145945
3.63957e-05
0.00216824
0.000227606
-0.00243225
0.000866508
-0.00157316
-0.000132447
0.000839094
0.00123806
-0.000233155
-0.000898413
0.00012878
0.000991271
-0.00135853
0.000238476
0.000543379
0.00204823
0.000129559
-0.00272117
0.000961874
-0.00113403
0.000180283
-8.12985e-06
0.000655164
0.000735456
-0.00276354
0.00137292
0.000933329
-0.000103678
6.16208e-05
-0.000891273
0.00199178
-0.00149349
-0.00296907
0.00247077
0.00169095
-0.00190384
0.000844368
-0.000631479
2.06082e-05
-0.00159274
0.00146395
0.000108182
0.00164639
-0.0011528
-0.000363102
-0.000130487
0.00088951
2.08649e-05
-0.000910375
-0.0017004
0.000294091
0.00118709
0.000219224
0.001115
0.000743627
0.000571253
-0.00242987
0.000918924
-0.00165745
0.00114788
0.00249095
-0.00144435
-0.00219448
0.000917322
1.60141e-06
-0.000367682
0.00119409
0.00119881
-0.00202522
0.00105175
0.000300505
-0.00014898
-0.00120327
8.13553e-05
0.00092218
-0.00100354
0.00141387
-0.000116719
5.53344e-05
-0.00135248
-0.000577878
-1.8964e-06
0.000579774
-0.00132411
0.00102149
-0.000798765
-0.000237699
0.00179639
-0.00188908
0.000330385
0.000431855
-0.000362726
-0.00145276
0.00138363
0.000287592
-0.000293291
-0.000681618
0.000687316
-0.000368712
-0.000989327
0.00123681
0.00012123
0.000447819
-0.00121932
0.00126875
-0.000497252
0.000927785
0.000283628
-9.27819e-06
-0.00054947
-9.87632e-05
0.000657511
0.000179578
0.000352953
-0.00203724
0.00150471
-0.00131194
0.000166439
0.00134822
-0.00020272
0.000973615
0.000158178
9.90392e-05
-0.00123083
0.00020501
0.000768605
0.00143164
0.000288441
-0.00156191
-0.000766639
-0.000873128
0.00130309
0.000336675
0.00135803
0.000183636
0.000199572
-0.00174124
-0.00146802
0.00125528
-0.000411798
0.00062454
0.00134626
0.000290391
-0.00104608
0.00117846
-0.00108769
0.000955308
0.00146317
-0.000211187
-0.000286439
-0.000965545
4.0182e-05
-0.00160661
0.00174201
-0.000175582
-0.00152931
-3.7567e-05
-0.000422835
0.00198971
0.000938755
0.000505937
-0.00148564
4.09479e-05
-0.00101895
9.45244e-05
0.000894847
2.95755e-05
0.000184212
5.68983e-05
-0.00188305
0.00164194
-0.000930473
-6.11152e-06
0.000936584
0.00019316
0.0013321
-0.00134105
-0.00106142
0.00142123
-0.000773865
0.000414051
-0.00121262
-0.000777869
0.00157843
0.000412053
0.00127432
0.000244308
-0.000722696
-0.000795936
-0.00201021
-2.8125e-05
-0.000282971
0.00232131
-0.00129462
-0.000777596
0.000565873
0.00150635
0.0017766
-0.00174069
-0.000112041
7.61323e-05
-0.00026376
-0.000789099
-0.000701208
0.00146078
0.00108168
0.000271145
-0.00281361
0.00211354
0.000267141
-0.00234429
0.000214721
0.00110499
-0.00131971
3.51931e-05
-0.00108864
0.00105344
-0.00103479
-0.000214734
0.000197569
0.00105196
9.2187e-05
0.00134678
-0.00128485
-0.000154108
-0.00221981
-0.000254855
0.000576581
0.00189809
0.00122521
-0.00129639
0.0011086
-0.00103743
0.000159162
0.000143143
0.000922904
-0.000874121
0.000847545
2.65758e-05
-0.000919437
3.01644e-05
0.00133317
-0.000443898
0.000264246
-0.000672214
-0.000492675
0.000900643
0.000674456
-0.000702072
2.76156e-05
-0.000961841
0.000910033
-0.000218753
-5.08485e-05
-0.00101117
-1.05857e-05
0.00107261
0.00171106
-0.00019214
-0.00108596
-0.000432964
-0.000408174
-0.00186735
0.00250692
-0.000231398
-0.00162342
0.000562171
-0.00135661
0.00151467
-0.000158059
-0.000731667
0.000659125
-0.00102716
0.00109971
0.000547795
-0.000670694
-0.000497653
0.000620553
-0.000920559
-0.00126234
0.00100165
0.00118125
5.03193e-05
0.00141134
-0.000139969
-0.00132169
-0.000358643
0.00170978
-0.000286502
-0.00106464
-0.0015925
0.00134662
-9.65453e-05
0.00034242
-0.00117001
0.000933193
-0.00100751
0.00124433
0.00121548
6.60592e-06
-0.00122209
-0.00180189
0.000389469
0.00176157
-0.000346463
0.00142281
-0.00107635
8.78637e-05
0.00143504
-0.0015229
0.000197943
0.00123675
-0.00189564
0.000460947
-0.000951435
-0.000989301
0.00106185
0.000878888
0.000694772
-0.000199826
0.000510978
-0.00142028
0.00148349
-3.8092e-05
-2.51174e-05
-0.00141785
1.42718e-05
-1.67084e-05
0.000752026
-0.000450719
0.00184941
-0.00215071
-6.85892e-05
0.0018046
-0.00173601
-0.00118323
0.000849677
-6.59778e-06
0.000340155
-0.000902463
-0.00109824
0.0020007
-0.000674703
-0.000253291
0.000927994
0.00100457
1.25644e-05
-0.00101713
-0.00159608
-2.5698e-05
0.00131269
0.000309082
-0.000461591
0.000638518
0.000839015
-0.00101594
-0.00176745
0.000484088
0.000821769
0.00172075
-0.00271128
0.000575308
0.000415225
-0.00144941
0.00146283
-3.98021e-05
2.63741e-05
0.00193034
-0.00192978
-1.52084e-05
1.46488e-05
-0.0010904
1.53733e-05
0.000269055
0.000805973
7.65121e-05
-0.00113688
0.00106036
-0.00123426
-0.00175227
0.00118841
0.00179812
0.000148955
0.00161165
-0.000746192
-0.00101441
2.03137e-05
-0.00155705
-2.33026e-05
0.00156004
0.000256092
0.00139847
0.000329893
-0.00198446
0.000203765
0.00139805
-0.00147307
-0.000128746
-7.46046e-05
-0.00109379
0.00137216
-0.000894642
-0.000757647
0.000384955
0.00126733
0.000841608
4.83145e-05
-0.000889922
0.0013586
0.00130381
-0.00157423
-0.00108818
1.69911e-05
-0.00108187
0.00106488
0.000302782
0.000132567
5.8825e-05
-0.000494173
-0.00142036
-2.28219e-05
0.000469871
0.000973315
-0.00104631
-0.000536683
0.00158299
0.000845696
-0.00111038
0.000393896
-0.000129212
-0.00146891
0.000185115
0.00134023
-5.64339e-05
-0.00147998
0.00179845
-0.0014129
0.00109442
-5.87498e-06
-0.000888767
-0.00114272
0.00111068
3.20388e-05
-0.00147858
-0.000770735
0.000146017
0.0021033
-0.000136581
0.0013004
-0.00116382
0.00103752
-0.000815771
-0.000221745
0.000924977
-0.000930852
-0.00111197
-1.86544e-07
0.00111216
0.000508605
0.00138601
-1.33935e-05
-0.00188123
-0.0011355
0.000173025
0.000962472
-0.0012633
-0.000444592
0.00131581
0.000392087
-0.00190958
0.000262482
0.0018642
-0.000217107
0.0009442
-0.0009168
-2.73998e-05
-0.000726219
-0.00101909
0.00390905
-0.00216374
-0.00148232
0.000543015
-0.000373404
0.00131271
-0.000750799
-0.000179453
-0.00117523
0.00210549
-4.24616e-06
2.67613e-06
0.00130694
-0.00130537
0.000707435
-0.00209585
0.00285909
-0.00147067
-0.00121627
0.00121202
0.0015571
0.000401071
-0.00190737
-5.07957e-05
0.00108537
0.000148524
-0.0013633
0.000129401
0.000950352
0.000445369
-0.00159418
0.000198458
0.000903654
0.00018172
-0.000541824
0.00169142
-8.92318e-05
-0.00106036
0.000326678
-0.00148647
0.00190081
-0.000741021
-0.00167239
0.000121795
-4.86186e-07
0.00155108
0.000972441
0.00374478
-0.000594
-0.00412322
0.000450123
0.00034307
-0.000596685
-0.000196508
0.000310165
0.0011236
-0.000508284
-0.000925481
-0.000905608
0.00088429
-0.000520506
-5.05718e-06
0.00169151
4.96276e-06
0.0013353
-0.00135023
0.000213993
-0.000199061
0.000316167
-0.000105619
0.000806855
-0.0010174
-0.00130094
0.00126672
0.000182749
0.000392565
-0.000768649
-0.000879934
0.00125602
0.000541998
0.00150816
-0.00150678
0.00112912
-0.00147853
0.000199696
0.000149716
0.00111297
2.06639e-07
-0.00111318
0.00242809
-0.00249726
0.00202061
-0.00195144
0.000370304
-0.000955405
-0.000476606
0.00106171
0.000384902
0.000204411
-0.00163412
0.000974044
-0.000580754
0.00124083
-0.00200269
0.000452185
0.0016851
-0.000134594
-0.00156181
-0.000862611
0.00313186
-0.000159629
0.00191841
-0.000633551
-0.00112523
0.000924593
-0.000466557
0.00171247
-0.0021705
0.000184425
-0.000870267
0.000741016
-5.51744e-05
-0.000382728
-0.00125563
0.00144249
0.000195862
0.00108109
-0.000611834
-0.000439644
-2.96153e-05
0.000548067
0.000229668
0.000290567
-0.0010683
-0.000776211
0.000995616
-0.000219405
0.000889423
-0.00082853
0.000123533
3.0569e-05
-0.00135783
0.00132726
0.00104324
-0.00121554
-0.000210423
0.000264643
0.00118145
-0.000265094
-0.001181
-4.00188e-06
-0.000963844
0.000967846
0.000524868
0.00161287
-0.000883497
-0.00125424
-8.52119e-05
-0.00062836
-0.000422862
0.00113643
-0.000294722
-0.00162193
1.07704e-05
0.00190588
-0.00102995
0.00041698
0.00125934
-0.000646368
7.6205e-05
0.000967035
-0.000857701
0.000933906
0.000926146
0.000247538
9.98914e-05
-0.00127358
-0.000489269
0.00218877
-0.000142402
-8.91004e-05
-0.000621722
0.000566739
0.000144084
-0.000206146
0.0024352
-0.000115506
0.00197589
-0.00102621
-0.000424812
0.0022537
-0.000275395
-0.00120935
0.00180731
-0.000322566
-0.00228028
0.00191538
0.000936901
-0.000572006
5.77224e-05
0.00104784
0.000870329
-0.00100392
-0.00131881
0.00139226
-0.000716489
-0.000988294
0.00190979
-0.000205009
0.000740356
0.00084327
-0.00158363
2.62001e-05
0.000168857
0.00222426
-0.00241932
-0.00117466
0.000993011
0.00144021
-0.00125857
0.00135765
-0.00214587
0.00172482
-0.000936601
0.000449863
-2.28547e-05
-0.000427008
-0.000923926
-0.000517181
0.000171919
0.00126919
-0.000473733
-0.000679163
8.94506e-05
0.00117077
-0.000969117
-0.000291103
0.000984315
-0.00102514
4.08201e-05
0.000109666
-0.00130643
0.00137844
-0.000181681
0.00114613
-0.00282831
0.00139764
0.000284527
0.000655232
-0.000874056
0.000218824
0.000867469
-0.000110852
-0.000859753
0.000103136
-0.000174104
-0.00286966
0.00259053
0.000453231
-0.00113338
0.000195103
0.00132115
-0.000382867
-0.00118631
3.82027e-05
0.00114811
0.00118296
0.000200055
0.000785233
-0.000590194
-4.90236e-05
0.00152864
0.000102741
-0.00168154
0.00140469
-6.40165e-05
0.00116672
-0.0011027
-0.000816954
0.000505913
0.00135505
-0.00104401
-0.000185978
0.00155265
-4.3841e-05
-0.00132283
-0.000187243
0.00144231
-0.0009754
-0.000279671
-0.00100248
-2.22546e-05
0.00118143
-0.000156696
0.000832433
-0.00174011
0.000949967
-4.22953e-05
-0.000891557
0.000696978
-0.000716482
0.000911061
0.000863737
3.41356e-05
-0.000100879
0.000132404
-0.00125903
-0.000303375
0.00143
-0.000258139
-0.00138332
0.000618342
0.00102312
0.000493544
-2.10065e-05
0.00113429
0.000275024
-0.00138831
0.000581753
-0.000410107
0.00117228
-0.00134392
-0.000751383
0.000930899
0.00124242
-0.00142194
0.0020344
0.000510692
-0.00205155
1.63592e-07
-0.00121047
0.00121031
7.49117e-06
-0.00122642
0.00127537
-5.64424e-05
2.39024e-05
0.00131064
-0.00117891
-0.000155631
0.000394341
-0.00198937
-6.49563e-05
0.00165999
-0.00110095
0.00132101
-0.000220062
0.000202264
-9.24228e-05
0.00132591
-0.00143575
-0.00102586
0.000227835
-0.000709005
0.00107355
-0.00143077
0.00106622
-0.000327226
-8.10685e-05
0.000408294
0.00324053
-0.00158162
-0.00070346
-0.000955449
0.00130479
0.00334327
-0.00140753
0.00216042
-0.00199884
0.00018899
0.00110084
-0.000852276
0.00121915
-0.000386497
1.96254e-05
-0.000258624
5.04653e-05
0.00178923
-0.00125118
0.000471084
0.000960819
-0.000180722
-0.00105227
0.00174107
0.000130785
0.00122123
-0.00139806
0.000708613
-0.000531783
0.000181388
0.00245663
-0.00243575
0.000735105
6.38652e-07
-0.000735743
-4.50219e-07
-0.000956731
0.000957181
0.00170507
0.000137873
-0.000381595
-0.00146135
0.00221046
-0.000712144
-0.000935554
-0.000562758
-0.000139662
-0.00280375
0.00084756
-8.60966e-06
-0.000679292
0.000687901
0.00147046
-0.00134925
-0.00133356
0.00121235
0.00106482
0.000444023
-0.00125275
0.000864082
-0.000532511
-0.00131813
0.000986557
-0.00104287
-9.50153e-06
-0.000803434
0.00185581
-0.00159307
-6.78309e-06
0.00159986
0.000993009
9.37632e-05
-0.00105662
-3.01529e-05
-0.00127232
-2.08217e-05
0.00129314
6.4294e-05
0.00107033
-0.00113462
-0.000782604
0.0017342
-0.000125974
-0.000825627
-0.00187862
0.00226253
0.00142711
-0.00181103
0.00090121
0.000769382
-0.000208419
0.00133806
-0.000865011
-0.000264634
-0.000229913
-7.79522e-05
-0.00115532
0.00146318
0.0013045
-0.00114735
0.000912636
-0.00106978
-0.00123774
0.00128822
-5.048e-05
-0.00151433
0.000253325
0.00130057
-3.95613e-05
-0.00264244
0.000528689
0.00201025
0.000103501
0.000260896
-0.000334821
-0.00130865
0.00138258
0.00190152
0.000181185
-0.00109222
-0.000990484
0.00103453
-0.000786433
-0.00104193
0.000793828
0.00119099
1.18393e-05
-0.00120283
0.000110253
-0.00202605
0.00148226
0.000433541
0.000752768
0.000448908
-0.000300466
0.000273693
-0.000881841
0.0012858
-0.000677656
-0.000545329
0.000529508
-0.000121953
0.000137774
-0.00362618
0.00437319
0.00141028
-0.00215729
0.00181971
-1.19057e-05
-0.00181894
1.11315e-05
9.13139e-06
0.00146345
-0.00157281
0.00010023
-0.0021928
0.00192112
-0.000510922
0.000974395
0.00121973
-0.00110391
-0.00109022
-0.000967717
-6.9498e-05
-0.000105246
0.00114246
0.00101052
5.27208e-05
-0.00106324
0.00128826
-7.10686e-05
-0.00121719
-0.00227759
0.00214629
8.4497e-05
4.68066e-05
7.03748e-05
0.00146822
-7.18523e-05
-0.00146675
0.000909463
0.000458552
-0.00297749
0.00160948
-0.000630634
0.000630642
-7.87377e-09
0.000924177
2.11536e-06
-0.000926292
-4.62027e-07
-0.00055687
0.000557332
-0.000530775
0.00108031
0.000725926
-0.00127546
3.53976e-06
-0.00114346
0.000897111
0.000242805
-0.0012832
-0.000526044
-0.000468352
3.25573e-06
-0.000888555
-0.000132238
0.00101754
-0.000687381
1.28535e-05
0.000674527
0.00023501
0.000729254
-0.000237592
-0.000726672
0.000502839
-0.000895073
0.000392234
-0.000243039
-0.000833083
-0.000310437
0.00138656
0.000709491
0.000940625
0.000138604
-0.00178872
0.00185642
-0.000675175
-0.000601582
-0.000579662
-6.8069e-05
-0.00153316
0.0017869
-0.000185675
0.000735865
0.000387936
0.000212258
-0.00133606
0.0023203
0.00103343
-0.00217625
-0.00117748
-2.84148e-06
0.000587578
-0.000584737
-0.00137319
4.09097e-05
0.000317673
0.0010146
-0.00134583
-0.000149405
0.0015311
-3.58621e-05
0.000374626
-0.000468978
0.00191406
-0.000476427
0.000629244
-0.000152817
0.000937431
2.69511e-05
-0.000964382
0.000194419
0.000122375
-0.00123668
0.000919882
0.00131792
-0.00012962
-0.00122626
3.79568e-05
-0.00111346
-5.77828e-07
0.000237653
0.00032193
-0.00146054
0.00090096
-0.00135678
9.78332e-05
0.00125894
-5.3258e-05
-0.000949219
-0.000123767
0.00208953
0.000147246
-0.00211301
0.00111653
-0.00118251
6.59865e-05
-0.00119417
0.00118139
1.27769e-05
0.000959591
-0.00108336
0.000262536
0.00087631
0.0010891
-0.00222795
-0.00117263
-0.00064015
0.00181278
-9.07463e-06
0.00083622
-0.000827145
-1.95487e-05
-0.000909567
0.000929116
0.00111454
-0.00110761
-6.93442e-06
-0.00123529
4.739e-05
0.00124195
-5.4053e-05
0.000302124
-0.00139073
0.00106217
0.000693633
0.000583338
-0.00233806
0.00106109
0.00072123
4.94169e-06
-0.000726172
4.73513e-05
0.00136519
-0.00141254
0.00067203
2.42667e-06
-0.00153956
0.00137048
0.0012989
-0.00112982
-0.000969573
0.000122825
0.00124346
-0.000396716
0.00169645
-0.0024443
0.000590944
0.00015691
-0.00218966
0.000488187
-0.00104593
0.00115611
-0.000110185
2.5609e-05
-0.00115979
0.00113418
-0.00100316
-1.98336e-05
0.001023
-0.00117457
6.32648e-06
0.00116824
0.00112365
-0.00123202
0.000108374
1.49135e-05
0.00173324
-0.00174815
-0.000256879
-0.000234225
0.00124387
0.00123782
-0.00129279
-0.000883959
0.000938929
-0.000698683
0.000127297
0.00135656
-0.000785172
0.000666935
-0.00156867
-0.000101434
-7.29369e-05
0.00153347
-0.00146053
0.000454906
0.000424168
-0.000580049
-0.000299026
-0.000706408
0.00115819
-0.00139177
0.000939985
-0.00112416
-0.000426817
0.00155098
0.00227599
-0.00140373
-0.000872258
-0.000432104
0.00163508
0.00107132
-0.0022743
-0.0011865
0.00143902
-0.00143586
0.00118335
0.000508837
-0.000382302
-0.000584578
0.000458043
2.12446e-05
-1.36294e-05
-0.00127993
0.00127232
-0.000118097
-0.00180241
0.0019205
0.000404991
5.33174e-05
-0.00152678
0.00106847
-0.00150305
0.0011664
0.000336654
-0.000702811
-0.000351916
0.00101383
4.08984e-05
-0.00099104
0.000985994
5.04573e-06
0.000963452
-0.00081484
0.00120904
-1.03716e-05
-0.00157777
0.00158068
7.4572e-06
0.00304721
-0.000787984
-0.00152945
-0.000729782
-0.00047137
0.00166293
8.05479e-06
-0.00119962
-0.000550306
0.000819076
0.000457475
-0.000726244
-0.00132476
0.000778042
0.00137623
-0.000829506
0.000727334
-0.000868491
-0.000339456
0.00150751
3.9785e-05
-0.00120784
0.000906333
-0.000999647
0.000103563
-0.00213751
2.41285e-05
-2.11716e-05
0.00213456
-0.000297075
-8.38805e-05
-0.000799607
0.00118056
-0.00108433
0.0013948
-0.00110857
0.000798102
-0.00247903
-0.000334649
0.00260754
-0.00160752
2.28785e-05
0.00160921
-2.45687e-05
0.0010065
0.000162803
-0.000678802
-0.000490496
-0.000317626
-0.00123377
0.000655707
0.000895694
0.00106764
-0.000418624
-0.0014072
0.000758183
-0.00138755
-0.000357549
-3.10607e-05
0.00177616
0.00111012
-0.000136196
-0.00101856
4.46334e-05
0.000940177
-0.000944251
4.07418e-06
-0.000745353
0.00242683
-0.00201621
0.000334729
0.000156319
0.00143145
-0.00230355
0.000715775
-0.00094534
-0.00030783
0.000993417
0.000259753
0.000330083
-0.000316868
-0.000958555
0.000822378
3.31693e-05
0.000161047
-0.00101659
-8.82703e-05
0.000615862
-0.00266511
-0.00138856
2.84925e-05
0.00178201
-0.00042194
-0.00099518
0.00116129
-0.000166107
0.00048979
-0.000459338
-0.000649094
0.000618643
-0.00070064
-0.00128677
0.000808947
0.00117847
-0.000577181
0.00179592
-0.000661467
-0.000557272
-0.00148043
1.02785e-05
-0.00129566
0.00161546
-3.9136e-05
3.45042e-05
-0.00128133
0.00128597
0.00123744
0.00132698
-0.00141026
-0.00115416
0.000982109
-0.001013
3.08958e-05
0.00125368
-7.85461e-06
-0.00124582
0.00106973
-0.00124165
0.0003513
-0.000179385
-0.000312102
-0.000915161
0.00222068
-0.00164465
0.00141173
-0.000212792
0.000445708
0.000547163
-0.000744577
0.00176766
-0.00157024
-0.00157573
-0.0011498
0.00187364
0.000851896
-8.45264e-05
-0.00173661
0.000176488
0.000274849
-0.00144882
-1.18853e-05
0.00118585
0.00133499
0.00035159
0.00180881
-0.001584
-0.000594348
0.000369537
-0.00133912
0.00132917
0.00108383
-0.00107389
0.00101474
0.000502935
-0.00115184
-0.000365834
0.000508571
-0.00111698
0.00092768
-0.00031927
0.00139175
-0.00114098
-0.00181298
0.0015622
0.00145934
-0.00162442
8.05573e-05
-0.000901036
0.000905045
-4.00915e-06
0.000112616
-0.000102091
0.00151072
-0.0018049
0.00170269
-0.00140851
0.00111973
-0.00100711
0.00113741
-0.00122995
-3.75962e-05
0.000130134
-2.44457e-05
-0.000519487
0.000543932
-0.000123565
-0.00103695
0.00124388
-8.33745e-05
0.00191012
-0.0017191
0.000135773
-0.000326794
0.000204291
-0.00226694
0.000184035
0.00169608
-0.001736
-0.000187508
0.000227437
0.000371552
0.000279053
0.000461247
-0.00111185
-0.000100998
0.000948674
0.00092388
-0.00177156
-8.04575e-05
-0.00117137
-0.000325269
0.00157709
-0.000570265
0.00170887
-0.000464642
-0.000673962
-0.00106833
0.000453076
0.00168499
0.00104576
-0.00211862
0.00023226
0.000840598
-0.000305326
7.13927e-05
0.00193001
0.000313068
0.00142705
-0.000488626
-0.00125149
-5.18089e-05
5.40395e-05
-0.00123858
0.00123635
0.00185861
0.00010445
-1.30838e-05
-0.00194998
0.00103637
0.000454104
-0.000412055
-0.00107842
-0.00112278
-0.000479897
0.000534345
9.19243e-05
0.000648198
-0.000657843
-8.22794e-05
0.000189502
1.6349e-05
-0.0014475
0.00100858
-0.000527314
-0.000136938
-0.000344327
0.000148166
0.000701587
-9.81234e-05
-0.00075163
-0.00112207
0.000962892
0.00120495
0.000743302
-0.00323128
0.00062997
0.001858
0.000176843
-2.97912e-05
3.3002e-05
0.00127207
-0.00127528
0.00220461
-0.000708037
-0.000732166
-0.000764409
-0.00107577
1.35981e-05
0.00147791
-0.000415738
-0.000136316
-0.00103833
0.00125232
-7.76741e-05
0.00104301
-0.00142211
-0.000694695
0.0010738
-0.00098676
0.000958616
2.8143e-05
-2.94699e-05
0.000952371
-0.000922901
-0.000466133
-0.00109054
-0.000402454
0.00195913
-0.000809452
0.000906108
-9.66558e-05
-0.000152963
-0.00132768
-0.0003346
0.00181524
-0.0023432
0.000863881
-0.0012788
0.00275811
-0.00160392
3.71521e-05
0.00156677
0.000757879
0.000839144
-0.000810991
-0.000786032
0.000976153
-0.000559229
-0.000184669
-0.000232254
0.0013038
2.85037e-05
-0.0013323
0.00124572
-0.00372526
0.000136344
0.000845565
-3.13729e-05
-0.000814192
-0.00144446
-0.000572973
0.00194082
7.66146e-05
-0.000876887
0.00452867
-0.00277262
-0.00087917
-0.00263805
0.00317648
-0.000465196
-7.32294e-05
0.00157623
-0.000909134
0.00219199
-0.000771842
-0.00168096
0.0024829
-3.00965e-05
-4.82931e-06
-0.000121821
-0.000680343
0.000806993
0.00148785
0.00190747
-0.00216896
-0.00122636
-0.00152933
0.00180815
0.000496283
-0.000775111
0.00169575
-0.000310938
-0.000663193
-0.000721622
0.000144747
-0.00108547
-0.000188252
0.00112898
-0.00322223
9.97371e-05
0.00164921
0.00147328
-0.000591309
0.00225045
-0.000872468
-0.000786675
0.000382032
-0.000937514
0.00178661
-0.00123112
-0.000193154
-0.00055301
0.00104584
-0.000299677
-0.00091877
0.000977622
-6.24393e-05
3.58742e-06
0.00160063
-0.00180677
-8.66747e-05
0.000292814
-4.8739e-05
-0.00159581
0.00160845
3.61038e-05
0.000130399
-0.000116271
-0.00152642
0.00151229
0.00220871
-0.000362553
9.40443e-05
-0.0019402
-0.00145324
-0.000305386
0.000372918
0.00138571
0.000491613
-0.000491627
1.40171e-08
0.00108931
-0.000741139
0.000726793
0.000226328
0.0020868
-0.000124769
-0.00218836
-0.000332962
0.000224037
0.000277646
-0.000168721
-0.00162884
-0.00202539
0.00292801
-0.00115806
0.00132611
0.00126298
-0.00143103
-6.48925e-05
0.00129215
-0.00162993
0.00040267
-0.00123956
-0.00129808
-8.23622e-05
-0.000334369
0.00171481
-7.02389e-06
-0.000660541
0.000667564
-7.5924e-06
-0.000952227
0.00221978
-0.00125996
0.000650556
0.000916148
0.00163415
-0.000818767
7.64304e-05
-0.000891818
0.000717863
-0.000199439
-0.00119857
0.000680148
0.00090156
4.29137e-05
-0.00137383
0.000429359
-0.000648995
0.000537512
0.00203442
-0.00192294
0.00174325
0.00124582
0.000163176
-0.00315225
-0.00155846
-9.83659e-05
0.000315746
0.00134108
-0.00130656
0.00139169
-8.51245e-05
-9.11241e-05
0.000865388
-0.000129783
-0.00064448
-0.00026796
0.000551179
-0.000283219
0.00109025
0.00154933
-0.000695662
-0.00194392
0.000933097
-0.000934129
1.03165e-06
-0.00264369
0.000617082
0.00147719
0.000549418
0.000107161
-4.72226e-05
0.00128426
-0.0013442
0.000822245
3.41893e-06
-0.000825664
0.00168881
-0.00187528
-0.00120429
0.00139077
-0.00148672
-0.0028719
0.00171494
-0.000290455
0.000187613
0.00119565
-0.0010928
-0.000512316
0.00155843
-0.000164335
-0.000881782
0.000320282
-0.000846605
0.00124419
0.000973888
4.67337e-05
-0.00102062
0.00289242
-0.000699377
0.000171907
-0.00236495
0.00109293
0.000312772
0.000699757
-0.00167179
0.00080347
0.000168561
-0.00175988
4.98509e-05
0.00131954
0.000390488
-0.000328069
-0.000724049
0.000766931
0.000285187
0.0010311
-0.00132778
0.000296677
-0.000365138
-0.000709917
0.00107505
0.000910571
-0.000589644
-0.00103367
0.000712744
-0.000390022
-0.000216991
0.00156007
-0.000953057
-0.000766339
-0.00122496
0.000947757
0.00104354
-0.00150509
0.00137438
-2.53426e-05
0.000156053
-8.79504e-06
-0.000928719
-0.000225008
-0.000820707
0.00103525
1.04652e-05
0.00157
-0.00147643
0.000428707
-0.000522273
0.00238294
-0.00237115
0.00108114
-0.00041549
0.000456084
-4.05939e-05
-0.000871003
0.000859697
1.13068e-05
-7.86798e-05
0.00109046
0.00037255
-0.00138433
-0.000691258
-0.00108919
-0.00042971
0.00221015
-0.000645515
-0.00049605
0.00224165
-0.00110009
0.00110986
0.000297614
-0.00148616
-0.000214394
0.00165446
-0.000752223
-0.000687846
0.000235175
-0.00109262
-0.000478883
0.00133633
-0.000304484
0.000187172
-0.00152329
0.0016406
0.00151748
-0.00109888
-0.000839824
-0.00062663
-0.000186878
0.00165333
0.000452729
-0.000229691
-0.00022662
3.58238e-06
-0.00177938
0.00207583
-0.000211446
-8.50025e-05
0.000581178
0.000641814
-0.000610882
-0.000612109
-0.000244573
0.00126859
2.66664e-05
-0.00105069
0.00141763
6.0462e-05
-0.00126686
-0.000211236
-0.000175028
-0.00174098
-0.000431118
0.00234713
-0.000150276
0.00125956
-0.00110929
0.00152475
0.00129505
-0.00173591
-0.0010839
0.00101104
8.04273e-07
-0.00101184
0.000111312
-0.00133188
-0.000333243
0.00155381
0.00238337
-0.000340057
-0.00112024
-0.000923073
3.39298e-05
0.00239627
-4.68272e-05
0.00117146
-0.00111949
-5.19728e-05
-0.000421838
-0.000821599
0.00124344
0.00217765
-0.000581124
-0.00136857
-0.00101851
-0.000995942
0.0016744
9.48172e-05
0.000403
-0.00157212
0.0010743
5.65008e-05
-0.00135669
0.000848711
0.000451475
-6.6311e-06
0.0011825
6.85913e-06
-0.00118273
-0.00023026
-3.16394e-05
-0.00111781
-0.000294169
0.00141198
-1.88718e-05
-0.000970241
0.000989113
0.00207613
0.000157772
-0.00013318
-0.00210072
0.000869595
-0.00161069
0.000388198
0.000352896
0.000548511
1.34521e-06
-0.000549856
-0.00158317
0.000258331
-6.3945e-05
0.00138878
0.000566983
4.18725e-05
0.00123646
-0.00184532
-0.000582832
0.000629051
-0.00174775
0.00170153
0.000174483
-0.00022934
-0.00163485
0.0016897
0.00116268
-0.00108617
-0.00249663
0.000284741
0.000736547
-0.000751322
-0.000762022
0.000776797
-0.000672315
0.000675193
-2.87841e-06
-0.00159847
-0.000564553
0.00239542
-0.000343271
-0.0014876
-0.000931589
-0.000283283
0.00126393
-4.90538e-05
0.000268455
0.00151826
-0.000581399
-0.00120532
-0.00300911
-0.00252846
0.000197115
0.00242342
-9.20744e-05
0.00018
0.000129748
-0.00104291
0.000733158
0.00166675
-0.0015399
-0.00171992
0.00121511
0.000348057
-0.00156316
0.0017316
-0.00032016
-0.001239
-0.000172436
-0.00103543
-5.73703e-05
-0.000699093
0.00179189
0.00170077
-0.00143863
-0.000506291
0.000244153
7.4571e-05
0.000527364
-0.00162483
0.0010229
5.45868e-06
0.00088506
0.000135952
-0.00102647
-0.00082498
0.00105043
0.000296725
-0.000522171
1.23339e-05
0.00145331
-1.14929e-05
-0.00145415
-0.00109796
0.00111029
-0.00102338
-2.28535e-06
0.00102567
-0.00167015
-0.000154188
0.000417871
0.00140647
0.00117466
-0.00114862
0.000687407
-0.000713443
0.000289874
0.00102037
-0.00110174
-0.000208513
-0.00141381
0.00206931
-0.000238201
-0.000417301
0.000823453
-0.000786856
-3.65969e-05
1.60516e-05
0.000652591
0.0017143
-0.00138145
0.00117765
0.000507081
-0.000303277
-0.000340573
0.000758879
-0.000418306
-3.54515e-05
0.00118655
-0.0011511
-0.00185958
0.000705335
0.00036175
0.000792493
-0.00334
0.00243423
0.000921826
0.00247913
-0.000296427
-0.000424104
-0.0017586
0.00099169
0.000121638
0.000634621
-2.94358e-05
-0.000665032
5.98474e-05
0.000686735
-0.000538569
2.68059e-05
-0.00159544
0.00156863
-0.00275522
0.00197001
-0.000875207
0.00211122
-0.00142882
0.000192809
0.00144123
-0.00194935
0.000602936
0.00110791
-0.00202365
0.000390126
0.000525621
-0.00102909
0.00123599
-0.000206905
0.0021474
0.000449575
-5.29169e-06
-0.00259168
-0.00103152
0.00104044
-8.92481e-06
0.00280676
-0.00251556
0.000324668
0.00166339
-5.42776e-05
-0.00160911
0.00119366
-0.00121682
2.3156e-05
-0.00119337
0.000134073
0.00105929
-0.000459963
-0.00112921
0.000395802
-0.00244196