/*--------------------------------*- C++ -*----------------------------------*\
  =========                 |
  \\      /  F ield         | OpenFOAM: The Open Source CFD Toolbox
   \\    /   O peration     | Website:  https://openfoam.org
    \\  /    A nd           | Version:  10
     \\/     M anipulation  |
\*---------------------------------------------------------------------------*/
FoamFile
{
    format      ascii;
    class       volScalarField;
    location    "113";
    object      T;
}
// * * * * * * * * * * * * * * * * * * * * * * * * * * * * * * * * * * * * * //

dimensions      [0 0 0 1 0 0 0];

internalField   nonuniform List<scalar> 
59698
(
286.604
292.868
293.308
293.544
299.952
283.15
292.529
293.496
303.15
303.15
303.15
293.179
283.15
293.767
300.132
303.15
294.066
293.45
293.176
293.816
303.28
302.13
303.148
303.15
295.7
293.449
293.103
298.347
295.718
295.329
300.289
303.15
303.15
298.811
302.374
293.266
283.379
283.463
293.444
297.545
296.216
283.15
296.56
293.849
283.15
296.581
293.305
295.26
294.642
293.577
293.058
293.341
292.349
294.537
294.4
293.197
294.279
302.176
294.244
282.977
291.242
294.297
299.612
293.204
286.799
294.464
303.15
293.178
293.176
303.15
283.15
293.776
283.135
298.529
283.15
297.73
294.538
287.694
291.646
294.161
299.958
292.579
303.15
293.443
303.703
294.506
294.183
293.556
298.882
293.882
303.15
294.737
298.984
293.541
293.77
293.514
299.062
293.52
298.909
283.15
299.114
283.127
285.912
284.49
293.369
283.15
293.471
293.132
303.15
283.15
293.401
293.654
298.867
283.15
293.421
293.236
293.408
293.42
293.441
303.15
293.253
292.837
293.439
293.293
293.376
293.246
295.48
303.15
293.381
292.889
287.513
292.984
303.15
292.775
290.237
291.656
292.897
303.15
293.125
293.465
293.465
293.766
290.852
292.119
292.907
293.582
293.38
293.386
293.451
301.183
283.138
303.15
288.084
293.27
294.056
293.369
293.309
293.475
296.963
283.15
289.677
293.437
290.76
299.555
297.811
296.693
292.907
280.917
299.359
292.198
300.362
283.151
300.931
300.997
285.535
292.809
303.15
283.236
303.15
298.93
302.767
300.415
298.644
293.24
298.714
300.856
300.767
293.86
292.994
294.721
294.357
293.668
296.59
297.451
299.392
293.591
293.935
296.606
303.155
299.384
283.15
284.152
292.452
292.799
299.301
290.948
297.341
295.414
293.59
298.044
293.134
293.709
299.131
303.15
294.873
293.456
293.28
294.063
297.847
296.008
282.052
296.317
292.639
299.28
295.275
299.333
295.832
291.352
295.648
284.987
283.15
296.163
295.174
295.837
293.429
294.82
295.983
293.738
293.566
295.002
293.237
293.991
289.919
303.15
294.64
293.582
282.927
285.587
293.629
293.303
293.827
294.945
295.147
303.15
293.593
294.752
294.119
295.308
292.853
293.302
303.12
283.15
294.458
294.341
294.822
295.314
292.667
303.15
293.474
293.291
293.327
286.638
303.101
293.308
287.322
293.709
292.905
293.632
293.984
303.15
303.15
292.904
293.337
289.089
295.1
290.714
292.949
303.15
286.02
294.609
301.417
291.292
293.398
293.416
294.887
293.605
292.715
293.621
295.1
292.673
291.441
283.15
283.15
292.611
293.237
293.201
287.835
293.656
294.631
293.059
293.118
293.316
293.372
283.15
293.713
292.679
283.15
293.726
283.15
293.59
293.875
293.351
294.001
303.15
298.305
286.257
294.107
293.714
292.436
283.15
300.17
290.666
298.869
281.565
303.15
293.81
293.696
292.558
298.464
293.83
295.136
295.543
292.634
294.983
298.948
293.306
295.607
301.428
293.73
289.168
292.83
293.043
301.357
303.15
284.207
300.759
302.087
293.327
293.636
303.15
293.302
293.85
303.15
295.008
283.15
283.15
293.553
290.469
293.544
282.757
292.664
283.15
292.738
283.15
296.425
303.15
293.542
292.913
283.15
303.15
283.15
292.713
293.306
293.512
293.507
283.148
293.504
283.15
283.15
293.41
293.819
303.15
294.6
290.73
303.133
301.991
301.775
293.518
292.67
292.793
288.504
295.725
292.731
293.361
293.55
293.483
295.959
293.278
295.678
302.253
297.901
303.15
295.277
303.15
293.441
289.79
292.981
283.576
302.294
302.83
294.383
293.421
290.793
281.964
293.368
293.326
303.15
294.393
293.273
283.15
295.497
302.788
285.308
291.841
287.583
303.15
303.15
298.668
292.864
291.943
283.15
292.191
303.15
293.652
293.149
302.914
294.884
283.15
293.465
299.204
292.736
293.297
294.106
286.308
294.009
293.626
290.674
303.15
284.312
293.325
290.085
293.39
283.968
293.902
303.15
293.569
293.407
291.887
294.114
294.991
295.104
283.15
283.15
283.15
294.052
293.141
302.759
292.15
293.703
294.015
293.381
293.599
293.379
283.15
300.94
293.368
293.505
293.384
291.963
292.879
299.067
290.517
291.398
293.474
292.081
293.488
293.436
293.506
289.588
283.15
283.15
295.181
299.052
294.675
283.15
303.15
293.342
303.15
293.359
290.278
294.702
290.701
283.152
283.15
291.622
293.353
283.15
293.389
283.15
283.15
289.555
293.957
293.396
283.15
283.15
302.995
294.93
292.608
289.855
288.757
293.263
301.489
303.15
293.426
293.559
283.15
283.15
286.368
293.392
303.15
290.017
292.982
293.116
281.273
289.38
291.847
282.234
283.132
290.84
283.147
293.353
303.15
293.475
303.15
292.888
293.312
283.15
295.584
291.514
291.829
283.15
303.15
293.499
283.123
293.321
303.15
286.38
293.343
291.207
303.15
292.069
293.456
283.15
291.902
290.958
293.526
293.094
292.282
295.523
303.15
283.15
293.565
285.275
293.207
292.362
283.15
292.43
293.185
289.714
291.648
291.956
296.413
293.079
293.123
283.15
293.37
303.15
282.783
283.15
283.15
290.924
290.974
283.15
293.46
291.044
291.62
292.896
283.15
291.078
293.319
293.297
292.535
293.303
292.111
291.112
291.143
293.268
297.839
285.627
293.264
283.15
291.152
291.926
302.957
295.263
293.733
290.908
292.233
292.024
292.083
295.6
283.15
293.224
291.364
293.064
292.144
292.076
293.252
293.201
286.937
293.495
292.774
283.15
303.15
292.039
294.041
292.802
293.721
293.659
283.15
283.15
293.171
288.571
291.78
292
293.252
293.018
303.147
293.588
292.387
293.668
293.391
291.002
283.791
301.821
291.64
293.689
293.774
291.802
288.917
283.15
293.522
292.813
293.534
292.863
291.68
283.15
295.318
293.204
292.881
292.428
293.517
283.15
283.15
291.896
293.01
291.9
292.955
291.991
295.767
290.797
297.19
293.964
291.729
290.813
293.619
293.625
292.589
283.15
292.87
283.15
283.15
292.548
291.772
293.241
303.15
296.52
293.124
292.09
283.15
293.67
283.15
293.753
283.15
293.441
297.641
289.338
293.163
303.15
283.15
297.858
297.945
293.192
292.061
295.611
297.203
295.535
283.15
296.194
293.304
282.864
283.15
290.534
300.326
283.15
291.099
292.815
303.15
297.636
287.935
293.092
293.822
283.259
297.043
294.59
294.531
283.595
283.446
292.466
286.011
293.06
296.893
293.733
298.132
283.15
292.919
290.27
295.042
303.15
293.418
296.884
283.15
298.217
295.935
292.317
293.847
296.738
293.148
283.15
294.926
294.549
283.15
283.15
292.344
283.15
289.439
293.559
292.41
294.526
294.543
297.428
283.15
293.668
290.46
294.871
295.289
295.318
283.15
284.363
298.842
293.574
288.64
297.665
301.096
293.495
302.768
283.15
283.15
283.15
292.666
292.764
283.15
292.554
293.575
298.051
283.164
292.521
291.711
283.15
282.349
283.15
283.15
292.576
283.15
303.102
298.488
303.15
292.551
284.56
288.625
292.546
282.18
293.472
283.227
283.15
283.15
291.27
294.727
296.69
283.15
295.804
292.657
292.67
283.15
292.655
292.683
283.162
283.15
283.132
283.173
303.15
283.15
283.15
283.15
283.15
291.184
292.952
291.047
283.15
294.64
293.276
283.15
285.389
283.15
292.754
283.15
299.439
295.181
291.977
292.587
292.758
295.876
303.15
295.879
292.892
283.15
292.597
283.149
293.313
283.15
292.047
283.15
284.109
283.15
290.383
283.15
293.504
291.774
294.913
292.687
291.904
292.715
292.101
283.15
283.15
292.709
293.547
293.045
293.215
283.15
294.323
296.329
296.017
283.15
294.117
295.07
293.419
296.746
303.15
283.15
295.891
292.368
283.15
292.946
293.415
283.15
295.886
292.792
293.137
293.574
283.15
293.26
293.338
283.15
303.15
293.039
292.954
292.888
295.887
297.651
294.001
296.674
290.215
294.985
295.609
293.565
291.431
290.739
286.594
292.112
283.15
289.764
283.15
296.558
295.753
291.919
290.3
283.15
283.15
297.547
291.278
290.054
296.118
296.762
293.398
295.394
285.339
294.017
293.187
293.361
283.15
293.38
292.938
293.24
293.064
293.292
293.395
303.15
293.341
293.497
294.487
303.15
293.562
296.667
294.177
293.516
293.857
294.463
295.682
292.888
303.15
303.15
283.15
295.554
283.15
293.574
291.471
302.704
298.553
293.046
295.019
302.155
297.862
294.928
295.849
293.715
293.132
295.688
293.881
290.674
287.773
294.115
283.15
293.136
303.15
283.168
294.722
300.405
294.704
303.15
303.15
292.73
293.394
294.905
292.727
293.006
292.633
283.15
293.741
293.22
298.355
283.15
294.558
295.251
302.801
293.051
293.696
302.797
293.208
293.537
302.806
292.738
294.567
295.186
296.452
295.374
296.002
295.19
293.479
292.91
303.15
295.491
296.54
293.256
283.15
293.21
297.709
293.096
293.632
293.126
295.353
292.795
287.741
294.506
291.018
292.828
303.15
293.574
288.107
283.15
303.15
294.046
294.203
295.983
294.326
289.34
303.15
303.15
293.11
283.15
295.024
294.444
294.315
294.431
293.951
303.15
303.15
284.11
294.319
295.124
303.15
294.082
296.153
303.15
282.446
292.917
283.566
291.987
294.36
292.923
293.21
294.108
303.15
293.781
291.73
293.102
292.934
293.001
293.566
294.39
301.06
303.15
297.257
302.91
293.025
301.674
287.109
291.091
295.271
297.732
297.176
289.463
289.164
293.329
283.15
288.108
292.878
303.15
293.338
300.988
293.129
294.508
294.324
294.94
283.15
302.396
289.607
294.815
294.647
292.519
283.15
303.15
293.515
286.772
283.15
292.942
292.982
294.666
293.476
304.93
293.337
295.046
292.736
295.298
293.403
287.087
294.944
303.15
292.728
292.91
292.917
290.194
293.281
300.811
301.121
293.37
295.894
299.116
302.606
293.684
293.372
293.055
302.574
287.721
300.256
291.913
292.137
295.94
295.794
295.397
293.307
295.261
303.15
286.074
298.849
295.796
293.752
292.991
297.237
293.719
298.997
293.77
293.132
293.659
293.574
303.15
293.358
303.15
292.582
292.865
294.041
292.085
293.175
285.411
292.806
303.15
294.479
291.961
288.946
292.438
293.379
303.15
303.15
293.554
293.425
283.15
303.15
293.133
293.51
294.144
283.15
303.15
292.816
293.318
293.284
292.955
285.252
292.619
283.15
284.961
303.15
293.43
283.15
303.143
303.15
297.274
290.53
293.222
297.357
296.699
292.333
303.15
293.34
293.346
296.911
282.326
296.661
293.037
303.15
293.388
303.15
296.783
284.582
283.15
291.18
297.605
293.495
302.759
297.493
295.759
297.458
291.412
297.627
283.15
283.15
297.491
297.424
294.318
303.15
292.81
291.918
293.735
293.667
294.081
294.363
294.161
293.334
291.255
293.251
300.611
285.611
297.021
303.023
293.205
303.15
294.741
283.15
299.949
303.15
303.15
293.498
283.15
300.653
293.198
283.15
303.15
292.054
292.899
303.15
293.493
291.789
293.096
293.674
302.96
303.15
297.46
293.756
283.15
289.039
292.017
293.171
283.097
303.15
293.122
303.15
293.205
303.15
293.153
297.88
297.779
296.96
297.553
294.289
293.144
286.81
293.749
283.15
292.023
298.046
294.834
296.658
283.15
301.149
293.203
303.15
293.317
297.013
296.29
303.15
303.15
293.283
288.94
287.349
294.314
289.22
289.622
303.15
303.15
283.15
292.113
287.799
303.15
299.762
303.15
287.573
303.15
303.15
303.15
291.698
290.746
299.279
303.15
292.592
292.929
303.15
291.92
287.301
282.681
293.723
283.728
295.843
291.699
292.133
283.312
293.657
292.228
303.15
303.15
285.176
288.658
292.709
283.574
283.282
292.915
289.886
293.125
283.15
295.285
291.704
294.637
287.703
285.224
293.937
303.15
292.229
284.066
290.957
294.015
300.93
291.98
292.39
292.556
293.509
298.082
292.205
292.922
293.496
283.9
286.79
283.78
292.979
284.859
292.867
284.22
303.15
294.008
290.563
288.473
292.578
303.112
303.15
293.393
284.408
294.781
300.631
284.979
285.127
298.415
294.551
284.946
282.312
294.006
303.15
287.369
283.15
283.13
285.155
303.15
297.621
283.151
292.995
303.15
284.929
300.027
303.15
283.15
289.269
295.102
296.478
297.836
283.514
303.15
285.252
291.854
293.362
283.15
293.917
283.15
303.125
293.454
303.15
294.339
293.464
292.613
293.425
293.425
293.574
300.141
298.995
285.916
283.138
299.321
293.601
299.424
303.15
283.15
293.377
296.301
285.77
292.942
292.788
288.102
293.753
293.563
293.153
293.548
293.54
296.754
303.15
293.687
293.547
303.15
288.566
293.574
283.15
288.195
303.15
296.129
293.573
303.15
296.851
302.678
290.226
292.504
286.897
288.131
303.15
283.15
303.15
283.15
283.15
294.164
293.577
283.14
291.909
283.207
303.15
288.31
288.773
287.968
294.278
288.268
294.9
289.063
286.221
303.15
287.406
291.754
292.992
303.15
300.565
292.907
289.59
303.228
303.15
299.147
293.499
290.462
303.15
293.432
290.514
293.502
297.733
297.156
290.17
295.052
303.15
303.15
290.273
290.297
283.915
295.157
283.151
283.569
303.15
283.791
290.228
303.15
283.15
283.002
283.15
290.353
299.827
303.15
290.328
303.15
303.15
283.658
293.804
283.15
283.149
303.15
293.267
292.423
303.15
303.15
291.365
283.127
290.959
303.15
283.139
293.464
290.993
290.993
300.721
283.15
290.996
303.15
294.735
294.237
303.15
303.15
303.15
292.523
283.15
291.127
291.878
303.15
283.14
291.298
303.15
303.15
303.15
292.417
283.15
293.581
283.15
293.788
291.629
283.15
296.14
303.15
283.15
291.549
291.43
291.412
294.083
283.15
293.468
291.777
291.823
293.856
283.14
283.15
303.15
283.15
283.15
283.15
292.968
303.15
293.617
294.242
303.15
285.3
293.662
293.203
293.484
292.945
293.561
297.206
292.992
296.725
295.915
292.532
293.473
292.956
292.189
292.279
293.479
292.183
298.951
293.639
287.29
293.244
304.952
284
292.368
300.345
283.134
293.554
291.738
303.15
294.34
296.493
295.226
292.629
301.436
296.21
292.199
298.959
293.109
302.823
297.597
300.38
292.318
285.249
294.214
289.31
294.344
295.91
297.379
292.777
296.657
283.15
293.223
294.761
292.783
283.143
299.561
293.017
288.106
293.087
283.15
297.893
293.725
283.15
293.604
292.494
292.976
295.067
283.15
293.105
298.416
293.736
300.336
292.88
294.444
292.871
293.613
298.455
291.699
292.485
284.621
293.489
292.676
293.362
283.15
303.15
292.494
297.13
298.075
301.561
283.46
292.5
292.852
293.565
292.406
292.399
303.151
291.675
293.653
292.541
283.139
292.59
292.569
292.802
301.985
293.902
292.684
303.187
293.705
293.171
283.15
299.002
292.839
302.1
302.826
294.669
292.768
293.238
292.055
293.427
292.682
293.536
283.15
293.223
292.675
295.149
302.943
293.046
288.185
293
298.911
293.006
283.158
293.132
292.338
293.464
292.697
295.255
293.325
302.927
293.27
292.682
291.267
298.235
302.944
293.281
292.722
292.742
298.509
294.069
294.315
288.188
289.742
293.35
294.46
289.077
294.119
292.919
289.334
302.814
292.836
293.355
289.429
293.385
293.299
294.023
299.711
292.777
294.614
292.217
293.467
292.811
293.136
292.791
295.051
287.183
298.568
299.528
289.329
293.072
293.175
294.783
295.975
293.356
292.771
293.335
298.69
285.523
293.077
292.927
292.821
292.812
292.82
296.22
287.994
296.577
293.337
292.863
293.167
299.576
303.15
293.411
292.859
292.991
296.958
293.403
299.694
292.872
293.411
292.856
292.859
299.655
293.625
292.894
301.302
292.078
283.15
293.153
294.342
292.003
289.336
293.416
303.15
294.297
301.437
293.456
293.19
292.889
283.15
293.295
301.371
287.258
290.35
292.986
283.15
283.228
295.956
293.133
283.15
298.926
291.965
290.401
290.569
283.15
303.15
298.524
293.431
294.398
295.704
295.018
301.377
293.369
301.182
295.291
293.019
292.088
303.15
293.611
300.057
295.448
295.692
291.923
302.833
286.646
295.645
293.888
292.401
296.205
295.416
283.15
291.139
292.611
295.755
294.106
293.069
293.357
292.659
296.432
296.073
295.226
296.197
294.299
295.777
294.788
292.939
291.981
295.611
295.813
296.771
300.256
297.339
297.453
297.95
301.249
293.07
303.146
283.147
290.489
283.15
292.64
301.796
303.551
295.261
303.01
303.129
291.142
283.15
292.092
292.665
290.856
293.137
300.598
283.15
291.103
303.15
293.066
293.478
293.616
301.073
295.237
293.166
302.015
294.057
289.229
302.272
286.673
295.409
291.733
292.617
294.648
300.556
302.96
293.23
289.819
289.043
294.07
295.288
294.649
295.879
292.848
293.226
292.549
294.208
294.248
295.784
291.134
292.941
292.972
293.774
292.975
293.431
290.954
294.087
292.896
292.177
293.346
293.395
294.701
293.338
293.348
293.55
286.566
302.176
291.961
299.933
296.661
294.71
292.824
295.973
303.15
293.175
293.139
292.953
295.298
296.776
295.482
294.339
298.703
288.437
293.318
283.142
292.923
291.349
291.609
293.349
293.35
292.66
293.354
296.164
297.889
300.888
295.599
294.841
293.511
292.831
293.846
295.389
293.747
295.507
294.701
289.676
293.415
295.693
300.951
296.723
293.434
303.15
292.596
295.698
293.366
294.722
283.15
293.637
292.379
293.478
290.612
292.993
293.639
293.602
292.913
293.277
295.199
293.161
295.386
290.858
292.435
293.63
283.15
293.636
292.239
293.739
293.569
295.103
295.185
293.165
293.158
295.479
293.015
292.991
296.655
296.187
293.433
297.935
292.878
293.912
293.365
293.695
293.668
292.317
296.018
293.074
296.426
295.429
294.965
299.988
292.901
296.149
295.11
296.785
295.665
293.662
292.867
293.028
292.971
292.816
293.412
303.15
294.006
289.372
283.15
283.15
292.522
292.941
293.223
299.297
292.977
292.9
293.55
293.787
292.915
292.617
292.833
300.854
286.361
287.364
293.277
293.892
293.73
292.939
294.223
292.823
283.15
292.971
291.724
295.914
293.281
293.196
292.711
284.19
288.497
292.318
294.622
293.443
293.31
303.15
293.169
293.606
293.774
293.252
292.014
292.972
293.163
293.494
303.15
287.152
291.361
293.442
293.29
293.652
292.019
293.513
291.374
290.508
283.15
283.15
294.589
293.42
291.663
294.156
293.505
291.589
293.115
293.613
293.097
303.15
283.411
292.814
293.59
290.626
292.721
295.844
293.205
292.073
285.214
292.973
289.292
295.572
291.023
293.907
302.028
294.377
293.605
283.15
294.279
293.2
296.899
293.818
300.508
291.966
301.266
292.648
297.61
292.809
294.612
293.399
293.75
293.437
293.932
295.032
292.926
293.411
293.359
292.992
293.457
292.188
292.987
293.458
293.455
293.459
292.77
292.069
299.359
293.972
293.882
283.15
283.15
291.124
292.775
294.357
294.574
294.048
291.631
292.199
293.623
292.327
294.097
289.77
292.798
292.177
292.132
292.796
292.991
293.605
290.943
293.092
302.66
290.514
292.685
296.795
293.348
285.563
293.405
298.653
303.387
296.195
293.646
293.176
293.119
298.421
293.782
290.069
292.88
293.941
286.384
285.962
292.732
292.755
293.284
292.941
294.03
293.386
292.773
293.742
293.556
293.059
294.731
294.951
293.374
292.261
292.254
293.062
293.692
293.71
293.382
292.729
292.942
293.271
293.265
293.393
292.94
303.15
303.15
292.776
291.991
295.685
293.267
292.88
293.103
296.997
293.319
291.968
293.538
293.509
291.25
290.809
292.8
290.873
292.734
293.68
292.616
295.393
295.466
293.309
294.524
294.508
293.761
292.728
303.241
293.155
303.15
292.834
291.766
292.739
296.092
292.965
293.376
293.151
292.605
291.147
294.38
294.511
283.15
303.15
282.892
292.772
301.984
284.048
303.15
293.365
300.872
294.263
283.15
291.753
293.053
292.88
293.046
303.15
303.15
293.354
283.15
296.67
293.319
295.555
294.345
294.942
293.89
292.697
296.774
293.282
283.15
300.787
303.15
303.15
297.789
293.858
294.85
294.738
293.014
283.15
300.971
292.103
293.209
291.234
291.798
303.15
293.165
292.95
293.21
291.014
292.792
300.84
292.803
292.668
292.656
294.453
292.201
292.684
283.15
292.167
293.717
292.686
296.691
301.949
302.709
293.574
295.794
293.65
293.213
291.446
292.105
300.573
293.039
283.15
291.818
290.468
290.343
290.516
291.801
290.476
283.15
303.15
297.111
293.292
292.5
295.103
291.545
297.958
283.146
293.497
283.666
293.457
293.465
292.987
293.294
293.357
293.349
292.173
294.96
303.15
295.673
284.939
292.875
297.801
298.036
293.773
292.08
293.351
298.075
293.374
296.187
293.418
292.439
298.679
292.776
294.563
298.112
294.131
296.552
293.867
293.349
293.352
297.004
293.302
293.053
291.94
292.562
293.078
293.3
292.748
291.938
291.512
291.253
293.716
295.873
292.069
283.15
292.534
293.419
291.862
299.67
291.871
294.104
286.321
291.134
290.762
292.059
293.87
292.801
293.494
292.377
293.395
292.749
293.201
283.15
290.843
293.397
296.842
292.614
296.33
294.093
295.976
297.512
295.573
287.432
297.25
294.024
295.387
293.2
294.176
297.509
292.758
292.608
293.417
292.773
290.558
294.816
293.356
293.842
293.57
283.15
290.09
292.472
293.605
293.402
293.17
293.275
292.311
293.098
293.711
293.276
295.599
298.738
292.843
302.765
301.076
303.15
293.804
294.235
293.401
295.413
293.445
295.137
293.735
293.672
292.107
302.51
283.15
298.125
290.028
294.393
292.767
300.311
292.96
288.361
300.867
287.193
290.686
290.299
292.991
283.116
291.997
289.932
282.401
293.563
293.485
293.612
296.768
292.318
284.903
291.408
302.412
292.656
292.301
297.4
303.18
293.035
291.648
294.836
290.911
292.731
293.497
293.226
284.325
293.242
294.576
293.104
293.172
291.427
293.447
293.841
293.039
292.965
293.588
300.294
293.15
293.538
293.597
294.649
300.44
290.233
293.589
292.965
298.926
293.376
292.401
293.477
283.221
283.15
297.197
293.225
285.065
297.045
283.144
291.981
292.09
298.593
293.578
292.453
290.648
293.317
283.15
283.149
292.386
293.21
282.637
291.897
292.099
292.44
303.151
293.612
293.217
293.631
286.006
293.093
292.386
292.095
297.342
285.99
283.742
293.363
284.418
283.289
293.773
293.674
293.795
292.317
284.348
293.853
293.376
289.458
297.406
287.175
291.301
291.968
293.57
295.702
292.823
296.337
293.139
293.34
293.363
296.749
292.717
303.15
287.449
294.987
285.594
293.843
285.81
292.045
296.629
287.977
293.055
303.15
286.253
292.077
288.242
285.272
285.174
290.775
285.471
288.58
291.917
294.513
295.582
292.6
289.255
294.611
294.002
293.05
294.639
293.006
293.069
293.932
288.525
299.562
288.969
288.38
287.416
292.956
286.465
302.41
291.906
295.182
292.98
293.451
294.82
291.006
291.246
293.36
293.455
295.85
283.15
292.506
291.783
293.251
283.15
283.15
302.59
296.428
286.892
293.379
293.62
294.453
293.925
303.103
283.15
292.355
293.455
294.409
292.483
292.74
293.442
292.133
284.086
299.068
291.816
293.564
291.556
293.925
290.922
293.935
300.082
292.614
299.602
291.842
299.155
299.208
302.346
302.079
299.489
299.694
299.539
289.051
293.377
292.46
291.828
292.881
288.848
293.547
294.175
290.625
292.548
285.6
292.296
292.826
291.582
289.995
293.517
291.23
301.03
293.611
299.962
301.464
289.118
293.458
293.755
291.98
290.275
299.032
290.778
292.414
293.638
292.125
283.15
292.03
292.099
293.18
293.887
292.968
292.121
290.844
292.78
290.854
292.178
293.901
293.114
292.829
292.122
297.391
293.441
291.745
293.321
292.637
292.186
295.915
283.15
292.867
293.087
292.131
293.625
290.965
293.084
292.852
293.009
301.888
302.252
294.634
293.483
301.129
304.62
292.446
302.215
302.158
293.47
292.458
292.987
293.157
302.351
294.175
292.906
293.121
302.349
293.524
293.692
292.608
292.479
292.781
294.117
293.206
303.08
293.485
296.173
292.788
292.506
292.552
292.545
293.108
292.497
290.511
292.511
293.148
293.048
293.035
294.123
293.049
299.263
292.821
292.67
293.22
287.044
301.44
293.436
301.096
291.183
300.516
293.207
301.537
283.15
298.686
293.282
290.915
290.417
296.688
298.683
297.847
294.211
292.806
293.562
300.203
292.813
291.799
298.932
292.835
283.151
292.944
284.22
299.027
287.9
299.043
291.66
293.107
293.783
295.779
293.198
293.253
292.674
296.741
289.169
295.19
292.976
297.326
292.86
292.881
298.129
297.062
291.264
291.818
297.134
290.292
287.442
297.545
298.822
303.15
292.207
285.561
293.554
304.28
291.265
287.606
296.074
283.15
296.479
283.15
291.652
294.752
297.506
293.028
292.297
293.741
292.173
292.243
293.895
294.096
301.818
283.15
296.484
286.149
297.294
292.654
294.45
292.66
301.921
294.083
295.021
294.902
288.691
295.595
300.129
292.676
292.648
293.463
293.612
299.359
296.608
292.564
292.556
290.752
292.794
294.541
294.232
303.144
295.582
295.688
290.651
299.162
290.291
293.487
303.15
293.36
283.15
293.308
293.316
286.938
294.916
292.374
293.181
292.325
291.097
283.15
293.514
287.957
292.802
294.365
291.292
292.796
289.749
293.407
298.279
295.801
300.579
291.77
293.401
293.023
294.069
284.602
296.427
297.12
292.196
296.639
293.732
296.62
297.112
300.246
295.155
294.378
290.566
292.72
292.735
303.108
303.15
292.878
295.389
290.326
293.448
292.98
303.15
303.15
293.952
294.789
293.442
295.099
295.229
287.262
295.087
294.703
295.176
295.231
295.835
289.757
291.715
292.533
298.646
293.486
293.981
293.035
292.967
302.506
290.592
293.624
292.56
294.04
292.964
283.15
292.829
292.347
292.964
293.997
291.65
293.243
302.709
293.252
293.246
298.264
295.64
303.15
288.104
297.62
300.899
293.644
292.39
295.837
295.994
293.492
294.073
293.256
294.741
292.658
292.947
291.695
296.366
292.355
293.718
297.256
293.4
297.039
293.492
292.411
293.087
293.107
293.451
294.054
295.574
295.031
293.488
300.802
295.227
292.183
292.246
293.244
293.374
293.268
293.099
292.348
289.492
293.283
291.995
303.15
293.492
293.55
294.255
294.706
292.805
293.258
302.476
295.149
297.409
289.873
289.774
293.274
293.465
293.788
293.699
294.153
290.417
293.45
293.285
293.336
292.911
293.001
293.458
293.349
292.959
294.291
295.603
285.179
291.734
291.993
294.499
294.385
293.147
295.974
295.664
295.903
295.668
295.004
295.663
293.424
295.392
295.333
290.228
292.117
291.503
295.213
293.123
294.781
293.028
302.968
294.653
295.684
296.841
285.48
295.172
290.262
285.427
293.312
290.287
293.754
292.034
282.851
293.296
295.003
292.765
292.892
300.07
297.302
283.146
297.867
292.75
300.964
290.296
293.525
293.244
293.572
301.326
296.122
293.604
291.783
295.246
293.153
283.15
294.646
292.584
293.589
293.076
295.597
292.571
293.195
292.314
293.255
293.67
291.943
294.994
292.789
290.909
293.239
293.395
291.117
293.483
290.435
289.492
292.982
296.967
293.221
297.622
286.668
293.322
299.373
290.22
293.371
303.2
293.394
292.771
293.293
294.593
293.039
283.15
289.774
293.35
293.144
294.367
292.619
290.819
291.368
287.295
290.07
297.476
295.796
293.538
297.28
283.599
292.695
288.682
303.15
297.598
293.006
292.282
292.771
294.251
293.114
294.304
292.825
298.149
290.164
303.15
290.136
289.598
287.535
289.975
289.549
291.992
286.328
303.15
292.124
289.7
286.597
292.771
292.838
292.436
293.042
289.994
296.718
293.364
293.245
292.801
293.841
293.766
301.587
292.631
288.68
292.759
293.499
296.618
292.576
294.98
293.392
300.898
292.988
292.825
294.087
293.362
293.877
286.247
295.421
293.77
295.896
293.475
293.823
293.606
302.453
293.041
293.37
295.44
303.115
293.146
294.445
283.15
293.835
296.744
289.413
293.299
291.565
293.659
295.7
293.554
293.882
295.703
294.579
296.588
293.322
293.734
292.997
293.655
303.15
293.606
293.346
293.567
292.846
293.722
293.284
292.98
292.644
287.483
283.188
292.538
293.897
293.072
293.666
290.31
294.442
293.667
293.454
292.829
293.313
293.211
293.271
292.976
292.975
292.977
294.286
293.333
293.403
293.125
294.407
292.369
298.824
290.609
293.75
296.536
293.659
293.779
296.891
297.078
296.909
293.345
292.749
291.794
292.28
293.661
292.91
297.201
287.572
301.626
293.573
292.282
293.767
293.102
292.926
291.728
291.547
293.335
291.696
292.808
293.606
287.043
294.357
288.505
295.192
292.987
291.989
293.544
293.204
293.023
283.15
283.15
292.893
290.046
296.738
293.079
293.183
293.037
293.003
293.207
290.988
296.134
293.564
291.727
283.15
293.708
293.594
291.636
290.987
286.739
287.815
288.536
291.266
291.327
297.694
294.161
294.195
294.441
300.988
285.013
295.933
294.453
285.039
284.921
293.024
293.196
290.697
291.432
296.451
293.161
283.15
291.203
293.431
297.49
285.007
293.647
291.134
295.807
296.933
289.211
292.231
293.929
300.243
293.379
301.696
294.029
292.719
292.56
293.832
293.448
294.119
291.095
293.666
284.099
291.123
293.632
292.664
294.006
293.471
293.004
293.335
293.483
293.717
292.341
293.037
283.72
292.129
293.159
293.939
293.628
284.775
292.069
293.449
283.15
293.386
294.181
294.103
293.484
293.376
293.736
293.201
293.671
301.233
283.569
292.911
288.402
283.15
293.534
288.449
293.534
293.433
293.864
283.15
293.071
293.245
293.302
283.15
293.907
293.235
293.438
292.895
293.818
286.955
293.969
293.468
293.378
293.319
292.785
293.962
292.787
294.098
283.15
293.355
292.961
293.417
293.237
294.246
293.174
293.875
293.722
286.994
293.673
293.443
294.578
294.163
294.015
294.105
294.469
293.461
290.615
294.083
293.621
292.17
294.136
293.774
294.2
293.398
302.495
294.504
295.199
297.198
293.363
295.382
293.391
292.841
283.15
293.666
293.344
295.68
293.321
291.749
296.678
293.53
290.916
298.884
292.076
291.793
290.551
290.806
294.231
292.68
292.627
293.45
283.15
293.318
292.677
292.591
292.606
292.606
292.519
293.396
293.639
293.766
293.342
293.66
293.748
293.477
293.34
293.16
292.221
292.815
293.473
292.424
292.487
293.466
293.087
293.384
295.012
292.967
292.64
294.623
294.113
293.609
294.375
292.64
293.646
293.576
293.721
293.449
284.89
293.721
292.787
292.965
292.902
283.73
293.206
293.32
283.215
284.924
283.15
293.406
293.448
283.746
293.164
293.119
283.15
284.996
290.099
293.366
293.456
292.742
293.8
294.094
294.196
294.094
294.112
294.164
293.271
293.417
293.349
285.295
293.468
289.575
285.498
285.341
290.976
293.995
293.65
293.289
294.118
294.046
294.464
292.974
290.264
293.522
293.587
293.665
291.617
294.138
293.395
293.611
294.299
293.889
293.503
293.627
294.033
293.478
291.42
293.594
293.366
293.835
294.353
293.05
293.596
283.15
292.663
293.151
293.342
293.492
290.62
293.968
292.307
289.995
293.415
293.608
293.166
292.67
288.734
291.639
289.236
301.694
295.528
289.025
293.264
292.796
296.053
293.459
292.965
290.267
293.127
289.02
293.441
291.686
293.28
296.333
288.937
303.15
293.522
293.384
294.053
288.739
295.603
291.083
293.787
290.808
290.979
300.441
283.209
290.838
295.203
293.574
293.784
293.525
290.599
294.372
293.775
293.098
293.62
291.43
293.563
289.669
291.999
293.976
283.15
284.914
289.142
291.542
293.795
291.372
292.736
292.617
292.635
293.569
285.768
287.997
292.51
293.677
293.701
294.262
303.15
292.611
293.657
296.865
303.15
288.246
293.287
294.027
293.274
290.432
291.742
292.654
288.967
294.029
292.688
285.25
295.335
283.15
293.667
293.24
293.585
293.443
293.564
294.198
293.547
293.766
293.141
293.869
299.046
292.583
292.031
292.148
294.899
292.314
292.775
286.516
293.018
294.086
292.392
303.15
293.623
293.611
283.194
292.351
293.228
293.519
291.237
293.422
293.102
293.055
293.841
293.44
294.735
293.441
292.665
291.901
293.307
291.784
293.436
293.561
293.591
293.422
294.364
293.427
293.968
293.314
294.052
293.953
294.06
293.124
293.08
293.214
292.318
293.729
293.461