/*--------------------------------*- C++ -*----------------------------------*\
  =========                 |
  \\      /  F ield         | OpenFOAM: The Open Source CFD Toolbox
   \\    /   O peration     | Website:  https://openfoam.org
    \\  /    A nd           | Version:  10
     \\/     M anipulation  |
\*---------------------------------------------------------------------------*/
FoamFile
{
    format      ascii;
    class       volVectorField;
    location    "1.9";
    object      U;
}
// * * * * * * * * * * * * * * * * * * * * * * * * * * * * * * * * * * * * * //

dimensions      [0 1 -1 0 0 0 0];

internalField   nonuniform List<vector> 
111485
(
(1.66375 -1.66178 0.00225932)
(4.68157 0.00161931 -0.0046729)
(4.69922 0.00315075 0.00243061)
(1.66098 -1.66542 -0.000471514)
(4.69933 -0.00342086 0.000966519)
(1.66724 1.6625 0.00198003)
(4.70024 0.00138507 -0.00425103)
(4.69433 -0.00180869 0.00257501)
(4.70864 0.00159891 0.00176245)
(4.70825 -0.00837089 0.000762753)
(4.70593 -0.000757895 0.00264161)
(4.70818 0.000421914 0.00253727)
(4.70847 0.00200005 0.00812913)
(4.67432 -0.00455874 -0.00592852)
(4.69593 -0.00155898 0.00229499)
(4.67264 0.00792463 -0.0113279)
(4.67237 0.00763334 0.0092565)
(1.67172 -0.138259 0.281004)
(4.70779 0.00168491 0.000413561)
(1.64985 -1.64473 -0.000914961)
(1.65362 -1.64542 0.00757795)
(1.66539 1.66647 0.00301589)
(4.70274 0.000736595 -0.000716377)
(4.68446 -0.00716559 -0.000394867)
(4.66597 -0.000658154 -0.00514167)
(1.66969 -1.66977 -0.00367699)
(4.73221 0.000451567 0.00237047)
(4.69665 -0.000363402 -0.00597009)
(4.70414 -0.00317182 0.00321345)
(1.65764 -1.65971 0.00768895)
(4.85833 0.0886206 -0.0289509)
(4.68813 0.000118169 0.00213659)
(1.65019 -1.64998 0.00205884)
(1.6713 1.66644 0.000173556)
(1.70575 0.674443 0.281158)
(1.67512 1.68561 -0.0281919)
(4.83405 0.0785536 -0.0357046)
(4.6805 0.00069826 0.0315197)
(4.85014 1.4476 0.0921207)
(4.68488 -0.00172849 0.00383944)
(1.64579 1.66221 -0.0247658)
(4.74404 0.00116428 -0.0113218)
(4.68543 0.00153923 0.00135817)
(4.65796 0.000340124 -0.0192191)
(4.89073 -0.0902248 -0.0422539)
(1.67342 -1.66267 -0.00186531)
(4.78247 -0.0120515 0.0144374)
(4.68687 -0.00355105 0.000227528)
(4.73746 -0.00781605 -0.0108323)
(1.65163 -1.63515 0.00531732)
(1.6535 -1.63877 0.0103024)
(1.90588 1.59353 0.0286532)
(1.64397 -1.63745 0.0092626)
(4.82005 0.0154573 -0.0195551)
(1.63685 -1.63089 0.00545203)
(4.70548 0.00219078 -0.00441495)
(4.69392 -0.00120522 0.00278803)
(1.66063 1.67075 0.00463869)
(4.49764 -0.0154116 -0.0344128)
(4.69548 0.000259271 -0.00232538)
(4.69587 0.000629577 -0.00247255)
(1.65775 -1.66148 0.00142859)
(4.67435 -0.0173974 -0.00695715)
(4.86667 0.0182414 0.020027)
(1.72862 1.56361 0.0055339)
(4.70132 -0.00234842 0.000564749)
(3.45191 -0.336856 0.0903649)
(4.70234 0.00406443 0.000546919)
(4.68083 -0.00565023 -0.00456212)
(4.69551 -0.00316055 -0.00171491)
(4.71537 0.0530752 -0.038759)
(4.68351 0.00043894 0.00406428)
(1.78102 -1.61988 -0.0268214)
(4.66797 -0.0216481 -1.00999e-05)
(1.65468 -1.66084 -0.00267706)
(4.70463 0.000533212 0.00452324)
(1.66499 1.66288 -0.00548005)
(4.74062 -0.0019311 -0.00139215)
(1.66299 1.66885 0.00277179)
(1.49914 1.44571 -0.0546744)
(4.69962 -0.0551491 0.0361546)
(4.75308 0.0222036 0.0071554)
(1.66116 1.66263 -0.00354236)
(1.66057 -1.66022 0.000254567)
(4.70738 -0.00139973 -0.000696102)
(4.71005 0.00301373 0.000770454)
(3.77207 2.43304 -0.652902)
(4.7675 0.0317424 0.00596514)
(4.63721 0.118648 0.0969207)
(4.68992 -0.00857656 -0.000469674)
(4.96074 0.0589143 -0.0612745)
(4.70851 0.00154662 -0.00191884)
(4.7068 -0.00127166 -0.00635805)
(4.67628 0.00549948 -0.00126899)
(4.74816 -0.0035788 -0.00316242)
(1.65877 -1.65728 -0.00058914)
(1.64765 -1.65248 0.0033157)
(4.76248 0.0350871 0.0115768)
(5.01402 -1.01094 0.0591772)
(4.64716 -0.00738089 0.0266449)
(1.65911 -1.65898 0.0081322)
(4.71707 -0.00199662 -0.0111403)
(1.67523 1.68241 0.00791263)
(4.71128 -0.0053458 0.000655291)
(4.68002 0.0071504 -0.00183069)
(1.63803 1.44895 -0.0381804)
(1.66893 1.66687 -0.0017241)
(4.68395 -0.00316522 -0.000537508)
(4.71654 -0.00121235 -0.002825)
(4.31375 -0.122338 -0.116997)
(4.711 0.00345769 0.00308385)
(4.6862 0.00241143 0.00205358)
(4.70578 -0.00347537 0.000230869)
(4.7035 0.00483548 0.00300605)
(1.67721 -1.66843 0.000806869)
(4.68491 0.000845066 0.000469684)
(1.66512 -1.66202 -0.00311946)
(1.67314 1.66695 0.00816925)
(4.69193 -0.00343448 -0.000241053)
(1.66461 -1.66669 -0.000806248)
(1.67062 -1.66786 -0.00178109)
(2.2122 1.73061 0.109214)
(1.64285 1.65539 -0.00186)
(1.67208 1.66653 -0.00382766)
(4.64373 -0.0125675 0.0182902)
(1.33404 -0.973759 -0.239256)
(2.11362 1.80531 0.0654582)
(4.68623 -0.00193087 -0.000557537)
(1.66384 -1.65979 -0.00533022)
(4.86832 0.319411 -0.142613)
(4.79852 0.1142 -0.0578016)
(4.75412 0.031473 0.0124815)
(1.64737 -1.639 -0.00240764)
(2.15787 1.8743 0.198445)
(2.01346 1.7949 0.0840245)
(4.70565 0.00215827 -0.00244815)
(1.6729 1.66708 -0.00239799)
(4.6886 0.000966791 -0.00374581)
(4.69016 0.00132342 -0.00154577)
(4.68535 -0.00426407 -0.0104622)
(4.48476 0.00600888 -8.0787e-05)
(4.68712 -0.000954653 -0.000192206)
(4.68139 -0.00189539 -0.00209929)
(4.70458 -0.00462456 0.00255568)
(4.72759 0.0204314 -0.0102101)
(4.69251 -0.0101252 -0.00566179)
(1.66875 1.67225 -0.00130768)
(1.65991 -1.66364 0.0033945)
(1.66195 1.66302 0.00361511)
(4.70028 0.00148342 0.00220248)
(4.70664 -0.00595333 0.000735222)
(1.65049 -1.64915 -0.00228589)
(3.53767 -0.000471761 0.0251354)
(4.7016 0.0106481 0.0145652)
(5.17348 0.165068 0.0923479)
(4.70651 0.0028802 -0.00191538)
(4.70161 -0.00445534 0.00228492)
(4.66575 0.00209468 0.00911305)
(5.19576 0.221064 0.0518262)
(1.65243 -1.66537 0.00908049)
(1.65583 -1.65893 -0.00169606)
(4.70449 0.00205228 -0.00220083)
(4.69703 -0.00397952 -0.000464186)
(5.23166 0.258894 0.0618796)
(5.16054 0.229208 0.0892034)
(4.66713 -0.011189 -0.00185122)
(4.825 0.0202675 -0.00795263)
(1.64269 1.65932 0.000745137)
(5.29836 0.319638 0.0757786)
(5.03415 0.218368 0.0827888)
(1.66691 1.66219 0.00670982)
(1.65559 -1.65458 0.00225387)
(4.65875 0.00467123 0.00797622)
(1.66878 1.66946 0.00265702)
(4.70862 -0.00186679 -0.00275777)
(4.71725 0.00135657 -0.00216082)
(1.66489 1.62836 -0.00961454)
(1.78316 -1.64499 0.0174283)
(1.65267 -1.64665 -0.00286607)
(1.64086 1.5393 -0.0164067)
(1.7954 -1.66017 0.0325497)
(1.65389 -1.66126 0.00169806)
(4.70268 -0.00152742 -0.000821717)
(4.70571 0.00174058 -0.000529291)
(4.70138 0.00197611 0.00137511)
(4.65423 -0.0277068 0.0113106)
(4.70589 0.00995308 0.00156838)
(4.69307 0.00202566 -0.00423052)
(4.35959 0.0231679 0.00884472)
(1.65671 -1.65248 0.000111486)
(4.67851 -0.00418625 -0.00748382)
(1.78568 -1.65511 0.0185588)
(1.67292 -1.67129 0.00131277)
(4.68947 0.00203757 -0.00146695)
(4.70767 -0.0144068 -0.00177682)
(4.79003 0.00526351 -0.0139547)
(4.69087 0.00151433 -0.000520086)
(4.70816 0.00521273 0.00469744)
(1.65335 -1.65257 0.00665169)
(4.70745 -0.00190715 0.00553395)
(4.70002 -0.000732053 0.00425003)
(3.21403 0.996244 0.150178)
(4.74064 -0.005839 -0.00169652)
(4.70614 0.00117095 0.00268218)
(1.66321 -1.66079 -0.00654933)
(4.69161 0.000877362 -0.00395865)
(4.72226 0.00286196 -0.003889)
(1.80258 -1.63629 0.00564365)
(4.6728 -0.00983039 0.021016)
(4.79404 0.0147237 0.000298816)
(4.70412 -0.00441164 0.00403292)
(4.68106 0.00294305 -0.00478945)
(1.799 -1.67013 0.0230517)
(1.65089 -1.65348 -0.00368387)
(4.67601 -0.00194017 2.23421e-05)
(3.00017 1.86481 -0.169664)
(4.8437 0.00901809 -0.0243765)
(1.66649 1.66554 -0.00362544)
(4.68584 -0.00410516 -0.00201104)
(4.70289 -0.000143331 -0.00378481)
(4.76293 0.00256052 0.0045251)
(1.66261 -1.6567 0.0063003)
(4.70142 -0.000854872 -0.00209552)
(4.79808 0.0600597 0.0363524)
(2.63672 1.7493 -0.184124)
(1.66843 1.66712 0.00133878)
(1.66573 1.66576 0.00568147)
(4.93419 -0.0123178 0.0562326)
(4.65413 0.0832133 -0.00840381)
(1.74502 1.47739 -0.0365976)
(2.05797 -1.60031 0.0579511)
(4.70087 -0.002533 -0.00344487)
(4.71249 -0.00170957 0.000924576)
(4.69006 0.0046765 0.00887539)
(1.72866 1.49443 -0.0388157)
(1.74302 -1.61968 -0.00831561)
(4.66864 0.0567643 -0.0649212)
(1.65703 -1.65905 0.00341625)
(4.70293 -0.000797887 -0.000202425)
(4.70512 0.000377146 0.0011626)
(4.70562 -0.00055531 -0.00162763)
(4.70164 -0.000424038 -0.00064505)
(4.70215 -0.00146171 0.000988703)
(1.66054 1.66347 0.0101509)
(3.7463 0.000143116 -0.0971976)
(4.68615 0.00329164 0.00039165)
(1.65588 1.66438 -0.0097713)
(1.6661 1.67346 -0.00180792)
(4.82126 -0.0234765 0.0024538)
(4.67693 0.0167561 3.05213e-05)
(1.70426 1.457 -0.0499108)
(4.70475 -0.00353978 0.00304781)
(4.69276 0.00123629 0.000171478)
(1.66082 -1.66104 -0.00228932)
(2.11262 2.00129 -0.0103919)
(4.74918 0.0448089 -0.0218738)
(1.66735 -1.64828 -0.00155762)
(1.8295 -1.31762 -0.0456952)
(2.4932 -0.893862 -0.0758906)
(1.66708 -1.66033 -0.00299205)
(4.7063 -0.00149338 -0.00020614)
(4.68775 -0.00214299 -0.00137955)
(4.69615 -0.000745447 -0.00989324)
(1.65908 -1.65786 -0.00287573)
(4.69578 -0.00791988 -0.00544415)
(1.66629 -1.66567 -0.00540615)
(1.66169 -1.66456 0.00341435)
(1.65497 -1.64921 0.00380932)
(3.73178 0.0179484 -0.0361835)
(4.73751 0.00326404 0.000204827)
(4.67505 0.00542595 -0.00314649)
(4.69834 0.00197665 -0.00206023)
(4.68508 -0.00171744 -0.00535131)
(4.70216 0.00215807 -0.00408969)
(4.68994 0.000477982 0.000673377)
(4.86195 0.0624106 0.00156896)
(4.70788 0.00262133 -0.00405709)
(4.70977 -0.00261649 0.00117303)
(1.7017 1.67099 0.00098912)
(1.64774 -1.65687 0.00104047)
(3.40208 0.0125435 -0.0446618)
(4.70917 -0.000650365 0.00258643)
(4.72683 0.015407 0.0335054)
(4.70773 -0.00278484 -0.00135583)
(1.6602 -1.66223 0.00748418)
(4.67648 0.000234641 0.000381245)
(4.67395 0.00219864 -0.00172226)
(4.70496 -5.70551e-05 3.17234e-05)
(4.65233 0.00798727 -0.00659283)
(4.40207 -0.0445888 -0.086872)
(4.70224 0.000150317 0.000496297)
(4.70224 0.0011878 -9.26908e-05)
(4.73929 0.037303 -0.0234118)
(1.66404 1.66982 0.0111025)
(4.69095 -0.00885356 0.00641068)
(1.66639 1.66679 0.00200192)
(1.34115 0.991324 -0.226709)
(1.86038 -1.2221 -0.102155)
(4.97425 -0.0249034 0.0747967)
(4.69005 -0.00377659 -0.00427853)
(4.67087 0.000474577 -0.00236185)
(1.65773 -1.65899 -0.00388548)
(1.66034 1.66798 0.00964108)
(4.6833 -0.00240165 -0.00206239)
(4.68523 -0.0014499 -0.0025238)
(1.65491 -1.65312 -0.00338238)
(1.66103 -1.66089 0.00838135)
(1.62926 -1.63376 0.00638987)
(4.67964 -0.000940925 0.00100585)
(4.70607 -0.00285713 -0.00239435)
(4.70461 0.000185776 0.000455331)
(4.70652 0.00250714 0.000729056)
(4.6993 0.00346615 -0.00194974)
(1.92175 1.63964 0.0403996)
(1.66437 1.66714 0.00178668)
(1.66041 -1.65714 0.00011267)
(4.6902 -0.00148645 0.00305448)
(3.14733 -2.66584 -0.193281)
(4.67388 0.00077042 0.0014441)
(4.9307 -0.00925336 0.0918035)
(4.15089 -0.000735914 -0.044062)
(1.66367 1.67529 0.00164101)
(1.66127 -1.66014 8.64366e-05)
(1.65711 -1.6565 -0.00131552)
(2.11347 1.76617 0.118287)
(4.68612 -0.00512591 -0.000729865)
(4.69328 -0.00362086 0.000823701)
(1.66903 1.67493 0.000784089)
(4.70743 -0.00056098 -0.00720351)
(1.75966 1.40313 0.106582)
(1.66156 -1.6335 0.00639995)
(4.84763 0.00575402 0.00924142)
(4.69792 -0.000856159 -0.00178536)
(4.68671 -0.00438657 0.00611528)
(4.70687 0.0019308 -0.00935808)
(1.60743 1.41306 0.0878345)
(2.0979 1.79693 0.124136)
(1.66854 1.66589 -0.00460541)
(4.6998 -0.00263548 0.00347539)
(4.70754 0.00777104 0.00440241)
(4.84898 0.0949847 -0.0380681)
(1.65003 1.63619 0.00238988)
(3.34001 2.95436 -0.715404)
(4.60654 0.00920287 0.0534879)
(4.70011 0.0023641 -0.00354929)
(4.68324 0.00641497 0.00385415)
(4.56652 0.439171 -0.0310171)
(4.69646 0.00261488 0.00176935)
(1.66308 1.66027 0.00439887)
(4.69967 0.000349464 0.00428781)
(4.70522 0.00354441 -0.00166967)
(4.88509 -0.0832618 0.00300477)
(4.86499 -0.00290159 0.0392941)
(4.67283 -0.00102909 -0.000624977)
(1.65657 1.67308 -0.000459969)
(1.65354 -1.65637 -6.66472e-05)
(1.67165 1.65525 0.00978594)
(1.65054 -1.65108 -0.00327122)
(4.69146 -0.00318686 0.0020334)
(4.66907 0.000766346 0.00236633)
(4.7149 -0.00522886 -0.00270395)
(4.70628 -0.003314 0.000245303)
(1.6504 1.65307 0.00396166)
(4.68903 -0.00281501 -5.91747e-05)
(1.66386 1.66632 0.00749578)
(1.65642 -1.66145 -0.000583936)
(4.70148 -0.000916615 -0.0020231)
(1.53705 -1.53125 0.019604)
(2.71375 -0.558966 -0.0413786)
(1.63964 -1.6328 -0.00347684)
(1.67752 1.66065 0.0143701)
(4.71617 0.00223027 -0.00112946)
(1.66486 1.6599 7.01361e-05)
(4.70058 0.00461701 0.000175763)
(4.70471 0.00128816 0.000264234)
(1.6728 1.67449 0.000679598)
(4.68491 0.00145167 -0.000376938)
(4.70419 0.00255794 -0.00465019)
(1.67755 1.46092 -0.053727)
(4.68857 0.00375387 0.00574489)
(4.70652 -0.00424123 -0.0025982)
(4.69362 -0.00203843 0.00182858)
(4.47072 0.0105713 0.0495939)
(4.68705 0.00335068 0.00698636)
(4.70273 0.00150497 0.00678333)
(1.64639 1.39632 -0.000443851)
(1.65754 -1.64349 0.00329458)
(4.27867 0.00741807 0.0536671)
(1.65524 1.65253 -0.0075425)
(4.69162 0.00634873 0.00133602)
(4.86197 0.00746826 0.0262812)
(1.675 1.60237 0.0194901)
(1.66017 1.66947 -0.00446879)
(4.68222 -0.000510695 0.00248313)
(4.68432 -0.0034034 0.00175058)
(4.68332 0.012111 -0.00792161)
(4.66883 0.00629849 -0.0021515)
(1.66811 1.66571 0.00306619)
(4.91102 0.0145769 0.0526761)
(4.71304 0.00449411 -0.00125856)
(1.67528 1.67078 -0.00104488)
(4.70225 0.0599058 0.0537445)
(4.69137 -0.00124764 0.000659061)
(1.6607 -1.65358 -0.000975356)
(1.6551 -1.64738 -0.00856527)
(4.6827 0.00672296 -0.000654161)
(4.70633 -0.000590322 -0.00396448)
(1.67593 1.67245 -0.00378989)
(1.65416 -1.66006 -0.00601871)
(2.87893 -1.5814 0.35322)
(1.66191 -1.66198 0.000666147)
(4.70461 0.00224072 -0.00149576)
(1.65745 1.6588 -0.00230079)
(1.65743 -1.663 0.000843186)
(4.68576 -0.000773462 0.00146135)
(4.45743 -0.0358548 -0.0909174)
(4.7281 -0.0148488 -0.00383785)
(4.70795 -0.00770663 -0.000124984)
(1.67423 1.67061 0.0036147)
(2.16549 1.66412 0.0876489)
(4.65748 0.0421321 0.0662225)
(2.03243 1.78837 0.0966416)
(4.65943 0.0147219 0.0272717)
(4.70412 -0.00696209 0.0078558)
(4.75177 -0.00263699 -0.00603959)
(3.36717 0.104445 0.122032)
(2.00001 1.71899 0.0939324)
(4.71947 -0.00775074 -0.0494438)
(4.91578 0.156765 -0.0264953)
(1.66131 -1.66045 0.00244168)
(4.81877 0.00429989 -0.0253459)
(4.70119 -0.000749281 -0.000261917)
(1.66313 -1.65957 0.00378402)
(4.74973 0.253321 -0.130449)
(4.54258 -0.00124996 -0.0221831)
(2.10792 1.65056 0.077961)
(4.71463 -0.00240896 -0.00195455)
(4.71162 0.000151044 0.00254441)
(4.67795 0.00224214 -0.00653271)
(1.67246 1.66044 0.00168249)
(4.66042 -0.0145899 0.0354407)
(4.70419 0.00509825 -0.00372681)
(4.64266 0.0270166 -0.00928487)
(3.20014 -0.055301 0.0301697)
(2.04474 1.91874 -0.0377138)
(2.91423 -0.0739376 0.0931216)
(1.66125 -1.66438 0.00552434)
(4.39334 -0.135166 -0.105071)
(4.65044 -0.0155012 -0.0445379)
(1.66911 1.66626 0.00371376)
(4.70136 0.000328201 -0.00634156)
(4.27225 0.00113198 0.0409563)
(2.18287 1.9235 -0.0144919)
(1.65788 -1.65808 -0.00217921)
(1.93582 -1.65007 0.0529745)
(1.66124 -1.66124 0.001464)
(4.64108 0.012007 -0.00892695)
(4.6827 0.0129355 -0.00398666)
(4.70923 -0.00123616 0.000426115)
(4.70214 -0.00721847 0.00186555)
(4.78754 -0.0514958 -0.010402)
(1.66723 1.65741 -0.00174459)
(4.70903 -0.00293363 0.00242881)
(1.66601 -1.64842 0.00184252)
(4.69877 -0.00258636 0.00166649)
(1.67151 1.67164 0.00307847)
(1.65841 -1.65967 0.00158513)
(1.63863 -1.63782 -0.00461013)
(4.70864 0.0054547 -0.00162584)
(1.65077 -1.65961 0.00192113)
(1.66214 -1.6629 0.0031153)
(1.64703 1.0559 -0.0722946)
(1.66493 -1.66222 0.00245903)
(1.64308 1.66643 0.0132252)
(4.73033 -0.0128015 -0.00422728)
(1.66317 1.66195 -0.00263069)
(1.98212 1.4551 -0.00678108)
(1.66978 1.66531 0.00217222)
(1.65167 -1.64599 -0.00145502)
(1.6683 1.65824 -0.0078402)
(1.65454 -1.64244 -0.00668)
(1.65672 1.65888 -0.00200894)
(4.69382 -0.000567521 0.00268362)
(1.67232 1.66315 0.00650378)
(4.5243 0.0375495 0.0553885)
(4.70657 0.00947554 -0.00170948)
(4.92568 -0.162747 -0.0334973)
(1.66315 1.66336 -0.000717111)
(4.36041 0.00896712 0.0368356)
(1.67119 1.66579 0.000403987)
(1.66365 -1.6575 -0.00145033)
(4.66232 -0.0040845 -0.0075287)
(4.67518 -0.00152605 -0.00272948)
(4.70474 -0.00281367 -0.00180447)
(4.93627 -0.0107255 -0.0621722)
(1.92609 1.60501 -0.0407183)
(4.75284 0.00518392 -0.00538541)
(4.75385 0.0056678 -0.00630509)
(4.69679 -0.00512246 -1.55145e-05)
(4.69403 -0.00128646 -0.00472117)
(4.65935 -0.00921265 0.00384514)
(1.65522 -1.65619 -0.00015889)
(4.6919 -0.00166521 0.00409191)
(2.21179 1.9254 -0.0103646)
(4.74118 0.0100355 -0.00398484)
(1.661 1.65754 -0.00396389)
(4.75428 0.00695391 -0.00166342)
(2.15244 1.79284 0.00906366)
(4.70391 -0.00331882 0.000836334)
(4.71277 0.00248344 -0.00050901)
(1.90803 -0.996447 -0.0110763)
(1.66335 1.66566 0.0155266)
(4.69484 0.00204257 0.0121869)
(1.65707 -1.65764 -0.00270066)
(4.75703 0.00488882 -0.00970974)
(4.7504 0.0111025 -0.00576769)
(1.66093 1.65998 -0.0159428)
(1.65605 1.6627 -0.000458378)
(1.63369 1.44348 -0.0437227)
(1.66435 1.66931 -0.00248516)
(3.44831 -0.182437 0.0990263)
(4.75559 0.00378161 -0.00405711)
(1.68791 1.64838 -0.00039173)
(1.66206 1.66283 0.000964759)
(4.68366 0.000916998 -0.001007)
(1.66567 1.67113 -0.00489185)
(4.74244 0.0119954 -0.00435337)
(1.66552 1.66928 0.00622512)
(4.7141 -0.010908 -0.000683437)
(1.66084 -1.66032 0.00137699)
(4.58338 -0.0164834 -0.00938698)
(4.47118 0.00381367 -0.013839)
(4.70353 -0.00427347 0.0001969)
(4.70075 6.88512e-05 -0.00266778)
(1.67378 1.65511 -0.000866655)
(4.69183 0.00742206 -0.0131295)
(1.67312 1.66798 0.00174913)
(1.67114 1.66556 -0.00566974)
(4.71516 -0.00323387 0.00166486)
(1.66572 1.66276 -0.000892061)
(4.54586 -0.00398301 -0.00746288)
(1.61037 1.47958 -0.0439944)
(4.74739 0.0112261 -0.00248444)
(1.65465 -1.6487 0.0016659)
(4.72767 0.0111072 0.00452215)
(1.66364 -1.65838 -0.00558695)
(1.99333 1.7636 0.0478237)
(4.92854 0.177117 -0.0166946)
(4.66579 -0.0108018 -0.00736504)
(4.73619 0.0100285 -0.00330612)
(4.67722 -0.00905001 -0.010515)
(4.73466 0.00677807 -0.000309237)
(4.68998 0.000653219 -0.00106513)
(1.65538 1.67463 -0.0106974)
(4.71749 0.0146841 0.0132419)
(4.67169 -0.0119291 -0.00215494)
(1.66903 1.67031 -0.0029946)
(4.15282 -0.0604725 -0.104254)
(4.88012 -0.0385854 -0.0129446)
(4.68805 0.0107943 0.0105256)
(1.64339 1.62064 -0.00799862)
(2.06298 0.383858 -0.341099)
(4.70127 0.00429538 -5.38081e-05)
(4.41826 -0.00678995 0.0178424)
(3.9178 0.998566 -0.00414653)
(2.13129 -1.1287 -0.0859951)
(4.69561 -0.0113785 -0.0059479)
(4.6804 -0.0102799 -0.00352475)
(4.64328 -0.0127463 -0.0112391)
(4.70768 -0.00769052 -0.0184133)
(4.64922 0.0200089 0.0130585)
(4.22212 0.53357 -0.0148584)
(2.07516 1.75116 0.0159285)
(4.3105 -0.150381 0.0313063)
(4.1652 -0.371545 0.0686071)
(1.65776 -1.66035 -0.00154258)
(4.6368 -0.0075791 0.00137784)
(1.67557 1.64883 -0.0147587)
(1.95608 1.79019 0.0211909)
(4.70922 0.00430372 0.00180235)
(4.24082 0.677798 0.00902462)
(5.12556 -0.425608 -0.085603)
(4.63465 -0.808493 0.00562941)
(1.96436 1.86903 -0.153506)
(4.70139 -0.0146688 -0.0242895)
(4.68436 0.00115735 0.00186303)
(1.66229 1.65535 -0.00338722)
(2.16209 1.17028 -0.0540879)
(4.68197 0.00120221 0.00479345)
(1.66449 -1.65944 0.000331785)
(1.66237 1.65919 -0.00145318)
(1.65919 1.66029 0.000234281)
(1.66805 1.65762 0.0013185)
(4.6917 -0.0199951 0.000674132)
(1.66397 1.66372 -0.00064991)
(1.66547 -1.66468 0.00555653)
(4.70091 -0.00509205 -0.00788771)
(4.68862 0.00146769 0.000489081)
(2.41865 -2.13259 -0.125869)
(4.6702 -0.00226418 0.00478287)
(1.95761 1.5568 0.041591)
(4.68589 -0.00236926 -0.00318428)
(1.62421 -1.63207 -0.00880665)
(1.66212 1.66507 -0.0030402)
(4.7082 -0.00885267 -0.0110621)
(1.66331 1.65738 0.00173788)
(1.66172 1.65865 0.00122501)
(1.91508 1.83469 0.0465709)
(4.67319 -0.00694553 0.00484522)
(2.77861 2.31894 -0.308278)
(4.71464 -0.00379297 -0.00895036)
(4.71323 0.000262899 -0.00128)
(1.64416 -1.63637 -0.00864659)
(4.97007 0.00753335 0.14092)
(4.59044 0.00125672 -0.0237803)
(4.70798 -0.00163853 -0.0042836)
(4.77011 0.0704844 0.013471)
(4.83824 0.0355492 -0.11252)
(4.6671 -0.00477319 0.00514736)
(1.6661 1.66539 0.00476112)
(4.74222 -0.00467645 0.00137258)
(4.70466 0.00158829 0.00394876)
(1.6443 -1.66522 -0.000735191)
(4.67731 0.00272682 -0.00142667)
(4.75599 0.0269649 0.00803804)
(4.70037 -0.00308338 -0.00408537)
(4.66818 -0.0202367 -0.0299759)
(4.70245 0.00449773 -0.000262443)
(4.69533 0.00257113 -0.00235472)
(1.65739 -1.63798 0.0119477)
(4.75997 0.0115805 0.0023103)
(4.34615 -0.0178 -0.0183724)
(2.01914 1.74954 0.111701)
(4.70752 -0.00313624 -0.00331517)
(4.70722 -0.00679178 -0.0101772)
(2.71738 2.19792 -0.335736)
(4.71161 -0.000242809 0.000731038)
(4.71165 -0.00425365 -0.00106249)
(4.70123 -0.0069026 -0.00955908)
(4.70728 0.00393893 -0.00445934)
(4.67963 0.00241019 0.00164476)
(4.70962 0.000633559 -0.00414052)
(1.63227 1.59329 -0.00309659)
(4.70391 0.00553531 0.00543568)
(4.59952 -0.0177623 -0.0205892)
(1.86085 -1.13607 0.0266216)
(4.66875 0.0124061 0.00818015)
(4.66531 0.0070371 0.00959722)
(4.70101 0.000189923 0.0023713)
(1.66405 1.65954 0.00155606)
(4.66287 0.022367 -0.0393632)
(1.66394 -1.65305 0.00902469)
(1.66796 1.66095 -0.00350803)
(1.65263 1.65007 -0.0013327)
(1.67213 1.66387 0.00376752)
(4.68006 0.000356528 0.00180166)
(2.00061 1.71653 0.0781292)
(3.72436 -0.246741 0.274309)
(1.64345 -1.65347 -0.00211104)
(1.65934 1.6857 -0.00314559)
(4.6785 0.0124917 0.014085)
(4.72809 0.0064171 -0.0025865)
(1.65772 -1.66003 0.00253386)
(4.73444 -0.0136247 0.00154904)
(1.66295 -1.65823 0.00773096)
(1.66152 -1.66144 -0.000358878)
(1.62978 -1.63706 0.0071731)
(4.75336 -0.00740069 -0.00402138)
(4.59491 0.00297206 0.00402455)
(1.98025 1.77464 0.0124384)
(1.67508 -1.65737 0.00206653)
(1.66333 1.67107 -0.00291251)
(1.66851 1.66869 -0.00176325)
(4.88671 0.00701321 -0.0459668)
(4.70736 0.00372518 0.00212296)
(1.98626 1.86802 0.0845905)
(4.7232 0.00124217 -0.00260288)
(4.55483 -0.0655548 -0.18367)
(1.66249 1.66317 0.00701875)
(4.72583 0.00360701 -0.00485121)
(4.60329 0.00371981 0.0145168)
(4.65857 0.0201117 -0.0131867)
(1.66407 1.66824 0.00349289)
(1.66181 1.65947 0.00310874)
(4.69081 -0.000385418 0.0019389)
(4.70402 -0.00165052 -0.00137766)
(1.97992 1.79612 0.0257148)
(1.66339 1.66403 0.00178482)
(1.68259 1.63369 -0.00711684)
(4.70838 -0.00652436 -0.00239614)
(1.66284 -1.6624 -0.00223521)
(1.65154 -1.65125 4.01773e-05)
(1.65304 1.65746 0.00281352)
(4.71945 0.00400395 -0.00219122)
(4.69599 -0.00229707 -0.00115385)
(1.66608 1.66799 7.67499e-05)
(1.87794 0.365529 0.345763)
(2.06788 -0.264131 -0.0557182)
(4.65353 0.0253328 0.00382981)
(1.66781 1.67199 0.000360935)
(1.66961 1.66374 -0.000259517)
(4.7422 -0.0191166 -0.00470834)
(4.65886 0.0698193 0.0586045)
(2.01198 1.7969 0.0916419)
(2.9513 0.949164 0.0536395)
(4.62516 0.107901 0.143887)
(4.61518 -0.000855177 -0.00384648)
(4.71954 3.20971e-05 0.00182774)
(1.7301 1.61727 0.00834461)
(4.70884 0.00166241 -0.00182662)
(4.79704 -0.00286725 0.0125918)
(1.66709 1.66184 -0.00465397)
(1.64213 -1.6269 0.00220807)
(1.65854 1.65719 -0.00188702)
(1.66331 1.66267 0.00259548)
(1.66455 1.66987 0.000381684)
(1.6719 1.6666 -0.00349153)
(4.71911 0.00156904 0.00285326)
(1.65656 -1.65931 0.00743826)
(1.65854 1.65905 0.00210516)
(1.65464 1.64345 0.00525283)
(4.72171 0.00104995 0.00151547)
(4.70699 -0.00209743 0.00155817)
(1.66597 -1.64421 0.00651169)
(1.64227 -1.6224 0.00260258)
(4.79302 0.00125237 0.0186135)
(4.70131 0.000561084 -0.00198445)
(4.70308 0.00224373 -0.000192112)
(1.65519 -1.6518 0.00328999)
(1.65523 1.66794 -0.00040368)
(4.70524 0.00149752 -0.00208344)
(1.66258 -1.65871 0.00199762)
(4.69678 -0.00454243 0.00506858)
(4.68439 0.00312118 0.00548799)
(4.68349 0.00295703 -0.000634009)
(1.66301 -1.64971 0.00328861)
(1.65999 -1.66627 0.00621577)
(1.66361 -1.66305 -0.000147063)
(1.66803 1.67709 0.00264313)
(4.70174 0.00105156 -0.00171035)
(1.6696 1.67074 0.00671956)
(1.658 1.65709 0.0013475)
(4.73489 0.0241153 -0.0242964)
(1.66084 -1.65945 0.0029617)
(4.70831 0.00384243 -0.00124347)
(4.59532 -0.0109253 0.00273932)
(1.68126 1.62078 0.0073143)
(4.70371 -0.00308084 0.00204293)
(2.24961 0.251398 -0.0365352)
(4.70934 0.00405264 -0.00450303)
(4.71671 -0.00110361 -0.000337319)
(4.6358 -0.00448475 0.00276047)
(4.79366 -0.0122682 0.01163)
(3.62114 0.0485887 -0.147359)
(1.9959 1.57954 0.0364225)
(4.70948 0.00501021 -0.004315)
(4.80557 0.00159156 -0.0064252)
(4.71595 -0.00114056 -0.00244263)
(1.70584 1.47742 -0.053718)
(2.284 0.193579 -0.121807)
(2.58574 -0.246143 0.0581827)
(4.71271 -0.000199284 -0.00570533)
(1.66403 1.66288 0.00248664)
(4.66406 -0.00872119 -0.0100977)
(4.7332 -0.0101784 -0.000530541)
(4.60275 -0.0194539 -0.0307525)
(1.77471 -1.28682 -0.100536)
(1.66298 -1.66537 0.00102632)
(1.65715 -1.65926 -0.00287581)
(4.70196 -0.00143629 0.00102371)
(1.93201 1.59798 -0.0243014)
(4.71506 0.00975393 -0.0120787)
(1.80507 1.65267 0.0116464)
(4.69091 0.000817038 0.00654642)
(4.71112 0.00345707 0.000701357)
(4.70949 0.0018958 0.000529253)
(4.71149 -0.000394838 -0.00601091)
(1.65539 1.65851 -0.0018499)
(1.64605 1.64624 0.00154943)
(1.79694 -1.62482 0.000397447)
(4.70306 -0.00126633 0.00170528)
(1.67174 1.66674 -0.00237448)
(1.93339 1.65826 -0.0804833)
(4.91021 0.108151 -0.0806703)
(1.67268 1.6679 -0.00550823)
(1.65627 1.65923 0.0103677)
(1.65181 -1.64854 -0.00471505)
(1.66802 1.67052 0.00728052)
(4.70773 0.00113074 0.00134351)
(1.70244 1.61605 -0.00175033)
(1.67047 1.66633 -0.0022403)
(3.96173 0.541534 -0.360148)
(1.9576 1.57609 -0.0136708)
(1.65813 1.6582 -0.00836071)
(2.36656 -1.4051 0.0741313)
(1.6711 1.66486 -0.000146682)
(4.339 -0.00692354 0.00708728)
(4.70776 0.00403343 0.00270415)
(1.65138 -1.64768 -0.00267378)
(4.68907 -0.00141806 0.000814089)
(4.63047 0.716556 -0.0925508)
(4.55984 -0.022132 -0.0321138)
(5.00593 0.155043 0.00234919)
(4.70483 -0.00173086 -0.000232377)
(1.6675 1.65589 0.000289342)
(4.65506 -0.0113309 -0.0170271)
(4.85505 -0.00123015 0.00584296)
(4.5434 -0.0174363 -0.0313455)
(1.6606 -1.65416 -0.00447263)
(4.98426 1.29209 0.345159)
(4.71018 0.000753717 -0.00414957)
(2.24329 1.77219 -0.107906)
(4.70348 -0.00800599 -0.00303398)
(4.93672 0.0273356 -0.0378672)
(4.82473 0.0638122 0.00663553)
(4.70436 0.00309911 -0.00495689)
(4.71147 0.0122094 -0.00343173)
(4.97379 0.0369409 -0.0217071)
(4.69655 -0.000813726 -0.00857869)
(4.67963 -0.0028768 0.00149359)
(1.65252 1.6545 0.0082879)
(1.66231 1.64365 0.00155578)
(4.70737 0.00188754 -0.0114443)
(4.70682 -0.00326995 0.000916656)
(1.66342 1.66646 -0.0044041)
(4.71241 0.00312771 -0.00311668)
(4.68553 -0.00101107 0.00486346)
(4.67446 -0.00346252 0.00369109)
(1.66929 1.64713 -0.00307106)
(4.7936 0.0538133 0.0175634)
(1.6641 1.66178 -0.00142609)
(4.68404 -0.0082439 0.014787)
(4.67462 0.00230317 0.00433028)
(1.66654 1.66377 -0.0031887)
(4.64434 0.0164728 -0.0392046)
(4.66147 0.00342295 0.00496552)
(4.77409 0.0578702 0.00932662)
(4.70229 -0.0139436 0.0106575)
(1.70907 1.67288 -0.000797113)
(4.71247 0.00363513 0.00205506)
(4.81489 0.0776149 0.0055915)
(4.99123 -0.12871 0.0326682)
(4.29711 0.0470647 0.020132)
(4.12545 0.00175273 -0.0242998)
(1.66949 1.65398 -0.00211853)
(1.66466 1.66307 0.00700952)
(4.72491 0.0177334 0.00336785)
(1.66482 1.67015 0.00102115)
(4.6584 0.00437722 -0.0109553)
(4.65128 -0.00307012 -0.0160933)
(2.83338 0.353453 -0.0711239)
(5.18409 -0.337794 0.123431)
(4.57872 -0.208978 0.0615682)
(5.09303 -0.193552 0.0470265)
(1.66527 1.67123 0.00123671)
(2.24755 1.91757 0.0133982)
(4.70629 -6.57979e-05 -0.0125039)
(1.65126 -1.65553 -0.00862111)
(0.93196 -0.646319 0.280776)
(4.69331 -0.0341319 -0.0259253)
(1.65871 1.65287 -0.00427633)
(1.66997 1.66362 -0.00237314)
(4.2854 -0.0861769 -0.00589238)
(3.52651 -0.216985 0.0628529)
(1.66438 1.66675 0.00442377)
(4.3737 -0.0760975 0.00458239)
(1.65784 1.65585 0.00679981)
(1.66603 1.67091 -0.00531287)
(1.65926 -1.66665 0.00196217)
(1.6625 -1.65668 0.00157343)
(1.63217 -1.61756 -0.0010563)
(1.66072 -1.6541 -0.00181145)
(4.5058 0.00954356 -0.00459702)
(1.65201 1.64739 0.00518205)
(1.66772 1.66638 0.00169842)
(1.65375 1.66492 0.00412109)
(4.03133 -0.902499 -0.238722)
(4.53361 -0.0281864 -0.0634505)
(4.685 0.00334074 1.33025e-05)
(4.70563 -0.00665322 -0.00801908)
(1.65396 1.64275 -0.00356386)
(1.68166 1.66354 -0.00305784)
(4.57387 -0.0498628 -0.0658378)
(1.66486 1.66503 -0.0048111)
(1.669 1.65939 -0.00539749)
(2.69275 1.51473 0.0584182)
(4.83605 -0.0307075 0.00387382)
(4.70521 0.00439599 0.000708733)
(1.665 1.66259 0.000290285)
(1.66951 1.6596 0.00648787)
(1.6518 1.646 -0.00273437)
(1.6654 1.65619 0.000423824)
(1.67097 1.66482 0.00369864)
(1.66984 1.67212 8.23315e-05)
(4.72393 -0.0684559 -0.0417679)
(1.67062 1.66276 -0.0025306)
(3.43756 0.0489939 0.109558)
(4.71154 0.000505679 0.00188598)
(1.66706 1.67157 -0.000817405)
(1.65118 -1.65715 0.00101403)
(1.63775 -1.6195 0.000906174)
(4.1102 0.0549917 0.218419)
(1.62352 -1.62702 -0.00497438)
(1.65674 -1.6597 -0.00405279)
(1.65685 1.65624 -0.0140289)
(4.41284 -0.0622482 -0.00734495)
(1.65725 1.66287 -0.00127624)
(4.74247 -0.0308432 -0.0205058)
(4.15147 0.0335946 -0.00741553)
(3.29732 0.00293611 0.127051)
(1.65655 1.66157 -0.000549515)
(3.30688 -0.881709 0.0812339)
(4.78605 -0.00442469 0.0144468)
(4.70644 -0.000199144 -0.0011905)
(1.76906 -1.68941 -0.0198092)
(4.69687 -0.0719569 -0.0135688)
(4.71672 -0.0133507 0.0130478)
(1.65807 -1.64417 0.00392706)
(1.72681 1.63296 0.00429908)
(2.30747 -1.7977 -0.150126)
(1.649 1.66311 -0.00896295)
(4.69486 -0.00214842 3.54813e-05)
(4.71553 0.00975494 -0.00333074)
(4.84389 -0.0443528 0.0186389)
(3.29234 0.00892009 0.187423)
(1.66871 1.6676 -0.00381657)
(4.6925 -0.00170639 0.00430282)
(1.71838 1.62567 -0.00417088)
(2.09536 1.76872 -0.00714825)
(2.21446 -1.73769 -0.0694116)
(1.66749 1.66515 0.0015801)
(4.70495 -0.0013381 0.00141331)
(1.65533 1.65931 -0.00207231)
(1.63895 -1.61764 0.00161895)
(4.44763 -0.0403138 -0.0864556)
(4.70804 0.000956911 -0.00348917)
(1.63836 -1.61686 -0.00250949)
(4.71666 -0.00967173 0.00132638)
(1.76738 1.72916 -0.0124124)
(4.79379 -0.0187874 -0.000624302)
(1.56336 1.48632 0.0140113)
(1.66786 1.66107 0.000360759)
(1.67627 1.6739 0.0111423)
(1.65939 -1.66407 0.00414804)
(4.67964 -0.000246846 -0.00494)
(4.67257 -0.0021656 0.00570845)