/*--------------------------------*- C++ -*----------------------------------*\
  =========                 |
  \\      /  F ield         | OpenFOAM: The Open Source CFD Toolbox
   \\    /   O peration     | Website:  https://openfoam.org
    \\  /    A nd           | Version:  10
     \\/     M anipulation  |
\*---------------------------------------------------------------------------*/
FoamFile
{
    format      ascii;
    class       volScalarField;
    location    "1.1";
    object      p;
}
// * * * * * * * * * * * * * * * * * * * * * * * * * * * * * * * * * * * * * //

dimensions      [0 2 -2 0 0 0 0];

internalField   nonuniform List<scalar> 
111485
(
37.7051
13.6409
15.8473
37.1814
16.402
36.5203
13.8948
12.0783
13.9329
20.5604
13.7608
17.7214
14.0158
13.6405
14.0837
14.3149
4.50842
35.2856
13.8973
36.9826
36.8438
36.9496
14.0807
14.1538
16.3432
36.0012
19.7199
7.72849
15.8095
38.039
27.3088
3.14425
37.2935
38.2152
35.2109
39.0993
27.0319
0.753715
31.6287
14.504
38.7461
20.5637
14.4892
23.8801
30.4283
39.1723
22.5575
14.111
20.5136
35.8866
35.9106
35.0942
35.8936
24.3505
35.8807
8.73376
14.0819
39.1445
22.5803
14.4788
14.5185
37.69
11.2405
26.6925
35.3437
9.86733
33.5923
12.8656
11.3361
12.1495
29.199
10.1849
35.297
11.3059
38.6457
5.83687
37.2406
19.7449
36.9433
35.4486
27.8336
23.2163
37.584
38.4484
11.1573
14.939
32.4951
24.4597
28.3301
4.1359
30.3895
14.9702
11.2176
1.62139
20.5913
38.4142
37.7347
24.4119
31.1951
25.4567
37.5211
19.8442
38.7643
19.4577
13.215
35.4053
38.4128
3.66562
15.295
30.2808
2.49566
10.1161
14.9378
18.4574
35.9917
5.4859
36.1779
39.1695
11.4264
37.0024
35.9843
34.6438
37.5782
39.1635
21.4646
35.4498
34.6709
4.23799
38.795
31.387
27.1629
24.367
38.5867
34.5698
34.7621
13.5636
37.3403
5.81811
12.4504
12.5696
20.8355
12.5921
12.5625
15.6635
21.9074
0.526634
37.3214
38.3283
38.7256
13.2601
15.709
36.8755
27.3113
0.0414954
30.6825
13.1641
13.0174
13.9466
30.7034
39.052
37.1852
13.1245
15.7543
30.7659
30.77
5.09163
26.1561
39.0919
30.8325
30.8201
38.7339
38.2492
17.0797
37.9605
0.936126
0.174091
35.7129
35.3255
36.0635
35.5012
35.3344
37.1465
13.2792
13.313
13.169
0.0706687
19.7653
7.00711
26.8994
37.465
6.13087
35.3589
37.8017
7.06366
20.5031
26.0161
9.3455
0.759101
38.6383
13.3398
15.5093
33.7936
23.1339
4.00742
38.8838
7.10766
18.8568
35.307
25.8896
22.4677
15.5824
6.95083
35.2889
37.8622
7.00882
33.7967
24.4094
37.8954
7.09243
6.04124
20.8991
39.1926
7.88632
25.4975
34.2783
37.9431
38.7682
29.0574
30.7056
35.3297
34.8187
6.09575
1.56099
10.128
35.3118
35.4026
26.6625
38.7452
13.225
6.06412
6.109
6.06852
6.11006
38.8247
28.0049
4.80932
38.9466
37.5157
24.4777
10.1646
35.3167
3.0268
4.51396
38.2903
34.5454
22.8688
35.9061
35.1718
34.466
36.4616
5.2988
6.00765
0.477908
39.2231
4.62113
37.2528
37.6574
38.8154
26.8468
19.8235
10.664
10.8159
18.4862
10.6904
10.9123
27.9996
1.53657
1.5988
35.7652
38.2469
28.2419
3.68089
20.9008
1.9157
37.0737
10.8487
13.3345
10.637
18.8129
28.2024
10.586
10.7651
23.0928
39.1837
19.6778
37.9682
35.4265
35.1335
29.0282
18.5557
14.3589
36.2851
39.111
8.37562
2.62874
36.8103
37.9219
35.9214
5.97991
1.61372
12.9787
13.5927
14.7599
35.0349
38.4759
38.535
8.39845
32.9913
14.4515
28.4772
26.5467
37.5328
37.6545
37.7219
34.7346
9.041
16.2318
39.1577
8.9179
35.237
35.944
24.9351
8.98037
18.2769
8.85124
35.3264
34.7426
38.8625
8.94885
0.454972
27.5787
35.9056
32.006
27.6272
16.4705
7.94938
31.9593
14.8526
37.1835
14.8679
9.13388
28.203
24.857
16.6349
38.3352
38.545
38.591
37.2042
12.8329
7.73491
18.3987
14.862
38.1629
17.3728
38.4985
37.7246
14.858
35.5124
34.4079
39.1143
39.2006
13.1868
39.173
0.351009
17.1545
36.9599
11.9141
9.42213
35.3648
9.23906
17.5088
9.28083
25.9748
0.738056
1.69377
35.3714
38.3071
23.7674
38.996
18.09
25.2755
35.5644
38.9513
8.79464
17.8902
1.51939
17.2017
37.2708
27.279
17.7106
36.3675
23.8731
17.9867
37.8756
37.0852
0.354709
16.3841
39.0142
36.2011
33.9649
37.5042
16.7444
37.9033
37.4102
17.8014
27.2581
21.9162
16.3572
36.5746
34.7249
23.8705
34.8413
23.8738
23.9648
20.3228
33.6389
34.8857
2.80199
30.5218
38.0115
24.9156
17.2475
39.2183
31.237
20.8137
34.8373
18.281
17.7304
0.826511
36.7177
0.796096
18.7303
0.787229
29.5874
34.6986
30.4716
38.6318
27.3203
0.731728
38.6818
18.2861
22.7466
34.5827
39.1868
35.025
36.8386
16.4318
0.779434
18.064
18.1801
25.7964
37.9642
18.5661
37.7148
16.392
36.2234
37.7186
38.2108
18.2254
38.3782
37.8561
35.2718
37.746
38.8444
22.8563
39.1842
34.9992
38.5334
37.9144
36.4877
38.5703
37.0615
18.3627
38.5652
23.0786
18.8604
30.5413
36.1964
23.0436
38.5517
37.6755
18.2068
18.075
18.3364
28.5133
35.0961
21.0423
21.0828
1.12257
2.04458
18.7902
38.1996
1.1802
34.5684
21.2821
38.0737
21.2776
34.7043
2.32181
18.0051
35.1112
38.564
2.09934
36.7041
21.0358
21.2125
38.9054
38.5143
35.3898
38.6307
30.5891
20.9823
35.8014
39.0746
16.4586
36.9575
21.1084
37.1726
22.1942
37.714
20.599
21.0288
9.10728
2.23851
35.9982
0.552955
36.1228
38.1052
19.351
38.1012
20.7164
35.4106
21.3243
38.0919
19.344
36.8005
34.8886
30.5813
19.5241
21.03
19.458
21.1204
17.9293
38.703
21.1011
19.4708
37.7983
28.7861
26.55
21.0806
35.7083
34.9162
16.2499
21.6511
33.0515
34.8573
19.458
16.2818
19.7517
19.8263
2.1749
32.5013
34.8236
30.526
32.8212
37.2653
20.9166
39.0125
34.9449
4.11508
32.4803
30.7318
31.9982
34.8462
19.9554
16.3315
36.1206
34.8641
16.2679
36.3008
36.9034
37.0623
36.09
19.967
38.4905
38.8871
20.1142
6.2339
34.2281
16.2955
35.0276
6.13702
35.8816
38.7683
20.087
38.0585
36.252
34.9302
0.512736
33.6844
20.6331
4.16565
36.2021
30.5496
20.7259
16.919
25.9851
31.1665
16.5557
38.1471
20.556
16.8611
38.8742
9.57992
23.1759
17.2938
0.537629
17.3783
17.3179
38.5847
21.0565
25.9059
34.8491
17.36
21.1451
33.7661
4.1395
17.3171
21.222
18.2946
18.4064
4.1661
35.6122
18.4289
20.7918
35.1695
19.6742
19.7177
4.44565
38.1328
0.44699
38.9671
37.4079
38.3067
36.0969
16.8435
34.9467
30.6807
37.8082
36.5211
19.7156
19.8026
36.686
21.1594
37.6906
38.8218
35.9281
21.6406
20.98
34.9205
39.2073
38.0399
38.207
26.6125
4.46231
34.8113
19.2957
30.4836
38.9064
19.2884
22.476
2.24773
36.782
37.9087
9.97153
4.37218
34.884
38.6861
35.6607
7.34341
38.2743
36.2261
37.8324
19.1101
15.0925
36.9866
35.0735
34.9924
2.23745
39.0493
36.399
21.7856
26.7095
34.8426
34.0324
31.7217
22.207
0.115399
35.4232
16.1982
22.8172
39.1925
35.8512
37.3871
37.9661
38.5488
37.0879
19.1476
37.6706
37.3642
35.7868
19.201
4.34294
35.9129
35.8474
22.2876
4.38737
4.50569
36.3696
37.421
4.4291
38.3651
19.3576
4.38992
4.56041
35.9641
37.4953
37.4942
38.2938
16.3929
37.5245
37.1831
24.3267
37.4466
7.73014
22.6949
35.5846
4.21475
34.8811
7.72106
20.1023
20.8247
22.0544
30.7952
34.9779
7.66511
22.3373
0.104017
35.3348
30.5225
34.4935
1.26832
38.3578
23.0009
22.4876
22.9765
35.2081
37.5703
39.2154
4.39632
35.0822
3.01036
35.3058
14.7317
1.18063
3.13221
4.41933
37.1062
36.0081
35.2899
4.48932
36.2503
35.0454
29.9958
39.0589
39.034
37.4681
37.4128
3.20876
35.4737
37.8889
30.6658
35.0364
39.0962
34.6428
37.7738
22.966
3.09115
36.8976
16.5349
31.9625
23.0174
30.7792
3.86731
38.6177
20.2779
26.2536
23.0779
38.5055
30.8633
3.21971
34.5636
3.00545
28.5514
29.5435
12.0195
2.12884
28.9868
0.542994
2.77428
38.312
36.0075
2.10549
2.09845
38.8625
2.13609
18.0701
2.72657
35.8453
29.2991
38.368
2.90419
2.78118
36.6695
1.43641
2.69642
29.4123
0.831657
35.758
12.9578
29.4745
31.1518
29.2665
24.958
38.1905
38.3648
24.3773
37.3712
18.5461
25.2501
34.3561
31.0142
30.8766
31.016
37.4111
34.5458
6.61502
38.7882
35.608
24.856
36.1494
36.5173
30.8873
30.5377
37.3907
29.5581
37.9483
38.0424
38.8617
37.7346
35.7807
38.3277
25.1432
35.9902
38.7323
38.8996
30.995
24.8141
15.3422
6.55398
36.7639
36.2693
25.9881
37.7211
36.5083
34.1577
25.4388
8.57884
36.8292
36.4589
36.1391
36.4008
38.6443
36.2982
25.8426
36.2515
29.5612
14.7909
38.1941
37.5883
35.8235
29.5215
35.8474
37.2011
38.2401
29.8289
38.4481
25.7964
26.9351
29.246
37.0213
33.6891
25.8747
14.2502
35.3916
29.6731
21.4103
36.2497
35.5398
34.5783
36.4398
6.60411
12.8368
26.5056
30.1522
36.7117
6.5683
35.4683
34.8193
34.5763
38.771
11.6205
37.8239
35.7912
27.4599
8.57816
35.7982
20.8504
35.2933
26.5535
35.4684
38.0797
38.5733
37.3895
3.02793
12.7028
31.207
36.7922
35.7233
3.10203
37.3964
34.9964
37.7604
19.0862
30.3465
16.3829
36.2563
27.7697
27.6015
35.4257
27.6462
36.0945
24.0143
21.552
12.4663
27.6178
27.6044
37.5615
37.9815
37.9971
27.6431
39.21
28.0838
38.979
31.4803
36.1543
14.3437
14.7929
35.8232
37.2356
35.7603
39.0112
28.0905
35.7487
34.5806
3.09828
28.0628
35.3306
34.9769
35.0323
34.9947
36.1151
37.6144
28.1659
21.6084
37.1603
35.9199
30.6961
37.754
28.1374
3.10488
35.6183
24.4083
37.4465
1.86415
35.9293
15.8965
36.6233
30.6255
29.9295
28.8949
24.5149
24.5036
33.5521
35.5537
24.6778
35.8806
11.5916
36.5104
38.4999
34.9733
38.499
38.646
38.833
24.5296
24.5428
37.4608
34.4304
36.2537
24.9112
29.3923
37.9076
11.6508
29.3137
35.8463
4.04908
2.82935
11.096
29.0339
37.3761
37.7903
38.2256
37.1244
11.6966
38.556
24.9996
37.6347
25.1518
15.9543
38.4303
25.0477
38.8485
37.3166
25.2823
26.6878
32.4098
37.6414
35.7337
36.3802
12.0769
35.2134
38.9548
35.593
31.9269
34.725
30.5711
34.9859
35.5531
35.5366
3.46796
3.0611
17.9264
13.3171
38.9712
25.254
38.0993
38.8721
2.9731
35.9829
30.7258
25.1677
2.13265
25.4462
30.6518
17.7575
38.6805
30.6398
30.3579
21.6726
25.8913
8.89228
33.9075
37.679
17.1272
36.3351
36.471
30.6981
20.524
30.8561
38.1015
38.0752
27.4221
35.8345
36.0094
25.6528
35.7763
35.8352
10.3759
25.7266
26.3567
10.3652
5.26409
36.2142
37.5205
30.7711
10.2959
37.0609
35.8007
18.2691
36.0891
34.4168
34.7768
34.8251
33.5526
34.2197
37.0559
17.3681
36.3705
26.2188
36.6208
33.1698
35.7992
35.89
38.7175
37.3537
16.093
37.3936
37.3567
34.8984
36.4886
38.6527
38.0558
9.78368
37.429
8.87293
26.3916
35.8786
17.5875
36.882
22.1973
29.5586
2.30077
2.35523
35.982
2.55833
16.1436
28.828
38.7996
26.9593
7.71523
1.15106
35.2856
1.46496
35.7255
38.6664
36.5189
37.0041
1.46444
37.948
36.5675
1.15097
26.975
1.11026
38.8879
34.027
17.6051
38.3562
30.8375
35.8316
2.49032
35.8994
36.0686
17.4823
36.6131
26.8488
37.7731
36.6173
7.63233
22.7191
5.58954
12.4666
29.8025
9.8916
36.6546
35.4337
14.9807
5.80846
9.6768
26.8739
37.3836
8.94293
37.2558
36.3852
15.2511
27.104
36.1264
5.93557
38.69
5.64312
5.18029
35.3687
37.034
38.2902
14.9456
37.9158
37.9204
15.0819
5.62036
25.8672
1.36316
36.6509
38.5549
18.6734
15.1427
36.6842
15.0647
35.7114
14.9894
36.8924
36.7599
14.9826
37.431
21.5784
13.7542
36.1895
37.0489
13.7842
34.3886
16.6735
37.665
26.1325
37.7457
34.4429
34.4
13.8781
34.9059
34.7766
12.8093
34.825
33.245
34.5228
35.7171
36.3078
28.9433
16.6914
37.8852
38.1177
16.539
16.6107
36.1669
15.125
37.1213
36.282
19.2785
18.3709
0.117464
36.8663
38.1252
37.9552
37.3668
36.1385
36.1637
38.173
36.3042
36.3799
37.0551
37.9958
36.3236
37.6101
36.7836
36.4021
35.4143
36.767
37.0387
37.4945
37.7705
38.7661
16.9295
37.7912
36.7956
38.8394
11.5138
39.203
36.2669
32.6554
35.6918
35.5769
11.5921
35.2771
35.4359
32.8984
11.6622
37.6198
34.3312
34.554
36.4954
23.8444
11.731
11.7854
11.3389
6.9134
36.2017
36.5668
8.65591
9.10516
11.322
37.2464
10.2995
23.0115
11.1604
1.77957
2.02089
11.409
3.54599
11.1499
38.8327
12.6829
10.2733
15.8863
10.3295
38.3297
38.0521
38.6205
37.4651
38.2968
9.02119
10.459
38.2652
36.4075
36.2669
35.3748
36.5761
36.4996
35.7976
36.3313
10.3093
29.5266
10.4167
17.3855
35.9568
35.2803
23.5514
30.2384
37.0005
37.372
16.6768
38.9906
37.8387
10.1673
10.3913
10.3619
16.4572
23.3696
36.3493
0.107209
12.3961
34.5965
36.3547
12.2657
36.2479
35.9769
32.3682
31.7969
17.5647
35.4298
38.9656
26.686
12.5944
0.13608
9.07763
32.9019
37.5086
24.8367
35.1836
38.9759
35.4455
16.4678
36.5429
8.99784
0.383777
12.0997
12.5149
38.2088
7.9157
38.4806
35.417
38.2953
36.141
2.88473
33.3008
37.408
37.1024
35.1084
9.04782
34.3894
8.10685
9.04126
2.79796
9.0554
35.3623
35.5827
34.7066
16.294
6.78578
30.8051
35.8633
37.6815
34.5622
23.7423
17.525
37.3915
6.77477
32.4594
12.5956
6.74421
37.303
34.4506
6.79679
9.00974
38.0713
20.4853
19.897
17.5675
8.04062
7.09902
7.30916
34.5519
2.62965
7.32659
6.19082
35.094
12.0675
34.606
15.9816
7.66769
39.212
1.8476
7.32701
7.99402
9.53185
35.3915
32.2963
26.2885
33.2216
7.37117
35.0403
2.23414
7.29294
35.9895
37.5151
31.2828
28.944
10.5568
35.2803
17.8873
29.909
30.7493
27.2601
35.7935
38.9543
8.97262
35.4455
8.08084
29.3616
7.30847
2.15657
36.9347
21.8124
8.90861
36.2934
34.4415
5.62148
38.2229
5.65528
5.28837
37.7345
35.3817
12.646
36.6021
36.8116
39.2248
2.13105
30.8499
16.3804
38.937
15.9259
3.86641
35.4665
3.84102
4.03569
2.40854
29.1971
37.1159
8.01592
1.50274
3.93883
3.99199
2.50971
28.6351
14.5637
37.6538
0.414499
2.74357
37.3123
3.99082
38.8854
37.8558
38.6042
39.0924
37.0526
23.6632
38.5696
3.84752
19.2365
38.8964
18.4456
35.5024
2.72308
36.2512
28.4454
35.3383
15.3651
24.5993
29.8473
4.16413
2.7252
15.883
2.41786
4.23634
32.8068
4.16464
10.165
4.26712
38.9066
9.00453
29.0335
4.32261
14.1976
29.3817
38.7871
34.7194
36.0231
16.0896
37.0136
34.0635
2.70825
35.0898
19.7583
36.2838
38.7661
37.3869
9.96788
16.7975
4.65481
25.2267
2.22629
8.53899
8.05501
10.2351
3.19508
8.02895
8.39121
35.4256
38.5124
39.2148
12.6716
8.81619
35.7109
37.3791
34.2553
8.08376
3.27618
36.8314
8.3887
37.8867
30.6369
16.1436
26.1979
37.2761
37.7255
10.0493
37.4458
21.5084
4.27272
35.1884
11.2797
14.2191
1.73594
36.0876
27.1592
34.8074
20.5923
16.3698
37.341
38.6899
4.11622
34.0732
38.3468
5.33365
1.98046
37.6254
36.1181
34.7097
8.14639
34.1066
12.7942
23.8075
20.2097
37.7017
34.5308
23.2918
37.7592
38.0068
38.146
36.9908
34.7768
35.3178
35.1919
36.2615
35.3988
35.2732
35.2003
35.2435
21.5052
35.2141
34.3499
34.3315
35.3909
34.5585
37.7182
23.7433
34.6167
35.2627
24.3446
35.1012
35.2989
35.3985
23.8192
35.249
23.7254
26.2562
20.2131
35.0648
36.812
23.666
30.6404
35.7609
38.9137
12.6453
34.9619
12.5743
34.9106
38.1538
34.9242
12.5541
12.4566
38.0126
18.3202
35.4321
34.6108
28.4465
6.45906
23.6862
38.9727
12.597
34.5579
19.7984
37.091
36.1451
36.7806
34.4263
6.45747
7.87209
38.4152
30.6733
36.226
36.2254
36.2108
37.0493
22.2778
22.3354
8.03856
30.715
39.2088
16.215
12.8496
5.90919
22.2998
38.927
6.33556
22.1803
11.4146
30.6754
11.9275
35.9342
15.2857
22.6314
12.7288
22.7361
23.8642
35.9746
24.0914
35.6434
37.7736
10.4361
38.4248
16.086
38.1237
35.833
35.373
36.1077
38.667
22.6857
36.007
18.8063
35.0273
38.2556
15.6939
21.7267
8.4448
18.1819
38.5737
31.3919
38.442
19.8791
35.8305
15.6895
22.2104
22.5461
20.0461
35.7319
35.7292
35.6773
6.83627
38.2646
36.3147
6.83553
35.8585
36.5768
22.475
35.7189
12.2621
30.5551
35.0532
35.0281
34.9484
8.04339
13.5403
37.0047
0.257197
19.4537
34.9701
22.9119
38.2301
6.99743
15.9204
5.9983
36.8512
16.7906
8.7511
23.7226
21.9966
18.6122
37.3596
37.5616
29.0185
36.4516
37.1038
37.9462
7.06059
23.0148
9.19538
14.588
34.7897
16.7539
12.7705
13.7038
16.5049
16.7599
21.0725
18.4308
37.3671
37.3138
37.3298
18.4921
38.2898
19.5779
33.9727
18.5002
30.7576
7.08871
3.44554
36.6187
38.0079
18.5525
18.4307
37.7667
37.5632
39.0647
7.641
18.4237
19.0666
19.2472
1.83458
12.752
36.4416
38.5326
37.6641
1.47324
12.2757
0.195089
13.9142
7.94104
19.3141
35.4606
37.6511
34.414
35.8297
1.92748
16.4414
37.5041
35.9584
35.4075
38.8818
39.118
35.2468
20.0265
36.749
24.5441
30.6737
36.3373
19.6273
0.570365
7.45585
38.229
35.3723
19.9321
37.4158
20.0093
30.8915
8.09852
35.1968
34.108
37.1718
36.7305
36.4914
35.1918
32.2922
36.0183
20.0816
9.17448
37.6699
37.6097
20.471
36.3974
37.889
11.1341
29.9726
36.2468
36.2219
35.4271
4.12987
37.4679
37.5263
31.7776
20.5544
20.4865
36.9135
36.3065
34.8333
20.5523
20.3507
20.5002
14.4885
36.8927
3.41869
0.689974
0.852719
38.8945
38.6581
37.6779
38.8379
37.4701
11.1178
11.4021
9.15225
38.9309
38.1831
37.4291
38.0103
35.345
25.0104
1.27766
0.320651
36.0922
37.3224
38.933
30.6856
23.3603
26.9308
38.0184
30.6583
35.2027
35.9497
37.5413
11.0824
12.3176
36.3117
35.7718
15.1424
37.5526
8.13949
10.1073
32.5039
36.2746
35.8535
8.16811
25.1791
35.2988
32.4671
1.1242
16.2955
36.7745
36.3823
38.8682
37.6402
2.19739
5.62755
36.3935
25.2544
21.64
31.0395
37.0157
36.4525
36.3432
36.3956
16.7396
35.1515
37.0581
35.6449
3.70623
18.9756
4.58999
35.582
38.7092
21.6647
35.2363
37.5834
36.4908
36.7639
11.8288
35.3756
36.5905
36.6124
4.56894
12.3322
36.4343
38.3579
36.0769
14.3357
35.0561
35.9088
36.1056
38.4611
38.2252
30.4185
16.6104
39.2068
13.1199
16.5026
11.5007
38.997
38.8012
37.2926
38.8742
36.5398
15.6665
37.0082
34.5716
35.0778
21.7117
34.959
21.5907
37.4922
38.2593
26.0202
31.1184
35.0088
21.7917
36.9729
21.6942
35.3483
36.0437
36.3613
35.5175
36.2375
24.7878
36.2954
13.8511
38.4562
34.8268
38.2365
36.4494
4.32565
19.9079
37.2821
32.5953
39.1489
22.2354
24.798
19.8759
39.2116
30.2684
19.8436
25.0302
16.827
30.6395
20.1025
35.3214
36.7136
30.7967
6.92248
19.931
35.8865
35.2016
34.5388
32.7636
39.0449
36.1614
38.3995
38.8538
39.1659
35.0454
19.6727
26.3756
9.20434
34.554
27.9083
38.4006
15.8968
37.6899
39.0996
37.7611
35.2452
26.4087
35.4372
39.1778
36.9755
13.6025
37.1101
38.0026
25.9022
35.3959
33.8657
33.5002
33.3576
38.8781
33.4572
33.3557
33.4359
33.7475
36.8003
36.8004
13.4978
20.7528
34.8693
34.4914
37.0044
13.7071
35.4148
35.5225
26.1786
36.5307
37.3891
22.1483
26.3909
39.1164
36.3479
28.1373
34.7532
35.8751
30.6295
14.7478
14.3289
35.5116
14.5433
38.638
9.00155
30.3161
14.4656
37.0957
30.3243
14.527
35.3507
30.6247
36.0244
13.6386
35.0572
13.491
35.6379
24.7751
36.1256
35.6418
38.441
30.614
30.6853
38.6572
14.8493
24.7733
39.2101
37.0553
11.1985
0.55302
30.137
38.9447
15.2853
15.0519
26.0433
30.6255
39.1476
30.1842
36.6345
29.1249
37.6912
30.6548
30.5657
36.0471
9.38258
35.7242
25.7412
37.3045
36.0531
36.2671
37.7139
36.4257
37.6422
20.6979
11.2995
28.9698
36.2031
34.3041
28.8695
36.3112
39.2027
35.8645
38.9618
36.0661
0.441899
37.0914
38.557
36.6841
0.398534
36.1605
37.4686
35.1703
2.12672
37.7489
2.17453
30.3994
20.2416
2.13567
2.28225
35.4623
36.3078
37.204
2.15927
4.67861
35.5971
34.3717
2.3295
37.9451
38.6513
28.8207
36.0216
15.0315
36.2372
2.3448
25.7192
36.2748
36.7645
36.2588
38.4211
37.9269
25.7837
36.3084
2.398
35.7995
36.8338
5.31419
38.5114
15.954
35.4176
37.9925
20.9312
9.39147
29.1099
38.4089
38.4673
37.2602
9.35442
28.0075
35.7263
37.4637
35.3063
5.81473
36.2735
16.0873
29.0225
36.7911
36.492
5.91107
37.6479
35.1795
37.7473
35.3764
38.1016
29.0442
34.2302
35.8994
38.241
34.3627
36.5269
34.4508
35.8907
36.1596
35.4171
9.42281
35.4155
5.75139
35.2505
36.3985
30.6474
5.81596
36.2776
35.3879
36.4248
5.63801
34.7986
37.035
35.5372
36.3907
6.35802
36.2638
29.4759
39.0736
19.4584
34.8667
23.4396
35.8549
37.883
18.485
34.6318
36.2313
4.65119
19.0492
38.8331
38.4011
20.8542
23.9418
5.71852
5.76262
5.82482
20.9023
5.68085
24.3554
35.6611
29.525
34.3933
34.3594
36.9209
35.6741
37.8179
5.62358
38.9347
39.165
38.8281
27.5841
24.2426
34.2185
22.0056
38.5563
22.4909
35.7638
26.294
6.15018
34.4066
19.0725
35.7975
35.9609
37.309
6.31139
19.5797
37.2356
37.9459
6.3789
38.3989
29.8769
37.6978
28.1734
37.567
37.3001
38.7622
37.2631
5.04826
37.2536
31.1515
38.4535
20.094
36.9275
36.5566
33.5163
33.3993
36.441
36.6376
37.672
38.6112
19.0365
29.7648
33.9114
38.2935
19.5385
36.9639
38.2687
30.717
14.7038
27.3546
37.3471
3.4753
20.7886
10.0043
15.6407
37.7395
39.1622
39.164
38.4904
37.4098
37.2706
37.2665
35.8744
37.3488
37.2675
37.4613
37.2021
28.182
37.3099
36.4146
35.4648
38.4934
36.9549
32.6278
36.8982
36.6454
15.6772
29.1458
35.9282
39.0868
37.4056
13.648
39.0287
37.6531
29.0106
37.8576
36.2957
37.9271
38.2427
26.2474
37.6572
30.1484
38.26
37.9433
36.6991
36.9801
36.5278
29.0922
29.2726
7.52786
38.5424
35.5611
38.671
29.2866
36.2651
29.2133
29.2645
37.7935
35.2544
34.2475
30.2606
35.9981
34.8966
30.2243
34.3457
21.405
38.3483
24.7615
34.318
33.8645
37.4822
18.803
37.9217
18.9616
26.2004
36.053
19.0368
29.7246
37.595
26.4056
36.5336
36.1299
36.3688
36.0614
35.4816
37.1353
36.2528
38.9125
29.2789
34.9539
37.1185
37.8998
36.1173
35.9325
13.7834
33.1131
29.6109
30.9357
36.31
17.8883
17.9554
37.2712
34.9369
35.406
35.7475
35.7805
35.6734
34.5255
34.8628
22.5314
36.7942
38.9666
34.0237
34.317
37.4672
18.7508
35.5147
36.1302
38.4412
27.7334
38.8452
36.9312
21.1501
37.702
39.086
35.3058
39.1213
21.3067
36.8812
36.7465
36.5657
35.3256
22.6913
27.7257
27.6723
18.7883
23.9406
24.0369
37.9527
34.6418
30.3326
23.3667
34.6466
30.3344
38.2846
30.7775
36.0362
27.8062
37.1362
36.2687
24.0564
30.5971
36.0643
23.315
37.062
37.7385
27.8191
26.3492
38.5313
37.1224
35.8447
37.373
36.5018
34.606
38.5645
37.7203
23.2207
38.6007
37.5301
36.9772
24.0982
36.3014
34.6242
37.5828
37.2152
35.1811
34.7232
24.0961
36.1354
34.811
14.0454
38.4497
23.3387
23.0459
36.4849
14.5267
37.5943
35.3805
38.0729
34.8615
38.5062
39.0245
39.2262
39.0508
14.3064
38.6901
38.0354
38.6924
35.3825
37.0709
35.3515
28.1985
37.4955
38.3255
26.3293
37.2529
37.4587
39.1921
14.136
36.7743
27.6757
34.6978
30.7538
1.66572
37.3557
34.6545
13.87
34.5012
37.3133
29.7976
30.2177
0.102738
25.372
30.9537
30.8214
38.6969
35.983
17.4603
28.4205
27.5285
16.9666
30.7014
38.3835
3.10598
17.4763
17.4271
39.2138
17.3843
2.62379
9.94322
16.5122
28.3707
18.1103
3.68247
16.1951
0.586713
7.3599
16.58
34.6318
0.424717
0.134334
18.8578
21.9882
0.885711
16.5141
0.60927
34.6678
28.8982
34.6352
8.82962
17.5312
22.3851
13.1269
34.6604
37.4181
16.1922
13.2417
28.5595
27.6532
4.48775
17.5586
33.4686
17.6106
37.4909
31.1124
28.6409
25.228
10.0407
28.8376
29.4066
20.2376
12.4461
12.5743
9.03835
17.683
0.441219
34.0904
33.9164
17.7307
36.422
37.456
16.7684
16.9494
1.36278
36.6027
25.6296
26.4001
12.0907
33.8132
37.4854
28.9232
0.371187
28.6964
39.1666
4.36367
37.9192
13.041
20.0031
24.4904
24.6932
36.5413
37.581
26.7308
17.0255
16.9772
37.6234
13.6904
17.0929
22.0631
37.8298
12.3006
0.991062
34.5501
10.0263
30.8556
27.3384
35.9075
26.0358
30.6503
37.5713
21.1306
1.869
32.1064
21.5321
21.51
3.84602
18.7137
21.8274
1.34441
28.8925
27.6674
20.4534
3.43688
18.1951
29.5354
13.1546
21.6389
7.40346
16.5812
29.5516
3.91252
37.7386
21.5223
21.4672
28.056
5.23906
25.0821
35.9372
21.4384
9.9854
37.8183
25.6069
0.431498
21.58
20.7884
2.50956
0.499559
18.486
20.814
25.8135
37.792
37.4215
25.9471
38.8377
26.0133
25.2432
35.4127
2.56222
22.1128
13.7363
38.6882
9.98159
11.4069
25.5685
28.7228
11.2189
4.82564
13.8917
23.354
37.4651
36.1099
28.033
23.2937
25.5203
14.5338
36.109
23.4881
20.0069
35.3705
13.7722
17.6944
1.29154
30.4011
24.1112
20.168
4.11386
15.3775
38.826
21.5649
11.0069
20.51
30.2484
36.1302
24.314
35.6121
37.2038
11.567
19.9993
12.5592
30.9635
26.5344
32.347
37.5322
20.0258
20.0587
12.8167
12.7992
36.2647
39.2178
39.1571
12.8957
12.846
30.2396
9.85969
35.292
36.1951
12.8597
14.2925
24.8473
12.7793
12.7625
15.3626
23.9916
33.4131
36.7998
19.6545
1.3898
36.1729
18.5219
15.2628
30.6479
19.5465
15.3041
25.8116
36.182
13.1934
15.871
38.7505
35.3383
0.833038
1.30653
5.37499
2.20777
15.3348
15.463
3.7437
9.85655
14.1489
2.1946
36.0907
36.007
0.0857687
2.45197
15.2907
29.6742
14.8362
14.6193
20.3445
12.4582
14.754
37.0869
38.7389
29.5487
36.0312
34.6857
16.0309
10.1472
15.7114
28.899
34.8784
24.3846
29.737
35.0521
29.8167
29.964
14.7272
14.8412
0.975095
17.1586
28.5589
2.49524
37.3094
35.0301
27.2055
4.78286
12.8327
4.94124
25.5945
23.1257
28.1212
35.0696
15.6674
3.31487
13.6156
29.8022
24.3142
27.4944
30.0078
15.7527
3.57148
34.9632
22.3332
15.1106
32.5287
34.7125
34.411
13.611
34.6223
0.752306
13.5532
12.7033
17.1538
26.6986
33.5498
32.6529
35.2325
34.312
25.8649
37.3067
37.3117
30.778
37.3768
9.90902
13.2093
12.1578
9.27862
9.83311
17.5847
34.2062
4.73112
2.06137
22.9001
16.6366
9.24173
15.6391
37.4607
29.9979
9.06453
20.7293
37.3273
21.0281
16.3575
37.2913
36.3458
25.4276
8.94681
38.0595
18.4691
16.6363
25.4597
38.2809
37.2565
1.44152
29.7292
17.3652
37.3757
38.5823
37.2908
20.0005
32.4464
32.4973
6.23812
30.116
39.0305
6.21383
30.0484
14.0627
1.5998
1.51571
6.73478
30.9389
1.73209
39.2047
7.09158
3.64043
0.542059
11.295
2.62123
2.54764
2.69651
2.86963
0.643772
26.3865
30.783
15.459
25.8429
28.6839
30.6043
2.8035
30.7058
2.82096
0.650699
8.18471
4.97875
25.454
4.93529
30.918
5.81174
35.1217
15.818
32.9947
11.6901
17.6062
38.7574
21.6439
35.1495
18.4103
35.1992
35.4549
12.1398
22.1925
34.6545
4.79135
12.8021
22.1173
36.2058
38.4424
25.7543
7.03244
29.5716
11.5959
3.84965
21.6103
27.7331
20.5464
21.7555
34.3268
15.6734
37.5387
35.5773
8.73366
6.29128
29.1247
8.37036
5.55141
21.6964
22.5139
35.6122
28.058
5.43439
21.4364
35.5426
38.7971
15.7319
18.4367
34.2079
25.2222
0.469345
18.9706
1.4628
4.50576
11.7154
36.3575
33.3506
9.31992
27.2356
39.2148
8.75886
25.2673
19.9107
31.0259
9.3116
30.949
15.7341
26.1924
33.6873
26.7884
36.8612
18.206
22.007
4.29014
0.22897
34.5798
0.326884
27.3642
20.8398
26.5991
34.6428
37.2698
9.8024
26.9728
20.8927
18.0174
25.0306
7.08035
1.33651
13.5472
1.49674
1.03408
25.3615
34.8
29.3216
20.6086
0.10164
24.7071
34.8448
36.6652
30.1858
28.9155
35.3544
29.0084
22.923
34.9932
33.7686
33.7679
22.4693
9.12781
30.9921
33.9183
25.1279
10.3836
35.109
2.22413
34.4122
19.8887
7.11383
38.2522
2.06283
24.8119
24.8097
6.31299
36.9764
30.0427
23.7951
26.5422
24.7613
25.7806
26.433
22.5763
30.2367
23.2868
3.67229
9.26932
36.099
34.4999
34.2625
35.3098
21.307
10.7762
9.43167
24.8769
5.41524
9.52142
18.9365
22.1569
21.1981
6.87439
22.7845
24.9089
19.9918
5.05673
37.0176
24.6815
24.6585
21.6388
22.9544
35.175
12.7467
13.0403
17.8466
17.8938
14.3244
35.9093
14.1633
14.2507
34.5863
14.4153
20.4474
35.3347
14.4125
35.2402
39.2078
12.756
22.2407
20.535
14.2547
36.5646
2.21225
22.9822
39.1775
11.5436
14.7227
12.0735
21.005
35.242
22.296
22.2133
19.3997
35.3785
10.1132
3.83257
19.8116
8.68447
10.9426
38.5935
35.4709
34.8936
0.709585
35.0529
9.85988
8.19996
2.66749
35.5195
3.00023
35.2428
37.0197
35.3027
12.1252
0.309764
29.9064
19.7926
10.5962
34.6789
34.4225
25.1122
24.7141
8.09272
28.5939
10.675
30.1577
36.9446
33.9052
33.9141
37.0483
33.9552
0.429899
37.4209
9.85601
18.7855
10.6567
2.04057
12.7166
34.4831
8.36415
18.7992
21.9683
26.0305
34.5411
36.7896
22.7549
8.32874
30.6925
30.6371
28.2689
29.3492
30.2689
30.0502
6.2575
1.40295
6.29486
30.6187
6.16236
18.8916
20.3474
4.14719
6.16849
28.2038
30.7775
30.6021
30.6009
30.5944
4.29401
26.2962
39.0789
30.6751
30.5678
2.3155
1.37699
0.504123
18.9168
14.1859
30.523
1.49581
28.9716
36.222
9.91682
13.5769
15.4308
36.2412
11.4905
6.35822
1.5954
13.902
38.9766
35.9512
20.6394
3.92649
3.74732
0.756935
35.3058
37.8112
38.0147
15.3758
18.4205
3.52617
37.7463
10.1664
35.8958
35.7866
1.51861
1.07144
36.23
3.56453
3.66169
0.731796
39.1486
38.3626
6.55486
18.9215
35.887
3.23065
2.88912
2.93329
35.7417
35.7207
35.786
2.94124
3.23962
25.0042
2.88133
38.9734
2.69001
17.8122
25.2249
23.0305
35.267
36.7477
2.57548
26.6737
25.9682
12.9935
35.344
29.9291
37.4885
4.37501
28.4493
18.0038
35.407
34.7314
26.9863
27.9056
34.6265
34.6879
37.5995
11.6775
35.0331
34.5423
18.6655
18.2598
37.5717
34.5086
15.8643
2.75915
2.84064
12.1306
10.1846
34.5672
18.894
34.2781
34.2376
34.9054
12.8181
21.0146
2.88815
34.3055
35.1302
18.2146
28.2376
19.3157
21.2242
16.6993
14.4995
16.5172
2.7907
34.2631
17.8997
13.2381
2.82018
11.9119
21.099
33.4336
11.8073
11.8217
11.7801
11.7986
4.00688
34.1521
35.0876
13.7311
35.0404
35.1103
16.5679
35.1078
9.83404
35.0012
35.0798
35.3943
34.6941
13.1068
4.27346
13.1806
34.8293
6.25972
12.4961
17.7669
34.9616
37.7345
13.1211
13.9665
29.2773
13.144
34.8516
0.137407
2.79479
2.23231
36.6116
35.3442
7.75233
6.54025
35.4071
35.0526
24.4881
0.192642
34.8886
27.0024
24.4414
24.4953
14.5285
35.0297
16.5382
31.5998
1.42567
0.314791
24.5172
24.2546
22.406
9.22129
16.8712
34.7203
18.9244
16.8834
29.1894
26.4433
24.4816
34.8182
11.5649
17.2398
9.66481
14.7036
17.0321
28.4901
1.14109
25.9159
22.6936
24.5288
6.84684
24.6462
25.877
16.7926
20.6355
35.2872
30.3231
39.1682
16.6511
17.3691
24.7056
25.9556
23.7167
16.9028
16.928
27.4534
13.0989
4.34883
36.3625
34.1954
25.9559
25.977
20.094
25.9196
28.9832
27.0212
28.9497
28.8104
34.318
4.22488
28.8784
31.1091
34.2963
0.428478
34.108
12.8716
16.9267
30.428
11.4642
39.1292
16.3425
28.8168
1.92974
37.3771
28.8937
3.69184
22.1942
28.7758
28.7945
34.2548
37.2191
11.8749
17.8449
9.39677
17.8294
16.0449
18.1262
29.2615
34.6264
0.461121
34.5257
17.9679
4.2427
19.1954
38.187
33.993
27.0025
18.0321
12.9901
19.4551
37.3072
19.2463
19.4674
0.523205
19.4232
32.6914
32.1281
19.2493
36.8903
36.705
11.4931
32.557
26.7309
38.4229
8.61002
34.868
30.4187
38.6237
5.34116
25.6083
30.1868
19.3256
20.3656
17.4517
24.5732
29.6351
1.55594
30.2427
10.7259
30.0179
35.3617
6.16459
36.4979
20.3955
20.6654
16.2107
14.3311
20.2539
0.450098
12.6823
20.2018
19.7003
30.9891
23.9738
27.0038
34.9165
20.169
4.48268
30.5642
4.14221
20.2894
30.6405
6.23055
28.5682
18.0541
30.688
18.1709
10.9145
20.4769
16.4666
36.7096
36.598
17.3866
17.7349
22.4045
37.649
30.6061
1.2587
16.8731
12.7531
8.01391
13.4184
11.4215
17.67
0.0520223
10.0444
23.7914
8.43834
15.344
13.7195
12.5819
23.7504
20.2379
8.35021
30.9508
18.9472
30.9631
7.35257
21.5031
30.8339
9.45967
0.0952896
13.4676
17.7076
7.53093
6.22183
36.0498
21.0996
30.8578
30.7655
32.4708
21.1342
34.3613
11.5952
21.1073
2.93422
22.6742
36.0683
20.5737
23.9437
0.532384
21.4804
30.8907
23.7264
37.2869
13.8602
1.7973
22.8201
29.7386
31.2552
36.0493
37.43
31.6636
34.7975
23.7851
36.4986
30.4221
31.3848
34.5363
34.6858
1.59518
34.7548
37.429
23.7168
13.3664
38.4829
16.0017
12.1132
16.7782
30.7042
37.4373
27.3399
24.0233
22.7472
31.2737
37.4892
28.9551
23.216
26.1357
37.241
13.6334
23.0672
35.9839
11.9562
37.0664
35.3001
29.0335
22.8388
37.7509
29.0249
28.6579
29.0867
28.5367
19.6375
27.9926
27.8132
20.6603
23.7235
38.9262
10.8681
3.83971
8.25168
1.16132
28.4014
3.63355
11.7753
37.8151
36.4099
18.2029
28.4531
23.5126
11.0937
23.5545
12.5753
1.26797
37.5354
0.0890563
28.0015
3.14576
23.5588
7.39515
37.8071
27.2502
20.6746
27.2768
31.5447
37.7022
10.3403
39.0212
4.14403
38.7861
23.6126
27.2477
22.4506
17.0767
20.4594
1.02339
22.31
37.7352
23.6901
23.693
35.696
35.7659
1.48313
20.2744
37.9999
0.0435572
35.7928
8.82815
27.2784
35.829
2.40883
17.2903
19.3354
35.8609
23.5787
4.01269
15.7331