/*--------------------------------*- C++ -*----------------------------------*\
  =========                 |
  \\      /  F ield         | OpenFOAM: The Open Source CFD Toolbox
   \\    /   O peration     | Website:  https://openfoam.org
    \\  /    A nd           | Version:  10
     \\/     M anipulation  |
\*---------------------------------------------------------------------------*/
FoamFile
{
    format      ascii;
    class       volVectorField;
    location    "1.1";
    object      U;
}
// * * * * * * * * * * * * * * * * * * * * * * * * * * * * * * * * * * * * * //

dimensions      [0 1 -1 0 0 0 0];

internalField   nonuniform List<vector> 
111485
(
(0.877333 -0.8701 0.00569924)
(2.43855 -0.000106725 -0.00944452)
(2.4484 0.00868772 0.00527394)
(0.864246 -0.872945 -0.000190534)
(2.45191 -0.00653812 -9.68995e-05)
(0.874122 0.864073 0.00257435)
(2.44586 0.00256715 -0.00998553)
(2.46035 0.00412584 0.00150319)
(2.44755 0.00439735 0.0037447)
(2.4426 0.00493683 0.00937669)
(2.46551 -0.00405884 0.00725381)
(2.45209 -0.00205917 0.00377075)
(2.45762 0.00555656 0.0174287)
(2.43063 -0.0102463 -0.00698288)
(2.45378 -0.004369 0.0052665)
(2.43451 0.00789764 -0.0136857)
(2.44132 0.0164818 0.0196849)
(0.865877 -0.0400441 0.157396)
(2.45413 0.00476509 0.00117631)
(0.864769 -0.85696 -0.000715317)
(0.869507 -0.856045 0.0157567)
(0.863095 0.86682 0.0100561)
(2.45021 0.00271763 -0.00261313)
(2.44706 -0.00839588 0.000418738)
(2.42886 -0.0030841 -0.0103417)
(0.866838 -0.874286 -0.00616442)
(2.46128 0.00416297 0.00437646)
(2.45536 -0.00136492 -0.0171615)
(2.46227 -0.00494535 0.00838086)
(0.865899 -0.874145 0.0149799)
(2.43703 0.00110825 -0.013612)
(2.4388 0.000631506 0.0067495)
(0.867876 -0.864701 0.0028823)
(0.878111 0.863262 0.00987136)
(0.915399 0.365529 0.169514)
(0.870956 0.876975 -0.016111)
(2.45099 -0.00943085 -8.5474e-05)
(2.44733 0.0061834 0.00818792)
(2.53587 0.766246 0.0537077)
(2.44632 -0.000922276 0.00659051)
(0.842279 0.861471 -0.0316332)
(2.4488 0.0052675 -0.0147859)
(2.45359 0.00590309 0.00178563)
(2.44835 0.00829634 -0.000534007)
(2.53573 -0.0231283 -0.0234994)
(0.869494 -0.877187 -0.0213764)
(2.45388 -0.0013358 0.00468308)
(2.45327 -0.00334779 0.0019184)
(2.44374 -0.0133571 -0.0172725)
(0.847442 -0.842401 -0.00681857)
(0.876628 -0.87044 0.00363212)
(0.999138 0.833217 0.0189243)
(0.873596 -0.875304 0.0135297)
(2.46184 0.0111603 0.00358986)
(0.856758 -0.866059 0.00396665)
(2.45743 0.00513588 -0.0102115)
(2.45194 -0.00138232 0.00626555)
(0.852041 0.886291 0.00979911)
(2.45285 -0.00964768 0.00200106)
(2.44598 -0.000664456 -0.0051623)
(2.44893 0.000905829 -0.00816094)
(0.865682 -0.869913 -0.00282542)
(2.44687 -0.011609 -0.00759952)
(2.45154 0.00323729 -0.00476866)
(0.90783 0.816902 -0.00355274)
(2.45471 -0.00124626 -0.00085671)
(1.79731 -0.187957 0.0291328)
(2.4454 0.0120831 -3.71484e-05)
(2.44233 -0.0026706 -0.00867336)
(2.45382 -0.0060486 -0.00163897)
(2.4506 0.0352017 -0.0188594)
(2.43961 -0.00144937 0.0123079)
(0.925321 -0.849574 -0.00579781)
(2.4399 -0.0142095 -0.0100536)
(0.858039 -0.872285 -0.00500565)
(2.46338 0.00315484 0.0111578)
(0.861964 0.857566 -0.0119407)
(2.45467 -0.000415643 -0.00548101)
(0.86145 0.877138 0.00565951)
(0.788357 0.7483 -0.0223372)
(2.43935 -0.00601738 0.00789249)
(2.43429 -2.39586e-05 0.00391021)
(0.863345 0.872743 -0.0077796)
(0.871332 -0.869446 -0.000216856)
(2.45924 -0.00284164 -0.00138422)
(2.46417 0.00766905 0.00132781)
(1.98421 1.26755 -0.334568)
(2.45874 -0.00315582 -0.0039305)
(2.43096 0.0351321 0.00127635)
(2.44761 -0.0114459 -0.00733617)
(2.55104 0.0239063 -0.0236311)
(2.44873 0.00332653 -0.00408288)
(2.46096 -0.00370805 -0.0176677)
(2.44651 0.0125383 0.00252601)
(2.44494 -0.00689478 0.00886102)
(0.862783 -0.860162 -0.000884111)
(0.851103 -0.853943 0.00581581)
(2.45538 -0.00172195 -0.00791211)
(2.57511 -0.543408 0.0281143)
(2.45413 0.00465331 -0.00609999)
(0.866153 -0.861491 0.0162583)
(2.4581 0.0118225 -0.0199842)
(0.872614 0.889649 0.00294965)
(2.46128 0.00166955 -0.00290075)
(2.44362 0.0150946 0.00259155)
(0.858998 0.752886 -0.0193679)
(0.875344 0.868795 -0.00378778)
(2.43609 -0.00542466 0.000865677)
(2.47461 -0.00119705 -0.00665723)
(2.29563 -0.0647785 -0.0293491)
(2.45483 0.00663687 0.00993241)
(2.44707 0.0013988 0.00306393)
(2.45539 -0.0109104 0.000721145)
(2.44718 0.00237194 0.00832127)
(0.88154 -0.877277 0.00151346)
(2.4515 0.00297934 -0.000133239)
(0.869194 -0.86707 -0.00825779)
(0.868592 0.866833 0.00642904)
(2.45021 -0.008863 0.00172313)
(0.875223 -0.882292 -0.0049169)
(0.866266 -0.871763 -0.0013315)
(1.15872 0.895515 0.0559406)
(0.836323 0.85619 0.00161566)
(0.872268 0.864959 -0.00510289)
(2.44428 0.0076642 0.00395526)
(0.685997 -0.533435 -0.125494)
(1.11799 0.947584 0.0326255)
(2.44654 -0.00204232 -0.00700879)
(0.88004 -0.870358 -0.0128784)
(2.52574 0.150943 -0.0706004)
(2.43967 -0.00132538 -0.011817)
(2.45489 -0.0126693 -0.00212874)
(0.846769 -0.828039 0.003216)
(1.12106 0.981843 0.0988345)
(1.05169 0.945903 0.0361155)
(2.45514 0.00501237 -0.0048972)
(0.877946 0.863457 -0.0031728)
(2.4483 0.00590802 -0.00887553)
(2.45341 0.00448822 -0.00615267)
(2.45024 -0.00684121 -0.0170829)
(2.4405 0.0068153 0.00717568)
(2.45263 -0.00849453 -0.000765417)
(2.44789 0.00841406 -0.00194842)
(2.45176 -0.0111768 0.00536708)
(2.45265 0.0108533 0.00761987)
(2.44763 -0.00696733 -0.00549993)
(0.869084 0.880282 -0.000112402)
(0.869798 -0.87677 0.00814842)
(0.862984 0.864468 0.00291232)
(2.45095 0.0022754 0.00414493)
(2.45151 -0.0126152 0.00387653)
(0.863403 -0.858887 -0.00766395)
(2.42536 0.0277759 -0.000829892)
(2.45115 -0.00436149 0.00398622)
(2.66368 0.0563039 0.0240893)
(2.45437 0.00583204 -0.00411407)
(2.44426 -0.0113871 0.00712081)
(2.43098 0.00351648 0.00952785)
(2.64469 0.0660031 -0.00765474)
(0.868214 -0.868337 0.00802082)
(0.854588 -0.862834 -0.00498277)
(2.44552 0.00420101 -0.00465374)
(2.43761 -0.0113537 -0.00104261)
(2.66684 0.0878109 0.0302323)
(2.63054 0.0746487 0.0444126)
(2.4313 -0.0226564 -0.00618529)
(2.45234 -0.00188227 0.00509934)
(0.850744 0.866084 -2.9834e-05)
(2.70483 0.117878 0.0206884)
(2.59142 0.081923 0.0441782)
(0.872411 0.859791 0.0165524)
(0.863197 -0.860937 0.00762763)
(2.4266 0.00347605 0.00836263)
(0.870343 0.871156 0.00779911)
(2.45477 -0.00579464 -0.00735222)
(2.46633 -0.001806 -0.00300818)
(0.868324 0.845541 -0.0070574)
(0.928549 -0.859398 0.0121456)
(0.865984 -0.865626 -0.00172317)
(0.861128 0.808821 -0.00625633)
(0.934218 -0.860391 0.0270737)
(0.85623 -0.871861 0.00320557)
(2.45862 -0.00408736 -0.00316275)
(2.44507 0.00478871 -0.000508645)
(2.44236 0.00615402 0.00375208)
(2.43455 0.00404846 -0.0120126)
(2.46072 0.000630937 0.00335432)
(2.44681 0.00367378 -0.00521222)
(2.45564 -0.00502436 0.00152012)
(0.86922 -0.869475 0.00229534)
(2.44298 -0.015517 -0.00298153)
(0.933137 -0.857825 0.0113257)
(0.870153 -0.868204 0.00667006)
(2.44126 0.000304122 0.0027152)
(2.4414 0.00161406 0.00549682)
(2.46013 0.00495814 -0.00414467)
(2.44529 0.00414625 -0.00387421)
(2.44062 0.0125903 0.0121643)
(0.858457 -0.855639 0.00872004)
(2.4592 -0.00313726 0.0135493)
(2.45126 -0.00370975 0.00970267)
(1.68362 0.519379 0.0906462)
(2.449 0.0103295 0.00453557)
(2.45571 0.00192001 0.00699307)
(0.867053 -0.87764 -0.0093013)
(2.44834 -0.00485214 -0.00223388)
(2.45278 0.0131312 -0.00918633)
(0.937067 -0.853704 -0.00329049)
(2.45357 -0.0050875 0.000359578)
(2.45855 0.00122125 -0.00908827)
(2.45151 -0.0108133 0.0073076)
(2.44054 0.00322481 -0.0103452)
(0.942805 -0.869919 0.0197193)
(0.855761 -0.860445 -0.00735912)
(2.43929 -0.00402017 0.000627614)
(1.55471 0.955943 -0.0598957)
(2.45066 0.00491325 0.00288292)
(0.870429 0.864657 -0.00974575)
(2.44426 0.000222274 -0.00409337)
(2.44025 -0.00109687 -0.00868889)
(2.45497 0.0137141 -0.00313591)
(0.871307 -0.858786 0.011484)
(2.45388 -0.000733653 -0.00643645)
(2.45425 -0.0169125 -0.0041114)
(1.35788 0.896366 -0.0738572)
(0.868925 0.86589 0.00749525)
(0.869737 0.869594 0.0145185)
(2.49051 0.00723572 0.00835364)
(2.43338 0.0281563 0.020849)
(0.889839 0.774072 -0.021309)
(1.0845 -0.848153 0.0259576)
(2.43523 -0.00753044 -0.00810451)
(2.45798 -0.00851314 0.00230995)
(2.45224 0.00332646 0.00754938)
(0.908654 0.765845 -0.012406)
(0.915913 -0.848997 -0.00889248)
(2.44065 -0.00882649 0.0185877)
(0.860829 -0.866241 0.00833037)
(2.46356 -6.15617e-06 0.000758254)
(2.45235 -0.00062498 0.00298417)
(2.44863 -0.00185847 -0.00359646)
(2.45377 -0.000473204 0.00155561)
(2.45264 -0.00386402 0.00384903)
(0.868102 0.870839 0.0150676)
(2.38781 0.0134503 0.00231397)
(2.45327 0.00384934 0.000381002)
(0.864784 0.870235 -0.0210116)
(0.866209 0.883963 -0.0107393)
(2.44722 -0.00414138 -0.000938213)
(2.4348 0.00766052 0.00252576)
(0.881616 0.763939 -0.0297251)
(2.4542 -0.00900438 0.00552222)
(2.44638 0.00166385 0.00030121)
(0.868032 -0.871579 -0.0040571)
(1.0828 1.04306 0.0022592)
(2.44081 0.00631347 -0.00388437)
(0.870679 -0.862617 -0.00808557)
(0.937724 -0.687259 -0.0491129)
(1.27641 -0.472235 -0.0252844)
(0.875368 -0.869787 -0.00687241)
(2.45775 -0.00426505 -0.000469886)
(2.42586 0.00168724 -0.0061174)
(2.44863 0.00128857 -0.00945278)
(0.869453 -0.865706 -0.00734831)
(2.4589 -0.010571 0.00516222)
(0.87848 -0.873754 -0.0144037)
(0.869482 -0.874285 0.00781553)
(0.864048 -0.866237 0.0032841)
(2.42186 -0.00467251 -0.0170817)
(2.44876 -0.00313978 -0.00252875)
(2.4353 0.00849933 -0.000557838)
(2.45177 3.10543e-05 -0.00201178)
(2.44608 -0.00184417 -0.0138048)
(2.45567 0.00460932 -0.005658)
(2.45356 0.00136893 -0.00229614)
(2.46933 -0.00727656 0.010272)
(2.44589 0.0047123 -0.00826037)
(2.46233 -0.00795744 0.00069466)
(0.889441 0.870476 0.00314753)
(0.849868 -0.868395 0.00840043)
(2.35736 0.0022798 -0.00680908)
(2.45831 -0.00322907 0.00695066)
(2.45622 0.00290633 0.0204502)
(2.45723 -0.00649596 -0.00315284)
(0.862776 -0.871309 0.0177734)
(2.433 0.00710654 -0.00216594)
(2.43357 0.00391098 -0.00624696)
(2.45815 0.00134049 0.000273303)
(2.42918 0.0058083 -0.000130501)
(2.41991 -0.0182389 -0.00907701)
(2.45399 -0.000221648 0.00099286)
(2.45609 0.00273526 0.000565761)
(2.44632 -0.00122409 0.00281176)
(0.860375 0.874819 0.0266151)
(2.45915 -0.00115907 0.00444125)
(0.868092 0.869866 0.00517981)
(0.718269 0.518904 -0.12031)
(0.964216 -0.665111 -0.039902)
(2.50515 -0.00803158 0.0173742)
(2.45025 -0.00468669 -0.00896757)
(2.43312 -0.000350765 -0.0087257)
(0.859543 -0.870449 -0.00742596)
(0.864862 0.86332 -0.00445094)
(2.44383 -0.00340733 -0.00498761)
(2.43389 -0.00413697 -0.00572143)
(0.872174 -0.869752 -0.0103719)
(0.86456 -0.870805 0.0124148)
(0.856862 -0.849918 -0.000185098)
(2.45132 -0.00172281 0.00108669)
(2.46293 0.00233366 -0.00135535)
(2.45738 0.00253637 -0.000682336)
(2.46153 0.00644497 0.00127175)
(2.45368 0.00693159 -0.0047778)
(1.00623 0.859726 -0.00150466)
(0.868604 0.864556 -0.00138957)
(0.868974 -0.864768 -0.001018)
(2.45402 -0.00367682 0.00359114)
(1.68026 -1.39469 -0.0877692)
(2.43698 0.00278395 0.00510303)
(2.47278 -0.00221647 0.00694009)
(2.4462 -0.00740872 0.0198178)
(0.861131 0.888806 0.00463118)
(0.872338 -0.868493 -0.00423697)
(0.855763 -0.849724 -0.00218494)
(1.10228 0.906665 0.0710443)
(2.43953 -0.0130464 0.000225527)
(2.4578 -0.00408608 -0.000767695)
(0.868898 0.875424 -0.00103205)
(2.45869 0.00130283 -0.0227676)
(0.914201 0.713958 0.0278653)
(0.869891 -0.8407 0.0212532)
(2.45408 0.00313989 0.00100944)
(2.45082 -0.00225156 -0.00504895)
(2.44313 -0.0110785 0.010477)
(2.4562 0.00689647 -0.0255584)
(0.857352 0.734062 0.0382525)
(1.10405 0.93247 0.0682784)
(0.877886 0.862278 0.000750546)
(2.44666 -0.00372865 0.00117354)
(2.46054 0.0105689 0.00980477)
(2.45754 0.00700481 0.000392004)
(0.870932 0.841157 0.00338786)
(1.73994 1.55323 -0.381467)
(2.44235 -0.000770496 0.0153879)
(2.44911 0.00155796 -0.00918442)
(2.44604 0.0122885 0.00360996)
(2.37069 0.206433 -0.00763944)
(2.4508 0.00549333 -0.000648833)
(0.875177 0.868127 0.00813175)
(2.45688 -0.00536108 0.0105791)
(2.45796 0.00744149 -0.0047367)
(2.46408 -0.0110176 -0.0072675)
(2.4502 0.00062011 0.00211326)
(2.44452 -0.0022 -0.000161397)
(0.862173 0.877296 0.00953433)
(0.857608 -0.867774 -0.00027254)
(0.875852 0.852138 0.012934)
(0.869252 -0.857047 -0.00741809)
(2.45302 -0.00592193 0.00389588)
(2.44092 -0.000290045 0.00279068)
(2.4557 -0.00945375 -0.00740572)
(2.45717 -0.00935605 -0.000459856)
(0.860079 0.870843 0.00678479)
(2.44341 -0.00420679 0.00356586)
(0.863087 0.867352 0.0164121)
(0.865475 -0.871704 -0.00353589)
(2.45595 -0.00541778 -0.00532319)
(0.821363 -0.801604 0.00403714)
(1.42332 -0.296789 -0.0342754)
(0.854931 -0.851148 -0.0131489)
(0.863684 0.867079 0.00985718)
(2.46442 0.00520466 -0.00267858)
(0.861974 0.854215 -0.00172244)
(2.46082 0.00330594 -0.0012597)
(2.45728 0.00657535 -0.000369986)
(0.876646 0.878359 0.00289794)
(2.45232 0.000780836 -0.00168528)
(2.44783 0.00581243 -0.011181)
(0.883363 0.771816 -0.0175022)
(2.45112 -0.000557691 0.00987673)
(2.45338 -0.00705029 -0.00521373)
(2.44611 -0.00931054 0.00496638)
(2.44599 -0.0106044 0.00132928)
(2.44899 0.00527103 0.0121057)
(2.44791 -0.00210388 0.0145921)
(0.856252 0.716223 0.00114425)
(0.877744 -0.846942 -0.00803365)
(2.43553 0.0032627 7.99269e-05)
(0.867427 0.848139 0.00019859)
(2.44428 0.0133129 0.0027999)
(2.46034 0.000610698 0.00993882)
(0.874452 0.83155 0.0040092)
(0.862172 0.876175 -0.00740183)
(2.43213 0.00152259 0.00601666)
(2.4397 -0.01474 0.0150135)
(2.45026 0.0093904 -0.00524433)
(2.43953 0.0126051 -0.00283884)
(0.869448 0.871002 0.00690891)
(2.45735 0.00946515 -0.00559413)
(2.45835 0.00761965 -0.00486944)
(0.875511 0.870064 -0.00566537)
(2.45797 0.0289808 0.025055)
(2.4542 0.000509109 0.000360762)
(0.877949 -0.86018 -0.00550563)
(0.87998 -0.849054 -0.0230798)
(2.4556 0.004389 -0.000644779)
(2.45417 5.1542e-05 -0.0093368)
(0.879202 0.870113 -0.00215809)
(0.856706 -0.880454 -0.0103668)
(1.48735 -0.836696 0.188329)
(0.866767 -0.870915 0.00197016)
(2.45675 0.00507316 -0.00259524)
(0.872386 0.861532 -0.00896719)
(0.854181 -0.866027 0.000274584)
(2.44475 -0.00410914 -0.00215797)
(2.44792 -0.0084822 0.00863196)
(2.44853 -0.00521787 -0.00704136)
(2.45218 -0.0162003 -0.00406383)
(0.876225 0.867986 0.00579741)
(1.10436 0.85607 0.0395996)
(2.43318 0.00202049 0.00435301)
(1.06228 0.92276 0.0533148)
(2.45492 -0.0060371 0.00127064)
(2.43588 0.0254861 -0.00488025)
(2.45297 -0.0141572 -0.0069556)
(1.77403 0.0583907 0.0727088)
(1.03494 0.907161 0.0530714)
(2.46393 -0.00152794 -0.0321499)
(2.52316 0.0586689 0.00144652)
(0.872436 -0.867837 0.00291589)
(2.43885 0.0106232 -0.00711751)
(2.44756 -0.00059931 0.00226216)
(0.873815 -0.863132 0.00408741)
(2.49585 0.144664 -0.0626873)
(2.44933 0.0043277 -0.00157598)
(1.07739 0.849274 0.0431246)
(2.45373 -0.00423194 -0.00469835)
(2.4674 0.000960848 0.00299272)
(2.43828 0.00379373 -0.00279644)
(0.879506 0.849342 0.00112229)
(2.43013 -0.00919495 0.0153549)
(2.44514 0.00450633 -0.00666725)
(2.42164 0.0138353 -0.00207581)
(2.12558 -0.00424626 0.0151664)
(1.08564 1.00045 -0.0287146)
(1.84668 -0.0313489 0.033424)
(0.876025 -0.881481 0.00924762)
(2.41633 -0.0165133 0.00624512)
(2.41386 -0.00959158 -0.0285574)
(0.877122 0.867714 -0.00588448)
(2.45307 0.00988872 -0.0124774)
(2.43707 -0.0097836 -3.54399e-05)
(1.16088 1.00248 -0.0121715)
(0.863505 -0.866563 -0.00744174)
(1.00863 -0.857277 0.0233177)
(0.86612 -0.866035 0.00306391)
(2.40062 0.0222497 -0.0165332)
(2.44901 0.00265156 -0.00674791)
(2.45678 0.00207967 0.00530102)
(2.46152 -0.00838398 0.00457388)
(2.45671 0.00170065 -0.0038034)
(0.868627 0.858836 -6.31897e-05)
(2.45404 0.0038531 0.00885959)
(0.864855 -0.854349 0.00400712)
(2.44429 -0.00644485 0.00329932)
(0.865473 0.871205 0.0120616)
(0.85781 -0.868755 0.00450079)
(0.855948 -0.843577 -0.00794755)
(2.45022 0.00856079 -0.00105345)
(0.856922 -0.875364 0.00630335)
(0.872318 -0.874259 0.00591469)
(0.872321 0.530438 -0.0440161)
(0.87842 -0.869544 0.00540985)
(0.846119 0.859038 -0.00412043)
(2.46138 -0.00156164 -0.00770522)
(0.857683 0.858115 -0.00873611)
(1.0325 0.766141 -0.0116452)
(0.872656 0.861646 0.000720967)
(0.861688 -0.858951 -0.00153688)
(0.881935 0.862356 -0.0164486)
(0.868775 -0.853491 0.000876349)
(0.864516 0.867186 -0.00363503)
(2.45829 0.00296658 0.00650991)
(0.87312 0.872652 0.000903286)
(2.42463 -0.0016626 -0.00110553)
(2.46243 0.00386586 0.00278922)
(2.52321 -0.0359827 -0.00272072)
(0.851108 0.865231 -0.00059895)
(2.44108 0.00706735 -0.00626725)
(0.869307 0.872666 -0.000492856)
(0.871975 -0.854398 -0.00639469)
(2.43476 -0.00598891 -0.00940071)
(2.4402 -0.00123957 -0.00419548)
(2.44511 -0.00085865 9.33567e-05)
(2.47814 0.00620028 0.00964504)
(0.992294 0.81762 -0.0139629)
(2.44968 0.000988674 0.000643787)
(2.45125 -0.00151292 -0.00282196)
(2.45099 -0.00940273 0.00342681)
(2.45712 0.00692207 -0.0191575)
(2.42163 -0.00738972 0.0115137)
(0.871347 -0.872031 0.00147294)
(2.44228 0.0046231 0.00704035)
(1.15635 1.00705 -0.000384385)
(2.46373 0.00287409 -0.00417549)
(0.862607 0.85595 -0.00707348)
(2.44756 0.00190566 0.0098533)
(1.1217 0.936356 0.00804387)
(2.45552 -6.46577e-05 0.00467372)
(2.45216 0.00314991 -0.000980552)
(1.00494 -0.519265 -0.0109053)
(0.854448 0.862169 0.000344459)
(2.46007 0.00459465 0.00661995)
(0.860195 -0.865112 -0.00555475)
(2.45544 -0.0028126 -0.00395803)
(2.4545 0.00164522 0.000556925)
(0.857219 0.867368 -0.0189375)
(0.848799 0.870516 -0.0088577)
(0.857502 0.739253 -0.0241613)
(0.86382 0.874088 -0.00737337)
(1.97192 -0.08039 0.0629343)
(2.45346 -0.00258116 0.0125598)
(0.87141 0.85126 -0.00098089)
(0.862083 0.863123 0.000572966)
(2.44393 0.00144463 -0.00248764)
(0.860274 0.875554 -0.0106316)
(2.45239 0.00595676 0.000287009)
(0.864681 0.875979 0.0127281)
(2.45713 0.0077337 -0.00785365)
(0.865802 -0.867804 0.00218117)
(2.44309 -0.020158 0.014625)
(2.45446 0.00888015 0.00104591)
(2.45311 -0.0121819 -0.000152631)
(2.44908 0.00527251 -0.00037963)
(0.873848 0.863432 0.0108233)
(2.45647 0.00535869 -0.00367548)
(0.876341 0.875426 0.00191539)
(0.87348 0.862764 -0.00230172)
(2.45688 0.00643633 0.0117637)
(0.871828 0.868356 -0.00197894)
(2.43607 -0.00176705 0.00304466)
(0.842828 0.780601 -0.0184012)
(2.45667 -0.000647073 -0.000698187)
(0.865709 -0.850955 0.0023762)
(2.44518 0.0325634 0.0193158)
(0.866912 -0.860884 -0.0160398)
(1.05763 0.923739 0.0168202)
(2.51983 0.0803835 -0.0160102)
(2.43881 7.9017e-05 0.00488364)
(2.46376 -0.00513471 -0.0114219)
(2.43761 -0.00257189 -0.00751249)
(2.46068 -0.000202938 -0.00099807)
(2.45065 0.00205078 -0.00219891)
(0.862005 0.877975 -0.00903088)
(2.45324 0.00336615 0.00511215)
(2.43866 0.00297395 0.00395218)
(0.875066 0.879368 -0.00577459)
(2.32045 -0.0339377 -0.0326998)
(2.46116 -0.000605374 0.00308814)
(2.44939 -0.00489375 0.00161673)
(0.856001 0.84445 -0.00452764)
(1.0639 0.213507 -0.182108)
(2.45522 0.00920529 -0.00214619)
(2.4504 -0.0176269 0.00507429)
(2.02627 0.521642 0.000849372)
(1.11304 -0.60788 -0.0454959)
(2.44546 -0.0084829 -0.00996725)
(2.4583 -0.0151051 0.00136104)
(2.4248 0.000144235 -0.00694575)
(2.45661 0.00788607 -0.0252592)
(2.42498 0.0202241 -0.00554252)
(2.20091 0.271366 -0.0115303)
(1.09147 0.897139 0.00117432)
(2.27894 -0.0124183 0.023132)
(2.16274 -0.163326 0.0274525)
(0.863062 -0.869144 -0.00620793)
(2.46352 -0.00440953 -0.0032184)
(0.872811 0.87038 -0.015819)
(1.00716 0.929908 0.010423)
(2.45108 0.0108345 0.00113246)
(2.22357 0.326241 0.010883)
(2.6457 -0.162555 -0.0441505)
(2.41075 -0.416843 -0.00791817)
(1.03758 0.990923 -0.0958917)
(2.43407 -0.00462876 -0.0342839)
(2.44405 0.00662272 0.00158407)
(0.858631 0.854742 -0.0042883)
(1.12169 0.585153 -0.0434403)
(2.44885 -0.000545702 0.00891083)
(0.875112 -0.874699 -0.00465895)
(0.857333 0.850907 -0.00451517)
(0.86261 0.869211 0.00363954)
(0.86506 0.861993 -0.000258691)
(2.43048 -0.0184389 0.00963795)
(0.857989 0.859399 -0.00574237)
(0.864016 -0.870081 -0.0100093)
(2.45659 0.0141354 -0.00566206)
(2.44481 0.00450261 0.00530519)
(1.25804 -1.12521 -0.0753341)
(2.42716 8.27777e-05 0.00896017)
(1.03114 0.793129 0.0227357)
(2.44659 -0.00454195 -0.00822916)
(0.835837 -0.856723 -0.0125685)
(0.866617 0.868791 -0.0127137)
(2.44705 0.00302603 -0.0172257)
(0.860213 0.864064 0.00875155)
(0.856351 0.855942 -5.74735e-05)
(0.990354 0.963967 0.0280188)
(2.44344 -0.00648039 0.00439645)
(1.46294 1.20989 -0.160003)
(2.45525 0.0100317 -0.00615824)
(2.46103 0.000143817 -0.00467852)
(0.860988 -0.853835 0.00228819)
(2.5632 0.014017 0.0466579)
(2.44449 0.013136 -0.0116223)
(2.44695 -0.00290451 -0.0118335)
(2.43472 -0.0143783 -0.00672526)
(2.49415 0.0212296 -0.0431807)
(2.43061 -0.00929666 0.0107585)
(0.876043 0.876093 0.0107462)
(2.44396 -0.00148557 -0.000182705)
(2.45695 0.000749581 0.00801066)
(0.863951 -0.871354 -0.0134009)
(2.44561 0.00256634 -0.00109335)
(2.44279 -0.00348611 0.0121479)
(2.45177 -0.00890351 -0.010531)
(2.43878 -0.00505209 -0.018083)
(2.45623 0.00518582 -0.00110355)
(2.44498 0.00433892 -0.00605062)
(0.85499 -0.850301 0.0111903)
(2.45359 0.00345781 0.00141843)
(2.44802 -0.00402931 0.00862804)
(1.04441 0.918488 0.0480804)
(2.45978 -0.00941825 -0.00599618)
(2.45838 -0.0105407 -0.012201)
(1.44262 1.15367 -0.17898)
(2.45565 -0.00085806 -0.000751485)
(2.46477 -0.00855726 -0.00273727)
(2.451 -0.00256915 -0.0142871)
(2.46094 0.00611682 -0.0104263)
(2.44865 -0.00483569 -0.00477658)
(2.45263 0.000673103 -0.0137142)
(0.854385 0.828314 -0.00866884)
(2.4559 0.00433861 0.00958223)
(2.44886 -0.0091903 0.00914244)
(0.987672 -0.586482 0.00304246)
(2.4392 0.00410652 -0.0022974)
(2.44839 -0.0025383 -0.000826211)
(2.44773 -0.000887569 0.00427465)
(0.864815 0.85703 0.00126224)
(2.44915 0.0050428 -0.0234208)
(0.879274 -0.866725 0.011095)
(0.869724 0.853459 -0.00668316)
(0.856367 0.868864 0.00117022)
(0.871324 0.869956 0.00672664)
(2.44941 -0.000834181 0.00577595)
(1.05948 0.890888 0.0500724)
(2.21154 -0.0824698 0.0570485)
(0.846454 -0.870799 -0.00782463)
(0.856944 0.879954 -0.00768098)
(2.45279 -0.00449669 0.0102185)
(2.45656 -0.000136526 -0.00298627)
(0.863597 -0.868289 0.00420053)
(2.45206 0.0014958 0.000401863)
(0.86887 -0.863681 0.0089362)
(0.869859 -0.868821 0.00255279)
(0.855818 -0.868232 0.00193435)
(2.44281 -0.00470102 -0.00924296)
(2.45108 0.00854272 0.00124273)
(1.0396 0.912497 -0.0147688)
(0.872238 -0.86526 -0.00457144)
(0.861239 0.876204 -0.00619651)
(0.877679 0.874193 -0.00277746)
(2.44913 0.0118616 -0.00805921)
(2.44832 0.00659964 0.00116469)
(1.03298 0.967447 0.04592)
(2.45597 -0.0070757 0.000796613)
(2.38122 -0.0337739 -0.0811905)
(0.860823 0.866225 0.0188265)
(2.45427 -0.0015803 -0.00707873)
(2.44416 -0.00218083 0.000901801)
(2.43454 0.0160206 0.00606041)
(0.846307 0.859399 0.00793882)
(0.86065 0.857677 0.00756442)
(2.45118 -0.0061069 -0.00301516)
(2.45859 -0.00124799 -0.00772862)
(1.03777 0.927226 0.00358745)
(0.874188 0.864311 0.00704516)
(0.869946 0.846164 -0.00812738)
(2.44187 -0.0160323 -0.0055276)
(0.878434 -0.87461 -0.00328489)
(0.859735 -0.877001 -0.00700037)
(0.85626 0.86869 0.0106001)
(2.45759 0.00103369 -0.00251844)
(2.45013 -0.00602224 -0.00464231)
(0.858847 0.862234 -0.00152799)
(1.00233 0.251296 0.187249)
(1.07645 -0.136863 -0.00849275)
(2.42829 0.0265025 0.000572707)
(0.877458 0.885454 0.0010428)
(0.872983 0.86435 -0.00115351)
(2.44027 -0.00268324 -0.00577906)
(2.45583 -0.00912861 0.000820685)
(1.05982 0.923606 0.043332)
(1.53802 0.505746 -0.00192448)
(2.41529 0.051759 0.0796183)
(2.45294 0.00557425 0.00499332)
(2.46216 -0.00318511 0.00621394)
(0.908077 0.836711 0.0130044)
(2.45393 0.00445662 -0.00241918)
(2.46178 -0.000579046 0.00363755)
(0.863283 0.856407 -0.0104536)
(0.850912 -0.864325 -0.000373928)
(0.866047 0.863901 -0.00601655)
(0.864316 0.861687 0.00537775)
(0.865389 0.871485 0.00423814)
(0.875856 0.8559 -0.0117325)
(2.45949 -0.00337577 0.0111251)
(0.856715 -0.866083 0.0173901)
(0.857948 0.862836 0.00486565)
(0.851086 0.860936 0.013204)
(2.46026 -0.00539064 0.00767906)
(2.45881 -0.00281765 0.000675876)
(0.877836 -0.860663 0.0114818)
(0.860124 -0.84441 0.000495827)
(2.44063 0.0134364 0.010368)
(2.44028 0.000501257 -0.0047628)
(2.4423 0.0045367 -0.000933315)
(0.862263 -0.858755 0.0150834)
(0.854008 0.882093 -0.0059859)
(2.4462 0.00334995 -0.00558816)
(0.872769 -0.865062 0.00424449)
(2.44798 0.00514142 0.00364238)
(2.44228 -0.000416233 0.00946551)
(2.44255 0.00754948 0.0027656)
(0.862936 -0.859443 -0.00317321)
(0.862583 -0.882506 0.0169913)
(0.871565 -0.873684 -0.000996728)
(0.868851 0.889727 0.00358877)
(2.45831 -0.000437007 -0.000408435)
(0.875688 0.878262 0.0124333)
(0.862826 0.860227 -0.000741573)
(2.45067 -0.00284008 0.00075872)
(0.864549 -0.862573 0.00732088)
(2.45351 0.00933 -0.00226921)
(2.45071 0.00275382 0.00115573)
(0.875616 0.843194 0.0048159)
(2.45761 -0.00443859 0.00242012)
(1.15921 0.114059 -0.0193365)
(2.45295 0.00932894 -0.0103549)
(2.43983 -0.00525055 -0.00541767)
(2.45383 0.00320325 -0.00413348)
(2.45128 -0.00715488 -0.00668146)
(1.99659 -0.0133757 -0.0652053)
(1.04232 0.823061 0.0189418)
(2.45257 0.010546 -0.00971109)
(2.45063 -0.00258007 -0.00510455)
(2.46479 0.00282868 -0.00326317)
(0.877947 0.773357 -0.032574)
(1.45075 0.0554159 -0.0509624)
(1.36776 -0.157704 0.0227286)
(2.45147 -0.00523172 -0.0114)
(0.872453 0.863908 -0.000871467)
(2.45581 -0.00414815 -0.00135671)
(2.46096 -0.00991381 0.00173934)
(2.45361 0.00578984 0.00332982)
(0.926086 -0.684309 -0.0339629)
(0.872444 -0.877207 0.00448679)
(0.862539 -0.867801 -0.00748375)
(2.4551 -0.00121689 0.00337008)
(0.982926 0.820551 -0.00636732)
(2.46738 0.00425796 -0.00904376)
(0.926426 0.85801 -0.0102019)
(2.44817 -0.000240187 0.0153961)
(2.45597 0.0129849 0.00519792)
(2.4532 0.00656028 0.00083861)
(2.46979 -0.00293008 -0.0169823)
(0.851027 0.862195 -0.00458883)
(0.855728 0.853947 0.000585458)
(0.949482 -0.843215 -0.0170015)
(2.45519 -0.0059904 0.00163324)
(0.8791 0.875737 -0.00291896)
(1.00013 0.860415 -0.0482998)
(2.52397 0.0545619 -0.0321703)
(0.871282 0.863806 -0.0126936)
(0.851999 0.848056 0.0164409)
(0.871272 -0.866245 -0.00469305)
(0.866591 0.874723 0.0197684)
(2.45276 0.00658738 0.00265234)
(0.887824 0.837522 -0.00420684)
(0.876012 0.870998 -0.00641545)
(2.06682 0.302037 -0.16745)
(1.01494 0.811702 0.00480679)
(0.858075 0.858899 0.00900007)
(1.22925 -0.734343 0.0195108)
(0.877132 0.86748 0.00462127)
(2.44222 -0.000149045 0.0101005)
(2.45299 0.0110359 0.00650971)
(0.866054 -0.854922 -0.00637723)
(2.451 -0.00554137 0.00339824)
(2.37758 0.359743 -0.0379318)
(2.45582 0.00147557 0.0108033)
(2.57488 0.0605673 0.0155998)
(2.45697 -0.00170249 -0.00253936)
(0.876929 0.870014 -0.0137717)
(2.44594 0.010584 -0.00943722)
(2.44448 0.00243892 -0.00698777)
(2.44824 0.0114872 0.00848979)
(0.870113 -0.850307 -0.0140641)
(2.5904 0.678567 0.183632)
(2.46354 0.00533375 -0.0127614)
(1.1853 0.919234 -0.0615519)
(2.45261 -0.0162709 -0.0051539)
(2.46482 -0.0133438 -0.00473456)
(2.50972 -0.0151084 0.000197207)
(2.4519 0.0063831 -0.00966266)
(2.46117 0.00944726 0.00380108)
(2.51042 -0.0101571 -0.02229)
(2.45888 -0.00608004 -0.0129718)
(2.44678 -0.00368832 0.000617818)
(0.858786 0.858327 0.00427334)
(0.867193 0.850346 0.000814851)
(2.45681 -0.00244362 -0.00808102)
(2.45324 -0.0116927 0.011483)
(0.873716 0.867285 -0.0181301)
(2.45118 0.00253366 -0.00240764)
(2.43973 -0.00119657 0.0146293)
(2.44033 -0.00389643 0.00102749)
(0.871908 0.857685 -0.00216524)
(2.48276 8.99521e-05 -0.000969873)
(0.870272 0.863376 -0.00443438)
(2.44163 -0.00867214 0.0237344)
(2.44145 -0.000423537 0.00665162)
(0.871186 0.869475 -0.00629015)
(2.42384 0.0187335 -0.0231063)
(2.42481 0.00048362 0.0216061)
(2.48243 -0.0183703 0.011211)
(2.4601 -0.0118035 0.0168358)
(0.899657 0.873421 -0.00634118)
(2.45896 0.00980135 0.00415314)
(2.49756 -0.00562478 0.00296744)
(2.58067 -0.0594154 0.0117939)
(2.4019 -0.00371514 0.0277362)
(2.44428 0.00148197 -0.00312984)
(0.870047 0.876484 0.0017656)
(0.874464 0.871469 0.0137012)
(2.45424 -0.00214621 -0.00623471)
(0.859446 0.869242 0.00503223)
(2.43546 0.000911471 -0.0117496)
(2.4506 0.00560124 -0.0125933)
(1.47682 0.167483 -0.0227661)
(2.67005 -0.153443 0.0594357)
(2.39083 -0.0845308 0.0465491)
(2.63802 -0.0841944 0.00384511)
(0.859972 0.874731 0.00576521)
(1.16369 0.982122 0.00583212)
(2.46229 9.42576e-05 -0.0244283)
(0.863316 -0.862469 -0.012438)
(0.482845 -0.347584 0.124018)
(2.4273 0.0106687 -0.00499536)
(0.866844 0.861505 -0.00519938)
(0.871875 0.863233 -0.00447213)
(2.24369 -0.0332929 0.00651522)
(2.00995 -0.0913028 0.0517833)
(0.854183 0.859079 0.00966845)
(2.41771 0.0040562 -0.00782909)
(0.860041 0.855859 0.0174369)
(0.867152 0.873458 -0.00702438)
(0.865917 -0.886326 0.00536467)
(0.861335 -0.863516 -0.000883657)
(0.862682 -0.862923 -0.015499)
(0.876921 -0.864689 -0.0076474)
(2.45687 -0.00573008 -0.00526884)
(0.852307 0.863354 0.0114362)
(0.873177 0.870512 0.00321735)
(0.862631 0.865063 0.00528987)
(2.10228 -0.465582 -0.126351)
(2.4491 -0.00272631 -0.00963866)
(2.4435 0.00797424 0.00163719)
(2.46167 -0.0164863 -0.0133738)
(0.857949 0.851686 -0.0039448)
(0.892177 0.855381 -0.00966492)
(2.4247 -0.00480619 0.000626557)
(0.862923 0.863304 -0.0122235)
(0.874135 0.857359 -0.0106331)
(1.41268 0.787549 0.0337914)
(2.44173 -0.00204264 -0.00315983)
(2.44856 0.0133068 0.000522275)
(0.867346 0.867922 0.0023866)
(0.879902 0.859145 0.00739562)
(0.871888 0.864373 0.00453702)
(0.875635 0.868257 0.00147395)
(0.881096 0.866895 0.0148237)
(0.863987 0.877895 -0.0035093)
(2.43893 -0.0051448 0.00557472)
(0.872004 0.864026 -0.0038078)
(2.09834 0.0314132 0.0311635)
(2.45603 0.000478859 0.00625556)
(0.869657 0.877547 -0.00149363)
(0.862741 -0.868152 0.00644252)
(0.858474 -0.858449 -0.00147737)
(2.24774 0.0383176 0.0769511)
(0.839637 -0.847701 -0.00958894)
(0.859727 -0.866507 -0.0124201)
(0.866958 0.863427 -0.01121)
(2.41202 0.0157308 -0.0168747)
(0.858726 0.872705 -0.0054797)
(2.4619 0.00590501 0.00313364)
(2.45625 0.00402854 -0.00154822)
(2.15343 0.00461164 0.0471723)
(0.855423 0.863283 -0.00140329)
(1.71548 -0.460071 0.0334467)
(2.46623 -0.00439334 0.00834983)
(2.45817 -0.00199657 -0.00487782)
(0.912716 -0.877922 -0.0167933)
(2.48693 0.00796765 -0.00310471)
(2.45389 -0.00501713 0.0158313)
(0.861846 -0.854442 0.0109059)
(0.902847 0.844909 -0.00558137)
(1.15787 -0.932741 -0.0723201)
(0.855326 0.882997 -0.0153483)
(2.45323 0.00205751 0.00133015)