/*--------------------------------*- C++ -*----------------------------------*\
  =========                 |
  \\      /  F ield         | OpenFOAM: The Open Source CFD Toolbox
   \\    /   O peration     | Website:  https://openfoam.org
    \\  /    A nd           | Version:  10
     \\/     M anipulation  |
\*---------------------------------------------------------------------------*/
FoamFile
{
    format      ascii;
    class       surfaceScalarField;
    location    "10";
    object      phi;
}
// * * * * * * * * * * * * * * * * * * * * * * * * * * * * * * * * * * * * * //

dimensions      [0 3 -1 0 0 0 0];

internalField   nonuniform List<scalar> 
214403
(
-0.00332362
0.00254853
0.000141024
0.000634067
-0.0016386
-0.00552037
0.00046852
0.00669045
-0.00503378
3.3518e-05
-6.92535e-05
0.00506951
0.00437163
-0.00293919
-0.00732809
0.00589565
0.00603455
-0.00762709
0.00181791
-0.000225363
-0.00264008
0.00274924
-2.61793e-05
-8.29843e-05
-0.000421023
-0.000795078
-0.00452562
0.00574173
-0.00837366
0.00476335
-0.00125461
0.00486492
-0.0114266
0.0080698
0.00814067
-0.00478392
0.00698089
0.000828541
-0.00780335
-6.08223e-06
0.00247559
-0.00490126
0.0010072
0.00141847
-0.00507874
0.00159695
0.00263195
0.000849841
0.000234301
-0.00561997
0.00676909
-0.00138342
-0.00490058
0.00493245
-3.18732e-05
0.000941578
0.00586522
-0.00751543
0.000708631
-0.00594116
0.00496766
0.00150392
-0.000530425
-0.00598388
0.00583876
0.000145118
0.00194124
-1.05582e-05
-0.000487225
-0.00144345
0.00769277
-0.00460388
-0.0102295
0.00714061
-3.76439e-05
-0.00153883
4.45443e-05
0.00153193
0.00317148
-0.00309625
-7.52334e-05
-0.0060498
-0.00209214
0.00208129
0.00606066
-0.00112036
0.00669155
-0.0053974
-0.000173788
0.00331047
0.000347645
0.00115488
-0.00481299
-0.00506181
-0.00242088
0.00654646
0.000936233
0.0045366
-0.00574509
3.49948e-05
0.0011735
0.00158713
-0.00138427
0.00519284
-0.0053957
0.00376115
0.00491695
-0.00592541
-0.00275269
0.00548553
-0.00344116
-0.000155631
-0.00188874
-0.00289785
0.00295386
-5.60175e-05
0.00120581
-0.00250472
0.00666798
-0.00536908
0.00695565
0.000329409
-0.00121279
-0.00607227
-0.00278274
-0.0028568
0.00292589
0.00271364
-0.000588642
-0.00331806
0.00293875
0.000967953
0.00218002
-0.00149644
-0.00462267
0.0039391
-0.000839778
0.0041895
-0.00151361
-0.00183611
0.00789222
-0.000187831
-0.00770438
-0.00339659
0.00662765
-0.00323106
0.00061037
-0.0072501
0.00419833
0.0024414
0.00120962
-0.000485908
0.0029582
-0.00368192
0.00280275
-2.95293e-05
-0.00277322
0.00503521
-0.000106378
0.000890828
-0.00581966
-0.00640332
0.000802944
0.00681
0.000424106
0.000436394
0.00423762
-0.00509812
-0.00202256
-0.0132261
0.0128223
0.00242644
0.00281049
0.000510758
0.000633331
-0.00395457
0.00207913
0.00158123
-0.00508765
0.00142729
0.00657822
0.00394182
-0.00720957
0.00059518
0.00557045
-0.00113042
0.000897729
-0.00335828
-0.00198006
0.00444062
0.00153387
0.00235876
0.000701031
-0.00459366
0.000909705
-0.000682979
-0.00210156
0.00187484
0.00339584
-0.00614418
0.00428221
0.00584828
-0.00550708
-0.00188882
0.00154761
0.0052544
-0.00096083
-0.0042217
0.00572282
-0.000242009
-0.0012591
0.00434992
-0.00556329
6.3548e-05
0.00114983
-0.00406748
0.000269235
0.00649969
-0.00270145
-0.00754994
-0.00709981
0.00595944
0.00869031
-0.00402927
0.00405389
0.00079724
-0.000821862
0.000633667
-0.00514885
-0.00422948
-8.73243e-05
0.002198
0.0021188
-0.00662877
0.0028437
0.00429165
-0.000506574
0.0077405
-0.00623046
0.000394459
-0.0019045
0.0003544
0.000130784
-0.00509818
0.00461299
0.000256002
-0.00140847
0.00695404
-0.00580157
-0.0171702
0.00179722
0.00190863
0.0134643
-0.00157005
0.00464858
-0.00148088
-0.00159765
0.0022951
-0.0012047
-0.00490233
0.00381194
0.000549617
0.00342944
-0.00435872
0.000379666
-8.66243e-05
0.00418407
0.00145016
-0.0055476
-0.000836281
-0.000134708
-0.00172701
0.002698
-0.00445702
0.00486767
-0.000182818
-0.00022784
0.000155634
-0.00448931
-0.0031414
0.00278273
0.000844127
-0.00048546
-0.00832437
-0.000517742
0.00406031
0.0047818
-0.00251081
-0.00106966
0.00213613
0.00144433
0.00369504
-0.0123921
0.00171711
0.0069799
-0.00192853
0.00388108
-0.00211969
0.000167136
0.00278339
-0.00216086
0.00027609
-0.000898621
6.78164e-05
-0.00522535
0.00515753
1.67488e-05
0.00424665
-0.0042634
0.00373402
-0.000731695
0.000494671
-0.003497
-0.00224441
0.00320126
0.00106189
-0.00201874
-0.00157961
0.00672173
-0.00161586
-0.00352626
0.00317872
-0.00542057
-0.000206228
0.00244808
0.00362637
0.00383718
-0.00746355
0.00535686
-0.00602178
0.00154306
-0.000878144
0.000517551
-0.000966767
0.00699942
-0.00655021
0.000202052
-0.00113173
0.00504783
-0.00411815
0.00119999
0.0105318
0.00302785
-0.0147596
-0.00919446
0.00809041
0.00524303
-0.00413897
0.000423755
0.0032486
-0.00436749
0.000695134
0.00431902
0.00479755
-0.00157329
-0.00754328
0.00797809
-0.00484807
-0.000158692
-0.00297132
0.000350508
-0.0010269
-0.00322283
0.00389923
-0.00326615
1.84213e-05
0.00324773
0.00485379
0.000167809
0.000335259
0.00604125
0.000510938
-0.00918017
0.00262799
-0.00483937
0.001066
0.000860611
0.00291276
-0.003078
0.00076323
0.000378141
0.00193662
0.000750313
0.000538217
-0.00637186
0.00508333
-0.00130582
-0.00759823
0.00484386
0.00406018
0.00305064
-0.00360717
-0.00235224
0.00290877
0.004944
-5.27029e-05
-0.00494235
5.10494e-05
0.00377072
-0.00531862
-0.00185423
0.00340213
0.00974789
-0.00294916
-0.00151868
-0.00528005
0.00555343
-6.86326e-06
-0.00511035
-0.000436221
-0.00279933
0.00329414
0.00686282
-0.00735764
0.00599484
-0.00209806
-0.00576858
0.0018718
0.00110423
-0.00161168
0.0070114
-0.00650395
-0.00792363
0.00722536
0.00684293
-0.00614465
0.000357748
-0.0061675
0.00238006
0.00342968
0.00772076
-0.000406333
-0.000158567
-0.00715586
0.00545251
-0.0010637
0.00105433
-0.00544314
-0.00635111
-0.00577426
0.00683621
0.00528916
-0.00119894
0.00344137
0.000932962
-0.0031754
-0.00268887
0.000146528
0.00521255
-0.00267021
-0.000600438
0.00678617
-0.00631699
0.00013126
-0.00585304
0.00543507
0.00105855
-0.000640582
-0.000195483
-0.00341387
0.00814595
0.0010779
-0.00358693
-0.00262056
0.0051296
-0.00285221
3.73248e-05
0.00281489
0.000872529
0.00396865
-0.00367099
-0.00117019
0.00635707
-0.00366672
-0.000975123
-0.00171523
4.81256e-05
-0.00188948
0.00184136
-0.00357199
-0.000962212
0.00134034
0.00319386
0.000370548
0.00204268
-0.00458178
0.00216855
0.00778916
-0.000703361
0.00304464
-0.0101304
0.000556976
-0.00069411
-0.00939995
0.00953708
0.000611018
-0.00268975
-0.00356993
0.00564866
0.00022554
0.00490124
-0.000272981
1.99839e-05
-0.00289523
0.00287525
0.00596056
-0.00220848
-0.00267419
-0.00361442
0.00301973
-0.0029773
0.00657839
-0.00547527
-0.000663297
-0.000439824
0.0006576
-0.00310986
0.00135949
0.00109278
-0.00537821
-0.00162926
0.00109301
0.00591446
0.00448262
-0.00727445
0.0048119
-0.00202007
-0.000198208
0.00657895
-0.00658823
0.000207482
-2.01952e-05
0.00601582
-0.00596327
-3.23583e-05
-0.00837826
0.00668297
-0.00536305
0.00705835
0.00698925
-0.006759
-0.000230254
-0.00639105
0.00855706
-0.00156406
-0.00060195
-0.00570551
0.00137254
-0.000429814
0.00476279
-0.00940759
0.000719024
0.00605742
0.00263115
0.00166472
-0.00227391
0.00126679
-0.00231047
0.00262681
0.00422708
-0.00454342
-0.00249441
-0.00111922
0.00142682
0.00218681
-0.00338608
0.00221511
-0.00427963
0.00545061
0.00101705
8.45911e-05
-0.00749269
-0.0033582
0.003351
7.19736e-06
0.0036682
-0.0035268
-0.000141405
-0.00551258
-0.000360613
-0.00146635
0.00135766
-0.00726167
0.00844892
-0.00254491
0.00326327
0.00561655
-0.00714132
-0.0017385
0.00623279
-0.00676939
0.000181831
0.000354763
0.00333897
0.000868107
-0.0034513
-0.000755778
-0.00525741
-0.000289544
0.00690461
0.0030364
-0.000219939
-0.00370106
0.000884594
0.00341793
-0.00292611
0.00337042
-0.00386224
-0.00593339
0.00111528
0.00808138
-0.00200746
-0.00281281
0.00928902
-0.00446875
-0.00286205
-0.00315608
0.000760727
0.000848394
0.00226962
-0.00598007
-0.00407863
-0.000358451
0.00655163
-0.00211454
0.000631608
0.00100163
0.00361646
-0.0052497
-0.00192579
0.0047139
-0.00278812
0.00152079
-0.00733426
0.00265739
0.00436447
0.00305022
-0.0065663
-0.00616354
7.47741e-05
0.00767995
-0.00159118
0.00104998
0.000898176
0.00281129
-0.00475945
0.00419923
-0.00422934
3.01113e-05
0.00155973
-0.000588837
0.00523437
-0.00620527
0.00549517
-0.0017402
0.00264086
-0.00639583
0.0101149
-0.00325091
0.00754309
-0.0144071
0.00165156
0.00307116
-0.00127867
-0.00344405
-0.00458622
0.00188469
0.00240572
0.000295817
0.00330532
-0.00249121
-6.7695e-05
-0.000746416
-0.00211809
-0.00268549
0.00781997
-0.0030164
-0.00368395
0.00478389
0.00190812
-0.00300806
0.00554834
-0.000303066
-0.00182734
-0.00859849
0.00568698
-0.000474573
-0.00818198
0.00754758
0.00350585
-0.00287145
0.00522003
-0.00588396
-0.000848754
0.00151268
0.00295765
-0.00534262
-0.0028017
-0.00304282
-0.00279264
0.00157783
0.00425763
-0.00435036
0.00135166
0.00429241
-0.00129372
0.00503289
-0.00478946
-0.00329724
0.00305381
3.03378e-05
-4.38097e-05
-0.00473058
0.00474405
0.000115569
-0.00416125
-0.000156543
0.00420222
-0.00119521
-0.00707496
0.00111353
-0.00409919
0.00368796
-0.000702301
-0.00278336
-0.00117383
-0.000393168
-9.22317e-05
0.00697607
9.70477e-05
-0.0166435
0.0117047
0.00846128
-0.00352246
-0.00492602
0.000335399
0.000179094
0.00441153
-0.000978035
0.0155498
-0.0182967
0.00372494
0.000780333
0.00120347
-0.00270153
0.000717727
-0.0105318
0.00566828
0.00073372
0.00412983
-0.000122108
-0.00700082
-0.000997484
0.00812041
-0.0028802
0.0105303
-0.00730447
-0.000345609
0.00472765
0.00687607
-0.0063533
-0.00525042
-0.00563896
0.00537678
0.00667147
-0.00640928
0.00219736
0.00307104
-0.0038251
-0.00144331
0.00218403
-0.00147337
-0.00349401
-0.0111972
-0.00044247
0.00914078
0.00249891
0.00329963
0.000507181
-0.00192213
0.00338379
0.00452986
-0.00418225
-0.0037314
-0.00559326
0.00124993
0.00545852
-0.0011152
0.000663235
0.00175984
0.00613398
-0.00651713
0.00643608
0.000622467
-0.000541413
0.00402674
0.00316287
-0.00285401
-0.000112958
-0.000803064
0.00377003
-0.0043059
-0.000859572
0.00239065
-0.00826513
0.00351502
0.00235947
0.000250518
0.00446427
-0.0049527
0.000237915
-0.00171534
0.00033148
-0.00159454
0.0029784
0.00693162
-0.00495604
0.000208442
-0.00390978
-0.0030593
0.00411698
0.00285211
0.0147819
-0.0158169
0.00516956
-0.00413457
-0.00285266
0.00354468
0.00142764
-0.00211966
-0.0065231
0.00283279
0.00568716
-0.00199685
-0.00281802
0.00409595
0.00526194
-0.00653987
0.0078837
-0.00304584
-0.00521698
0.000379119
0.000136412
-0.00191298
0.00465386
-0.00287729
-0.000809387
0.000802278
-0.00615643
0.00567651
0.00184142
-0.00607917
-0.00143876
0.00712989
-0.00584953
-0.0015699
0.00149351
0.00220444
-0.00522216
0.00152421
-0.00294769
-0.00538459
0.00479443
0.00353785
-0.000893506
-0.00231752
-0.000698756
0.00289919
-0.00310437
0.00667779
-0.00647261
0.000705478
-0.00813532
0.00742984
0.0027582
-0.00361058
0.00234589
0.00150645
0.000879054
0.00123673
-0.00362223
-0.000145581
-0.00677164
0.00691722
-0.00370159
0.000491181
-0.00120137
0.00441178
-0.000443829
0.00512757
-0.00467253
-1.12053e-05
-0.00347357
-0.0018415
0.00201066
0.00330441
-0.00129429
-0.00307278
-0.00285681
-0.00419523
0.00350005
0.00355199
0.000151426
-0.00430253
0.00739967
-0.0030419
-0.000393892
-0.00396388
0.00395715
-0.000380961
-0.00288641
-0.00068978
-0.000634768
0.00555255
-0.00693373
0.00201595
0.00356764
0.000136394
0.00173691
-0.00544094
-0.000129308
-0.0029298
0.00141485
0.00164426
-0.00204037
0.00265493
0.00512674
-0.0057413
-0.00721815
-0.00186449
-0.00201373
0.00663642
-0.00618614
0.000146444
0.00193921
0.00410048
0.000594064
-0.00218756
-0.00389728
0.00549078
-0.00283689
-0.00553905
0.0013973
0.00697864
-0.00257768
-0.00285763
0.0029758
0.00245951
-0.00669105
0.00643951
0.00679042
-0.00653888
-0.00090566
-0.00158249
-0.00477442
0.00726257
-0.00652522
0.000661124
0.00664085
-0.000776747
-0.00114587
0.00305417
-0.0019083
-0.00264675
0.00489031
-0.003683
0.00143945
-0.000112041
0.00874984
-0.00325067
-0.00538713
-0.00313661
-0.00151514
0.00629434
-0.00164259
0.00101271
-0.00265309
0.00601797
-0.00437759
0.000276774
0.00392471
-0.000687554
-1.97869e-05
-0.00642376
0.00641996
2.35837e-05
0.00733326
-0.00129883
-0.0107191
0.0046847
-0.0067755
-0.000663533
0.00845912
-0.00102008
-0.00368103
0.00556093
0.000456959
-0.00233687
0.0032913
-0.00325213
-3.91715e-05
-0.00390063
0.000378208
-0.00336495
0.00688737
-0.00565219
0.00778733
-0.00162079
-0.000514341
0.00351386
-0.00147277
-0.00423599
0.0021949
-0.00680587
0.00686628
-6.0415e-05
0.00558372
-0.00812353
0.000660031
0.00187978
-0.00634245
-0.00173513
0.0108468
-0.0027692
0.00467611
-0.000199291
-0.000981068
-0.00349575
-0.00265933
-0.00451242
0.0100709
-0.000479492
-0.00665141
0.00402653
0.0104487
-0.011651
-0.00111328
0.00231552
0.00282573
0.00134605
-0.0031218
-0.00297446
0.00309904
-0.000124585
-0.00119707
0.0066893
-0.000424831
-0.0050674
-0.0014621
0.00173442
0.00583713
-0.00610945
0.00380092
0.00892973
-0.00521996
-0.0075107
0.00654713
-0.00785499
0.00249778
-0.00118991
0.00594572
8.23038e-05
-0.00602802
0.000109261
0.00579417
-0.00590343
0.00650384
-0.00787248
0.00695236
7.33757e-05
-6.0181e-05
0.00508813
-0.00510133
0.000129466
0.00924061
-0.00921118
-0.000158896
-0.00078525
-0.00233232
-0.00471493
0.0078325
-0.00288582
-0.00172385
0.000579318
0.00546993
-0.00952463
0.00347538
-0.00459974
-0.00120623
0.00493172
0.000874252
-0.00545311
0.00602023
-0.00160982
0.0010427
0.000854757
0.00445769
-0.00151613
-0.00379632
-0.00217416
0.00054357
0.00368227
-0.00205168
-4.69883e-06
0.00166319
-0.00209141
0.000432923
-0.00232098
0.00567378
-0.00327097
-8.18307e-05
0.0016996
-0.00537112
-0.00313435
3.67122e-05
-0.00500729
0.00497058
-0.0018616
-0.00178594
0.000829082
0.00281846
0.00278446
-0.00160664
-0.00117783
0.00699487
-0.00694566
-0.00141779
0.00136859
-0.000637152
-0.0041405
0.00381743
0.00096022
-1.70829e-05
2.37515e-05
0.00376672
-0.00377339
0.00187558
-0.00154015
-0.00596229
0.00562686
0.00433657
-0.000111399
-0.00422517
-0.00633217
-0.00409935
0.00610895
0.00432257
0.00368631
0.00578028
-0.00994608
0.00350793
-0.00126187
0.00197423
-0.00422029
-0.0014078
0.00139222
-0.00774274
0.00775832
0.00218747
-0.00430839
-0.00419133
0.00631225
-0.00044015
-0.000990085
0.00466308
-0.00323284
0.00324463
-0.00398836
0.00144543
-0.000701702
0.00178824
-0.00296514
-0.00286593
0.00404283
-0.00575713
0.0064819
-0.00172404
0.000999273
0.00655914
0.00843437
-0.00928484
-0.00570867
-0.00507853
0.00505396
2.45769e-05
-0.000564186
0.00597252
-0.00746731
0.00205898
0.000230732
-0.000375188
-0.00575959
0.00590405
0.00562754
0.000237049
-0.00647549
0.000610894
-0.00241952
-0.00408905
0.00514229
0.00136627
-0.00584216
0.00827847
-0.00293206
0.000495748
-0.0023961
-0.00292922
0.00173839
-0.000356725
-5.98165e-05
-0.00413611
0.00455265
-0.0135233
5.88699e-05
0.00121379
0.0122506
0.000533191
-0.00342625
-0.00177308
0.00466614
0.00842548
-0.000693368
-0.00272707
-0.00500504
-0.00149606
-0.00323933
0.000626815
0.00410858
0.00238745
-9.53971e-06
-0.00237791
0.00396245
0.00211068
-0.00131536
-0.00475777
0.00306831
-0.00243283
0.00605779
-0.00669328
0.000198303
0.00631106
-0.00208339
-0.00442597
0.00152785
0.00218051
0.00471712
-0.00301928
0.000213062
0.00280621
-0.00391241
0.000554101
0.00103786
0.000655347
-0.00540834
0.00371513
-0.00512581
0.00750075
0.00227093
0.00774844
-0.00164164
-0.00837773
-0.00493443
0.00484744
-0.00766905
0.00775603
-0.000740606
-0.0037086
0.00129759
0.00315161
-0.00409179
0.00771816
0.00229492
-0.00267194
0.00060015
-0.000223135
-0.00252618
-0.0080687
0.00252464
0.00807024
0.00530976
-0.00529938
-4.75631e-05
3.71794e-05
0.00427688
-0.00500176
0.00106498
-0.000340094
0.00109978
0.00429643
-0.00765913
0.00226293
1.89128e-05
0.00369185
-0.00371076
0.0023927
-0.00614058
0.00484765
-0.00231325
0.00621781
0.00523806
-0.00914261
0.00176341
-0.00180245
-0.00837455
0.00841359
-0.00251817
0.00417653
-0.00838387
0.00672551
-0.00602639
0.0047978
0.00628734
-0.00505875
-0.00376001
0.00515303
-0.00332968
0.00193665
-0.000797403
0.00347339
0.000564355
-0.00324034
0.00174963
-0.00255137
0.00263175
-0.00183001
0.0033231
0.0012373
0.00109256
-0.00565296
0.00942954
-0.00640554
-0.000386268
-0.00263773
-5.36949e-06
-0.00458754
0.00459291
0.00285256
-0.00417791
-0.0128101
0.0141354
-0.000574608
-0.00620904
-0.0018819
0.00866556
-0.000377732
-0.0028595
0.00323724
0.000873538
0.00413174
-0.000658389
-0.00434689
-0.00115102
-0.00415631
0.00335348
0.00195385
0.00323189
-0.00270645
-0.00475492
0.00821048
-0.00639239
0.00182218
0.00192951
-0.00375169
0.00621004
-0.000137103
-0.000750582
-0.00532236
-0.0011968
-0.00203558
0.00323238
0.00221355
0.00147106
0.0123764
-0.0148862
-0.0052551
0.00776494
0.00190121
0.00404947
-0.00309732
-0.00285336
-0.00434411
0.00830972
0.00552707
-0.00949268
0.00489833
0.00170022
-0.00065494
-0.00594361
0.00806975
-0.0053814
0.00347286
-0.00616121
-0.0045526
0.00208108
-0.00571372
0.00818524
-0.00738082
0.0132259
-0.00517967
-0.00066537
-0.000197366
-0.00315239
-0.00433973
0.00768948
0.00601098
0.00248151
-0.00705092
-0.00144157
0.00321636
-0.00856888
0.00540355
-5.10258e-05
-0.00757017
-0.000285694
0.00495287
0.00290299
-0.00152
0.00392774
0.0017076
-0.00411534
-0.000963253
0.00386118
0.00310579
-0.00600372
-0.00789075
0.0040562
-0.000383222
0.00421778
0.000719152
-0.00213932
0.00424678
-0.00282662
0.00336012
-0.00168994
0.00119949
-0.00286966
0.00324997
0.000624865
0.000315771
-0.0041906
-0.00477634
0.00512557
0.00189749
-0.00224673
-0.00113221
0.0060716
0.000122344
-0.00506173
0.00489095
-0.00286975
-0.001896
-0.0001252
0.00423467
3.28206e-05
-0.00426749
0.00308679
0.00238978
-0.000542184
-0.00493439
0.00144766
0.00382227
0.00326699
-0.00853692
-4.49432e-06
-0.00686764
0.00687213
-0.00358169
0.0138682
-0.00202373
-0.00826278
-6.65588e-05
0.00517943
-0.00511287
-0.000343807
-0.00370882
0.000667246
0.00338538
-0.00673509
0.0034352
0.00260558
0.00069432
0.00137269
0.00114011
-0.00786692
0.00535411
0.00400542
0.00632757
-0.00236476
-0.00796824
0.00607184
-0.00207679
-0.00581198
0.00181693
-0.00757047
0.00431773
0.0115582
-0.00830543
-1.90425e-05
0.00291163
-0.00291135
1.87627e-05
-0.00301482
0.00298368
3.11328e-05
-0.00770315
0.000117946
0.00324109
0.000860005
0.00185648
0.00508623
-0.00780271
0.00401032
-0.00476968
0.0030761
-0.00231674
-0.0038667
0.00338668
-0.000127248
0.000607267
-0.000802397
-0.00635812
0.00812508
-0.000964566
-0.00283801
0.00136638
0.00449447
-0.00302284
0.00490811
-0.00189343
0.000725419
-0.00374009
-0.00325794
-0.000567816
0.00381399
1.17663e-05
-0.000561514
-2.98583e-05
0.00533362
-0.00474224
0.000679194
-0.000571641
0.00533784
-0.00544539
-0.00480179
0.00670675
-0.00702729
0.00512233
2.27441e-05
-0.00605023
0.00602749
-0.00214992
0.000189359
0.00542181
-0.00346125
-0.00411472
0.00481057
-0.00656143
0.00586559
-0.00422855
0.000323301
0.00128468
-0.00195945
0.00531482
0.00029823
-0.0036536
-0.00141698
0.00019701
-0.00239445
-0.00208984
-0.00679274
0.00682264
0.00205994
-0.00302597
-0.000352083
-0.000763574
0.00414163
-0.010353
0.00349655
0.00102213
0.00583429
-0.00327845
0.00752666
-0.00373648
-0.000511726
0.00229139
0.000896552
-0.00460492
0.00452662
0.00461458
-0.0091412
0.00061379
0.00991193
-0.00230226
-0.00822346
-0.000125768
-0.000177242
-0.00438098
0.00468399
-0.0047533
0.00782796
-0.00315721
8.25492e-05
0.00451164
-0.00284853
-0.00408939
0.00242628
0.00113025
-0.000151663
0.00138338
0.00694449
0.00192907
-0.0100403
0.00116676
-0.00482567
-0.000626541
0.00158023
0.00387198
0.00181699
-0.0020146
-0.00273161
0.00834219
-0.00561517
0.00437044
-0.00709746
-0.000926307
0.00539158
-0.00932391
0.00485863
0.00324503
-0.00409877
-0.000416544
0.00127028
-0.00357672
-0.001246
-0.000120488
0.00494321
-0.00268185
-0.0025345
0.00521635
0.000669885
-0.00717342
0.00636333
0.000140208
0.00275752
-0.00266111
-0.00277826
-0.0044967
0.00570645
-0.00108609
-0.000123662
0.00641398
0.00176616
-0.00691143
-0.00126872
-0.00248418
-0.00363229
-0.000416926
0.00653339
0.00408962
-0.00124534
0.00474056
-0.00758484
-0.00455323
-0.000248567
-0.00545342
0.00291892
0.000697863
-0.00607781
0.00194483
0.00343512
0.00177098
-0.00634851
0.00349472
0.0010828
0.000952466
0.000248147
-0.00477501
0.0035744
0.000724381
0.00311193
-0.000211145
0.00536325
-0.00105945
-0.00409266
-0.00210426
-0.000216619
-0.00196311
0.00428398
-0.00124391
-0.00167534
0.0032032
-0.000283955
-0.00499052
-7.1296e-05
-0.00841205
0.00302106
0.00442774
0.0119202
-9.98642e-05
0.00162378
-0.0134441
-0.00523264
0.00812265
0.00165064
-0.00454065
-0.0014921
0.000815746
0.00513885
-0.0044625
0.00062077
0.00176403
-0.00136385
-0.00102095
-0.00897155
-0.00185909
0.00773926
0.00309138
0.000196286
0.00379758
-0.000761978
0.000115702
0.00190717
-0.00598645
0.00396358
-0.0036951
-1.30913e-05
0.00136195
0.00234624
-0.00509162
0.00629292
-0.00100501
0.00287998
-0.00259707
-0.000282906
-0.0042326
0.000606389
-0.0032848
0.00691102
-0.0019186
0.00288852
-0.00222626
0.00125634
-0.00412478
0.00464519
-0.00191948
0.00139908
0.00184676
-0.000308303
-0.00437277
0.00283431
-0.00184336
0.0115597
-0.0155585
-0.00167395
-0.001168
0.0011434
0.00169856
0.00548107
-0.00855413
-0.000388166
0.00346122
-0.0023102
0.00172394
0.002971
-0.00238474
-0.000686197
0.00364902
-0.00100647
-0.00195635
-0.00410591
0.000911277
0.000959076
0.00223555
-0.00230459
0.000198294
0.00210629
0.00528978
-0.00251802
-0.00268587
-8.58914e-05
0.000388499
0.00265044
-0.00402296
0.000984023
-0.00283288
-0.00343649
0.00350336
0.002766
-0.0014716
0.00379581
-0.00325299
0.000928779
0.00136616
-0.00258601
0.001782
-0.000562146
0.00497573
0.00013124
-0.00510697
0.00427321
-0.00526154
0.00260452
-0.00161619
-0.00671908
-0.000189078
0.00690815
0.00275216
-0.00228282
0.000533009
-0.00100235
-0.000214379
0.00476527
-0.00520354
0.000652641
-0.00238018
0.00297925
0.00076709
-0.00265101
0.00568113
0.00524835
-0.00452672
0.00448726
3.94606e-05
9.05739e-05
-0.00718092
0.00709035
0.00961893
0.00115953
-0.00204298
-0.00873548
0.00201488
-0.00785115
-0.000973915
0.00681018
0.00152157
0.0018018
0.00101863
-0.004342
-0.00269824
-0.00269646
3.67084e-05
0.00535799
-0.00128889
0.00176628
-0.00317563
-0.00594111
0.00107167
0.00779797
-0.00292853
-0.0116822
0.00855639
0.00376313
-0.00063737
0.00517221
4.20068e-05
-0.00521422
-0.00294006
-0.00395699
0.00256004
0.00433701
-0.00294203
-0.00427547
0.00127639
-0.00422809
0.00229798
0.00265449
0.00171963
-0.00223942
-0.00409513
0.00461492
-0.00289567
2.67739e-06
0.00289299
-0.00676984
0.00274212
0.00278741
0.00124031
0.00169999
-0.004553
-0.00137509
0.00580229
-0.00183913
-0.00014617
-0.003817
-0.00389137
0.0064502
0.00382542
-0.00638425
-0.00114837
-0.0024065
0.00088956
0.0026653
-0.00164273
-0.00132226
0.00296499
-0.00287511
-0.00604047
-0.00276657
0.00134968
1.84327e-05
0.0027233
-0.00409141
0.00551543
-0.00401375
-0.005812
0.00431032
-0.00204653
0.000729534
0.00413511
-0.00281811
0.00387723
-0.00272988
-0.000384366
-0.000762989
-0.00444909
0.000722142
0.00347574
0.000251214
-0.00276814
0.0063415
-0.00685297
0.00267168
0.00019799
0.00398331
0.00644812
-0.00515174
-0.00405731
0.00276093
-0.00511983
0.00106731
0.00956795
-0.00496005
-0.00327198
0.00533979
0.00289224
-0.000582526
0.00517743
-0.00196327
-0.00263164
0.000294531
-0.00306969
-0.00201968
0.00479483
0.00588692
-0.00388367
-0.000238167
-0.00176508
0.00182247
0.00136143
-0.0044728
-0.00123844
0.00140291
0.00345642
-0.00362088
-0.00103122
0.00537609
-0.00662344
0.00227857
-0.00323237
0.000779577
0.000782587
0.00167021
-0.00708751
0.00720414
-0.000116625
0.00490105
-0.00483064
-7.04022e-05
0.0019658
-0.00758323
-0.00291211
0.00852954
0.00173456
0.00329934
0.000768386
-8.33699e-05
0.00288721
-0.00280384
0.00465277
0.00417115
-0.00882392
-0.00512458
0.0031292
0.00221053
-0.000215152
-0.00287791
0.000948186
0.00234021
-0.000410488
-0.00861445
0.00402156
0.00472316
-0.000130269
-0.00279429
-0.0031123
0.00301092
0.00445008
-0.000702742
-0.00286518
-0.000882158
-0.00477208
0.00514796
-0.00314402
0.000834137
-0.00531524
-0.000272359
0.00475346
-6.31221e-06
-0.00263198
0.00263829
0.0128714
9.77204e-05
0.00137493
-0.0143441
-0.000484411
-0.000949893
-0.00699806
0.00843236
0.00223097
-0.00302202
-0.00140794
0.002199
0.000864643
0.00668279
-0.00269468
-0.00485275
0.00727991
-0.00728293
-1.39479e-05
1.69702e-05
-0.00407723
-0.00367734
0.00574826
0.00200631
0.00238571
0.00182483
-0.004754
0.000543468
3.23966e-05
0.00441246
-0.00450923
6.43704e-05
-0.00609436
0.00195189
0.00493737
-0.000794898
0.00466258
0.00281999
-0.00472061
-0.00276196
0.000108236
-0.00415307
0.00210949
-0.00108153
0.00625194
-0.00335481
-0.000436882
-0.000523345
0.00431503
-0.00563404
0.000307382
0.00532666
0.0082113
0.00355303
-0.00266371
-0.00910062
-0.00536563
0.000113264
0.00536061
-0.000490668
-0.00127901
-0.00326327
0.00503294
-0.000644869
-0.000641614
-0.001733
0.00301949
0.00135382
-0.00686186
0.00517385
0.00033419
0.00427933
-0.000666197
-0.00416431
0.000551178
-0.00526678
0.00109938
0.000424549
0.00374284
-0.00200691
0.00131575
-0.00271967
0.00341083
0.00115408
0.000746605
-0.00682402
0.00492333
0.000237604
-0.00461659
-0.00032087
0.00469986
0.00457819
0.000601847
-8.06182e-05
-0.00509942
-0.0054503
0.00126834
0.00493228
-0.00392432
-0.00521396
0.00913828
0.00755386
-0.00383737
0.00162364
-0.00534014
0.000592466
0.00423637
-0.00259787
-0.0061122
0.0011276
0.00216371
0.00282089
0.00755085
-0.00778537
0.000234519
-0.0045727
-0.00155471
0.00320164
0.00292577
-0.00593988
-0.00461337
0.00309452
0.00745873
0.00615898
-0.00643147
-0.000787333
0.00105982
-0.000896155
0.00299085
-0.002356
0.000261309
-0.00770161
0.00251507
0.00176803
0.00341851
-0.0113641
0.0141421
0.00235626
-0.00513429
0.00508107
-0.0110108
-0.000561573
0.00649128
-0.00451863
0.0057429
-0.0106413
0.00941706
-0.00473295
0.0104355
0.0010341
-0.00673664
0.000416998
0.00494882
-0.00115774
-0.00420807
0.0075475
-0.00566357
-0.000189256
-0.00169468
-0.00131925
-0.00126739
0.00193669
0.000649946
-0.0035505
-0.0073911
0.00631366
0.00462795
-0.00506456
0.00675033
0.00586173
0.00411282
-0.00302398
-0.00376687
0.00267803
0.001515
-0.00195966
-0.000865574
0.00131023
0.00335949
-0.00332462
-0.00442085
0.00438598
-0.0013589
0.00389664
-0.000281428
-0.00225631
-0.0054109
-0.000865991
0.00669389
-0.00407374
-0.00100132
0.00503608
3.8971e-05
0.00167495
-0.00374177
0.00206682
0.0013308
-0.0017666
0.0065868
-0.00615099
0.00517433
-0.00727463
0.00105439
0.00104591
0.00329174
-0.0035501
0.000258354
-0.00520257
0.000138012
0.00462323
-0.00176218
-0.00446299
0.00160194
0.00146237
0.00118378
0.00518734
-0.00783349
0.0032182
-0.00349392
0.000275718
-3.87486e-05
0.00402713
-0.00455278
0.000564404
-0.00569579
-0.000547555
0.00757415
-0.00245669
-0.000419629
0.000567823
0.0023085
0.000339478
-0.00280161
0.00206627
0.000395863
0.00459851
-0.00440316
-0.0010915
0.000529429
0.00761952
-0.00480362
-0.00334533
-0.0026139
0.00552967
-0.00291577
-0.00707642
0.00270869
-0.00165932
0.00602706
0.00555783
-0.00503245
-0.00822699
-0.00272235
-0.00326078
0.0111999
-0.00521681
-0.00796789
0.00507661
0.00724111
-0.00434983
-0.000173105
-0.00680906
0.00698217
0.0107698
2.08565e-05
-0.00620603
-0.00458465
0.00626904
-0.00404134
-0.000557997
-0.0016697
-0.00456163
0.00323523
-0.000817354
0.00214375
6.17072e-05
-0.00471134
0.00464963
-0.00342425
0.00352511
-0.000100863
-0.00248602
-0.00262752
-0.00672616
0.0118397
-0.00634405
0.00138489
-0.000704755
0.00566392
0.00147661
0.0023957
0.00655023
-0.00591222
-0.004887
0.00424899
-0.00181049
-0.00373629
0.00411876
0.00142801
-0.00375479
-0.00190868
0.0056698
-6.33295e-06
0.00123768
-0.000713415
-0.00349721
0.00297294
0.00414251
0.000184503
-0.00529735
0.000970337
0.00127897
-0.000891245
0.0013774
-0.00166279
0.00165691
-0.00137152
0.00338706
0.00331728
-0.00338813
-0.00331621
0.00167173
0.0039083
-0.00404114
-0.0015389
0.00353651
0.00153137
-0.00277649
0.00437565
-0.00530651
0.00111536
-0.00582275
0.00407087
0.00219298
-0.000441105
0.00691575
-0.00228863
-0.00724102
-0.00185175
0.0049317
0.00247789
0.00481058
-0.00234361
-0.00405664
-0.00110737
-0.00065874
-0.0064754
0.00605559
0.000571321
-0.000151511
-0.000403121
0.00810161
-0.000838166
-0.00686032
-0.00528548
0.0010776
0.00235612
-0.000843038
-0.00533958
0.00150134
0.00468128
0.00483677
0.000673255
-1.66636e-05
-0.00549336
-0.00723134
-5.7664e-05
4.78583e-05
0.00724114
-0.00186046
0.00203592
-0.00330945
0.00313399
-0.00497881
0.00629646
-0.000650888
-0.000666761
0.00655388
-0.00611728
-0.00541541
-0.00482881
0.00435666
-0.00138095
0.0018531
0.00389933
-0.000176087
-0.00122632
-0.00249692
-0.00733404
0.0070728
0.00346621
-0.00320498
0.00347914
0.00132523
-0.000442224
-0.00436214
0.00124859
0.0031657
-0.00395876
-0.000455525
-0.00234689
0.00236086
-1.39663e-05
-0.00137127
-0.00349937
0.00351175
0.00533634
-0.00528789
-4.84438e-05
-0.00298364
-0.00237236
0.00233398
-0.000311358
-0.00359575
-0.000391771
0.00429888
-0.000408642
-0.00314252
0.00281103
0.000740137
0.00491081
-0.00558542
0.000674615
-0.00629866
0.00645683
0.00592099
-0.00607916
-0.00422494
0.00326204
-0.00221984
0.00318274
-0.00169592
0.000724626
0.0015356
-0.000564306
-0.000176501
0.00763013
-6.65471e-05
-0.00738708
-0.00387176
0.00187718
0.00190725
0.00221494
0.00281931
-0.00491862
-0.000115632
0.000213704
-0.00611843
-0.00023946
-0.00552783
0.00552779
4.22167e-08
-0.00371744
0.00187251
-0.00409494
0.00125306
-0.00277259
0.000111584
0.00243049
0.00105516
0.00364388
7.11053e-05
-0.00311657
-0.000598411
0.00305155
-0.00761489
0.00610541
-0.00154207
0.00126732
-0.00172514
0.00640984
-0.00595203
0.00783869
0.00231445
-0.00120493
-0.00894821
-0.00199873
-0.00327841
-0.00106479
0.00634193
0.00237748
0.00990512
-0.00894382
-0.00333878
0.00113977
0.00718999
-0.00694122
-0.00138854
-0.00246731
0.000325184
0.00505777
-0.00291565
-0.000867497
0.00704462
-0.00379965
0.0051046
-0.00403024
-0.00157297
0.000498611
0.00167645
0.00438691
-0.00606337
0.0040761
0.000905311
-0.000543161
-0.00443825
-0.00375624
0.00300238
0.000302033
0.000451831
-0.000362616
-0.0053337
0.000312632
0.00538368
-0.00390504
-0.000496693
-0.000160417
0.00456215
0.00224518
-0.00498023
4.94391e-05
0.00195694
0.00297385