/*--------------------------------*- C++ -*----------------------------------*\
  =========                 |
  \\      /  F ield         | OpenFOAM: The Open Source CFD Toolbox
   \\    /   O peration     | Website:  https://openfoam.org
    \\  /    A nd           | Version:  10
     \\/     M anipulation  |
\*---------------------------------------------------------------------------*/
FoamFile
{
    format      ascii;
    class       volScalarField;
    location    "10";
    object      SgT;
}
// * * * * * * * * * * * * * * * * * * * * * * * * * * * * * * * * * * * * * //

dimensions      [1 -1 -3 -1 0 0 0];

internalField   nonuniform List<scalar> 
111485
(
2.64965e-14
0.00822505
0.0230986
3.95528e-15
0.0483425
5.22187e-15
0.0448779
0.00613298
0.018557
0.00116406
0.0450647
0.00938659
0.00455713
0.00070105
0.00631736
0.0310529
0.00137254
2.56339
0.010257
7.03688e-14
4.54878e-14
2.22767e-15
0.0258086
0.0351097
0.0084485
1.2826e-15
0.0399703
0.00175413
0.0162532
7.41727e-15
0.0435913
0.019099
5.92569e-14
9.75272e-16
0.00741943
4.18105e-15
0.0103682
0.00410068
4.47774e-08
0.023256
3.12492e-17
0.0710916
0.0156846
0.00141699
5.37904e-05
3.9027e-14
0.0305407
0.000718337
0.0477134
2.55039e-15
2.12319e-15
3.07852e-14
3.32459e-14
0.0488571
3.30045e-15
0.0431762
0.00326023
3.12713e-16
2.15353e-05
0.00476695
0.0160291
7.57021e-15
0.00445875
0.0937758
1.45609e-14
0.00336035
0.312079
0.0947499
0.00102557
0.00578399
1.21343e-05
0.00621427
1.26088e-14
0.0027085
2.10953e-14
0.000695892
1.20701e-14
0.0411839
7.29558e-16
3.01751e-14
3.92532e-06
0.0338133
3.20048e-15
2.84487e-14
0.00885551
0.00406314
4.25122e-10
0.0243665
5.46732e-05
0.00722537
0.000365306
0.040388
0.0112534
5.79723e-05
0.053367
1.46263e-14
5.49199e-15
0.00170172
2.25209e-08
0.00124366
4.07956e-14
0.0186136
4.43112e-15
0.018958
0.00466411
1.58449e-14
3.02296e-15
0.00760955
0.00386819
7.26768e-08
0.00562358
0.00474776
0.00355468
0.00305223
2.58926e-14
3.27317e-05
3.43455e-15
3.86523e-15
0.0122155
2.05426e-14
3.8124e-15
3.88404e-14
5.56001e-15
5.59609e-16
0.0016214
2.73208e-06
1.77165e-15
0.00163528
3.54186e-16
4.58551e-05
0.00130572
0.031363
1.13284e-14
1.29273e-13
4.44995e-16
0.0488491
1.34855e-15
0.0424008
0.0246315
0.00257696
0.000226744
0.00199443
0.02225
0.00283217
0.00380332
0.0128513
1.3996e-14
9.27474e-15
6.91885e-15
0.0275617
0.00168229
3.18717e-15
1.99531e-07
0.00497311
4.83071e-07
0.0104675
0.0165342
0.010309
7.41037e-08
3.73715e-15
7.45354e-15
0.0522976
0.0234661
2.06253e-06
3.54371e-07
0.00551047
0.00359449
4.36974e-16
5.09516e-06
4.94156e-05
4.09421e-16
1.89712e-14
0.000130739
2.24661e-16
0.0057724
0.00215321
2.5788e-15
4.83125e-14
6.70497e-15
2.36217e-14
4.11269e-15
3.20631e-15
0.00143889
0.00680727
0.0291107
0.00421377
0.00730265
0.00379048
8.49593e-05
1.51658e-14
0.00451514
1.32184e-15
1.09481e-14
0.00621652
0.0106089
0.0268883
0.0109081
0.00484786
3.44791e-14
0.0064887
0.000567202
4.43154e-05
0.0133663
0.00229849
5.00139e-15
0.00363138
0.0258245
1.92687e-14
0.000184906
0.00755645
0.00217888
0.000351506
7.26705e-15
3.57368e-15
0.00780066
9.06957e-12
0.119491
7.73563e-15
0.00638964
0.0199096
0.119956
1.6704e-14
0.00304732
0.013335
1.829e-13
4.15432e-15
5.83675e-16
0.156477
3.18644e-07
2.17595e-14
2.68578e-15
0.00927624
0.00788977
0.014797
9.67773e-15
2.74685e-14
1.15025e-05
2.84473e-14
0.00246549
0.0090511
0.015873
0.0111583
0.00949152
3.05283e-15
2.71937e-07
0.000604286
2.73246e-15
3.53417e-15
0.0310738
0.0208443
1.43873e-14
0.00615064
0.0104125
9.35869e-15
4.94358e-14
0.000120033
4.51718e-15
2.31528e-14
4.20349e-05
6.86913e-15
0.0151274
0.0110535
0.0037145
2.06589e-14
0.0116344
1.00818e-15
6.9388e-15
1.14561e-14
2.12262e-08
0.0225451
0.00587774
0.00516117
0.036969
0.0117603
0.00162257
0.000589014
0.0333239
0.00906449
1.38097e-15
1.85302e-14
2.66444e-07
0.0225436
0.0240234
0.0122608
2.42633e-15
0.00684688
0.00209217
0.00290899
1.91938e-06
3.76564e-06
0.0134089
0.00211212
0.00185341
8.62828e-16
0.000721134
3.66465e-16
1.07596e-07
2.30961e-13
0.249356
0.0689381
0.0124047
1.69436e-15
8.31361e-16
0.00884501
0.00178431
1.82381e-14
1.54028e-14
1.12289e-15
0.000309808
0.05859
0.00380494
0.0142741
0.0192833
9.07319e-15
1.25612e-15
3.12486e-14
0.00372183
1.1224e-12
0.000812005
0.18732
3.63973e-07
1.13959e-15
5.73461e-15
5.35298e-15
9.47358e-14
0.0593253
0.0120687
2.59718e-16
0.00513233
4.27701e-14
1.08942e-15
0.0662428
0.00576979
0.0113552
0.00903764
1.05793e-13
4.77911e-14
3.11041e-15
0.00923654
0.0189826
0.00458804
9.4266e-15
3.22397e-10
0.000177504
0.00208616
0.00789607
4.01874e-05
0.0286312
4.16491e-15
0.0377224
0.00342446
0.00770372
0.0245291
0.01362
6.77477e-15
8.93931e-14
1.83172e-14
3.34422e-15
0.0318346
0.00964308
0.0345313
0.0675641
9.37667e-16
0.019071
6.40583e-16
1.6902e-14
0.0161798
2.56822e-14
0.0669456
1.80027e-14
3.13591e-16
0.0230967
2.15498e-16
0.013857
0.000326845
7.4027e-16
0.00103866
0.0161332
1.5383e-14
0.00849621
0.0097712
0.00789879
0.000616979
0.00281968
0.00586085
3.79102e-14
1.85836e-14
0.00178837
6.79128e-16
0.00589184
0.114356
3.77812e-15
2.92225e-15
0.0272576
0.000110445
0.00801187
0.0208201
3.01513e-15
0.0448386
0.0190489
1.58151e-16
0.000784438
0.00254582
1.50974e-14
1.58831e-14
0.0112282
0.00513704
3.25238e-16
7.82987e-16
2.6999e-08
3.69944e-14
0.0118615
8.92245e-16
9.17034e-15
0.0169732
1.80007e-06
0.0128123
0.0283695
2.19859e-15
3.39686e-14
0.00135169
8.02763e-16
0.000148957
0.013374
0.121297
0.864095
6.31709e-15
0.00273163
0.000430494
5.04861e-14
0.0375886
0.0317583
1.72391e-14
8.14244e-09
9.55918e-05
3.81145e-14
0.0244621
0.0250488
0.0141754
1.94941e-15
0.000663637
0.0175135
0.0230506
8.18466e-07
3.1466e-14
5.84456e-10
1.01748e-14
1.29677e-05
0.0318193
9.61276e-16
0.00871871
9.24141e-05
2.29114e-14
1.32245e-15
1.83727e-14
2.1751e-14
0.00368759
0.00974367
0.00646317
0.00224377
0.00290286
1.06027e-14
0.00213059
2.34403e-14
0.0388647
1.09422e-14
2.93292e-15
7.77243e-15
0.0355432
1.67108e-14
8.84972e-15
2.18116e-07
9.72953e-15
2.03354e-14
0.00101956
5.01863e-16
8.09052e-14
4.61022e-16
2.19766e-14
2.68443e-14
9.76723e-15
1.05269e-14
0.0073495
1.10557e-14
0.000473066
0.0018606
0.00103288
3.12779e-15
0.000809034
1.25031e-14
6.45685e-15
0.00276934
0.00182929
0.0275313
0.0239783
3.15189e-15
0.00201389
0.0785803
0.0084968
0.00105271
0.00325306
3.85594e-15
0.0235493
3.74591e-14
0.0047331
4.85094e-16
0.0737808
2.14078e-14
0.0211377
0.000235214
2.88426e-07
8.01516e-15
0.00200991
4.07623e-15
0.0798179
0.0474666
1.86689e-15
6.61702e-15
5.82241e-14
2.16973e-15
1.42479e-09
0.0551851
2.49289e-16
4.23027e-17
0.00267396
8.70003e-16
0.0326317
8.56623e-15
0.000337367
1.20447e-14
0.000505947
1.04476e-06
0.00106995
0.0126228
3.09983e-14
0.000386725
2.90381e-15
1.42105e-15
0.0151959
8.33144e-16
3.15976e-05
1.23638e-14
0.00155911
6.7711e-15
0.0645069
2.29478e-15
6.01345e-15
0.0159562
0.00337803
0.00164416
0.00394687
0.00648948
0.0210229
6.77112e-15
0.0238079
0.00631402
6.33522e-16
7.65811e-08
0.0384928
0.0144311
2.94485e-14
0.00432137
0.00641139
0.00162828
0.00111559
2.37766e-10
0.0137491
0.0011147
0.000144507
0.024346
0.0140064
0.000701667
2.74373e-14
2.9589e-09
0.639942
2.3795e-14
0.000388318
5.91951e-16
9.66987e-14
0.00731105
0.00298296
1.98558e-07
1.36012e-05
5.37616e-14
0.016774
0.0109558
7.94402e-15
1.05508e-10
0.00155265
6.40031e-15
6.34052e-15
3.69038e-15
1.54663e-15
0.0138283
2.72329e-15
2.29545e-14
0.00900045
0.00204378
7.13224e-14
0.0102606
1.66633e-14
0.00856118
1.05891e-14
6.54063e-15
0.0539848
5.99812e-15
3.65512e-15
6.75736e-14
0.00440979
3.81274e-14
0.0299185
0.00627438
5.20419e-16
0.0832074
0.00247595
0.0277751
0.027029
0.000584309
8.03641e-05
3.06844e-15
0.0546151
0.0446517
1.09022e-14
0.000307493
0.0405319
0.00745442
0.00148697
0.0273706
0.0257944
9.66825e-14
0.0105652
5.81496e-06
1.12964e-14
0.0338829
0.000260428
4.61361e-14
0.011046
0.0396696
0.00138752
0.020659
0.0187289
0.00724698
5.02729e-14
0.0100341
0.000325136
1.36292e-11
0.0162856
0.0168843
0.0355924
2.22467e-16
0.00191311
1.7513e-16
8.81177e-15
8.58611e-15
1.09779e-14
1.45525e-05
1.69103e-14
2.10777e-10
1.42195e-14
1.99092e-15
7.30666e-05
0.0420201
2.33196e-14
0.0330725
5.10239e-14
2.52045e-14
3.12175e-15
0.039142
0.000437006
4.62621e-14
3.03335e-14
5.36791e-15
1.51417e-15
0.217154
0.0691802
3.60177e-14
0.00191055
2.43975e-06
8.37636e-16
0.0365695
0.0078818
0.0120218
4.19021e-15
1.87002e-15
0.000397164
0.00105861
4.32167e-14
1.04524e-16
2.31183e-14
0.00712793
4.20242e-15
2.4173e-14
1.32631e-14
0.0409517
0.00195869
4.11367e-15
3.98573
0.284754
0.0100934
5.96851e-16
7.97819e-15
0.0563825
0.000390233
3.04802e-15
7.26873e-06
0.127875
0.00259753
0.0116202
4.16907e-14
0.0543565
0.00180333
6.63017e-16
4.53233e-15
6.27398e-16
4.90508e-16
1.65325e-15
1.80475e-15
0.0213616
4.33693e-15
1.77378e-15
2.77848e-15
0.0115257
0.0240372
1.81653e-14
5.77321e-15
0.105615
0.0139544
0.00959096
4.76482e-14
2.05471e-15
0.0362394
4.91577e-15
0.00181466
0.00256248
0.00382526
1.14321e-14
9.87195e-15
2.63479e-14
2.07995e-15
0.0150748
2.76385e-15
8.84147e-15
0.000957999
4.07845e-15
0.0224861
0.00175785
1.9404e-14
0.0367465
0.418162
0.00246009
0.0295175
0.000161478
0.0448926
1.11095e-10
1.04128e-13
0.0229803
0.0702507
0.00609978
9.65574e-15
7.18886e-10
0.705022
0.00989812
6.81571e-16
0.00272719
0.00265703
0.00124081
6.91626e-14
4.52826e-15
2.83605e-14
0.0132327
4.77729e-15
0.00260198
1.85043e-14
0.00123247
0.00136158
0.0356823
0.000588741
6.98744e-15
5.34736e-15
6.18179e-15
0.0203527
8.0251e-15
7.28653e-16
5.95149e-05
1.72186e-15
3.75766e-16
1.46719e-14
2.31512e-15
0.00953167
1.25601e-14
1.15515e-15
5.20517e-10
2.12867e-14
1.38853e-15
4.10825e-14
2.3585e-15
3.2652e-06
0.00158843
3.33497e-15
0.00381499
7.62549e-06
3.14993e-07
6.38003e-05
0.00415861
9.39904e-15
9.16428e-06
0.00995873
0.000394205
2.16153e-14
2.21478e-09
0.000803183
4.08254e-15
0.00949241
0.000206616
1.75612e-06
0.0237751
0.00914264
0.00222843
0.00508879
0.00196905
6.39016e-15
1.57421e-15
0.0316609
0.0256165
1.86365e-15
0.0081886
0.054727
0.0281549
2.10695e-14
0.00135964
3.1489e-15
0.0101378
0.0138136
6.44168e-15
0.0015158
0.000449779
1.26543e-06
0.00474325
7.58707e-15
0.0481048
1.57117e-05
0.00155582
3.2976e-05
1.34855e-05
1.3352e-14
4.91548e-15
0.00739947
2.23026e-15
0.00011294
0.000271358
0.000255995
4.91355e-08
7.24648e-08
6.28328e-07
4.09277e-15
3.67725e-14
0.0223187
5.74121e-14
0.000164675
0.00207422
7.80983e-14
2.00927e-14
5.6487e-07
8.7036e-10
6.04368e-15
4.53583e-06
1.26219e-14
9.10853e-15
3.79749e-15
2.87123e-14
2.33247e-14
3.80803e-14
0.000300313
6.2073e-15
8.69415e-16
3.68002e-15
6.29888e-06
5.26488e-05
0.00175091
0.00906718
6.44197e-16
1.34358e-15
0.00017565
3.43933e-15
6.08939e-15
1.25972e-13
0.0188695
0.0419097
6.6068e-15
2.59131e-15
7.18941e-15
9.10184e-15
7.78968e-16
3.60228e-15
0.00718961
7.88489e-15
4.46786e-08
0.0264744
4.4767e-16
3.14646e-14
6.40171e-15
2.43431e-05
1.22117e-14
2.16605e-15
1.64488e-15
8.407e-06
5.83192e-15
0.00451071
1.00566e-06
5.01521e-09
1.72823e-15
6.55499e-05
0.00219542
0.0443194
7.47041e-15
7.211e-06
0.00568135
6.84681e-15
1.41505e-15
1.34108e-13
2.36036e-15
0.00797354
0.00176564
0.00343372
1.70373e-07
7.16514e-16
0.0238232
1.07976e-14
1.19482e-14
1.04304e-13
1.26878e-15
0.0259479
4.3581e-15
1.00668e-14
1.83992e-06
0.0508629
1.0823e-15
0.00248171
3.72421e-14
0.000902695
5.49544e-14
1.77652e-15
2.81578e-15
1.53917e-14
0.00257853
0.000630419
0.325458
4.6517e-15
9.79493e-15
0.00226093
6.58229e-16
5.46615e-14
3.39394e-14
0.0378214
8.25293e-06
0.030503
1.44208e-14
9.59071e-06
4.40428e-05
1.00102e-13
0.000110444
5.54553e-15
0.00135738
0.0254876
0.0198865
0.0012734
0.000246134
3.65232e-14
4.41603e-16
8.10875e-16
1.97019e-05
4.86884e-16
0.00690808
5.06517e-15
0.175465
1.72291e-15
0.041882
0.00308538
5.27336e-14
1.45508e-14
8.45897e-14
2.79089e-16
0.0385993
1.31497e-14
6.86101e-14
0.0120901
0.00640863
4.32964e-14
8.84398e-14
7.09571e-14
4.46675e-14
8.23817e-15
3.25809e-15
0.0241817
0.000428644
4.04235e-15
3.73003e-15
4.57214e-07
1.27602e-14
0.00147992
0.000110679
5.82243e-15
0.00322918
2.09037e-15
0.000359293
2.13145e-15
0.00100884
4.13976e-15
8.44624e-08
2.06988e-06
0.000681473
0.0171589
0.03235
1.14537e-06
1.59246e-15
0.000504293
8.08557e-15
0.00452756
2.89861e-15
2.47825e-15
1.09308e-13
1.15913e-14
5.37864e-15
7.27398e-16
0.00678704
0.0075087
1.64206e-14
1.17616e-13
7.65527e-15
0.000719264
1.37678e-05
7.97728e-15
0.0182214
0.000186596
2.97914e-15
0.0230869
0.00802042
0.00353291
0.0119903
1.14341e-15
3.99329e-15
9.5912e-17
8.33645e-15
0.0367618
1.72179e-15
0.110414
4.19512e-15
0.00027708
0.000727472
2.0424e-15
0.000871492
9.38751e-17
2.13875e-15
0.00280783
2.476e-08
0.00803018
4.87651e-16
6.84728e-16
9.15357e-16
0.000777341
1.25491e-14
2.39557e-16
1.24713e-14
3.33346e-07
9.38596e-15
8.06954e-06
3.90352e-14
8.13359e-15
5.47957e-15
0.0182765
0.00955623
0.0180599
0.0353059
1.87991e-14
1.31141e-05
7.41218e-16
1.20794e-15
0.00992969
6.05048e-15
2.39609e-06
0.000314605
0.00656697
0.000337369
1.03044e-09
0.00204035
5.25046e-16
1.08512e-09
5.24511e-10
0.000116776
0.000861886
0.0147807
6.16851e-08
5.8447e-14
0.0305104
6.71182e-15
2.67573e-15
1.61809e-05
0.0736831
6.28454e-08
1.22796e-14
7.64239e-15
3.7281e-07
1.29377e-14
2.75373e-15
1.58429e-05
6.99854e-15
1.78359e-14
0.0395048
0.000202308
0.000159078
0.0224598
0.00725064
2.84669e-16
1.14659e-14
1.49066e-05
0.00416037
5.12018e-15
1.0505e-15
0.0101751
1.00495e-14
2.53415e-15
1.41823e-14
2.45647e-14
1.961e-13
2.57011
9.37898e-15
0.000201234
9.07262e-15
0.0197545
3.25486e-15
9.45331e-13
4.60686e-14
3.77117e-14
4.60184e-15
4.3557e-15
0.00307773
5.94389e-15
7.9153e-16
2.40371e-14
1.04712e-14
2.05589e-15
2.09191e-15
0.00972752
9.73721e-15
0.0108308
0.00290267
3.28061e-15
0.00147629
5.86473e-15
0.000470653
1.90356e-06
0.00392548
0.0135191
4.50996e-15
9.24081e-05
0.00799213
7.49048e-06
5.13322e-15
2.33245e-06
0.0188382
0.00465181
3.39136e-14
0.0260655
8.41399e-15
4.17921e-15
2.85784e-15
1.16095e-14
0.00810559
1.30276e-14
3.08043e-15
0.00827934
2.0851e-07
0.00263559
3.09138e-15
7.05573e-14
0.000619657
2.23875e-15
8.08695e-05
5.61262e-15
0.0227815
1.30933e-15
4.0099e-15
5.11724e-05
4.16816e-15
0.000128126
3.219e-14
7.58379e-16
0.00494896
0.000426324
0.00477611
0.0158261
0.217864
0.0200369
1.63589e-15
1.67446e-13
0.00275837
0.00675977
0.0365073
0.0113505
1.43747e-14
0.0122511
5.84872e-16
2.4542e-15
0.00866751
0.01066
3.27329e-15
0.0130196
1.58697e-15
0.00276235
0.00885406
1.86371e-14
1.74753e-15
8.0282e-16
0.00267818
2.61222e-15
3.03212e-15
0.00397944
0.0210974
3.87267e-06
0.00749787
1.44672e-14
5.03188e-15
8.01982e-05
0.000760512
8.625e-15
0.00976387
5.56157e-14
0.00243471
4.35889e-16
3.37143e-15
0.0117652
4.18187e-15
3.90584e-05
0.00340301
9.53913e-15
3.77949e-15
0.00412003
4.65302e-11
0.053137
4.69916e-14
0.260322
7.04723e-15
1.75729e-13
1.72695e-14
0.00708936
2.24413e-14
9.75104e-16
0.00537954
1.2183e-14
0.000232732
3.01196e-14
1.23378e-14
4.63579e-15
1.13242e-07
0.00076498
2.60937e-15
2.03383e-15
0.0355205
0.000925271
8.86407e-15
0.00042549
1.79603e-15
5.04158e-15
1.54858e-06
0.00307061
0.00122845
1.293e-14
1.72732e-14
5.28197e-15
7.78918e-15
3.85452e-14
3.7613e-15
3.01554e-15
5.90408e-15
2.11298e-15
2.16181e-14
1.11872e-15
2.67035e-15
2.02487e-14
1.533e-15
2.83907e-15
2.99841e-15
1.36389e-15
9.08316e-15
2.42343e-15
2.80987e-15
4.31449e-16
0.0177534
7.1998e-15
9.75332e-16
7.99755e-16
0.00640462
1.14205e-15
4.23662e-15
0.260535
1.6393e-14
2.77869e-15
0.0225505
4.01275e-13
3.48273e-16
0.00665778
0.0239424
1.26908e-16
0.00227854
0.0035392
6.3639e-15
0.0126539
0.0387377
0.0171899
0.00314961
0.0103882
2.48847e-14
4.13665e-15
0.00295927
0.0108661
0.00299934
1.39557e-15
0.00634361
0.00167666
0.0203397
0.0103667
0.000666276
0.0147383
0.00101488
0.00962597
2.11881e-14
0.0253305
0.00815937
0.00172655
0.0012925
6.46838e-16
4.61228e-15
1.41263e-15
8.21903e-15
7.20692e-15
0.00948945
0.0131372
2.7477e-16
1.04777e-15
1.69914e-14
1.51513e-15
4.1734e-15
4.29255e-15
1.27735e-14
1.39055e-14
0.00457139
0.000157522
0.0209381
6.64906e-05
3.1209e-16
8.61769e-14
0.0311967
5.48332e-06
4.70507e-15
5.43076e-15
0.00695161
5.89183e-15
5.55797e-15
3.22372e-06
0.00750664
0.0133496
0.0317021
0.0319722
9.5532e-15
0.0140492
0.00031676
5.47782e-14
1.32121e-15
0.0111915
1.42859e-14
8.82785e-16
0.0186477
1.02122
0.000158958
7.25473e-14
1.63777e-14
0.0154699
0.0208471
0.0174087
0.00539463
0.00337175
2.066e-14
8.96576e-07
2.47553e-09
2.05906e-14
1.31811e-14
0.0165692
1.02793e-15
0.00197225
0.0251816
0.0166091
0.0110798
1.37514e-14
0.00552806
6.92225e-15
6.09522e-15
1.15029e-14
7.4894e-16
0.00249798
0.829687
3.27899e-15
4.56152e-15
3.74006e-06
0.0232525
0.000934323
0.00661119
0.0321874
0.00460259
0.0192816
2.15429e-14
1.04394e-14
1.63957e-14
0.0298303
0.00539245
2.48673e-08
3.22473e-15
1.12864e-14
1.0915e-13
0.0210317
0.00251445
5.29379e-15
0.00461525
0.0533992
0.00655943
0.00587239
5.88407e-15
3.46389e-14
0.00656629
0.0224448
5.6202e-16
0.000312959
0.0138244
0.000909273
0.00922577
0.00445048
0.00758949
3.01802e-14
0.00332001
0.0200098
0.0356422
4.99647e-10
0.0221606
1.2939e-13
0.0160664
0.000136133
3.20919e-15
0.00244966
0.00694297
0.000366839
0.0110511
1.0195e-06
0.00014106
1.6547e-05
0.0343919
0.00339808
3.38529e-14
0.0376689
0.00115991
9.61757e-16
9.92385e-16
3.83684e-08
9.50783e-06
0.00099479
1.05636
0.0335594
0.0102071
2.10823e-07
0.0413992
1.03105e-14
5.46093e-15
0.00393368
2.68481e-15
0.00196539
0.00440989
0.00198844
0.00452029
1.20682e-16
0.000197612
0.104026
1.62346e-15
0.0230305
0.00705888
2.27616e-14
0.00361239
0.000173189
1.2982e-14
6.41858e-09
8.72131e-05
2.03365e-14
3.86704e-16
1.17825e-15
0.00412531
0.00417187
0.0135546
9.09112e-15
0.0047262
0.0309343
1.07563e-14
0.00743233
0.0115303
0.0234975
0.00138996
4.88862e-15
0.000512197
0.00879286
0.00969572
0.00831681
0.0362542
0.15471
0.00307884
2.62626e-14
6.40001e-06
0.0491139
9.71201e-15
0.000387708
9.68784e-16
2.61658e-15
1.25568e-14
2.81279e-16
2.26718e-16
0.00307673
1.76431e-15
0.00647155
0.00121712
1.29946e-14
0.00393648
5.01087e-14
0.0136143
2.66647e-16
1.83084e-05
4.1652e-14
0.0205167
0.0001349
1.75546e-06
0.00380756
0.0275752
0.0161651
0.00374347
0.0252198
5.32237e-12
0.021131
0.0518916
0.0088995
2.80238e-14
0.00109823
0.00026615
0.0051628
0.010581
0.000607273
1.13478e-14
3.37752e-14
7.82913e-16
0.00354907
1.59063e-14
0.000159047
0.000211574
0.0011853
0.000236333
3.59966e-16
3.89792e-14
1.20941e-14
0.00792115
0.0198728
0.00123621
7.76964e-06
0.00180445
0.00642257
0.00174225
0.000848127
0.00673883
0.00561114
0.00246114
2.5207e-14
8.54733e-16
3.21609e-14
0.0128971
0.0104093
2.5988e-14
2.70726e-16
8.28241e-14
0.00772904
0.0180188
8.23736e-15
0.00204401
8.67287e-15
6.01735e-07
0.00470716
0.0821785
3.3772e-15
1.44287e-15
0.00364683
4.90092e-15
6.48138e-05
0.0114403
4.82374e-15
0.0101373
0.0313156
0.0176342
1.55807e-15
0.00122923
1.10006e-14
8.13282e-05
0.0460658
9.13115e-15
9.91425e-15
0.0104145
2.39005e-13
8.30752e-14
3.83029e-05
0.000968052
2.36797e-14
4.54604e-15
6.34787e-15
6.37106e-05
0.00120679
0.00320673
0.0227901
0.0083222
2.99549e-14
6.2711e-07
0.000624217
1.16161e-15
9.86268e-16
1.19547e-14
3.5665e-16
7.94948e-15
1.38681e-14
4.30552e-14
6.98629e-15
9.07338e-15
2.02156e-14
3.02703e-09
1.48451e-14
0.000334848
1.33411e-14
0.000184934
1.69169e-13
5.39685e-05
6.96208e-14
1.08455e-15
0.0253405
0.00871511
6.41712e-15
0.0835815
5.25487e-09
2.42552e-10
8.49345e-16
0.00106597
6.8563e-12
0.00246208
4.96367e-06
0.000888106
1.1735e-14
1.01336e-14
0.00103742
2.95692e-08
3.99384e-15
8.62995e-16
0.0368622
3.66342e-14
0.0353391
6.14361e-15
7.29076e-15
1.5077e-06
0.0263714
0.00776132
7.4201e-15
0.00029047
7.10269e-14
0.00244734
1.63775e-05
0.00172697
3.46797e-06
1.09417e-15
0.0192188
0.00105455
0.00473071
2.87591e-15
4.99516e-15
3.92219e-15
0.0136592
0.00368659
0.0482995
7.1271e-16
3.8181e-07
6.10684e-16
1.60384e-15
2.31519e-15
4.89693e-15
0.0029142
0.00185377
0.0027112
0.293354
5.74638e-14
0.0261996
0.0337819
0.0164396
0.001449
8.64538e-16
0.00518208
0.00399773
0.00453021
4.09405e-07
0.00957482
1.35827e-15
0.00153582
0.00110429
0.030938
9.38661e-07
0.00299876
8.71548e-15
0.0166139
8.20615e-15
4.91955e-15
0.00155243
9.29438e-16
0.00609868
1.42458e-14
2.90521e-15
4.35568e-14
1.85231e-15
2.21599e-14
0.000717827
3.64474e-15
0.000560164
4.58614e-15
2.50466e-15
0.0173625
0.00515201
0.00725205
0.00734721
5.77918e-15
0.540024
4.68554e-15
0.0654444
1.33793e-15
0.0170469
0.0212892
0.0021092
0.0530411
2.37679e-14
1.88014e-14
9.42907e-15
0.00205886
4.58055e-16
2.04727e-15
0.016776
5.83285e-15
1.82828e-15
0.00482427
4.37329e-15
0.0117876
7.06793e-08
6.94773e-16
2.08128e-15
7.29483e-15
0.00143087
0.006168
3.45448e-15
0.021845
0.000306305
3.20977e-15
0.0939234
3.43219e-14
0.0149705
0.0170274
0.00328661
9.24459e-15
0.0169638
0.00921309
0.000770704
0.00477035
0.0112993
7.90975e-15
1.87178e-14
1.62999e-06
5.10843e-15
3.01761e-15
1.06746e-14
0.0186652
0.0457333
0.00419923
0.00191105
6.80404e-15
0.0454714
0.0430153
0.00398715
0.00227854
0.00847751
0.0196878
0.00241827
1.0767e-15
4.03115e-15
7.19272e-15
0.00630706
8.51247e-16
0.0243646
3.12623e-14
0.000712109
4.56147e-07
0.00249111
0.0206017
9.60612e-15
4.38913e-14
0.00230546
0.000344642
1.28064e-14
1.87857e-15
7.41888e-15
3.55603e-05
0.000263965
0.00012871
0.000729264
0.00930304
0.0834012
2.68698e-15
1.0976e-13
6.67943e-14
0.0036532
0.0175594
0.0190367
0.0321631
0.00178785
0.00263924
1.79644e-14
1.48109e-14
1.49498e-13
2.37829e-15
0.00895257
0.0205925
2.65222e-15
2.05436e-15
1.0664e-14
7.53661e-15
2.18304e-14
3.1381e-15
0.0124255
5.16626e-14
0.00101469
0.370411
1.09671e-14
1.42851e-05
0.0212467
0.000628788
9.86767e-16
5.08919e-15
0.00453877
1.45616e-14
0.0132235
1.00334e-06
0.022798
1.02675e-13
1.56985e-12
5.85791e-15
5.43239e-15
8.07509e-15
9.16776e-15
0.182807
4.20647e-15
0.0053695
0.00113435
2.09127e-14
4.65303e-14
0.00187241
3.90245e-15
4.30122e-15
0.013058
0.000100045
2.99409e-15
4.28593e-14
1.64811e-15
0.0157693
2.12899e-14
2.30637e-14
0.0003745
0.00239846
0.00285219
5.89924e-15
1.26434e-14
2.86264e-14
0.00344567
0.00168863
0.0116966
0.00335683
5.88772e-15
0.000716104
0.0116693
0.00604037
1.12382e-15
1.42668e-14
8.44292e-15
3.27991e-15
2.08864e-14
0.0288616
0.00557473
0.00540568
3.2998e-14
7.03448e-16
1.39809e-14
1.4752e-15
8.62339e-16
8.83015e-07
0.00021326
0.00215726
3.90214e-15
3.56892e-14
1.51989e-14
2.62767e-09
0.0318429
0.106885
7.56956e-15
1.44049e-09
1.11448e-11
7.8915e-15
1.89506e-14
0.00352134
0.00637188
3.60396e-15
1.05703e-14
0.00265043
3.70805e-14
0.00065546
0.00104165
2.02833
2.31979e-15
1.00145e-14
0.011233
0.000475583
5.93688e-15
0.638144
0.000540269
0.00635458
1.55386e-14
9.87698e-15
4.08538e-14
1.08691e-14
0.0075874
9.54821e-05
7.94338e-15
0.0230862
0.0175561
0.840185
3.7829e-15
3.96108e-16
2.1464e-15
7.26733e-16
0.00617763
5.75331e-08
2.46295e-14
1.39581e-14
0.0175027
0.000772267
0.00483197
5.71482e-15
4.15387e-14
0.0271033
1.59959e-14
6.70849e-15
7.14347e-16
3.55603e-15
0.0212432
3.5929e-14
6.95517e-16
9.27243e-15
0.0243953
0.0120006
3.3606e-15
5.03087e-15
5.40141e-17
0.0145646
1.58293e-07
5.1687e-15
7.7174e-16
1.88571e-14
6.67035e-14
0.00224397
0.010108
4.14462e-15
0.00197325
0.000980198
0.00438233
1.97303e-13
5.71302e-14
3.66249e-15
5.73593e-15
5.82284e-16
0.019373
1.31417e-13
0.0144666
9.02051e-16
0.00139655
2.86796e-14
0.00215904
4.65153e-14
3.01891e-15
0.00963141
0.171517
6.69441e-14
0.00321677
1.41879e-14
0.000340272
1.79982e-14
1.47594e-14
6.65868e-15
2.14452e-07
4.65551e-15
0.000327624
8.87302e-15
0.0338346
8.12424e-15
5.50294e-14
3.79015e-15
1.31069e-14
7.28671e-06
0.000125091
2.81179e-15
0.00483068
4.20121e-17
0.0029061
0.0180727
0.00115544
5.00689e-16
4.17983e-06
0.000400646
1.90505e-06
0.00445613
3.44918e-07
0.00149296
6.13584e-14
5.90978e-15
4.07171e-07
0.00517195
0.00022078
3.6406e-15
1.70201e-15
5.37174e-15
0.518427
2.96708e-15
3.45981e-15
1.72813e-14
1.64952e-14
1.09606e-14
4.53625e-05
0.000164036
0.000969209
5.9236e-05
5.26499e-13
0.00121468
3.53938e-15
0.00558308
6.45189e-14
3.37076e-15
1.47454e-14
3.26751e-15
1.51964e-05
1.98094e-15
1.76716e-15
9.93478e-15
0.0141393
8.33699e-14
5.10011e-16
0.00971384
2.76503e-14
0.0602344
0.106305
0.497953
3.21585e-14
0.193973
1.14818
1.25993
0.634615
9.14181e-15
8.71085e-16
0.00467487
0.00452396
1.09112e-14
0.00713943
1.31067e-16
0.0305661
9.89519e-15
3.84519e-15
0.000622374
1.31696e-14
2.2609e-14
9.46176e-06
3.49401e-05
3.97967e-16
5.13936e-16
2.01294e-06
5.88449e-14
3.41072e-15
1.97014e-05
0.00761317
0.00134522
1.92881e-15
0.00701241
1.07774e-15
0.00325289
3.87004e-07
0.0065723
1.66639e-15
1.04171e-08
0.00512784
1.10018e-15
1.38895e-09
3.12969e-16
0.0308805
8.67891e-15
0.00931588
1.91196e-15
9.9602e-08
2.20582e-15
3.51754e-15
2.01546e-15
5.39701e-10
3.24881e-10
9.78238e-15
0.0114421
0.00794342
3.49115e-14
3.45287e-14
0.0309498
0.0168832
0.174954
7.29256e-15
6.20529e-05
0.023696
0.0439546
5.37928e-08
6.17756e-15
0.0545448
3.69502e-15
0.214029
1.60842e-14
3.35899e-08
3.43168e-08
3.76935e-15
5.50951e-05
2.18882e-14
0.0185511
1.56034e-15
7.36501e-16
1.2474e-15
4.67806e-14
6.69098e-15
3.16276e-15
0.000248132
0.00172394
0.128478
5.78287e-15
7.29511e-14
0.0388153
1.23063e-15
3.91839e-16
4.83922e-15
7.83651e-15
8.0868e-15
0.00524554
2.8088e-15
3.51426e-14
9.36973e-16
0.00290907
5.3973e-14
3.79518e-15
2.81216e-14
0.00288144
3.56548e-15
0.00535832
0.212429
0.00470694
0.00499115
0.023723
2.02683e-14
1.13112e-14
5.18509e-15
0.00282386
0.00167998
3.10761e-16
9.79899e-14
0.000519894
1.10851e-13
2.37158e-14
0.310893
7.59818e-16
0.0204966
3.3771e-15
0.0021339
0.00319638
1.06717e-14
4.2316e-15
2.06682e-15
2.74673e-15
5.5768e-15
0.0177011
1.40567e-14
0.00409311
2.41421e-15
9.10685e-15
0.00613135
8.72068e-15
0.0122069
2.25704e-14
1.5259e-14
0.0021096
6.57808e-05
0.129201
2.06591e-14
7.91443e-15
1.96116e-15
0.00310626
0.166082
5.14036e-15
4.31573e-15
4.70068e-14
0.00127686
1.3355e-16
0.0186629
0.0278002
7.89427e-14
5.59406e-16
0.00625684
1.65418e-14
9.21345e-14
1.25769e-15
7.52501e-14
3.20267e-15
0.0621589
7.14744e-14
5.67912e-14
5.5071e-15
2.20537e-14
5.72274e-15
8.85035e-15
2.2567e-15
1.82117e-15
7.67622e-14
0.0068701
2.79901e-14
0.0074296
1.0427e-13
3.24567e-15
0.544364
0.00240133
1.16546e-15
1.10644e-14
3.44492e-15
0.0020915
1.11587e-14
6.44759e-15
1.56901e-14
3.32305e-16
0.00646051
5.10716e-16
0.00394125
4.19502e-15
0.00928637
3.15808e-15
0.0534964
3.25146e-15
4.72594e-15
0.0189275
8.29937e-15
5.10785e-16
0.0253442
0.000275875
4.74913e-15
1.11359e-15
0.0345616
0.00984596
0.00568932
0.00070744
0.00156084
0.0160391
0.000881551
0.00474674
3.43337e-14
0.0249333
1.12316e-14
3.44119e-15
1.54315e-15
4.09046e-15
2.97654e-14
0.00901086
7.91328e-14
1.10647e-14
2.36233e-15
2.35958e-06
9.14694e-06
3.23221e-14
0.00231592
5.58672e-14
0.00374427
3.19746e-15
1.04809e-06
0.00314188
2.1674e-13
0.0406143
4.11488e-15
5.22303e-15
7.21544e-15
0.0025915
0.00122497
4.47012e-15
2.25871e-15
0.00216899
9.34665e-15
0.613708
9.95424e-15
0.0904181
1.25732e-14
7.8503e-16
1.07102e-14
1.12513e-15
0.00885416
9.6879e-16
3.82178e-05
2.91449e-15
0.0089924
5.3789e-15
3.12419e-15
5.70437e-12
1.81224e-13
7.35659e-15
6.98704e-14
1.12463e-14
1.28735e-14
0.00396823
0.183294
1.10986e-14
7.55277e-15
0.000365809
1.30821e-15
2.26068e-15
1.23169e-06
0.015895
0.000146895
1.4551e-15
0.000568124
0.00324841
0.00468221
0.00778017
9.95333e-15
2.42284e-14
2.86114e-14
3.57118e-15
3.81604e-15
5.39173e-15
1.0442e-15
7.18979e-15
9.11902e-15
2.22463e-15
2.29297e-14
3.09847e-15
0.069583
6.56864e-16
5.75301e-16
5.2847e-10
1.57266e-14
1.25809e-15
1.02777
5.39373e-15
5.45685e-16
0.00173096
1.53821e-09
1.38849e-14
1.3787e-15
1.05508e-14
0.0210575
3.68164e-16
3.93084e-14
4.35021e-08
7.34209e-16
6.13938e-15
3.6553e-15
3.06468e-14
0.108795
1.75632e-15
0.000170728
6.88831e-15
1.98964e-14
3.70613e-16
3.10446e-15
1.20323e-15
1.9555e-08
3.68652e-08
0.000111006
1.02327e-14
9.48592e-15
6.95843e-14
9.184e-08
1.20482e-15
2.67909e-07
1.18008e-08
1.09206e-14
2.38496e-14
1.14138e-14
6.63163e-09
6.55201e-15
9.68435e-15
1.87966e-09
3.37823e-14
0.0296066
1.37502e-14
0.00627494
2.45893e-14
2.11895e-06
4.01503e-15
0.00139354
1.20732e-15
0.0039205
0.0225716
1.40194e-14
0.00238101
1.1828e-05
6.97025e-15
0.00936367
1.52979e-14
4.58443e-17
2.17866e-15
3.24145e-15
1.84674e-15
1.15866e-15
7.97012e-15
2.10418e-14
0.256284
9.3615e-15
7.98035e-15
8.65331e-15
1.57634e-15
3.19392e-15
0.0300311
0.778719
2.73897e-06
1.16081e-05
6.14411e-16
0.00184035
0.00128181
5.20692e-15
2.64907e-14
3.99632e-14
3.51747e-15
3.33423e-15
7.7095e-15
7.64227e-16
4.402e-15
0.000383557
2.66013e-14
1.54611e-14
0.000180159
2.82065e-06
2.87864e-15
0.0251183
2.88486e-14
1.42289e-14
3.05701e-14
0.161753
7.0619e-14
1.00629e-15
0.0236177
4.71383e-15
1.22307e-15
9.37242e-15
2.49038e-14
0.0510151
2.32293e-16
4.47174e-15
1.63249e-15
7.34644e-15
0.00570364
0.227337
0.0280067
0.0430992
0.00338811
0.000217586
8.14913e-15
1.54396e-14
0.127605
0.0013295
5.43247e-14
7.30763e-08
3.21695e-14
2.82727e-11
1.91175e-14
0.208291
1.69752e-14
2.53148e-14
0.000209993
1.21812e-10
1.93147e-15
0.010289
8.84851e-16
4.01284e-14
0.199134
0.0275232
1.31547e-14
3.16544e-15
3.7721e-15
1.64279e-15
2.06927e-15
8.11464e-14
1.645e-14
1.04823e-14
0.0030981
1.28605e-14
8.57979e-16
9.89056e-15
1.24294e-05
1.753e-15
2.19026e-14
4.64254e-16
1.52235e-15
4.33942e-14
1.73104e-15
0.00304568
9.05028e-15
1.1628e-14
0.00466176
5.39774e-14
0.000369476
0.0045963
4.34742e-15
0.00316892
2.50585e-14
4.00491e-15
9.95522e-15
2.69261e-14
3.1502e-15
3.82891e-14
1.16938e-13
1.55688e-14
0.00215147
8.62631e-14
3.47403e-14
4.18239e-14
1.01373e-14
1.29846e-15
2.91298e-14
0.0373116
6.92647e-15
3.23606e-16
0.338714
2.3128e-15
1.27165e-14
1.73649e-15
0.0011497
1.24066e-15
5.21195e-06
9.61715e-15
5.59674e-05
0.0083457
1.88566e-15
6.75773e-14
0.039132
4.7792e-14
1.04431e-14
0.000111227
5.93974e-07
0.00981026
1.96421e-06
7.26422e-07
1.14948e-07
1.78299e-15
9.76295e-15
0.000936055
0.000136321
0.0174002
0.0116178
3.18472e-05
1.10868e-14
0.00547116
0.00478252
0.0175963
6.05242e-15
0.0118845
0.0164994
0.00261083
0.00126039
0.00100149
0.0033694
0.0189482
0.0389022
0.00729001
0.011039
0.00778688
1.27435e-14
0.00279971
0.00356592
0.000771911
0.00280803
0.0143942
0.0131635
0.0198385
3.40232e-14
0.0100981
3.7922e-14
0.00482149
0.00264927