/*--------------------------------*- C++ -*----------------------------------*\
  =========                 |
  \\      /  F ield         | OpenFOAM: The Open Source CFD Toolbox
   \\    /   O peration     | Website:  https://openfoam.org
    \\  /    A nd           | Version:  10
     \\/     M anipulation  |
\*---------------------------------------------------------------------------*/
FoamFile
{
    format      ascii;
    class       volScalarField;
    location    "10";
    object      T;
}
// * * * * * * * * * * * * * * * * * * * * * * * * * * * * * * * * * * * * * //

dimensions      [0 0 0 1 0 0 0];

internalField   nonuniform List<scalar> 
111485
(
303.15
285.128
301.041
303.15
298.514
283.15
299.022
293.446
296.435
286.267
300.59
296.269
300.281
284.586
300.06
286.765
299.367
298.329
294.18
303.15
303.15
283.15
297.357
288.724
301.602
303.15
293.26
300.663
288.941
303.15
300.823
294.381
303.15
283.15
283.461
283.15
302.335
297.718
283.149
296.701
283.15
289.677
297.119
302.886
303.189
303.15
287.435
288.582
289.71
303.15
303.15
283.15
303.15
299.027
303.15
293.632
287.926
283.15
283.324
295.552
295.955
303.15
302.096
300.313
283.15
284.603
300.484
291.593
302.142
302.541
303.162
301.926
303.15
302.145
303.15
295.427
283.15
293.541
283.15
283.15
283.241
293.38
283.15
303.15
300.381
284.257
283.15
301.606
303.124
299.198
283.377
289.676
300.92
300.424
289.914
303.15
303.15
301.606
303.149
283.428
303.15
286.696
283.15
285.221
285.745
283.15
283.15
293.12
301.474
283.146
298.966
288.104
301.332
301.715
303.15
302.005
303.15
283.15
300.215
303.15
303.15
283.15
283.15
283.15
283.401
303.152
283.15
301.846
303.15
283.178
303.101
301.995
303.15
283.15
283.15
292.616
283.15
294.32
298.896
301.165
303.137
296.916
299.07
284.811
302.301
297.909
283.15
303.15
283.15
297.243
284.985
303.15
303.144
287.399
283.156
293.829
295.745
302.537
283.154
303.15
303.15
292.304
286.282
283.153
283.157
301.242
283.703
283.15
283.153
283.152
283.15
303.15
283.212
283.15
291.59
287.248
283.15
303.15
303.15
283.15
303.15
303.15
297.746
293.622
295.907
289.844
301.413
300.491
283.192
303.15
301.495
303.15
303.15
300.234
286.295
301.456
301.357
295.849
303.15
300.907
284.625
283.161
300.813
297.117
303.15
300.485
288.32
303.15
283.232
300.225
284.854
300.758
303.15
303.15
300.771
283.15
292.932
283.15
300.679
298.779
290.429
303.15
301.772
300.595
283.15
283.15
283.15
289.593
283.158
283.15
303.15
298.726
291.498
289.958
283.15
303.15
303.112
303.15
284.358
300.161
299.338
299.59
299.464
283.15
283.144
298.96
283.15
283.15
288.805
288.431
283.15
301.216
298.978
303.15
283.15
301.099
303.15
303.15
303.123
303.15
288.317
285.891
290.879
303.15
298.438
303.15
303.15
303.15
283.148
298.132
301.039
299.508
291.252
299.561
296.336
283.215
290.443
291.693
283.15
303.15
283.149
292.501
298.825
286.516
303.15
298.096
297.352
298.98
302.965
283.166
297.201
299.445
302.048
283.15
283.632
283.15
283.149
303.15
283.919
290.311
286.325
303.15
283.15
297.693
285.311
303.15
303.15
303.15
284.616
290.352
301.113
284.45
293.107
283.15
283.15
303.15
298.453
303.15
283.832
289.627
283.153
283.15
303.15
303.15
283.15
294.438
289.993
283.15
295.823
283.15
303.15
301.1
297.401
294.045
295.928
283.15
283.15
283.15
296.716
291.11
302.405
283.15
283.15
283.15
290.113
297.046
283.217
290.558
283.15
292.878
299.637
284.211
298.737
285.267
283.15
303.15
283.15
303.15
290.705
296.717
288.049
292.067
283.15
286.37
283.15
303.15
293.911
303.15
301.851
303.15
283.15
292.07
283.15
288.862
284.662
283.15
284.002
298.123
283.15
300.227
284.734
298.935
303.026
291.147
286.045
283.15
303.15
303.146
283.15
301.043
300.885
283.15
283.15
294.763
284.376
298.293
296.92
283.15
295.217
296.163
283.15
302.097
283.904
303.15
303.15
288.318
298.68
283.15
303.15
303.15
303.15
300.773
283.15
303.15
294.016
283.171
286.937
300.032
283.15
283.15
302.645
283.15
302.486
301.471
297.96
289.171
283.15
294.01
303.381
303.15
298.736
292.342
303.15
283.15
283.31
283.15
290.123
286.147
291.745
283.15
292.97
296.639
293.163
303.147
283.15
303.15
303.15
283.169
292.83
283.15
284.352
303.133
283.15
303.15
303.15
303.15
301.87
290.601
286.039
284.223
284.326
283.15
285.745
303.15
300.784
283.15
303.15
303.15
300.699
303.15
303.15
283.151
303.15
283.15
300.722
283.15
283.15
283.15
303.15
283.15
303.15
283.15
283.684
283.15
303.131
301.893
283.765
283.15
303.089
283.15
303.15
284.716
284.689
286.155
297.646
283.15
297.597
297.705
292.392
286.872
285.27
303.15
291.851
283.15
299.936
283.15
296.9
283.15
292.182
298.617
303.151
283.15
286.853
303.15
295.638
299.174
283.15
283.15
283.15
283.15
303.15
293.791
283.15
283.15
283.244
283.15
299.892
283.15
284.823
303.15
283.436
303.121
284.69
292.011
283.15
301.497
283.15
283.15
285.726
283.15
283.262
283.15
299.753
303.15
290.791
303.15
283.15
302.427
284.475
300.154
285.665
300.152
289.501
283.15
300.685
284.557
283.15
283.14
300.402
301.632
283.15
282.411
301.108
303.064
283.115
303.15
287.594
302.207
284.411
285.409
288.256
282.521
283.15
303.15
300.807
303.15
283.568
283.15
283.15
291.894
282.665
303.15
303.119
283.15
286.304
299.664
283.15
283.15
299.679
303.15
283.15
283.15
283.15
286.179
283.15
303.15
284.84
284.26
303.15
299.78
283.15
289.28
303.15
283.15
286.184
283.15
283.15
283.15
285.426
283.15
285.478
292.088
303.15
300.444
283.45
298.791
300.995
283.336
283.465
283.15
289.058
298.538
303.15
302.278
296.058
296.967
284.749
297.533
297.272
303.15
300.277
303.136
283.15
297.241
284.878
283.15
292.502
295.829
284.891
298.86
300.696
292.46
283.15
298.996
283.469
303.15
300.652
302.01
294.219
283.15
286.542
303.15
283.15
283.15
283.15
283.309
283.15
303.15
303.15
283.15
300.48
299.341
303.15
285.652
303.15
303.15
303.15
290.071
283.431
283.15
303.15
283.15
283.15
286.924
292.509
283.15
295.256
283.136
283.15
295.427
302.244
287.834
283.15
283.15
300.326
292.208
283.15
283.15
283.15
294.075
303.15
303.15
283.15
296.352
302.388
283.15
282.486
301.85
286.589
283.15
283.15
287.496
302.978
283.15
283.161
287.48
283.782
288.892
283.15
285.754
300.327
283.15
303.15
283.15
283.15
283.15
283.15
295.783
303.15
283.15
283.15
295.4
291.926
303.15
303.15
289.913
298.502
298.4
303.15
283.15
298.072
303.15
283.857
298.926
298.444
303.15
303.15
303.15
283.15
286.078
283.15
283.15
302.724
303.15
297.902
302.287
283.15
294.174
283.26
296.541
292.033
283.434
289.869
283.15
283.15
296.982
288.173
290.889
283.15
283.15
298.058
295.07
283.15
283.921
284.626
283.474
303.15
303.15
303.15
290.784
283.15
300.125
283.15
284.382
297.65
298.598
292.386
283.15
283.15
303.15
295.494
283.15
283.15
303.106
283.15
283.15
303.15
283.15
299.395
283.15
283.15
283.15
283.15
283.15
303.15
283.15
283.173
298.812
303.15
302.549
283.13
283.399
283.093
285.583
283.15
284.458
290.604
283.4
303.15
283.149
299.81
283.15
300.317
283.155
283.143
286.251
297.588
283.221
291.922
298.052
283.15
283.15
299.141
299.861
283.15
297.439
291.316
297.619
283.15
283.247
283.15
297.926
297.053
283.15
300.152
297.7
283.149
299.855
283.15
295.698
283.144
303.121
283.162
283.16
283.15
283.15
284.471
283.15
302.973
283.6
283.066
303.148
303.149
303.147
283.15
283.15
293.932
303.15
303.162
283.873
283.15
283.15
303.154
303.149
283.15
303.164
283.15
283.15
303.15
303.15
303.15
303.15
283.373
283.15
283.15
283.15
303.158
283.308
283.9
293.588
283.15
283.15
283.338
283.15
283.15
283.15
287.275
293.714
283.15
283.15
283.15
283.15
283.15
283.15
284.013
283.15
303.15
291.644
283.15
303.15
303.15
303.153
303.15
303.15
283.15
303.169
283.15
283.707
283.144
303.152
283.15
303.064
284.435
292.199
303.15
303.129
284.477
303.15
283.15
303.15
283.15
294.16
293.56
284.673
303.148
283.15
293.338
283.15
283.15
303.15
283.15
294.956
283.15
303.15
283.163
298.201
303.15
284.414
283.15
283.592
283.15
283.15
283.15
303.15
285.889
283.484
284.349
283.15
283.15
285.684
283.15
283.15
303.15
284.378
303.164
298.652
303.15
303.128
303.129
283.15
303.131
283.15
283.458
289.222
301.062
283.819
283.166
283.15
283.15
283.15
303.182
283.15
302.916
303.15
293.024
303.15
288.738
283.841
303.15
283.15
303.15
283.15
301.836
303.15
303.15
286.468
300.626
283.15
283.15
283.15
283.15
283.15
283.15
300.877
283.585
303.15
303.15
303.157
303.15
300.27
284.449
283.15
302.143
303.15
301.664
283.15
302.595
283.15
283.148
303.152
283.321
302.157
300.305
283.147
283.15
289.412
303.15
293.505
303.15
283.15
303.15
283.15
283.15
283.15
300.87
302.087
303.15
303.15
303.15
302.92
283.15
303.15
293.012
283.084
303.15
297.56
298.374
296.602
283.384
283.15
283.15
283.15
283.15
294.734
283.15
294.949
283.15
303.065
289.872
283.15
302.877
283.15
283.15
302.758
283.148
302.92
283.15
303.15
283.15
302.418
283.15
303.15
283.15
283.147
283.15
283.172
283.15
283.15
303.15
293.043
301.127
296.192
297.12
303.15
303.118
283.15
283.15
285.732
283.15
283.158
302.862
298.833
302.95
303.15
283.37
283.15
303.15
283.15
302.997
283.334
298.363
283.15
303.15
288.13
303.15
283.15
283.124
295.157
283.147
283.15
283.15
283.149
303.15
283.15
303.142
303.15
303.15
289.991
302.992
303.008
289.068
293.377
283.15
283.15
303.092
289.14
283.15
303.15
284.776
283.15
303.15
283.15
283.15
283.15
297.7
283.15
302.945
283.15
300.553
283.15
283.15
283.15
283.15
283.15
283.15
285.068
283.15
283.15
283.15
283.15
283.15
283.15
292.098
283.15
298.432
302.947
283.15
302.357
283.15
302.543
303.145
292.353
288.833
303.15
292.217
284.809
303.113
303.15
303.139
295.122
288.732
283.15
287.952
283.15
283.15
283.15
283.15
287.592
283.15
283.15
291.7
303.136
285.351
283.15
283.15
302.544
283.15
283.186
303.15
299.937
283.15
283.15
302.834
283.15
303.178
303.15
283.15
289.124
298.073
292.763
285.713
292.692
294.198
283.15
283.15
302.312
290.639
292.876
284.449
283.15
294.44
283.15
303.15
300.785
298.834
283.15
297.473
283.15
292.821
297.321
303.15
283.15
283.15
301.813
283.15
283.15
300.566
296.191
283.199
291.28
283.15
283.15
302.807
300.584
283.15
300.709
283.15
300.568
283.15
283.15
300.866
283.15
283.228
301.648
283.15
283.15
302.462
283.15
287.943
303.15
290.498
303.15
303.15
303.15
301
283.15
283.15
299.619
283.15
302.992
283.15
283.15
303.15
283.151
288.231
283.15
283.15
288.092
288.273
283.15
283.694
283.15
303.15
302.45
283.734
301.614
283.15
283.15
283.15
283.15
283.15
283.15
283.15
283.15
283.15
283.15
283.15
303.15
283.15
283.15
283.15
283.15
283.15
283.15
283.15
283.15
303.15
286.974
283.15
283.15
283.15
294.825
283.15
303.15
302.995
283.15
283.15
294.834
283.15
283.15
301.928
295.309
283.15
303.614
303.585
283.15
301.527
294.083
297.65
301.524
298.245
303.15
283.15
296.455
291.844
301.47
283.15
302.176
302.437
300.933
288.087
287.35
301.118
301.803
301.827
303.15
285.933
297.648
285.56
297.355
283.15
283.15
283.15
303.15
283.15
292.079
298.019
283.15
283.15
283.15
283.15
283.15
303.15
283.15
303.15
292.179
303.124
299.115
302.852
283.15
283.15
285.417
283.168
283.15
283.15
301.752
303.15
283.15
298.256
299.6
297.626
298.75
300.87
303.15
291.096
302.598
303.15
303.15
300.385
303.15
283.15
282.939
295.658
302.953
283.15
303.15
289.7
286.233
297.211
292.278
302.471
303.15
303.138
303.15
303.15
283.15
299.024
283.15
291.875
290.551
299.781
284.783
303.15
301.964
303.15
283.15
303.15
303.15
291.571
299.823
283.15
303.15
303.134
291.854
303.039
299.443
292.943
288.369
293.027
283.15
303.15
283.15
291.381
298.409
303.151
303.15
303.15
303.15
297.587
302.581
283.15
300.06
301.207
284.907
299.61
303.15
303.15
298.786
293.075
283.15
302.908
299.784
302.625
292.052
297.42
298.348
303.15
287.025
298.234
291.463
283.15
289.178
303.15
288.418
301.114
303.15
288.767
301.325
300.165
293.282
283.15
283.16
283.244
301.774
300.974
303.15
288.858
301.52
303.15
283.15
303.15
303.209
298.85
291.031
296.829
303.251
283.149
297.624
303.15
303.15
292.916
303.15
300.349
283.309
301.364
291.581
303.15
283.666
293.344
303.15
283.042
298.784
303.15
300.768
286.306
303.15
303.15
284.01
303.15
283.15
283.15
285.942
299.445
291.318
303.15
285.243
297.584
283.15
298.952
298.986
289.021
303.117
283.15
301.545
299.689
298.952
300.165
288.697
290.885
302.505
303.15
301.597
288.765
303.15
298.963
283.15
283.15
303.15
283.15
303.15
297.508
283.15
300.603
283.66
303.15
283.823
283.15
289.904
303.15
303.145
303.15
294.228
303.006
303.122
299.938
290.459
289.476
290.634
298.517
303.15
299.479
292.266
299.036
303.15
283.893
283.461
299.342
287.23
283.523
303.15
283.15
303.15
285.352
303.15
303.312
284.722
303.321
302.964
303.15
303.15
283.15
300.612
300.697
285.531
303.091
287.033
295.791
301.903
292.611
288.243
302.104
296.219
283.15
283.15
303.15
285.86
289.753
283.15
283.15
303.15
302.011
288.802
303.15
296.504
303.15
283.156
285.213
301.188
303.15
303.15
292.386
303.15
283.307
290.66
283.15
297.26
294.701
296.162
303.15
302.731
283.15
302.69
293.555
303.15
303.15
288.835
283.15
303.15
301.841
284.484
303.15
303.15
283.15
302.365
303.443
289.545
299.784
298.151
303.15
303.158
302.613
303.15
283.15
303.15
303.15
303.15
303.15
303.15
303.15
303.15
283.15
303.15
303.15
283.35
303.15
303.323
303.15
303.16
303.15
303.15
300.983
303.682
303.15
292.115
303.15
303.15
283.15
302.581
303.15
302.178
303.117
283.296
283.15
303.15
302.597
283.149
303.15
303.15
291.459
283.15
292.687
283.15
283.15
283.153
291.314
284.86
303.15
296.72
283.15
303.698
303.134
284.343
302.616
283.15
292.262
303.085
301.701
283.15
303.15
283.15
304.026
284.854
296.945
303.15
303.15
303.15
303.15
303.15
303.15
302.389
302.828
297.683
292.22
303.15
287.243
292.733
285.017
303.207
283.15
286.96
302.775
284.795
283.148
287.498
303.15
283.394
302.933
292.629
302.863
301.918
303.15
302.268
303.15
303.15
298.047
303.15
284.52
303.15
303.15
283.15
303.15
303.15
302.862
303.15
283.303
283.15
283.15
285.896
284.89
300.954
286.187
303.15
294.976
303.15
290.515
303.15
287.243
300.745
301.53
293.421
303.15
303.15
303.15
289.847
283.15
303.15
289.599
283.15
283.15
301.862
303.15
286.197
283.148
283.15
303.15
303.15
300.694
298.294
303.15
293.557
303.04
283.15
298.66
303.15
286.433
288.263
302.165
303.15
296.376
296.813
302.962
301.925
301.686
303.15
303.15
303.147
303.15
283.15
303.15
289.602
300.244
294.398
302.158
283.15
300.44
291.488
298.33
283.608
298.422
289.732
302.194
283.15
283.15
283.15
302.239
283.15
290.517
283.15
301.309
303.161
289.758
298.107
283.15
303.15
301.296
301.273
303.15
283.15
303.15
286.44
301.495
302.985
302.372
298.076
288.458
303.15
303.15
303.15
294.368
286.051
289.923
296
283.981
302.967
303.15
303.15
283.15
283.15
285.456
299.678
303.15
303.15
283.15
303.15
303.15
303.15
300.334
303.15
285.406
292.714
283.15
283.252
293.485
285.712
303.15
303.15
301.931
303.15
299.312
283.146
297.632
303.15
303.15
283.15
303.15
303.15
303.15
305.329
303.15
301.883
301.158
303.15
303.15
301.663
303.15
283.15
287.296
303.11
303.15
303.15
303.15
298.048
303.15
303.15
302.511
302.515
301.824
303.15
283.15
303.15
302.082
302.539
301.573
302.561
283.15
300.74
287.586
297.514
283.15
303.15
303.15
303.15
303.15
294.464
287.594
299.712
303.15
303.15
303.15
303.15
283.15
303.148
284.824
285.186
283.15
303.15
303.15
283.147
299.644
295.052
283.15
303.15
303.15
303.15
303.15
289.645
289.776
303.15
303.15
302.423
303.15
301.488
283.972
292.012
303.15
283.15
301.21
303.124
303.15
303.227
301.37
286.947
303.15
303.15
303.15
303.15
293.364
284.183
303.15
302.714
298.189
289.746
303.15
303.15
303.15
303.15
299.633
303.151
303.15
303.15
298.379
302.614
288.452
303.15
303.15
297.888
303.15
303.15
303.15
303.15
288.869
303.15
283.15
283.15
296.062
291.195
303.15
303.15
303.15
297.106
303.146
303.15
303.15
303.15
303.15
303.424
300.929
303.15
287.403
302.667
299.487
303.15
303.15
303.15
303.15
283.15
285.74
303.15
302.835
283.15
302.213
303.15
303.137
303.15
283.15
301.981
285.893
283.15
302.849
303.15
302.443
283.15
303.15
303.15
303.151
303.15
283.278
303.15
290.889
283.15
283.15
303.15
303.15
298.947
302.393
283.15
302.465
283.15
284.144
288.058
302.712
283.15
303.155
302.991
303.135
284.439
283.156
302.992
283.15
283.15
283.156
302.115
302.323
303.15
283.15
283.15
295.735
303.15
283.15
303.15
303.15
303.15
303.105
303.051
302.942
302.467
303.15
302.926
303.15
284.828
303.15
303.15
283.15
303.15
303.112
303.15
283.15
303.15
288.343
303.15
303.15
303.185
283.15
303.011
302.262
297.097
303.15
289.835
295.16
283.964
290.421
283.15
283.15
287.228
284.347
283.15
303.765
283.15
286.421
303.15
283.15
303.154
303.15
303.15
303.021
303.155
303.15
283.15
303.139
303.15
283.15
283.103
298.82
302.716
303.15
301.872
303.15
285.717
303.152
301.222
303.15
303.15
301.084
303.15
303.15
303.15
287.724
303.15
285.167
303.15
303.147
303.15
283.15
283.15
303.15
303.15
303.15
288.759
302.568
303.15
303.15
288.709
286.575
291.468
303.15
302.713
287.697
287.583
303.15
303.15
287.89
283.15
292.057
303.15
303.152
303.149
303.15
300.597
283.15
302.347
283.15
303.15
303.15
303.15
303.15
303.15
284.35
302.266
291.203
303.15
303.15
290.728
303.15
303.15
303.15
303.15
303.15
300.233
303.15
303.15
283.15
299.552
303.15
283.15
303.15
301.417
283.15
300.04
290.812
302.697
300.102
299.534
303.15
303.15
303.15
300.916
288.58
283.15
303.15
300.388
303.15
303.15
292.145
303.15
287.539
303.15
297.944
284.361
303.15
283.15
303.15
303.15
303.15
285.322
303.15
300.549
303.15
303.15
299.785
283.15
284.756
303.15
303.15
288.211
301.577
296.58
303.15
303.15
303.15
301.593
292.378
303.15
283.15
303.15
300.742
303.15
284.779
296.462
303.15
303.15
301.191
303.15
303.15
283.15
303.15
283.15
294.749
303.15
283.15
303.15
303.15
303.15
303.15
303.15
303.15
283.15
301.544
283.15
302.105
303.15
303.15
296.226
300.541
303.15
283.15
303.15
300.938
283.15
303.15
303.15
303.15
300.767
303.15
297.819
303.15
285.907
283.15
286.758
303.15
303.15
298.603
283.15
303.15
287.935
283.251
303.15
303.15
285.142
283.865
300.901
301.768
301.235
293.236
301.773
283.861
303.15
297.864
283.15
283.15
303.15
303.15
303.15
301.266
303.15
303.15
303.15
303.132
283.17
283.15
283.578
303.15
302.034
283.15
303.143
296.209
283.15
294.651
303.15
303.15
283.15
299.958
283.939
303.15
283.15
299.987
303.15
297.837
303.15
295.419
303.15
283.15
303.15
283.15
299.478
283.15
283.23
283.15
286.22
303.15
303.15
283.15
283.15
303.15
303.15
303.15
303.15
284.886
284.837
283.15
303.15
283.236
283.15
283.15
303.154
290.004
283.555
283.15
301.544
284.931
300.503
288.287
303.15
303.15
303.15
303.15
283.15
283.15
283.15
303.15
283.15
283.15
303.15
283.15
297.354
283.15
303.15
283.15
303.15
303.15
283.438
283.15
303.15
301.977
303.149
303.15
303.15
303.15
288.755
283.15
303.15
303.149
283.15
303.15
303.15
303.15
295.392
283.15
283.185
303.15
303.15
303.15
303.15
303.15
303.149
303.147
284.135
303.15
283.15
303.15
303.15
303.15
303.148
303.149
283.15
283.15
283.15
303.15
303.15
283.15
303.149
283.15
287.743
283.15
301.84
283.15
303.154
303.15
284.617
283.15
284.462
297.502
303.15
284.698
303.172
303.15
297.512
283.15
303.15
303.15
303.15
303.15
283.15
303.15
303.15
299.244
283.15
303.15
303.15
303.15
303.15
292.372
290.775
303.169
283.165
303.15
301.856
302.352
303.15
283.15
283.15
303.15
303.15
303.15
283.15
283.15
283.824
303.15
303.15
303.195
303.151
283.15
288.976
303.15
283.15
303.15
288.143
303.15
283.15
302.132
283.15
283.15
283.15
303.15
299.709
303.15
303.15
303.15
283.15
284.512
293.694
295.346
289.671
303.122
303.022
283.15
283.15
301.134
283.699
283.15
303.149
303.15
303.15
283.15
294.664
303.15
283.15
302.984
303.15
303.15
283.804
303.15
303.15
288.491
289.667
303.15
283.15
303.15
283.15
303.15
303.15
303.15
303.15
283.955
303.15
303.15
303.15
302.935
303.15
303.15
283.15
283.15
283.15
283.15
302.947
283.15
283.15
301.007
303.15
284.776
284.935
303.15
301.173
303.15
283.15
303.15
283.15
283.15
303.15
303.15
303.15
302.684
303.15
303.15
303.15
283.15
303.15
283.15
286.414
303.15
303.15
291.661
303.15
283.15
283.15
302.442
303.15
303.148
283.15
303.196
286.729
283.15
283.15
299.275
283.15
283.15
303.059
303.161
293.402
303.166
303.151
303.152
283.15
283.15
302.656
283.461
285.891
300.922
283.158
283.15
291.099
301.616
301.525
283.15
300.293
290.74
300.182
302.242
302.769
284.711
295.602
299.306
286.288
293.456
300.182
303.15
298.033
297.688
302.793
283.685
292.463
301.211
287.37
303.15
301.083
303.15
300.75
301.536
283.654
285.041
303.15
283.15
302.308
301.717
283.145
303.172
288.59
302.697
301.912
300.878
303.15
303.226
301.195
295.158
300.47
289.102
302.925
301.686
302.216
302.306
284.249
302.521
301.632
283.183
303.15
302.903
303.15
303.15
302.117
302.03
294.43
303.15
284.724
292.33
292.38
301.042
303.15
284.04
285.239
284.418
303.15
298.889
303.15
296.454
295.441
300.785
303.143
303.15
303.15
301.98
301.3
302.793
303.15
292.664
302.762
290.099
283.15
298.414
294.077
303.15
300.552
283.15
283.205
283.15
302.591
303.103
303.15
302.99
298.474
283.148
300.581
302.257
295.392
283.542
295.928
297.154
283.47
303.134
284.794
296.395
283.324
296.988
300.547
300.315
300.428
302.01
289.985
301.614
303.15
302.743
302.676
302.683
296.587
302.904
283.15
302.052
293.489
303.15
283.436
286.874
301.261
302.604
290.581
284.856
287.744
302.631
296.464
303.15
303.15
295.067
283.15
292.709
283.432
303.15
290.61
290.321
283.927
303.15
297.341
298.563
284.268
301.296
294.236
290.216
300.566
303.115
303.15
303.15
283.558
302.634
283.349
285.87
303.15
303.027
303.041
303.15
285.438
300.878
297.963
283.253
299.608
302.384
300.554
287.008
283.15
303.106
301.835
283.757
283.142
303.15
303.078
303.15
303.15
284.216
302.559
296.454
283.044
283.152
303.15
283.15
302.963
303.048
302.528
301.46
303.15
283.15
283.15
301.865
301.92
283.221
295.958
303.15
303.15
301.666
285.571
283.264
301.728
301.827
301.762
284.411
303.15
283.15
298.554
297.827
303.15
302.713
302.105
284.834
285.035
302.139
303.063
303.15
298.245
284.441
283.15
303.15
300.624
301.275
302.043
289.721
302.1
285.735
300.238
300.334
290.38
297.658
303.15
303.15
300.992
284.507
302.116
283.151
300.559
301.738
283.647
288.319
302.437
283.15
283.15
283.029
303.15
303.15
300.028
298.981
302.301
283.147
283.15
283.967
283.151
283.15
283.151
303.085
300.977
299.245
296.003
283.372
303.098
300.207
303.15
283.15
302.58
289.294
300.865
292.756
283.521
303.063
283.148
283.15
302.842
301.266
302.624
283.156
291.361
284.927
303.15
284.275
301.076
283.15
283.31
285.001
284.298
283.15
283.15
301.686
283.15
289.499
302.548
302.714
301.811
283.484
298.624
290.36
283.15
303.322
292.145
283.15
283.15
283.15
303.15
301.241
302.437
299.226
301.503
299.963
288.958
283.155
291.042
290.208
303.065
291.212
300.086
292.122
283.15
286.346
301.123
301.609
283.15
284.024
299.731
283.15
303.15
283.189
301.314
303.15
284.024
302.285
303.024
303.15
283.15
292.88
303.153
301.735
283.15
283.15
283.15
302.208
297.708
303.142
302.214
303.166
303.15
288.476
303.166
290.483
300.29
300.25
296.685
283.157
301.737
283.15
290.654
301.463
289.573
290.531
299.059
300.776
301.639
287.222
291.198
285.072
283.173
302.238
286.152
283.149
283.144
300.263
283.077
300.366
287.088
296.133
299.525
289.328
299.373
283.12
299.21
283.15
290.044
289.472
298.712
283.335
283.15
300.608
283.15
302.805
283.15
303.15
286.49
286.502
283.15
299.09
298.629
287.101
303.15
303.15
301.752
289.83
303.014
283.75
301.619
287.205
303.147
284.213
288.266
303.15
301.47
283.15
283.15
287.612
287.095
283.145
285.311
301.542
286.3
301.263
303.15
285.204
301.784
291.271
303.15
303.15
301.658
302.075
303.15
293.093
294.354
283.677
296.52
286.859
290.117
303.15
302.858
297.142
285.069
283.15
287.772
291.939
299.702
283.164
283.774
282.929
301.984
303.126
283.151
303.134
303.15
300.621
293.143
298.931
293.984
283.15
292.003
296.096
285.622
283.214
292.099
283.15
300.329
303.164
292.668
284.127
303.144
291.916
298.699
288.358
300.402
291.386
287.426
283.15
303.142
285.354
290.029
293.571
283.15
283.15
283.15
303.141
283.15
283.136
286.472
303.15
283.15
303.166
283.174
291.158
289.223
303.456
302.919
289.978
303.15
297.101
303.174
302.046
287.363
283.15
293.033
303.145
303.096
286.247
283.15
283.15
283.475
286.105
303.057
303.144
287.554
289.535
283.496
283.163
289.914
293.272
303.15
283.15
303.101
303.15
302.361
285.035
302.356
303.095
284.091
283.798
284.083
302.869
302.196
297.457
294.101
303.073
291.364
291.084
303.15
303.099
302.611
285.488
283.389
303.15
285.992
283.396
302.941
301.717
302.202
283.15
300.41
301.895
303.15
302.177
285.416
303.15
297.999
303.15
283.15
300.767
302.691
286.369
302.515
283.15
285.231
303.01
283.15
302.323
285.373
294.951
284.352
303.15
303.025
302.891
286.526
283.15
287.185
284.289
289.85
285.792
302.281
303.15
283.15
283.15
293.192
283.15
301.082
302.191
290.408
283.15
294.092
283.15
303.15
283.15
300.118
298.671
283.151
285.318
301.758
303.085
303.156
292.023
294.351
301.249
283.215
301.831
283.145
303.15
303.143
299.324
283.15
301.303
294.907
303.15
300.977
287.341
301.98
284.931
288.257
283.15
302.249
287.776
298.513
303.084
283.15
303.15
291.729
302.19
283.076
283.147
286.864
298.444
303.149
284.554
301.074
301.046
301.293
303.153
299.966
287.693
284.945
301.629
299.959
283.738
283.1
303.159
303.149
303.15
297.463
283.162
283.15
303.15
303.149
289.985
298.961
300.321
287.823
302.807
303.15
286.459
301.626
303.15
300.986
283.813
301.504
303.15
284.593
301.415
295.578
302.776
303.15
303.15
285.21
295.201
296.491
287.471
303.15
303.15
283.15
287.252
302.413
296.28
303.15
285.619
303.15
303.15
300.493
288.78
283.15
295.662
295.991
299.124
283.15
303.15
292.724
287.249
303.15
298.053
300.582
300.486
303.15
303.15
303.15
300.298
298.429
302.802
299.967
283.15
292.931
287.725
290.742
300.625
303.15
303.15
300.825
303.098
286.626
296.203
303.15
303.148
283.15
286.484
299.02
285.608
303.15
303.15
283.349
303.126
303.15
303.15
283.15
290.549
303.15
303.15
284.616
299.341
283.15
303.15
284.627
301.369
300.225
287.041
294.998
303.15
283.511
303.15
303.15
283.299
300.596
290.443
300.449
303.15
303.132
302.188
292.822
299.823
301.371
284.457
283.465
300.891
298.481
303.15
302.767
284.166
299.813
301.423
287.771
303.15
297.461
301.451
301.535
301.576
292.932
303.15
283.15
299.218
283.15
283.15
287.762
283.15
284.025
283.15
283.15
283.15
283.15
302.761
288.161
302.71
283.15
295.768
290.962
284.768
283.15
303.15
302.686
301.752
303.176
302.644
283.15
294.939
300.321
290.205
283.15
283.15
299.841
285.94
283.15
283.15
303.149
290.652
283.15
287.191
303.149
303.152
284.32
283.15
288.299
292.745
300.825
294.647
302.959
285.683
302.522
295.292
286.297
283.15
283.554
291.677
303.084
289.184
302.661
283.15
292.401
287.76
301.044
301.304
284.948
303.108
284.949
297.159
302.993
303.147
285.143
303.145
303.008
293.341
302.695
283.15
303.15
303.15
294.821
291.119
283.155
301.121
284.68
284.157
284.644
303.145
288.361
300.515
283.15
283.15
302.51
303.15
294.6
302.901
303.181
299.852
303.219
302.891
283.15
301.338
302.887
283.15
303.15
301.338
303.15
284.347
298.815
283.164
291.543
283.15
287.587
303.019
299.824
283.15
303.028
290.931
301.252
303.128
303.08
283.15
283.15
301.958
302.025
283.814
302.826
302.428
302.401
303.141
283.15
293.8
283.15
302.803
287.904
302.989
303.15
283.15
302.832
285.183
291.499
302.076
283.15
302.591
302.02
301.597
302.494
303.053
303.206
303.012
303.15
283.15
301.528
297.926
303.089
303.15
289.969
285.04
303.15
283.15
285.359
303.183
303.164
302.921
301.159
284.281
303.098
290.774
294.259
303.148
289.107
303.163
283.15
289.911
283.15
300.011
298.217
284.821
288.235
299.638
296.711
295.32
299.212
293.801
303.153
293.921
296.469
283.16
299.411
293.889
303.15
298.993
299.181
303.15
291.274
303.171
301.683
303.15
286.931
286.016
302.801
289.676
283.15
283.15
300.363
301.181
283.739
283.15
303.15
300.259
302.334
300.681
299.927
302.79
292.595
289.648
286.683
292.507
284.302
290.424
283.311
295.742
290.438
293.935
287.172
284.302
303.162
283.278
303.147
285.593
300.733
283.151
300.434
298.432
288.742
302.118
285.435
299.109
283.15
302.954
283.155
283.114
287.797
299.678
303.15
300.37
303.023
299.951
302.765
303.15
301.288
284.954
295.005
302.06
303.149
283.703
283.15
290.391
285.26
285.751
303.137
303.149
283.15
283.15
283.176
303.15
293.442
303.15
303.151
294.579
303.443
303.15
300.449
303.15
303.15
293.639
290.62
303.15
289.836
302.078
289.563
303.15
303.15
286.004
283.341
290.355
303.221
303.15
303.146
285.469
283.259
283.15
289.021
287.626
303.15
284.318
303.15
303.15
303.132
287.332
303.15
303.147
283.279
303.152
302.665
287.92
283.152
283.603
297.411
290.749
303.15
285.946
284.46
301.354
287.154
302.21
290.596
293.897
303.15
303.15
284.012
303.15
302.953
295.915
302.953
302.746
287.214
283.15
285.365
283.22
297.206
302.612
285.392
303.15
283.814
286.713
303.127
283.176
303.15
286.46
283.15
300.154
303.15
299.748
299.924
283.305
283.363
302.337
290.92
301.395
303.15
301.414
301.763
303.15
303.15
298.375
293.524
283.15
288.862
303.15
295.262
283.364
303.15
296.948
298.778
288.997
303.15
302.758
294.309
295.443
284.464
303.161
298.755
296.208
284
303.126
302.805
287.423
298.512
289.841
290.844
289.74
283.15
302.956
303.152
303.15
303.172
293.203
296.393
302.981
301.308
303.15
284.455
303.15
303.045
302.86
303.15
293.635
296.261
303.15
285.4
303.097
303.15
303.092
303.157
286.072
293.393
291.139
288.402
293.43
303.15
301.251
291.556
295.39
293.414
303.141
303.15
300.573
303.188
284.252
303.189
303.15
303.15
303.143
303.15
284.965
303.15
284.243
303.146
303.15
290.28
303.144
292.502
295.551
303.134
295.407
285.99
283.433
303.126
302.944
284.718
283.15
297.149
303.15
285.53
302.912
302.063
303.025
298.491
287.085
303.15
298.711
289.906
299.353
283.15
283.634
303.15
303.145
303.19
294.096
303.15
292.461
289.36
303.194
303.15
284.823
298.827
293.287
299.643
302.485
301.614
300.425
303.15
284.724
297.001
302.38
285.656
298.383
292.313
284.488
291.732
303.15
286.714
291.864
290.131
299.481
303.15
286.432
284.101
303.15
302.447
288.137
302.116
283.15
303.15
299.88
301.714
289.053
302.003
301.953
301.837
303.15
289.409
285.135
301.977
302.25
297.197
303.15
283.201
303.15
302.003
303.15
302.819
303.15
291.723
303.15
296.643
283.15
289.588
303.15
283.15
292.214
301.483
300.462
289.205
300.544
303.15
302.5
303.15
302.379
285.244
303.15
300.448
290.439
303.15
300.846
303.15
303.15
293.208
283.15
285.536
293.298
300.956
303.15
291.233
293.931
288.244
289.655
288.103
299.244
300.291
300.829
287.428