/*--------------------------------*- C++ -*----------------------------------*\
  =========                 |
  \\      /  F ield         | OpenFOAM: The Open Source CFD Toolbox
   \\    /   O peration     | Website:  https://openfoam.org
    \\  /    A nd           | Version:  10
     \\/     M anipulation  |
\*---------------------------------------------------------------------------*/
FoamFile
{
    format      ascii;
    class       volVectorField;
    location    "10";
    object      U;
}
// * * * * * * * * * * * * * * * * * * * * * * * * * * * * * * * * * * * * * //

dimensions      [0 1 -1 0 0 0 0];

internalField   nonuniform List<vector> 
111485
(
(1.42385 -1.42364 0.00056015)
(4.14326 -0.00957847 -0.0242622)
(4.08014 0.0105441 0.0123863)
(1.42326 -1.42361 9.16907e-05)
(4.23672 0.019675 0.000701864)
(1.48133 1.47991 -4.7052e-05)
(4.16232 0.0119109 0.00248032)
(4.28515 -0.0116811 0.00588512)
(4.16201 -0.00281123 0.00248283)
(4.26771 -0.045053 -0.0184263)
(4.10347 0.0097808 0.0116157)
(4.29086 -0.0105608 0.0196571)
(4.0426 0.00324918 0.00955498)
(4.09458 -0.00904736 -0.0292033)
(4.14 0.0165309 0.00924429)
(4.2349 -0.0277745 -0.021786)
(4.18061 -0.00387083 0.00641609)
(1.47199 -0.116014 0.219703)
(4.24109 0.01224 -0.00847107)
(1.42025 -1.4187 5.41665e-05)
(1.42174 -1.42139 -0.00143901)
(1.48241 1.48236 5.04573e-05)
(4.19728 0.0140841 -0.000474438)
(4.27367 -0.0269946 -0.00901813)
(4.20089 0.0147704 -0.0035684)
(1.43344 -1.42827 -0.00191416)
(4.30723 -0.0181939 0.0203608)
(4.09115 -0.00702272 0.00077727)
(4.25695 0.00605659 -0.0108505)
(1.42185 -1.42145 -0.000252018)
(4.30579 0.068502 -0.0176247)
(4.24886 -0.00853707 0.00120421)
(1.41699 -1.41948 0.00199005)
(1.48206 1.48518 -0.00332589)
(1.48966 0.617229 0.237002)
(1.49126 1.50146 -0.0218265)
(4.28353 0.067974 -0.0273382)
(4.14589 0.00918621 0.0375696)
(4.25072 1.28923 0.07214)
(4.24995 0.0198979 0.00142744)
(1.46502 1.47851 -0.0106556)
(4.28785 0.00714272 -0.0258026)
(4.24995 0.0210019 0.00739896)
(4.08878 -0.0242039 0.00106175)
(4.28079 -0.0745301 -0.0395199)
(1.42447 -1.41283 0.00510207)
(4.28598 -0.01844 0.017783)
(4.26722 -0.0255655 -0.00807318)
(4.28983 0.000819133 -0.0212605)
(1.41384 -1.39564 0.00765398)
(1.4114 -1.39796 0.00839269)
(1.68529 1.41641 0.0254489)
(1.40589 -1.40125 0.00476208)
(4.28267 0.0192964 -0.0342886)
(1.40274 -1.39769 0.000892299)
(4.22948 0.0105768 -0.00480462)
(4.23509 -0.0177227 -0.00922164)
(1.48354 1.48093 0.000963927)
(3.87145 -0.0080634 -0.0667273)
(4.25496 0.0177822 -0.00213081)
(4.25358 0.0193691 -0.000798404)
(1.41905 -1.42214 0.00209231)
(3.96697 0.0041393 0.0257328)
(4.30663 -0.0109356 0.03187)
(1.53486 1.39091 0.00356313)
(3.89542 0.00829919 -0.00795892)
(2.99234 -0.242395 0.105598)
(4.26477 -0.0140985 0.00550905)
(3.86252 0.00101191 0.0142932)
(3.66498 -0.00646155 0.00231606)
(4.11598 0.0356136 -0.0145105)
(3.82389 -0.0104509 0.0201582)
(1.53956 -1.38881 -0.0306393)
(3.92339 0.00621306 0.0297861)
(1.42313 -1.42256 -0.000191449)
(4.24897 -0.00945249 0.00908903)
(1.48238 1.48256 -0.000318152)
(4.28137 -0.00896967 0.0219855)
(1.48186 1.48106 0.000154464)
(1.34205 1.311 -0.0437775)
(4.13695 -0.0614487 0.0410949)
(4.27972 0.0167103 0.00279813)
(1.47992 1.47852 0.000435498)
(1.42323 -1.42296 0.000729998)
(4.01903 -0.000632528 0.0086029)
(3.86297 0.0104322 -0.016313)
(3.30588 2.14516 -0.576368)
(4.23117 0.0511682 0.00480524)
(4.078 0.103994 0.0885176)
(4.13902 0.00800465 0.0106442)
(4.36101 0.0845057 -0.0543062)
(4.23355 -0.00707747 0.00680942)
(3.97149 -0.0068259 0.0134385)
(4.05609 -0.00387832 0.00496056)
(4.29058 0.0128487 -0.023423)
(1.42335 -1.42267 -0.00021017)
(1.4227 -1.42228 0.000888124)
(4.22852 0.0476082 0.0154105)
(4.3611 -0.859841 0.0607598)
(3.96316 0.0135026 0.0252377)
(1.42355 -1.42323 0.000560901)
(4.24454 -0.0224086 0.00180144)
(1.49002 1.49275 0.00819548)
(4.21331 0.000606031 -0.00280656)
(4.18689 -0.0208698 -0.0257898)
(1.45416 1.30113 -0.0305397)
(1.48247 1.48221 -0.000243724)
(4.25545 -0.0115868 -0.00103284)
(3.92965 -0.0215864 0.00444749)
(3.76577 -0.111001 -0.116066)
(4.01874 -0.00291415 0.00788661)
(4.22309 0.00623539 -0.00258643)
(3.94058 -0.00239393 0.0149154)
(3.87946 -0.0191145 0.00835077)
(1.43625 -1.42894 0.000520244)
(3.75579 -0.0049377 0.0108861)
(1.42844 -1.42382 -0.00192029)
(1.49018 1.48398 0.00605347)
(4.15642 0.0158442 0.012654)
(1.42317 -1.42223 0.000578527)
(1.43417 -1.42834 -0.00135179)
(1.95287 1.53587 0.0930993)
(1.47248 1.47913 -0.00231502)
(1.48681 1.48315 -0.00343214)
(4.06217 -0.00911592 0.0182074)
(1.14259 -0.805823 -0.213466)
(1.86243 1.60197 0.0563015)
(3.79116 -0.00121562 0.0170805)
(1.42316 -1.42246 -0.000533032)
(4.26571 0.316663 -0.115168)
(4.26692 0.0789088 -0.0427174)
(4.2208 0.0484449 0.0160985)
(1.41933 -1.41566 -0.00669551)
(1.91219 1.66459 0.168503)
(1.78664 1.59378 0.0752026)
(4.25585 0.0130968 -0.00728249)
(1.48315 1.48327 -0.000388363)
(4.23112 0.00975914 0.000662503)
(4.20456 0.0124379 0.0083758)
(4.14097 0.0180164 0.017001)
(3.26185 0.000471818 0.013624)
(4.24558 0.022466 0.00443802)
(4.20898 0.0261231 0.0148924)
(4.00586 0.00305752 -0.0164467)
(4.18438 -0.00787634 0.00363443)
(4.13664 -0.00139631 0.00748732)
(1.48315 1.48365 -0.000368849)
(1.42301 -1.4232 0.000163386)
(1.48017 1.48089 0.00273232)
(4.23395 0.0176236 0.00158445)
(4.00817 0.00588459 -0.01498)
(1.4218 -1.42071 0.000560042)
(2.77885 -0.0154759 0.0272571)
(4.13184 0.0188235 0.00924772)
(4.52707 0.177052 0.0805687)
(4.25548 0.0119176 -0.00872469)
(4.23382 0.0131902 -0.00305474)
(3.94383 0.00114965 -0.00610785)
(4.5652 0.219218 0.0549211)
(1.4158 -1.42896 0.00574069)
(1.42118 -1.42265 0.00119221)
(4.24537 0.0117394 -0.00927194)
(4.16195 -0.0137362 -0.0144534)
(4.5943 0.24778 0.0594499)
(4.52967 0.217041 0.0819678)
(3.9657 0.00714594 0.0201061)
(4.24117 0.0504345 -0.0188164)
(1.46528 1.47751 0.000340541)
(4.65038 0.30682 0.0735322)
(4.43201 0.217356 0.0665723)
(1.48199 1.48259 0.000553072)
(1.42157 -1.42132 -3.35291e-05)
(3.42747 0.00440344 -0.0249964)
(1.48283 1.48357 0.000107932)
(4.21259 -0.00841529 -0.00182171)
(4.0599 0.00216787 -0.00907556)
(1.48299 1.44839 -0.00718892)
(1.53565 -1.40976 0.0131)
(1.42644 -1.41912 -0.00218682)
(1.45978 1.37836 -0.013783)
(1.54581 -1.42419 0.0241796)
(1.42127 -1.42237 0.000987374)
(4.22847 0.0163831 0.00392192)
(4.22498 0.0107799 -0.00811509)
(4.21153 0.0120955 -0.00425575)
(4.17376 -0.0130072 0.0160568)
(4.01522 -0.00914784 0.00311933)
(4.03327 0.008063 0.0131)
(3.58588 0.0445721 0.00435895)
(1.42251 -1.41758 5.37212e-05)
(3.92223 0.000370744 0.00401256)
(1.53221 -1.42339 0.0141012)
(1.43498 -1.43728 -0.000864598)
(4.0705 0.00892432 0.013738)
(4.26949 -0.0508401 -0.0180081)
(4.22587 0.00899471 -0.0189137)
(4.06665 -0.00396036 0.0050598)
(4.1225 -0.00306804 0.00477231)
(1.42052 -1.41787 0.00324641)
(4.05481 -0.0169143 0.00669888)
(4.04604 -0.00513836 -0.0237514)
(2.82438 0.895205 0.119191)
(4.14278 -0.0319587 0.00295442)
(4.2 -0.0063187 0.00357304)
(1.42819 -1.42055 -0.00230318)
(4.05414 0.0112187 0.0139158)
(4.23917 0.00948269 -0.000781619)
(1.55754 -1.40789 0.00527254)
(4.07591 0.00963646 0.0145356)
(4.27404 -0.00727945 0.0211263)
(4.0059 0.00319853 -0.0173268)
(4.04398 0.0101004 0.017877)
(1.54354 -1.42832 0.0191957)
(1.42216 -1.42246 -0.000387166)
(4.04474 0.00998617 0.0179479)
(2.64225 1.6559 -0.163782)
(4.32163 0.0182954 -0.0407806)
(1.48238 1.48295 -0.00106725)
(4.06786 0.00739711 0.015306)
(4.05531 0.00586181 0.00223954)
(4.29699 -0.0135242 0.026497)
(1.42462 -1.42383 0.000690611)
(3.80682 -0.000103875 0.0100636)
(4.25694 0.060276 0.0298545)
(2.33431 1.56634 -0.171207)
(1.48298 1.48284 -0.000964824)
(1.48202 1.48257 0.00043658)
(4.35069 -0.0255958 0.039697)
(4.06146 0.0942091 -0.0106462)
(1.56132 1.3178 -0.0297928)
(1.76541 -1.36916 0.0534697)
(4.06708 0.00263039 0.00608516)
(4.19357 0.00964662 0.00134812)
(4.25879 0.0106764 0.00249259)
(1.54033 1.34165 -0.0388154)
(1.50307 -1.39138 -0.00547608)
(4.0976 0.0476492 -0.0552404)
(1.42306 -1.42267 0.000837921)
(3.88645 0.00473594 -0.0229667)
(4.02696 0.00389568 0.0140658)
(4.06816 0.00250375 0.00832013)
(4.07721 0.010294 0.00931762)
(4.09055 0.00958866 0.0125048)
(1.47846 1.47858 0.00486797)
(3.10022 -0.0091852 -0.117588)
(4.15177 0.00951019 0.0154703)
(1.47571 1.47876 -0.00222234)
(1.48186 1.48243 -0.000381925)
(4.3214 -0.0498048 -0.00416153)
(4.22228 0.018031 -0.00687836)
(1.51987 1.29644 -0.0401771)
(3.85872 -0.00238821 0.0102932)
(4.13579 0.0119002 0.0114519)
(1.42351 -1.42282 -0.000554728)
(1.87837 1.76943 -0.0117812)
(4.25704 0.0380404 -0.0168784)
(1.42691 -1.40921 0.000725744)
(1.57709 -1.12113 -0.0268044)
(2.1748 -0.765232 -0.0763583)
(1.42402 -1.42031 -0.000341635)
(4.15281 -0.00680626 -0.0071808)
(4.04437 -0.00805192 -0.00868286)
(4.20965 0.0066302 -0.0118389)
(1.42251 -1.42266 -0.0001625)
(4.17289 0.0124698 0.00972608)
(1.42346 -1.42369 -4.10501e-05)
(1.42335 -1.42409 0.000323678)
(1.42094 -1.41566 0.00245504)
(2.87279 0.0103749 -0.0441877)
(4.27554 -0.0192043 0.0229844)
(4.08528 0.0148066 0.0202213)
(4.1507 0.0130114 0.010248)
(4.30695 -0.0246474 -0.00100672)
(4.12801 0.00953804 0.00939915)
(4.23914 0.0155178 0.00560828)
(4.26483 0.0692934 -0.0068474)
(4.16401 0.00861855 -0.00048038)
(4.20348 0.00913389 0.00120985)
(1.50671 1.482 -0.00110265)
(1.42119 -1.4212 -0.00158005)
(2.62616 0.016245 -0.0635791)
(4.22499 -0.00907963 0.00152529)
(4.27898 0.0329037 0.0367225)
(4.03011 -0.00519989 -0.00662841)
(1.42323 -1.42236 0.000695847)
(4.21991 0.0134487 0.00801004)
(4.24278 0.0213556 0.0101592)
(4.14019 0.00771414 0.00654885)
(3.66147 -0.00348212 -0.0182662)
(3.82639 -0.0426478 -0.0940311)
(4.20257 0.0140589 0.0020864)
(4.13218 0.0105707 0.00906116)
(4.22131 0.0317172 -0.0196053)
(1.48343 1.48373 0.000589578)
(3.87398 0.0193672 -0.000473117)
(1.48201 1.48265 -0.000555382)
(1.20803 0.921662 -0.191743)
(1.60124 -1.02957 -0.102118)
(4.37885 -0.039587 0.0547807)
(4.30767 -0.0242202 -0.000695805)
(4.20514 -0.00145074 -0.000199991)
(1.42528 -1.42173 -0.000653931)
(1.47785 1.48616 0.0118969)
(4.21205 0.0142499 0.00805283)
(4.03906 0.00657398 -0.00623312)
(1.42255 -1.42167 -1.54265e-05)
(1.42372 -1.42297 0.00148281)
(1.39369 -1.4011 0.0105415)
(4.01556 0.00523217 -0.00315703)
(4.18599 0.00435698 -0.00488249)
(4.00147 0.000725609 0.0138674)
(3.8774 0.00665137 -0.0207896)
(4.26878 0.00961712 -0.00958977)
(1.7001 1.46104 0.0382086)
(1.4797 1.4832 0.00289761)
(1.42334 -1.42121 -0.000737666)
(4.19881 0.0150011 0.0109943)
(2.72385 -2.31082 -0.165737)
(4.00637 -0.00443345 0.00406227)
(4.34943 -0.029777 0.0923069)
(3.51117 0.00213509 -0.0708566)
(1.48234 1.48295 -8.33863e-05)
(1.42188 -1.42313 0.000697329)
(1.42318 -1.424 -0.000813722)
(1.8707 1.56971 0.0959745)
(4.24335 0.0134707 -0.000375174)
(4.28402 -0.0237531 0.00156264)
(1.48626 1.48995 0.000532726)
(4.20848 0.010854 -0.00122121)
(1.56701 1.26918 0.0897325)
(1.43038 -1.41419 -0.00222933)
(4.31811 -0.0145907 0.0346514)
(4.20238 0.0144197 0.00671537)
(4.30321 -0.0053838 0.0108625)
(4.21168 0.0113888 -0.00132408)
(1.4299 1.26933 0.0770632)
(1.85235 1.59335 0.102247)
(1.48004 1.48187 -0.0023343)
(4.20535 0.0140618 0.00583041)
(4.19972 0.0122035 -1.84909e-06)
(4.28968 0.0742532 -0.0247313)
(1.47005 1.46683 0.00351063)
(2.93578 2.60119 -0.621592)
(4.0181 0.0387934 0.0352084)
(4.2814 -0.0192214 0.010258)
(4.22217 0.0158443 0.0100322)
(4.00762 0.408613 -0.0331374)
(4.26663 0.0100167 -0.0102335)
(1.48001 1.47958 0.000192956)
(4.27042 0.0114331 -0.00780271)
(4.10159 0.00522519 0.00775822)
(4.3248 -0.0977304 0.00112458)
(4.33011 -0.0254364 0.0511346)
(4.19399 -0.0310944 -0.0278637)
(1.47764 1.48451 -0.0056361)
(1.42143 -1.42297 -0.00264227)
(1.4859 1.47769 0.00552502)
(1.41431 -1.4183 -0.00051879)
(4.27729 -0.0198381 0.000274788)
(4.25341 -0.00656024 0.00237007)
(4.2317 0.018402 -0.0139391)
(4.26333 0.0117585 -0.0129263)
(1.47346 1.47502 -0.00611113)
(4.22591 -0.0269572 -0.00866325)
(1.48117 1.48182 0.000892856)
(1.41712 -1.42139 0.000220808)
(4.26549 0.0118077 -0.00944306)
(1.31414 -1.31578 0.0191282)
(2.35154 -0.425114 -0.0319199)
(1.40759 -1.40232 0.00114284)
(1.49605 1.47629 0.0118107)
(4.21868 0.00670453 -0.00559083)
(1.48272 1.48184 0.000662036)
(4.17674 0.0102225 -0.00295219)
(3.97724 0.0022798 -0.017448)
(1.48383 1.48371 -0.000318181)
(3.84421 -0.00189074 -0.0181575)
(4.1515 0.00645346 0.00698001)
(1.49274 1.30937 -0.0489904)
(4.14677 0.0181318 0.0188013)
(3.92193 0.0185969 -0.0027308)
(4.16801 0.022125 0.00673926)
(3.883 0.015204 0.048494)
(4.20521 0.0119835 0.00236401)
(4.01969 0.000329553 -0.00778795)
(1.46222 1.25033 -0.00560691)
(1.42045 -1.41743 0.00781347)
(3.60905 0.00814221 0.085403)
(1.47324 1.4781 -0.00848721)
(4.16212 0.0216923 0.019633)
(4.32073 -0.0215673 0.0416767)
(1.49392 1.42841 0.0120918)
(1.47973 1.48589 -0.00053466)
(4.26675 -0.00774768 0.00310468)
(4.10813 -0.0182941 -0.035793)
(4.12648 0.0213177 0.00180645)
(4.28523 0.0102775 -0.00243291)
(1.4826 1.48086 -0.000333291)
(4.33912 -0.0113983 0.0670474)
(4.26828 -0.0134931 0.0209287)
(1.48562 1.483 -3.52419e-05)
(4.19605 0.0640196 0.0522847)
(3.99937 -0.015982 -0.0397837)
(1.4223 -1.42121 -0.000357782)
(1.42235 -1.422 -5.33109e-05)
(4.17246 0.0125652 -0.00418675)
(4.19317 0.00364212 -0.00561856)
(1.48947 1.48963 -0.00191823)
(1.42519 -1.42147 -0.00162787)
(2.50839 -1.35453 0.306319)
(1.42299 -1.42377 0.000446798)
(4.1969 -0.00252951 0.00804602)
(1.47449 1.47992 0.00313864)
(1.42326 -1.4238 8.31033e-06)
(4.30459 -0.00391343 0.0142818)
(3.89907 -0.0455411 -0.109844)
(4.25803 -0.0226783 0.00571838)
(4.10499 -0.000405527 0.0077212)
(1.48441 1.48309 7.42011e-05)
(1.92531 1.48452 0.072414)
(4.1111 0.0516556 0.0794674)
(1.805 1.59211 0.084748)
(4.09537 0.0183338 0.031304)
(4.07613 -0.0315407 0.00290897)
(4.25074 -0.012934 -0.0106297)
(2.96529 0.0892912 0.104971)
(1.77439 1.52775 0.0763689)
(4.25911 0.00671517 -0.0400673)
(4.31341 0.130598 -0.0448008)
(1.42151 -1.42389 0.00242725)
(4.29136 0.0106127 -0.0412843)
(4.29707 -0.0201106 0.015279)
(1.4251 -1.42471 0.00156955)
(4.14364 0.231272 -0.128261)
(3.63752 -0.000554661 -0.0491014)
(1.87255 1.47214 0.0609342)
(4.27321 -0.00790444 0.0162218)
(4.22492 0.00599965 -0.00581379)
(4.20838 0.0112321 -0.00193688)
(1.48246 1.48086 -0.00041068)
(4.19761 -0.00720406 0.0288363)
(4.29738 -0.00211743 0.0132513)
(4.18145 0.0398539 -0.00433879)
(2.63564 -0.0362614 0.0440494)
(1.80458 1.70328 -0.0358236)
(2.48394 -0.0631344 0.0838629)
(1.42173 -1.42355 0.00105701)
(3.87274 -0.125534 -0.123183)
(4.19858 -0.00773848 -0.0276229)
(1.48334 1.48243 0.00204316)
(3.98936 0.00916205 -0.0289301)
(3.29811 -0.00834477 0.0590571)
(1.92398 1.70107 -0.0177332)
(1.42332 -1.42236 0.000202048)
(1.6659 -1.41416 0.044332)
(1.42301 -1.4223 0.000186743)
(4.18432 0.0253208 -0.000792489)
(4.20718 0.0214343 -0.00723412)
(4.1582 -0.0119508 -0.0113053)
(3.9176 0.00958503 -0.0207251)
(4.26249 -0.0852946 -0.0167175)
(1.48209 1.47633 -0.00293947)
(4.13542 -0.000293726 -0.00833105)
(1.42671 -1.41608 0.000524928)
(4.09206 0.0151676 0.00958814)
(1.48726 1.48693 -0.000720693)
(1.42237 -1.4213 4.31126e-05)
(1.41162 -1.41556 -0.00196665)
(4.02379 -0.025893 0.00542266)
(1.41988 -1.42055 -0.000928466)
(1.42372 -1.42349 0.000523767)
(1.46112 0.97023 -0.0624964)
(1.42327 -1.42436 0.000526559)
(1.46814 1.48848 0.0137867)
(4.12198 -0.0147546 -0.00620708)
(1.48378 1.48159 0.000401813)
(1.75721 1.29755 0.00159432)
(1.48413 1.48399 0.00164297)
(1.4212 -1.41711 -0.000909576)
(1.48367 1.47987 -0.00100366)
(1.41916 -1.41186 -0.00737313)
(1.47819 1.47903 0.000173216)
(3.76557 0.000351455 -0.030857)
(1.48596 1.47821 0.00617468)
(3.86092 0.0541406 0.0765699)
(4.21443 0.00541404 -7.16205e-05)
(4.34948 -0.171676 -0.0287651)
(1.48396 1.47803 -0.000172766)
(3.67506 0.0114105 0.0589625)
(1.48586 1.4806 0.00176352)
(1.42335 -1.42413 -0.000762711)
(4.16516 -0.0396078 -0.0434568)
(4.16402 -0.0322162 -0.0339964)
(4.16119 -0.00782967 -0.0115964)
(4.35311 0.0108747 -0.0727141)
(1.70429 1.43264 -0.0464745)
(4.25707 0.00316602 -0.0222356)
(4.25537 0.00266658 -0.0205169)
(4.21225 0.00876652 0.000404583)
(4.1512 0.0053238 0.000266814)
(4.22965 -0.0426411 -0.0281408)
(1.42024 -1.42063 -0.000567538)
(4.21797 0.007175 -0.000954559)
(1.94048 1.68895 -0.0117003)
(4.19717 0.0103763 -0.00541404)
(1.48284 1.4817 5.22672e-05)
(4.27738 0.0136823 -0.0223382)
(1.91922 1.59262 0.0149144)
(4.21655 0.00388065 -0.0058551)
(4.22761 -0.0193535 0.0150523)
(1.64178 -0.828772 -0.00799214)
(1.48514 1.48689 0.0161986)
(4.15711 0.00777489 0.00656933)
(1.42309 -1.42195 4.11899e-05)
(4.29301 0.0172128 -0.0246833)
(4.26209 0.0188633 -0.0176049)
(1.48243 1.47859 -0.0121579)
(1.48057 1.48005 0.00347766)
(1.45168 1.29947 -0.0371172)
(1.48191 1.48312 0.000804875)
(2.98118 -0.15924 0.0819222)
(4.29463 0.0149757 -0.0251133)
(1.50174 1.46655 -0.00106464)
(1.48037 1.48286 0.00160623)
(3.69208 0.00238684 -0.010355)
(1.48266 1.48315 -0.000293379)
(4.22954 0.0133172 -0.0149505)
(1.48261 1.48219 0.000399843)
(4.18953 -0.0261163 -0.0159344)
(1.42371 -1.42354 0.000528017)
(3.9396 -0.0199933 -0.0571928)
(3.27121 -0.0120107 0.00365831)
(3.9482 0.0107723 -0.00897341)
(4.21849 0.00549549 -0.00709183)
(1.49202 1.48056 -0.00430511)
(3.8573 0.00309986 -0.00106328)
(1.48581 1.4804 0.00126533)
(1.48314 1.48376 -0.00379117)
(4.1688 -0.0112485 -0.00618972)
(1.48312 1.4818 -0.000266117)
(3.57121 8.70995e-05 -0.0353883)
(1.43497 1.31976 -0.0419284)
(4.23658 0.0171404 -0.0130395)
(1.42237 -1.42256 -0.000211333)
(4.26621 0.00872416 -0.00944841)
(1.42361 -1.42233 -9.63702e-05)
(1.75945 1.55724 0.0444551)
(4.33021 0.15109 -0.0108118)
(4.15497 -0.0333368 -0.0436082)
(4.20962 0.0163956 0.000965247)
(4.25316 -0.0465611 -0.0312089)
(4.19156 0.00810643 -0.00379513)
(4.29986 -0.0274519 -0.00457582)
(1.47349 1.48498 -0.00667797)
(4.20658 0.0219955 0.012678)
(4.17055 -0.0395723 -0.0418368)
(1.48222 1.48301 -0.000818038)
(3.54269 -0.0452112 -0.150929)
(4.30603 -0.0305678 -0.0212895)
(4.13591 0.017486 0.0156827)
(1.4698 1.44894 -0.00855229)
(1.82971 0.359242 -0.289858)
(4.04862 0.0106343 0.0124118)
(3.32809 -0.0136278 0.032892)
(3.43253 0.880908 -0.00557072)
(1.84287 -0.939976 -0.0764585)
(4.2843 -0.048419 -0.0105713)
(4.02911 0.0155692 0.0285784)
(4.15574 -0.0381595 -0.0414036)
(4.22486 -0.0228268 -0.0089543)
(4.1686 0.0250463 0.010433)
(3.68978 0.473223 -0.0246971)
(1.83356 1.55528 0.0126296)
(3.7562 -0.141688 0.0321471)
(3.6348 -0.322876 0.0725937)
(1.4214 -1.42213 0.000731883)
(3.71436 0.0241934 -0.0108189)
(1.49135 1.46383 -0.00764594)
(1.74194 1.58279 0.0146571)
(4.18258 0.0048932 -0.00223616)
(3.71681 0.624452 -0.021556)
(4.4795 -0.381745 -0.0717866)
(4.0399 -0.698078 0.0144957)
(1.73723 1.65107 -0.120555)
(4.2607 -0.0245757 -0.00748392)
(4.21815 0.0242347 0.0185311)
(1.47952 1.4752 -0.000313662)
(1.90854 1.05677 -0.043314)
(4.22025 0.0307934 0.0184333)
(1.42195 -1.41706 0.00104539)
(1.4825 1.48228 -0.000108656)
(1.48106 1.48074 0.000312431)
(1.4837 1.47575 0.00151154)
(4.26337 -0.0432792 -0.0196803)
(1.48292 1.48269 0.000785739)
(1.42902 -1.42891 0.00758392)
(4.1861 -0.0257769 -0.0210689)
(3.87561 -0.000147356 -0.01152)
(2.09377 -1.83398 -0.0960291)
(4.221 0.0300743 0.017815)
(1.72368 1.39183 0.0312816)
(4.23606 -0.0155354 -0.00801139)
(1.39951 -1.39867 -0.00633803)
(1.47981 1.48274 -0.000708681)
(4.24834 -0.0259228 -0.00785456)
(1.48317 1.47481 -0.00569408)
(1.48237 1.47911 0.000624005)
(1.70041 1.62876 0.0478729)
(4.0128 -0.00197588 -0.00134211)
(2.44613 2.04893 -0.270704)
(4.18845 -0.0174893 -0.00836427)
(4.17988 0.00447527 -0.00268758)
(1.41287 -1.40368 -0.0114822)
(4.35372 -0.0141211 0.135476)
(3.99116 -0.0236228 -0.0574689)
(4.16971 0.000831491 -0.0020782)
(4.23826 0.0756821 0.00996714)
(4.24877 0.0410546 -0.0899105)
(3.67944 0.00126275 -0.0338443)
(1.48122 1.48052 0.000638408)
(4.25291 0.00329263 0.0111549)
(4.22331 0.0165854 0.000753247)
(1.41032 -1.42875 0.00268905)
(3.95596 -0.00204287 -0.000651629)
(4.27218 0.0259288 -0.00765347)
(4.26129 0.0195305 -0.00643654)
(3.90102 -0.0177886 -0.0386785)
(4.25878 0.0208006 -0.00499531)
(4.26329 0.0212365 -0.00372657)
(1.42734 -1.40854 0.00848773)
(4.26172 -0.00947213 0.0205693)
(3.54027 -0.0213653 -0.00566916)
(1.7901 1.55498 0.0965056)
(4.25672 0.0169509 -0.00904208)
(4.06921 0.00403954 -0.00904521)
(2.38015 1.93836 -0.291717)
(4.18313 0.00576772 -0.000845333)
(4.25897 0.0145171 -0.0126832)
(4.07084 0.00061381 -0.016283)
(4.22946 0.0210797 0.000481905)
(4.1825 0.045235 0.017957)
(4.18881 0.00581684 0.00103182)
(1.45032 1.41809 0.00155406)
(4.2291 0.0216999 -0.000530392)
(3.97506 -0.0256403 -0.05223)
(1.59059 -0.956177 0.0372245)
(4.20929 0.0366422 0.0244368)
(4.16402 0.0378842 0.0364355)
(4.2123 0.011208 -0.00127033)
(1.48188 1.47842 0.00156223)
(4.10075 0.0240452 -0.0385363)
(1.42346 -1.41717 0.00379943)
(1.48277 1.48303 -0.000710315)
(1.47831 1.46677 4.44764e-06)
(1.48455 1.47703 0.00133939)
(3.5723 0.00197558 -0.016876)
(1.76561 1.52127 0.0611504)
(3.20639 -0.224846 0.26493)
(1.41951 -1.41946 0.000207931)
(1.48188 1.50015 6.40483e-05)
(4.2263 0.0397903 0.022699)
(4.23218 0.0107793 -0.0178475)
(1.42382 -1.42375 6.09085e-05)
(4.24091 -0.026437 -0.00325069)
(1.42313 -1.42189 0.00482397)
(1.42418 -1.42318 -0.000710567)
(1.40174 -1.40248 0.00432299)
(4.31097 -0.0343389 -0.00715745)
(3.60444 0.0182946 -0.010254)
(1.74787 1.5746 0.0191086)
(1.43806 -1.4221 0.00373685)
(1.4808 1.48535 -0.00194834)
(1.48193 1.48298 -0.000339702)
(4.33121 0.00826471 -0.046347)
(4.19687 0.00695979 -0.00271532)
(1.76538 1.66007 0.0770102)
(4.28145 0.0133321 -0.0229638)
(3.99155 -0.0558984 -0.161828)
(1.48035 1.48097 -0.00066259)
(4.26934 0.0114955 -0.0196268)
(3.92026 0.00305217 0.0210865)
(4.17255 0.0223239 -0.026735)
(1.48361 1.48277 -0.000248041)
(1.48159 1.48074 -9.93409e-05)
(4.14058 0.0179921 0.0218619)
(4.21631 0.00761095 -0.00102011)
(1.75336 1.59429 0.0248514)
(1.47764 1.47788 0.000206886)
(1.50598 1.45901 -0.00490741)
(4.18314 -0.0090092 0.0042449)
(1.42169 -1.42181 -0.00197029)
(1.42349 -1.41848 0.00113144)
(1.4784 1.479 0.000849788)
(4.26786 0.0128953 -0.0166385)
(3.75126 -0.0178513 0.00654978)
(1.48312 1.48352 -9.20166e-06)
(1.65166 0.325881 0.290089)
(1.80888 -0.197867 -0.0651258)
(4.14892 0.0217879 -0.00168981)
(1.48051 1.48331 -0.00071993)
(1.48269 1.48006 -0.00054898)
(4.29645 -0.0417552 -0.00984843)
(4.11143 0.0695726 0.0635359)
(1.77897 1.58951 0.0749416)
(2.59205 0.84269 0.0613767)
(4.04889 0.0895479 0.115751)
(3.88131 0.0108686 -0.027177)
(4.11296 0.00288963 -0.00286354)
(1.53887 1.44363 -0.00246724)
(4.09536 0.0103086 -0.00059728)
(4.24386 -0.0277632 0.0288342)
(1.4863 1.48237 -0.00182641)
(1.414 -1.39132 0.00174082)
(1.4787 1.47936 -0.000212577)
(1.48121 1.48151 -0.000508251)
(1.48301 1.48532 -0.00161958)
(1.48373 1.48387 -0.000134472)
(4.27734 0.0135695 -0.0180256)
(1.422 -1.42207 0.00120212)
(1.48122 1.48152 -4.35088e-05)
(1.47434 1.4547 4.93665e-05)
(4.28056 0.0139563 -0.0235508)
(4.21248 0.00878652 -0.00253712)
(1.429 -1.41058 -0.000389493)
(1.40686 -1.39273 0.00208188)
(4.31516 -0.0195689 0.0362417)
(4.10212 0.00265669 0.00474153)
(4.09598 0.00397073 0.00630308)
(1.42391 -1.42005 -0.000728656)
(1.48044 1.48123 0.000603312)
(4.09948 0.00266403 0.00567509)
(1.42357 -1.42248 -1.25302e-05)
(4.05358 0.0105944 0.000586282)
(4.15511 0.00792796 0.0149298)
(4.16393 0.0134892 0.00618914)
(1.43227 -1.42207 0.00423329)
(1.42283 -1.42351 0.00047521)
(1.4227 -1.42359 0.000368334)
(1.48283 1.48335 0.000341415)
(4.20268 -0.0173572 -0.0112429)
(1.4813 1.48236 0.000313278)
(1.4803 1.48063 0.00027175)
(4.18599 0.0121269 -0.0159489)
(1.4227 -1.42336 0.000624004)
(4.11642 -0.00118589 0.00494921)
(3.76802 -0.0312391 0.0126048)
(1.49534 1.44697 0.0070962)
(4.211 0.0128472 -0.00184171)
(1.98934 0.29411 -0.0490383)
(4.15219 0.00302232 0.00371567)
(4.30866 -0.0142978 0.00939992)
(3.80541 0.0146018 0.0038479)
(4.29618 -0.00166633 0.0272908)
(3.1137 0.0656432 -0.117785)
(1.76548 1.4129 0.0289261)
(4.14349 0.000738203 0.00243161)
(4.31198 0.0319125 0.00566648)
(4.20855 -0.0113293 -0.0046702)
(1.51862 1.32113 -0.0455158)
(1.90001 0.185184 -0.0981953)
(2.25519 -0.162123 0.0764832)
(4.14432 0.00624729 0.00253774)
(1.48054 1.48264 0.00193703)
(4.07635 -0.00958756 -0.0294229)
(4.16272 -0.004255 -0.00919181)
(4.04311 -0.0353568 -0.0634842)
(1.55494 -1.10218 -0.0819519)
(1.42327 -1.42364 0.000723255)
(1.42277 -1.42288 -7.70787e-05)
(4.23327 -0.0134856 -0.00191328)
(1.72739 1.43138 -0.0180673)
(4.02281 0.0136595 0.00582489)
(1.60796 1.46498 0.0198904)
(4.00432 -0.00781718 -0.0256979)
(4.10801 -0.00663299 0.0040689)
(4.0683 -0.0023798 0.01408)
(4.21323 0.00982175 -0.00354801)
(1.48162 1.48065 -0.000539218)
(1.47366 1.46993 -0.00199444)
(1.52091 -1.38731 0.00638061)
(4.2086 0.0126704 0.000167731)
(1.48362 1.47974 -0.000226956)
(1.7099 1.47217 -0.0644697)
(4.31266 0.0771886 -0.0663939)
(1.48857 1.48678 -0.000880915)
(1.47661 1.48356 0.004443)
(1.42017 -1.41453 -0.00356392)
(1.48288 1.48354 0.000536916)
(4.02564 -0.00142178 0.0142718)
(1.51939 1.43988 0.00465434)
(1.48303 1.48135 0.000310037)
(3.426 0.48563 -0.348082)
(1.73338 1.40103 -0.0190853)
(1.47721 1.47802 -0.0122345)
(2.047 -1.21566 0.0732064)
(1.48286 1.48051 -0.00137848)
(3.31555 0.0120178 -0.0286022)
(4.10699 -0.0047729 0.0103071)
(1.42223 -1.42184 -0.000317198)
(4.04048 0.00529425 -0.00995295)
(4.07113 0.655567 -0.0899957)
(4.01592 -0.038548 -0.0623586)
(4.40783 0.159344 0.00159271)
(3.97337 0.00393902 -0.0065105)
(1.48286 1.47262 0.00450791)
(4.16976 -0.0389065 -0.0433834)
(4.32345 -0.0144947 0.00867196)
(4.01518 -0.0387297 -0.0627941)
(1.4227 -1.42277 -0.000427585)
(4.37304 1.15159 0.305239)
(4.01645 0.00588968 0.00625051)
(1.97539 1.57701 -0.0929938)
(3.99341 0.00151465 0.00505221)
(4.35097 0.0527164 -0.0410098)
(4.15881 0.0810257 0.00413797)
(4.12087 -0.0135881 -0.0167049)
(4.12108 0.0139829 0.000767619)
(4.38563 0.0609736 -0.0230838)
(4.23117 -0.00600009 -0.0064031)
(4.2016 -0.00652321 0.00432517)
(1.47296 1.47778 0.0058555)
(1.47839 1.47156 0.00454084)
(4.04442 0.0107425 0.00472746)
(3.9815 0.00411652 0.00561371)
(1.47982 1.48348 -0.000393253)
(4.09674 0.00598316 0.000732686)
(4.30445 -0.0168605 0.00535168)
(4.22288 -0.0103433 0.00412621)
(1.48705 1.4722 7.58081e-05)
(4.14351 0.0812357 0.0182257)
(1.48071 1.47948 0.000319273)
(4.20497 -0.005672 0.00320476)
(4.22725 -0.00691528 0.00301962)
(1.48156 1.48088 -0.000236144)
(4.03149 0.0178413 -0.0148153)
(4.21797 -0.00446403 0.00112176)
(4.12767 0.0757588 0.00595015)
(4.07135 0.00125469 0.0129386)
(1.51081 1.48185 -0.00215594)
(4.23311 -0.0119061 0.0135593)
(4.14078 0.0922872 0.000643014)
(4.36837 -0.104948 0.0253034)
(3.68369 0.046178 0.0145228)
(3.29613 0.00965454 -0.0458663)
(1.48457 1.46932 -0.00264872)
(1.47956 1.47833 0.00162235)
(4.07307 0.0533414 0.00696151)
(1.48274 1.48341 -0.000273681)
(3.57479 -0.00985949 -0.011437)
(4.08689 -0.0207634 -0.0305067)
(2.49081 0.344066 -0.0901188)
(4.53346 -0.289885 0.106924)
(4.00044 -0.180495 0.0493955)
(4.45447 -0.161512 0.0416707)
(1.4828 1.48337 -0.000160359)
(2.01401 1.70881 0.0143833)
(4.22475 0.0107011 -0.00384907)
(1.41727 -1.42246 -0.00447226)
(0.789943 -0.553654 0.231141)
(4.19457 -0.0793103 -0.062099)
(1.48286 1.47906 -0.00279789)
(1.48348 1.48146 -0.000163993)
(3.7433 -0.0754082 -0.00556664)
(3.05737 -0.197975 0.0419193)
(1.4832 1.48338 -8.3553e-05)
(3.78789 -0.0692743 0.0118585)
(1.4817 1.48022 0.000451873)
(1.48199 1.48405 -0.00259423)
(1.42242 -1.42278 -9.68255e-05)
(1.42432 -1.42093 0.00347251)
(1.3967 -1.38624 0.00477861)
(1.42236 -1.41986 0.000129718)
(3.78682 0.0292505 -0.0140972)
(1.4807 1.47225 -0.00114722)
(1.48186 1.4823 0.000503966)
(1.47451 1.48275 0.00274373)
(3.52293 -0.78211 -0.206561)
(3.98999 -0.0318974 -0.0712887)
(3.87105 -0.000895261 -0.0372171)
(4.22489 0.0100674 -0.00354719)
(1.47732 1.46766 0.000207042)
(1.48629 1.48067 -1.49694e-05)
(4.05442 -0.0681526 -0.0821471)
(1.48268 1.48339 -0.00149302)
(1.48218 1.48076 0.000428656)
(2.3618 1.35391 0.0497725)
(4.31821 -0.056577 -0.00434911)
(4.21226 0.00993189 -0.00276278)
(1.48114 1.48081 -0.00013936)
(1.48276 1.47993 0.00180854)
(1.47925 1.47457 -0.00210038)
(1.48107 1.47846 -0.000221349)
(1.48489 1.4845 -0.00152948)
(1.48538 1.48143 0.000380305)
(4.2308 -0.0957769 -0.0598759)
(1.48354 1.4792 -4.43105e-05)
(2.93391 0.0423064 0.0974465)
(4.25153 -0.00949595 0.0112433)
(1.48164 1.48381 -0.000299033)
(1.41386 -1.41986 -0.00362833)
(1.40453 -1.39123 0.00134644)
(3.57597 0.0419898 0.192181)
(1.3973 -1.39571 -0.00563515)
(1.42108 -1.42229 0.00128834)
(1.47529 1.47737 -0.00933706)
(3.83174 -0.0583567 0.00258986)
(1.47968 1.47985 -0.000549784)
(4.19758 -0.0536148 -0.0337003)
(3.364 0.0523448 -0.0174942)
(2.76341 0.00356834 0.110204)
(1.47976 1.48114 0.000565222)
(2.88006 -0.74173 0.059786)
(4.23079 -0.00861238 0.00123706)
(4.25744 0.0106042 -0.0108665)
(1.52571 -1.45537 -0.0177824)
(4.1027 -0.0652191 -0.0116446)
(4.18491 -0.00801374 -0.00621159)
(1.4233 -1.41345 0.00140552)
(1.5303 1.45058 0.00676453)
(2.00738 -1.54768 -0.12622)
(1.47797 1.47745 -5.05074e-05)
(4.23512 0.00868839 -0.00151919)
(4.22106 -0.00522178 0.00656041)
(4.29956 -0.0510189 0.0213768)
(2.83197 -0.00309311 0.153766)
(1.48309 1.48249 -0.000182375)
(4.23717 0.00911519 -0.00250519)
(1.5268 1.45219 -0.00197085)
(1.85315 1.56708 -0.00768656)
(1.9102 -1.48727 -0.0600478)
(1.48215 1.48241 0.0005668)
(4.23956 0.0120219 -0.00276666)
(1.47966 1.47646 0.00132334)
(1.40869 -1.3851 0.000302796)
(3.87423 -0.0528515 -0.0946662)
(4.14832 -0.00916762 0.0044105)
(1.40885 -1.38608 -0.00419387)
(4.17127 0.00701833 -0.00277705)
(1.58137 1.54535 -0.00998328)
(4.23614 -0.0357437 -0.0179208)
(1.397 1.33589 0.0152287)
(1.48334 1.48366 -0.000556677)
(1.49107 1.48606 0.00510312)
(1.42343 -1.42368 0.000479158)
(4.11963 0.00821643 -0.00705467)
(3.70372 0.00598905 -0.0154459)
(4.26896 -0.00493339 0.0782073)
(1.47829 1.47872 0.000767474)
(1.47864 1.45012 0.00922462)
(4.10195 0.00869455 -0.0062295)
(1.48324 1.48342 -0.000482736)
(1.71924 1.55807 0.0208716)
(1.4226 -1.42179 0.000803768)
(4.05932 0.0246086 -0.00252191)
(4.32503 -0.105575 -0.0329814)
(4.22706 0.0106805 -0.00393149)
(1.42574 -1.42213 0.00217683)