/*--------------------------------*- C++ -*----------------------------------*\
  =========                 |
  \\      /  F ield         | OpenFOAM: The Open Source CFD Toolbox
   \\    /   O peration     | Website:  https://openfoam.org
    \\  /    A nd           | Version:  10
     \\/     M anipulation  |
\*---------------------------------------------------------------------------*/
FoamFile
{
    format      ascii;
    class       volScalarField;
    location    "4";
    object      p;
}
// * * * * * * * * * * * * * * * * * * * * * * * * * * * * * * * * * * * * * //

dimensions      [0 2 -2 0 0 0 0];

internalField   nonuniform List<scalar> 
111485
(
32.5963
2.9261
3.39093
32.4976
3.49358
31.8866
2.9686
2.60926
2.98522
4.31847
2.93581
3.74974
3
2.8965
3.0073
3.06012
1.03313
35.1393
2.99119
32.4603
32.4366
31.9975
2.99717
3.09486
3.48776
32.187
4.1735
1.79456
3.38894
32.6627
5.46804
0.721772
32.5283
32.269
34.5445
32.3496
5.48956
0.332648
6.44585
3.10785
32.5361
4.305
3.11049
4.92091
5.52495
32.9282
4.66694
3.07207
4.3012
32.3837
32.373
30.7945
32.4011
4.98281
32.4184
1.91045
3.03074
32.5063
4.4985
3.09522
3.10446
32.5957
2.43647
5.36771
31.7798
2.14758
23.1713
2.75908
2.4014
2.61894
5.66616
2.20689
31.6601
2.39218
32.7983
1.30646
32.0631
4.14172
31.9916
33.0535
5.49232
4.76555
32.1385
32.749
2.4186
3.18418
12.5715
4.99641
5.61136
0.949471
5.70614
3.19876
2.43381
0.483429
4.29761
32.7421
32.6009
5.02748
4.02123
5.54919
32.5603
4.20012
32.3615
4.07508
2.80416
32.5906
32.3378
0.843145
3.24779
5.27457
0.627796
2.22399
3.204
3.8848
32.1816
1.25786
32.2629
32.4863
2.40241
32.4669
32.1824
28.493
32.1425
32.5104
4.498
35.6374
28.3751
0.969206
32.8177
7.8834
5.37182
5.01825
32.7927
27.9981
28.9469
2.90532
32.0849
1.32314
2.64336
2.71949
4.2657
2.68452
2.68547
3.34241
4.52945
0.219642
32.0821
32.7231
32.4263
2.80157
3.34723
32.4321
5.51441
0.0397422
4.41076
2.81058
2.78882
2.99979
4.86373
32.883
32.5003
2.80479
3.32449
4.99702
4.63038
1.13921
5.28631
32.5771
5.12456
5.23396
32.4123
32.7047
3.60968
32.2296
0.29253
0.0724644
31.8945
31.5905
32.2516
32.3014
31.505
32.4914
2.83572
2.85635
2.76419
0.231982
4.14831
1.56981
5.51798
32.5521
1.34019
31.5851
32.581
1.59651
4.28641
5.30288
2.06712
0.227931
32.8006
2.87484
3.32325
23.9421
4.79275
0.924654
32.815
1.6
3.95985
31.5696
5.25779
4.65541
3.31043
1.53427
31.4726
32.6272
1.56829
22.9389
5.01544
32.2154
1.59278
1.37699
4.37828
32.8834
1.72275
5.15991
26.2903
32.2255
32.4204
5.7302
4.64517
32
30.193
1.39377
0.422562
1.85958
31.9846
31.9404
5.37272
32.8113
2.8016
1.37009
1.38045
1.34804
1.37115
32.436
5.54603
1.06238
32.4761
32.1243
4.95217
2.226
32.1671
0.705814
1.04371
32.7162
27.5079
4.72527
32.2968
32.5937
29.8487
32.362
1.21645
1.32048
0.0789801
32.9027
1.0683
32.5107
32.5817
32.8333
5.41259
4.14492
2.33056
2.37378
3.88084
2.32553
2.35361
5.6208
0.398362
0.429283
31.6
32.7036
5.65003
0.851335
4.07583
0.47253
32.4805
2.37481
2.85933
2.32735
4.00376
5.58194
2.28864
2.34057
4.76719
32.5017
4.08576
32.2322
35.1578
32.8109
5.69931
3.88201
3.05101
32.3023
32.6859
1.85942
0.628747
32.4205
32.6331
32.4391
1.32767
0.453242
2.79579
2.92458
3.14475
30.3583
32.363
32.7673
1.83859
16.9439
3.03304
5.61515
5.30592
32.1298
32.5839
32.5997
28.922
1.97547
3.47008
32.4736
1.95555
32.139
32.2238
5.13297
1.9721
3.85841
1.94408
32.8065
28.8121
32.4182
1.95272
0.142594
5.50461
31.885
8.39038
5.28903
3.51103
1.77669
10.8295
3.16784
32.0435
3.17578
1.99885
5.5924
5.09734
3.51871
32.3051
32.7731
32.3738
32.5106
2.76101
1.7085
3.81021
3.17752
32.3243
3.68636
32.3587
32.6233
3.17398
33.025
29.1503
33.0135
32.3566
2.83379
32.508
0.131887
3.65737
31.997
2.52702
2.06233
32.3968
2.0111
3.71808
2.04264
5.28762
0.273808
0.437339
32.8425
32.7218
4.92494
32.5234
3.83674
5.15673
31.8559
32.457
1.92415
3.7338
0.31009
3.69131
32.0711
5.45318
3.72119
31.8538
4.91315
3.73314
32.6268
32.4774
0.143004
3.46967
32.4072
32.2745
25.466
32.5546
3.56402
32.2175
32.5407
3.74248
5.41245
4.57435
3.50356
31.9097
28.9776
4.97988
29.3076
4.90868
5.03406
4.29305
23.7445
29.5424
-0.917102
5.3624
32.6492
5.07195
3.66745
32.8818
5.04827
4.37291
29.4287
3.8606
3.73203
0.295739
31.9474
1.00088
3.92854
0.314318
5.76088
28.3139
4.39599
32.7739
5.56144
-0.377221
32.4055
3.85286
4.75066
27.7169
32.8934
30.7895
32.4303
3.50784
0.405146
3.81664
3.86895
5.24816
32.231
3.77959
32.6366
3.52258
31.7927
32.6261
32.7479
3.84721
32.7369
32.6239
33.9055
32.5987
32.4626
4.74316
32.5075
30.9397
32.3504
32.5963
31.8683
32.7941
32.023
3.86971
32.3502
4.79034
3.95425
6.15872
31.8491
4.79273
32.3775
32.5893
3.86396
3.87229
3.9855
5.59344
30.6678
4.40244
4.39398
0.305206
0.401827
3.96311
32.6995
0.233988
27.7521
4.54657
32.2508
4.4669
28.4836
0.564407
3.83355
33.4583
32.561
0.359437
32.3994
4.39364
4.39505
32.4672
32.408
32.6173
32.3857
3.22203
4.37671
31.7271
32.5018
3.48529
32.002
4.38133
32.0469
4.61855
32.5975
4.34929
4.45046
2.08553
0.535837
31.7174
-0.311255
31.7931
32.261
4.03577
32.2639
4.37032
32.6432
4.50096
32.6771
4.14772
32.4254
29.4735
6.04273
4.01199
4.36194
4.1061
4.32654
3.75233
32.4169
4.34896
4.06911
32.1931
5.82367
5.36329
4.40736
31.9359
32.7825
3.53023
4.43586
18.6804
31.5823
4.02761
3.4898
4.16676
4.17733
0.940625
14.8961
29.1656
4.08397
16.7794
32.5131
4.41756
32.5282
29.577
0.987603
14.7591
4.05749
11.0978
29.1606
4.16265
3.4814
31.8564
30.9782
3.4771
32.3448
31.9879
32.0254
31.8202
4.19977
32.3532
32.687
4.25212
1.40905
25.9832
3.36621
30.6088
1.36743
32.3945
32.4262
4.19984
32.2459
31.8598
29.4681
0.233802
21.9234
4.2437
0.98466
32.3524
5.66824
4.15119
3.5792
5.42031
7.3793
3.49371
32.2759
4.29776
3.57844
32.8392
2.08886
4.80419
3.6774
0.214769
3.67232
3.6714
32.8145
4.41146
5.26548
29.3836
3.66822
4.47332
22.567
0.991837
3.67491
4.47016
3.92562
3.91183
0.992202
32.1591
3.91195
4.36648
33.2645
4.13028
4.11392
1.028
32.2739
0.247308
32.9065
32.1017
32.3414
31.8156
3.59047
29.7602
2.98548
32.6081
31.6978
4.15612
4.15064
32.3928
4.38274
32.5889
32.8197
32.413
4.47401
4.4353
29.5653
32.722
32.2507
32.2862
5.37913
1.01521
28.9665
4.06024
5.12505
32.4578
4.08231
4.66151
0.740385
31.9586
32.2156
2.17412
1.02686
29.349
32.4035
31.6886
1.60234
32.722
32.3064
32.2042
4.02494
3.24829
32.0052
34.159
33.2674
0.941505
32.4903
31.8701
4.529
5.38469
29.2881
26.0509
10.1751
4.62197
0.0285482
31.5799
3.39639
4.77917
32.503
32.3883
32.0955
32.2314
32.3736
32.027
4.0732
32.5875
32.0924
31.9246
4.06827
1.00511
32.2658
32.4355
4.61211
1.01461
1.07256
32.3297
32.1063
1.03451
32.7322
4.04307
1.00449
1.08176
32.1884
32.5581
32.5567
32.3062
3.54302
32.1261
32.04
5.01071
32.5471
1.71375
4.79236
31.7659
1.00811
32.1441
1.69427
4.22046
4.31159
4.58078
2.5382
30.3514
1.67448
4.62845
0.0440153
32.1813
-0.170401
29.8149
0.333552
32.3307
4.75453
4.67301
4.73952
32.7819
32.5723
32.8972
1.00724
30.6113
0.566799
31.097
3.17453
0.335676
0.692018
1.02845
32.0355
31.8542
31.7211
1.06017
31.8488
30.3514
5.78553
32.4825
32.4978
32.5578
32.1015
0.70968
31.6205
32.2142
1.6415
30.5465
32.5536
29.4384
32.187
4.70277
0.691424
32.4384
3.51146
10.014
4.73216
5.30073
0.895956
32.3926
4.23582
5.42846
4.73428
32.7582
-1.60216
0.726908
27.8675
0.580444
5.61405
5.87464
2.55009
0.537383
5.63901
0.225093
0.647846
32.247
31.8301
0.487889
0.454735
32.4451
0.501237
3.81522
0.64631
31.7481
5.76635
32.3193
0.660393
0.618534
31.9348
0.09089
0.658683
5.66878
0.0862647
31.5931
2.79261
5.70275
6.22436
5.63782
5.10797
32.2481
32.3496
5.05639
32.0926
3.97348
5.06675
28.5147
4.89063
3.74317
5.46784
32.1034
27.5876
1.47301
32.8147
37.2823
5.08455
31.8003
31.8977
4.08039
3.57854
32.0965
5.81009
32.2271
32.2446
32.8327
32.5979
32.4861
32.7245
5.19375
31.7969
32.4136
32.4673
1.7371
5.26582
3.24359
1.45208
32.002
31.8401
5.30939
32.1738
31.9056
25.6926
5.18676
1.87655
31.9701
31.8675
31.8555
31.8723
32.2174
31.8444
5.21605
31.8554
5.55128
3.155
32.2838
32.6094
32.4212
5.79116
32.3955
32.5041
32.3437
5.55095
32.3339
5.22108
5.43515
5.55481
32.0069
23.6726
5.31489
3.03508
31.4684
5.57436
4.45573
32.343
31.6046
28.8987
31.8706
1.46938
2.75602
5.36279
5.19318
31.9467
1.45831
31.489
29.0567
28.7607
32.42
2.52768
32.1995
32.4488
5.56007
1.87643
32.4412
4.37885
30.683
5.30927
32.8109
32.255
32.2795
32.5381
0.736582
2.75404
7.74296
31.9664
31.8823
0.691618
32.0964
29.8423
32.6055
4.0064
5.17857
3.58799
32.2812
5.5984
5.59955
33.6263
5.62321
31.8298
4.91886
4.46126
2.64618
5.52085
5.26398
32.135
32.2351
32.2353
5.57996
32.726
5.54043
32.8572
8.85033
32.2929
3.06259
3.18256
32.4582
32.063
32.5022
32.4999
5.52709
32.5209
28.9272
0.674158
5.54999
32.572
29.7375
31.8503
29.8073
31.8118
32.1486
5.58432
4.55426
32.4952
32.2284
4.37692
32.6262
5.58395
0.730667
31.9676
5.02549
32.5479
0.463421
31.7958
3.38441
31.921
4.65376
5.26882
5.59848
5.02959
5.01649
21.99
31.4639
5.13211
32.3802
2.50543
32.3607
32.441
31.2818
32.3829
32.4911
32.4387
4.98169
4.94509
32.551
28.0907
32.3348
5.06152
5.77864
32.6283
2.53615
5.66811
32.4225
0.936539
0.658842
2.39583
5.61875
32.093
32.1871
32.3764
32.0401
2.5268
32.1445
5.14869
32.1563
5.16705
3.41011
32.3418
5.10154
32.3974
32.0765
5.16671
5.33484
13.4891
32.1589
32.4768
31.8458
2.61025
31.2708
33.0079
31.4065
9.56433
28.715
4.79809
29.7184
31.2873
31.8369
0.795367
0.661084
3.81275
2.85356
32.7989
5.16644
32.2641
32.4424
0.687947
31.71
4.48451
5.15361
0.559875
5.22358
3.28713
3.71852
32.3966
1.75012
-2.90022
4.53048
5.32537
1.9486
24.6429
32.5797
3.61644
32.3434
31.8873
5.69947
4.3102
3.04099
32.2107
31.7238
5.51287
32.4194
31.7911
5.21811
32.4741
32.4461
2.51604
5.22869
5.24028
2.34252
1.19611
31.8463
32.1262
5.53158
2.25081
32.023
32.4568
3.91187
31.8424
27.9534
28.8264
28.9617
21.0178
28.0854
32.0281
3.70651
31.8307
5.2636
31.9276
18.0126
31.9226
31.8389
32.4052
32.0925
3.47969
32.0989
32.0918
29.3586
31.8782
32.3944
32.2376
2.13522
32.161
1.93934
5.28137
31.8461
3.83798
31.9852
4.575
5.61382
0.540171
0.577013
32.1806
0.606735
3.47731
5.57651
32.8197
5.32864
1.70254
0.318074
30.7302
0.365002
31.9491
32.3905
31.9148
32.0085
0.368219
32.2273
31.8788
0.300646
5.24772
0.265303
32.4732
24.4759
3.78619
32.3313
5.34936
32.4111
0.567491
31.7512
31.798
3.6837
31.9117
5.579
32.62
31.9262
1.69355
4.66342
1.26328
2.69189
5.80412
2.14103
31.935
32.9281
3.23467
1.29559
2.12767
5.35092
32.0976
1.95067
32.0661
32.1004
3.16937
5.47174
31.8522
1.32096
32.356
1.2721
1.17965
31.6304
32.0147
32.3062
3.20479
32.2185
32.2215
3.21928
1.2692
5.29064
0.365438
31.9959
32.395
4.04692
3.27414
31.9565
3.19671
31.9953
3.17281
31.99
31.9554
3.12789
32.1051
4.47239
2.97845
31.8514
32.0181
2.91357
27.8168
3.60492
32.5868
5.30151
32.6401
28.1755
27.4435
3.01488
29.5032
29.2311
2.73691
29.1181
20.3183
27.4348
31.9062
32.3433
5.50024
3.58467
32.3364
32.257
3.46695
3.54445
31.8563
3.24745
32.0325
32.3543
4.07292
3.87411
0.456174
31.9772
32.2699
32.227
32.0917
31.8001
31.8149
32.2549
31.8365
31.8673
32.0135
32.233
32.3486
32.1536
31.9608
31.8785
32.1972
31.957
32.0177
32.1203
32.2673
32.6321
3.62647
32.1909
31.9629
32.4586
2.50304
32.524
32.3507
16.15
31.6849
31.372
2.50618
33.5798
31.5038
17.8656
2.50951
32.1534
28.4779
30.1237
31.8934
4.91135
2.5148
2.53166
2.40412
1.54077
32.4167
31.8906
1.88372
1.98452
2.38972
32.0541
2.23926
4.78496
2.43171
0.439669
0.489891
2.411
0.840949
2.40847
32.8579
2.74517
2.26924
3.39065
2.24889
32.3084
32.2437
32.3761
32.5505
32.2939
1.96632
2.27171
32.3001
31.874
31.8435
32.2917
31.9169
32.3699
31.7597
32.3501
2.24186
5.75929
2.26111
3.76446
31.6978
31.6775
4.84411
5.52315
32.0078
32.0942
3.53251
32.8892
32.199
2.34436
2.18466
2.23702
3.56346
4.82277
32.424
0.0843431
2.67956
28.9328
32.3496
2.62311
32.3926
31.8196
14.3608
10.6713
3.73376
32.1333
32.7667
5.46205
2.7226
0.131307
1.98073
17.5618
32.5567
5.17279
33.2785
32.8528
31.4869
3.49571
31.9071
1.97014
0.111714
2.58433
2.69849
32.7177
1.73844
32.76
31.1562
32.7165
32.2689
0.676732
21.1725
32.0991
32.4816
33.6949
1.98325
28.7809
1.77339
1.97829
0.655544
1.98198
32.3085
32.1699
28.4039
3.46781
1.53669
3.42769
32.3882
32.5902
28.6596
4.93472
3.63113
32.0925
1.38372
14.6674
2.71444
1.49887
32.5178
28.057
1.50626
1.96669
32.2557
4.33973
4.19461
3.6885
1.67522
1.56194
1.65582
28.9375
0.647558
1.60783
1.38049
32.694
2.60238
29.2197
3.41168
1.67292
32.8961
0.458088
1.5896
1.72961
2.10697
35.1605
13.4119
5.35584
20.4749
1.5966
31.3643
0.540351
1.5992
32.2843
32.1233
5.26117
5.70966
2.32459
34.9884
3.79625
5.60817
2.87033
5.40439
32.2514
32.9068
1.95603
33.6723
1.77875
5.47797
1.61212
0.561682
32.4473
4.58745
1.94049
32.3197
29.2253
1.27293
32.7483
1.27418
1.20812
32.6057
35.0962
2.7283
32.3824
31.965
32.5129
0.537666
6.54303
3.49145
33.0142
3.38845
0.905318
31.8514
0.890712
0.968506
0.592734
5.661
32.0356
1.74528
0.510926
0.973967
0.909363
0.602141
5.50867
3.1577
32.5855
-0.0636529
0.643746
32.5212
0.963713
32.4522
32.2082
32.7821
32.5151
32.4755
4.97345
32.3694
0.896006
3.99284
32.8413
3.94034
32.2713
0.650868
32.3353
5.42972
31.4593
3.26864
5.16391
5.659
1.01161
0.642235
3.38079
0.592623
1.03796
15.4123
0.991561
2.16375
1.05174
32.8347
2.0133
5.69321
1.02531
3.03034
5.62628
32.8167
28.8511
32.2821
3.43497
32.4591
26.562
0.643687
33.8074
4.22034
32.2934
32.6994
32.0974
2.16344
3.6704
1.07823
5.16676
0.561569
1.84472
1.80016
2.20213
0.716644
1.77824
1.83682
32.4991
32.2104
32.8714
2.7234
1.962
31.8373
32.0945
26.9519
1.84732
0.747522
32.4279
1.83776
32.6276
5.12515
3.45903
5.29378
32.5171
32.5988
2.15058
32.5476
4.49144
0.988028
31.1027
2.44258
3.03499
0.44563
32.2785
5.33735
29.5406
4.24917
3.48065
32.5328
32.8308
0.956974
24.794
32.8213
1.26563
0.520382
32.5825
32.2322
29.3613
1.77037
26.9271
2.72819
4.86234
4.25685
32.5952
29.3473
4.78218
32.5987
32.2534
32.6895
32.468
29.6906
31.6549
31.1398
32.3191
32.1974
30.6342
33.8049
31.3756
4.52021
31.4001
28.4646
27.2297
35.4815
28.8862
32.5994
4.87236
30.5605
31.5963
4.9952
33.1899
34.3902
32.1446
4.87675
33.718
4.8903
5.26145
4.28034
30.1664
32.4329
4.9078
5.1282
32.1065
32.8112
2.71898
29.8925
2.69601
29.6509
32.2086
31.8643
2.69946
2.68576
32.6532
3.85755
32.5571
30.5437
5.36715
1.49426
4.878
32.4467
2.70411
30.009
4.10915
32.0308
32.2904
31.9582
29.2299
1.47089
1.74996
32.7445
3.92194
32.3381
32.3839
32.3318
32.4735
4.6018
4.56807
1.77321
6.36637
32.7635
3.44353
2.76899
1.37125
4.58403
32.5976
1.42535
4.66204
2.39677
5.23005
2.58312
32.4147
3.18156
4.67054
2.72102
4.70898
4.85956
32.359
4.92828
31.8806
32.6231
2.26708
32.7603
3.46919
32.6709
32.4491
31.4429
32.309
32.7875
4.62517
32.2835
3.90155
30.2596
32.3081
3.35882
4.57264
1.86358
3.77326
32.8265
8.80202
32.7474
4.14206
32.4511
3.34472
4.57287
4.68613
4.20331
32.5278
32.5509
32.2295
1.52986
32.3425
32.3047
1.52579
31.7261
31.9132
4.72042
32.5236
2.55474
5.19662
30.1031
30.8803
30.6735
1.74145
2.90965
32.4608
0.0664079
4.03654
29.595
4.75919
32.6978
1.54581
3.40365
1.40098
32.4386
3.57582
1.89686
4.8959
4.60303
3.94084
32.5349
32.5685
5.75285
32.3383
32.0261
32.6384
1.54237
4.77545
2.00802
2.93357
29.176
3.54337
2.73449
2.92506
3.29093
3.58964
4.38623
3.91202
32.0936
32.0813
32.0818
3.96025
32.3015
4.01258
23.8966
3.88562
4.61042
1.5362
0.790318
31.9201
32.6576
3.89635
3.87684
32.6577
32.1185
32.8677
1.67788
3.86162
4.01205
4.05221
0.467201
2.72614
32.3569
32.7607
32.5896
0.463928
2.60983
0.0575472
2.99892
1.75112
4.08101
32.0805
32.5856
27.4269
31.8823
0.49728
3.52892
32.5438
32.3639
32.4518
32.8381
32.7541
31.617
4.18971
32.4193
5.01124
6.05912
31.8839
4.12089
0.187199
1.60299
32.8464
31.7888
4.16534
32.5424
4.18341
2.70411
1.76551
31.4524
25.7748
32.0472
32.4228
32.3476
31.2416
13.372
32.3159
4.2672
2.01117
32.6006
32.5793
4.28226
32.365
32.2136
2.40003
5.47128
32.2791
32.2723
31.5302
0.959808
32.5514
32.5603
10.2908
4.24048
4.29648
32.4432
31.8765
29.9167
4.28001
4.24918
4.27091
3.07315
31.9831
0.845799
0.180662
0.220741
32.2712
32.7717
32.5878
32.6654
32.5524
2.40076
2.46277
1.98025
32.8983
32.692
32.5431
32.6489
31.8678
5.13371
0.613978
0.125781
31.8143
32.5252
33.0168
3.32934
4.78179
5.44041
32.2348
0.00937955
33.3545
32.1523
32.5629
2.40393
2.67028
32.3329
32.3306
3.22969
32.573
1.75377
2.21658
15.3948
32.3125
31.9072
1.7844
5.10359
32.2545
14.7743
0.404537
3.54306
32.4204
32.3541
32.8571
32.6188
0.544673
1.27283
32.3584
5.14771
4.49691
7.14895
32.4627
32.3521
32.334
32.3588
3.58708
33.78
32.4736
31.8691
0.862268
3.95058
1.06109
32.0986
32.7894
4.51631
31.3256
32.5766
32.3704
32.4199
2.54938
31.5832
31.8805
31.9282
1.06112
2.65129
32.3397
32.7309
32.226
3.06821
33.0176
32.2678
32.2375
32.7515
32.7038
5.70822
3.55622
33.0281
2.82602
3.54549
2.48085
32.8717
32.8199
32.5279
32.698
31.9059
3.3724
32.4666
30.502
30.7022
4.50707
31.3644
4.46549
32.5557
32.3026
5.39091
7.44613
29.7443
4.55391
32.4606
4.53534
33.2534
32.3377
32.5022
36.1248
32.3367
5.1025
32.3065
2.96412
32.3469
29.3918
32.7231
32.3349
0.9784
4.28764
32.0702
15.1442
32.4867
4.42248
5.08002
4.2126
32.5151
5.1875
4.11206
5.09821
3.61111
4.53103
4.15145
31.5719
31.9452
4.18602
1.52857
4.17871
32.3515
31.2973
27.5608
17.1695
32.8666
31.8379
32.7401
32.8299
32.894
33.5168
4.19178
5.30834
2.00707
29.1283
5.56131
32.7395
3.38341
32.5913
32.8957
32.1858
31.5988
5.21053
31.5665
32.4835
32.4583
2.91769
32.4764
32.6571
5.28753
32.3323
25.2537
22.6003
21.5231
32.839
22.2353
21.6999
22.078
24.3301
31.9627
31.9639
2.87828
4.32415
29.4748
29.7257
32.0068
2.90968
33.1768
31.9965
5.17869
32.3782
32.5376
4.54207
5.29843
32.7606
31.8659
5.79511
29.3319
31.7334
5.20428
3.11731
3.11945
31.9798
3.14078
32.7867
1.94738
5.05323
3.09469
32.481
5.06509
3.12474
32.4507
3.03464
32.2468
2.94441
30.9916
2.9118
31.974
5.05843
32.2941
31.5804
32.3372
1.59277
1.62341
32.8278
3.17694
5.23916
33.0451
32.4725
2.35166
0.141769
5.93136
32.8657
3.30332
3.2298
5.32202
3.67476
32.8904
5.78739
31.9601
5.62402
32.5939
0.80243
-0.0834291
32.2147
2.05615
31.9178
5.26283
32.0755
32.2293
32.3622
32.6604
32.2801
32.5424
4.31693
2.46223
5.58217
32.3296
27.0519
5.59929
32.3541
32.7501
32.3433
32.8246
32.3869
0.151603
32.4797
32.7706
31.9396
0.125141
32.2553
32.1186
31.0475
0.559675
32.1811
0.475445
3.89334
4.09995
0.545958
0.426236
33.2762
32.3437
32.4978
0.648826
1.0856
31.4723
26.95
0.539225
32.6467
32.7928
5.61826
32.2403
3.20421
32.3208
0.457086
5.22472
32.3508
31.9544
32.3319
32.7465
32.6336
5.34209
32.3233
0.548738
32.458
32.4351
1.18102
32.3313
3.38121
31.8391
32.6536
4.35927
2.06652
5.72443
32.7416
32.7534
32.513
2.06993
5.59973
32.4612
32.1123
31.4041
1.29905
32.2998
3.431
5.6695
32.4205
32.3497
1.29244
32.5661
31.3837
32.1802
32.4253
32.26
5.61272
26.6647
31.8422
32.705
27.209
32.3559
27.9354
32.159
32.28
32.0106
2.05313
32.2066
1.26146
32.0868
32.3259
6.21234
1.31726
32.2862
32.3194
32.3541
1.27154
28.6697
32.4699
31.7221
32.3375
1.39663
32.2901
5.60753
32.8702
4.07804
29.3468
4.84265
32.2933
32.6267
3.89785
28.109
32.3334
1.07739
3.99332
32.8831
32.7418
4.32794
4.87317
1.30938
1.24839
1.25165
4.37623
1.28453
5.00185
32.4456
5.56447
27.1634
26.8012
32.4481
32.2014
32.6144
1.26393
32.844
32.866
32.8249
5.39647
4.9642
26.1543
4.50467
32.7744
4.68157
31.7239
5.36694
1.46397
27.3967
4.02355
32.2064
32.1699
32.0803
1.47052
4.08505
32.5082
32.2233
1.43637
32.7377
5.83342
32.7355
5.64398
32.5693
32.0768
32.7394
32.066
1.14479
32.0654
7.45116
32.3463
4.21017
32.4453
32.3642
20.8596
19.821
32.4136
32.3812
32.5899
32.7756
4.01015
5.78415
23.7765
32.7262
4.10284
31.9966
32.3253
5.00991
3.1247
5.52703
32.0923
0.790514
4.31154
2.18502
3.33278
32.6037
32.8908
32.905
32.762
32.1023
32.0685
32.0689
32.1442
32.0921
32.0695
32.5495
32.0552
5.55738
32.0778
32.3482
34.7981
32.7584
32.4537
15.4453
31.987
32.3918
3.28796
5.80803
32.1771
32.7995
32.5437
2.93217
32.5747
32.549
5.72831
32.207
32.3255
32.6312
32.7096
5.36952
32.1574
5.77994
32.7205
32.5974
32.3998
32.4559
32.3599
5.74628
5.70006
1.65177
32.7671
31.7657
32.9072
5.75278
32.3155
5.70433
5.86215
32.1811
32.3318
26.1334
4.99533
32.2055
29.6598
5.03007
26.4171
4.47501
32.4155
5.07728
26.3006
24.7108
32.5534
3.96959
32.222
3.96228
5.32529
32.3042
4.00675
5.31613
32.569
5.32023
31.9129
32.2392
32.3162
32.213
32.1478
32.0433
32.3153
32.8309
5.64966
29.955
32.485
32.6283
32.2828
32.2649
2.94879
19.754
5.79319
5.58143
32.3243
3.82573
3.80041
32.5142
29.6035
32.1988
32.1861
32.3066
32.4878
27.7433
30.1145
4.61282
32.4326
32.8607
26.3205
28.038
32.1159
3.92541
32.2004
31.8584
32.7465
5.523
32.8341
31.994
4.39841
32.1722
32.3612
32.0993
33.0305
4.42969
32.4426
32.411
32.3742
32.3532
4.68201
5.58067
5.59513
3.94824
4.93881
4.9246
32.228
28.1195
5.83685
4.83843
28.086
5.8349
32.7006
2.92588
31.857
5.53337
32.4933
31.8617
4.95655
1.85992
32.2924
4.82771
32.4837
32.6144
5.51487
5.37116
32.7588
32.0383
32.3782
32.0929
32.3551
28.7745
32.7679
32.5991
4.78841
32.7752
32.55
32.4508
4.9881
32.3635
28.9053
32.1427
32.0377
30.6166
29.3236
4.98653
31.8277
29.374
2.9703
32.723
4.77301
4.79151
32.3667
3.04734
32.5715
31.1427
32.8764
28.9452
32.3621
32.7872
32.8722
32.8697
3.04711
32.7979
32.6641
32.7865
32.0263
32.4728
32.1787
5.55852
32.5563
32.7343
5.32022
32.5123
32.118
32.5053
3.08812
32.4225
5.25633
28.637
5.1858
0.411744
32.0813
28.1043
2.96199
27.2283
32.0816
5.61676
5.10407
0.00657452
5.14109
5.60351
2.63209
32.4708
31.7984
3.72009
5.64329
5.50551
3.6104
5.23712
32.3179
0.718382
3.6582
3.6789
32.5173
3.67882
0.616946
2.17919
3.50715
5.56021
3.81112
0.912114
3.4026
0.122557
1.62568
3.52204
28.9512
0.393448
0.0535506
3.94814
4.56411
0.253451
3.51127
0.175674
29.4787
5.69976
29.3053
1.96662
3.72504
4.55538
2.79513
29.2727
32.0981
3.43021
2.82984
5.56037
5.58788
1.02719
3.69263
22.2419
3.74099
32.5562
6.47527
5.65501
5.14614
2.20044
5.60454
5.59666
4.2465
2.65217
2.55854
1.99582
3.719
0.56208
26.6419
23.9799
3.73639
32.3606
32.5501
3.53345
3.641
0.359855
32.3877
5.15368
5.36737
2.59578
24.7091
32.5506
5.39768
0.101548
5.64664
32.8928
1.01557
32.6383
2.77595
4.19854
4.99667
5.04616
32.3678
32.5794
5.49312
3.63087
3.68458
32.5606
2.91856
3.62744
4.54377
32.2119
2.65658
0.286081
29.249
2.19771
1.86632
5.3994
31.6625
5.28221
6.07281
32.5722
4.4532
0.45897
11.2704
4.46569
4.54274
0.880951
4.00639
4.47112
0.321426
5.32924
5.41731
4.29405
0.797433
3.77038
5.6436
2.83134
4.52975
1.67743
3.56837
5.69045
0.946218
32.6027
4.52046
4.47662
5.53834
1.19361
5.14683
31.8573
4.48936
2.17608
32.6031
5.11957
0.0567675
4.51362
4.35109
0.590852
-0.0510479
3.93461
4.32847
5.24905
32.6132
32.5429
5.30204
32.436
5.32571
5.30744
31.6195
0.605476
4.59951
2.78313
32.7862
2.19079
2.46009
5.17172
5.58222
2.40489
1.09713
2.9341
4.86686
32.5508
32.2317
5.58236
4.78958
5.11932
3.11598
32.2315
4.83513
4.27076
31.611
2.91109
3.73921
0.00860638
5.67991
4.97501
4.13038
0.98816
3.29844
32.457
4.54364
2.33363
4.30267
5.70958
32.2383
5.04204
32.6432
32.5059
2.47437
4.17209
2.69094
6.90457
5.20898
11.1984
32.1398
4.12439
4.31857
2.96646
2.7353
32.3396
32.5153
32.4703
2.71907
2.74203
5.63588
2.15121
31.3655
32.2612
2.69843
3.03473
5.08711
2.75159
2.72189
3.35419
4.90263
20.653
31.9649
4.13445
0.352631
32.2536
3.8099
3.22565
6.216
4.14846
3.20177
5.30052
32.2574
2.80972
3.35366
32.4109
31.4266
0.299274
0.510189
1.19127
0.530511
3.26809
3.30479
0.924824
2.17149
3.07545
0.506449
32.2282
32.193
0.0463772
0.618163
3.19325
5.91971
3.18235
3.04983
4.27051
2.69169
3.1614
32.0313
32.4353
5.85138
32.2101
28.7834
3.41129
2.18494
3.28017
5.76366
30.1119
5.02547
5.99386
30.5718
5.93952
5.61822
3.16643
3.18877
0.275246
3.68082
5.52794
0.57871
32.5225
30.3892
5.44622
1.09292
2.72047
1.12392
5.03761
4.7444
5.55746
30.4754
3.38895
0.893281
2.92221
5.86381
4.98904
5.46066
5.62511
3.33586
0.833058
30.1153
4.65093
3.2691
15.7155
28.9166
27.1234
2.98832
28.4074
0.199921
2.92576
2.71616
3.67066
5.266
22.9908
16.4906
33.0008
28.3889
5.28426
32.0758
32.0735
2.5313
32.5254
2.17447
2.8063
2.57444
2.02021
2.14038
3.7173
27.118
1.06024
0.495479
4.70378
3.50448
2.03389
3.32946
32.1146
5.62966
2.00769
4.0449
32.0839
4.41524
3.43405
32.0768
32.3052
5.09799
1.97789
32.7898
3.90722
3.52272
5.08624
32.7135
32.067
0.372374
5.57145
3.70069
32.0935
32.3213
32.0765
4.21997
14.8461
14.0398
1.32426
5.10486
32.8846
1.39118
5.16696
3.0304
0.428705
0.355773
1.4892
4.97995
0.44051
32.6602
1.48984
0.881822
0.169377
2.44055
0.615912
0.64026
0.589961
0.657832
0.227213
5.34233
5.29103
3.33014
5.1663
5.59371
5.03436
0.615541
5.32553
0.690251
0.192884
1.80793
1.16621
5.18158
1.13774
5.35828
1.27279
31.137
3.36826
18.9903
2.51426
3.68204
32.4168
4.50157
31.1453
3.84036
31.2428
32.2604
2.7243
4.57382
29.0615
1.06318
2.7752
4.59562
32.2672
32.7478
5.46632
1.51467
5.70102
2.49035
0.915732
4.47278
5.61388
4.29622
4.5274
27.6188
3.33487
32.1298
32.3178
1.91866
1.41498
5.79507
1.87843
1.23811
4.54843
4.67162
31.8997
5.53989
1.23594
4.47628
31.9233
32.838
3.33672
3.8617
26.4699
5.17126
0.196999
3.9926
-0.113781
1.04627
2.53884
32.312
21.4311
2.03501
5.48247
32.7167
1.94022
5.15825
4.14553
6.17786
2.02237
6.05931
3.33136
5.38498
22.5144
5.47951
32.4366
3.83125
4.57034
1.00503
0.0961284
28.1996
0.116741
5.4758
4.37156
5.22706
30.7411
32.0709
2.15423
5.44049
4.38091
3.79909
5.13627
1.54169
0.329079
2.89505
0.452907
0.291878
5.17353
29.6834
5.70344
4.27876
0.03614
5.07028
30.3118
31.9334
-0.980317
5.69533
33.3385
5.62338
4.73584
30.4591
23.0478
24.2056
4.6188
1.99548
7.01879
25.4929
5.03494
2.27617
31.271
1.2201
28.8678
4.13466
1.57554
32.3922
0.337203
5.12896
5.11754
1.4263
32.0018
5.4674
4.86554
5.34233
5.14262
5.35569
5.43869
4.70882
5.80677
4.81976
0.832738
2.01783
32.2836
27.7834
27.794
31.6579
4.39225
2.35004
2.07393
5.02739
1.20105
2.09592
3.9796
4.60023
4.40991
1.52703
4.748
4.97108
4.21481
1.14673
32.4664
5.05264
4.98763
4.50901
4.80788
31.2599
2.7127
2.75712
3.84724
3.77796
3.03547
31.8236
3.05578
3.02173
28.8258
3.10605
4.26729
31.6544
3.01702
31.5981
32.5005
2.69886
4.48775
4.30189
2.99899
31.9191
0.573379
4.69843
32.5077
2.52896
3.15021
2.60524
4.37734
31.7298
4.59303
4.58371
4.11263
31.8949
2.25655
0.889071
4.16894
1.90398
2.35207
32.8659
31.1646
29.7991
0.240212
30.2553
2.16399
1.78566
0.62793
32.3675
0.69649
31.7461
32.4676
32.236
2.59459
0.00956871
5.63161
4.18316
2.33572
30.944
28.8707
5.13596
5.03472
1.82619
5.47576
2.32231
5.10078
32.4586
25.1504
25.5914
32.0156
25.82
0.143064
32.5428
2.20256
3.93383
2.35041
0.47432
2.733
27.3659
1.77016
3.95641
4.58223
5.32747
27.5088
32.4272
4.69015
1.80834
5.5431
4.7636
5.59278
5.63344
5.45527
5.66995
1.49042
0.329032
1.4657
3.80478
1.37511
3.97546
4.25091
0.991409
1.38153
5.54962
4.54673
4.76449
3.29962
2.30868
0.979652
5.34052
32.4948
2.9531
-0.122121
0.583429
0.369956
0.130354
3.98411
3.09159
-0.739167
0.400998
5.71941
32.4297
2.18934
2.98473
3.25805
32.3363
2.4233
1.37415
0.414385
2.99558
32.8693
32.3936
4.29603
0.902057
0.85675
0.186068
32.0339
32.6158
32.2434
3.28563
3.9596
0.804281
32.6125
2.18539
32.3954
32.4534
0.427252
0.30496
31.8322
0.81713
0.84123
0.0832909
32.4712
32.7277
1.45346
3.97466
32.4235
0.723635
0.809735
0.470264
32.5782
32.5978
32.4964
0.457253
0.721967
5.14692
0.805604
32.4163
0.636591
3.73219
5.16473
4.77817
31.5097
32.4087
0.770548
5.40698
5.27285
2.82161
31.5168
5.64273
32.1238
1.00809
5.625
3.76302
31.6908
29.7036
5.42964
5.69769
29.2414
29.3841
32.1467
2.5697
31.0874
28.2321
3.91573
3.83797
32.1407
28.8648
3.369
0.793196
0.76929
2.61707
2.21548
29.2622
3.99902
27.3401
26.8021
32.2974
2.7411
4.41551
0.735884
26.9307
34.0385
3.88526
5.61773
4.13297
4.45532
3.51973
3.10139
3.47759
0.849713
26.5318
3.7599
2.76869
0.841036
2.60051
4.37982
20.8418
2.52248
2.52798
2.53186
2.52726
0.919834
25.8798
30.0465
2.93452
30.2148
30.5399
3.54476
30.2844
2.17096
29.7122
30.0117
31.8136
29.026
2.80664
0.968613
2.82465
29.63
1.38923
2.67242
3.66672
30.0323
32.601
2.84495
2.9781
5.60826
2.84934
28.9386
0.0599752
0.753411
0.54602
31.9206
31.9728
1.71099
1.42182
32.074
30.137
5.00421
0.0518194
29.5823
5.47385
4.95471
4.99204
3.09706
29.8693
3.49623
9.79154
0.421995
0.37146
5.07805
4.92809
4.64578
1.97351
3.59895
29.2927
3.99763
3.60397
5.58615
5.34276
5.0074
29.9518
2.46253
3.67291
2.10578
3.10507
3.6186
5.48955
0.667741
5.19548
4.70409
5.04844
1.52942
5.06546
5.33535
3.55947
4.3525
32.4811
4.98445
32.8769
3.51659
3.68471
5.0614
5.24807
4.99092
3.55579
3.58098
5.42359
2.80772
1.01224
31.8547
25.6259
5.25051
5.27871
4.21164
5.33289
5.69502
5.3702
5.71436
5.98681
26.4802
0.969325
6.06287
0.516877
27.242
0.203131
25.6705
2.74104
3.54432
5.31246
2.52999
32.4995
3.47411
5.53399
-0.547824
32.0918
5.63453
0.862124
4.64838
5.61961
5.6649
25.9811
32.0574
2.56283
3.77823
2.04869
3.77217
3.40335
3.79802
5.81379
28.1593
0.312651
27.3513
3.92475
0.896742
4.05334
32.6963
24.059
5.36987
3.82257
2.78033
4.05795
32.0814
4.0776
4.08935
0.30953
4.0773
15.6174
10.7138
4.15609
32.4593
31.9619
2.49804
15.2956
5.29489
32.7437
1.8941
32.2595
3.51248
32.3923
1.20991
5.20527
5.19225
4.05107
4.27525
3.68474
4.92363
5.61623
0.398408
5.2803
2.34233
5.2451
31.1286
1.38964
31.8835
4.30609
4.34413
3.43974
3.07467
4.24869
0.503935
2.71605
4.16161
4.15505
5.36655
4.90926
5.48317
32.7297
4.18152
1.02491
3.85529
0.949691
4.22454
3.65049
1.39363
5.6943
3.80242
4.02667
3.81719
2.39299
4.31813
3.47848
31.9486
31.9208
3.64943
3.77254
4.66391
32.1604
2.86952
0.381754
3.61395
2.73754
1.75611
2.88599
2.45133
3.78366
0.0574625
2.19867
4.88871
1.85266
3.24668
2.94615
2.69307
4.91295
4.26064
1.84118
5.73569
3.99672
4.86094
1.59411
4.45543
4.025
2.09849
0.610297
2.86097
3.73767
1.7211
1.40533
31.7841
4.40105
4.56019
4.83601
14.9793
4.41077
27.4099
2.52627
4.3359
0.66821
4.6777
32.2221
4.28579
4.83869
-0.502761
4.50341
3.47355
4.8572
32.0731
2.96925
0.571198
4.79247
5.63257
4.50961
31.7457
32.1041
8.77542
30.1218
4.89965
32.3538
5.62457
8.79099
30.1014
30.3071
0.49448
30.7194
32.5495
4.86991
2.85332
32.8766
3.42896
2.56049
3.50106
0.995992
32.5503
5.49006
4.88085
4.70824
6.84028
32.5522
5.75862
4.78661
5.27197
32.0564
2.94755
4.76583
32.2196
2.52919
32.4779
32.4391
5.59246
4.72709
32.6395
6.09296
5.6788
5.74172
5.62799
4.14452
5.56605
5.50076
4.3156
4.88987
32.8506
2.39566
0.884453
1.70701
0.275342
5.6643
0.843401
2.53736
32.6178
32.3562
3.82872
5.59246
4.94628
2.4045
4.97518
2.73069
0.288291
32.1275
0.0158642
5.60833
0.716723
4.90876
1.61787
32.6273
5.63521
4.33945
5.49721