/*--------------------------------*- C++ -*----------------------------------*\
  =========                 |
  \\      /  F ield         | OpenFOAM: The Open Source CFD Toolbox
   \\    /   O peration     | Website:  https://openfoam.org
    \\  /    A nd           | Version:  10
     \\/     M anipulation  |
\*---------------------------------------------------------------------------*/
FoamFile
{
    format      ascii;
    class       volScalarField;
    location    "4";
    object      T;
}
// * * * * * * * * * * * * * * * * * * * * * * * * * * * * * * * * * * * * * //

dimensions      [0 0 0 1 0 0 0];

internalField   nonuniform List<scalar> 
111485
(
303.15
285.051
301.22
303.15
298.797
283.15
299.378
293.032
296.77
286.285
300.839
296.211
300.525
284.509
300.343
286.55
298.864
299.472
294.644
303.15
303.15
283.15
297.741
288.443
301.461
303.15
293.261
300.419
289.289
303.15
300.802
293.778
303.15
283.15
283.476
283.15
302.322
298.255
283.149
297.016
283.15
289.914
297.416
302.904
303.186
303.15
287.528
288.306
289.96
303.15
303.15
283.15
303.15
299.186
303.15
294.207
287.689
283.15
283.329
295.933
296.338
303.15
302.257
300.423
283.15
284.69
300.895
291.353
302.282
302.576
303.17
302.041
303.15
302.299
303.15
294.852
283.15
293.653
283.15
283.15
283.248
293.533
283.15
303.15
300.658
284.316
283.15
301.677
303.134
299.638
283.423
289.728
301.161
300.074
290.146
303.15
303.15
301.678
303.149
283.439
303.15
286.752
283.15
285.362
285.554
283.15
283.15
292.454
301.522
283.146
299.03
288.52
301.483
301.779
303.15
302.11
303.15
283.15
300.521
303.15
303.15
283.15
283.15
283.15
283.426
303.153
283.15
301.977
303.15
283.181
303.079
302.07
303.15
283.15
283.15
293.069
283.15
294.884
299.229
301.399
303.139
297.275
299.397
284.819
302.311
298.434
283.15
303.15
283.15
297.65
285.02
303.15
303.145
287.836
283.156
294.297
296.192
302.503
283.154
303.15
303.15
292.78
286.233
283.153
283.157
301.509
283.719
283.15
283.153
283.154
283.15
303.15
283.216
283.15
291.088
287.293
283.15
303.15
303.15
283.15
303.15
303.15
298.119
294.086
296.352
290.43
301.501
300.813
283.193
303.15
301.715
303.15
303.15
300.58
286.312
301.55
301.153
296.195
303.15
300.824
284.612
283.161
300.915
296.635
303.15
300.808
288.471
303.15
283.238
300.255
284.873
301.07
303.15
303.15
301.081
283.15
293.152
283.15
300.996
299.183
290.512
303.15
301.812
300.655
283.15
283.15
283.15
289.667
283.158
283.15
303.15
299.127
292.145
290.382
283.15
303.15
303.111
303.15
284.354
300.507
299.726
299.995
299.873
283.15
283.143
299.409
283.15
283.15
288.844
288.869
283.15
301.256
299.437
303.15
283.15
301.045
303.15
303.15
303.122
303.15
288.191
285.723
291.535
303.15
298.914
303.15
303.15
303.15
283.148
298.212
301.304
299.866
291.175
299.918
296.749
283.217
290.968
292.385
283.15
303.15
283.149
292.038
298.949
286.47
303.15
298.485
297.682
299.371
302.967
283.165
297.659
299.808
302.028
283.15
283.664
283.15
283.149
303.15
283.982
290.236
286.601
303.15
283.15
298.138
285.616
303.15
303.15
303.15
284.858
290.958
301.33
284.531
293.488
283.15
283.15
303.15
298.885
303.15
283.927
289.838
283.152
283.15
303.15
303.15
283.15
294.888
289.802
283.15
296.347
283.15
303.15
301.193
297.882
293.962
296.44
283.15
283.15
283.15
297.217
291.768
302.404
283.15
283.15
283.149
289.958
297.512
283.225
290.957
283.15
293.263
299.987
284.242
298.877
285.215
283.15
303.15
283.15
303.15
290.341
296.073
288.263
292.527
283.15
286.322
283.15
303.15
294.308
303.15
302.04
303.15
283.15
292.423
283.15
289.465
284.689
283.15
283.981
298.539
283.15
300.568
284.807
299.344
303.039
291.776
285.926
283.15
303.15
303.146
283.15
301.186
300.975
283.15
283.15
294.217
284.37
298.793
296.675
283.15
295.404
296.193
283.15
302.137
283.904
303.15
303.15
288.877
298.973
283.15
303.15
303.15
303.15
300.703
283.15
303.15
293.906
283.171
287.126
300.23
283.15
283.15
302.675
283.15
302.528
301.556
298.142
289.929
283.15
294.597
303.389
303.15
298.897
292.248
303.15
283.15
283.313
283.15
290.187
286.362
292.37
283.15
293.583
296.594
293.766
303.147
283.15
303.15
303.15
283.169
293.457
283.15
284.376
303.136
283.15
303.15
303.15
303.15
301.741
291.198
286.068
284.244
284.366
283.15
285.784
303.15
300.935
283.15
303.15
303.15
300.778
303.15
303.15
283.151
303.15
283.15
300.836
283.15
283.15
283.15
303.15
283.15
303.15
283.15
283.693
283.15
303.132
301.839
283.787
283.15
303.093
283.15
303.15
284.7
284.667
286.178
297.842
283.15
297.806
297.906
293.015
287.315
285.255
303.15
292.445
283.15
300.085
283.15
297.111
283.15
292.805
298.705
303.15
283.15
287.293
303.15
295.861
299.351
283.15
283.15
283.15
283.15
303.15
294.019
283.15
283.15
283.253
283.15
300.054
283.15
284.868
303.15
283.442
303.124
284.821
292.622
283.15
301.451
283.15
283.15
285.756
283.15
283.264
283.15
299.909
303.15
290.955
303.15
283.15
302.445
284.483
300.301
285.678
300.292
289.404
283.15
300.816
284.561
283.15
283.139
300.551
301.719
283.15
282.349
301.26
303.071
283.118
303.15
287.567
302.313
284.417
285.442
288.792
282.449
283.15
303.15
301.014
303.15
283.58
283.15
283.15
292.451
282.645
303.15
303.122
283.15
286.352
299.889
283.15
283.15
299.898
303.15
283.15
283.15
283.15
286.218
283.15
303.15
284.867
284.358
303.15
299.984
283.15
288.787
303.15
283.15
286.235
283.15
283.15
283.15
285.728
283.15
285.526
292.624
303.15
300.547
283.455
299.04
301.049
283.388
283.465
283.15
289.19
298.814
303.15
302.183
296.196
297.261
284.696
297.818
297.534
303.15
300.314
303.138
283.15
297.55
284.923
283.15
293.047
296.173
284.933
299.095
300.858
293.021
283.15
299.212
283.476
303.15
300.788
302.087
294.804
283.15
286.985
303.15
283.15
283.15
283.15
283.315
283.15
303.15
303.15
283.15
300.604
299.527
303.15
285.706
303.15
303.15
303.15
290.095
283.436
283.15
303.15
283.15
283.15
287.081
293.067
283.15
295.527
283.134
283.15
295.684
302.297
288.332
283.15
283.15
300.65
292.801
283.15
283.15
283.15
294.164
303.15
303.15
283.15
296.618
302.425
283.15
282.633
302.021
287
283.15
283.15
287.495
302.996
283.15
283.16
287.793
283.801
289.165
283.15
285.798
300.423
283.15
303.15
283.15
283.15
283.15
283.15
296.067
303.15
283.15
283.15
295.683
292.513
303.15
303.15
290.033
298.934
298.824
303.15
283.15
298.505
303.15
283.909
299.381
298.909
303.15
303.15
303.15
283.15
286.031
283.15
283.15
302.726
303.15
298.296
302.335
283.15
294.76
283.258
297.024
292.031
283.447
290.013
283.15
283.15
297.442
288.33
290.465
283.15
283.15
298.553
295.481
283.15
283.947
284.673
283.486
303.15
303.15
303.15
290.289
283.15
300.455
283.15
284.339
297.52
298.924
292.983
283.15
283.15
303.15
296.06
283.15
283.15
303.106
283.15
283.15
303.15
283.15
299.702
283.15
283.15
283.15
283.15
283.15
303.15
283.15
283.173
298.571
303.15
302.526
283.129
283.407
283.091
285.751
283.15
284.471
290.669
283.408
303.15
283.15
300.159
283.15
300.644
283.166
283.143
286.233
298.031
283.229
291.228
297.448
283.15
283.15
299.502
300.116
283.15
297.807
291.242
296.975
283.15
283.25
283.15
297.344
296.396
283.15
300.537
297.069
283.149
300.236
283.15
295.563
283.144
303.117
283.163
283.16
283.15
283.15
284.515
283.15
302.98
283.623
283.1
303.148
303.149
303.148
283.15
283.15
294.495
303.15
303.133
283.898
283.15
283.15
303.155
303.15
283.15
303.164
283.15
283.15
303.15
303.15
303.15
303.15
283.381
283.15
283.15
283.15
303.159
283.315
283.893
294.155
283.15
283.15
283.348
283.15
283.15
283.15
287.328
294.251
283.15
283.15
283.15
283.15
283.15
283.15
284.041
283.15
303.151
291.608
283.15
303.15
303.15
303.152
303.15
303.15
283.15
303.168
283.15
283.733
283.144
303.152
283.15
303.068
284.495
292.66
303.15
303.13
284.56
303.15
283.15
303.15
283.15
294.738
293.69
284.74
303.148
283.15
293.909
283.15
283.15
303.15
283.15
295.434
283.15
303.15
283.163
298.013
303.15
284.494
283.15
283.618
283.15
283.15
283.15
303.15
286.27
283.496
284.621
283.15
283.15
286.045
283.15
283.15
303.15
284.454
303.163
298.91
303.15
303.13
303.131
283.15
303.134
283.15
283.472
289.336
300.76
283.86
283.167
283.15
283.15
283.15
303.18
283.15
302.937
303.15
293.418
303.15
288.428
283.831
303.15
283.15
303.15
283.15
301.915
303.15
303.15
286.875
300.747
283.15
283.15
283.15
283.15
283.15
283.15
300.996
283.598
303.15
303.15
303.156
303.15
300.396
284.428
283.15
302.198
303.15
301.726
283.15
302.668
283.15
283.148
303.152
283.329
302.218
300.432
283.147
283.15
289.458
303.15
294.019
303.15
283.15
303.15
283.15
283.15
283.15
300.981
302.143
303.15
303.15
303.15
302.932
283.149
303.15
293.524
283.08
303.15
297.064
297.774
297.059
283.392
283.15
283.15
283.15
283.15
295.185
283.15
295.154
283.15
303.072
289.654
283.15
302.894
283.15
283.15
302.79
283.148
302.917
283.15
303.15
283.15
302.525
283.15
303.15
283.15
283.147
283.15
283.174
283.15
283.15
303.15
292.403
300.933
296.272
297.482
303.15
303.122
283.15
283.15
286.105
283.15
283.158
302.882
298.381
302.969
303.15
283.393
283.15
303.15
283.15
303.007
283.353
297.839
283.15
303.15
288.095
303.15
283.15
283.12
295.277
283.147
283.15
283.15
283.148
303.15
283.15
303.144
303.15
303.15
290.418
303.006
303.023
289.508
293.972
283.15
283.15
303.104
289.584
283.15
303.15
284.884
283.15
303.15
283.15
283.15
283.15
298.071
283.15
302.951
283.15
300.69
283.15
283.15
283.15
283.15
283.15
283.15
285.251
283.15
283.15
283.15
283.15
283.15
283.15
292.606
283.15
297.902
302.97
283.15
302.301
283.15
302.587
303.145
291.637
288.425
303.15
291.512
284.973
303.116
303.15
303.139
294.521
288.51
283.15
287.817
283.15
283.15
283.15
283.15
287.566
283.15
283.15
291.042
303.138
285.199
283.15
283.15
302.511
283.15
283.191
303.15
299.573
283.15
283.15
302.821
283.15
303.177
303.15
283.15
288.842
298.011
292.147
286.013
292.862
294.105
283.15
283.15
302.401
290.112
293.371
284.501
283.15
293.794
283.15
303.15
300.951
298.853
283.15
296.98
283.15
292.313
297.825
303.15
283.15
283.15
301.948
283.15
283.15
300.777
295.681
283.199
290.774
283.15
283.15
302.834
300.793
283.15
300.92
283.15
300.793
283.15
283.15
301.071
283.15
283.23
301.823
283.15
283.15
302.569
283.15
287.838
303.15
290.7
303.15
303.15
303.15
301.189
283.15
283.15
299.929
283.15
302.997
283.15
283.15
303.15
283.15
288.1
283.15
283.15
287.957
288.134
283.15
283.764
283.15
303.15
302.51
283.8
301.347
283.15
283.15
283.15
283.15
283.15
283.15
283.15
283.15
283.15
283.15
283.15
303.15
283.15
283.15
283.15
283.15
283.15
283.15
283.15
283.15
303.15
286.893
283.15
283.15
283.15
295.325
283.15
303.15
303.04
283.15
283.15
295.342
283.15
283.15
302.051
295.798
283.15
303.538
303.558
283.15
301.609
294.585
298.048
301.734
298.694
303.15
283.15
295.835
292.312
301.687
283.15
302.321
302.446
301.191
287.827
286.958
301.364
301.716
302.008
303.15
285.99
298.084
285.779
297.808
283.15
283.15
283.15
303.15
283.15
292.582
298.413
283.15
283.15
283.15
283.15
283.15
303.15
283.15
303.15
291.679
303.14
299.505
302.84
283.15
283.15
285.458
283.169
283.15
283.15
301.623
303.15
283.15
298.648
299.95
298.029
299
300.982
303.15
290.539
302.641
303.15
303.15
300.628
303.15
283.15
282.886
295.828
302.96
283.15
303.15
289.903
286.349
296.531
292.781
302.533
303.15
303.138
303.15
303.15
283.15
298.782
283.15
292.345
290.545
300.107
284.695
303.15
302.142
303.15
283.15
303.15
303.15
291.314
300.133
283.15
303.15
303.138
292.323
303.054
299.832
293.54
288.032
293.56
283.15
303.15
283.15
291.762
298.86
303.151
303.15
303.15
303.15
297.741
302.546
283.15
300.442
301.279
285.15
300.009
303.15
303.15
299.216
293.61
283.15
302.926
299.893
302.61
292.541
297.899
298.784
303.15
286.789
297.692
291.949
283.15
289.642
303.15
288.232
301.358
303.15
288.51
301.522
300.202
293.787
283.148
283.161
283.247
301.912
301.218
303.15
288.367
301.681
303.15
283.15
303.15
303.207
299.224
291.61
296.771
303.241
283.149
297.863
303.15
303.15
293.489
303.15
300.145
283.32
301.561
290.908
303.15
283.677
293.936
303.15
283.015
299.231
303.15
301.085
286.225
303.15
303.15
283.968
303.15
283.15
283.15
285.676
299.601
291.698
303.15
285.445
298.063
283.15
299.41
299.439
288.651
303.122
283.15
301.316
298.912
299.409
300.517
288.267
291.096
302.438
303.15
301.447
288.535
303.15
299.418
283.15
283.15
303.15
283.15
303.15
297.622
283.15
300.932
283.681
303.15
283.871
283.15
289.527
303.15
303.146
303.15
294.2
303.006
303.124
300.22
289.911
289.285
290.025
298.963
303.15
299.831
292.755
299.391
303.15
283.863
283.482
299.717
287.176
283.539
303.15
283.15
303.15
285.557
303.15
303.279
284.646
303.267
302.962
303.15
303.15
283.15
300.899
300.548
285.878
303.095
286.668
296.301
301.769
293.106
288.734
302.003
296.715
283.15
283.15
303.15
285.806
289.429
283.15
283.15
303.15
301.916
289.303
303.15
296.96
303.15
283.156
285.407
301.108
303.15
303.15
292.896
303.15
283.321
290.09
283.15
297.661
294.463
295.434
303.15
302.752
283.15
302.725
293.912
303.15
303.15
288.343
283.15
303.15
301.977
284.623
303.15
303.15
283.15
302.365
303.368
289.932
299.931
298.048
303.15
303.157
302.644
303.15
283.15
303.15
303.15
303.15
303.15
303.15
303.15
303.15
283.15
303.15
303.15
283.366
303.15
303.292
303.15
303.162
303.15
303.15
301.099
303.671
303.15
292.269
303.15
303.15
283.15
302.617
303.15
302.214
303.118
283.3
283.15
303.15
302.953
283.149
303.15
303.15
291.893
283.15
293.126
283.15
283.15
283.151
291.76
284.77
303.15
296.683
283.15
303.601
303.135
284.277
302.65
283.15
292.703
303.087
301.741
283.15
303.15
283.15
303.891
284.758
296.466
303.15
303.15
303.15
303.15
303.15
303.15
302.442
302.85
297.579
292.419
303.15
287.486
293.154
284.965
303.203
283.15
286.804
302.8
284.675
283.147
287.207
303.15
283.417
302.947
293.073
302.882
301.986
303.15
302.259
303.15
303.15
298.442
303.15
284.642
303.15
303.15
283.15
303.15
303.15
302.882
303.15
283.306
283.15
283.15
286.122
285.009
300.663
286.282
303.15
295.349
303.15
290.54
303.15
287.53
300.852
301.615
293.518
303.15
303.15
303.15
289.322
283.15
303.15
289.087
283.15
283.15
301.937
303.15
285.966
283.148
283.15
303.15
303.15
300.613
298.662
303.15
294.188
303.048
283.15
298.636
303.15
286.125
288.096
302.122
303.15
296.633
296.288
302.969
301.992
301.689
303.15
303.15
303.147
303.15
283.15
303.15
289.101
300.09
294.06
302.263
283.15
300.635
291.927
298.661
283.666
298.697
289.955
302.268
283.15
283.15
283.15
302.306
283.15
290.782
283.15
301.422
303.16
289.252
297.65
283.15
303.15
301.408
301.387
303.15
283.15
303.15
286.093
301.609
303.003
302.436
297.857
288.107
303.15
303.15
303.15
294.992
286.276
290.376
296.408
283.957
302.985
303.15
303.15
283.15
283.15
285.252
299.892
303.15
303.15
283.15
303.15
303.15
303.15
300.478
303.15
285.481
293.253
283.15
283.253
293.54
285.469
303.15
303.15
302.011
303.15
299.443
283.146
297.516
303.15
303.15
283.15
303.15
303.15
303.15
305.517
303.15
301.962
300.953
303.15
303.15
301.747
303.15
283.15
287.163
303.126
303.15
303.15
303.15
298.551
303.15
303.15
302.612
302.559
301.904
303.15
283.15
303.15
302.146
302.584
301.661
302.654
283.15
301.084
288.033
297.258
283.15
303.15
303.15
303.15
303.15
294.599
287.332
299.332
303.15
303.15
303.15
303.15
283.15
303.149
285.082
285.103
283.15
303.15
303.15
283.147
299.777
295.303
283.15
303.15
303.15
303.15
303.15
289.204
289.849
303.15
303.15
302.358
303.15
301.256
283.951
292.147
303.15
283.15
300.938
303.129
303.15
303.422
301.452
287.158
303.15
303.15
303.15
303.15
292.88
284.331
303.15
302.732
298.395
290.397
303.15
303.15
303.15
303.15
299.845
303.151
303.15
303.15
298.853
302.585
288.901
303.15
303.15
298.092
303.15
303.15
303.15
303.15
288.648
303.15
283.15
283.15
296.622
291.191
303.15
303.15
303.15
297.406
303.147
303.15
303.15
303.15
303.15
303.459
301.1
303.15
287.313
302.728
299.836
303.15
303.15
303.15
303.15
283.15
285.959
303.15
302.83
283.15
302.267
303.15
303.139
303.15
283.15
301.959
286.273
283.15
302.872
303.15
302.485
283.15
303.15
303.15
303.151
303.15
283.282
303.15
290.598
283.15
283.15
303.15
303.15
299.401
302.435
283.15
302.511
283.15
284.196
288.193
302.734
283.15
303.154
303.004
303.137
284.559
283.156
303.006
283.15
283.15
283.156
302.271
302.38
303.15
283.15
283.15
296.264
303.15
283.15
303.15
303.15
303.15
303.102
303.062
302.96
302.532
303.15
302.941
303.15
285
303.15
303.15
283.15
303.15
303.114
303.15
283.15
303.15
288.054
303.15
303.15
303.191
283.15
303.248
302.565
297.715
303.15
290.665
296.089
284.228
291.166
283.15
283.15
286.983
284.43
283.15
303.666
283.15
286.219
303.15
283.15
303.156
303.15
303.15
303.022
303.155
303.15
283.15
303.141
303.15
283.15
283.101
299.044
302.764
303.15
301.95
303.15
285.466
303.151
301.354
303.15
303.15
301.19
303.15
303.15
303.15
287.514
303.15
285.084
303.15
303.147
303.15
283.15
283.15
303.15
303.15
303.15
288.625
302.605
303.15
303.15
289.096
286.573
291.782
303.15
302.757
287.502
287.636
303.15
303.15
288.18
283.15
292.287
303.15
303.152
303.149
303.15
300.887
283.15
302.341
283.15
303.15
303.15
303.15
303.15
303.15
284.438
302.266
291.438
303.15
303.15
290.962
303.15
303.15
303.15
303.15
303.15
300.443
303.15
303.15
283.15
299.849
303.15
283.15
303.15
301.538
283.15
300.347
290.812
302.705
300.4
299.9
303.15
303.15
303.15
301.237
289.054
283.15
303.15
300.658
303.15
303.15
292.381
303.15
287.506
303.15
298.407
284.417
303.15
283.15
303.15
303.15
303.15
285.415
303.15
300.792
303.15
303.15
300.127
283.15
284.923
303.15
303.15
288.351
301.364
296.792
303.15
303.15
303.15
301.382
292.545
303.15
283.15
303.15
301.049
303.15
284.944
296.679
303.15
303.15
301.412
303.15
303.15
283.15
303.15
283.15
295.028
303.15
283.15
303.15
303.15
303.15
303.15
303.15
303.15
283.15
301.325
283.15
302.194
303.15
303.15
296.306
300.814
303.15
283.15
303.15
301.184
283.15
303.15
303.15
303.15
300.693
303.15
298.001
303.15
286.073
283.15
286.806
303.15
303.15
298.821
283.15
303.15
288.397
283.252
303.15
303.15
285.196
283.919
301.116
301.911
301.442
293.243
301.885
283.888
303.15
298.083
283.15
283.15
303.15
303.15
303.15
301.499
303.15
303.15
303.15
303.133
283.171
283.15
283.59
303.15
302.072
283.15
303.144
296.624
283.15
294.742
303.15
303.15
283.15
300.243
283.954
303.15
283.15
300.3
303.15
297.932
303.15
295.593
303.15
283.15
303.15
283.15
299.44
283.15
283.238
283.15
286.238
303.15
303.15
283.15
283.15
303.15
303.15
303.15
303.15
284.886
284.97
283.15
303.15
283.237
283.15
283.15
303.155
290.399
283.569
283.15
301.717
284.979
300.327
288.613
303.15
303.15
303.15
303.15
283.15
283.15
283.15
303.15
283.15
283.15
303.15
283.15
297.459
283.15
303.15
283.15
303.15
303.15
283.575
283.15
303.15
302.091
303.15
303.15
303.15
303.15
288.487
283.15
303.15
303.149
283.15
303.15
303.15
303.15
295.361
283.15
283.193
303.15
303.15
303.15
303.15
303.15
303.15
303.147
284.196
303.15
283.15
303.15
303.15
303.15
303.148
303.15
283.15
283.15
283.15
303.15
303.15
283.15
303.15
283.15
287.752
283.15
301.901
283.15
303.154
303.15
284.614
283.15
284.466
297.665
303.15
284.696
303.17
303.15
297.675
283.15
303.15
303.15
303.15
303.15
283.15
303.15
303.15
299.373
283.15
303.15
303.15
303.15
303.15
292.002
291.362
303.168
283.168
303.15
301.963
302.43
303.15
283.15
283.15
303.15
303.15
303.15
283.15
283.15
283.834
303.15
303.15
303.189
303.151
283.15
289.193
303.15
283.15
303.15
288.316
303.15
283.15
302.175
283.15
283.15
283.15
303.15
299.803
303.15
303.15
303.15
283.15
284.539
293.855
295.544
289.938
303.128
303.034
283.15
283.15
301.177
283.708
283.15
303.149
303.15
303.15
283.15
294.834
303.15
283.15
302.998
303.15
303.15
283.82
303.15
303.15
288.658
289.881
303.15
283.15
303.15
283.15
303.15
303.15
303.15
303.15
283.969
303.15
303.15
303.15
302.953
303.15
303.15
283.15
283.15
283.15
283.15
302.965
283.15
283.15
301.159
303.15
284.809
284.968
303.15
301.351
303.15
283.15
303.15
283.15
283.15
303.15
303.15
303.15
302.761
303.15
303.15
303.15
283.15
303.15
283.15
286.485
303.15
303.15
291.842
303.15
283.15
283.15
302.535
303.15
303.148
283.15
303.202
286.852
283.15
283.15
299.505
283.15
283.15
303.058
303.159
293.005
303.165
303.151
303.151
283.15
283.15
302.694
283.484
286.005
301.102
283.161
283.15
290.618
301.735
301.667
283.15
300.474
290.107
299.954
302.342
302.83
284.861
296.18
299.571
286.066
294.031
300.38
303.15
297.366
298.214
302.817
283.699
293.103
301.373
287.104
303.15
301.2
303.15
300.615
301.651
283.668
285.149
303.15
283.15
302.248
301.846
283.145
303.17
288.114
302.746
301.99
301.032
303.15
303.216
301.278
295.349
300.203
289.374
302.951
301.647
302.094
302.437
284.317
302.577
301.468
283.178
303.15
302.928
303.15
303.15
302.195
302.261
294.885
303.15
284.784
292.5
291.973
301.304
303.15
284.094
285.22
284.443
303.15
299.351
303.15
296.026
295.512
300.876
303.144
303.15
303.15
302.057
301.448
302.828
303.15
292.383
302.809
290.333
283.15
298.045
293.84
303.15
300.275
283.15
283.207
283.15
302.632
303.112
303.15
302.989
298.809
283.148
300.68
302.313
294.928
283.582
296.077
297.353
283.493
303.135
284.883
295.646
283.326
297.198
300.709
300.432
300.743
302.041
290.409
301.768
303.15
302.771
302.71
302.686
295.859
302.904
283.15
302.116
292.979
303.15
283.448
286.489
301.352
302.633
290.196
284.791
287.765
302.663
296.618
303.15
303.15
295.232
283.15
292.883
283.445
303.15
290.05
290.51
283.9
303.15
297.072
298.113
284.309
301.399
293.77
289.671
300.392
303.114
303.15
303.15
283.593
302.673
283.359
286.024
303.15
303.027
303.051
303.15
285.363
300.73
298.483
283.264
299.706
302.432
300.637
287.265
283.15
303.11
301.874
283.807
283.149
303.15
303.086
303.15
303.15
284.277
302.606
295.98
283.055
283.152
303.15
283.15
302.979
303.058
302.629
301.664
303.15
283.15
283.15
302.03
302.083
283.232
295.344
303.15
303.15
301.855
285.775
283.267
301.911
301.998
301.897
284.445
303.15
283.15
298.46
297.743
303.15
302.751
302.192
285.037
285.084
302.246
303.057
303.15
298.593
284.41
283.15
303.15
300.297
301.459
302.156
289.725
302.197
285.905
300.623
299.937
290.061
298.17
303.15
303.15
300.76
284.665
302.202
283.151
300.753
301.856
283.662
287.984
302.501
283.15
283.15
283.028
303.15
303.15
300.261
298.652
302.356
283.146
283.15
284.005
283.15
283.15
283.152
303.084
301.149
299.468
296.484
283.402
303.107
300.488
303.15
283.15
302.614
288.89
301.113
292.15
283.534
303.067
283.148
283.15
302.86
301.498
302.665
283.158
291.543
284.983
303.15
284.395
301.059
283.15
283.315
285.167
284.536
283.15
283.15
301.861
283.15
289.828
302.626
302.757
301.775
283.502
299.191
290.74
283.15
303.3
292.321
283.15
283.15
283.15
303.15
301.047
302.528
299.107
301.63
299.682
289.263
283.155
290.487
289.668
303.066
291.354
300.442
291.892
283.15
286.395
301.252
301.679
283.15
284.061
299.945
283.15
303.15
283.193
301.41
303.15
284.025
302.244
303.033
303.15
283.15
292.546
303.153
301.84
283.15
283.15
283.15
302.25
297.873
303.141
302.198
303.164
303.15
288.965
303.164
290.162
300.456
300.422
297.194
283.159
301.811
283.15
290.281
301.668
289.989
290.117
299.344
301.097
301.787
286.995
290.59
285.155
283.177
302.311
286.199
283.148
283.145
300.419
283.075
300.614
287.414
295.634
299.91
289.5
299.772
283.121
298.629
283.15
290.367
290.113
298.639
283.358
283.15
300.707
283.15
302.812
283.15
303.15
286.229
286.533
283.15
299.493
298.272
287.184
303.15
303.15
301.827
289.315
303.043
283.788
301.772
287.33
303.147
284.293
288.359
303.15
301.619
283.15
283.15
287.422
287.539
283.145
285.427
301.72
286.373
301.201
303.15
285.315
301.928
291.295
303.15
303.15
301.797
302.149
303.15
293.253
293.802
283.76
297.098
287.325
290.181
303.15
302.946
297.609
285.166
283.15
287.567
292.077
299.813
283.168
283.821
282.9
302.104
303.132
283.15
303.137
303.15
300.586
293.26
299.387
294.388
283.15
291.398
296.281
285.671
283.216
293.025
283.15
299.925
303.164
292.836
284.144
303.145
291.428
298.961
288.575
300.052
290.726
287.555
283.15
303.142
285.378
290.504
293.691
283.15
283.15
283.15
303.142
283.15
283.136
286.538
303.15
283.15
303.164
283.174
290.556
289.765
303.358
302.936
290.157
303.15
297.649
303.17
302.123
287.601
283.15
293.643
303.147
303.101
286.64
283.15
283.15
283.486
286.218
303.066
303.145
287.616
289.57
283.521
283.163
289.61
292.78
303.15
283.15
303.109
303.15
302.409
284.901
302.27
303.1
284.153
283.86
284.122
302.863
302.241
296.983
294.069
303.081
291.446
290.499
303.15
303.104
302.649
285.545
283.405
303.15
285.942
283.403
302.963
301.638
302.31
283.15
300.663
302.044
303.15
302.268
285.438
303.15
298.325
303.15
283.15
301.021
302.712
286.426
302.607
283.15
285.407
303.022
283.15
302.364
285.256
294.81
284.373
303.15
303.025
302.883
286.52
283.15
287.113
284.363
289.877
286.125
302.409
303.15
283.15
283.15
292.55
283.15
300.905
302.32
289.849
283.15
293.599
283.15
303.15
283.15
299.765
299.126
283.151
285.358
301.596
303.107
303.156
292.264
294.572
301.475
283.241
301.664
283.145
303.15
303.15
299.738
283.15
301.972
295.44
303.15
300.807
287.321
301.798
284.817
288.647
283.15
302.371
287.78
298.68
303.081
283.15
303.15
291.745
302.32
283.076
283.147
287.009
298.59
303.15
284.686
301.275
301.129
301.467
303.152
300.293
287.705
284.979
301.831
300.245
283.774
283.094
303.158
303.149
303.15
297.975
283.162
283.15
303.15
303.149
289.862
298.619
299.994
287.827
302.832
303.15
286.161
301.619
303.15
300.824
283.799
301.664
303.15
284.733
301.208
294.884
302.745
303.15
303.15
285.259
295.753
297.037
287.829
303.15
303.15
283.15
287.166
302.464
296.816
303.15
285.735
303.15
303.15
300.084
288.617
283.15
296.182
296.532
298.621
283.15
303.15
292.259
287.239
303.15
298.552
300.938
300.845
303.15
303.15
303.15
300.676
298.909
302.826
300.358
283.15
292.289
287.783
290.965
300.743
303.15
303.15
301.144
303.105
286.736
296.614
303.15
303.148
283.15
286.38
299.174
285.624
303.15
303.15
283.361
303.128
303.15
303.15
283.15
290.128
303.15
303.15
284.729
299.261
283.15
303.15
284.592
301.579
300.516
287.038
294.437
303.15
283.516
303.15
303.15
283.291
300.86
290.459
300.714
303.15
303.135
302.211
293.112
299.918
301.442
284.437
283.511
300.748
298.963
303.15
302.81
284.279
300.246
301.639
287.894
303.15
297.205
301.664
301.739
301.779
292.315
303.15
283.15
299.242
283.15
283.15
287.622
283.15
284.002
283.15
283.15
283.15
283.15
302.796
287.653
302.756
283.15
296.307
290.564
284.797
283.15
303.15
302.737
301.735
303.185
302.697
283.15
295.447
300.622
289.778
283.15
283.15
299.939
285.666
283.15
283.15
303.149
290.577
283.15
287.291
303.15
303.152
284.276
283.15
288.595
293.469
300.521
293.907
302.97
285.773
302.566
295.119
286.295
283.15
283.563
291.686
303.099
289.361
302.689
283.15
291.953
287.664
300.883
301.079
285.098
303.118
285.187
297.304
302.99
303.148
284.951
303.146
303.018
293.296
302.682
283.15
303.15
303.15
294.901
291.173
283.155
301.228
284.716
284.147
284.663
303.145
288.133
300.805
283.15
283.15
302.551
303.151
294.675
302.921
303.179
299.999
303.213
302.913
283.15
301.601
302.907
283.15
303.15
301.061
303.15
284.459
299.037
283.166
291.943
283.15
287.462
303.032
300.224
283.15
303.039
290.351
301.33
303.134
303.083
283.15
283.15
301.808
302.114
283.81
302.865
302.491
302.474
303.141
283.15
294.431
283.15
302.841
287.792
303.003
303.15
283.15
302.862
285.258
291.11
302.156
283.15
302.631
302.096
301.479
302.54
303.055
303.196
303.024
303.15
283.15
301.464
298.062
303.093
303.15
290.452
285.224
303.15
283.15
285.57
303.183
303.163
302.937
301.245
284.384
303.103
290.786
293.701
303.148
289.094
303.162
283.15
290.368
283.15
300.145
298.398
284.875
288.187
299.752
296.019
295.091
299.339
293.833
303.152
293.91
296.624
283.156
299.534
293.323
303.15
299.447
299.312
303.15
291.871
303.17
301.744
303.15
286.895
285.965
302.812
289.501
283.15
283.15
300.438
301.072
283.778
283.15
303.15
300.284
302.409
300.94
300.275
302.823
292.192
289.531
286.654
292.018
284.334
290.895
283.313
295.36
290.054
294.084
287.342
284.26
303.161
283.279
303.147
285.932
300.829
283.151
300.022
297.821
288.469
302.092
285.379
299.324
283.15
302.968
283.156
283.109
288.092
299.784
303.15
300.143
303.033
299.892
302.789
303.15
301.383
284.99
295.637
302.119
303.149
283.72
283.15
290.849
285.07
285.787
303.159
303.149
283.15
283.15
283.178
303.15
293.576
303.15
303.156
295.312
303.44
303.15
300.094
303.15
303.15
293.773
290.344
303.15
289.629
302.205
289.397
303.15
303.15
286.163
283.348
290.4
303.215
303.15
303.146
285.512
283.275
283.15
288.877
287.72
303.15
284.286
303.15
303.15
303.132
287.356
303.15
303.147
283.29
303.152
302.695
287.893
283.151
283.648
297.341
290.932
303.15
285.912
284.648
301.532
287.08
302.27
290.037
293.744
303.15
303.15
284.013
303.153
302.97
295.377
302.967
302.778
287.142
283.15
285.555
283.225
297.744
302.641
285.71
303.15
283.85
286.724
303.129
283.177
303.15
286.756
283.15
299.691
303.15
299.875
300.096
283.324
283.391
302.351
291.598
301.335
303.15
301.493
301.832
303.15
303.15
298.439
293.765
283.15
289.104
303.15
294.593
283.379
303.15
296.968
299.023
288.972
303.15
302.783
294.902
295.815
284.47
303.161
299.232
296.419
283.982
303.129
302.825
287.519
298.7
289.383
290.519
289.528
283.15
302.973
303.151
303.15
303.168
293.437
296.601
302.979
301.419
303.15
284.341
303.15
303.054
302.878
303.15
293.982
296.009
303.15
285.473
303.101
303.15
303.1
303.155
286.265
293.821
290.782
288.252
292.78
303.15
301.497
291.771
295.471
293.559
303.141
303.15
300.633
303.184
284.43
303.185
303.15
303.15
303.143
303.15
285.036
303.15
284.301
303.147
303.15
290.372
303.145
292.874
295.497
303.135
295.889
285.715
283.443
303.129
302.941
284.757
283.15
297.039
303.15
285.556
302.928
302.208
303.022
298.426
287.167
303.15
298.414
289.721
299.46
283.15
283.652
303.15
303.144
303.188
293.568
303.15
292.462
289.133
303.192
303.15
284.907
299.22
293.727
299.994
302.527
301.414
300.339
303.15
284.648
296.579
302.367
285.744
297.807
292.092
284.546
292.233
303.15
286.884
292.352
289.554
299.699
303.15
286.234
284.054
303.15
302.552
288.059
302
283.15
303.15
300.185
301.849
289.61
302.128
301.918
302.011
303.15
289.867
285.143
302.085
302.333
297.374
303.15
283.204
303.15
302.128
303.15
302.858
303.15
292.095
303.15
296.782
283.15
289.799
303.15
283.15
291.476
301.731
300.77
289.149
300.85
303.15
302.55
303.15
302.285
285.546
303.15
300.754
290.228
303.15
301.11
303.15
303.15
292.637
283.15
285.673
293.28
301.211
303.15
291.819
294.279
288.101
289.231
287.795
299.077
299.987
301.097
287.445
287.031
301.54
283.15