/*--------------------------------*- C++ -*----------------------------------*\
  =========                 |
  \\      /  F ield         | OpenFOAM: The Open Source CFD Toolbox
   \\    /   O peration     | Website:  https://openfoam.org
    \\  /    A nd           | Version:  10
     \\/     M anipulation  |
\*---------------------------------------------------------------------------*/
FoamFile
{
    format      ascii;
    class       volScalarField;
    location    "35";
    object      SgRate;
}
// * * * * * * * * * * * * * * * * * * * * * * * * * * * * * * * * * * * * * //

dimensions      [1 -1 -3 -1 0 0 0];

internalField   nonuniform List<scalar> 
59698
(
0.0163005
0.00189745
0.00239438
0.00281293
0.0305071
0.00145199
0.00463146
1.11514e-07
1.98343e-09
3.9437e-09
0.000586479
1.70379e-09
1.59059e-09
0.00237244
0.000354142
4.28444e-07
9.76869e-09
3.84934e-09
1.76626e-09
0.000271183
0.0017545
0.01411
0.000499465
8.81915e-08
0.0422508
1.1097e-09
1.17735e-09
0.0100561
0.00913343
0.00748201
0.00480927
0.000600625
6.68818e-08
0.016355
0.00246755
3.87714e-09
0.0191204
0.0205682
1.76304e-08
0.0249262
0.00863467
2.30459e-07
0.00370023
2.54949e-08
0.000402108
0.0321636
2.35166e-09
0.00102619
0.00434334
3.32657e-08
0.000900315
2.04576e-09
0.00178312
0.00283936
0.0113682
2.04983e-09
9.0895e-08
0.000213305
1.85859e-08
0.0027766
0.00525512
6.95691e-08
0.122183
1.53185e-09
0.0124567
4.32441e-08
1.75383e-09
3.15032e-09
4.26063e-09
6.77505e-09
6.07761e-07
3.87414e-08
0.000364334
0.0421158
0.000411957
0.0391501
2.25171e-08
0.0092372
0.000362654
0.0061704
0.00884123
1.27014e-09
4.05955e-09
8.41029e-09
0.00860752
3.25629e-08
9.59727e-09
2.29565e-07
0.0633773
2.33896e-08
4.50762e-09
0.00205872
0.014806
6.73574e-09
6.28358e-08
0.00372144
0.00534917
6.05089e-08
0.000263623
8.60778e-10
0.076877
0.00182527
0.0162669
0.0155248
5.49868e-08
0.000564778
2.46e-09
2.30223e-09
2.69818e-09
4.39673e-10
3.80839e-08
2.72128e-06
0.0380392
1.56285e-07
1.0086e-07
3.54436e-08
3.60356e-07
0.00366052
3.09018e-07
1.14681e-08
2.33267e-09
3.08628e-07
2.23787e-07
3.38429e-09
1.79516e-09
8.26042e-09
0.0108181
7.20345e-09
1.26175e-08
3.99165e-07
0.0451585
3.95196e-09
1.10335e-09
0.100157
0.00431166
0.00440372
5.08063e-07
2.50684e-10
1.74188e-09
5.6642e-09
2.11485e-08
0.00240505
0.00261404
0.00256621
1.96547e-07
7.69604e-10
5.53746e-07
3.94259e-07
0.0046515
0.0292791
0.000299153
0.000434379
0.00146951
2.6361e-07
1.48884e-05
1.08486e-07
7.09835e-09
0.00168887
0.0124508
5.95792e-10
0.000863764
7.82815e-09
0.0163535
0.00162241
0.00339959
0.0345358
1.02677e-09
0.0720827
0.00201908
7.15477e-09
0.011902
1.48484e-06
0.010808
0.0146598
0.0788864
0.00126085
4.36392e-09
0.00144628
0.00032601
0.00925791
0.00944466
0.0182476
0.0148209
1.15845e-08
0.0457763
0.000235555
0.0114823
0.00247248
1.13548e-10
0.00119951
6.66564e-09
7.1229e-09
0.00265843
0.0386072
0.00408712
0.0043228
0.00982539
0.0588139
2.69754e-05
0.00774572
0.00022709
0.00610842
0.0211744
2.49692e-09
0.0104822
0.00274382
0.00610676
0.00283336
0.00782335
0.0114926
0.00251076
6.3241e-09
0.00279187
1.56757e-08
0.00408858
0.00349
9.82633e-09
4.69611e-08
0.0127945
0.00663048
0.00564556
0.00268249
1.75152e-09
0.0662503
0.000822432
0.0263855
0.00733495
0.00326667
0.00694075
0.159286
7.55686e-09
0.00470408
0.00292205
0.0032361
9.7172e-09
0.00961638
0.0831509
1.99938e-08
1.82492e-07
0.000443358
0.00270578
0.00147683
0.0134968
0.000664542
0.00609286
2.20279e-07
0.00380082
0.229861
0.00047756
5.03855e-09
7.92892e-07
0.00107101
0.000921307
0.000233554
1.90048e-08
0.00217015
2.74527e-06
0.00174841
0.00325305
2.73933e-09
1.44645e-05
1.81768e-09
0.000245815
0.0028174
0.00372599
0.0478387
1.15993e-09
1.07355e-07
2.0262e-08
6.18896e-10
3.06868e-09
0.044204
0.000221569
6.65415e-10
0.017954
5.20944e-08
0.00151623
4.13046e-08
0.00210846
1.2215e-09
0.000574132
2.08112e-09
1.55479e-09
0.105268
0.0492031
0.0201299
3.86803e-08
0.000647164
0.0732873
1.21077e-07
0.0906324
0.00234019
9.09737e-09
1.39623e-09
7.4656e-07
0.00283314
6.3474e-10
2.0768e-07
0.00422184
6.60898e-07
0.00272333
2.35133e-09
6.86637e-08
7.84316e-10
1.02385e-09
1.18825e-09
0.0519704
2.27634e-08
5.59646e-09
4.25098e-10
0.00196745
4.42473e-08
3.6128e-09
2.37987e-08
0.00198628
0.00336279
0.000403389
8.49345e-09
0.000829308
8.85539e-08
9.80228e-08
0.324651
1.71597e-08
2.92193e-09
0.0477916
0.0103688
1.64703e-08
8.92275e-09
0.000500846
0.000361922
0.00929989
0.00415957
0.020278
0.207707
0.000430952
2.74428e-05
7.85499e-09
4.43639e-09
0.00911646
0.00449857
0.0102243
0.00206619
0.00258997
0.00147063
9.67688e-05
1.31779e-09
9.75866e-05
0.0392965
1.5304e-09
0.0020488
0.00799945
1.4399e-08
0.0401117
7.96156e-10
0.244059
0.00217202
0.0140763
1.45937e-08
3.29525e-08
1.82641e-09
2.21643e-08
1.03714e-08
1.10729e-07
0.000877661
1.39074e-10
1.04125e-07
0.00289879
0.00202503
2.96142e-08
0.0016651
0.00189238
0.000533992
0.00379135
0.000651128
0.00618772
2.97715e-09
3.77121e-08
2.15575e-09
0.000460563
2.48671e-09
0.000347124
4.63973e-08
4.49559e-08
0.000526219
8.3146e-10
1.97281e-05
1.14058e-08
0.000544823
8.00963e-10
3.5995e-08
2.26878e-08
0.000457468
0.00458607
0.00257121
0.00134681
0.0022728
0.0484588
0.00189296
0.00278856
8.34251e-08
0.00284702
0.00238793
0.00266135
5.20629e-09
0.00153837
0.0043303
0.0857581
0.027972
2.19431e-05
0.00540372
0.0316925
0.000404302
0.00225848
0.000434527
4.82226e-10
0.0594105
2.0052e-09
0.0104494
0.00240687
0.00183736
0.00303819
0.00226121
0.00270561
0.311351
8.17874e-09
2.33945e-09
7.85566e-09
1.77304e-08
0.00143478
5.62048e-10
0.000263296
0.00214933
0.0163051
0.00301587
0.00212596
1.41685e-08
1.3954e-08
0.213274
3.55105e-09
0.00317729
1.92331e-07
0.00331107
5.01423e-09
4.53667e-08
1.92353e-07
0.00239492
0.0699777
4.48854e-10
2.12714e-09
0.0090705
0.00262975
6.57171e-09
7.62927e-08
0.033025
6.37684e-07
1.17354e-07
0.108267
1.3865e-09
0.00955908
1.71297e-07
0.0541645
4.47992e-09
0.0156752
0.013324
2.1895e-09
2.0897e-07
3.63175e-07
0.00846698
4.57462e-08
0.00804314
0.00287543
4.4182e-09
2.03911e-10
6.88029e-09
6.58539e-08
2.10537e-06
0.00113175
0.0691149
0.00605934
0.00202104
2.44425e-08
2.2573e-07
1.54089e-08
1.94871e-08
0.00540498
4.11019e-08
4.51253e-08
2.01118e-08
0.0659224
0.0017729
0.0232462
0.065558
0.00111201
4.31656e-08
0.0585952
2.20959e-07
1.58948e-08
0.00245491
0.00946597
0.000365619
9.71768e-10
0.064346
0.00712747
0.00451327
1.71144e-08
1.11993e-09
8.43507e-08
2.16594e-09
5.15289e-09
0.00315818
0.000538208
0.074793
0.00728262
5.4192e-08
0.00910538
2.59478e-09
6.88893e-09
9.59456e-09
7.03502e-08
2.48668e-08
0.00545964
0.003774
4.9228e-09
3.85409e-09
2.18173e-09
0.0012661
0.00947784
2.5028e-09
0.0106378
0.00389913
3.03812e-09
0.0431025
1.82755e-08
5.29509e-09
0.00150507
3.54878e-10
1.35528e-08
0.00185753
2.04983e-09
0.000384882
0.00965848
2.42013e-09
4.51913e-08
0.0683989
0.00818693
0.0135333
0.010138
0.000173505
0.011706
7.80421e-06
1.86453e-08
2.28783e-09
3.1546e-08
1.90635e-09
5.37434e-09
1.47167e-08
1.91906e-08
0.00114731
0.00691605
0.000469894
0.0007685
1.73091e-09
1.59812e-08
9.3505e-05
1.51342e-08
1.81214e-09
0.0744493
2.2854e-08
0.00550923
0.000539254
0.0028936
7.80046e-09
1.96644e-07
0.00135759
0.0010223
0.0010042
2.8981e-10
0.00398202
0.00211545
2.31415e-09
0.000732638
4.11736e-08
0.00519059
1.49036e-08
0.00256672
0.000313352
6.23971e-07
1.29098e-08
0.00421004
0.00161635
0.00203589
0.00332226
7.936e-09
1.64543e-08
8.53018e-10
4.19284e-08
9.28736e-07
0.00433459
0.000349776
7.2791e-09
0.00509977
1.17026e-05
2.8851e-09
0.00349942
9.67272e-05
0.000130529
2.34206e-09
0.00108762
0.00397643
1.52311e-08
1.26625e-08
2.31804e-08
1.09826e-08
1.32535e-07
7.49351e-07
6.60876e-08
4.92867e-09
0.224743
1.87908
7.26897e-09
5.03873e-09
4.06094e-08
1.88079e-08
0.000908394
0.00247297
1.14319e-08
0.00712462
1.66774e-09
9.01427e-09
4.44057e-09
0.00276764
0.000211224
1.23845e-09
8.60987e-09
8.67554e-10
2.95832e-08
6.48919e-09
2.89033e-09
0.0015699
0.109405
1.35934e-07
1.67206e-07
0.000607912
1.45285e-09
0.000475666
0.00380872
4.2566e-07
0.00218768
3.53288e-08
1.74589e-09
0.000439478
7.55801e-09
0.00827463
3.59185e-09
2.37546e-09
4.43095e-09
9.40408e-10
7.97599e-06
0.000327321
0.00187979
5.10847e-08
1.16139e-07
0.000892206
0.0198574
0.0907925
0.00135461
2.26448e-08
0.00239481
0.00320491
0.0415017
3.85391e-09
7.85023e-07
1.87104e-09
0.00356598
3.21543e-10
2.0465e-08
0.000428464
0.0107345
0.0472998
1.5603e-09
2.02915e-07
6.11233e-07
3.53431e-07
0.000378103
0.00143942
1.27699e-10
6.84817e-09
1.05678e-09
4.82162e-09
0.0114658
0.00439675
0.0395145
1.02704e-08
0.0013551
0.0023702
0.0024535
6.3972e-08
4.27966e-09
0.00065062
1.28046e-09
2.29648e-10
1.00936e-09
0.0065713
1.92271e-08
4.98983e-09
1.49653e-09
0.00637604
6.93262e-08
8.26281e-09
2.7278e-09
0.00193492
4.17915e-08
3.73019e-08
0.000362179
9.92165e-09
0.00197915
0.00923738
1.92451e-09
1.38414e-09
0.000646941
0.0618878
0.00323195
3.78579e-09
1.12334e-08
0.00145892
0.0256869
0.00889584
1.33519e-09
0.0555414
2.63214e-08
0.00259216
0.000344566
0.00940925
7.29311e-05
1.48087e-07
0.0112452
0.00445021
0.000532162
0.0030768
0.060193
3.83453e-09
7.11884e-08
0.245895
0.00232654
0.00073288
0.000838196
0.00190639
0.00180009
2.53074e-08
0.0150783
2.35291e-09
0.0600247
0.00314823
0.0247499
7.13289e-10
6.50274e-09
0.104904
0.237449
0.000599775
1.13777e-07
0.0499698
0.000383644
0.00225387
0.00519175
0.00196706
0.00832839
0.00409728
8.23986e-09
0.000401564
0.0019533
0.0142094
0.000373922
3.49323e-10
0.00273941
2.54417e-09
0.00438049
1.88161e-07
4.28348e-09
0.0060961
0.00520042
1.23097
3.75033e-09
0.0247042
0.00972209
0.0210691
0.00104233
0.00469963
0.000326091
0.000992764
0.00161124
0.00145232
0.00668634
0.011113
0.103412
0.00193812
0.00546605
0.000541428
6.9337e-09
0.000383153
1.30984e-08
2.74205e-09
1.59681e-09
0.00324308
3.95187e-07
0.0094998
0.000214657
1.0868e-05
0.00162734
1.66937e-07
0.00692585
3.5615e-09
0.00100438
3.34303e-09
0.00130365
0.000115363
0.0136956
0.000651795
0.00185331
0.0202064
0.20964
3.9602e-09
0.0088512
2.58547e-08
0.000730572
0.000444801
0.000428782
0.00249848
0.00117305
0.00750687
0.000561236
0.00627933
0.0023528
6.40983e-10
0.000401154
2.34893e-09
2.82189e-09
3.34815e-05
0.000503639
0.000274399
0.000323384
7.6922e-09
5.06174e-09
1.8758e-09
0.000487192
2.21258e-09
0.00548534
0.00489758
1.1327e-05
0.000499717
0.00405872
9.7047e-10
2.93394e-09
0.0160024
0.000469625
3.04132e-09
1.31065e-09
0.0358907
0.00489915
0.00105196
3.87569e-09
3.1119e-09
0.0105726
2.63801e-07
0.0097998
1.07369e-08
0.000532569
8.47133e-10
0.000128376
2.74012e-10
2.50807e-09
0.00128091
1.52619e-09
0.00888375
8.98256e-08
0.00200376
0.00010882
1.27378e-08
0.00161954
0.00165262
4.76475e-10
0.00179983
5.98859e-09
1.17824e-08
0.00030714
1.24662e-09
0.00212858
1.75495e-08
1.63551e-09
0.00438331
3.0593e-09
4.03157e-06
0.0037331
0.0183056
0.000319936
4.70222e-06
0.00297659
1.69061e-07
0.00460588
0.000633466
0.000584057
0.00449538
1.84549e-09
0.000379941
0.00245116
3.0312e-06
8.57871e-09
0.00261869
1.19574e-08
3.10294e-09
0.0653416
0.000412245
0.00149959
0.0027165
1.49192e-07
2.03935e-09
0.00276286
0.00414709
0.00538699
0.0201996
0.00398395
1.69162e-07
0.0407307
9.28431e-05
1.29003e-06
0.115022
2.84691e-08
0.00461244
0.00450918
0.0326199
0.0583398
7.39076e-09
0.00254336
1.67388e-09
0.0247267
0.000270945
2.90805e-08
0.00141053
3.7882e-10
0.000761133
0.00244983
4.79585e-09
0.00195271
0.00676696
0.00282034
0.00328136
0.000773432
0.0250977
0.000729671
2.01478e-08
2.49837e-08
0.000826022
2.93269e-08
0.00227496
1.89295e-07
2.05075e-07
3.68623e-08
0.00552369
0.000294945
4.56935e-09
5.30989e-09
0.00542737
1.45e-09
1.23906e-08
0.00960764
0.00195238
1.17767e-09
2.38978e-09
8.46765e-09
0.000127065
3.70198e-08
2.37039e-08
7.51475e-09
0.000429216
0.00233907
0.000466222
6.53032e-08
0.0141102
0.0187089
0.0177687
1.98737e-09
0.00239444
0.00294314
0.00270288
0.00482592
0.0059643
0.000398647
5.99832e-08
0.00255933
2.01662e-07
0.0109748
0.0564126
0.000132478
0.000443774
2.17878e-08
0.000538422
0.000104492
0.000427027
0.00228386
0.000945902
0.000608731
6.86481e-09
1.64519e-08
2.92674e-06
0.000662392
0.00158837
0.00377502
0.0473252
0.000395619
0.00195767
0.00140256
0.0228585
5.64445e-10
0.000794126
0.000891948
0.00460348
9.99359e-10
3.19124e-05
0.00468439
5.81938e-09
0.00359799
0.00356495
0.00379006
0.0054603
0.00948397
0.0100961
0.00816963
0.00529771
0.00576461
1.30971e-08
5.37066e-09
0.000475257
0.00592897
0.00473874
2.85825e-07
5.26062e-10
0.00168143
0.00395545
4.45724e-09
6.88579e-08
2.80134e-10
0.0148459
3.78105e-09
0.0406735
0.00318933
0.737804
8.77901e-10
1.56436e-08
0.00217854
0.00317364
1.78235e-07
0.000760326
0.00447841
0.00699227
0.00433002
2.32373e-08
0.00680278
0.000542247
1.04754e-09
0.0197412
0.000765797
0.000469646
2.53996e-08
0.00260059
0.000481375
1.42329e-08
3.12428e-09
0.000534596
0.00818192
0.00231129
0.0920718
9.38043e-09
0.00181772
0.0820455
2.58434e-10
0.00882299
2.23302e-09
0.0252324
0.00133382
0.00287875
9.04033e-10
1.17911e-08
0.000564711
1.54757e-08
6.10215e-09
1.29977e-08
1.03681e-06
9.56221e-10
1.32649e-09
0.00176176
0.0030217
0.00972318
2.93126e-08
0.00224669
0.000516927
1.21274e-06
0.036266
0.0542967
0.00494731
0.000373869
0.00427737
0.457925
0.0239852
0.0262747
2.52084e-08
0.000449091
0.102417
8.01511e-08
2.28953e-07
3.77039e-09
0.016673
5.45191e-09
0.00169335
2.1646e-08
0.00173719
2.992e-08
0.00462904
0.00901828
0.00287824
0.000657578
5.18518e-09
0.000477736
2.26107e-09
4.91049e-09
0.00363842
2.48465e-10
1.48391e-09
6.92084e-09
0.00766525
1.37829e-08
0.120615
1.19231e-08
0.00116387
2.59717e-09
0.00563934
1.22434e-08
0.00110097
0.00279568
0.00038063
0.00250597
1.57944e-08
8.28494e-09
0.00285847
1.68662e-09
0.0187175
0.0122168
4.93501e-09
0.00150916
0.0837739
0.00295249
0.00398666
3.19515e-08
2.25421e-07
0.003714
0.0363703
0.00877616
0.00264343
3.83735e-09
0.00192208
0.00336708
0.00301472
0.00370328
0.00537202
7.53607e-09
0.116174
0.0512526
0.000490278
3.661e-08
5.33485e-08
0.00312883
0.00253924
0.0261093
0.00112769
3.40784e-08
0.0022956
4.62752e-09
2.89555e-09
0.00353665
4.22355e-09
0.00268309
1.94828e-09
3.08318e-06
0.00377254
3.17991e-09
0.0194121
2.79726e-09
0.000434431
0.00363852
0.00413089
0.00204907
0.00209154
0.0119096
0.000579702
0.000345168
2.89397e-08
2.41527e-08
9.2927e-06
2.28472e-09
1.9673e-09
2.40085e-08
1.78036e-08
0.000781457
0.000646993
1.00159e-08
1.21598e-08
7.90053e-09
3.44507e-07
0.00031914
0.00275956
0.000496417
4.39053e-05
0.000238786
7.34713e-09
0.000315414
0.000232113
0.000223586
0.00389469
0.103373
1.8827e-09
0.00477771
0.00168734
0.00414163
4.88905e-09
4.28213e-08
7.11229e-09
0.00839038
0.0196941
0.00482744
0.00235661
2.2618e-08
3.08628e-08
0.000377626
0.0047704
0.00950627
1.05122e-08
0.00383813
0.00285495
2.19636e-08
0.00354735
0.00263969
0.0145204
0.00190378
0.00381549
9.81832e-05
4.65052e-10
1.39717e-09
5.24873e-05
0.00561683
1.38118e-08
6.36733e-10
2.21922e-08
0.00502371
1.21016e-08
6.45801e-08
1.92048e-08
5.73673e-07
0.00198585
3.08052e-09
7.8307e-08
5.63751e-08
0.00208686
0.0283208
0.00207519
0.00122429
3.03138e-09
2.25161e-07
1.80358e-07
0.000983778
0.0145828
3.19884e-10
1.22142e-07
0.00122842
1.2267e-07
0.000867407
3.15522e-09
1.4799e-07
6.88531e-09
9.03517e-08
8.03753e-10
0.000584269
5.25001e-08
0.00213724
1.29342e-09
5.81218e-08
2.54873e-05
1.07345e-08
0.00576391
5.05874e-09
6.74561e-10
0.0475858
4.38376e-08
4.82446e-09
0.000285494
6.10893e-08
7.63782e-08
0.000547253
3.11529e-09
0.0005637
3.15838e-08
0.000952454
0.000349134
0.00273829
0.00429836
0.00122383
3.23132e-07
0.0628885
0.0024688
2.11222e-07
0.00598896
0.00289574
0.00671257
1.07339e-05
2.11494e-07
0.351891
3.97742e-09
2.50568e-08
2.95004e-08
0.0254404
0.00302101
0.000635586
0.000492199
2.79672e-09
0.00321577
0.036269
0.00482169
0.00871013
0.0142033
5.59149e-08
0.000340293
1.6168e-09
4.11327e-09
0.00828604
0.000746788
0.0747159
4.15527e-10
0.000475208
6.34561e-10
0.000532958
0.00031361
0.000367219
0.0104881
0.0180883
0.000544703
0.00184956
0.000448932
6.22007e-09
4.00602e-09
0.000988909
0.00203519
0.000192191
0.000809788
0.00749746
0.0106928
4.81765e-09
0.00172054
0.00264406
1.86587e-09
6.39008e-09
0.000432447
0.0138085
0.011559
0.00503089
0.0473582
0.0026766
7.65952e-09
0.00523336
3.92472e-09
0.000681408
0.00155579
0.0223316
1.55553e-08
0.0205259
0.0115325
0.0342391
1.82272e-09
0.101683
0.00879446
0.00175663
0.00467119
0.0642846
2.63156e-09
0.00282838
0.00246556
0.00229146
0.00798081
4.68001e-09
1.13973e-09
3.35067e-08
0.00203318
0.0248963
0.295521
5.95601e-10
0.0089954
3.37431e-08
0.00125644
0.000444878
0.189857
0.000387605
0.287049
0.780398
0.000104003
2.23927e-09
1.88658e-08
0.00136244
0.010666
0.00561957
0.0101781
0.0630136
0.0340842
0.000104809
0.00163768
0.0103758
0.0113589
1.21131e-08
0.000532576
0.000427673
0.000360722
0.000420462
0.000637652
0.138163
0.000273372
0.00292427
0.000398956
0.00307762
0.00201941
0.00221777
4.55967e-10
0.479299
0.0314199
0.184193
0.148343
0.00216253
2.01754e-09
0.00651851
1.51927e-08
3.30103e-07
0.000761567
0.0849985
8.77887e-10
0.00178754
1.45948e-07
0.000207822
0.0165675
4.23635e-07
0.00854586
4.01454e-07
2.20145e-07
0.00156869
0.000600892
0.00112478
0.0129887
2.9357e-05
0.00245644
0.0013629
0.0178166
4.94193e-09
0.000502805
0.00155109
0.0151896
0.00164766
2.42555e-07
0.00224596
0.0313733
4.93918e-09
5.20438e-09
6.98994e-09
0.0015261
0.00183423
0.00307256
1.46397e-08
2.9324e-05
4.22746e-07
0.000298093
0.00380506
0.00140455
8.20663e-08
0.00268872
8.82342e-10
0.0107583
0.00112944
0.00080459
0.00190678
0.00171292
0.00952298
6.64228e-09
0.0137513
0.000301467
0.000423332
1.16825e-09
0.000378711
0.000405405
0.000581333
0.00198355
3.39025e-07
0.00163322
0.00946991
0.001756
0.000460523
0.0187436
0.00225171
0.00130195
0.0145583
0.00743435
0.012315
0.0131377
0.00624657
1.64008e-07
0.32329
0.0623924
5.39832e-08
0.000573432
0.014895
3.43041e-09
0.0242538
0.000103675
0.000403271
0.0142051
2.82307e-07
0.00677076
0.000614694
1.83373e-08
0.00755323
5.23647e-08
0.0312822
0.356676
0.00112777
0.057342
8.36566e-10
0.000256109
0.00435112
1.71e-06
0.103852
0.00276695
0.00173192
0.000504917
2.4747e-09
0.00343182
0.00279684
5.14276e-10
0.0004891
0.0266156
0.00061878
5.70307e-05
0.0618147
5.12175e-07
0.00267936
7.85323e-11
0.000345766
0.00241327
6.5617e-09
1.18431e-09
0.00218468
1.11201e-08
0.0025112
3.62063e-08
1.87429e-09
7.87646e-08
0.0039046
0.00209973
1.59785e-05
5.44782e-10
0.00221515
2.03431e-07
0.00278063
5.45447e-06
0.0320268
4.55343e-08
8.26891e-06
2.74803e-09
0.00169266
0.0371447
5.02961e-09
2.80508e-07
0.000274717
0.00245486
0.000453088
9.41715e-06
0.296973
2.56744e-09
0.000232299
0.00234654
9.15739e-10
3.76492e-09
3.9781e-08
3.49464e-08
0.000502525
2.72964e-07
0.000529726
2.00118e-07
6.80012e-09
5.88552e-11
0.0114828
0.000221115
0.000394062
5.62305e-09
0.00395505
0.00252835
0.0445678
3.12786e-10
3.43491e-09
7.59097e-09
3.95846e-09
1.82415e-08
0.00277764
0.00062006
0.000514078
0.000120174
0.000348244
0.00038168
2.93929e-09
4.27186e-08
1.24734e-09
0.0226569
1.89554e-08
0.00856336
1.09743e-08
0.0155582
0.00115984
1.96706e-08
7.91154e-08
0.00437743
1.83661e-09
0.00410565
0.019254
0.00226957
4.99394e-09
1.4796e-08
4.29354e-09
1.65301e-08
2.12581e-08
0.00387227
0.0162871
1.16616e-07
0.0103774
1.05611e-09
0.878484
0.442991
3.54064e-09
0.0414001
9.62868e-05
9.88707e-09
0.00936834
1.03471e-05
0.60414
0.0439502
0.00755491
4.03556e-09
0.0283012
0.393256
0.00291557
0.0251204
0.00438109
0.00223051
0.124296
0.0439016
1.04214e-08
0.000950791
0.0259383
0.0487469
0.00130098
0.000310084
0.0324985
1.99889e-09
0.0140538
1.1032e-08
6.73518e-10
0.00662953
7.90142e-10
0.00421512
0.00391922
2.36384e-09
0.000127771
3.34512e-09
1.08632e-09
0.00785805
0.00604156
2.82462e-09
5.58103e-08
0.00170085
0.00228536
0.004103
0.000384381
0.0115644
0.0634599
1.80668e-08
0.0333777
0.000217543
0.00438951
9.57823e-09
0.00222856
0.0304105
0.00412885
1.2413e-08
0.0270743
2.6741e-09
3.81274e-09
2.99414e-09
0.000259116
0.000626659
0.00757547
0.025852
0.0146678
0.00733165
0.00546795
0.00128898
1.33636e-08
2.97913e-07
1.18162e-08
0.00425483
2.82787e-06
0.0031719
2.74333e-08
7.69411e-09
0.00159317
0.00149231
0.00180514
1.70767e-08
0.0102195
0.00194085
1.70903e-09
0.00340674
1.57164e-07
0.0018383
0.000459339
0.00679465
0.00238558
0.00510437
0.000438122
0.0063235
0.00224212
1.89751e-08
0.00245176
0.00311775
0.00186896
0.00140441
4.39022e-09
6.41994e-09
8.31554e-10
0.0347263
0.00179691
0.0028485
0.00184199
3.02984e-09
0.00334162
0.00843102
0.00228084
0.00258041
5.9009e-09
3.78583e-08
0.00170911
0.00188921
1.3137e-08
4.2215e-05
1.44172e-06
0.00264536
0.00295984
0.0288892
0.00167178
4.73437e-09
0.00300435
7.41581e-09
0.00425739
6.95656e-08
0.00529964
0.000358574
0.0027893
1.49624e-08
0.000640665
0.000923918
0.00720324
3.54486e-10
0.0198727
0.00616705
1.20556e-08
3.55872e-08
0.00159576
1.23699e-07
1.53468e-09
0.00253528
0.0219179
1.66292e-09
0.0377752
0.00194086
3.49497e-08
5.3191e-09
0.000329384
3.06233e-09
0.000834803
0.0138688
0.0230506
0.00207764
0.0117313
0.00153843
1.71593e-08
0.00443621
0.0144792
6.27156e-09
0.00163043
4.94149e-08
0.0826184
0.0419865
2.89647e-08
0.00243795
0.00154747
1.95101e-09
3.22442e-09
0.0337831
0.0086273
0.0158496
7.55909e-09
4.30619e-07
5.07802e-09
0.0193846
2.49569e-09
0.00202137
6.51945e-09
1.65772e-08
0.0201702
7.66145e-09
0.000395241
0.0044419
0.00150031
0.00265774
0.00160669
0.023559
1.18907e-08
0.00208241
0.0199879
6.91213e-09
0.000410059
0.000687735
1.5068e-07
0.00242406
0.0134033
1.30576e-07
2.30264e-08
4.44254e-08
0.00141205
8.43786e-09
1.09447e-09
2.11901e-07
2.62804e-09
4.86588e-07
3.81097e-05
0.0116603
0.00500344
4.37791e-08
0.000460397
0.000297258
0.0623684
4.08749e-10
4.98332e-09
0.0180549
0.000848598
0.00185718
0.00328963
0.000517851
1.49308e-07
0.0182876
1.42783e-07
0.0228942
0.000766175
0.0497948
0.0142388
4.11934e-08
0.0256338
0.00418169
0.0896182
0.00746083
5.65126e-09
2.61866e-09
0.256044
0.00670246
0.0010039
0.00304854
0.000160656
0.00336299
0.0308577
0.0108353
0.00287651
0.143975
0.0031077
1.35734e-09
0.0177192
0.0640645
0.0346522
4.6746e-05
0.00261838
4.80345e-09
0.00285934
0.000669538
0.0188837
0.019765
0.000894231
0.052238
0.0229763
0.000625222
0.00262161
0.0136819
0.00324183
0.000694542
0.0502481
0.00261213
0.00011409
0.0107388
0.0108636
0.0219158
0.00261532
0.000270648
0.00279772
0.0162829
0.000358009
1.14646e-08
0.173038
0.00337661
0.000914252
0.0016076
4.66763e-05
0.00433971
2.64495e-09
0.0186654
0.0026179
0.0141061
2.70144e-09
0.00557881
1.12194e-08
0.0164693
0.000301396
2.93955e-09
0.00870755
0.00251956
0.00664152
0.00769304
0.00210895
0.0158834
4.02393e-05
0.0156749
0.00661898
0.00926068
0.0562731
0.00547902
0.0293459
0.0345994
0.0170916
0.00114181
0.00398087
0.00265409
0.000971737
3.95822e-08
0.00425696
3.16971e-08
0.000636953
9.87957e-09
1.33946e-07
0.00244795
3.17693e-08
2.24769e-08
0.0536189
7.17388e-07
0.00276018
1.4194e-09
8.38005e-09
1.02202e-09
9.33695e-09
0.00264547
0.0299421
1.68394e-09
2.80666e-09
1.4251e-08
0.0170025
0.0026544
4.77432e-09
4.52869e-09
1.84155e-09
0.0346252
0.0067971
0.000519236
0.00230071
0.00447505
0.000554931
6.60934e-09
0.00493041
0.000429645
6.72581e-07
1.5778e-10
9.87908e-10
0.00263359
0.00221751
0.00104519
0.0085949
0.10282
0.000238802
8.07293e-10
0.00356734
9.58894e-09
0.0110944
0.0024055
1.82441e-08
1.95263e-08
0.00316613
9.60196e-09
0.0101126
0.0736377
0.0449777
0.000173249
4.23621e-07
5.6212e-08
5.61736e-09
0.00267623
0.00389858
1.38167e-08
0.00272592
0.0141976
0.00195054
3.17767e-10
0.00231071
0.000432703
0.0298496
3.5356e-09
3.70076e-08
0.0110408
0.00234382
6.15778e-09
0.00459951
0.000611907
1.12221e-08
7.28029e-09
0.00241579
0.0227272
3.85536e-10
3.16465e-08
5.83399e-09
0.00701812
4.57266e-07
0.000968817
3.50793e-09
0.00123303
0.00961208
9.08987e-09
0.0286013
1.03132e-09
3.51011e-08
0.00237835
8.7146e-10
7.21695e-09
0.0034576
0.00119492
0.00239717
7.19917e-07
0.00180594
2.13617e-09
9.06813e-10
0.00226677
0.00336622
0.0033985
0.300443
0.00163973
2.10712e-05
0.00222956
0.00458669
9.0997e-09
9.35538e-09
0.00370055
0.00218385
0.00309221
0.000271227
1.21552e-05
0.0139913
0.00277961
0.111841
1.3457e-05
0.010154
0.0103455
0.0123834
3.91737e-09
1.03315e-09
6.54391e-09
9.51969e-09
3.81676e-09
5.07473e-09
2.38074e-05
0.0115244
2.67754e-11
3.36835e-09
0.00377586
6.03352e-09
1.44266e-09
0.0149591
0.00196486
0.00289171
0.000155368
0.00230971
1.46574e-08
3.20074e-09
4.94021e-09
0.0243083
0.0131951
0.0102412
0.000192094
1.14026e-08
0.000192043
8.39079e-09
1.65922e-09
1.37519e-08
1.41339e-07
0.00164241
0.0110189
0.00692468
0.00145423
0.00184821
0.00227155
0.00232131
0.00176663
4.83075e-08
0.00410553
3.00176e-09
8.28566e-09
7.60188e-09
1.39164e-06
0.00275872
3.03499e-08
3.53795e-08
0.000418091
2.41589e-09
2.62449e-09
7.63273e-07
3.15502e-06
0.0536057
0.000485108
1.90498e-09
3.59406e-09
0.00294852
0.00200844
0.00192123
0.00309883
3.80449e-05
7.5237e-07
0.00105424
2.81654e-05
0.0194713
0.00304383
0.024137
0.0015856
0.0511607
1.10979e-09
0.0011451
3.62875e-10
4.18336e-08
0.00373082
2.95683e-09
0.00137986
0.000102434
0.00223807
0.0192347
0.00126207
0.00232513
0.00863924
0.0024492
0.0108868
0.00360491
0.00165108
5.35327e-08
0.00507512
0.0297187
2.27827e-08
5.07149e-10
0.063574
0.00888315
0.00651365
6.56845e-07
0.0656422
0.00192576
0.0153029
3.5139e-09
0.0172423
0.00315835
0.00141646
0.00245257
0.0024324
5.32759e-09
0.0402759
0.0145806
0.0145576
0.00314714
0.000610968
0.00153833
0.00333258
0.000962251
3.29605e-09
0.00166387
0.00313817
2.94847e-08
7.45807e-10
0.00174294
0.036341
0.00331103
4.85206e-07
9.66778e-08
0.000406718
0.000191633
5.84925e-08
2.73403e-07
2.84053e-07
9.44621e-08
0.0140758
4.92626e-09
1.1108e-08
2.10978e-09
2.14146e-08
0.000131893
1.69932e-10
2.29394e-09
0.00207001
0.00293919
3.13504e-10
2.61042e-08
0.0006711
3.17171e-09
1.43268e-06
0.0167476
2.48186e-09
0.00327723
0.00156104
0.00150355
0.00168206
0.00695864
0.00429392
0.000596574
0.00390907
6.32249e-10
0.00235482
0.00434213
3.63333e-08
0.00754342
5.62804e-10
0.00305408
0.00187397
0.100315
6.14384e-09
1.31981e-09
9.77719e-09
9.13431e-09
0.00139166
0.00297226
1.5644e-10
3.04298e-09
0.00219225
0.00538013
0.000770874
0.00293209
3.51896e-07
1.8368e-09
0.00947061
0.00250834
3.56968e-08
0.00221654
8.48082e-08
0.0039569
0.00330777
7.99017e-08
2.14411e-09
0.00365667
8.78724e-09
8.52423e-07
0.000344638
1.59969e-08
0.120108
7.5739e-06
9.24851e-09
0.00311034
5.21645e-09
0.0117215
3.55072e-10
0.00214103
7.08556e-09
4.7701e-09
0.00071179
0.000207948
1.77845e-08
0.00321516
2.19801e-08
2.50682e-08
4.82431e-09
0.0185412
0.000599224
8.56105e-09
1.19041e-08
0.00226167
8.01749e-09
0.00303374
0.00454017
4.9391e-09
0.00036067
2.93225e-09
3.41283e-09
2.71688e-08
0.0124107
3.11321e-08
0.00158136
0.00209722
1.12903e-07
0.0847068
8.65675e-08
0.00317774
0.00110979
4.80923e-08
0.00237267
0.00453558
0.0265669
0.0111171
0.000410463
6.55867e-09
0.0378473
0.0398978
0.000563895
0.0179753
0.00261299
2.97946e-10
2.46858e-09
0.000636419
0.000341711
1.73968e-08
0.000460444
0.00430997
1.08343e-07
0.000160983
2.78018e-09
4.23313e-07
0.00600403
5.13444e-09
0.00246984
1.3346e-08
1.39049e-08
0.000200466
1.2201e-07
1.65623e-09
1.00092
3.09651e-08
0.019419
0.00317881
1.68578e-07
0.000297091
0.0178466
0.00090823
7.01422e-09
0.0024341
0.00563293
3.6989e-08
2.3367e-08
1.239e-08
3.12066e-09
7.52898e-06
1.12234e-08
0.0024659
0.00447848
6.62385e-09
2.26382e-09
0.0196024
8.69333e-06
0.00254958
0.000394482
8.94234e-06
1.89139e-08
1.66324e-08
0.00236576
0.00935956
0.0126459
0.00605835
0.000755093
2.41576e-08
2.27566e-05
8.40467e-06
1.73838e-05
0.00266412
5.38297e-08
0.000310601
0.00364503
0.0016861
0.00332946
0.00270866
0.000752213
0.00466243
1.07341e-09
1.47269e-09
0.0225898
5.08857e-09
3.40776e-09
0.0018699
0.00338255
0.00992892
0.00385085
1.25939e-08
0.00711106
0.00311483
1.407e-08
0.00330144
1.4122e-08
1.31045e-08
1.82684e-08
0.00360949
0.0129983
4.63592e-08
0.00605222
0.00159576
0.151961
0.000166758
0.00371435
6.63833e-09
0.00695142
8.18923e-10
8.55888e-05
5.57953e-09
0.0221644
8.17104e-09
0.00231083
0.00261064
0.00320116
0.00677975
0.00215954
0.00221108
0.0168553
0.00693503
8.00068e-09
1.29577e-08
0.012268
1.47315e-07
2.947e-07
0.000469068
0.00291549
3.31705e-08
1.18612e-09
9.815e-10
0.00229231
0.00327815
0.00214002
3.54564e-08
0.00319888
0.00189807
0.000624945
3.71306e-09
3.47571e-09
0.00182303
0.0184817
2.79284e-05
0.00095281
0.0070791
5.62516e-05
0.0314415
0.0013331
0.00740297
5.48496e-10
1.35864e-08
2.36723e-05
1.40201e-08
2.92077e-09
6.06092e-08
2.70174e-08
0.0036568
5.70893e-07
0.0375043
1.14474e-08
0.00781419
0.00286336
0.00748734
0.00332497
0.0148729
0.0174274
0.00139355
0.00972276
0.000453674
7.64708e-07
0.0013479
0.00181436
8.22316e-09
0.00381473
2.35001e-08
0.00286427
5.97759e-05
2.7006e-06
2.87026e-09
0.00269868
0.00132539
0.000427457
0.0265759
2.10967e-09
0.00133812
5.27389e-09
3.99981e-09
8.98703e-09
5.49695e-09
0.00245402
0.00209686
1.80812e-08
0.00159312
0.00312443
3.90997e-09
0.0156772
0.0132306
6.18166e-09
2.4237e-08
0.00163949
8.66163e-09
0.000322219
1.13607e-09
0.000453227
3.75058e-09
0.00235258
5.08388e-09
0.00530145
0.000526623
0.00116705
0.00053908
0.00837241
0.00525984
0.00869239
2.46524e-08
0.053822
0.0219935
0.0971833
0.00195709
0.000145515
1.63712e-09
0.000288485
6.44068e-09
0.0100246
0.0302034
0.0247143
2.27881e-08
1.17384e-08
0.00773782
8.04468e-09
0.0174442
0.301816
0.0176347
1.59172e-08
9.02849e-09
0.0160348
0.00158903
2.82149e-07
9.97049e-09
0.162046
1.37028
5.19351e-09
5.52669e-08
2.06145e-08
0.00481162
5.18771e-07
6.06556e-07
5.552e-09
9.39212e-09
0.00232552
1.3841e-09
0.00230276
5.07397e-09
0.00243476
0.0027379
0.00255907
1.1936e-09
9.45963e-09
7.04473e-09
0.00467448
0.0146474
0.00402634
0.00258566
2.36049e-08
0.0015994
0.00137064
1.54328e-08
2.12396e-09
0.00875438
5.21552e-09
0.0311072
9.42202e-10
0.0482718
0.0150074
0.000253454
0.00493761
1.69606e-09
0.0023741
6.33829e-08
1.2015e-08
0.0834875
2.13554e-07
3.11097e-08
8.27587e-06
0.00396257
0.00345879
0.00151524
0.00101103
1.5222e-08
0.00104735
0.0010401
0.000185234
1.52385e-07
0.0682293
0.0265113
1.7352e-09
1.29012e-09
0.00243845
0.0668286
0.0119934
0.00410958
4.344e-09
0.00723993
0.00268232
2.31807e-08
1.30632e-07
0.00481335
6.43854e-09
0.0173273
0.00527451