/*--------------------------------*- C++ -*----------------------------------*\
  =========                 |
  \\      /  F ield         | OpenFOAM: The Open Source CFD Toolbox
   \\    /   O peration     | Website:  https://openfoam.org
    \\  /    A nd           | Version:  10
     \\/     M anipulation  |
\*---------------------------------------------------------------------------*/
FoamFile
{
    format      ascii;
    class       volScalarField;
    location    "35";
    object      T;
}
// * * * * * * * * * * * * * * * * * * * * * * * * * * * * * * * * * * * * * //

dimensions      [0 0 0 1 0 0 0];

internalField   nonuniform List<scalar> 
59698
(
286.626
283.15
283.15
283.15
299.938
283.15
292.521
283.15
303.15
303.15
303.15
283.15
283.15
283.15
300.12
303.15
283.15
283.15
283.15
293.793
303.282
302.125
303.148
303.15
295.671
283.15
283.15
298.348
295.689
295.358
300.292
303.15
303.15
298.84
302.362
283.15
283.383
283.467
283.15
297.57
296.233
283.15
296.572
283.15
283.15
296.605
283.15
289.575
289.462
283.15
288.98
283.15
283.15
283.15
294.377
283.15
283.153
302.176
283.15
282.978
291.251
283.152
299.62
283.15
286.783
283.15
303.15
283.15
283.15
303.15
283.15
283.154
283.136
298.577
283.15
297.785
283.15
287.693
291.648
294.137
299.953
283.151
303.15
283.15
303.703
283.15
283.15
283.15
298.881
283.15
303.15
294.738
298.987
283.15
283.15
283.15
299.06
283.15
298.909
283.15
299.11
283.129
285.9
284.5
283.15
283.15
283.15
283.15
303.15
283.15
283.15
283.15
298.864
283.15
283.15
283.15
283.15
283.15
283.15
303.15
283.15
283.15
283.15
283.15
283.15
283.15
295.474
303.15
283.15
283.15
287.525
283.15
303.15
292.763
290.234
291.657
283.15
303.15
283.15
283.15
283.15
283.15
290.578
292.104
283.15
283.15
283.15
283.15
283.15
301.181
283.138
303.15
288.08
283.15
283.348
283.15
283.15
283.15
296.951
283.15
289.67
283.15
290.777
299.547
297.805
296.682
283.15
280.916
299.36
283.15
300.385
283.151
300.949
301.012
285.529
283.15
303.15
283.237
303.15
298.929
302.761
300.409
298.632
283.15
298.721
300.853
300.763
283.15
283.15
293.498
283.15
283.15
296.603
297.469
299.384
283.15
293.936
296.56
303.155
299.383
283.15
284.143
292.424
283.15
299.289
290.721
297.326
295.408
293.582
298.024
283.15
283.15
299.135
303.15
294.872
283.15
283.15
283.15
297.839
296.016
282.052
296.322
283.15
299.283
295.279
299.336
295.831
291.354
295.632
285.012
283.15
296.16
295.172
295.833
283.15
294.815
295.983
283.15
283.15
295.001
283.15
293.987
289.943
303.15
294.641
283.15
282.928
285.619
285.558
283.15
283.211
293.45
293.266
303.15
283.15
292.564
283.221
293.848
283.15
283.15
303.12
283.15
285.391
283.202
283.205
295.335
283.15
303.15
283.15
283.15
283.15
286.65
303.101
283.15
287.336
283.15
283.15
283.15
293.98
303.15
303.15
283.15
283.15
289.092
295.129
290.676
283.158
303.15
286.041
283.156
301.405
291.28
283.15
283.15
283.156
283.15
283.15
283.163
295.099
283.15
291.444
283.15
283.15
283.15
283.15
283.15
287.815
283.15
283.15
283.15
283.15
283.15
283.15
283.15
283.15
291.596
283.15
283.15
283.15
283.15
283.15
293.396
283.15
303.15
298.35
286.248
283.15
283.15
291.455
283.15
300.184
290.669
298.886
281.566
303.15
293.791
283.15
283.15
298.461
293.845
295.106
295.534
283.15
294.977
298.955
283.15
295.595
301.434
283.15
289.168
292.821
283.15
301.353
303.15
284.215
300.74
302.085
283.15
283.15
303.15
283.15
283.15
303.15
294.999
283.15
283.15
283.15
290.424
283.15
282.756
292.683
283.15
283.15
283.15
296.429
303.15
283.15
283.15
283.15
303.15
283.15
283.15
283.15
293.517
283.15
283.148
283.15
283.15
283.15
283.15
283.15
303.15
288.923
290.752
303.133
301.991
301.766
283.15
283.15
283.15
288.509
295.716
283.15
283.15
283.15
283.15
295.935
293.266
295.676
302.251
297.876
303.15
288.471
303.15
283.15
289.839
283.15
283.574
302.297
302.83
283.15
283.15
289.475
282.001
283.15
283.15
303.15
283.15
283.15
283.15
295.497
302.787
285.302
291.848
287.575
303.15
303.15
298.65
283.15
291.938
283.15
283.15
303.15
283.15
283.15
302.913
294.851
283.15
283.15
299.209
283.15
283.15
283.15
286.329
283.15
283.15
290.625
303.15
284.3
283.15
290.045
283.15
283.958
293.937
303.15
283.15
283.15
291.893
283.15
294.98
294.951
283.15
283.15
283.15
283.15
283.15
302.757
292.104
293.569
283.15
283.15
283.15
283.15
283.15
300.931
283.15
283.15
283.15
291.936
292.856
299.032
290.483
291.358
283.15
292.111
283.15
283.15
283.15
289.581
283.15
283.15
295.192
299.059
294.604
283.15
303.15
283.15
303.15
283.15
290.278
294.634
290.682
283.153
283.15
291.632
283.15
283.15
283.15
283.15
283.15
289.553
293.964
283.15
283.15
283.15
302.995
294.941
283.15
289.834
288.748
283.15
301.512
303.15
283.15
283.15
283.15
283.15
286.364
283.15
303.15
289.999
283.15
283.15
281.264
289.379
291.829
282.227
283.132
290.842
283.147
283.15
303.15
283.15
303.15
283.15
283.15
283.15
295.581
291.52
291.826
283.15
303.15
283.15
283.123
283.15
303.15
286.381
283.15
291.209
303.15
292.07
283.15
283.15
289.423
288.407
289.935
283.15
292.282
295.528
303.15
283.15
283.15
285.269
283.15
289.215
283.15
283.203
283.15
289.739
289.358
289.079
296.416
283.15
283.15
283.15
283.15
303.15
282.782
283.15
283.15
290.914
283.402
283.15
283.15
284.001
284.345
283.15
283.15
283.46
283.15
283.15
283.159
283.15
283.17
283.193
283.164
283.15
297.854
285.636
283.15
283.15
283.16
283.15
302.964
295.04
283.15
290.921
283.15
283.15
283.15
295.6
283.15
283.15
283.15
283.15
283.15
283.15
283.15
283.15
286.95
283.15
283.15
283.15
303.15
285.004
294.051
283.15
283.15
283.15
283.15
283.15
283.15
288.556
283.15
283.15
283.15
283.15
303.147
293.601
283.15
283.15
283.15
290.993
283.795
301.79
291.624
283.15
283.15
283.15
288.929
283.15
283.15
283.15
283.15
283.15
283.15
283.15
295.303
293.234
283.15
283.15
283.15
283.15
283.15
283.15
283.15
283.15
283.15
283.15
295.736
290.8
297.151
283.15
283.15
285.896
283.15
283.15
283.15
283.15
283.15
283.15
283.15
292.55
283.151
283.15
303.15
296.524
283.15
283.15
283.15
283.257
283.15
283.15
283.15
283.15
297.64
289.347
283.15
303.15
283.15
297.872
297.946
283.15
283.15
295.603
297.232
295.555
283.15
296.239
283.15
282.859
283.15
290.532
300.335
283.15
291.103
283.15
303.15
297.636
287.951
283.15
283.15
283.272
297.044
294.591
288.783
283.597
283.452
283.15
286.006
283.15
296.877
293.729
298.088
283.15
283.15
290.254
295.068
303.15
283.15
296.908
283.15
298.221
295.936
283.15
293.852
296.74
283.15
283.15
294.936
294.577
283.15
283.15
283.15
283.15
289.448
283.15
283.15
294.539
294.557
297.42
283.15
293.706
290.464
294.882
295.288
295.322
283.15
284.362
298.828
283.15
288.635
297.676
301.098
283.15
302.765
283.15
283.15
283.15
283.15
283.15
283.15
283.15
283.15
298.046
283.164
283.337
283.15
283.15
282.346
283.15
283.15
283.15
283.15
303.102
298.504
303.15
283.15
284.572
288.612
283.15
282.176
283.15
283.229
283.15
283.15
287.075
292.074
296.699
283.15
295.799
283.15
283.15
283.15
283.15
283.15
283.162
283.15
283.132
283.174
303.15
283.15
283.15
283.15
283.15
291.175
283.15
283.397
283.15
294.64
283.15
283.15
285.433
283.15
283.15
283.15
299.43
295.187
287.269
283.15
283.15
295.91
303.15
295.89
283.15
283.15
283.15
283.149
283.15
283.15
283.15
283.15
284.11
283.15
290.386
283.15
283.15
283.151
294.918
283.15
283.151
283.15
283.15
283.15
283.15
283.15
283.15
283.15
283.15
283.15
283.26
296.326
296.008
283.15
283.275
295.074
283.15
296.748
303.15
283.15
295.893
283.15
283.15
283.15
283.261
283.15
295.889
283.15
283.15
293.594
283.15
283.15
283.15
283.15
303.15
283.15
283.15
283.15
295.917
297.652
283.15
296.719
290.22
283.224
295.629
283.15
291.435
290.742
286.602
292.099
283.15
289.768
283.15
296.56
295.757
283.15
290.302
283.15
283.15
297.547
283.151
290.058
296.154
296.763
283.15
293.961
285.344
293.997
283.15
283.15
283.15
283.15
283.15
283.15
283.15
283.15
283.15
303.15
283.15
283.15
294.483
303.15
283.15
296.665
284.669
283.15
283.15
283.15
295.687
283.15
303.15
303.15
283.15
295.556
283.15
283.15
291.451
302.712
298.558
283.15
284.755
302.159
297.858
294.938
295.855
293.728
283.15
295.695
283.15
290.639
287.737
284.472
283.15
283.15
303.15
283.168
285.122
300.386
287.634
303.15
303.15
283.15
283.245
287.54
283.15
283.15
292.59
283.15
283.15
283.15
298.376
283.15
287.595
288.095
302.802
283.15
283.583
302.799
283.15
283.15
302.807
283.15
294.542
295.195
296.441
295.36
295.982
295.234
283.15
283.15
303.15
295.485
296.532
283.15
283.15
283.15
297.699
283.15
283.15
283.15
295.34
283.15
287.749
283.15
290.932
283.15
303.15
283.15
288.102
283.15
303.15
292.161
294.209
295.98
283.15
289.327
303.15
303.15
293.089
283.15
293.354
283.15
283.15
292.598
283.15
303.15
303.15
284.101
292.411
295.121
303.15
283.15
296.118
303.15
282.444
283.15
283.571
283.15
292.71
283.15
283.15
292.564
303.15
283.15
283.15
283.15
283.15
283.15
283.15
294.218
301.059
303.15
297.281
302.919
283.15
301.671
287.097
291.084
295.262
297.731
297.211
289.457
289.153
283.15
283.15
288.101
283.15
303.15
283.15
300.97
283.15
294.377
283.15
294.925
283.15
302.392
289.605
294.8
294.638
283.15
283.15
303.15
283.15
286.771
283.15
283.15
283.15
294.655
283.15
304.951
283.15
295.044
283.15
295.303
283.15
287.084
294.932
303.15
283.15
283.15
283.15
290.199
283.15
300.81
301.118
283.15
295.894
299.144
302.605
293.685
283.15
283.15
302.58
287.721
300.263
291.92
283.15
295.941
295.795
295.39
293.307
295.257
303.15
286.063
298.861
295.794
283.15
283.15
297.243
283.15
299.002
293.768
283.15
293.667
283.15
303.15
293.363
303.15
292.589
283.15
283.26
292.09
283.15
285.387
283.15
303.15
294.482
291.955
288.95
292.446
293.371
303.15
303.15
283.15
283.15
283.15
303.15
283.15
283.15
283.15
283.15
303.15
283.15
283.15
283.15
283.15
285.248
283.15
283.15
284.978
303.15
283.15
283.15
303.143
303.15
297.274
290.576
283.15
297.363
296.692
292.325
303.15
283.15
283.15
296.909
282.33
296.642
283.15
303.15
283.15
303.15
296.769
284.588
283.15
288.523
297.596
283.15
302.762
297.49
295.754
297.455
291.396
297.619
283.15
283.15
297.489
297.422
283.15
303.15
283.15
291.913
283.15
283.15
283.15
283.15
283.15
283.15
283.163
283.15
300.614
285.584
297.029
303.023
283.15
303.15
283.16
283.15
299.958
303.15
303.15
293.486
283.15
300.655
283.15
283.15
303.15
283.151
283.15
303.15
283.15
283.15
283.15
283.15
302.959
303.15
297.513
283.15
283.15
289.049
283.151
283.15
283.096
303.15
283.15
303.15
283.15
303.15
283.15
297.886
297.78
296.973
297.557
293.821
283.15
286.803
283.15
283.15
291.914
298.051
294.825
296.657
283.15
301.147
283.15
303.15
283.15
297.014
296.296
303.15
303.15
283.15
288.94
287.352
294.3
289.22
289.609
303.15
303.15
283.15
283.15
287.785
303.15
299.768
303.15
287.57
303.15
303.15
303.15
291.71
290.767
299.277
303.15
292.6
285.329
303.15
283.151
287.299
282.678
284.385
283.734
295.848
291.694
283.15
283.311
293.658
283.15
303.15
303.15
285.191
288.644
292.723
283.577
283.279
283.15
289.881
283.15
283.15
294.181
291.71
283.15
287.708
285.214
293.96
303.15
292.224
284.062
290.956
293.984
300.943
283.15
292.381
283.15
283.15
298.112
283.15
283.15
283.15
283.903
286.789
283.765
283.15
284.857
283.15
284.221
303.15
294.065
290.088
288.494
292.642
303.112
303.15
283.15
284.406
294.768
300.628
284.975
285.116
298.442
284.159
284.948
282.308
294.005
303.15
287.372
283.15
283.128
285.155
303.15
297.616
283.151
283.15
303.15
284.93
300.028
303.15
283.15
289.243
295.15
296.527
297.857
283.515
303.15
285.249
283.15
283.15
283.15
293.941
283.15
303.125
283.15
303.15
294.355
283.15
292.603
283.15
283.15
283.15
300.129
298.992
285.918
283.138
299.312
283.15
299.442
303.15
283.15
283.15
296.276
285.772
283.15
283.15
288.1
283.15
283.15
283.15
283.15
283.15
296.746
303.15
293.684
283.15
303.15
288.56
283.15
283.15
288.201
303.15
296.12
283.15
303.15
296.847
302.678
290.215
283.15
286.919
288.124
303.15
283.15
303.15
283.15
283.15
283.15
283.15
283.14
291.9
283.209
303.15
288.295
288.776
287.963
294.291
288.253
294.901
289.065
286.219
303.15
287.447
291.79
283.15
303.15
300.564
283.15
289.597
303.227
303.15
299.155
283.15
290.462
303.15
283.15
290.511
283.15
297.733
297.137
290.166
295.049
303.15
303.15
290.269
290.295
283.944
284.617
283.153
283.579
303.15
283.803
290.225
303.15
283.15
283.006
283.15
290.351
299.838
303.15
290.323
303.15
303.15
283.685
283.15
283.15
283.149
303.15
293.258
283.15
303.15
303.15
284.183
283.127
283.514
303.15
283.139
283.15
283.309
283.354
300.7
283.15
283.329
303.15
294.726
294.23
303.15
303.15
303.15
283.15
283.15
283.335
291.865
303.15
283.14
283.151
303.15
303.15
303.15
283.15
283.15
283.15
283.15
283.15
283.15
283.15
296.138
303.15
283.15
283.15
283.15
283.15
294.077
283.15
283.15
283.15
283.15
283.15
283.14
283.15
303.15
283.15
283.15
283.15
283.15
303.15
283.15
294.22
303.15
285.309
283.15
293.203
283.15
283.15
283.15
297.199
283.15
296.723
295.925
283.15
283.15
283.15
283.15
283.15
283.15
283.15
298.965
283.15
287.268
283.15
304.96
284.042
283.15
300.337
283.134
283.15
291.721
303.15
294.401
296.513
295.25
283.15
301.436
296.26
283.15
298.92
293.098
302.823
297.671
300.382
283.15
285.252
294.225
289.333
293.269
295.907
297.451
283.15
296.653
283.15
283.15
294.753
283.15
283.143
299.559
283.15
288.1
283.15
283.15
297.869
293.722
283.15
283.15
292.499
283.15
295.048
283.15
293.102
298.413
283.15
300.327
284.727
294.426
283.15
293.609
298.434
291.682
283.15
284.611
283.15
283.15
283.15
283.15
303.15
292.501
297.145
298.038
301.578
283.454
288.573
283.15
283.15
283.15
283.15
303.151
283.15
283.15
283.15
283.139
283.15
283.15
283.15
301.987
283.15
283.15
303.188
283.15
283.15
283.15
299.01
283.15
302.103
302.827
294.644
283.15
283.15
283.15
283.15
283.15
290.566
283.15
283.15
283.15
295.161
302.942
283.15
288.178
283.15
298.901
293.011
283.158
283.15
283.15
283.15
283.15
295.16
283.15
302.926
283.216
283.15
286.654
298.25
302.943
283.15
292.696
283.15
298.524
283.15
293.658
288.183
289.743
283.15
291.426
289.066
294.121
283.15
289.317
302.813
283.15
283.15
289.446
283.15
283.15
291.932
299.707
283.15
294.606
283.15
283.15
283.15
284.136
283.15
295.022
287.189
298.585
299.524
289.31
283.15
283.15
294.756
295.992
283.15
283.15
283.15
298.69
285.53
283.15
283.15
283.15
283.15
283.15
296.215
287.994
296.563
283.15
283.15
283.15
299.573
303.15
287.879
283.15
283.15
296.973
283.15
299.69
283.15
283.15
283.15
283.15
299.652
283.15
283.15
301.301
283.15
283.15
286.064
283.15
283.15
289.336
283.15
303.15
283.15
301.44
283.15
283.15
283.15
283.15
283.15
301.371
287.261
290.355
283.151
283.15
283.231
295.984
283.15
283.15
298.921
285.015
290.399
290.555
283.15
303.15
298.541
283.153
294.381
295.699
295.018
301.377
283.15
301.191
289.602
292.995
292.093
303.15
283.15
300.08
295.454
295.691
291.32
302.833
286.647
295.632
293.862
292.387
296.236
290.658
283.15
291.14
292.623
295.763
283.773
283.15
283.15
283.15
296.435
296.085
295.181
296.198
294.3
295.784
294.784
283.15
291.991
295.617
295.822
296.79
300.267
297.335
297.455
297.953
301.219
283.15
303.146
283.148
290.48
283.15
283.15
301.787
303.555
289.926
303.01
303.129
291.145
283.15
292.107
283.15
290.828
283.15
300.598
283.15
291.098
303.15
283.15
293.493
283.15
301.071
295.243
283.15
302.013
283.524
289.225
302.278
286.674
295.427
291.663
292.613
294.61
300.545
302.96
292.974
289.825
289.039
283.15
294.861
283.15
295.88
283.15
283.15
283.15
283.151
283.151
295.804
283.216
283.15
283.15
283.15
283.15
283.15
290.96
294.082
283.151
283.151
283.15
293.405
283.15
283.15
283.15
283.15
286.558
302.176
291.953
299.927
296.658
293.234
283.15
295.968
303.15
283.15
283.15
283.15
292.477
296.77
295.475
294.315
298.707
288.436
283.15
283.143
283.15
291.348
291.61
283.15
283.15
292.6
283.15
296.159
297.897
300.89
295.604
283.181
283.15
283.15
283.15
295.384
283.15
295.512
294.702
289.673
283.15
295.687
300.953
296.715
283.15
303.15
292.568
295.691
283.15
294.687
283.15
283.15
283.15
283.15
290.63
283.15
283.15
283.15
292.934
283.15
294.261
283.15
294.855
290.844
283.15
293.6
283.15
283.15
292.271
283.15
283.15
295.098
295.18
283.15
283.15
295.48
283.15
283.15
296.648
296.172
283.15
297.954
283.15
283.475
283.15
287.749
283.15
283.15
296.017
283.363
296.425
295.155
283.39
299.987
292.906
296.175
283.44
296.783
295.659
293.66
283.15
283.15
283.15
283.15
283.15
303.15
283.443
289.355
283.15
283.15
292.506
283.15
283.15
299.279
283.15
283.15
284.065
283.15
283.15
283.15
283.15
300.849
286.335
287.373
284.307
283.15
284.417
283.15
283.15
283.15
283.15
283.15
291.728
295.922
283.15
283.15
283.15
284.192
288.498
283.15
294.619
283.15
283.15
303.15
283.15
293.615
283.15
283.15
284.756
283.15
283.15
283.15
303.15
287.165
291.359
283.15
283.15
283.15
291.555
283.15
290.615
290.494
283.15
283.15
294.585
293.419
291.475
294.163
293.517
291.611
283.15
283.15
283.15
303.15
283.41
283.15
283.15
290.615
283.15
295.84
283.15
292.069
285.189
284.164
289.284
295.582
283.526
283.159
302.019
294.388
283.157
283.15
294.242
293.2
296.878
283.15
300.477
291.957
301.235
283.15
297.616
283.15
283.15
283.15
283.15
283.15
293.907
295.042
292.919
283.15
285.36
283.15
283.15
292.162
283.15
283.15
283.15
283.15
283.15
283.15
299.344
292.369
283.15
283.15
283.15
284.1
283.15
283.154
283.153
283.15
291.637
283.15
283.15
283.15
283.15
289.775
283.15
283.15
283.15
283.15
283.15
283.15
290.947
283.15
302.667
290.506
283.15
296.8
283.15
285.565
283.15
298.647
303.388
296.196
283.15
283.15
283.15
298.425
283.15
290.089
283.15
283.15
286.382
285.979
283.15
283.15
283.15
283.15
283.15
283.15
283.15
283.15
291.731
293.049
293.928
283.422
283.15
283.15
292.245
283.349
283.15
283.15
283.15
283.15
283.15
283.15
283.15
283.15
283.15
303.15
303.15
283.15
292.027
295.681
283.15
283.15
283.15
297.012
283.15
289.563
283.15
283.15
288.504
288.708
283.15
288.553
283.15
283.15
283.15
295.405
295.465
283.15
283.15
283.15
283.15
283.15
303.244
283.15
303.15
283.15
283.15
283.15
296.092
283.15
283.15
283.15
283.15
291.14
283.15
283.15
283.15
303.15
282.891
283.15
301.985
284.039
303.15
283.15
300.866
294.278
283.15
291.748
283.15
283.15
283.15
303.15
303.15
283.15
283.15
296.678
283.15
295.558
283.15
283.156
293.903
283.15
296.769
283.15
283.15
300.782
303.15
303.15
297.794
283.151
294.848
293.74
283.15
283.15
300.961
287.63
283.15
283.15
291.795
303.15
283.15
283.15
283.15
283.405
283.15
300.84
283.15
283.15
283.15
294.42
283.329
283.15
283.15
283.312
283.15
283.15
296.69
301.943
302.713
293.558
295.795
283.15
283.435
283.324
283.36
300.582
283.15
283.15
291.82
290.47
290.346
290.518
291.802
290.479
283.15
303.15
297.134
283.15
283.15
283.241
291.498
297.929
283.146
283.15
283.67
283.15
283.15
283.15
283.15
283.15
283.15
292.186
294.927
303.15
295.687
284.941
292.875
297.803
298.037
283.15
286.875
283.15
298.079
283.15
296.161
283.15
283.15
298.679
283.15
294.563
298.117
294.141
296.557
293.844
283.15
283.15
297.001
283.15
283.15
289.556
283.15
283.15
283.15
283.15
290.583
291.523
283.748
283.15
295.866
292.07
283.15
283.15
283.15
283.15
299.668
283.636
292.068
286.315
283.813
290.729
292.059
293.85
283.15
283.15
283.591
283.15
283.15
283.15
283.15
290.838
283.15
296.823
283.15
296.332
288.574
295.955
297.501
295.57
287.431
297.248
293.993
293.752
283.15
283.15
297.505
283.15
283.15
283.15
283.15
290.473
283.26
283.15
283.15
283.15
283.15
290.107
283.15
283.15
283.15
283.15
283.15
283.15
283.15
283.15
283.15
295.594
298.738
283.15
302.763
301.088
303.15
283.15
283.15
283.15
295.281
283.15
295.142
283.15
283.15
283.15
302.515
283.15
298.125
290.007
294.431
292.758
300.33
283.15
288.347
300.869
287.18
289.367
290.298
283.15
283.118
283.15
289.967
282.398
293.563
283.15
283.15
296.776
283.15
284.921
291.389
302.411
283.15
283.15
297.384
303.182
283.15
283.15
294.847
290.952
283.15
283.15
283.15
284.307
283.15
283.157
283.15
283.15
283.15
283.15
283.15
283.15
283.15
283.15
300.292
283.15
283.15
283.15
294.657
300.437
290.232
283.15
283.15
298.928
283.15
283.15
283.15
283.222
283.15
297.242
283.15
285.051
297.046
283.145
291.972
283.15
298.613
283.15
283.15
290.66
283.15
283.15
283.149
283.15
293.228
282.638
291.911
283.15
290.235
303.151
284.118
283.15
293.676
285.995
283.15
283.15
283.15
297.345
286.011
283.742
283.15
284.42
283.285
283.15
283.15
293.807
283.15
284.35
293.845
283.15
289.467
297.39
287.123
283.15
283.166
283.15
295.704
283.15
296.349
283.15
283.15
293.33
296.777
292.724
303.15
287.463
294.987
285.617
293.847
285.808
283.15
296.63
287.989
293.047
303.15
286.257
283.15
288.22
285.274
285.175
289.047
285.458
288.523
290.473
294.518
295.592
283.15
289.244
283.15
283.15
283.698
283.15
283.184
283.222
283.15
288.532
299.551
288.96
288.388
287.415
283.188
286.46
302.41
283.15
295.185
292.954
283.15
294.841
291.017
291.257
283.15
283.15
295.86
283.15
292.508
283.214
283.15
283.15
283.15
302.578
296.431
286.881
293.385
283.15
294.449
283.15
303.105
283.15
283.235
283.15
283.15
292.457
292.768
283.15
283.15
284.078
299.061
283.15
283.15
283.15
285.081
284.289
293.922
300.08
283.197
299.595
283.237
299.152
299.206
302.335
302.085
299.499
299.684
299.541
289.068
288.804
283.15
283.15
288.666
288.852
293.568
284.371
287.629
284.939
285.592
284.712
283.15
284.505
290.009
283.15
283.152
301.04
283.15
299.977
301.471
289.117
283.15
283.15
283.15
290.317
299.063
289.134
283.15
283.15
283.15
283.15
283.15
283.15
283.155
283.15
283.15
283.15
290.458
283.15
289.207
283.15
283.15
283.15
283.15
292.126
297.389
283.15
289.87
283.15
283.15
283.15
295.947
283.15
283.15
283.15
283.15
283.15
289.808
283.15
283.15
283.15
301.896
302.261
283.15
283.15
301.09
304.624
283.15
302.207
302.152
283.15
283.15
283.15
283.15
302.346
285.897
283.15
283.15
302.343
283.15
283.15
283.15
283.15
283.15
283.15
283.15
303.081
283.15
296.161
283.15
283.15
283.15
283.15
283.15
283.15
290.512
283.15
284.539
283.15
283.15
283.15
283.15
299.261
283.15
283.15
283.15
287.07
301.444
283.15
301.096
291.177
300.523
283.15
301.537
283.15
298.679
283.15
290.906
290.446
296.677
298.679
297.842
294.214
283.15
293.532
300.216
283.15
290.542
298.935
283.15
283.151
283.15
284.224
299.029
287.934
299.044
291.656
283.15
283.15
295.773
283.15
283.15
283.15
296.739
289.169
295.215
283.15
297.337
283.15
283.15
298.139
297.074
291.223
291.781
297.139
290.308
287.472
297.552
298.815
303.15
283.15
285.556
283.15
304.289
291.205
287.635
296.089
283.15
296.474
283.15
283.15
294.777
297.505
283.15
292.292
283.15
283.15
292.214
283.15
283.15
301.83
283.15
296.496
286.166
297.309
283.15
283.15
283.15
301.917
283.15
295.009
294.921
288.691
295.618
300.135
283.15
283.15
283.15
283.15
299.377
296.641
283.15
283.15
288.498
283.15
294.536
283.15
303.144
295.586
295.695
290.634
299.184
290.294
293.271
303.15
293.348
283.15
283.15
283.15
286.963
294.914
291.853
283.151
283.15
290.878
283.15
283.15
287.949
283.15
294.356
291.277
292.812
289.708
283.15
298.277
295.802
300.583
291.785
283.15
293.027
294.06
284.593
296.421
297.126
292.131
296.64
293.736
296.625
297.118
300.25
286.509
284.771
290.551
283.15
283.15
303.108
303.15
283.15
294.777
290.312
283.15
283.15
303.15
303.15
293.94
286.972
283.15
289.529
286.351
287.268
286.395
286.345
285.622
286.055
295.847
289.759
283.15
283.15
298.62
283.15
293.968
293.048
283.15
302.519
290.187
283.15
283.15
294.028
283.15
283.15
283.15
291.854
283.15
293.984
291.631
283.15
302.712
283.15
283.15
298.264
295.646
303.15
288.095
297.62
300.902
283.15
283.15
295.84
295.996
293.484
283.15
283.15
294.743
292.655
283.15
285.29
296.363
291.439
293.717
297.256
291.695
297.036
286.887
292.398
283.15
283.15
283.15
283.15
295.567
295.035
287.134
300.823
295.228
283.15
283.15
283.15
293.115
285.087
283.15
283.15
289.485
283.15
283.15
303.15
283.15
293.547
294.242
288.506
283.15
283.15
302.46
295.14
297.423
289.856
289.782
283.15
283.15
283.15
283.15
294.146
290.404
283.15
287.086
286.881
286.844
286.671
283.15
286.566
283.15
294.238
295.593
285.176
291.719
283.15
283.15
283.15
283.15
295.973
295.66
295.901
295.663
294.995
295.659
283.209
295.38
295.332
290.228
292.129
291.505
295.208
283.15
294.781
283.15
302.968
294.682
295.681
296.887
285.491
295.17
290.266
285.428
283.15
290.269
293.74
283.15
282.85
283.15
295.019
283.15
292.897
300.07
297.309
283.146
297.864
283.15
300.967
290.301
293.521
283.15
293.569
301.326
296.123
283.15
291.778
285.874
293.134
283.15
283.15
283.15
293.58
293.073
295.604
292.572
283.15
283.15
283.15
293.667
291.941
295.03
292.797
290.918
283.15
283.15
291.123
283.15
290.423
289.478
292.926
296.963
283.15
297.629
286.668
283.15
299.376
290.205
283.15
303.201
283.15
283.15
283.15
283.151
283.15
283.15
289.776
283.15
283.15
283.15
292.556
290.825
291.37
287.299
290.11
297.476
295.795
283.15
297.289
283.602
283.15
288.662
303.15
297.6
283.15
292.292
283.15
287.136
283.192
283.15
283.15
298.146
290.132
303.15
290.131
289.598
287.545
289.978
289.548
291.984
286.344
303.15
283.15
289.722
286.577
283.15
283.15
283.15
283.15
289.998
296.713
283.15
283.15
292.816
283.15
283.15
301.587
283.15
288.664
283.15
293.503
296.616
292.538
284.156
283.15
300.901
283.15
283.15
283.15
283.15
283.15
286.227
295.415
292.92
295.877
283.15
283.15
283.15
302.442
283.15
283.15
295.442
303.114
283.15
294.441
283.15
293.804
296.741
289.413
283.15
283.15
283.15
295.693
283.15
293.047
295.696
283.15
296.64
283.15
283.15
283.15
283.15
303.15
283.15
283.15
283.15
283.15
283.15
283.15
283.15
283.15
287.498
283.184
283.15
283.15
283.15
293.673
290.31
283.15
283.15
293.455
283.15
283.15
283.15
283.15
283.15
283.15
283.15
283.15
283.15
283.15
293.119
283.15
292.389
298.844
290.6
283.15
296.536
283.15
283.15
296.889
297.078
296.906
283.15
283.15
283.15
283.151
283.15
283.15
297.223
287.571
301.628
283.15
283.15
285.22
283.171
283.15
283.15
283.15
283.15
283.15
283.15
293.57
287.031
292.477
288.458
293.45
283.15
291.982
283.15
283.15
283.15
283.15
283.15
283.15
290.049
296.74
283.15
283.15
283.15
292.997
283.15
290.958
296.128
283.15
291.747
283.15
283.15
283.15
291.162
291.006
286.701
287.816
288.538
291.265
290.589
297.691
283.15
283.15
283.159
300.989
285.03
295.938
283.158
285.061
284.941
283.249
283.15
290.679
283.156
296.453
283.15
283.15
283.151
283.152
297.499
285.028
283.15
283.158
295.807
296.919
289.201
283.15
293.923
300.248
293.38
301.686
294.023
283.15
283.15
283.273
283.15
283.15
283.534
283.15
284.087
283.525
293.644
284.026
283.15
283.15
283.15
283.15
283.15
283.15
283.15
283.15
283.709
283.15
283.15
283.15
283.15
284.78
283.15
283.15
283.15
283.15
283.15
283.15
283.15
283.15
293.752
283.152
283.15
301.231
283.576
283.15
288.411
283.15
283.15
288.452
283.15
283.15
293.875
283.15
283.15
283.15
283.15
283.15
283.15
283.15
283.15
283.15
283.15
286.96
283.15
283.15
283.15
283.15
283.15
293.973
283.15
283.183
283.15
283.15
283.15
283.15
293.228
283.15
293.183
285.619
283.15
287.011
283.15
283.15
294.569
283.15
294.024
283.15
283.552
283.15
290.225
283.15
283.15
292.176
287.955
283.151
294.21
283.15
302.491
283.15
295.225
297.19
283.15
295.383
283.15
283.15
283.15
283.15
283.15
295.692
283.15
291.756
296.676
283.15
290.915
298.882
292.079
291.794
290.553
290.808
283.15
283.15
283.15
283.15
283.15
283.15
283.15
283.15
283.15
283.15
283.15
283.15
283.15
283.15
283.15
283.15
283.15
283.15
283.15
283.15
283.15
283.15
283.15
292.093
283.15
283.15
283.15
283.15
295.01
283.15
283.15
294.625
285.623
283.15
283.15
283.15
283.15
283.15
283.15
283.15
284.887
283.15
283.15
283.15
283.15
283.724
283.15
283.15
283.216
284.919
283.15
283.15
283.15
283.747
283.15
283.15
283.15
284.994
290.1
283.15
283.15
283.15
283.15
283.15
283.15
283.15
283.15
283.15
283.15
283.15
283.15
285.301
283.15
289.566
285.507
285.346
290.983
283.15
283.15
283.15
284.418
290.746
284.87
283.15
290.279
283.15
283.15
283.15
283.15
284.812
293.39
283.15
292.444
293.889
283.15
283.15
284.915
283.15
283.15
283.15
283.15
283.15
294.336
283.15
283.15
283.15
283.15
283.15
283.15
283.15
290.623
284.737
283.15
289.991
283.15
283.15
283.15
283.15
288.738
283.15
289.234
301.692
295.519
289.026
283.15
283.15
296.053
283.15
283.171
290.262
283.15
289.024
283.15
283.261
283.15
296.336
288.944
303.15
283.15
283.15
283.15
288.743
295.592
291.087
283.15
287.78
287.643
300.429
283.21
287.609
292.129
283.15
283.15
283.15
290.612
293.234
283.15
283.15
283.15
283.151
283.15
289.673
283.151
284.116
283.15
284.919
289.155
283.152
283.15
283.153
283.15
283.15
283.15
283.15
285.764
287.988
283.15
293.69
283.15
283.15
303.15
283.15
283.15
296.819
303.15
288.263
283.15
283.194
283.15
290.401
291.737
283.15
288.977
283.15
283.15
285.253
295.328
283.15
283.15
283.935
283.15
283.15
293.532
294.195
283.15
283.15
283.15
283.946
299.042
292.586
283.808
283.15
284.513
283.15
283.15
286.515
283.15
283.15
283.15
303.15
283.15
283.15
283.195
283.15
283.15
283.15
291.236
283.15
283.15
283.15
283.15
283.15
294.736
283.15
283.15
283.15
283.15
291.638
283.15
283.184
283.15
283.15
283.151
283.15
284.096
283.15
283.15
283.15
283.15
283.15
283.15
283.15
284.984
283.15
283.15
288.342
298.864
283.15
283.15
283.15
283.15
283.15
283.15
283.15
287.837
283.15
283.15
283.15
283.15
283.15
283.15
283.15
283.15
283.15
289.487
283.15
283.15
283.15
283.15
283.15
283.15
283.15
294.025
283.15
302.578
284.052
283.15
283.15
283.851
283.15
283.15
283.15
283.15
283.15
294.115
294.103
283.15
283.15
283.15
283.15
283.15
283.15
283.15
283.15
286.061
283.15
283.15
283.15
294.633
283.15
283.15
283.15
290.498
290.561
283.201
283.15
283.15
290.914
283.15
283.15
283.15
296.239
283.15
291.956
283.214
283.15
283.15
283.15
295.062
288.729
283.15
283.15
283.15
283.15
283.15
283.15
295.67
283.15
283.15
283.15
283.207
294.861
295.611
283.15
283.15
295.665
283.15
283.15
288.668
283.237
283.15
283.157
286.273
283.39
288.56
288.392
288.545
283.15
293.755
291.795
283.15
295.98
283.159
283.151
296.329
283.15
283.15
287.357
283.15
294.57
283.15
295.029
289.503
295.491
290.582
295.244
283.15
283.15
283.15
295.558
283.15
295.305
302.648
295.274
295.124
283.15
291.589
293.675
293.582
294.92
302.755
283.15
302.966
302.576
297.022
290.284
283.15
296.292
295.073
290.563
290.319
286.76
303.15
290.981
295.164
283.15
283.15
290.29
283.15
283.15
295.639
283.15
303.15
283.15
283.15
290.597
290.307
295.028
283.15
296.854
283.15
283.15
283.15
295.917
296.694
295.597
294.396
295.424
283.15
295.721
283.15
294.547
302.726
283.15
289.434