/*--------------------------------*- C++ -*----------------------------------*\
  =========                 |
  \\      /  F ield         | OpenFOAM: The Open Source CFD Toolbox
   \\    /   O peration     | Website:  https://openfoam.org
    \\  /    A nd           | Version:  10
     \\/     M anipulation  |
\*---------------------------------------------------------------------------*/
FoamFile
{
    format      ascii;
    class       volScalarField;
    location    "9";
    object      p;
}
// * * * * * * * * * * * * * * * * * * * * * * * * * * * * * * * * * * * * * //

dimensions      [0 2 -2 0 0 0 0];

internalField   nonuniform List<scalar> 
111485
(
7.9966
0.368248
0.425016
7.98557
0.432698
7.79937
0.370055
0.329377
0.373852
0.530095
0.364354
0.464711
0.376646
0.347598
0.375241
0.404843
0.138646
8.7886
0.375511
7.98135
7.97872
7.81384
0.373699
0.388179
0.428142
7.93557
0.522948
0.239974
0.423108
8.00486
0.628077
0.0960669
7.99041
7.84655
8.61137
7.83731
0.643882
0.0647591
0.743657
0.39237
7.90321
0.528686
0.39294
0.588001
0.542525
8.04306
0.562071
0.383994
0.5235
7.99473
7.99312
7.53696
8.00056
0.588025
8.00493
0.247687
0.377464
7.88088
0.501127
0.389264
0.390848
7.99663
0.306391
0.619453
7.80758
0.276656
5.43917
0.343568
0.297932
0.32739
0.616615
0.289593
7.80975
0.296555
8.02346
0.178446
7.82238
0.5061
7.81302
8.16666
0.614172
0.56875
7.83052
8.01579
0.308068
0.394593
2.44863
0.583817
0.634723
0.133595
0.59304
0.397468
0.309313
0.0807991
0.528966
8.01485
7.99792
0.597329
0.102988
0.715935
7.99265
0.516825
7.85309
0.494824
0.350626
8.03664
7.85873
0.107953
0.403485
0.471444
0.0903425
0.29022
0.401091
0.479456
7.93258
0.161178
7.95122
7.87456
0.298011
7.98264
7.93455
6.89961
7.83287
7.88145
0.551343
8.9273
6.86763
0.126323
8.0241
1.1708
0.606739
0.595577
8.02286
6.76071
7.02439
0.362757
7.82505
0.17886
0.328831
0.34835
0.50408
0.330928
0.340345
0.419955
0.545398
0.0416733
7.82455
8.01228
7.87303
0.355223
0.417925
7.97691
0.639949
0.00940724
0.209942
0.355927
0.349369
0.368163
0.336662
8.03414
7.98584
0.352477
0.413192
0.373095
0.26781
0.154405
0.615608
7.90338
0.407996
0.439513
7.86878
8.00999
0.446864
7.84403
0.0487338
0.0175579
7.82791
7.78799
7.95118
7.95006
7.76254
7.9843
0.360855
0.360001
0.356043
0.0649172
0.511187
0.207454
0.653398
7.99181
0.173321
7.78508
7.98853
0.214749
0.522248
0.626913
0.270399
0.0355954
8.0241
0.359924
0.415712
5.6511
0.576898
0.126039
8.0207
0.212232
0.483798
7.78281
0.618772
0.557836
0.416318
0.194506
7.7551
8.00007
0.208194
5.35193
0.598295
7.84226
0.211751
0.190803
0.536929
8.02986
0.219743
0.602083
6.28758
7.84362
7.86989
0.644962
0.274319
7.86794
7.41049
0.191004
0.0603136
0.187841
7.86533
7.88446
0.623066
8.02361
0.348032
0.182392
0.185807
0.173586
0.183031
7.87237
0.630673
0.143257
7.87853
7.8306
0.590015
0.289857
7.91889
0.102632
0.14154
8.01159
6.62272
0.567011
7.9694
8.07691
7.31797
7.96977
0.159891
0.17154
0.00365672
8.03451
0.1388
7.98698
7.99452
8.02798
0.6254
0.503197
0.299931
0.294722
0.474436
0.294693
0.298279
0.648871
0.0515524
0.0576174
7.74372
8.0104
0.648829
0.114711
0.455099
0.0732835
7.98401
0.303541
0.355854
0.294029
0.500224
0.625147
0.285842
0.295711
0.573786
7.87865
0.494529
7.84445
8.77055
8.13832
0.636675
0.472693
0.380528
7.95935
7.93315
0.238384
0.0936829
7.9757
7.99931
8.00945
0.172638
0.066292
0.354332
0.367106
0.390256
7.41322
7.86399
8.01826
0.2385
3.725
0.36775
0.629848
0.606476
7.831
7.99485
7.99746
7.0181
0.255349
0.433314
7.87147
0.25495
7.91342
7.94874
0.6135
0.254642
0.474126
0.25287
8.09931
6.9868
7.86583
0.253352
0.0287526
0.632541
7.81865
1.27668
0.574191
0.440975
0.231801
1.98327
0.39284
7.81892
0.387716
0.262402
0.632874
0.60519
0.436479
7.85251
8.0193
7.86281
7.98893
0.352758
0.221504
0.461932
0.397787
7.86376
0.460087
7.86189
8.00372
0.393684
8.18793
7.11117
8.06858
7.83571
0.358597
7.88064
0.0258858
0.457407
7.81305
0.313776
0.266554
7.98289
0.261636
0.460379
0.268975
0.626087
0.0545454
0.0691411
8.10832
8.0125
0.595675
7.89119
0.471856
0.60904
7.82193
7.87431
0.249499
0.470066
0.0377567
0.464749
7.82297
0.629229
0.458733
7.79334
0.584701
0.45426
7.99955
7.98283
0.0303869
0.427468
7.85699
7.9551
6.09873
7.99166
0.442926
7.84272
7.9904
0.459549
0.614834
0.558957
0.439059
7.80197
7.0332
0.606157
7.12639
0.584512
0.616326
0.528243
5.59903
7.19723
-0.365551
0.493744
8.00237
0.596422
0.454453
8.0286
0.368174
0.534841
7.1593
0.477408
0.461193
0.0555443
7.80707
0.260081
0.484123
0.0637124
0.635418
6.84763
0.226115
8.0173
0.66145
-0.132831
7.86805
0.468348
0.578524
6.68189
8.0329
7.57096
7.97765
0.437413
0.0895043
0.475589
0.479909
0.614483
7.84438
0.438229
8.00798
0.444435
7.78125
8.00538
8.02352
0.47257
8.01481
7.99984
8.41639
7.99664
7.87942
0.572421
7.88023
7.58162
7.85806
7.98986
7.79386
8.02475
7.81707
0.473984
7.85717
0.573473
0.486785
0.707051
7.79747
0.577042
7.86543
7.99564
0.465872
0.459786
0.510121
0.62289
7.50075
0.531741
0.526985
0.0486675
0.0420187
0.483947
8.0098
0.0257891
6.69183
0.564835
7.84699
0.540115
6.89565
0.0809091
0.478531
8.32016
7.9178
0.028918
7.97341
0.532802
0.52178
7.87985
7.8752
8.04358
7.86514
-0.108946
0.530784
7.77711
7.8825
0.432681
7.81429
0.526372
7.81968
0.560222
7.99673
0.539473
0.549616
0.279956
0.0771739
7.76788
-0.107332
7.78485
7.84818
0.493668
7.84894
0.533525
8.04997
0.54767
8.00666
0.521189
7.97755
7.16823
0.686944
0.476628
0.525967
0.512978
0.510807
0.456921
7.87136
0.518775
0.494246
7.83891
0.694008
0.625395
0.535641
7.84031
8.11853
0.447919
0.524915
4.17074
7.79897
0.502777
0.438162
0.514493
0.511679
0.195499
3.11652
7.08259
0.134313
3.65562
7.98752
0.548387
7.89204
7.197
0.133246
3.07047
0.123183
2.07645
7.08212
0.503935
0.435502
7.803
7.59994
0.440436
7.97094
7.81276
7.81809
7.79421
0.514605
7.86062
7.98468
0.524226
0.183814
6.24033
0.394229
7.48711
0.183433
7.99923
7.87167
0.513002
7.84582
7.79824
7.16676
0.0494576
5.0648
0.509374
0.139839
7.97626
0.578957
0.476984
0.442287
0.656251
1.03607
0.428422
7.85144
0.522343
0.442126
8.02775
0.266005
0.579111
0.45727
0.0449463
0.458968
0.457006
8.02986
0.540329
0.617309
7.14686
0.459338
0.55628
5.24493
0.140539
0.458241
0.550808
0.478806
0.488975
0.137325
7.90467
0.483837
0.534313
8.26551
0.504197
0.49939
0.143613
7.85163
0.0537194
8.04303
7.82724
7.86506
7.79252
0.450104
7.25098
-0.173105
7.99616
7.74977
0.510025
0.507752
7.97201
0.535307
7.99446
8.02366
8.00265
0.552227
0.548013
7.19205
7.98355
7.84738
7.85238
0.626472
0.138213
7.02775
0.500527
0.420654
7.87595
0.506318
0.564738
0.132356
7.80859
7.84213
0.277672
0.140598
7.13304
7.86792
7.77
0.202663
8.0138
7.96093
7.8412
0.498195
0.40852
7.81461
8.51286
8.26391
0.192655
7.87973
7.79707
0.538536
0.6222
7.11929
6.23047
1.84004
0.560981
0.00377154
7.75067
0.404792
0.584776
7.87781
7.99818
7.82583
7.84435
7.86442
7.81711
0.51519
7.99514
7.82602
7.83409
0.509872
0.12619
7.9608
8.01039
0.551773
0.136072
0.148866
7.96387
7.82782
0.139678
8.01374
0.492449
0.137121
0.146783
7.93834
7.99223
7.99201
7.8541
0.453646
7.83108
7.82067
0.597837
7.99096
0.228847
0.592109
7.79602
0.139445
7.93666
0.221385
0.51889
0.517654
0.554618
-0.328413
7.4148
0.217716
0.558435
0.00268041
7.92237
-1.08781
7.29393
0.0534123
7.85842
0.566694
0.56859
0.562652
8.12851
7.99404
8.03344
0.139106
7.48599
0.0546005
7.61533
0.403576
0.0561619
0.0888132
0.136613
7.81712
7.80954
7.8203
0.141707
7.79586
7.41451
0.627967
7.87729
7.88263
7.99279
7.82697
0.0955886
7.76085
7.84232
-0.596638
7.46901
7.89578
7.19935
7.8388
0.55916
0.0945306
7.97762
0.440094
1.75107
0.560764
0.460573
0.121272
7.86759
0.516344
0.648911
0.563086
8.01649
-1.53274
0.0945803
6.72436
0.0684227
0.630321
0.668066
0.314135
0.0794423
0.620123
0.0483163
0.0962385
7.83584
7.80071
0.0661938
0.0556859
7.87342
0.0692125
0.470923
0.0900666
7.78053
0.645878
7.85509
0.0926279
0.0835472
7.80559
-0.0239079
0.0936907
0.614768
-0.000214971
7.74103
0.347778
0.621637
0.72061
0.611666
0.60787
7.84156
7.86416
0.608875
7.82577
0.502731
0.583091
6.92208
0.354409
0.0309063
0.509025
7.82714
6.6458
0.193572
8.02343
9.39283
0.598236
7.78636
7.80037
0.124039
-0.00743846
7.82643
0.648855
7.84404
7.8455
8.02644
7.99608
8.0276
8.01201
0.624827
7.78994
7.86916
7.87974
-0.53394
0.655184
0.396624
0.190429
7.82065
7.79301
0.627259
7.83688
7.80342
6.12285
0.607967
0.244235
7.81032
7.79488
7.80019
7.79724
7.81583
7.7931
0.601729
7.79789
0.576418
0.394073
7.8515
8.00373
8.00688
0.646783
8.00015
7.98658
7.86686
0.570309
7.85652
0.606261
0.630203
0.588641
7.81256
5.59194
0.63122
0.378602
7.7561
0.58035
0.540886
7.97211
7.75189
7.04939
7.79538
0.191301
0.343106
0.624105
0.457907
7.80762
0.19224
7.72975
7.05161
7.01025
7.86993
0.320524
7.83969
8.01569
0.64712
0.248671
8.01324
0.538901
7.49892
0.60857
8.09729
7.84716
7.83632
7.99025
0.100912
0.347102
1.12466
7.81077
7.82383
0.0932587
7.82658
7.27483
7.99776
0.490253
0.450495
0.462722
7.95479
0.649773
0.656536
8.33017
0.658814
7.79664
0.582433
0.535365
0.330908
0.632366
0.551886
7.83145
7.84483
7.84476
0.647614
7.94198
0.623429
8.02946
1.47543
7.96115
0.388141
0.401395
8.01773
7.82188
8.03216
7.88231
0.619378
8.03885
7.0567
0.0836682
0.625272
8.03335
7.2424
7.83864
7.26094
7.79136
7.83316
0.632133
0.565187
7.98524
7.95012
0.213013
8.00341
0.631329
0.103411
7.85178
0.599377
7.99131
0.0640419
7.79262
0.42376
7.80396
0.27844
0.486762
0.611886
0.597104
0.593141
5.09413
7.71124
0.607643
7.99604
0.314417
7.96844
7.88526
7.71204
7.86886
7.89428
7.87274
0.584071
0.573903
7.99168
6.82484
7.96938
0.595215
0.645267
7.99837
0.324809
0.619352
8.00746
0.129396
0.0963246
0.301928
0.615452
7.82614
7.83773
7.87645
7.81934
0.321227
7.79873
0.614116
7.83448
0.611323
0.427182
7.85966
0.601157
7.8606
7.82421
0.611239
0.611592
2.73951
7.8348
8.02611
7.79111
0.330952
7.66764
8.07212
7.69436
1.62016
6.95852
0.323627
7.2359
7.66112
7.85357
0.106463
0.085575
0.474536
0.360136
8.0129
0.618391
7.84855
7.87255
0.092885
7.7661
0.228188
0.611477
0.0800655
0.616307
-0.0922607
0.455845
7.86622
-0.52401
-1.86056
0.553056
0.635746
0.248475
5.86975
7.992
0.44408
7.9692
7.79872
0.577447
0.518172
-0.188419
7.83404
7.69641
0.638324
8.00694
7.78822
0.613284
8.02282
8.01407
0.36849
0.616269
0.596618
0.310228
0.1598
7.7963
7.83089
0.535171
0.289172
7.818
8.01795
0.50024
7.79968
6.78549
6.99129
7.0251
4.81288
6.81895
7.8194
0.4669
7.78635
0.607637
7.80542
3.97059
7.83405
7.80559
7.8675
7.82604
0.441638
7.82698
7.82563
7.1347
7.797
7.86647
7.84342
0.274817
7.84351
0.247865
0.606438
7.80733
0.491936
7.81249
0.549315
0.571893
0.074345
0.0827999
7.93446
0.0858313
0.439136
0.606248
8.02447
0.599213
0.22134
0.0525084
7.51263
0.0547374
7.84302
7.86494
7.80469
7.81537
0.0575546
7.84377
7.79416
0.048823
0.575289
0.0390025
7.88069
5.7805
0.481624
7.85952
0.47213
8.00448
0.0762364
7.78099
7.78794
0.447234
7.80164
0.673683
8.00113
7.805
0.222304
0.554761
0.166654
0.340044
0.640678
0.27091
7.8063
8.13231
0.399637
0.176053
0.27703
0.608723
7.82636
0.250778
7.82273
7.89953
0.397315
0.635663
7.80116
0.175304
7.85423
0.162853
0.162811
7.79817
7.8158
7.85403
0.398428
7.84242
7.843
0.405048
0.160785
0.627065
0.0545408
7.82466
7.87113
0.513145
0.4175
7.81146
0.400075
7.85688
0.394447
7.81325
7.80855
0.381836
7.8272
0.53746
0.383265
7.79808
7.81565
0.361464
6.71781
0.461196
7.99549
0.619651
8.00719
6.84853
6.64481
0.384916
7.17527
7.1043
0.34189
7.06936
4.65325
6.60081
7.83105
7.96988
0.58169
0.45587
7.87703
7.84679
0.430165
0.442949
7.80099
0.401939
7.81772
7.97383
0.501933
0.469832
0.120713
7.81083
7.84997
7.84382
7.82582
7.78575
7.7895
7.84423
7.79119
7.79666
7.81493
7.84405
7.97111
7.83594
7.80996
7.7993
7.92432
7.80827
7.81614
7.82963
7.86214
7.97104
0.45617
7.83951
7.80938
7.87924
0.321501
7.88301
7.97334
3.4812
7.76876
7.68373
0.317044
8.32511
7.72802
3.96145
0.314791
7.83418
6.93223
7.38669
7.79979
0.587465
0.316667
0.315639
0.297527
0.210062
7.99023
7.79716
0.239644
0.256711
0.294979
7.82004
0.286096
0.580967
0.312411
0.0647762
0.0732102
0.297601
0.116214
0.302922
8.03564
0.348007
0.289034
0.423067
0.283158
7.8536
7.84523
7.86224
7.99147
7.85055
0.257301
0.291339
7.85438
7.79793
7.79379
7.95253
7.80411
7.97128
7.78633
7.97143
0.292205
0.55957
0.29072
0.477194
7.76391
7.78044
0.57785
0.543746
7.81501
7.82584
0.440498
8.03805
7.83979
0.321399
0.26803
0.280979
0.453965
0.577868
7.9906
0.0153636
0.341911
7.05834
7.96988
0.328254
7.98486
7.79762
2.97762
1.95628
0.446567
7.90691
8.00517
0.647673
0.344545
0.0327017
0.258113
3.88058
7.99233
0.625526
8.27053
8.02768
7.72375
0.43287
7.80331
0.257668
0.0176464
0.323605
0.336429
8.01527
0.236562
8.01767
7.62865
8.0117
7.95464
0.095696
4.88184
7.82724
7.9837
8.38519
0.257907
7.01709
0.222314
0.2529
0.090219
0.255504
7.95703
7.94535
6.8725
0.43289
0.203846
-0.0565068
7.99842
7.99575
6.98138
0.591848
0.432236
7.82538
0.150061
3.0664
0.339504
0.196756
7.98792
6.81583
0.191043
0.256519
7.84774
0.53502
0.518068
0.451735
0.203846
0.203097
0.223857
7.06131
0.0930687
0.210453
0.186389
8.0737
0.327922
7.14029
0.427926
0.21832
8.03326
0.0669306
0.205023
0.219268
0.269296
8.7713
2.7055
0.630546
4.6874
0.207498
7.73406
0.0770243
0.205768
7.96409
7.83022
0.452506
0.642129
0.294059
8.73849
0.468631
0.581898
-0.232615
0.618324
7.96026
8.04399
0.254018
8.3737
0.231606
0.562492
0.206377
0.0847521
7.97949
0.558353
0.252495
7.96416
7.11888
0.177028
8.02255
0.172156
0.164978
7.99848
8.77659
0.345357
7.9716
7.80917
7.88029
0.0828683
0.81302
0.435721
8.07482
0.421679
0.126143
7.82518
0.125043
0.138631
0.0846652
0.633409
7.81903
0.224984
0.0891188
0.1449
0.124491
0.085798
0.595194
0.403391
7.99519
-0.0335212
0.0896936
7.98761
0.14032
7.87582
7.84151
8.02012
7.88544
7.98373
0.611758
7.86224
0.123563
0.480738
8.02741
0.490099
7.94368
0.0880583
7.96983
0.58132
7.74403
0.403773
0.637684
0.596648
0.144043
0.0920019
0.418883
0.0867059
0.143532
3.29234
0.136978
0.26593
0.147088
8.02529
0.269256
0.634187
0.142894
0.3817
0.605487
8.02441
6.99743
7.96289
0.428158
7.98062
6.39375
0.09118
8.41629
0.525174
7.95664
7.99185
7.82659
0.274302
0.474038
0.141235
0.610959
0.0800468
0.238157
0.237944
0.272913
0.0955176
0.235654
0.235243
8.00829
7.81892
8.02573
0.345005
0.254428
7.81068
7.82628
6.50723
0.249379
0.100241
7.97686
0.237454
7.99895
0.412398
0.432829
0.615852
7.9881
7.99667
0.270237
7.99102
0.548394
0.137138
7.62219
0.310706
0.380232
0.0689745
7.95905
0.599023
7.18992
0.509625
0.433471
7.99097
8.03044
0.128228
5.86898
8.04029
0.168481
0.0799193
7.99503
7.94523
7.14502
0.222616
6.49747
0.344697
0.574775
0.521777
7.99651
7.17565
0.569395
7.9964
7.84933
8.00855
7.9833
7.27325
7.80616
7.667
7.96461
7.96015
7.48534
8.41736
7.72972
0.556545
7.7373
6.92515
6.58563
8.88534
7.04733
7.99699
0.579593
7.50911
7.79157
0.596805
8.24546
8.5796
7.91084
0.575736
8.39127
0.583405
0.600607
0.531652
7.36212
7.97898
0.590192
0.389863
7.91953
8.01833
0.345752
7.28864
0.34416
7.21895
7.83314
7.85209
0.341784
0.342056
8.00269
0.47801
8.0245
7.50093
0.561999
0.204251
0.583919
7.87019
0.346097
7.35796
0.491672
7.81884
7.9609
7.80857
7.13843
0.198471
0.231248
8.0157
0.084092
7.97145
7.9836
7.97082
7.98277
0.55382
0.542521
0.236541
0.768254
7.99525
0.429611
0.343174
0.186967
0.548037
7.91526
0.18606
0.571657
0.292196
0.416723
0.329507
8.00333
0.383925
0.562356
0.349595
0.565812
0.572076
7.98472
0.583608
7.8643
8.00201
0.287867
8.01996
0.438734
8.00407
8.01442
7.71354
7.96713
8.01988
0.543987
7.96336
0.47264
7.38739
7.85538
0.425409
0.561014
0.244189
0.455516
8.03349
1.43195
8.01563
0.497006
8.0153
0.419279
0.549165
0.567888
0.514421
8.04068
8.04712
7.95762
0.201631
7.8655
7.95925
0.197874
7.77532
7.80243
0.58177
8.04014
0.326555
0.402345
7.34534
7.59924
7.54181
0.219737
0.366805
7.98103
0.0135166
0.494083
7.20102
0.575513
8.00787
0.197227
0.423246
0.189914
7.97964
0.445373
0.244653
0.587267
0.566118
0.487143
7.99059
7.99343
0.650256
7.96417
7.81662
8.00064
0.195692
0.578479
0.256722
0.34262
7.08816
0.430047
0.34436
0.365755
0.37529
0.451628
0.52981
0.48679
7.82571
7.8246
7.82498
0.501897
7.85332
0.475675
5.61589
0.478699
0.275173
0.190405
0.101046
7.8031
8.00457
0.48064
0.478615
8.01176
7.82642
8.02949
0.209122
0.479754
0.500126
0.500305
0.0707758
0.343531
7.96895
8.01666
7.99554
0.0739916
0.324696
0.00684028
0.379026
0.233562
0.500439
7.92581
7.9954
6.60507
7.82045
0.0733062
0.449685
7.9881
7.98745
7.99711
8.0267
7.99634
7.79598
0.510825
7.9773
0.589367
0.684146
7.80294
0.504322
0.0403751
0.210262
8.05057
7.84471
0.508962
7.99079
0.509975
-0.286927
0.226376
7.75469
6.18247
7.82008
7.97906
7.96568
7.6963
2.70452
7.97139
0.526521
0.265765
7.99882
7.99535
0.520813
7.97291
7.842
0.302894
0.545225
7.9541
7.95267
7.76499
0.140418
7.99143
7.99255
1.85221
0.509437
0.520921
7.97877
7.80167
7.33167
0.518158
0.516506
0.518633
0.379958
7.81198
0.135862
0.0282828
0.0302156
7.82193
8.01595
7.99554
7.97972
7.99163
0.310383
0.310612
0.240284
8.04108
8.00798
7.99045
8.00153
7.83434
0.609771
0.130945
0.0250457
7.79246
7.98877
8.07501
-0.0997799
0.56554
0.63305
7.84409
-1.01417
8.29033
7.92749
7.99241
0.307772
0.346619
7.96744
7.98425
0.40212
7.99459
0.222294
0.287537
3.27332
7.96285
7.82709
0.231028
0.596856
7.97717
3.09921
0.077611
0.449178
7.97696
7.97062
8.03251
8.00343
0.0793123
0.168601
7.97132
0.606335
0.549536
0.980885
7.98151
7.96808
7.96685
7.97169
0.440929
8.40822
7.98341
7.85643
0.118465
0.485716
0.145427
7.92515
8.01949
0.547452
7.71617
7.99428
7.97151
7.97722
0.323557
7.78362
7.79028
7.80649
0.139502
0.339486
7.96511
8.01362
7.94472
0.384542
8.19687
7.96117
7.94702
8.01596
8.00996
0.597907
0.448308
8.06999
0.357915
0.44132
0.31326
8.03235
8.02447
7.9891
7.9883
7.80213
0.433742
7.98231
7.49527
7.51071
0.545795
7.73615
0.536906
7.99186
7.85432
0.652611
1.06091
7.24173
0.557713
7.98255
0.552037
8.22446
7.97631
8.01256
9.06537
7.97073
0.608118
7.96328
0.369999
7.85972
7.14851
8.01568
7.96417
0.129889
0.542134
7.82341
3.20505
7.87528
0.505224
0.603653
0.519432
7.88133
0.455966
0.490672
0.600059
0.455477
0.244358
0.494934
7.7498
7.80728
0.139056
0.19915
0.513476
7.98861
7.67679
6.6382
3.76278
8.02962
7.79672
8.01492
8.02567
8.03362
8.33707
0.523448
0.614727
0.261007
7.11374
0.63307
8.01463
0.42091
7.99596
8.03625
7.83824
7.78806
0.586478
7.78228
7.87331
7.98054
0.366833
7.982
8.00397
0.619608
7.9615
6.02425
5.28183
4.97916
8.02759
5.1776
5.02739
5.13299
5.76439
7.80931
7.80955
0.359469
0.522515
7.17001
7.27669
7.81176
0.358322
8.23306
7.86258
0.584072
7.97259
7.99018
0.539457
0.611656
7.99787
7.79782
0.694409
7.1723
7.77713
0.438034
0.388336
0.414413
7.89318
0.395852
8.02036
0.246321
0.416634
0.388531
7.98348
0.420444
0.394354
8.02957
-0.161528
7.95198
0.368025
7.62819
0.381933
7.88691
0.597111
7.96225
7.74099
7.85838
-0.569483
-0.564114
8.03091
0.392649
0.649091
8.07436
7.98245
0.285092
0.0217598
0.665131
8.03258
0.409877
0.398678
0.627711
0.0175658
8.03326
0.623291
7.81245
0.612463
7.9962
-0.790246
-1.04034
7.9417
0.262933
7.83388
0.623413
7.82339
7.9454
7.97626
8.01383
7.94824
7.98314
0.529416
0.318128
0.605461
7.97158
6.54133
0.614672
7.97259
7.99158
7.98538
8.02046
7.9889
0.0326349
7.98354
8.01833
7.80646
0.0263541
7.94942
7.82895
7.64025
0.0855762
7.83774
0.0654166
0.0807434
0.476381
0.0864931
0.0466039
8.26093
7.97012
7.98475
0.118513
0.148548
7.7127
6.50961
0.0720364
8.0028
8.02139
0.623571
7.95061
0.402382
7.96583
0.050509
0.613137
7.97233
7.80797
7.96579
8.01584
8.00019
0.643015
7.96417
0.0737856
8.01781
7.97868
0.160699
7.85377
0.419976
7.8574
8.00348
0.530366
0.272665
0.640956
8.01497
8.01639
7.98729
0.271195
0.640759
8.02268
7.82794
7.73342
0.16187
7.95885
0.428707
0.626803
7.97572
7.96588
0.169852
7.99005
7.7327
7.83767
8.02289
7.84785
0.609134
6.42768
7.80644
8.01027
6.57696
7.96659
6.77908
7.9328
7.95688
7.87348
0.260678
7.927
0.159176
7.93013
7.96248
0.726003
0.155943
7.95548
7.959
7.9698
0.171032
6.94078
7.98325
7.82066
7.96552
0.181683
7.95672
0.594849
8.02988
0.494656
7.13142
0.581504
7.97054
7.99934
0.482609
6.79508
7.97015
0.145763
0.486328
8.0412
8.01527
0.523614
0.568476
0.169425
0.165076
0.156058
0.533389
0.167511
0.594363
8.01964
0.58224
6.53087
6.42835
7.98022
7.95002
7.99787
0.177126
8.02722
8.02622
8.02508
0.600673
0.587086
6.24967
0.534763
8.01959
0.56258
7.77776
0.632536
0.204372
6.59672
0.495897
7.94822
7.93402
7.82466
0.197443
0.497641
7.98678
7.84318
0.188104
8.01443
0.650458
8.03554
0.65092
7.99352
7.82476
8.003
7.82287
0.151003
7.82289
1.0586
7.85981
0.515493
7.97952
7.96787
4.76878
4.47657
7.98486
7.97024
7.99577
8.01835
0.493963
0.6375
5.58359
8.01447
0.503936
7.81296
7.86091
0.390122
0.394838
0.644242
7.82632
0.113459
0.520069
0.280418
0.416837
7.99791
8.03297
8.03689
8.01815
7.82796
7.82298
7.82354
7.92471
7.82654
7.82371
7.99141
7.82221
0.630441
7.82412
7.96809
8.66457
8.01689
7.98046
3.27619
7.81244
7.9727
0.401776
0.662143
7.93594
8.00951
7.99076
0.369408
7.90477
7.98457
0.646967
7.84126
7.96576
7.99868
8.01234
0.640665
7.83423
0.620787
8.01359
7.98886
7.97338
7.98038
7.96784
0.648948
0.627975
0.213602
8.01793
7.79571
8.05287
0.641678
7.96411
0.633331
0.675297
7.83657
7.97051
6.2432
0.40505
7.94309
7.22267
0.415816
6.31864
0.54407
7.88348
0.604108
6.2868
5.88231
7.9917
0.485818
7.84302
0.481044
0.625459
7.96739
0.495338
0.506003
7.99259
0.619698
7.80459
7.94687
7.96059
7.94165
7.9417
7.8179
7.96381
8.02434
0.616569
7.30464
7.98402
7.99928
7.95931
7.95958
0.367318
4.48103
0.642597
0.533963
7.96438
0.475615
0.467591
7.98699
7.2048
7.92555
7.94364
7.97733
8.03171
6.69129
7.35287
0.56416
7.97811
8.03071
6.32846
6.81327
7.82908
0.478318
7.95497
7.80285
8.01545
0.633653
8.02674
7.81337
0.532201
7.83651
7.84152
7.90089
8.07316
0.536432
7.97957
7.97536
7.97031
7.97269
0.562326
0.650429
0.658439
0.483801
0.5901
0.585922
7.84393
6.79389
0.630576
0.575479
6.7854
0.637163
8.00661
-0.198557
7.80619
0.632019
7.98656
7.799
0.593841
-0.483946
7.96377
0.574337
7.98545
8.00097
0.6265
0.63068
8.01591
7.81907
7.99555
7.82603
7.96704
7.01475
8.01755
7.99686
0.570851
8.01845
7.98931
7.97924
0.601673
7.97583
7.05286
7.83299
7.82162
7.48337
7.13212
0.600483
7.7944
7.14369
0.366982
8.00833
0.565153
0.574778
7.97104
0.3745
7.99345
7.62741
8.06285
7.01674
7.86251
8.00794
8.02537
8.03077
0.387097
8.0217
8.00527
8.01879
7.87749
7.9824
7.92137
0.62729
7.99212
8.01538
0.618433
7.98738
7.82948
7.87866
0.394313
7.97761
0.565681
6.93808
0.436712
0.0586547
7.82292
6.78989
0.370455
6.5448
7.82513
0.588926
0.432116
-0.00116348
0.602059
0.551106
-0.279042
7.8864
7.79111
0.459696
0.640772
0.632993
0.454346
0.444448
7.85414
0.0977308
0.449858
0.45519
7.88216
0.455652
0.0869083
0.277619
0.431098
0.620092
0.479746
0.133082
0.415402
0.0123914
0.21331
0.438597
7.06548
0.0944533
0.00903752
0.484795
0.545287
0.0432951
0.438364
0.0279967
7.21227
0.643282
7.16498
0.259231
0.461717
0.534582
0.341542
7.15499
7.82595
0.429589
0.357246
0.620703
0.655001
0.138957
0.453827
5.1832
0.461429
7.99202
0.789904
0.636161
0.607889
0.284735
0.61625
0.595847
0.521561
0.327321
0.314277
0.26086
0.457354
0.131547
6.39937
5.68114
0.459854
7.97141
7.99172
0.435442
0.457607
0.0550435
7.97313
0.596048
0.631254
0.328952
5.87127
7.99158
0.55284
0.0171478
0.63263
8.03327
0.135469
8.00144
0.345683
0.512046
0.589479
0.59669
7.97015
7.99586
0.653241
0.451803
0.464898
7.98892
0.36057
0.463117
0.544454
7.8425
0.336271
0.0493885
7.14833
0.278616
-0.518935
0.608794
7.75571
0.615344
0.692435
7.99383
0.549357
0.0668434
2.1039
0.54408
0.564845
0.120086
0.510434
0.53388
0.0517416
0.532308
0.612578
0.520217
0.110259
0.455662
0.604146
0.359495
0.542507
0.243051
0.441943
0.616148
0.136097
7.99742
0.555502
0.545613
0.627912
0.164263
0.611928
7.80948
0.552526
0.279211
7.99519
0.594747
0.0105557
0.553851
0.538849
0.0834361
-0.0290343
0.492267
0.523347
0.617759
7.9985
7.99042
0.625406
7.87237
0.628358
0.648483
7.79365
0.0852037
0.553581
0.320375
8.01868
0.281183
0.305102
0.603589
0.612689
0.307251
0.148157
0.366203
0.595269
7.99143
7.94517
0.636387
0.574676
0.606678
0.395127
7.94483
0.574009
0.530808
7.79286
0.353489
0.466293
-0.0427792
0.58394
0.596242
0.486976
0.140204
0.394835
7.87757
0.561124
0.287551
0.527563
0.598511
7.9464
0.608649
8.07629
7.98639
0.310296
0.507795
0.330336
0.915416
0.57971
2.11832
7.83331
0.4951
0.544362
0.398063
0.339728
7.97056
7.88129
7.87022
0.339301
0.343115
0.575766
0.276067
7.71889
7.95083
0.329307
0.375769
0.603138
0.346259
0.339043
0.423689
0.574143
4.74873
7.80927
0.506394
0.0555952
7.94976
0.463955
0.417166
0.725265
0.513332
0.404746
0.628355
7.9502
0.360021
0.416029
7.86855
7.7357
0.0505212
0.104283
0.152497
0.0757787
0.412848
0.411074
0.129575
0.281337
0.387646
0.0700565
7.94457
7.9359
0.00840889
0.0906487
0.409583
0.676186
0.402366
0.373838
0.522705
0.342334
0.397064
7.82039
7.8743
0.657499
7.94175
7.01704
0.426511
0.279606
0.40432
0.658419
7.35161
0.599151
0.694095
7.47422
0.677041
0.582593
0.399717
0.404121
0.0432335
0.462964
0.604898
0.0834565
7.98825
7.42279
0.628304
0.146891
0.326496
0.151165
0.564569
0.566876
0.625884
7.44698
0.429194
0.137575
0.365286
0.657742
0.591794
0.621641
0.584835
0.410738
0.113432
7.34839
0.571206
0.414293
3.3508
7.01565
6.51452
0.384578
6.87456
0.0305999
0.371223
0.339674
0.464664
0.591323
5.38981
3.5713
8.16317
6.90579
0.62534
7.82396
7.82393
-0.332326
7.9876
0.281739
0.36033
0.339151
0.260168
0.275482
0.459038
6.52543
0.143743
0.0757509
0.56405
0.444581
0.269101
0.415666
7.82863
0.586265
0.261021
0.449744
7.82489
0.539476
0.418615
7.82381
7.95882
0.584424
0.252432
8.0379
0.487946
0.441472
0.583714
8.01125
7.82267
0.0567279
0.576343
0.468713
7.82594
7.84794
7.82386
0.520747
3.12016
2.89695
0.161379
0.436917
8.03533
0.185673
0.455383
0.379871
0.0629616
0.0469414
0.193452
0.361468
0.0678889
7.92286
0.192827
0.130346
0.0299576
0.310909
0.08221
0.0961459
0.0827771
0.0969082
0.0427064
0.622585
0.457163
0.412355
0.591694
0.619345
0.389942
0.0752429
0.469759
0.0898366
0.0406232
0.2326
0.165152
0.609451
0.158959
0.470595
0.171095
7.63377
0.418781
4.27387
0.315216
0.449184
7.86929
0.545256
7.63456
0.470876
7.66086
7.97444
0.356753
0.553069
7.06196
0.144117
0.347002
0.554586
7.95176
8.01536
0.679668
0.181337
0.59973
0.313648
0.128251
0.53876
0.656154
0.525015
0.54638
6.69307
0.414234
7.83056
7.94794
0.253342
0.190548
0.662282
0.243954
0.171461
0.556351
0.560969
7.86701
0.623516
0.155581
0.539167
7.87759
8.02911
0.415544
0.474818
6.3751
0.61317
0.0396974
0.490372
-0.0842782
0.145794
0.323089
7.95955
4.9543
0.261648
0.634888
7.93872
0.261502
0.608955
0.50275
0.701858
0.256408
0.670829
0.41539
0.641202
5.2359
0.648382
7.97896
0.470655
0.552247
0.135144
0.0149998
6.81836
0.0212182
0.633003
0.527311
0.584698
7.5513
7.82305
0.279282
0.629267
0.53754
0.468902
0.609329
0.201946
0.0513496
0.358578
0.0767372
0.0473235
0.609676
7.23316
0.634152
0.513518
0.00304179
0.601637
7.40832
7.80552
-1.32622
0.639314
8.25052
0.617579
0.569011
7.48067
5.38601
5.74137
0.538475
0.255009
0.954399
6.09633
0.580339
0.294419
7.70716
0.261422
7.04273
0.500653
0.203288
7.88082
0.0273846
0.617207
0.613682
0.188141
7.81406
0.535329
0.576613
0.61572
0.621555
0.646945
0.645505
0.5727
0.623256
0.580496
0.116269
0.257985
7.96021
6.70202
6.74158
7.8082
0.524647
0.299118
0.272324
0.584695
0.158995
0.272084
0.485575
0.555645
0.533812
0.198535
0.578497
0.566844
0.517597
0.156838
7.98178
0.599404
0.581655
0.546747
0.584054
7.70162
0.338065
0.340249
0.491031
0.464702
0.381383
7.8007
0.387823
0.379328
7.03114
0.394651
0.520471
7.80533
0.371622
7.79542
7.87724
0.332324
0.520034
0.526529
0.380361
7.80516
0.0882303
0.558849
7.88025
0.3249
0.393203
0.329513
0.530736
7.83065
0.546722
0.549642
0.517351
7.8426
0.300893
0.116893
0.512708
0.248549
0.294927
8.04401
7.62969
7.26145
0.0429978
7.38501
0.281014
0.224963
0.0910346
7.97108
0.0963801
7.80233
7.98236
7.94075
0.338372
-0.00284672
0.586533
0.515014
0.303995
7.61765
7.04057
0.610896
0.596396
0.245249
0.587396
0.297036
0.422079
7.98231
6.00116
6.11554
7.81606
6.18063
0.0270369
7.99066
0.288726
0.47662
0.29938
0.0669349
0.347151
6.58493
0.218733
0.481112
0.55405
0.630983
6.6236
7.97808
0.570808
0.231593
0.531066
0.311493
0.629478
0.616383
0.534784
0.595146
0.209996
0.0447618
0.199791
0.055065
0.187993
0.490477
0.51573
0.135727
0.185437
0.621197
0.247964
0.327408
-0.0863367
-0.366489
0.118359
0.625986
7.88066
-0.183284
-1.04846
0.0870885
0.0588153
0.0138964
0.490835
0.397747
-1.2231
0.060365
0.646695
7.99779
0.284605
0.349948
0.40279
7.97041
0.297465
0.173752
0.0641447
0.369522
8.03259
7.99475
0.52355
0.128162
0.121264
0.0244918
7.91519
7.99861
7.84598
0.41059
0.491852
0.10566
7.99966
0.276568
7.99841
8.01777
0.0680189
0.0516366
7.79282
0.110373
0.118015
-0.00370527
7.87079
8.01289
0.188623
0.493434
8.00622
0.0983751
0.128583
0.0263502
8.05441
8.06014
8.03103
0.0189706
0.0976244
0.615941
0.116948
7.86168
0.0905117
0.45623
0.615148
0.575865
7.76808
7.97439
0.125362
0.631561
0.617449
0.353589
7.76594
0.592106
7.83042
0.132265
0.635487
0.462373
7.81597
7.27922
0.627278
0.676311
7.14637
7.18847
7.83308
0.340343
7.65511
6.86595
0.477017
0.471169
7.83265
7.04028
0.418853
0.132616
0.10889
0.333597
0.283351
7.14861
0.494645
6.61536
6.46432
7.98171
0.341663
0.536004
0.0955479
6.50077
8.48345
0.483218
0.630394
0.516327
0.544018
0.432342
0.393327
0.431866
0.128544
6.39187
0.451836
0.328333
0.118681
0.334078
0.529383
4.80875
0.314031
0.317322
0.318721
0.317917
0.127184
6.20585
7.32339
0.36733
7.37717
7.45671
0.433312
7.38941
0.279728
7.23281
7.3139
7.8219
7.04926
0.354445
0.131155
0.346939
7.21662
0.190224
0.336287
0.440114
7.32581
7.99728
0.357135
0.372474
0.635709
0.355897
7.01504
0.000927809
0.114898
0.0782249
7.80376
7.86274
0.229345
0.184834
7.8898
7.35628
0.591607
0.00950832
7.20464
0.638874
0.579899
0.588956
0.390936
7.27417
0.432836
1.72176
0.0738213
0.0972801
0.611306
0.576662
0.560274
0.237453
0.451735
7.12458
0.491737
0.448216
0.598828
0.622079
0.593235
7.30642
0.303645
0.455932
0.269239
0.368986
0.450443
0.59649
0.150832
0.599427
0.56459
0.602197
0.19859
0.601605
0.636084
0.43987
0.536528
8.01065
0.398231
8.02865
0.443952
0.455596
0.59983
0.611677
0.618523
0.444342
0.449266
0.611644
0.352907
0.140324
7.79343
6.09874
0.61672
0.62936
0.514856
0.635744
0.638003
0.608572
0.644163
0.724131
6.33972
0.129061
0.743212
-0.924679
6.59361