/*--------------------------------*- C++ -*----------------------------------*\
  =========                 |
  \\      /  F ield         | OpenFOAM: The Open Source CFD Toolbox
   \\    /   O peration     | Website:  https://openfoam.org
    \\  /    A nd           | Version:  10
     \\/     M anipulation  |
\*---------------------------------------------------------------------------*/
FoamFile
{
    format      ascii;
    class       surfaceScalarField;
    location    "9";
    object      phi;
}
// * * * * * * * * * * * * * * * * * * * * * * * * * * * * * * * * * * * * * //

dimensions      [0 3 -1 0 0 0 0];

internalField   nonuniform List<scalar> 
214403
(
-0.00327514
0.00251125
0.000139069
0.000624818
-0.00161066
-0.00542712
0.000460182
0.0065776
-0.00495023
3.29384e-05
-6.80946e-05
0.00498539
0.00430781
-0.00289606
-0.00722111
0.00580937
0.00593206
-0.00749724
0.00178681
-0.000221632
-0.00259104
0.00269826
-2.56534e-05
-8.15674e-05
-0.000414617
-0.000782005
-0.0044481
0.00564473
-0.00822789
0.00468119
-0.00123324
0.00477993
-0.0112357
0.00793592
0.00800655
-0.00470678
0.00686036
0.000813905
-0.00766961
-4.65927e-06
0.0024346
-0.00481972
0.000990318
0.0013948
-0.00499258
0.0015694
0.00258757
0.000835612
0.000230657
-0.00552733
0.00665772
-0.00136104
-0.0048172
0.00484778
-3.05782e-05
0.000926145
0.0057666
-0.00738966
0.000696909
-0.00583824
0.00488165
0.00147761
-0.00052102
-0.00588258
0.00573916
0.000143411
0.00190979
-1.36022e-05
-0.000473061
-0.00142313
0.00756116
-0.00452531
-0.0100535
0.00701761
-3.71207e-05
-0.00151642
4.38869e-05
0.00150966
0.00312513
-0.00305097
-7.41616e-05
-0.00593779
-0.00205343
0.00204269
0.00594853
-0.00110254
0.00657745
-0.00530484
-0.000170058
0.00325339
0.00034121
0.00113463
-0.00472923
-0.00497636
-0.00238122
0.00643632
0.000921257
0.00447092
-0.00566117
3.4268e-05
0.00115598
0.0015593
-0.00136027
0.00510532
-0.00530435
0.00370021
0.00483684
-0.00582919
-0.00270787
0.00539182
-0.00338207
-0.000153122
-0.00185663
-0.00285563
0.00291086
-5.5229e-05
0.00118449
-0.00246203
0.00655767
-0.00528013
0.00683298
0.000323897
-0.00119077
-0.00596611
-0.00274209
-0.00281507
0.00288317
0.002674
-0.000577782
-0.00325635
0.00288413
0.000949996
0.0021402
-0.00146506
-0.00453644
0.00386129
-0.000824175
0.00411165
-0.00148549
-0.00180199
0.00776097
-0.000185351
-0.00757562
-0.00333715
0.00651266
-0.00317551
0.000599294
-0.00712469
0.00412661
0.00239879
0.00118876
-0.000477413
0.00290767
-0.00361903
0.00275065
-2.87108e-05
-0.00272194
0.00494848
-0.000104442
0.000875756
-0.0057198
-0.0062938
0.000789123
0.00669344
0.000417855
0.000429203
0.0041674
-0.00501446
-0.00199039
-0.0130082
0.0126118
0.00238686
0.00276949
0.00050328
0.00062402
-0.00389679
0.00204596
0.00155094
-0.00500127
0.00140438
0.00646436
0.00387302
-0.00708399
0.000585166
0.0054754
-0.00111209
0.000884883
-0.00330941
-0.00195164
0.00437616
0.0015116
0.00232459
0.000690585
-0.00452677
0.000893422
-0.000670799
-0.00206254
0.00183992
0.0033464
-0.00605497
0.00422017
0.00574978
-0.0054148
-0.00185652
0.00152154
0.00517817
-0.000946892
-0.0041486
0.00562411
-0.000237553
-0.00123795
0.00427472
-0.00546752
6.27455e-05
0.00113005
-0.00399191
0.000264406
0.00637887
-0.00265137
-0.00742177
-0.00698467
0.00585999
0.00854645
-0.00395999
0.00398476
0.000783146
-0.00080792
0.000623481
-0.00506088
-0.00416774
-8.60757e-05
0.00216595
0.00208787
-0.00652187
0.00279756
0.0042219
-0.000497594
0.00761061
-0.00612773
0.000390015
-0.0018729
0.00034834
0.000128727
-0.00500388
0.00452681
0.000251965
-0.00138686
0.00684789
-0.00571299
-0.0169012
0.00177559
0.001881
0.0132446
-0.0015453
0.00456985
-0.00145411
-0.00157044
0.00225865
-0.00118507
-0.00482598
0.00375239
0.00054141
0.00338003
-0.00429548
0.000374033
-8.26081e-05
0.00411549
0.00142331
-0.00545619
-0.000822848
-0.000132899
-0.00170085
0.0026566
-0.00439239
0.0047962
-0.000179579
-0.000224225
0.000153179
-0.0044164
-0.00309556
0.00274213
0.000831761
-0.00047833
-0.00817868
-0.00050779
0.00398882
0.00469765
-0.00246422
-0.00104983
0.00209643
0.00141762
0.00363167
-0.0121832
0.00168844
0.00686307
-0.00189294
0.00380941
-0.00208048
0.000164013
0.0027305
-0.00212018
0.000270721
-0.000881039
6.74081e-05
-0.00513815
0.00507074
1.69407e-05
0.00417441
-0.00419136
0.00366469
-0.000718032
0.000485394
-0.00343206
-0.00221163
0.00315453
0.00104649
-0.0019894
-0.00155346
0.00661281
-0.00159031
-0.00346904
0.0031288
-0.00533674
-0.000202459
0.00241039
0.00356481
0.00376797
-0.00733278
0.00526683
-0.00592079
0.00151729
-0.000863335
0.000509324
-0.000951002
0.00688262
-0.00644094
0.000197839
-0.00110952
0.00496013
-0.00404845
0.00118141
0.0103539
0.00297519
-0.0145105
-0.00903789
0.00795358
0.00515305
-0.00406874
0.000416407
0.00319781
-0.00429809
0.000683865
0.004252
0.00472142
-0.00154775
-0.00742567
0.00784251
-0.0047668
-0.000155416
-0.0029203
0.000345473
-0.00101197
-0.00317588
0.00384237
-0.00321839
1.81664e-05
0.00320023
0.00477237
0.000164752
0.000329707
0.00594425
0.000501322
-0.00903294
0.00258736
-0.00476148
0.00104789
0.000847095
0.00286649
-0.003033
0.000752168
0.000372567
0.00190827
0.00073732
0.000529126
-0.0062627
0.00499625
-0.00128149
-0.00745694
0.00475371
0.00398471
0.00299878
-0.00354588
-0.00231213
0.00285923
0.00485973
-5.10486e-05
-0.0048572
4.85116e-05
0.00370064
-0.0052197
-0.00181833
0.00333738
0.00956664
-0.00289454
-0.00149036
-0.00518174
0.00545556
-6.62405e-06
-0.00501941
-0.000429529
-0.00275534
0.00324189
0.00675307
-0.00723962
0.00589645
-0.00206272
-0.00567423
0.00184049
0.00108322
-0.00158659
0.00690106
-0.0063977
-0.00778607
0.00709984
0.00672435
-0.00603813
0.000352121
-0.00606833
0.00234189
0.00337432
0.00759727
-0.000398962
-0.000156573
-0.00704173
0.00537461
-0.00104788
0.00103791
-0.00536464
-0.00626343
-0.00569586
0.0067447
0.00521459
-0.00118163
0.00339118
0.000919615
-0.00312917
-0.00263893
0.000143809
0.00511572
-0.0026206
-0.000590054
0.00667227
-0.00621061
0.000128395
-0.00576778
0.00535582
0.00104314
-0.000631183
-0.000192014
-0.00336346
0.00802639
0.00105867
-0.00352106
-0.00257397
0.00503636
-0.00279901
3.6567e-05
0.00276245
0.000856307
0.00389497
-0.00360284
-0.00114844
0.0062504
-0.00360542
-0.000958902
-0.00168608
4.86522e-05
-0.00186281
0.00181415
-0.00350717
-0.000945147
0.00131674
0.00313558
0.000365288
0.00201441
-0.00451721
0.00213752
0.00767575
-0.000693146
0.00300011
-0.00998271
0.00054789
-0.000686125
-0.00923922
0.00937746
0.000600652
-0.00264556
-0.00351015
0.00555506
0.000221823
0.00481867
-0.000268119
1.96071e-05
-0.0028528
0.0028332
0.00585319
-0.00216952
-0.00262501
-0.00354859
0.00296436
-0.00292294
0.00646513
-0.00538065
-0.000652573
-0.000431903
0.000645434
-0.00305222
0.00133436
0.00107243
-0.00528333
-0.00160147
0.00107422
0.00581058
0.00440758
-0.00715073
0.00472906
-0.00198591
-0.000194673
0.00646875
-0.00647742
0.000203339
-1.94302e-05
0.00592788
-0.00587627
-3.21875e-05
-0.00823494
0.0065682
-0.00527012
0.00693687
0.00686597
-0.00664018
-0.000225794
-0.00628822
0.00841844
-0.0015388
-0.000591424
-0.00561064
0.00134939
-0.000422679
0.00468393
-0.00924502
0.000706823
0.00595197
0.00258622
0.00163378
-0.00223169
0.00124335
-0.00227677
0.00258838
0.00416538
-0.00447699
-0.00244807
-0.00109837
0.00140025
0.00214618
-0.00332858
0.00217729
-0.00420608
0.00535736
0.00099988
8.38994e-05
-0.007372
-0.00330937
0.0033021
7.26952e-06
0.00360826
-0.00346972
-0.000138541
-0.00542108
-0.000354657
-0.0014412
0.00133406
-0.0071405
0.00830636
-0.00249992
0.00320735
0.00551995
-0.00701853
-0.00170877
0.00612579
-0.00665329
0.000178764
0.000348741
0.00328589
0.000854048
-0.0033963
-0.000743641
-0.00516891
-0.000284041
0.006787
0.00299206
-0.000216695
-0.00364702
0.000871658
0.00336804
-0.00288318
0.00332087
-0.00380573
-0.0058309
0.00109602
0.00794223
-0.00197339
-0.00276561
0.00913218
-0.00439319
-0.00281253
-0.00310289
0.000746516
0.000833177
0.00223209
-0.0058778
-0.00401305
-0.000352342
0.0064464
-0.00208101
0.000620805
0.000986617
0.00355456
-0.00516198
-0.00189003
0.00462629
-0.00273626
0.0014922
-0.00720957
0.00261447
0.00429011
0.00299859
-0.00645552
-0.00604922
7.35775e-05
0.0075373
-0.00156166
0.00103442
0.000884967
0.00277018
-0.00468957
0.00414101
-0.00417084
2.98264e-05
0.00153071
-0.000577895
0.00513726
-0.00609007
0.00539832
-0.00170888
0.00259345
-0.00628289
0.00995449
-0.00320122
0.00742295
-0.0141762
0.00162068
0.0030143
-0.00125507
-0.0033799
-0.00451926
0.00185734
0.00237118
0.000290744
0.00325702
-0.00245469
-6.67758e-05
-0.000735555
-0.00207869
-0.00263489
0.00767323
-0.00295965
-0.00363046
0.00471537
0.00188028
-0.00296519
0.00546716
-0.000298648
-0.00180047
-0.00845153
0.00559031
-0.000467356
-0.0080416
0.00741913
0.0034454
-0.00282293
0.00513155
-0.00578426
-0.000834567
0.00148728
0.00290475
-0.00524944
-0.00275117
-0.00299298
-0.00274647
0.00155155
0.0041879
-0.00427762
0.00132916
0.00422156
-0.0012731
0.00495352
-0.00471569
-0.00324821
0.00301038
3.00599e-05
-4.28758e-05
-0.00466126
0.00467408
0.000113739
-0.00409697
-0.000153709
0.00413694
-0.00117832
-0.0069714
0.00109732
-0.00403937
0.00363416
-0.000692103
-0.00273683
-0.00115379
-0.000387005
-8.96629e-05
0.00685552
9.44986e-05
-0.0163647
0.0115098
0.00832163
-0.00346681
-0.00484593
0.000330052
0.000175717
0.00434016
-0.00095388
0.0152871
-0.0179978
0.0036646
0.000768953
0.00118587
-0.00266205
0.00070722
-0.0103603
0.00557588
0.000722236
0.00406214
-0.000119707
-0.00688603
-0.00098139
0.00798713
-0.00282364
0.0103533
-0.00717942
-0.000350285
0.00464912
0.00676053
-0.00624736
-0.00516229
-0.00554207
0.00528506
0.00655687
-0.00629986
0.00216533
0.00302619
-0.00376924
-0.00142228
0.00214749
-0.00144845
-0.00343587
-0.0110074
-0.000435623
0.00898451
0.00245848
0.00325076
0.000500469
-0.00189389
0.00332683
0.00445345
-0.00411178
-0.0036685
-0.00549731
0.00122936
0.00536561
-0.00109765
0.000651689
0.00173126
0.00603549
-0.00640893
0.00632837
0.000612536
-0.000531976
0.00396778
0.00311876
-0.00281212
-0.000111177
-0.000791569
0.00371487
-0.00423375
-0.000846015
0.00235126
-0.0081175
0.00345174
0.0023145
0.000245871
0.00438891
-0.00486882
0.00023404
-0.00168349
0.00032538
-0.00156494
0.00292305
0.00681554
-0.00487321
0.000205163
-0.00384607
-0.00300317
0.00404618
0.00280306
0.0145292
-0.0155479
0.00508335
-0.00406463
-0.00281103
0.0034929
0.00140677
-0.00208865
-0.00642893
0.00279104
0.00560435
-0.00196646
-0.00277091
0.00402766
0.00517397
-0.00643072
0.00774456
-0.00298993
-0.00512424
0.000369618
0.00013377
-0.00187748
0.00456745
-0.00282374
-0.000794418
0.000787039
-0.00604184
0.00558213
0.00180923
-0.00597739
-0.00141397
0.00701229
-0.00575363
-0.0015427
0.00146565
0.00216204
-0.00512498
0.0014973
-0.00290552
-0.00530291
0.00472472
0.00348371
-0.000878078
-0.00227673
-0.00069126
0.00284985
-0.00305139
0.00656182
-0.00636028
0.000693092
-0.00799342
0.00730032
0.00270599
-0.00354361
0.00230326
0.00148464
0.00086544
0.0012188
-0.00356888
-0.000143447
-0.00665927
0.00680271
-0.00364729
0.000483999
-0.00118387
0.00434717
-0.000437079
0.00504837
-0.00459977
-1.15214e-05
-0.00341522
-0.00181114
0.00197699
0.00324936
-0.00127288
-0.00302041
-0.00280619
-0.004127
0.00344209
0.0034911
0.000151395
-0.00423046
0.00726239
-0.00298534
-0.000386585
-0.00389047
0.00389732
-0.000376119
-0.0028422
-0.000678994
-0.000621826
0.00545761
-0.00681627
0.00198049
0.00350141
0.000133856
0.00170466
-0.00533992
-0.000126861
-0.0028753
0.00138845
0.00161371
-0.00200771
0.00260761
0.00503993
-0.00563983
-0.00709298
-0.00182984
-0.00197643
0.00651227
-0.00609904
0.000145278
0.00191023
0.00404353
0.000584572
-0.00215142
-0.00383154
0.00539839
-0.00279566
-0.00545804
0.001377
0.00687671
-0.00253149
-0.00280603
0.00292225
0.00241527
-0.00657885
0.0063315
0.00667748
-0.00643013
-0.000892172
-0.001558
-0.00470622
0.00715639
-0.0064306
0.000649014
0.00654649
-0.000764898
-0.00113037
0.00300694
-0.00187657
-0.00260804
0.00481887
-0.00362931
0.00141848
-0.000110032
0.00859979
-0.00319583
-0.00529392
-0.00308579
-0.00149065
0.00619088
-0.00161444
0.000994763
-0.00260679
0.00591202
-0.00429999
0.000272742
0.00386735
-0.0006775
-1.83567e-05
-0.00631239
0.00630863
2.21156e-05
0.00722624
-0.00128001
-0.0105627
0.00461644
-0.00667706
-0.000653224
0.00833549
-0.00100521
-0.00362725
0.00547977
0.00045021
-0.00230273
0.00324072
-0.00320486
-3.58664e-05
-0.00383366
0.000371254
-0.00330822
0.00677063
-0.00555767
0.00765708
-0.00159287
-0.000506535
0.00345481
-0.00144789
-0.00416465
0.00215773
-0.0066896
0.00674854
-5.89346e-05
0.00549026
-0.0079872
0.000648606
0.00184833
-0.00623311
-0.00170496
0.0106593
-0.00272126
0.00459835
-0.000196307
-0.000964631
-0.00343741
-0.00261017
-0.00443766
0.00989768
-0.000470876
-0.00653706
0.00395654
0.0102558
-0.0114341
-0.00109414
0.00227245
0.00278443
0.00132625
-0.00307626
-0.00293646
0.00305743
-0.000120966
-0.00117598
0.00657256
-0.000418022
-0.00497856
-0.00143722
0.0017051
0.00573825
-0.00600613
0.0037392
0.00878654
-0.00513364
-0.0073921
0.00645204
-0.00774073
0.00246136
-0.00117267
0.00584271
8.08484e-05
-0.00592356
0.00010724
0.00569451
-0.00580175
0.00639468
-0.00773938
0.00683496
7.18491e-05
-5.87108e-05
0.00501155
-0.00502468
0.000119799
0.00909253
-0.00905986
-0.000152472
-0.000772298
-0.00229198
-0.00463464
0.00769893
-0.00283768
-0.00169471
0.000569319
0.00537977
-0.00936606
0.00341696
-0.00451429
-0.00118382
0.00484012
0.000857996
-0.00536724
0.00592553
-0.00158469
0.0010264
0.000838935
0.00437501
-0.00148801
-0.00372594
-0.00212937
0.000530325
0.00361082
-0.00201177
-4.61855e-06
0.00163921
-0.00206155
0.000426958
-0.00228289
0.00557886
-0.00321621
-7.97586e-05
0.00167024
-0.00527926
-0.00308058
3.58745e-05
-0.0049208
0.00488493
-0.00183441
-0.00175986
0.000816852
0.00277742
0.00273284
-0.00157683
-0.00115601
0.00687342
-0.0068253
-0.0013932
0.00134509
-0.000625868
-0.00407591
0.00375765
0.000944131
-1.69346e-05
2.35932e-05
0.00371172
-0.00371838
0.00184814
-0.00151784
-0.00587506
0.00554476
0.00427348
-0.000109838
-0.00416364
-0.00623041
-0.00403363
0.00601036
0.00425368
0.00362334
0.00567999
-0.00977421
0.00345082
-0.00124116
0.00194212
-0.00415178
-0.00138564
0.00137091
-0.00762433
0.00763906
0.00214994
-0.00423463
-0.00411872
0.00620341
-0.000432658
-0.000972215
0.00457725
-0.00317238
0.00318438
-0.00391416
0.00141853
-0.00068875
0.00176194
-0.00292176
-0.002824
0.00398381
-0.00565856
0.00637016
-0.00169366
0.00098206
0.00645588
0.00830158
-0.00914006
-0.0056174
-0.00499556
0.00497108
2.4472e-05
-0.00055575
0.00587221
-0.00734166
0.0020252
0.000226043
-0.000367427
-0.00566831
0.00580969
0.00552318
0.000232668
-0.00635535
0.00059951
-0.00238425
-0.00402942
0.00506726
0.00134641
-0.00575614
0.00815714
-0.00288911
0.000488109
-0.0023516
-0.00287671
0.00170726
-0.000350424
-5.88042e-05
-0.00406402
0.00447324
-0.0132905
5.49541e-05
0.00118856
0.012047
0.000523313
-0.00336262
-0.00174016
0.00457947
0.00828018
-0.000681904
-0.00267974
-0.00491853
-0.0014666
-0.00317971
0.000612926
0.00403339
0.00235263
-9.21717e-06
-0.00234341
0.00389651
0.00207492
-0.00129389
-0.00467755
0.00301581
-0.00239072
0.00595317
-0.00657827
0.000194517
0.00620337
-0.0020478
-0.00435008
0.00150106
0.00214314
0.00463597
-0.00296345
0.000211078
0.00275237
-0.00384138
0.000544626
0.00101865
0.000643147
-0.00530791
0.00364611
-0.00503765
0.00737156
0.00223032
0.00761173
-0.00161182
-0.00823023
-0.00485274
0.00476634
-0.00754099
0.00762739
-0.00072686
-0.00363962
0.00127351
0.00309297
-0.00402009
0.0075849
0.00225752
-0.00262856
0.000591166
-0.000220132
-0.00248293
-0.00792963
0.00248099
0.00793156
0.00521751
-0.00520714
-4.7135e-05
3.67625e-05
0.00420239
-0.00491693
0.00104683
-0.000332295
0.00108094
0.00422227
-0.00752696
0.00222374
1.86943e-05
0.00362329
-0.00364199
0.00235198
-0.00603453
0.00476349
-0.00227381
0.00611336
0.00515108
-0.00899063
0.00173268
-0.0017725
-0.00823271
0.00827254
-0.00247505
0.00410564
-0.00824318
0.00661259
-0.00592326
0.00471546
0.00617901
-0.00497121
-0.00369004
0.00505714
-0.00326773
0.00190063
-0.000786307
0.00342299
0.00055584
-0.00319252
0.001717
-0.00250396
0.00258283
-0.00179587
0.00327457
0.00121929
0.00107663
-0.0055705
0.00926661
-0.00629447
-0.00038011
-0.00259203
-4.83147e-06
-0.00450805
0.00451289
0.00280409
-0.00410739
-0.0125925
0.0138958
-0.000564747
-0.00610185
-0.00184936
0.00851596
-0.00037079
-0.00280635
0.00317714
0.000858534
0.00406063
-0.000647265
-0.0042719
-0.00112938
-0.00407907
0.00329104
0.00191742
0.00318465
-0.0026671
-0.0046853
0.00806937
-0.00628213
0.00179613
0.00190171
-0.00369784
0.00610972
-0.000122616
-0.000735996
-0.00525111
-0.00117929
-0.00200584
0.00318513
0.0021724
0.00144375
0.0121662
-0.0146334
-0.00516505
0.00763232
0.00186642
0.00397354
-0.00303974
-0.00280022
-0.00426787
0.00816707
0.0054291
-0.0093283
0.00481903
0.00167288
-0.000643946
-0.00584796
0.00791993
-0.00528165
0.00340832
-0.0060466
-0.00448181
0.0020489
-0.0056266
0.00805952
-0.00725634
0.0130017
-0.00509107
-0.000654317
-0.000195118
-0.00309281
-0.00425843
0.00754636
0.00590851
0.00243914
-0.00693062
-0.00141703
0.0031657
-0.00843237
0.00531662
-4.99483e-05
-0.00744162
-0.000280605
0.00486838
0.00285384
-0.0014961
0.00386265
0.00167988
-0.00404643
-0.000946079
0.00379255
0.00305141
-0.00589788
-0.00776454
0.00399081
-0.000375697
0.00414943
0.000704702
-0.00209859
0.00416672
-0.00277283
0.00331092
-0.00166536
0.00118181
-0.00282738
0.00319671
0.000614918
0.000310729
-0.00412236
-0.00468745
0.00503028
0.00186225
-0.00220509
-0.00111325
0.00596928
0.00012007
-0.0049761
0.00480902
-0.00282137
-0.00186397
-0.000123676
0.0041563
3.18573e-05
-0.00418816
0.00302936
0.00234533
-0.000532219
-0.00484247
0.00142269
0.00375641
0.00320925
-0.00838835
-3.46422e-06
-0.00675146
0.00675493
-0.00352132
0.0136311
-0.00199014
-0.00811968
-6.51887e-05
0.00509104
-0.00502585
-0.000337302
-0.00364015
0.000654752
0.0033227
-0.00662275
0.00337805
0.00256195
0.000682749
0.00134981
0.00112051
-0.00773071
0.00526039
0.003931
0.00620979
-0.00232065
-0.00782014
0.0059704
-0.00204194
-0.00571488
0.00178642
-0.00744362
0.00424582
0.0113681
-0.00817031
-1.87637e-05
0.00286913
-0.00286882
1.84575e-05
-0.00297066
0.00294002
3.06387e-05
-0.00756959
0.000115544
0.00318617
0.000845835
0.00182476
0.00500047
-0.00767106
0.00393578
-0.00468104
0.003019
-0.00227374
-0.00381024
0.00333726
-0.000125325
0.000598303
-0.000787616
-0.00626092
0.00799735
-0.000948808
-0.0027965
0.00134627
0.00442882
-0.0029786
0.0048258
-0.00186183
0.000713087
-0.00367706
-0.00319738
-0.000557097
0.003743
1.14747e-05
-0.000553229
-2.95624e-05
0.00525587
-0.00467308
0.000667526
-0.000561504
0.00524639
-0.00535241
-0.00472144
0.00659499
-0.006911
0.00503745
2.34611e-05
-0.00594759
0.00592413
-0.00211378
0.000185887
0.00533206
-0.00340417
-0.00403824
0.0047211
-0.00643963
0.00575677
-0.00415148
0.000317532
0.00125997
-0.00192666
0.00522615
0.00029366
-0.00359315
-0.00139123
0.000193433
-0.0023508
-0.00205473
-0.00667917
0.00670862
0.00202528
-0.0029756
-0.000346151
-0.000751019
0.00407277
-0.0101782
0.00343787
0.0010049
0.00573543
-0.00321811
0.00740039
-0.00367637
-0.000505899
0.00224856
0.000880389
-0.00452018
0.00444703
0.00453294
-0.00897997
0.000603854
0.00974999
-0.00226518
-0.00808866
-0.000123858
-0.000174665
-0.00431723
0.00461575
-0.00467378
0.00769606
-0.00310431
8.20314e-05
0.00443438
-0.00279959
-0.00401909
0.0023843
0.00111375
-0.000149457
0.00136316
0.00682821
0.00189548
-0.00987002
0.00114633
-0.0047511
-0.000615644
0.00155532
0.00381142
0.0017827
-0.00197847
-0.00268094
0.00819842
-0.00551893
0.00429669
-0.00697617
-0.000910879
0.00530015
-0.00916527
0.004776
0.00318719
-0.00402652
-0.000409087
0.00124842
-0.00351029
-0.00122291
-0.000118267
0.00485147
-0.00263476
-0.00248924
0.005124
0.000658048
-0.00705158
0.00625493
0.000138607
0.00270839
-0.00261439
-0.00272876
-0.00441835
0.00560554
-0.00106699
-0.00012021
0.00629805
0.00173396
-0.00678578
-0.00124623
-0.00244035
-0.00356799
-0.000410284
0.00641862
0.00403002
-0.00122716
0.00467135
-0.00747421
-0.00447802
-0.000243414
-0.00535697
0.00286773
0.000684938
-0.00596463
0.00190833
0.00337137
0.00174133
-0.0062453
0.00343796
0.00106601
0.000937662
0.000243801
-0.00470026
0.0035188
0.000710685
0.00305588
-0.000208125
0.00528476
-0.00104381
-0.00403282
-0.00207295
-0.000216883
-0.001931
0.00422083
-0.00122571
-0.00165077
0.00315628
-0.000279797
-0.00490657
-6.97863e-05
-0.00826416
0.00296869
0.00434938
0.0117194
-9.86834e-05
0.00159666
-0.0132174
-0.00515003
0.00799232
0.00162498
-0.00446727
-0.00146763
0.000801703
0.00505165
-0.00438572
0.000609233
0.00173128
-0.00133853
-0.00100198
-0.00882096
-0.00182889
0.00760926
0.00304058
0.000193577
0.00374204
-0.000750969
0.000113999
0.00187562
-0.00588687
0.00389725
-0.0036265
-1.27274e-05
0.0013366
0.00230263
-0.00501745
0.0062014
-0.000990379
0.00283791
-0.00255912
-0.000278787
-0.00416404
0.00059564
-0.00323086
0.00679926
-0.00189037
0.00284608
-0.00219371
0.00123799
-0.00406466
0.0045774
-0.00189152
0.00137878
0.00181574
-0.000304225
-0.00429016
0.00277864
-0.0018163
0.0113913
-0.0153311
-0.00164281
-0.0011463
0.00112217
0.00166694
0.00538947
-0.00841145
-0.000381506
0.00340349
-0.00226722
0.00169173
0.00291596
-0.00234047
-0.000674269
0.00358169
-0.000987491
-0.00191993
-0.00402965
0.000894281
0.000941321
0.00219405
-0.00227087
0.000195328
0.00207554
0.00519142
-0.00247118
-0.00263589
-8.4343e-05
0.000382943
0.00261166
-0.00396421
0.000969603
-0.00278035
-0.00337257
0.00343833
0.0027146
-0.00144959
0.00373731
-0.00320118
0.00091345
0.00134092
-0.00253787
0.00174874
-0.0005518
0.00489343
0.000128825
-0.00502225
0.00420136
-0.00517381
0.00256106
-0.00158861
-0.00660665
-0.000184804
0.00679145
0.00270061
-0.00224004
0.000523322
-0.000983889
-0.000210616
0.00468737
-0.00511859
0.000641836
-0.00233603
0.00292404
0.000752917
-0.00261216
0.00559781
0.00517149
-0.00444927
0.00440986
3.94087e-05
8.82504e-05
-0.00705703
0.00696878
0.00945623
0.00113974
-0.00200796
-0.00858801
0.00198228
-0.00772077
-0.000957754
0.00669624
0.00149302
0.00176765
0.00100153
-0.0042622
-0.0026526
-0.00265083
3.5991e-05
0.00526745
-0.00126748
0.00173747
-0.00312259
-0.00583629
0.00105346
0.00766037
-0.00287755
-0.0114836
0.00841086
0.00369933
-0.000626588
0.00508166
4.0736e-05
-0.0051224
-0.00289716
-0.00389927
0.00252276
0.00427367
-0.00289072
-0.00419939
0.00125383
-0.00415213
0.00225647
0.00260634
0.00168962
-0.00219807
-0.00402878
0.00453724
-0.00284179
2.43715e-06
0.00283935
-0.00664868
0.00269866
0.00274192
0.00120811
0.00166823
-0.00446946
-0.0013509
0.00570018
-0.00180734
-0.000143371
-0.00374947
-0.00382619
0.00634185
0.00376049
-0.00627614
-0.00113233
-0.00237127
0.000880072
0.00262353
-0.00161216
-0.00129768
0.00290985
-0.00282612
-0.00593792
-0.00271957
0.00132998
1.81745e-05
0.0026834
-0.00403156
0.00542211
-0.00394668
-0.0057128
0.00423737
-0.0020119
0.00071723
0.00406542
-0.00277075
0.00380517
-0.0026792
-0.000377093
-0.000748872
-0.00436648
0.000708994
0.00341111
0.000246379
-0.00271583
0.00622135
-0.00672614
0.00262231
0.000194249
0.00390958
0.00633758
-0.00506609
-0.0039866
0.00271512
-0.00503326
0.00104999
0.00940538
-0.00486613
-0.00321217
0.00523911
0.00283919
-0.000571605
0.00508112
-0.00192696
-0.00258255
0.00029016
-0.00302471
-0.00198937
0.00472392
0.0057778
-0.00381161
-0.000233834
-0.00173235
0.0017917
0.00133904
-0.00439822
-0.00121558
0.00137699
0.00339221
-0.00355362
-0.00101546
0.00528302
-0.0065075
0.00223994
-0.00318517
0.000768213
0.000771135
0.00164582
-0.00696907
0.00708316
-0.000114095
0.00483021
-0.00476111
-6.91092e-05
0.00193589
-0.00746635
-0.00286713
0.00839759
0.00170407
0.00324075
0.000755362
-8.17077e-05
0.00283352
-0.00275181
0.00458924
0.00410948
-0.00869873
-0.00502945
0.00307125
0.00216932
-0.000211114
-0.00282441
0.000930697
0.00229667
-0.000402956
-0.00846893
0.00395417
0.00464372
-0.000128964
-0.00274225
-0.00305448
0.00295494
0.00438256
-0.000692954
-0.00282024
-0.000869368
-0.00468182
0.00505092
-0.00308493
0.000822746
-0.00523959
-0.000268565
0.00468541
-6.25488e-06
-0.00259351
0.00259977
0.0126519
9.27903e-05
0.00135378
-0.0140985
-0.000477036
-0.000935997
-0.00689637
0.0083094
0.00219026
-0.00296704
-0.00138182
0.0021586
0.000851257
0.00657292
-0.00265139
-0.00477279
0.00715527
-0.00715788
-1.31309e-05
1.57388e-05
-0.00400816
-0.00361478
0.00565116
0.00197178
0.00234495
0.0017927
-0.00467183
0.000534183
3.22779e-05
0.00433747
-0.00443344
6.36899e-05
-0.00599019
0.00191907
0.00485289
-0.000781769
0.00457615
0.00276764
-0.00463305
-0.00271073
0.000106739
-0.00408262
0.00207258
-0.00106302
0.00614571
-0.00329272
-0.000428634
-0.000513495
0.00423485
-0.00554271
0.000301422
0.00524129
0.00807265
0.00349255
-0.00261794
-0.00894725
-0.00527601
0.000112156
0.00527059
-0.000481308
-0.0012555
-0.00320231
0.00493912
-0.000632873
-0.000631637
-0.00170373
0.00296824
0.00133146
-0.00674865
0.00508853
0.000328661
0.00421441
-0.000655833
-0.00410108
0.000542494
-0.00517014
0.00107649
0.000412162
0.00368149
-0.00197275
0.00129501
-0.00268098
0.00335872
0.00113398
0.000734143
-0.0067063
0.00483818
0.000233503
-0.00454031
-0.000315195
0.004622
0.00449961
0.000592068
-7.98543e-05
-0.00501182
-0.00535713
0.00124662
0.00484783
-0.00385594
-0.00512263
0.00897857
0.00742302
-0.00376757
0.00159752
-0.00525297
0.000582334
0.00415879
-0.00255086
-0.00601069
0.00110836
0.00212846
0.00277386
0.00742548
-0.00765842
0.00023294
-0.00450575
-0.00153195
0.00315481
0.00288289
-0.00585002
-0.00454237
0.00304751
0.00734488
0.00604203
-0.00630934
-0.000772646
0.00103996
-0.00087931
0.00293606
-0.00231298
0.00025623
-0.00756947
0.00247244
0.0017376
0.00335943
-0.0111763
0.0138987
0.00232424
-0.00504659
0.00499597
-0.0108278
-0.00055381
0.00638565
-0.00444208
0.00564992
-0.0104696
0.0092618
-0.00464837
0.010246
0.00101596
-0.00661355
0.000410006
0.00486391
-0.0011384
-0.00413551
0.0074192
-0.00556741
-0.000185916
-0.00166588
-0.00129485
-0.00124375
0.00190084
0.00063776
-0.00348459
-0.00725447
0.00620166
0.00453741
-0.00497855
0.00663553
0.00576223
0.00405314
-0.00298011
-0.00371189
0.00263886
0.00148681
-0.00192345
-0.000849261
0.0012859
0.00329721
-0.00326339
-0.00433826
0.00430444
-0.00133368
0.00382405
-0.000276119
-0.00221424
-0.00531681
-0.000851715
0.00657853
-0.00399787
-0.000982731
0.00494248
3.81236e-05
0.0016505
-0.00368708
0.00203658
0.00130851
-0.00173678
0.00647437
-0.0060461
0.00509762
-0.00716761
0.00103974
0.00103026
0.00324162
-0.00349594
0.000254313
-0.00511405
0.0001355
0.0045376
-0.00173024
-0.00438081
0.00157344
0.00143747
0.00116233
0.00509486
-0.00769466
0.00317184
-0.00344367
0.000271833
-3.7985e-05
0.00395228
-0.00446816
0.000553866
-0.00559789
-0.000537902
0.00744431
-0.00241105
-0.00041183
0.000557286
0.0022656
0.00033322
-0.00274939
0.00202779
0.000388387
0.00451431
-0.00432259
-0.00107103
0.000521268
0.00750009
-0.00472909
-0.00329227
-0.00256863
0.0054319
-0.00286327
-0.00695691
0.0026631
-0.00163067
0.00592448
0.00546218
-0.00494589
-0.00808575
-0.00268294
-0.00321285
0.0110366
-0.00514084
-0.00783612
0.00499324
0.00712193
-0.00427904
-0.000169333
-0.00669459
0.00686392
0.0105876
2.07836e-05
-0.00610216
-0.0045062
0.00616471
-0.00397409
-0.000548956
-0.00164167
-0.00448472
0.00318115
-0.000803349
0.00210692
6.0634e-05
-0.0046409
0.00458026
-0.00336051
0.0034596
-9.90903e-05
-0.0024438
-0.00258399
-0.00661232
0.0116401
-0.00623658
0.00136133
-0.000692624
0.00556787
0.00145501
0.00236082
0.00644798
-0.00581963
-0.0048105
0.00418215
-0.00177954
-0.00367383
0.00404908
0.00140429
-0.00369077
-0.00187598
0.00557321
-6.45524e-06
0.00122026
-0.000702272
-0.00344544
0.00292746
0.00407173
0.000181473
-0.00520734
0.000954139
0.00125712
-0.000876153
0.00135733
-0.0016385
0.00163267
-0.0013515
0.00333086
0.00326089
-0.00333129
-0.00326046
0.00164439
0.00384664
-0.00397705
-0.00151398
0.00347193
0.00150348
-0.00272684
0.00430143
-0.00521637
0.00109641
-0.00572682
0.00400366
0.00215746
-0.000434296
0.00679208
-0.00224836
-0.00711235
-0.0018202
0.00484694
0.00243544
0.00472909
-0.00230364
-0.00398959
-0.00108974
-0.000647486
-0.0063654
0.00595304
0.00056148
-0.000149113
-0.000396217
0.00796511
-0.000823745
-0.00674515
-0.00519427
0.00105879
0.00231527
-0.000827848
-0.00524026
0.00147394
0.00459417
0.00475492
0.000661814
-1.64452e-05
-0.00540029
-0.007111
-5.59631e-05
4.62701e-05
0.00712069
-0.00183237
0.00200381
-0.00326109
0.00308964
-0.00489482
0.0061902
-0.000640165
-0.000655216
0.00644386
-0.00601431
-0.00532437
-0.00474526
0.00428066
-0.00135659
0.00182119
0.00382634
-0.000172647
-0.00120331
-0.00245038
-0.00721178
0.00695382
0.00340964
-0.00315168
0.00342842
0.00130592
-0.000435782
-0.00429856
0.00122507
0.003107
-0.00388512
-0.000446944
-0.00230264
0.00231689
-1.42474e-05
-0.00134602
-0.00343449
0.00344682
0.0052604
-0.00521258
-4.7815e-05
-0.0029286
-0.00232985
0.00229141
-0.000306896
-0.00353465
-0.000385538
0.00422708
-0.00040277
-0.00309641
0.00276968
0.000729503
0.00481946
-0.00548148
0.000662025
-0.00619299
0.00634823
0.00582149
-0.00597673
-0.00415365
0.00320722
-0.00218243
0.00312885
-0.00167109
0.000714014
0.00151313
-0.000556054
-0.000173226
0.00750078
-6.62078e-05
-0.00726135
-0.00381532
0.00184982
0.00187942
0.00218263
0.00277809
-0.00484674
-0.000113987
0.000210488
-0.00602958
-0.000235875
-0.00543463
0.00543515
-5.21826e-07
-0.00366209
0.00184445
-0.00403238
0.00123021
-0.00272196
0.000109921
0.00239498
0.00103975
0.00357617
6.97272e-05
-0.00305862
-0.000587276
0.00299504
-0.0074736
0.00599198
-0.00151342
0.00124579
-0.00169582
0.00630152
-0.00585149
0.00770416
0.00227383
-0.00118443
-0.00879356
-0.0019626
-0.00321828
-0.0010456
0.00622648
0.00233746
0.00973653
-0.00879109
-0.00328291
0.0011203
0.00707123
-0.00682621
-0.00136532
-0.00242153
0.000319199
0.00496373
-0.0028614
-0.000852887
0.00692552
-0.00373517
0.00502054
-0.00396408
-0.00154676
0.000490299
0.00164708
0.00431019
-0.00595727
0.00400039
0.000888444
-0.000533047
-0.00435578
-0.00368628
0.00294666
0.000296256
0.000443369
-0.000356419
-0.00524381
0.000307346
0.00529288
-0.00383713
-0.000488085
-0.000157221
0.00448244
0.00220367
-0.00488805
4.85089e-05