/*--------------------------------*- C++ -*----------------------------------*\
  =========                 |
  \\      /  F ield         | OpenFOAM: The Open Source CFD Toolbox
   \\    /   O peration     | Website:  https://openfoam.org
    \\  /    A nd           | Version:  10
     \\/     M anipulation  |
\*---------------------------------------------------------------------------*/
FoamFile
{
    format      ascii;
    class       volScalarField;
    location    "9";
    object      SgP;
}
// * * * * * * * * * * * * * * * * * * * * * * * * * * * * * * * * * * * * * //

dimensions      [1 -1 -3 -1 0 0 0];

internalField   nonuniform List<scalar> 
111485
(
1.19285e-09
9.76756e-05
2.35983e-05
5.32e-10
6.9931e-06
2.72962e-08
1.2355e-05
1.86874e-07
1.12196e-05
2.45923e-06
2.18238e-05
8.612e-07
5.73807e-06
0.266523
5.56112e-06
1.42384e-05
0.189209
0.000952436
8.44277e-07
4.19947e-08
0.034415
6.35118e-10
2.39518e-06
9.68896e-06
3.59915e-05
2.47709e-08
5.03594e-07
1.12135e-05
9.99465e-07
0.0445391
3.58127e-06
4.28724e-07
1.98192e-07
1.27611e-06
0.000687654
8.14637e-05
0.123771
0.185556
0.00223468
7.39989e-07
0.0386495
1.03317e-06
2.48457e-06
9.5246e-05
2.0112e-05
1.45519e-06
5.24754e-06
4.20397e-07
5.38954e-06
3.86728e-07
1.11038e-06
1.56987e-05
4.67945e-07
8.13951e-06
1.35422e-06
1.67327e-07
2.31546e-06
2.98742e-08
4.09455e-05
3.43486e-07
4.52342e-07
2.41361e-07
7.26332e-05
5.97651e-06
5.93098e-06
1.70573e-05
0.000380436
2.1177e-06
5.9322e-05
0.000115474
4.65304e-05
7.07203e-05
1.02529e-05
7.76851e-05
3.29507e-08
1.84539e-06
1.06727e-08
6.71061e-07
2.6054e-08
2.856e-05
0.254247
0.475637
3.36581e-08
4.72206e-09
1.32548e-05
3.13125e-05
0.12921
7.95829e-06
0.000224719
2.49567e-06
1.1559e-06
5.756e-06
3.92582e-05
4.23305e-07
1.62155e-06
7.2485e-09
0.0250258
1.04755e-05
0.00139723
0.000489688
1.95566e-09
2.40183e-06
1.75002e-06
1.23989e-05
5.64338e-06
1.47541e-05
1.02062e-08
3.0084e-07
1.17758e-05
0.000641195
3.29952e-05
1.17189e-06
1.12188e-05
6.33548e-05
8.72014e-08
8.40305e-08
2.24846e-08
5.83941e-06
1.91447e-05
4.44563e-09
8.29033e-08
0.000173847
0.0668333
1.97896e-06
4.97868e-05
0.0260965
9.74892e-05
1.0265e-05
5.39384e-10
0.000284127
0.000123485
1.52554e-05
0.0436491
0.000160293
7.20077e-05
6.99909e-07
2.50552e-09
2.16707e-07
9.14697e-06
2.11557e-05
6.18965e-05
1.91753e-07
0.162879
8.01286e-05
3.59563e-05
1.9629e-06
1.09459e-08
1.20081e-09
4.17429e-08
2.54711e-07
2.71397e-05
0.0264044
0.10451
9.60158e-06
3.42993e-05
4.46187e-07
4.82393e-06
0.000125304
0.000732057
5.02474e-06
3.21313e-10
6.11049e-07
3.36479e-05
6.69779e-05
5.8765e-05
3.12855e-05
5.65896e-06
0.0240434
0.00138334
0.000116399
1.34607e-09
1.24055e-08
0.182454
9.60344e-10
2.1261e-07
2.22956e-06
5.09798e-07
9.47501e-06
2.99362e-08
5.27757e-06
8.91434e-06
3.12866e-08
1.91923e-06
4.38174e-07
1.9165e-06
1.83367e-05
8.53099e-06
4.38342e-05
0.000330073
1.55286e-07
4.31774e-05
5.50176e-06
6.5922e-06
3.06101e-05
4.51288e-06
1.06926e-05
1.71512e-06
1.0293e-06
8.00493e-07
6.79669e-06
2.16964e-06
0.00149085
7.1776e-05
7.70444e-07
1.63925e-06
3.58864e-06
9.78477e-06
1.08289e-05
1.55862e-05
2.07375e-06
4.34758e-06
8.19706e-06
7.52598e-06
8.6191e-09
5.76803e-05
0.000282442
3.73475e-07
9.08729e-09
9.75743e-06
1.54263e-05
8.15674e-07
8.15553e-08
1.24114e-05
1.47e-05
0.000253843
1.17892e-08
8.97658e-10
2.82818e-05
0.00371511
2.15626e-05
8.41144e-05
1.38013e-05
1.98097e-06
0.131665
3.49555e-05
1.84078e-05
0.145874
4.72274e-08
4.88267e-05
1.71551e-05
2.1118e-05
2.49562e-05
3.9225e-06
3.58066e-06
0.00167154
5.91756e-07
6.94674e-06
2.30418e-08
4.05897e-06
0.123094
1.67035e-05
9.44957e-06
1.86856e-05
5.33681e-10
0.000175374
3.89051e-07
2.46597e-07
6.12954e-05
0.0912494
1.93295e-08
3.62099e-06
4.15854e-05
2.05075e-06
4.54327e-09
8.72928e-06
1.17888e-10
4.97325e-08
4.59944e-07
0.152169
3.74324e-06
2.65066e-05
1.23895e-06
0.160179
1.67878e-05
1.07285e-06
0.000217539
3.76541e-06
1.15179e-06
4.67039e-07
6.12216e-09
0.103746
3.40613e-07
3.63064e-05
1.54439e-05
1.66956e-09
0.196462
0.240015
1.33903e-06
0.000273704
2.7087e-05
2.65859e-06
7.3621e-06
1.08501e-05
3.65253e-08
5.92588e-06
3.67821e-09
0.000328354
0.000244257
1.34627e-05
1.69506e-06
0.31283
1.6158e-08
0.0763582
7.47331e-07
5.66396e-06
4.63142e-09
1.05276e-07
0.0227873
3.73545e-06
1.42e-06
5.05047e-06
0.000137933
5.846e-07
2.75385e-05
2.80331e-08
2.45459e-08
4.09696e-06
0.00399764
0.226877
2.97096e-06
0.000680081
9.27785e-10
9.39687e-09
1.36006e-08
7.73241e-05
5.07359e-07
6.93668e-07
1.9137e-06
8.0008e-07
6.55619e-05
0.0562355
4.60352e-06
1.0618e-07
1.80135e-06
1.87678e-06
0.0427489
4.55782e-05
6.81268e-07
6.26639e-07
5.98798e-07
1.27998e-05
3.7169e-08
0.13601
0.000149033
6.2529e-07
2.60772e-06
0.000273166
3.6041e-07
0.0347341
4.90776e-07
8.69275e-06
5.71087e-06
3.43946e-07
1.81385e-05
8.17053e-06
1.38213e-07
5.10963e-07
6.36279e-07
1.63477e-06
0.32677
2.5202e-05
1.51072e-07
0.0470219
1.44301e-05
1.9647e-08
3.87094e-07
3.86106e-07
0.0435297
0.000555239
0.0424523
0.0440821
2.59986e-07
2.67693e-08
1.95848e-06
2.80867e-06
1.48932e-09
5.94256e-06
2.48898e-06
1.424e-05
2.25069e-05
0.000117426
4.31326e-06
0.000633118
4.26717e-07
5.76736e-06
3.86234e-05
6.09014e-07
0.000597874
3.56804e-07
1.28143e-05
2.31079e-06
0.0269484
1.02163e-07
1.25796e-07
0.139748
3.93399e-06
0.276956
6.66546e-08
4.31684e-06
3.01454e-06
5.75918e-09
4.5009e-06
3.93582e-05
4.24577e-09
0.0296384
2.20341e-06
2.38795e-06
4.18887e-07
2.10416e-08
0.000684909
4.78987e-09
8.39827e-06
2.92525e-06
4.77506e-10
8.48437e-07
3.47987e-05
0.222786
0.000115779
2.16332e-09
7.28935e-05
9.09523e-05
8.85011e-05
3.43715e-05
0.000561829
2.36624e-06
0.00101594
4.62136e-05
0.184327
0.000186849
3.72155e-08
6.34557e-06
9.97952e-07
1.78639e-07
0.00128506
0.000181997
7.64962e-05
1.35238e-06
1.21648e-06
8.67443e-06
3.21784e-08
0.31618
9.1556e-07
3.02538e-05
0.00402696
8.27626e-05
0.00116813
3.59111e-08
0.229829
0.298939
2.17096e-08
2.90442e-05
0.000232914
9.39867e-05
2.8111e-09
2.72739e-05
4.52628e-09
0.258207
6.48956e-05
1.7234e-05
9.16211e-05
1.93017e-05
1.49434e-07
1.36059e-06
4.76977e-07
5.98986e-05
1.52435e-07
5.62358e-07
0.0484725
8.16812e-05
3.37573e-08
9.59425e-10
0.000349959
7.72539e-08
1.3615e-06
3.27187e-06
2.15263e-08
5.63053e-05
6.11838e-08
0.0685967
6.50762e-08
1.54053e-06
1.62702e-08
0.000198275
3.87157e-07
0.203279
1.68504e-05
0.213989
5.77847e-09
5.80552e-05
2.21738e-06
3.86229e-09
0.33376
0.129298
2.23341e-05
2.87942e-06
2.83134e-05
7.71299e-07
1.06218e-05
6.26861e-07
3.95686e-05
0.261259
1.8749e-08
1.99236e-06
9.86152e-05
1.46177e-05
0.0524416
4.49274e-06
0.000105471
2.06612e-06
1.16848e-06
0.000690025
0.0727587
1.51095e-05
1.94756e-08
1.17907e-06
3.26017e-06
3.25708e-06
1.01289e-06
1.79202e-05
2.47261e-09
0.0015791
7.69797e-08
2.9817e-07
1.92783e-07
7.65127e-05
1.89301e-09
7.16846e-06
3.08886e-08
7.34625e-06
3.06301e-10
0.105254
0.104966
1.55645e-05
6.88515e-07
0.0579447
0.0745192
3.72435e-08
2.51933e-07
1.19393e-05
4.94934e-08
0.000135252
1.59258e-05
1.13191e-05
0.0394527
1.46151e-06
3.0678e-09
4.27309e-05
3.47993e-05
5.40918e-05
1.08698e-06
1.39372e-05
9.30326e-06
8.86568e-07
8.71857e-07
1.95121e-05
2.64557e-05
9.33152e-10
0.115213
6.2076e-05
3.83118e-05
1.14759e-06
0.00109127
2.76237e-05
0.000407425
0.00272349
0.000349488
5.00562e-06
7.60704e-05
1.14357e-05
1.80446e-05
0.103595
0.000185965
6.76205e-05
0.00329989
0.0698762
3.08907e-08
5.52281e-05
3.97749e-06
3.71007e-05
2.96474e-07
0.000470448
0.00254893
0.000394188
0.000151734
2.25461e-05
1.98084e-06
6.4182e-08
0.000181086
3.0346e-06
3.10319e-08
6.54191e-09
3.28281e-08
4.3347e-08
8.71411e-06
6.00816e-09
0.0321455
1.11917e-05
1.96793e-05
0.0907689
0.288647
5.53466e-05
2.61488e-06
0.0343918
5.07113e-08
1.65331e-05
1.56252e-07
1.42041e-08
4.35787e-05
2.18281e-05
0.108831
2.31052e-05
1.08249e-07
2.48719e-06
2.64117e-05
0.129996
6.18252e-06
2.45664e-05
6.13584e-05
0.180189
0.0368992
2.32752e-06
1.52844e-05
5.38563e-06
2.03602e-06
5.68427e-06
1.07108e-06
2.86357e-05
3.54328e-06
1.85939e-06
1.00507e-06
3.72026e-06
0.000592975
2.94826e-05
3.73843e-06
4.11022e-06
0.000601072
2.67733e-07
4.77399e-07
1.40696e-05
2.68742e-06
1.42056e-05
2.17375e-06
3.00676e-06
3.0469e-06
2.72458e-05
0.000177045
1.27549e-05
1.77928e-05
2.16386e-06
4.47495e-07
3.49361e-05
4.15818e-06
5.25822e-09
0.0690563
2.78726e-08
0.125798
5.33613e-05
0.0108037
7.97664e-08
0.0261854
1.37074e-06
1.15385e-05
5.47497e-10
6.88359e-06
2.82022e-07
1.53759e-08
8.125e-07
0.255312
0.000108586
2.6911e-05
0.0380961
9.66251e-08
2.25198e-09
3.84725e-06
1.39062e-06
7.64846e-05
5.05718e-07
0.000115315
5.41717e-08
6.56135e-06
0.000110394
0.151584
4.03106e-09
7.82642e-09
2.70259e-06
6.09961e-07
0.000121583
3.23047e-07
0.056042
9.11282e-07
2.79146e-08
2.11791e-07
0.0404863
5.67791e-06
0.000119731
8.03238e-10
0.00460579
0.000926645
0.164322
2.21258e-08
1.74677e-08
3.34214e-06
2.10844e-05
3.63549e-05
0.0005312
0.000303493
0.000217447
3.78015e-06
0.0564736
2.25071e-05
6.70735e-07
5.27614e-08
1.14288e-06
1.2562e-08
5.59751e-09
6.29847e-08
1.48904e-09
3.00587e-06
5.53728e-08
1.2151e-08
3.88658e-07
1.99719e-07
1.25673e-06
9.66592e-08
5.49781e-07
2.0386e-07
1.2487e-05
1.33989e-05
2.37457e-08
6.59616e-09
1.70272e-05
5.43682e-10
7.39317e-05
1.59567e-06
2.54087e-06
7.86318e-08
8.48667e-10
1.1955e-09
1.39371e-09
1.32091e-05
2.60278e-08
5.97622e-08
1.87783e-05
6.93661e-09
1.14782e-05
7.46533e-05
2.09904e-06
1.21561e-06
0.000476469
3.45333e-06
0.227801
9.48771e-05
7.50906e-06
0.1905
7.51549e-05
4.90659e-06
2.4078e-05
6.94976e-07
1.85322e-05
0.0814927
0.000632415
4.85857e-07
3.8719e-08
1.13034e-05
7.47364e-05
8.7665e-05
8.40647e-05
2.71081e-09
4.86368e-10
1.13773e-06
3.54511e-05
6.98443e-06
3.51171e-06
0.000167534
1.82464e-06
2.38317e-05
1.50385e-07
1.78806e-08
0.0298148
9.55324e-06
1.36819e-07
1.45959e-08
4.58288e-05
0.000119319
1.57683e-06
2.92939e-07
0.0376579
7.83986e-10
2.13919e-05
0.0568474
1.55659e-08
0.0658194
3.92898e-05
0.0330355
0.000551778
8.01864e-08
2.19926e-05
1.76501e-05
0.0424259
4.77522e-05
0.00119475
0.146437
0.000125211
8.77875e-06
8.65148e-07
1.09349e-06
0.440181
0.146713
3.44102e-08
0.218064
1.09104e-05
0.000148657
1.97294e-05
1.93308e-05
0.00106666
3.23862e-05
1.11056e-05
6.50112e-06
1.75258e-07
1.33641e-06
0.0406645
6.34492e-08
4.30296e-05
2.15622e-05
8.29168e-08
2.91794e-06
0.196459
3.03078e-06
2.83585e-07
0.000557254
1.48766e-08
2.98744e-06
0.191771
2.08104e-08
0.161259
0.309457
0.00118171
1.51314e-05
9.70382e-07
2.73965e-06
5.3348e-05
0.000210532
0.00105884
0.00026908
3.84613e-06
0.0404289
9.68826e-05
1.34831e-09
0.000266907
0.000257504
0.000553952
0.000428927
0.000792007
0.000158234
1.70704e-09
6.26571e-05
9.99329e-07
3.63647e-07
0.00148168
0.31599
1.64272e-07
2.75304e-08
0.00296486
0.00304066
8.58088e-10
0.00055127
9.28054e-08
1.32457e-08
1.50797e-08
4.18145e-07
4.34554e-06
1.63835e-07
6.80088e-05
0.0462192
3.7103e-09
4.77449e-07
0.00411311
0.105137
6.13551e-05
4.88658e-07
0.0290273
2.86e-09
0.00011775
3.21706e-09
2.08288e-09
0.00052484
0.117547
2.19221e-06
8.89127e-09
7.36798e-08
0.0318386
1.43379e-08
0.0206281
4.12303e-08
9.30491e-05
3.92829e-09
0.00180437
2.66732e-06
3.4606e-09
6.85286e-07
5.45581e-07
0.00128449
5.71187e-07
2.19003e-08
1.8625e-06
0.00408329
0.0482338
6.49309e-05
0.00053194
0.00098806
6.29527e-08
0.00120016
9.11143e-06
3.54431e-07
3.05082e-06
0.000201332
1.89407e-05
1.39637e-07
8.25893e-06
0.000135333
7.70965e-08
1.01628e-06
6.24666e-07
1.43155e-05
0.0662004
1.15321e-09
6.07665e-07
0.0543026
0.000111344
6.98394e-05
9.60458e-09
7.26944e-07
2.65063e-08
9.87503e-07
2.33041e-05
4.23169e-05
5.034e-07
2.6062e-05
2.48768e-05
7.37531e-05
1.50382e-05
1.86922e-08
3.45427e-06
1.38383e-09
4.25545e-07
5.40544e-05
0.000164472
3.08291e-08
5.47515e-07
2.96785e-06
1.07019e-09
4.4061e-05
4.24948e-07
6.03141e-05
0.00075479
6.52066e-05
3.9007e-08
0.0012773
0.000107276
5.7574e-05
0.000143451
3.77051e-08
0.000138643
2.43383e-06
0.106295
3.10542e-05
8.6885e-05
5.33725e-08
7.42677e-10
1.8429e-08
0.169399
0.0666803
4.13544e-05
1.99329e-09
0.000125666
3.06629e-08
0.156557
0.000133107
6.4407e-07
6.1516e-08
2.8748e-06
5.7444e-07
7.95553e-05
1.93273e-06
0.000110924
0.283399
3.23613e-06
6.643e-05
3.13068e-05
6.45164e-05
4.7089e-05
1.57437e-08
2.48787e-09
2.16554e-06
3.01248e-05
1.16148e-08
1.78057e-07
0.000573521
3.95758e-07
9.97172e-07
0.38821
1.87625e-06
6.08365e-05
7.64836e-10
2.48661e-06
2.04543e-07
0.300946
3.19214e-09
0.108574
0.00509394
0.000118999
1.51785e-05
1.39037e-05
0.000861099
2.38191e-06
2.89276e-06
1.98374e-06
7.67497e-07
4.34327e-08
1.71625e-06
7.73131e-05
2.13758e-06
0.063012
2.50566e-07
3.92925e-06
0.000276934
2.45918e-09
0.000348155
8.63493e-08
3.51922e-05
0.000732939
6.65094e-08
1.65649e-06
6.06179e-05
5.22002e-07
6.90631e-06
0.165101
5.8088e-07
8.73462e-06
4.27982e-09
0.0415729
8.10151e-06
1.84336e-07
1.89551e-07
4.50479e-06
6.40255e-06
2.86104e-09
0.138191
1.31451e-06
2.33181e-09
0.000114684
3.94498e-07
2.92467e-09
4.07973e-05
0.000890015
0.000819639
1.07064e-08
1.00676e-06
4.47469e-08
4.20193e-05
4.62069e-05
0.0317716
6.0226e-06
0.000832916
6.21491e-05
0.0010284
2.84921e-05
3.15352e-06
9.00794e-07
4.5691e-07
3.66911e-05
1.73584e-06
6.3262e-06
0.0407669
0.000231529
0.0427936
6.68145e-10
5.90271e-06
1.13109e-07
5.86905e-05
9.30315e-05
8.80755e-06
4.32088e-05
0.00052746
0.000124104
1.7877e-09
0.00658947
0.00753974
7.52676e-05
4.13869e-05
5.16869e-07
0.000777356
1.61189e-06
2.65579e-06
1.26211e-07
5.18235e-09
0.000226143
7.63973e-06
0.000898332
5.92418e-07
0.0423268
0.000581511
6.49925e-07
9.58378e-08
0.000519896
2.56813e-06
0.0515992
0.254164
0.000117798
0.000213375
1.54952e-06
3.72005e-07
9.12186e-08
8.78054e-09
5.85415e-05
4.27301e-06
0.0311636
0.0510903
2.6543e-05
1.68925e-08
0.000291359
0.0373581
2.53716e-05
0.00105279
0.00231545
0.0393692
0.111867
0.0457955
0.000111797
2.9486e-09
0.00185316
6.3145e-07
1.22349e-07
1.72075e-07
1.31187e-08
2.40728e-05
1.88976e-09
3.74535e-09
8.29293e-05
4.72432e-08
6.52345e-09
8.77229e-07
4.72623e-07
0.0535002
4.9776e-06
2.7398e-05
0.0690667
0.239067
5.78123e-09
0.170932
0.000149596
0.352901
2.90757e-07
8.67264e-08
8.72428e-08
3.76481e-05
0.2385
2.80273e-09
0.00106002
6.20753e-08
2.9562e-06
1.50613e-05
7.21308e-06
1.00588e-06
2.20139e-07
0.0703003
1.26608e-08
5.45715e-06
1.0558e-07
5.58183e-07
1.29481e-06
0.000418397
9.2513e-05
1.05878e-06
0.000356594
1.81362e-05
3.86312e-07
0.000126407
6.78337e-07
1.7733e-05
1.32888e-07
1.10585e-07
0.232576
0.0397121
0.000367864
2.78612e-07
4.64174e-09
3.20185e-06
0.176798
2.9565e-07
9.47702e-06
6.25931e-07
2.24057e-06
1.18464e-09
0.0323078
9.62226e-05
6.03205e-07
5.14883e-07
1.55339e-05
7.23377e-09
0.163253
2.82348e-09
0.037549
6.8068e-05
4.49819e-06
1.74568e-08
2.50517e-06
1.16909e-06
8.83856e-07
2.8808e-06
4.61659e-06
4.04108e-10
4.48213e-09
8.26577e-05
0.072967
2.78847e-09
2.91145e-05
4.0232e-06
8.24469e-05
2.50915e-07
0.0437878
2.11512e-06
4.67763e-05
4.75792e-05
6.50015e-08
5.07669e-05
1.79113e-06
1.47511e-05
2.83574e-08
1.47799e-08
9.07079e-06
5.5019e-09
0.000151632
3.50653e-05
3.32387e-08
7.3757e-08
0.000115066
0.000501975
0.27666
1.03799e-07
4.65059e-06
1.70407e-06
0.000334823
0.000154052
2.25354e-05
7.65773e-05
0.0720116
3.05379e-06
5.00275e-05
0.000757134
0.0608698
8.69809e-07
2.93767e-08
0.00037663
3.10448e-06
0.0377014
2.0522e-07
6.37089e-06
3.41261e-06
3.0602e-08
0.210664
1.05964e-08
1.49569e-07
7.01106e-07
2.3915e-05
0.285327
0.0520545
4.37205e-07
1.95771e-08
1.4976e-09
1.13578e-07
1.03049e-07
5.62412e-07
9.88688e-08
3.94439e-09
6.01068e-08
7.82127e-09
1.72221e-07
0.0570526
0.0338512
3.27294e-09
1.25709e-05
7.16354e-09
5.35932e-08
7.38789e-09
0.0331762
0.0762548
5.36217e-06
2.89768e-08
8.97235e-09
7.35209e-07
1.05712e-06
3.66184e-06
1.24398e-07
0.000307686
2.72335e-07
2.99181e-06
2.68371e-06
0.000174746
4.85193e-06
0.000726742
1.52001e-06
2.46575e-08
0.000446076
0.000438001
1.7282e-08
2.10225e-05
3.4112e-06
1.13469e-05
3.70026e-05
8.60761e-06
3.49637e-06
1.14e-07
0.299886
4.71995e-07
3.47753e-05
0.0571068
9.86028e-05
1.09847e-05
1.28257e-05
1.29095e-06
1.63903e-06
1.97515e-05
5.31954e-05
4.9216e-05
3.1941e-06
3.664e-05
6.25738e-06
3.17084e-06
1.62333e-06
5.70515e-09
5.65661e-08
3.23904e-08
7.51617e-10
1.69336e-07
3.54064e-08
6.18942e-06
2.21059e-08
2.54732e-09
1.49561e-07
1.57011e-05
1.60461e-08
1.06628e-08
7.41067e-07
1.00784e-06
8.09849e-07
7.87864e-05
5.29858e-06
0.225917
1.18489e-07
1.06517e-05
1.39596e-05
3.47475e-06
3.93729e-09
1.84219e-08
0.204008
4.97449e-07
2.94248e-09
2.24309e-06
0.204485
1.45929e-06
5.11543e-05
5.19952e-05
1.01162e-06
6.993e-06
1.09397e-05
0.000348507
1.70509e-08
3.72694e-05
4.59659e-06
1.62763e-07
0.00029723
0.000356196
0.180442
6.26552e-06
1.28771e-06
6.02055e-06
3.15337e-05
1.31469e-05
1.70527e-07
0.00237137
1.47641e-08
0.000571436
0.00037896
0.0565225
8.42963e-06
0.234379
2.66052e-08
1.36758e-07
3.81199e-06
2.15508e-05
5.722e-05
3.02785e-06
9.54419e-05
3.14373e-08
8.65758e-06
2.15953e-09
1.07126e-08
1.22441e-06
0.000433305
8.63363e-08
3.57964e-09
0.00039006
1.65037e-07
0.000489506
3.08437e-06
1.52377e-06
1.41915e-06
3.63508e-07
1.86452e-05
3.78509e-06
0.000188837
5.24058e-07
6.17127e-06
0.00305204
1.08567e-06
8.99727e-09
0.000142549
2.38886e-06
3.38204e-05
4.23874e-09
0.130434
0.000109141
5.90862e-05
1.56971e-06
4.12149e-09
0.000177982
3.77247e-06
1.94912e-07
1.4077e-09
5.46759e-05
6.15793e-05
6.82235e-05
0.177178
2.4076e-06
4.83869e-06
0.000224415
6.36776e-06
5.54112e-06
1.82615e-06
7.61037e-05
2.89931e-06
0.000108184
0.166102
1.17802e-05
4.31664e-10
1.30372e-06
4.03874e-05
1.3315e-05
2.1888e-07
0.000439278
0.000784921
0.000418124
0.000804754
1.41165e-05
4.77585e-05
6.01016e-06
1.5146e-05
8.68245e-08
1.57407e-08
0.0929608
0.000471191
2.08764e-06
0.00151146
4.41141e-06
2.25605e-05
0.000392296
2.95482e-06
2.08222e-06
2.93485e-06
2.91582e-07
3.79411e-05
2.37257e-05
0.000135318
2.21246e-05
4.20332e-07
7.30697e-09
2.40126e-05
7.25699e-07
1.44411e-08
0.000287447
2.36354e-06
7.51209e-06
3.07093e-05
4.72592e-06
4.93303e-08
0.000532939
0.126076
4.85153e-08
5.42388e-09
1.8037e-08
0.131209
0.224331
4.02956e-07
0.0493366
4.78064e-06
1.63641e-05
7.41707e-06
6.20674e-06
1.17183e-05
1.10161e-05
2.72469e-05
0.104999
0.309848
0.35632
1.03995e-05
2.4178e-05
5.29866e-06
6.58099e-06
0.328498
1.26717e-08
0.160941
4.09581e-06
6.36053e-09
9.99359e-07
4.94326e-07
3.44213e-08
3.49024e-08
2.13217e-07
6.42817e-09
0.124253
5.19218e-08
2.40896e-05
0.00016702
1.64664e-08
4.21265e-06
6.73201e-06
5.02732e-06
7.10749e-08
0.000532158
5.79831e-06
6.55467e-07
6.06765e-05
3.99936e-06
2.28188e-05
4.10179e-06
1.26092e-06
3.71249e-07
1.67805e-05
0.00307035
3.66701e-05
9.12286e-07
1.09131e-05
7.7843e-07
1.95006e-05
8.97566e-05
9.5119e-06
2.03747e-06
4.75373e-06
1.14125e-06
5.29619e-05
8.821e-08
7.06157e-06
0.0381358
0.000381562
0.301017
0.000702829
9.29741e-05
2.26484e-08
0.0569324
9.04058e-10
3.91114e-05
1.25582e-05
7.15967e-07
7.73698e-05
1.18486e-06
7.54667e-07
3.56349e-05
7.2444e-07
1.12518e-07
1.53787e-05
5.47896e-07
2.04028e-05
0.0701209
3.26334e-07
2.93995e-05
1.26163e-06
6.75451e-07
8.83997e-09
0.000235932
7.40791e-05
2.94032e-06
1.04606e-08
6.10386e-07
0.0410725
0.000188136
8.3505e-06
1.40624e-05
2.17823e-09
3.11982e-10
7.8202e-07
2.18184e-09
4.16379e-05
2.01348e-07
1.99706e-05
1.43997e-06
4.60998e-07
4.05535e-07
4.1599e-08
4.36969e-05
8.26822e-05
3.97033e-05
5.12313e-07
2.87468e-08
9.16174e-07
1.67072e-06
0.000490984
9.50956e-07
0.148353
1.76235e-05
1.55038e-08
3.81985e-08
0.000210462
1.10357e-05
0.00103558
3.98378e-07
8.19162e-05
0.212092
3.93512e-10
0.000298779
2.35512e-05
0.0393413
1.57085e-06
0.0439316
0.0768519
0.000106903
7.76914e-06
1.81008e-05
1.11307e-08
1.43096e-05
2.46015e-05
0.000338561
1.70073e-05
5.09278e-06
2.43528e-05
0.000385653
0.000311803
0.000445354
0.000116972
1.29219e-08
7.70629e-05
0.000800073
5.92389e-06
3.65484e-06
0.000223239
0.00019128
1.26266e-05
1.69589e-05
0.000235135
1.39522e-05
0.000338217
0.00020866
1.76995e-05
1.45784e-08
3.11679e-05
0.000373401
0.0618487
1.937e-06
4.54509e-07
4.47464e-05
1.53256e-07
7.74171e-05
7.70281e-07
0.000355436
5.26545e-07
6.28252e-05
1.99255e-08
7.91721e-08
1.0319e-05
0.000837141
0.0011012
0.309401
3.68445e-05
1.7645e-06
1.6198e-07
0.000370627
2.01039e-05
0.0300162
0.0651369
2.79907e-09
0.000718825
4.89155e-05
5.27808e-06
9.78521e-09
0.0010471
5.28504e-07
0.0395467
4.89529e-08
3.12834e-09
2.66356e-05
8.34896e-07
1.06188e-06
3.70289e-05
0.0365796
1.70952e-05
1.80917e-07
6.28888e-05
0.198606
0.038367
4.90555e-06
0.000252072
2.38909e-05
0.000507252
2.32043e-06
0.0346166
3.16005e-05
0.000165149
1.90942e-07
7.7793e-07
3.77605e-06
5.11522e-07
2.13756e-05
2.25172e-06
7.53032e-07
2.29469e-06
3.84123e-06
8.26925e-05
2.50078e-08
3.28425e-07
0.0715941
1.09914e-08
5.37956e-08
3.85978e-05
5.74976e-08
0.000156117
3.25563e-05
0.0584738
1.93938e-05
0.23599
1.03766e-05
1.77373e-05
0.0369193
0.000139545
3.52591e-10
2.49125e-06
0.0258909
1.33152e-05
7.00141e-05
1.46873e-05
9.21023e-08
6.08208e-06
6.64524e-06
7.51619e-07
0.114794
9.87818e-07
8.35445e-08
1.45486e-06
5.92107e-07
7.25898e-09
7.7868e-05
2.23054e-06
0.247029
7.16718e-05
3.21739e-05
4.17827e-05
5.28194e-05
1.29256e-05
2.56776e-06
4.45691e-10
5.86991e-07
6.45e-05
1.94967e-05
5.8258e-06
6.19143e-08
9.79788e-06
1.35909e-06
3.31427e-05
2.42922e-08
1.3683e-07
9.64553e-07
2.58169e-05
1.92474e-05
2.79215e-05
2.89317e-08
1.77612e-08
0.0015074
1.9011e-08
7.68069e-10
3.107e-09
1.32391e-06
0.279457
6.50781e-07
9.54404e-05
6.32445e-05
1.81924e-05
1.66062e-07
1.00539e-06
0.000187424
6.41892e-06
2.60038e-07
3.34771e-05
2.92987e-09
1.23367e-09
3.50706e-09
8.31533e-05
1.01971e-07
0.296912
0.000480678
3.03725e-05
0.00168093
5.82269e-07
1.2556e-05
8.27002e-09
0.0548122
7.37911e-06
5.31922e-06
1.42983e-06
3.22058e-07
1.30354e-07
0.433438
1.49305e-05
0.000379216
5.89472e-05
9.70995e-07
0.110307
2.99219e-07
2.90619e-07
5.11146e-07
5.52194e-07
2.46265e-05
3.99615e-07
2.08792e-05
1.51541e-05
0.000437054
2.91206e-06
5.26251e-10
0.000173122
3.76804e-07
0.142094
2.86515e-06
1.9294e-07
1.22275e-06
1.7718e-05
0.0560847
0.0275135
1.55512e-05
4.20713e-05
0.0837329
2.91996e-06
2.3548e-05
0.042025
1.03202e-05
4.20687e-06
0.156318
0.0172407
1.09339e-05
2.94852e-05
1.34199e-08
3.45475e-05
0.00153263
8.00053e-06
1.07688e-05
0.000342488
2.96517e-09
0.0213918
1.0887e-08
2.67366e-05
0.176311
1.14198e-07
1.0461e-05
2.4587e-06
3.68137e-07
5.65576e-08
4.31209e-05
4.06831e-07
9.83904e-08
2.55468e-05
1.26143e-05
1.05741e-08
0.0215361
0.0406847
3.60481e-06
1.01465e-09
1.90075e-09
0.000132085
1.23577e-05
4.97661e-06
3.89024e-09
8.44026e-08
0.000120507
6.13605e-05
4.2287e-05
7.34741e-05
0.329521
6.03262e-10
0.127655
1.20463e-05
4.04608e-06
0.0498953
9.89627e-07
2.27111e-08
0.0210958
1.77024e-09
5.54907e-06
5.08529e-06
6.69805e-06
1.01298e-06
7.38446e-09
5.3683e-09
1.5712e-08
1.88357e-05
0.121634
0.193763
2.58526e-05
2.25272e-06
3.27631e-10
0.0515489
0.203994
0.000250211
8.45894e-07
1.17872e-07
0.000885677
0.000220623
2.07694e-07
1.22473e-08
1.77266e-06
6.76719e-06
2.66743e-08
1.02558e-05
5.82267e-05
0.0554556
0.185671
4.30853e-05
0.000758326
1.00694e-08
3.23059e-07
2.53862e-05
0.000159012
3.06337e-05
0.000401099
7.41942e-06
1.20332e-05
1.32896e-08
7.96535e-08
1.17844e-05
0.0538596
8.5607e-07
0.162403
1.99207e-08
1.08335e-05
2.0071e-06
1.53383e-05
1.2713e-08
4.16127e-09
1.0119e-07
3.5254e-08
1.07961e-06
0.000290967
7.25944e-09
0.0344799
1.42573e-05
0.144361
1.41157e-06
2.42071e-06
1.52986e-06
1.69696e-06
1.17937e-05
2.06778e-08
1.30886e-08
1.38649e-08
2.56838e-06
8.64026e-06
0.0516583
0.0500144
3.92545e-06
7.02941e-07
8.1208e-09
1.67475e-09
2.26611e-08
1.48381e-06
0.000223912
1.91933e-07
3.55562e-08
4.09487e-09
0.0202856
2.53965e-05
3.90422e-05
0.0373329
8.82122e-07
0.281831
8.41353e-06
4.13823e-07
9.41623e-10
2.3955e-07
0.0494314
5.29574e-10
1.86107e-05
1.48695e-08
0.000631461
4.08878e-05
7.47192e-05
0.000132272
2.56724e-05
8.61948e-09
1.17033e-08
0.325206
3.0853e-05
3.19029e-05
0.000206866
3.99773e-07
7.62225e-05
8.95105e-05
2.79564e-06
3.02933e-06
0.000269724
7.37147e-08
0.000603615
0.0361938
1.16819e-06
1.89072e-07
7.60888e-05
8.45496e-07
0.0315169
0.164145
1.94379e-05
1.9146e-09
0.00373647
3.12386e-07
1.93234e-05
1.35038e-06
0.000100199
9.29066e-09
0.000809817
7.62153e-05
0.000117947
1.76762e-05
0.000108453
2.52257e-05
5.0601e-06
1.47169e-09
0.000143104
3.80039e-05
5.0551e-05
5.87734e-07
8.80048e-06
0.00011181
0.000406295
8.70455e-09
5.46697e-08
3.71634e-08
1.30747e-09
1.221e-07
0.0199255
0.000366757
0.000130739
3.43208e-05
0.000185466
7.64589e-05
6.61795e-10
9.85163e-06
5.17179e-09
4.94438e-07
1.29815e-08
2.11705e-05
0.00184304
1.44579e-05
1.11472e-07
1.4342e-08
1.31347e-06
1.05409e-07
5.79117e-09
0.132666
8.38613e-06
0.000605918
0.000908566
0.000667881
5.12983e-09
0.000606969
0.000669683
0.00120766
0.000658169
2.6303e-09
1.216e-09
2.63724e-06
7.30461e-06
6.21359e-05
0.000296724
0.0376936
7.12325e-06
2.9264e-05
4.01829e-06
0.000500999
2.74975e-08
3.25982e-09
9.7906e-05
0.000330287
0.0241307
1.21895e-08
0.106898
0.000114932
3.00168e-07
8.23898e-05
4.20603e-06
7.4663e-05
2.08601e-06
8.19902e-05
2.60437e-09
7.22637e-06
0.00199367
3.1467e-05
6.13082e-08
0.00161396
3.82291e-05
9.69053e-06
0.0029607
6.93087e-08
6.52335e-06
5.11133e-05
7.55697e-05
8.71136e-07
0.175829
5.09551e-08
7.78006e-07
2.36494e-08
0.106975
0.109859
1.92112e-06
1.72079e-06
0.000140327
0.0509154
2.70115e-08
8.83213e-06
1.83188e-05
1.14479e-05
1.17545e-06
0.178406
6.70493e-06
1.47238e-05
0.00324643
1.45499e-07
6.17432e-06
1.44176e-06
2.17957e-06
1.95087e-09
0.00223305
0.00365777
1.11286e-07
6.18338e-07
1.21217e-06
9.16947e-05
1.0945e-08
0.0367876
2.46835e-07
9.33974e-06
1.03917e-06
4.8373e-07
3.73667e-06
3.04238e-05
1.11268e-06
4.81953e-06
0.000223119
1.32145e-06
1.22259e-06
0.0397695
7.07176e-07
3.23297e-06
2.3884e-06
1.66222e-05
2.28085e-10
1.33871e-09
1.94582e-09
4.94245e-06
5.69126e-08
0.0600517
2.0149e-05
9.62919e-06
4.84785e-09
2.42168e-05
0.106315
6.86641e-05
1.14353e-05
4.89478e-05
1.11914e-05
1.93614e-07
7.98969e-08
2.17636e-05
3.17664e-06
2.55464e-06
0.000494081
7.69614e-06
4.49814e-08
2.02429e-08
1.91264e-06
6.19869e-08
5.97972e-06
3.34692e-08
9.55604e-06
1.45683e-05
1.86616e-07
2.42389e-09
0.04227
3.78374e-09
1.69301e-09
2.10836e-05
0.0522016
1.5751e-05
2.01214e-06
1.46604e-08
7.99221e-06
4.81522e-06
1.91354e-05
5.59464e-06
1.16268e-08
1.43464e-06
1.18231e-06
4.77974e-06
1.04329e-08
8.68611e-09
5.41807e-09
4.00257e-06
1.52855e-05
8.82021e-07
1.47736e-08
6.77888e-06
4.09673e-05
2.25438e-08
2.12928e-05
3.35059e-07
4.72445e-08
1.45183e-08
3.10612e-05
2.45431e-07
1.85053e-05
1.47386e-09
2.29853e-05
6.77979e-09
1.38794e-06
0.000315881
1.27406e-07
6.03244e-09
0.0632041
3.63476e-08
0.0520317
2.22127e-07
3.34257e-08
9.13022e-06
2.05001e-05
0.0416495
4.59168e-05
0.0461551
0.0561086
8.32667e-05
9.17045e-06
0.0373317
9.94172e-06
1.51335e-08
3.23484e-05
0.125736
0.0342328
0.0390152
7.49806e-09
8.30919e-06
1.66351e-08
4.86897e-06
9.15944e-07
7.04898e-06
0.000154541
6.37552e-06
4.70878e-07
1.05624e-08
3.51943e-06
0.000267849
2.18657e-08
9.13576e-06
3.1471e-05
1.83032e-06
4.22976e-10
5.41363e-05
2.31001e-05
2.11088e-05
1.31963e-05
1.32033e-05
1.95467e-06
6.4111e-06
0.000135286
8.04913e-06
6.39231e-06
0.000113744
0.000418057
5.25735e-09
5.77589e-07
2.56566e-08
1.51525e-05
7.44023e-08
2.16762e-06
2.47284e-10
0.000356264
0.355129
0.0795383
0.000126103
3.72731e-09
1.07963e-05
0.0490917
0.0931576
5.66722e-07
0.000246756
2.17467e-06
4.88527e-07
1.84733e-07
2.18423e-09
8.11411e-06
3.6151e-05
4.48338e-08
5.52751e-09
1.30854e-05
1.56681e-07
0.159567
0.0498824
1.06748e-05
7.37469e-09
9.23419e-09
0.0389121
4.17469e-09
1.98603e-05
1.41225e-08
0.000561275
1.00321e-08
4.47112e-06
4.10499e-08
7.56972e-09
0.000983291
0.13904
0.0597765
1.39021e-08
0.0638099
4.16831e-08
1.06944e-05
1.43098e-06
0.105634
2.33714e-07
0.000135567
4.52556e-09
1.70939e-06
0.000253288
1.81155e-06
0.000140459
7.01152e-09
8.31382e-06
2.80819e-05
1.71007e-05
4.46144e-06
3.29232e-07
3.00699e-07
3.05375e-06
5.86704e-07
5.46448e-09
2.55941e-09
0.0668499
0.0343866
2.4412e-08
0.0749473
1.14095e-09
2.06637e-08
4.21435e-05
6.05399e-09
2.52375e-09
0.0353772
3.02913e-08
7.388e-10
0.00056864
2.48479e-09
7.1897e-10
4.33008e-05
0.0833412
1.42286e-07
0.0343383
1.01985e-08
3.97072e-06
0.0446814
5.74473e-06
0.000795115
3.48207e-10
6.21069e-08
9.63778e-07
1.36079e-07
0.189685
0.0404892
9.89384e-05
2.68138e-08
0.0428144
6.22024e-10
1.28117e-08
5.15623e-09
0.0926626
0.00160797
7.31837e-06
1.41968e-09
1.19072e-06
0.044534
0.000819122
3.75129e-07
0.000244174
0.0977704
0.0765139
3.28571e-05
0.0762099
0.000849995
0.0394838
3.83332e-05
0.0591587
0.000313358
4.38176e-06
1.39916e-06
1.97772e-06
0.000418313
0.000837023
5.4316e-10
2.77274e-06
7.55834e-08
3.79723e-05
6.65527e-06
9.80196e-07
7.35131e-06
0.000270423
1.65102e-07
7.44563e-06
7.37302e-08
2.18209e-08
3.38236e-08
4.38642e-08
4.64781e-06
3.47025e-08
5.11406e-08
6.38352e-08
9.84084e-06
3.9401e-05
5.47304e-10
1.97479e-09
7.22443e-08
1.16688e-07
1.20513e-06
0.00115032
0.00190826
0.000116812
1.02257e-08
2.80048e-05
5.00542e-06
0.0428785
2.93485e-05
1.18235e-05
4.96652e-07
9.78315e-07
2.23809e-06
0.000203558
0.000107176
0.162034
0.0621353
7.42537e-08
0.000750795
0.000269548
4.55886e-09
2.26384e-06
4.32623e-06
3.61588e-08
1.55505e-06
3.60457e-06
0.0575064
1.92266e-10
7.39881e-05
2.19161e-08
0.0432862
4.75891e-05
0.0328428
2.87878e-05
3.59172e-09
1.0188e-08
2.90145e-08
2.29348e-05
2.19605e-05
4.28661e-06
7.91658e-06
8.44772e-07
0.000681141
0.000258219
8.57509e-10
0.000106463
4.31459e-05
4.51496e-05
8.67238e-05
0.00269234
3.79816e-06
0.0898138
6.03632e-08
5.1726e-06
0.0354782
1.04361e-08
0.000233982
0.00661836
3.94311e-08
9.11407e-05
2.1161e-08
1.84229e-07
2.49243e-06
3.27853e-06
4.95018e-08
4.24899e-09
6.24266e-07
3.67813e-09
3.5658e-09
0.00011449
2.004e-08
1.07137e-09
2.55994e-05
6.63184e-09
9.0415e-08
2.3893e-07
0.000192587
1.93949e-07
0.000152132
1.07126e-07
4.46225e-08
2.05707e-05
6.01864e-05
0.00020504
0.0383397
7.34128e-05
3.62919e-05
2.12063e-06
0.288714
0.280712
1.07737e-07
2.45787e-05
1.31872e-08
0.0407627
0.0351766
0.000365643
0.0802478
0.0633589
6.58133e-06
1.49435e-09
0.000100159
1.6788e-08
3.65173e-09
3.80526e-07
1.41995e-05
6.22172e-09
1.57821e-05