/*--------------------------------*- C++ -*----------------------------------*\
  =========                 |
  \\      /  F ield         | OpenFOAM: The Open Source CFD Toolbox
   \\    /   O peration     | Website:  https://openfoam.org
    \\  /    A nd           | Version:  10
     \\/     M anipulation  |
\*---------------------------------------------------------------------------*/
FoamFile
{
    format      ascii;
    class       volScalarField;
    location    "9";
    object      SgRate;
}
// * * * * * * * * * * * * * * * * * * * * * * * * * * * * * * * * * * * * * //

dimensions      [1 -1 -3 -1 0 0 0];

internalField   nonuniform List<scalar> 
111485
(
1.19285e-09
0.00845531
0.0228806
5.32001e-10
0.047927
2.72962e-08
0.044495
0.00613507
0.0184752
0.00114525
0.0446377
0.00935382
0.00451112
0.267192
0.00626561
0.0313698
0.190568
2.54553
0.0102307
4.19947e-08
0.034415
6.35121e-10
0.0256001
0.0353269
0.00839602
2.47709e-08
0.0401369
0.00175357
0.0164942
0.0445391
0.0433061
0.0189821
1.98192e-07
1.27611e-06
0.0083498
8.14637e-05
0.134068
0.189601
0.00223472
0.023081
0.0386495
0.0711534
0.0156506
0.00148029
7.03007e-05
1.45519e-06
0.0307593
0.000719836
0.0477852
3.86728e-07
1.11038e-06
1.56987e-05
4.67945e-07
0.0481348
1.35422e-06
0.0429747
0.00333408
2.98742e-08
6.28646e-05
0.00476692
0.0160171
2.41361e-07
0.00446107
0.0929899
5.93098e-06
0.00345535
0.311415
0.0949522
0.00106621
0.00581775
5.78248e-05
0.00619477
1.02529e-05
0.00274527
3.29507e-08
0.000695283
1.06728e-08
0.0411773
2.6054e-08
2.856e-05
0.254253
0.509327
3.36581e-08
4.72206e-09
0.00877438
0.00416522
0.12921
0.0240669
0.000278059
0.00716292
0.000406444
0.0404945
0.0111726
5.87646e-05
0.0536449
7.24853e-09
0.0250258
0.0016781
0.00139725
0.00177688
1.95567e-09
0.0188712
1.75002e-06
0.0192285
0.00471145
1.47541e-05
1.02062e-08
0.00768616
0.0038082
0.000641272
0.00589636
0.00475182
0.00352056
0.00306536
8.72014e-08
3.31049e-05
2.24846e-08
5.83941e-06
0.0120926
4.44564e-09
8.29033e-08
0.000173847
0.0668333
1.97896e-06
0.00169636
0.0260991
9.74892e-05
0.00163622
5.39391e-10
0.000336699
0.00138552
0.0309519
0.0436491
0.000160293
7.20077e-05
0.048992
2.50554e-09
0.0423657
0.0244399
0.00255202
0.000283054
0.00199206
0.185071
0.0029745
0.00378685
0.0127467
1.09459e-08
1.20081e-09
4.17429e-08
0.0274486
0.00174944
0.0264044
0.104511
0.00503241
3.47881e-05
0.0104071
0.016541
0.0102659
0.000732137
5.02474e-06
3.21317e-10
0.0523319
0.023768
6.92068e-05
5.91071e-05
0.00544202
0.00368875
0.0240434
0.00138876
0.000167517
1.34607e-09
1.24055e-08
0.182587
9.60345e-10
0.00597228
0.00218216
5.09798e-07
9.47501e-06
2.99363e-08
5.27757e-06
8.91434e-06
3.12866e-08
0.00143209
0.00681186
0.0289728
0.00429126
0.00722776
0.00376418
0.000417353
1.55286e-07
0.00446176
5.50176e-06
6.5922e-06
0.00616277
0.0106499
0.026195
0.0107969
0.00473207
8.00493e-07
0.00642251
0.000590131
0.0015355
0.0131637
0.00229403
1.63925e-06
0.003587
0.0260241
1.08289e-05
0.000208929
0.00751706
0.00222887
0.000355337
7.52598e-06
8.6191e-09
0.00770483
0.000282442
0.11978
9.08731e-09
0.00630284
0.0197304
0.120011
8.15553e-08
0.00299838
0.0133194
0.000253843
1.17892e-08
8.9766e-10
0.157721
0.00371545
2.15626e-05
8.41144e-05
0.00929902
0.00795433
0.146418
3.49555e-05
1.84078e-05
0.145885
4.72274e-08
0.00255253
0.00888925
0.0156045
0.0110119
0.00949778
3.58066e-06
0.00167182
0.000599127
6.94674e-06
2.30418e-08
0.0310905
0.143998
1.67035e-05
0.00601952
0.0103259
5.33687e-10
0.000175374
0.000121184
2.46597e-07
6.12954e-05
0.0912898
1.93295e-08
0.0152008
0.0111903
0.00375813
4.54327e-09
0.0115508
1.17888e-10
4.97325e-08
4.59944e-07
0.152169
0.0224818
0.00582746
0.00511673
0.197317
0.0116528
0.00163569
0.000815762
0.0335363
0.00910171
4.67039e-07
6.12217e-09
0.103746
0.0225627
0.0239515
0.0124041
1.66957e-09
0.203287
0.242103
0.00288401
0.000275556
3.08813e-05
0.0133237
0.00209906
0.00184299
3.65253e-08
0.000746263
3.67822e-09
0.000328455
0.000244257
0.251974
0.069212
0.325354
1.6158e-08
0.0763582
0.00882234
0.0018128
4.63147e-09
1.05276e-07
0.0227873
0.000316596
0.0591938
0.00377705
0.0147074
0.0193227
2.75385e-05
2.80331e-08
2.4546e-08
0.00371038
0.00399764
0.227672
0.188267
0.000680467
9.27787e-10
9.39688e-09
1.36006e-08
7.73241e-05
0.0592152
0.0121608
1.9137e-06
0.00510478
6.55619e-05
0.0562355
0.0660154
0.00573126
0.0113306
0.00896774
0.0427489
4.55782e-05
6.81268e-07
0.0091804
0.0190643
0.00455659
3.7169e-08
0.13601
0.000334427
0.0020219
0.00788223
0.000315807
0.0286401
0.0347341
0.0377703
0.00340353
0.00771196
0.024421
0.0137586
8.17053e-06
1.38213e-07
5.10963e-07
6.36279e-07
0.0320559
0.336403
0.0350226
0.0675899
0.0470219
0.0192924
1.9647e-08
3.87094e-07
0.0160281
0.0435297
0.0632794
0.0424523
0.0440821
0.0231241
2.67693e-08
0.0140089
0.00033898
1.48933e-09
0.00106526
0.0160198
1.424e-05
0.00839667
0.0100943
0.00784258
0.00122631
0.00284336
0.00603546
3.86234e-05
6.09014e-07
0.00232829
3.56804e-07
0.00582149
0.113937
0.0269484
1.02163e-07
0.0271815
0.139859
0.00792623
0.297801
6.66546e-08
0.0444249
0.0190335
5.75918e-09
0.000779133
0.0026361
4.24577e-09
0.0296384
0.0113614
0.00508704
4.18887e-07
2.10417e-08
0.000684933
4.78989e-09
0.0117068
2.92525e-06
4.77509e-10
0.0170324
3.66474e-05
0.235738
0.028146
2.16332e-09
7.28935e-05
0.00139765
8.85011e-05
0.000179662
0.0135987
0.121196
0.871684
4.62136e-05
0.187054
0.000586404
3.72155e-08
0.0372116
0.0319967
1.78639e-07
0.00128507
0.000279742
7.64962e-05
0.0245262
0.0253267
0.014476
3.21785e-08
0.316842
0.0176511
0.0231813
0.00402779
8.27626e-05
0.00116813
3.59111e-08
0.229843
0.330884
2.17096e-08
0.00889339
0.000323096
9.39867e-05
2.8111e-09
2.72739e-05
4.52631e-09
0.261867
0.00982215
0.00650932
0.00239212
0.00298625
1.49434e-07
0.00218577
4.76977e-07
0.0384709
1.52435e-07
5.62358e-07
0.0484725
0.0351734
3.37573e-08
9.59434e-10
0.000350199
7.72539e-08
1.3615e-06
0.00100717
2.15263e-08
5.63053e-05
6.11839e-08
0.0685967
6.50762e-08
1.54053e-06
1.62702e-08
0.00769404
3.87157e-07
0.203734
0.00185393
0.21509
5.77848e-09
0.000842791
2.21738e-06
3.86229e-09
0.336539
0.131141
0.0277596
0.0236486
2.83134e-05
0.00198219
0.0781749
0.00853361
0.00110704
0.264521
1.8749e-08
0.0236168
9.86152e-05
0.0046608
0.0524416
0.0734219
0.000105471
0.0213038
0.00023387
0.000690281
0.0727587
0.00203093
1.94756e-08
0.0798139
0.0471462
3.25708e-06
1.01289e-06
1.79202e-05
2.47262e-09
0.0015791
0.055181
2.9817e-07
1.92783e-07
0.00281629
1.89301e-09
0.0325038
3.08886e-08
0.000346265
3.06316e-10
0.105769
0.104967
0.00111263
0.012727
0.0579447
0.0748921
3.72435e-08
2.51933e-07
0.0152588
4.94934e-08
0.000167565
1.59258e-05
0.00154616
0.0394527
0.0644638
3.06782e-09
4.27309e-05
0.0155531
0.0034495
0.00162207
0.00398162
0.00639522
0.0211315
8.71857e-07
0.0233976
0.00641611
9.33155e-10
0.115213
0.03758
0.0142145
1.14759e-06
0.00559021
0.00634683
0.00199564
0.00386383
0.000349488
0.0138182
0.00116081
0.000162965
0.0247261
0.117704
0.000916861
6.76205e-05
0.0032999
0.706947
3.08907e-08
0.000455436
3.97749e-06
3.71007e-05
0.00729911
0.00351359
0.00254912
0.000407066
0.000151734
0.0169938
0.0108977
6.4182e-08
0.000181086
0.00143851
3.10319e-08
6.54192e-09
3.28281e-08
4.3347e-08
0.014136
6.00816e-09
0.0321455
0.0091427
0.00210389
0.0907689
0.298789
5.53466e-05
0.00858761
0.0343918
5.07113e-08
0.0545304
1.56252e-07
1.42041e-08
4.35787e-05
0.00451509
0.108831
0.0304007
0.0062808
2.48719e-06
0.0816878
0.132495
0.027521
0.0266466
0.000712203
0.180272
0.0368992
0.0547895
0.0442103
5.38563e-06
0.000305873
0.0405007
0.00737611
0.0015394
0.0272386
0.025677
1.00507e-06
0.0105221
0.000598605
2.94826e-05
0.0336717
0.000267285
0.000601072
0.0110793
0.0394633
0.00142199
0.0204769
0.0185222
0.00726544
3.00676e-06
0.00994003
0.000355792
0.000177045
0.0160749
0.0166305
0.0355243
4.47495e-07
0.00197871
4.15818e-06
5.25823e-09
0.0690563
2.78726e-08
0.125813
5.33613e-05
0.0108037
7.97664e-08
0.0261854
7.30757e-05
0.0417267
5.47518e-10
0.0337564
2.82022e-07
1.53761e-08
8.125e-07
0.294602
0.00055752
2.6911e-05
0.0380961
9.66251e-08
2.25199e-09
0.220418
0.0690257
7.64846e-05
0.0018922
0.000117916
5.41718e-08
0.0363603
0.00781422
0.163742
4.03107e-09
7.82646e-09
0.000392874
0.00105702
0.000121583
3.23047e-07
0.056042
0.00708486
2.79146e-08
2.11791e-07
0.0404863
0.0406796
0.00203854
8.03239e-10
4.0332
0.269183
0.174544
2.21258e-08
1.74677e-08
0.0567459
0.000397409
3.63549e-05
0.000538632
0.132482
0.00287068
0.0117323
0.0564736
0.0549028
0.00177616
5.27614e-08
1.14288e-06
1.2562e-08
5.59751e-09
6.29847e-08
1.48905e-09
0.0211928
5.53728e-08
1.2151e-08
3.88658e-07
0.01153
0.0241811
9.66592e-08
5.49781e-07
0.105587
0.0138689
0.00949886
2.37457e-08
6.59616e-09
0.0360046
5.43682e-10
0.00192422
0.00253602
0.00379304
7.86318e-08
8.48669e-10
1.1955e-09
1.39372e-09
0.0152235
2.60278e-08
5.97622e-08
0.000959606
6.93662e-09
0.0223287
0.00178945
2.09904e-06
0.0366877
0.446476
0.00244166
0.257415
0.000262899
0.0453006
0.1905
7.51549e-05
0.0228104
0.0709288
0.00614962
1.85322e-05
0.0814927
0.692684
0.00992921
3.8719e-08
0.00280873
0.00279003
0.00135985
8.40647e-05
2.71081e-09
4.8637e-10
0.0131534
3.54511e-05
0.00260624
3.51171e-06
0.00141266
0.00134213
0.0354062
0.000594642
1.78806e-08
0.0298148
9.55324e-06
0.0202925
1.45959e-08
4.58288e-05
0.000175571
1.57683e-06
2.92939e-07
0.0376579
7.83988e-10
0.00929606
0.0568474
1.55659e-08
0.0658194
3.92898e-05
0.0330355
0.000551778
8.01864e-08
2.53524e-05
0.00160614
0.0424259
0.0037969
0.00120265
0.146437
0.000190806
0.00421041
8.65148e-07
1.03327e-05
0.450132
0.147102
3.44103e-08
0.218064
0.00079325
0.000148657
0.0094267
0.000235836
0.00106845
0.0240667
0.00909331
0.0022366
0.0052453
0.00197755
0.0406645
6.34492e-08
0.0312027
0.0254479
8.29169e-08
0.00808234
0.251394
0.0282088
2.83585e-07
0.00195297
1.48766e-08
0.0101713
0.205607
2.08104e-08
0.16275
0.309911
0.001183
0.00467616
9.70382e-07
0.0478343
6.9546e-05
0.00180648
0.00109227
0.00028307
3.84613e-06
0.0404289
0.00766144
1.34832e-09
0.000377505
0.000537181
0.000779664
0.000428977
0.000792088
0.000159115
1.70704e-09
6.26571e-05
0.022238
3.63647e-07
0.00168895
0.318085
1.64272e-07
2.75304e-08
0.00296541
0.00304066
8.58091e-10
0.000555558
9.28055e-08
1.32457e-08
1.50797e-08
4.18145e-07
4.34554e-06
1.63835e-07
0.000377248
0.0462192
3.71031e-09
4.77449e-07
0.00411964
0.10519
0.00183827
0.00904523
0.0290273
2.86e-09
0.000297458
3.21708e-09
2.08289e-09
0.00052484
0.136517
0.041876
8.89127e-09
7.36799e-08
0.0318386
1.43379e-08
0.0206281
4.12303e-08
0.00739421
3.92829e-09
0.00180441
0.0265437
3.4606e-09
6.85286e-07
5.45581e-07
0.00130731
5.71187e-07
2.19003e-08
1.8625e-06
0.00409132
0.0482338
0.00463772
0.000532983
0.000988065
6.29527e-08
0.00126197
0.00227564
0.04436
3.05082e-06
0.000207989
0.00578669
1.39637e-07
8.25893e-06
0.000135333
7.70965e-08
0.00792547
0.00175416
0.00349228
0.0662006
1.15321e-09
0.0240506
0.0543026
0.000111344
6.98394e-05
9.60459e-09
0.0258292
2.65063e-08
9.87503e-07
2.52078e-05
0.0506073
5.034e-07
0.00254712
2.48768e-05
0.00100085
1.50382e-05
1.86923e-08
3.45427e-06
1.38384e-09
0.00261231
0.000698974
0.332887
3.08291e-08
5.47515e-07
0.00231951
1.07019e-09
4.4061e-05
4.24948e-07
0.0383679
0.000762616
0.0301509
3.90071e-08
0.00128648
0.000149477
5.7574e-05
0.000248456
3.77052e-08
0.00155208
0.0256855
0.126014
0.00133267
0.000338753
5.33725e-08
7.42677e-10
1.8429e-08
0.169418
0.0666803
0.00672275
1.99333e-09
0.175822
3.06629e-08
0.198792
0.00326954
6.4407e-07
6.1516e-08
2.8748e-06
5.7444e-07
0.0375788
1.93273e-06
0.000110924
0.295619
0.00627348
6.643e-05
3.13068e-05
6.45164e-05
4.7089e-05
1.57437e-08
2.48787e-09
0.0236359
0.000464891
1.16148e-08
1.78057e-07
0.000573964
3.95758e-07
0.00146788
0.388322
1.87625e-06
0.00320362
7.64836e-10
0.000355368
2.04543e-07
0.30193
3.19216e-09
0.108574
0.00509601
0.000821809
0.0168023
0.0317189
0.000862211
2.38191e-06
0.000494789
1.98374e-06
0.00450326
4.34327e-08
1.71625e-06
7.73131e-05
2.13758e-06
0.063012
2.50566e-07
0.00664575
0.00758924
2.45918e-09
0.000348155
8.63494e-08
0.000730889
0.000746922
6.65094e-08
0.0182565
0.000249459
5.22002e-07
0.0230639
0.173127
0.00351075
0.0121865
4.27982e-09
0.0415729
8.10151e-06
1.84336e-07
0.0367598
4.50479e-06
0.109433
2.86104e-09
0.138457
0.000729753
2.33182e-09
0.000957208
3.94498e-07
2.92468e-09
0.00276405
0.00089004
0.0084824
1.07064e-08
1.00676e-06
4.4747e-08
0.000805667
4.62069e-05
0.0317716
6.0226e-06
0.000833265
6.21491e-05
0.0010369
2.84921e-05
3.15352e-06
9.00794e-07
0.0183533
0.00960532
0.0179981
0.0351227
0.0407669
0.000243982
0.0427936
6.68149e-10
0.0100466
1.13109e-07
6.11623e-05
0.000397053
0.00658245
0.000368583
0.000527461
0.00221317
1.78771e-09
0.00658947
0.00753974
0.000188988
0.000940815
0.0147031
0.000777422
1.61189e-06
0.0307197
1.26211e-07
5.18236e-09
0.00024327
0.0735777
0.000898397
5.92418e-07
0.0423268
0.000581909
6.49925e-07
9.58378e-08
0.00053499
2.56813e-06
0.0515992
0.293573
0.000310987
0.000364496
0.022461
0.00726554
9.12186e-08
8.78055e-09
7.18455e-05
0.00419582
0.0311636
0.0510903
0.01036
1.68925e-08
0.000291359
0.0373581
2.53716e-05
0.00105279
2.57451
0.0393692
0.112063
0.0457955
0.0192456
2.9486e-09
0.00185316
6.3145e-07
1.22349e-07
1.72075e-07
1.31187e-08
0.00317732
1.88976e-09
3.74539e-09
8.29293e-05
4.72432e-08
6.52346e-09
8.77229e-07
0.00973595
0.0535002
0.0107814
0.00283677
0.0690667
0.240523
5.78125e-09
0.17139
0.000151467
0.356886
0.0137917
8.67264e-08
9.24651e-05
0.00815866
0.238507
2.80279e-09
0.00106213
0.0187815
0.0045484
1.50613e-05
0.0260265
1.00588e-06
2.20139e-07
0.0703003
1.26608e-08
0.00804526
1.0558e-07
5.58183e-07
0.00826917
0.000418571
0.0026655
1.05878e-06
0.000356594
0.000628023
3.86312e-07
0.000212547
6.78337e-07
0.022705
1.32888e-07
1.10585e-07
0.232626
0.0397121
0.000491921
2.78612e-07
4.64174e-09
0.00518126
0.177221
0.00485252
0.0159876
0.217532
0.0199633
1.18464e-09
0.0323078
0.0028038
0.00675165
0.0364504
0.0115916
7.23377e-09
0.175465
2.82348e-09
0.037549
0.00862203
0.0105055
1.74568e-08
0.0129674
1.16909e-06
0.00277604
0.008812
4.61659e-06
4.04117e-10
4.48213e-09
0.00272494
0.072967
2.7885e-09
0.0039583
0.020994
8.64109e-05
0.00757877
0.0437878
2.11512e-06
0.000125242
0.000802938
6.50015e-08
0.00969533
1.79113e-06
0.00241779
2.83574e-08
1.47799e-08
0.0116643
5.50193e-09
0.000191396
0.00338339
3.32388e-08
7.3757e-08
0.00416505
0.000501975
0.330237
1.03799e-07
0.262338
1.70407e-06
0.000334823
0.000154052
0.00702488
7.65773e-05
0.0720116
0.00533291
5.00275e-05
0.00098671
0.0608698
8.69809e-07
2.93767e-08
0.00037675
0.000764084
0.0377014
2.0522e-07
0.0358195
0.000924641
3.0602e-08
0.211095
1.05964e-08
1.49569e-07
2.21026e-06
0.00315246
0.286525
0.0520545
4.37205e-07
1.95771e-08
1.4976e-09
1.13578e-07
1.03049e-07
5.62412e-07
9.88688e-08
3.9444e-09
6.01068e-08
7.82128e-09
1.72221e-07
0.0570526
0.0338512
3.27294e-09
1.25709e-05
7.16354e-09
5.35932e-08
7.3879e-09
0.0331762
0.0762548
0.0179849
2.89768e-08
8.97235e-09
7.35209e-07
0.00635456
3.66184e-06
1.24398e-07
0.252409
2.72335e-07
2.99181e-06
0.0224854
0.000174746
4.85193e-06
0.00708238
0.0238338
2.46575e-08
0.00253408
0.00375658
1.72821e-08
0.0125089
0.0386408
0.0170706
0.00314515
0.0103067
3.49637e-06
1.14e-07
0.302841
0.0109894
0.00298878
0.0571068
0.00634569
0.00165114
0.0201387
0.0105058
0.000638247
0.01459
0.00108242
0.00954245
3.1941e-06
0.0257144
0.00811808
0.00175657
0.00127679
5.70516e-09
5.65661e-08
3.23904e-08
7.51618e-10
1.69336e-07
0.00961659
0.013078
2.21059e-08
2.54732e-09
1.49561e-07
1.57011e-05
1.60461e-08
1.06628e-08
7.41067e-07
1.00784e-06
0.00454635
0.000227472
0.0208069
0.225982
1.18489e-07
1.06517e-05
0.0314127
8.60723e-06
3.93729e-09
1.84219e-08
0.210901
4.97449e-07
2.94249e-09
5.42543e-06
0.211939
0.0133299
0.0313707
0.0313443
1.01162e-06
0.0141592
0.000322835
0.000348507
1.70509e-08
0.0111119
4.59659e-06
1.62763e-07
0.0199348
1.02066
0.180597
6.26552e-06
1.28771e-06
0.0148738
0.0211512
0.0174005
0.00534344
0.00551639
1.47641e-08
0.000572324
0.000378962
0.0565225
8.42963e-06
0.250835
2.66052e-08
0.0019771
0.0252121
0.0164649
0.0111532
3.02785e-06
0.00550985
3.14373e-08
8.65758e-06
2.15954e-09
1.07126e-08
0.00251655
0.817242
8.63364e-08
3.57964e-09
0.000393852
0.0233867
0.00133845
0.0065658
0.0322223
0.00450786
0.0189037
1.86452e-05
3.78509e-06
0.000188837
0.0299722
0.00534535
0.00305206
1.08567e-06
8.99729e-09
0.000142549
0.0208339
0.00251074
4.23874e-09
0.134986
0.0524684
0.00667443
0.00582081
4.12149e-09
0.000177982
0.00651199
0.022476
1.4077e-09
0.00035974
0.013664
0.000961309
0.186459
0.00441864
0.00753555
0.000224415
0.00335519
0.0199056
0.0357811
7.61043e-05
0.0221456
0.000108184
0.182214
0.000143204
4.31664e-10
0.00242153
0.0068384
0.000372167
0.0109552
0.000441205
0.000931684
0.000435281
0.0334984
0.00336234
4.77585e-05
0.037781
0.00114033
8.68245e-08
1.57407e-08
0.0929609
0.000480245
0.000988242
1.0547
0.0334063
0.00981583
0.000392511
0.0408812
2.08222e-06
2.93485e-06
0.0039809
3.79411e-05
0.0019796
0.0046879
0.0019703
0.0045366
7.30697e-09
0.000221579
0.103982
1.44411e-08
0.0253355
0.00698717
7.51209e-06
0.00356556
0.000198685
4.93303e-08
0.000532945
0.126164
4.85153e-08
5.42388e-09
1.8037e-08
0.135272
0.228442
0.0135302
0.0493366
0.00477521
0.0307229
7.41707e-06
0.00734744
0.0114061
0.0236259
0.00140173
0.104999
0.310358
0.365128
0.00958762
0.0082211
0.0364779
0.153244
0.331543
1.26717e-08
0.160946
0.0496164
6.36053e-09
0.000382542
4.94326e-07
3.44213e-08
3.49024e-08
2.13217e-07
6.42817e-09
0.127329
5.19218e-08
0.00637934
0.00141887
1.64665e-08
0.00402419
6.73201e-06
0.0136676
7.10749e-08
0.000549689
5.79831e-06
0.0204737
0.000191626
5.66847e-06
0.00373367
0.0276666
0.016266
0.00373786
0.0249458
0.00307035
0.0208046
0.0518316
0.00874981
7.7843e-07
0.00113818
0.000362766
0.00512751
0.0108462
0.000630773
1.14125e-06
5.29619e-05
8.821e-08
0.0036116
0.0381358
0.000503093
0.301226
0.00179462
0.000326482
2.26485e-08
0.0569324
9.0407e-10
0.00786468
0.0197442
0.00126778
8.48226e-05
0.00180335
0.00638178
0.00177142
0.000861431
0.00686541
0.0055748
0.00243428
2.04028e-05
0.0701209
3.26334e-07
0.0131232
0.0104414
6.75451e-07
8.83998e-09
0.000235932
0.007732
0.018202
1.04606e-08
0.00202457
0.0410725
0.000188731
0.00479599
0.0813152
2.17823e-09
3.11982e-10
0.00369582
2.18185e-09
0.000109105
0.01136
1.99706e-05
0.0101113
0.0314465
0.0175405
4.1599e-08
0.00121992
8.26822e-05
0.00011988
0.0459738
2.87468e-08
9.16174e-07
0.010503
0.000490984
9.50956e-07
0.148391
0.00101551
1.55038e-08
3.81985e-08
0.000210462
7.40511e-05
0.0022781
0.00325644
0.0224219
0.220449
3.93517e-10
0.000299377
0.000633412
0.0393413
1.57085e-06
0.0439316
0.0768519
0.000106903
7.76914e-06
1.81008e-05
1.11307e-08
1.43096e-05
2.46015e-05
0.000338563
1.70073e-05
0.000344446
2.43528e-05
0.000554294
0.000311803
0.000499781
0.000116972
1.29219e-08
0.02493
0.00954449
5.92389e-06
0.0838247
0.000223244
0.000191281
1.26266e-05
0.00106757
0.000235135
0.00243827
0.000343044
0.00112209
1.76995e-05
1.45785e-08
0.00103947
0.000373433
0.0618487
1.937e-06
0.0369818
4.47464e-05
0.035446
7.74171e-05
7.70281e-07
0.000356826
0.0263968
0.00795383
1.99256e-08
0.000290961
1.0319e-05
0.00300672
0.0011171
0.311142
4.00954e-05
1.7645e-06
0.0192433
0.00139646
0.00471547
0.0300162
0.0651369
2.79907e-09
0.0125923
0.00372263
0.0479291
9.78523e-09
0.00104746
5.28504e-07
0.0395467
4.8953e-08
3.12834e-09
0.00287055
0.00179199
0.0026629
0.291612
0.0365796
0.0264652
0.0337951
0.0165828
0.200005
0.038367
0.00529972
0.0041495
0.00457949
0.000507704
0.00961756
0.0346166
0.00160364
0.00123736
0.0309661
1.69011e-06
0.0029375
5.11522e-07
0.0164994
2.25172e-06
7.53032e-07
0.00155523
3.84123e-06
0.00631492
2.50078e-08
3.28425e-07
0.0715941
1.09914e-08
5.37957e-08
0.000736061
5.74976e-08
0.000732416
3.25563e-05
0.0584738
0.0176029
0.241176
0.00720121
0.00749289
0.0369193
0.535793
3.526e-10
0.0658755
0.0258909
0.0172394
0.0209309
0.00208255
0.0532597
6.08208e-06
6.64524e-06
7.51619e-07
0.116871
9.87818e-07
8.35445e-08
0.0168231
5.92107e-07
7.25902e-09
0.00480405
2.23054e-06
0.258865
7.17457e-05
3.21739e-05
4.17827e-05
5.28194e-05
0.0014335
0.00611471
4.45696e-10
0.0217429
0.000364101
1.94967e-05
0.0934724
6.19143e-08
0.0150655
0.0170809
0.00325405
2.42922e-08
0.0169258
0.00913599
0.000779844
0.00469496
0.0112276
2.89317e-08
1.77612e-08
0.00150902
1.9011e-08
7.68069e-10
3.107e-09
0.0186424
0.325153
0.00418426
0.00197036
6.32445e-05
0.0449951
0.0429958
0.00397824
0.00250662
0.00838745
0.0195633
0.00240911
2.92988e-09
1.23368e-09
3.50706e-09
0.00627521
1.01971e-07
0.321503
0.000480678
0.000741102
0.00168136
0.00246073
0.0206667
8.27004e-09
0.0548122
0.00228179
0.000346242
1.42983e-06
3.22058e-07
1.30354e-07
0.433473
0.000271961
0.000504662
0.000773461
0.00915036
0.194212
2.99219e-07
2.90619e-07
5.11146e-07
0.00362859
0.0178665
0.0189664
0.0319527
0.00184763
0.00301748
2.91206e-06
5.26261e-10
0.000173122
3.76804e-07
0.151038
0.0204169
1.9294e-07
1.22275e-06
1.7718e-05
0.0560847
0.0275135
1.55512e-05
0.0122903
0.0837329
0.00104758
0.363847
0.042025
2.49888e-05
0.021087
0.156909
0.0172407
1.09339e-05
0.0044913
1.34199e-08
0.0130517
0.00153364
0.0226345
1.07688e-05
0.000342488
2.96518e-09
0.0213918
1.0887e-08
2.67366e-05
0.358772
1.14198e-07
0.00527158
0.00112635
3.68137e-07
5.65576e-08
0.0019003
4.06831e-07
9.83904e-08
0.0133553
8.62938e-05
1.05741e-08
0.0215361
0.0406847
0.0156287
1.01465e-09
1.90076e-09
0.000495201
0.00236506
0.00280941
3.89025e-09
8.44026e-08
0.000120507
0.00343786
0.00169676
0.0115632
0.332822
6.03266e-10
0.128359
0.0118754
0.00600817
0.0498953
9.89627e-07
2.27111e-08
0.0210958
1.77024e-09
0.0286508
0.00621829
0.00532079
1.01298e-06
7.38447e-09
5.36831e-09
1.5712e-08
1.88357e-05
0.121635
0.193979
0.00216249
2.25272e-06
3.27646e-10
0.0515489
0.203994
0.031584
0.106165
1.17872e-07
0.000885678
0.000220623
2.07694e-07
1.22473e-08
0.00341296
0.00643816
2.66743e-08
1.02558e-05
0.00266438
0.0554556
0.186321
0.00109508
2.03334
1.00694e-08
3.23059e-07
0.0111979
0.000619189
3.06337e-05
0.640493
0.00053339
0.00645508
1.32896e-08
7.96535e-08
1.17844e-05
0.0538596
0.0074163
0.162501
1.99208e-08
0.0228731
0.0173453
0.842343
1.2713e-08
4.16127e-09
1.0119e-07
3.5254e-08
0.00611284
0.000291024
7.25946e-09
0.0344799
0.0173613
0.145129
0.00490412
2.42071e-06
1.52986e-06
0.0269089
1.17937e-05
2.06778e-08
1.30886e-08
1.38649e-08
0.021453
8.64026e-06
0.0516583
0.0500144
0.0242699
0.0121184
8.1208e-09
1.67476e-09
2.26611e-08
0.0145398
0.000224061
1.91933e-07
3.55562e-08
4.09487e-09
0.0202856
0.00226221
0.00998969
0.0373329
0.00199373
0.282787
0.00433269
4.13823e-07
9.41681e-10
2.3955e-07
0.0494314
5.29575e-10
0.0196653
1.48696e-08
0.0152869
4.08878e-05
0.00144226
0.000132272
0.0021324
8.61949e-09
1.17033e-08
0.334763
0.177909
3.19029e-05
0.00334478
3.99773e-07
0.000407415
8.95105e-05
2.79564e-06
3.02933e-06
0.000270089
7.37148e-08
0.000942605
0.0361938
0.0338399
1.89072e-07
7.60888e-05
8.45496e-07
0.0315169
0.164152
0.000142976
1.91462e-09
0.00842644
3.12386e-07
0.0030143
0.0181983
0.00122995
9.29066e-09
0.000813864
0.000468056
0.000119776
0.00457034
0.000108809
0.00148208
5.0601e-06
1.47169e-09
0.000143507
0.00511369
0.000267783
5.87734e-07
8.80048e-06
0.00011181
0.509015
8.70459e-09
5.46697e-08
3.71634e-08
1.30753e-09
1.221e-07
0.0199793
0.000527545
0.00107035
9.17076e-05
0.000185466
0.00126099
6.61803e-10
0.00568446
5.17182e-09
4.94438e-07
1.29815e-08
2.11705e-05
0.00185815
1.44579e-05
1.11472e-07
1.43421e-08
0.0142856
1.05409e-07
5.79119e-09
0.142332
8.38613e-06
0.0569036
0.101352
0.484021
5.12985e-09
0.196365
1.16519
1.32593
0.643404
2.63031e-09
1.216e-09
0.00471868
0.00458845
6.21359e-05
0.00665776
0.0376936
0.0308505
2.9264e-05
4.01829e-06
0.00110221
2.74975e-08
3.25983e-09
0.000107157
0.00036396
0.0241307
1.21895e-08
0.1069
0.000114932
3.00168e-07
0.000102435
0.00755992
0.00139905
2.08601e-06
0.00698746
2.60442e-09
0.00324883
0.00199407
0.00651933
6.13082e-08
0.00161397
0.00509514
9.69053e-06
0.0029607
6.93087e-08
0.031259
5.11133e-05
0.00952596
8.71136e-07
0.175829
5.09551e-08
7.78006e-07
2.36494e-08
0.106975
0.109859
1.92112e-06
0.0115462
0.00786652
0.0509154
2.70115e-08
0.0311336
0.0173321
0.176741
1.17545e-06
0.178467
0.0238949
0.044311
0.00324648
1.45499e-07
0.0552525
1.44176e-06
0.214187
1.95089e-09
0.00223308
0.00365781
1.11286e-07
5.58829e-05
1.21217e-06
0.018518
1.09451e-08
0.0367876
2.46835e-07
9.33974e-06
1.03917e-06
4.8373e-07
0.000251284
0.00173418
0.129582
4.81953e-06
0.000223119
0.039063
1.22259e-06
0.0397695
7.07176e-07
3.23297e-06
2.3884e-06
0.00516944
2.28096e-10
1.33874e-09
1.94582e-09
0.0028433
5.69126e-08
0.0600517
2.0149e-05
0.0028484
4.84785e-09
0.00525024
0.318175
0.00469429
0.00499668
0.0234284
1.11914e-05
1.93614e-07
7.98969e-08
0.00284122
0.00170631
2.55464e-06
0.000494081
0.000513768
4.49814e-08
2.0243e-08
0.311107
6.19869e-08
0.020706
3.34692e-08
0.00213361
0.00325779
1.86616e-07
2.42389e-09
0.04227
3.78375e-09
1.69306e-09
0.0178923
0.0522016
0.00403675
2.01214e-06
1.46604e-08
0.00605594
4.81522e-06
0.0124009
5.59464e-06
1.16268e-08
0.00209296
6.64548e-05
0.128922
1.04329e-08
8.68612e-09
5.41809e-09
0.00308456
0.165737
8.82021e-07
1.47736e-08
6.77888e-06
0.00128844
2.25438e-08
0.0189409
0.0272971
4.72445e-08
1.45183e-08
0.00616676
2.45431e-07
1.85053e-05
1.47387e-09
2.29853e-05
6.77981e-09
0.0617792
0.000315881
1.27406e-07
6.03244e-09
0.0632041
3.63476e-08
0.0520317
2.22127e-07
3.34257e-08
9.13022e-06
0.00685133
0.0416495
0.00735288
0.0461551
0.0561086
0.547659
0.00238384
0.0373317
9.94172e-06
1.51335e-08
0.00208965
0.125736
0.0342328
0.0390152
7.4981e-09
0.00637844
1.66351e-08
0.00368423
9.15944e-07
0.00943645
0.000154541
0.0538163
4.70878e-07
1.05624e-08
0.0187553
0.000267849
2.18657e-08
0.0256263
0.000315628
1.83032e-06
4.22984e-10
0.0351138
0.010086
0.00565534
0.000696597
0.00153717
0.0160844
0.000875058
0.0049817
8.04913e-06
0.0245479
0.000113744
0.000418057
5.25736e-09
5.77589e-07
2.56566e-08
0.00885154
7.44024e-08
2.16762e-06
2.47298e-10
0.000358218
0.355139
0.0795383
0.00251345
3.72732e-09
0.00371975
0.0490917
0.0931586
0.00334617
0.000246756
0.0404306
4.88527e-07
1.84733e-07
2.18427e-09
0.00256912
0.00128129
4.48338e-08
5.52751e-09
0.00214966
1.56681e-07
0.775309
0.0498824
0.088938
7.37469e-09
9.2342e-09
0.0389121
4.17469e-09
0.00880359
1.41225e-08
0.000601173
1.00321e-08
0.00896996
4.10499e-08
7.56972e-09
0.000983291
0.13904
0.0597765
1.39022e-08
0.0638099
4.16831e-08
0.00401533
0.186095
0.105634
2.33714e-07
0.00051213
4.52556e-09
1.70939e-06
0.000254746
0.0159305
0.000292105
7.01156e-09
0.000554403
0.00334932
0.00465315
0.00782972
3.29232e-07
3.00699e-07
3.05375e-06
5.86704e-07
5.46448e-09
2.55941e-09
0.0668499
0.0343866
2.4412e-08
0.0749473
1.14095e-09
2.06637e-08
0.0700251
6.05399e-09
2.52376e-09
0.0353772
3.02913e-08
7.3882e-10
1.03346
2.48479e-09
7.18973e-10
0.00174588
0.0833412
1.42286e-07
0.0343383
1.01985e-08
0.021084
0.0446814
5.74473e-06
0.000795158
3.48214e-10
6.21069e-08
9.63778e-07
1.36079e-07
0.298638
0.0404892
0.000276781
2.68138e-08
0.0428144
6.22028e-10
1.28117e-08
5.15623e-09
0.0926626
0.00160801
0.000120871
1.41968e-09
1.19072e-06
0.044534
0.000819215
3.75129e-07
0.000244445
0.0977704
0.0765139
3.28571e-05
0.0762099
0.000850002
0.0394838
3.83332e-05
0.0591587
0.000313358
0.0298086
1.39916e-06
0.0062029
0.000418313
0.000839095
5.43164e-10
0.00141731
7.55834e-08
0.0039848
0.0221163
9.80196e-07
0.00240466
0.00028163
1.65102e-07
0.00913388
7.37302e-08
2.18209e-08
3.38237e-08
4.38642e-08
4.64781e-06
3.47025e-08
5.11406e-08
6.38353e-08
0.253694
3.9401e-05
5.47307e-10
1.9748e-09
7.22443e-08
1.16688e-07
0.0300718
0.783142
0.00191095
0.000128856
1.02257e-08
0.00183856
0.00126805
0.0428785
2.93485e-05
1.18235e-05
4.96652e-07
9.78315e-07
2.23809e-06
0.000203558
0.000107176
0.162416
0.0621353
7.42538e-08
0.000917832
0.000272143
4.5589e-09
0.0253063
4.32623e-06
3.61589e-08
1.55505e-06
0.16011
0.0575064
1.92268e-10
0.023393
2.19161e-08
0.0432862
4.75891e-05
0.0328428
0.0505319
3.59172e-09
1.0188e-08
2.90146e-08
2.29348e-05
0.00572648
0.227199
0.0285426
0.0433856
0.00398055
0.000467333
8.57517e-10
0.000106463
0.124734
0.00138521
8.67238e-05
0.00269241
3.79816e-06
0.0898138
6.03633e-08
0.208999
0.0354782
1.04361e-08
0.00043962
0.00661836
3.94311e-08
0.0105449
2.1161e-08
1.84229e-07
0.198455
0.027007
4.95018e-08
4.24899e-09
6.24266e-07
3.67813e-09
3.56581e-09
0.00011449
2.00401e-08
1.07137e-09
0.00313777
6.63185e-09
9.0415e-08
2.3893e-07
0.000204614
1.93949e-07
0.000152132
1.07126e-07
4.46225e-08
2.05707e-05
6.01864e-05
0.00316849
0.0383397
7.34128e-05
0.00463335
2.12063e-06
0.289086
0.285343
1.07737e-07
0.00314901
1.31872e-08
0.0407627
0.0351766
0.000365643
0.0802478
0.0633589
6.58133e-06
1.49435e-09
0.00221653
1.67881e-08
3.65181e-09
3.80526e-07
1.41995e-05
6.22174e-09
1.57821e-05
0.0377588
4.50986e-09
3.20828e-08
0.339026
1.39618e-09
0.015333
7.4023e-06
0.00119686
7.51722e-09
0.00039853
0.000133442
0.216952
0.00850955
0.0212772
0.000166712
0.0388606
0.000244255
0.0669416
0.000131441
0.000211529
0.00989242
0.0527371
0.000295102
0.00118574
3.83179e-06
1.30913e-07
0.00100311
0.000232822
0.0177041
0.0115001
0.000140628
1.62891e-06
0.0054752
0.00471037
0.0173742
8.43393e-10
0.0117869
0.0164419
0.00259527
0.0013203
0.000983663
0.003446
0.0189531
0.0385146
0.00728249
0.0110414
0.00771097
8.19995e-05
0.00278752
0.00354135
0.000952028
0.00291672
0.0145368
0.0129744
0.020036
0.00011044
0.00992205
0.000379843
0.00479283
0.00262361
0.000384848
0.00256069
0.000183565
0.06728
0.00392652
0.00116736
0.000124056
0.000663221
0.0164979
0.00221445
0.181769
0.00324698
2.65434e-09
0.210168
0.0417838
0.0228793
0.00674708
0.0204988
0.000372117
0.00872478
0.421213
0.00191624
0.00153796
0.00223375
0.160688
0.00131873
0.0681836
6.9137e-05
6.29956e-08
1.13723e-08
0.00202376
0.00566336
0.0117136
0.0656005
0.00765876
0.0586584
0.0552375
0.0522268
2.49127e-08
0.00824147
0.00287507
0.02943
9.72991e-07
0.00609293
9.75574e-08
0.205452
0.0111711
0.00694204
0.201046
8.85728e-09
7.43e-08
0.00194213
0.000101178
0.000667149
1.37247e-07
0.00649278
0.000871202
0.082266
8.36667e-07
0.0214481
0.00318112
0.000313404
0.000136638
0.00216129
0.0014584
2.18475e-07
0.00162553
4.87709e-05
9.53051e-09