/*--------------------------------*- C++ -*----------------------------------*\
  =========                 |
  \\      /  F ield         | OpenFOAM: The Open Source CFD Toolbox
   \\    /   O peration     | Website:  https://openfoam.org
    \\  /    A nd           | Version:  10
     \\/     M anipulation  |
\*---------------------------------------------------------------------------*/
FoamFile
{
    format      ascii;
    class       volScalarField;
    location    "8.9";
    object      p;
}
// * * * * * * * * * * * * * * * * * * * * * * * * * * * * * * * * * * * * * //

dimensions      [0 2 -2 0 0 0 0];

internalField   nonuniform List<scalar> 
111485
(
31.5295
0.270859
0.310623
31.5283
0.299556
30.5728
0.258553
0.269337
0.259323
0.311731
0.25067
0.290208
0.273542
0.187995
0.267788
0.325036
0.17181
35.1579
0.281245
31.5265
31.529
30.5922
0.251824
0.333927
0.271177
31.4097
0.324956
0.301851
0.300045
31.5378
0.080489
0.12324
31.542
30.5939
34.3212
30.4531
0.174904
0.238657
0.0381223
0.300596
30.7881
0.295178
0.306445
0.236492
-0.58015
31.6026
0.257361
0.317574
0.31178
31.6809
31.6706
29.5755
31.7047
0.199258
31.7267
0.226018
0.274101
30.6417
-0.0292726
0.290957
0.297908
31.5333
0.256608
0.114519
30.7474
0.245355
20.6187
0.255899
0.170548
0.247248
-0.114284
0.210514
30.9207
0.190011
31.5673
0.192417
30.5962
0.288792
30.5853
32.315
-0.0202341
0.20668
30.5993
31.5506
0.252791
0.269784
7.40477
0.178681
0.0136524
0.190434
-0.390319
0.276788
0.267714
0.206079
0.298045
31.5508
31.531
0.230673
-2.49276
0.654046
31.5293
0.321989
30.5618
0.261827
0.24333
31.7496
30.6249
0.143138
0.275442
-0.910282
0.121173
0.274456
0.305708
0.303469
31.4016
0.203559
31.4662
30.6118
0.202976
31.5328
31.4085
26.8087
30.6027
30.6434
0.311992
35.7813
26.6514
0.143394
31.5573
2.02187
0.0041605
0.228939
31.5713
26.2054
27.3433
0.263448
30.5966
0.20935
0.228083
0.302157
0.16557
0.245956
0.26497
0.316388
0.246861
0.140447
30.5962
31.5463
30.6561
0.254693
0.301861
31.5163
0.140491
0.0365333
-2.14977
0.271116
0.256427
0.231617
-1.58617
31.5801
31.5282
0.262134
0.260658
-1.43256
-1.90328
0.161239
0.140613
30.7476
-1.28551
-1.14495
30.6341
31.5432
0.275771
30.6123
0.118409
0.069455
30.7853
30.8328
31.4742
31.3578
30.7238
31.5236
0.285159
0.275103
0.302147
0.264446
0.310111
0.221596
0.213645
31.5325
0.156837
30.8186
31.4874
0.250819
0.284316
0.197748
0.294535
0.0726275
31.5716
0.302127
0.339138
21.4128
0.267298
0.167775
31.5353
0.238173
0.261998
30.8083
0.177004
0.25614
0.291276
0.184534
30.6921
31.5336
0.214974
20.0722
0.229733
30.6101
0.233868
0.217678
0.308011
31.548
0.202586
0.135556
24.1433
30.6112
30.6352
-0.00542316
-1.85617
31.0241
29.2189
0.231758
0.123483
-0.182582
31.0118
31.2501
0.127546
31.5598
0.233257
0.204366
0.220115
0.168953
0.211857
30.6403
0.0144941
0.178076
30.6551
30.5988
0.157228
0.266862
31.2395
0.20044
0.172773
31.5469
25.5807
0.254354
31.5707
32.0983
28.7954
31.5224
0.21301
0.1534
-0.0209207
31.5648
0.112828
31.5286
31.5268
31.5713
0.102687
0.273458
0.270971
0.170618
0.287962
0.236496
0.222266
0.103605
0.0933415
0.151929
30.4096
31.5437
0.0975595
0.110473
-0.0819176
0.128249
31.5314
0.266614
0.264689
0.254319
0.35827
-0.00138001
0.261375
0.163754
0.247549
30.628
0.240152
30.6127
34.9895
32.3651
-0.055533
0.262712
0.26231
31.4905
30.8822
0.214804
0.135149
31.5158
31.5271
31.7398
0.167971
0.171727
0.277689
0.28748
0.252577
29.037
30.6425
31.5527
0.239668
13.1917
0.204042
-0.0026757
0.0568875
30.6023
31.5288
31.5329
27.3242
0.226508
0.312213
30.5984
0.229989
31.2281
31.4712
0.244284
0.231345
0.29193
0.237246
32.0376
27.1822
30.6067
0.222008
0.0736805
0.0859342
30.7267
2.28597
-0.184882
0.319182
0.238902
5.49736
0.253157
30.5884
0.242015
0.243824
0.0212027
0.218309
0.272814
30.6065
31.5583
30.6225
31.539
0.267493
0.223772
0.23993
0.287812
30.6772
0.303353
30.631
31.5612
0.265052
32.5608
27.9018
31.7232
30.4373
0.272392
30.6366
0.0771579
0.321287
30.5862
0.201979
0.253112
31.5181
0.220655
0.310197
0.286409
0.198753
0.164291
0.134868
32.0762
31.5499
0.277325
30.7076
0.301627
0.196962
30.7832
30.6356
0.226265
0.23821
0.113068
0.35394
30.5952
0.0863435
0.278047
30.565
0.23294
0.219477
31.5277
31.5256
0.0983171
0.276305
30.5508
31.4748
23.5303
31.5265
0.295284
30.6107
31.5297
0.276213
0.0278499
0.291913
0.319611
30.5802
27.3947
0.329898
27.7765
0.247855
0.359277
0.32689
21.2953
28.0748
-1.8615
-0.790547
31.5266
0.175672
0.31779
31.541
-1.54748
0.306917
27.9337
0.288689
0.274834
0.168451
30.5888
1.06468
0.287101
0.202567
-0.0873961
26.5648
-1.94947
31.5405
0.232498
-0.651213
30.6371
0.26136
0.309183
25.8416
31.5603
29.9102
31.5236
0.293964
0.320479
0.309117
0.325093
0.168444
30.6144
0.142091
31.5792
0.343571
30.5267
31.5681
31.6027
0.287745
31.5522
31.5313
33.4506
31.5272
30.6693
0.274028
30.6342
29.7894
30.6105
31.4841
30.5507
31.5783
30.5944
0.285684
30.6038
0.258328
0.277313
0.119094
30.603
0.276849
30.6398
31.5297
0.307305
0.365247
0.454257
-0.0463654
29.4181
0.280546
0.263871
0.130926
-0.0229955
0.291332
31.547
0.0251987
25.8941
0.401574
30.6123
0.323456
26.7783
0.124371
0.332333
33.1671
30.8726
-0.0858729
31.5174
0.27794
0.246165
30.6609
30.6884
31.789
30.6303
-3.42263
0.272875
30.5576
30.6566
0.285912
30.5922
0.245966
30.5928
0.280359
31.5316
0.36255
0.351
0.348914
0.113313
30.4932
-0.475325
30.5536
30.6116
0.251539
30.617
0.311776
31.8152
0.336034
31.5367
0.383466
31.527
27.9677
0.00868168
0.181302
0.244611
0.334803
0.172736
0.261858
30.6518
0.210592
0.264159
30.6044
0.194327
0.140941
0.288071
30.8406
32.181
0.381102
0.17376
15.0149
30.8999
0.244138
0.327944
0.315096
0.302102
0.653836
10.4602
27.6011
-2.34061
12.8513
31.5312
0.352022
30.7031
28.0861
0.219761
10.2409
-2.41207
6.06204
27.5851
0.252644
0.311667
30.6389
29.8864
0.323916
31.5399
30.5914
30.5955
30.5992
0.303871
30.6251
31.3789
0.336808
0.198422
24.1408
0.147981
29.3634
0.184505
31.6997
30.6451
0.283435
30.606
30.6022
27.9541
0.20211
18.814
0.212832
0.196376
31.5708
-0.439916
0.0448205
0.276041
0.34744
1.47846
0.262864
30.6177
0.282046
0.289133
31.5644
0.230505
0.231085
0.312797
0.154445
0.290798
0.298033
31.5997
0.302946
0.181257
27.8749
0.293222
0.373813
19.6021
0.197175
0.312989
0.341737
0.321678
0.333871
0.163614
31.146
0.314739
0.307417
32.9162
0.288157
0.234527
0.211507
30.6218
0.19666
31.6257
30.5989
30.6564
30.5939
0.327256
28.3175
-3.6946
31.5222
30.3269
0.326455
0.291853
31.5123
0.288958
31.5257
31.5523
31.7091
0.219954
0.345334
28.0725
31.3495
30.6161
30.6201
0.143505
0.167507
27.3539
0.300695
-1.16491
30.6483
0.328657
0.273138
0.354558
30.5869
30.6089
0.310225
0.203035
27.8141
30.636
30.5206
0.18326
31.5573
31.5059
30.6167
0.302979
0.314584
30.5905
33.9199
32.8717
0.602688
30.647
30.5789
0.269132
0.107648
27.7504
23.9666
4.91401
0.292704
0.0113501
30.4772
0.186144
0.33365
30.6256
31.6976
30.5942
30.6124
30.636
30.5894
0.363749
31.528
30.5983
30.8115
0.342609
0.192632
31.5307
31.7535
0.239002
0.184954
0.210917
31.5027
30.6022
0.188405
31.5482
0.271062
0.154988
0.210233
31.4322
31.5307
31.5301
30.618
0.378079
30.6026
30.5836
0.2417
31.5297
0.24428
0.374805
30.6656
0.224166
31.4337
0.213128
0.306469
0.226702
0.268362
-4.57904
29.0518
0.200515
0.2654
0.0118003
31.2514
-7.86453
28.6863
0.112447
30.6294
0.237763
0.275981
0.221433
32.3251
31.5318
31.5604
0.184382
29.3499
-0.0446892
29.896
0.316603
0.156007
0.0770569
0.192566
30.5949
30.6662
31.0059
0.185774
30.5897
29.0349
-0.16789
30.6372
30.6646
31.5379
30.5977
0.0897578
30.5159
30.6122
-5.63341
29.2804
30.7149
28.3215
30.6115
0.206204
0.0967739
31.519
0.309675
4.45759
0.206368
-1.04844
0.173572
30.643
0.2725
0.287675
0.205166
31.5484
-9.89215
0.0718665
26.0392
0.0304528
-0.027715
0.0446514
0.205243
0.14598
-0.110106
0.155838
0.142314
30.5409
30.6378
0.0727579
0.0225178
30.6429
0.0880503
0.318039
0.130051
30.5697
-0.0285034
30.6148
0.111365
0.093527
30.5859
-0.28511
0.154068
-0.177963
-0.0582931
30.4026
0.285015
-0.155739
0.150048
-0.173363
0.212387
30.573
30.6561
0.286038
30.5975
0.391484
0.0775974
27.0172
-1.44565
-2.82476
-0.748242
30.5978
25.6973
0.201795
31.5542
37.7648
0.197205
30.558
30.5793
-2.42257
-2.95993
30.5979
-0.0289503
30.6131
30.6084
31.5619
31.5292
31.8324
31.5456
0.280808
30.5937
30.6356
30.6608
-5.25781
0.446408
0.265508
0.190539
30.6451
30.5743
0.199007
30.6059
30.5929
23.4477
0.177562
0.218954
30.5866
30.5611
30.6236
30.5788
30.409
30.5728
0.106564
30.5971
-0.350914
0.278586
30.6186
31.5734
31.7384
-0.0443828
31.7067
31.5306
30.6817
-0.395953
30.6112
0.132419
0.133764
-0.27054
30.5813
21.3148
0.232394
0.256615
30.6666
-0.328475
0.269471
31.5491
30.4738
27.6595
30.5652
0.197549
0.257091
0.148936
-0.9181
30.5891
0.193411
30.3482
27.4639
27.4896
30.6358
0.286284
30.6118
31.7793
0.166658
0.202296
31.7684
0.319879
29.3834
0.0711819
32.0039
30.6113
30.5091
31.5304
0.154897
0.288125
1.96733
30.5935
30.774
0.116193
30.5977
28.4115
31.5322
0.277111
-0.966801
0.430394
31.4734
0.133092
0.182698
33.049
0.185149
30.6097
0.206971
0.236451
0.209245
0.0788416
-0.265477
30.6009
30.6128
30.6103
0.132114
30.9097
-0.0113058
31.5643
3.28791
31.5118
0.299494
0.304637
31.7872
30.5974
31.8547
30.6673
-0.0262726
31.8842
27.6887
0.0910636
-0.00547585
31.7473
28.2804
30.9217
28.3644
30.583
30.6023
0.0192216
0.376764
31.5275
31.4838
-2.03092
31.5581
0.0175867
0.156087
30.9044
0.240659
31.5304
0.0679912
30.6097
0.305936
30.5839
-1.83325
-0.768658
-0.142805
0.216949
0.205682
18.9859
30.2939
0.246848
31.679
0.27636
31.5111
30.7337
30.5185
30.6612
30.7579
30.6418
0.156683
0.106583
31.5314
26.6856
31.5388
0.165853
-0.0389398
31.5257
0.287778
-0.146961
31.7393
0.171858
0.137142
0.266701
-0.139661
30.5977
30.6019
30.7273
30.5961
0.252995
30.3417
0.245096
30.6066
0.217325
0.318556
30.6279
0.184693
30.5893
30.5957
0.199809
0.0725902
8.8818
30.6081
31.8319
30.5523
0.260679
30.1408
31.7517
30.214
3.89752
27.0635
-1.61287
28.2513
30.0718
31.0896
0.126843
0.0566305
0.327782
0.277724
31.4952
0.223235
30.6247
30.6356
0.0981667
30.4841
-2.0674
0.214414
0.178768
0.208441
-3.34951
0.261386
30.6293
-5.16187
-11.2604
0.291995
0.255265
0.233038
22.3241
31.5155
0.282752
31.5315
30.5797
-0.495629
0.288252
-3.84889
30.5471
29.9326
0.118348
31.7387
30.5824
0.178448
31.8146
31.7708
0.564873
0.189219
0.0381826
0.355553
0.183895
30.5944
30.599
-0.632756
0.262756
30.5944
31.7921
0.414122
30.6244
26.5151
27.1883
27.3436
17.7197
26.6068
30.6002
0.339316
30.5324
0.0937138
30.5899
14.0447
30.8027
30.6731
30.6315
30.6003
0.371002
30.5995
30.5976
27.8168
30.5668
30.6326
30.5972
0.24433
30.6673
0.223938
0.0813082
30.6839
0.452229
30.5917
0.238504
-0.277904
0.113609
0.133834
31.4083
0.130719
0.353454
-0.151699
31.5586
-0.00142995
0.223633
0.126079
29.4424
0.0893822
30.858
30.6246
30.6004
30.5893
0.112655
30.6125
30.5445
0.105802
-0.0993865
0.0323707
30.6709
21.9327
0.38658
30.6359
-0.99594
31.7273
0.0734771
30.5636
30.5759
0.272852
30.572
0.332791
31.5464
30.5898
0.218316
0.171428
0.187679
0.274105
-0.0855134
0.226864
30.5896
32.1679
0.289231
0.192752
0.26731
0.0340047
30.5982
0.218514
30.5942
31.2242
0.261461
0.142823
30.628
0.17439
30.5758
0.188616
0.172816
30.8672
30.59
30.6189
0.291396
30.6113
30.6118
0.295512
0.189599
0.231253
0.112959
30.6688
30.6635
0.342133
0.346766
30.6088
0.273764
30.9229
0.266515
30.5932
30.5917
0.194923
30.5954
0.257703
0.327267
30.6041
30.5903
0.229506
26.0492
0.366695
31.5305
0.164581
31.5744
26.7882
25.9035
0.326047
27.9994
27.6995
0.245601
27.5373
17.2477
25.5119
30.8191
31.5338
-0.279485
0.338613
30.7698
30.6062
0.235182
0.302197
30.6229
0.287586
30.5882
31.5537
0.315239
0.312566
0.483591
30.5881
30.6185
30.6093
30.5974
30.5591
30.5707
30.586
30.5597
30.5783
30.5828
30.6074
31.5404
30.6117
30.5864
30.588
31.2518
30.5864
30.5927
30.6
30.7075
31.3396
0.353353
30.6094
30.5872
30.6656
0.280268
30.6471
31.5528
12.1026
30.5307
30.1674
0.251482
33.0402
30.3791
14.204
0.233054
30.6055
27.131
29.109
30.58
0.247394
0.22932
0.233317
0.170639
0.2155
31.6362
30.5561
0.203907
0.230207
0.176793
30.5832
0.235817
0.288919
0.264301
0.0992855
0.145509
0.176808
0.158631
0.243751
31.5973
0.285408
0.28381
0.299659
0.246268
30.6126
30.6066
30.6172
31.5306
30.6027
0.230921
0.252325
30.6236
30.5795
30.5783
31.382
30.5887
31.5264
30.6013
31.5415
0.237258
-0.0757641
0.260874
0.412259
30.4805
30.6326
0.228864
-0.580287
30.5899
30.5991
0.281317
31.6012
30.606
0.363804
0.189499
0.227443
0.383266
0.246266
31.6228
0.0746268
0.280337
27.6985
31.5302
0.232662
31.6068
30.6261
9.87717
5.47717
0.312312
31.1718
31.4568
0.237096
0.279135
0.130647
0.231415
13.8362
31.5267
0.317524
32.9322
31.558
30.3502
0.279833
30.5858
0.237557
0.0460513
0.227088
0.257502
31.5664
0.279939
31.5563
29.9419
31.5466
31.4864
0.135973
18.1901
30.5989
31.527
33.435
0.242006
27.5067
0.173467
0.220041
0.122898
0.228075
31.405
31.4841
26.6752
0.300791
0.224215
-3.20182
31.6976
31.5298
27.3673
0.290376
0.188009
30.5924
0.0379477
10.2968
0.272134
0.188595
31.524
26.6454
0.179754
0.231609
30.6143
0.340524
0.327427
0.262119
0.113368
0.189441
0.261757
27.7073
0.173294
0.20008
0.208278
31.9534
0.251248
28.0434
0.354174
0.207322
31.5596
0.10973
0.188361
0.157582
0.272892
34.9994
8.64317
0.19531
17.3579
0.190172
30.6098
0.115959
0.201329
31.5385
30.6006
-1.00952
-0.0133254
0.298086
34.9195
0.310589
-0.3668
-4.11578
0.0170255
31.5419
31.6296
0.22338
33.3723
0.237741
-0.41904
0.198367
0.16642
31.5233
0.320232
0.223486
31.5112
27.857
0.202178
31.5992
0.189893
0.207332
31.5362
35.1242
0.28767
31.5165
30.5871
30.6302
0.14982
0.584243
0.298958
31.7645
0.284403
0.179494
30.8084
0.169628
0.123323
0.12828
-0.113013
30.5965
0.195358
0.239343
0.166315
0.135981
0.1412
-0.188403
0.328708
31.5298
-0.167022
0.125176
31.5276
0.157843
30.6491
30.609
31.5562
30.6682
31.5362
0.351403
30.6236
0.157388
0.224659
31.5632
0.363605
31.3202
0.106096
31.5396
-0.229794
30.649
0.276329
0.385245
-0.291619
0.251141
0.13051
0.313404
0.149538
0.261704
11.3619
0.214063
0.180337
0.256799
31.5532
0.308705
-0.0433057
0.217112
0.278797
-0.221791
31.5589
27.236
31.5249
0.317813
31.5205
24.7936
0.130583
33.5604
0.376692
31.4801
31.4222
30.5987
0.253909
0.454464
0.198726
0.212696
0.140059
0.202694
0.253517
0.212585
0.112833
0.243128
0.212808
31.6275
30.4376
31.5279
0.263567
0.2794
30.7218
30.5981
25.3137
0.312865
0.123745
31.5232
0.21125
31.5247
-1.2397
0.327694
0.148809
31.5312
31.5302
0.194944
31.5295
0.287983
0.189803
29.9386
0.2599
0.27968
0.133227
31.509
-0.0298852
28.071
0.21477
0.289026
31.5367
31.5949
0.172341
22.3203
31.6618
0.233178
0.156135
31.533
31.4436
27.8894
0.176715
25.2599
0.239363
0.227561
0.318319
31.5284
28.1974
0.213142
31.5277
30.6295
31.545
31.5347
28.616
30.9148
30.3088
31.5171
31.5625
29.3231
33.5827
30.5845
0.322661
30.6204
27.1101
25.6461
35.5883
27.6398
31.5302
0.227886
29.6194
30.8555
0.226421
32.8342
34.2749
31.1954
0.199008
33.4621
0.24405
0.0834103
0.358268
28.7984
31.5327
0.274842
-1.22984
31.3598
31.523
0.261882
28.4819
0.253179
28.1889
30.5329
31.0109
0.262268
0.2764
31.5302
0.29263
31.6974
29.6158
-0.317078
0.277081
0.234364
30.6144
0.254883
28.9841
0.234718
30.5911
31.5102
30.5864
28.0386
0.244486
0.246592
31.5542
-2.58862
31.5486
31.6071
31.547
31.5281
0.241618
0.18485
0.222224
0.367545
31.399
0.315138
0.274006
0.227797
0.218044
30.8198
0.206791
0.343023
0.154191
-1.11665
0.26575
31.7103
0.183408
0.239088
0.259208
0.272368
0.174197
31.6318
0.213366
31.1199
31.5498
0.252647
31.5705
0.337885
31.529
31.7731
30.3198
31.541
31.5499
0.169317
31.5346
0.243277
28.9205
30.6328
0.275886
0.328802
0.241405
0.210301
31.6166
3.24591
31.5507
0.26319
31.7774
0.257673
0.219573
0.278091
0.290256
31.8948
31.9224
31.5378
0.21952
30.6738
31.4866
0.20788
30.5425
30.5828
0.348688
31.894
0.154992
-1.10642
28.7224
30.0208
29.7795
0.185877
0.250611
31.5251
0.0387891
0.253095
28.0988
0.268745
31.5373
0.190776
0.329711
0.26577
31.5322
0.310808
0.193489
0.248303
0.31088
0.327144
31.5347
31.5283
0.0357735
31.498
30.5867
31.5277
0.174949
0.269404
0.239127
0.114364
27.6215
0.263793
0.256048
0.257465
-0.00328635
0.329955
0.254782
0.330664
30.599
30.5987
30.5963
0.405189
30.6177
0.176426
21.2134
0.293896
-1.75519
0.152492
0.126333
30.5802
31.5399
0.299752
0.286694
31.5923
30.5772
31.5576
0.177692
0.288799
0.278539
0.32687
0.130164
0.24011
31.5199
31.5484
31.5313
0.200064
0.217967
0.0395316
0.283829
0.245572
0.315532
31.4072
31.5286
25.5343
30.7463
0.14567
0.343859
31.5087
31.6424
31.5696
31.5627
31.4091
30.8845
0.280789
31.5291
0.17998
-0.000463397
30.6088
0.301743
0.116017
0.183165
31.7184
31.0633
0.282601
31.5304
0.278048
-4.28106
0.188431
30.6859
23.8985
30.5929
31.5337
31.5001
30.4374
8.77636
31.5745
0.351013
0.17042
31.5439
31.5337
0.276873
31.5422
30.6121
0.225481
-0.357701
31.4726
31.4663
30.7304
0.175038
31.5298
31.5279
5.05349
0.21947
0.282936
31.5215
30.6053
28.8664
0.259122
0.2703
0.259712
0.255935
30.5896
0.247813
0.0915057
0.0755166
30.4079
31.5332
31.5294
31.3613
31.5307
0.237087
0.251358
0.194585
31.6238
31.541
31.5286
31.5256
30.8549
0.226366
0.459745
0.092132
30.5902
31.5299
31.7669
-3.50103
0.188188
0.151911
30.6007
-7.2631
33.0275
31.3799
31.5277
0.258403
0.327959
31.5225
31.6432
0.289077
31.5356
0.185731
0.256372
11.2257
31.5069
30.772
0.221832
0.136411
31.654
10.4693
0.249586
0.390991
31.5286
31.534
31.5897
31.5678
0.138514
0.19648
31.5355
0.188773
0.264207
1.26538
31.526
31.515
31.5156
31.5364
0.326596
33.5321
31.5276
31.1088
0.158289
0.22906
0.192836
31.403
31.5433
0.291553
30.5213
31.5343
31.5286
31.5283
0.271736
30.8021
30.5381
30.5974
0.155336
0.306849
31.5048
31.5491
31.4466
0.283584
32.6115
31.5315
31.4537
31.5507
31.5463
-0.345996
0.346898
31.7205
0.289629
0.317972
0.250498
31.575
31.5582
31.5407
31.395
30.5852
0.281384
31.5297
29.584
29.4645
0.272507
30.6288
0.231156
31.5298
30.6235
0.307076
1.6147
28.2757
0.310159
31.5308
0.296249
32.601
31.5917
31.7156
36.3699
31.5451
0.232158
31.5
0.257156
30.6255
27.8913
31.5666
31.4969
0.122161
0.447189
30.5943
10.8848
30.6173
0.0520727
0.214199
0.349333
30.6354
-0.939017
0.211956
0.183039
0.348545
-1.99524
0.194202
30.4902
30.5875
-2.4898
0.193102
0.291715
31.6516
30.1799
25.6624
13.3261
31.5591
30.5989
31.5514
31.5592
31.5665
33.2129
0.444901
0.112026
0.264342
27.9314
0.0531606
31.5499
0.287314
31.5302
31.585
30.6097
30.8671
-0.0109446
30.7713
30.6048
31.5266
0.27965
31.5176
31.5369
0.203596
31.4247
23.1666
19.9227
18.5971
31.5656
19.466
18.8333
19.2668
22.0303
30.586
30.5896
0.257772
0.265473
27.9768
28.6324
30.5881
0.24695
32.7639
30.9671
-0.00369838
31.5296
31.5308
0.19383
0.102548
31.4164
30.5869
0.303351
28.1744
30.5444
-1.12662
0.255296
0.417469
31.2633
0.316861
31.5559
0.192775
-1.1162
0.289942
31.528
-1.10137
0.314236
31.8822
-3.65599
31.4811
0.287517
30.1491
0.350985
31.235
0.184058
31.5183
30.4153
30.619
-5.34688
-5.37447
31.5992
0.266184
0.41899
31.7395
31.5252
0.15311
0.0281489
-0.0325419
31.5817
0.304202
0.295901
0.211663
-2.89718
31.5667
-0.218713
30.6274
-0.151793
31.5304
-6.40658
-7.48592
31.4366
0.235299
30.8281
0.216678
30.5925
31.4418
31.5668
31.6051
31.4329
31.4798
0.311023
0.280634
-0.16933
31.5495
25.4563
-0.127302
31.5468
31.3846
31.6417
31.5284
31.6426
0.0983327
31.5274
31.5526
30.5869
0.0792001
31.461
30.6023
30.1913
0.175811
30.6057
0.043436
-2.6337
0.101778
0.161484
-0.0405351
32.8817
31.5349
31.5214
0.290724
0.203935
30.2931
25.3103
0.0814242
31.5374
31.5581
-0.0901871
31.4763
0.296272
31.524
-0.0112076
0.17272
31.5499
30.5856
31.5219
31.5531
31.5281
0.299898
31.512
0.0891175
31.7907
31.5262
0.153234
30.593
0.275176
31.1155
31.5354
0.273921
0.257361
-0.0180814
31.5515
31.5515
31.5305
0.282063
0.0786661
31.8176
30.5968
30.5977
0.180041
31.488
0.310622
-0.0870656
31.5213
31.5009
0.174691
31.5078
30.6082
30.6067
31.8457
30.6135
-0.154092
24.9674
30.6771
31.5438
25.6208
31.5006
26.495
31.4074
31.4947
31.0238
0.227391
31.2648
0.135666
31.4562
31.4924
0.181015
0.193476
31.4722
31.4117
31.5243
0.136433
26.9715
31.5303
30.9461
31.5091
0.182127
31.481
-0.256606
31.5595
0.258679
27.8117
0.250817
31.5757
31.5288
0.300052
26.3244
31.5414
0.193739
0.263973
31.6287
31.5536
0.250974
0.159704
0.180304
0.130644
0.125375
0.30014
0.204848
0.225554
31.8109
-0.300718
25.2062
24.7571
31.5283
31.5039
31.5284
0.193462
31.5593
31.534
31.5583
-0.0695803
0.208239
23.991
0.189455
31.5572
0.285075
30.5672
0.20651
0.23141
25.4962
0.32622
31.4841
31.4024
30.599
0.221895
0.262598
31.5298
30.6094
0.197934
31.5477
-0.0643829
31.7008
0.11233
31.5302
30.5983
31.4699
30.5944
0.193795
30.5946
1.58402
30.6255
0.284407
31.5217
31.5046
17.5315
16.2496
31.5943
31.5095
31.5298
31.5483
0.302375
-0.109011
21.0857
31.5579
0.30584
30.5846
30.6507
-1.24861
0.251156
0.149274
30.6009
0.155777
0.238384
0.243021
0.275526
31.5342
31.5646
31.5815
31.5576
30.6013
30.5928
30.5995
31.3885
30.6027
30.6012
31.5296
30.5972
0.0215276
30.592
31.5172
34.5188
31.5513
31.5273
11.1554
30.5902
31.5175
0.221728
0.0866435
31.4196
31.4697
31.5317
0.286354
30.7626
31.4846
0.0130729
30.6111
31.5179
31.5219
31.5504
0.224733
30.6021
-0.227436
31.5584
31.4799
31.5179
31.5233
31.5084
0.0371464
-0.116829
0.198902
31.5528
30.6696
31.6931
-0.0358631
31.5118
-0.110896
0.133531
30.5962
31.473
23.9506
-1.169
31.4421
28.2034
-1.11721
24.2674
0.306641
30.7422
0.217587
24.1342
22.5948
31.5288
0.303984
30.6129
0.252579
0.176935
31.5483
0.301663
-0.66737
31.5231
0.128908
30.5938
31.4492
31.4884
31.4318
31.4831
30.5946
31.5115
31.5472
-0.16604
28.5591
31.527
31.5263
31.5088
31.5226
0.270258
16.4375
-0.0605755
-0.736496
31.5126
0.348542
0.295398
31.5283
28.1194
31.2575
31.4672
31.6161
31.8594
25.8945
28.7906
0.184433
31.5339
31.572
24.5128
26.6274
30.5984
0.263775
31.5384
30.6405
31.5502
0.059336
31.565
30.5904
0.259732
30.6065
30.4724
31.1624
31.7425
0.264014
31.5272
31.5215
31.5149
31.4753
0.299433
0.126744
0.161173
0.278789
0.254608
0.215535
30.611
26.3357
-0.184985
0.240116
26.2915
-0.151913
31.5276
-3.83847
30.6589
0.0471951
31.5339
30.5983
0.246477
-5.07066
31.53
0.235691
31.5389
31.5459
0.0282434
0.192179
31.5437
30.5953
31.6868
30.597
31.5062
27.4958
31.5501
31.531
0.225104
31.5487
31.5143
31.518
0.273984
31.5622
27.6608
30.602
30.5826
29.3275
27.8288
0.269129
30.5959
27.8636
0.233746
31.5205
0.189409
0.266547
31.5233
0.235948
31.5265
29.9408
31.7846
27.2983
30.626
31.4689
31.5267
31.5641
0.296997
31.5567
31.5422
31.5428
31.0496
31.5237
31.2458
-0.0403322
31.5297
31.5615
0.133806
31.5306
30.6002
30.628
0.349283
31.5297
-0.259277
26.9688
-1.05644
0.0891136
30.5887
26.3105
0.245325
25.2424
30.6026
-0.339311
-1.04015
-0.00783589
0.157368
-0.565378
-4.17677
30.7182
30.5981
0.298947
0.0368927
0.0824334
0.318881
-1.09696
30.6102
0.122625
0.245127
0.270778
30.6389
0.292794
0.126615
0.231106
0.284906
-0.0517515
0.168449
0.229815
0.233932
0.0096352
0.210507
0.294892
27.7158
0.365592
0.0344085
0.279639
0.242908
0.108941
0.298216
0.0690174
28.3546
-0.00569881
28.1528
0.286864
0.316542
0.150121
0.213268
28.1019
30.5895
0.28377
0.256812
-0.0937824
0.153483
0.16372
0.267071
19.5198
0.318627
31.5299
0.466057
-0.0069402
0.194022
0.259341
-0.112198
-0.250198
0.303664
0.224305
0.118588
0.258553
0.27496
0.515821
24.7159
21.7277
0.263387
31.5331
31.5304
0.26445
0.350749
0.120272
31.5242
0.10902
0.182362
0.256916
22.5161
31.5235
-0.391369
0.038059
-0.0337776
31.5658
0.203117
31.5334
0.24676
0.296204
0.19272
0.19907
31.5138
31.5383
0.25962
0.319342
0.371563
31.5064
0.266133
0.373103
0.239709
30.6274
0.255101
0.087035
28.0821
0.229422
-5.47367
-0.00136466
30.4471
0.15524
0.0541477
31.5302
0.334326
0.0980949
5.98023
0.25149
0.360882
0.148779
0.373675
0.199025
-0.0681752
-0.479976
-0.0567718
0.443352
0.141377
0.227128
-0.222126
0.278313
0.307311
0.314886
0.309829
-0.182203
0.224735
31.5323
0.317093
0.275829
-0.00296053
0.224673
0.224463
30.6848
0.314067
0.246813
31.5138
0.0943109
-0.0119665
0.298145
0.332061
0.12884
-0.167957
0.325428
0.251053
0.177658
31.5313
31.5305
0.212965
30.6373
0.225117
0.365186
30.8468
0.128489
0.263201
0.0515334
31.5427
0.256067
0.250417
0.14435
-0.114862
0.240891
0.2462
0.250609
0.30694
31.5301
31.4446
0.0520528
0.218455
0.160268
0.310473
31.4419
0.233075
0.375166
30.8447
0.204087
0.296791
-0.294699
-0.408004
0.2507
0.156986
0.216716
0.308034
30.6603
0.353457
0.186215
0.312825
-0.335813
31.4467
0.289337
32.0624
31.5277
0.231535
0.250524
0.235831
0.973855
-0.0567406
6.27768
30.6113
0.172515
0.414171
0.494215
0.236361
31.542
30.6348
30.5945
0.208935
0.23064
-0.438395
0.248856
30.5511
31.4605
0.173199
0.249508
0.209367
0.256427
0.231553
0.363096
0.200989
17.7102
30.5889
0.304998
0.084881
31.4565
0.262478
0.34155
0.177031
0.319975
0.264598
0.245046
31.4589
0.296087
0.261091
30.6317
30.613
0.144631
0.321826
0.152723
0.118524
0.311014
0.381086
0.190161
0.273047
0.325289
0.0861527
31.4434
31.4142
0.0459925
0.145051
0.314504
0.0583048
0.31224
0.233466
0.306484
0.275697
0.300358
30.6015
30.6637
0.0307641
31.439
27.4983
0.291544
0.230103
0.217191
0.0613098
28.7824
0.243527
0.1362
29.3067
0.0479454
-0.368661
0.304089
0.319598
0.0933514
0.353857
-0.134073
0.13172
31.5292
29.083
0.0993337
0.17184
0.215869
0.164443
-0.0350092
0.21989
-0.00462647
29.1838
0.35033
0.267192
0.263727
-0.0410553
0.229583
0.0386893
-0.35098
0.266582
0.14692
28.7569
0.329407
0.332512
11.5101
27.3162
25.1497
0.360642
26.7015
0.0681722
0.307744
0.238936
0.361958
-0.0187304
20.3905
12.4957
32.3251
27.0106
0.211994
30.5938
30.5944
-4.59392
31.5191
0.262682
0.251936
0.152943
0.243069
0.245307
0.292665
25.2441
0.15466
0.113713
0.212092
0.267785
0.255196
0.289677
30.5993
-0.366016
0.261312
-0.0736553
30.5961
0.295055
0.236762
30.5957
31.4794
0.0767344
0.221972
31.6794
0.332378
0.31793
0.0596624
31.5454
30.595
0.116699
-0.362472
0.343656
30.5977
30.5594
30.5967
0.317605
10.522
9.61465
0.103414
-1.01404
31.5869
0.203201
-0.924374
0.295675
0.11429
0.0416769
0.189322
-1.49983
0.14689
30.8242
0.169468
0.220184
0.0773204
0.265962
0.104669
0.181831
0.099861
0.123818
0.131948
0.158897
-1.05936
0.288737
0.0534076
-0.083924
-1.33817
0.0105704
-0.987183
0.0995616
0.15136
0.233019
0.248598
0.175643
0.222254
-1.01151
0.169484
30.0008
0.278031
15.5399
0.238259
0.242195
30.6345
0.270658
30.0008
0.257732
30.1107
31.6266
0.40601
0.22353
27.5307
0.175204
0.293986
0.258345
31.4647
31.5493
0.456766
0.120606
-0.166999
0.249313
0.184167
0.242542
0.162196
0.286668
0.274038
26.12
0.286335
30.5986
31.345
0.254591
0.211538
0.0632549
0.247488
0.195535
0.305546
0.26433
31.1483
-0.00698093
0.175967
0.300351
31.1856
31.5806
0.280445
0.279991
24.7354
0.22099
0.13468
0.300025
-0.505738
0.213445
0.273505
31.4836
18.5172
0.255304
0.124858
30.8934
0.28378
0.195564
0.257411
-0.00973605
0.203624
-0.128541
0.277189
0.246058
19.5857
0.226467
31.5267
0.278501
0.268618
0.205862
0.072435
26.4518
0.0600212
0.0939843
0.284329
-0.0231706
29.775
30.5989
0.262739
0.143204
0.308411
0.296473
0.224136
0.19943
0.00810128
0.250468
0.187631
0.103493
0.1902
28.2646
-0.104991
0.232691
0.0229739
0.214667
29.0404
30.5852
-8.92385
-0.0118009
32.7051
-0.113655
0.255571
29.5088
20.2392
21.9739
0.168598
0.228611
1.1371
23.5067
0.0748241
0.277334
30.4847
0.955479
27.616
0.254903
0.179447
30.74
-0.086937
0.275801
0.260611
0.212853
30.589
-0.601805
0.207181
0.1104
0.299751
0.324671
0.289341
0.313227
-0.215875
0.261752
0.149197
0.224879
31.5142
25.954
26.3171
30.9201
0.210374
0.255955
0.284537
0.128506
0.167083
0.265159
0.276209
0.264245
0.264597
0.201413
0.286437
0.0457078
0.315719
0.198985
31.5263
0.210227
0.128473
0.272932
0.320098
30.4574
0.198532
0.216811
0.438365
0.289317
0.272542
30.6513
0.31157
0.262478
27.5616
0.307689
0.281763
30.9009
0.211452
30.8644
30.6193
0.203725
0.0950414
0.292376
0.276716
30.5939
0.179032
0.198853
30.6353
0.313675
0.269122
0.262815
0.266761
31.0247
0.223079
0.232914
0.335569
30.884
0.263617
0.14938
0.296549
0.229703
0.22149
31.6593
29.9398
28.3804
0.127119
28.8988
0.260575
0.17556
0.134089
31.4364
0.131018
30.7331
31.526
31.3338
0.282521
-0.0497366
-0.369453
0.321698
0.294623
30.1101
27.6128
0.227766
0.190235
0.281198
-0.218539
0.258392
-1.10268
31.5318
23.0913
23.5592
30.5872
23.8588
0.0792984
31.531
0.295291
0.267806
0.291274
0.0819409
0.256164
25.4285
0.142771
0.30957
0.291245
0.216301
25.5937
31.5316
0.23969
0.198051
-0.705648
-1.69236
0.00341967
-0.189665
-0.59585
-0.331624
0.256399
0.0528679
0.220563
-2.72631
0.209966
0.313506
0.266409
0.216737
0.191218
-0.0296912
-1.97622
-1.53415
-3.3456
-4.53571
0.192914
0.175933
30.6479
-3.72962
-7.48632
0.16213
0.118852
0.0433472
0.316346
0.364738
-8.16771
0.121299
0.0231503
31.659
0.27139
0.203011
0.249437
31.5431
0.163932
0.147636
0.136685
0.237437
31.5782
31.6785
0.279631
0.144112
0.1754
0.0698852
31.3811
31.5303
30.6124
0.295801
0.284802
0.116135
31.5405
0.200998
31.6953
31.7917
0.15595
0.125399
30.5767
0.131595
0.158508
-0.0641999
30.5978
31.5448
0.190021
0.312509
31.7295
0.123696
0.267734
-0.149849
31.9548
31.9826
31.8505
-0.159172
0.127334
0.257293
0.276013
30.575
0.137376
0.261767
0.235277
0.267615
30.7442
31.5185
0.342724
0.16833
0.16558
0.268921
30.7346
-0.310899
30.6038
0.149585
0.00579229
0.25891
30.9368
28.6311
0.106575
0.226657
28.0738
28.2397
30.6003
0.331878
30.2685
26.845
0.266467
0.272777
30.605
27.6217
0.275969
0.307946
0.175223
0.251734
0.245816
28.0979
0.321415
25.7806
25.1304
31.6287
0.240954
0.334207
0.114534
25.2763
33.8491
0.3462
0.0112806
0.365303
0.308308
0.271591
0.291437
0.259629
0.366655
24.8031
0.245364
0.150382
0.344418
0.293715
0.250539
17.9496
0.243457
0.239798
0.253247
0.243149
0.16384
24.0127
28.6313
0.27329
28.8662
29.2504
0.302122
28.9267
0.26464
28.2382
28.5905
30.7785
27.4646
0.266317
0.164903
0.213181
28.185
0.211065
0.260509
0.185922
28.6527
31.5321
0.273781
0.281547
-0.148718
0.274523
27.2873
0.0454425
0.209378
0.130149
30.584
30.9903
0.261767
0.172975
31.1003
28.7527
0.19707
0.0194589
28.1149
0.167569
0.146072
0.185728
0.300544
28.4233
0.274927
4.43187
0.199119
0.392489
0.275126
0.147572
0.260307
0.226507
0.340402
27.7961
0.295725
0.327719
-0.214463
0.131721
0.206676
28.5848
0.195206
0.322257
0.231098
0.22062
0.302615
-0.163473
0.525877
0.0924507
0.256656
0.238208
0.216112
0.228586
0.281329
0.288023
0.337079
31.6458
-1.19097
31.5457
0.286309
0.300886
0.213675
0.145733
0.348263
0.262942
0.283161