/*--------------------------------*- C++ -*----------------------------------*\
  =========                 |
  \\      /  F ield         | OpenFOAM: The Open Source CFD Toolbox
   \\    /   O peration     | Website:  https://openfoam.org
    \\  /    A nd           | Version:  10
     \\/     M anipulation  |
\*---------------------------------------------------------------------------*/
FoamFile
{
    format      ascii;
    class       surfaceScalarField;
    location    "8.9";
    object      phi;
}
// * * * * * * * * * * * * * * * * * * * * * * * * * * * * * * * * * * * * * //

dimensions      [0 3 -1 0 0 0 0];

internalField   nonuniform List<scalar> 
214403
(
-0.00678985
0.00520639
0.000287405
0.00129606
-0.00337036
-0.0113282
0.000965024
0.0137336
-0.0103387
6.89968e-05
-0.000141111
0.0104108
0.00893679
-0.00600917
-0.014979
0.0120513
0.0123994
-0.0156789
0.00373502
-0.000455507
-0.0054441
0.00567024
-5.51159e-05
-0.000171023
-0.000860309
-0.00163531
-0.00931114
0.0118068
-0.0171698
0.00976802
-0.00257873
0.00998052
-0.0235127
0.0165969
0.0167543
-0.00983843
0.0143361
0.00170179
-0.0160183
-1.9556e-05
0.0050834
-0.01007
0.002071
0.00291556
-0.0104397
0.00328542
0.00540916
0.00174507
0.000481999
-0.0115503
0.0139092
-0.00284098
-0.0100428
0.0101101
-6.7276e-05
0.0019369
0.0120431
-0.0154371
0.00145705
-0.0121644
0.0101737
0.00308284
-0.00109215
-0.0122373
0.0119414
0.000295949
0.00396056
-4.24601e-06
-0.00102486
-0.00293145
0.0158349
-0.0094774
-0.0210541
0.0146967
-7.63593e-05
-0.00312952
9.1749e-05
0.00311414
0.00645491
-0.00630345
-0.000151452
-0.0124961
-0.00432293
0.00429843
0.0125206
-0.00230716
0.0137706
-0.0110997
-0.000363815
0.00679262
0.000715295
0.00237057
-0.00987848
-0.0103413
-0.00496461
0.0133864
0.00191948
0.00927155
-0.0117437
7.02873e-05
0.00240183
0.00326222
-0.00285302
0.0106745
-0.0110837
0.00770711
0.0100823
-0.0121441
-0.00564532
0.0112862
-0.00707902
-0.000321377
-0.0038858
-0.00591147
0.00602596
-0.000114491
0.0024643
-0.00512877
0.0136683
-0.0110038
0.0142743
0.000676415
-0.00249214
-0.0124586
-0.0056705
-0.00581931
0.00595958
0.00553023
-0.00121388
-0.00684716
0.00606565
0.00199539
0.00447734
-0.00312195
-0.00952891
0.00817352
-0.00173279
0.00864406
-0.00312287
-0.0037884
0.0161823
-0.00039082
-0.0157915
-0.00696909
0.0135919
-0.00662282
0.00125835
-0.0149246
0.00864013
0.00502615
0.00248071
-0.000997292
0.00607195
-0.00755537
0.00577888
-6.10844e-05
-0.0057178
0.010346
-0.000223267
0.00183571
-0.0119584
-0.0131233
0.00164781
0.0139562
0.000869976
0.000893996
0.00871129
-0.0104753
-0.00415153
-0.0271471
0.0263244
0.00497426
0.00575138
0.00103842
0.00129997
-0.00808977
0.00428205
0.00324169
-0.0104621
0.00293835
0.0134992
0.00809143
-0.014798
0.00122077
0.0114509
-0.00232564
0.00183481
-0.00687029
-0.00404446
0.00907995
0.00312695
0.00480696
0.00142968
-0.00936359
0.00187412
-0.00140706
-0.00433849
0.00387143
0.00692221
-0.0125303
0.00873508
0.0120226
-0.0113187
-0.00388402
0.00318009
0.0107209
-0.00196384
-0.00868444
0.0117749
-0.000500597
-0.00258985
0.00894368
-0.0114352
0.000131286
0.00236019
-0.00839425
0.000554521
0.0134142
-0.00557444
-0.0154851
-0.0145478
0.0122195
0.0178133
-0.00828156
0.00833157
0.00163934
-0.00168935
0.00130603
-0.0105849
-0.00864107
-0.000179867
0.00449179
0.00432915
-0.0135498
0.00581815
0.00876672
-0.00103503
0.0158954
-0.0128037
0.000819711
-0.00391136
0.000731548
0.000266026
-0.0104928
0.00949519
0.000524672
-0.00287884
0.014236
-0.0118818
-0.0351537
0.00364614
0.0039029
0.0276047
-0.00324629
0.00956674
-0.00303673
-0.00328372
0.00469816
-0.00247438
-0.0100236
0.0077998
0.00112646
0.00700097
-0.00890069
0.000773262
-0.000175091
0.00859064
0.00298947
-0.011405
-0.00170547
-0.000270139
-0.00355179
0.0055274
-0.0090803
0.00992738
-0.000378256
-0.00046882
0.000318061
-0.00916974
-0.00641478
0.00568173
0.00172469
-0.000991638
-0.017098
-0.00107926
0.00834476
0.00983255
-0.0051846
-0.00220964
0.00441124
0.002983
0.00760094
-0.0254931
0.00353481
0.0143573
-0.00398251
0.00801522
-0.00437731
0.00034461
0.00572046
-0.00444029
0.000566406
-0.00184657
0.00012908
-0.0107167
0.0105877
3.22677e-05
0.00870194
-0.00873421
0.00769245
-0.00150574
0.00102014
-0.00720685
-0.00458277
0.00653868
0.00216719
-0.0041231
-0.00324093
0.0138073
-0.00331818
-0.00724824
0.00651583
-0.0111028
-0.000424065
0.00501107
0.00745815
0.00789694
-0.0153551
0.0109991
-0.0123607
0.0031675
-0.00180583
0.00106768
-0.00198435
0.0143592
-0.0134425
0.000412749
-0.0023226
0.0103433
-0.0084334
0.00245387
0.0216454
0.00623784
-0.0303371
-0.0189298
0.0166552
0.0107942
-0.00851964
0.000869653
0.00666739
-0.00896487
0.00142783
0.00881734
0.00980518
-0.0032097
-0.0154128
0.0164096
-0.00996848
-0.000328686
-0.00611245
0.000714964
-0.00209592
-0.00658103
0.00796199
-0.00666039
3.78273e-05
0.00662256
0.00996753
0.000344533
0.000687007
0.012385
0.00104572
-0.0188208
0.00539009
-0.00993044
0.00219349
0.0017644
0.00597255
-0.00628525
0.00155848
0.000772917
0.00395385
0.00154577
0.00110552
-0.0131078
0.0104565
-0.0026938
-0.0156773
0.00999517
0.00837588
0.00626832
-0.00741539
-0.00483222
0.00597929
0.0101339
-0.00011044
-0.0101339
0.000110443
0.00777885
-0.0109931
-0.00381842
0.00703265
0.0201277
-0.0060901
-0.0031368
-0.0109008
0.0113892
-1.88918e-05
-0.0104766
-0.000893672
-0.00573523
0.00675514
0.0140778
-0.0150977
0.0123007
-0.00432036
-0.0118287
0.00384838
0.00226235
-0.00330834
0.0143937
-0.0133477
-0.0162616
0.0148213
0.01405
-0.0126096
0.000732365
-0.0126587
0.00488623
0.00704007
0.015843
-0.000840057
-0.000321685
-0.0146812
0.0111421
-0.00217197
0.00215425
-0.0111243
-0.0129386
-0.0117657
0.0139257
0.0107786
-0.00245017
0.00702866
0.00190474
-0.00648324
-0.00554865
0.000302438
0.0107545
-0.00550825
-0.00123494
0.0139101
-0.0129467
0.000271507
-0.0119625
0.01111
0.00216315
-0.00131068
-0.000401662
-0.00698189
0.0166551
0.00221796
-0.00739554
-0.00540221
0.0105798
-0.00587306
7.73684e-05
0.00579569
0.00180051
0.00818752
-0.00757378
-0.00241425
0.0130287
-0.0075119
-0.00199579
-0.00352104
8.91545e-05
-0.00383172
0.00374257
-0.00735788
-0.00198206
0.00276276
0.00657718
0.000755842
0.00416235
-0.00934004
0.00442185
0.0159052
-0.00143603
0.00621641
-0.0206855
0.00114489
-0.00140515
-0.0193353
0.0195956
0.00124747
-0.00552587
-0.00731227
0.0115907
0.000467997
0.0100607
-0.000561156
4.03318e-05
-0.00590387
0.00586354
0.0122728
-0.00455102
-0.0055038
-0.00744154
0.00621647
-0.0061328
0.0135288
-0.0112593
-0.00136382
-0.000905682
0.00135834
-0.00642358
0.00280842
0.00225682
-0.0110438
-0.00334351
0.00224455
0.0121427
0.0091889
-0.0149307
0.00983763
-0.00409586
-0.000409265
0.0134825
-0.0135017
0.000428466
-4.37395e-05
0.0122789
-0.0121663
-6.89189e-05
-0.0171611
0.0136957
-0.0109934
0.0144588
0.0143165
-0.0138555
-0.000461002
-0.013114
0.0175659
-0.00321215
-0.00123975
-0.0117197
0.00281771
-0.000881822
0.00978379
-0.0193273
0.00148941
0.0124268
0.00541116
0.00343987
-0.00469751
0.00261598
-0.00472007
0.00536674
0.0086337
-0.00928037
-0.0051497
-0.00231112
0.00294704
0.00451379
-0.00695802
0.00455287
-0.00879546
0.0112006
0.00209427
0.000168143
-0.0153764
-0.00684024
0.00682616
1.40808e-05
0.00749994
-0.00721043
-0.000289518
-0.0113216
-0.00074009
-0.00301337
0.00279568
-0.0149022
0.0173577
-0.00525111
0.00671259
0.0115518
-0.0146904
-0.00357395
0.0128243
-0.013929
0.000374
0.00073076
0.00682858
0.00177534
-0.00705884
-0.00154508
-0.0107971
-0.000600783
0.0141936
0.00619764
-0.000448101
-0.00755517
0.00180563
0.00698384
-0.00597973
0.00688825
-0.00789236
-0.012211
0.00229319
0.0166304
-0.00412349
-0.00578687
0.0191055
-0.00919512
-0.00589028
-0.00648562
0.00157878
0.00175852
0.00465443
-0.0123032
-0.00832493
-0.00073416
0.0133772
-0.00431813
0.0012977
0.00204686
0.00744193
-0.0107865
-0.00397323
0.00972605
-0.00575282
0.00315021
-0.0150766
0.00544081
0.00898335
0.0062741
-0.0134989
-0.0127218
0.000153045
0.0158532
-0.00328449
0.00214174
0.00183486
0.00573512
-0.00971172
0.00852856
-0.00859182
6.32653e-05
0.00322028
-0.00121577
0.0108109
-0.0128154
0.0113101
-0.00358604
0.00543867
-0.0131627
0.0207772
-0.00667947
0.0155053
-0.0296029
0.00340709
0.00633867
-0.00263319
-0.00711256
-0.00937883
0.00385903
0.00491923
0.000600568
0.00672063
-0.00506394
-0.000138674
-0.00151802
-0.00437779
-0.00555298
0.0161684
-0.00623759
-0.00753327
0.00977124
0.00390306
-0.00614104
0.0113362
-0.000619895
-0.00373246
-0.0176612
0.011673
-0.000969748
-0.0168433
0.0155396
0.00721619
-0.0059125
0.0107436
-0.0121081
-0.00174709
0.00311155
0.00606586
-0.0109586
-0.00574096
-0.00624979
-0.0057356
0.00324114
0.00874425
-0.00892152
0.00277012
0.00880569
-0.0026543
0.0103043
-0.00980322
-0.00674859
0.00624749
6.43894e-05
-8.9404e-05
-0.0096491
0.00967412
0.000232929
-0.00849205
-0.000322673
0.0085818
-0.00244073
-0.0144714
0.0022724
-0.00836411
0.00752374
-0.00143203
-0.00570772
-0.00240611
-0.000807698
-0.00019411
0.0143262
0.000203983
-0.0341925
0.0240517
0.0173805
-0.00723969
-0.0101008
0.000687015
0.000366907
0.00904689
-0.00201142
0.0320187
-0.0376729
0.00766554
0.0015938
0.00245843
-0.00551672
0.00146448
-0.0216295
0.0116564
0.00150703
0.00846611
-0.000256095
-0.0143647
-0.00204331
0.0166641
-0.00598989
0.0216521
-0.0150182
-0.000644023
0.0097149
0.014124
-0.0130542
-0.0107848
-0.0115947
0.0110414
0.0137149
-0.0131616
0.00448409
0.00626589
-0.00780462
-0.00294537
0.00447333
-0.00301804
-0.00716301
-0.0230363
-0.000905993
0.018821
0.0051213
0.00674965
0.00103056
-0.00392118
0.00694936
0.0093027
-0.00858974
-0.00766232
-0.0115008
0.00256201
0.0112182
-0.00227937
0.00136897
0.00361068
0.0125862
-0.0133484
0.0131819
0.00127758
-0.00111109
0.00823376
0.00645671
-0.00581913
-0.000230524
-0.00163712
0.00768677
-0.00882475
-0.00175351
0.00491049
-0.0170322
0.00724179
0.00487996
0.000518391
0.00917896
-0.0101858
0.000488467
-0.00354138
0.00068484
-0.00329277
0.00614931
0.0142018
-0.0101512
0.000422683
-0.00804424
-0.00629257
0.0084652
0.00587162
0.0304074
-0.0325287
0.0106248
-0.00850362
-0.00582388
0.00723654
0.00291506
-0.00432773
-0.0133324
0.00579592
0.0116251
-0.00408858
-0.00578445
0.00839655
0.0107986
-0.0134107
0.0162346
-0.00628137
-0.0107493
0.000796078
0.000282961
-0.00395049
0.00961023
-0.0059427
-0.00167053
0.00165727
-0.0127085
0.0116465
0.00378717
-0.0124675
-0.00296621
0.0146315
-0.0120017
-0.0032306
0.00308041
0.00455898
-0.010776
0.00313656
-0.00599513
-0.0110037
0.00977018
0.00722864
-0.00183473
-0.00476455
-0.00144496
0.00597666
-0.00638656
0.0137617
-0.0133518
0.00144835
-0.0166685
0.0152202
0.00568441
-0.0074331
0.0048291
0.0030732
0.00177001
0.00251984
-0.00736306
-0.000310635
-0.0138802
0.0141908
-0.00755907
0.00100408
-0.00245281
0.00900779
-0.000907784
0.0105076
-0.00957772
-2.20803e-05
-0.00713862
-0.00377793
0.00412208
0.00679447
-0.00266166
-0.0063117
-0.00586259
-0.00861692
0.00718726
0.00729225
0.000316174
-0.00884042
0.0152697
-0.00627855
-0.00081285
-0.00817829
0.00807835
-0.00077041
-0.0058937
-0.00141424
-0.00129238
0.0113917
-0.0142256
0.00412624
0.00736122
0.000283218
0.0035835
-0.0112279
-0.00027
-0.00605165
0.00292034
0.00340132
-0.00418205
0.00544254
0.0105217
-0.0117822
-0.0148133
-0.00384373
-0.00414772
0.0136759
-0.0126541
0.000298306
0.00397086
0.00838489
0.0012185
-0.0044899
-0.00799744
0.0112688
-0.00579617
-0.0113141
0.0028548
0.0142555
-0.00530385
-0.00588389
0.00611353
0.00507421
-0.0137072
0.0131932
0.0139219
-0.0134079
-0.00185442
-0.00323656
-0.00974868
0.0148397
-0.0133485
0.0013633
0.0135852
-0.00159998
-0.00231731
0.00623459
-0.00391728
-0.00540871
0.00999787
-0.00752661
0.00293745
-0.000235449
0.0179963
-0.00667965
-0.0110812
-0.00643783
-0.00311073
0.0129222
-0.00337361
0.00207695
-0.00544911
0.0123653
-0.00899316
0.000565094
0.00801306
-0.00140384
-3.69934e-05
-0.0131735
0.0131637
4.68577e-05
0.0149897
-0.00265444
-0.021909
0.00957377
-0.013843
-0.00135659
0.0172841
-0.00208451
-0.00751313
0.0113508
0.000931861
-0.00476957
0.00669654
-0.00661365
-8.28926e-05
-0.00801915
0.000773167
-0.00692005
0.014166
-0.011574
0.0159499
-0.00332582
-0.00105013
0.0072131
-0.00302536
-0.00869756
0.00450981
-0.0139398
0.0140656
-0.000125798
0.0114859
-0.0167023
0.00135079
0.00386558
-0.0130138
-0.0035628
0.0222555
-0.00567887
0.00960082
-0.00039969
-0.00201706
-0.00718407
-0.00547439
-0.00928308
0.0207341
-0.000976415
-0.0137001
0.00828997
0.0215928
-0.0240906
-0.00228603
0.00478384
0.00575875
0.00274556
-0.00636257
-0.00603269
0.00628781
-0.000255127
-0.00246419
0.0137666
-0.000873799
-0.0104286
-0.0029976
0.00355543
0.0119575
-0.0125153
0.00781137
0.0183303
-0.0107262
-0.0154155
0.0133808
-0.0160541
0.00510371
-0.00243036
0.0121906
0.00017045
-0.0123611
0.000225768
0.0118648
-0.0120905
0.0133753
-0.0161904
0.014301
0.000146112
-0.000123194
0.0104029
-0.0104258
0.00026591
0.0189627
-0.0188897
-0.000338974
-0.00162055
-0.00479222
-0.00969859
0.0161114
-0.00593306
-0.0035561
0.00119144
0.0112226
-0.0195313
0.00711729
-0.00949265
-0.0024891
0.0101775
0.00180423
-0.0111783
0.012344
-0.00329715
0.00213146
0.0017661
0.00920252
-0.00313046
-0.00783816
-0.00446914
0.00111377
0.00757497
-0.00421959
-1.17642e-05
0.00341182
-0.00427508
0.000875017
-0.00476693
0.0116624
-0.0067238
-0.000171642
0.00348693
-0.0110004
-0.00642633
7.80055e-05
-0.0102592
0.0101812
-0.00380089
-0.00364698
0.00169149
0.00575638
0.00574337
-0.00331336
-0.00243
0.0143508
-0.0142527
-0.00290697
0.00280891
-0.0013027
-0.0084757
0.00781565
0.00196275
-3.56148e-05
4.77664e-05
0.00767396
-0.00768611
0.00382789
-0.00314596
-0.0121793
0.0114974
0.00883802
-0.000223263
-0.00861476
-0.0129429
-0.00838081
0.01249
0.00883369
0.00758724
0.0118903
-0.0204539
0.00720382
-0.00259208
0.00405579
-0.00866753
-0.00288401
0.00286095
-0.0158685
0.0158915
0.00449763
-0.00885726
-0.00862
0.0129796
-0.000909821
-0.00203869
0.00960451
-0.006656
0.00669962
-0.00823427
0.00298392
-0.00144927
0.00365264
-0.00605441
-0.00585192
0.00825369
-0.0118013
0.0132891
-0.0035402
0.00205246
0.0134172
0.017254
-0.0190006
-0.0116706
-0.0103908
0.0103466
4.41431e-05
-0.00116323
0.0122782
-0.0153374
0.00422245
0.000476882
-0.000780003
-0.0117914
0.0120945
0.0116247
0.000487784
-0.0133752
0.00126272
-0.00494107
-0.00835198
0.0105033
0.00278972
-0.0119402
0.0169172
-0.00599008
0.00101306
-0.0049424
-0.00603707
0.00358393
-0.000733608
-0.00012489
-0.00849669
0.00935519
-0.0277575
0.000113769
0.00249194
0.0251518
0.00110004
-0.00706898
-0.00365872
0.00962766
0.017334
-0.00142452
-0.00561093
-0.0102985
-0.00309559
-0.00668084
0.00130129
0.00847514
0.00485836
-1.88547e-05
-0.0048395
0.00814101
0.0043382
-0.00270024
-0.00977897
0.00630701
-0.00499494
0.0124417
-0.0137537
0.000409594
0.0129424
-0.00427711
-0.00907486
0.00314198
0.00448432
0.00970766
-0.00621342
0.000440922
0.0057725
-0.00806505
0.00114059
0.0021404
0.00135348
-0.0111604
0.00766654
-0.0105401
0.0154226
0.00467273
0.0159383
-0.00338025
-0.0172308
-0.0101166
0.00993667
-0.0157248
0.0159047
-0.00152228
-0.00763404
0.00267019
0.00648612
-0.00841169
0.0158698
0.0047096
-0.00548295
0.00122778
-0.000454426
-0.00519619
-0.0165745
0.00518812
0.0165826
0.01089
-0.010868
-9.88015e-05
7.68603e-05
0.00880925
-0.0102808
0.00219092
-0.000719336
0.00225957
0.00884056
-0.0157484
0.00464826
3.7643e-05
0.00760821
-0.00764585
0.00492421
-0.012621
0.00995632
-0.00476052
0.0127805
0.0107655
-0.0187855
0.00363603
-0.0036985
-0.017206
0.0172685
-0.00518505
0.0085898
-0.01723
0.0138253
-0.0123535
0.00983607
0.0128979
-0.0103804
-0.00775649
0.0106267
-0.00686582
0.00399563
-0.00162711
0.00708906
0.00115328
-0.00661523
0.00361133
-0.00526553
0.00543018
-0.00377598
0.00677857
0.00252216
0.00222958
-0.0115303
0.0193572
-0.0131425
-0.000790649
-0.00542406
-1.05754e-05
-0.00938455
0.00939512
0.00587753
-0.0085956
-0.0263542
0.0290723
-0.00118028
-0.0127768
-0.00387405
0.0178312
-0.000778084
-0.00589213
0.00667021
0.00179076
0.00849418
-0.00134136
-0.00894359
-0.00237704
-0.00857989
0.0069242
0.00403272
0.00660346
-0.00553031
-0.00971422
0.0168882
-0.0131442
0.00370719
0.00392733
-0.00763452
0.0127382
-0.000341318
-0.00153114
-0.0108657
-0.00244232
-0.00415402
0.00659634
0.00456748
0.00303487
0.0254898
-0.0306559
-0.01083
0.0159961
0.00392324
0.00835797
-0.00639262
-0.0058886
-0.00892607
0.01708
0.0113563
-0.0195103
0.0100529
0.00348913
-0.0013459
-0.0121961
0.0166744
-0.0111184
0.00717499
-0.012731
-0.00931696
0.00426004
-0.0116786
0.0167355
-0.0151772
0.0272014
-0.0106622
-0.00136204
-0.000400164
-0.00651389
-0.0089766
0.0158907
0.0123233
0.00509096
-0.0144607
-0.00295358
0.00659072
-0.0175711
0.0110915
-0.000111093
-0.0155456
-0.000592367
0.010172
0.00596595
-0.00311852
0.00806278
0.00350596
-0.00845022
-0.0019772
0.00792945
0.00637843
-0.0123307
-0.016191
0.00832933
-0.000789931
0.00865158
0.00149001
-0.00442686
0.00879417
-0.00585733
0.00685169
-0.0034467
0.00244565
-0.00585064
0.00664969
0.00127875
0.000654469
-0.00858291
-0.00985458
0.0105733
0.00391618
-0.00463493
-0.00232781
0.0124594
0.000252693
-0.0103843
0.0100508
-0.00590093
-0.0038975
-0.000252356
0.00871425
6.76575e-05
-0.00878191
0.00637045
0.00493263
-0.00111857
-0.0101845
0.00296971
0.00783775
0.00670869
-0.0175162
-1.73668e-05
-0.0140893
0.0141067
-0.00735569
0.0284545
-0.00414654
-0.0169523
-0.000135334
0.0106029
-0.0104676
-0.000710431
-0.00765516
0.00137492
0.00699067
-0.0138352
0.00704849
0.00535254
0.00143413
0.00282277
0.00234911
-0.0161787
0.0110068
0.00827873
0.0130774
-0.00488761
-0.0164685
0.0124422
-0.00426294
-0.0119091
0.00372992
-0.0155577
0.00887078
0.023712
-0.0170251
-3.95854e-05
0.00593827
-0.00593834
3.96566e-05
-0.00614403
0.00607996
6.40733e-05
-0.0158262
0.000243471
0.00665671
0.001767
0.0038212
0.0104583
-0.0160465
0.00827341
-0.00984035
0.00634667
-0.00477973
-0.00787631
0.00689835
-0.000261472
0.00123943
-0.00165683
-0.0129792
0.0166251
-0.00198901
-0.00580027
0.00279306
0.00918381
-0.0061766
0.0100834
-0.00388676
0.00148795
-0.0076846
-0.00671645
-0.00117094
0.00786248
2.49109e-05
-0.0011477
-6.1611e-05
0.0109012
-0.00969189
0.00139461
-0.00117106
0.0109512
-0.0111747
-0.0098508
0.0137677
-0.0144254
0.0105085
6.7785e-05
-0.0124191
0.0123513
-0.00442091
0.000388095
0.0111457
-0.0071129
-0.00850571
0.0099441
-0.0135612
0.0121228
-0.00871366
0.000659621
0.00265183
-0.00402608
0.0109086
0.000606113
-0.00748864
-0.00291086
0.000406747
-0.00493743
-0.00429373
-0.013949
0.0140124
0.00423036
-0.00621398
-0.000728183
-0.00156141
0.00850358
-0.0212955
0.00719876
0.00209727
0.0119995
-0.00675639
0.0154433
-0.00766775
-0.0010192
0.00471374
0.00184804
-0.00947264
0.00927995
0.00946349
-0.0187434
0.00125041
0.02033
-0.00470333
-0.0168771
-0.000257819
-0.00036014
-0.00894954
0.00956749
-0.00976655
0.0160907
-0.00648629
0.000162179
0.00927316
-0.0058565
-0.00840414
0.00498747
0.00230722
-0.000309387
0.00282426
0.0142475
0.00398589
-0.0206192
0.00238577
-0.009863
-0.00128753
0.00323473
0.00791581
0.00374527
-0.00415166
-0.00563069
0.0171709
-0.0115505
0.00897439
-0.0145947
-0.00189946
0.0110859
-0.0191734
0.00998697
0.00666283
-0.00842001
-0.00085328
0.00261046
-0.00738421
-0.00256951
-0.000249415
0.0102031
-0.0054944
-0.00519607
0.0106905
0.00137895
-0.0147402
0.0130735
0.000287698
0.00565482
-0.00545251
-0.00569671
-0.0092255
0.0117084
-0.00223062
-0.00025225
0.0132116
0.00363293
-0.0142348
-0.00260975
-0.00510014
-0.00746272
-0.000857973
0.0134208
0.00834884
-0.00254022
0.00968126
-0.0154899
-0.00932572
-0.000525084
-0.0111772
0.00598113
0.00144226
-0.012547
0.00401455
0.00709018
0.00363792
-0.0130261
0.00717488
0.00221329
0.0019462
0.000511676
-0.00976631
0.00730843
0.00149853
0.00640921
-0.000430848
0.0109508
-0.00216389
-0.00835602
-0.00429923
-0.000436045
-0.00401964
0.00875491
-0.00254213
-0.00342446
0.00654756
-0.00058097
-0.0101956
-0.000145651
-0.0172497
0.00619257
0.00907988
0.0245096
-0.000199111
0.00334041
-0.0276509
-0.0107162
0.0166531
0.00337545
-0.00931236
-0.00305537
0.00167581
0.0105524
-0.00917282
0.00128174
0.00363917
-0.00281529
-0.00210561
-0.0184333
-0.00380332
0.0159086
0.00632804
0.00040216
0.00775784
-0.00155654
0.000237621
0.00392001
-0.0123007
0.00814308
-0.00763179
-2.69881e-05
0.00281425
0.00484453
-0.0104028
0.012856
-0.00205099
0.00587033
-0.0052935
-0.000576835
-0.00869005
0.00125287
-0.00674985
0.014187
-0.0039141
0.0058901
-0.00453985
0.00256386
-0.00842541
0.00948807
-0.0039208
0.00285814
0.00380604
-0.000625192
-0.00904806
0.00586721
-0.00376807
0.0236193
-0.0317914
-0.00345245
-0.00240954
0.00235928
0.0035027
0.0112588
-0.0175752
-0.000797784
0.00711424
-0.00476802
0.00355817
0.0061316
-0.00492175
-0.00141249
0.00753045
-0.00207701
-0.00404096
-0.00847601
0.00188043
0.00198108
0.0046145
-0.00469652
0.000403611
0.00429291
0.0109014
-0.00519101
-0.00553121
-0.000179195
0.000793905
0.00540917
-0.00821028
0.0020072
-0.00583636
-0.00707512
0.00721451
0.00569697
-0.00300837
0.00776558
-0.00666106
0.00190385
0.00281922
-0.0053371
0.00367857
-0.00116069
0.0101891
0.000276236
-0.0104653
0.00877594
-0.0108048
0.00534659
-0.00331769
-0.013778
-0.000404227
0.0141822
0.00569064
-0.00472074
0.00110052
-0.00207042
-0.000447263
0.00976535
-0.010659
0.00134096
-0.00491228
0.00614976
0.00158175
-0.00541833
0.0116091
0.0107265
-0.00926813
0.0091878
8.03284e-05
0.000255409
-0.014651
0.0143956
0.0197877
0.00239267
-0.00422096
-0.0179594
0.00413098
-0.0161217
-0.00199762
0.0139884
0.00314927
0.00372471
0.00209016
-0.00896414
-0.00554687
-0.00555365
7.53422e-05
0.0110252
-0.00264525
0.00363599
-0.00653761
-0.012205
0.0022037
0.0160219
-0.00602066
-0.0239531
0.017542
0.00772102
-0.00130989
0.0105938
9.20749e-05
-0.0106858
-0.00599708
-0.00806874
0.00521889
0.00884693
-0.00604548
-0.00877982
0.00262033
-0.00871523
0.00473105
0.00548272
0.00353386
-0.00459518
-0.00843313
0.00949444
-0.00597037
4.0317e-06
0.00596633
-0.0138805
0.00564294
0.00573005
0.00250754
0.0035182
-0.00939895
-0.00283447
0.0119295
-0.00378332
-0.000301335
-0.0078448
-0.00800307
0.0132606
0.0078717
-0.0131292
-0.00234231
-0.00492132
0.00180455
0.00545908
-0.00338769
-0.00272466
0.00611235
-0.00589023
-0.0123807
-0.00568221
0.00275713
3.54747e-05
0.00556307
-0.00835567
0.0113367
-0.00825638
-0.0119399
0.0088596
-0.0042059
0.00149917
0.00849887
-0.00579214
0.00800027
-0.0056321
-0.000793193
-0.00157498
-0.00917391
0.00148915
0.00716584
0.000518921
-0.00568474
0.0130634
-0.014147
0.00551572
0.000409328
0.00822195
0.01324
-0.010577
-0.00832501
0.00566201
-0.010525
0.00219149
0.0196702
-0.0102566
-0.00676151
0.0110384
0.00597969
-0.00119821
0.0106831
-0.00405248
-0.00543242
0.000605188
-0.00626065
-0.00412999
0.00978545
0.0121622
-0.00802342
-0.000493507
-0.00364526
0.0037473
0.00279938
-0.00919192
-0.00255654
0.00289459
0.00713853
-0.00747658
-0.00211348
0.0110502
-0.0136206
0.00468386
-0.00660491
0.00159306
0.00159858
0.00341327
-0.0145268
0.0147777
-0.000250875
0.00999339
-0.00984909
-0.000144293
0.00402001
-0.0155297
-0.00596276
0.0174724
0.0035655
0.00678256
0.0015814
-0.000171561
0.00594459
-0.00577303
0.00948478
0.00850172
-0.0179865
-0.0105807
0.00645927
0.00456565
-0.000444184
-0.0059424
0.00195809
0.00483123
-0.000846922
-0.017717
0.0082681
0.00971697
-0.000268094
-0.00575926
-0.00642124
0.00621014
0.00908398
-0.00142955
-0.00585575
-0.00179868
-0.00981721
0.0106056
-0.00647313
0.00172933
-0.0109725
-0.000560621
0.00980383
-1.24552e-05
-0.00536722
0.00537968
0.0264912
0.000213399
0.0028147
-0.0295193
-0.000992776
-0.00194201
-0.0143059
0.0172407
0.00460538
-0.00623531
-0.0029083
0.00453824
0.00178099
0.0137
-0.00553366
-0.00994728
0.0149459
-0.0149546
-3.57693e-05
4.45119e-05
-0.0083831
-0.00756416
0.0118227
0.00412456
0.0048945
0.00374741
-0.00975614
0.00111423
6.84008e-05
0.00907125
-0.00927036
0.000130707
-0.0124882
0.00399851
0.0101209
-0.0016312
0.00962086
0.0058164
-0.00973992
-0.00569735
0.000226525
-0.00854123
0.00434238
-0.00222498
0.0128285
-0.00692777
-0.0009022
-0.00108138
0.00891135
-0.0115151
0.000605782
0.0109093
0.0168764
0.00729224
-0.00546931
-0.0186994
-0.0110199
0.000236413
0.01101
-0.00101205
-0.00263474
-0.00672688
0.0103737
-0.00134652
-0.00132401
-0.00354342
0.00621394
0.00277774
-0.014091
0.0106241
0.000689161
0.00874769
-0.00136505
-0.0085116
0.00112896
-0.0108512
0.00227692
0.000888293
0.00768596
-0.00412046
0.00269596
-0.00555431
0.0069788
0.00237359
0.00150435
-0.013974
0.010096
0.0004883
-0.00946343
-0.000659297
0.00963443
0.00939251
0.0012286
-0.000158284
-0.0104628
-0.0112062
0.00261115
0.0101408
-0.00804638
-0.0106847
0.0187311
0.0155384
-0.00792193
0.00334155
-0.010958
0.0012201
0.00874107
-0.00535579
-0.0125526
0.0023155
0.00444413
0.00579298
0.0154864
-0.0159433
0.000456926
-0.00934211
-0.00317189
0.00653922
0.00597478
-0.0121458
-0.00943589
0.0063251
0.0152566
0.0127076
-0.013272
-0.00162398
0.00218837
-0.00184824
0.00616612
-0.00485988
0.000542001
-0.0158738
0.00517463
0.00364732
0.00705183
-0.0233533
0.0290977
0.00480496
-0.0105494
0.0104113
-0.022595
-0.00115136
0.013335
-0.00927295
0.0117771
-0.0218269
0.0193227
-0.00975282
0.0214957
0.00213368
-0.0138766
0.000855961
0.0101764
-0.00237375
-0.00865866
0.0154687
-0.0116023
-0.000389719
-0.00347669
-0.00272456
-0.00261705
0.00399905
0.00134256
-0.00735008
-0.0152675
0.0130085
0.00960904
-0.0103753
0.013821
0.0120229
0.00840386
-0.00617796
-0.00769929
0.0054734
0.00312672
-0.00404584
-0.00178702
0.00270615
0.00691793
-0.00684055
-0.00911823
0.00904084
-0.00280599
0.00804944
-0.000582451
-0.004661
-0.0111217
-0.00177219
0.0137498
-0.00841053
-0.00206806
0.010398
8.05909e-05
0.00341809
-0.0076365
0.00421841
0.00273496
-0.00363258
0.0135378
-0.0126402
0.0105537
-0.0148395
0.00214761
0.00213815
0.00672333
-0.00725486
0.000531535
-0.0106588
0.000283516
0.00956179
-0.00364066
-0.00922396
0.00330283
0.00299374
0.00243149
0.0106601
-0.0160854
0.006552
-0.00711432
0.000562327
-8.17261e-05
0.00831203
-0.00939686
0.00116656
-0.0117125
-0.00112965
0.0155771
-0.00506745
-0.00086758
0.00117101
0.00476402
0.00070024
-0.0057868
0.00426841
0.000818144
0.00947429
-0.00906839
-0.00225414
0.00108371
0.0156065
-0.00982854
-0.00686169
-0.00538062
0.0113788
-0.00599814
-0.0145447
0.00556984
-0.00341407
0.0123889
0.0114515
-0.0103804
-0.0169449
-0.00555433
-0.00664643
0.0228429
-0.0106421
-0.0163663
0.0104219
0.0148571
-0.00891262
-0.000366719
-0.0139639
0.0143306
0.0221586
4.49197e-05
-0.0127667
-0.0094368
0.0128412
-0.00827083
-0.00114269
-0.00342769
-0.0093708
0.00665421
-0.00168313
0.00439972
0.000127695
-0.00960763
0.00947993
-0.00706312
0.0072698
-0.000206683
-0.00511225
-0.00540101
-0.0138428
0.0243561
-0.0130375
0.00284378
-0.00145807
0.0116518
0.00301292
0.00488926
0.0133682
-0.0120639
-0.00997673
0.00867245
-0.00371546
-0.00765825
0.00844984
0.00292387
-0.00771806
-0.00392551
0.0116543
-1.07249e-05
0.00251992
-0.00145107
-0.00713502
0.00606617
0.00851974
0.000377197
-0.010889
0.00199206
0.00262771
-0.00182603
0.00281088
-0.00339121
0.00337867
-0.00279834
0.00696171
0.00682102
-0.00696335
-0.00681938
0.0034248
0.00799844
-0.00827554
-0.0031477
0.00727898
0.00315684
-0.00572207
0.00900061
-0.0109139
0.00229048
-0.0119588
0.00836007
0.0045006
-0.000901857
0.0142395
-0.00471355
-0.0149066
-0.00379979
0.0101513
0.00509991
0.00989622
-0.00482113
-0.00833385
-0.00226966
-0.0013553
-0.0133024
0.0124485
0.00116928
-0.000315353
-0.000827246
0.0166246
-0.00172306
-0.0140743
-0.0108457
0.00220946
0.00483648
-0.00174592
-0.0110262
0.0030983
0.0096738
0.00993472
0.00137768
-2.42375e-05
-0.0112882
-0.014834
-0.000125733
0.000103409
0.0148563
-0.00380836
0.00417345
-0.00677058
0.00640549
-0.0102168
0.012922
-0.00133428
-0.00137086
0.0134237
-0.0125355
-0.011105
-0.00993726
0.00895944
-0.00284519
0.00382301
0.00804284
-0.000362599
-0.0025297
-0.00515054
-0.0150201
0.0144861
0.00709724
-0.00656325
0.00710174
0.00270488
-0.000901809
-0.00890481
0.0025784
0.00653337
-0.00817197
-0.000939788
-0.00483624
0.00486423
-2.79848e-05
-0.00283001
-0.00722672
0.00725074
0.0108587
-0.0107641
-9.45993e-05
-0.00615549
-0.00489619
0.00481637
-0.000640525
-0.00736304
-0.000801587
0.00880516
-0.000831445
-0.00640099
0.00572199
0.00151045
0.0101317
-0.0115159
0.00138427
-0.0128919
0.0132379
0.0121086
-0.0124547
-0.0086897
0.0067119
-0.00457351
0.0065513
-0.00346454
0.00148063
0.00313661
-0.0011527
-0.000366307
0.015692
-0.000137226
-0.0151885
-0.00790702
0.00383343
0.00389372
0.00452353
0.00575692
-0.0100445
-0.000235928
0.000436113
-0.0124759
-0.000490581
-0.0113447
0.0113397
5.06668e-06
-0.00760307
0.0038279
-0.00837067
0.00258609
-0.00572331
0.000228918
0.00496078
0.00215407
0.00752476
0.000146796
-0.00643478
-0.00123678
0.00629953
-0.0157176
0.0126016
-0.00318351
0.00260129
-0.00354461
0.0131817
-0.0122384
0.0161513
0.00476761
-0.0024833
-0.0184356
-0.00411858
-0.00675326
-0.00218941
0.0130612
0.00488967
0.0203759
-0.0184003
-0.00686532
0.00234829
0.0147564
-0.0142456
-0.00285906
-0.00509338
0.000671758
0.0104395
-0.00601785
-0.0017832
0.0144958
-0.00782292
0.0104815
-0.00827459
-0.00323127
0.00102434
0.00343395
0.00898839
-0.0124223
0.00842613
0.00186983
-0.001123
-0.00917295
-0.00774783
0.00619151
0.000622976
0.000933341
-0.000754043
-0.0109337
0.000636674
0.0110511
-0.00803047
-0.00101996
-0.000336991
0.00938742
0.00463363
-0.0102753
0.000101953
0.00403933
0.00613404
9.00007e-05
0.0066725
-0.0067625
0.000824864
0.011684
-0.0298592
0.0173503
0.00328675
-0.00828172
0.0078684
-0.00287344
0.00471751
0.00538513
-0.00373006
-0.00637258
4.9017e-05
-0.0059871
0.00593809
-0.00323729
-0.00229637
0.0131099
-0.00757626
-0.00399793
0.0133562
-0.01153
0.00217174
0.0146634
-0.0101882
-0.00984045
0.00536533
-0.00602652
0.00407497
0.00186583
8.57189e-05
-0.000800084
0.00459823
-0.00247148
-0.00132666
0.0157269
-0.0122929
0.00732759
-0.000846773
-0.0119947
0.0055139
-0.00334575
0.00312842
0.00374823
-0.0035309
0.000191035
0.015038
-9.57242e-05
-0.0151333
-0.0109699
-0.00361456
0.0148718
-0.000287326
-0.00312007
-0.0013291
0.00342394
0.00443889
-0.00653373
0.00887552
0.00626484
-0.0132796
-0.00186078
-0.00273302
-0.001779
-0.0118739
0.016386
0.0156402
-0.0123708
-0.0217987
0.0185293
-0.00609934
-4.51089e-05
0.00614445
-0.00737558
-0.00389897
-0.00123067
0.0125052