/*--------------------------------*- C++ -*----------------------------------*\
  =========                 |
  \\      /  F ield         | OpenFOAM: The Open Source CFD Toolbox
   \\    /   O peration     | Website:  https://openfoam.org
    \\  /    A nd           | Version:  10
     \\/     M anipulation  |
\*---------------------------------------------------------------------------*/
FoamFile
{
    format      ascii;
    class       volScalarField;
    location    "8.9";
    object      SgRate;
}
// * * * * * * * * * * * * * * * * * * * * * * * * * * * * * * * * * * * * * //

dimensions      [1 -1 -3 -1 0 0 0];

internalField   nonuniform List<scalar> 
111485
(
3.66602e-17
9.50168e-06
2.87274e-05
7.90961e-19
5.89348e-05
1.45714e-18
5.53743e-05
7.23685e-06
2.30049e-05
1.44362e-06
5.58976e-05
1.12406e-05
5.75552e-06
1.05428e-06
7.86107e-06
3.63821e-05
1.68991e-06
0.00312706
1.24933e-05
3.40302e-18
7.20507e-18
1.64662e-18
3.161e-05
4.14467e-05
1.06525e-05
9.94041e-20
4.76953e-05
2.18378e-06
1.79663e-05
1.2963e-18
5.49822e-05
2.27566e-05
5.15147e-18
1.35303e-17
7.97282e-06
1.307e-17
1.32234e-05
5.01129e-06
4.7787e-11
2.83901e-05
1.15506e-17
8.50189e-05
1.89424e-05
1.7427e-06
7.34764e-08
5.50453e-17
3.61031e-05
8.55903e-07
5.66696e-05
5.37633e-18
1.66218e-17
6.16009e-17
9.15023e-18
6.15225e-05
3.76418e-17
5.25658e-05
3.76355e-06
1.91278e-18
2.56493e-08
5.71457e-06
1.92025e-05
4.7727e-17
5.7079e-06
0.000117373
4.19045e-18
3.79706e-06
0.000379281
0.000113103
1.32564e-06
7.2119e-06
1.81396e-08
7.74586e-06
3.29381e-18
3.46008e-06
5.75903e-17
8.45617e-07
4.52322e-17
5.01045e-05
8.01241e-18
1.19665e-17
3.07052e-09
3.9936e-05
7.426e-17
4.20312e-17
1.10683e-05
4.67285e-06
4.54681e-13
3.05469e-05
7.20213e-08
8.79257e-06
3.31477e-07
4.92927e-05
1.41402e-05
7.16619e-08
6.28475e-05
6.26192e-18
2.45614e-18
2.13513e-06
3.17525e-11
1.36565e-06
3.99778e-17
2.16078e-05
2.83317e-19
2.18522e-05
5.5553e-06
4.48528e-17
4.98247e-19
9.04297e-06
4.85012e-06
7.52704e-11
6.66812e-06
5.78003e-06
4.46828e-06
3.79293e-06
1.06286e-17
4.02915e-08
2.24193e-18
1.96186e-17
1.54019e-05
4.22863e-18
7.80552e-19
1.76933e-17
7.80637e-17
5.55598e-18
1.96363e-06
3.6697e-09
2.00148e-17
1.99169e-06
1.61027e-18
3.82597e-08
1.73439e-06
3.91982e-05
5.71225e-17
1.8839e-16
3.55283e-17
5.81863e-05
1.59122e-17
5.05887e-05
3.02717e-05
3.34861e-06
2.87257e-07
2.39752e-06
2.67996e-05
3.21528e-06
4.82678e-06
1.55202e-05
5.43108e-17
2.32958e-18
3.21472e-18
3.35379e-05
1.85751e-06
1.43409e-17
2.67844e-10
5.69132e-06
5.26345e-10
1.30548e-05
1.95071e-05
1.28936e-05
7.76195e-11
6.16375e-18
6.8637e-19
6.28108e-05
2.77549e-05
2.19821e-09
3.86106e-10
7.01269e-06
4.08662e-06
2.70088e-18
5.36867e-09
5.43909e-08
1.82184e-17
1.23076e-18
1.58309e-07
1.16389e-18
6.66643e-06
2.50848e-06
7.99778e-20
4.94121e-18
1.17368e-17
1.2365e-17
6.08316e-18
3.11482e-18
1.77077e-06
8.14799e-06
3.56335e-05
4.96506e-06
9.05444e-06
4.84654e-06
9.25213e-08
2.84382e-18
5.79829e-06
1.60271e-17
1.78396e-17
7.80926e-06
1.24964e-05
3.39978e-05
1.34827e-05
6.01044e-06
3.37583e-17
7.97585e-06
5.82281e-07
5.15479e-08
1.68037e-05
2.78956e-06
2.33678e-17
4.49426e-06
3.09474e-05
5.14337e-18
1.94071e-07
9.32177e-06
2.38942e-06
4.28768e-07
5.81078e-18
9.56595e-18
9.97191e-06
1.41996e-14
0.000144905
7.81389e-18
8.01539e-06
2.45275e-05
0.000144128
1.71954e-17
3.8377e-06
1.64934e-05
3.10644e-16
8.1804e-18
5.76306e-18
0.000181099
3.16668e-10
8.14571e-18
3.91923e-18
1.16648e-05
9.28932e-06
1.82217e-05
2.90848e-17
3.56704e-19
1.68275e-08
7.35169e-17
2.95397e-06
1.1098e-05
1.92415e-05
1.40532e-05
1.19022e-05
1.22125e-18
3.02222e-10
7.46115e-07
4.42211e-18
2.38416e-17
3.65716e-05
2.47699e-05
2.45362e-17
7.63019e-06
1.28068e-05
1.30532e-18
5.56682e-17
1.62294e-07
7.0173e-19
3.79668e-17
5.27441e-08
3.09762e-18
1.78577e-05
1.29915e-05
4.44873e-06
3.99443e-17
1.39699e-05
5.39648e-18
2.18273e-18
4.32941e-17
2.38717e-11
2.7627e-05
7.48807e-06
6.42085e-06
4.3802e-05
1.47966e-05
1.89822e-06
6.64683e-07
3.89286e-05
1.06032e-05
9.36977e-18
6.72814e-18
3.01915e-10
2.68863e-05
2.9261e-05
1.43203e-05
7.74031e-19
8.36662e-06
2.49175e-06
3.63275e-06
4.15432e-09
4.23829e-09
1.62573e-05
2.69661e-06
2.38093e-06
8.18244e-18
7.73891e-07
4.84014e-18
2.02077e-10
6.76847e-16
0.000287303
8.1193e-05
1.4362e-05
1.73315e-18
1.5751e-18
1.07024e-05
1.95439e-06
3.49196e-18
5.39904e-18
4.68934e-17
3.68947e-07
6.98161e-05
4.71273e-06
1.63233e-05
2.27285e-05
3.07081e-17
1.40995e-17
2.4191e-18
4.55813e-06
3.49929e-15
1.20845e-06
0.00022068
3.68076e-10
1.14339e-17
5.40192e-18
9.15309e-19
1.29564e-16
7.16796e-05
1.43184e-05
1.86785e-18
6.26598e-06
1.36473e-17
1.09834e-18
8.30569e-05
7.02027e-06
1.34069e-05
1.11927e-05
1.02396e-16
4.15809e-17
2.4383e-17
1.12615e-05
2.22202e-05
6.16286e-06
7.13451e-19
3.45909e-13
1.88762e-07
2.59417e-06
9.55441e-06
4.14519e-08
3.39642e-05
5.49554e-18
4.46893e-05
4.23729e-06
9.32666e-06
3.00398e-05
1.62107e-05
1.26715e-17
1.0806e-16
6.56959e-18
8.34891e-18
3.7478e-05
1.16087e-05
3.95496e-05
8.05002e-05
2.63e-18
2.23598e-05
6.62065e-18
3.14751e-17
2.00373e-05
3.35261e-18
9.19695e-05
2.24551e-17
1.92611e-18
2.77124e-05
1.81638e-18
1.62699e-05
3.29453e-07
5.10501e-18
1.20403e-06
1.96714e-05
2.48564e-17
1.07194e-05
1.10126e-05
9.75919e-06
7.92837e-07
3.21976e-06
6.65549e-06
5.02512e-17
6.9404e-17
2.24348e-06
7.40621e-18
7.40813e-06
0.000142124
4.79828e-18
1.00652e-17
3.24001e-05
1.36875e-07
9.88485e-06
2.56598e-05
1.94821e-17
5.46281e-05
2.29551e-05
4.62291e-18
9.98062e-07
2.913e-06
8.78988e-18
1.79795e-18
1.32087e-05
6.29113e-06
1.07683e-17
4.88585e-18
4.15727e-11
5.06165e-18
1.44608e-05
3.98652e-17
3.43631e-18
2.04099e-05
2.01784e-09
1.44482e-05
3.6014e-05
1.24852e-17
1.12903e-16
1.78758e-06
6.57886e-17
1.79094e-07
1.69495e-05
0.000147062
0.00101269
1.50331e-18
3.29557e-06
6.09278e-07
3.58948e-18
4.69789e-05
3.78832e-05
2.65893e-17
8.48568e-12
1.08711e-07
2.14086e-17
2.91891e-05
2.89462e-05
1.6802e-05
4.98537e-17
7.97614e-07
2.16251e-05
2.73777e-05
9.87158e-10
9.75963e-17
7.48746e-13
6.70583e-18
1.55405e-08
3.73239e-05
1.67723e-17
1.00952e-05
1.13904e-07
3.50982e-16
2.11924e-18
4.48611e-17
3.22193e-18
4.78822e-06
1.14955e-05
7.85956e-06
2.48665e-06
3.23044e-06
3.94575e-18
2.32812e-06
2.14344e-17
4.90239e-05
6.67322e-18
7.53623e-18
2.12799e-18
4.37661e-05
2.15912e-18
2.02485e-17
2.03777e-10
1.47622e-18
6.94724e-18
1.26083e-06
1.13888e-17
1.70384e-16
4.24497e-18
9.99702e-18
6.19117e-17
7.68627e-18
1.14305e-17
8.4246e-06
6.6166e-18
6.44746e-07
2.28735e-06
1.07035e-06
1.20657e-17
1.0251e-06
1.5781e-18
8.50212e-19
3.36473e-06
2.1662e-06
3.27843e-05
3.01188e-05
3.27688e-17
2.45733e-06
9.85127e-05
1.02112e-05
1.21942e-06
3.94274e-06
1.27849e-18
2.77519e-05
1.08487e-16
6.01857e-06
4.65097e-17
9.16009e-05
2.56906e-17
2.57689e-05
2.94734e-07
6.31385e-10
8.8085e-19
2.44745e-06
3.14427e-18
9.56814e-05
5.88033e-05
5.90175e-19
1.87984e-17
8.43904e-17
5.12735e-18
1.70371e-12
6.50694e-05
1.7224e-18
7.07752e-18
2.9137e-06
5.01291e-18
4.0562e-05
5.31821e-19
3.7353e-07
7.45283e-18
5.83801e-07
1.31071e-09
1.19236e-06
1.56618e-05
8.55467e-18
4.99143e-07
4.20767e-17
9.15914e-18
1.80679e-05
1.32335e-17
3.62607e-08
3.58601e-17
1.92786e-06
1.41279e-17
7.77614e-05
7.7454e-18
3.56222e-17
2.13547e-05
4.00996e-06
2.11019e-06
4.72464e-06
8.25741e-06
2.48212e-05
1.22921e-17
3.00826e-05
7.37721e-06
7.42661e-19
9.57845e-11
4.81813e-05
1.8219e-05
8.15283e-18
4.6271e-06
8.00659e-06
2.07271e-06
1.24514e-06
2.75458e-13
1.62705e-05
1.469e-06
1.56343e-07
2.85025e-05
1.63584e-05
7.39786e-07
5.6715e-17
4.02468e-12
0.000780488
5.32282e-19
4.15517e-07
2.40328e-18
1.09897e-16
8.80432e-06
3.37649e-06
2.66858e-10
1.86162e-08
2.61029e-17
1.97048e-05
1.32694e-05
2.45636e-17
1.81277e-13
2.29721e-06
8.56139e-18
8.28215e-19
3.34037e-19
1.38853e-18
1.56855e-05
3.53929e-18
7.10586e-17
1.04854e-05
2.32283e-06
8.58456e-17
1.27285e-05
4.33818e-18
1.01223e-05
1.50027e-18
1.66914e-17
6.3374e-05
1.30708e-17
1.68357e-17
1.91196e-17
5.23896e-06
1.26616e-16
3.46596e-05
7.48444e-06
1.21387e-17
0.000105858
2.91779e-06
3.42465e-05
3.37202e-05
5.51533e-07
9.34821e-08
1.71809e-17
6.49983e-05
5.58262e-05
1.63673e-17
3.87273e-07
4.79074e-05
9.34597e-06
1.69919e-06
3.29423e-05
3.11954e-05
5.01915e-17
1.29279e-05
6.60794e-09
2.17888e-17
4.14446e-05
3.10949e-07
5.185e-17
1.30059e-05
4.84937e-05
1.61863e-06
2.55431e-05
2.35449e-05
8.4779e-06
2.42332e-17
1.23057e-05
3.84515e-07
4.24261e-15
2.05641e-05
2.14159e-05
4.305e-05
7.82752e-18
2.24438e-06
6.12589e-18
1.02588e-17
7.45869e-18
2.74887e-18
1.6712e-08
1.8474e-17
3.5393e-13
2.54852e-17
9.5779e-18
9.26842e-08
5.19902e-05
1.3808e-17
3.78551e-05
6.84322e-17
7.71998e-17
1.91361e-17
4.65477e-05
4.80968e-07
7.04541e-17
6.27216e-17
1.19087e-17
2.73326e-18
0.000250078
8.28002e-05
3.06433e-17
2.36931e-06
2.49676e-09
3.41967e-18
4.46462e-05
1.00344e-05
1.44502e-05
9.95145e-18
7.39017e-18
5.11611e-07
1.30201e-06
5.63479e-17
3.93042e-17
8.85728e-17
8.74395e-06
1.09642e-17
3.44608e-18
9.50333e-19
5.00293e-05
2.42924e-06
9.54381e-18
0.00463646
0.000401036
1.21017e-05
2.74994e-18
1.71869e-17
6.57945e-05
4.9694e-07
2.95417e-18
6.20618e-09
0.000137612
2.92745e-06
1.34253e-05
9.6198e-18
6.33887e-05
2.23376e-06
3.98549e-18
9.57768e-18
1.59663e-17
2.82807e-17
6.64157e-18
7.25147e-18
2.64039e-05
1.14457e-17
8.51352e-18
2.74976e-18
1.37139e-05
2.76883e-05
2.54643e-18
3.75755e-18
0.00012705
1.72034e-05
1.14271e-05
2.41351e-17
4.12726e-18
4.45736e-05
5.70101e-19
2.09278e-06
3.10252e-06
4.58915e-06
3.26746e-18
5.02077e-18
2.31464e-18
1.01876e-18
1.7898e-05
1.38541e-17
9.97062e-18
1.21464e-06
2.16153e-18
2.75348e-05
2.23863e-06
7.96405e-18
4.43116e-05
0.000433277
3.04131e-06
3.47422e-05
1.69976e-07
5.30563e-05
1.12832e-13
1.21914e-17
2.82041e-05
8.27466e-05
7.24288e-06
2.9023e-17
7.66575e-13
0.000896926
1.20727e-05
1.74466e-18
2.95546e-06
3.06415e-06
1.40697e-06
3.2386e-17
1.09258e-17
3.31742e-17
1.58281e-05
5.80867e-17
3.09646e-06
6.10757e-19
1.51826e-06
1.68698e-06
4.39588e-05
6.55707e-07
7.01217e-18
1.41204e-18
8.39692e-18
2.46687e-05
2.19627e-18
5.2278e-17
8.29151e-08
6.34335e-18
5.49805e-19
1.93892e-18
4.61278e-18
1.20501e-05
6.24702e-17
7.54959e-18
5.48359e-13
1.30228e-17
7.00087e-18
1.12899e-16
2.23887e-18
3.35997e-09
1.92084e-06
5.15317e-18
4.75412e-06
7.90335e-09
3.43356e-10
7.24015e-08
4.84605e-06
4.00453e-19
1.12938e-08
1.18037e-05
4.75651e-07
2.78052e-18
3.90161e-12
1.01849e-06
7.46911e-17
1.16633e-05
2.18275e-07
1.9585e-09
2.80588e-05
1.11774e-05
2.69623e-06
5.94625e-06
2.40087e-06
2.53437e-17
5.18176e-18
3.94833e-05
3.13598e-05
6.20515e-19
1.00017e-05
6.43e-05
3.39987e-05
1.80969e-17
1.51541e-06
7.12394e-19
1.23498e-05
1.66148e-05
1.95502e-17
1.88891e-06
5.50644e-07
1.4218e-09
5.90398e-06
9.15087e-18
5.84138e-05
1.77013e-08
1.78438e-06
3.80168e-08
1.39566e-08
2.32821e-18
8.38169e-18
8.33588e-06
1.09097e-17
1.42196e-07
2.99027e-07
3.33028e-07
6.51163e-11
8.46858e-11
3.4744e-10
7.36725e-18
7.65896e-17
2.77062e-05
8.68867e-17
1.39773e-07
2.42411e-06
8.19934e-17
9.74818e-18
7.55783e-10
1.12551e-12
7.21342e-18
5.98265e-09
2.25674e-17
5.66577e-18
5.31746e-17
3.38417e-17
3.91103e-17
6.62661e-17
3.28618e-07
8.84614e-18
1.81038e-17
5.82124e-17
7.64699e-09
6.24194e-08
2.15104e-06
1.12066e-05
4.98181e-19
1.16455e-17
2.00964e-07
4.67251e-18
1.89977e-18
8.36354e-17
2.21142e-05
5.056e-05
2.09348e-18
4.35209e-17
1.88864e-17
1.62108e-17
4.7774e-18
2.01305e-17
8.30317e-06
3.42013e-18
6.34738e-11
3.19894e-05
3.56341e-17
3.65074e-17
4.78984e-18
3.31678e-08
1.01064e-17
2.25412e-18
3.16966e-17
1.11168e-08
2.21646e-17
5.19446e-06
1.11015e-09
6.75275e-12
1.22874e-17
8.96951e-08
2.35983e-06
5.26582e-05
1.59267e-17
1.01501e-08
6.71586e-06
7.86992e-18
6.22438e-18
3.5558e-18
8.76088e-17
1.00568e-05
1.9519e-06
3.89498e-06
2.09693e-10
1.14485e-17
2.61291e-05
5.25567e-18
6.56847e-17
4.03147e-17
4.95193e-19
3.15828e-05
2.9693e-17
1.82261e-18
2.04893e-09
6.14069e-05
1.40715e-17
2.85072e-06
4.36491e-17
9.86369e-07
4.46303e-17
1.23446e-18
8.76987e-19
6.21506e-19
2.91163e-06
7.12661e-07
0.000361464
1.07576e-18
1.42612e-17
2.37818e-06
6.5694e-18
9.33529e-17
2.0758e-17
4.37363e-05
1.13528e-08
3.86168e-05
4.26845e-17
1.25654e-08
5.87267e-08
1.43642e-17
1.49589e-07
3.25237e-17
1.43346e-06
3.02064e-05
2.44337e-05
1.43989e-06
2.81918e-07
1.76686e-17
1.44388e-17
7.83153e-18
2.6112e-08
2.27117e-18
8.93992e-06
2.60487e-17
0.000210524
2.08285e-18
4.91416e-05
3.72539e-06
3.38116e-18
9.43546e-18
2.29865e-18
2.07493e-18
4.93994e-05
4.07161e-17
3.78133e-17
1.41321e-05
8.18463e-06
2.74201e-17
2.29441e-16
1.08502e-16
3.77302e-17
3.95069e-17
4.18543e-19
3.08652e-05
4.94968e-07
2.29496e-18
7.6061e-19
6.30259e-10
7.45503e-17
1.89146e-06
1.27884e-07
4.11226e-18
4.19239e-06
6.29705e-18
4.54452e-07
5.38791e-18
1.32063e-06
4.9212e-17
8.7416e-11
2.54559e-09
7.49416e-07
2.16329e-05
4.06589e-05
1.40445e-09
2.62025e-18
6.0908e-07
6.421e-18
5.48607e-06
7.45367e-18
8.54775e-17
2.47549e-17
5.21249e-19
1.02302e-18
6.70794e-19
8.59655e-06
9.71653e-06
1.36469e-17
4.87337e-17
1.17637e-17
9.12104e-07
1.58867e-08
7.56245e-18
2.1688e-05
2.14965e-07
2.36318e-17
2.79168e-05
9.8191e-06
4.30294e-06
1.36943e-05
7.89102e-18
2.48692e-17
2.88875e-18
1.13126e-16
4.41364e-05
2.0307e-18
0.000136517
1.21648e-18
3.80568e-07
8.71307e-07
1.64581e-17
1.14553e-06
1.076e-18
9.26393e-18
3.67658e-06
2.62357e-11
1.14074e-05
3.94055e-18
1.05376e-17
7.028e-18
9.96359e-07
1.34294e-17
1.31e-17
1.61369e-17
3.38418e-10
7.60297e-17
8.02967e-09
1.46872e-17
3.04347e-17
1.08752e-17
2.16879e-05
1.18542e-05
2.19025e-05
4.31532e-05
1.62899e-17
1.95249e-08
1.57173e-17
1.26213e-17
1.17365e-05
4.3129e-18
2.60135e-09
4.31346e-07
7.91522e-06
4.30442e-07
1.25381e-12
2.261e-06
4.39864e-18
1.45289e-12
5.21903e-13
1.4967e-07
9.38598e-07
1.77163e-05
7.53473e-11
4.31313e-17
3.63162e-05
8.30084e-18
1.28658e-18
1.65804e-08
8.97869e-05
6.68863e-11
7.09794e-18
1.94095e-18
3.63543e-10
3.83491e-18
3.01655e-17
2.15352e-08
3.49067e-17
7.17488e-18
4.83875e-05
2.69032e-07
2.12912e-07
2.70707e-05
8.68903e-06
4.90114e-19
3.92961e-17
2.16636e-08
4.82212e-06
4.8033e-18
1.83491e-17
1.15028e-05
4.38708e-17
3.94101e-18
4.39402e-17
3.82083e-17
5.53814e-16
0.00308562
6.01147e-18
2.58743e-07
7.17819e-17
2.52984e-05
1.97144e-18
9.17201e-16
4.85466e-18
6.36667e-18
5.80173e-18
1.52417e-17
3.34664e-06
2.61623e-18
2.6867e-17
4.87967e-17
2.36315e-17
5.65521e-18
8.84699e-18
1.16827e-05
1.82083e-17
1.32708e-05
3.68805e-06
7.62748e-19
1.94091e-06
5.23211e-18
5.90962e-07
2.38172e-09
4.55927e-06
1.56424e-05
9.92931e-19
1.08993e-07
9.2891e-06
1.11295e-08
4.81498e-18
3.10716e-09
2.22665e-05
5.64835e-06
2.92842e-17
3.10482e-05
1.99413e-17
1.25678e-17
4.9971e-18
5.12517e-18
9.7485e-06
4.68067e-17
1.20812e-18
9.84337e-06
3.82429e-10
3.227e-06
1.30567e-18
1.34694e-16
8.01664e-07
6.14816e-19
8.16656e-08
1.13248e-17
2.78243e-05
5.77886e-19
3.65351e-18
6.70846e-08
2.00343e-18
1.64568e-07
1.17689e-17
1.00713e-17
5.65077e-06
5.08258e-07
5.67162e-06
1.84902e-05
0.000263785
2.43257e-05
7.60657e-18
5.23394e-18
3.56214e-06
8.00488e-06
4.36096e-05
1.28343e-05
1.71907e-17
1.4501e-05
1.3086e-17
4.39024e-18
1.08856e-05
1.30865e-05
1.36655e-18
1.56961e-05
2.25385e-17
3.25816e-06
1.04123e-05
1.18385e-17
1.0268e-17
6.60152e-19
3.35094e-06
2.01072e-17
5.52895e-17
4.99202e-06
2.53058e-05
4.25138e-09
8.85675e-06
2.35882e-18
5.84189e-18
9.94314e-08
9.06628e-07
1.02054e-17
1.23986e-05
4.18613e-17
3.15881e-06
1.95063e-17
1.3815e-17
1.47128e-05
9.42191e-18
4.56226e-08
4.33156e-06
5.59811e-18
3.72022e-18
5.27863e-06
6.25888e-14
6.2298e-05
3.32912e-18
0.00030711
2.07793e-17
6.94757e-17
2.18511e-17
8.9528e-06
1.22478e-16
4.67608e-17
6.64468e-06
4.21114e-17
2.90368e-07
1.10238e-16
1.97417e-17
1.34991e-17
1.25137e-10
9.16368e-07
4.67356e-19
2.11734e-17
4.17025e-05
1.11127e-06
8.01858e-18
5.16842e-07
7.04013e-18
2.99949e-18
1.96594e-09
3.10684e-06
1.56669e-06
4.63792e-17
1.26838e-17
1.74632e-17
1.00891e-17
1.52087e-17
7.30454e-18
7.04099e-18
7.06382e-18
2.47941e-17
5.24437e-18
2.14448e-18
2.50611e-18
1.40453e-17
4.12114e-18
2.56498e-18
4.41708e-17
1.21138e-18
2.03693e-17
2.57906e-17
5.62845e-18
2.47938e-18
2.07211e-05
2.57092e-18
4.97396e-18
7.29978e-18
7.86483e-06
1.24087e-17
3.95993e-18
0.000344303
2.94478e-18
7.65585e-18
2.74773e-05
3.58628e-15
1.11561e-17
9.09232e-06
2.91291e-05
6.32548e-18
3.27223e-06
4.88566e-06
4.11096e-17
1.58029e-05
4.68384e-05
2.12027e-05
4.016e-06
1.27476e-05
8.09423e-18
1.68432e-17
3.4909e-06
1.22447e-05
3.81852e-06
1.89335e-18
7.80924e-06
2.09449e-06
2.54088e-05
1.20909e-05
8.25678e-07
1.85761e-05
1.25229e-06
1.20773e-05
1.27694e-16
2.93262e-05
1.00244e-05
1.94675e-06
1.62753e-06
3.76547e-18
7.47201e-18
3.45997e-17
3.26001e-18
9.81915e-19
1.06673e-05
1.6142e-05
2.74375e-18
4.61254e-18
8.0789e-18
7.71554e-18
3.70238e-19
3.23144e-18
2.73106e-17
2.24617e-18
5.40066e-06
2.17817e-07
2.58056e-05
7.97093e-08
1.6099e-17
6.20197e-17
3.63943e-05
8.27871e-09
6.82851e-18
4.01308e-17
8.6044e-06
6.34354e-17
1.67028e-17
3.87728e-09
9.316e-06
1.59833e-05
3.99344e-05
4.05661e-05
6.64001e-19
1.66027e-05
3.94512e-07
2.03076e-17
7.96727e-18
1.40181e-05
8.45866e-18
6.32311e-20
1.95557e-05
0.00124148
2.06628e-07
1.29317e-16
4.35511e-17
2.09235e-05
2.37635e-05
2.07358e-05
6.81718e-06
4.95232e-06
7.79635e-18
1.26363e-09
3.16387e-12
1.46766e-16
2.60622e-18
2.04089e-05
9.67691e-18
2.3586e-06
2.96089e-05
2.07389e-05
1.36263e-05
2.66023e-18
7.16813e-06
1.34752e-17
1.62373e-17
2.00231e-17
3.42931e-18
2.88237e-06
0.0010388
3.00807e-18
1.11054e-17
3.6442e-09
2.71217e-05
1.35681e-06
8.13285e-06
3.85262e-05
5.64276e-06
2.43621e-05
2.61328e-17
1.04145e-17
5.49567e-17
3.51641e-05
6.67253e-06
3.21677e-11
1.02319e-18
8.33318e-18
1.31806e-17
2.61421e-05
3.29078e-06
4.37841e-18
5.7558e-06
6.84634e-05
7.83235e-06
7.20234e-06
3.29953e-17
2.9162e-17
8.12012e-06
2.63708e-05
4.65517e-18
3.9822e-07
1.72045e-05
1.17634e-06
1.06709e-05
5.44892e-06
9.42668e-06
6.05831e-17
3.8718e-06
2.41528e-05
4.2421e-05
5.04926e-13
2.65612e-05
2.51994e-16
1.90698e-05
1.86074e-07
6.85369e-18
2.99872e-06
8.82731e-06
4.45081e-07
1.33675e-05
2.11284e-10
1.51948e-07
1.69366e-08
4.80173e-05
4.25856e-06
2.39073e-18
4.46648e-05
1.5163e-06
1.42173e-18
9.41491e-19
4.80817e-11
1.24875e-08
1.20246e-06
0.00127997
4.05966e-05
1.39926e-05
2.39306e-10
5.19996e-05
6.29967e-18
1.53311e-17
4.52685e-06
2.36479e-18
2.46355e-06
4.85616e-06
2.52605e-06
5.33157e-06
2.07351e-18
2.35844e-07
0.000124969
9.16515e-19
2.18988e-05
8.67912e-06
7.13113e-18
4.6604e-06
1.5415e-07
2.58793e-18
7.58462e-12
1.05858e-07
3.31584e-18
1.61659e-17
6.00222e-18
5.06319e-06
5.59781e-06
1.63387e-05
4.57252e-17
5.7336e-06
3.81407e-05
4.91088e-19
9.25049e-06
1.42909e-05
2.78463e-05
1.77462e-06
3.93124e-18
6.7343e-07
1.08323e-05
1.20299e-05
1.04146e-05
4.28222e-05
0.000188846
3.87899e-06
1.95345e-17
8.70789e-09
5.76321e-05
4.33844e-18
4.90561e-07
1.38626e-17
1.50382e-17
4.16177e-18
9.94929e-18
5.22757e-18
3.70236e-06
3.82102e-18
8.26029e-06
1.31345e-06
1.89125e-17
4.33094e-06
1.08981e-16
1.60589e-05
8.59442e-18
2.58132e-08
2.49045e-17
2.51615e-05
1.81604e-07
2.89409e-09
4.8392e-06
3.27358e-05
1.91601e-05
4.42018e-06
3.10198e-05
7.82509e-15
2.59474e-05
6.17688e-05
1.08153e-05
6.92693e-17
1.26197e-06
2.96218e-07
6.4143e-06
1.17055e-05
6.87698e-07
9.14949e-18
2.12997e-17
5.22156e-19
4.08623e-06
9.72593e-19
3.40613e-07
2.49047e-07
1.81258e-06
3.21869e-07
1.16199e-17
8.15965e-18
8.29037e-18
9.97877e-06
2.46229e-05
1.37806e-06
1.09703e-08
2.14167e-06
7.84166e-06
2.23862e-06
9.01325e-07
7.59837e-06
6.85643e-06
3.01767e-06
1.78933e-17
1.09213e-17
3.44581e-17
1.49341e-05
1.21915e-05
4.16466e-18
1.51086e-18
1.09074e-16
9.50154e-06
2.12048e-05
8.0418e-18
2.48635e-06
3.89899e-17
6.98373e-10
5.31675e-06
0.000101377
3.96898e-18
2.19257e-18
4.1017e-06
3.56516e-18
6.71149e-08
1.33652e-05
1.00627e-17
1.22526e-05
3.70808e-05
2.10282e-05
3.50817e-18
1.54676e-06
3.89977e-18
9.72502e-08
5.54085e-05
4.48179e-18
4.06131e-17
1.2244e-05
1.16842e-16
1.62509e-17
5.06334e-08
1.08883e-06
5.69023e-18
5.20787e-19
7.92494e-17
6.9519e-08
1.38839e-06
3.49487e-06
2.92335e-05
1.03882e-05
1.03704e-17
8.05903e-10
7.49779e-07
5.78883e-18
2.22761e-18
1.19321e-17
1.67084e-17
7.6109e-18
4.00885e-18
3.71587e-17
5.23232e-18
5.53925e-18
3.93418e-17
2.72741e-12
2.80163e-17
3.8312e-07
2.07335e-17
2.69019e-07
5.06906e-17
6.87999e-08
1.81014e-17
5.82916e-18
3.22541e-05
1.02044e-05
7.95031e-17
0.000100471
1.27271e-11
4.03017e-13
3.43664e-18
1.50008e-06
8.53639e-15
3.09641e-06
7.39618e-09
9.56502e-07
1.4783e-18
9.50913e-18
1.03322e-06
2.69914e-11
1.6062e-18
1.29338e-16
4.38236e-05
2.78827e-17
4.15614e-05
3.42107e-17
9.94382e-18
1.99344e-09
3.17223e-05
8.99384e-06
6.18267e-18
3.59325e-07
1.3921e-17
3.65731e-06
2.06614e-08
2.02636e-06
1.07529e-06
4.87979e-20
2.29416e-05
1.34178e-06
5.8371e-06
5.80258e-19
1.41403e-18
1.09358e-17
2.17984e-05
4.42937e-06
5.85738e-05
3.66043e-17
5.275e-10
2.98409e-18
5.16024e-18
2.24378e-17
3.40015e-18
3.70057e-06
2.51076e-06
3.37249e-06
0.00035929
7.10799e-17
3.06717e-05
4.01864e-05
1.95139e-05
1.96648e-06
5.82742e-18
5.89251e-06
5.14199e-06
6.92082e-06
3.68903e-10
1.13791e-05
1.13132e-17
1.70424e-06
1.42961e-06
3.67596e-05
1.31988e-09
3.77843e-06
7.636e-18
2.11906e-05
3.27621e-18
5.30992e-17
1.85501e-06
3.24207e-17
6.88296e-06
9.58384e-19
1.75342e-17
5.16936e-17
2.83304e-18
1.14372e-16
9.10601e-07
1.31874e-17
6.11964e-07
1.35423e-17
1.16945e-17
2.00559e-05
6.08946e-06
8.93215e-06
8.34513e-06
6.82223e-18
0.00066119
1.0535e-17
7.83822e-05
1.20011e-17
1.99267e-05
2.69177e-05
2.68865e-06
6.38074e-05
5.22054e-17
1.33589e-16
1.75324e-18
2.42952e-06
9.25608e-18
9.87538e-18
1.98395e-05
5.24195e-17
4.04844e-18
6.08624e-06
4.98172e-18
1.4296e-05
7.75594e-11
4.81184e-17
4.66903e-18
9.19901e-18
1.82146e-06
7.64522e-06
1.11783e-17
2.56383e-05
3.88528e-07
2.71094e-17
0.000116743
9.01263e-18
1.76643e-05
2.02713e-05
4.01832e-06
1.69153e-17
2.01022e-05
1.09892e-05
9.69524e-07
6.06454e-06
1.42767e-05
2.82119e-17
7.81313e-18
2.04133e-09
1.21254e-17
1.45195e-17
5.5277e-18
2.20441e-05
5.10366e-05
5.01076e-06
2.4712e-06
5.39992e-17
5.67485e-05
5.18239e-05
4.79014e-06
2.73807e-06
1.05735e-05
2.36442e-05
3.06436e-06
1.72221e-17
1.32656e-17
1.45791e-17
7.92066e-06
1.51229e-17
2.79237e-05
5.13939e-17
8.43619e-07
6.48146e-10
2.92493e-06
2.51042e-05
1.21174e-17
9.98717e-18
2.82799e-06
4.15825e-07
2.06447e-17
3.53386e-17
9.37539e-18
3.82838e-08
3.65561e-07
1.67894e-07
9.44495e-07
1.14675e-05
9.80704e-05
6.07809e-19
9.85407e-17
5.74581e-17
4.23102e-06
2.01039e-05
2.2667e-05
3.9901e-05
1.99035e-06
3.37806e-06
5.57018e-18
1.25562e-17
5.70637e-16
1.28413e-18
1.07128e-05
2.55442e-05
7.82267e-18
7.27907e-18
9.41332e-18
1.99093e-16
1.98944e-17
5.21657e-17
1.57392e-05
2.74811e-17
1.09652e-06
0.000465646
2.92938e-17
1.58244e-08
2.60658e-05
8.65117e-07
6.84083e-18
6.90636e-18
5.63992e-06
2.97759e-18
1.62502e-05
1.15612e-09
2.77792e-05
2.58769e-17
2.7122e-15
4.76574e-18
1.94767e-18
4.30834e-18
5.11213e-18
0.000224237
1.63479e-18
6.81205e-06
1.37761e-06
7.36034e-17
6.69736e-19
2.21982e-06
2.32184e-18
1.11997e-17
1.29758e-05
1.50091e-07
7.81884e-18
1.94878e-17
1.15928e-18
1.92267e-05
2.62027e-18
4.39381e-18
4.76686e-07
3.01643e-06
3.53405e-06
4.65836e-18
5.12396e-18
2.91676e-17
4.39137e-06
2.13222e-06
1.49827e-05
4.28482e-06
1.96754e-18
9.19581e-07
1.3552e-05
7.40552e-06
3.61151e-19
1.2803e-17
6.35232e-18
1.09832e-16
7.91161e-18
3.57297e-05
5.99937e-06
6.36316e-06
4.33699e-17
1.94903e-17
5.96057e-18
1.28792e-17
2.28178e-17
1.12908e-09
2.77939e-07
2.57224e-06
1.246e-18
4.42529e-18
4.18653e-18
2.68493e-12
3.98868e-05
0.000131075
4.74822e-18
8.48787e-13
2.48382e-14
5.55537e-18
6.09812e-18
4.39955e-06
7.54338e-06
5.73664e-18
3.27385e-17
3.32844e-06
1.34481e-17
8.10718e-07
1.25693e-06
0.00241006
9.52345e-19
9.74673e-18
1.39757e-05
6.13292e-07
2.31997e-18
0.000764711
6.88436e-07
7.26082e-06
4.9161e-18
1.37512e-17
3.04751e-17
1.05464e-17
9.28284e-06
1.0537e-07
1.1406e-17
2.92612e-05
2.20549e-05
0.000995406
1.45074e-17
3.08919e-19
5.13488e-19
5.6535e-18
7.52939e-06
7.8537e-11
3.02865e-18
6.50047e-18
2.15934e-05
1.07289e-06
5.56527e-06
3.71837e-18
1.55448e-17
3.31053e-05
7.1273e-19
1.90666e-18
8.83123e-19
2.93194e-17
2.48929e-05
1.15229e-18
1.13849e-17
1.01627e-17
2.89308e-05
1.38747e-05
1.74553e-18
4.04035e-18
2.53996e-18
1.75454e-05
2.11098e-10
1.37031e-17
5.24239e-19
5.48831e-17
4.89845e-18
2.76297e-06
1.26351e-05
4.8965e-18
2.32868e-06
1.28068e-06
5.50009e-06
2.93338e-16
1.36046e-16
3.73437e-19
3.35133e-17
3.71758e-19
2.24406e-05
1.78421e-17
1.65755e-05
8.68224e-18
1.76112e-06
1.14765e-16
2.74389e-06
1.58328e-17
5.55345e-18
1.23868e-05
0.000190216
4.12859e-17
4.1233e-06
8.98757e-18
4.47592e-07
5.03822e-17
3.00375e-18
1.12094e-17
1.53134e-10
1.39932e-17
3.51868e-07
4.68258e-18
4.02601e-05
1.51097e-18
1.36054e-17
5.7348e-18
1.54867e-17
8.94731e-09
1.53361e-07
3.26275e-18
6.45789e-06
9.46365e-19
3.16174e-06
2.12571e-05
1.45006e-06
4.72967e-18
5.34838e-09
5.02978e-07
2.47695e-09
4.81445e-06
3.63149e-10
1.91765e-06
8.51932e-17
2.11135e-18
4.89329e-10
6.53111e-06
2.71535e-07
2.14349e-17
1.2413e-17
1.56557e-17
0.000659492
1.79887e-17
8.97137e-19
6.54322e-18
1.03301e-17
2.94093e-18
3.29797e-08
2.03258e-07
1.17183e-06
7.83805e-08
1.14634e-15
1.68635e-06
5.13068e-18
6.33274e-06
1.57912e-17
1.07475e-17
2.00404e-18
7.07417e-18
2.13411e-08
2.74773e-18
1.2984e-17
1.1087e-17
1.64582e-05
7.64681e-18
3.53997e-18
1.25386e-05
4.54091e-17
8.35019e-05
0.000142758
0.000643499
3.29724e-17
0.000229246
0.00131614
0.00133252
0.000739458
1.28855e-17
1.02369e-18
5.46784e-06
5.23201e-06
6.73077e-18
1.08158e-05
4.52325e-19
3.61409e-05
2.28091e-17
4.10489e-19
8.01636e-07
9.58354e-18
6.11096e-18
1.16327e-08
4.55259e-08
2.48476e-18
8.90942e-19
3.19234e-09
4.24221e-17
6.79042e-17
2.22561e-08
9.37698e-06
1.70755e-06
1.18196e-18
8.79304e-06
3.82308e-17
3.97763e-06
4.54745e-10
8.2365e-06
4.54235e-18
1.81876e-11
6.36014e-06
7.62284e-18
1.71469e-12
5.37339e-19
3.60543e-05
2.38929e-18
1.08526e-05
1.62195e-18
2.6443e-10
2.2535e-18
1.32694e-17
6.48115e-18
9.39079e-13
5.22195e-13
1.58589e-17
1.36194e-05
1.02819e-05
2.62566e-17
6.18878e-17
3.66368e-05
1.93062e-05
0.000205135
2.81036e-18
7.61112e-08
2.78599e-05
5.12469e-05
6.82143e-11
1.71093e-17
6.37985e-05
3.48928e-17
0.000253286
2.69714e-18
4.21457e-11
3.99894e-11
6.69403e-18
5.77063e-08
2.00184e-17
2.40548e-05
7.6888e-18
3.53772e-18
8.14597e-18
5.15795e-17
9.07944e-18
1.4895e-17
3.39201e-07
2.13356e-06
0.000150188
8.95587e-18
2.1224e-17
4.56035e-05
1.44267e-17
3.08498e-19
1.23042e-18
3.79144e-17
1.70907e-17
6.53728e-06
3.08782e-18
9.41316e-18
4.99173e-19
3.65724e-06
2.22466e-17
1.37428e-17
2.14415e-18
3.5861e-06
7.77646e-18
6.81187e-06
0.000259216
5.8027e-06
5.94613e-06
2.95784e-05
8.7448e-18
2.07958e-17
3.30235e-18
3.37558e-06
1.93817e-06
7.90387e-19
1.48812e-16
6.5685e-07
1.2677e-17
2.92604e-17
0.000370849
6.17775e-18
2.43426e-05
1.2378e-17
2.59653e-06
3.6697e-06
3.99685e-18
3.22521e-17
1.47082e-17
1.09401e-18
3.37563e-18
2.06548e-05
1.51092e-17
5.12998e-06
1.0217e-17
6.97892e-19
7.50732e-06
1.51176e-19
1.41112e-05
6.90293e-18
6.398e-19
2.67526e-06
8.5793e-08
0.000155128
4.12101e-17
6.6898e-18
7.1713e-18
4.05505e-06
0.000197965
1.26196e-17
9.3859e-18
1.55716e-17
1.68722e-06
8.69681e-18
2.17391e-05
3.42249e-05
1.99627e-17
6.41796e-19
7.9692e-06
4.73519e-18
6.46418e-18
3.67427e-18
1.55062e-17
1.16554e-17
7.53985e-05
1.23168e-16
2.53567e-18
7.03586e-18
1.35847e-17
7.60932e-18
2.84992e-18
2.1937e-17
4.48192e-18
3.20373e-17
8.58817e-06
7.8054e-18
9.21148e-06
9.42609e-17
1.09132e-17
0.000638073
2.94752e-06
8.32658e-18
6.14143e-17
2.75996e-19
2.62855e-06
5.5622e-17
5.6367e-18
9.44972e-18
4.65601e-18
7.87161e-06
5.53897e-18
5.28232e-06
1.26748e-17
1.05348e-05
9.50856e-18
6.2505e-05
2.61896e-18
1.57921e-18
2.33643e-05
2.54877e-17
1.86283e-18
2.93949e-05
2.9828e-07
5.91519e-17
1.46459e-17
4.01999e-05
1.10262e-05
6.99905e-06
9.20297e-07
1.97775e-06
1.88397e-05
1.06736e-06
5.34764e-06
3.29155e-17
3.14863e-05
4.86508e-17
6.35599e-17
1.28176e-18
5.0749e-17
4.11695e-17
1.12879e-05
6.74267e-17
5.10659e-18
2.23687e-17
3.23183e-09
1.00033e-08
6.81097e-17
2.50916e-06
6.4918e-17
4.7135e-06
2.94396e-18
1.36124e-09
3.95595e-06
2.11328e-16
4.98789e-05
1.15254e-18
8.29752e-18
5.77308e-18
3.22477e-06
1.42742e-06
1.12331e-18
5.15381e-18
2.73855e-06
3.99949e-17
0.000725665
1.51933e-17
0.000112965
4.12042e-18
5.65378e-18
1.87544e-17
3.02291e-17
1.08659e-05
4.31134e-18
4.3114e-08
3.67648e-18
1.06861e-05
1.08279e-17
1.19412e-18
6.41114e-15
5.04175e-16
4.4226e-18
6.54434e-18
3.14724e-17
5.12531e-17
4.69911e-06
0.000209732
3.36503e-17
3.91908e-18
3.96446e-07
2.52056e-17
5.47815e-18
1.23709e-09
1.88428e-05
1.61581e-07
1.76744e-18
7.57484e-07
3.61795e-06
5.69834e-06
9.1743e-06
1.58198e-17
1.10718e-17
4.27375e-17
3.67493e-18
5.38561e-18
3.72876e-17
5.75938e-18
1.05416e-17
3.50116e-17
1.05162e-17
1.98627e-17
5.12908e-18
8.26513e-05
3.00088e-19
2.11138e-18
8.85348e-14
2.06089e-17
1.78162e-17
0.00121364
6.99304e-18
2.09147e-18
2.16665e-06
2.03899e-12
1.29307e-18
3.79305e-18
4.9383e-19
2.49414e-05
1.98623e-17
1.67969e-17
5.60369e-11
1.2613e-18
6.40307e-19
2.06178e-18
3.36336e-18
0.000126618
5.59464e-18
1.86476e-07
1.46436e-17
3.41954e-18
8.12515e-19
1.63907e-17
5.61446e-19
2.04091e-11
4.15112e-11
1.23969e-07
2.38988e-17
6.51684e-18
3.88088e-17
1.12849e-10
3.31637e-19
3.37429e-10
1.16197e-11
3.06166e-17
1.49585e-18
1.15317e-16
5.2255e-12
1.43512e-18
6.11702e-18
2.57684e-12
6.81271e-17
3.48979e-05
9.07874e-19
7.797e-06
5.22904e-17
2.53948e-09
2.23129e-18
1.63105e-06
8.86574e-18
4.68989e-06
2.87194e-05
2.34595e-18
2.86147e-06
1.59365e-08
1.24656e-17
1.20126e-05
6.5113e-17
7.26652e-19
4.79503e-18
9.32216e-19
7.72286e-18
1.73825e-18
6.73219e-18
1.33004e-17
0.000320334
3.20232e-17
1.25659e-17
3.27705e-18
4.85616e-18
2.39015e-18
3.56044e-05
0.000920284
3.49649e-09
1.26878e-08
3.33518e-19
2.33077e-06
1.59437e-06
4.38755e-18
5.33343e-18
4.82466e-17
4.36952e-19
5.40393e-19
8.0283e-18
5.27446e-17
1.20866e-17
4.52981e-07
3.88673e-17
7.07365e-17
2.49821e-07
4.07637e-09
2.32723e-17
2.93682e-05
1.46839e-18
9.56355e-20
1.64924e-17
0.000197738
6.34921e-17
4.28289e-18
2.9225e-05
1.57271e-18
4.79935e-18
9.60097e-18
5.38478e-17