/*--------------------------------*- C++ -*----------------------------------*\
  =========                 |
  \\      /  F ield         | OpenFOAM: The Open Source CFD Toolbox
   \\    /   O peration     | Website:  https://openfoam.org
    \\  /    A nd           | Version:  10
     \\/     M anipulation  |
\*---------------------------------------------------------------------------*/
FoamFile
{
    format      ascii;
    class       volScalarField;
    location    "8.9";
    object      T;
}
// * * * * * * * * * * * * * * * * * * * * * * * * * * * * * * * * * * * * * //

dimensions      [0 0 0 1 0 0 0];

internalField   nonuniform List<scalar> 
111485
(
303.15
285.104
300.966
303.15
298.4
283.15
298.907
293.374
296.307
286.245
300.503
296.183
300.198
284.569
299.962
286.757
299.293
297.807
294.023
303.15
303.15
283.15
297.222
288.691
301.539
303.15
293.178
300.607
288.851
303.15
300.727
294.298
303.15
283.15
283.447
283.15
302.28
297.573
283.149
296.581
283.15
289.585
296.999
302.88
303.191
303.15
287.365
288.55
289.626
303.15
303.15
283.15
303.15
298.902
303.15
293.477
287.891
283.15
283.321
295.424
295.825
303.15
302.045
300.254
283.15
284.547
300.241
291.515
302.099
302.524
303.162
301.888
303.15
302.096
303.15
295.346
283.15
293.438
283.15
283.15
283.238
293.367
283.15
303.15
300.296
284.206
283.15
301.537
303.116
299.065
283.334
289.563
300.847
300.366
289.756
303.15
303.15
301.537
303.149
283.414
303.15
286.648
283.15
285.162
285.743
283.15
283.15
293.046
301.444
283.146
298.886
288.058
301.28
301.691
303.15
301.969
303.15
283.15
300.111
303.15
303.15
283.15
283.15
283.15
283.398
303.151
283.15
301.8
303.15
283.176
303.086
301.928
303.15
283.15
283.15
292.478
283.15
294.19
298.765
301.075
303.137
296.791
298.946
284.765
302.273
297.768
283.15
303.15
283.15
297.108
284.921
303.15
303.144
287.303
283.156
293.69
295.603
302.519
283.154
303.15
303.15
292.15
286.236
283.153
283.157
301.165
283.684
283.15
283.152
283.152
283.15
303.15
283.205
283.15
291.518
287.157
283.15
303.15
303.15
283.15
303.15
303.15
297.617
293.468
295.757
289.744
301.364
300.401
283.19
303.15
301.43
303.15
303.15
300.134
286.272
301.391
301.317
295.719
303.15
300.868
284.591
283.16
300.761
297.038
303.15
300.393
288.18
303.15
283.225
300.162
284.799
300.666
303.15
303.15
300.68
283.15
292.741
283.15
300.584
298.683
290.346
303.15
301.742
300.52
283.15
283.15
283.15
289.481
283.157
283.15
303.15
298.619
291.342
289.904
283.15
303.15
303.107
303.15
284.326
300.056
299.231
299.48
299.349
283.15
283.144
298.826
283.15
283.15
288.742
288.346
283.15
301.167
298.844
303.15
283.15
301.008
303.15
303.15
303.121
303.15
288.252
285.855
290.76
303.15
298.304
303.15
303.15
303.15
283.148
298.064
300.955
299.391
291.181
299.449
296.204
283.21
290.305
291.551
283.15
303.15
283.149
292.423
298.715
286.447
303.15
297.96
297.228
298.856
302.959
283.166
297.064
299.329
301.993
283.15
283.604
283.15
283.149
303.15
283.881
290.244
286.303
303.15
283.15
297.556
285.234
303.15
303.15
303.15
284.58
290.213
301.043
284.396
292.995
283.15
283.15
303.15
298.318
303.15
283.818
289.458
283.153
283.15
303.15
303.15
283.15
294.323
289.946
283.15
295.673
283.15
303.15
301.049
297.262
293.95
295.781
283.15
283.15
283.15
296.572
290.981
302.359
283.15
283.15
283.15
290.066
296.909
283.212
290.456
283.15
292.765
299.526
284.196
298.652
285.253
283.15
303.15
283.15
303.15
290.651
296.622
287.922
291.914
283.15
286.347
283.15
303.15
293.782
303.15
301.749
303.15
283.15
291.92
283.15
288.758
284.616
283.15
283.98
297.991
283.15
300.121
284.661
298.81
303.022
291.033
285.99
283.15
303.15
303.143
283.15
300.966
300.831
283.15
283.15
294.678
284.361
298.157
296.805
283.15
295.083
296.083
283.15
302.041
283.894
303.15
303.15
288.232
298.56
283.15
303.15
303.15
303.15
300.718
283.15
303.15
293.919
283.171
286.961
299.941
283.15
283.15
302.604
283.15
302.452
301.424
297.82
288.737
283.15
293.886
303.38
303.15
298.606
292.278
303.15
283.15
283.305
283.15
290.009
286.091
291.624
283.15
292.843
296.551
293.036
303.147
283.15
303.15
303.15
283.169
292.702
283.15
284.313
303.133
283.15
303.15
303.15
303.15
301.814
290.499
285.984
284.185
284.31
283.15
285.689
303.15
300.714
283.15
303.15
303.15
300.655
303.15
303.15
283.151
303.15
283.15
300.653
283.15
283.15
283.15
303.15
283.15
303.15
283.15
283.662
283.15
303.125
301.839
283.742
283.15
303.083
283.15
303.15
284.704
284.666
286.107
297.482
283.15
297.451
297.564
292.266
286.799
285.262
303.15
291.736
283.15
299.834
283.15
296.751
283.15
292.055
298.554
303.151
283.15
286.78
303.15
295.465
299.055
283.15
283.15
283.15
283.15
303.15
293.646
283.15
283.15
283.237
283.15
299.787
283.15
284.788
303.15
283.433
303.121
284.629
291.877
283.15
301.438
283.15
283.15
285.682
283.15
283.254
283.15
299.639
303.15
290.631
303.15
283.15
302.374
284.463
300.057
285.649
300.055
289.451
283.15
300.602
284.543
283.15
283.14
300.314
301.573
283.15
282.457
301.044
303.062
283.119
303.15
287.558
302.16
284.4
285.381
288.185
282.562
283.15
303.15
300.57
303.15
283.545
283.15
283.15
291.734
282.679
303.149
303.117
283.15
286.264
299.559
283.15
283.15
299.573
303.15
283.15
283.15
283.15
286.146
283.15
303.15
284.816
284.216
303.15
299.667
283.15
289.233
303.15
283.15
286.142
283.15
283.15
283.15
285.359
283.15
285.435
291.93
303.15
300.336
283.446
298.678
300.926
283.311
283.456
283.15
288.938
298.409
303.15
302.253
296.012
296.843
284.708
297.408
297.161
303.15
300.223
303.135
283.15
297.11
284.82
283.15
292.338
295.685
284.841
298.735
300.604
292.299
283.15
298.875
283.468
303.15
300.563
301.953
294.05
283.15
286.477
303.15
283.15
283.15
283.15
283.3
283.15
303.15
303.15
283.15
300.387
299.214
303.15
285.611
303.15
303.15
303.15
290.003
283.417
283.15
303.15
283.15
283.15
286.792
292.345
283.15
295.098
283.137
283.15
295.272
302.212
287.763
283.15
283.15
300.222
292.054
283.15
283.15
283.15
293.956
303.15
303.15
283.15
296.201
302.371
283.15
282.391
301.749
286.519
283.15
283.15
287.44
302.963
283.15
283.159
287.222
283.751
288.757
283.15
285.679
300.282
283.15
303.15
283.15
283.15
283.15
283.15
295.63
303.15
283.15
283.15
295.245
291.779
303.15
303.15
289.823
298.389
298.287
303.15
283.15
297.961
303.15
283.824
298.793
298.314
303.15
303.15
303.15
283.15
286.047
283.15
283.15
302.699
303.15
297.782
302.268
283.15
294.016
283.257
296.398
291.944
283.416
289.751
283.15
283.15
296.846
288.023
290.812
283.15
283.15
297.757
294.938
283.15
283.902
284.581
283.474
303.15
303.15
303.15
290.717
283.15
300.027
283.15
284.369
297.563
298.477
292.227
283.15
283.15
303.15
295.334
283.15
283.15
303.096
283.15
283.15
303.15
283.15
299.294
283.15
283.15
283.15
283.15
283.15
303.15
283.15
283.171
298.743
303.15
302.526
283.131
283.398
283.095
285.503
283.15
284.447
290.5
283.399
303.15
283.149
299.709
283.15
300.226
283.144
283.144
286.188
297.457
283.204
291.857
297.964
283.15
283.15
299.031
299.775
283.15
297.32
291.247
297.529
283.15
283.243
283.15
297.842
296.962
283.15
300.037
297.611
283.149
299.742
283.15
295.616
283.145
303.125
283.162
283.16
283.15
283.15
284.416
283.15
302.968
283.585
283.064
303.148
303.149
303.147
283.15
283.15
293.76
303.15
303.185
283.868
283.15
283.15
303.154
303.15
283.15
303.165
283.15
283.15
303.15
303.15
303.15
303.15
283.362
283.15
283.15
283.15
303.157
283.304
283.886
293.412
283.15
283.15
283.334
283.15
283.15
283.15
287.227
293.56
283.15
283.15
283.15
283.15
283.15
283.15
284.006
283.15
303.15
291.545
283.15
303.15
303.15
303.153
303.15
303.15
283.15
303.171
283.15
283.693
283.144
303.152
283.15
303.062
284.387
292.051
303.15
303.128
284.441
303.15
283.15
303.15
283.15
294.003
293.446
284.63
303.148
283.15
293.217
283.15
283.15
303.15
283.15
294.814
283.15
303.15
283.163
298.132
303.15
284.37
283.15
283.574
283.15
283.15
283.15
303.15
285.839
283.468
284.222
283.15
283.15
285.626
283.15
283.15
303.15
284.32
303.164
298.525
303.15
303.127
303.128
283.15
303.13
283.15
283.44
289.121
301
283.798
283.167
283.15
283.15
283.15
303.183
283.15
302.9
303.15
292.674
303.15
288.713
283.822
303.15
283.15
303.15
283.15
301.779
303.15
303.15
286.397
300.539
283.15
283.15
283.15
283.15
283.15
283.15
300.793
283.577
303.15
303.15
303.157
303.15
300.171
284.411
283.15
302.105
303.15
301.617
283.15
302.564
283.15
283.148
303.152
283.31
302.102
300.211
283.147
283.15
289.335
303.15
293.349
303.15
283.15
303.15
283.15
283.15
283.15
300.794
302.045
303.15
303.15
303.15
302.898
283.15
303.15
292.859
283.085
303.15
297.492
298.286
296.459
283.374
283.15
283.15
283.15
283.15
294.605
283.15
294.844
283.15
303.056
289.828
283.15
302.855
283.15
283.15
302.735
283.148
302.917
283.15
303.15
283.15
302.384
283.15
303.15
283.15
283.148
283.15
283.171
283.15
283.15
303.15
292.969
301.08
296.097
296.994
303.15
303.115
283.15
283.15
285.683
283.15
283.158
302.84
298.761
302.941
303.15
283.358
283.15
303.15
283.15
302.992
283.316
298.278
283.15
303.15
288.08
303.15
283.15
283.126
295.07
283.147
283.15
283.15
283.149
303.15
283.15
303.142
303.15
303.15
289.931
302.986
302.993
289
293.227
283.15
283.15
303.088
289.069
283.15
303.15
284.721
283.15
303.15
283.15
283.15
283.15
297.42
283.15
302.939
283.15
300.489
283.15
283.15
283.15
283.15
283.15
283.15
285.006
283.15
283.15
283.15
283.15
283.15
283.15
291.978
283.15
298.346
302.933
283.15
302.32
283.15
302.512
303.145
292.284
288.779
303.15
292.149
284.776
303.108
303.15
303.14
295.035
288.659
283.15
287.879
283.15
283.15
283.15
283.15
287.504
283.15
283.15
291.635
303.136
285.308
283.15
283.15
302.515
283.15
283.184
303.15
299.877
283.15
283.15
302.82
283.15
303.178
303.15
283.15
289.05
297.945
292.692
285.653
292.521
294.104
283.15
283.15
302.283
290.58
292.752
284.401
283.15
294.355
283.15
303.15
300.726
298.709
283.15
297.394
283.15
292.747
297.19
303.15
283.15
283.15
301.769
283.15
283.15
300.491
296.114
283.195
291.212
283.15
283.15
302.796
300.51
283.15
300.629
283.15
300.484
283.15
283.15
300.79
283.15
283.227
301.586
283.15
283.15
302.425
283.15
287.905
303.15
290.385
303.15
303.15
303.15
300.937
283.15
283.15
299.52
283.15
302.99
283.15
283.15
303.15
283.151
288.194
283.15
283.15
288.057
288.236
283.15
283.674
283.15
303.15
302.41
283.723
301.556
283.15
283.15
283.15
283.15
283.15
283.15
283.15
283.15
283.15
283.15
283.15
303.15
283.15
283.15
283.15
283.15
283.15
283.15
283.15
283.15
303.15
286.948
283.15
283.15
283.15
294.677
283.15
303.15
302.889
283.15
283.15
294.682
283.15
283.15
301.806
295.16
283.15
303.66
303.597
283.15
301.496
293.931
297.523
301.46
298.109
303.15
283.15
296.355
291.756
301.403
283.15
302.137
302.409
300.855
288.032
287.312
301.042
301.768
301.771
303.15
285.853
297.513
285.524
297.216
283.15
283.15
283.15
303.15
283.15
291.968
297.886
283.15
283.15
283.15
283.15
283.15
303.15
283.15
303.15
292.114
303.114
298.994
302.838
283.15
283.15
285.406
283.167
283.15
283.15
301.693
303.15
283.15
298.124
299.484
297.494
298.625
300.785
303.15
291.031
302.582
303.15
303.15
300.308
303.15
283.15
282.987
295.529
302.947
283.15
303.15
289.578
286.144
297.122
292.166
302.383
303.15
303.136
303.15
303.15
283.15
298.929
283.15
291.787
290.437
299.671
284.762
303.15
301.914
303.15
283.15
303.15
303.15
291.478
299.524
283.15
303.15
303.133
291.766
303.029
299.323
292.781
288.315
292.889
283.15
303.15
283.15
291.217
298.275
303.151
303.15
303.15
303.15
297.456
302.554
283.15
299.943
301.118
284.856
299.489
303.15
303.15
298.658
292.941
283.15
302.902
299.723
302.603
291.957
297.279
298.224
303.15
286.977
298.152
291.315
283.15
289.038
303.15
288.386
301.046
303.15
288.699
301.269
300.115
293.149
283.149
283.159
283.237
301.624
300.907
303.15
288.812
301.471
303.15
283.15
303.15
303.209
298.734
290.752
296.752
303.254
283.149
297.502
303.15
303.15
292.764
303.15
300.293
283.303
301.307
291.519
303.15
283.66
293.185
303.15
283.054
298.652
303.15
300.675
286.245
303.15
303.15
283.992
303.15
283.15
283.15
285.91
299.217
291.153
303.15
285.218
297.458
283.15
298.819
298.853
288.962
303.096
283.15
301.496
299.612
298.819
300.061
288.654
290.763
302.478
303.15
301.543
288.708
303.15
298.83
283.15
283.15
303.15
283.15
303.15
297.421
283.15
300.505
283.63
303.15
283.788
283.15
289.83
303.15
303.144
303.15
294.14
302.993
303.117
299.855
290.402
289.433
290.579
298.406
303.15
299.38
292.149
298.917
303.15
283.87
283.45
299.237
287.16
283.509
303.15
283.15
303.15
285.323
303.15
303.33
284.682
303.359
302.954
303.15
303.15
283.15
300.536
300.624
285.487
303.085
286.996
295.647
301.87
292.48
288.141
302.075
296.076
283.15
283.15
303.15
285.806
289.692
283.15
283.15
303.15
301.982
288.659
303.15
296.37
303.15
283.155
285.184
301.087
303.15
303.15
292.258
303.15
283.301
290.607
283.15
297.126
294.62
296.073
303.15
302.707
283.15
302.659
293.392
303.15
303.15
288.784
283.15
303.15
301.792
284.433
303.15
303.15
283.15
302.343
303.469
289.49
299.681
298.026
303.15
303.159
302.602
303.15
283.15
303.15
303.15
303.15
303.15
303.15
303.15
303.15
283.15
303.15
303.15
283.34
303.15
303.34
303.15
303.16
303.15
303.15
300.928
303.677
303.15
291.996
303.15
303.15
283.15
302.553
303.15
302.122
303.114
283.288
283.15
303.15
302.922
283.149
303.15
303.15
291.358
283.15
292.578
283.15
283.15
283.153
291.203
284.837
303.15
296.637
283.15
303.751
303.133
284.311
302.588
283.15
292.156
303.084
301.672
283.15
303.15
283.15
304.11
284.815
296.866
303.15
303.15
303.15
303.15
303.15
303.15
302.339
302.804
297.605
291.994
303.15
287.122
292.629
284.97
303.206
283.15
286.907
302.748
284.758
283.148
287.473
303.15
283.381
302.916
292.519
302.841
301.897
303.15
302.222
303.15
303.15
297.914
303.15
284.466
303.15
303.15
283.15
303.15
303.15
302.841
303.15
283.296
283.15
283.15
285.8
284.909
300.893
286.083
303.15
294.672
303.15
290.443
303.15
287.132
300.67
301.474
293.336
303.15
303.15
303.15
289.798
283.15
303.15
289.553
283.15
283.15
301.815
303.15
286.186
283.148
283.15
303.15
303.15
300.647
298.17
303.15
293.406
303.037
283.15
298.556
303.15
286.412
288.226
302.139
303.15
296.276
296.728
302.951
301.874
301.653
303.15
303.15
303.147
303.15
283.15
303.15
289.556
300.063
294.319
302.125
283.15
300.35
291.386
298.206
283.601
298.307
289.581
302.157
283.15
283.15
283.15
302.203
283.15
290.468
283.15
301.255
303.161
289.71
298.036
283.15
303.15
301.243
301.221
303.15
283.15
303.15
286.428
301.431
302.976
302.331
297.998
288.433
303.15
303.15
303.15
294.221
285.954
289.777
295.857
283.954
302.953
303.15
303.15
283.15
283.15
285.417
299.571
303.15
303.15
283.15
303.15
303.15
303.15
300.243
303.15
285.351
292.424
283.15
283.248
293.344
285.693
303.15
303.15
301.878
303.15
299.217
283.147
297.556
303.15
303.15
283.15
303.15
303.15
303.15
305.195
303.15
301.831
301.108
303.15
303.15
301.61
303.15
283.15
287.237
303.103
303.15
303.15
303.15
297.909
303.15
303.15
302.462
302.483
301.77
303.15
283.15
303.15
302.037
302.504
301.517
302.527
283.15
300.638
287.482
297.438
283.15
303.15
303.15
303.15
303.15
294.35
287.564
299.645
303.15
303.15
303.15
303.15
283.15
303.148
284.765
285.142
283.15
303.15
303.15
283.148
299.579
294.915
283.15
303.15
303.15
303.15
303.15
289.602
289.655
303.15
303.15
302.394
303.15
301.439
283.948
291.88
303.15
283.15
301.157
303.123
303.15
303.055
301.311
286.811
303.15
303.15
303.15
303.15
293.274
284.143
303.15
302.692
298.042
289.396
303.15
303.15
303.15
303.15
299.527
303.151
303.15
303.15
298.241
302.584
288.333
303.15
303.15
297.725
303.15
303.15
303.15
303.15
288.801
303.15
283.15
283.15
295.919
291.078
303.15
303.15
303.15
296.983
303.146
303.15
303.15
303.15
303.15
303.405
300.87
303.15
287.328
302.64
299.372
303.15
303.15
303.15
303.15
283.15
285.65
303.15
302.845
283.15
302.173
303.15
303.133
303.15
283.15
301.917
285.68
283.15
302.824
303.15
302.415
283.15
303.15
303.15
303.151
303.15
283.27
303.15
290.841
283.15
283.15
303.15
303.15
298.814
302.377
283.15
302.407
283.15
284.09
287.979
302.702
283.15
303.155
302.986
303.134
284.389
283.156
302.981
283.15
283.15
283.156
302.07
302.286
303.15
283.15
283.15
295.311
303.15
283.15
303.15
303.15
303.15
303.108
303.045
302.929
302.445
303.15
302.901
303.15
284.818
303.15
303.15
283.15
303.15
303.11
303.15
283.15
303.15
288.311
303.15
303.15
303.165
283.15
302.833
302.054
296.663
303.15
289.271
294.444
283.789
289.926
283.15
283.15
287.209
284.316
283.15
303.823
283.15
286.412
303.15
283.15
303.156
303.15
303.15
303.012
303.155
303.15
283.15
303.138
303.15
283.15
283.105
298.727
302.7
303.15
301.841
303.15
285.707
303.152
301.176
303.15
303.15
301.04
303.15
303.15
303.15
287.688
303.15
285.143
303.15
303.147
303.15
283.15
283.15
303.15
303.15
303.15
288.705
302.546
303.15
303.15
288.572
286.497
291.199
303.15
302.699
287.671
287.53
303.15
303.15
287.662
283.15
291.886
303.15
303.152
303.149
303.15
300.512
283.15
302.3
283.15
303.15
303.15
303.15
303.15
303.15
284.327
302.245
291.022
303.15
303.15
290.554
303.15
303.15
303.15
303.15
303.15
300.137
303.15
303.15
283.15
299.44
303.15
283.15
303.15
301.362
283.15
299.945
290.72
302.683
300.008
299.423
303.15
303.15
303.15
300.817
288.466
283.15
303.15
300.306
303.15
303.15
291.947
303.15
287.476
303.15
297.809
284.31
303.15
283.15
303.15
303.15
303.15
285.238
303.15
300.479
303.15
303.15
299.686
283.15
284.749
303.15
303.15
288.092
301.53
296.396
303.15
303.15
303.15
301.547
292.253
303.15
283.15
303.15
300.656
303.15
284.771
296.276
303.15
303.15
301.127
303.15
303.15
283.15
303.15
283.15
294.535
303.15
283.15
303.15
303.15
303.15
303.15
303.15
303.15
283.15
301.496
283.15
302.073
303.15
303.15
296.058
300.464
303.15
283.15
303.15
300.87
283.15
303.15
303.15
303.15
300.722
303.15
297.646
303.15
285.822
283.15
286.727
303.15
303.15
298.482
283.15
303.15
287.842
283.244
303.15
303.15
285.07
283.844
300.84
301.724
301.175
293.134
301.73
283.843
303.15
297.682
283.15
283.15
303.15
303.15
303.15
301.197
303.15
303.15
303.15
303.129
283.169
283.15
283.555
303.15
302.009
283.15
303.142
296.08
283.15
294.558
303.15
303.15
283.15
299.872
283.924
303.15
283.15
299.898
303.15
297.632
303.15
295.278
303.15
283.15
303.15
283.15
299.407
283.15
283.226
283.15
286.194
303.15
303.15
283.15
283.15
303.15
303.15
303.15
303.15
284.873
284.728
283.15
303.15
283.232
283.15
283.15
303.154
289.845
283.535
283.15
301.489
284.864
300.453
288.158
303.15
303.15
303.15
303.15
283.15
283.15
283.15
303.15
283.15
283.15
303.15
283.15
297.256
283.15
303.15
283.15
303.15
303.15
283.305
283.15
303.15
301.938
303.149
303.15
303.15
303.15
288.713
283.15
303.15
303.149
283.15
303.15
303.15
303.15
295.223
283.15
283.18
303.15
303.15
303.15
303.15
303.15
303.149
303.147
284.097
303.15
283.15
303.15
303.149
303.15
303.148
303.149
283.15
283.15
283.15
303.15
303.15
283.15
303.149
283.15
287.695
283.15
301.803
283.15
303.154
303.15
284.603
283.15
284.446
297.359
303.15
284.687
303.173
303.15
297.367
283.15
303.15
303.15
303.15
303.15
283.15
303.15
303.15
299.134
283.15
303.15
303.15
303.15
303.15
292.307
290.317
303.17
283.165
303.15
301.803
302.308
303.15
283.15
283.15
303.15
303.15
303.15
283.15
283.15
283.82
303.15
303.15
303.197
303.151
283.15
288.834
303.15
283.15
303.15
288.058
303.15
283.15
302.11
283.15
283.15
283.15
303.15
299.661
303.15
303.15
303.15
283.15
284.5
293.577
295.192
289.522
303.12
303.017
283.15
283.15
301.011
283.692
283.15
303.149
303.15
303.15
283.15
294.526
303.15
283.15
302.977
303.15
303.15
283.793
303.15
303.15
288.388
289.53
303.15
283.15
303.15
283.15
303.15
303.15
303.15
303.15
283.945
303.15
303.15
303.15
302.926
303.15
303.15
283.15
283.15
283.15
283.15
302.939
283.15
283.15
300.953
303.15
284.765
284.925
303.15
301.111
303.15
283.15
303.15
283.15
283.15
303.15
303.15
303.15
302.657
303.15
303.15
303.15
283.15
303.15
283.15
286.36
303.15
303.15
291.602
303.15
283.15
283.15
302.412
303.15
303.147
283.15
303.191
286.644
283.15
283.15
299.185
283.15
283.15
303.045
303.161
293.312
303.167
303.151
303.152
283.15
283.15
302.641
283.451
285.814
300.83
283.157
283.15
291.029
301.555
301.452
283.15
300.2
290.685
300.13
302.197
302.739
284.677
295.458
299.191
286.249
293.277
300.087
303.15
297.946
297.543
302.785
283.656
292.333
301.131
287.324
303.15
301.037
303.15
300.706
301.483
283.63
284.967
303.15
283.15
302.274
301.677
283.146
303.173
288.54
302.672
301.821
300.81
303.15
303.232
301.11
295.04
300.414
288.922
302.907
301.624
302.182
302.264
284.207
302.497
301.58
283.177
303.15
302.892
303.15
303.15
302.089
301.994
294.243
303.15
284.659
292.289
292.318
300.887
303.15
284.004
285.18
284.385
303.15
298.754
303.15
296.357
295.354
300.735
303.142
303.15
303.15
301.934
301.249
302.781
303.15
292.598
302.74
289.932
283.15
298.333
293.976
303.15
300.496
283.15
283.203
283.15
302.567
303.096
303.15
302.979
298.366
283.148
300.486
302.213
295.311
283.534
295.829
297.044
283.458
303.133
284.727
296.305
283.318
296.829
300.488
300.23
300.337
301.994
289.781
301.562
303.15
302.713
302.643
302.646
296.485
302.88
283.15
302.004
293.419
303.15
283.432
286.832
301.181
302.594
290.511
284.814
287.69
302.618
296.365
303.15
303.15
295
283.15
292.673
283.43
303.15
290.552
290.308
283.909
303.15
297.271
298.479
284.219
301.223
294.158
290.164
300.523
303.106
303.15
303.15
283.525
302.606
283.348
285.78
303.15
303.016
303.035
303.15
285.409
300.785
297.824
283.245
299.549
302.366
300.496
286.883
283.15
303.106
301.81
283.734
283.137
303.15
303.071
303.15
303.15
284.172
302.522
296.358
283.034
283.153
303.15
283.15
302.947
303.042
302.496
301.397
303.15
283.15
283.15
301.808
301.864
283.214
295.863
303.15
303.15
301.604
285.48
283.258
301.667
301.769
301.717
284.403
303.15
283.15
298.447
297.741
303.15
302.698
302.074
284.689
284.961
302.104
303.052
303.15
298.119
284.427
283.15
303.15
300.57
301.201
302.007
289.597
302.066
285.645
300.124
300.264
290.33
297.511
303.15
303.15
300.921
284.454
302.085
283.151
300.489
301.699
283.62
288.292
302.416
283.15
283.15
283.029
303.15
303.15
299.923
298.927
302.281
283.147
283.15
283.929
283.151
283.15
283.152
303.074
300.917
299.156
295.86
283.367
303.096
300.121
303.15
283.15
302.552
289.219
300.769
292.688
283.502
303.06
283.148
283.15
302.834
301.194
302.61
283.156
291.266
284.864
303.15
284.256
301.028
283.15
283.308
284.93
284.149
283.15
283.15
301.625
283.15
289.359
302.523
302.701
301.771
283.479
298.27
289.999
283.15
303.347
292.085
283.15
283.15
283.15
303.15
301.195
302.409
299.157
301.457
299.908
288.842
283.155
290.979
290.152
303.058
291.068
299.972
292.055
283.15
286.286
301.072
301.533
283.15
283.972
299.626
283.15
303.15
283.187
301.27
303.15
284.016
302.253
303.019
303.15
283.15
292.784
303.153
301.684
283.15
283.15
283.15
302.19
297.552
303.143
302.188
303.167
303.15
288.367
303.167
290.432
300.214
300.173
296.575
283.156
301.691
283.15
290.582
301.401
289.442
290.477
298.965
300.679
301.587
287.169
291.136
285.012
283.172
302.212
286.125
283.149
283.144
300.196
283.079
300.288
286.987
296.044
299.417
289.188
299.259
283.121
299.127
283.15
289.997
289.025
298.649
283.329
283.15
300.56
283.15
302.797
283.15
303.15
286.481
286.481
283.15
298.973
298.548
287.036
303.15
303.15
301.724
289.781
302.995
283.723
301.567
287.077
303.147
284.189
288.189
303.15
301.416
283.15
283.15
287.558
287.019
283.145
285.241
301.486
286.233
301.17
303.15
285.102
301.737
291.182
303.15
303.15
301.609
302.039
303.15
293.019
294.272
283.678
296.379
286.783
290.006
303.15
302.775
296.995
285.009
283.15
287.719
291.908
299.637
283.163
283.746
282.946
301.942
303.115
283.151
303.133
303.15
300.558
293.053
298.797
293.82
283.15
291.933
295.966
285.589
283.21
291.538
283.15
300.259
303.164
292.53
284.095
303.144
291.847
298.598
288.226
300.344
291.323
287.314
283.15
303.142
285.343
289.878
293.466
283.15
283.15
283.15
303.141
283.15
283.137
286.425
303.15
283.15
303.167
283.172
291.101
288.939
303.534
302.91
289.851
303.15
296.962
303.176
301.994
287.254
283.15
292.907
303.145
303.093
286.183
283.15
283.15
283.473
286.012
303.053
303.144
287.508
289.47
283.479
283.162
289.845
293.202
303.15
283.15
303.095
303.15
302.325
285.008
302.333
303.093
284.053
283.768
284.032
302.85
302.175
297.38
293.975
303.07
291.264
291.021
303.15
303.097
302.579
285.429
283.377
303.15
285.936
283.384
302.929
301.662
302.168
283.15
300.318
301.84
303.15
302.148
285.405
303.15
297.878
303.15
283.15
300.668
302.681
286.327
302.484
283.15
285.159
303.009
283.15
302.302
285.371
294.862
284.336
303.15
303.016
302.871
286.5
283.15
287.117
284.247
289.772
285.722
302.243
303.15
283.15
283.15
293.12
283.15
301.038
302.154
290.352
283.15
294.009
283.15
303.15
283.15
300.047
298.538
283.151
285.268
301.716
303.072
303.156
291.821
294.17
301.19
283.208
301.791
283.145
303.15
303.141
299.021
283.15
300.816
294.742
303.15
300.935
287.302
301.943
284.892
288.192
283.15
302.213
287.722
298.396
303.074
283.15
303.15
291.629
302.153
283.077
283.147
286.73
298.313
303.149
284.477
301.014
300.986
301.241
303.153
299.869
287.636
284.917
301.57
299.873
283.723
283.104
303.16
303.149
303.15
297.318
283.163
283.15
303.15
303.149
289.892
298.893
300.263
287.77
302.798
303.15
286.42
301.543
303.15
300.943
283.794
301.442
303.15
284.532
301.37
295.491
302.761
303.15
303.15
285.164
295.025
296.336
287.365
303.15
303.15
283.15
287.199
302.395
296.125
303.15
285.538
303.15
303.15
300.439
288.699
283.15
295.509
295.836
299.052
283.15
303.15
292.646
287.208
303.15
297.915
300.476
300.381
303.15
303.15
303.15
300.188
298.288
302.795
299.856
283.15
292.857
287.652
290.562
300.547
303.15
303.15
300.728
303.096
286.54
296.063
303.15
303.147
283.15
286.422
298.883
285.567
303.15
303.15
283.34
303.122
303.15
303.15
283.15
290.494
303.15
303.15
284.565
299.258
283.15
303.15
284.612
301.304
300.139
286.969
294.911
303.15
283.491
303.15
303.15
283.311
300.506
290.369
300.37
303.15
303.129
302.169
292.6
299.768
301.338
284.442
283.452
300.822
298.35
303.15
302.744
284.123
299.694
301.355
287.661
303.15
297.386
301.384
301.471
301.511
292.859
303.15
283.15
299.158
283.15
283.15
287.729
283.15
283.999
283.15
283.15
283.15
283.15
302.749
288.123
302.696
283.15
295.648
290.906
284.721
283.15
303.15
302.671
301.724
303.162
302.629
283.15
294.757
300.233
290.139
283.15
283.15
299.788
285.92
283.15
283.15
303.149
290.538
283.15
287.118
303.149
303.152
284.306
283.15
288.165
292.362
300.773
294.564
302.954
285.602
302.492
295.207
286.249
283.15
283.533
291.584
303.072
289.086
302.649
283.15
292.334
287.726
301.003
301.242
284.874
303.104
284.887
297.022
302.981
303.146
285.117
303.145
303.002
293.263
302.669
283.15
303.15
303.15
294.719
291.001
283.155
301.077
284.671
284.143
284.602
303.145
288.323
300.428
283.15
283.15
302.497
303.15
294.518
302.897
303.182
299.782
303.222
302.878
283.15
301.262
302.874
283.15
303.15
301.291
303.15
284.294
298.724
283.163
291.498
283.15
287.555
303.01
299.711
283.15
303.022
290.872
301.173
303.125
303.077
283.15
283.15
301.919
301.982
283.792
302.804
302.406
302.359
303.141
283.15
293.665
283.15
302.781
287.837
302.985
303.15
283.15
302.815
285.096
291.441
302.026
283.15
302.574
301.974
301.543
302.474
303.044
303.211
303.008
303.15
283.15
301.495
297.773
303.086
303.15
289.887
284.864
303.15
283.15
285.286
303.184
303.165
302.914
301.11
284.251
303.096
290.627
294.179
303.148
289.001
303.164
283.15
289.797
283.15
299.923
298.077
284.758
288.139
299.578
296.619
295.241
299.129
293.715
303.154
293.782
296.331
283.16
299.341
293.808
303.15
298.859
299.095
303.15
291.13
303.172
301.656
303.15
286.896
286.005
302.794
289.63
283.15
283.15
300.324
301.112
283.711
283.15
303.15
300.192
302.306
300.582
299.825
302.779
292.53
289.598
286.605
292.444
284.295
290.358
283.302
295.652
290.386
293.872
287.048
284.268
303.163
283.27
303.148
285.579
300.688
283.151
300.363
298.35
288.703
302.083
285.376
299.031
283.15
302.949
283.154
283.116
287.623
299.619
303.15
300.319
303.016
299.888
302.754
303.15
301.23
284.941
294.866
302.03
303.149
283.703
283.15
290.249
285.223
285.734
303.129
303.148
283.15
283.15
283.176
303.15
293.404
303.15
303.149
294.197
303.432
303.15
300.391
303.15
303.15
293.607
290.561
303.15
289.791
302.04
289.517
303.15
303.15
285.911
283.331
290.276
303.225
303.15
303.145
285.453
283.244
283.15
288.938
287.559
303.15
284.293
303.15
303.15
303.132
287.304
303.15
303.147
283.275
303.152
302.655
287.882
283.152
283.593
297.283
290.685
303.15
285.913
284.414
301.3
287.077
302.195
290.541
293.803
303.15
303.15
284.001
303.148
302.942
295.823
302.938
302.734
287.14
283.15
285.293
283.217
297.075
302.576
285.355
303.15
283.786
286.688
303.124
283.175
303.15
286.355
283.15
300.088
303.15
299.686
299.846
283.252
283.357
302.313
290.782
301.309
303.15
301.371
301.723
303.15
303.15
298.286
293.358
283.15
288.73
303.15
295.169
283.355
303.15
296.844
298.662
288.947
303.15
302.751
294.148
295.314
284.453
303.161
298.626
296.055
283.97
303.122
302.795
287.336
298.374
289.776
290.752
289.698
283.15
302.939
303.152
303.15
303.175
293.017
296.242
302.973
301.265
303.15
284.438
303.15
303.039
302.852
303.15
293.49
296.18
303.15
285.357
303.095
303.15
303.088
303.158
286.043
293.27
291.063
288.366
293.354
303.15
301.177
291.357
295.298
293.394
303.141
303.15
300.523
303.189
284.231
303.19
303.15
303.15
303.143
303.15
284.922
303.15
284.21
303.146
303.15
290.172
303.144
292.417
295.461
303.133
295.262
285.968
283.443
303.124
302.932
284.661
283.15
297.056
303.15
285.484
302.908
302.019
303.015
298.371
287.024
303.15
298.644
289.86
299.302
283.15
283.608
303.15
303.145
303.19
294.012
303.15
292.379
289.295
303.195
303.15
284.772
298.702
293.161
299.534
302.463
301.568
300.341
303.15
284.703
296.899
302.353
285.562
298.298
292.23
284.453
291.583
303.15
286.611
291.769
290.088
299.39
303.15
286.426
284.077
303.15
302.414
288.105
302.086
283.15
303.15
299.785
301.671
288.95
301.964
301.894
301.788
303.15
289.269
285.113
301.942
302.22
297.087
303.15
283.2
303.15
301.964
303.15
302.791
303.15
291.622
303.15
296.441
283.15
289.392
303.15
283.15
292.147
301.412
300.369
289.158
300.449
303.15
302.482
303.15
302.356
285.187
303.15
300.355
290.348
303.15
300.763
303.15
303.15
293.133
283.15
285.527
293.169
300.882
303.15
291.115
293.794
288.141
289.615
288.076
299.178
300.227
300.754
287.338