/*--------------------------------*- C++ -*----------------------------------*\
  =========                 |
  \\      /  F ield         | OpenFOAM: The Open Source CFD Toolbox
   \\    /   O peration     | Website:  https://openfoam.org
    \\  /    A nd           | Version:  10
     \\/     M anipulation  |
\*---------------------------------------------------------------------------*/
FoamFile
{
    format      ascii;
    class       volScalarField;
    location    "3.5";
    object      p;
}
// * * * * * * * * * * * * * * * * * * * * * * * * * * * * * * * * * * * * * //

dimensions      [0 2 -2 0 0 0 0];

internalField   nonuniform List<scalar> 
111485
(
8.89232
2.32522
2.69873
8.80528
2.79162
8.67068
2.36754
2.05851
2.37374
3.49162
2.34451
3.01544
2.38764
2.32408
2.39924
2.43672
0.77437
8.80849
2.36743
8.77174
8.75008
8.74491
2.39854
2.41409
2.78444
8.60003
3.3532
1.32122
2.69211
8.94751
4.60728
0.541341
8.82435
8.96036
8.73837
9.10061
4.56574
0.141112
5.34929
2.47116
9.06331
3.49181
2.46846
4.05173
5.06328
9.14368
3.82396
2.40549
3.48269
8.60386
8.60486
8.34667
8.60584
4.12308
8.60617
1.49137
2.39857
9.12276
3.83113
2.46637
2.47342
8.8905
1.9122
4.5048
8.48083
1.68423
7.3282
2.19261
1.93415
2.07034
4.89916
1.7384
8.4413
1.92732
9.05163
1.00017
8.79463
3.35422
8.74373
8.62886
4.68097
3.93566
8.85338
9.0176
1.90284
2.54412
6.10483
4.14079
4.77233
0.715536
5.08025
2.54928
1.91306
0.28579
3.49725
9.0119
8.8975
4.13405
5.01158
4.33165
8.86164
3.37335
9.05151
3.30488
2.2508
8.57457
8.99663
0.6303
2.60467
5.01955
0.430862
1.72572
2.54397
3.13684
8.59818
0.941777
8.63337
9.12425
1.94717
8.77576
8.59699
8.04722
8.85297
9.12591
3.64417
8.87103
8.03996
0.727753
9.07573
5.44939
4.57316
4.12891
9.04123
7.98527
8.11053
2.3106
8.81172
0.998079
2.12076
2.14292
3.53566
2.14518
2.14383
2.6667
3.71824
0.101656
8.80853
8.99715
9.05244
2.25918
2.67506
8.7532
4.61273
0.0104992
4.99425
2.24295
2.21839
2.37673
5.04459
9.11979
8.80594
2.23622
2.6813
5.06766
5.03101
0.872757
4.41843
9.1231
5.08872
5.09882
9.05229
8.9837
2.90838
8.91894
0.167218
0.0314482
8.54978
8.43906
8.61539
8.56021
8.43181
8.79951
2.26268
2.26841
2.24367
0.0346894
3.35966
1.19931
4.54758
8.85233
1.05145
8.44282
8.90553
1.20838
3.47817
4.39675
1.59547
0.135171
9.05039
2.2732
2.64075
7.4547
3.92376
0.689213
9.08816
1.21652
3.20611
8.43417
4.37425
3.80734
2.65374
1.18678
8.42123
8.91876
1.19984
7.35234
4.13251
8.90761
1.21542
1.03511
3.54819
9.1408
1.3484
4.30202
7.76661
8.91566
9.05837
4.8856
5.02292
8.50555
8.2207
1.04433
0.273413
1.69599
8.50019
8.48691
4.50039
9.06771
2.25382
1.0388
1.04645
1.03961
1.04681
9.06806
4.72383
0.826806
9.09113
8.84214
4.14044
1.73617
8.51952
0.519421
0.776616
8.99083
7.93137
3.87645
8.5959
8.51992
8.14078
8.68532
0.909151
1.02884
0.0809216
9.14753
0.792911
8.81711
8.88398
9.08051
4.52903
3.36697
1.82157
1.84487
3.13998
1.82419
1.86031
4.7289
0.268876
0.281593
8.52835
8.98322
4.75752
0.632964
3.51982
0.334713
8.78777
1.85337
2.27022
1.81429
3.20211
4.74827
1.80556
1.8366
3.91092
9.12816
3.33746
8.92003
8.84024
8.53546
4.87371
3.15386
2.4438
8.65331
9.13561
1.4296
0.456633
8.74312
8.92811
8.61395
1.0264
0.286675
2.21222
2.31629
2.51359
8.296
9.00909
9.03222
1.43344
6.59586
2.46064
4.78849
4.47987
8.84499
8.88373
8.89504
8.10423
1.54349
2.76403
9.1216
1.52286
8.50277
8.59584
4.2183
1.5335
3.10786
1.51163
8.58466
8.09403
9.07227
1.52819
0.0819137
4.64995
8.57705
5.60501
4.64092
2.80414
1.36004
5.84211
2.52995
8.78412
2.53246
1.55958
4.75104
4.20726
2.83257
8.98249
9.03409
9.02744
8.80993
2.18618
1.32226
3.12633
2.53116
8.95806
2.95514
9.01182
8.89858
2.53048
8.61323
8.05864
9.14286
9.11532
2.24687
9.12723
0.0651282
2.91928
8.74627
2.03088
1.60818
8.55021
1.57866
2.97807
1.58463
4.38687
0.13784
0.298336
8.59646
8.99388
4.03021
9.10257
3.07809
4.2742
8.52196
9.08938
1.50218
3.04403
0.260683
2.92966
8.80008
4.59609
3.01351
8.64364
4.04902
3.0556
8.92077
8.78928
0.0664503
2.78914
9.09311
8.63871
7.61464
8.859
2.85116
8.90945
8.84328
3.02728
4.60102
3.72592
2.78619
8.68019
8.10774
4.05099
8.16021
4.0447
4.06962
3.45223
7.40164
8.19148
0.325279
5.0618
8.94376
4.21557
2.9351
9.14389
5.14046
3.53309
8.1709
3.11144
3.01461
0.152124
8.7053
0.204261
3.18449
0.147062
4.96581
8.03591
4.95175
9.04698
4.60997
0.0850056
9.04367
3.11007
3.86354
7.95728
9.14128
8.31053
8.7478
2.80317
0.154454
3.07164
3.09412
4.36544
8.91923
3.15498
8.89832
2.79299
8.61603
8.89704
8.98249
3.09867
9.00594
8.91739
8.68886
8.89882
9.07378
3.87514
9.12869
8.34766
9.01608
8.92336
8.66331
9.03994
8.76391
3.12413
9.02106
3.91456
3.20714
5.14836
8.61752
3.90893
9.02166
8.88727
3.09545
3.07137
3.12088
4.7958
8.33325
3.57253
3.58047
0.196502
0.346237
3.199
8.97539
0.19917
7.95909
3.61002
8.93817
3.61238
8.05273
0.400027
3.06071
8.59851
9.0413
0.349967
8.725
3.57199
3.59648
9.08307
9.01942
8.57457
9.03414
4.84417
3.56305
8.5468
9.11208
2.80384
8.74639
3.58145
8.78282
3.76513
8.89367
3.49914
3.57834
1.55511
0.385685
8.57519
0.0430172
8.60115
8.94309
3.28767
8.94323
3.5183
8.58054
3.62031
8.95804
3.28994
8.74196
8.1821
5.14394
3.31229
3.56739
3.30376
3.58147
3.04623
9.0475
3.57877
3.30893
8.89084
4.84561
4.47989
3.57957
8.55339
8.51808
2.76685
3.67379
6.79757
8.37185
3.30888
2.77217
3.36034
3.36929
0.414471
6.32899
8.1399
4.9239
6.56602
8.81921
3.5549
9.10622
8.20058
0.70832
6.31549
4.95155
5.85754
8.14404
3.3891
2.78046
8.60704
8.32775
2.76979
8.66016
8.73724
8.76472
8.59896
3.39148
9.01012
9.07519
3.41903
1.06757
7.70346
2.76565
8.31788
1.0511
8.60231
9.05901
3.41445
8.93524
8.62673
8.18691
0.10387
7.23472
3.49841
0.717245
8.64645
5.10146
3.5186
2.87966
4.40621
5.36053
2.81942
8.95082
3.48947
2.8701
9.08984
1.63527
3.93009
2.94313
0.101983
2.95667
2.94774
9.04414
3.57558
4.37168
8.16807
2.95348
3.59079
7.31114
0.713127
2.94733
3.60504
3.11462
3.13259
0.718268
8.56012
3.13526
3.5308
8.59052
3.34508
3.35144
0.765363
8.9489
0.0908867
9.11005
8.82358
8.98213
8.59936
2.86664
8.22028
4.82682
8.90889
8.65216
3.35072
3.36551
8.72157
3.59202
8.88955
9.07922
8.61143
3.6734
3.56199
8.19763
9.1251
8.9325
8.96163
4.49489
0.76796
8.1204
3.2795
5.03599
9.08291
3.27898
3.81469
0.410785
8.71572
8.90964
1.69909
0.75347
8.16992
9.04369
8.51937
1.25595
8.98871
8.64459
8.89669
3.24951
2.57015
8.75108
8.67785
8.57363
0.428437
9.10728
8.64997
3.69694
4.50691
8.1577
7.70077
5.73202
3.76716
0.0203129
8.47097
2.75694
3.87403
9.12969
8.59844
8.81984
8.91981
9.02055
8.76852
3.25566
8.88638
8.81623
8.5631
3.26474
0.747716
8.59518
8.60181
3.77888
0.755037
0.774904
8.66849
8.82623
0.762186
9.00349
3.28938
0.752903
0.784941
8.59443
8.85805
8.85737
8.97566
2.7913
8.84364
8.78486
4.12312
8.84938
1.32153
3.85496
8.51713
0.726903
8.44781
1.32
3.4136
3.53663
3.74388
4.81553
8.28494
1.31046
3.7848
0.0181773
8.52471
4.49692
8.14352
0.222905
8.98772
3.90021
3.8122
3.89719
8.54578
8.87009
9.14572
0.755374
8.32599
0.505
8.40946
2.50934
0.208418
0.53816
0.761138
8.77113
8.58988
8.44197
0.77256
8.62567
8.29277
5.03036
9.10756
9.10485
8.85346
8.8246
0.550906
8.4862
8.90635
4.70028
8.31183
9.12024
8.11788
8.88644
3.89091
0.531768
8.7572
2.81371
5.75951
3.90757
5.09865
0.664437
9.03233
3.44711
4.44413
3.91146
9.02682
4.41107
0.551454
7.97028
0.514236
4.80265
4.96885
2.0489
0.362125
4.86585
0.104715
0.479417
8.97186
8.58777
0.360294
0.359395
9.07463
0.36516
3.07372
0.474294
8.55412
4.92688
8.98831
0.498529
0.477114
8.69674
0.229896
0.46982
4.9319
0.129469
8.52468
2.20817
4.94468
5.24028
4.90289
4.22626
8.95485
8.99102
4.13422
8.81705
3.15595
4.26875
7.9959
5.08201
4.93966
5.13893
8.82415
7.93904
1.13265
9.07439
9.07603
4.21148
8.60608
8.67036
4.97749
4.87815
8.82073
4.96546
8.9165
8.93243
9.08625
8.89636
8.59728
8.9974
4.25017
8.58245
9.05229
9.08297
4.74878
4.19868
2.61162
1.12224
8.71759
8.62761
4.39827
8.87753
8.66989
7.68862
4.30472
1.46548
8.72424
8.65843
8.60956
8.65039
9.01966
8.63231
4.3699
8.62651
4.93965
2.51929
8.95902
8.876
8.59762
4.95397
8.59792
8.80853
8.97165
4.97985
9.00211
4.35897
4.54435
4.89659
8.75608
7.39295
4.38072
2.42725
8.43819
4.95872
3.6332
8.65281
8.49394
8.05551
8.65646
1.13053
2.18802
4.47542
4.98441
8.70414
1.12435
8.47134
8.12777
8.04128
9.05871
1.98185
8.8948
8.59562
4.63407
1.46545
8.59575
3.54235
8.36558
4.47489
8.6077
8.9389
9.01448
8.84004
0.525435
2.16384
5.40286
8.71795
8.5495
0.532012
8.8213
8.2374
8.90098
3.24419
5.01024
2.7899
8.64748
4.68578
4.66115
8.68169
4.67646
8.60077
4.06444
3.65769
2.12237
4.65672
4.64594
8.84982
8.92226
8.92476
4.67109
9.15361
4.70884
9.10666
5.56022
8.63324
2.44385
2.52057
8.6001
8.79431
8.59719
9.10198
4.71335
8.59573
8.05965
0.52403
4.72328
8.56225
8.22276
8.44504
8.23396
8.60187
8.85894
4.73983
3.66162
8.80207
8.59173
4.97891
8.90168
4.73785
0.536317
8.54148
4.13476
8.84948
0.321077
8.57166
2.7062
8.68886
5.01242
4.96378
4.84689
4.1516
4.14751
7.21668
8.48211
4.1791
8.60137
1.97661
8.69244
9.02079
8.35782
9.0141
9.04819
9.06911
4.14951
4.14998
8.85192
7.95224
8.65235
4.2134
4.94045
8.92496
1.98692
4.91237
8.60025
0.696272
0.487019
1.89322
4.86872
8.81784
8.88923
8.97203
8.77497
1.99492
8.99835
4.23579
8.86292
4.26127
2.71658
8.99988
4.23774
9.06707
8.80736
4.27781
4.50532
6.16845
8.86386
8.58987
8.64454
2.05899
8.41195
9.11917
8.48328
5.70756
8.08137
5.01642
8.22208
8.46359
8.49515
0.596654
0.526501
3.05055
2.26907
9.09903
4.26803
8.9427
9.07606
0.518021
8.57172
5.00678
4.25333
0.370011
4.30622
4.8606
3.01826
9.04285
4.69381
4.18519
3.68074
4.38252
1.51897
7.55133
8.8865
2.91529
8.66474
8.66215
5.12659
3.48689
4.88537
8.9385
8.88593
4.62643
8.59894
8.58392
4.33456
8.59682
8.60006
1.79907
4.34825
4.44313
1.77695
0.903428
8.61987
8.84338
5.1066
1.75634
8.76395
8.59654
3.10788
8.60038
7.93608
8.10275
8.12187
7.1217
7.92805
8.76395
2.95397
8.64163
4.42864
8.68865
6.75953
8.56546
8.57084
9.04916
8.81424
2.74031
8.82093
8.81468
8.17433
8.66398
9.03846
8.93393
1.66865
8.8334
1.5136
4.45253
8.56929
2.99861
8.73345
3.76537
4.93971
0.394888
0.408465
8.59628
0.441923
2.74933
4.83952
9.07648
4.54379
1.31831
0.200998
8.36778
0.255263
8.55681
9.03977
8.67163
8.75412
0.256454
8.91637
8.6756
0.202286
4.52786
0.196083
9.08083
7.54498
2.99064
8.98744
5.11309
8.59781
0.429849
8.56333
8.59243
2.98071
8.6865
4.54817
8.90354
8.68839
1.30504
3.852
0.957529
2.12517
5.00194
1.68801
8.69444
8.61458
2.55142
0.995903
1.65175
4.53192
8.81933
1.52928
8.79734
8.64689
2.59743
4.5756
8.60746
1.01665
9.03991
0.96721
0.892856
8.44909
8.75919
8.97525
2.54553
8.91119
8.91176
2.56855
0.963086
4.3685
0.23877
8.70143
9.02329
3.17268
2.57888
8.70128
2.56519
8.5603
2.55293
8.73586
8.71176
2.55113
8.82736
3.66305
2.34507
8.61639
8.76184
2.35023
7.9348
2.8415
8.88591
4.41524
8.90268
7.96247
7.87861
2.36484
8.18919
8.14161
2.18262
8.13808
6.98872
7.91813
8.55117
8.661
4.84715
2.84254
8.91817
8.94468
2.81376
2.82965
8.61387
2.57734
8.77393
8.65803
3.27722
3.12143
0.0733946
8.73022
8.94677
8.91736
8.81637
8.60411
8.60923
8.95321
8.6321
8.64672
8.76225
8.92382
8.66334
8.85869
8.7159
8.65135
8.53712
8.71351
8.76012
8.8375
8.89438
9.05007
2.88217
8.88954
8.71852
9.07316
1.96333
9.13353
8.65542
6.47277
8.52532
8.47851
1.97681
8.65802
8.46928
6.68609
1.98864
8.86035
7.97764
8.17764
8.66661
4.04078
2.00039
2.00941
1.93378
1.1827
8.65204
8.67727
1.47981
1.55369
1.92839
8.79479
1.75787
3.90196
1.90425
0.311106
0.352438
1.94573
0.608217
1.90193
9.08595
2.16149
1.75528
2.70523
1.76157
8.98155
8.93384
9.03189
8.85231
8.9751
1.54058
1.78306
8.97144
8.65152
8.62753
8.54092
8.68121
8.6918
8.54878
8.66422
1.75931
4.92676
1.77627
2.96377
8.56672
8.46511
3.99035
5.03621
8.75346
8.81657
2.84058
9.11151
8.8976
1.74598
1.76488
1.76607
2.80234
3.95742
8.67578
0.0217324
2.11284
8.06227
8.66821
2.09069
8.65665
8.58212
6.26062
5.79238
2.99066
8.53121
9.09569
4.50909
2.14652
0.0344979
1.54912
6.65809
8.85961
4.21152
8.59941
9.10738
8.47048
2.80326
8.6756
1.53859
0.0685823
2.06194
2.1352
8.97924
1.35287
9.02355
8.43076
8.99171
8.62905
0.497451
7.08486
8.82335
8.79202
8.62551
1.54645
8.01735
1.38545
1.5435
0.482778
1.54598
8.53981
8.53656
8.04709
2.7743
1.16019
4.89642
8.59889
8.88837
8.0293
4.01734
2.98126
8.82018
1.14476
6.29497
2.14682
1.15455
8.82572
7.95129
1.1618
1.53857
8.93816
3.48511
3.37961
2.98764
1.36682
1.21231
1.24982
8.05601
0.454528
1.25313
1.06052
8.53643
2.0573
8.0927
2.7197
1.31086
9.14511
0.322327
1.25287
1.36658
1.62666
8.82737
6.15343
4.44622
7.00241
1.26057
8.37456
0.388047
1.24711
8.60849
8.84163
5.15556
4.86787
1.80041
8.79138
3.04405
4.99953
4.84966
4.59401
8.57429
9.10823
1.5321
8.67111
1.38126
4.92595
1.24913
0.375824
8.76391
3.70514
1.52156
8.65647
8.07999
0.96397
8.98501
0.969501
0.907486
8.89813
8.81255
2.15337
8.70831
8.72086
9.13534
0.370132
5.24011
2.7888
9.11682
2.71159
0.665811
8.50669
0.661157
0.696275
0.417179
4.8982
8.77308
1.3696
0.270155
0.680612
0.687003
0.434862
4.80168
2.48201
8.88389
0.0533605
0.472959
8.82685
0.687932
9.07773
8.90113
9.04388
9.11601
8.78413
4.01284
9.02365
0.663339
3.26427
9.09279
3.13817
8.55769
0.47003
8.65255
4.77389
8.42483
2.61639
4.16759
4.99412
0.716487
0.470695
2.70334
0.419091
0.728902
6.40959
0.716645
1.7291
0.734266
9.09356
1.53778
4.88833
0.743834
2.41951
4.92045
9.07503
8.09531
8.61293
2.73857
8.77667
7.74374
0.467266
8.63565
3.36093
8.65227
9.05957
8.81989
1.70101
2.85879
0.800367
4.26938
0.387645
1.45754
1.38131
1.7423
0.547304
1.37477
1.43161
8.56701
8.9995
9.14291
2.15901
1.5058
8.54371
8.81836
7.80951
1.38216
0.561433
8.74623
1.4319
8.9226
5.06455
2.74876
4.4291
8.8212
8.8957
1.7106
8.8491
3.64962
0.7347
8.39067
1.9245
2.42229
0.303077
8.62194
4.56875
8.17774
3.49566
2.78737
8.83218
9.06117
0.707497
7.58525
9.01018
0.919721
0.348759
8.87934
8.62209
8.14265
1.39287
7.78283
2.17975
4.02911
3.43526
8.89186
8.09571
3.95111
8.89973
8.92824
8.96698
8.77447
8.1666
8.44415
8.37272
8.65148
8.51334
8.35583
8.64723
8.4041
3.65097
8.40311
7.97978
7.84858
8.8531
8.05274
8.89552
4.01918
8.23867
8.42974
4.1236
8.57082
8.72533
8.52818
4.03555
8.64773
4.01885
4.43227
3.43879
8.27869
8.7443
4.01322
5.0509
8.55534
9.09203
2.15587
8.23621
2.1435
8.20149
8.94615
8.42502
2.13996
2.12388
8.94339
3.11688
8.57561
8.23135
4.76074
1.11033
4.01699
9.09098
2.14764
8.16638
3.3626
8.76925
8.63135
8.71565
8.06836
1.10486
1.34603
9.01236
4.92882
8.64863
8.65145
8.64606
8.78319
3.78243
3.78576
1.37397
5.19701
9.12988
2.76028
2.18936
1.01246
3.78112
9.09987
1.08453
3.7688
1.94626
5.06485
2.0333
8.61233
2.60105
3.83383
2.16929
3.85494
4.04106
8.61279
4.07601
8.51473
8.90489
1.78051
9.01485
2.73883
8.96175
8.60094
8.45251
8.62704
9.0536
3.84095
8.61071
3.1942
8.28384
8.96998
2.67195
3.68926
1.44318
3.09061
9.04462
5.53571
9.01655
3.3762
8.60031
2.67113
3.76711
3.82733
3.4058
8.59431
8.59743
8.55578
1.16867
8.97541
8.65841
1.16816
8.55451
8.68046
3.8176
8.59351
2.08702
5.0375
8.27068
8.32212
8.2914
1.37514
2.30693
8.77553
0.0464372
3.30505
8.20835
3.88506
8.98056
1.19562
2.71033
1.02958
8.75044
2.85953
1.49451
4.02235
3.73504
3.16441
8.83521
8.86927
4.87544
8.68201
8.77036
8.93219
1.20877
3.91477
1.57005
2.48482
8.13802
2.85073
2.17605
2.33436
2.80663
2.85322
3.57702
3.13286
8.81629
8.80736
8.80968
3.1474
8.97456
3.31641
7.47747
3.14567
5.01036
1.21085
0.592835
8.68755
8.94337
3.15496
3.13419
8.90737
8.84856
9.12047
1.30517
3.13286
3.24053
3.27018
0.32033
2.1711
8.68222
9.03024
8.88562
0.26397
2.09273
0.0354996
2.37041
1.35733
3.28485
8.50944
8.88337
7.90464
8.56625
0.335658
2.80143
8.85813
8.61203
8.56345
9.08981
9.11613
8.4285
3.40346
8.7337
4.15564
5.16352
8.64228
3.3386
0.102178
1.27524
8.9955
8.46703
3.38854
8.84456
3.4095
4.85803
1.38391
8.40631
7.66848
8.78282
8.73173
8.6885
8.38299
6.1396
8.61595
3.41616
1.56682
8.88789
8.87641
3.48153
8.67644
8.90626
1.89907
4.99172
8.64546
8.64113
8.44929
0.713296
8.85283
8.86273
5.74737
3.48877
3.48416
8.7602
8.63717
8.19411
3.49359
3.45449
3.48598
2.4653
8.73513
0.594318
0.123263
0.149912
9.06381
9.05155
8.88805
9.0666
8.85358
1.89589
1.94435
1.56315
9.10447
8.97231
8.84637
8.9428
8.49201
4.2365
0.256701
0.0590246
8.59937
8.82875
9.1174
4.88852
3.95753
4.54426
8.92823
4.52669
8.60079
8.58864
8.8645
1.89099
2.09952
8.6605
8.57976
2.5792
8.86754
1.38906
1.72413
6.38159
8.65283
8.57243
1.395
4.25968
8.50506
6.30909
0.206974
2.77444
8.73751
8.67271
9.0897
8.88571
0.38118
0.963611
8.67498
4.27146
3.67842
5.32052
8.77753
8.68316
8.66521
8.67533
2.84899
8.64376
8.78458
8.51448
0.638578
3.2242
0.789582
8.5298
9.05935
3.6804
8.39869
8.87242
8.69043
8.73567
2.01659
8.44493
8.67919
8.68757
0.786469
2.10188
8.67922
9.00231
8.61499
2.44257
8.55058
8.59477
8.62037
9.01969
8.97968
5.08307
2.82537
9.15795
2.23589
2.81513
1.96089
9.11144
9.0765
8.82462
9.07464
8.67473
2.66716
8.77634
8.22107
8.33425
3.68488
8.36223
3.66517
8.85716
8.97091
4.40025
5.36306
8.22888
3.69305
8.77064
3.68565
8.63001
8.62002
8.68598
8.94062
8.64951
4.19909
8.65526
2.35972
9.00409
8.16456
8.98352
8.68128
0.740604
3.38855
8.80163
6.36648
9.12174
3.75827
4.19732
3.3804
9.13394
5.00491
3.37206
4.22939
2.86509
5.00309
3.41315
8.4589
8.70442
4.99152
1.18398
3.38484
8.59973
8.41252
7.93728
6.59375
9.11785
8.61096
9.00933
9.08538
9.13777
8.60471
3.34528
4.45416
1.57378
8.07728
4.7003
9.00956
2.70723
8.88985
9.12901
8.88403
8.42445
4.44922
8.45441
9.12553
8.77067
2.3179
8.79253
8.94259
4.37198
8.54801
7.58201
7.2598
7.13363
9.09032
7.21964
7.14569
7.20391
7.47007
8.7194
8.71912
2.29971
3.52031
8.17801
8.13041
8.7528
2.33167
8.61615
8.53149
4.41171
8.69728
8.83979
3.75447
4.45176
9.1174
8.64204
4.72866
8.12389
8.55849
5.06727
2.5117
2.44356
8.50565
2.47734
9.04908
1.53703
4.99648
2.464
8.79096
5.0059
2.47448
8.53127
4.82737
8.60903
2.3234
8.33733
2.30015
8.5226
4.19911
8.62881
8.50714
9.00119
4.6763
4.68687
9.05727
2.52902
4.20687
9.16021
8.78406
1.90976
0.0979986
5.06399
9.10245
2.60146
2.56265
4.40204
4.89584
9.13493
5.05502
8.69379
4.88496
8.89004
4.60714
4.49768
8.60956
1.60167
8.55466
4.35511
8.80539
8.6117
8.6565
8.90014
8.67128
8.87749
3.51174
1.92683
4.85609
8.64362
7.82427
4.84397
8.66253
9.12756
8.59432
9.1016
8.63093
0.0826733
8.79016
9.03568
8.69958
0.0731653
8.63009
8.83326
8.36041
0.375593
8.88229
0.374491
4.89152
3.43133
0.374978
0.39066
8.63061
8.66109
8.80879
0.390383
0.804544
8.49072
7.82324
0.402389
8.9331
9.0516
4.83787
8.6082
2.5595
8.64795
0.396355
4.34704
8.65717
8.71274
8.65224
9.01351
8.92887
4.36679
8.65853
0.409848
8.59798
8.74784
0.91155
9.01052
2.71604
8.47656
8.94082
3.55512
1.60414
4.89286
9.01105
9.0207
8.81823
1.59681
4.71783
8.58651
8.83291
8.4164
0.997356
8.65165
2.73795
4.87782
8.73961
8.68881
1.01278
8.88254
8.39671
8.88206
8.5333
8.9426
4.87131
7.77582
8.57236
8.98252
7.84803
8.69483
7.93731
8.58142
8.63272
8.51746
1.60961
8.53637
0.985114
8.47541
8.67144
5.17246
0.996964
8.64996
8.54466
8.67909
0.966505
8.08907
8.78072
8.48696
8.67248
1.08774
8.64904
4.93256
9.12162
3.30511
8.16656
3.97444
8.58865
8.92141
3.14271
8.00854
8.64846
0.800044
3.23869
9.08764
9.00967
3.54529
4.05668
0.980529
0.985654
0.998143
3.55075
0.973779
4.1285
8.57511
4.93745
7.8725
7.83132
8.76204
8.55437
8.91083
0.963973
9.09886
9.13446
9.08111
4.64019
4.10373
7.74358
3.72894
9.03603
3.8146
8.53883
4.44221
1.05366
7.89821
3.24236
8.57112
8.59475
8.80671
1.08047
3.33125
8.81424
8.91578
1.09209
9.00926
5.01532
8.90639
4.74696
8.86924
8.80457
9.063
8.7985
0.866724
8.79693
5.37223
9.00368
3.41538
8.76272
8.69926
7.09948
6.97843
8.68613
8.71322
8.88626
9.04366
3.23489
4.99309
7.45562
8.99231
3.31804
8.74679
8.97435
5.05085
2.50428
4.61784
8.81357
0.599516
3.5339
1.70708
2.66292
8.89794
9.13687
9.13846
9.02476
8.82363
8.79978
8.79905
8.57496
8.81378
8.7997
8.85193
8.78757
4.74478
8.8068
8.67732
8.80561
9.02559
8.76748
6.40365
8.73595
8.71576
2.66873
4.90611
8.58835
9.11677
8.84295
2.3256
9.11243
8.87848
4.87826
8.90113
8.65749
8.92924
8.98284
4.43079
8.8668
5.05462
8.98684
8.92712
8.72454
8.77194
8.69498
4.89228
4.906
1.28718
9.03327
8.51419
9.06694
4.91545
8.65154
4.90206
4.92484
8.89011
8.52728
7.74555
4.98997
8.60216
8.19973
4.98717
7.79506
3.63257
8.99519
4.19125
7.77762
7.52722
8.85528
3.2004
8.91194
3.2223
4.42754
8.62007
3.23392
4.93919
8.87364
4.45454
8.67434
8.62434
8.66738
8.61177
8.5174
8.77657
8.64958
9.09453
4.9097
8.23839
8.79482
8.92425
8.62677
8.5972
2.34839
6.90589
4.9717
5.15095
8.65933
3.04623
3.05414
8.82052
8.20294
8.53521
8.56169
8.57886
8.58248
7.95313
8.23988
3.81933
8.74096
9.1053
7.71391
7.93001
8.83379
3.18722
8.52882
8.6088
9.01602
4.67495
9.08409
8.74166
3.59151
8.87397
9.10047
8.50971
9.14578
3.61594
8.75536
8.73242
8.70199
8.54028
3.83603
4.67633
4.66867
3.19479
4.05729
4.07078
8.91735
8.00902
5.07298
3.95977
8.00648
5.08068
8.98938
4.83845
8.59453
4.68434
8.79862
8.62969
4.07864
4.69686
8.61981
3.95362
8.78634
8.89961
4.68546
4.45174
9.03067
8.77456
8.59559
8.81752
8.69059
8.04624
9.0368
8.89502
3.93778
9.04274
8.86192
8.77025
4.0873
8.66183
8.06174
8.85381
8.79037
8.34068
8.14043
4.08628
8.60623
8.1595
2.39275
9.01445
3.95044
3.91779
8.68966
2.47449
8.87377
8.42321
8.97667
8.12603
9.01416
9.10618
9.14408
9.11879
2.44071
9.0577
8.94777
9.05687
8.51457
8.78609
8.5255
4.74763
8.85747
8.99796
4.44616
8.81712
8.83226
9.12965
2.40996
8.73782
4.64058
8.06803
5.07072
0.291122
8.81382
8.01007
2.36292
7.89622
8.80718
4.98159
4.98941
0.0180236
4.2779
5.14453
4.8187
9.05246
8.58044
2.97401
4.7805
4.63725
2.88867
5.07766
8.9905
0.534849
2.97368
2.96479
9.1345
2.95753
0.453128
1.69716
2.8109
4.77216
3.07894
0.639757
2.75713
0.102274
1.25857
2.82276
8.06768
0.10449
0.0211433
3.20332
3.7308
0.15731
2.81334
0.110593
8.12778
4.85555
8.10469
1.50816
2.98256
3.79487
2.23691
8.10528
8.82419
2.75402
2.25664
4.79843
4.66929
0.771132
2.98853
7.21811
2.99748
8.85707
5.26023
4.81945
4.26578
1.71291
4.83466
4.92225
3.4384
2.12095
2.13786
1.54304
3.00722
0.131842
7.76871
7.45106
3.01777
8.67996
8.85134
2.85229
2.88753
0.239755
8.709
4.32574
4.45929
2.06037
7.51526
8.85576
4.82878
0.0665783
4.82265
9.1379
0.750941
8.92838
2.21991
3.39883
4.14091
4.1825
8.69816
8.87216
4.52429
2.89765
2.89473
8.8766
2.33263
2.90873
3.73781
8.8981
2.0978
0.175188
8.08691
1.71123
4.7629
4.60344
8.55535
4.40344
5.15239
8.87014
3.58856
0.326029
5.91101
3.65136
3.65373
0.660979
3.18384
3.70375
0.236151
4.82237
4.6581
3.47018
0.590667
3.0898
4.948
2.24179
3.67903
1.26532
2.82308
4.95532
0.679395
8.89816
3.65471
3.64387
4.7177
0.903632
4.24624
8.5801
3.64152
1.70344
8.90993
4.31868
0.0740192
3.66533
3.52555
0.433945
0.067084
3.14283
3.53834
4.36581
8.90695
8.84541
4.38812
9.07021
4.39763
4.27875
8.45465
0.442715
3.7527
2.34262
9.05654
1.70346
1.94209
4.31853
4.82613
1.91293
0.829127
2.36672
3.95771
8.85249
8.6208
4.72559
3.95143
4.29827
2.47533
8.62042
3.9773
3.40483
8.44658
2.34658
3.01244
0.192714
5.08253
4.08508
3.41408
0.707249
2.61877
9.06999
3.66502
1.87681
3.48431
5.05946
8.62436
4.1177
8.58801
8.80892
1.97218
3.39575
2.14108
5.28532
4.46674
5.9138
8.84577
3.39514
3.41874
2.18699
2.18052
8.65443
9.1347
9.12087
2.19743
2.18927
5.05366
1.68414
8.40899
8.63604
2.18513
2.4345
4.20622
2.18148
2.17602
2.61588
4.06405
7.04092
8.71898
3.33927
0.244429
8.6321
3.15003
2.59972
5.16961
3.32351
2.60691
4.3645
8.6336
2.24757
2.70321
9.05544
8.42176
0.151773
0.267413
0.919255
0.383015
2.61146
2.63332
0.646179
1.68522
2.41046
0.375387
8.61706
8.60141
0.0145974
0.427306
2.60393
4.99751
2.52662
2.48993
3.45557
2.12203
2.51258
8.76918
9.05561
4.96553
8.60688
8.05619
2.72963
1.7312
2.6747
4.86661
8.24243
4.12807
5.01202
8.31629
5.01873
5.00635
2.50863
2.52752
0.17216
2.91792
4.79304
0.425555
8.82651
8.29486
4.58544
0.821486
2.19146
0.848069
4.31102
3.91847
4.73356
8.30975
2.66787
0.580165
2.32016
5.00933
4.11701
4.62773
5.01108
2.68282
0.613619
8.25936
3.78724
2.57324
6.41554
8.10056
7.87179
2.31834
8.03531
0.133281
2.31004
2.16604
2.92024
4.49633
7.30648
6.50786
8.59016
7.96608
4.37602
8.80602
8.80619
4.81362
8.83683
1.69165
2.25139
2.07273
1.58349
1.67816
2.99238
7.83358
0.811771
0.360127
3.88077
2.83153
1.5814
2.66312
8.83261
5.02076
1.54848
3.49272
8.80969
3.57217
2.78238
8.80351
8.66298
4.29379
1.52787
8.96408
3.14153
2.8303
4.30682
8.9891
8.7974
0.252599
4.96503
2.95525
8.8178
9.02155
8.80333
3.40194
6.31441
6.23382
1.06831
4.97882
9.11665
1.06473
4.97826
2.39591
0.277847
0.267349
1.15236
5.08741
0.301968
9.14715
1.21323
0.62821
0.0973397
1.92539
0.452352
0.440171
0.467002
0.49486
0.119398
4.45442
5.09919
2.63209
4.36418
4.81666
5.0436
0.482626
5.08921
0.485584
0.116931
1.39985
0.854782
4.30621
0.847647
5.12418
0.99362
8.3849
2.69277
6.82088
1.99305
2.99589
9.05632
3.67206
8.39139
3.1327
8.40679
8.52747
2.06795
3.76313
8.10343
0.823295
2.18186
3.75214
8.63869
9.01642
4.37649
1.19823
4.94964
1.97712
0.665279
3.66975
4.68029
3.49232
3.69381
7.88771
2.66756
8.84586
8.56981
1.49158
1.07762
4.90064
1.42997
0.952447
3.68398
3.81931
8.51241
4.72445
0.931435
3.63959
8.50499
9.07719
2.67831
3.13757
7.75237
4.26724
0.0891902
3.22493
0.20608
0.775167
1.9974
8.66565
7.12308
1.59103
4.59461
9.15433
1.49579
4.27391
3.38364
5.22483
1.5893
5.20056
2.67853
4.43485
7.29274
4.53124
8.75192
3.09599
3.73499
0.739305
0.041206
8.00794
0.0596151
4.61024
3.54258
4.47689
8.2638
8.79986
1.67353
4.5494
3.54809
3.06455
4.24208
1.21113
0.234582
2.30832
0.264437
0.183606
4.28864
8.18711
4.92095
3.49901
0.0183915
4.18296
8.25925
8.6961
4.41359
4.86169
8.64175
4.86789
3.88409
8.27386
7.35873
7.45879
3.81034
1.55872
5.30371
7.6088
4.25399
1.77169
8.37227
0.454799
8.03002
3.37627
1.21687
8.97832
0.341943
4.2035
4.20275
1.08134
8.74927
4.99819
4.01367
4.48396
4.19862
4.36998
4.46456
3.83056
5.06817
3.94832
0.631113
1.58287
8.62386
7.95117
7.89668
8.44384
3.61745
1.83804
1.61415
4.20765
0.929998
1.62699
3.22186
3.75984
3.5993
1.17666
3.86769
4.2073
3.39792
0.867643
8.77777
4.17728
4.17084
3.67833
3.89365
8.38357
2.17209
2.22201
3.03661
3.04473
2.44126
8.57173
2.41311
2.42916
8.04985
2.45578
3.46864
8.44829
2.45504
8.42743
9.13142
2.16976
3.76447
3.48737
2.42892
8.6795
0.38752
3.88328
9.12783
1.96809
2.50965
2.05837
3.56331
8.44028
3.78175
3.76569
3.29872
8.50039
1.72569
0.65678
3.36753
1.48336
1.8678
9.05177
8.44001
8.21616
0.130001
8.28579
1.68271
1.39899
0.461682
8.57021
0.516517
8.46373
8.7786
8.52461
2.06805
0.0515989
5.00128
3.36823
1.80819
8.28252
8.03132
4.24797
4.18145
1.38317
4.79046
1.81795
4.97545
8.76676
7.57493
7.62832
8.76172
7.65265
0.0778139
8.84513
1.68182
3.195
1.81667
0.355671
2.16713
7.91035
1.42928
3.19717
3.72929
4.40221
7.93258
8.74012
3.8563
1.42415
5.10869
5.02583
4.75584
4.92223
5.03649
5.0283
1.07136
0.24575
1.07683
4.90918
1.05506
3.21193
3.45993
0.716198
1.05638
4.74487
5.02294
5.00991
4.85504
4.74484
0.7405
4.44122
9.11214
4.81969
4.49429
0.401487
0.243403
0.0890665
3.21643
2.42002
4.42225
0.261654
4.87271
8.65832
1.69214
2.31241
2.62724
8.6509
1.95965
1.08669
0.275281
2.36943
9.10726
8.61395
3.49676
0.678069
0.645197
0.134223
8.48467
8.91058
8.92827
2.61783
3.13987
0.604288
8.90035
1.73483
8.60546
8.59631
0.268057
0.189622
8.6209
0.611323
0.629329
0.117481
9.1196
9.00185
1.12201
3.21583
8.60641
0.552433
0.51026
0.482694
8.60182
8.59953
8.59991
0.487842
0.552844
4.22803
0.506167
9.08849
0.464708
3.02942
4.26761
3.90637
8.42027
8.73253
0.458401
4.50442
4.3878
2.21433
8.43461
5.00364
8.83802
0.751912
4.78596
3.05817
8.46031
8.1599
4.56353
4.71509
8.09641
8.11942
8.85661
1.9929
8.34512
7.98019
3.17358
3.1052
8.85185
8.04202
2.70041
0.4909
0.489649
2.06783
1.73696
8.09095
3.21538
7.8517
7.7883
8.46781
2.18418
3.57138
0.49688
7.81523
8.67005
3.09873
4.75212
3.28792
3.6055
2.84051
2.46874
2.81063
0.504091
7.76605
3.04468
2.25564
0.503731
2.03407
3.57888
7.06338
2.0128
2.01469
2.00671
2.0083
0.689553
7.68408
8.26881
2.33953
8.2791
8.32291
2.81871
8.29598
1.67815
8.22482
8.26441
8.49433
8.10505
2.23379
0.7322
2.24676
8.18725
1.07284
2.13061
3.02084
8.24799
8.89728
2.23653
2.37947
4.90867
2.23998
8.12697
0.0253529
0.489279
0.386908
8.68665
8.50375
1.32556
1.12095
8.52232
8.27312
4.1434
0.0352902
8.19498
4.55639
4.13183
4.13982
2.47365
8.24336
2.81539
5.6802
0.255782
0.0842971
4.15593
4.10228
3.80292
1.57467
2.87422
8.13534
3.22054
2.87442
4.88045
4.46615
4.14002
8.22136
1.972
2.9351
1.64958
2.50232
2.89712
4.77711
0.242226
4.3788
3.85132
4.15295
1.17166
4.1779
4.37983
2.85814
3.50675
8.54757
4.99008
9.13596
2.8334
2.95574
4.17863
4.38262
4.02412
2.88075
2.88461
4.62615
2.23242
0.748538
8.64291
7.68704
4.38265
4.3642
3.41392
4.38406
4.86973
4.55101
4.86601
4.88136
7.79288
0.729255
4.89888
4.66675
7.8427
0.0744668
7.65704
2.1929
2.88095
5.04512
1.95965
9.12026
2.78279
4.83409
0.235219
8.81762
4.85165
0.635548
3.77089
4.83132
4.84421
7.7301
8.79095
2.02692
3.03756
1.60249
3.0333
2.7297
3.08278
4.92562
8.00947
0.0993341
7.91375
3.06154
0.729406
3.25695
8.97395
7.49897
4.55108
3.06722
2.21326
3.30666
8.80614
3.27158
3.31051
0.114922
3.30095
6.42903
5.84164
3.27173
8.75805
8.70432
1.95936
6.37604
4.50113
9.01313
1.47097
8.45286
4.84902
9.03407
0.916269
4.32762
4.99444
3.28751
3.46494
2.97018
4.15127
4.96302
0.271628
5.01093
1.82961
4.97685
8.42218
1.05822
8.66614
3.46773
3.5168
2.76155
2.44106
3.43918
0.11772
2.16169
3.41755
3.34903
5.12453
4.06116
4.55614
8.51488
3.41333
0.769498
4.9077
0.720067
3.43953
4.89559
1.06742
4.8093
3.07088
4.9405
3.09357
1.86195
3.48096
2.80354
8.70234
8.68465
2.95855
3.01617
3.80111
8.86532
4.80925
0.22069
2.87247
2.17333
1.36953
2.28799
1.94756
3.01447
0.0102736
1.71382
4.02664
1.44179
2.61157
2.33784
2.14231
4.02557
3.43697
1.42637
5.15565
3.22194
5.06896
1.25487
3.64668
4.97904
1.61728
0.0666842
2.2949
3.01354
1.28753
1.06522
8.58921
3.58531
5.03425
5.05152
6.33458
3.58812
7.8719
1.97698
3.58689
0.504767
3.83846
8.6135
3.497
4.04952
0.0319368
3.64583
4.91573
4.00455
8.80273
2.36092
0.319881
3.87561
4.9766
5.07138
8.58534
8.82743
5.58228
8.21256
4.02482
8.69052
5.07448
5.53855
8.17703
8.21008
0.274826
8.26568
8.84691
4.01794
2.27773
9.0361
2.72527
2.0645
2.85321
4.6288
8.8486
4.60614
4.0596
3.85553
5.3157
8.85644
4.87552
3.9361
4.41579
8.79453
2.32282
3.91112
8.60069
2.03837
8.78592
8.5234
4.86449
3.87239
8.90384
4.91851
4.83278
4.89223
4.79878
3.3369
4.71258
4.68255
3.50817
4.02086
9.09904
1.85423
0.661205
1.41005
0.20082
4.78142
0.627938
2.00765
8.91096
8.67751
3.09569
4.78206
3.98897
1.89154
3.99655
2.14313