/*--------------------------------*- C++ -*----------------------------------*\
  =========                 |
  \\      /  F ield         | OpenFOAM: The Open Source CFD Toolbox
   \\    /   O peration     | Website:  https://openfoam.org
    \\  /    A nd           | Version:  10
     \\/     M anipulation  |
\*---------------------------------------------------------------------------*/
FoamFile
{
    format      ascii;
    class       surfaceScalarField;
    location    "3.5";
    object      phi;
}
// * * * * * * * * * * * * * * * * * * * * * * * * * * * * * * * * * * * * * //

dimensions      [0 3 -1 0 0 0 0];

internalField   nonuniform List<scalar> 
214403
(
-0.00215387
0.00165026
9.20343e-05
0.000411583
-0.00101454
-0.00346948
0.000261039
0.00422299
-0.00320882
1.16924e-05
-4.0758e-05
0.00323789
0.00283005
-0.00189776
-0.00474557
0.00381327
0.00374358
-0.00472463
0.00110992
-0.000128866
-0.00165166
0.00172055
-1.84288e-05
-5.04644e-05
-0.00026144
-0.000511699
-0.00282999
0.00360313
-0.00510502
0.00291094
-0.000761541
0.00295562
-0.00720946
0.00506227
0.00515679
-0.0030096
0.004312
0.000515811
-0.00485738
2.957e-05
0.00158447
-0.00311729
0.000652726
0.000880094
-0.00312028
0.000963642
0.00162616
0.000530473
0.000147407
-0.00361473
0.00437399
-0.000906668
-0.00313948
0.00313084
8.63472e-06
0.000607232
0.00369379
-0.00474901
0.00044798
-0.00365402
0.0030425
0.000906259
-0.000294737
-0.00373895
0.00363958
9.93728e-05
0.00123368
-1.50981e-05
-0.000301312
-0.000917267
0.00472735
-0.00282244
-0.00630906
0.00440416
-2.44122e-05
-0.000996677
2.85737e-05
0.000992515
0.00205159
-0.00200047
-5.11224e-05
-0.0037819
-0.00130777
0.00130072
0.00378895
-0.000706742
0.00416623
-0.00334737
-0.000112118
0.00203783
0.000195624
0.000698723
-0.00293218
-0.00315672
-0.00150706
0.00406999
0.000593785
0.0029356
-0.00371848
2.34006e-05
0.00075948
0.000976593
-0.000837916
0.00320776
-0.00334644
0.0024109
0.00314341
-0.00379381
-0.00176049
0.00337659
-0.00211132
-0.000101236
-0.00116404
-0.00187622
0.00191383
-3.76137e-05
0.000753325
-0.00157235
0.00421511
-0.00339609
0.00427518
0.000205185
-0.000738335
-0.00374203
-0.00180159
-0.00185019
0.00189486
0.00175692
-0.000367791
-0.00207488
0.00183425
0.000608422
0.00136427
-0.000900452
-0.00293235
0.00246853
-0.000523893
0.00261889
-0.000945967
-0.00114903
0.00498084
-0.000125566
-0.00485528
-0.00212178
0.00417366
-0.00205188
0.000377809
-0.00458634
0.0026685
0.00154003
0.000732786
-0.000296979
0.00182628
-0.00226209
0.00175434
-1.62578e-05
-0.00173809
0.00312197
-7.27322e-05
0.000563909
-0.00361315
-0.00393036
0.000475768
0.00418738
0.000294226
0.000276642
0.00268059
-0.00325146
-0.00128581
-0.0084052
0.00815315
0.00153786
0.00183012
0.000332895
0.000411394
-0.00257441
0.00129229
0.000990215
-0.00317792
0.000895417
0.00403544
0.00240395
-0.00440155
0.000364142
0.00346369
-0.00070586
0.00058536
-0.00217704
-0.00128667
0.00287834
0.000998273
0.0015297
0.000452281
-0.00298026
0.000573128
-0.000432183
-0.00131454
0.0011736
0.00220372
-0.00398466
0.00277921
0.00366812
-0.00346549
-0.0011703
0.00096767
0.00341198
-0.000622906
-0.00260567
0.00353189
-0.000140668
-0.00078555
0.00267634
-0.00343961
4.83181e-05
0.000714947
-0.00254559
0.000170357
0.0040664
-0.00169117
-0.00477678
-0.00460965
0.00380885
0.00557757
-0.00248299
0.00249012
0.000487921
-0.000495053
0.000379823
-0.00315979
-0.00273843
-5.64817e-05
0.00142237
0.00137255
-0.00440884
0.00188509
0.00282625
-0.000302505
0.00487728
-0.00392676
0.000230829
-0.00118135
0.000223864
8.66624e-05
-0.00319015
0.00287962
0.000186503
-0.000952345
0.00466521
-0.00389937
-0.0110743
0.00125737
0.0012124
0.00860451
-0.000950756
0.00285399
-0.000908702
-0.000994528
0.00156331
-0.00080803
-0.0033271
0.00257182
0.000378244
0.00245349
-0.00310271
0.00027098
-4.55469e-05
0.00266956
0.000912655
-0.00353667
-0.0005553
-9.1406e-05
-0.00118896
0.00183566
-0.00287904
0.00314749
-0.000118038
-0.000150406
0.000122576
-0.0029681
-0.00203214
0.00180257
0.000545861
-0.00031629
-0.005119
-0.000325323
0.00249006
0.00295426
-0.0015708
-0.000667736
0.00133314
0.0009054
0.00229688
-0.007701
0.0010409
0.00436322
-0.00120803
0.00242827
-0.00132723
0.000106992
0.00173037
-0.00135006
0.000173
-0.000553305
5.08652e-05
-0.00331807
0.0032672
1.49842e-05
0.00265621
-0.0026712
0.00233787
-0.000456803
0.000307613
-0.00218868
-0.00145296
0.00207286
0.000687864
-0.00130776
-0.00100953
0.00435459
-0.0010539
-0.00229117
0.00211842
-0.00365773
-0.000117018
0.00165634
0.00229957
0.00242192
-0.00472149
0.00336582
-0.00378978
0.000977277
-0.000553321
0.000318694
-0.000609177
0.00444112
-0.00415064
0.000140418
-0.000712303
0.00317766
-0.00260578
0.000795023
0.00667172
0.00188842
-0.00935516
-0.00567463
0.00498842
0.00323356
-0.00254734
0.000274067
0.00214269
-0.00286509
0.000448325
0.00277745
0.00308171
-0.000998868
-0.00486028
0.00496298
-0.00303402
-7.61318e-05
-0.00185283
0.000225819
-0.000663406
-0.0020845
0.00252209
-0.0021118
1.03574e-05
0.00210144
0.0030571
0.000100994
0.000207729
0.0038526
0.000328298
-0.00587262
0.00169172
-0.00313474
0.000664784
0.000552997
0.00191696
-0.00199242
0.000494705
0.000244156
0.00125356
0.000453528
0.000341338
-0.0039671
0.00317223
-0.000818276
-0.00475599
0.00303223
0.00254203
0.00190409
-0.00226009
-0.0014724
0.00182839
0.00309772
-9.67131e-06
-0.00309737
9.31947e-06
0.00235935
-0.00332863
-0.00114159
0.00211087
0.00609842
-0.00184823
-0.000950094
-0.0033001
0.0034146
-6.61164e-06
-0.00313077
-0.00027722
-0.00187422
0.00220196
0.00454704
-0.00487478
0.00382899
-0.001318
-0.00369125
0.00118027
0.000722221
-0.00105652
0.004584
-0.00424971
-0.00489837
0.00445603
0.00423738
-0.00379504
0.000245382
-0.00408748
0.00157216
0.00226994
0.00513297
-0.00025592
-0.000135964
-0.00474108
0.00352926
-0.000686378
0.000684393
-0.00352728
-0.00440467
-0.00402624
0.00476011
0.0036708
-0.000776063
0.00222804
0.000605735
-0.00205771
-0.00168134
9.17551e-05
0.00325958
-0.00167
-0.000366405
0.00427961
-0.00395941
4.61971e-05
-0.00379336
0.00352142
0.000686464
-0.000414523
-0.00012541
-0.0022084
0.0052694
0.000677896
-0.00224645
-0.00165189
0.00322044
-0.00178427
2.32536e-05
0.00176102
0.000546417
0.00248239
-0.00229707
-0.000731734
0.00404281
-0.00233348
-0.000627901
-0.00108143
4.8332e-05
-0.00124755
0.00119922
-0.00224612
-0.000609371
0.000849515
0.00200598
0.000254667
0.00141799
-0.00315942
0.00148676
0.00505064
-0.000456806
0.00197063
-0.00656446
0.000348169
-0.000472964
-0.00594693
0.00607172
0.000373228
-0.00170737
-0.00224133
0.00357547
0.000136396
0.00308348
-0.000162773
1.14236e-05
-0.00187007
0.00185864
0.00374957
-0.00139618
-0.00167549
-0.0022692
0.00189362
-0.00187054
0.00402913
-0.00336251
-0.000413107
-0.00025351
0.000412324
-0.0019452
0.000851573
0.000681302
-0.00331286
-0.0010138
0.000681164
0.0036455
0.00279045
-0.00448501
0.00298695
-0.00129238
-9.43961e-05
0.00417625
-0.00417872
9.68723e-05
1.10162e-05
0.00433446
-0.00431046
-3.50125e-05
-0.00513478
0.0041207
-0.00331233
0.0043264
0.00431662
-0.00420681
-0.00010981
-0.00418043
0.00557398
-0.000991834
-0.00040172
-0.00360588
0.000882493
-0.000283304
0.00300669
-0.00592399
0.00044434
0.00381653
0.00166312
0.00104047
-0.00142206
0.00079391
-0.00149785
0.00169836
0.00273934
-0.00293985
-0.00155773
-0.000700563
0.00089102
0.00136727
-0.00210885
0.00137837
-0.00263244
0.00336292
0.000635838
6.27571e-05
-0.00487902
-0.00217491
0.00216912
5.78974e-06
0.00251237
-0.00242522
-8.71517e-05
-0.00349216
-0.000227773
-0.000923425
0.000854568
-0.00461768
0.00535214
-0.00158903
0.00201943
0.00343754
-0.00438651
-0.00107046
0.0038406
-0.00418576
0.000127207
0.000217956
0.00221076
0.000571184
-0.00228929
-0.000492657
-0.00334157
-0.000172361
0.0043685
0.00196669
-0.000141816
-0.00239675
0.00057187
0.00221313
-0.00188994
0.00217682
-0.00250001
-0.00363541
0.000692179
0.00496266
-0.00129383
-0.00173235
0.00582686
-0.00280068
-0.00181178
-0.00199698
0.000467188
0.000524878
0.00144612
-0.00378278
-0.00269374
-0.000215912
0.00432746
-0.00141781
0.000396236
0.000676063
0.00226546
-0.00333776
-0.00120508
0.00294739
-0.00174232
0.000935734
-0.00464556
0.00171284
0.00274784
0.00193854
-0.0041615
-0.00385782
4.93646e-05
0.00480284
-0.000994386
0.000677037
0.000582403
0.0018202
-0.00307964
0.00307691
-0.00307637
-5.38594e-07
0.000976303
-0.000369504
0.00327259
-0.00387939
0.00340471
-0.00107203
0.00163176
-0.00396445
0.00653724
-0.00211067
0.00487045
-0.00929701
0.00103429
0.00191677
-0.000796573
-0.00215448
-0.00295975
0.00121594
0.00155151
0.000192296
0.0021391
-0.00161136
-4.62502e-05
-0.00048149
-0.00133147
-0.00166781
0.00488047
-0.00188119
-0.00237718
0.00309153
0.00122878
-0.00194312
0.00359045
-0.000194927
-0.00118239
-0.00531117
0.00350402
-0.000301697
-0.00504528
0.00467488
0.00216447
-0.00179407
0.00323559
-0.00364794
-0.000517492
0.000929841
0.00183092
-0.00332901
-0.00172836
-0.00195562
-0.00180769
0.00101389
0.00274941
-0.00279894
0.000881157
0.00277866
-0.00086087
0.00334433
-0.00317908
-0.00220686
0.00204161
2.05368e-05
-2.79711e-05
-0.00306219
0.00306962
8.91354e-05
-0.00280093
-9.72162e-05
0.00280901
-0.000768909
-0.00456802
0.000723135
-0.00265623
0.00238682
-0.000453722
-0.00178336
-0.000749773
-0.000265814
-2.3171e-05
0.00430567
2.95037e-05
-0.0104746
0.00736655
0.00534641
-0.00223837
-0.00316332
0.000214408
0.000109867
0.00283904
-0.000626656
0.00984909
-0.0116036
0.00238119
0.000503665
0.000780526
-0.00174971
0.00046552
-0.00676987
0.00364453
0.00048984
0.00263551
-7.30963e-05
-0.00451357
-0.000662328
0.005249
-0.00178347
0.00667484
-0.00463421
-0.000257161
0.0030096
0.00436952
-0.00404398
-0.00333513
-0.0035123
0.00335178
0.00414916
-0.00398864
0.00142342
0.00198636
-0.00247624
-0.000933539
0.00140896
-0.000937267
-0.00225505
-0.0069891
-0.000266787
0.00568681
0.00156908
0.00212201
0.000333866
-0.00123993
0.00214873
0.00289385
-0.0026642
-0.00237839
-0.00352409
0.00078663
0.00342028
-0.000682816
0.000410449
0.00117106
0.00399247
-0.00421563
0.0041402
0.0003993
-0.000323868
0.00259494
0.0020481
-0.00184632
-7.16583e-05
-0.000521731
0.00243971
-0.0027586
-0.000575879
0.00152938
-0.00520225
0.00219823
0.00147464
0.000142554
0.00280297
-0.00309657
0.000151047
-0.00107425
0.000208701
-0.000997618
0.00186317
0.00444399
-0.00318113
0.00014611
-0.00250986
-0.00197338
0.00265537
0.00182787
0.00916233
-0.00985453
0.00325676
-0.00256455
-0.00184763
0.00229576
0.000923074
-0.0013712
-0.0044843
0.00193194
0.00389595
-0.00134359
-0.00177966
0.00258555
0.00331807
-0.00412396
0.0049609
-0.0018945
-0.00329311
0.000226702
8.59893e-05
-0.00119954
0.00291128
-0.00179772
-0.000505224
0.000494226
-0.00384682
0.00359568
0.00115336
-0.00384322
-0.000905817
0.00455454
-0.00373855
-0.000988353
0.000931651
0.0013705
-0.00325904
0.00095689
-0.00192213
-0.00347091
0.0031127
0.00228034
-0.000572947
-0.00149422
-0.000442693
0.00182076
-0.00193148
0.004162
-0.00405127
0.000440808
-0.00500351
0.00456271
0.00172007
-0.00226002
0.00147161
0.0009753
0.000568401
0.000798008
-0.00234171
-9.54772e-05
-0.0042992
0.00439468
-0.00239563
0.00031837
-0.000778534
0.00285579
-0.000316191
0.00345626
-0.00313206
-8.00282e-06
-0.00223872
-0.00120803
0.00130836
0.00213838
-0.000820059
-0.0019916
-0.00182612
-0.0026868
0.00224252
0.0022704
0.000104701
-0.00275088
0.00462835
-0.00190074
-0.000247391
-0.00248022
0.0026417
-0.000279301
-0.00192012
-0.000442279
-0.000378406
0.00347541
-0.0043554
0.00125839
0.0022325
8.59092e-05
0.00108391
-0.00340232
-8.25396e-05
-0.00183425
0.000887069
0.00102972
-0.0012926
0.0016792
0.00320383
-0.00359042
-0.00445756
-0.00117006
-0.0012583
0.00414843
-0.00417545
0.000109071
0.00130102
0.00276536
0.000384226
-0.00140583
-0.0024496
0.00347121
-0.00183748
-0.00358927
0.000905558
0.00452119
-0.00162325
-0.00179688
0.00186893
0.0015512
-0.00419394
0.00403748
0.00426519
-0.00410873
-0.000582909
-0.00102091
-0.00309262
0.00469644
-0.00423093
0.000416685
0.00430311
-0.000488856
-0.000751969
0.00196292
-0.00121095
-0.00171488
0.00317026
-0.00238672
0.000931341
-6.33585e-05
0.00550036
-0.0020641
-0.0033729
-0.00201723
-0.00100195
0.0040491
-0.00102992
0.000629183
-0.00165374
0.0037355
-0.00271094
0.000179654
0.00254021
-0.000444943
2.00245e-06
-0.00401848
0.00401628
2.00962e-07
0.00474801
-0.000844333
-0.00694235
0.00303867
-0.00438897
-0.000427831
0.00547854
-0.00066174
-0.00238136
0.00359946
0.000294508
-0.00151261
0.00228629
-0.00228243
-3.85238e-06
-0.00244158
0.000256718
-0.00207392
0.00425879
-0.00359747
0.00495544
-0.000994652
-0.000363324
0.00221046
-0.000915996
-0.00267604
0.00138158
-0.00420161
0.00422165
-2.00369e-05
0.00354185
-0.00513236
0.000400159
0.00119035
-0.00389182
-0.00107414
0.00668682
-0.00172086
0.00297592
-0.000140975
-0.000616396
-0.00221855
-0.00167002
-0.0028283
0.00631908
-0.000289597
-0.00414587
0.00250398
0.00653272
-0.0072879
-0.000691306
0.00144649
0.00182745
0.000871564
-0.00202198
-0.00210859
0.00218478
-7.6186e-05
-0.000738126
0.00414078
-0.000271083
-0.00313157
-0.000901855
0.00107281
0.00363263
-0.00380359
0.00245388
0.00579413
-0.00334869
-0.00489932
0.00424318
-0.0050852
0.00161774
-0.00077572
0.00368656
2.85011e-05
-0.00371506
4.85118e-05
0.00357498
-0.0036235
0.00410291
-0.00495396
0.0043929
3.679e-05
-2.26052e-05
0.00351959
-0.00353377
6.03682e-05
0.00590759
-0.00589217
-7.57836e-05
-0.000479341
-0.00143747
-0.00295673
0.00487354
-0.00184423
-0.00107768
0.000361793
0.00346188
-0.00600776
0.00218409
-0.00287824
-0.000754201
0.00308509
0.000547344
-0.00363006
0.00399211
-0.00106345
0.000701397
0.000536193
0.00278915
-0.000948852
-0.00237649
-0.00132643
0.000312079
0.00228825
-0.0012739
-2.13843e-06
0.0010588
-0.00135229
0.000295621
-0.00146979
0.00359065
-0.00207907
-4.17967e-05
0.00103638
-0.00331927
-0.00191873
2.11856e-05
-0.0031067
0.00308552
-0.00120701
-0.00115578
0.00053597
0.00182682
0.00174402
-0.001006
-0.00073802
0.00433112
-0.00431982
-0.000863648
0.000852351
-0.000412348
-0.00267579
0.00247729
0.000610851
-1.16869e-05
1.52991e-05
0.00243785
-0.00244146
0.00121132
-0.00100013
-0.00385473
0.00364354
0.00281579
-7.56026e-05
-0.00274019
-0.00411151
-0.00267156
0.00396623
0.00281684
0.00231309
0.00359894
-0.00620163
0.00228682
-0.000812828
0.00128709
-0.00276109
-0.000945266
0.00093338
-0.00523052
0.0052424
0.00132771
-0.00263543
-0.00255429
0.00386201
-0.000280452
-0.000625093
0.00292279
-0.00201725
0.00202959
-0.00249334
0.0009043
-0.000440549
0.00115582
-0.00191961
-0.00185356
0.00261735
-0.00359467
0.00404185
-0.001058
0.000610818
0.004207
0.00540602
-0.00595425
-0.00365878
-0.0033101
0.00329189
1.82143e-05
-0.000384271
0.00377586
-0.00471252
0.00132093
0.000123695
-0.000201778
-0.00376268
0.00384076
0.00351925
0.000148296
-0.00404938
0.000381831
-0.0015681
-0.00264753
0.00332954
0.00088609
-0.00377841
0.00534963
-0.00189543
0.000324218
-0.0014997
-0.00184629
0.00109955
-0.000210571
-4.66901e-05
-0.00254769
0.00280495
-0.00826453
5.20445e-05
0.00071065
0.00750184
0.000334628
-0.0021439
-0.0011099
0.00291917
0.00522582
-0.000436847
-0.00169625
-0.00309272
-0.000927477
-0.00202845
0.00037942
0.0025765
0.00154685
-3.95217e-06
-0.00154289
0.00252089
0.00130027
-0.000842123
-0.00297903
0.00192054
-0.00151878
0.00375746
-0.00415923
0.000110251
0.0038859
-0.00127331
-0.00272284
0.000939263
0.0013605
0.00292606
-0.00189236
0.000137379
0.00175499
-0.00246529
0.000356212
0.000651468
0.000409225
-0.00338365
0.00232295
-0.0031727
0.00465639
0.00140586
0.00481811
-0.00101188
-0.00521209
-0.00311675
0.00303906
-0.00483217
0.00490987
-0.000461101
-0.00232102
0.000810802
0.00197132
-0.00258817
0.00488774
0.00148371
-0.00171889
0.000388895
-0.000153717
-0.00155279
-0.00494147
0.00153152
0.00496273
0.00328232
-0.00326711
-5.05796e-05
3.53732e-05
0.00269991
-0.00317592
0.000672359
-0.000196352
0.000659792
0.00262672
-0.00468571
0.0013992
1.31455e-05
0.00231061
-0.00232376
0.00147185
-0.0037628
0.00295075
-0.00147279
0.00395354
0.00334737
-0.00582812
0.0010857
-0.00114317
-0.00526354
0.005321
-0.00156447
0.00259385
-0.0052616
0.00423221
-0.00378439
0.0029919
0.00390786
-0.00311537
-0.00234837
0.00321927
-0.00208115
0.00121025
-0.000514449
0.00224848
0.000364729
-0.00209876
0.00109374
-0.00159684
0.00164568
-0.00114258
0.00215154
0.000803746
0.000707771
-0.00366305
0.00576585
-0.00390478
-0.000255386
-0.00160569
-1.64965e-07
-0.00281766
0.00281782
0.00177184
-0.00260016
-0.00798262
0.00881094
-0.000374431
-0.00380426
-0.00114353
0.00532223
-0.000237424
-0.0017877
0.00202513
0.00054238
0.00256079
-0.000427977
-0.00267519
-0.000718566
-0.00260049
0.00209529
0.00122376
0.00209145
-0.0017532
-0.00307669
0.00501895
-0.00392154
0.00118362
0.00125348
-0.00243711
0.00395861
1.63603e-05
-0.000464076
-0.00351089
-0.000774067
-0.00131813
0.0020922
0.00138363
0.000920857
0.0076747
-0.00922345
-0.00324184
0.00479059
0.00118585
0.00253511
-0.00193666
-0.00178431
-0.00270613
0.00521177
0.00342804
-0.00593368
0.00320056
0.0011102
-0.000417217
-0.00389354
0.00504971
-0.00337138
0.00217086
-0.00384919
-0.00304545
0.00139101
-0.00389919
0.00555362
-0.00467112
0.00831053
-0.00323898
-0.000400431
-0.000141512
-0.00195901
-0.00269636
0.00479689
0.00379764
0.00157361
-0.0044236
-0.000947639
0.00212317
-0.00563875
0.00352306
-7.48437e-06
-0.00474567
-0.000182822
0.00309452
0.00183397
-0.000979653
0.002527
0.00109146
-0.00263881
-0.000595272
0.00238846
0.00193104
-0.00372423
-0.0051326
0.00262946
-0.000227585
0.00273073
0.000439527
-0.00133121
0.00265145
-0.00175976
0.00217561
-0.00109245
0.000776288
-0.00185944
0.00210648
0.000413064
0.00020871
-0.00272825
-0.00298337
0.00320465
0.00118576
-0.00140704
-0.00072011
0.00379876
7.13434e-05
-0.00315
0.00307365
-0.00180251
-0.00117541
-9.57321e-05
0.00265494
1.93198e-05
-0.00267426
0.00192805
0.00149244
-0.000339334
-0.00308115
0.000896744
0.00234211
0.00198561
-0.00522447
2.88178e-05
-0.00434074
0.00431193
-0.00229611
0.00877316
-0.00128745
-0.0051896
-3.95884e-05
0.0031795
-0.00313991
-0.00021426
-0.00232002
0.000417825
0.00211645
-0.00424867
0.00217561
0.00165617
0.000416893
0.000876512
0.000675177
-0.0048793
0.00332761
0.0025054
0.00395415
-0.00147638
-0.00498318
0.00381287
-0.00129457
-0.00365128
0.00113298
-0.00476734
0.0027522
0.00743084
-0.0054157
-1.11545e-05
0.00188619
-0.00188712
1.2087e-05
-0.00194916
0.00192955
1.96014e-05
-0.00481694
6.89882e-05
0.00204182
0.000540005
0.00114876
0.00317646
-0.00486522
0.00250546
-0.00298209
0.00192444
-0.0014478
-0.00250209
0.00218714
-7.94868e-05
0.000394441
-0.000499785
-0.00409772
0.00520968
-0.000612181
-0.00183771
0.000882344
0.00290986
-0.0019545
0.00307828
-0.00118484
0.00044066
-0.0023341
-0.00203874
-0.000353733
0.00238447
8.00779e-06
-0.000363282
-1.74678e-05
0.00345186
-0.00307111
0.000404292
-0.000339472
0.00327379
-0.00333861
-0.00303607
0.0042433
-0.00446491
0.00325768
6.66667e-07
-0.00377445
0.00377378
-0.00135014
0.000126414
0.00345265
-0.00222893
-0.00257082
0.00300756
-0.00410431
0.00366757
-0.00265116
0.00020252
0.000796754
-0.00122615
0.00335754
0.000186772
-0.00231816
-0.000889788
0.000123967
-0.00150338
-0.0013115
-0.00430278
0.00431264
0.00130163
-0.00193578
-0.000223276
-0.000494251
0.0026533
-0.00647132
0.00217416
0.000643803
0.00365336
-0.00206577
0.0047832
-0.00238372
-0.00033371
0.00143137
0.000569404
-0.00289056
0.00281165
0.00284092
-0.00565257
0.00040739
0.00628115
-0.00146583
-0.00522271
-8.03443e-05
-0.000115696
-0.00283741
0.00303345
-0.00299078
0.0049007
-0.00198681
7.68931e-05
0.0027767
-0.00173448
-0.002511
0.00146879
0.000731842
-9.82491e-05
0.000895757
0.00442748
0.00121325
-0.00637298
0.000732248
-0.00325081
-0.000383667
0.00104404
0.00259044
0.00112832
-0.00126669
-0.00170792
0.00513838
-0.00347044
0.00273533
-0.00440326
-0.000587541
0.00334641
-0.00579271
0.00303383
0.00200429
-0.00254321
-0.000256774
0.000795695
-0.00223714
-0.000781017
-7.45637e-05
0.00309272
-0.00166986
-0.00156286
0.00323272
0.000402687
-0.00443796
0.00392734
0.00010793
0.0017012
-0.00165807
-0.00171299
-0.00299148
0.00377152
-0.000707151
-7.28908e-05
0.00404006
0.00110952
-0.00434314
-0.000806441
-0.00159963
-0.00237415
-0.000283739
0.00425752
0.00264911
-0.000808473
0.00307211
-0.00491274
-0.00290108
-0.000134994
-0.00337538
0.00181252
0.000437122
-0.00380044
0.00121521
0.00214811
0.00113257
-0.00411228
0.00224951
0.000730192
0.000651039
0.000150867
-0.00327503
0.00247313
0.000457119
0.00195969
-0.00013581
0.00347183
-0.000685845
-0.00265018
-0.00135714
-0.000146042
-0.00126796
0.00277115
-0.000805587
-0.00108458
0.00207325
-0.000183088
-0.00311095
-4.57644e-05
-0.00522369
0.00188369
0.00274474
0.00751001
-8.19022e-05
0.00102817
-0.00845627
-0.00351365
0.00536126
0.00111983
-0.00296744
-0.000963337
0.000505468
0.0032337
-0.00277583
0.000388932
0.00110293
-0.000853272
-0.000638589
-0.00566833
-0.00117997
0.00489593
0.00195238
0.000127663
0.00245839
-0.0004946
8.35351e-05
0.00121297
-0.00381231
0.0025158
-0.00231184
-8.2242e-06
0.000853099
0.00146697
-0.00329401
0.00407175
-0.000650078
0.00186391
-0.0016788
-0.000185104
-0.00275943
0.000339678
-0.00210505
0.0045248
-0.00124078
0.00186889
-0.00144175
0.000813639
-0.00267182
0.00301021
-0.00124419
0.000905809
0.00116952
-0.000199654
-0.0027152
0.00174533
-0.00119408
0.00748799
-0.0100723
-0.00104573
-0.000730148
0.000714539
0.00106134
0.00348211
-0.00543609
-0.000242327
0.00219631
-0.00144352
0.00107689
0.00185768
-0.00149106
-0.000437531
0.00228649
-0.000628071
-0.00122089
-0.00256697
0.000568154
0.000601673
0.00139715
-0.00149208
0.000127052
0.00136503
0.00331334
-0.00157634
-0.00168287
-5.41314e-05
0.000253939
0.00171501
-0.00260564
0.000636694
-0.00177302
-0.00214893
0.0021918
0.00173015
-0.00101502
0.00257482
-0.00217764
0.000617849
0.000854891
-0.00161734
0.0011138
-0.000351344
0.00320175
6.72734e-05
-0.00326903
0.00266586
-0.00330017
0.00164286
-0.00100856
-0.00426422
-0.000102485
0.0043667
0.00171717
-0.00142595
0.000334996
-0.000626214
-0.000119528
0.00308863
-0.00338802
0.000418909
-0.00149037
0.00186529
0.000479967
-0.00171923
0.00367192
0.00339694
-0.00283338
0.00278392
4.94629e-05
1.92291e-05
-0.00445228
0.00443305
0.00604328
0.000717862
-0.00126642
-0.00549472
0.00128285
-0.00496978
-0.000609853
0.00429679
0.000946211
0.00112411
0.000650039
-0.00272036
-0.00168619
-0.00167363
1.19124e-05
0.00334791
-0.000811696
0.00110537
-0.00197987
-0.00368441
0.000674538
0.00483382
-0.00182394
-0.00734523
0.00537876
0.00236802
-0.000401553
0.00320813
-7.34333e-06
-0.00320079
-0.0019023
-0.00256388
0.00165751
0.00280867
-0.00183153
-0.0026406
0.000787711
-0.002658
0.00144421
0.00167091
0.00107036
-0.00141735
-0.00255697
0.00290397
-0.00180911
-2.12692e-07
0.00180933
-0.00421311
0.0017229
0.00173947
0.000750746
0.00106302
-0.00284891
-0.000872111
0.00359428
-0.00114744
-8.32835e-05
-0.00236356
-0.00244219
0.0040609
0.00234814
-0.00396686
-0.000749278
-0.0015609
0.000603218
0.00170696
-0.00102675
-0.000826063
0.00185281
-0.00180764
-0.00380043
-0.00173716
0.000873934
1.27073e-05
0.00176032
-0.00264697
0.00344514
-0.00249098
-0.00362096
0.0026668
-0.00128597
0.000464691
0.00257544
-0.00175415
0.00242333
-0.00170749
-0.000238181
-0.000477657
-0.00278115
0.000455605
0.00217223
0.000153315
-0.00171831
0.00393614
-0.00428679
0.00167352
0.000122559
0.00249071
0.00412973
-0.00328947
-0.00259458
0.00175432
-0.00318561
0.000690271
0.00594048
-0.00309434
-0.0020492
0.00333427
0.00180927
-0.000361593
0.0032358
-0.00122915
-0.00164506
0.000195409
-0.00215304
-0.00141297
0.00337061
0.00368166
-0.00242924
-0.000148872
-0.00110355
0.00113838
0.00085063
-0.00280071
-0.000776132
0.0008793
0.00216061
-0.00226377
-0.000653038
0.00335187
-0.00414195
0.00144312
-0.00209231
0.000505658
0.000505807
0.00108084
-0.00453957
0.00457635
-3.67823e-05
0.00355821
-0.00352409
-3.41174e-05
0.00132358
-0.00504284
-0.00194868
0.00566794
0.00107519
0.0020336
0.000485497
-5.00215e-05
0.00180601
-0.00175599
0.00317175
0.00281169
-0.00598344
-0.00320788
0.00195888
0.00138371
-0.000134713
-0.00179985
0.000592893
0.00146379
-0.000256829
-0.00540078
0.00252472
0.00296524
-8.91738e-05
-0.00174525
-0.00194571
0.00188184
0.00303789
-0.000510021
-0.00191217
-0.000615703
-0.00296481
0.00320822
-0.00196172
0.000516421
-0.00334707
-0.000159026
0.00298968
-5.96621e-06
-0.00170276
0.00170873
0.00798989
4.99097e-05
0.000875211
-0.00891501
-0.00030971
-0.000620475
-0.00453169
0.00546188
0.00140296
-0.00190101
-0.000881689
0.00137974
0.000553487
0.00423728
-0.00171383
-0.00307694
0.00453442
-0.00451998
2.76425e-05
-4.20866e-05
-0.00255634
-0.0023049
0.0036046
0.00125665
0.00149112
0.00110239
-0.00293565
0.000342147
1.27254e-05
0.00277618
-0.00283386
4.4953e-05
-0.00375608
0.00121731
0.00304211
-0.000503339
0.00291433
0.00176149
-0.00294969
-0.00172613
6.05637e-05
-0.00260418
0.00126634
-0.00066423
0.00393232
-0.00210026
-0.000273334
-0.000327165
0.00270076
-0.00360226
0.000169958
0.00343231
0.00517426
0.00224143
-0.00167037
-0.00574531
-0.00338177
6.85774e-05
0.00337375
-0.000308329
-0.000798798
-0.00203518
0.00314231
-0.000385186
-0.000411967
-0.00110136
0.00189852
0.000874181
-0.00441959
0.00333978
0.000205626
0.00300303
-0.000442618
-0.00293469
0.000374286
-0.00333131
0.000685928
0.000264016
0.00238137
-0.00126394
0.000842851
-0.00177486
0.00219596
0.00070828
0.000500917
-0.00423336
0.00302416
0.000130223
-0.00297166
-0.000175106
0.00301654
0.00283955
0.000403963
-8.42458e-05
-0.00315927
-0.00339413
0.000784398
0.00306326
-0.00244922
-0.00323752
0.00568674
0.00478556
-0.00242523
0.00103575
-0.00339609
0.00037841
0.00265398
-0.00162943
-0.00389336
0.000730033
0.00136967
0.00179366
0.00481285
-0.00495834
0.000145486
-0.00295915
-0.00100661
0.00207306
0.0018927
-0.00404241
-0.00313586
0.00210993
0.00506835
0.00385149
-0.00402052
-0.000493398
0.000662425
-0.000566271
0.00187805
-0.00148063
0.000168846
-0.00481213
0.00157796
0.00110194
0.00213223
-0.00721267
0.00890917
0.00151096
-0.00320746
0.00324622
-0.00701456
-0.000351873
0.00412021
-0.0028936
0.00367994
-0.00678785
0.00600151
-0.00298271
0.00656068
0.000650566
-0.00422854
0.000261416
0.00307724
-0.000748756
-0.0025899
0.00466406
-0.00351323
-9.83379e-05
-0.0010525
-0.000823914
-0.000791142
0.00121037
0.000404687
-0.00222196
-0.00462031
0.00398326
0.002859
-0.00314648
0.00418518
0.00362536
0.00266611
-0.00195968
-0.00244361
0.00173719
0.000947254
-0.00122622
-0.000540728
0.000819691
0.00209985
-0.00208033
-0.00276177
0.00274224
-0.000850044
0.00243657
-0.000176326
-0.0014102
-0.00332009
-0.000571966
0.00415347
-0.00254623
-0.000627967
0.00314873
2.54666e-05
0.00108539
-0.00242244
0.00133705
0.000844292
-0.00110185
0.00410766
-0.00385009
0.00349097
-0.00491765
0.00072776
0.000698927
0.00211876
-0.00228915
0.00017039
-0.00320946
6.29826e-05
0.00288996
-0.00111187
-0.00279152
0.00101344
0.000915457
0.000727114
0.00318596
-0.00482853
0.00208554
-0.00226599
0.000180451
-2.33204e-05
0.00251729
-0.0028462
0.00035223
-0.00353597
-0.000323065
0.00470333
-0.00153599
-0.000259922
0.000354348
0.00144156
0.000212283
-0.00174884
0.00129209
0.000244458
0.00288497
-0.00276343
-0.000687811
0.000345189
0.00493208
-0.00311652
-0.00216075
-0.00165807
0.0034933
-0.00183523
-0.00445486
0.0016968
-0.00102138
0.00377943
0.00347041
-0.00313945
-0.00514308
-0.00176723
-0.00211195
0.00725692
-0.00337774
-0.00507859
0.00321631
0.00462292
-0.00276064
-6.73812e-05
-0.00431505
0.00438243
0.00675794
2.23513e-06
-0.00389621
-0.00286396
0.00395729
-0.00254898
-0.000361353
-0.00104696
-0.00289213
0.0020531
-0.00050954
0.00134856
1.8372e-05
-0.00329082
0.00327244
-0.00214251
0.00220646
-6.39496e-05
-0.00156532
-0.00164287
-0.00418424
0.00739243
-0.00393847
0.000852566
-0.000431434
0.00351734
0.00095606
0.00155275
0.00432653
-0.00391054
-0.00321835
0.00280236
-0.00112474
-0.0023445
0.00257463
0.000894607
-0.00231923
-0.00117091
0.00349346
-3.31705e-06
0.000838119
-0.000474501
-0.00233671
0.00197309
0.00255051
0.000128118
-0.00326848
0.000589858
0.000780966
-0.000549692
0.000891639
-0.00107647
0.00107119
-0.000886366
0.00214318
0.00206252
-0.00212643
-0.00207927
0.00109284
0.00262901
-0.00270999
-0.00101185
0.00222032
0.000962818
-0.00175177
0.00271001
-0.00327327
0.000691382
-0.00371412
0.00259882
0.00141181
-0.000296507
0.00436053
-0.00144475
-0.00457386
-0.00115881
0.00307898
0.00155024
0.00298069
-0.00144159
-0.00258106
-0.000730012
-0.000403045
-0.00402053
0.00375523
0.000342098
-7.6806e-05
-0.000232866
0.00504579
-0.000512306
-0.00430062
-0.00329607
0.000671945
0.00146532
-0.000529345
-0.00333779
0.000939343
0.00292779
0.00300773
0.000413052
-8.46655e-06
-0.00341232
-0.00461328
-8.09486e-08
2.91124e-07
0.00461307
-0.00119506
0.00129982
-0.00214745
0.00204269
-0.0031189
0.00391643
-0.000385474
-0.000412055
0.00410543
-0.00381712
-0.00340722
-0.00300184
0.0026991
-0.000849043
0.00115179
0.00243903
-0.00011007
-0.00076592
-0.00156304
-0.004658
0.00448152
0.00221079
-0.0020343
0.00225704
0.000858758
-0.000287377
-0.00282842
0.00077635
0.0019792
-0.00247476
-0.000280791
-0.00146699
0.00147675
-9.7596e-06
-0.000857798
-0.0021911
0.00219885
0.00382818
-0.0038141
-1.40813e-05
-0.00187273
-0.00149739
0.0014691
-0.000188589
-0.00230219
-0.000265226
0.00275601
-0.000263806
-0.00203149
0.00181
0.0004853
0.00307601
-0.00349538
0.000419372
-0.00393318
0.00401275
0.00369496
-0.00377454
-0.0026417
0.00203934
-0.00137949
0.00198185
-0.00109773
0.000469127
0.000993563
-0.000364956
-9.83544e-05
0.00477696
-6.14204e-05
-0.00461718
-0.00250647
0.00121491
0.00123508
0.00143433
0.0018252
-0.00318237
-7.71643e-05
0.000137016
-0.00396712
-0.00015455
-0.00343165
0.00345289
-2.12375e-05
-0.00254425
0.00130376
-0.00280192
0.000785503
-0.00174262
7.54256e-05
0.00157364
0.000683195
0.00227809
4.46131e-05
-0.00194859
-0.000374111
0.00191182
-0.00476539
0.0038199
-0.000966326
0.000793443
-0.0010923
0.00403551
-0.00373665
0.00489149
0.00143056
-0.000750947
-0.00557111
-0.00125798
-0.00205711
-0.000668723
0.00398382
0.00148313
0.0061379
-0.00552491
-0.00209612
0.0007207
0.00457719
-0.00442553
-0.00087236
-0.0015419
0.000202449
0.00316418
-0.00182473
-0.000549687
0.00438252
-0.0023497
0.00328817
-0.00260137
-0.00100424
0.000317437
0.0010521
0.0027265