/*--------------------------------*- C++ -*----------------------------------*\
  =========                 |
  \\      /  F ield         | OpenFOAM: The Open Source CFD Toolbox
   \\    /   O peration     | Website:  https://openfoam.org
    \\  /    A nd           | Version:  10
     \\/     M anipulation  |
\*---------------------------------------------------------------------------*/
FoamFile
{
    format      ascii;
    class       volScalarField;
    location    "3.5";
    object      SgP;
}
// * * * * * * * * * * * * * * * * * * * * * * * * * * * * * * * * * * * * * //

dimensions      [1 -1 -3 -1 0 0 0];

internalField   nonuniform List<scalar> 
111485
(
2.50991e-08
3.58048e-08
5.9534e-08
4.47037e-08
9.8821e-08
2.33476e-08
4.50396e-08
2.67637e-08
5.64641e-08
3.9915e-07
9.49444e-08
1.97458e-07
9.60517e-08
0.112396
9.04343e-09
3.85252e-07
0.0812012
0.000469153
1.63006e-08
2.0656e-08
0.0148583
1.84959e-08
3.03161e-08
4.04177e-08
2.0435e-06
3.06917e-08
2.25686e-07
1.4872e-07
9.35274e-08
0.0192905
1.23724e-06
9.07701e-08
9.1172e-08
3.8645e-07
0.000278174
3.32197e-05
0.0544479
0.0803099
0.000942016
4.88215e-08
0.0157085
3.46597e-07
2.07361e-08
1.6128e-05
1.04061e-05
9.82726e-07
1.38052e-06
7.06617e-08
1.00208e-06
1.6641e-07
4.82882e-07
5.96682e-06
3.10007e-07
2.79025e-06
4.26642e-07
7.47305e-08
7.7686e-08
1.15176e-07
2.77743e-06
1.61977e-08
2.70253e-08
1.62556e-07
2.03784e-07
1.34595e-06
3.32513e-06
1.37021e-08
0.000163397
1.76342e-08
8.95486e-08
3.32127e-08
1.39278e-05
6.00152e-08
4.99341e-06
1.01542e-06
1.37767e-07
5.52136e-08
3.62293e-08
1.50616e-07
4.35572e-08
1.02937e-05
0.10584
0.199933
5.59005e-08
2.47202e-08
1.34666e-07
1.11316e-07
0.0537563
1.52087e-06
9.09407e-05
6.13386e-08
5.79131e-07
4.16993e-08
5.49915e-08
8.99761e-07
9.13204e-08
4.16536e-08
0.0107824
3.80179e-06
0.000628995
8.00519e-05
2.41564e-08
1.335e-06
7.90847e-07
8.78494e-07
2.10731e-07
6.66918e-06
4.62507e-08
5.07739e-08
2.90919e-07
0.00024185
5.77624e-08
5.37366e-07
2.65546e-08
2.03325e-06
1.08924e-07
7.63383e-08
2.89759e-08
2.51316e-06
7.05731e-08
6.6457e-08
4.59473e-08
7.51416e-05
0.0271758
6.57507e-07
5.13418e-06
0.0124381
4.17429e-05
1.77572e-08
6.40707e-08
9.99024e-05
3.95285e-05
4.46953e-06
0.0187893
6.83068e-05
3.26019e-05
4.35195e-08
2.28948e-08
7.0821e-08
1.01585e-07
9.71807e-07
8.5373e-06
2.51646e-07
0.0684791
7.58843e-08
4.62744e-06
2.50848e-07
4.6994e-07
6.97522e-08
8.49819e-08
2.55825e-08
6.86455e-08
0.0113782
0.0536815
1.29258e-06
1.84278e-05
7.88892e-09
4.38691e-08
1.62234e-07
0.000276799
2.24446e-06
2.4338e-08
2.70123e-08
5.78681e-08
2.96588e-05
2.7396e-05
2.58963e-07
4.6942e-07
0.00976989
0.000527706
4.99687e-05
3.92398e-08
4.08347e-08
0.100319
5.46422e-08
1.70448e-08
1.35416e-08
3.69633e-07
4.244e-06
8.63289e-08
2.36785e-06
4.11464e-06
2.8039e-08
3.40613e-08
3.77289e-08
6.09063e-08
7.85585e-06
8.85839e-07
4.38474e-08
7.17463e-05
6.90903e-08
6.19617e-07
1.78296e-06
3.34604e-06
5.87631e-08
9.41924e-07
4.0375e-06
1.03402e-07
2.05429e-07
5.11702e-07
3.5826e-08
6.99166e-08
0.00063702
1.31442e-05
1.02915e-08
6.10717e-07
5.85565e-08
3.24707e-07
4.28608e-06
3.14242e-06
6.32816e-07
8.88163e-08
3.90196e-07
3.36147e-06
9.37873e-08
7.8268e-08
0.000117568
1.7052e-07
9.58515e-08
1.05452e-07
5.39437e-08
1.19453e-07
1.29164e-07
4.3737e-08
6.42742e-06
0.000108983
8.68275e-08
2.99917e-08
1.50231e-05
0.00145531
9.63099e-06
3.7413e-05
5.23783e-08
2.06621e-08
0.0528224
1.42378e-05
7.94131e-06
0.0652771
5.64626e-08
4.4149e-08
3.46996e-08
8.22035e-08
1.19581e-08
4.98263e-08
2.01951e-06
0.000406001
2.16274e-08
2.82432e-06
7.78184e-07
1.23343e-06
0.049615
5.93367e-06
5.35702e-08
3.86231e-08
1.0357e-08
7.67648e-05
1.05228e-07
1.96152e-07
2.83831e-05
0.0414411
6.44797e-08
3.16878e-08
1.06601e-07
4.78025e-07
4.89928e-08
3.04542e-07
1.29986e-08
2.05592e-08
2.20924e-07
0.0761971
4.39754e-07
6.15473e-08
8.6497e-08
0.0647174
2.54527e-08
7.00962e-08
5.55825e-05
4.10734e-08
6.09953e-08
1.97013e-07
4.78055e-08
0.0523131
4.18478e-08
1.53315e-05
3.56938e-08
5.10817e-08
0.0822262
0.098812
1.14391e-08
7.06733e-06
9.22398e-06
5.23966e-09
3.23951e-08
2.1922e-06
3.09847e-07
4.11444e-07
8.083e-08
0.000136838
0.000117131
5.39365e-06
3.60895e-07
0.126614
6.41764e-08
0.0310295
1.22927e-08
1.47437e-07
5.05371e-08
9.68898e-08
0.00993329
4.28715e-08
1.84227e-07
3.41644e-08
8.80784e-08
2.85675e-08
1.17176e-05
1.23595e-08
1.44401e-08
2.17729e-07
0.00179522
0.099681
9.07993e-07
0.000161196
9.00919e-08
2.8718e-08
1.54907e-07
3.38054e-05
2.84149e-07
6.26282e-08
7.38271e-07
4.14683e-08
3.06254e-05
0.0242828
1.88074e-06
4.76804e-08
8.17983e-08
1.16696e-07
0.0174293
1.82092e-05
4.65868e-07
1.31742e-07
1.23111e-07
4.99931e-07
4.8895e-08
0.0565329
5.7767e-05
1.03751e-07
1.92343e-07
0.000115014
3.79335e-08
0.0141394
3.14478e-08
3.32499e-09
2.55706e-06
1.98184e-07
7.02785e-07
4.50163e-06
3.54436e-08
5.0184e-07
2.09795e-07
1.02519e-07
0.133812
1.06041e-06
4.97631e-08
0.0191224
9.89868e-07
1.51954e-07
2.31561e-07
5.34744e-08
0.0194802
0.000203788
0.0183237
0.0179313
6.24136e-08
4.15507e-08
1.22793e-07
1.9383e-07
7.0376e-08
5.59033e-08
3.86008e-08
5.88929e-06
1.09803e-07
1.88594e-06
3.46474e-08
0.000225145
1.61161e-07
8.71216e-08
1.67225e-05
4.31806e-07
0.000146998
3.91138e-07
7.56213e-07
9.55616e-07
0.0110101
5.40578e-08
3.82071e-08
0.0575737
2.0695e-06
0.113579
6.77058e-08
1.35656e-06
2.60346e-07
3.19068e-08
9.63567e-07
2.4919e-06
7.0194e-08
0.012793
5.19858e-07
2.06311e-08
1.63117e-07
1.86316e-07
0.000310606
4.33713e-08
1.78485e-07
6.35691e-07
4.83007e-08
3.1495e-07
1.31998e-05
0.0913217
7.71647e-07
2.15301e-08
3.29769e-05
2.90218e-05
3.8025e-05
8.02447e-06
0.00013344
3.1038e-07
0.000438562
1.96981e-05
0.075813
7.85037e-05
7.64713e-08
1.73668e-06
7.75315e-08
8.8584e-08
0.00053056
1.14236e-05
3.31098e-05
9.72001e-08
9.99536e-08
3.92935e-06
5.8783e-08
0.130453
1.534e-07
1.28209e-05
0.00162424
3.41514e-05
0.000487649
8.59604e-08
0.0963826
0.12264
5.3805e-08
1.55102e-06
1.81381e-05
3.83333e-05
3.70963e-08
1.0264e-05
1.04819e-08
0.111106
2.52454e-05
2.10317e-07
3.60585e-06
1.12637e-05
1.25912e-07
1.77601e-07
3.32828e-07
5.06211e-07
2.60455e-07
2.83136e-07
0.0209205
2.35626e-06
4.64561e-08
1.08722e-08
0.000138753
5.06094e-08
4.71002e-07
7.08862e-07
4.58101e-08
2.3649e-05
1.41677e-07
0.0296315
1.62856e-07
6.70587e-07
3.58411e-08
6.48342e-06
1.48028e-07
0.0927469
1.57968e-06
0.0890552
1.2109e-07
2.45798e-05
8.05757e-07
6.73006e-08
0.134949
0.0525941
6.18977e-07
7.34731e-07
1.25262e-05
1.85509e-07
2.44717e-06
1.22861e-07
1.52759e-05
0.103918
7.26035e-08
4.09018e-07
3.90507e-05
2.24014e-06
0.0212967
5.25917e-07
4.56303e-05
7.11132e-07
5.01062e-07
0.000269062
0.0294805
4.54944e-06
1.57032e-08
3.30363e-07
2.3265e-07
1.90081e-06
4.90103e-07
7.75829e-06
3.39187e-08
0.000674141
6.23609e-08
9.71337e-08
1.5345e-07
5.03699e-07
3.20307e-08
1.26888e-06
7.24597e-08
9.94839e-07
1.56663e-08
0.0443074
0.0614232
5.80985e-08
8.9109e-08
0.0235795
0.0375185
1.76946e-08
2.2982e-07
8.54066e-07
2.33877e-07
4.56477e-06
6.64996e-06
6.50065e-07
0.017041
9.57354e-08
6.70914e-08
1.74921e-05
1.6472e-05
6.99053e-06
9.26326e-07
1.70863e-06
1.62487e-06
8.00085e-08
7.37108e-07
6.327e-06
6.36131e-06
3.70749e-08
0.050009
1.99086e-05
5.50461e-06
4.68625e-07
0.000443684
3.24024e-07
5.34752e-05
0.00111921
0.000150352
9.37037e-07
1.19654e-06
1.35028e-06
2.78481e-06
0.0422112
7.20697e-05
2.81339e-05
0.00143007
0.0311861
4.93884e-08
6.17692e-06
1.52772e-06
1.4972e-05
8.80247e-08
0.000207023
0.00110108
0.00018152
6.60103e-05
3.31314e-06
1.32313e-07
2.45871e-07
7.68625e-05
1.50266e-07
1.29112e-07
2.56501e-07
2.09404e-08
4.14539e-08
3.77268e-06
2.23884e-07
0.013897
1.0903e-06
1.19996e-08
0.0413089
0.121028
2.32792e-05
4.47157e-08
0.0149353
6.38271e-08
2.63116e-06
1.72867e-07
5.13674e-08
1.6515e-05
4.51407e-06
0.0451304
3.14727e-06
3.46013e-08
1.0769e-06
8.97018e-06
0.0534847
9.78408e-08
9.22754e-06
1.93856e-05
0.0913776
0.014998
2.24218e-07
7.10795e-07
2.15984e-06
1.80797e-07
1.38535e-06
6.02802e-07
9.11329e-06
4.19897e-07
4.06387e-07
2.30402e-07
2.09346e-07
0.000141946
1.29235e-05
3.55477e-07
1.80916e-06
0.000253694
3.32136e-08
1.91098e-07
1.97656e-06
9.73829e-07
1.91495e-06
6.06707e-08
1.3438e-06
4.58162e-07
3.32919e-06
7.047e-05
1.70893e-06
9.77876e-07
2.94874e-08
2.19818e-07
6.74165e-06
2.07607e-06
4.82203e-08
0.0280822
8.0983e-08
0.0668937
2.17937e-05
0.00471649
1.46542e-07
0.0106318
2.58629e-07
1.40368e-06
3.92137e-08
1.52621e-06
1.70806e-07
4.77226e-08
8.38524e-07
0.104959
1.24854e-05
1.16852e-05
0.0164654
6.74463e-08
1.41089e-08
1.44716e-06
3.54719e-08
3.41876e-05
6.51487e-08
4.16025e-05
5.53276e-08
5.01517e-07
2.59224e-05
0.0618156
1.27749e-07
6.33334e-08
2.07849e-07
7.9571e-08
4.86187e-05
6.34473e-08
0.0227861
8.90679e-08
3.35759e-08
2.42867e-07
0.0164469
5.21176e-07
5.8073e-08
4.59321e-08
0.00196606
0.000369287
0.0675475
9.19983e-08
3.61851e-08
1.04737e-06
1.05219e-05
1.68747e-05
0.000220572
0.000142719
1.74893e-05
1.12746e-07
0.0231243
1.0964e-07
2.94178e-07
3.15747e-08
2.46947e-07
6.15049e-08
5.09339e-08
4.13122e-08
1.8445e-07
4.89173e-07
4.59172e-08
5.24456e-08
3.70268e-07
5.69604e-08
1.7086e-08
1.48674e-07
4.10298e-07
1.41551e-07
7.09315e-09
1.08458e-07
1.75066e-07
1.3558e-07
2.67234e-08
4.28342e-08
1.69699e-06
1.55715e-07
1.23295e-08
4.1437e-07
1.64893e-08
1.09543e-07
3.07331e-08
1.09277e-07
9.11416e-08
5.87458e-08
4.56616e-06
1.96518e-08
4.1003e-08
1.4032e-05
6.18354e-07
1.83393e-08
0.000229329
6.17904e-08
0.0934409
1.15351e-05
2.45218e-06
0.0808227
3.274e-05
2.42393e-08
2.18788e-06
6.38765e-08
6.31557e-06
0.0357132
0.000281728
3.18009e-08
1.12984e-07
5.24401e-06
2.21623e-05
2.36532e-05
3.64861e-05
4.58226e-08
4.63922e-08
4.03604e-08
1.48909e-05
1.47704e-06
1.28957e-06
1.62883e-07
7.69663e-08
2.82034e-08
2.58623e-07
4.99674e-08
0.012133
5.63354e-06
1.97777e-08
2.08756e-08
2.28756e-05
4.73082e-05
6.38312e-07
1.99033e-07
0.0162921
9.50756e-08
6.3315e-08
0.023214
3.57528e-08
0.0277502
1.76501e-05
0.0134277
0.000244328
4.85236e-08
1.29899e-05
9.7157e-08
0.018307
2.45994e-07
0.000514315
0.0605327
4.63682e-05
4.19078e-08
2.30202e-07
3.99913e-07
0.185522
0.0603173
5.22152e-08
0.0905911
5.66542e-08
6.34437e-05
1.94391e-07
5.72341e-06
0.000339755
4.59016e-08
1.82498e-07
1.80422e-06
3.40274e-07
1.05831e-07
0.0165081
6.13314e-08
3.39511e-07
1.39104e-07
1.06405e-07
7.54042e-08
0.0792106
3.78886e-07
2.5446e-07
0.000173474
1.54084e-08
3.39825e-07
0.0794213
6.1333e-08
0.073106
0.128664
0.000356194
3.77526e-06
7.23453e-07
1.31509e-07
1.50465e-05
0.000105693
0.000403606
4.33591e-05
1.63402e-06
0.0165018
1.78368e-05
1.49548e-08
8.01246e-06
6.22924e-05
0.000223837
0.00019085
0.00034547
7.00348e-05
2.68111e-08
2.63627e-05
2.99458e-07
1.36794e-07
0.000682065
0.129136
1.29413e-07
2.40798e-08
0.00131741
0.0012802
2.97341e-08
0.000215049
1.07054e-07
8.77635e-09
8.91171e-08
1.59575e-07
7.14293e-07
1.44856e-07
1.48129e-05
0.0187893
6.63093e-08
5.65205e-07
0.00185563
0.0435567
1.29887e-07
1.72903e-07
0.0117768
6.28935e-08
3.76829e-05
1.0001e-08
6.31833e-08
0.000233659
0.0486511
7.6507e-08
2.69473e-08
2.12925e-07
0.0129548
1.97601e-08
0.00837991
1.10077e-07
3.84563e-05
1.45052e-08
0.000718798
7.17215e-08
4.49904e-08
4.2284e-07
1.8708e-07
0.000525186
4.08872e-07
2.62059e-08
8.54766e-07
0.00170384
0.0196078
2.66931e-05
0.000161692
0.000380301
1.92856e-07
0.000530119
2.98999e-06
6.48732e-08
1.01974e-06
7.7848e-05
2.11312e-06
3.4713e-07
3.03763e-06
6.19932e-05
6.26873e-08
2.1714e-07
1.42949e-07
3.28341e-06
0.0301531
1.46236e-08
1.08196e-07
0.0222198
4.8422e-05
2.94038e-05
6.8332e-08
2.51253e-08
1.24804e-07
2.40796e-07
6.23378e-06
1.85392e-08
4.5083e-07
2.41188e-06
1.13302e-05
2.26733e-05
6.52607e-06
1.50514e-07
1.85964e-06
4.89688e-08
3.28466e-07
1.56656e-07
6.48224e-05
3.94967e-08
2.76686e-07
5.82803e-08
7.82081e-08
1.92647e-05
1.84367e-07
1.85014e-06
0.000322298
9.37613e-07
3.43449e-08
0.000396463
4.56457e-05
2.52147e-05
5.86631e-05
8.31429e-08
1.97755e-05
5.34033e-07
0.0455381
1.2965e-05
3.93465e-05
1.23705e-07
1.01374e-08
3.99396e-08
0.0774417
0.0270435
1.69348e-05
4.76685e-08
6.12367e-05
8.50707e-08
0.0615649
1.95917e-07
2.35469e-07
3.90423e-08
1.55304e-07
5.78211e-07
2.45513e-05
7.43565e-07
4.55706e-05
0.118838
1.30595e-06
2.9623e-05
1.56462e-05
3.0947e-05
2.49592e-05
2.61195e-08
1.5436e-07
4.35199e-07
4.47173e-06
4.85185e-08
1.63317e-07
0.00024276
1.26344e-07
2.20695e-07
0.183964
9.97782e-07
1.86514e-05
3.80406e-08
8.60904e-08
1.75575e-07
0.14463
3.056e-08
0.0460449
0.00208125
3.05977e-05
5.30698e-06
4.51472e-06
0.000364658
1.03702e-06
1.30473e-06
5.82492e-07
5.28824e-08
5.3304e-08
1.08676e-06
3.37917e-05
8.34895e-07
0.0255654
1.35743e-07
1.52337e-06
7.26572e-05
5.54355e-08
0.000160567
1.35198e-07
9.91898e-06
0.00027877
8.76937e-08
2.6193e-08
1.93979e-05
3.72194e-07
9.81728e-09
0.0700072
6.68247e-08
3.59192e-06
2.50212e-07
0.0169219
3.50188e-06
3.44335e-07
4.19968e-08
2.41167e-06
2.36005e-06
2.40999e-08
0.0615949
1.88637e-07
1.43736e-08
4.23103e-05
5.12176e-07
5.51194e-08
1.09718e-05
0.000127098
0.000350531
9.71839e-08
4.87799e-07
9.02505e-08
1.88362e-07
1.95778e-05
0.0137384
4.07296e-06
0.000322304
2.6166e-05
0.000398934
1.46562e-05
1.09122e-06
4.33105e-07
1.79022e-07
2.22115e-08
8.05082e-08
1.76142e-08
0.0176082
7.35547e-05
0.0174036
4.70523e-08
1.35736e-07
1.08881e-07
2.649e-05
3.57898e-05
1.18952e-08
1.12852e-05
0.000220964
2.31793e-06
2.54066e-08
0.00292856
0.00304706
1.54297e-05
9.70885e-06
2.59519e-07
0.000360357
8.02088e-07
8.17698e-08
9.21389e-08
3.09905e-08
8.49667e-05
4.02588e-07
0.000353161
2.56036e-07
0.017188
0.000140678
2.99217e-07
1.43304e-08
0.000153884
6.38236e-07
0.0223841
0.101898
3.90889e-05
6.88348e-05
3.24851e-06
7.21421e-08
1.05032e-07
3.04586e-07
2.85416e-05
9.29342e-07
0.0127176
0.0222633
1.03307e-06
2.65818e-07
0.00012913
0.0153122
1.15086e-05
0.000455192
0.00100928
0.0159539
0.0601074
0.0186075
3.07563e-05
5.17763e-08
0.000788133
2.89238e-07
2.38967e-08
1.79154e-07
1.64341e-07
5.00684e-08
1.10741e-07
4.43873e-08
3.40201e-05
1.56196e-07
2.92774e-08
5.41515e-07
3.69451e-08
0.0217074
1.55575e-06
8.41685e-06
0.0280375
0.105885
1.69876e-07
0.0746863
5.75826e-05
0.142852
6.20428e-08
6.83061e-08
8.32052e-08
1.51921e-07
0.107046
1.11539e-07
0.000396099
5.55336e-08
1.08649e-07
6.45353e-06
7.37451e-08
3.42893e-07
1.14425e-07
0.0285952
3.04099e-08
1.18637e-07
5.12654e-08
3.48944e-07
6.01669e-09
0.000128211
9.90045e-06
4.47805e-07
0.000157816
3.37852e-06
1.81349e-07
4.98275e-05
3.00055e-07
5.37045e-08
8.81228e-08
1.22191e-07
0.109057
0.0161879
9.96527e-05
1.0063e-07
1.53818e-07
3.40129e-08
0.0754322
1.38416e-07
1.50358e-08
4.73696e-07
2.75557e-08
1.09623e-08
0.013067
1.25825e-07
2.93174e-08
3.04524e-07
3.58481e-06
7.79204e-08
0.065744
4.65638e-08
0.0162635
3.9576e-08
3.04356e-06
2.50321e-08
2.35619e-08
4.38703e-07
5.58359e-08
3.38102e-07
1.62252e-06
1.38151e-08
1.28424e-08
5.89667e-08
0.0297065
3.49956e-08
2.16123e-08
5.85379e-08
1.37985e-05
9.56061e-08
0.017781
9.71059e-07
1.53315e-06
7.70657e-08
1.60954e-07
1.35055e-07
5.80182e-07
9.902e-08
5.77231e-08
8.12605e-08
1.22826e-07
1.04995e-07
9.18217e-06
2.69467e-07
3.17099e-08
4.72167e-08
3.7101e-08
0.000213791
0.109668
4.29305e-08
2.05659e-06
7.72707e-07
0.000151068
6.00236e-05
6.14871e-08
3.51696e-05
0.0295168
2.91945e-08
2.04657e-05
0.000340245
0.0249662
3.90307e-07
6.97423e-08
0.000116404
3.80859e-07
0.015377
2.04589e-07
5.58603e-07
2.178e-07
1.06636e-07
0.0931635
1.80555e-08
5.35032e-08
1.36913e-07
1.81479e-06
0.144315
0.0211761
4.35681e-07
3.1774e-08
2.63114e-08
3.7002e-08
8.07302e-08
2.39825e-07
3.81265e-08
3.2351e-08
3.48199e-08
1.13318e-08
8.65477e-08
0.0230875
0.0137934
6.58055e-08
5.57818e-06
3.42973e-08
1.94058e-08
1.27507e-07
0.0134796
0.0329809
7.44776e-07
6.43321e-08
1.26987e-08
2.7791e-07
1.78782e-07
1.83843e-06
7.25473e-08
0.000125976
2.76287e-07
1.45109e-06
3.73029e-07
7.94592e-05
1.65868e-06
0.000326938
2.38612e-07
1.21659e-08
0.00019994
0.000202127
3.35897e-08
2.98628e-06
7.76693e-08
4.10019e-08
7.43453e-08
1.75247e-07
1.94427e-06
1.86645e-07
0.122028
3.52274e-07
1.39312e-07
0.0232061
7.88478e-08
2.50145e-06
9.11975e-08
7.83876e-08
1.75421e-07
9.36665e-08
2.81824e-07
1.5579e-07
1.94792e-06
5.59149e-08
4.04998e-08
1.80978e-07
1.76669e-07
1.79852e-08
6.83027e-08
2.49839e-08
1.29722e-08
1.89927e-07
2.26128e-07
6.77612e-08
4.55731e-08
1.89261e-08
2.37491e-07
6.16327e-06
9.04441e-08
4.84806e-08
1.7953e-07
2.63546e-07
6.96568e-08
2.55826e-05
1.44613e-07
0.109248
1.33439e-07
4.5481e-06
4.5291e-06
1.46412e-06
3.0348e-08
1.10312e-07
0.0870639
1.87188e-07
4.68479e-08
9.51404e-07
0.0878024
2.6784e-07
6.18547e-07
1.43946e-05
5.59645e-07
2.06029e-06
2.66693e-08
0.000152939
5.67745e-08
7.68819e-09
1.96801e-06
5.54649e-08
0.000139724
0.00014781
0.0972273
3.1579e-06
6.59438e-07
2.13832e-06
4.33104e-08
3.76631e-06
1.34062e-07
0.00107638
3.99604e-08
0.000133373
0.000150948
0.0243839
4.16211e-06
0.0968465
2.7485e-08
3.4449e-07
2.79212e-07
4.60587e-08
1.95257e-07
1.3578e-06
3.40166e-08
9.69261e-08
3.1288e-06
7.76862e-08
2.48373e-08
1.35562e-08
0.000173954
9.00653e-09
8.30428e-09
0.000153468
4.82881e-07
0.000207839
4.10013e-08
6.54164e-08
1.68369e-08
2.08903e-07
8.54507e-06
1.5967e-06
8.6876e-05
4.85188e-08
6.65608e-08
0.00135466
2.3098e-07
2.63225e-08
6.40984e-05
9.63256e-07
8.57513e-07
6.26445e-08
0.0568442
4.67506e-05
5.3355e-08
3.35216e-07
6.48046e-08
7.9711e-05
6.76456e-08
4.6736e-08
3.5846e-08
4.2125e-06
2.92256e-06
2.32286e-06
0.0714942
3.18667e-07
1.93875e-08
0.000100489
2.0399e-08
2.18393e-08
3.49205e-08
2.86142e-05
5.42817e-08
4.58368e-05
0.0656149
2.21698e-08
3.91924e-08
3.87534e-08
7.58623e-08
6.08418e-08
2.35616e-07
0.000181043
0.000320118
0.00011723
0.000365126
1.00813e-07
2.14962e-05
1.79976e-07
6.37606e-09
2.29966e-08
1.26712e-07
0.0418189
0.000146486
1.97507e-08
0.000645041
3.20919e-07
9.45666e-06
0.000157092
8.45348e-07
1.10556e-06
9.78124e-07
5.32599e-08
1.61343e-05
6.0288e-08
4.75949e-05
5.91157e-08
2.87963e-07
4.62543e-08
2.68034e-06
2.47742e-08
4.07758e-08
0.000116248
2.60301e-08
3.80667e-06
3.01827e-07
3.14487e-08
4.92851e-08
0.00024597
0.0592015
5.07633e-08
4.25791e-08
3.46019e-08
0.0573005
0.0989632
6.39174e-08
0.0213335
1.90843e-07
2.38556e-08
2.82471e-06
5.53795e-08
7.65393e-08
5.37417e-08
8.58587e-06
0.0427123
0.140508
0.154963
2.43152e-07
1.22624e-07
1.21494e-07
3.64395e-06
0.148475
2.66807e-08
0.0811822
2.39902e-07
6.7872e-08
2.00882e-07
2.13459e-07
2.65582e-07
5.24457e-08
1.26665e-07
5.75335e-08
0.0531212
1.43385e-07
9.0993e-08
1.03384e-05
7.71295e-08
6.2118e-07
2.98156e-06
3.83728e-08
3.09366e-07
0.000195337
2.6569e-06
2.14307e-08
1.35509e-05
2.74207e-06
7.60476e-08
6.79794e-08
1.15319e-07
1.8127e-08
2.81838e-08
0.00137933
1.43327e-07
2.80738e-07
2.77898e-08
3.59397e-07
4.46266e-08
3.4545e-05
1.56356e-08
3.35437e-08
1.63031e-06
1.08076e-06
2.2835e-05
6.52532e-08
2.11808e-07
0.0164761
0.000165004
0.140426
0.000322884
5.54172e-06
1.68009e-07
0.0244982
4.19468e-08
3.67968e-09
5.84439e-08
7.60469e-08
2.137e-05
1.45106e-07
2.95518e-08
8.17085e-08
2.68327e-07
5.86578e-08
9.27505e-08
1.00241e-07
8.32514e-06
0.0284796
1.52362e-07
4.26163e-08
2.88476e-08
5.883e-07
3.82527e-07
0.000103254
7.51218e-08
2.00008e-08
9.38344e-08
1.68943e-07
0.017803
7.36937e-05
3.32598e-08
3.7359e-06
3.69485e-08
4.69232e-08
2.54244e-07
4.37812e-08
6.46168e-06
1.17127e-07
8.34222e-06
5.22359e-08
2.38494e-07
5.40836e-07
6.21023e-08
1.84592e-05
3.59111e-05
3.21643e-06
6.11371e-08
7.91928e-08
5.58998e-07
2.8875e-08
0.000212092
3.53497e-07
0.0773831
4.58106e-06
5.27719e-08
1.87182e-07
8.39749e-05
8.69445e-08
0.000440358
5.13358e-08
1.59137e-05
0.0893686
2.52146e-08
0.000127804
2.8822e-06
0.0170166
6.03883e-07
0.0189445
0.0332212
4.79286e-05
3.29202e-06
1.04934e-05
1.5954e-08
6.56836e-06
1.08193e-05
0.000140649
6.50973e-06
8.71122e-07
8.32372e-06
0.00017274
0.000137167
0.000192561
5.17908e-05
1.62552e-07
1.61998e-05
0.000348841
3.7431e-06
1.10349e-06
0.000104769
8.73263e-05
5.11968e-06
5.8259e-06
0.000101071
4.01534e-06
8.2306e-05
1.84181e-05
8.24245e-06
2.14661e-08
1.16422e-05
0.000149609
0.026781
6.33466e-07
1.53856e-07
2.09341e-05
9.8801e-08
3.30836e-05
3.4446e-07
0.000138072
1.60346e-08
1.45407e-08
4.32406e-08
5.84909e-08
5.32716e-06
0.000404318
0.000403551
0.144621
1.65378e-05
7.40115e-07
2.08049e-07
0.000152475
6.7656e-07
0.0121361
0.0281262
1.66648e-07
0.000320686
4.63713e-07
9.60181e-08
1.0123e-07
0.000470504
1.98899e-07
0.0171111
2.67842e-07
5.66383e-08
9.7615e-06
3.09754e-07
5.40957e-08
1.32109e-05
0.015802
1.7465e-07
2.40677e-08
1.83317e-07
0.0876667
0.0155768
2.17805e-08
6.18057e-05
3.4034e-08
0.000190674
3.55941e-08
0.0149898
2.00704e-07
3.98152e-05
9.60492e-08
3.22212e-07
6.81918e-07
3.57854e-07
6.74788e-06
1.2092e-06
5.21513e-07
4.49686e-07
1.70433e-06
2.14936e-07
3.19707e-08
2.38414e-07
0.029213
9.81098e-08
1.04584e-07
1.1242e-05
4.84233e-08
1.04125e-05
1.45735e-05
0.0238601
3.10033e-08
0.0966058
2.20249e-07
7.51472e-07
0.0159495
5.25424e-05
1.3004e-08
4.08382e-07
0.0112181
5.18317e-08
1.51406e-05
1.82299e-06
3.08945e-08
1.00007e-06
1.92087e-06
4.94564e-07
0.0461961
2.88297e-07
8.26198e-08
1.08702e-07
3.22134e-07
1.09705e-07
1.67218e-05
1.10834e-06
0.101064
2.68507e-05
1.41445e-05
1.90284e-05
2.34387e-05
5.31963e-08
1.35406e-08
3.66121e-08
2.27434e-07
3.40129e-06
7.76133e-06
2.02366e-06
9.10689e-08
3.99345e-07
1.04134e-07
1.23819e-07
1.88356e-08
9.76342e-08
6.67725e-08
8.68785e-06
2.81625e-06
1.35327e-06
1.03015e-07
1.99002e-08
0.00059828
5.20255e-08
4.24708e-08
1.17278e-08
4.77462e-08
0.119797
3.91113e-08
1.04792e-07
2.65883e-05
4.36953e-07
1.96159e-07
2.08623e-08
1.97225e-06
1.55194e-07
1.05572e-07
3.57783e-06
4.37622e-08
2.24729e-08
4.60259e-09
1.52338e-05
1.64128e-07
0.121257
0.000203775
5.17827e-07
0.000747681
2.96264e-08
1.91672e-08
8.09899e-08
0.0235653
1.10301e-06
7.83026e-08
7.30879e-07
5.74261e-08
1.81284e-08
0.178352
5.37229e-07
5.43934e-06
2.40065e-06
3.30996e-08
0.0436425
9.71229e-08
1.4603e-07
6.01991e-07
4.65786e-07
5.00326e-08
1.4754e-07
7.17995e-09
4.16166e-08
2.02848e-05
8.68166e-07
1.40168e-08
7.45792e-05
2.60307e-07
0.0621691
4.21129e-07
2.84595e-08
4.84758e-07
8.08648e-06
0.0241597
0.0118689
6.31139e-06
3.79346e-06
0.0361885
4.68777e-07
1.1109e-05
0.0171089
1.08308e-06
4.99746e-08
0.0659518
0.00743959
6.00314e-06
9.0206e-06
5.10951e-08
4.51585e-06
0.000611726
5.67079e-08
3.79766e-06
0.000147027
1.63469e-08
0.0092574
3.13694e-08
1.39853e-05
0.0797697
5.09586e-08
4.73491e-06
4.18762e-08
4.55432e-07
1.74245e-07
2.65931e-06
2.70621e-07
6.40491e-08
3.69291e-08
5.76109e-06
4.12357e-08
0.00931067
0.0177806
5.36961e-08
6.07051e-08
1.93259e-08
6.09694e-05
3.34959e-06
2.24234e-06
8.18662e-08
2.33671e-07
6.09711e-05
9.98125e-06
7.26504e-06
8.67033e-06
0.159059
4.56062e-08
0.0593617
9.98017e-08
2.81874e-08
0.0202626
2.79301e-07
2.62938e-08
0.00912172
3.135e-08
4.10597e-08
1.80632e-08
1.43987e-07
4.24663e-07
4.12568e-08
5.42208e-08
3.68801e-08
8.54554e-06
0.0647655
0.0864972
5.61656e-06
8.21557e-07
3.72711e-08
0.022193
0.0852953
4.03233e-05
2.80175e-07
1.23947e-07
0.00039696
9.10386e-05
3.97509e-07
1.70911e-08
1.15881e-07
9.7189e-08
4.53524e-08
4.55936e-06
3.98039e-07
0.0239633
0.0834561
1.16165e-07
0.000324201
5.55835e-08
7.08276e-08
3.46691e-07
5.3604e-05
1.25484e-05
0.000184149
8.56437e-06
3.55526e-07
3.36055e-08
1.24625e-08
5.94956e-06
0.0232112
3.65632e-08
0.0746406
1.66653e-07
3.62597e-06
4.31788e-07
5.9521e-06
6.15815e-08
5.54142e-08
3.4836e-08
7.09285e-08
2.73868e-07
0.000136872
7.17712e-08
0.0148935
4.55619e-08
0.0635417
3.05044e-08
3.988e-07
7.62552e-07
2.03608e-07
6.0472e-06
1.03299e-07
3.70026e-08
1.91223e-07
7.61955e-08
2.84974e-06
0.020975
0.0203197
1.70977e-07
1.17006e-07
5.67184e-08
5.25539e-08
2.43121e-08
1.04818e-07
8.76738e-05
1.43473e-07
1.60385e-08
2.73235e-08
0.00876915
1.25802e-05
1.20048e-06
0.0161232
7.17976e-09
0.13556
1.36165e-07
1.23581e-07
3.62229e-08
8.30667e-08
0.0213548
2.28039e-08
3.46865e-08
7.78621e-08
0.000290263
1.5332e-05
9.69741e-06
5.81852e-05
1.63002e-05
9.07624e-08
1.10791e-07
0.14227
1.24672e-05
1.29348e-05
4.83162e-05
4.13566e-07
1.06322e-05
4.01564e-05
1.22829e-06
1.30489e-06
0.000146249
6.07131e-08
8.85499e-05
0.0156318
1.72104e-08
1.69227e-07
3.28005e-05
4.29708e-07
0.01362
0.0709999
2.47064e-06
3.466e-08
0.00167139
2.23029e-07
2.05959e-06
3.57338e-07
7.62062e-06
4.02575e-08
0.000341596
8.11628e-06
1.41858e-05
1.29639e-07
4.32658e-05
1.27473e-05
2.79707e-06
3.06464e-08
6.50217e-05
1.34703e-07
1.11242e-06
2.61224e-07
3.47671e-06
4.7788e-05
0.000167127
5.07832e-08
9.59296e-08
1.56658e-07
4.96622e-08
1.25626e-07
0.00906656
6.81647e-06
4.52013e-05
1.2907e-07
8.14932e-05
3.45626e-05
5.01576e-08
4.35923e-08
8.36562e-08
1.64605e-07
7.78476e-08
5.13523e-06
0.000543117
1.03303e-05
1.4892e-07
4.62728e-08
4.86112e-08
2.04607e-07
3.62112e-08
0.0583427
3.7165e-06
0.000282416
0.000394325
0.000287382
1.58919e-08
0.000244335
0.00028013
0.000526469
0.000280297
2.97218e-08
8.66626e-08
2.65913e-07
9.00503e-07
2.68361e-05
0.000143139
0.0153175
7.15107e-08
1.09323e-05
2.21203e-06
0.000153035
5.62387e-08
5.31541e-08
1.55925e-05
9.4609e-05
0.0104305
3.68254e-08
0.0491892
5.40976e-05
1.26438e-07
3.18394e-05
2.20024e-08
8.42824e-08
8.53422e-07
1.30795e-07
3.31476e-08
1.0987e-07
0.000848974
3.34678e-08
4.2877e-08
0.000695916
3.8173e-08
4.29798e-06
0.00128509
1.82063e-08
7.09668e-08
2.23844e-05
9.9395e-08
5.18093e-07
0.0883583
2.07314e-08
4.2681e-07
7.51039e-08
0.0483954
0.0490561
8.47883e-07
1.95529e-08
2.91931e-05
0.0219663
2.15154e-08
2.34668e-08
8.97419e-08
4.94777e-06
5.3347e-07
0.104921
9.43512e-08
3.78228e-06
0.00149916
8.03691e-08
2.32057e-06
4.78959e-07
9.67238e-07
9.04804e-08
0.000997811
0.00163422
1.07809e-07
7.43306e-08
4.29785e-07
2.50575e-05
1.13664e-07
0.0158742
1.05864e-07
4.25065e-06
5.36117e-07
3.2997e-07
2.40386e-07
5.0122e-08
1.11446e-07
2.92286e-06
9.31429e-05
1.29529e-07
5.02075e-07
0.0172024
3.47841e-07
1.81187e-06
1.30009e-06
1.17282e-06
2.36232e-08
7.69077e-08
1.00033e-07
5.95536e-07
8.72428e-08
0.0243703
9.37026e-06
3.66633e-07
2.68009e-08
3.64358e-07
0.0454631
3.99115e-06
2.13732e-06
2.2265e-06
4.56549e-06
1.32126e-07
1.86086e-07
8.11288e-06
6.88693e-09
1.79012e-06
0.000218858
1.79127e-07
4.10691e-08
5.51661e-08
1.21338e-06
5.04526e-08
2.07834e-08
3.31245e-08
5.52068e-07
6.33329e-06
2.34466e-07
7.36015e-08
0.0183109
4.28717e-08
2.06199e-08
3.54022e-06
0.0225653
2.76483e-07
4.76455e-07
3.0274e-08
6.48997e-08
2.2333e-06
2.8913e-07
2.30438e-06
2.06024e-08
1.12388e-07
1.48121e-07
1.1254e-06
9.61063e-08
5.69208e-08
1.18454e-07
1.04555e-07
5.30972e-06
4.90445e-07
4.50511e-08
3.63966e-06
1.21062e-07
9.25226e-08
3.21978e-08
2.15683e-07
6.3779e-08
1.89612e-07
4.9335e-08
1.67189e-07
7.13942e-06
1.77574e-08
9.40038e-06
1.06786e-08
7.90705e-07
0.00013759
6.38822e-08
6.47816e-08
0.0287672
3.48834e-08
0.0236078
1.03427e-07
2.64187e-08
4.02007e-06
5.43248e-08
0.0168445
1.38772e-07
0.0208677
0.0243034
2.48399e-05
3.41394e-08
0.0161118
4.65608e-06
5.66672e-08
1.14329e-07
0.0514688
0.0148112
0.017005
7.56869e-09
8.78692e-08
5.34056e-08
2.01855e-06
4.40594e-07
9.27329e-07
6.68371e-05
2.1697e-06
2.06062e-07
4.22894e-08
9.97453e-07
0.000115661
9.43868e-09
2.4282e-08
1.78832e-06
8.76492e-07
2.59143e-08
4.0668e-06
8.01538e-06
3.27187e-08
1.23298e-07
5.52558e-08
3.12152e-07
1.15887e-07
4.40465e-05
3.92848e-06
2.66499e-06
4.37022e-05
0.00017796
3.93371e-08
1.89048e-07
3.26257e-08
2.52058e-08
2.46334e-08
1.23674e-06
1.7717e-08
0.000116584
0.151444
0.0327439
1.66106e-05
3.67276e-08
1.2847e-06
0.0200186
0.0453296
1.69024e-07
0.000100558
2.13666e-07
1.75475e-07
3.21301e-07
5.81702e-08
3.70455e-08
5.3917e-06
1.3729e-07
1.05554e-07
2.32768e-08
9.88058e-08
0.0699181
0.0216627
4.36832e-06
9.49128e-08
3.04495e-08
0.0167412
5.83388e-08
1.81783e-08
2.2223e-07
0.000229661
1.29726e-07
1.09971e-06
9.90615e-08
1.27789e-07
0.000410497
0.057824
0.0258054
5.01103e-08
0.0275704
2.04805e-07
1.93774e-06
5.746e-07
0.0437578
2.16693e-07
8.01724e-06
8.61954e-08
7.3739e-07
0.000111214
7.17317e-08
2.79425e-05
1.52722e-07
2.46666e-08
4.38831e-06
7.22718e-08
8.94749e-08
2.00715e-07
1.66846e-07
8.66281e-07
2.77015e-07
2.57571e-08
2.06126e-08
0.027134
0.014854
1.23222e-07
0.0304013
3.55954e-08
5.36402e-08
1.1277e-05
3.22455e-08
2.25209e-08
0.0141237
5.29962e-08
5.71764e-08
0.00023718
1.08214e-08
4.54018e-08
2.09246e-07
0.0415192
1.45105e-07
0.0147929
9.11251e-08
3.09482e-08
0.0181306
1.51296e-06
0.000316162
1.81449e-08
6.65617e-08
3.70098e-07
8.67802e-08
0.0814819
0.0164395
4.22182e-05
1.28038e-07
0.0185049
2.04235e-08
3.93126e-08
7.86523e-08
0.0462176
0.000646147
4.52924e-08
1.97274e-08
3.50233e-07
0.0192416
0.000369635
4.40471e-07
9.01619e-05
0.0476924
0.0310794
1.44973e-05
0.0312374
0.00035238
0.0170888
1.62367e-05
0.0270108
0.000133785
1.00314e-06
7.92676e-07
6.1752e-07
0.000180144
0.000368385
1.67298e-08
3.09557e-07
1.27812e-07
2.18201e-06
2.56079e-06
1.24251e-06
2.30108e-06
0.000109841
1.32462e-07
5.02237e-06
4.50033e-07
7.37009e-09
1.75401e-07
2.97716e-08
2.1217e-06
1.35984e-08
1.39469e-07
5.8506e-08
3.20671e-06
1.7583e-05
2.6302e-08
1.18955e-07
1.32605e-07
2.06165e-07
6.65884e-08
0.000513696
0.000824033
4.90395e-05
1.66207e-07
1.36149e-06
1.15207e-06
0.0185069
1.26155e-05
4.13474e-06
1.31476e-07
3.13099e-07
1.34441e-06
8.992e-05
4.48117e-05
0.0662687
0.0268408
3.60931e-08
0.000333045
0.000123932
1.07823e-07
1.5681e-07
3.91477e-06
3.80922e-08
4.89305e-07
1.55434e-06
0.0248501
2.20869e-08
7.55864e-06
6.37648e-08
0.0175582
2.14299e-05
0.0141892
3.16093e-06
8.05966e-08
8.61647e-09
3.02529e-08
1.0642e-05
8.45605e-06
8.14821e-07
2.81838e-06
1.73638e-07
0.000129504
0.000107974
4.00162e-08
4.65574e-05
1.36214e-05
1.28183e-05
3.49125e-05
0.00108077
2.05105e-06
0.0402098
5.87643e-08
1.32287e-06
0.0153112
4.55296e-08
4.10663e-05
0.00290141
6.36104e-08
2.73873e-05
8.82134e-08
1.33128e-07
8.70168e-07
1.67378e-06
1.65844e-08
1.58298e-08
3.82249e-07
4.41588e-08
1.12105e-08
5.23874e-05
1.39316e-08
3.8545e-08
7.67326e-06
4.48367e-08
6.08161e-08
3.18049e-07
2.95005e-05
8.26866e-08
6.79015e-05
2.67896e-07
4.45796e-08
8.74101e-06
2.64563e-05
4.77243e-05
0.0155416
2.96278e-05
4.20452e-08
9.06103e-07
0.11713
0.113799
3.35629e-08
4.20093e-08
6.28761e-08
0.0166282
0.0152101