/*--------------------------------*- C++ -*----------------------------------*\
  =========                 |
  \\      /  F ield         | OpenFOAM: The Open Source CFD Toolbox
   \\    /   O peration     | Website:  https://openfoam.org
    \\  /    A nd           | Version:  10
     \\/     M anipulation  |
\*---------------------------------------------------------------------------*/
FoamFile
{
    format      ascii;
    class       volVectorField;
    location    "3.5";
    object      U;
}
// * * * * * * * * * * * * * * * * * * * * * * * * * * * * * * * * * * * * * //

dimensions      [0 1 -1 0 0 0 0];

internalField   nonuniform List<vector> 
111485
(
(0.923049 -0.922089 0.00115326)
(2.61035 0.000587025 -0.0017126)
(2.60813 0.00428714 0.0021374)
(0.920891 -0.922684 -0.000132871)
(2.61666 0.00254212 0.00110956)
(0.928153 0.925975 0.000682503)
(2.61114 0.000252084 -0.00138674)
(2.61416 -0.000736164 0.0010798)
(2.61154 0.000526866 0.00065054)
(2.64856 -0.00730962 -0.000780247)
(2.61426 -0.00071467 0.00103034)
(2.64394 0.00275777 0.00239559)
(2.61301 0.00113269 0.00309257)
(2.60934 -0.00219413 -0.00255749)
(2.6121 -0.00037877 0.000847203)
(2.61101 0.00414231 -0.00320593)
(2.61052 0.00383013 0.00489526)
(0.933724 -0.0769613 0.155531)
(2.61248 0.00061202 0.000254526)
(0.920326 -0.918056 -5.30239e-05)
(0.920241 -0.918589 0.00141039)
(0.92627 0.926873 0.00126013)
(2.61196 0.000503027 -0.000214686)
(2.61111 -0.00268117 0.000103535)
(2.61141 0.00414978 -0.00728287)
(0.926888 -0.924854 -0.00120385)
(2.6689 0.000250499 0.00510077)
(2.61306 -0.000505006 -0.00269393)
(2.61748 -0.00155507 0.000609115)
(0.921554 -0.922372 0.00301543)
(2.71849 0.0484185 -0.0152007)
(2.6115 0.00017657 0.00127378)
(0.919227 -0.919678 0.000538015)
(0.929336 0.927878 6.75445e-05)
(0.945057 0.377859 0.154366)
(0.93251 0.93927 -0.0155375)
(2.70216 0.0442409 -0.01822)
(2.61062 -0.000833321 0.0173443)
(2.69567 0.806688 0.0491111)
(2.61115 1.36588e-05 0.00131719)
(0.91746 0.92657 -0.0131093)
(2.66684 0.00127663 -0.00919835)
(2.61219 0.00075505 0.000778837)
(2.6029 -0.00437565 -0.00861117)
(2.72175 -0.0489254 -0.0263818)
(0.929425 -0.922654 0.000882676)
(2.67682 -0.00560945 0.00977635)
(2.61235 -0.00143369 0.000350179)
(2.66461 -0.0029115 -0.00842098)
(0.915957 -0.907216 0.00237)
(0.91768 -0.911597 0.00449365)
(1.05884 0.885772 0.0160968)
(0.91312 -0.909801 0.00375951)
(2.69126 0.00908506 -0.0132514)
(0.910004 -0.906677 0.0016359)
(2.61242 0.000790311 -0.00169484)
(2.61235 -0.000327392 0.000351759)
(0.925835 0.928927 0.00214042)
(2.47286 -0.00668578 -0.026234)
(2.61114 0.000391427 -0.000393684)
(2.61162 0.000684752 -0.000790019)
(0.919005 -0.921365 0.000539227)
(2.61219 -0.00290845 -0.00193621)
(2.71492 0.00650451 0.0132739)
(0.961882 0.873581 0.00260382)
(2.61273 -0.000142659 0.000331353)
(1.91636 -0.180513 0.0539693)
(2.61177 0.00164343 -2.07377e-06)
(2.61024 -0.0017787 -0.00236994)
(2.61306 -0.00100674 -0.000741257)
(2.62116 0.0276631 -0.0159964)
(2.61013 6.63263e-05 0.00147125)
(0.992704 -0.899931 -0.0181785)
(2.61038 -0.00308936 8.10947e-06)
(0.919832 -0.921891 -0.0013082)
(2.6144 8.6321e-05 0.00171522)
(0.926366 0.925626 -0.00211725)
(2.66304 -0.00316628 0.00280271)
(0.925905 0.927727 0.00108853)
(0.841573 0.812803 -0.0287256)
(2.62351 -0.0347131 0.0226824)
(2.67873 0.0142854 0.00397725)
(0.92625 0.926873 -0.000938444)
(0.921996 -0.921426 0.000167812)
(2.61304 -0.00055257 -0.000213229)
(2.61317 0.000361143 -2.02798e-05)
(2.09704 1.35454 -0.362875)
(2.66301 0.022548 0.00435897)
(2.58442 0.0641683 0.0526067)
(2.6109 -0.00292465 -3.34964e-05)
(2.76136 0.0377191 -0.0307865)
(2.61342 0.000184565 -0.000833272)
(2.61317 -0.000932442 -0.00247742)
(2.61071 0.00186346 0.000213924)
(2.66833 -0.000500115 -0.0064275)
(0.92123 -0.920295 -0.000349814)
(0.91915 -0.92014 0.0015547)
(2.66072 0.0228791 0.00875753)
(2.78708 -0.554727 0.0351298)
(2.57473 -0.00164408 0.0141969)
(0.921229 -0.921157 0.00294367)
(2.64297 -0.00413563 -0.00320153)
(0.932618 0.936134 0.00474029)
(2.63891 -0.00423325 -0.000854996)
(2.61151 0.00293346 2.46082e-05)
(0.909873 0.807165 -0.0211206)
(0.928001 0.927324 -0.000611378)
(2.61101 -0.00155166 -4.40474e-05)
(2.61538 0.00160099 -0.00203559)
(2.40467 -0.0680857 -0.0658298)
(2.61409 0.0013346 0.00150981)
(2.61159 0.00103768 -0.000182834)
(2.61149 -0.000569276 9.28118e-05)
(2.58434 0.000185399 0.00088528)
(0.929821 -0.925154 0.000473658)
(2.61229 3.90488e-05 -0.000381725)
(0.924505 -0.922288 -0.00159371)
(0.931869 0.928302 0.00422508)
(2.6127 -0.00159195 -0.00128971)
(0.922135 -0.923011 -0.000364345)
(0.927024 -0.924096 -0.000606018)
(1.23071 0.963386 0.0618486)
(0.92023 0.924315 -0.000362116)
(0.930006 0.927413 -0.00246149)
(2.58701 -0.00764077 0.0102631)
(0.744829 -0.541489 -0.132611)
(1.17597 1.00566 0.0361637)
(2.61161 2.02344e-05 0.000678048)
(0.92311 -0.921315 -0.00216178)
(2.70721 0.182616 -0.0751256)
(2.68621 0.0572865 -0.0328372)
(2.65545 0.0216507 0.00908544)
(0.918454 -0.913206 -0.0031899)
(1.20146 1.04414 0.107625)
(1.12238 1.00084 0.0467619)
(2.61254 0.0007198 -0.000786966)
(0.929258 0.927055 -0.00095238)
(2.61032 -0.000140666 -0.00122084)
(2.61292 -4.88848e-05 -0.000918047)
(2.61135 -0.00275728 -0.00498008)
(2.37825 0.00110434 0.000507232)
(2.61303 -0.00171272 -0.00180764)
(2.60949 -0.00068034 -0.00137923)
(2.60966 -0.00363202 -0.000130623)
(2.6444 0.00963872 -0.00490016)
(2.60754 -0.00543256 -0.00218608)
(0.927557 0.929167 -0.000551055)
(0.921719 -0.922785 0.00119979)
(0.924874 0.925633 0.0017385)
(2.6119 0.000352066 0.000526029)
(2.60982 -0.00373825 -0.000118814)
(0.920447 -0.919792 -0.00147644)
(1.9031 -0.00152191 0.0132971)
(2.61405 0.00545259 0.00748319)
(2.87242 0.100957 0.0531335)
(2.61254 0.000827341 -0.000757297)
(2.61089 -0.00188661 0.000773256)
(2.60855 0.00105272 0.001957)
(2.89073 0.128025 0.0353031)
(0.917678 -0.925058 0.0047452)
(0.91887 -0.920518 -0.000431489)
(2.61108 0.000522492 -0.000945239)
(2.61052 -0.00344481 -0.00143279)
(2.90913 0.148079 0.0397932)
(2.86741 0.130817 0.0555543)
(2.6101 -0.00466186 -0.00129372)
(2.68563 0.0165696 -0.00674365)
(0.91557 0.924103 0.000423125)
(2.9474 0.183129 0.0467601)
(2.80301 0.125337 0.0479265)
(0.927396 0.92557 0.00276612)
(0.920144 -0.919833 0.000595794)
(2.54689 0.00331593 0.00423834)
(0.927762 0.928139 0.00103178)
(2.61373 -0.000785321 -0.00144794)
(2.61785 0.000992867 -0.000737339)
(0.926398 0.905902 -0.00553351)
(0.989121 -0.912458 0.00961632)
(0.923934 -0.920386 -0.00138897)
(0.912212 0.855679 -0.00999053)
(0.996731 -0.921731 0.0173724)
(0.918799 -0.921582 0.000660511)
(2.61322 -0.000711035 -0.000548978)
(2.61098 0.00047996 -0.000256573)
(2.6108 0.000845144 0.000455012)
(2.59656 -0.0160253 0.0071924)
(2.59082 0.000411414 -0.00103351)
(2.61127 0.000549546 -0.00124515)
(2.39803 0.0154346 0.00403357)
(0.921167 -0.918348 0.000119021)
(2.61098 -0.0019472 -0.00520177)
(0.989551 -0.918844 0.00963906)
(0.930036 -0.929965 0.000912857)
(2.61081 0.000669433 -0.000229957)
(2.65004 -0.0112318 -0.00127375)
(2.66756 0.001823 -0.00985112)
(2.61097 0.000337396 -0.000350792)
(2.61206 0.00227905 0.00141659)
(0.919298 -0.91761 0.00332776)
(2.61362 -0.000577038 0.00211469)
(2.60908 -0.0022113 0.000386461)
(1.78686 0.552595 0.0813841)
(2.62907 -0.0108591 -0.00052605)
(2.61361 0.000115112 0.00136202)
(0.924507 -0.922343 -0.00296774)
(2.61155 -0.000390539 -0.00147628)
(2.6488 0.0011089 -0.00121286)
(1.00005 -0.908315 0.00272583)
(2.59778 -0.0010974 0.0102422)
(2.68267 0.00545291 0.00357397)
(2.60979 -0.00343611 0.000658465)
(2.61111 0.00194328 -0.00144441)
(0.997531 -0.925903 0.0113366)
(0.919859 -0.920819 -0.00156579)
(2.60956 -0.000429954 -0.00038531)
(1.6688 1.0381 -0.0971616)
(2.70855 0.00608188 -0.0166768)
(0.927269 0.927008 -0.00168902)
(2.61112 -0.000884764 -0.00086114)
(2.61052 0.000181996 -0.0014769)
(2.67323 0.000887969 0.00792325)
(0.923407 -0.920767 0.00268854)
(2.61238 2.85053e-05 -0.000979703)
(2.68671 0.0367278 0.0195902)
(1.46842 0.975717 -0.104075)
(0.927777 0.926816 0.000245471)
(0.927008 0.927066 0.00230076)
(2.75465 -0.0118177 0.0340882)
(2.59014 0.0524135 0.000272737)
(0.972863 0.821297 -0.0205257)
(1.14108 -0.888571 0.0318979)
(2.60978 -0.000807269 -0.00140014)
(2.61355 -0.000722917 9.04129e-05)
(2.61838 0.00231919 0.00534632)
(0.963439 0.833898 -0.0216354)
(0.973176 -0.90055 -0.00413016)
(2.60436 0.031784 -0.0362858)
(0.920531 -0.921023 0.00142572)
(2.61401 -0.000441353 0.0002398)
(2.6122 0.000140536 0.000687691)
(2.61189 -0.000117511 -0.000730616)
(2.61267 -0.000446884 -0.000442473)
(2.61242 -0.000675929 0.000449655)
(0.92476 0.925818 0.00500094)
(2.06018 -0.000117179 -0.0647953)
(2.61224 0.000906478 0.000182341)
(0.92133 0.926147 -0.00435524)
(0.926364 0.928935 -0.00100746)
(2.70881 -0.0188626 -9.04664e-05)
(2.60689 0.0100603 -0.00170102)
(0.949203 0.811233 -0.0272516)
(2.61409 -0.00176416 0.0013048)
(2.61135 0.000168023 1.01152e-06)
(0.921661 -0.921549 -0.00101688)
(1.1786 1.11383 -0.00657592)
(2.67113 0.0277639 -0.0126477)
(0.92357 -0.91322 -0.00084947)
(1.01451 -0.73133 -0.0230086)
(1.39103 -0.50137 -0.0440881)
(0.923045 -0.920325 -0.00113248)
(2.6131 -0.000601988 -0.000137077)
(2.60811 8.33576e-05 -0.000961319)
(2.61138 -0.0010011 -0.00585548)
(0.921288 -0.920863 -0.00117897)
(2.61352 -0.00174132 0.00104726)
(0.923133 -0.922845 -0.00215285)
(0.921322 -0.92288 0.00125642)
(0.919523 -0.916773 0.00209918)
(2.02593 0.00900826 -0.0206746)
(2.66272 0.000300135 0.0033627)
(2.60898 0.00260729 -0.000627856)
(2.61192 0.000545796 -0.000420062)
(2.65291 -0.00205857 -0.00195346)
(2.61217 0.000682022 -0.00122185)
(2.61216 -0.000327208 9.46666e-05)
(2.7057 0.0365558 -0.000541966)
(2.6131 0.000986021 -0.00169187)
(2.61347 -0.00105302 1.67797e-05)
(0.943994 0.92812 0.000513358)
(0.918368 -0.921386 -0.000142361)
(1.83933 0.00802506 -0.0341093)
(2.61456 -0.00043112 0.00108348)
(2.66643 0.0152809 0.0222255)
(2.61348 -0.000788524 -0.000521115)
(0.920478 -0.921307 0.00301591)
(2.60827 -0.000478035 -0.000822429)
(2.60965 0.00158289 -0.00114979)
(2.61296 0.000142654 -0.000145447)
(2.52539 0.00701074 -0.0140142)
(2.44657 -0.0270402 -0.0518035)
(2.61221 0.000158224 5.59391e-05)
(2.61228 0.000574163 -0.000120967)
(2.65933 0.023461 -0.0141666)
(0.926748 0.929073 0.00462292)
(2.57344 0.00115778 0.00330977)
(0.927031 0.927348 0.000830712)
(0.752218 0.561023 -0.125266)
(1.0311 -0.67768 -0.0606194)
(2.77187 -0.0164719 0.0407959)
(2.65379 -0.00188264 -0.00198516)
(2.60952 -0.000574798 -0.00145595)
(0.921749 -0.921346 -0.00168753)
(0.92504 0.929288 0.00577626)
(2.61114 -0.000454788 -0.00085522)
(2.60878 -0.00134728 -0.0013869)
(0.922127 -0.920653 -0.00150227)
(0.921711 -0.921351 0.0035998)
(0.906799 -0.910486 0.00363849)
(2.61228 -0.000370254 0.000555559)
(2.61252 -0.00183538 -0.00139345)
(2.6127 -0.000158054 -0.00019527)
(2.61374 0.000866196 -9.90191e-05)
(2.61268 0.00183564 -0.000839178)
(1.06856 0.913408 0.0227339)
(0.925938 0.92764 0.00132982)
(0.921931 -0.920068 -0.000111713)
(2.61354 -0.000185365 0.00172008)
(1.748 -1.48336 -0.105716)
(2.60923 -0.000451098 0.0013939)
(2.74832 -0.00843305 0.0520085)
(2.28941 0.00187496 -0.0277153)
(0.925459 0.930405 0.000674873)
(0.921625 -0.921334 0.000138607)
(0.919554 -0.91999 -0.000585483)
(1.17668 0.98369 0.0644855)
(2.60956 -0.00233418 0.000185473)
(2.62259 -0.00340445 -8.32855e-05)
(0.929606 0.932426 0.0003889)
(2.61297 -0.000117729 -0.00305668)
(0.981315 0.786936 0.059955)
(0.926859 -0.913808 0.00240429)
(2.71045 -0.00104851 0.00837261)
(2.6122 -8.16896e-05 -0.000256057)
(2.65047 0.00223319 0.00301996)
(2.61257 0.000765579 -0.00362097)
(0.898624 0.790914 0.048387)
(1.1673 0.999917 0.0683697)
(0.927552 0.927563 -0.00257236)
(2.61139 -0.000499614 0.00103195)
(2.61473 0.00308903 0.00119269)
(2.70806 0.0524616 -0.0211124)
(0.922403 0.9157 0.00179685)
(1.8578 1.64618 -0.396256)
(2.56696 0.0100407 0.0286678)
(2.62226 -0.00144214 -0.00159409)
(2.61055 0.00323268 0.0018296)
(2.53742 0.243465 -0.0191139)
(2.61182 0.00117009 -6.62024e-05)
(0.926996 0.925984 0.0014343)
(2.6129 0.000134168 0.0014809)
(2.61296 0.00133576 -0.000271478)
(2.72702 -0.0497006 0.00259629)
(2.71892 -0.00377554 0.0256379)
(2.60549 -0.00602788 -0.00483807)
(0.92413 0.929926 -0.00292312)
(0.919843 -0.920894 -0.0001681)
(0.930456 0.92225 0.00455125)
(0.916942 -0.918427 -0.00119602)
(2.61321 -0.00102232 0.000943333)
(2.61134 -0.00065494 0.000504558)
(2.6407 -0.00269864 -0.00343215)
(2.61338 -0.00122951 -0.000141354)
(0.920455 0.923819 -0.00307694)
(2.6151 -0.00643533 -0.00191633)
(0.926035 0.927101 0.00336909)
(0.918192 -0.921205 -0.000644754)
(2.61299 -0.000147315 -0.000813444)
(0.856401 -0.854546 0.0120991)
(1.50758 -0.305033 -0.0221032)
(0.911423 -0.907773 -0.00115162)
(0.934626 0.924254 0.00773065)
(2.61403 0.000697271 -0.000495195)
(0.926986 0.92515 0.000267133)
(2.61214 0.0021203 -0.00054456)
(2.60012 -0.00202569 -0.000919998)
(0.928901 0.929373 4.75633e-05)
(2.61243 -0.000180721 -0.000420543)
(2.6114 0.000953125 -0.00173132)
(0.933577 0.812974 -0.0307289)
(2.61199 0.00210547 0.00278466)
(2.60095 -0.0046493 -0.000608415)
(2.61167 -0.00109667 0.00102192)
(2.47858 0.00520818 0.0272391)
(2.60747 0.00196781 0.0031308)
(2.61129 0.00107369 0.00253203)
(0.914108 0.776195 -0.00120259)
(0.92168 -0.915969 0.00325058)
(2.35081 0.00496743 0.0388208)
(0.921784 0.922005 -0.00490772)
(2.60566 0.0103239 0.00733716)
(2.71648 2.60152e-05 0.0186797)
(0.937406 0.895415 0.00832325)
(0.924551 0.928785 -0.00203648)
(2.60988 0.000440831 0.000465325)
(2.58658 -0.00789924 -0.00674641)
(2.60739 0.00569863 -0.00402415)
(2.63229 0.00712796 -0.00294867)
(0.927534 0.926587 0.0012856)
(2.7381 0.00449144 0.0319232)
(2.64162 0.00393072 0.00128228)
(0.929722 0.927593 -0.00059916)
(2.63903 0.0369739 0.0327945)
(2.57097 -0.00532891 -0.00731927)
(0.922704 -0.919639 -0.000936977)
(0.921979 -0.918293 -0.00292802)
(2.60792 0.00187788 -0.000981126)
(2.61637 0.003038 -0.00098228)
(0.931973 0.93125 -0.00207288)
(0.921498 -0.923015 -0.00266833)
(1.60351 -0.880552 0.195766)
(0.921331 -0.921613 0.000475587)
(2.62074 0.00667021 -0.00353943)
(0.923531 0.924917 -0.000266115)
(0.919687 -0.921925 0.000322548)
(2.64623 0.00202991 0.00174112)
(2.47583 -0.0227701 -0.0548372)
(2.65972 -0.00755703 -0.0003198)
(2.61305 -0.000397858 0.00108357)
(0.929157 0.927481 0.00123921)
(1.20664 0.927851 0.0471985)
(2.59709 0.0292866 0.0446246)
(1.13273 0.997902 0.0537508)
(2.59272 0.00891081 0.0185818)
(2.6002 -0.0119585 0.00417459)
(2.65941 -0.00823889 -0.00510732)
(1.88509 0.0529141 0.0706688)
(1.1138 0.95815 0.0507839)
(2.63302 -0.00378026 -0.027516)
(2.74128 0.0822705 -0.0204913)
(0.921481 -0.921287 0.00144995)
(2.69188 0.00351442 -0.017042)
(2.63437 -0.00108693 0.00193791)
(0.923328 -0.921892 0.00196056)
(2.63671 0.141403 -0.0779088)
(2.44663 -0.00133102 -0.0159856)
(1.17418 0.918259 0.0416609)
(2.64356 -0.00149511 0.00130041)
(2.632 -0.00376374 -8.92007e-05)
(2.60587 0.000898706 -0.00259933)
(0.929168 0.924007 0.000323186)
(2.60208 -0.00826689 0.0197313)
(2.65442 0.00615654 0.000733003)
(2.59152 0.0151305 -0.00513918)
(1.74807 -0.0302198 0.0184504)
(1.13728 1.06973 -0.0219115)
(1.60924 -0.0402359 0.0516217)
(0.921949 -0.923346 0.00257235)
(2.462 -0.0726053 -0.0612467)
(2.59768 -0.00875166 -0.0239712)
(0.928271 0.927126 0.00197474)
(2.58445 -0.000144949 -0.00751173)
(2.28188 0.00204405 0.0292592)
(1.2141 1.07026 -0.00904857)
(0.920984 -0.920894 -0.000738954)
(1.07521 -0.915682 0.0285619)
(0.921104 -0.920886 0.000736378)
(2.60547 0.0129348 -0.0065301)
(2.60953 0.00658913 -0.00336415)
(2.61942 -0.0050853 -0.00149394)
(2.57852 -0.00416509 -0.00202612)
(2.67636 -0.0334824 -0.00586443)
(0.927445 0.922725 -0.00131914)
(2.61473 -0.00256816 0.000928635)
(0.924003 -0.915021 0.000598634)
(2.60445 0.00305311 0.00202085)
(0.929545 0.929638 0.0010085)
(0.919916 -0.920645 0.000278424)
(0.912871 -0.914055 -0.00204304)
(2.6134 0.00538635 -0.000692127)
(0.918371 -0.921832 0.000528164)
(0.922452 -0.922732 0.00134788)
(0.915583 0.588875 -0.04173)
(0.922823 -0.922272 0.00106099)
(0.916192 0.929331 0.00766462)
(2.61885 -0.0102124 -0.00304086)
(0.926425 0.925645 -0.00108015)
(1.10106 0.8095 -0.00224058)
(0.928919 0.927076 0.000873935)
(0.920068 -0.917725 -0.000869489)
(0.93012 0.925439 -0.00344241)
(0.919518 -0.913215 -0.00410876)
(0.925319 0.925998 -0.000423856)
(2.55112 -0.0023226 -0.00173056)
(0.931017 0.925402 0.00389883)
(2.50813 0.0263686 0.0387053)
(2.63648 0.0107379 -0.00494065)
(2.75089 -0.0960306 -0.0192543)
(0.924832 0.923987 -0.000216101)
(2.39013 0.00597585 0.0255719)
(0.930513 0.92682 0.000834923)
(0.922222 -0.920144 -0.000428935)
(2.5953 -0.00883392 -0.0115353)
(2.59978 -0.00865309 -0.00648787)
(2.61648 -0.00401433 -0.00157659)
(2.75039 -0.0047714 -0.0380612)
(1.0716 0.894589 -0.0239996)
(2.65859 -0.000141489 -0.00629369)
(2.65907 0.00139852 -0.0058906)
(2.61107 -0.00173921 0.000399571)
(2.61401 0.00133566 -0.00213403)
(2.61125 -0.0108484 -0.00198491)
(0.920442 -0.920956 -0.000287118)
(2.61097 -0.000844104 0.00182128)
(1.22458 1.06592 -0.00712066)
(2.64173 0.00380992 -0.00279631)
(0.926666 0.925362 -0.00176491)
(2.66496 -0.000407637 -0.00394694)
(1.20323 0.997746 0.00833305)
(2.6134 -0.00295108 -0.00119098)
(2.64033 0.00244912 0.00173008)
(1.05904 -0.550521 -0.00442377)
(0.92786 0.929154 0.00881406)
(2.61506 0.00131714 0.00699026)
(0.920514 -0.920516 -0.000815023)
(2.67143 0.00349395 -0.00980314)
(2.66011 0.00481643 -0.0048238)
(0.925762 0.924608 -0.00854124)
(0.924531 0.926862 0.000443677)
(0.910251 0.804151 -0.0247125)
(0.926319 0.928533 -0.000817423)
(1.91139 -0.100942 0.0532076)
(2.67192 0.00317564 -0.00675249)
(0.93791 0.915467 -0.000336613)
(0.925645 0.926032 0.000342632)
(2.58898 -0.00159777 0.00181732)
(0.9261 0.92847 -0.00199054)
(2.64821 0.00516728 -0.00464834)
(0.926568 0.928061 0.00263917)
(2.62729 -0.00551556 -0.00226235)
(0.921788 -0.92156 0.000619832)
(2.51099 -0.0108003 -0.0126978)
(2.37851 -0.00199513 -0.00873322)
(2.61277 -0.00190514 0.000304466)
(2.61238 -0.00126934 -0.00280013)
(0.93361 0.925575 -0.00103653)
(2.61521 0.00430428 -0.00805668)
(0.930586 0.927258 0.000913458)
(0.929255 0.926737 -0.0029472)
(2.62354 0.000438442 0.00259924)
(0.928276 0.926967 -0.000499181)
(2.4346 -0.00283776 -0.00968034)
(0.897814 0.826239 -0.0248287)
(2.6515 0.00297228 -0.00380682)
(0.921448 -0.919444 0.000615679)
(2.65694 0.00394584 0.000572337)
(0.921717 -0.919568 -0.0022575)
(1.10728 0.978889 0.0270954)
(2.74687 0.0983578 -0.00793457)
(2.59525 -0.00934397 -0.0073246)
(2.64183 0.0056508 6.38322e-05)
(2.63029 -0.0084747 -0.00714385)
(2.63363 0.000411561 0.00120351)
(2.64434 -0.00261474 -0.000696666)
(0.921508 0.93217 -0.00578004)
(2.63264 0.00973802 0.0098328)
(2.59783 -0.011628 -0.00276601)
(0.927828 0.928569 -0.00118178)
(2.29394 -0.0320902 -0.0737425)
(2.71737 -0.0207027 -0.00921831)
(2.60596 0.00339544 0.00766637)
(0.918332 0.905775 -0.00510966)
(1.14635 0.214655 -0.18794)
(2.60572 0.00578401 0.00152977)
(2.3466 -0.00646233 0.0123551)
(2.1767 0.553952 -0.000507803)
(1.18534 -0.623654 -0.0473645)
(2.64697 -0.00902465 -0.00442291)
(2.5938 -0.00128414 0.00242853)
(2.58894 -0.0112302 -0.0102551)
(2.63137 -0.00763624 -0.0115826)
(2.59212 0.01078 0.00787091)
(2.34204 0.29536 -0.011136)
(1.15385 0.973911 0.00875518)
(2.3954 -0.0843949 0.0177397)
(2.31774 -0.207575 0.0398721)
(0.920392 -0.921304 -0.000536867)
(2.51739 0.00219088 0.00021847)
(0.932555 0.917127 -0.00684399)
(1.09131 0.996244 0.0108342)
(2.61179 0.00192131 0.000884646)
(2.35694 0.378344 0.000699564)
(2.85226 -0.238164 -0.0485099)
(2.57663 -0.448321 0.00450126)
(1.0929 1.03961 -0.0820778)
(2.63805 -0.0103083 -0.00998725)
(2.61225 0.00430855 0.00438083)
(0.924923 0.921852 -0.00116749)
(1.20121 0.650343 -0.0274956)
(2.61254 0.00555089 0.00465801)
(0.922616 -0.919823 0.000225436)
(0.925784 0.924351 -0.000801444)
(0.926193 0.926647 0.000693414)
(0.927823 0.922509 0.00119481)
(2.63866 -0.0152838 2.53277e-05)
(0.926198 0.926122 -3.76689e-05)
(0.925623 -0.925145 0.0037944)
(2.61775 -0.004755 -0.00684304)
(2.61201 0.00071432 0.000482957)
(1.34705 -1.18513 -0.0677115)
(2.61051 0.00510442 0.00435853)
(1.08495 0.865359 0.0229127)
(2.61163 -0.00189497 -0.0014238)
(0.90667 -0.909148 -0.00447758)
(0.925089 0.926817 -0.00108886)
(2.63999 -0.00670414 -0.00379355)
(0.926702 0.922719 -0.000251417)
(0.925159 0.923392 0.000760117)
(1.06647 1.02177 0.0286555)
(2.60368 -0.00430618 0.00303003)
(1.54617 1.29195 -0.170717)
(2.62705 -0.00225868 -0.00270257)
(2.61335 0.000328317 -0.00024127)
(0.915104 -0.910147 -0.00614742)
(2.76786 0.00135374 0.0805949)
(2.5292 -0.00461625 -0.0207843)
(2.61906 0.00270243 -0.00203527)
(2.67225 0.0416245 0.00679698)
(2.69325 0.0223306 -0.0594013)
(2.57684 -0.00257747 -0.000512544)
(0.928177 0.928007 0.00212515)
(2.65603 -0.00343027 0.00462384)
(2.62028 0.00516419 0.00194123)
(0.913799 -0.925155 0.00033384)
(2.61145 0.00115594 -0.000647887)
(2.67361 0.0180878 0.00217261)
(2.62532 0.00378709 -0.00144682)
(2.60553 -0.0118171 -0.0165049)
(2.62817 0.0072185 -0.000203633)
(2.62308 0.00773143 6.38964e-05)
(0.92268 -0.911501 0.00601941)
(2.66988 0.00457174 0.00359026)
(2.36781 -0.012145 -0.00867789)
(1.12501 0.975941 0.0624153)
(2.63001 0.00189132 -0.00213098)
(2.60166 -0.00088647 -0.00277404)
(1.50938 1.22315 -0.1852)
(2.61257 0.0001161 0.000619413)
(2.63206 0.00117163 -0.00166156)
(2.6011 -0.000986124 -0.00296665)
(2.62939 0.00812773 -0.00146256)
(2.60037 0.0107628 0.00933187)
(2.61173 0.000351895 -0.00143324)
(0.908071 0.886807 -0.000448495)
(2.62876 0.00977238 0.003744)
(2.52818 -0.0111491 -0.0160274)
(1.02931 -0.627671 0.0174929)
(2.61154 0.0156397 0.00856605)
(2.60623 0.0127131 0.0136011)
(2.61072 -0.000241169 0.000608493)
(0.927079 0.924748 0.000952273)
(2.59989 0.0118781 -0.0217164)
(0.923717 -0.91791 0.00446264)
(0.927749 0.925277 -0.00121316)
(0.923941 0.919016 0.00130505)
(0.929459 0.924894 0.00175795)
(2.57116 -0.000183742 0.00278302)
(1.11131 0.954202 0.0415588)
(2.06938 -0.13849 0.158347)
(0.916757 -0.920118 -0.00102574)
(0.926398 0.941338 -0.00180014)
(2.63223 0.0148395 0.0117384)
(2.64636 0.00223437 -0.00444767)
(0.921078 -0.921491 0.000661616)
(2.64844 -0.00799352 0.00123319)
(0.922173 -0.920238 0.00393879)
(0.922386 -0.922154 -0.000354299)
(0.908065 -0.909892 0.00347834)
(2.68416 -0.00646381 -0.0018304)
(2.47776 0.00644867 0.000818068)
(1.10072 0.986353 0.00917855)
(0.930972 -0.920784 0.00151588)
(0.925442 0.929047 -0.00169019)
(0.928288 0.928316 -0.000901528)
(2.72648 0.00321568 -0.0272587)
(2.61115 0.0013288 0.000292532)
(1.1082 1.04128 0.0480374)
(2.65476 0.00125072 -0.00519259)
(2.5384 -0.0313359 -0.0966091)
(0.92561 0.925793 0.00256162)
(2.65335 0.00117457 -0.00501668)
(2.52185 -0.00148833 0.0106798)
(2.59821 0.00961975 -0.0110611)
(0.925198 0.926566 0.00120658)
(0.926085 0.925467 0.00102634)
(2.612 0.00155844 0.00266453)
(2.61186 -0.000439087 -0.000995432)
(1.10155 0.998245 0.0149368)
(0.925743 0.926435 0.000714116)
(0.942503 0.911666 -0.0035572)
(2.61099 -0.0025159 -0.000931346)
(0.922155 -0.922 -0.00132187)
(0.921234 -0.920284 -0.000334429)
(0.924065 0.926599 0.00132527)
(2.64979 0.00229049 -0.00462081)
(2.60967 0.000460569 -0.00176058)
(0.926106 0.926958 0.000150863)
(1.04318 0.199694 0.189788)
(1.15688 -0.144415 -0.0259496)
(2.60302 0.0112746 0.00222373)
(0.927938 0.929773 5.25081e-06)
(0.92826 0.925687 -0.000167232)
(2.66987 -0.0137646 -0.00174837)
(2.60162 0.0388455 0.0339753)
(1.11995 0.999074 0.0499649)
(1.64121 0.523135 0.030501)
(2.57546 0.0556599 0.0764631)
(2.5256 0.0055544 -0.0022494)
(2.61737 0.000222958 0.000675511)
(0.966208 0.906223 0.000454449)
(2.61339 -0.00223263 -0.00106081)
(2.67795 -0.00521414 0.0111509)
(0.928542 0.925629 -0.0023083)
(0.913149 -0.903623 0.000508)
(0.925286 0.925157 -0.000842144)
(0.926439 0.926537 0.000794778)
(0.926338 0.928848 0.000159055)
(0.928515 0.92642 -0.0013702)
(2.65273 0.00262931 -0.00266651)
(0.918914 -0.920501 0.00298105)
(0.925428 0.925833 0.000791964)
(0.920142 0.913387 0.00260298)
(2.65468 0.00210027 -0.00363649)
(2.61209 -0.000628819 0.000446311)
(0.925361 -0.913338 0.00254441)
(0.913182 -0.902516 0.000527158)
(2.68568 -0.000749211 0.0147769)
(2.6104 0.000134973 -0.000515606)
(2.61073 0.000690559 0.000146985)
(0.920783 -0.918463 0.00131501)
(0.924156 0.929656 -0.000167692)
(2.6114 0.000521542 -0.000580927)
(0.922309 -0.920648 0.000740846)
(2.6024 -0.00311105 0.00445647)
(2.61212 0.000832514 0.00227616)
(2.61032 0.000620527 -9.56928e-05)
(0.927022 -0.919828 0.0015673)
(0.920721 -0.923401 0.00255046)
(0.921884 -0.92227 0.000249739)
(0.927696 0.931426 0.0010309)
(2.61374 -0.00371923 -0.00198057)
(0.927598 0.928338 0.00228521)
(0.925681 0.92528 1.92245e-05)
(2.6452 0.0149011 -0.012026)
(0.920913 -0.920647 0.00144069)
(2.61231 0.00132816 -0.000386956)
(2.50534 -0.0125545 0.00291062)
(0.937482 0.906404 0.00432268)
(2.61149 -0.00113578 0.000613921)
(1.25638 0.140019 -0.0204326)
(2.61227 0.00133787 -0.00162727)
(2.67062 0.00189568 0.00177964)
(2.53581 -0.000634559 0.00235731)
(2.685 -0.00399419 0.0114914)
(2.00184 0.0325222 -0.0776661)
(1.10859 0.881264 0.0200929)
(2.61222 0.00149744 -0.00152109)
(2.69261 0.00505724 -0.00201317)
(2.61765 -0.000622783 -0.00154706)
(0.948395 0.822494 -0.0298193)
(1.2474 0.112399 -0.06496)
(1.43888 -0.131574 0.03623)
(2.61346 9.42085e-05 -0.00271924)
(0.927076 0.927096 0.00138892)
(2.58376 -0.00384516 -0.00881098)
(2.63078 -0.00242499 0.00014885)
(2.55183 -0.0123114 -0.0222558)
(0.997604 -0.719343 -0.0513413)
(0.922099 -0.923079 0.000590765)
(0.920562 -0.921448 -0.00115981)
(2.61345 -0.000442984 0.000393243)
(1.07673 0.890785 -0.0135461)
(2.61871 0.00561034 -0.0060271)
(1.00612 0.917325 0.00896411)
(2.61038 -0.00174939 0.00290354)
(2.61385 0.00146216 0.000104895)
(2.61381 0.000791183 0.000480193)
(2.61378 -0.000377345 -0.00263139)
(0.924496 0.925505 -0.000861523)
(0.920725 0.920059 -0.000479573)
(0.993935 -0.902618 0.00198035)
(2.61194 -0.00102379 0.00016279)
(0.92884 0.926103 -0.00109095)
(1.07482 0.922406 -0.0444962)
(2.73783 0.0559311 -0.044504)
(0.931483 0.929301 -0.00226825)
(0.92243 0.924939 0.00479643)
(0.919422 -0.91717 -0.00213869)
(0.927141 0.92838 0.00294679)
(2.61364 0.00064286 0.000850795)
(0.952805 0.904673 -0.000443345)
(0.928485 0.92663 -0.000941066)
(2.20117 0.303178 -0.208447)
(1.08775 0.875532 -0.00866396)
(0.923626 0.924138 -0.00551608)
(1.31386 -0.781779 0.0447596)
(0.929138 0.926507 -0.000432235)
(2.33889 -0.000340544 -0.000738148)
(2.61373 0.00168979 0.00118099)
(0.920981 -0.91884 -0.00124192)
(2.60825 0.00599698 -0.00560559)
(2.57672 0.399064 -0.0538767)
(2.53419 -0.0143782 -0.0239833)
(2.78884 0.0915941 0.00500853)
(2.61376 -0.000138319 8.85749e-05)
(0.928246 0.921575 0.000997073)
(2.59902 -0.0104919 -0.0114047)
(2.72425 -0.00251323 0.0031165)
(2.52905 -0.0136858 -0.0237905)
(0.921715 -0.918941 -0.00194178)
(2.77257 0.724971 0.192619)
(2.61606 0.000141915 -0.00125324)
(1.24656 0.987968 -0.0592159)
(2.61495 -0.003314 -0.00109828)
(2.74913 0.0178708 -0.0205935)
(2.66137 0.0385741 0.00792029)
(2.61247 0.000974281 -0.00163522)
(2.6156 0.00617354 -0.00265294)
(2.77145 0.0237775 -0.0104497)
(2.61362 0.000438986 -0.0041773)
(2.61195 -0.00151394 0.00174777)
(0.921823 0.923307 0.00429691)
(0.926396 0.918198 0.00149764)
(2.61365 0.000869697 -0.00576476)
(2.6142 -0.000990567 -3.99221e-05)
(0.925383 0.927393 -0.00136029)
(2.6147 0.00192606 -0.00167579)
(2.64694 -0.000766269 0.00315793)
(2.61066 -0.00085727 9.26574e-05)
(0.932585 0.921103 -0.000988092)
(2.64681 0.0323099 0.0160148)
(0.927144 0.926246 -0.000283842)
(2.61188 -0.00246667 0.0050038)
(2.61165 0.00146254 0.00138266)
(0.927302 0.92626 -0.00111356)
(2.5916 0.0115747 -0.0219307)
(2.60625 0.0014022 0.00442543)
(2.6382 0.035108 0.00848755)
(2.62136 -0.00753327 0.00514881)
(0.947923 0.929644 -0.00043176)
(2.61393 0.00158065 0.000846805)
(2.65189 0.0452577 0.00546974)
(2.77977 -0.0733046 0.0150497)
(2.38394 0.0224901 0.013573)
(2.24105 0.00182977 -0.0181817)
(0.929681 0.920805 -0.00133981)
(0.926838 0.926218 0.00365666)
(2.61576 0.0172317 0.00171376)
(0.926018 0.928296 0.000145224)
(2.51913 0.00427473 -0.0153303)
(2.58381 -0.00293808 -0.0100745)
(1.57635 0.197654 -0.0417197)
(2.88575 -0.187838 0.0650935)
(2.54826 -0.117437 0.0303349)
(2.83621 -0.108967 0.0234974)
(0.926187 0.928836 0.000468835)
(1.26144 1.06924 0.00936709)
(2.61288 -0.000374919 -0.00466317)
(0.917454 -0.919955 -0.00424827)
(0.520809 -0.360781 0.156505)
(2.63275 -0.0281884 -0.0213222)
(0.92817 0.925404 -0.00240647)
(0.927885 0.925379 -0.000709177)
(2.38485 -0.050176 -0.00641463)
(1.95595 -0.121464 0.031701)
(0.925678 0.92652 0.00163341)
(2.42519 -0.0429635 0.00121757)
(0.925783 0.925075 0.0027436)
(0.926665 0.928949 -0.002569)
(0.921221 -0.924208 0.000798399)
(0.92244 -0.919705 0.00136683)
(0.907037 -0.899887 1.80292e-05)
(0.922188 -0.919781 0.000220475)
(2.48179 0.009293 -0.0043753)
(0.926233 0.921213 0.000451799)
(0.927797 0.927132 0.000728878)
(0.921001 0.927856 0.00138814)
(2.24314 -0.504808 -0.135854)
(2.52601 -0.0172258 -0.039355)
(2.60682 0.00066319 -0.00134708)
(2.61266 -0.00285463 -0.00285435)
(0.923626 0.917547 -0.000925077)
(0.932238 0.924312 -0.00112285)
(2.55197 -0.0324274 -0.0378753)
(0.926614 0.926946 -0.00205592)
(0.928453 0.924288 -0.00151642)
(1.49399 0.842779 0.0321479)
(2.71107 -0.0215636 0.000799777)
(2.61115 0.00187339 2.34349e-05)
(0.926678 0.925948 -0.000193582)
(0.92986 0.924932 0.00321425)
(0.925318 0.92188 -0.000445776)
(0.92884 0.925545 0.000193921)
(0.930444 0.9281 0.000907187)
(0.928052 0.927881 -0.000165561)
(2.64956 -0.0435924 -0.0268209)
(0.927817 0.924015 -0.000913539)
(1.89456 0.026935 0.0584342)
(2.61432 -8.7355e-05 0.000756)
(0.927064 0.92913 -0.000307672)
(0.917564 -0.921039 0.000225615)
(0.910148 -0.900845 -0.000235406)
(2.28053 0.0275634 0.118219)
(0.905538 -0.906506 -0.00329792)
(0.919694 -0.920952 -0.00140105)
(0.923807 0.923528 -0.007058)
(2.44954 -0.0347175 -0.00523001)
(0.925509 0.927248 -0.000727363)
(2.64266 -0.0200534 -0.0130599)
(2.27739 0.0240893 -0.00488775)
(1.80748 0.0014362 0.0679021)
(0.924093 0.92621 1.40792e-05)
(1.83797 -0.488517 0.0433014)
(2.66748 -0.00230914 0.00728729)