/*--------------------------------*- C++ -*----------------------------------*\
  =========                 |
  \\      /  F ield         | OpenFOAM: The Open Source CFD Toolbox
   \\    /   O peration     | Website:  https://openfoam.org
    \\  /    A nd           | Version:  10
     \\/     M anipulation  |
\*---------------------------------------------------------------------------*/
FoamFile
{
    format      ascii;
    class       surfaceScalarField;
    location    "7.7";
    object      phi;
}
// * * * * * * * * * * * * * * * * * * * * * * * * * * * * * * * * * * * * * //

dimensions      [0 3 -1 0 0 0 0];

internalField   nonuniform List<scalar> 
214403
(
-0.006778
0.00519741
0.00028675
0.00129384
-0.00335853
-0.0112922
0.000961626
0.0136891
-0.0103083
6.89482e-05
-0.000140646
0.01038
0.00892094
-0.00599838
-0.0149526
0.0120301
0.012362
-0.0156315
0.00372391
-0.000454416
-0.0054213
0.00564648
-5.48375e-05
-0.000170342
-0.000857609
-0.00163049
-0.00928262
0.0117707
-0.0171156
0.00973773
-0.00257138
0.0099492
-0.0234411
0.0165458
0.0167025
-0.00980717
0.0142925
0.00169632
-0.0159698
-1.90285e-05
0.0050682
-0.0100398
0.00206485
0.0029067
-0.0104079
0.00327532
0.00539293
0.00173969
0.000479704
-0.0115152
0.0138677
-0.00283214
-0.010013
0.0100807
-6.77058e-05
0.00193118
0.0120071
-0.0153908
0.00145254
-0.0121312
0.0101433
0.00307409
-0.0010862
-0.0122016
0.0119058
0.000295742
0.00395119
-8.76823e-06
-0.00101087
-0.00293156
0.0157859
-0.00944798
-0.0209893
0.0146514
-7.62147e-05
-0.00312399
9.15956e-05
0.00310861
0.00644346
-0.00629228
-0.000151175
-0.0124438
-0.00430484
0.00428041
0.0124683
-0.0023005
0.0137284
-0.0110649
-0.00036296
0.00677144
0.000712965
0.00236322
-0.00984763
-0.0103104
-0.00495048
0.0133464
0.00191454
0.00925444
-0.0117225
6.93062e-05
0.00239873
0.00325012
-0.002845
0.0106441
-0.0110492
0.00768499
0.010053
-0.0121092
-0.00562878
0.0112511
-0.00705711
-0.000320277
-0.0038737
-0.005901
0.0060153
-0.000114293
0.00245441
-0.00511148
0.0136289
-0.0109719
0.0142293
0.000674296
-0.00248395
-0.0124197
-0.00566046
-0.00580904
0.00594905
0.00552045
-0.00120879
-0.00681848
0.00604025
0.00198702
0.00445564
-0.00309072
-0.00949381
0.0081289
-0.00172552
0.00860778
-0.00310976
-0.0037725
0.0161364
-0.000392155
-0.0157443
-0.00694745
0.01355
-0.00660252
0.00125201
-0.014872
0.00861075
0.00500924
0.00247322
-0.000994118
0.00605332
-0.00753242
0.00575461
-6.08033e-05
-0.0056938
0.0103142
-0.000222235
0.00182911
-0.0119211
-0.0130835
0.001643
0.0139137
0.000867212
0.000890973
0.00868387
-0.0104421
-0.00414008
-0.0270662
0.0262472
0.00495913
0.00574157
0.00103664
0.0012978
-0.00807601
0.00426976
0.00323065
-0.0104299
0.00292948
0.0134574
0.00806616
-0.0147521
0.00121722
0.0114157
-0.00231868
0.00183257
-0.00685869
-0.00403904
0.00906517
0.00312171
0.00479827
0.00142709
-0.00934707
0.00186719
-0.00140187
-0.00432032
0.003855
0.00691129
-0.0125093
0.00871973
0.0119863
-0.0112847
-0.00387188
0.00317029
0.0107014
-0.00195751
-0.00865755
0.0117386
-0.000499012
-0.002582
0.00891638
-0.0114005
0.000130841
0.00235331
-0.00835907
0.000552277
0.0133579
-0.0055511
-0.0154372
-0.0145058
0.0121828
0.0177602
-0.00825598
0.00830608
0.00163411
-0.00168421
0.00130226
-0.0105524
-0.00862587
-0.000179566
0.00448392
0.00432152
-0.0135102
0.00580127
0.00874096
-0.00103202
0.0158459
-0.0127666
0.00082036
-0.00389965
0.000728944
0.000265225
-0.010449
0.00945479
0.000523066
-0.002871
0.0141974
-0.0118495
-0.0350651
0.00364314
0.00389721
0.0275248
-0.00323739
0.00953462
-0.00302305
-0.00327418
0.00468449
-0.00246685
-0.00999449
0.00777685
0.00112336
0.00698171
-0.0088758
0.000770733
-0.000173717
0.00856536
0.00297899
-0.0113706
-0.00170033
-0.000269444
-0.003541
0.00551078
-0.00906478
0.00990882
-0.000376831
-0.000467215
0.000317314
-0.00914304
-0.00640346
0.00567172
0.00172164
-0.000989898
-0.0170446
-0.00107623
0.00831883
0.00980203
-0.00516296
-0.00220033
0.00439272
0.00297056
0.00757788
-0.0254145
0.00352373
0.0143129
-0.00396589
0.00798163
-0.00435899
0.000343255
0.00569489
-0.00442076
0.000563677
-0.00183781
0.000128321
-0.010684
0.0105557
3.27121e-05
0.00867446
-0.00870717
0.00766004
-0.00149906
0.0010157
-0.00717668
-0.00457467
0.00652711
0.00216335
-0.00411579
-0.00323153
0.0137657
-0.00330822
-0.00722599
0.00649793
-0.0110724
-0.000422688
0.00499719
0.00743424
0.00786632
-0.0153006
0.0109663
-0.0123239
0.00315789
-0.00180031
0.00106512
-0.00197848
0.0143171
-0.0134038
0.000411303
-0.00231567
0.010312
-0.00840764
0.00244641
0.0215772
0.0062173
-0.0302409
-0.0188708
0.0166012
0.0107627
-0.00849314
0.000866963
0.00664716
-0.00893782
0.0014237
0.00879426
0.00977745
-0.00320177
-0.0153699
0.016359
-0.00993765
-0.000327553
-0.00609384
0.00071369
-0.00209227
-0.00656941
0.00794799
-0.00664867
3.77779e-05
0.00661089
0.00993785
0.000343464
0.000685017
0.0123544
0.00104141
-0.0187773
0.00538147
-0.00990174
0.00218671
0.00175942
0.00595561
-0.00627413
0.00155572
0.000771532
0.00394689
0.00154106
0.00110178
-0.0130676
0.0104248
-0.00268249
-0.0156116
0.00995328
0.00834079
0.00624927
-0.00739263
-0.00481749
0.00596085
0.010102
-0.000109964
-0.0101018
0.000109776
0.00774583
-0.0109464
-0.00380082
0.00700136
0.0200433
-0.00606465
-0.00312364
-0.010855
0.0113535
-1.89128e-05
-0.0104433
-0.000891214
-0.00571848
0.0067348
0.014036
-0.0150523
0.0122635
-0.00430762
-0.0117934
0.00383753
0.00225871
-0.00329787
0.0143508
-0.0133116
-0.0162104
0.0147748
0.0140056
-0.0125701
0.000729979
-0.0126213
0.00487129
0.00702002
0.0157947
-0.000837478
-0.000321167
-0.0146361
0.0111213
-0.00216757
0.00215079
-0.0111045
-0.0129039
-0.0117343
0.0138884
0.0107497
-0.00244618
0.0070164
0.00190186
-0.00647207
-0.00552538
0.000301169
0.0107093
-0.00548514
-0.00123126
0.0138688
-0.0129085
0.000271014
-0.0119416
0.0110905
0.00215933
-0.00130823
-0.000400887
-0.00696902
0.0166243
0.00221026
-0.00736642
-0.00538203
0.0105382
-0.00584841
7.69521e-05
0.00577146
0.00179296
0.00815319
-0.00754202
-0.00240413
0.0129893
-0.0074893
-0.00198999
-0.00351005
9.0655e-05
-0.00382
0.00372935
-0.00732908
-0.00197489
0.00275271
0.00655127
0.000753809
0.00415106
-0.00931452
0.00440965
0.0158772
-0.00143353
0.00620551
-0.0206492
0.0011396
-0.00140171
-0.0192736
0.0195357
0.00124327
-0.00551149
-0.00728876
0.011557
0.000466561
0.0100307
-0.000559395
4.02574e-05
-0.00589343
0.00585318
0.0122257
-0.00453377
-0.00548171
-0.00741351
0.00619169
-0.00610726
0.0134868
-0.0112245
-0.00135955
-0.000902739
0.00135261
-0.00639661
0.00279666
0.00224734
-0.0110092
-0.00333315
0.00223749
0.0121049
0.00916075
-0.0148858
0.0098077
-0.00408268
-0.000408464
0.0134424
-0.0134615
0.000427626
-4.34231e-05
0.0122417
-0.0121292
-6.90098e-05
-0.0171087
0.0136537
-0.0109598
0.0144148
0.014273
-0.013813
-0.000460033
-0.0130757
0.0175142
-0.00320243
-0.00123605
-0.011685
0.00280968
-0.000879989
0.00975535
-0.0192677
0.00148471
0.0123883
0.00539471
0.00342543
-0.00467786
0.00260503
-0.00471182
0.00535728
0.00861856
-0.00926402
-0.00512811
-0.0023014
0.00293465
0.00449486
-0.00693659
0.00453895
-0.00876855
0.0111662
0.0020881
0.000167804
-0.0153316
-0.00682826
0.00681405
1.42132e-05
0.00747612
-0.00718657
-0.000289551
-0.011288
-0.000738062
-0.00300427
0.00278547
-0.0148559
0.0173018
-0.00523134
0.006692
0.011516
-0.0146449
-0.0035631
0.0127848
-0.0138862
0.00037281
0.00072861
0.00680938
0.00177004
-0.00703877
-0.00154065
-0.0107634
-0.000598942
0.0141478
0.00618671
-0.000447297
-0.00754187
0.00180245
0.00697137
-0.00596906
0.006876
-0.00787832
-0.0121731
0.00228628
0.0165789
-0.00411114
-0.00576885
0.0190466
-0.00916657
-0.00587078
-0.0064644
0.00157181
0.00175127
0.00464021
-0.0122623
-0.00830052
-0.000731833
0.0133378
-0.00430548
0.00129405
0.00204114
0.00741836
-0.0107535
-0.00395657
0.00968524
-0.00572867
0.00313804
-0.0150265
0.00542407
0.0089524
0.00625383
-0.013455
-0.0126688
0.000152434
0.0157868
-0.00327039
0.00213791
0.00183165
0.00572495
-0.00969452
0.00850751
-0.0085729
6.53935e-05
0.00320699
-0.00121079
0.0107654
-0.0127616
0.0112742
-0.00357446
0.00542123
-0.0131209
0.0207173
-0.00666113
0.0154603
-0.0295165
0.00339255
0.00631209
-0.0026221
-0.00708254
-0.00936173
0.00385231
0.00490959
0.000599836
0.00670953
-0.00505462
-0.000137646
-0.00151726
-0.00435964
-0.00552875
0.0160992
-0.00621085
-0.00751987
0.00975368
0.00389589
-0.0061297
0.011316
-0.000618831
-0.00372576
-0.0176071
0.0116374
-0.0009669
-0.0167911
0.0154917
0.00719418
-0.00589469
0.0107105
-0.0120709
-0.00174167
0.00310206
0.00604655
-0.0109242
-0.00572235
-0.00623083
-0.00571778
0.00323125
0.00871736
-0.00889564
0.00276207
0.00877983
-0.00264626
0.0102767
-0.00977663
-0.00673109
0.00623107
6.41657e-05
-8.92585e-05
-0.00963207
0.00965716
0.000232246
-0.00846734
-0.000321682
0.00855677
-0.00243531
-0.0144463
0.00226842
-0.0083494
0.00751049
-0.00142952
-0.00568877
-0.00239705
-0.00080982
-0.000193519
0.0142832
0.000202823
-0.0340876
0.0239792
0.0173306
-0.00722211
-0.0100718
0.000684947
0.000365769
0.00902107
-0.00200544
0.03192
-0.0375583
0.00764378
0.00159101
0.00245404
-0.00550699
0.00146193
-0.0215643
0.011621
0.00150221
0.00844114
-0.000255453
-0.0143205
-0.00203724
0.0166132
-0.00597329
0.021578
-0.0149362
-0.000668442
0.0096852
0.0140795
-0.0130136
-0.0107511
-0.0115591
0.0110094
0.013673
-0.0131232
0.0044762
0.00625484
-0.00779086
-0.00294018
0.0044611
-0.00300909
-0.00714078
-0.0229656
-0.000903033
0.018763
0.00510569
0.00673844
0.0010299
-0.00391603
0.00692811
0.00927449
-0.00856346
-0.00763914
-0.0114652
0.00255375
0.0111847
-0.00227325
0.00136447
0.00360028
0.0125495
-0.0133088
0.0131421
0.00127386
-0.00110718
0.00821857
0.0064447
-0.00580872
-0.000230081
-0.0016343
0.0076731
-0.00879736
-0.00174935
0.00489554
-0.0169682
0.00721535
0.0048573
0.000516773
0.00915082
-0.0101542
0.000486579
-0.00352647
0.000682066
-0.00327899
0.00612339
0.0141597
-0.0101203
0.000421683
-0.00802003
-0.00627406
0.00843969
0.00585439
0.0303143
-0.0324286
0.0105919
-0.00847757
-0.00581362
0.00722379
0.00290992
-0.00432009
-0.0132956
0.00577996
0.011592
-0.00407642
-0.00576609
0.0083703
0.010766
-0.0133702
0.0161763
-0.00625653
-0.0107091
0.000789326
0.000281609
-0.00393393
0.00957001
-0.00591769
-0.00166353
0.00164997
-0.0126553
0.0116115
0.00377509
-0.0124309
-0.00295574
0.0145836
-0.0119628
-0.0032198
0.00306692
0.00453788
-0.01073
0.00312517
-0.00598664
-0.0109805
0.00975238
0.00721475
-0.00182956
-0.00474992
-0.00144056
0.00595854
-0.00636673
0.0137194
-0.0133112
0.00144362
-0.0166159
0.0151723
0.00565849
-0.00740168
0.0048101
0.00306616
0.00177037
0.00251451
-0.00735104
-0.000310448
-0.0138384
0.0141488
-0.00754571
0.00100234
-0.0024485
0.00899187
-0.000905425
0.0104784
-0.0095508
-2.22193e-05
-0.00711647
-0.00376656
0.00410923
0.00677381
-0.00265343
-0.00629259
-0.00584436
-0.0085907
0.00716532
0.00726973
0.000315471
-0.00881326
0.0152057
-0.00625221
-0.000809473
-0.00814404
0.00805888
-0.000769563
-0.00587972
-0.00140959
-0.00128896
0.0113567
-0.014181
0.00411321
0.00733036
0.000282006
0.0035685
-0.0111809
-0.00026954
-0.00602633
0.00290806
0.00338781
-0.00416993
0.00542632
0.0104888
-0.0117452
-0.0147668
-0.00382745
-0.0041306
0.0136165
-0.0126209
0.000296837
0.00395815
0.00836591
0.00121478
-0.00447624
-0.00797276
0.0112342
-0.0057859
-0.0112942
0.00284984
0.0142303
-0.00528443
-0.00586145
0.00609313
0.00505275
-0.0136666
0.0131546
0.0138814
-0.0133694
-0.00185119
-0.00323093
-0.00973096
0.0148131
-0.0133255
0.00135661
0.013563
-0.00159412
-0.002316
0.00622032
-0.00390432
-0.00539923
0.00998012
-0.0075133
0.00293241
-0.000234622
0.0179407
-0.0066595
-0.0110466
-0.00641863
-0.00310155
0.0128829
-0.00336271
0.00207105
-0.0054318
0.012326
-0.00896526
0.000564091
0.00799891
-0.00140136
-3.70459e-05
-0.013133
0.0131233
4.67304e-05
0.0149632
-0.00264982
-0.0218704
0.00955703
-0.0138186
-0.00135424
0.0172536
-0.00208078
-0.00749988
0.0113308
0.000930208
-0.00476116
0.00668253
-0.0065997
-8.2825e-05
-0.00799536
0.000771313
-0.0068989
0.0141229
-0.0115393
0.0159023
-0.00331624
-0.00104675
0.00719136
-0.00301619
-0.00867141
0.00449624
-0.0138974
0.0140219
-0.000124448
0.011451
-0.0166519
0.0013469
0.003854
-0.0129742
-0.00355175
0.0221869
-0.00566094
0.0095717
-0.000399048
-0.00201053
-0.00716212
-0.00545705
-0.00925406
0.0206697
-0.000973454
-0.0136574
0.00826409
0.0215038
-0.0239903
-0.00227646
0.00476295
0.00574856
0.0027407
-0.00635135
-0.0060205
0.00627803
-0.000257531
-0.00245635
0.0137234
-0.000871376
-0.0103957
-0.00298869
0.00354495
0.0119218
-0.012478
0.00778783
0.0182772
-0.0106942
-0.0153708
0.0133573
-0.016026
0.00509474
-0.0024261
0.0121535
0.000170255
-0.0123238
0.000225363
0.0118283
-0.0120537
0.0133343
-0.0161412
0.0142578
0.000144452
-0.00012234
0.0103751
-0.0103972
0.000274172
0.0189014
-0.0188352
-0.000340367
-0.00161561
-0.00477738
-0.00966886
0.0160618
-0.0059152
-0.0035453
0.00118778
0.0111905
-0.019474
0.00709568
-0.00945282
-0.00247866
0.0101348
0.00179663
-0.0111473
0.0123098
-0.00328828
0.0021258
0.00175885
0.0091636
-0.00311733
-0.00780511
-0.0044471
0.00110623
0.00753957
-0.0041987
-1.28221e-05
0.00340368
-0.00426729
0.000876431
-0.0047535
0.0116244
-0.00670023
-0.000170677
0.00347546
-0.0109666
-0.00640634
7.7433e-05
-0.0102268
0.0101494
-0.00379417
-0.00364071
0.0016885
0.00574638
0.00571932
-0.00329948
-0.00241983
0.0143068
-0.0142083
-0.00289845
0.00279991
-0.00129884
-0.00845131
0.00779332
0.00195684
-3.53024e-05
4.77799e-05
0.00766019
-0.00767267
0.00382116
-0.00314043
-0.0121579
0.0114772
0.00881997
-0.000225644
-0.00859433
-0.012905
-0.00835657
0.0124535
0.008808
0.00756318
0.0118535
-0.0203901
0.00718246
-0.00258468
0.00404383
-0.00864161
-0.00287608
0.00285311
-0.015826
0.015849
0.00448393
-0.00883013
-0.00859302
0.0129392
-0.000906579
-0.0020314
0.00956691
-0.00662894
0.00667157
-0.00819969
0.00297136
-0.00144323
0.00364612
-0.00604368
-0.00584158
0.00823914
-0.011764
0.0132467
-0.00352815
0.00204548
0.0133786
0.0172154
-0.0189568
-0.0116373
-0.01036
0.0103157
4.431e-05
-0.00116126
0.0122419
-0.0152902
0.00420953
0.000475326
-0.000777241
-0.0117595
0.0120615
0.0115752
0.000486118
-0.013319
0.00125772
-0.00493237
-0.00833733
0.0104848
0.00278488
-0.0119191
0.0168873
-0.00597937
0.00101117
-0.00492198
-0.0060142
0.00356976
-0.000731435
-0.000124368
-0.0084703
0.0093261
-0.0276709
0.000109325
0.00248056
0.025081
0.00109543
-0.00703933
-0.00364337
0.00958728
0.0172804
-0.00142017
-0.00559356
-0.0102667
-0.00308107
-0.00665443
0.00129446
0.00844104
0.00485007
-1.86108e-05
-0.00483146
0.00811672
0.00432518
-0.00269222
-0.00974969
0.00628761
-0.00497954
0.0124037
-0.0137117
0.000407842
0.0129015
-0.00426336
-0.00904599
0.00313209
0.00447066
0.00967765
-0.00618671
0.000438258
0.00574845
-0.0080337
0.00113683
0.00213145
0.00134777
-0.0111136
0.00763441
-0.0105076
0.0153751
0.00465679
0.0158854
-0.00336503
-0.0171772
-0.0100875
0.00990661
-0.0156781
0.0158591
-0.00151591
-0.00760189
0.00265904
0.00645875
-0.008381
0.0158152
0.0046962
-0.00546682
0.00122345
-0.00045282
-0.00518061
-0.0165225
0.00517241
0.0165307
0.0108564
-0.0108347
-9.79086e-05
7.62229e-05
0.008777
-0.0102466
0.00218487
-0.000715322
0.00225278
0.00881289
-0.0156996
0.0046339
3.76255e-05
0.00757632
-0.00761394
0.00490918
-0.0125815
0.00992515
-0.00474556
0.0127419
0.0107327
-0.018729
0.00362379
-0.00368726
-0.0171521
0.0172155
-0.0051692
0.00856393
-0.017178
0.0137833
-0.0123142
0.00980495
0.0128568
-0.0103475
-0.00772388
0.010582
-0.00683697
0.00397885
-0.00162421
0.00707647
0.00115131
-0.00660357
0.0035962
-0.00524346
0.00540737
-0.00376011
0.00676665
0.00251773
0.00222567
-0.0115101
0.0192937
-0.0130999
-0.000788446
-0.00540533
-1.01468e-05
-0.00935557
0.00936572
0.00586018
-0.00856888
-0.0262756
0.0289843
-0.00117662
-0.0127375
-0.00386178
0.0177759
-0.000774736
-0.00586744
0.00664218
0.00178532
0.00846764
-0.00133732
-0.00891564
-0.00236714
-0.00854377
0.00689511
0.0040158
0.00659181
-0.00552063
-0.00969705
0.016836
-0.0131034
0.00370088
0.00392121
-0.00762209
0.012704
-0.000324881
-0.00152625
-0.0108529
-0.002438
-0.0041467
0.00658471
0.00454831
0.00302214
0.0254105
-0.0305622
-0.0107947
0.0159464
0.00390675
0.00832303
-0.00636582
-0.00586396
-0.00889701
0.0170306
0.0113217
-0.0194553
0.0100234
0.00347917
-0.00134185
-0.0121607
0.0166048
-0.0110719
0.00714478
-0.0126777
-0.00929088
0.00424814
-0.011646
0.0166887
-0.0151312
0.0271182
-0.0106292
-0.00135776
-0.000400598
-0.00648498
-0.00893787
0.0158234
0.012286
0.00507552
-0.0144172
-0.00294439
0.00657235
-0.0175218
0.0110601
-0.000110667
-0.0154985
-0.000590564
0.0101413
0.00594777
-0.00311087
0.00803911
0.00349738
-0.00842563
-0.001971
0.00790425
0.00635826
-0.0122915
-0.0161444
0.00830495
-0.000786706
0.00862612
0.00148234
-0.00440715
0.00875673
-0.00583193
0.00683961
-0.00344061
0.00244132
-0.00584032
0.00663134
0.00127519
0.000652621
-0.00855915
-0.00981313
0.0105289
0.00389975
-0.00461553
-0.00232005
0.012422
0.00025233
-0.0103543
0.0100209
-0.00588327
-0.00388599
-0.000251656
0.00867781
6.68664e-05
-0.00874468
0.00634371
0.00491188
-0.00111389
-0.0101417
0.00296079
0.00781361
0.00668686
-0.0174613
-1.68699e-05
-0.0140453
0.0140622
-0.00733345
0.0283675
-0.00413389
-0.0169002
-0.000133962
0.0105703
-0.0104363
-0.000707338
-0.00762322
0.00136913
0.00696143
-0.0137934
0.00702717
0.00533637
0.0014299
0.00281491
0.00234174
-0.0161284
0.0109718
0.00824409
0.0130227
-0.00486716
-0.0163996
0.0124052
-0.0042503
-0.0118739
0.00371901
-0.0155099
0.0088442
0.0236403
-0.0169747
-3.90761e-05
0.00592786
-0.00592821
3.94322e-05
-0.00613322
0.00606933
6.38932e-05
-0.0157754
0.000243716
0.0066347
0.00176173
0.0038093
0.010427
-0.015998
0.00823869
-0.00979905
0.00632005
-0.0047597
-0.00786219
0.00688576
-0.000261164
0.00123759
-0.00164894
-0.0129539
0.0165858
-0.001983
-0.00579009
0.00278816
0.00916757
-0.00616564
0.0100535
-0.00387541
0.00148349
-0.00766159
-0.0066883
-0.001166
0.00782953
2.47655e-05
-0.00114564
-6.13727e-05
0.010882
-0.00967494
0.00138961
-0.00116773
0.010918
-0.0111399
-0.0098209
0.0137262
-0.0143822
0.0104769
6.68514e-05
-0.0123799
0.012313
-0.00440772
0.000386677
0.0111124
-0.00709135
-0.00846999
0.00990229
-0.0135044
0.0120721
-0.00867974
0.000657797
0.00263991
-0.0040143
0.0108765
0.000604391
-0.00746661
-0.00290363
0.000404675
-0.00491456
-0.00428101
-0.0139068
0.0139701
0.00421769
-0.00619461
-0.00072606
-0.00155629
0.00847696
-0.0212308
0.00717633
0.00209208
0.0119624
-0.00672579
0.0153933
-0.00764778
-0.00101973
0.00469685
0.00184267
-0.00944315
0.00925108
0.00943378
-0.0186849
0.00125187
0.0202597
-0.00468672
-0.0168249
-0.000257364
-0.000359492
-0.00893377
0.00955063
-0.00973739
0.0160417
-0.0064665
0.00016223
0.00924457
-0.00583817
-0.00837836
0.00497196
0.00230316
-0.00030885
0.00281929
0.0142036
0.00397022
-0.0205502
0.00237631
-0.00983666
-0.00128369
0.00322595
0.00789441
0.0037303
-0.00413644
-0.00560807
0.0171181
-0.0115146
0.00894652
-0.01455
-0.00189343
0.0110515
-0.019114
0.00995598
0.00664183
-0.00839339
-0.000850622
0.00260218
-0.00735273
-0.00255919
-0.00024837
0.0101603
-0.00547714
-0.0051796
0.0106567
0.00137599
-0.0146954
0.0130333
0.000286141
0.00563699
-0.00543541
-0.00567871
-0.00919124
0.0116668
-0.00222521
-0.000250316
0.0131602
0.00361851
-0.0141783
-0.00260037
-0.00508736
-0.00743465
-0.000851501
0.0133735
0.00833419
-0.00253577
0.00966424
-0.0154627
-0.00929812
-0.000522776
-0.0111419
0.00596231
0.00143611
-0.0124944
0.00399775
0.00706057
0.00362717
-0.0129875
0.00715343
0.00220692
0.00194075
0.000510278
-0.00973821
0.00728719
0.0014923
0.00638342
-0.000430095
0.0109314
-0.00216004
-0.00834129
-0.00429057
-0.000437602
-0.00401098
0.00873916
-0.00253778
-0.00341837
0.00653606
-0.000579912
-0.0101658
-0.00014458
-0.017195
0.00617297
0.00905106
0.0244345
-0.000198874
0.00333087
-0.0275665
-0.010686
0.016605
0.00336598
-0.00928493
-0.00304649
0.00167017
0.0105195
-0.00914318
0.00127679
0.00362419
-0.00280388
-0.0020971
-0.0183772
-0.00379174
0.0158604
0.00630845
0.000401429
0.00774422
-0.00155384
0.000236941
0.00390854
-0.0122642
0.00811877
-0.0075998
-2.68806e-05
0.00280243
0.00482425
-0.0103844
0.0128333
-0.00204743
0.00585998
-0.00528413
-0.000575843
-0.00866292
0.00124861
-0.00672933
0.0141436
-0.00390718
0.00587964
-0.0045318
0.00255934
-0.00841053
0.00947134
-0.00391389
0.00285308
0.00379005
-0.00062222
-0.00900516
0.00583733
-0.00376145
0.0235777
-0.0317354
-0.00343797
-0.00239941
0.00234938
0.003488
0.0112238
-0.0175209
-0.000795074
0.00709223
-0.00474799
0.0035432
0.00610591
-0.00490111
-0.00140792
0.00750049
-0.00206834
-0.00402424
-0.00844046
0.00187254
0.00197279
0.00459513
-0.00468822
0.000402888
0.00428534
0.0108557
-0.00516933
-0.00550794
-0.000178464
0.000792542
0.00539963
-0.00819582
0.00200366
-0.00581187
-0.00704557
0.00718425
0.00567319
-0.00300043
0.00774424
-0.00664223
0.00189841
0.00280741
-0.00531472
0.00366313
-0.00115583
0.0101601
0.000275875
-0.010436
0.00874978
-0.0107731
0.00533105
-0.00330775
-0.0137348
-0.000401319
0.0141361
0.00566666
-0.00470079
0.00109596
-0.00206183
-0.000446541
0.00973889
-0.0106293
0.00133698
-0.00489173
0.00612401
0.00157513
-0.00540878
0.0115885
0.0107076
-0.00923886
0.0091586
8.02584e-05
0.000254286
-0.0146046
0.0143503
0.0197277
0.00238473
-0.00420798
-0.0179045
0.00411881
-0.0160737
-0.00199107
0.013946
0.00313618
0.00370816
0.00208367
-0.00892801
-0.00552972
-0.0055369
7.4879e-05
0.0109917
-0.0026376
0.00362633
-0.00651845
-0.012167
0.00219734
0.0159714
-0.00600174
-0.0238791
0.0174877
0.0076972
-0.00130578
0.0105607
9.14381e-05
-0.0106521
-0.00598636
-0.00805443
0.00520957
0.00883122
-0.00602645
-0.00875238
0.00261182
-0.00868215
0.00471337
0.00546108
0.00352278
-0.00458095
-0.00840675
0.00946492
-0.00594539
3.96485e-06
0.00594142
-0.0138394
0.00562554
0.00571385
0.00250003
0.00350301
-0.00936085
-0.0028243
0.011892
-0.00377157
-0.000300321
-0.00782007
-0.0079783
0.0132204
0.00784739
-0.0130895
-0.00233902
-0.00491256
0.00180496
0.00544661
-0.00337348
-0.0027133
0.00608678
-0.00587185
-0.0123425
-0.00566474
0.00275225
3.5446e-05
0.00555323
-0.00834092
0.0113027
-0.00823193
-0.0119035
0.00883273
-0.00419326
0.00149458
0.00847354
-0.00577485
0.00796672
-0.0056085
-0.000789845
-0.00156838
-0.0091354
0.00148298
0.00713575
0.000516661
-0.00566061
0.0130058
-0.0140876
0.00549269
0.000407419
0.00818752
0.0132046
-0.0105441
-0.00831055
0.00565013
-0.0104928
0.00218499
0.0196106
-0.0102134
-0.00673395
0.0109925
0.00595483
-0.00119317
0.0106383
-0.00403559
-0.0054095
0.000603317
-0.00624488
-0.00411872
0.00976029
0.0121112
-0.00798982
-0.000491414
-0.00362993
0.00373604
0.00279096
-0.0091646
-0.00254588
0.00288248
0.00710857
-0.00744517
-0.00210764
0.0110155
-0.0135775
0.00466969
-0.00659326
0.00159015
0.00159595
0.00340716
-0.014483
0.0147327
-0.000249705
0.00996413
-0.00982076
-0.000143366
0.00400923
-0.0154872
-0.00594636
0.0174244
0.00355437
0.00676104
0.00157654
-0.00017076
0.00591964
-0.00574888
0.00945839
0.0084774
-0.0179358
-0.0105367
0.0064324
0.00454668
-0.000442375
-0.00591744
0.00195002
0.00481088
-0.000843449
-0.0176627
0.00824304
0.00968788
-0.000268224
-0.00573508
-0.00639444
0.00618413
0.00906033
-0.00142634
-0.00584005
-0.00179394
-0.00977579
0.0105598
-0.0064446
0.00172374
-0.0109387
-0.000559391
0.00977437
-1.243e-05
-0.0053578
0.00537023
0.0264089
0.000211971
0.00280714
-0.029428
-0.000990516
-0.00193859
-0.0142813
0.0172104
0.00458723
-0.00621087
-0.00289573
0.00451937
0.0017782
0.0136565
-0.0055236
-0.00991106
0.0148987
-0.0149073
-3.5516e-05
4.41402e-05
-0.00835698
-0.00754068
0.0117861
0.00411159
0.00487947
0.00373532
-0.00972595
0.00111116
6.93585e-05
0.00904334
-0.00924209
0.00012939
-0.0124501
0.00398686
0.0100901
-0.0016269
0.00958056
0.00579199
-0.00969911
-0.00567344
0.000226672
-0.00851429
0.0043282
-0.0022182
0.0127887
-0.0068988
-0.000898348
-0.00107672
0.00887387
-0.0114834
0.000603447
0.01088
0.0168261
0.0072708
-0.00545398
-0.0186429
-0.0109874
0.000236658
0.0109774
-0.00100764
-0.00262351
-0.00669854
0.0103297
-0.00133113
-0.00131924
-0.00353964
0.00619001
0.00276954
-0.0140492
0.0105924
0.000687269
0.0087215
-0.00136115
-0.00848596
0.00112561
-0.0108113
0.00226635
0.000881773
0.0076632
-0.00410728
0.00268761
-0.00554369
0.00696335
0.00236572
0.00149824
-0.0139266
0.0100626
0.000486956
-0.00943583
-0.000657526
0.0096064
0.00936262
0.00122518
-0.000158219
-0.0104296
-0.0111715
0.00260318
0.0101093
-0.00802113
-0.0106512
0.0186723
0.0154856
-0.00789336
0.0033306
-0.0109228
0.00121635
0.00870607
-0.00533519
-0.0125122
0.0023054
0.00443172
0.00577508
0.0154411
-0.0159011
0.000460034
-0.00932559
-0.00316626
0.00652766
0.00596419
-0.0121148
-0.00941119
0.00630882
0.0152172
0.0126544
-0.0132164
-0.00161722
0.00217919
-0.00184016
0.00614145
-0.0048405
0.000539212
-0.0158225
0.0051568
0.00363764
0.00702803
-0.0232781
0.0289871
0.00479298
-0.0105019
0.0103849
-0.0225204
-0.00115247
0.013288
-0.00924513
0.0117441
-0.0217631
0.0192641
-0.0097162
0.0214105
0.00212629
-0.0138206
0.000853434
0.0101448
-0.00236625
-0.00863199
0.0154224
-0.0115673
-0.000388875
-0.00346618
-0.00271314
-0.00260593
0.00398221
0.00133686
-0.00731629
-0.0152107
0.0129628
0.00956422
-0.0103441
0.0137793
0.0119872
0.00838901
-0.0061672
-0.00768551
0.0054637
0.00311358
-0.00402892
-0.0017795
0.00269483
0.00688896
-0.00681225
-0.00907956
0.00900285
-0.00279415
0.00801554
-0.000579928
-0.00464146
-0.0110874
-0.00176644
0.0137072
-0.00837517
-0.00205937
0.0103542
8.03632e-05
0.00341207
-0.00762303
0.00421096
0.00272646
-0.00362203
0.0134965
-0.0126009
0.0105256
-0.0148003
0.00214246
0.00213224
0.0067086
-0.00723858
0.00052998
-0.010627
0.000282885
0.0095221
-0.00362626
-0.0091869
0.00329106
0.0029853
0.00242291
0.0106245
-0.0160327
0.00654071
-0.00710175
0.000561041
-8.13893e-05
0.00827721
-0.00935746
0.00116164
-0.0116764
-0.00112628
0.0155292
-0.00504742
-0.000862713
0.00116611
0.00474402
0.000697299
-0.00576241
0.00425054
0.000814573
0.00943622
-0.00903191
-0.00224446
0.001081
0.015561
-0.00980057
-0.00684145
-0.0053621
0.011337
-0.0059749
-0.0145011
0.00555302
-0.00340307
0.0123511
0.0114242
-0.01035
-0.0168967
-0.00554461
-0.00663499
0.0228031
-0.0106235
-0.0163195
0.0103909
0.0148132
-0.00888457
-0.000365519
-0.0139213
0.0142869
0.022091
4.48582e-05
-0.012728
-0.00940786
0.0128027
-0.00824592
-0.0011383
-0.00341846
-0.00934159
0.00663123
-0.00167646
0.00438682
0.000127381
-0.00958168
0.0094543
-0.00703407
0.00724011
-0.000206038
-0.00509575
-0.00538497
-0.0138007
0.0242814
-0.0129977
0.00283546
-0.00145391
0.0116162
0.0030076
0.00488067
0.0133319
-0.0120308
-0.00994953
0.00864849
-0.00370436
-0.00763538
0.00842399
0.00291575
-0.00769442
-0.00391344
0.0116187
-1.08362e-05
0.00251321
-0.00144715
-0.00711561
0.00604956
0.00849355
0.000375985
-0.0108559
0.00198637
0.00261987
-0.00182074
0.00280601
-0.00338526
0.00337271
-0.00279347
0.0069423
0.00680012
-0.00694303
-0.00679939
0.00341415
0.00797252
-0.00824942
-0.00313725
0.00725108
0.00314386
-0.00569808
0.00897293
-0.0108806
0.00228363
-0.0119236
0.00833584
0.00448762
-0.000899836
0.0141854
-0.0046965
-0.014851
-0.00377043
0.0101144
0.00508025
0.00986578
-0.00480628
-0.00830897
-0.00226348
-0.00135116
-0.0132616
0.0124099
0.00116698
-0.000315326
-0.000824481
0.0165726
-0.00171633
-0.0140318
-0.0107819
0.00219573
0.00481574
-0.00173862
-0.0109792
0.00308514
0.00963269
0.00990245
0.00137251
-2.04652e-05
-0.0112545
-0.0147888
-0.000125664
0.000102897
0.0148115
-0.00380103
0.00416337
-0.0067591
0.00639676
-0.0101857
0.0128836
-0.00133127
-0.00136661
0.0133847
-0.0124989
-0.0110715
-0.00990622
0.00893118
-0.0028362
0.00381124
0.00800925
-0.000360896
-0.00251927
-0.00512909
-0.0149753
0.0144426
0.00707671
-0.00654401
0.00708927
0.00270013
-0.000900235
-0.00888916
0.00256756
0.00650592
-0.00813766
-0.000935812
-0.00481566
0.00484402
-2.83598e-05
-0.00281824
-0.00719634
0.00722042
0.0108313
-0.0107375
-9.37565e-05
-0.0061302
-0.00487788
0.00479721
-0.000638248
-0.00734075
-0.000805234
0.00878423
-0.000830035
-0.00638959
0.00571179
0.00150784
0.0100891
-0.0114676
0.0013785
-0.0128523
0.0131984
0.0120724
-0.0124185
-0.00866344
0.00669136
-0.00455891
0.006531
-0.0034585
0.00147803
0.00313111
-0.00115064
-0.00036646
0.0156437
-0.000135083
-0.0151422
-0.00789314
0.00382669
0.00388689
0.00451557
0.00574677
-0.0100268
-0.000235564
0.000434944
-0.0124552
-0.000489089
-0.011309
0.0113046
4.49607e-06
-0.0075841
0.00381833
-0.00834902
0.00257581
-0.00570027
0.000228721
0.00495203
0.00215027
0.00749327
0.000146127
-0.00640771
-0.00123168
0.00627313
-0.0156518
0.0125489
-0.00317019
0.00259316
-0.00353326
0.0131408
-0.0122007
0.0161027
0.00475101
-0.00247594
-0.0183778
-0.00410281
-0.00672589
-0.00218071
0.0130094
0.00487472
0.0203135
-0.0183436
-0.00684462
0.00234069
0.0147118
-0.014202
-0.00285041
-0.00507208
0.000669307
0.0103956
-0.00599285
-0.00177795
0.0144513
-0.00779867
0.0104497
-0.00825008
-0.00322039
0.0010208
0.00342318
0.00896012
-0.0123833
0.00839083
0.00186186
-0.00111825
-0.00913444
-0.00771528
0.00616554
0.000620374
0.000929363
-0.000752103
-0.010901
0.00063452
0.0110186
-0.0080052
-0.00101647
-0.000336218
0.0093579
0.00461445
-0.0102324
0.000101584
0.00402244
0.00610841
8.73214e-05
0.00664547
-0.00673279
0.000822168
0.0116482
-0.029766
0.0172957
0.00328095
-0.00826717
0.00785455
-0.00286833
0.00470896
0.00537547
-0.00372321
-0.00636122
4.87352e-05
-0.00596212
0.00591339
-0.00322733
-0.00228942
0.0130697
-0.00755293
-0.00398688
0.0133181
-0.011497
0.00216578
0.0146019
-0.0101456
-0.00979898
0.00534267
-0.00600681
0.00406337
0.0018608
8.26426e-05
-0.000805005
0.00459298
-0.00246606
-0.00132192
0.0156776
-0.0122544
0.00729685
-0.000843286
-0.0119444
0.00549081
-0.00333171
0.00311531
0.00373251
-0.00351611
0.000189782
0.0149911
-9.47227e-05
-0.0150861
-0.0109371
-0.0036037
0.0148275
-0.00028666
-0.00310966
-0.00132435
0.00341112
0.00442064
-0.00650741
0.00885098
0.00623768
-0.0132352
-0.00185345
-0.00272448
-0.00177497
-0.0118386
0.016338
0.0155937
-0.012333
-0.0217339
0.0184733
-0.00607366
-4.5155e-05
0.00611882
-0.00735473
-0.00388657
-0.0012268
0.0124681
-0.0162179
0.0123463