/*--------------------------------*- C++ -*----------------------------------*\
  =========                 |
  \\      /  F ield         | OpenFOAM: The Open Source CFD Toolbox
   \\    /   O peration     | Website:  https://openfoam.org
    \\  /    A nd           | Version:  10
     \\/     M anipulation  |
\*---------------------------------------------------------------------------*/
FoamFile
{
    format      ascii;
    class       volScalarField;
    location    "7.7";
    object      SgT;
}
// * * * * * * * * * * * * * * * * * * * * * * * * * * * * * * * * * * * * * //

dimensions      [1 -1 -3 -1 0 0 0];

internalField   nonuniform List<scalar> 
111485
(
2.32666e-17
9.58246e-06
2.85206e-05
3.9457e-19
5.88678e-05
1.72194e-17
5.50795e-05
7.21401e-06
2.28883e-05
1.43688e-06
5.55789e-05
1.12117e-05
5.71543e-06
1.05676e-06
7.81544e-06
3.65599e-05
1.67908e-06
0.0031105
1.24563e-05
6.21634e-18
2.75136e-17
5.7926e-18
3.14368e-05
4.15768e-05
1.05778e-05
2.06537e-18
4.7814e-05
2.17466e-06
1.82073e-05
4.10738e-18
5.49421e-05
2.26328e-05
3.16512e-18
7.4844e-19
8.17165e-06
3.81372e-18
1.32014e-05
4.99028e-06
4.94729e-11
2.82016e-05
7.44589e-19
8.51716e-05
1.89082e-05
1.71522e-06
7.18869e-08
6.09674e-19
3.63476e-05
8.54503e-07
5.6766e-05
5.2232e-18
1.39407e-18
4.06355e-18
1.24258e-17
6.10716e-05
3.39191e-17
5.23865e-05
3.78407e-06
1.16374e-18
2.60278e-08
5.70955e-06
1.91765e-05
1.27478e-17
5.646e-06
0.00011669
5.47449e-19
3.82762e-06
0.000378792
0.000113249
1.30931e-06
7.13335e-06
1.67426e-08
7.66406e-06
1.25684e-17
3.42368e-06
5.33997e-18
8.33992e-07
9.33358e-18
5.01462e-05
2.27063e-17
2.53373e-18
3.65381e-09
4.01279e-05
1.94166e-17
1.35858e-17
1.09842e-05
4.71999e-06
4.9591e-13
3.03429e-05
7.07531e-08
8.75027e-06
3.47175e-07
4.9302e-05
1.40255e-05
7.16723e-08
6.30886e-05
3.92754e-18
3.07421e-18
2.11327e-06
3.05311e-11
1.38575e-06
1.52422e-16
2.17618e-05
1.01694e-17
2.19979e-05
5.59e-06
4.21349e-18
2.99706e-19
9.02268e-06
4.78822e-06
7.83221e-11
6.67165e-06
5.77732e-06
4.42417e-06
3.75599e-06
2.32938e-17
3.98941e-08
9.12221e-18
4.17603e-18
1.52921e-05
6.6212e-19
1.50347e-17
4.342e-18
1.23026e-17
2.18249e-18
1.99954e-06
3.6483e-09
1.59628e-18
1.97482e-06
9.88275e-19
4.14896e-08
1.69201e-06
3.88893e-05
4.57631e-18
1.48041e-17
9.21157e-18
5.82616e-05
5.62856e-18
5.05799e-05
3.01663e-05
3.33599e-06
2.82458e-07
2.39925e-06
2.6793e-05
3.25527e-06
4.78524e-06
1.54757e-05
2.23611e-17
8.85472e-18
1.00953e-17
3.34839e-05
1.88344e-06
1.05947e-17
2.62126e-10
5.74332e-06
5.36374e-10
1.2979e-05
1.95522e-05
1.27709e-05
8.05939e-11
5.49773e-20
2.45757e-18
6.28e-05
2.79585e-05
2.27358e-09
3.85291e-10
6.95985e-06
4.12146e-06
3.5271e-18
5.56626e-09
5.55833e-08
3.57396e-20
5.81399e-19
1.6024e-07
5.35054e-19
6.74432e-06
2.52517e-06
6.88723e-19
8.75077e-18
3.37034e-18
7.73872e-19
7.74764e-18
1.59734e-18
1.7614e-06
8.14774e-06
3.55075e-05
4.97849e-06
8.97629e-06
4.80068e-06
9.3782e-08
2.00743e-18
5.74022e-06
6.68037e-18
2.74938e-18
7.77762e-06
1.2568e-05
3.35933e-05
1.33678e-05
5.96886e-06
1.07548e-18
7.9163e-06
5.92081e-07
5.20345e-08
1.65923e-05
2.78555e-06
4.06343e-17
4.45341e-06
3.11215e-05
3.85342e-17
1.98044e-07
9.24538e-06
2.41645e-06
4.24845e-07
3.97162e-18
9.37389e-18
9.88228e-06
1.25275e-14
0.000144976
1.42902e-17
7.96002e-06
2.43907e-05
0.000144351
5.97528e-19
3.79183e-06
1.6453e-05
1.95535e-16
1.2499e-18
5.94692e-18
0.000182215
3.29782e-10
2.31203e-18
1.36848e-19
1.16104e-05
9.30302e-06
1.82202e-05
1.05607e-18
1.46186e-17
1.63724e-08
1.81351e-17
2.98043e-06
1.10143e-05
1.91354e-05
1.40043e-05
1.1852e-05
7.40943e-18
3.0813e-10
7.41799e-07
4.00188e-18
2.64114e-17
3.6543e-05
2.48235e-05
4.99439e-18
7.57925e-06
1.27385e-05
3.61106e-19
1.57095e-17
1.64407e-07
5.20926e-18
6.50493e-18
5.23073e-08
3.93714e-18
1.79363e-05
1.30556e-05
4.45275e-06
1.6822e-19
1.39451e-05
2.49683e-19
9.00255e-19
2.50163e-18
2.45524e-11
2.75136e-05
7.42878e-06
6.36753e-06
4.38603e-05
1.46948e-05
1.90658e-06
6.68259e-07
3.91233e-05
1.06642e-05
5.61589e-19
6.66903e-18
3.09036e-10
2.68753e-05
2.91226e-05
1.44046e-05
1.65122e-18
8.33941e-06
2.49321e-06
3.61514e-06
4.12392e-09
4.28786e-09
1.61766e-05
2.68867e-06
2.36259e-06
2.21288e-17
7.87342e-07
5.41814e-18
1.82917e-10
4.4975e-16
0.000290285
8.12961e-05
1.44608e-05
1.10281e-17
8.09538e-18
1.06943e-05
1.96904e-06
2.56674e-17
2.46431e-18
6.74685e-18
3.70665e-07
7.01262e-05
4.6724e-06
1.64979e-05
2.2781e-05
4.53662e-18
2.92059e-18
6.3467e-18
4.55578e-06
2.28729e-15
1.21319e-06
0.000221108
3.80984e-10
4.36427e-19
6.28259e-18
1.56027e-18
6.7988e-18
7.14927e-05
1.43647e-05
2.54421e-18
6.23382e-06
1.78279e-18
4.09265e-17
8.27567e-05
6.97501e-06
1.33678e-05
1.1143e-05
2.86513e-18
8.77989e-18
1.31438e-17
1.12073e-05
2.22424e-05
6.14008e-06
2.02091e-18
3.88403e-13
1.92245e-07
2.57e-06
9.53036e-06
4.26686e-08
3.39806e-05
9.33356e-18
4.47175e-05
4.21215e-06
9.27518e-06
2.98339e-05
1.63278e-05
3.81395e-17
7.58982e-18
4.0235e-18
6.19227e-18
3.75986e-05
1.15409e-05
3.98694e-05
8.053e-05
4.22183e-18
2.25144e-05
7.08728e-19
1.17608e-17
1.99317e-05
1.09907e-17
8.93408e-05
2.89031e-18
3.27196e-19
2.77568e-05
9.26811e-19
1.63397e-05
3.33971e-07
1.15568e-17
1.21699e-06
1.95779e-05
1.47986e-18
1.06543e-05
1.11321e-05
9.71541e-06
7.77078e-07
3.25112e-06
6.72918e-06
1.19859e-17
8.02456e-17
2.20298e-06
5.00853e-18
7.33987e-06
0.000141476
1.0529e-18
2.15242e-17
3.23104e-05
1.37931e-07
9.84192e-06
2.57979e-05
1.41312e-17
5.40055e-05
2.29154e-05
4.28924e-19
9.84884e-07
2.94597e-06
8.80164e-18
1.1041e-18
1.32924e-05
6.29383e-06
3.77328e-18
2.70996e-19
3.90229e-11
1.25767e-17
1.43375e-05
3.83537e-18
2.20984e-18
2.04689e-05
2.0621e-09
1.45486e-05
3.57834e-05
4.07727e-18
3.08291e-17
1.75278e-06
1.04464e-18
1.76536e-07
1.67402e-05
0.000147084
0.00101814
4.70764e-18
3.29247e-06
5.91974e-07
1.59683e-17
4.66948e-05
3.80284e-05
1.58023e-19
8.69111e-12
1.10477e-07
3.66067e-18
2.92732e-05
2.91029e-05
1.69013e-05
2.02238e-17
7.97211e-07
2.19144e-05
2.74297e-05
9.84899e-10
4.46715e-18
7.54296e-13
1.34774e-17
1.58009e-08
3.73897e-05
1.50783e-19
1.01944e-05
1.12117e-07
1.09013e-17
5.15518e-19
2.45608e-17
2.38297e-18
4.78275e-06
1.15057e-05
7.90787e-06
2.51815e-06
3.28933e-06
3.69779e-17
2.35596e-06
1.62884e-17
4.86595e-05
3.10569e-18
5.55159e-18
1.62217e-18
4.34392e-05
8.41359e-20
1.48443e-17
2.12052e-10
4.23368e-18
1.41205e-17
1.24996e-06
8.06254e-18
8.28953e-17
3.38759e-18
4.57078e-18
6.17039e-18
7.17389e-18
1.71233e-17
8.51784e-06
1.21838e-17
6.31795e-07
2.26336e-06
1.1293e-06
2.43526e-18
1.00669e-06
1.14656e-17
1.56577e-18
3.38439e-06
2.18447e-06
3.29809e-05
2.99175e-05
4.40703e-18
2.44396e-06
9.80247e-05
1.02203e-05
1.22628e-06
3.96802e-06
9.41129e-18
2.78119e-05
2.18036e-17
5.96234e-06
1.97095e-17
9.12012e-05
2.30305e-18
2.57402e-05
2.92683e-07
6.02805e-10
2.79467e-17
2.44178e-06
1.77704e-18
9.55467e-05
5.85356e-05
2.1938e-18
4.15668e-18
8.49997e-18
3.2005e-18
1.67944e-12
6.51431e-05
1.00512e-18
3.60377e-17
2.95852e-06
4.67255e-18
4.03909e-05
5.27302e-18
3.78736e-07
2.3563e-17
5.91521e-07
1.28242e-09
1.20784e-06
1.5626e-05
2.21947e-17
4.92617e-07
1.99212e-18
6.6904e-19
1.81871e-05
2.25327e-18
3.68953e-08
4.5649e-18
1.91838e-06
2.51668e-17
7.77614e-05
2.81605e-18
9.63448e-18
2.1116e-05
4.05203e-06
2.10038e-06
4.75231e-06
8.20631e-06
2.48492e-05
3.93036e-19
2.98207e-05
7.46e-06
4.24937e-18
9.59318e-11
4.77738e-05
1.80059e-05
1.08828e-18
4.87927e-06
7.92086e-06
2.04136e-06
1.27398e-06
1.69408e-13
1.62876e-05
1.45022e-06
1.60674e-07
2.87901e-05
1.63899e-05
7.62892e-07
3.16282e-18
3.94302e-12
0.000777973
6.3253e-18
4.22255e-07
7.34793e-19
1.61098e-17
8.81007e-06
3.4422e-06
2.58885e-10
1.79997e-08
3.50604e-18
1.98798e-05
1.32792e-05
6.31527e-19
1.59951e-13
2.33888e-06
1.73845e-17
2.66872e-18
1.7802e-18
4.90545e-18
1.58909e-05
2.75253e-18
3.29625e-17
1.05907e-05
2.34544e-06
1.09116e-16
1.26768e-05
1.32551e-17
1.0168e-05
2.44176e-17
1.25793e-17
6.38259e-05
2.8246e-18
9.41861e-20
9.49311e-18
5.28087e-06
1.10364e-17
3.50308e-05
7.49551e-06
7.39993e-19
0.000104718
2.94857e-06
3.40862e-05
3.35651e-05
5.75457e-07
9.48492e-08
8.62831e-20
6.51204e-05
5.55279e-05
1.41662e-17
3.84341e-07
4.77638e-05
9.30656e-06
1.71288e-06
3.27927e-05
3.10792e-05
4.5816e-17
1.28318e-05
6.44876e-09
6.11904e-18
4.1301e-05
3.13327e-07
4.40069e-17
1.30411e-05
4.84268e-05
1.63345e-06
2.53943e-05
2.34019e-05
8.46296e-06
3.80069e-18
1.23691e-05
3.89517e-07
5.31669e-15
2.04084e-05
2.12279e-05
4.30214e-05
1.01595e-17
2.26116e-06
3.63125e-18
1.03112e-18
6.59923e-18
6.77062e-18
1.69991e-08
9.20804e-18
3.19942e-13
1.29278e-17
4.80226e-18
9.11799e-08
5.18564e-05
7.14127e-18
3.8387e-05
3.08196e-17
2.24637e-17
2.72633e-17
4.66369e-05
4.88384e-07
1.1462e-18
1.59903e-18
8.92523e-19
1.55812e-18
0.000252086
8.27924e-05
2.80034e-18
2.34965e-06
2.59049e-09
7.48066e-19
4.4533e-05
9.90429e-06
1.45271e-05
1.32574e-18
1.31395e-17
5.10201e-07
1.2984e-06
3.12093e-18
8.59247e-18
8.97811e-18
8.73052e-06
3.20844e-18
1.84704e-17
1.35616e-17
4.98471e-05
2.39659e-06
1.76865e-18
0.00465832
0.000387328
1.21543e-05
2.25921e-18
5.63088e-18
6.59923e-05
4.90178e-07
2.60343e-18
6.97378e-09
0.000141041
2.96673e-06
1.35024e-05
9.53983e-19
6.37963e-05
2.21264e-06
2.50906e-18
4.99934e-17
1.91905e-18
2.13731e-18
4.83108e-19
3.51562e-18
2.62238e-05
2.4193e-17
8.21974e-18
3.88636e-18
1.37966e-05
2.77522e-05
9.60792e-18
1.004e-17
0.00012704
1.71192e-05
1.13572e-05
1.73317e-17
4.85167e-18
4.43703e-05
4.08857e-18
2.11864e-06
3.09365e-06
4.56926e-06
2.36899e-17
5.08452e-18
1.67603e-18
1.3122e-18
1.80028e-05
1.46712e-18
2.58074e-17
1.19732e-06
6.83573e-18
2.73966e-05
2.20749e-06
1.05259e-18
4.42696e-05
0.000446216
3.02781e-06
3.48078e-05
1.72061e-07
5.33353e-05
1.0093e-13
6.20232e-19
2.80802e-05
8.32877e-05
7.26061e-06
1.73257e-18
7.65517e-13
0.000882622
1.20553e-05
2.04978e-18
3.00223e-06
3.10915e-06
1.43062e-06
3.05217e-17
9.16688e-18
2.6237e-18
1.58025e-05
5.79506e-18
3.07131e-06
3.392e-18
1.53126e-06
1.67284e-06
4.37493e-05
6.57306e-07
1.19574e-17
5.78191e-19
5.60573e-18
2.4626e-05
1.99615e-18
4.69592e-18
8.0038e-08
9.2851e-18
3.65554e-18
1.31507e-18
2.65651e-19
1.19429e-05
4.97236e-18
9.0299e-18
5.82637e-13
1.16754e-18
5.34919e-18
4.38558e-17
2.40875e-17
3.41328e-09
1.91617e-06
2.77689e-18
4.7013e-06
8.18851e-09
3.50723e-10
7.38467e-08
4.88239e-06
6.83334e-18
1.12096e-08
1.1751e-05
4.70349e-07
4.11851e-18
3.96261e-12
1.0083e-06
3.68011e-18
1.15869e-05
2.21182e-07
1.98453e-09
2.82579e-05
1.1123e-05
2.69478e-06
6.0033e-06
2.40104e-06
8.18886e-18
1.28056e-17
3.92519e-05
3.12035e-05
3.55863e-18
9.95962e-06
6.43364e-05
3.39457e-05
9.18809e-18
1.53481e-06
5.67638e-19
1.23444e-05
1.65823e-05
4.44032e-18
1.87904e-06
5.52213e-07
1.43552e-09
5.8632e-06
4.44277e-20
5.83062e-05
1.78377e-08
1.8097e-06
3.88026e-08
1.41726e-08
1.92672e-18
1.24742e-17
8.42701e-06
3.92679e-18
1.39894e-07
3.0392e-07
3.26227e-07
6.28042e-11
8.40831e-11
4.07418e-10
4.50113e-19
1.22988e-17
2.76614e-05
1.76328e-17
1.64505e-07
2.44474e-06
2.81541e-18
5.06792e-18
7.33052e-10
1.09501e-12
6.87418e-18
5.84713e-09
3.50764e-18
1.91424e-18
4.70719e-18
2.60667e-17
5.37246e-17
1.05455e-16
3.33654e-07
1.60914e-18
2.10924e-18
5.71341e-18
7.54412e-09
6.32168e-08
2.16948e-06
1.11807e-05
2.09302e-18
1.38888e-18
2.04425e-07
6.88607e-18
8.21625e-18
1.78674e-16
2.21807e-05
5.05526e-05
1.24558e-17
1.51736e-18
6.98534e-18
2.85767e-17
8.74121e-19
1.14926e-18
8.40215e-06
1.00026e-17
6.17674e-11
3.20087e-05
8.19925e-19
7.02228e-17
2.03365e-17
3.22529e-08
2.52447e-17
1.89795e-18
2.23328e-18
1.08766e-08
8.13559e-18
5.26284e-06
1.1316e-09
8.39655e-12
4.98167e-18
8.74569e-08
2.41852e-06
5.27272e-05
4.11531e-17
9.79431e-09
6.78075e-06
2.58187e-18
5.42155e-19
1.63689e-16
2.29443e-18
1.00164e-05
1.96357e-06
3.94859e-06
2.07015e-10
6.8149e-19
2.62825e-05
7.44423e-18
2.10017e-18
8.25373e-17
2.68107e-18
3.14843e-05
1.90635e-18
4.73777e-17
2.10012e-09
6.11295e-05
6.2648e-17
2.89137e-06
2.14287e-18
1.01123e-06
1.25763e-18
1.94211e-18
2.26114e-17
3.87102e-19
2.93134e-06
7.22116e-07
0.000364625
4.59281e-18
5.4524e-18
2.40747e-06
6.63673e-18
3.63273e-18
1.6672e-17
4.40663e-05
1.10199e-08
3.83968e-05
1.28361e-17
1.22683e-08
5.73653e-08
1.70234e-17
1.45335e-07
3.43672e-18
1.45866e-06
3.04377e-05
2.43157e-05
1.46615e-06
2.8598e-07
1.53338e-18
9.46031e-19
4.46798e-18
2.55667e-08
3.50136e-18
8.78673e-06
1.94911e-18
0.000210487
9.84701e-19
4.9257e-05
3.76029e-06
4.72384e-17
1.835e-19
4.84237e-17
6.16439e-18
4.87576e-05
4.81065e-17
1.69609e-16
1.42048e-05
8.11634e-06
5.40538e-18
5.83356e-18
2.79793e-17
1.30844e-18
2.23168e-17
4.25907e-19
3.05446e-05
5.00672e-07
8.94053e-18
1.73022e-19
6.09706e-10
4.2239e-17
1.89748e-06
1.30054e-07
2.53443e-19
4.1379e-06
1.11515e-18
4.49443e-07
8.77933e-20
1.30459e-06
5.23353e-18
9.04676e-11
2.53274e-09
7.62776e-07
2.14143e-05
4.0269e-05
1.40458e-09
5.28251e-19
5.91162e-07
1.75792e-18
5.44941e-06
6.51353e-19
7.54077e-18
7.12063e-17
1.80955e-17
9.79407e-18
1.96765e-18
8.50495e-06
9.59069e-06
3.21812e-19
1.26568e-17
6.41131e-18
8.96638e-07
1.61896e-08
8.68103e-18
2.1729e-05
2.18687e-07
5.65249e-17
2.78505e-05
9.80726e-06
4.28133e-06
1.38976e-05
2.25059e-18
5.85216e-18
2.88499e-18
4.0585e-18
4.4056e-05
2.4024e-17
0.000135715
2.42842e-19
3.71992e-07
8.71633e-07
3.98694e-18
1.12459e-06
1.32029e-18
2.38327e-18
3.62126e-06
2.66479e-11
1.10797e-05
6.8614e-18
1.86058e-17
3.45644e-18
9.83852e-07
1.55248e-17
5.97304e-18
4.5158e-19
3.48382e-10
1.57729e-18
8.32545e-09
2.38411e-18
4.27919e-18
1.01624e-17
2.1658e-05
1.18112e-05
2.18445e-05
4.30571e-05
1.40926e-17
1.89544e-08
1.59416e-18
1.18533e-17
1.18004e-05
2.52804e-19
2.67169e-09
4.23052e-07
7.88365e-06
4.22883e-07
1.28963e-12
2.29165e-06
2.24751e-18
1.39317e-12
5.48003e-13
1.47459e-07
9.55035e-07
1.76228e-05
7.23179e-11
5.06393e-17
3.64512e-05
9.37735e-18
3.66555e-18
1.72229e-08
8.95628e-05
6.97859e-11
1.17602e-18
1.31182e-17
3.74895e-10
5.37371e-18
4.64308e-19
2.09118e-08
1.04044e-16
1.81761e-17
4.83933e-05
2.62618e-07
2.06673e-07
2.71311e-05
8.68442e-06
3.20374e-18
1.65939e-19
1.98128e-08
4.84811e-06
2.39472e-18
5.2865e-17
1.16103e-05
2.2046e-18
3.91444e-17
6.97131e-19
1.02161e-17
3.00065e-16
0.00308608
1.19676e-17
2.55265e-07
9.59038e-18
2.49235e-05
2.10816e-18
1.38551e-15
1.12831e-17
5.68885e-18
7.52724e-18
1.76543e-17
3.3977e-06
5.98283e-19
1.15194e-17
1.37122e-18
6.88226e-18
4.25391e-18
5.26117e-18
1.16939e-05
2.76573e-18
1.32305e-05
3.63283e-06
1.89079e-18
1.9339e-06
1.00256e-17
5.85143e-07
2.34791e-09
4.58676e-06
1.58054e-05
4.96582e-18
1.08953e-07
9.36689e-06
1.0584e-08
1.52986e-18
3.00286e-09
2.21796e-05
5.65416e-06
8.86457e-19
3.11229e-05
7.78214e-19
3.77827e-18
2.78158e-17
3.84633e-18
9.76008e-06
7.32391e-18
5.14419e-18
9.83636e-06
3.5458e-10
3.22426e-06
6.66143e-19
1.5085e-16
7.95986e-07
6.44841e-18
8.46991e-08
2.77518e-17
2.76793e-05
2.22142e-18
1.3719e-18
6.67641e-08
8.63461e-18
1.62561e-07
4.15986e-17
1.61773e-18
5.77824e-06
5.05098e-07
5.69547e-06
1.85642e-05
0.000263978
2.42755e-05
5.60603e-18
1.7404e-17
3.51393e-06
8.0266e-06
4.35233e-05
1.30241e-05
9.66525e-18
1.44396e-05
2.6939e-18
1.13471e-18
1.07736e-05
1.29561e-05
2.90574e-18
1.56368e-05
3.05145e-18
3.26721e-06
1.04095e-05
1.40405e-17
4.12973e-18
9.02045e-19
3.31624e-06
2.42488e-17
1.68577e-19
4.94682e-06
2.51984e-05
4.30153e-09
8.89123e-06
6.90505e-18
7.39151e-18
9.78551e-08
8.99597e-07
8.18751e-18
1.23264e-05
6.17191e-18
3.1439e-06
1.17823e-17
2.10309e-18
1.46304e-05
1.0942e-18
4.63016e-08
4.27913e-06
3.26622e-18
9.37783e-18
5.21888e-06
6.27561e-14
6.25979e-05
7.73232e-18
0.000309437
6.40655e-18
1.35634e-17
7.68483e-18
8.87692e-06
6.96159e-18
1.03831e-18
6.60544e-06
2.29078e-18
2.85497e-07
3.05067e-18
1.41598e-18
1.24761e-17
1.27948e-10
9.17039e-07
2.4762e-18
3.71182e-18
4.18977e-05
1.11277e-06
1.38513e-18
5.21141e-07
3.91041e-17
1.43444e-17
1.94078e-09
3.14795e-06
1.55042e-06
2.18311e-17
4.64405e-18
1.44443e-18
3.18727e-19
2.74853e-18
1.31637e-17
3.08756e-18
7.25703e-19
9.01428e-19
4.40468e-17
1.28716e-17
1.32791e-18
1.49509e-17
9.74093e-18
2.58588e-18
6.78963e-19
2.59213e-17
1.33405e-17
5.18456e-18
2.02553e-18
1.72358e-18
2.08611e-05
2.18576e-17
3.27729e-17
1.28011e-18
7.82339e-06
4.30856e-18
1.08293e-18
0.000337885
2.44385e-18
2.22562e-19
2.74584e-05
3.00314e-15
1.44708e-18
8.86044e-06
2.90333e-05
1.29833e-18
3.15095e-06
4.73095e-06
1.0983e-17
1.56485e-05
4.67921e-05
2.111e-05
3.97821e-06
1.27003e-05
1.79139e-18
2.81101e-18
3.48231e-06
1.23423e-05
3.77936e-06
1.1217e-17
7.73217e-06
2.06868e-06
2.52202e-05
1.21742e-05
8.16828e-07
1.84327e-05
1.25203e-06
1.19531e-05
5.63223e-18
2.95591e-05
9.97246e-06
1.96098e-06
1.60904e-06
7.86075e-18
3.77246e-18
5.76215e-18
5.10088e-19
6.39576e-18
1.07868e-05
1.60649e-05
3.22901e-18
4.92145e-19
1.46257e-16
2.92433e-19
1.26002e-17
1.78867e-18
2.11682e-18
9.05275e-18
5.38554e-06
2.07671e-07
2.56705e-05
7.86043e-08
1.11605e-18
1.75353e-18
3.66428e-05
8.10374e-09
3.99216e-18
3.54172e-18
8.5645e-06
4.15545e-18
6.08261e-18
4.02435e-09
9.26602e-06
1.59452e-05
3.96752e-05
4.01141e-05
6.32226e-18
1.66391e-05
3.89988e-07
1.18864e-17
1.56307e-17
1.38951e-05
3.86388e-19
1.407e-18
2.0045e-05
0.00123923
2.03782e-07
4.25221e-19
2.12944e-17
2.08962e-05
2.3971e-05
2.0618e-05
6.7641e-06
4.77739e-06
6.42111e-18
1.23196e-09
3.13379e-12
6.9675e-17
3.00444e-18
2.03562e-05
1.57008e-18
2.35437e-06
2.97008e-05
2.06149e-05
1.37147e-05
4.00219e-19
7.09864e-06
2.61151e-18
1.31356e-18
1.18348e-18
1.63949e-18
2.89202e-06
0.00103035
2.67724e-18
1.19387e-18
3.62566e-09
2.71907e-05
1.30354e-06
8.09991e-06
3.85426e-05
5.62329e-06
2.40223e-05
9.36241e-19
3.00787e-17
6.25871e-18
3.53456e-05
6.64826e-06
3.1049e-11
9.073e-18
1.82462e-18
2.05047e-16
2.59793e-05
3.27027e-06
5.4208e-18
5.71769e-06
6.7697e-05
7.86756e-06
7.1651e-06
2.53676e-18
5.70169e-17
8.08529e-06
2.64275e-05
1.83723e-18
3.9133e-07
1.70474e-05
1.16417e-06
1.06983e-05
5.41975e-06
9.40025e-06
1.15114e-16
3.89686e-06
2.4036e-05
4.25301e-05
5.38236e-13
2.65506e-05
1.90009e-16
1.91045e-05
1.84823e-07
9.23306e-20
2.99252e-06
8.74807e-06
4.39101e-07
1.32798e-05
2.51804e-10
1.54904e-07
1.74103e-08
4.68076e-05
4.21619e-06
1.30164e-17
4.48166e-05
1.49869e-06
8.61227e-18
9.92963e-19
4.7404e-11
1.15854e-08
1.19481e-06
0.00127823
4.04675e-05
1.36473e-05
2.42963e-10
5.13701e-05
1.06118e-17
7.0452e-18
4.56666e-06
1.20818e-17
2.45938e-06
4.96751e-06
2.50631e-06
5.34283e-06
1.23085e-18
2.3771e-07
0.000124927
1.10953e-18
2.38674e-05
8.61856e-06
1.26022e-17
4.6237e-06
1.6247e-07
3.17503e-19
8.66943e-12
1.06991e-07
3.74687e-18
1.59224e-17
6.25152e-19
5.04878e-06
5.46775e-06
1.63306e-05
3.79593e-18
5.74382e-06
3.79665e-05
6.69177e-19
9.19276e-06
1.42043e-05
2.79487e-05
1.7575e-06
5.95037e-18
6.73728e-07
1.08191e-05
1.19606e-05
1.03289e-05
4.30299e-05
0.000188786
3.85875e-06
8.76856e-18
8.54114e-09
5.79951e-05
4.39992e-19
4.87951e-07
7.50133e-19
1.01782e-18
8.22225e-19
2.45145e-17
4.50773e-18
3.68316e-06
1.01294e-18
8.18863e-06
1.33636e-06
3.12104e-18
4.37883e-06
9.07927e-19
1.61246e-05
2.35981e-17
2.42274e-08
8.21295e-19
2.51227e-05
1.78142e-07
2.75895e-09
4.78602e-06
3.28489e-05
1.92043e-05
4.42105e-06
3.08299e-05
6.81543e-15
2.57201e-05
6.17373e-05
1.0712e-05
2.43218e-17
1.28594e-06
3.02469e-07
6.36961e-06
1.18216e-05
6.92165e-07
4.1303e-18
5.13034e-18
2.85901e-18
4.11423e-06
1.21549e-18
3.03678e-07
2.5108e-07
1.75978e-06
3.20677e-07
4.32841e-18
2.55088e-17
1.66608e-17
9.90408e-06
2.45498e-05
1.3963e-06
1.0684e-08
2.14782e-06
7.80283e-06
2.23535e-06
9.12099e-07
7.68905e-06
6.79177e-06
2.98708e-06
7.03803e-19
8.54271e-19
1.36636e-18
1.50612e-05
1.22688e-05
2.77102e-18
1.27724e-17
3.32644e-17
9.42659e-06
2.13379e-05
3.64468e-18
2.45745e-06
9.51409e-18
6.90931e-10
5.36501e-06
0.000100698
2.55936e-18
1.48904e-19
4.12524e-06
1.88361e-18
6.77372e-08
1.33873e-05
1.24752e-18
1.22011e-05
3.7108e-05
2.08944e-05
4.94955e-19
1.49149e-06
5.47651e-19
9.60096e-08
5.53774e-05
1.59021e-18
2.95685e-18
1.23108e-05
1.77443e-16
3.74491e-17
4.95473e-08
1.10147e-06
3.60861e-18
1.9641e-18
9.8245e-18
6.85587e-08
1.36688e-06
3.51253e-06
2.89615e-05
1.04748e-05
1.32366e-17
7.94285e-10
7.36961e-07
3.24189e-19
1.93229e-19
2.39302e-18
5.22827e-18
2.24823e-18
2.32609e-17
6.41916e-18
2.10341e-19
3.6209e-17
1.34085e-18
2.71822e-12
2.08065e-17
3.88048e-07
7.13775e-17
2.58012e-07
4.75492e-17
6.79452e-08
2.69452e-17
7.05625e-18
3.19192e-05
1.0245e-05
1.50518e-17
0.000100905
1.2027e-11
3.41902e-13
5.23677e-19
1.47942e-06
6.76627e-15
3.06136e-06
7.2108e-09
9.71507e-07
7.08516e-18
3.10202e-17
1.01629e-06
2.82964e-11
6.13813e-18
1.53977e-17
4.38569e-05
5.34492e-18
4.16213e-05
1.33217e-19
3.28486e-18
1.95589e-09
3.16722e-05
9.08531e-06
1.01163e-17
3.63058e-07
2.58474e-18
3.44915e-06
2.02573e-08
2.04506e-06
1.0552e-06
2.55484e-19
2.29277e-05
1.32426e-06
5.80082e-06
1.0973e-17
1.01047e-17
2.69576e-18
2.07788e-05
4.4603e-06
5.82857e-05
4.65241e-18
5.10824e-10
6.74431e-18
2.3931e-18
1.51904e-17
3.57109e-18
3.65124e-06
2.4626e-06
3.34303e-06
0.000357964
3.63328e-18
3.0847e-05
4.01453e-05
1.95941e-05
1.92851e-06
3.09705e-18
5.94934e-06
5.06686e-06
5.62539e-06
3.91175e-10
1.14237e-05
1.13051e-17
1.72799e-06
1.40545e-06
3.67194e-05
1.29538e-09
3.72171e-06
7.5858e-18
2.10559e-05
2.44391e-17
1.02261e-17
1.85101e-06
4.55967e-18
6.9658e-06
7.90195e-18
1.91199e-17
6.68192e-18
3.69308e-18
3.61614e-17
8.9858e-07
5.37823e-18
6.21187e-07
2.38995e-18
2.85572e-18
2.02009e-05
6.14059e-06
8.87371e-06
8.43067e-06
3.86788e-18
0.000661771
4.13447e-18
7.85749e-05
3.00695e-17
2.00395e-05
2.66062e-05
2.66282e-06
6.39005e-05
1.37492e-16
2.06234e-16
2.05795e-18
2.44165e-06
1.07773e-18
1.81898e-18
1.99249e-05
1.88519e-18
9.80079e-19
6.01047e-06
7.69958e-17
1.439e-05
7.36214e-11
2.99707e-18
3.1898e-18
1.92515e-17
1.81886e-06
7.60634e-06
4.74393e-18
2.56402e-05
3.82799e-07
7.30689e-18
0.000116614
1.47742e-17
1.77524e-05
2.03064e-05
3.97038e-06
5.24143e-18
2.00582e-05
1.09141e-05
9.54043e-07
5.99422e-06
1.41297e-05
3.4694e-18
1.79906e-17
2.01758e-09
1.87283e-18
1.184e-18
5.51184e-18
2.20747e-05
5.04589e-05
4.99048e-06
2.44274e-06
3.09811e-18
5.64269e-05
5.17937e-05
4.77831e-06
2.75979e-06
1.05173e-05
2.36504e-05
3.02772e-06
1.27626e-17
9.31361e-18
8.04922e-18
7.82328e-06
1.32544e-18
2.79623e-05
1.67079e-17
8.43325e-07
6.2542e-10
2.90784e-06
2.50828e-05
8.00071e-18
9.87242e-19
2.79951e-06
4.12296e-07
2.26131e-17
7.57147e-17
2.10849e-18
3.78488e-08
3.59782e-07
1.65082e-07
9.3413e-07
1.13944e-05
9.83918e-05
1.20739e-17
1.28525e-16
7.23561e-17
4.24587e-06
2.03071e-05
2.26808e-05
3.97336e-05
2.0296e-06
3.32509e-06
7.07946e-18
5.17296e-18
1.67271e-16
2.69555e-18
1.0736e-05
2.5471e-05
3.83869e-18
1.39791e-17
2.05241e-18
1.85365e-17
2.87091e-18
1.45841e-17
1.55925e-05
1.1092e-17
1.11967e-06
0.000458723
1.11997e-17
1.60717e-08
2.5987e-05
8.47074e-07
1.67992e-17
2.53396e-17
5.57697e-06
3.73964e-18
1.612e-05
1.21492e-09
2.76673e-05
6.96076e-17
3.47441e-15
7.04091e-18
2.07645e-18
4.67131e-18
1.02077e-16
0.000222972
8.3526e-18
6.72873e-06
1.36552e-06
5.42999e-17
1.83746e-17
2.20123e-06
2.31164e-19
7.86769e-18
1.4802e-05
1.42409e-07
2.45432e-18
1.68506e-18
1.01691e-17
1.91313e-05
1.26386e-18
1.14871e-18
4.64249e-07
2.97948e-06
3.49292e-06
5.74187e-18
1.00692e-17
2.00117e-18
4.3389e-06
2.10445e-06
1.48368e-05
4.23488e-06
5.05523e-18
9.12738e-07
1.36659e-05
7.37288e-06
2.25113e-18
3.36396e-18
2.88527e-20
3.43523e-18
1.39341e-18
3.56139e-05
6.04934e-06
6.27403e-06
1.72931e-17
7.9881e-18
7.59196e-19
5.41492e-18
1.24948e-18
1.10226e-09
2.79491e-07
2.58677e-06
1.82129e-18
2.72607e-19
4.99567e-18
2.70153e-12
3.9548e-05
0.000130101
1.0405e-18
8.22127e-13
2.32674e-14
2.06793e-17
2.85851e-18
4.3871e-06
7.58768e-06
5.0424e-18
1.68489e-17
3.29839e-06
3.30945e-18
8.06507e-07
1.27061e-06
0.00241206
1.53439e-18
2.22539e-18
1.39446e-05
6.02819e-07
6.47451e-18
0.000763413
6.80841e-07
7.32803e-06
2.45562e-17
6.41048e-18
2.1096e-17
9.18896e-18
9.1947e-06
1.06778e-07
1.01896e-17
2.89483e-05
2.19012e-05
0.00099766
7.84505e-19
1.4143e-18
5.09583e-17
1.90606e-17
7.48549e-06
7.53803e-11
2.12443e-18
5.01802e-17
2.14994e-05
1.07999e-06
5.61153e-06
1.55323e-18
6.93192e-18
3.29845e-05
3.4511e-17
3.69062e-18
6.56728e-18
1.76388e-17
2.50549e-05
5.10706e-18
1.13371e-17
1.87306e-17
2.89195e-05
1.39567e-05
2.93492e-19
1.98266e-18
3.44044e-18
1.7508e-05
2.0376e-10
3.27586e-17
2.10577e-18
1.91386e-18
9.96468e-19
2.74049e-06
1.25081e-05
1.51478e-19
2.34165e-06
1.265e-06
5.44856e-06
2.40553e-17
6.39024e-17
1.09632e-17
2.87022e-17
5.33932e-19
2.26223e-05
7.19289e-18
1.66855e-05
4.95995e-18
1.74034e-06
4.43258e-16
2.70144e-06
3.77071e-17
3.4661e-18
1.23717e-05
0.000193136
3.77297e-18
4.06417e-06
8.13087e-19
4.40956e-07
1.68578e-17
8.29234e-18
7.37139e-18
1.79072e-10
1.21207e-17
3.58053e-07
3.19763e-19
4.03482e-05
1.70274e-17
9.42801e-18
8.81501e-18
2.94599e-18
8.90806e-09
1.52154e-07
4.68012e-18
6.32386e-06
2.01088e-18
3.20643e-06
2.1416e-05
1.42792e-06
4.57718e-19
5.24763e-09
4.9513e-07
2.42684e-09
4.90495e-06
3.77884e-10
1.8866e-06
2.22846e-18
2.15264e-18
4.87078e-10
6.47277e-06
2.67983e-07
3.42719e-17
2.20027e-19
1.21496e-17
0.00065229
6.18248e-18
2.34963e-17
2.44787e-17
2.44964e-18
6.63984e-18
3.52755e-08
2.00189e-07
1.15973e-06
7.67924e-08
1.11337e-15
1.65349e-06
2.01517e-18
6.38838e-06
4.57738e-17
6.22802e-18
8.65425e-18
2.16142e-17
2.17631e-08
1.12191e-18
3.77668e-18
4.47491e-18
1.6533e-05
5.39011e-17
5.47717e-18
1.25074e-05
1.2604e-18
8.03031e-05
0.00014067
0.000636157
1.6528e-17
0.000228513
0.00132506
0.00136376
0.000744922
3.87319e-17
1.63216e-18
5.49566e-06
5.27974e-06
1.35523e-18
1.02063e-05
1.15827e-18
3.63553e-05
5.38931e-18
1.01736e-18
7.88269e-07
2.70734e-18
1.25775e-18
1.14549e-08
4.48725e-08
1.31464e-18
5.66538e-19
3.01958e-09
1.36316e-17
3.07601e-18
2.2625e-08
9.34666e-06
1.68182e-06
4.56109e-17
8.69702e-06
2.07985e-17
3.96595e-06
4.42932e-10
8.15908e-06
2.18331e-18
1.76115e-11
6.30041e-06
1.06664e-17
1.71615e-12
2.36708e-18
3.62703e-05
2.42405e-18
1.0944e-05
1.60787e-17
2.32999e-10
1.1313e-17
2.5701e-18
3.302e-18
8.88381e-13
5.48202e-13
2.64116e-18
1.36848e-05
1.01575e-05
9.08406e-18
5.36671e-18
3.67911e-05
1.94806e-05
0.00020624
2.15028e-18
7.5025e-08
2.79751e-05
5.15364e-05
6.85536e-11
1.79043e-18
6.41396e-05
8.65141e-18
0.00025436
2.54373e-18
4.00556e-11
3.9505e-11
4.90514e-18
5.67735e-08
4.70917e-19
2.39454e-05
1.1122e-17
1.84309e-18
2.31605e-18
9.71765e-18
2.43611e-18
7.79752e-18
3.42102e-07
2.11032e-06
0.000150944
1.41714e-17
8.38234e-18
4.57606e-05
2.24194e-18
1.71439e-20
1.94523e-17
5.29508e-18
9.49498e-18
6.49204e-06
2.93753e-18
6.15565e-18
7.5126e-19
3.62948e-06
1.06279e-18
1.76956e-17
1.12623e-17
3.55907e-06
1.01847e-18
6.75836e-06
0.000257115
5.7296e-06
5.90449e-06
2.94251e-05
6.94741e-18
2.8893e-17
2.21809e-18
3.35267e-06
1.95147e-06
5.73458e-19
2.53702e-17
6.49972e-07
9.31915e-18
4.16742e-17
0.00037117
9.97007e-18
2.44621e-05
3.97805e-18
2.59301e-06
3.72117e-06
2.03853e-17
4.47099e-18
1.9862e-17
3.23782e-18
2.94134e-18
2.08928e-05
4.2383e-17
5.0844e-06
1.74825e-18
4.5099e-18
7.44778e-06
6.87408e-18
1.41881e-05
3.1683e-17
6.47012e-18
2.68262e-06
8.56276e-08
0.000155299
3.43316e-17
8.2678e-19
1.14027e-17
4.04009e-06
0.000198633
9.77426e-18
1.96636e-18
1.97314e-17
1.67379e-06
4.39463e-18
2.18431e-05
3.42523e-05
3.05113e-17
3.14939e-18
7.89843e-06
5.52673e-19
3.59762e-17
4.48874e-19
7.10152e-17
6.6457e-18
7.52587e-05
4.44383e-17
2.18103e-18
4.1524e-19
6.51469e-17
6.0091e-18
1.99389e-17
9.79905e-18
4.84024e-18
4.35322e-19
8.57519e-06
4.29794e-19
9.10673e-06
6.966e-17
5.25218e-18
0.000639706
2.92259e-06
9.75333e-18
4.66919e-18
3.36866e-18
2.60547e-06
4.62994e-18
6.90258e-19
6.14072e-17
1.97873e-17
7.80694e-06
3.51582e-18
5.2854e-06
3.30019e-18
1.06333e-05
9.32547e-18
6.27383e-05
6.86906e-17
4.89998e-18
2.3225e-05
9.46329e-18
6.5286e-18
2.95676e-05
3.02734e-07
6.14087e-18
1.3211e-18
4.06119e-05
1.11488e-05
6.94546e-06
9.05355e-07
1.95864e-06
1.88597e-05
1.05603e-06
5.43124e-06
1.31154e-18
3.12853e-05
5.90535e-18
3.76744e-18
2.20487e-18
1.7309e-17
7.91371e-17
1.1179e-05
8.33935e-17
1.56018e-18
4.57229e-18
3.00958e-09
1.02216e-08
1.38826e-17
2.54697e-06
1.23478e-17
4.67745e-06
3.44826e-18
1.332e-09
3.95849e-06
2.17967e-16
4.96411e-05
9.73123e-18
2.46237e-17
4.56676e-17
3.19273e-06
1.44554e-06
4.11388e-19
1.76627e-18
2.71638e-06
1.39776e-17
0.000725924
2.16496e-18
0.000112652
3.85127e-18
7.26334e-18
8.01262e-18
9.44559e-18
1.08085e-05
9.97805e-18
4.37181e-08
2.99356e-18
1.07413e-05
2.68416e-18
9.23978e-18
7.90486e-15
3.76246e-17
8.52607e-18
6.97968e-18
4.03068e-17
3.99811e-18
4.73882e-06
0.000211629
1.03039e-18
1.44752e-17
4.02994e-07
6.59777e-18
9.78037e-18
1.25791e-09
1.8876e-05
1.63174e-07
1.42637e-17
7.47232e-07
3.66134e-06
5.65351e-06
9.21623e-06
3.04173e-18
3.31226e-18
4.35741e-19
5.54061e-18
6.13894e-19
1.56562e-18
6.03115e-18
1.52901e-17
5.66474e-18
6.35606e-18
2.52107e-17
1.14935e-18
8.28192e-05
1.00249e-17
4.0869e-18
2.53895e-13
2.11027e-18
1.14581e-18
0.00121764
3.21722e-18
5.32545e-18
2.13873e-06
1.62947e-12
2.63e-17
2.79903e-18
8.35738e-19
2.49806e-05
7.11493e-18
1.25292e-17
5.63967e-11
1.21903e-18
7.28125e-18
4.14881e-18
5.43884e-18
0.000126432
8.05517e-18
1.9052e-07
5.94813e-19
1.08013e-17
1.53227e-18
3.1031e-18
7.56026e-19
2.21267e-11
4.38893e-11
1.26131e-07
6.3011e-18
1.32736e-18
6.68311e-18
1.02637e-10
3.98372e-19
3.34251e-10
1.2769e-11
2.05942e-17
1.72416e-19
3.53046e-18
5.45031e-12
1.12489e-17
6.36216e-20
2.52754e-12
1.88244e-17
3.5027e-05
6.08029e-18
7.70849e-06
1.3721e-17
2.54496e-09
5.32574e-19
1.6503e-06
2.5609e-18
4.73789e-06
2.83661e-05
3.20188e-18
2.88012e-06
1.55062e-08
8.6757e-18
1.18823e-05
8.8367e-18
6.31364e-18
8.6979e-18
7.04919e-19
1.27924e-17
2.50663e-18
1.75005e-18
4.71117e-18
0.000318184
1.65471e-18
4.33922e-18
5.68243e-20
6.65401e-20
8.61201e-18
3.56015e-05
0.000921708
3.45133e-09
1.30719e-08
3.32332e-18
2.30938e-06
1.57923e-06
1.19845e-17
6.16738e-19
2.18448e-18
2.67358e-18
6.20788e-18
7.68619e-18
1.59372e-18
1.2124e-18
4.53829e-07
3.00549e-18
1.46699e-17
2.36139e-07
3.82417e-09
8.03285e-17
2.95563e-05
1.85516e-17
3.94e-18
2.72462e-17
0.000198191
1.31844e-16
4.49447e-19
2.89251e-05
5.15981e-18
2.97089e-19
1.06472e-18
6.20553e-18
6.22409e-05
1.9607e-18
3.8991e-18
1.53379e-18