/*--------------------------------*- C++ -*----------------------------------*\
  =========                 |
  \\      /  F ield         | OpenFOAM: The Open Source CFD Toolbox
   \\    /   O peration     | Website:  https://openfoam.org
    \\  /    A nd           | Version:  10
     \\/     M anipulation  |
\*---------------------------------------------------------------------------*/
FoamFile
{
    format      ascii;
    class       volScalarField;
    location    "7.7";
    object      T;
}
// * * * * * * * * * * * * * * * * * * * * * * * * * * * * * * * * * * * * * //

dimensions      [0 0 0 1 0 0 0];

internalField   nonuniform List<scalar> 
111485
(
303.15
285.115
300.978
303.15
298.417
283.15
298.928
293.398
296.335
286.258
300.519
296.205
300.215
284.577
299.979
286.77
299.302
297.986
294.052
303.15
303.15
283.15
297.247
288.709
301.544
303.15
293.204
300.617
288.866
303.15
300.731
294.314
303.15
283.15
283.451
283.15
302.283
297.601
283.149
296.601
283.15
289.608
297.019
302.883
303.191
303.15
287.388
288.568
289.649
303.15
303.15
283.15
303.15
298.925
303.15
293.502
287.909
283.15
283.322
295.448
295.848
303.15
302.054
300.274
283.15
284.557
300.301
291.54
302.108
302.529
303.163
301.898
303.15
302.105
303.15
295.364
283.15
293.469
283.15
283.15
283.239
293.375
283.15
303.15
300.313
284.213
283.15
301.549
303.118
299.088
283.341
289.589
300.863
300.375
289.782
303.15
303.15
301.549
303.149
283.416
303.15
286.668
283.15
285.173
285.755
283.15
283.15
293.061
301.455
283.146
298.906
288.073
301.293
301.7
303.15
301.978
303.15
283.15
300.126
303.15
303.15
283.15
283.15
283.15
283.4
303.151
283.15
301.811
303.15
283.177
303.085
301.941
303.15
283.15
283.15
292.505
283.15
294.213
298.781
301.086
303.137
296.807
298.961
284.775
302.279
297.797
283.15
303.15
283.15
297.13
284.933
303.15
303.144
287.326
283.156
293.715
295.624
302.524
283.154
303.15
303.15
292.178
286.252
283.153
283.157
301.18
283.687
283.15
283.152
283.152
283.15
303.15
283.206
283.15
291.535
287.177
283.15
303.15
303.15
283.15
303.15
303.15
297.638
293.496
295.782
289.771
301.377
300.417
283.19
303.15
301.443
303.15
303.15
300.152
286.285
301.406
301.326
295.749
303.15
300.881
284.6
283.16
300.776
297.054
303.15
300.41
288.208
303.15
283.226
300.178
284.81
300.681
303.15
303.15
300.695
283.15
292.771
283.15
300.6
298.707
290.373
303.15
301.751
300.525
283.15
283.15
283.15
289.501
283.157
283.15
303.15
298.642
291.374
289.922
283.15
303.15
303.107
303.15
284.334
300.076
299.253
299.501
299.371
283.15
283.144
298.847
283.15
283.15
288.754
288.366
283.15
301.181
298.867
303.15
283.15
301.013
303.15
303.15
303.122
303.15
288.269
285.866
290.791
303.15
298.328
303.15
303.15
303.15
283.148
298.089
300.969
299.411
291.2
299.469
296.227
283.211
290.336
291.582
283.15
303.15
283.149
292.442
298.734
286.463
303.15
297.982
297.248
298.878
302.961
283.166
297.089
299.349
301.997
283.15
283.608
283.15
283.149
303.15
283.893
290.262
286.316
303.15
283.15
297.575
285.248
303.15
303.15
303.15
284.588
290.241
301.057
284.404
293.015
283.15
283.15
303.15
298.336
303.15
283.822
289.495
283.152
283.15
303.15
303.15
283.15
294.337
289.966
283.15
295.697
283.15
303.15
301.068
297.282
293.969
295.806
283.15
283.15
283.15
296.594
291.013
302.362
283.15
283.15
283.15
290.087
296.93
283.213
290.476
283.15
292.785
299.545
284.2
298.68
285.263
283.15
303.15
283.15
303.15
290.674
296.634
287.944
291.941
283.15
286.361
283.15
303.15
293.804
303.15
301.772
303.15
283.15
291.95
283.15
288.786
284.625
283.15
283.985
298.014
283.15
300.136
284.671
298.828
303.024
291.06
286.004
283.15
303.15
303.144
283.15
300.979
300.849
283.15
283.15
294.695
284.368
298.182
296.814
283.15
295.121
296.107
283.15
302.051
283.898
303.15
303.15
288.257
298.579
283.15
303.15
303.15
303.15
300.73
283.15
303.15
293.938
283.171
286.968
299.959
283.15
283.15
302.61
283.15
302.458
301.436
297.849
288.855
283.15
293.912
303.381
303.15
298.63
292.302
303.15
283.15
283.306
283.15
290.036
286.105
291.653
283.15
292.873
296.573
293.066
303.147
283.15
303.15
303.15
283.169
292.732
283.15
284.32
303.133
283.15
303.15
303.15
303.15
301.818
290.525
285.999
284.191
284.316
283.15
285.703
303.15
300.729
283.15
303.15
303.15
300.668
303.15
303.15
283.151
303.15
283.15
300.67
283.15
283.15
283.15
303.15
283.15
303.15
283.15
283.666
283.15
303.126
301.844
283.745
283.15
303.084
283.15
303.15
284.712
284.674
286.122
297.515
283.15
297.476
297.588
292.296
286.817
285.271
303.15
291.763
283.15
299.854
283.15
296.778
283.15
292.082
298.575
303.151
283.15
286.797
303.15
295.495
299.077
283.15
283.15
283.15
283.15
303.15
293.674
283.15
283.15
283.238
283.15
299.807
283.15
284.799
303.15
283.435
303.121
284.639
291.904
283.15
301.452
283.15
283.15
285.696
283.15
283.255
283.15
299.66
303.15
290.664
303.15
283.15
302.38
284.471
300.076
285.661
300.074
289.469
283.15
300.62
284.551
283.15
283.14
300.335
301.585
283.15
282.442
301.057
303.063
283.118
303.15
287.574
302.167
284.407
285.395
288.205
282.55
283.15
303.15
300.609
303.15
283.548
283.15
283.15
291.766
282.675
303.149
303.117
283.15
286.282
299.573
283.15
283.15
299.586
303.15
283.15
283.15
283.15
286.163
283.15
303.15
284.827
284.224
303.15
299.679
283.15
289.248
303.15
283.15
286.159
283.15
283.15
283.15
285.375
283.15
285.449
291.962
303.15
300.353
283.449
298.698
300.932
283.316
283.458
283.15
288.966
298.429
303.15
302.259
296.027
296.866
284.718
297.43
297.183
303.15
300.241
303.136
283.15
297.134
284.831
283.15
292.37
295.71
284.852
298.753
300.618
292.329
283.15
298.893
283.47
303.15
300.577
301.961
294.081
283.15
286.497
303.15
283.15
283.15
283.15
283.302
283.15
303.15
303.15
283.15
300.4
299.237
303.15
285.625
303.15
303.15
303.15
290.02
283.419
283.15
303.15
283.15
283.15
286.814
292.376
283.15
295.126
283.136
283.15
295.301
302.219
287.78
283.15
283.15
300.238
292.084
283.15
283.15
283.15
293.983
303.15
303.15
283.15
296.227
302.378
283.15
282.398
301.748
286.534
283.15
283.15
287.454
302.966
283.15
283.16
287.277
283.756
288.783
283.15
285.694
300.301
283.15
303.15
283.15
283.15
283.15
283.15
295.656
303.15
283.15
283.15
295.271
291.809
303.15
303.15
289.855
298.415
298.313
303.15
283.15
297.988
303.15
283.829
298.816
298.338
303.15
303.15
303.15
283.15
286.062
283.15
283.15
302.702
303.15
297.806
302.275
283.15
294.046
283.256
296.425
291.966
283.418
289.783
283.15
283.15
296.873
288.051
290.83
283.15
283.15
297.837
294.97
283.15
283.908
284.592
283.477
303.15
303.15
303.15
290.735
283.15
300.047
283.15
284.376
297.585
298.503
292.257
283.15
283.15
303.15
295.364
283.15
283.15
303.098
283.15
283.15
303.15
283.15
299.316
283.15
283.15
283.15
283.15
283.15
303.15
283.15
283.172
298.76
303.15
302.531
283.131
283.4
283.095
285.519
283.15
284.454
290.52
283.4
303.15
283.149
299.731
283.15
300.245
283.146
283.144
286.204
297.484
283.206
291.869
297.975
283.15
283.15
299.054
299.795
283.15
297.347
291.268
297.54
283.15
283.244
283.15
297.853
296.974
283.15
300.059
297.622
283.149
299.765
283.15
295.643
283.144
303.124
283.162
283.16
283.15
283.15
284.425
283.15
302.97
283.589
283.064
303.148
303.149
303.147
283.15
283.15
293.788
303.15
303.179
283.872
283.15
283.15
303.154
303.149
283.15
303.165
283.15
283.15
303.15
303.15
303.15
303.15
283.363
283.15
283.15
283.15
303.157
283.306
283.89
293.439
283.15
283.15
283.336
283.15
283.15
283.15
287.237
293.587
283.15
283.15
283.15
283.15
283.15
283.15
284.01
283.15
303.15
291.571
283.15
303.15
303.15
303.153
303.15
303.15
283.15
303.171
283.15
283.698
283.144
303.152
283.15
303.063
284.398
292.079
303.15
303.128
284.45
303.15
283.15
303.15
283.15
294.03
293.475
284.643
303.148
283.15
293.241
283.15
283.15
303.15
283.15
294.836
283.15
303.15
283.163
298.152
303.15
284.379
283.15
283.579
283.15
283.15
283.15
303.15
285.854
283.47
284.263
283.15
283.15
285.64
283.15
283.15
303.15
284.329
303.164
298.547
303.15
303.128
303.128
283.15
303.131
283.15
283.442
289.152
301.009
283.804
283.167
283.15
283.15
283.15
303.183
283.15
302.904
303.15
292.744
303.15
288.73
283.826
303.15
283.15
303.15
283.15
301.793
303.15
303.15
286.414
300.557
283.15
283.15
283.15
283.15
283.15
283.15
300.812
283.58
303.15
303.15
303.157
303.15
300.19
284.421
283.15
302.113
303.15
301.629
283.15
302.569
283.15
283.148
303.152
283.312
302.112
300.229
283.147
283.15
289.35
303.15
293.376
303.15
283.15
303.15
283.15
283.15
283.15
300.81
302.053
303.15
303.15
303.15
302.901
283.15
303.15
292.886
283.084
303.15
297.508
298.296
296.482
283.376
283.15
283.15
283.15
283.15
294.623
283.15
294.88
283.15
303.058
289.847
283.15
302.858
283.15
283.15
302.739
283.148
302.919
283.15
303.15
283.15
302.39
283.15
303.15
283.15
283.148
283.15
283.171
283.15
283.15
303.15
292.984
301.089
296.124
297.019
303.15
303.116
283.15
283.15
285.697
283.15
283.158
302.843
298.774
302.944
303.15
283.36
283.15
303.15
283.15
302.994
283.319
298.292
283.15
303.15
288.1
303.15
283.15
283.125
295.1
283.147
283.15
283.15
283.149
303.15
283.15
303.142
303.15
303.15
289.951
302.988
302.995
289.02
293.253
283.15
283.15
303.09
289.089
283.15
303.15
284.731
283.15
303.15
283.15
283.15
283.15
297.484
283.15
302.941
283.15
300.508
283.15
283.15
283.15
283.15
283.15
283.15
285.017
283.15
283.15
283.15
283.15
283.15
283.15
292.001
283.15
298.359
302.936
283.15
302.323
283.15
302.517
303.145
292.299
288.794
303.15
292.164
284.783
303.109
303.15
303.139
295.051
288.677
283.15
287.897
283.15
283.15
283.15
283.15
287.523
283.15
283.15
291.649
303.136
285.319
283.15
283.15
302.519
283.15
283.184
303.15
299.888
283.15
283.15
302.822
283.15
303.178
303.15
283.15
289.068
297.956
292.709
285.665
292.555
294.13
283.15
283.15
302.29
290.597
292.774
284.411
283.15
294.371
283.15
303.15
300.741
298.721
283.15
297.409
283.15
292.767
297.211
303.15
283.15
283.15
301.779
283.15
283.15
300.507
296.131
283.196
291.228
283.15
283.15
302.799
300.526
283.15
300.644
283.15
300.499
283.15
283.15
300.804
283.15
283.228
301.597
283.15
283.15
302.431
283.15
287.923
303.15
290.422
303.15
303.15
303.15
300.952
283.15
283.15
299.539
283.15
302.992
283.15
283.15
303.15
283.151
288.212
283.15
283.15
288.075
288.255
283.15
283.678
283.15
303.15
302.417
283.727
301.57
283.15
283.15
283.15
283.15
283.15
283.15
283.15
283.15
283.15
283.15
283.15
303.15
283.15
283.15
283.15
283.15
283.15
283.15
283.15
283.15
303.15
286.964
283.15
283.15
283.15
294.703
283.15
303.15
302.905
283.15
283.15
294.709
283.15
283.15
301.829
295.187
283.15
303.65
303.594
283.15
301.509
293.957
297.547
301.472
298.13
303.15
283.15
296.369
291.77
301.415
283.15
302.145
302.414
300.869
288.047
287.323
301.056
301.777
301.781
303.15
285.869
297.536
285.533
297.24
283.15
283.15
283.15
303.15
283.15
291.985
297.908
283.15
283.15
283.15
283.15
283.15
303.15
283.15
303.15
292.136
303.117
299.014
302.841
283.15
283.15
285.414
283.167
283.15
283.15
301.697
303.15
283.15
298.145
299.503
297.516
298.646
300.801
303.15
291.045
302.586
303.15
303.15
300.325
303.15
283.15
282.981
295.554
302.949
283.15
303.15
289.605
286.162
297.131
292.183
302.401
303.15
303.137
303.15
303.15
283.15
298.939
283.15
291.8
290.461
299.688
284.772
303.15
301.924
303.15
283.15
303.15
303.15
291.5
299.577
283.15
303.15
303.133
291.779
303.031
299.341
292.808
288.33
292.911
283.15
303.15
283.15
291.246
298.297
303.151
303.15
303.15
303.15
297.481
302.557
283.15
299.961
301.135
284.865
299.508
303.15
303.15
298.679
292.962
283.15
302.904
299.742
302.607
291.974
297.302
298.247
303.15
286.991
298.164
291.345
283.15
289.063
303.15
288.404
301.06
303.15
288.716
301.281
300.131
293.171
283.149
283.158
283.238
301.651
300.922
303.15
288.825
301.484
303.15
283.15
303.15
303.21
298.755
290.822
296.777
303.253
283.149
297.547
303.15
303.15
292.788
303.15
300.305
283.305
301.32
291.533
303.15
283.664
293.211
303.15
283.05
298.674
303.15
300.691
286.259
303.15
303.15
283.998
303.15
283.15
283.15
285.919
299.254
291.182
303.15
285.225
297.486
283.15
298.842
298.877
288.979
303.098
283.15
301.503
299.618
298.842
300.082
288.666
290.784
302.482
303.15
301.556
288.724
303.15
298.853
283.15
283.15
303.15
283.15
303.15
297.445
283.15
300.523
283.634
303.15
283.793
283.15
289.849
303.15
303.144
303.15
294.166
302.995
303.118
299.875
290.418
289.452
290.594
298.434
303.15
299.404
292.173
298.941
303.15
283.874
283.453
299.261
287.178
283.512
303.15
283.15
303.15
285.331
303.15
303.323
284.692
303.354
302.956
303.15
303.15
283.15
300.551
300.631
285.5
303.087
287.007
295.669
301.877
292.506
288.164
302.081
296.097
283.15
283.15
303.15
285.82
289.71
283.15
283.15
303.15
301.989
288.685
303.15
296.388
303.15
283.156
285.192
301.089
303.15
303.15
292.283
303.15
283.301
290.622
283.15
297.147
294.645
296.084
303.15
302.712
283.15
302.664
293.421
303.15
303.15
288.797
283.15
303.15
301.804
284.443
303.15
303.15
283.15
302.349
303.465
289.503
299.701
298.033
303.15
303.159
302.607
303.15
283.15
303.15
303.15
303.15
303.15
303.15
303.15
303.15
283.15
303.15
303.15
283.341
303.15
303.336
303.15
303.16
303.15
303.15
300.943
303.679
303.15
292.032
303.15
303.15
283.15
302.559
303.15
302.131
303.115
283.29
283.15
303.15
302.925
283.149
303.15
303.15
291.375
283.15
292.595
283.15
283.15
283.153
291.222
284.847
303.15
296.661
283.15
303.735
303.134
284.319
302.594
283.15
292.172
303.084
301.683
283.15
303.15
283.15
304.092
284.826
296.882
303.15
303.15
303.15
303.15
303.15
303.15
302.347
302.808
297.626
292.032
303.15
287.143
292.648
284.982
303.206
283.15
286.923
302.752
284.78
283.148
287.49
303.15
283.383
302.918
292.537
302.845
301.908
303.15
302.227
303.15
303.15
297.936
303.15
284.475
303.15
303.15
283.15
303.15
303.15
302.844
303.15
283.298
283.15
283.15
285.816
284.914
300.902
286.101
303.15
294.738
303.15
290.468
303.15
287.151
300.687
301.486
293.365
303.15
303.15
303.15
289.815
283.15
303.15
289.568
283.15
283.15
301.826
303.15
286.201
283.148
283.15
303.15
303.15
300.658
298.192
303.15
293.439
303.038
283.15
298.568
303.15
286.422
288.245
302.146
303.15
296.295
296.744
302.953
301.884
301.661
303.15
303.15
303.147
303.15
283.15
303.15
289.572
300.063
294.343
302.133
283.15
300.364
291.404
298.227
283.604
298.328
289.609
302.164
283.15
283.15
283.15
302.21
283.15
290.481
283.15
301.267
303.161
289.725
298.049
283.15
303.15
301.255
301.233
303.15
283.15
303.15
286.437
301.443
302.977
302.338
298.016
288.451
303.15
303.15
303.15
294.251
285.971
289.808
295.884
283.96
302.955
303.15
303.15
283.15
283.15
285.427
299.585
303.15
303.15
283.15
303.15
303.15
303.15
300.261
303.15
285.366
292.516
283.15
283.248
293.373
285.703
303.15
303.15
301.888
303.15
299.238
283.146
297.577
303.15
303.15
283.15
303.15
303.15
303.15
305.215
303.15
301.841
301.118
303.15
303.15
301.621
303.15
283.15
287.256
303.105
303.15
303.15
303.15
297.935
303.15
303.15
302.481
302.489
301.78
303.15
283.15
303.15
302.046
302.51
301.528
302.532
283.15
300.655
287.506
297.456
283.15
303.15
303.15
303.15
303.15
294.379
287.576
299.657
303.15
303.15
303.15
303.15
283.15
303.148
284.777
285.153
283.15
303.15
303.15
283.148
299.598
294.961
283.15
303.15
303.15
303.15
303.15
289.622
289.683
303.15
303.15
302.398
303.15
301.446
283.953
291.912
303.15
283.15
301.164
303.124
303.15
303.082
301.325
286.834
303.15
303.15
303.15
303.15
293.296
284.151
303.15
302.697
298.071
289.453
303.15
303.15
303.15
303.15
299.542
303.151
303.15
303.15
298.266
302.586
288.358
303.15
303.15
297.754
303.15
303.15
303.15
303.15
288.824
303.15
283.15
283.15
295.946
291.108
303.15
303.15
303.15
297.003
303.146
303.15
303.15
303.15
303.15
303.411
300.883
303.15
287.348
302.644
299.391
303.15
303.15
303.15
303.15
283.15
285.665
303.15
302.844
283.15
302.181
303.15
303.134
303.15
283.15
301.922
285.717
283.15
302.827
303.15
302.421
283.15
303.15
303.15
303.151
303.15
283.271
303.15
290.864
283.15
283.15
303.15
303.15
298.837
302.383
283.15
302.419
283.15
284.099
288.006
302.706
283.15
303.155
302.988
303.134
284.398
283.156
302.983
283.15
283.15
283.156
302.079
302.294
303.15
283.15
283.15
295.397
303.15
283.15
303.15
303.15
303.15
303.108
303.046
302.931
302.451
303.15
302.906
303.15
284.823
303.15
303.15
283.15
303.15
303.11
303.15
283.15
303.15
288.331
303.15
303.15
303.168
283.15
302.868
302.109
296.713
303.15
289.373
294.567
283.819
290.009
283.15
283.15
287.226
284.324
283.15
303.806
283.15
286.427
303.15
283.15
303.156
303.15
303.15
303.014
303.155
303.15
283.15
303.138
303.15
283.15
283.105
298.75
302.704
303.15
301.851
303.15
285.716
303.152
301.189
303.15
303.15
301.053
303.15
303.15
303.15
287.707
303.15
285.154
303.15
303.147
303.15
283.15
283.15
303.15
303.15
303.15
288.726
302.552
303.15
303.15
288.597
286.514
291.254
303.15
302.703
287.687
287.542
303.15
303.15
287.704
283.15
291.917
303.15
303.152
303.149
303.15
300.528
283.15
302.305
283.15
303.15
303.15
303.15
303.15
303.15
284.335
302.251
291.056
303.15
303.15
290.589
303.15
303.15
303.15
303.15
303.15
300.158
303.15
303.15
283.15
299.464
303.15
283.15
303.15
301.375
283.15
299.966
290.814
302.687
300.028
299.445
303.15
303.15
303.15
300.834
288.49
283.15
303.15
300.324
303.15
303.15
291.984
303.15
287.495
303.15
297.834
284.321
303.15
283.15
303.15
303.15
303.15
285.256
303.15
300.495
303.15
303.15
299.707
283.15
284.753
303.15
303.15
288.121
301.537
296.431
303.15
303.15
303.15
301.554
292.288
303.15
283.15
303.15
300.673
303.15
284.776
296.311
303.15
303.15
301.141
303.15
303.15
283.15
303.15
283.15
294.575
303.15
283.15
303.15
303.15
303.15
303.15
303.15
303.15
283.15
301.503
283.15
302.082
303.15
303.15
296.082
300.481
303.15
283.15
303.15
300.886
283.15
303.15
303.15
303.15
300.734
303.15
297.683
303.15
285.837
283.15
286.738
303.15
303.15
298.498
283.15
303.15
287.863
283.245
303.15
303.15
285.082
283.85
300.856
301.735
301.19
293.156
301.741
283.849
303.15
297.719
283.15
283.15
303.15
303.15
303.15
301.211
303.15
303.15
303.15
303.13
283.169
283.15
283.558
303.15
302.019
283.15
303.142
296.108
283.15
294.589
303.15
303.15
283.15
299.892
283.929
303.15
283.15
299.918
303.15
297.656
303.15
295.318
303.15
283.15
303.15
283.15
299.424
283.15
283.227
283.15
286.208
303.15
303.15
283.15
283.15
303.15
303.15
303.15
303.15
284.883
284.749
283.15
303.15
283.233
283.15
283.15
303.154
289.873
283.537
283.15
301.502
284.876
300.465
288.18
303.15
303.15
303.15
303.15
283.15
283.15
283.15
303.15
283.15
283.15
303.15
283.15
297.29
283.15
303.15
283.15
303.15
303.15
283.33
283.15
303.15
301.947
303.149
303.15
303.15
303.15
288.733
283.15
303.15
303.149
283.15
303.15
303.15
303.15
295.239
283.15
283.181
303.15
303.15
303.15
303.15
303.15
303.149
303.147
284.104
303.15
283.15
303.15
303.149
303.15
303.148
303.149
283.15
283.15
283.15
303.15
303.15
283.15
303.149
283.15
287.71
283.15
301.815
283.15
303.154
303.15
284.611
283.15
284.454
297.385
303.15
284.695
303.173
303.15
297.393
283.15
303.15
303.15
303.15
303.15
283.15
303.15
303.15
299.159
283.15
303.15
303.15
303.15
303.15
292.328
290.406
303.17
283.165
303.15
301.812
302.315
303.15
283.15
283.15
303.15
303.15
303.15
283.15
283.15
283.823
303.15
303.15
303.196
303.151
283.15
288.86
303.15
283.15
303.15
288.083
303.15
283.15
302.119
283.15
283.15
283.15
303.15
299.682
303.15
303.15
303.15
283.15
284.506
293.606
295.22
289.55
303.121
303.018
283.15
283.15
301.025
283.694
283.15
303.149
303.15
303.15
283.15
294.556
303.15
283.15
302.979
303.15
303.15
283.796
303.15
303.15
288.413
289.557
303.15
283.15
303.15
283.15
303.15
303.15
303.15
303.15
283.948
303.15
303.15
303.15
302.928
303.15
303.15
283.15
283.15
283.15
283.15
302.942
283.15
283.15
300.967
303.15
284.771
284.932
303.15
301.125
303.15
283.15
303.15
283.15
283.15
303.15
303.15
303.15
302.662
303.15
303.15
303.15
283.15
303.15
283.15
286.371
303.15
303.15
291.617
303.15
283.15
283.15
302.418
303.15
303.147
283.15
303.193
286.663
283.15
283.15
299.205
283.15
283.15
303.047
303.161
293.331
303.167
303.151
303.152
283.15
283.15
302.644
283.454
285.835
300.843
283.158
283.15
291.048
301.565
301.463
283.15
300.214
290.699
300.143
302.204
302.748
284.687
295.487
299.209
286.26
293.306
300.101
303.15
297.953
297.573
302.788
283.66
292.364
301.141
287.336
303.15
301.055
303.15
300.718
301.493
283.634
284.98
303.15
283.15
302.278
301.687
283.146
303.173
288.554
302.676
301.839
300.823
303.15
303.231
301.127
295.081
300.424
288.966
302.911
301.629
302.188
302.271
284.214
302.501
301.593
283.179
303.15
302.894
303.15
303.15
302.096
302.002
294.277
303.15
284.67
292.303
292.341
300.928
303.15
284.014
285.192
284.391
303.15
298.778
303.15
296.375
295.384
300.753
303.142
303.15
303.15
301.944
301.26
302.784
303.15
292.622
302.744
289.964
283.15
298.349
293.999
303.15
300.507
283.15
283.203
283.15
302.574
303.098
303.15
302.98
298.39
283.148
300.5
302.221
295.328
283.536
295.859
297.071
283.462
303.133
284.737
296.317
283.319
296.865
300.504
300.249
300.354
302.002
289.841
301.575
303.15
302.718
302.648
302.65
296.494
302.883
283.15
302.014
293.436
303.15
283.434
286.842
301.194
302.598
290.53
284.824
287.71
302.623
296.376
303.15
303.15
295.006
283.15
292.672
283.432
303.15
290.568
290.31
283.914
303.15
297.292
298.492
284.227
301.239
294.179
290.179
300.537
303.107
303.15
303.15
283.531
302.611
283.349
285.796
303.15
303.018
303.037
303.15
285.42
300.792
297.85
283.246
299.57
302.372
300.512
286.904
283.15
303.106
301.819
283.738
283.138
303.15
303.072
303.15
303.15
284.18
302.528
296.375
283.035
283.153
303.15
283.15
302.949
303.043
302.502
301.408
303.15
283.15
283.15
301.817
301.873
283.215
295.876
303.15
303.15
301.615
285.494
283.259
301.678
301.778
301.727
284.409
303.15
283.15
298.461
297.762
303.15
302.702
302.082
284.722
284.975
302.113
303.053
303.15
298.138
284.435
283.15
303.15
300.579
301.217
302.017
289.623
302.074
285.66
300.144
300.272
290.35
297.537
303.15
303.15
300.937
284.464
302.093
283.151
300.507
301.71
283.624
288.31
302.421
283.15
283.15
283.029
303.15
303.15
299.937
298.944
302.288
283.147
283.15
283.937
283.151
283.15
283.152
303.075
300.932
299.179
295.892
283.368
303.098
300.14
303.15
283.15
302.559
289.235
300.782
292.704
283.505
303.061
283.148
283.15
302.837
301.208
302.615
283.156
291.302
284.874
303.15
284.261
301.041
283.15
283.31
284.942
284.183
283.15
283.15
301.635
283.15
289.387
302.529
302.705
301.779
283.482
298.352
290.062
283.15
303.341
292.087
283.15
283.15
283.15
303.15
301.203
302.415
299.177
301.469
299.921
288.865
283.155
290.996
290.167
303.059
291.101
299.987
292.075
283.15
286.296
301.085
301.543
283.15
283.979
299.639
283.15
303.15
283.188
301.281
303.15
284.021
302.259
303.02
303.15
283.15
292.807
303.153
301.693
283.15
283.15
283.15
302.198
297.584
303.143
302.195
303.166
303.15
288.388
303.166
290.452
300.232
300.192
296.598
283.157
301.703
283.15
290.6
301.414
289.471
290.499
298.987
300.697
301.6
287.183
291.149
285.028
283.172
302.219
286.134
283.149
283.144
300.213
283.079
300.306
287.008
296.06
299.439
289.217
299.281
283.121
299.135
283.15
290.004
289.12
298.67
283.33
283.15
300.576
283.15
302.8
283.15
303.15
286.497
286.494
283.15
298.997
298.564
287.058
303.15
303.15
301.734
289.797
303.001
283.728
301.58
287.102
303.147
284.196
288.216
303.15
301.428
283.15
283.15
287.571
287.036
283.145
285.255
301.499
286.252
301.175
303.15
285.12
301.749
291.204
303.15
303.15
301.62
302.047
303.15
293.042
294.288
283.682
296.405
286.802
290.033
303.15
302.789
297.016
285.026
283.15
287.732
291.927
299.657
283.163
283.75
282.942
301.951
303.118
283.151
303.134
303.15
300.572
293.084
298.821
293.855
283.15
291.948
296.004
285.604
283.211
291.666
283.15
300.267
303.164
292.562
284.101
303.144
291.863
298.622
288.25
300.352
291.336
287.337
283.15
303.142
285.353
289.909
293.494
283.15
283.15
283.15
303.141
283.15
283.137
286.441
303.15
283.15
303.167
283.172
291.119
289.019
303.519
302.912
289.877
303.15
296.986
303.176
302.003
287.275
283.15
292.931
303.145
303.094
286.197
283.15
283.15
283.475
286.033
303.054
303.144
287.519
289.487
283.483
283.162
289.863
293.224
303.15
283.15
303.096
303.15
302.332
285.022
302.338
303.093
284.06
283.773
284.039
302.852
302.183
297.396
293.988
303.07
291.294
291.038
303.15
303.098
302.585
285.444
283.379
303.15
285.951
283.386
302.931
301.666
302.176
283.15
300.334
301.85
303.15
302.156
285.415
303.15
297.902
303.15
283.15
300.681
302.685
286.344
302.489
283.15
285.173
303.011
283.15
302.308
285.38
294.889
284.343
303.15
303.018
302.873
286.514
283.15
287.131
284.255
289.798
285.735
302.251
303.15
283.15
283.15
293.134
283.15
301.048
302.162
290.368
283.15
294.028
283.15
303.15
283.15
300.057
298.565
283.151
285.281
301.723
303.076
303.156
291.855
294.201
301.203
283.211
301.797
283.145
303.15
303.141
299.103
283.15
300.921
294.776
303.15
300.946
287.319
301.948
284.902
288.205
283.15
302.221
287.742
298.414
303.075
283.15
303.15
291.646
302.162
283.076
283.147
286.753
298.342
303.149
284.499
301.029
301
301.254
303.153
299.889
287.656
284.929
301.583
299.893
283.728
283.103
303.16
303.149
303.15
297.345
283.163
283.15
303.15
303.149
289.915
298.906
300.273
287.79
302.801
303.15
286.431
301.552
303.15
300.954
283.799
301.454
303.15
284.542
301.378
295.504
302.765
303.15
303.15
285.177
295.057
296.365
287.387
303.15
303.15
283.15
287.217
302.4
296.154
303.15
285.554
303.15
303.15
300.446
288.718
283.15
295.54
295.866
299.061
283.15
303.15
292.668
287.226
303.15
297.941
300.494
300.4
303.15
303.15
303.15
300.208
298.313
302.799
299.876
283.15
292.873
287.672
290.593
300.564
303.15
303.15
300.745
303.097
286.561
296.09
303.15
303.147
283.15
286.437
298.913
285.58
303.15
303.15
283.342
303.122
303.15
303.15
283.15
290.516
303.15
303.15
284.575
299.272
283.15
303.15
284.62
301.319
300.158
286.988
294.927
303.15
283.494
303.15
303.15
283.31
300.521
290.386
300.388
303.15
303.129
302.175
292.646
299.786
301.352
284.45
283.454
300.83
298.374
303.15
302.747
284.13
299.715
301.367
287.687
303.15
297.407
301.396
301.483
301.522
292.874
303.15
283.15
299.176
283.15
283.15
287.747
283.15
284.005
283.15
283.15
283.15
283.15
302.753
288.133
302.7
283.15
295.67
290.929
284.73
283.15
303.15
302.675
301.733
303.164
302.633
283.15
294.793
300.252
290.157
283.15
283.15
299.805
285.93
283.15
283.15
303.149
290.562
283.15
287.136
303.149
303.152
284.312
283.15
288.188
292.477
300.782
294.575
302.957
285.621
302.497
295.232
286.265
283.15
283.536
291.611
303.074
289.118
302.653
283.15
292.357
287.743
301.013
301.248
284.885
303.106
284.9
297.051
302.982
303.147
285.127
303.145
303.004
293.29
302.671
283.15
303.15
303.15
294.747
291.029
283.155
301.091
284.678
284.149
284.612
303.145
288.343
300.446
283.15
283.15
302.502
303.15
294.549
302.899
303.182
299.803
303.221
302.882
283.15
301.277
302.877
283.15
303.15
301.301
303.15
284.303
298.747
283.163
291.51
283.15
287.572
303.012
299.733
283.15
303.023
290.888
301.182
303.126
303.078
283.15
283.15
301.926
301.99
283.797
302.807
302.411
302.366
303.141
283.15
293.696
283.15
302.784
287.854
302.986
303.15
283.15
302.819
285.108
291.464
302.035
283.15
302.579
301.983
301.556
302.479
303.046
303.21
303.009
303.15
283.15
301.504
297.801
303.087
303.15
289.901
284.898
303.15
283.15
285.3
303.184
303.165
302.916
301.124
284.257
303.097
290.639
294.195
303.148
289.027
303.164
283.15
289.814
283.15
299.942
298.105
284.769
288.162
299.598
296.629
295.267
299.149
293.745
303.153
293.798
296.364
283.161
299.361
293.826
303.15
298.882
299.116
303.15
291.157
303.172
301.665
303.15
286.911
285.979
302.798
289.649
283.15
283.15
300.339
301.118
283.716
283.15
303.15
300.209
302.313
300.596
299.844
302.783
292.553
289.617
286.622
292.464
284.301
290.371
283.304
295.671
290.409
293.903
287.068
284.279
303.163
283.271
303.147
285.589
300.703
283.151
300.371
298.358
288.723
302.089
285.391
299.053
283.15
302.951
283.154
283.116
287.667
299.64
303.15
300.33
303.018
299.903
302.758
303.15
301.243
284.948
294.896
302.038
303.149
283.706
283.15
290.276
285.233
285.744
303.131
303.149
283.15
283.15
283.176
303.15
293.432
303.15
303.15
294.315
303.43
303.15
300.4
303.15
303.15
293.636
290.585
303.15
289.811
302.048
289.537
303.15
303.15
285.939
283.333
290.296
303.225
303.15
303.145
285.462
283.246
283.15
288.961
287.583
303.15
284.3
303.15
303.15
303.132
287.315
303.15
303.147
283.276
303.152
302.659
287.898
283.152
283.598
297.296
290.711
303.15
285.902
284.423
301.312
287.095
302.206
290.557
293.831
303.15
303.15
284.007
303.148
302.944
295.838
302.94
302.738
287.157
283.15
285.308
283.218
297.1
302.582
285.365
303.15
283.793
286.702
303.125
283.175
303.15
286.373
283.15
300.096
303.15
299.703
299.877
283.301
283.358
302.319
290.814
301.313
303.15
301.382
301.733
303.15
303.15
298.309
293.388
283.15
288.756
303.15
295.184
283.357
303.15
296.868
298.681
288.965
303.15
302.755
294.179
295.331
284.46
303.161
298.648
296.085
283.977
303.123
302.798
287.357
298.401
289.792
290.773
289.717
283.15
302.942
303.152
303.15
303.174
293.048
296.271
302.975
301.277
303.15
284.444
303.15
303.041
302.855
303.15
293.519
296.201
303.15
285.369
303.095
303.15
303.089
303.158
286.05
293.297
291.089
288.384
293.368
303.15
301.192
291.388
295.329
293.413
303.141
303.15
300.538
303.189
284.237
303.19
303.15
303.15
303.143
303.15
284.935
303.15
284.22
303.146
303.15
290.203
303.144
292.44
295.486
303.134
295.284
285.978
283.445
303.125
302.934
284.671
283.15
297.077
303.15
285.497
302.911
302.028
303.017
298.383
287.046
303.15
298.659
289.88
299.326
283.15
283.612
303.15
303.145
303.19
294.03
303.15
292.405
289.319
303.195
303.15
284.787
298.728
293.188
299.556
302.469
301.575
300.36
303.15
284.712
296.913
302.359
285.576
298.308
292.254
284.463
291.61
303.15
286.641
291.784
290.102
299.411
303.15
286.44
284.084
303.15
302.42
288.122
302.092
283.15
303.15
299.803
301.682
288.974
301.974
301.898
301.798
303.15
289.295
285.124
301.951
302.227
297.113
303.15
283.201
303.15
301.974
303.15
302.797
303.15
291.636
303.15
296.477
283.15
289.424
303.15
283.15
292.159
301.423
300.385
289.177
300.465
303.15
302.488
303.15
302.362
285.198
303.15
300.372
290.373
303.15
300.778
303.15
303.15
293.151
283.15
285.539
293.197
300.896
303.15
291.14
293.826
288.16
289.636
288.094