/*--------------------------------*- C++ -*----------------------------------*\
  =========                 |
  \\      /  F ield         | OpenFOAM: The Open Source CFD Toolbox
   \\    /   O peration     | Website:  https://openfoam.org
    \\  /    A nd           | Version:  10
     \\/     M anipulation  |
\*---------------------------------------------------------------------------*/
FoamFile
{
    format      ascii;
    class       volScalarField;
    location    "5";
    object      p;
}
// * * * * * * * * * * * * * * * * * * * * * * * * * * * * * * * * * * * * * //

dimensions      [0 2 -2 0 0 0 0];

internalField   nonuniform List<scalar> 
111485
(
8.508
1.51531
1.76382
8.45265
1.81827
8.32477
1.54452
1.34942
1.5524
2.26893
1.53099
1.9619
1.55612
1.5138
1.56474
1.59151
0.516167
8.79779
1.55146
8.43131
8.41763
8.37485
1.56229
1.5794
1.81341
8.31183
2.17962
0.879461
1.75638
8.54324
2.96566
0.36071
8.46599
8.51585
8.6892
8.59567
2.94162
0.107417
3.46212
1.61451
8.5991
2.26605
1.61357
2.61923
3.1956
8.67353
2.4757
1.57657
2.26085
8.33888
8.3378
8.02521
8.3418
2.66375
8.34378
0.981996
1.5688
8.62643
2.4659
1.6105
1.61535
8.50677
1.25735
2.90277
8.21643
1.10454
6.54518
1.43504
1.26081
1.35406
3.13001
1.14152
8.16754
1.25771
8.61188
0.661234
8.40772
2.1791
8.37383
8.45077
3.00475
2.54847
8.44507
8.58898
1.24789
1.66227
4.61184
2.67938
3.0636
0.480211
3.2296
1.66602
1.25514
0.197953
2.26784
8.58529
8.51158
2.6752
2.97371
2.84015
8.48834
2.19762
8.57262
2.14611
1.46554
8.36468
8.54244
0.420924
1.69575
3.14369
0.289484
1.1366
1.66412
2.04281
8.30979
0.625597
8.3382
8.62451
1.27035
8.43426
8.30987
7.58672
8.44682
8.62832
2.36752
8.88363
7.57043
0.484413
8.62632
3.68505
2.93397
2.67387
8.60705
7.4933
7.6755
1.51036
8.41904
0.662331
1.38168
1.40222
2.28449
1.40115
1.40289
1.74082
2.40434
0.0799103
8.41689
8.57549
8.58105
1.47253
1.7452
8.41858
2.97227
0.0107494
3.02556
1.46423
1.44998
1.56333
3.10669
8.65614
8.45314
1.45907
1.74525
3.13513
3.07034
0.579016
2.84878
8.63539
3.1619
3.18031
8.5794
8.56643
1.89203
8.49027
0.11753
0.0227157
8.26407
8.15716
8.32749
8.32114
8.14179
8.44905
1.47754
1.4826
1.45595
0.0475897
2.17989
0.794321
2.93956
8.48274
0.68885
8.1577
8.51276
0.799515
2.25886
2.84045
1.04962
0.0949661
8.61166
1.48413
1.72498
6.7179
2.54109
0.458371
8.63205
0.80439
2.0817
8.15315
2.82414
2.4644
1.72993
0.784117
8.1331
8.52487
0.795688
6.53989
2.66935
8.48289
0.803909
0.686659
2.30381
8.66676
0.887214
2.77752
7.1688
8.48807
8.58347
3.13431
3.06803
8.25646
7.87161
0.693046
0.186937
1.07338
8.25232
8.22597
2.89961
8.62173
1.47233
0.687939
0.693752
0.687338
0.69392
8.59032
3.02406
0.547142
8.60628
8.43921
2.67614
1.14062
8.28565
0.346312
0.518386
8.5716
7.40503
2.51124
8.32444
8.32331
7.79371
8.37621
0.606895
0.678713
0.0497056
8.67242
0.525408
8.46011
8.50239
8.6306
2.91754
2.17923
1.19785
1.21423
2.03688
1.19721
1.21892
3.0526
0.183477
0.194816
8.21785
8.56638
3.06143
0.422129
2.25538
0.22985
8.44203
1.21672
1.48216
1.19163
2.08448
3.04509
1.18116
1.20402
2.52782
8.62851
2.16213
8.49114
8.82418
8.35973
3.13318
2.04583
1.59363
8.35306
8.65501
0.94102
0.308278
8.41212
8.53038
8.34885
0.678994
0.199418
1.44813
1.51309
1.6389
7.94508
8.55189
8.5988
0.945349
5.39899
1.60069
3.06976
2.88259
8.44111
8.50199
8.50948
7.66892
1.01413
1.80404
8.6217
1.00308
8.27119
8.31556
2.73081
1.00939
2.02122
0.995483
8.39586
7.65101
8.59
1.00524
0.0596896
2.99022
8.27625
3.83718
2.95639
1.82964
0.898962
4.25734
1.65223
8.40029
1.65374
1.0257
3.04918
2.7199
1.84352
8.53138
8.60021
8.56273
8.45711
1.43273
0.871409
2.02673
1.65292
8.52115
1.92568
8.55254
8.51464
1.6514
8.42476
7.6619
8.68428
8.60365
1.46867
8.62873
0.04838
1.90787
8.37526
1.32351
1.05591
8.32812
1.03729
1.9416
1.04224
2.83325
0.104066
0.205088
8.40729
8.57377
2.61225
8.61841
2.00021
2.76066
8.24602
8.60373
0.988759
1.97997
0.172905
1.91294
8.41134
2.95517
1.95944
8.30634
2.61677
1.97984
8.5255
8.44228
0.0483311
1.81652
8.59941
8.34284
6.97489
8.48655
1.86349
8.48404
8.4768
1.9657
2.95152
2.41794
1.82025
8.33154
7.67726
2.62827
7.74633
2.61609
2.64373
2.24732
6.65724
7.79208
0.0511896
3.16979
8.54054
2.72242
1.9121
8.66796
3.18255
2.2962
7.76602
2.02406
1.95771
0.111512
8.34849
0.207669
2.06988
0.110251
3.1767
7.55871
2.99709
8.60681
2.97592
0.0129262
8.57483
2.02027
2.50537
7.4446
8.66818
7.9905
8.41586
1.82788
0.125128
1.99939
2.01365
2.8161
8.49094
2.01802
8.51617
1.82409
8.28498
8.51437
8.57195
2.01461
8.58189
8.52386
8.58728
8.51155
8.59653
2.5131
8.62958
8.04396
8.55369
8.52279
8.31819
8.60568
8.38742
2.03023
8.5561
2.53415
2.08156
3.31857
8.29262
2.53451
8.55973
8.50466
2.01793
1.99686
2.05196
3.07273
8.00088
2.32587
2.33342
0.138551
0.22391
2.07766
8.56164
0.131951
7.44991
2.33085
8.50273
2.34109
7.58806
0.270005
1.99863
8.47222
8.59262
0.221253
8.4007
2.32242
2.31968
8.60233
8.56247
8.36692
8.56712
2.7929
2.31371
8.24246
8.62059
1.82244
8.37577
2.32741
8.39965
2.44248
8.5088
2.27624
2.32998
1.03346
0.257978
8.25579
-0.0263748
8.27748
8.50651
2.13673
8.50648
2.28893
8.3743
2.36548
8.55065
2.15032
8.41233
7.77644
3.30361
2.13459
2.31274
2.14185
2.32291
1.97815
8.57713
2.32262
2.13986
8.47157
3.13649
2.89098
2.32853
8.27242
8.35764
1.81707
2.37476
5.71781
8.12382
2.13748
1.81205
2.18359
2.19068
0.320813
5.00739
7.71808
2.94098
5.36408
8.4616
2.31213
8.62051
7.79909
0.473038
4.9828
2.95129
4.28954
7.71877
2.19994
1.81409
8.28832
8.03702
1.81213
8.36223
8.36975
8.38811
8.28
2.20384
8.55117
8.60945
2.22455
0.70514
7.08417
1.7874
7.98741
0.697004
8.33971
8.58451
2.21432
8.49969
8.29853
7.77879
0.0862061
6.35351
2.26304
0.479004
8.35607
3.2328
2.26005
1.87475
2.85856
3.57999
1.82688
8.51207
2.26428
1.87089
8.63621
1.07338
2.5513
1.9186
0.0775307
1.92559
1.92061
8.61035
2.32398
2.82248
7.75951
1.92382
2.33539
6.4723
0.476602
1.91915
2.343
2.02625
2.04502
0.479983
8.3025
2.04131
2.29642
8.4465
2.16881
2.17144
0.51255
8.51059
0.0750561
8.65429
8.42701
8.53589
8.27955
1.86875
7.83045
2.75526
8.51756
8.29392
2.17843
2.18348
8.39819
2.32774
8.50508
8.62859
8.34557
2.38404
2.32087
7.79437
8.63782
8.49966
8.51917
2.89764
0.512706
7.68338
2.13107
3.1332
8.60057
2.13445
2.46738
0.301225
8.35533
8.48398
1.11873
0.502978
7.7552
8.57388
8.22401
0.826318
8.57103
8.34916
8.47604
2.113
1.68264
8.37879
8.6098
8.44396
0.332084
8.61688
8.31176
2.39
2.9025
7.74195
7.10299
4.13047
2.43934
0.0140183
8.18537
1.79139
2.51649
8.62925
8.33656
8.42364
8.49094
8.55903
8.39023
2.12539
8.50375
8.4222
8.27618
2.12753
0.498028
8.3196
8.34369
2.44625
0.503547
0.517075
8.36415
8.42846
0.508612
8.57989
2.13431
0.499836
0.523662
8.3095
8.48617
8.48568
8.52797
1.82833
8.44036
8.40107
2.67299
8.48065
0.870274
2.50914
8.23142
0.485268
8.24305
0.868239
2.21536
2.29049
2.4268
2.70353
7.93853
0.862347
2.45391
0.0129171
8.28944
2.2024
7.79151
0.154525
8.53739
2.52657
2.46867
2.52295
8.36027
8.49408
8.67099
0.502412
7.99099
0.318145
8.09384
1.64466
0.144729
0.358553
0.508208
8.39153
8.27883
8.17075
0.515602
8.2967
7.94251
3.21296
8.61566
8.61607
8.48392
8.42752
0.367909
8.19873
8.48208
2.52592
7.9763
8.63124
7.72374
8.46909
2.51562
0.356147
8.42131
1.8356
4.11508
2.52943
3.18938
0.442357
8.56704
2.23554
2.87612
2.53219
8.5949
1.97715
0.367414
7.46867
0.338788
3.07888
3.19226
1.33571
0.239977
3.1135
0.0808215
0.322368
8.51849
8.27558
0.238967
0.238927
8.5945
0.242557
1.99865
0.320346
8.2484
3.1631
8.53619
0.331018
0.315572
8.34279
0.135545
0.319349
3.1478
0.0728747
8.21369
1.44548
3.15851
3.3694
3.12812
2.72719
8.51043
8.5412
2.67819
8.42247
2.06308
2.74271
7.55718
3.12179
2.90497
3.22273
8.4272
7.41901
0.748216
8.62536
9.20463
2.71957
8.28122
8.32526
2.96721
2.8546
8.42486
3.18296
8.48861
8.4989
8.63324
8.50966
8.34834
8.5757
2.75951
8.26879
8.5796
8.6021
2.55255
2.74856
1.7038
0.740178
8.36129
8.29663
2.84517
8.46287
8.32599
7.05387
2.7776
0.96743
8.36104
8.31582
8.2899
8.31195
8.53903
8.29947
2.81511
8.29825
3.13711
1.64464
8.5171
8.50166
8.33977
3.17721
8.33711
8.45501
8.53073
3.15751
8.54436
2.80932
2.92875
3.1172
8.38129
6.64117
2.83305
1.58228
8.14328
3.1489
2.35627
8.35837
8.20009
7.62734
8.31464
0.746534
1.43137
2.8856
3.11753
8.34799
0.742322
8.17443
7.69879
7.60237
8.58358
1.29895
8.47412
8.3425
2.98812
0.965855
8.34171
2.30337
8.02029
2.8786
8.41278
8.50364
8.54397
8.47485
0.35121
1.41627
3.64211
8.35764
8.2629
0.352399
8.42536
7.84935
8.51328
2.10821
3.12531
1.83335
8.3478
3.01902
3.00807
8.54595
3.01934
8.28232
2.62746
2.36382
1.38457
2.9953
2.95375
8.44385
8.49257
8.49382
3.01159
8.66885
3.02807
8.64639
3.87238
8.34206
1.59469
1.64665
8.34587
8.4072
8.35019
8.6136
3.02651
8.35221
7.63309
0.344635
3.03314
8.35477
7.82658
8.20728
7.84452
8.28021
8.45025
3.04439
2.37312
8.45055
8.31214
3.00571
8.51616
3.04416
0.357169
8.27044
2.67048
8.48075
0.212805
8.26308
1.76361
8.33757
3.06388
3.11309
3.10023
2.68291
2.67952
6.34911
8.17699
2.70229
8.33706
1.29465
8.37973
8.56734
8.07996
8.55678
8.58725
8.59085
2.67455
2.67154
8.48234
7.47516
8.35732
2.71847
3.16704
8.52807
1.30198
3.13883
8.34142
0.463921
0.327227
1.23989
3.11101
8.42306
8.47018
8.53508
8.39516
1.30737
8.51943
2.74114
8.45326
2.75056
1.77231
8.54452
2.73582
8.58447
8.41608
2.76377
2.89569
4.74861
8.45373
8.34341
8.30592
1.35029
8.11671
8.67185
8.17018
4.03251
7.63205
3.0827
7.82615
8.14525
8.21674
0.39604
0.351546
1.98738
1.48249
8.6352
2.756
8.50605
8.59508
0.344275
8.25267
3.03913
2.74616
0.250599
2.78115
2.80987
1.95636
8.57281
2.53154
1.70386
2.38999
2.83645
0.999019
6.86957
8.50238
1.89588
8.36379
8.31964
3.25103
2.26513
2.79602
8.49755
8.4103
2.97899
8.34032
8.26839
2.80008
8.34609
8.34462
1.21402
2.80313
2.85576
1.17558
0.600309
8.29346
8.4402
3.22217
1.15547
8.38737
8.34429
2.03147
8.28322
7.45021
7.65638
7.68248
6.18284
7.46699
8.38835
1.92521
8.30161
2.8488
8.33794
5.62401
8.27636
8.26804
8.57663
8.4209
1.79404
8.42514
8.42104
7.75825
8.32007
8.57041
8.4989
1.09701
8.43929
0.995414
2.86507
8.2673
1.96466
8.36747
2.43516
3.1309
0.262859
0.277177
8.30881
0.296783
1.79687
3.09093
8.62688
2.9156
0.869448
0.137113
8.02753
0.173825
8.27501
8.57093
8.32756
8.38087
0.175628
8.48901
8.32566
0.139895
2.89382
0.137184
8.60118
6.82986
1.95477
8.53676
3.20161
8.33903
0.288324
8.25322
8.27448
1.93453
8.33538
2.95024
8.51637
8.33793
0.859947
2.49481
0.633759
1.39204
3.1982
1.10952
8.34171
8.42828
1.66452
0.657902
1.08734
2.9118
8.42409
1.00421
8.4094
8.32365
1.68802
2.95255
8.28822
0.669776
8.56614
0.640156
0.593913
8.16654
8.38404
8.52788
1.66432
8.48534
8.48549
1.67589
0.637191
2.82052
0.16361
8.35269
8.56321
2.07911
1.68754
8.34757
1.67201
8.28294
1.66403
8.36932
8.35247
1.65662
8.42908
2.36888
1.53444
8.29217
8.38559
1.52996
7.44311
1.86418
8.50347
2.84889
8.51829
7.49068
7.35673
1.55191
7.78488
7.72574
1.42622
7.71127
6.01809
7.38762
8.26704
8.36233
3.09048
1.86315
8.50293
8.50671
1.83762
1.84627
8.29191
1.68464
8.39355
8.3618
2.13354
2.03149
0.105113
8.36473
8.5086
8.48892
8.42196
8.27994
8.28403
8.51045
8.29862
8.3095
8.38566
8.4931
8.36362
8.45121
8.35606
8.31325
8.29722
8.35387
8.38472
8.43613
8.48327
8.58899
1.88016
8.47073
8.35737
8.5959
1.28291
8.63379
8.35996
5.23671
8.22578
8.163
1.29626
8.53266
8.17614
5.55982
1.30487
8.4517
7.53756
7.84446
8.32271
2.61231
1.30984
1.31596
1.26163
0.78529
8.36521
8.32784
0.971642
1.02089
1.25694
8.40669
1.15684
2.52905
1.24935
0.212301
0.240657
1.2673
0.401383
1.24743
8.6371
1.41727
1.15284
1.76535
1.15408
8.53124
8.49962
8.56527
8.48253
8.52635
1.01271
1.17039
8.52545
8.31268
8.29688
8.31045
8.33315
8.38069
8.24762
8.36409
1.15511
3.12319
1.1633
1.93815
8.24886
8.19655
2.58104
3.18254
8.38027
8.42208
1.85406
8.65301
8.47623
1.16415
1.14467
1.15431
1.83444
2.55985
8.37919
0.0180019
1.38234
7.63461
8.36623
1.36554
8.36544
8.27105
4.9135
4.20853
1.95246
8.28675
8.62962
2.91582
1.40706
0.0329928
1.0185
5.50903
8.48703
2.73261
8.45395
8.64687
8.17477
1.82603
8.32905
1.01177
0.0490043
1.3516
1.39748
8.56639
0.889555
8.59348
8.11262
8.57213
8.33699
0.33237
6.17579
8.42616
8.44402
8.51668
1.01768
7.59519
0.911428
1.01458
0.322886
1.01644
8.31171
8.27909
7.57624
1.8077
0.767831
2.84396
8.33707
8.50532
7.58346
2.59056
1.92957
8.42408
0.741375
4.96052
1.40417
0.765132
8.46526
7.46981
0.766611
1.0112
8.50326
2.27019
2.19174
1.93774
0.890133
0.795628
0.828008
7.63418
0.304557
0.827464
0.702635
8.35708
1.34586
7.68778
1.77325
0.862817
8.67054
0.219209
0.820954
0.89989
1.07005
8.80893
4.73956
2.8684
6.04648
0.827815
8.09708
0.261324
0.819361
8.32889
8.43869
3.20581
3.12244
1.18448
8.77037
1.98185
3.17626
2.76066
2.95169
8.30709
8.65384
1.00627
8.53616
0.909413
3.13272
0.822403
0.256519
8.42584
2.41055
0.999534
8.3569
7.6877
0.641207
8.57299
0.644457
0.603912
8.51183
8.79087
1.41367
8.39026
8.35855
8.63353
0.24955
3.40784
1.8193
8.67174
1.76769
0.446422
8.23838
0.442257
0.463781
0.281369
3.13758
8.39353
0.899745
0.192263
0.456563
0.458646
0.292069
3.06554
1.62739
8.50246
0.0159757
0.317339
8.46581
0.458855
8.59699
8.47893
8.60614
8.62376
8.43939
2.60701
8.55986
0.441943
2.11619
8.63777
2.04776
8.31694
0.314805
8.35723
3.03727
8.13077
1.70544
2.70659
3.1767
0.479331
0.315993
1.76243
0.283123
0.486041
5.11274
0.479995
1.12889
0.49056
8.63705
1.01334
3.14655
0.497014
1.57761
3.13898
8.62539
7.65517
8.33102
1.78478
8.43355
7.18019
0.314929
8.53698
2.19181
8.3516
8.60195
8.42442
1.1129
1.86648
0.533764
2.75959
0.262627
0.956299
0.912927
1.14025
0.361768
0.907755
0.941403
8.34878
8.52796
8.6661
1.41185
0.994915
8.25403
8.4234
7.26052
0.917993
0.373135
8.41466
0.941672
8.52635
3.14902
1.79346
2.85329
8.4629
8.50994
1.11793
8.48045
2.36871
0.490495
8.08611
1.26158
1.58034
0.207685
8.33448
2.92775
7.78291
2.26157
1.81782
8.46986
8.62124
0.47057
6.89
8.59445
0.616802
0.241622
8.49938
8.32956
7.74138
0.916456
7.24174
1.42394
2.60034
2.23091
8.50773
7.70478
2.54621
8.51259
8.49804
8.55647
8.43332
7.78213
8.16761
8.06918
8.3542
8.27147
8.0096
8.5403
8.11379
2.37388
8.11497
7.53643
7.31412
8.86036
7.62555
8.51018
2.5994
7.93338
8.15289
2.6662
8.42625
8.65613
8.28592
2.60563
8.53077
2.59856
2.85276
2.23618
7.91412
8.41447
2.59961
3.13151
8.27958
8.63333
1.4106
7.85596
1.40295
7.80858
8.50147
8.19527
1.39982
1.38872
8.54027
2.0272
8.36081
7.92457
3.027
0.74019
2.59683
8.60301
1.40594
7.82398
2.17761
8.39131
8.34079
8.35526
7.67661
0.734072
0.888219
8.58575
2.92316
8.35525
8.36054
8.35379
8.43854
2.44705
2.44484
0.906777
3.367
8.64582
1.798
1.43032
0.677285
2.44448
8.62631
0.717322
2.44822
1.26616
3.15144
1.33286
8.34705
1.6872
2.48384
1.4177
2.49779
2.60491
8.34024
2.63052
8.23095
8.51746
1.16555
8.5891
1.79127
8.5516
8.34514
8.15971
8.3413
8.61131
2.48009
8.32945
2.0697
7.92713
8.52525
1.74316
2.40096
0.951993
1.99891
8.61219
3.84362
8.58826
2.19061
8.3449
1.7443
2.44027
2.47793
2.21318
8.35209
8.35638
8.29503
0.773578
8.53236
8.35599
0.7723
8.24626
8.33184
2.47533
8.35167
1.36031
3.12782
7.90122
8.00901
7.96859
0.904175
1.51007
8.43343
0.0320788
2.13876
7.8055
2.51917
8.56459
0.787217
1.76865
0.690428
8.41796
1.86469
0.983298
2.60128
2.42349
2.059
8.47236
8.49313
3.12945
8.37176
8.39095
8.53283
0.794315
2.55209
1.0333
1.5875
7.71772
1.85603
1.42136
1.52267
1.80156
1.86428
2.31893
2.0454
8.42196
8.41618
8.41771
2.05386
8.52696
2.14199
6.7232
2.04344
3.04988
0.794168
0.394737
8.3365
8.541
2.05004
2.0393
8.52315
8.44121
8.6548
0.859677
2.04034
2.10704
2.12507
0.217718
1.4209
8.37423
8.5964
8.50396
0.189121
1.36381
0.0254355
1.55284
0.891997
2.13994
8.25455
8.50236
7.38093
8.27189
0.228873
1.83219
8.48434
8.34074
8.34292
8.63569
8.63795
8.15283
2.2079
8.40732
2.68391
3.31484
8.3093
2.16728
0.0722943
0.832322
8.5908
8.19646
2.19662
8.47796
2.20542
2.73708
0.910303
8.12384
7.04045
8.39983
8.40749
8.37629
8.08468
4.71015
8.33645
2.22375
1.02792
8.50636
8.49782
2.25885
8.37247
8.48162
1.24527
3.15203
8.34627
8.34327
8.15599
0.478371
8.48284
8.48907
4.13792
2.25635
2.26075
8.42331
8.30672
7.82708
2.26252
2.24228
2.25822
1.60906
8.36825
0.400589
0.0860223
0.103391
8.56716
8.60851
8.50465
8.60232
8.48315
1.24377
1.27294
1.02488
8.65062
8.5592
8.47871
8.53969
8.23441
2.73758
0.209668
0.0425353
8.27972
8.4676
8.67226
2.83428
2.55455
2.92856
8.49581
2.22657
8.46141
8.30199
8.48998
1.23969
1.37303
8.36056
8.32052
1.68169
8.4929
0.911752
1.13416
5.08896
8.35411
8.27705
0.918224
2.76357
8.27385
4.97433
0.152742
1.8177
8.40964
8.36891
8.63795
8.50679
0.257811
0.638039
8.37075
2.75713
2.38356
3.52854
8.43475
8.37409
8.36305
8.37091
1.86182
8.54027
8.43922
8.22811
0.426633
2.09399
0.526128
8.2688
8.61456
2.38103
8.10478
8.49491
8.37976
8.40846
1.31805
8.15718
8.32601
8.3376
0.520626
1.37148
8.3707
8.57915
8.32406
1.59608
8.3979
8.3196
8.32865
8.5903
8.56376
3.22877
1.84146
8.69344
1.46294
1.84012
1.28453
8.65079
8.6269
8.46575
8.61052
8.32836
1.74088
8.43418
7.91616
8.00605
2.38442
8.09049
2.37366
8.48564
8.52535
2.84997
3.58618
7.8337
2.39829
8.43104
2.39091
8.4721
8.34062
8.39456
8.98732
8.35559
2.71449
8.35518
1.54078
8.54721
7.75808
8.56921
8.3713
0.490134
2.20906
8.41235
5.05896
8.62311
2.40292
2.71422
2.19733
8.63312
3.12214
2.18556
2.72717
1.87085
3.04479
2.20813
8.17863
8.34806
2.99572
0.779001
2.19872
8.33311
8.12068
7.41426
5.42633
8.65328
8.28801
8.58365
8.63252
8.66664
8.48899
2.18132
2.86849
1.03599
7.66871
3.02125
8.58383
1.76589
8.50632
8.66212
8.46724
8.14742
2.85332
8.15917
8.62478
8.43048
1.51745
8.44366
8.54046
2.82682
8.3187
6.93528
6.44224
6.24636
8.63651
6.37823
6.26895
6.35162
6.76199
8.35779
8.3577
1.50167
2.28319
7.77433
7.7718
8.37889
1.52009
8.44521
8.26868
2.82993
8.38415
8.47465
2.42606
2.86765
8.6393
8.30727
3.07346
7.71805
8.24868
3.16134
1.63261
1.6023
8.23933
1.61938
8.60916
1.00851
3.10181
1.60804
8.44356
3.11039
1.61471
8.31256
2.76111
8.32398
1.52068
8.03091
1.50661
8.24651
2.71104
8.34017
8.20396
8.54456
2.50088
2.50906
8.61841
1.65293
2.74002
8.69678
8.43899
1.24456
0.0668577
3.24696
8.64535
1.70005
1.67449
2.84282
2.87563
8.66465
3.22483
8.3436
3.11949
8.50652
2.36858
2.20059
8.32048
1.0534
8.26935
2.81539
8.4145
8.3238
8.36195
8.51945
8.35885
8.49389
2.27754
1.26508
3.10206
8.35244
7.27861
3.09751
8.36387
8.64288
8.32876
8.63924
8.35312
0.0608616
8.44293
8.60053
8.34486
0.0528083
8.33535
8.4327
8.04926
0.26086
8.46588
0.250415
2.90595
2.21195
0.257706
0.258457
8.4647
8.36225
8.45457
0.277432
0.536225
8.18256
7.26554
0.268396
8.53433
8.61106
3.09633
8.32296
1.66752
8.35311
0.258858
2.80462
8.36119
8.3533
8.3565
8.58693
8.53091
2.82905
8.3581
0.271196
8.34457
8.41654
0.604118
8.54864
1.7689
8.206
8.53921
2.30402
1.0555
3.1361
8.58486
8.59112
8.46083
1.05146
3.03587
8.33908
8.43277
8.12124
0.659109
8.35205
1.7847
3.1226
8.41031
8.37645
0.670405
8.49983
8.10954
8.46584
8.31008
8.506
3.11144
7.20742
8.26952
8.56604
7.31177
8.38035
7.44798
8.30007
8.33989
8.26414
1.05678
8.29833
0.650783
8.23889
8.36518
3.33479
0.659399
8.34887
8.31631
8.37198
0.640152
7.62985
8.43668
8.19799
8.36726
0.717667
8.34952
3.14115
8.65554
2.14845
7.75337
2.5733
8.32008
8.52609
2.04603
7.52196
8.35476
0.53335
2.10401
8.64045
8.58421
2.29434
2.61952
0.650603
0.647613
0.657352
2.30743
0.643612
2.66843
8.33352
3.14013
7.33096
7.26505
8.42511
8.29085
8.5193
0.638079
8.64091
8.66135
8.62984
2.96992
2.65062
7.13871
2.40861
8.60085
2.47128
8.23715
2.87207
0.70218
7.37303
2.10953
8.30015
8.30809
8.41579
0.714338
2.15721
8.45847
8.48796
0.71901
8.58356
3.20987
8.5329
3.05695
8.49311
8.41468
8.6097
8.41022
0.575895
8.4093
3.59372
8.54705
2.21753
8.42537
8.38339
6.15127
5.9611
8.38254
8.39248
8.50392
8.60499
2.10317
3.19267
6.69605
8.57369
2.15554
8.37539
8.5298
3.12251
1.63438
2.97876
8.42067
0.398681
2.28836
1.11853
1.74296
8.51104
8.6658
8.66855
8.59422
8.42683
8.41101
8.41085
8.29129
8.42072
8.41112
8.48225
8.40333
3.04514
8.41575
8.37082
8.75674
8.5944
8.42839
5.11459
8.36882
8.39516
1.73571
3.1539
8.30537
8.64416
8.47698
1.52227
8.62968
8.49443
3.13048
8.4786
8.35793
8.53036
8.56703
2.85616
8.45544
3.22524
8.57033
8.52495
8.40052
8.43159
8.38095
3.14043
3.14148
0.847527
8.5991
8.22995
8.63326
3.15285
8.3539
3.13741
3.17103
8.47131
8.31036
7.13824
3.0934
8.31614
7.80959
3.09639
7.19937
2.35519
8.55113
2.71064
7.17622
6.83988
8.48433
2.07831
8.48569
2.09201
2.85913
8.33753
2.10444
3.10729
8.49536
2.86835
8.3289
8.33114
8.36156
8.32118
8.26523
8.39564
8.35307
8.6372
3.13752
7.86608
8.44576
8.52766
8.33744
8.3216
1.53342
5.90545
3.18309
3.24916
8.35876
1.98638
1.98906
8.46159
7.80359
8.29519
8.2938
8.3167
8.3425
7.44427
7.88517
2.47069
8.41244
8.64648
7.13425
7.45694
8.43366
2.0683
8.27836
8.28949
8.58787
3.00441
8.63242
8.37259
2.32954
8.46063
8.59711
8.27059
8.68773
2.34454
8.42094
8.40605
8.38571
8.31866
2.48317
3.00938
3.00413
2.07408
2.62399
2.62957
8.48921
7.52141
3.24252
2.56189
7.51555
3.24071
8.56877
2.75122
8.28228
3.0088
8.44923
8.3005
2.63655
2.55176
8.33518
2.55712
8.44127
8.51396
3.00876
2.87434
8.59673
8.39455
8.33365
8.42277
8.37815
7.60829
8.60083
8.50964
2.54719
8.60454
8.48702
8.42942
2.64602
8.36489
7.63235
8.44719
8.40442
7.99926
7.73619
2.64505
8.28428
7.75355
1.55623
8.58375
2.55253
2.53559
8.37923
1.60327
8.49605
8.10702
8.58506
7.68321
8.55442
8.63704
8.66677
8.65418
1.59141
8.61495
8.54377
8.61325
8.26405
8.4398
8.28963
3.04637
8.48578
8.57727
2.86248
8.46028
8.43277
8.62958
1.57857
8.40993
2.95637
7.61445
3.15326
0.198465
8.41916
7.5195
1.54312
7.35206
8.41619
3.16703
3.10426
0.0128779
2.76379
3.24304
2.70376
8.58644
8.26751
1.94177
3.07012
2.98401
1.88253
3.17015
8.53694
0.357246
1.92986
1.92924
8.63361
1.92481
0.303951
1.1148
1.83093
3.05667
1.99912
0.433579
1.79083
0.0666445
0.829135
1.84033
7.64244
0.102719
0.0129592
2.07573
2.41186
0.110822
1.83421
0.0813914
7.73771
3.11754
7.70403
0.994583
1.94379
2.44649
1.46011
7.70088
8.42676
1.79471
1.47315
3.07247
3.00994
0.513507
1.94399
6.37627
1.94975
8.48551
3.41023
3.092
2.75539
1.12317
3.09692
3.13543
2.23431
1.37943
1.38993
1.01759
1.95032
0.146736
7.21098
6.70756
1.96125
8.37376
8.48222
1.85409
1.8867
0.164834
8.39151
2.78621
2.87471
1.34947
6.83051
8.48453
3.06425
0.0467965
3.09444
8.66641
0.500192
8.53138
1.44913
2.20807
2.67243
2.69932
8.38383
8.49606
2.92294
1.89037
1.8972
8.49609
1.5228
1.88779
2.41362
8.47783
1.36993
0.121916
7.68678
1.12305
2.59325
2.94893
8.23814
2.83957
3.30904
8.49416
2.33928
0.221387
4.35113
2.3676
2.37889
0.440492
2.07997
2.39139
0.162522
3.05192
2.98607
2.24972
0.394684
1.99772
3.15454
1.46611
2.38587
0.833836
1.8496
3.16406
0.45789
8.51157
2.37641
2.36486
3.02652
0.602482
2.74451
8.27532
2.36805
1.11884
8.51771
2.77109
0.0462886
2.37998
2.27537
0.292027
0.0244133
2.05183
2.2938
2.81805
8.51717
8.47821
2.83465
8.59132
2.84373
2.78715
8.16812
0.296698
2.43092
1.50257
8.61287
1.11865
1.27253
2.785
3.08868
1.25137
0.550579
1.54142
2.56973
8.48266
8.32846
3.03934
2.55559
2.75599
1.61619
8.32821
2.57202
2.21795
8.16274
1.53267
1.95688
0.0964643
3.22706
2.64364
2.20886
0.472734
1.70377
8.59371
2.38257
1.22541
2.26345
3.21847
8.33075
2.6701
8.36374
8.45587
1.28712
2.20477
1.39673
3.48329
2.86201
4.32986
8.4428
2.20174
2.23079
1.4553
1.4268
8.35809
8.63356
8.62067
1.42725
1.4275
3.20729
1.107
8.11182
8.3394
1.42149
1.58689
2.71947
1.42934
1.42272
1.71247
2.60141
6.08134
8.35752
2.16744
0.168526
8.33673
2.03606
1.69532
3.33404
2.16605
1.69508
2.82146
8.33782
1.46503
1.75868
8.58106
8.12668
0.109651
0.223261
0.606573
0.258888
1.70453
1.71993
0.4355
1.1106
1.57938
0.249274
8.32564
8.31254
0.0095073
0.291677
1.6924
3.21379
1.64938
1.60708
2.24565
1.39181
1.64247
8.39168
8.58417
3.19069
8.31771
7.61544
1.78042
1.13349
1.73093
3.13273
7.88612
2.67194
3.22867
7.98041
3.22648
3.17943
1.64035
1.65181
0.119723
1.90516
3.06173
0.281578
8.46614
7.94516
2.9493
0.546224
1.42418
0.563351
2.76526
2.53188
3.03819
7.96405
1.74962
0.401425
1.51783
3.214
2.66109
2.97106
3.18286
1.74601
0.407773
7.89588
2.45267
1.68106
5.14955
7.66598
7.32526
1.52027
7.5698
0.0933572
1.51661
1.41995
1.90417
2.88267
6.51421
5.29671
8.42301
7.51996
2.82684
8.41514
8.41519
2.70045
8.47175
1.11202
1.4704
1.35803
1.04098
1.10202
1.94523
7.30099
0.538068
0.245046
2.51276
1.84506
1.03384
1.7356
8.43284
3.19031
1.01878
2.23575
8.41764
2.32083
1.80699
8.41358
8.35869
2.76164
1.00273
8.56689
2.04477
1.8442
2.77788
8.5704
8.40949
0.172978
3.15213
1.92595
8.42307
8.55278
8.41344
2.21333
4.99472
4.85054
0.701092
3.10069
8.65493
0.703945
3.11033
1.56775
0.187241
0.184926
0.756703
3.14154
0.20633
8.65744
0.789882
0.4214
0.0695044
1.26215
0.302846
0.296066
0.31431
0.331799
0.0888827
2.87086
3.18815
1.721
2.80891
3.0857
3.12627
0.320649
3.18785
0.325559
0.0823015
0.921741
0.569558
2.77915
0.564774
3.20681
0.654441
8.08606
1.75563
5.77176
1.304
1.94185
8.58193
2.38424
8.09041
2.03198
8.11069
8.2869
1.3776
2.43734
7.68448
0.545198
1.42898
2.42799
8.34168
8.58843
2.85127
0.783692
3.15246
1.29114
0.446024
2.37127
3.01719
2.26724
2.39031
7.38388
1.74041
8.44167
8.32683
0.981685
0.714083
3.14859
0.940667
0.631274
2.39245
2.47415
8.23212
3.03213
0.617089
2.36053
8.23292
8.62873
1.74494
2.03882
7.17125
2.7583
0.0680837
2.09486
0.0893007
0.515526
1.30826
8.36083
6.22887
1.0447
2.95978
8.66819
0.984201
2.76145
2.18798
3.36279
1.04567
3.33512
1.74383
2.86815
6.45536
2.92835
8.41881
2.01382
2.42092
0.493498
0.0294467
7.52875
0.0433138
2.96447
2.29999
2.86718
7.97414
8.41121
1.10141
2.92924
2.30225
1.98916
2.74343
0.796168
0.160997
1.51008
0.18568
0.128255
2.76903
7.80534
3.1512
2.26926
0.0136192
2.70306
7.91874
8.34236
2.05862
3.11696
8.49017
3.10945
2.51766
7.93254
6.556
6.73949
2.46644
1.02439
3.50629
6.97533
2.75612
1.16357
8.08416
0.383477
7.612
2.18837
0.803704
8.53998
0.214088
2.72457
2.71973
0.714636
8.37744
3.15754
2.59854
2.89038
2.72295
2.83094
2.88851
2.48518
3.2362
2.55875
0.4195
1.04002
8.33609
7.44798
7.40903
8.16869
2.33737
1.20785
1.06098
2.71029
0.616935
1.07224
2.09223
2.43607
2.33763
0.777207
2.51008
2.70435
2.21065
0.576627
8.43513
2.69905
2.68946
2.38291
2.52682
8.08848
1.41555
1.44455
1.97544
1.98213
1.58795
8.26664
1.57975
1.57837
7.61725
1.60817
2.25066
8.17059
1.59372
8.15265
8.6298
1.4157
2.42567
2.26492
1.57218
8.33264
0.264671
2.50865
8.6291
1.28905
1.64174
1.34658
2.30714
8.17471
2.44668
2.43693
2.14693
8.24041
1.13255
0.438108
2.19038
0.976302
1.21664
8.62051
8.11826
7.83496
0.095126
7.92551
1.10657
0.9196
0.310602
8.33602
0.344958
8.2032
8.43583
8.29605
1.35842
0.0329468
3.17814
2.19147
1.19215
8.00068
7.61218
2.7454
2.69925
0.913517
3.0525
1.18727
3.10248
8.42891
6.9173
7.00293
8.3856
7.04029
0.0559331
8.47801
1.10968
2.07246
1.19182
0.241382
1.4182
7.3766
0.93399
2.0772
2.41792
2.84636
7.40553
8.41187
2.49331
0.935965
3.22439
3.08516
3.05328
3.14642
3.17313
3.19824
0.711622
0.167345
0.715574
2.89922
0.69795
2.08751
2.2428
0.479568
0.698329
3.04114
3.05742
3.07388
2.80907
2.62844
0.493499
2.86617
8.62002
2.74656
2.19454
0.270564
0.169474
0.0619753
2.09177
1.58468
2.08056
0.180208
3.13043
8.37218
1.11365
1.5043
1.7092
8.35673
1.27563
0.715453
0.188473
1.5586
8.64856
8.34512
2.27081
0.453632
0.430654
0.0942446
8.23554
8.51972
8.49693
1.70894
2.05025
0.402011
8.51403
1.13636
8.34121
8.34363
0.185912
0.13228
8.29172
0.407269
0.419889
0.0680074
8.62009
8.5796
0.740177
2.0903
8.34376
0.36388
0.357606
0.300905
8.3627
8.36359
8.35119
0.305839
0.363329
2.73249
0.353585
8.59772
0.312079
1.96544
2.76018
2.53188
8.13791
8.4056
0.328134
2.9051
2.83095
1.45473
8.14477
3.18193
8.43684
0.501457
3.07258
1.98485
8.18014
7.78264
2.93553
3.04743
7.69141
7.72138
8.44891
1.31453
8.04886
7.50775
2.05937
2.01856
8.44589
7.61884
1.75935
0.34422
0.330968
1.35244
1.13821
7.69354
2.09475
7.33126
7.23155
8.27458
1.42757
2.32068
0.332785
7.25934
8.5874
2.01989
3.05325
2.14181
2.34536
1.84319
1.61358
1.83426
0.359707
7.18586
1.97911
1.46149
0.353123
1.33413
2.31792
6.1193
1.31636
1.31311
1.31025
1.30933
0.459853
7.06111
7.89296
1.52639
7.91956
7.97382
1.83305
7.9338
1.10406
7.82787
7.88592
8.22774
7.68118
1.4583
0.48731
1.46958
7.79933
0.710188
1.39191
1.95234
7.87975
8.51127
1.4649
1.54738
3.14725
1.46686
7.68265
0.0190543
0.335576
0.260791
8.33617
8.25262
0.872114
0.738177
8.27447
7.90526
2.67771
0.0255583
7.79772
2.93763
2.66563
2.67422
1.61355
7.85826
1.83204
4.04533
0.178712
0.0874189
2.69155
2.64817
2.46306
1.03517
1.87663
7.72971
2.09627
1.87158
3.11581
2.87975
2.67257
7.85593
1.28435
1.91321
1.08486
1.62503
1.88941
3.04893
0.209237
2.81757
2.49435
2.68765
0.767976
2.69962
2.83321
1.8605
2.2786
8.33882
3.08971
8.66347
1.84525
1.92556
2.69958
2.8246
2.63869
1.87077
1.87893
2.97469
1.45791
0.500646
8.30568
7.0452
2.82492
2.81787
2.21744
2.8392
3.12125
2.92353
3.12147
3.16358
7.20568
0.485484
3.18196
2.37808
7.31164
0.0489426
7.02131
1.42987
1.87149
3.16095
1.28606
8.62416
1.81248
3.08357
0.055268
8.4226
3.1053
0.425173
2.44555
3.09141
3.10554
7.10545
8.40504
1.32674
1.97594
1.04433
1.97235
1.77723
1.99771
3.16615
7.526
0.0883157
7.3764
2.00687
0.485148
2.1226
8.56148
6.75462
2.9243
1.99778
1.44665
2.14609
8.41553
2.13024
2.15104
0.103632
2.14685
5.14574
4.23293
2.14564
8.42504
8.34894
1.28716
5.08003
2.88921
8.58605
0.967976
8.25912
2.8329
8.56828
0.60897
2.79811
3.11927
2.13554
2.24538
1.93102
2.67008
3.15693
0.185646
3.13844
1.2022
3.11857
8.10354
0.70234
8.32132
2.25405
2.28117
1.8002
1.59505
2.2377
0.122988
1.41525
2.21716
2.17549
3.20354
2.62521
2.94044
8.35105
2.21667
0.512203
2.903
0.486534
2.23011
2.87271
0.706721
3.092
1.99448
2.94271
2.0143
1.22492
2.26532
1.82878
8.34679
8.33522
1.91949
1.96876
2.46531
8.45483
2.7308
0.152746
1.87695
1.42312
0.899073
1.49403
1.2737
1.96641
0.00842154
1.12555
2.60968
0.948922
1.70235
1.52647
1.39686
2.60658
2.23727
0.939017
3.26358
2.09506
3.10968
0.826611
2.35992
2.96989
1.06773
0.0970767
1.49568
1.95862
0.854886
0.710746
8.27046
2.32578
3.06382
3.10811
5.02108
2.3318
7.34922
1.29761
2.31941
0.337096
2.48916
8.323
2.26898
2.60677
-0.042106
2.36716
2.85963
2.59039
8.41319
1.54407
0.223033
2.51644
3.16722
3.06216
8.26341
8.42944
3.87137
7.86014
2.59979
8.37852
3.2132
3.84525
7.84404
7.88792
0.19471
7.9631
8.47946
2.59952
1.48855
8.61439
1.77723
1.34854
1.84969
2.40226
8.48065
2.96988
2.62276
2.49481
3.48545
8.48482
3.13349
2.54728
2.8458
8.40748
1.51996
2.53262
8.31644
1.32651
8.44062
8.30651
3.10296
2.50725
8.51899
3.19578
3.10155
3.13804
3.07939
2.17272
3.03164
3.00601