/*--------------------------------*- C++ -*----------------------------------*\
  =========                 |
  \\      /  F ield         | OpenFOAM: The Open Source CFD Toolbox
   \\    /   O peration     | Website:  https://openfoam.org
    \\  /    A nd           | Version:  10
     \\/     M anipulation  |
\*---------------------------------------------------------------------------*/
FoamFile
{
    format      ascii;
    class       surfaceScalarField;
    location    "5";
    object      phi;
}
// * * * * * * * * * * * * * * * * * * * * * * * * * * * * * * * * * * * * * //

dimensions      [0 3 -1 0 0 0 0];

internalField   nonuniform List<scalar> 
214403
(
-0.00268999
0.00206194
0.000114459
0.000513594
-0.00128185
-0.00434291
0.000349278
0.00527548
-0.00399426
2.06874e-05
-5.21769e-05
0.00402575
0.00353729
-0.0023758
-0.00592994
0.00476844
0.0047739
-0.00602854
0.00142695
-0.000172312
-0.00207908
0.00216546
-2.1557e-05
-6.48245e-05
-0.000333989
-0.0006361
-0.00357872
0.00454881
-0.00657165
0.00375015
-0.000985493
0.00380699
-0.00909996
0.00641472
0.00648574
-0.0038005
0.00550889
0.000655349
-0.00618008
1.58418e-05
0.00196971
-0.00389452
0.000808421
0.00111639
-0.00401128
0.00125033
0.00208838
0.000672567
0.000181425
-0.00447948
0.00541122
-0.00111317
-0.00388264
0.00388733
-4.69144e-06
0.00075188
0.00464225
-0.00595794
0.000563809
-0.00465218
0.00388201
0.00116729
-0.000397115
-0.00472463
0.00459285
0.000131776
0.00155684
-1.98985e-05
-0.000367928
-0.00116901
0.00606547
-0.00362433
-0.00807381
0.00563267
-3.0326e-05
-0.00124541
3.60467e-05
0.00123969
0.00256521
-0.00250377
-6.14396e-05
-0.00476293
-0.00164754
0.00163828
0.00477218
-0.000890755
0.00529334
-0.00426141
-0.000141181
0.00260998
0.000263942
0.000902307
-0.00377623
-0.00401905
-0.00193262
0.00518608
0.000765598
0.00367023
-0.00464748
2.90131e-05
0.000948231
0.00124693
-0.00108214
0.00410534
-0.00427013
0.00303234
0.00395211
-0.0047658
-0.00221865
0.00433767
-0.00271634
-0.00012461
-0.00149672
-0.00234466
0.00239126
-4.66019e-05
0.000950629
-0.00198461
0.00531409
-0.00428011
0.00539041
0.000260107
-0.000928921
-0.0047216
-0.00225134
-0.00231171
0.00236757
0.00219548
-0.000462509
-0.00261262
0.00231238
0.000762752
0.00171508
-0.00114084
-0.0036771
0.00310285
-0.00066082
0.00329828
-0.00119173
-0.00144574
0.00628816
-0.000158538
-0.00612962
-0.00266099
0.00523136
-0.00257037
0.000479751
-0.00576171
0.00334621
0.00193575
0.000949566
-0.000382034
0.00233568
-0.00290321
0.00220695
-1.97463e-05
-0.0021872
0.00398513
-8.90204e-05
0.000710224
-0.00460634
-0.0050462
0.000626691
0.00536908
0.000350853
0.000348261
0.00338346
-0.00408258
-0.00162562
-0.0105502
0.0102405
0.00193531
0.0022846
0.00041284
0.000515581
-0.00321302
0.00164574
0.00124948
-0.00403348
0.00113826
0.00517516
0.00309108
-0.00565625
0.000468121
0.00441385
-0.000896837
0.00073088
-0.0027203
-0.0016072
0.00359662
0.00124395
0.00191274
0.000565677
-0.00372236
0.000720157
-0.000541205
-0.00165465
0.00147569
0.0027505
-0.00497481
0.00346825
0.00464511
-0.004378
-0.00148923
0.00122211
0.00425921
-0.000777826
-0.00331501
0.00449274
-0.000181782
-0.00099595
0.00342068
-0.00438668
5.70158e-05
0.000908981
-0.00320321
0.000213354
0.00511768
-0.00212783
-0.00599505
-0.00568102
0.00474587
0.0069302
-0.00317928
0.00319688
0.000626537
-0.000644141
0.000496794
-0.00405811
-0.00342252
-7.06141e-05
0.00177831
0.00171483
-0.00531744
0.00228257
0.00342711
-0.000392243
0.00616039
-0.0049592
0.000301681
-0.00150287
0.000281814
0.000106283
-0.00401435
0.00362625
0.000219642
-0.00115591
0.00570153
-0.00476527
-0.013834
0.00152914
0.00152497
0.0107799
-0.00123108
0.00366254
-0.00116279
-0.00126867
0.00186261
-0.00097164
-0.00397949
0.00308852
0.000450621
0.00288961
-0.00365727
0.000317041
-5.90792e-05
0.00334594
0.00114983
-0.00443669
-0.000672769
-0.000108854
-0.00143042
0.00221205
-0.00360324
0.00393519
-0.000147605
-0.000184344
0.000133155
-0.00358798
-0.00254046
0.00225132
0.000683
-0.000393864
-0.0064998
-0.000412814
0.00316061
0.00375201
-0.00197724
-0.000841722
0.00168053
0.00113843
0.00292785
-0.00982071
0.0013512
0.00554166
-0.00151912
0.00305623
-0.00166986
0.000132748
0.00218267
-0.00169918
0.000217052
-0.000700544
5.7178e-05
-0.00416945
0.00411227
1.66732e-05
0.00336886
-0.00338553
0.0029403
-0.000575295
0.000386976
-0.00275198
-0.00181554
0.00259024
0.000859377
-0.00163407
-0.00125861
0.00538324
-0.00129556
-0.00282908
0.00257776
-0.00442046
-0.000152562
0.00199526
0.00288527
0.00304201
-0.00592728
0.00425303
-0.00478246
0.00123228
-0.000702848
0.000407678
-0.000769347
0.00557778
-0.00521611
0.000169636
-0.000890206
0.00397669
-0.00325612
0.00098406
0.00839318
0.0023889
-0.0117661
-0.00726893
0.00638432
0.00415365
-0.00326904
0.000338422
0.00261833
-0.00351188
0.000555122
0.00349133
0.00385874
-0.00125273
-0.00609733
0.00632195
-0.00384793
-0.000112193
-0.00236183
0.000283097
-0.000830202
-0.00260664
0.00315374
-0.00264104
1.42425e-05
0.0026268
0.00386045
0.00013139
0.000261191
0.00482581
0.000409782
-0.00735601
0.00212042
-0.00389359
0.000845532
0.000687842
0.00236022
-0.00249013
0.00061785
0.000305637
0.00156664
0.000586283
0.000427534
-0.00504531
0.0040315
-0.0010293
-0.00598421
0.00381574
0.00319778
0.00241805
-0.00286687
-0.00186562
0.00231444
0.00390033
-2.59741e-05
-0.00389942
2.50673e-05
0.00297225
-0.00419079
-0.00144621
0.00266475
0.00767657
-0.00232459
-0.00119573
-0.00415626
0.00431285
-7.8964e-06
-0.00395381
-0.000351146
-0.00228694
0.00268066
0.00556164
-0.00595535
0.00479286
-0.00166013
-0.00461612
0.0014834
0.000905075
-0.00132986
0.00574482
-0.00532004
-0.00624188
0.00568245
0.00539536
-0.00483593
0.000289881
-0.00496214
0.00191073
0.00276153
0.00625426
-0.000324893
-0.000142206
-0.00578716
0.00440997
-0.00085636
0.000852348
-0.00440595
-0.00539027
-0.00492833
0.00582474
0.00449386
-0.000970127
0.00278418
0.00075599
-0.00257005
-0.00211698
0.000115467
0.0041039
-0.00210239
-0.000468148
0.00536793
-0.00498799
8.82014e-05
-0.00473776
0.00439894
0.000856567
-0.000517745
-0.000156326
-0.00276043
0.00658699
0.000853036
-0.00282767
-0.00207548
0.00405011
-0.00224702
2.96495e-05
0.00221737
0.000687074
0.00312493
-0.00289086
-0.000921144
0.00507763
-0.00292768
-0.000782706
-0.00136724
5.47116e-05
-0.0015546
0.00149988
-0.00282259
-0.000763454
0.00106539
0.00252066
0.000314036
0.00174913
-0.00389558
0.00183241
0.00630613
-0.000569904
0.0024632
-0.00819942
0.000441946
-0.000584342
-0.00747402
0.00761642
0.000477029
-0.00215238
-0.00283097
0.00450633
0.000177961
0.00389153
-0.000209045
1.4408e-05
-0.00233996
0.00232556
0.00471215
-0.00175227
-0.00210685
-0.00285395
0.00238062
-0.00234926
0.00518032
-0.00431632
-0.000528745
-0.000335257
0.000518313
-0.0024487
0.001071
0.000859388
-0.00419381
-0.00128087
0.000860018
0.00461466
0.00353992
-0.00572475
0.00378971
-0.00160489
-0.000147492
0.00521566
-0.00522044
0.000152274
-3.62754e-06
0.00501664
-0.0049736
-3.94157e-05
-0.00658793
0.00526197
-0.00422049
0.00554645
0.00549888
-0.0053311
-0.000167779
-0.00514127
0.00686797
-0.00123717
-0.00048953
-0.00455509
0.00110571
-0.000350588
0.00379997
-0.00742819
0.000558772
0.00478606
0.00208336
0.00131029
-0.00179037
0.000998393
-0.00186985
0.00212479
0.00342078
-0.00367572
-0.00196271
-0.000881891
0.00112303
0.00172157
-0.00267893
0.00175428
-0.00336966
0.00429432
0.000804404
7.03144e-05
-0.00601599
-0.00271729
0.00271005
7.2395e-06
0.00299547
-0.0028867
-0.00010877
-0.00438202
-0.000285546
-0.00115678
0.00108077
-0.00579312
0.00672621
-0.00201385
0.00258105
0.00441879
-0.00562795
-0.0013719
0.00491127
-0.0053434
0.000151373
0.000280754
0.00272587
0.000695999
-0.00280528
-0.000616587
-0.00418917
-0.000221651
0.00549159
0.00245717
-0.000177362
-0.00299495
0.000715146
0.00276561
-0.00236552
0.00272466
-0.00312475
-0.00467361
0.000888056
0.00636661
-0.00160638
-0.00220943
0.00735269
-0.00353689
-0.00227914
-0.0025075
0.000597467
0.000667954
0.00180912
-0.00475621
-0.00331664
-0.000277501
0.00533531
-0.00174116
0.000499616
0.000823792
0.00286696
-0.00419037
-0.00151642
0.00371102
-0.0021946
0.00119498
-0.00583879
0.00213631
0.00346108
0.00243605
-0.00522917
-0.00485403
5.9859e-05
0.00604651
-0.00125234
0.000848651
0.000726918
0.00227461
-0.00385017
0.00351612
-0.00353231
1.61941e-05
0.00122848
-0.000464225
0.0041211
-0.00488536
0.00427317
-0.00134596
0.00204837
-0.00497558
0.0081997
-0.00264938
0.00610788
-0.0116582
0.00129943
0.00241698
-0.00100433
-0.00271208
-0.00370578
0.00152234
0.00194194
0.000241493
0.00267277
-0.00201408
-5.6074e-05
-0.000602619
-0.00166809
-0.00210765
0.00614688
-0.00237114
-0.00297423
0.00387086
0.00153797
-0.00243461
0.00448786
-0.000244347
-0.0014779
-0.00677781
0.00448634
-0.000387456
-0.0064573
0.00596642
0.00277514
-0.00228426
0.00412279
-0.00465291
-0.000665927
0.00119605
0.00229488
-0.00417369
-0.00216748
-0.00242889
-0.00223053
0.00125969
0.00339973
-0.00347079
0.00108594
0.00344066
-0.00105581
0.00408485
-0.00388785
-0.00268208
0.00248508
2.48757e-05
-3.49118e-05
-0.00382702
0.00383706
0.000102457
-0.00341961
-0.000124763
0.00344192
-0.000964102
-0.0057159
0.00090144
-0.00331798
0.00298437
-0.000567834
-0.00221625
-0.000932622
-0.000321915
-5.17495e-05
0.00550294
5.769e-05
-0.0132144
0.00929983
0.00673644
-0.00282183
-0.00396459
0.000270352
0.000133096
0.00356114
-0.000785103
0.0123615
-0.0145632
0.00298679
0.000631378
0.000973672
-0.00218597
0.000580923
-0.00847109
0.00456066
0.000601287
0.00330915
-9.34107e-05
-0.0055769
-0.000806358
0.00647667
-0.00225424
0.00838026
-0.00581716
-0.00030886
0.00377419
0.00547037
-0.00506614
-0.00417841
-0.00442787
0.00423354
0.00523435
-0.00504002
0.00177814
0.00248398
-0.00309454
-0.00116758
0.00174331
-0.00116673
-0.00279283
-0.00889286
-0.000350261
0.00725311
0.00199002
0.00265984
0.000413988
-0.00155149
0.00269803
0.00362482
-0.00334167
-0.00298118
-0.00445243
0.000993973
0.00433572
-0.000877263
0.000518584
0.00142655
0.00492284
-0.00521263
0.00512838
0.000497552
-0.000413308
0.00325209
0.00256071
-0.00230852
-9.04831e-05
-0.000650732
0.00304973
-0.00342493
-0.000701752
0.00191135
-0.00654223
0.00277546
0.00185542
0.000189509
0.00354517
-0.00392329
0.000188615
-0.00135134
0.000261706
-0.00125574
0.00234538
0.00551431
-0.00394495
0.000173944
-0.00313449
-0.00246079
0.00331089
0.00228439
0.0116981
-0.0125393
0.00412499
-0.00328388
-0.00230835
0.00286812
0.00115457
-0.00171434
-0.00547376
0.00235599
0.00475851
-0.00164075
-0.00224835
0.00325931
0.00419072
-0.00520168
0.00624388
-0.00239467
-0.0041358
0.000286587
0.000107447
-0.00150728
0.00366465
-0.00226482
-0.000636947
0.000628248
-0.00484533
0.0045257
0.00145662
-0.00484798
-0.00113435
0.00570203
-0.00467722
-0.00124646
0.00117297
0.00172583
-0.00410484
0.00120604
-0.00239665
-0.00434096
0.00388307
0.00285454
-0.000714423
-0.00186323
-0.000556834
0.00228531
-0.00242479
0.00522482
-0.00508533
0.0005596
-0.00639178
0.00583218
0.00216301
-0.00284315
0.00185311
0.00121905
0.000708803
0.000999551
-0.00292741
-0.000125055
-0.00540089
0.00552595
-0.00299459
0.00039752
-0.000972121
0.00356919
-0.000371915
0.00417514
-0.0037904
-1.28254e-05
-0.00278825
-0.00149436
0.00162302
0.00265959
-0.00102653
-0.00247615
-0.00227542
-0.0033485
0.00279507
0.00282885
0.000128278
-0.00343023
0.00582636
-0.00239423
-0.000310416
-0.00312172
0.00321987
-0.000325274
-0.00234571
-0.00054889
-0.000487577
0.00436106
-0.0054516
0.00157811
0.00280939
0.00010781
0.00136782
-0.00428502
-0.000102783
-0.00230772
0.00111501
0.00129549
-0.00162904
0.00211459
0.00406296
-0.00454851
-0.00568228
-0.00146794
-0.00158617
0.00521712
-0.00520902
0.000139549
0.00162127
0.0034482
0.000477569
-0.0017518
-0.00307075
0.00434498
-0.00229611
-0.004483
0.00113121
0.0056479
-0.0020419
-0.00225835
0.00235246
0.00194778
-0.00531116
0.00511292
0.00540579
-0.00520755
-0.000730173
-0.00128005
-0.00386257
0.00587279
-0.00529388
0.000518464
0.00538229
-0.000606872
-0.000935013
0.00245522
-0.00152021
-0.00214261
0.00395894
-0.00298067
0.00116433
-8.30845e-05
0.00690804
-0.00259101
-0.00423395
-0.0025148
-0.00123301
0.00504206
-0.00129426
0.00078932
-0.00207472
0.00468744
-0.00340204
0.000224147
0.00317515
-0.000556187
-5.3321e-06
-0.00504313
0.00504009
8.36962e-06
0.00593366
-0.00105248
-0.00867415
0.00379298
-0.0054834
-0.000535542
0.00684478
-0.000825835
-0.00297826
0.00450011
0.000368591
-0.00189044
0.00270105
-0.00268069
-2.03553e-05
-0.00309947
0.000308066
-0.00265551
0.00544692
-0.00447893
0.00617129
-0.0012676
-0.00042476
0.00278127
-0.00115982
-0.00335541
0.00173397
-0.00538462
0.00541958
-3.49534e-05
0.00443644
-0.00644058
0.000514606
0.00148954
-0.00498024
-0.00136454
0.00852731
-0.00218252
0.00373155
-0.000164658
-0.000777132
-0.00278976
-0.00209596
-0.00354943
0.00793069
-0.000363954
-0.00520367
0.00314283
0.00822535
-0.00917259
-0.000876193
0.00182343
0.00228548
0.00108942
-0.00252625
-0.00246737
0.00256297
-9.56074e-05
-0.000931501
0.0052196
-0.000340922
-0.00394718
-0.00115465
0.00137113
0.00462418
-0.00484066
0.00307501
0.0072641
-0.0042022
-0.00613692
0.0052999
-0.0063551
0.00202054
-0.000965339
0.00467959
5.49874e-05
-0.00473458
7.98996e-05
0.00456605
-0.00464595
0.00516018
-0.00623382
0.00551008
4.65017e-05
-3.67317e-05
0.00421155
-0.00422132
8.14616e-05
0.00738004
-0.00736309
-9.84133e-05
-0.000615567
-0.00183056
-0.00372962
0.00617575
-0.00229925
-0.00136007
0.000458164
0.00437286
-0.00758979
0.00275876
-0.00362172
-0.000948621
0.00388218
0.00068816
-0.00443267
0.00488697
-0.00130374
0.000849446
0.000674075
0.00351039
-0.00119438
-0.00299009
-0.00167786
0.000402009
0.00287884
-0.00160299
-5.46013e-06
0.00133107
-0.00169184
0.000366231
-0.00184516
0.00451655
-0.0026167
-5.46801e-05
0.00133413
-0.00425025
-0.00246851
3.34971e-05
-0.00396471
0.00393122
-0.0015072
-0.00144475
0.000670353
0.0022816
0.0021935
-0.00126554
-0.00092796
0.00548574
-0.00545806
-0.00110533
0.00107765
-0.000514757
-0.00335098
0.00310711
0.000758627
-1.44713e-05
1.92471e-05
0.00304774
-0.00305251
0.00151676
-0.00124754
-0.00482214
0.00455292
0.00351126
-9.08538e-05
-0.00342041
-0.0051357
-0.00332664
0.00494743
0.00351491
0.00290441
0.00451709
-0.00778546
0.00280796
-0.00100508
0.00158152
-0.00338439
-0.001145
0.0011434
-0.00634944
0.00635104
0.00171979
-0.00339771
-0.00329585
0.00497377
-0.000350575
-0.000784014
0.00367692
-0.00254233
0.00255484
-0.00313966
0.00113817
-0.000553347
0.00144608
-0.00239917
-0.00231821
0.00327129
-0.00453031
0.00509697
-0.00134583
0.000779168
0.005264
0.00677005
-0.0074551
-0.00457895
-0.00409376
0.00407851
1.52464e-05
-0.000475183
0.00476145
-0.00593422
0.00164796
0.00017085
-0.000279028
-0.00463798
0.00474616
0.00443075
0.000186907
-0.00509836
0.000480703
-0.00195847
-0.00330866
0.00416091
0.00110621
-0.00472614
0.00669256
-0.00237103
0.000404605
-0.00188631
-0.0023184
0.00137704
-0.000273784
-5.16831e-05
-0.00324378
0.00356925
-0.010653
4.77986e-05
0.000933339
0.00967186
0.000420246
-0.00269817
-0.00139629
0.00367421
0.00662555
-0.000551444
-0.00214663
-0.00392748
-0.00117028
-0.00255413
0.000481693
0.00324271
0.00193278
-6.09871e-06
-0.00192668
0.00315852
0.00166264
-0.00105194
-0.00376922
0.0024232
-0.00191525
0.00475879
-0.00526674
0.000147197
0.00498964
-0.00164328
-0.00349355
0.00119332
0.00172263
0.0037096
-0.002378
0.00017341
0.00220459
-0.00309282
0.000443063
0.00081791
0.000516194
-0.00425873
0.00292462
-0.00402807
0.00589982
0.00176341
0.00604256
-0.00126987
-0.00653611
-0.00393366
0.00383596
-0.00609911
0.00619682
-0.000581234
-0.0029196
0.00102009
0.00248075
-0.00324822
0.00613349
0.0018439
-0.0021443
0.000486006
-0.000185606
-0.00199956
-0.00635861
0.00198498
0.00637319
0.00416035
-0.00414672
-5.03873e-05
3.67567e-05
0.00339516
-0.00398643
0.000845523
-0.00025425
0.000858064
0.00339133
-0.00603675
0.00178736
1.51187e-05
0.00290781
-0.00292293
0.00189028
-0.00484137
0.00380916
-0.00183259
0.00493284
0.00416986
-0.00727011
0.00138426
-0.00143928
-0.00664526
0.00670028
-0.00199304
0.00329945
-0.00665932
0.00535291
-0.00476712
0.00379263
0.00495513
-0.00398064
-0.00295847
0.00405511
-0.00262085
0.00152421
-0.000643654
0.00280951
0.000456015
-0.00262187
0.00137655
-0.00200872
0.002072
-0.00143983
0.00268974
0.00100218
0.00088382
-0.00457574
0.00741422
-0.00502607
-0.000319635
-0.00206852
6.82651e-06
-0.00359712
0.00359029
0.00226515
-0.00331289
-0.010169
0.0112167
-0.000464148
-0.00490065
-0.00147539
0.00684019
-0.000297799
-0.00225165
0.00254945
0.000690859
0.00326471
-0.000533056
-0.00342252
-0.000905333
-0.00327309
0.00263931
0.00153912
0.00261488
-0.00219078
-0.00384662
0.00646784
-0.0050417
0.0014774
0.001564
-0.0030414
0.00496049
-3.59014e-06
-0.000577619
-0.00437928
-0.000967812
-0.00164711
0.00261493
0.00174248
0.0011586
0.00979204
-0.0117843
-0.00414229
0.00613457
0.0014955
0.0031891
-0.00243806
-0.00224654
-0.00339451
0.0065354
0.00430362
-0.00744452
0.003932
0.00136405
-0.000521013
-0.00477504
0.00635528
-0.00423981
0.00273376
-0.00484923
-0.00366822
0.00168286
-0.00466894
0.0066543
-0.00586082
0.0104668
-0.00408964
-0.000516354
-0.000169311
-0.00247387
-0.00340583
0.00604902
0.0047502
0.00196674
-0.00556173
-0.00115521
0.00260358
-0.00693756
0.00436533
-3.13489e-05
-0.00597441
-0.000226555
0.00390101
0.00229996
-0.00121471
0.00314015
0.00135943
-0.00328487
-0.000747212
0.00299723
0.00242243
-0.00467244
-0.0064299
0.00329442
-0.000283987
0.00341947
0.000558025
-0.00167863
0.00333739
-0.00221678
0.00271903
-0.00136772
0.000970387
-0.0023217
0.00259596
0.000506646
0.00025353
-0.00335614
-0.0037582
0.00403479
0.00149343
-0.00177002
-0.000900464
0.00481069
8.99742e-05
-0.0040002
0.0038883
-0.00228097
-0.00149782
-0.000109515
0.00333892
2.20448e-05
-0.00336097
0.00242893
0.00188039
-0.000427376
-0.00388194
0.00114668
0.00300171
0.00253556
-0.00668395
1.95313e-05
-0.0054485
0.00542897
-0.00287233
0.0109913
-0.00161408
-0.00650489
-4.4557e-05
0.00408847
-0.00404391
-0.000270248
-0.00292068
0.000525467
0.00266547
-0.0053557
0.00273396
0.00208463
0.000537113
0.00109858
0.000888579
-0.00623863
0.00425148
0.0031545
0.00497973
-0.00186071
-0.00627351
0.00482257
-0.00164489
-0.00461523
0.00143755
-0.00598042
0.00342624
0.00919838
-0.00664421
-1.48538e-05
0.00235682
-0.00235687
1.48959e-05
-0.0024378
0.00241324
2.45579e-05
-0.006043
8.59697e-05
0.00256252
0.000692872
0.00146435
0.00402361
-0.00618083
0.00315685
-0.00375466
0.00242165
-0.00182384
-0.00312734
0.00273666
-0.000101671
0.00049235
-0.000631145
-0.00512406
0.00652241
-0.000767204
-0.0022962
0.00110457
0.00363653
-0.0024449
0.00391168
-0.00150632
0.000569901
-0.00297526
-0.00256533
-0.000446572
0.00300225
9.64642e-06
-0.000454088
-2.34359e-05
0.00431498
-0.00383746
0.000524296
-0.000448541
0.00421918
-0.00429493
-0.00382355
0.00534023
-0.00560562
0.00408894
1.34539e-05
-0.00479798
0.00478452
-0.00170482
0.00014701
0.0043208
-0.00276298
-0.00323852
0.00378706
-0.0051667
0.00461816
-0.00333676
0.000256096
0.00100518
-0.00155081
0.00422386
0.000239135
-0.00291218
-0.00112066
0.000155626
-0.00188891
-0.00165225
-0.00540349
0.0054245
0.00163124
-0.00240823
-0.000284345
-0.000608298
0.00330087
-0.00820924
0.00276797
0.000826376
0.00461489
-0.00259893
0.006
-0.00298963
-0.000411433
0.00180212
0.000710522
-0.0036333
0.00353125
0.00357595
-0.0071072
0.000499789
0.00790128
-0.00183856
-0.00656251
-0.000101051
-0.00014383
-0.00354569
0.00379057
-0.00378287
0.00620623
-0.00250553
8.21672e-05
0.003565
-0.0022401
-0.00323144
0.00190653
0.000914432
-0.000122842
0.00111938
0.00554635
0.00152688
-0.0079921
0.000918876
-0.0039094
-0.000485562
0.00127033
0.00312463
0.00142543
-0.00159436
-0.00214947
0.00659179
-0.00443832
0.00346779
-0.00562126
-0.000745056
0.00427604
-0.00739366
0.00386267
0.00251477
-0.00318977
-0.000322407
0.000997411
-0.00281656
-0.0009817
-9.45402e-05
0.0038928
-0.0020938
-0.00196083
0.00405463
0.00052847
-0.00567988
0.00502873
0.000122677
0.00213358
-0.00207837
-0.00214902
-0.0036295
0.0045905
-0.000867391
-9.36123e-05
0.00507404
0.00139475
-0.00546028
-0.00100851
-0.00197837
-0.002907
-0.000342362
0.00522773
0.00330985
-0.00100857
0.00383664
-0.00613792
-0.00363875
-0.000184801
-0.00423436
0.00227353
0.000549962
-0.00478523
0.00153099
0.00270427
0.00141449
-0.00508022
0.00278328
0.000882447
0.000778194
0.000191371
-0.00388314
0.00291358
0.000570636
0.00246151
-0.000170469
0.0043392
-0.000857247
-0.00331148
-0.00169491
-0.000186035
-0.0015842
0.00346515
-0.00100658
-0.00135527
0.00259138
-0.000229522
-0.00397216
-4.68894e-05
-0.00655041
0.00236176
0.00344144
0.00946132
-9.10267e-05
0.00130297
-0.0106733
-0.0042369
0.00653305
0.00134389
-0.00364003
-0.00120066
0.000643959
0.00408291
-0.00352621
0.000489194
0.0013888
-0.00107405
-0.00080394
-0.00713676
-0.00148518
0.006147
0.00247495
0.000159865
0.00307262
-0.000617607
0.000102154
0.00151366
-0.00475603
0.00314022
-0.00291029
-9.14322e-06
0.00107273
0.0018467
-0.0041189
0.00509155
-0.000812785
0.00233008
-0.0021003
-0.000229774
-0.00340641
0.000466059
-0.00263879
0.00557914
-0.00155193
0.00233672
-0.00180146
0.00101667
-0.00333796
0.00375972
-0.00155356
0.00113179
0.00147171
-0.000249523
-0.00343095
0.00220876
-0.00149259
0.00935562
-0.0125892
-0.00131748
-0.000919291
0.000899912
0.00133686
0.00436021
-0.00681187
-0.000309181
0.00276084
-0.00181833
0.00135674
0.00233906
-0.00187747
-0.000547158
0.00287605
-0.00078909
-0.0015398
-0.00323248
0.000716624
0.000755869
0.00175998
-0.00186522
0.000159561
0.00170566
0.00416618
-0.00198319
-0.00211488
-6.81018e-05
0.000315535
0.00214428
-0.0032554
0.000795579
-0.00223208
-0.00270591
0.00275976
0.00217823
-0.00120798
0.00308136
-0.00262351
0.000750122
0.00107566
-0.00203588
0.00140263
-0.000442409
0.0039788
9.75016e-05
-0.0040763
0.00339446
-0.00419138
0.00208107
-0.00128415
-0.00535649
-0.000138699
0.00549519
0.00216484
-0.00179634
0.000420328
-0.000788827
-0.000165528
0.00380649
-0.00416158
0.000520618
-0.0018748
0.00234677
0.000603697
-0.00214674
0.00459355
0.00424575
-0.00358072
0.00353343
4.72986e-05
6.69711e-05
-0.00564427
0.0055773
0.00762636
0.000911251
-0.00160895
-0.00692866
0.0016103
-0.00625865
-0.000769118
0.00541747
0.00119363
0.00141542
0.000815099
-0.00342415
-0.00214386
-0.00212963
2.56076e-05
0.00424788
-0.00102575
0.0013974
-0.0025155
-0.00462253
0.000845877
0.00606445
-0.0022878
-0.00921941
0.00675469
0.00297111
-0.00050638
0.00407995
1.41869e-05
-0.00409414
-0.00237844
-0.00320298
0.00207169
0.00350973
-0.00229737
-0.00331371
0.000988548
-0.00334629
0.00181823
0.00209869
0.00135475
-0.00178327
-0.00323485
0.00366336
-0.00227877
4.09301e-07
0.00227836
-0.00533433
0.00218303
0.00220929
0.000942003
0.00133627
-0.00359044
-0.00109212
0.00451677
-0.00144296
-0.000104425
-0.00296939
-0.00309569
0.00514094
0.00302371
-0.00506896
-0.000933182
-0.00194935
0.000744739
0.0021378
-0.00129291
-0.00104088
0.00233379
-0.00227458
-0.0047649
-0.00217994
0.00109205
1.51305e-05
0.00220203
-0.00330921
0.00437937
-0.00317887
-0.00460217
0.00340167
-0.00162577
0.000586175
0.00327029
-0.0022307
0.00305218
-0.00214958
-0.000301336
-0.00060127
-0.00350272
0.000570615
0.00273583
0.000196282
-0.0021678
0.00497074
-0.0053967
0.00210499
0.000155054
0.00313666
0.00513598
-0.00410914
-0.00322669
0.00219985
-0.00405128
0.000859314
0.00757134
-0.00389935
-0.00258207
0.00420223
0.00227918
-0.000457156
0.00407551
-0.0015469
-0.00207146
0.00023914
-0.00253009
-0.00167421
0.00396516
0.00463519
-0.00305821
-0.00018744
-0.00138954
0.00144918
0.0010756
-0.00355054
-0.000975897
0.00110557
0.0027208
-0.00285047
-0.000823074
0.00425505
-0.00524632
0.00181435
-0.00261506
0.000631149
0.000632885
0.00135103
-0.00564504
0.00571735
-7.2303e-05
0.00410656
-0.00405918
-4.73775e-05
0.00162869
-0.006214
-0.00239761
0.00698292
0.00135157
0.00255603
0.000609171
-6.37225e-05
0.00227237
-0.00220865
0.00397451
0.00352312
-0.00749762
-0.00403584
0.00246445
0.00174091
-0.00016952
-0.00226543
0.000746733
0.00184231
-0.00032361
-0.00682832
0.00319724
0.00374712
-0.000116048
-0.00219857
-0.00245019
0.00237
0.00362289
-0.000588105
-0.00231082
-0.000723964
-0.00373935
0.00404223
-0.00247068
0.000681103
-0.00428965
-0.000197597
0.00380615
-6.05072e-06
-0.00212877
0.00213482
0.0101958
5.90346e-05
0.00110662
-0.0113615
-0.000390094
-0.000771275
-0.00566294
0.00682431
0.00176394
-0.00239103
-0.00110737
0.00173447
0.000696158
0.00532686
-0.00215491
-0.0038681
0.00575209
-0.00574818
8.75465e-06
-1.2667e-05
-0.00323446
-0.00291426
0.00455643
0.00159229
0.0018921
0.00142556
-0.00375251
0.000434847
2.3832e-05
0.00350272
-0.00357845
5.19073e-05
-0.00482067
0.00155379
0.00390431
-0.000637433
0.0036701
0.00221898
-0.00371445
-0.00217463
8.13213e-05
-0.00329195
0.00164512
-0.000847819
0.00495479
-0.00264292
-0.000343707
-0.000411943
0.00339857
-0.00450304
0.000227951
0.00427509
0.00652998
0.00281589
-0.00210942
-0.00723645
-0.00426193
8.41693e-05
0.00425908
-0.000386941
-0.00100596
-0.00256699
0.00395988
-0.000488489
-0.000518864
-0.00138927
0.00239663
0.00107412
-0.00546588
0.00412788
0.000263876
0.00350755
-0.000533936
-0.00342393
0.000450316
-0.00418136
0.000865631
0.000329547
0.00298618
-0.0015953
0.00105746
-0.00220984
0.00274768
0.00090675
0.000604636
-0.00538789
0.0038765
0.000178384
-0.00366638
-0.000241086
0.00372909
0.00361148
0.000493401
-8.27716e-05
-0.00402211
-0.00431561
0.000997831
0.00390406
-0.00307769
-0.004064
0.00714168
0.00601165
-0.00304865
0.00129716
-0.00426016
0.000473588
0.0033427
-0.00205235
-0.00487676
0.000903432
0.0017277
0.00224563
0.00602725
-0.00622394
0.000196684
-0.00369865
-0.00125823
0.00259022
0.00236667
-0.00485664
-0.00376839
0.00253095
0.00609409
0.00484821
-0.00506191
-0.000620751
0.000834453
-0.000707739
0.00236045
-0.00185872
0.000206014
-0.0060652
0.00199104
0.00138704
0.00268712
-0.00905974
0.0112161
0.00189203
-0.00404844
0.00406779
-0.00879091
-0.000454461
0.00517759
-0.00362099
0.00460656
-0.00851295
0.00752738
-0.00374444
0.00824507
0.000815907
-0.00531653
0.000332786
0.00391629
-0.000929348
-0.00331973
0.00595869
-0.00447839
-0.000142602
-0.00133771
-0.00103811
-0.000997115
0.0015245
0.000510723
-0.00279978
-0.00582773
0.00501263
0.00361488
-0.00400575
0.0053343
0.00463014
0.00332896
-0.00244754
-0.00305031
0.00216889
0.00119258
-0.00154324
-0.000681106
0.00103176
0.00264518
-0.00261922
-0.00347862
0.00345267
-0.00106948
0.00306738
-0.000222045
-0.00177585
-0.0042566
-0.000705092
0.00529448
-0.00320642
-0.000789437
0.00396485
3.10124e-05
0.00135576
-0.00302732
0.00167156
0.00106336
-0.00140006
0.00520623
-0.00486954
0.00429744
-0.00605601
0.000897204
0.00086136
0.00264916
-0.00285967
0.000210508
-0.00410638
0.000100628
0.00364126
-0.001396
-0.00351662
0.00127136
0.00115509
0.000918539
0.00402986
-0.00610349
0.00260519
-0.00282903
0.000223839
-3.01475e-05
0.0031701
-0.00358413
0.000444178
-0.0045065
-0.000423594
0.00599345
-0.00193487
-0.000328596
0.000446752
0.00181671
0.000266787
-0.0022039
0.00162657
0.000310544
0.00362953
-0.0034748
-0.000862465
0.000431367
0.00618273
-0.00390691
-0.00270718
-0.00207774
0.00438489
-0.00230715
-0.0056189
0.00214811
-0.00130405
0.00477485
0.00437155
-0.00395449
-0.00648226
-0.0022053
-0.00263785
0.00906397
-0.00422082
-0.00637017
0.00404383
0.00579033
-0.00346399
-0.000111863
-0.00541038
0.00552225
0.00853733
1.77543e-05
-0.00492685
-0.00362823
0.0049887
-0.00321363
-0.000450875
-0.0013242
-0.00363488
0.00257986
-0.000644384
0.00169941
4.41205e-05
-0.00385447
0.00381035
-0.00269706
0.00277648
-7.94226e-05
-0.00197388
-0.00208652
-0.00533224
0.00939264
-0.00501647
0.0010874
-0.000553129
0.00448219
0.00119523
0.00193866
0.00536243
-0.00482981
-0.00399566
0.00346304
-0.00143307
-0.00296836
0.00326738
0.00113405
-0.00297081
-0.00150545
0.0044808
-4.5405e-06
0.00104951
-0.000594064
-0.00292826
0.00247282
0.00327252
0.000153637
-0.00418789
0.000761742
0.00100601
-0.000704305
0.00111413
-0.0013452
0.00134016
-0.00110909
0.00270512
0.00262916
-0.00269406
-0.00264022
0.00134647
0.00318839
-0.00329336
-0.0012415
0.00279227
0.00120882
-0.00219898
0.00346487
-0.00419012
0.000878887
-0.00464402
0.00325263
0.00175394
-0.00036255
0.00547785
-0.00181443
-0.00574117
-0.00146195
0.00387958
0.00195393
0.00380824
-0.00184882
-0.00323197
-0.000899276
-0.000512766
-0.00512089
0.0047837
0.000447607
-0.000110423
-0.000308824
0.00641047
-0.000658625
-0.00544302
-0.0041544
0.000846116
0.00184633
-0.000664896
-0.00419992
0.00118059
0.00368423
0.00382738
0.000528133
-1.07969e-05
-0.00434472
-0.00576269
-2.37082e-05
2.09007e-05
0.0057655
-0.00149561
0.00162939
-0.00267859
0.00254481
-0.00395565
0.00498674
-0.000504013
-0.000527078
0.00519789
-0.00485014
-0.0043034
-0.00378277
0.00340248
-0.00107333
0.00145362
0.00307098
-0.00013839
-0.000965444
-0.00196715
-0.0058409
0.0056196
0.00277228
-0.00255099
0.00281751
0.00107272
-0.000358462
-0.00353176
0.000980169
0.00249196
-0.00311574
-0.000356383
-0.00184806
0.00185918
-1.11145e-05
-0.00107944
-0.00275659
0.00276654
0.00443063
-0.00440279
-2.78392e-05
-0.00235181
-0.00188326
0.00184404
-0.000244394
-0.00286583
-0.000324358
0.00343459
-0.000330329
-0.00254094
0.00226899
0.000602279
0.00386824
-0.00439856
0.000530315
-0.00499356
0.00510812
0.0046952
-0.00480976
-0.00334338
0.00258756
-0.00175643
0.00251226
-0.00137199
0.000586272
0.0012421
-0.000456381
-0.000131204
0.0060626
-6.48753e-05
-0.00586652
-0.00313349
0.00151913
0.00154374
0.00179213
0.00228084
-0.00397806
-9.491e-05
0.000172019
-0.00495254
-0.000194281
-0.00437381
0.00438732
-1.35153e-05
-0.00304807
0.00154655
-0.00335512
0.000989085
-0.00218528
8.88226e-05
0.00196666
0.000853798
0.00286819
5.56329e-05
-0.00245332
-0.000470503
0.00240449
-0.00599758
0.00480797
-0.00121488
0.001004
-0.00137901
0.00509796
-0.00472295
0.00616882
0.00180384
-0.00094875
-0.00702391
-0.00157859
-0.00258682
-0.00084265
0.00500807
0.00187823
0.00784074
-0.00706323
-0.00265574
0.000906453
0.00573871
-0.00554528
-0.00109988
-0.00194193
0.000255187
0.00398254
-0.0022958
-0.000695637
0.00557798
-0.00300411
0.00406337
-0.00321403
-0.00125154
0.000402203
0.00132526
0.00342361
-0.00474886
0.00320766
0.000711976
-0.000426619
-0.00349301
-0.00295576
0.0023637
0.000237009
0.000355054
-0.00027828