/*--------------------------------*- C++ -*----------------------------------*\
  =========                 |
  \\      /  F ield         | OpenFOAM: The Open Source CFD Toolbox
   \\    /   O peration     | Website:  https://openfoam.org
    \\  /    A nd           | Version:  10
     \\/     M anipulation  |
\*---------------------------------------------------------------------------*/
FoamFile
{
    format      ascii;
    class       volScalarField;
    location    "44";
    object      SgP;
}
// * * * * * * * * * * * * * * * * * * * * * * * * * * * * * * * * * * * * * //

dimensions      [1 -1 -3 -1 0 0 0];

internalField   nonuniform List<scalar> 
111485
(
1.79151e-09
1.7022e-06
5.54479e-07
5.65108e-12
1.40907e-07
2.50797e-09
2.69746e-07
1.05678e-08
2.58317e-07
2.45197e-08
5.0836e-07
2.07268e-08
1.31779e-07
0.00517131
1.33115e-07
2.70809e-07
0.00367629
1.60585e-05
1.67451e-08
2.52174e-08
0.000692769
2.32933e-10
5.03902e-08
1.75876e-07
9.07412e-07
2.17745e-09
2.10541e-08
3.15368e-07
4.8695e-08
0.000902597
6.78983e-08
3.14335e-09
6.32079e-09
2.5553e-08
1.34841e-05
1.80201e-06
0.00241783
0.00362994
4.26479e-05
7.0136e-08
0.000722328
1.63184e-08
5.34171e-08
2.02865e-06
2.91395e-07
3.90996e-08
1.22824e-07
1.51473e-08
1.29296e-07
1.45348e-08
2.90827e-08
3.58438e-07
1.03631e-08
1.77517e-07
3.48035e-08
1.16726e-09
2.80812e-08
4.18571e-10
8.70054e-07
8.45189e-09
1.8417e-08
5.82018e-09
1.87248e-06
1.08454e-07
1.49999e-07
5.30355e-07
6.82047e-06
2.43806e-08
1.42336e-06
3.03328e-06
9.47704e-07
2.01467e-06
2.13603e-07
1.76271e-06
5.78038e-09
2.63169e-09
1.11442e-09
1.47122e-08
1.98194e-09
5.00156e-07
0.00496742
0.00922155
9.26019e-10
2.18148e-09
3.32534e-07
7.53796e-07
0.0024949
1.40291e-07
4.40094e-06
1.4379e-07
2.88896e-08
1.26986e-07
9.05647e-07
7.61761e-09
3.99012e-08
4.2451e-10
0.000505039
2.71731e-07
2.97067e-05
8.30161e-06
6.0196e-10
5.62542e-08
3.54574e-08
2.27711e-07
1.30139e-07
2.6631e-07
1.91487e-10
3.77656e-09
2.55743e-07
1.17376e-05
8.67508e-07
2.11367e-08
2.4535e-07
1.36276e-06
5.59599e-09
6.34503e-09
1.55843e-09
1.64877e-07
4.70605e-07
1.58789e-10
1.14208e-09
3.3615e-06
0.00124904
4.51686e-08
8.303e-07
0.000530939
1.97661e-06
3.07763e-07
1.75768e-11
5.56155e-06
2.83061e-06
3.6744e-07
0.000884791
3.16998e-06
1.47193e-06
3.6434e-09
1.98046e-10
1.19471e-08
2.16249e-07
4.23245e-07
1.37011e-06
3.19848e-09
0.00317025
1.74161e-06
5.91643e-07
5.10223e-08
2.29143e-10
8.24688e-10
2.22181e-09
1.95588e-08
6.01943e-07
0.000530753
0.00197833
2.65327e-07
1.18387e-06
1.51882e-09
7.54124e-08
3.0001e-06
1.61758e-05
1.09077e-07
6.82322e-11
5.20869e-09
7.23827e-07
1.11924e-06
1.3462e-06
9.57822e-07
1.1939e-07
0.000451772
2.75055e-05
2.20882e-06
4.09112e-11
2.10668e-09
0.00347447
2.71343e-11
6.37864e-09
6.58992e-08
8.25347e-09
1.62276e-07
4.05456e-09
1.025e-07
1.48525e-07
4.99841e-09
2.6453e-08
7.37554e-09
5.02403e-08
4.0584e-07
1.95821e-07
8.24151e-07
6.4458e-06
5.54179e-09
1.12698e-06
9.06054e-08
1.31604e-07
3.90091e-07
1.11144e-07
2.33653e-07
5.44987e-08
2.76793e-08
2.00859e-08
1.54386e-07
3.50736e-08
2.79992e-05
1.44784e-06
1.06258e-08
3.05501e-08
1.01726e-07
2.17877e-07
2.00189e-07
2.90095e-07
7.08797e-08
8.28404e-08
1.45374e-07
1.42762e-07
1.17902e-10
1.57922e-06
5.06562e-06
7.00241e-09
3.12791e-10
2.23179e-07
3.61188e-07
1.76765e-08
1.35317e-09
3.19269e-07
2.66957e-07
5.02922e-06
1.16476e-10
2.22119e-11
6.61812e-07
7.37773e-05
4.0976e-07
1.73023e-06
2.86281e-07
2.23314e-08
0.00255586
6.51877e-07
2.09276e-07
0.002846
1.38572e-09
1.03652e-06
4.87195e-07
4.58696e-07
5.89045e-07
1.10489e-07
7.49338e-08
3.28746e-05
6.57049e-09
1.44422e-07
1.48101e-09
1.10164e-07
0.00240157
3.57645e-07
3.37668e-07
3.83107e-07
2.52693e-11
3.63941e-06
1.53406e-08
5.70776e-09
1.201e-06
0.00180427
1.55271e-09
1.10125e-07
1.06884e-06
1.99052e-08
6.55601e-11
1.13274e-07
1.57046e-11
9.66322e-10
1.24519e-08
0.0029716
6.61491e-08
5.68234e-07
1.91061e-08
0.00311018
3.69571e-07
1.68837e-08
4.24217e-06
7.40008e-08
2.82089e-08
9.40998e-09
1.83194e-09
0.0020354
1.02918e-08
7.75332e-07
4.33299e-07
2.77859e-11
0.00382581
0.00466937
3.50953e-08
6.15655e-06
5.92295e-07
5.84548e-08
1.49208e-07
2.43868e-07
1.64564e-10
1.32154e-07
3.24343e-10
6.33034e-06
4.93763e-06
2.86916e-07
3.60496e-08
0.00606066
6.06138e-09
0.00144089
1.44926e-08
1.28097e-07
2.27698e-10
2.20219e-09
0.000461979
6.44231e-08
3.26092e-08
1.30028e-07
2.96167e-06
7.216e-09
4.57996e-07
7.7341e-10
3.9147e-09
8.70191e-08
7.47753e-05
0.0044125
5.89175e-08
1.38563e-05
1.76429e-10
1.02185e-09
4.48502e-10
1.49447e-06
2.73952e-08
1.49036e-08
5.71653e-08
1.32737e-08
1.32099e-06
0.00112863
9.7355e-08
1.00689e-08
5.63874e-08
3.2683e-08
0.000795733
9.2815e-07
1.07581e-08
1.62782e-08
1.53425e-08
2.46044e-07
2.68848e-09
0.00264771
4.35937e-06
8.58036e-09
6.66027e-08
4.85758e-06
1.18437e-08
0.000652054
2.57932e-09
2.12659e-07
1.05612e-07
8.85412e-09
3.60743e-07
1.75634e-07
6.85712e-09
9.12779e-09
1.88455e-08
5.38265e-08
0.00634446
5.44455e-07
1.36327e-09
0.000882311
3.29789e-07
4.20169e-10
8.77164e-09
2.1988e-09
0.000880205
1.2347e-05
0.000856222
0.000824261
6.27237e-09
2.16555e-10
2.90993e-08
5.09708e-08
3.45964e-11
1.84066e-07
4.69769e-08
2.84666e-07
5.06663e-07
2.54446e-06
8.46097e-08
1.25863e-05
2.53653e-08
9.08347e-08
9.05891e-07
1.22978e-08
1.25802e-05
5.51638e-09
2.35107e-07
5.76177e-08
0.000503756
1.99466e-09
1.29575e-09
0.00272019
1.21677e-07
0.0053881
7.80762e-09
1.1343e-07
6.17028e-08
1.32624e-10
9.75711e-08
8.28842e-07
1.68394e-09
0.000596802
8.32742e-08
4.94955e-08
1.66367e-08
3.17661e-10
1.31565e-05
3.45809e-10
1.62136e-07
6.68807e-08
1.19747e-12
1.8007e-08
9.09896e-07
0.00433043
2.59814e-06
3.90743e-11
1.4416e-06
1.75387e-06
1.78692e-06
6.60938e-07
1.1768e-05
4.49128e-08
1.9538e-05
9.88165e-07
0.0035899
4.18112e-06
3.79977e-09
1.34739e-07
2.61503e-08
1.94482e-09
2.43378e-05
3.89476e-06
1.38417e-06
2.95447e-08
3.1108e-08
2.33855e-07
3.65177e-09
0.00614949
3.82956e-08
6.03589e-07
8.44562e-05
1.68547e-06
2.48554e-05
1.23008e-09
0.00449322
0.00581344
4.11687e-10
6.51552e-07
5.24951e-06
2.00041e-06
6.19359e-11
4.74626e-07
4.30696e-10
0.00501137
1.34578e-06
3.70655e-07
2.08162e-06
5.3858e-07
4.63834e-09
8.50534e-08
1.35134e-08
1.33513e-06
2.93078e-09
1.79441e-08
0.000977567
1.74029e-06
1.78708e-09
2.09314e-09
7.2811e-06
1.54253e-09
3.1454e-08
7.94401e-08
6.74809e-11
1.05814e-06
1.66838e-09
0.0013848
8.47713e-09
4.47083e-08
3.12647e-09
4.26376e-06
8.87452e-09
0.00396967
3.93169e-07
0.00416014
5.35677e-10
1.14523e-06
4.68533e-08
6.03886e-11
0.00646792
0.00251342
5.31993e-07
7.00302e-08
5.65553e-07
1.50075e-08
2.54913e-07
6.02642e-09
6.95087e-07
0.0050739
1.05585e-09
2.0565e-08
1.93233e-06
3.25562e-07
0.000986907
1.04634e-07
2.00346e-06
3.06139e-08
2.78777e-08
1.31521e-05
0.00136537
2.38108e-07
9.69498e-09
2.2131e-08
7.69137e-08
6.03234e-08
2.3098e-08
4.03511e-07
2.10442e-11
3.08472e-05
2.09126e-09
6.52599e-09
4.78973e-09
1.78414e-06
4.99888e-10
1.48261e-07
4.11919e-09
1.64266e-07
1.31515e-09
0.00205239
0.00198828
4.46348e-07
6.92398e-09
0.00108549
0.00142055
5.64424e-09
4.16243e-09
2.70002e-07
3.85802e-09
2.69909e-06
2.95953e-07
2.30976e-07
0.000795447
3.85681e-08
9.08297e-11
8.18275e-07
7.39869e-07
1.13172e-06
2.17849e-08
3.41246e-07
2.60568e-07
2.64373e-08
1.87764e-08
4.11422e-07
6.29414e-07
1.57134e-10
0.00225871
1.3175e-06
8.71129e-07
3.41706e-08
2.07178e-05
6.3204e-07
8.70272e-06
4.06335e-05
6.15348e-06
4.60018e-08
1.69529e-06
2.28153e-07
4.27862e-07
0.00201691
3.51743e-06
1.31441e-06
6.54751e-05
0.00135814
5.96776e-09
1.14822e-06
8.13619e-08
6.1561e-07
1.09748e-08
8.78272e-06
4.89465e-05
9.26495e-06
3.01735e-06
4.65981e-07
1.94833e-08
6.3139e-09
3.53829e-06
2.90931e-08
1.45176e-09
5.34947e-11
9.03798e-09
7.71492e-10
3.95473e-07
2.99592e-11
0.000651099
2.74904e-07
6.17502e-07
0.00180974
0.00561974
1.01833e-06
3.20873e-08
0.000691469
6.91683e-10
3.93033e-07
3.29313e-09
9.92389e-09
8.02536e-07
4.58668e-07
0.00208412
5.17038e-07
4.02405e-09
6.4374e-08
5.955e-07
0.00253008
1.40828e-07
5.37509e-07
1.03918e-06
0.00345443
0.000696079
5.43825e-08
3.389e-07
1.31935e-07
4.35961e-08
1.54023e-07
1.62697e-08
6.6206e-07
7.28023e-08
3.51122e-08
2.15243e-08
7.626e-08
1.2768e-05
5.46801e-07
6.48555e-08
7.47097e-08
1.23081e-05
4.95233e-09
8.92778e-09
2.93829e-07
8.31525e-08
3.00387e-07
2.18158e-08
6.90648e-08
6.88762e-08
5.44025e-07
3.15342e-06
2.86615e-07
5.75293e-07
3.10901e-08
9.51022e-09
8.02032e-07
9.93211e-08
2.14466e-09
0.00129589
6.37297e-10
0.00241365
1.00596e-06
0.000237722
1.30881e-08
0.000492524
8.40456e-08
2.20647e-07
3.2459e-10
1.86347e-07
6.00083e-09
4.13996e-10
2.0117e-08
0.00497997
2.17181e-06
5.59082e-07
0.000762504
2.27623e-09
4.16742e-10
1.12727e-07
2.96262e-08
1.49106e-06
9.77023e-09
2.40171e-06
6.48499e-10
1.32416e-07
2.3139e-06
0.0029492
9.2208e-12
3.68852e-09
2.90725e-08
3.67351e-10
2.28268e-06
9.09443e-09
0.00104526
1.33569e-08
1.1287e-09
4.48624e-09
0.000759294
9.05561e-08
2.85357e-06
1.86685e-11
8.43726e-05
1.55722e-05
0.00318823
2.53242e-10
2.5565e-09
8.40618e-08
4.7496e-07
7.49726e-07
9.57468e-06
6.47048e-06
4.5918e-06
1.08285e-07
0.00105399
5.30054e-07
1.9942e-08
1.45571e-09
2.46555e-08
4.94735e-09
3.78066e-09
1.14114e-09
2.63187e-11
3.42613e-08
1.36079e-09
8.44215e-09
1.99321e-08
3.04625e-09
9.40381e-09
4.70239e-09
1.47986e-08
4.49179e-09
3.11088e-07
3.03816e-07
8.77358e-09
7.25969e-10
4.26057e-07
2.14755e-11
1.55402e-06
3.2546e-08
7.95707e-08
2.95396e-09
8.53269e-11
2.24909e-10
4.53028e-11
3.20689e-07
2.07479e-09
1.18436e-08
3.86759e-07
2.21838e-10
2.80788e-07
1.42011e-06
6.88432e-08
1.46877e-08
9.5026e-06
5.65143e-08
0.00443696
2.00048e-06
2.06153e-07
0.00376577
1.47879e-06
1.56757e-07
5.35082e-07
1.05049e-08
3.46073e-07
0.0016927
1.23402e-05
1.3712e-08
3.91489e-09
2.45948e-07
1.53602e-06
1.77297e-06
1.36562e-06
7.65545e-11
4.73884e-13
1.26661e-08
6.73285e-07
7.17025e-08
6.94082e-08
3.23446e-06
4.67477e-08
5.97471e-07
1.54746e-10
2.85859e-09
0.000558344
2.00746e-07
4.7957e-09
2.08957e-09
8.90155e-07
2.26402e-06
3.38362e-08
8.19113e-09
0.000759998
3.61367e-11
5.5279e-07
0.00106067
6.47296e-10
0.00125282
7.65345e-07
0.000617688
8.84488e-06
5.53919e-09
5.17679e-07
3.36963e-07
0.000852492
9.92263e-07
2.26358e-05
0.00285744
2.06581e-06
2.64763e-07
2.11222e-08
1.13175e-08
0.00855669
0.00286185
3.1874e-09
0.00418722
2.81369e-07
2.98683e-06
6.38397e-07
3.70966e-07
2.0791e-05
7.05335e-07
2.43958e-07
1.28549e-07
1.33066e-08
2.37058e-08
0.000765769
3.70737e-09
1.02351e-06
6.08065e-07
9.86702e-10
7.60107e-08
0.00383101
9.07851e-08
6.22334e-09
1.06502e-05
8.15977e-10
1.95487e-08
0.00372352
7.83314e-09
0.00313006
0.00598943
2.2859e-05
3.76157e-07
1.87283e-08
6.27169e-08
1.05295e-06
4.62764e-06
2.04249e-05
5.38368e-06
7.8863e-08
0.000762802
1.98082e-06
6.00072e-10
6.37428e-06
5.20289e-06
1.15329e-05
8.35794e-06
1.59913e-05
3.06233e-06
1.05857e-10
1.28019e-06
7.13126e-09
1.38057e-08
2.6634e-05
0.00614173
4.34602e-09
5.61194e-09
5.72329e-05
6.28712e-05
4.22013e-11
1.12185e-05
9.90234e-09
2.29e-10
3.46012e-10
7.69981e-09
1.06293e-07
8.23813e-09
1.36963e-06
0.000856338
5.60396e-11
1.36599e-08
7.91028e-05
0.00205638
1.44505e-06
1.26628e-09
0.000544609
6.97388e-11
2.46669e-06
5.36293e-10
8.51383e-10
1.07725e-05
0.00229214
3.37649e-08
2.00242e-09
3.2693e-09
0.000593828
8.51051e-09
0.000388429
4.64778e-09
2.15915e-06
1.36181e-10
3.85399e-05
4.38539e-08
4.3252e-11
1.79267e-08
9.80623e-09
2.73046e-05
1.61937e-08
3.50749e-09
3.52934e-08
8.49854e-05
0.000907108
1.32975e-06
1.04808e-05
2.04369e-05
4.01377e-09
2.25036e-05
1.80548e-07
3.54801e-09
4.95197e-08
4.27414e-06
3.78706e-07
4.61225e-09
1.56556e-07
2.78985e-06
4.13863e-09
1.17395e-08
1.63528e-08
3.26541e-07
0.00125655
9.57883e-11
1.53291e-09
0.00101243
2.12476e-06
1.36112e-06
2.92091e-10
2.35836e-08
2.85851e-09
1.95801e-08
4.46298e-07
1.0442e-06
1.77812e-08
4.73187e-07
4.42086e-07
1.46856e-06
3.92913e-07
9.30394e-11
6.24094e-08
8.0367e-11
1.32511e-08
1.62567e-06
3.02188e-06
3.63901e-09
8.61475e-09
1.74697e-08
8.8927e-11
7.86032e-07
9.30406e-09
1.25881e-06
1.53375e-05
1.4455e-06
4.78525e-09
2.6899e-05
2.10652e-06
1.31698e-06
2.79014e-06
8.93594e-10
2.69746e-06
6.31737e-08
0.00206708
6.19858e-07
1.80067e-06
8.95111e-09
1.29261e-11
1.29906e-09
0.00328448
0.00125597
9.88706e-07
8.16675e-12
2.41131e-06
6.45217e-10
0.00304152
3.38987e-06
1.52096e-08
2.5328e-09
4.85213e-08
1.55983e-08
1.68815e-06
4.41217e-08
2.09852e-06
0.00549152
9.23349e-08
1.29194e-06
5.16875e-07
1.33771e-06
9.24663e-07
7.85442e-09
1.1677e-11
8.06933e-08
5.73583e-07
4.74156e-09
3.75759e-09
1.06978e-05
6.84228e-09
5.7754e-08
0.00738012
2.70524e-08
1.21204e-06
1.21907e-11
8.30299e-08
3.79233e-09
0.00584213
3.90514e-10
0.00214939
0.000105701
2.32424e-06
3.31618e-07
3.0203e-07
1.78248e-05
4.60019e-08
8.80315e-08
4.83307e-08
8.71441e-09
1.29254e-08
3.82994e-08
1.52572e-06
5.64412e-08
0.00118882
4.63508e-09
9.72542e-08
5.78109e-06
9.34256e-11
7.34238e-06
4.58159e-09
8.52524e-07
1.40991e-05
2.3496e-09
3.86092e-09
1.17025e-06
9.76088e-09
1.67902e-07
0.00321137
9.62174e-09
1.82581e-07
1.30923e-10
0.00077855
1.59187e-07
1.22213e-08
1.13265e-08
8.10088e-08
1.32843e-07
1.41538e-09
0.00270467
2.09354e-08
5.054e-11
2.28349e-06
8.18848e-09
1.35827e-10
8.20053e-07
1.58993e-05
1.46215e-05
4.4055e-10
3.41016e-08
8.41938e-10
9.83021e-07
8.69011e-07
0.000643251
1.06274e-07
1.44674e-05
1.25194e-06
2.06201e-05
5.2075e-07
5.39332e-08
2.2009e-08
1.29451e-08
1.30086e-06
3.9747e-08
1.42413e-07
0.000820171
5.21778e-06
0.000801464
4.27034e-11
1.79414e-07
1.79796e-09
1.40764e-06
1.68925e-06
1.13226e-07
8.82236e-07
8.52941e-06
2.69889e-06
1.54434e-11
0.000117045
0.000144154
1.86959e-06
7.71575e-07
1.94121e-08
1.56417e-05
3.6939e-08
7.25379e-08
7.13137e-09
1.18439e-09
4.38019e-06
1.53535e-07
1.63915e-05
1.51799e-08
0.000792904
1.13339e-05
1.6049e-08
1.97308e-08
1.11275e-05
5.88319e-08
0.00104032
0.00493551
2.3137e-06
4.2246e-06
1.11945e-07
6.17357e-10
5.22645e-10
2.90681e-09
1.23821e-06
8.54112e-08
0.000582785
0.00102663
5.66604e-07
5.6119e-09
5.68363e-06
0.000704192
4.61762e-07
2.11129e-05
4.41621e-05
0.000739218
0.00215086
0.000859547
2.62431e-06
1.58172e-10
3.59062e-05
3.18514e-08
3.3571e-09
4.58634e-09
5.47583e-09
5.22557e-07
1.30168e-09
3.29438e-09
1.56713e-06
2.33841e-09
2.47142e-10
1.71509e-08
3.3567e-09
0.00100099
1.16281e-07
6.15272e-07
0.0012917
0.0046497
1.99437e-09
0.00333595
3.30479e-06
0.00688113
1.23072e-07
1.36107e-09
1.88899e-09
8.07283e-07
0.00464603
3.77352e-11
2.28976e-05
3.08007e-09
8.72089e-08
2.89711e-07
2.32703e-07
2.6686e-08
5.83661e-09
0.00131169
2.59058e-09
1.40628e-07
4.75756e-09
9.23093e-09
9.93698e-09
8.88788e-06
2.18847e-06
1.98464e-08
6.54751e-06
3.94577e-07
9.89867e-09
2.31421e-06
2.2064e-08
6.52958e-07
3.77447e-09
2.34287e-09
0.00450935
0.000743948
7.85901e-06
6.01031e-09
6.76843e-10
2.98737e-08
0.00344443
6.58365e-09
2.07241e-07
1.49708e-08
4.23812e-08
5.34792e-10
0.000601553
2.40385e-06
3.20292e-09
2.01053e-08
3.20843e-07
3.15979e-09
0.00318091
3.65676e-10
0.000756226
1.47292e-06
1.00359e-07
3.21478e-10
3.90187e-08
2.49541e-08
1.87664e-09
4.77197e-08
7.44585e-08
2.25172e-11
1.21951e-10
1.77488e-06
0.00136758
2.61562e-10
6.74628e-07
9.44409e-08
1.81594e-06
2.77815e-09
0.000821964
3.21221e-08
1.10324e-06
1.06363e-06
7.66389e-09
1.09648e-06
4.62757e-08
3.13528e-07
3.45971e-09
6.45445e-09
2.63157e-07
1.3634e-09
3.28439e-06
8.95849e-07
1.2473e-09
5.76686e-09
2.47764e-06
9.50208e-06
0.00545067
2.49796e-09
1.12166e-07
3.95395e-08
6.65765e-06
3.71471e-06
5.2493e-07
1.56373e-06
0.00135973
7.08368e-08
9.54549e-07
1.39836e-05
0.00115443
1.52916e-08
9.32672e-10
7.34866e-06
2.10553e-08
0.000707508
4.90298e-09
2.08169e-07
2.29631e-08
4.3511e-09
0.00410032
1.18198e-09
1.08782e-08
1.50177e-08
4.6769e-07
0.00540867
0.000971275
8.75677e-09
2.44327e-09
7.57792e-11
1.11207e-08
1.06821e-08
1.74654e-08
2.98692e-09
1.34275e-10
3.90713e-09
1.92779e-10
5.39277e-09
0.001066
0.000635181
2.06277e-10
2.61435e-07
4.08691e-09
8.41052e-09
2.09992e-09
0.000622969
0.00154551
1.9814e-07
4.36269e-09
1.38148e-09
1.65514e-08
3.41079e-08
8.82732e-08
5.81876e-09
6.4433e-06
4.99245e-09
5.41065e-08
9.07998e-08
3.2042e-06
9.80958e-08
1.36679e-05
4.23539e-08
4.877e-09
8.35297e-06
7.94768e-06
6.11928e-09
4.88075e-07
6.31219e-08
2.37616e-07
8.17398e-07
1.75148e-07
7.39156e-08
3.465e-09
0.00583229
2.21294e-08
9.7077e-07
0.00106923
2.4366e-06
2.6831e-07
3.35293e-07
6.04685e-08
1.38268e-08
5.11934e-07
1.52778e-06
1.38917e-06
8.03867e-08
7.92884e-07
7.04337e-08
3.65021e-08
1.41111e-08
1.48092e-10
7.93349e-09
5.61406e-10
1.01866e-11
2.75823e-09
1.65786e-08
1.13893e-07
2.37212e-09
3.54395e-11
8.11211e-09
3.11459e-07
6.46247e-09
2.13884e-10
1.47054e-08
4.15403e-08
2.3742e-09
1.85947e-06
1.30195e-07
0.00437944
2.24881e-09
2.04794e-07
3.6803e-07
7.9151e-08
4.04259e-10
1.04666e-08
0.00396446
9.41677e-09
2.89575e-10
6.49044e-08
0.00398093
1.49875e-08
1.13095e-06
1.11859e-06
2.99129e-08
1.75614e-07
2.12539e-07
6.91438e-06
2.67209e-10
8.26701e-07
1.05563e-07
3.59165e-09
5.22598e-06
7.24743e-06
0.00346901
1.3617e-07
3.03674e-08
1.91999e-07
6.98004e-07
3.55938e-07
1.22739e-08
4.39133e-05
3.9625e-09
1.29183e-05
6.88121e-06
0.00113131
1.4286e-07
0.00456711
4.87515e-09
1.90781e-08
1.02363e-07
3.95503e-07
9.97764e-07
7.1581e-08
2.54477e-06
9.62126e-10
1.66087e-07
4.16157e-10
2.17639e-10
2.58175e-08
7.70841e-06
5.47515e-09
3.5932e-10
8.06993e-06
5.43754e-09
9.6529e-06
4.60234e-08
1.521e-08
3.02141e-08
2.85051e-09
3.6607e-07
9.82148e-08
3.74135e-06
9.15787e-09
1.26545e-07
6.33901e-05
3.10922e-08
3.12993e-10
2.68461e-06
6.55752e-08
5.98927e-07
8.90741e-10
0.00253825
2.2923e-06
9.72076e-07
3.66703e-08
6.16748e-09
3.75742e-06
1.00484e-07
2.74806e-09
7.96705e-11
1.26109e-06
1.41439e-06
1.5032e-06
0.00343211
8.50464e-08
1.46869e-07
4.71228e-06
1.45136e-07
1.08855e-07
4.12514e-08
1.23569e-06
4.80586e-08
2.26408e-06
0.0032469
2.7376e-07
3.16283e-13
5.4918e-08
1.08598e-06
2.66812e-07
4.83117e-09
1.13023e-05
1.52324e-05
8.57279e-06
1.73785e-05
3.57792e-07
9.0186e-07
2.34397e-07
3.84561e-07
6.39687e-09
4.23889e-10
0.00186834
9.43613e-06
3.93669e-08
2.56683e-05
1.09032e-07
5.27065e-07
8.92952e-06
8.59039e-08
4.97833e-08
5.96339e-08
6.62603e-10
7.81832e-07
6.00025e-07
2.28479e-06
7.24659e-07
6.25867e-09
8.5152e-09
4.19158e-07
1.80882e-08
5.4962e-10
6.00996e-06
8.98673e-08
1.82479e-07
8.22363e-07
6.66843e-08
2.81296e-09
9.78e-06
0.00242982
1.34637e-08
4.15326e-10
1.02651e-10
0.00253889
0.00438391
7.34752e-09
0.00100116
1.65041e-07
4.18629e-07
1.45755e-07
1.63088e-07
2.49245e-07
3.07723e-07
6.04436e-07
0.00195957
0.00599035
0.00691048
2.16444e-07
5.95335e-07
2.36261e-07
1.44703e-07
0.00635377
6.26812e-10
0.0030623
4.41734e-07
5.88399e-10
6.98708e-09
1.01554e-08
7.44178e-09
1.44809e-09
3.73061e-09
1.19131e-09
0.00242426
1.22904e-09
7.10265e-07
3.64906e-06
4.29672e-10
8.72333e-08
1.26153e-07
1.05134e-07
2.05182e-09
1.08776e-05
1.02104e-07
2.35088e-08
1.49069e-06
1.04439e-07
6.36187e-07
1.22083e-07
2.01897e-08
3.36101e-09
3.80894e-07
5.26017e-05
9.2779e-07
9.05602e-09
3.1746e-07
1.9655e-08
4.89058e-07
2.3914e-06
2.47702e-07
9.87387e-08
8.8759e-08
2.22861e-08
1.0605e-06
8.83242e-09
2.26218e-07
0.000764443
7.35909e-06
0.00577277
1.2976e-05
1.83341e-06
2.66898e-10
0.00114893
7.88333e-10
1.14692e-06
1.27688e-07
2.3043e-07
1.62315e-06
1.31995e-08
5.80523e-09
7.52505e-07
1.87e-08
1.66286e-09
4.78065e-07
1.01444e-08
4.57924e-07
0.00131566
4.52955e-09
6.92416e-07
2.53986e-08
2.18975e-08
2.98616e-10
4.27292e-06
1.76829e-06
8.63872e-08
7.09435e-09
2.23057e-08
0.000831515
3.94509e-06
2.19855e-07
3.14746e-07
6.56252e-11
3.83782e-12
1.3009e-08
3.10222e-10
8.66183e-07
5.62311e-09
3.94163e-07
3.24099e-08
6.11247e-09
9.75303e-08
6.44817e-10
1.09333e-06
1.53613e-06
8.31422e-07
8.64098e-09
2.08456e-09
1.99041e-08
3.26258e-08
9.94019e-06
2.88964e-08
0.00283359
5.01738e-07
3.97993e-09
6.2324e-09
4.08552e-06
2.77692e-07
1.98966e-05
3.19122e-08
1.9183e-06
0.00412948
3.17398e-10
5.75692e-06
3.57895e-07
0.000796126
2.88461e-08
0.000886368
0.00154926
2.18106e-06
1.3971e-07
3.26172e-07
8.07445e-10
2.73927e-07
4.65882e-07
6.46224e-06
3.28238e-07
9.00358e-08
4.43593e-07
7.0497e-06
6.27575e-06
8.21381e-06
2.74846e-06
1.84227e-09
1.73529e-06
1.47983e-05
1.01505e-07
6.19635e-08
4.20498e-06
3.59118e-06
2.85092e-07
3.16193e-07
4.52208e-06
2.7699e-07
7.00138e-06
4.52908e-06
3.85496e-07
6.58967e-10
6.43014e-07
8.06251e-06
0.00123983
4.73903e-08
2.10262e-08
8.15427e-07
2.6522e-08
1.41111e-06
1.51299e-08
6.82507e-06
9.56361e-09
1.62305e-06
4.46396e-09
3.56263e-09
2.35376e-07
1.64672e-05
2.297e-05
0.00594405
2.44681e-07
2.95637e-08
1.90542e-09
7.6968e-06
4.23427e-07
0.000562506
0.00131328
1.84807e-11
1.39911e-05
1.28811e-06
8.81671e-08
1.04492e-08
2.26371e-05
2.0248e-08
0.000799703
4.04914e-09
2.70913e-10
5.28174e-07
2.01818e-08
3.39956e-08
6.82654e-07
0.00073695
3.58076e-07
1.61748e-08
1.65354e-06
0.00388359
0.00071926
1.04129e-07
5.34012e-06
4.5931e-07
1.00747e-05
8.9611e-08
0.000698381
8.6594e-07
3.50758e-06
3.12985e-09
9.9325e-09
8.67529e-08
1.39214e-08
3.83074e-07
3.29642e-08
1.22136e-08
4.46105e-08
8.35993e-08
1.80029e-06
5.58618e-10
1.18848e-08
0.00134083
1.64614e-10
1.63487e-09
8.00153e-07
8.39467e-09
4.44815e-06
6.23264e-07
0.00110274
3.75397e-07
0.00458863
2.84397e-07
3.6355e-07
0.000745019
3.05669e-06
9.29716e-12
1.61711e-08
0.000523472
2.34083e-07
1.5751e-06
3.23108e-07
1.32158e-09
1.32473e-07
1.49766e-07
1.98665e-08
0.00223866
3.55872e-08
2.29291e-08
4.484e-08
1.2305e-08
1.09985e-09
1.72356e-06
5.94847e-08
0.00480391
1.63158e-06
6.26751e-07
7.86324e-07
1.00374e-06
3.73181e-07
5.73936e-08
1.16309e-10
7.23729e-09
1.74887e-06
3.82605e-07
7.335e-08
5.63161e-09
2.50596e-07
1.86905e-08
9.32964e-07
6.23334e-09
1.33074e-08
2.89235e-08
5.84394e-07
4.24852e-07
6.21609e-07
4.80216e-09
3.49239e-09
3.23231e-05
7.0132e-09
1.48732e-09
1.59649e-10
1.97227e-08
0.00544404
5.32496e-09
3.24189e-06
1.28685e-06
4.47463e-07
3.21339e-09
1.69986e-08
3.83066e-06
1.45256e-07
4.8866e-09
8.03424e-07
2.21047e-09
1.68016e-09
5.80172e-10
1.58577e-06
4.88676e-09
0.00576639
9.23483e-06
6.94052e-07
3.4488e-05
5.41596e-09
3.07038e-07
9.66176e-10
0.00110658
1.57241e-07
1.11784e-07
3.3543e-08
2.09804e-08
1.25705e-09
0.00839488
3.57959e-07
9.06802e-06
1.25619e-06
2.21524e-08
0.00214821
1.5692e-08
6.41776e-09
1.05902e-08
1.04581e-08
8.32192e-07
1.0418e-08
4.716e-07
5.44151e-07
1.00767e-05
5.57156e-08
3.8195e-10
3.21178e-06
9.59965e-09
0.00274629
5.14127e-08
5.86014e-09
2.78032e-08
3.54912e-07
0.00114295
0.000558916
3.52622e-07
9.53366e-07
0.00167386
6.07031e-08
5.63387e-07
0.000784295
2.22034e-07
1.07762e-07
0.00303504
0.000348769
1.7018e-07
6.38492e-07
1.68154e-09
7.38236e-07
3.02001e-05
1.88164e-07
1.81741e-07
6.48826e-06
3.37982e-10
0.000430889
2.5599e-09
4.94688e-07
0.00343848
2.59755e-09
2.22463e-07
1.16543e-07
9.00924e-09
1.00363e-08
9.94356e-07
1.22241e-08
2.80133e-09
6.18139e-07
2.14374e-07
8.76396e-10
0.000432126
0.000820491
1.82979e-07
7.4828e-12
1.37703e-10
2.62158e-06
2.89552e-07
9.34807e-08
5.22786e-09
1.00277e-08
2.491e-06
1.38828e-06
8.79725e-07
1.6509e-06
0.00638606
1.218e-10
0.00246814
3.36909e-07
9.32862e-08
0.000939761
2.85961e-08
9.86519e-10
0.000426421
7.46063e-11
1.25617e-07
1.07037e-07
5.00254e-08
1.72485e-08
6.49047e-09
1.80124e-10
6.34341e-10
3.69278e-07
0.00231341
0.00373116
7.50128e-07
6.75031e-08
4.77752e-12
0.00104275
0.00397834
5.78773e-06
2.39534e-08
6.39252e-09
2.20986e-05
4.04053e-06
3.64109e-09
5.84626e-10
1.76052e-08
1.35277e-07
2.39016e-09
1.75764e-07
1.36313e-06
0.00111283
0.00359463
1.00441e-06
1.28906e-05
2.25851e-10
1.18314e-08
5.31033e-07
2.42087e-06
5.28757e-07
6.97466e-06
1.64497e-07
2.57781e-07
2.05604e-09
9.66529e-09
2.76932e-07
0.00108574
6.17234e-09
0.0031314
7.82862e-10
2.06631e-07
4.50829e-08
3.44551e-07
5.88327e-10
3.3049e-11
1.09957e-08
1.17073e-09
4.73618e-08
6.0271e-06
6.60109e-09
0.000690519
3.20864e-07
0.00280919
2.64589e-08
4.62306e-08
3.05385e-08
3.83496e-08
2.01906e-07
2.31566e-10
1.01432e-09
8.54492e-10
6.87887e-08
1.52686e-07
0.000963346
0.000937467
9.83921e-08
1.87684e-08
1.06793e-10
5.39276e-11
4.35802e-10
1.95802e-08
3.62169e-06
7.86634e-09
3.03977e-10
1.05142e-10
0.000407933
7.53776e-07
9.05778e-07
0.000756395
1.45528e-08
0.00547139
1.41815e-07
1.44547e-08
1.79512e-11
4.83738e-09
0.00100054
1.5665e-11
4.68739e-07
9.00792e-10
1.13607e-05
7.73766e-07
1.624e-06
2.41332e-06
4.96804e-07
6.65507e-10
4.67173e-10
0.00633614
6.91669e-07
6.05699e-07
4.40093e-06
1.62776e-08
1.63072e-06
1.58689e-06
5.14196e-08
9.24157e-08
5.74064e-06
6.28082e-09
1.19869e-05
0.000728441
3.58201e-08
6.9607e-09
1.45626e-06
1.46518e-08
0.000635794
0.00319935
4.42356e-07
7.64018e-10
6.81686e-05
5.82851e-09
2.47568e-07
3.50779e-08
2.24549e-06
4.8517e-11
1.72413e-05
1.62706e-06
2.52422e-06
4.51171e-07
2.12537e-06
5.1044e-07
1.17768e-07
2.68608e-11
3.20591e-06
1.14757e-06
1.09984e-06
2.07746e-08
1.71525e-07
2.10556e-06
7.80385e-06
1.93273e-10
4.21107e-10
1.62303e-09
1.91159e-11
2.18037e-09
0.000395368
8.25885e-06
2.5193e-06
9.64943e-07
3.75739e-06
1.6523e-06
6.39348e-12
3.3768e-07
3.85787e-10
9.48069e-09
1.47104e-09
4.1022e-07
3.81388e-05
4.16091e-07
2.38975e-09
4.74523e-09
2.94344e-08
7.51132e-09
2.61052e-09
0.00259636
1.95817e-07
1.16621e-05
1.77337e-05
1.29921e-05
1.30798e-09
1.00123e-05
1.22014e-05
2.25781e-05
1.24037e-05
6.40522e-10
4.24063e-11
3.0604e-08
2.15081e-07
1.19745e-06
6.33083e-06
0.000705768
4.13656e-07
5.62146e-07
7.21275e-08
1.0221e-05
3.94162e-09
9.94173e-11
2.1299e-06
7.03164e-06
0.000488565
2.17251e-10
0.00207741
2.07983e-06
1.43928e-08
1.5078e-06
1.08332e-07
2.03226e-06
4.93796e-08
1.94782e-06
5.77112e-09
1.47578e-07
3.95837e-05
7.43284e-07
1.47607e-08
3.21783e-05
9.03919e-07
1.83811e-07
5.85278e-05
1.3562e-09
1.97754e-07
9.39156e-07
1.69438e-06
1.25493e-08
0.00338075
2.70073e-09
2.88808e-08
4.13473e-09
0.00209397
0.00206428
4.50692e-08
4.6337e-08
3.06926e-06
0.00102865
1.08651e-08
1.7365e-07
5.67808e-07
2.05207e-07
2.62812e-08
0.00340111
1.95128e-07
3.59476e-07
7.7319e-05
1.50095e-09
1.15951e-07
3.40865e-08
4.39909e-08
5.12755e-10
4.58194e-05
6.60987e-05
1.66563e-09
1.62679e-08
3.20007e-08
1.77191e-06
3.51481e-10
0.000737172
1.08847e-08
2.26052e-07
1.46274e-08
1.3718e-08
4.54381e-08
7.00995e-07
2.96041e-08
9.28652e-08
4.2451e-06
2.30396e-08
2.60804e-08
0.000800092
2.17046e-08
5.55339e-08
5.90237e-08
5.035e-07
3.27267e-11
4.65807e-10
4.48581e-11
1.98295e-07
1.17429e-08
0.00112138
3.59668e-07
3.83739e-07
8.88197e-10
5.53868e-07
0.00206859
1.6682e-06
2.32347e-07
1.01432e-06
2.05295e-07
6.26323e-09
7.02227e-09
3.35253e-07
3.76733e-08
4.73218e-08
8.80448e-06
2.15515e-07
2.07899e-09
5.76833e-09
2.9934e-08
1.33342e-08
1.23951e-07
9.5267e-10
1.44458e-07
2.80081e-07
5.06274e-09
2.62872e-11
0.000852918
1.42937e-10
1.05835e-10
4.79381e-07
0.00105458
5.59305e-07
3.95926e-08
6.22086e-10
2.38851e-07
1.02626e-07
5.16457e-07
9.47008e-08
1.90579e-09
3.26236e-08
1.52589e-08
1.04476e-07
1.10728e-09
6.67803e-10
8.2644e-09
6.77719e-08
3.27087e-07
2.57385e-08
3.60353e-09
1.28697e-07
1.08181e-06
2.55651e-09
5.70357e-07
9.56179e-09
1.71239e-08
5.82269e-10
9.49316e-07
2.9496e-09
3.65061e-07
5.32417e-11
4.5168e-07
5.35189e-10
2.93288e-08
6.06941e-06
2.38957e-09
1.09779e-09
0.00126581
9.74197e-10
0.00104143
9.95211e-09
1.17268e-08
2.01317e-07
4.21145e-07
0.000774536
1.53369e-06
0.000922693
0.00112103
1.79488e-06
1.77442e-07
0.000752145
1.94762e-07
5.05852e-10
6.03496e-07
0.0023673
0.000688216
0.00078134
5.65192e-10
1.72967e-07
1.53215e-10
1.19973e-07
1.79495e-08
1.22292e-07
3.16141e-06
1.55665e-07
1.98028e-08
3.94965e-09
8.05764e-08
5.39391e-06
1.18746e-09
2.13294e-07
6.25338e-07
3.95827e-08
1.26506e-11
1.1983e-06
6.27352e-07
5.55647e-07
4.50667e-07
4.08255e-07
9.41684e-08
2.45345e-07
2.81293e-06
1.57865e-07
1.16001e-07
2.23583e-06
8.31143e-06
1.35677e-10
1.7965e-08
3.86935e-09
3.59428e-07
1.86428e-09
4.95833e-08
6.27089e-12
7.41897e-06
0.00693082
0.00150827
2.55969e-06
3.87738e-10
2.05135e-07
0.000918464
0.00179226
2.55953e-08
4.8868e-06
4.90332e-08
1.07556e-08
7.57335e-09
2.40433e-09
2.68942e-07
7.67252e-07
8.68016e-09
8.5517e-10
2.92054e-07
1.05481e-08
0.00311347
0.0010085
2.33731e-07
2.30393e-10
3.05948e-09
0.000786964
4.73925e-10
4.97877e-07
1.00768e-08
1.10495e-05
3.26056e-10
1.28788e-07
8.13682e-09
3.84771e-09
2.00109e-05
0.0026839
0.0012055
2.65908e-08
0.00127918
7.01206e-10
2.56156e-07
2.98284e-08
0.00200947
7.81568e-09
3.06302e-06
4.30252e-10
5.40561e-08
4.93042e-06
2.40339e-08
2.72628e-06
4.83926e-09
2.50356e-07
6.05793e-07
2.94488e-07
6.33213e-08
1.08666e-08
7.12514e-09
6.05366e-08
2.41307e-08
4.17958e-09
2.49346e-09
0.00125142
0.000691126
2.79609e-09
0.00139196
1.6774e-10
5.59822e-09
7.79206e-07
1.18633e-08
1.03209e-10
0.000647937
2.37445e-09
6.87761e-11
1.07559e-05
1.5916e-10
3.03489e-11
1.02835e-06
0.00156475
3.72997e-09
0.000694135
7.80359e-10
3.80372e-08
0.00083276
1.24152e-07
1.67987e-05
2.06854e-11
3.01924e-09
2.30388e-08
3.89362e-09
0.00369556
0.000756753
1.95478e-06
8.65676e-10
0.000864215
1.65481e-10
6.59431e-09
8.54105e-10
0.00174964
3.4664e-05
2.16768e-07
2.49564e-11
1.72878e-08
0.000899341
1.86659e-05
7.59091e-09
4.74142e-06
0.00185329
0.00143098
6.50186e-07
0.00144925
1.80903e-05
0.000795309
7.27156e-07
0.00113977
6.0042e-06
7.77336e-08
3.51846e-08
4.35119e-08
7.83814e-06
1.63986e-05
1.16808e-10
1.05823e-07
1.85368e-09
7.51933e-07
1.57833e-07
2.78338e-08
1.64171e-07
5.4127e-06
4.61357e-09
1.77676e-07
6.88275e-09
4.76006e-10
1.87261e-09
8.85407e-10
8.93949e-08
1.99602e-09
1.33046e-08
2.0601e-09
2.67043e-07
7.62914e-07
7.74791e-11
4.78607e-11
1.0689e-09
2.1793e-09
2.28042e-08
2.10437e-05
4.00925e-05
1.91717e-06
1.34763e-10
5.71906e-07
1.46134e-07
0.000861655
5.26819e-07
3.01305e-07
9.3908e-09
1.67781e-08
5.07526e-08
3.90245e-06
2.01758e-06
0.00315656
0.00124968
1.46561e-09
1.424e-05
5.53227e-06
8.63545e-10
4.56921e-08
9.04476e-08
1.89595e-09
3.88446e-08
8.02755e-08
0.00115006
2.70324e-11
1.56327e-06
3.06508e-09
0.000814037
9.71529e-07
0.000664158
6.26537e-07
8.48661e-10
1.16219e-09
8.86649e-09
4.86991e-07
3.4341e-07
7.36845e-08
1.64914e-07
1.88921e-08
1.44612e-05
5.35452e-06
2.60669e-10
2.0124e-06
9.5565e-07
8.46007e-07
1.70385e-06
5.70179e-05
8.09506e-08
0.00169849
5.8506e-09
1.18187e-07