/*--------------------------------*- C++ -*----------------------------------*\
  =========                 |
  \\      /  F ield         | OpenFOAM: The Open Source CFD Toolbox
   \\    /   O peration     | Website:  https://openfoam.org
    \\  /    A nd           | Version:  10
     \\/     M anipulation  |
\*---------------------------------------------------------------------------*/
FoamFile
{
    format      ascii;
    class       volScalarField;
    location    "44";
    object      SgT;
}
// * * * * * * * * * * * * * * * * * * * * * * * * * * * * * * * * * * * * * //

dimensions      [1 -1 -3 -1 0 0 0];

internalField   nonuniform List<scalar> 
111485
(
4.10189e-16
0.00901948
0.0210419
3.04056e-17
0.0449927
3.96656e-16
0.0417133
0.00587332
0.0183895
0.00113212
0.041888
0.00915261
0.00425299
0.00083527
0.00592632
0.0316584
0.00129403
1.99727
0.0100177
5.60579e-16
8.6264e-16
9.16945e-19
0.0234912
0.0355279
0.0084717
3.94224e-17
0.0401105
0.00174115
0.0159357
3.00605e-17
0.0435828
0.01736
7.97328e-16
6.45007e-17
0.00966924
6.8571e-19
0.010544
0.00388916
6.46724e-08
0.0215881
2.99215e-17
0.0720052
0.0144336
0.000997367
3.66509e-05
2.22763e-17
0.0328319
0.00072121
0.0475653
3.89868e-16
6.93823e-16
9.84006e-15
2.47221e-15
0.044504
2.12274e-15
0.0430307
0.00355593
2.58861e-18
2.70502e-05
0.00449317
0.0149344
8.84164e-18
0.00402075
0.0884164
1.3387e-15
0.0035922
0.300974
0.0972578
0.000922275
0.00512471
6.61249e-06
0.00547342
9.53005e-15
0.00244708
6.40678e-17
0.000637934
9.99558e-17
0.0425239
2.23516e-16
2.87192e-15
5.23003e-05
0.0316019
1.00235e-16
2.48321e-17
0.00813021
0.0044265
5.82556e-10
0.0225541
4.6412e-05
0.00678448
0.000865926
0.0410941
0.0103466
6.14008e-05
0.0559709
9.20719e-17
4.25978e-18
0.00145386
8.46074e-09
0.00147975
7.76254e-16
0.0195136
6.25104e-18
0.0214671
0.00482795
1.6069e-15
1.80932e-18
0.00748591
0.00318557
1.50003e-07
0.00563259
0.00507144
0.00313928
0.00264434
2.92565e-17
3.04551e-05
3.25957e-16
2.02184e-17
0.0113608
8.3333e-17
3.76123e-16
1.51749e-15
1.31808e-16
7.12122e-18
0.00233867
2.33323e-06
5.15987e-16
0.00149884
6.17901e-18
0.000173307
0.00098885
0.028088
5.7659e-18
1.51971e-14
7.39902e-15
0.0491607
1.47527e-16
0.0409749
0.022529
0.00255411
0.00017187
0.00186986
0.0204544
0.00310596
0.00379644
0.0122029
1.49245e-16
2.50172e-17
2.35122e-18
0.0262457
0.00183038
1.76786e-16
1.32941e-07
0.00502262
4.81197e-07
0.0106246
0.0154993
0.00942963
1.689e-07
8.05821e-18
5.80824e-17
0.0526905
0.0252427
5.15892e-06
2.32075e-07
0.00518912
0.00369272
2.28744e-18
9.96674e-06
6.58837e-05
2.79982e-18
1.15238e-17
0.000148431
7.53607e-17
0.00613906
0.00227001
7.93683e-16
2.94063e-16
1.30288e-15
6.18793e-16
2.18928e-16
2.25633e-17
0.00134028
0.00671794
0.027701
0.00415948
0.00641753
0.00356722
9.48515e-05
1.64514e-17
0.00425234
6.45467e-16
3.84904e-17
0.00582232
0.0110835
0.0228045
0.0103173
0.00463367
2.56193e-17
0.00605071
0.000573252
4.51818e-05
0.0111811
0.00230487
3.45452e-17
0.00326052
0.0275313
4.42986e-15
0.000230326
0.00651068
0.00227982
0.000309828
8.1752e-15
8.45229e-17
0.00728472
7.39176e-12
0.123855
5.37301e-17
0.00601027
0.0190245
0.121868
8.56738e-19
0.00267564
0.0119899
2.03957e-13
1.10905e-17
3.87342e-18
0.166652
4.18601e-07
5.24461e-16
2.90573e-16
0.00914893
0.00846622
0.0160008
9.93615e-17
9.23872e-15
9.33969e-06
4.00126e-17
0.00272367
0.00832916
0.0149829
0.0107857
0.00917438
5.97435e-18
3.22705e-07
0.000565283
2.00532e-17
1.91871e-16
0.0307205
0.0214551
3.12956e-15
0.00559326
0.00979034
7.12965e-18
9.29505e-15
0.0001533
2.36148e-16
8.21381e-15
3.92722e-05
2.33286e-16
0.0156157
0.0117294
0.00336146
8.81631e-18
0.0109698
2.62389e-18
1.5929e-17
7.47851e-20
3.7263e-08
0.0225667
0.00553123
0.00466854
0.0369482
0.0109751
0.0014967
0.000590617
0.034048
0.00941856
1.65048e-18
4.19132e-17
3.36952e-07
0.0220564
0.021514
0.0128331
1.31459e-16
0.00633005
0.00194947
0.00276434
6.19014e-06
4.40343e-06
0.0122054
0.00211881
0.00186251
7.50659e-18
0.000779143
1.93394e-17
5.27114e-07
2.14249e-13
0.266641
0.0682738
0.0138366
6.63813e-16
2.57996e-17
0.00831168
0.00190176
1.07693e-15
2.9224e-17
6.54068e-15
0.000415686
0.0622556
0.00334001
0.0154409
0.0182855
6.23373e-16
1.19148e-17
2.55627e-17
0.00351199
7.57558e-13
0.0013256
0.186987
5.82709e-07
1.0672e-17
2.81417e-17
2.96954e-17
6.08983e-15
0.0574304
0.0123253
7.57565e-19
0.00486224
2.4815e-15
1.29761e-15
0.0671067
0.00538532
0.0107222
0.00855158
4.39109e-16
4.75398e-15
1.92381e-17
0.00872262
0.0189184
0.00469715
1.37729e-15
1.87953e-10
0.000225191
0.00177472
0.0073433
6.34192e-05
0.0284704
1.82076e-16
0.0370341
0.00315891
0.00786497
0.0230908
0.014729
1.24798e-16
4.82399e-17
4.45896e-17
4.82883e-16
0.0321003
0.0085653
0.037088
0.0669666
3.27134e-17
0.0201482
2.07806e-18
5.76393e-16
0.0161302
6.19284e-16
0.0398089
1.74503e-17
6.61645e-18
0.0237395
4.77543e-18
0.0140934
0.000335011
1.61522e-16
0.00112411
0.0150742
6.29132e-16
0.00798181
0.0106722
0.00739128
0.000434711
0.00291419
0.00614057
3.86637e-16
1.0861e-16
0.00136364
1.1616e-17
0.00500696
0.112094
4.72961e-16
8.3104e-17
0.0256165
0.000127703
0.00759233
0.0224339
1.82322e-16
0.0390082
0.0197421
7.47184e-17
0.000697162
0.00281851
5.79676e-17
2.17038e-16
0.0118172
0.00487617
4.26813e-18
3.25874e-16
1.08251e-08
1.60899e-16
0.0105662
2.52344e-17
1.11916e-17
0.0177018
2.47516e-06
0.0146335
0.0266928
2.07301e-16
4.3816e-15
0.00108311
9.14366e-15
0.000107781
0.0108176
0.121703
0.905603
4.49543e-15
0.00260256
0.000234462
3.37004e-17
0.0350302
0.0330977
1.56573e-17
1.14155e-08
0.00010861
2.84404e-15
0.0256964
0.026892
0.0127322
1.00057e-15
0.000590597
0.0206221
0.0212177
6.04389e-07
5.81881e-15
9.20842e-11
1.0658e-17
2.07613e-05
0.0318425
2.73681e-18
0.00957686
6.81536e-05
4.05313e-14
2.11712e-18
9.61767e-15
9.84942e-17
0.00428666
0.00951719
0.00711285
0.00244113
0.00338778
4.53149e-16
0.00228345
1.50145e-16
0.0356585
3.25623e-16
1.62779e-16
2.04717e-17
0.0317993
2.92411e-17
2.9077e-17
3.3715e-07
4.58505e-17
1.09272e-17
0.000875488
2.66763e-18
6.14251e-15
2.43885e-17
1.10321e-16
1.36984e-15
3.71838e-17
1.01096e-16
0.00815621
3.33824e-17
0.000392518
0.00166257
0.00265785
4.2606e-16
0.000624358
9.25221e-18
3.14659e-17
0.00310819
0.00204777
0.0293983
0.0222382
4.39407e-15
0.00186959
0.0726827
0.00841145
0.00110945
0.00365656
6.4312e-17
0.0223924
7.27989e-15
0.00427963
1.49746e-16
0.0691195
1.48566e-15
0.0210616
0.000322921
8.16838e-08
1.40767e-16
0.00233328
3.01623e-17
0.0759194
0.0443222
5.89864e-18
1.58047e-17
1.94844e-15
1.261e-17
1.99539e-10
0.054594
5.08456e-16
1.73805e-17
0.00287998
4.09513e-17
0.0304222
2.19183e-16
0.000350846
1.97681e-16
0.000586335
7.4545e-07
0.00112127
0.0124548
1.73528e-15
0.000365885
1.03071e-16
3.01585e-17
0.016283
4.50953e-16
3.57275e-05
6.11163e-16
0.00147568
4.33219e-17
0.0661512
7.80582e-17
7.50329e-15
0.0121262
0.00387784
0.00150504
0.00430893
0.00590787
0.0208793
5.70318e-17
0.0207362
0.00708449
1.50787e-17
5.69052e-08
0.0314745
0.012546
1.32101e-15
0.00549945
0.00543755
0.0012775
0.00139241
1.46331e-10
0.013802
0.000982681
0.000166755
0.0267728
0.0141798
0.00109272
3.78239e-15
3.0277e-09
0.619825
2.7938e-16
0.000418065
4.83698e-18
1.83227e-14
0.00729623
0.00363793
1.24586e-07
8.42199e-06
5.5106e-16
0.0185136
0.00994203
2.01013e-16
1.1391e-11
0.00204074
1.55011e-16
2.14579e-16
9.75951e-18
3.08574e-17
0.0152517
9.19402e-18
1.52878e-17
0.00987506
0.00233938
1.00062e-13
0.00937347
1.07301e-15
0.00859988
7.7635e-16
2.67409e-17
0.0571395
1.9495e-17
8.88009e-17
3.80359e-15
0.00490105
1.89285e-14
0.0328328
0.00638718
2.862e-16
0.0728079
0.00283332
0.0261315
0.0235787
0.000929426
9.17551e-05
3.55681e-17
0.0569104
0.0415926
1.10263e-16
0.000308786
0.0361844
0.00708553
0.00155629
0.0244307
0.0237698
5.58117e-17
0.0104566
3.67244e-06
1.1591e-15
0.0320001
0.000299476
2.3918e-14
0.0109184
0.0388264
0.00158821
0.0185346
0.016847
0.00706547
9.83025e-17
0.00915927
0.000400483
8.38774e-12
0.0144638
0.0149017
0.0347953
2.35366e-16
0.0021125
5.05881e-19
5.97558e-17
8.14819e-17
2.7026e-15
1.68504e-05
5.29211e-15
1.2539e-10
8.85704e-17
2.04124e-16
5.12748e-05
0.0396502
7.04385e-16
0.0365961
1.63367e-16
9.13671e-17
1.2421e-15
0.0396389
0.000496256
1.16002e-14
1.38692e-17
1.22505e-16
1.08137e-17
0.238282
0.0684423
1.42549e-15
0.00176882
4.67236e-06
1.25546e-17
0.0348942
0.00649675
0.0129346
6.28618e-17
2.07486e-16
0.000392738
0.00106937
2.27587e-15
8.141e-18
2.50263e-15
0.00706584
1.48009e-17
2.17158e-16
1.78709e-16
0.0384954
0.0016125
2.56602e-17
4.12145
0.142674
0.0109011
2.4166e-18
9.41438e-16
0.0567227
0.000304342
9.07387e-16
7.59805e-06
0.170078
0.00291095
0.0119148
1.63712e-15
0.0578004
0.00152105
4.30102e-18
3.48166e-16
6.70795e-18
2.95369e-17
1.54712e-17
8.72777e-17
0.019328
2.26875e-16
5.5383e-17
3.92351e-15
0.0119189
0.0234293
1.82377e-15
2.68048e-16
0.105661
0.0133281
0.00878128
1.09681e-15
2.3364e-17
0.034584
2.12664e-17
0.00227496
0.00240351
0.00353674
1.04121e-15
2.91802e-17
7.64357e-17
1.1757e-17
0.0158605
2.34497e-18
1.10093e-16
0.000817287
2.77561e-16
0.0211534
0.00140638
5.45192e-16
0.0358255
0.601456
0.00232364
0.0294237
0.000200133
0.0479947
2.3418e-10
8.20019e-16
0.0218656
0.076615
0.00620202
1.01633e-16
1.32832e-09
0.517791
0.00988691
1.84846e-17
0.00291486
0.00313579
0.00143435
6.04025e-15
5.5048e-17
6.18156e-18
0.012641
7.37694e-16
0.00233106
4.70473e-16
0.00145544
0.00127574
0.0343211
0.000535002
2.90964e-16
2.7898e-16
5.24066e-15
0.019718
2.95529e-16
6.76609e-16
4.26985e-05
3.21348e-18
8.07189e-19
7.59565e-17
1.59815e-17
0.00897191
6.52582e-15
2.44521e-17
7.21387e-10
4.10714e-15
3.96128e-18
1.00211e-14
1.90486e-16
3.26679e-06
0.00151607
2.54166e-16
0.00333435
1.22979e-05
2.77266e-07
8.53374e-05
0.00439092
8.39056e-17
1.00636e-05
0.00920341
0.000372583
3.08468e-17
1.09247e-08
0.000752845
5.20544e-15
0.00888617
0.000299951
2.01214e-06
0.0253063
0.00866964
0.00215955
0.00553606
0.00197606
3.75897e-17
7.12742e-16
0.030128
0.0243815
1.77169e-17
0.00775953
0.0536353
0.0277399
6.83844e-16
0.00166109
4.19287e-17
0.010279
0.0134851
5.22758e-16
0.00144219
0.00047569
1.5011e-06
0.00451252
6.07475e-17
0.047156
1.93643e-05
0.00186049
4.02074e-05
1.37644e-05
8.21077e-17
2.72921e-17
0.00833178
7.26626e-17
8.96323e-05
0.000328822
1.08052e-05
6.47707e-08
6.1674e-08
1.23267e-06
3.34512e-18
2.09563e-15
0.0216362
3.71421e-17
0.00115869
0.00234953
1.8671e-15
3.17879e-16
6.41004e-07
1.71125e-10
2.16134e-17
3.33648e-06
1.57671e-16
6.09114e-17
1.81038e-18
8.1248e-17
9.17231e-15
9.10166e-18
0.000330597
2.68654e-15
2.34704e-17
1.06899e-16
4.73126e-06
7.05318e-05
0.00204254
0.00916492
1.04898e-16
8.47916e-16
0.000232698
9.33256e-17
7.64942e-16
1.01108e-13
0.0194609
0.040752
8.24301e-16
1.06505e-15
3.79968e-15
1.07042e-15
8.93084e-19
3.84561e-17
0.00845572
2.58511e-16
7.93404e-08
0.0269314
4.4573e-17
3.23542e-16
2.18947e-15
1.52196e-05
8.46244e-16
3.12937e-17
1.40536e-17
5.89119e-06
2.08896e-17
0.00530221
1.06918e-06
4.36394e-09
7.55569e-18
4.68951e-05
0.00260424
0.0434728
1.02998e-15
5.53224e-06
0.00722292
9.48087e-16
3.56174e-16
1.28055e-13
1.51011e-16
0.00787562
0.00175039
0.00396275
1.59896e-07
1.00846e-17
0.022289
1.32136e-15
6.14085e-15
7.53871e-14
1.75864e-17
0.0252976
1.90239e-16
3.71679e-15
2.63258e-06
0.0487968
4.34066e-16
0.00300306
5.4102e-16
0.00112335
4.17603e-15
8.88882e-17
8.069e-18
4.80766e-17
0.00264506
0.000682991
0.339013
1.68425e-16
3.54104e-16
0.00205122
4.7109e-17
1.46484e-15
7.49322e-17
0.0422304
5.61214e-06
0.0286773
1.12333e-15
6.49604e-06
2.96549e-05
6.81554e-14
6.94357e-05
2.35487e-16
0.00182452
0.027628
0.0200146
0.00164596
0.000326352
5.48557e-17
6.79415e-18
1.05018e-17
1.40012e-05
1.42015e-17
0.00544637
1.15654e-17
0.175888
1.43578e-16
0.0417127
0.00354316
2.54242e-16
4.12114e-17
5.46849e-16
8.46833e-18
0.0313454
6.5201e-15
4.16736e-14
0.0129908
0.00536083
1.32582e-15
1.3461e-14
2.13585e-15
5.28303e-15
5.1652e-16
4.48231e-18
0.0204104
0.000519743
2.74075e-16
4.51924e-17
2.77982e-07
1.04181e-16
0.00132678
0.000115803
7.30518e-16
0.00271382
3.55069e-17
0.000331609
6.43741e-16
0.000890062
3.37486e-16
1.27492e-07
1.79171e-06
0.000876947
0.0144007
0.0274187
1.01262e-06
5.12975e-17
0.00044953
1.53384e-16
0.00436998
9.625e-17
8.61457e-18
7.44029e-14
3.71173e-17
7.41969e-17
3.81446e-17
0.00569484
0.0062781
3.98304e-18
6.21646e-15
2.67733e-15
0.000535376
1.76202e-05
9.5152e-19
0.0184351
0.000212978
4.12526e-16
0.0224799
0.00812201
0.00332356
0.0134677
4.47829e-17
7.19862e-17
6.3967e-18
3.03106e-16
0.0362743
4.12881e-18
0.103801
1.02067e-17
0.000216876
0.000729001
3.61005e-17
0.00066984
6.25077e-18
2.11752e-16
0.00226936
2.58397e-08
0.00590334
1.08772e-17
1.77315e-15
2.29569e-16
0.000694208
2.22729e-15
2.08636e-18
1.04096e-16
5.10569e-07
1.59475e-15
1.19127e-05
5.63153e-15
2.30672e-15
1.29398e-16
0.0178361
0.00959288
0.0176828
0.034314
7.83457e-18
9.65953e-06
1.09933e-17
2.62652e-18
0.0107392
2.61813e-17
3.11967e-06
0.000255179
0.00628696
0.000240472
9.3215e-11
0.00242421
2.68815e-17
1.76875e-10
9.82964e-10
9.32186e-05
0.00123566
0.0134804
6.59211e-08
7.15487e-16
0.0311599
4.85974e-16
1.72906e-16
2.96253e-05
0.0744926
1.01449e-07
5.99098e-17
1.65937e-16
6.04396e-07
9.16965e-17
3.968e-16
1.01652e-05
5.22546e-15
1.81998e-15
0.0419734
0.000141497
0.000105741
0.0234443
0.00717107
3.79637e-16
3.63418e-17
3.70589e-06
0.00419902
9.58819e-17
4.0418e-15
0.0112353
4.0801e-16
2.05027e-14
2.3437e-15
2.12593e-15
5.32635e-13
2.52239
1.22454e-16
0.000184448
2.07354e-17
0.0153291
1.79812e-16
3.28952e-12
1.16407e-15
7.5968e-16
3.70114e-17
3.90523e-16
0.00336466
3.61311e-17
5.22502e-16
4.44273e-15
2.37208e-16
4.86812e-18
2.56887e-16
0.00996377
2.59089e-17
0.0110343
0.00233671
1.99777e-16
0.00172506
1.47406e-15
0.000399195
1.49552e-06
0.0040647
0.0141739
1.77732e-16
8.95418e-05
0.0093407
4.50113e-06
1.16218e-17
1.07872e-06
0.0169616
0.00476141
2.05551e-16
0.0267177
1.79844e-15
2.16961e-17
1.54038e-15
9.3231e-17
0.00827418
3.58176e-16
5.97625e-16
0.00805424
1.08305e-07
0.0027852
1.01084e-17
6.92703e-14
0.000676168
1.94371e-17
0.000147274
1.44683e-15
0.0217511
1.32985e-15
1.52939e-16
5.53719e-05
3.67481e-16
0.000101613
2.08454e-16
9.08181e-17
0.00534171
0.000390934
0.00488891
0.0174773
0.217502
0.0197329
2.04945e-16
7.00836e-15
0.00236914
0.0066913
0.0351919
0.0133344
4.06036e-16
0.0112893
1.01673e-16
3.40826e-16
0.00763373
0.00958062
2.06563e-15
0.0124334
1.24002e-17
0.0028405
0.00827461
1.02882e-15
4.76056e-17
8.34905e-18
0.00232374
5.34113e-16
2.08617e-17
0.0035478
0.0199322
3.99527e-06
0.00767568
5.21508e-16
3.60366e-17
5.49082e-05
0.000656023
9.51731e-17
0.0092448
2.08811e-15
0.00243861
3.5098e-17
2.15027e-17
0.0111217
1.21728e-17
4.50535e-05
0.00296694
2.08959e-15
1.67256e-16
0.00365157
2.54818e-11
0.0539076
3.62058e-16
0.285296
9.41845e-17
7.4145e-14
2.05502e-14
0.00643502
1.50672e-14
1.87307e-15
0.00500987
2.90309e-15
0.000161756
1.58662e-14
1.09775e-15
1.86806e-15
1.57737e-07
0.000773818
1.10265e-16
1.33427e-17
0.0359613
0.000940706
2.03185e-15
0.000596121
9.31679e-16
2.89952e-16
1.20465e-06
0.00368892
0.00117231
8.70304e-16
5.66252e-17
1.46329e-17
1.09506e-17
1.09475e-15
4.01104e-15
4.09194e-17
1.45042e-16
1.9469e-16
1.17706e-15
2.3327e-16
2.65757e-16
3.43471e-16
5.398e-16
1.57817e-16
5.82063e-16
2.78995e-16
2.01757e-16
2.47627e-17
4.08391e-17
1.39843e-17
0.0183515
1.61168e-16
7.72402e-16
8.71648e-18
0.00619216
1.60635e-17
3.64971e-17
0.194764
4.40371e-16
4.02621e-17
0.0218889
3.35052e-12
2.04032e-16
0.00437475
0.0232804
2.63728e-17
0.00127304
0.00216289
5.77807e-16
0.0111038
0.0373775
0.0165039
0.00287709
0.00975549
1.6508e-16
2.33562e-16
0.0027549
0.0101714
0.00268468
4.08315e-16
0.00559554
0.0013525
0.0186452
0.0107042
0.000641176
0.0135931
0.00106974
0.00844251
1.4052e-17
0.0265709
0.0075605
0.0018191
0.00117501
9.48195e-17
4.52594e-17
4.12369e-17
6.92019e-18
6.46555e-17
0.00873836
0.0121993
2.42e-17
4.83144e-17
3.72489e-15
4.09105e-16
1.44109e-16
1.16368e-15
9.77484e-16
1.27175e-16
0.00409441
8.66766e-05
0.0194782
4.9076e-05
1.63926e-17
3.49216e-15
0.0331501
2.85079e-06
2.12808e-16
6.3819e-17
0.0070084
5.15431e-17
4.34647e-17
3.59549e-06
0.00701537
0.0122271
0.0293514
0.0270172
1.15298e-16
0.013984
0.000261311
2.07047e-14
7.76128e-16
0.0102091
1.80931e-16
5.16696e-17
0.0276911
0.994113
0.000149579
1.67696e-16
2.09761e-18
0.0159751
0.022211
0.0162151
0.00576918
0.00198911
5.04484e-17
6.81598e-07
2.27544e-09
2.73859e-17
2.90399e-15
0.0169695
3.27342e-16
0.00193916
0.0258591
0.0155082
0.0119764
2.53411e-17
0.00522778
1.01665e-17
1.82062e-16
2.28659e-17
2.05389e-17
0.0025089
0.710032
5.55509e-17
7.14326e-17
4.10655e-06
0.022473
0.000464636
0.00617029
0.0312048
0.00456346
0.0197122
4.74529e-16
2.94254e-16
1.0113e-15
0.0306355
0.00510611
2.72381e-08
1.90225e-15
2.72685e-17
8.91701e-14
0.0186975
0.00268899
6.25926e-17
0.00431854
0.0450348
0.00817536
0.005443
2.12387e-16
1.18237e-13
0.00613121
0.0214955
1.48972e-17
0.000238125
0.01203
0.000857358
0.00884994
0.00411596
0.00747465
2.41328e-14
0.00346608
0.0186865
0.0364801
1.2736e-09
0.0230152
1.73882e-14
0.0159139
0.000146333
5.36497e-18
0.00249423
0.00635228
0.000312623
0.010677
2.17342e-07
0.000191886
1.72892e-05
0.0245668
0.00311881
4.42776e-16
0.0377532
0.00105738
8.33072e-16
1.22533e-17
2.55412e-08
4.9563e-06
0.000898562
1.01324
0.0325028
0.00777069
2.56769e-07
0.0371318
2.40542e-16
2.51438e-17
0.00383209
2.33312e-15
0.00231278
0.0061513
0.00180786
0.00445427
9.38869e-17
0.000238447
0.102146
2.46098e-17
0.0596113
0.00653121
1.01965e-16
0.00342111
0.00018064
2.77584e-17
2.12891e-09
9.47306e-05
3.14797e-16
5.11269e-17
3.47717e-17
0.00427094
0.00450736
0.0132464
1.59195e-18
0.00560852
0.0296799
2.41588e-16
0.00701924
0.0108705
0.0240636
0.00130308
2.60417e-16
0.000616525
0.00894742
0.00916832
0.00780248
0.0368983
0.146458
0.00324819
2.23182e-17
5.93216e-06
0.0502817
1.01846e-17
0.000374803
4.03831e-17
4.19367e-17
2.44266e-17
2.67184e-18
1.02186e-16
0.00265825
1.27065e-17
0.00612529
0.00144149
1.9152e-18
0.0040841
1.58118e-14
0.0139145
8.43764e-16
6.95203e-06
3.33353e-16
0.0206479
0.000111223
1.26154e-06
0.00356912
0.0277557
0.0165586
0.00364017
0.0239575
3.40418e-12
0.0196733
0.0497319
0.00818996
3.02194e-18
0.00118909
0.000358031
0.00478986
0.0113124
0.000755836
8.53538e-17
4.53181e-15
3.21123e-16
0.00404664
9.55276e-17
4.7502e-05
0.000227456
0.000532847
0.000271695
3.16708e-16
9.20833e-17
2.85776e-16
0.00737978
0.0199803
0.00127573
7.33252e-06
0.0018543
0.00613141
0.00196669
0.000719982
0.00628351
0.00530562
0.00231665
7.2837e-16
2.68434e-17
5.84344e-18
0.013794
0.0102482
1.43191e-17
3.24205e-16
3.10306e-13
0.00708105
0.0185952
4.47181e-16
0.00188844
5.90655e-18
3.80876e-07
0.00525018
0.0740274
5.83845e-17
9.8227e-19
0.00341987
6.02882e-17
8.47805e-05
0.0109825
5.30889e-15
0.00938896
0.0313462
0.0160249
8.08787e-17
0.000660982
4.41021e-16
5.70946e-05
0.0454408
4.56144e-16
5.02481e-17
0.010732
3.60925e-13
3.64858e-17
3.51058e-05
0.00107349
9.37974e-18
2.27558e-17
2.71802e-14
4.6774e-05
0.00124994
0.00305331
0.0201936
0.00946967
2.18597e-16
3.25624e-07
0.000421405
1.72325e-16
5.9058e-18
2.84705e-17
2.47533e-16
3.3652e-15
1.44091e-15
1.0201e-15
2.33357e-16
7.65657e-15
6.51508e-16
1.38578e-09
1.38537e-15
0.000410371
4.87149e-15
8.63537e-05
2.75623e-14
6.33063e-05
1.9096e-14
6.10335e-17
0.0219993
0.00804342
4.80175e-15
0.0867218
1.53342e-09
3.65167e-11
9.62891e-18
0.00104593
5.38247e-14
0.00218883
4.75574e-06
0.000972939
3.9729e-15
5.32136e-16
0.00063362
5.83345e-08
6.53224e-16
2.43237e-17
0.0368928
8.8332e-15
0.0339116
4.02788e-15
4.79679e-17
1.10291e-06
0.0266718
0.00843783
1.01071e-16
0.000398216
1.67357e-15
0.00102916
1.2201e-05
0.00186733
0.000645581
1.98147e-18
0.0190185
0.00075789
0.00481013
8.33165e-17
1.92272e-16
5.54445e-17
0.00522731
0.00398749
0.044029
1.46038e-17
2.35782e-07
2.43153e-17
3.18925e-16
1.64145e-15
1.58556e-16
0.00237753
0.00156175
0.00236657
0.279336
2.02714e-17
0.0286963
0.03296
0.0174947
0.00122225
1.12001e-17
0.0054435
0.00326183
0.00477088
8.43713e-07
0.0096093
1.27994e-15
0.0017227
0.000889987
0.0303826
8.00664e-07
0.00241185
1.19906e-15
0.0166268
1.85221e-16
3.11244e-17
0.00142535
7.67894e-18
0.0069532
1.88313e-17
3.1093e-16
3.54031e-15
9.03622e-18
8.3384e-19
0.000590851
1.46887e-15
0.000599368
4.49804e-16
1.02276e-17
0.0187881
0.00593273
0.00725036
0.00808404
7.55426e-18
0.554783
6.9925e-18
0.0666686
2.16221e-15
0.0185508
0.0180585
0.00183289
0.0533982
7.5847e-15
2.47306e-14
2.87689e-16
0.00205736
4.14333e-18
2.10331e-16
0.0167627
1.26876e-16
2.19108e-17
0.00404204
1.1494e-15
0.0125693
1.11021e-07
7.78574e-15
1.04252e-15
4.0771e-15
0.00143414
0.00575327
9.40593e-17
0.0207045
0.000242244
3.52927e-15
0.0942697
1.30555e-16
0.0153868
0.0170115
0.00295763
1.59584e-16
0.0154901
0.00824722
0.000598717
0.00410458
0.0111032
1.73419e-16
3.27459e-16
1.49353e-06
4.30027e-16
1.01881e-16
4.73718e-17
0.01829
0.0359473
0.00400808
0.00175251
9.16058e-16
0.0416349
0.0430012
0.00365665
0.00300081
0.0079617
0.0200959
0.00204106
2.21898e-16
2.53112e-16
9.30775e-17
0.00504935
4.22522e-17
0.024168
7.13392e-15
0.000631321
2.94374e-07
0.00238599
0.0208721
7.28951e-18
8.82855e-17
0.0019796
0.000278704
1.19606e-16
9.34587e-16
1.59715e-18
2.70961e-05
0.000257544
0.000105813
0.000634786
0.00876631
0.0836458
6.85293e-16
8.27492e-17
1.7385e-15
0.00354765
0.0188273
0.0186924
0.031046
0.00191394
0.00211202
1.47337e-16
7.10754e-17
4.119e-13
6.24099e-16
0.00934589
0.0190619
2.16216e-16
2.03143e-15
1.17985e-15
8.70878e-17
6.36255e-18
6.66351e-15
0.0109365
5.38098e-16
0.00108572
0.291765
1.76143e-15
1.5529e-05
0.0208992
0.000617652
1.39069e-17
1.88698e-15
0.00367881
5.08116e-17
0.0115948
1.46416e-06
0.021815
9.68522e-15
1.29878e-12
5.09225e-17
1.77863e-16
4.13228e-16
4.82913e-16
0.173678
2.15682e-16
0.00441025
0.00105809
3.50849e-16
4.63628e-16
0.00146202
2.23473e-16
1.47905e-16
0.0141869
5.04402e-05
6.63972e-16
7.5773e-16
2.78659e-15
0.0148036
1.92847e-17
1.11776e-17
0.000244934
0.00196857
0.00224689
4.71256e-16
3.549e-16
2.42086e-16
0.00295214
0.00140607
0.0103622
0.00295224
3.12644e-16
0.000684107
0.0123559
0.00582247
1.01972e-17
2.17542e-18
2.42015e-17
1.53144e-17
4.87183e-17
0.0282276
0.00717111
0.00426213
3.1304e-18
4.00302e-17
9.43701e-18
9.18741e-18
3.5642e-16
6.34402e-07
0.000291331
0.00230016
4.61354e-16
1.52806e-16
9.68891e-18
3.84081e-09
0.0275177
0.094742
1.04605e-16
6.01367e-11
2.85599e-13
8.32158e-16
1.13732e-16
0.0032663
0.0067597
1.51629e-16
2.5618e-16
0.00243522
1.64711e-16
0.000681292
0.00115154
2.00855
6.18949e-17
1.06409e-15
0.0119911
0.000361292
3.52781e-16
0.634902
0.000509826
0.00672652
3.08763e-15
4.58796e-16
5.50756e-18
2.98572e-16
0.00696174
9.03637e-05
3.23269e-16
0.0217105
0.0159704
0.838227
6.61441e-17
1.83634e-17
7.51695e-16
5.85479e-17
0.00536367
2.81203e-08
2.53802e-16
8.05181e-15
0.0167522
0.00105566
0.00481342
5.05133e-16
1.43759e-17
0.0256039
1.22014e-15
4.02674e-16
6.16658e-17
7.0747e-16
0.0227463
1.86575e-15
3.67674e-16
1.30911e-15
0.0228947
0.0126196
3.36814e-17
4.69396e-17
3.0316e-16
0.0133876
7.42547e-08
1.36182e-15
5.28274e-16
1.60976e-17
3.76952e-17
0.00217593
0.0086457
1.40791e-18
0.00205449
0.000863726
0.00392727
4.71625e-17
1.99503e-18
2.30346e-16
1.86089e-17
1.64174e-17
0.0213978
1.28973e-15
0.0155224
2.84553e-15
0.0011524
4.07307e-14
0.00169878
2.04773e-16
4.77137e-17
0.010183
0.261427
1.47835e-14
0.00259111
1.13974e-16
0.000285468
2.0354e-14
1.68106e-16
5.40467e-16
1.66151e-07
3.86055e-16
0.000358742
1.04323e-16
0.033493
4.36473e-17
2.714e-16
4.85029e-17
3.39656e-16
7.13269e-06
0.000110931
9.28586e-17
0.00376493
1.55257e-18
0.00351649
0.0195553
0.000888712
1.5073e-17
2.96985e-06
0.000305323
1.37605e-06
0.00490618
4.9801e-07
0.00119456
2.0466e-14
4.05886e-17
3.26448e-07
0.00471685
0.000168965
2.16508e-15
3.96429e-15
3.33393e-15
0.431312
6.90071e-18
7.13029e-16
1.37347e-17
1.98187e-17
3.1667e-18
8.54257e-05
0.000121488
0.000753095
5.21235e-05
6.87158e-13
0.000913248
1.66486e-17
0.00632701
6.00074e-16
1.30169e-17
1.63296e-17
3.2054e-15
2.40403e-05
1.19202e-15
2.00208e-17
1.57043e-15
0.0145167
2.23912e-15
1.16654e-17
0.0106223
1.02446e-16
0.0364908
0.0655714
0.38478
9.79194e-17
0.204593
1.27489
1.80503
0.668715
5.21822e-16
2.04713e-17
0.00473396
0.00523726
5.88184e-16
0.00293818
7.46706e-17
0.0310472
1.20089e-15
1.19171e-15
0.00047008
7.53797e-16
2.04477e-16
6.80525e-06
2.79153e-05
1.01431e-17
6.63466e-17
1.33383e-06
2.51128e-14
1.19691e-15
2.01388e-05
0.00738444
0.00113014
1.18302e-15
0.00605133
1.15463e-17
0.00337667
3.87126e-07
0.00511682
4.06649e-16
1.19642e-09
0.00465401
2.71632e-14
2.04765e-10
7.80126e-17
0.0317607
6.68396e-16
0.0101898
1.00605e-15
9.6043e-08
4.18173e-16
2.02281e-15
1.1597e-17
8.46868e-11
7.69988e-10
8.5407e-18
0.0119507
0.00671514
1.11681e-17
2.13658e-15
0.0327198
0.0177121
0.173799
3.25051e-17
4.7161e-05
0.0240802
0.045554
3.01457e-09
1.81158e-18
0.0647534
3.90277e-16
0.213531
1.62353e-16
1.0673e-08
6.61951e-09
6.72417e-17
3.71032e-05
1.03385e-15
0.0198441
1.55599e-16
1.14801e-15
1.22641e-16
3.45842e-17
6.52009e-17
7.00069e-16
0.00036571
0.00147639
0.137721
1.36953e-15
3.94137e-14
0.0407783
7.13885e-16
5.09382e-18
1.34862e-16
1.35297e-17
1.49138e-15
0.00497377
2.14224e-16
2.15139e-17
1.9528e-17
0.0027827
1.37665e-16
1.9682e-16
1.74473e-16
0.00270476
7.46916e-18
0.00512992
0.195968
0.003804
0.00449074
0.0226584
2.2167e-15
7.68709e-17
2.25112e-16
0.00255601
0.00167116
1.02195e-16
5.59607e-14
0.000484616
5.34053e-18
3.81785e-18
0.311773
2.65178e-16
0.0215554
2.59839e-16
0.00205765
0.00365798
3.37351e-15
3.22652e-16
3.05337e-17
1.68994e-17
7.99818e-18
0.020022
1.63231e-15
0.00382324
1.75593e-16
1.62284e-16
0.0056892
4.77935e-17
0.0137785
1.29952e-15
2.12448e-17
0.0022051
7.77392e-05
0.123587
1.08805e-16
1.44047e-17
1.5888e-15
0.00357605
0.170817
1.09234e-15
9.09717e-17
8.99414e-16
0.00125018
8.93248e-16
0.0212829
0.0233263
1.12634e-15
2.48089e-17
0.00583336
9.28614e-17
2.08316e-15
1.38905e-17
1.23086e-15
1.17708e-16
0.0601625
4.76899e-13
2.57067e-15
5.79135e-18
3.02508e-14
8.40255e-16
2.22308e-14
2.6663e-16
8.90709e-16
1.82102e-15
0.00754065
3.25727e-15
0.00674392
5.06225e-15
2.49464e-16
0.542643
0.00216064
2.72749e-16
2.15799e-15
2.63591e-17
0.00193509
5.13798e-16
4.44306e-17
1.62251e-15
5.39239e-16
0.00573713
2.00763e-16
0.00291839
2.74262e-18
0.0100163
9.38924e-15
0.0551086
1.24672e-15
3.22546e-17
0.0170823
7.35755e-15
2.7365e-16
0.0259857
0.000268966
1.68096e-18
8.97542e-18
0.0385765
0.0118427
0.0052685
0.000650788
0.00145288
0.0156248
0.000768628
0.00543633
6.18779e-17
0.0199269
8.08989e-15
5.24666e-15
1.76293e-17
2.52112e-15
6.53433e-16
0.00827386
1.14655e-16
2.34748e-18
2.32363e-18
5.13456e-07
1.41883e-05
5.45952e-15
0.00280678
4.26357e-17
0.00408152
4.05159e-16
6.99512e-07
0.00310222
1.87073e-13
0.039889
1.79757e-16
5.71909e-16
5.99553e-17
0.00236008
0.0014218
4.78137e-17
1.62756e-17
0.00201676
7.81095e-18
0.622413
1.77326e-17
0.0800714
5.67997e-17
5.34659e-17
1.04545e-17
3.60245e-16
0.00835745
9.81733e-16
6.06979e-05
4.42424e-17
0.00933983
3.80132e-16
3.04844e-17
7.24959e-12
4.4017e-13
1.81953e-16
2.37927e-16
2.24852e-16
1.00093e-18
0.00435411
0.227504
3.1098e-14
5.2235e-17
0.000395735
1.48454e-16
5.95389e-17
1.84161e-06
0.0165633
0.000170397
4.01609e-16
0.000546016
0.00367766
0.00442614
0.00842456
1.00976e-16
1.22866e-17
8.22798e-18
4.41268e-17
8.09906e-17
3.06453e-16
1.26549e-15
9.76097e-16
2.64064e-16
1.9854e-16
3.58774e-17
3.80379e-17
0.0706469
2.29054e-16
1.53985e-18
3.91702e-09
4.84549e-17
1.38683e-16
1.05458
1.27312e-16
7.2145e-17
0.00139534
2.34372e-10
1.02097e-16
7.46185e-18
5.29012e-18
0.0207072
9.20562e-18
2.84117e-16
3.46702e-08
1.7257e-17
4.11003e-16
7.94955e-17
4.34733e-17
0.101328
3.6012e-17
0.000249141
5.15207e-17
3.58183e-17
2.0366e-16
1.52551e-16
2.19058e-16
4.38717e-08
6.36074e-08
0.000126704
1.64625e-18
6.96794e-17
4.41558e-18
1.11936e-07
1.32154e-16
2.45117e-07
3.14912e-08
2.01411e-16
4.25871e-15
9.70213e-15
1.31018e-08
9.49687e-16
1.51684e-15
1.16393e-09
3.74273e-15
0.0302593
1.08966e-16
0.00545928
2.54842e-15
1.74911e-06
9.23276e-17
0.00156159
4.16945e-17
0.00448357
0.0193211
9.92914e-17
0.00264268
8.99286e-06
1.95906e-16
0.0081957
9.54011e-16
2.18174e-16
1.31405e-15
6.12771e-16
3.23842e-15
4.01445e-17
1.22534e-15
3.32215e-17
0.23937
7.79629e-16
5.19043e-17
6.94529e-18
9.49662e-17
9.67943e-17
0.02933
0.77945
1.93564e-06
1.6636e-05
1.94292e-16
0.00156614
0.00104574
1.03966e-18
5.36277e-16
4.31511e-16
5.6066e-16
1.24799e-16
5.49831e-16
4.33222e-15
2.36446e-15
0.000411642
3.4743e-16
2.01076e-18
9.50981e-05
1.53529e-06
1.67285e-15
0.0263845
1.34588e-15
5.46114e-16
1.00792e-16
0.165381
4.75576e-17
9.18935e-18
0.0215533
9.40322e-17
2.05564e-17
5.18496e-16
3.46913e-18
0.0481975
6.87135e-18
3.07833e-16
1.48512e-16
7.21228e-16
0.00645281
0.230617
0.0268323
0.0452076
0.00265886
0.000154
3.73326e-17
4.58141e-15
0.105813
0.00156884
2.16289e-15
4.73893e-08
2.9725e-17
1.55265e-09
5.13657e-16
0.210742
1.79697e-16
5.39746e-16
0.00016542
5.41739e-11
4.33729e-16
0.0116468
1.88853e-17
6.93498e-17
0.202128
0.0279724
6.10755e-18
1.00011e-16
3.68376e-16
3.34691e-17
4.2895e-17
5.56878e-14
1.77167e-17
3.29698e-17
0.00343972
2.02199e-17
6.28703e-17
9.60643e-17
1.01606e-05
6.90624e-17
4.2312e-14
8.29289e-17
4.24271e-17
4.60777e-15
2.75854e-15
0.00242035
2.46745e-16
1.93949e-16
0.00419458
1.29302e-16
0.000415601
0.00510015
3.22173e-16
0.00276973
8.48009e-17
2.04845e-15
4.03172e-17
4.88433e-15
1.53627e-16
9.36664e-17
4.5507e-17
4.04005e-18
0.00183602
1.68776e-16
3.433e-17
1.24289e-17
7.78463e-16
3.37912e-17
6.44569e-16
0.040233
1.09593e-17
7.78723e-18
0.323997
5.46442e-17
5.72055e-17
1.47854e-17
0.000956022
1.42193e-16
3.15552e-06
2.26114e-16
5.07082e-05
0.0085458
2.53125e-17
4.15115e-15
0.0375465
6.17826e-15
4.50315e-16
8.75469e-05
3.71236e-07
0.00971004
1.30149e-06
3.8277e-07
7.7299e-08
2.45572e-17
1.45727e-15
0.000742597
0.000217506
0.020612
0.0106424
3.54816e-05
2.05487e-17
0.00536762
0.00412111
0.0159433
5.71896e-17
0.0108028
0.0157488
0.00239614
0.00111599
0.000409442
0.00451996
0.0180441
0.035677
0.00748349
0.0109653
0.00716503
6.02319e-14
0.00254693
0.00341336
0.00057198
0.00309655
0.0135759
0.0121394
0.0204341
1.05918e-14
0.00732267
1.55521e-14
0.00443232
0.00231906