/*--------------------------------*- C++ -*----------------------------------*\
  =========                 |
  \\      /  F ield         | OpenFOAM: The Open Source CFD Toolbox
   \\    /   O peration     | Website:  https://openfoam.org
    \\  /    A nd           | Version:  10
     \\/     M anipulation  |
\*---------------------------------------------------------------------------*/
FoamFile
{
    format      ascii;
    class       volScalarField;
    location    "48";
    object      SgRate;
}
// * * * * * * * * * * * * * * * * * * * * * * * * * * * * * * * * * * * * * //

dimensions      [1 -1 -3 -1 0 0 0];

internalField   nonuniform List<scalar> 
59698
(
0.0162827
0.00189821
0.00239567
0.00281361
0.0302532
0.00145199
0.00462725
1.111e-07
1.9895e-09
3.93763e-09
0.000586479
1.86425e-09
1.5774e-09
0.00247121
0.000352299
4.27024e-07
6.78042e-06
4.02108e-09
1.6881e-09
0.000267602
0.00175057
0.0139315
0.000498873
8.8191e-08
0.0422325
1.25838e-09
0.000315531
0.0100045
0.00911757
0.00744602
0.00478617
0.000600699
6.67617e-08
0.0164263
0.00242738
3.95131e-09
0.0192584
0.0205258
1.75848e-08
0.0250303
0.00865492
2.30463e-07
0.00373261
0.00063972
0.000402108
0.0321555
2.74881e-09
0.000729962
0.00315457
3.2795e-08
0.00151703
2.43232e-09
0.00178503
0.00273502
0.0113634
2.13091e-09
0.00133263
0.000212366
0.000810591
0.00277259
0.00523473
0.000500632
0.122323
1.61514e-09
0.0125445
0.00160192
1.75122e-09
3.36248e-09
4.31349e-09
6.78167e-09
6.22411e-07
0.000254267
0.00036352
0.0404525
0.000411954
0.0389102
0.000115406
0.00925464
0.000357193
0.00617055
0.00890772
0.000471856
3.97229e-09
8.32746e-09
0.00858326
0.000551647
3.58657e-06
2.30995e-07
0.0638598
0.000773722
4.51452e-09
0.00205894
0.0149159
7.07504e-07
9.31954e-07
0.00372382
0.00542567
6.44602e-08
0.000271402
8.59122e-10
0.0772474
0.0018212
0.0162859
0.0155301
5.43914e-08
0.000564777
2.41765e-09
2.37178e-09
2.6483e-09
4.40149e-10
3.7147e-08
2.74684e-06
0.0381863
1.56284e-07
1.00928e-07
3.53231e-08
3.60627e-07
0.0036612
3.08411e-07
1.14016e-08
2.31246e-09
0.000702647
2.26089e-07
3.4734e-09
1.70543e-09
7.97102e-09
0.010815
7.20662e-09
1.31235e-08
3.99204e-07
0.0446549
3.95623e-09
1.1043e-09
0.100196
0.00425627
0.00441174
5.08293e-07
2.47475e-10
1.76826e-09
0.000130726
2.16321e-08
0.00240494
0.00269629
0.00265114
1.96871e-07
0.000686068
5.53946e-07
3.93347e-07
0.00465171
0.0293158
0.000299438
0.000434376
0.00152596
2.63502e-07
0.000162724
0.00034236
7.76674e-09
0.00168861
0.0124307
5.9527e-10
0.000859105
7.82393e-09
0.0164175
0.00164061
0.00336837
0.0344956
1.11056e-09
0.0720341
0.00203036
0.00041501
0.011973
1.51783e-06
0.0107955
0.0146677
0.0794662
0.00193539
4.40604e-09
0.00144664
0.000326016
0.00921017
0.0094019
0.0180228
0.0147199
1.16208e-08
0.0461022
0.000237105
0.0114422
0.00306906
1.25219e-10
0.00118178
0.000398301
6.02447e-05
0.00267425
0.0387737
0.00401677
0.00432125
0.00983126
0.0580487
2.68863e-05
0.00772321
0.000227107
0.00617903
0.0211792
0.000480217
0.0103684
0.00276507
0.0061265
0.00286955
0.00783335
0.0113722
0.00256241
2.37975e-05
0.00279344
1.56769e-08
0.00409203
0.00349014
1.02487e-08
3.60675e-05
0.0127559
0.00658996
0.00563668
0.00268696
1.78996e-09
0.0660376
0.000812057
0.0263868
0.00735195
0.00324536
0.00684281
0.159343
7.56151e-09
0.00474577
0.00291085
0.00324522
9.71644e-09
0.00969352
0.0828893
0.000778256
1.82981e-07
0.000442637
0.0027062
0.0014701
0.0135445
0.000664542
0.00613734
2.22906e-07
0.00379202
0.230172
0.00122104
5.14891e-09
0.000727737
0.00163535
0.000629214
0.000233555
1.98715e-08
0.00239004
0.00578972
0.00128488
0.00325498
2.77798e-09
1.475e-05
1.8025e-09
0.000394308
0.00570449
0.00453459
0.0474196
1.1217e-09
1.07011e-07
2.05302e-08
6.07991e-10
3.24043e-09
0.0440036
0.000223628
6.68168e-10
0.017959
0.00020754
0.00151615
0.000509797
0.00207682
1.223e-09
0.00057414
1.84874e-09
1.73284e-09
0.104511
0.0487834
0.0201695
0.000136621
0.000647113
0.0728803
0.000437658
0.0920914
0.0023403
9.6221e-09
1.41141e-09
0.000327017
0.00283335
0.000352387
0.000804422
0.0042473
6.64706e-07
0.00272374
2.2292e-09
6.86636e-08
0.000376706
1.15055e-09
1.20429e-09
0.0520393
0.00102064
2.01102e-06
5.41488e-10
0.00196761
4.3954e-08
3.09257e-09
2.3797e-08
0.00209566
0.00514084
0.000403389
0.00038502
0.000829308
0.000790219
0.0003343
0.323468
0.000315598
2.97464e-09
0.0490534
0.0104955
0.000323904
0.000346344
0.000440849
0.000361923
0.00937416
0.00416691
0.0202811
0.207364
0.000430957
1.93026e-05
4.91897e-05
0.000665529
0.00909951
0.00448984
0.0102181
0.00206577
0.00258986
0.00147752
9.68128e-05
1.33698e-09
9.96503e-05
0.0394997
1.95624e-05
0.00204906
0.00798353
1.51479e-08
0.039929
7.94239e-10
0.243115
0.00217425
0.0140052
1.46236e-08
3.60183e-08
1.83011e-09
2.17732e-08
0.000268721
1.10563e-07
0.000886872
1.38547e-10
1.04127e-07
0.00289962
0.00203102
2.92958e-08
0.00164753
0.00190869
0.000533995
0.00379294
0.000651122
0.0061885
2.98182e-09
3.76543e-08
2.15827e-09
0.000460521
2.48861e-09
0.000347124
4.61442e-08
4.49978e-08
0.000527788
8.85741e-10
1.9866e-05
0.000888309
0.000544826
8.37676e-10
3.49712e-08
0.000174457
0.000457496
0.00456448
0.0026271
0.00134905
0.00228207
0.0485142
0.00189405
0.00278842
8.41487e-08
0.00284853
0.00238698
0.00266084
5.57255e-09
0.00153794
0.00433127
0.0850712
0.0281099
2.27095e-05
0.00537326
0.031405
0.000404301
0.00178418
0.000434525
4.87027e-10
0.0596689
2.05016e-09
0.0103704
0.00241137
0.00183765
0.00303449
0.00226137
0.00252719
0.311146
8.13503e-09
2.11735e-09
7.87158e-09
0.000215237
0.00143417
5.57265e-10
0.000266768
0.00214719
0.0163324
0.00303036
0.00211166
1.43427e-08
1.40004e-08
0.213393
3.48899e-09
0.00317566
1.9233e-07
0.0037012
5.02384e-09
4.56554e-08
1.92999e-07
0.00238107
0.0699135
4.52471e-10
2.23813e-09
0.00908881
0.00262934
6.98608e-09
5.83139e-05
0.0330722
0.000283228
1.19283e-07
0.108391
1.40599e-09
0.00973241
1.71001e-07
0.054158
4.62816e-09
0.0159173
0.0133358
2.19933e-09
0.000974446
0.000443876
0.00849496
3.29666e-05
0.00807483
0.00292916
4.4302e-09
2.04603e-10
6.8646e-09
0.00038543
0.000812318
0.00112986
0.0689579
0.00621384
0.00220204
2.44206e-08
0.000496847
8.32308e-08
1.94208e-08
0.00542337
1.03238e-07
8.72409e-08
4.99939e-08
0.065799
0.00178645
0.0230383
0.065447
0.00113581
1.06941e-07
0.0589009
2.9229e-07
1.59072e-08
0.00245307
0.00953395
0.000365618
9.71019e-10
0.063946
0.0071516
0.00460553
1.71056e-08
1.12176e-09
8.42628e-08
2.17431e-09
5.29739e-09
0.00316593
0.000581079
0.074781
0.00717973
5.41923e-08
0.00914397
2.66957e-09
6.8822e-09
9.88277e-09
7.04165e-08
2.48562e-08
0.00547724
0.00377809
5.0964e-09
3.86783e-09
2.18612e-09
0.00126751
0.00947253
2.90451e-09
0.0106912
0.00390371
2.98805e-09
0.0432708
1.82765e-08
1.13216e-08
0.00150464
3.56491e-10
1.35529e-08
0.00185675
4.98416e-09
0.000384876
0.00970051
3.90069e-09
4.66462e-08
0.0681948
0.00817695
0.0135169
0.010097
0.000173446
0.011687
7.86586e-06
1.88784e-08
2.28317e-09
3.19861e-08
1.9201e-09
5.25709e-09
1.51424e-08
1.92183e-08
0.00116228
0.00689748
0.000443205
0.000768495
1.71872e-09
1.63909e-08
9.44262e-05
1.57198e-08
1.81022e-09
0.0740515
2.32532e-08
0.00553802
0.000539254
0.0028768
7.88109e-09
2.05794e-07
0.00259533
0.00287677
0.00338099
2.98912e-10
0.00399144
0.00211542
2.31581e-09
0.000732638
4.05238e-08
0.00515512
1.56337e-08
0.00408954
0.000313335
0.00244096
1.41847e-08
0.00416117
0.00269209
0.0021594
0.00332496
8.43246e-09
1.73332e-08
8.51664e-10
4.26637e-08
9.2871e-07
0.00432005
0.000349776
7.19831e-09
0.00517763
3.3613e-05
2.73188e-09
0.00349815
0.00146822
0.00216432
2.63652e-09
0.00108759
0.00393192
1.57066e-08
1.282e-08
0.000550315
1.14681e-08
0.00433759
0.00142271
0.00278968
5.01592e-09
0.224693
1.87829
7.46777e-09
5.02986e-09
0.00059912
0.00213215
0.000917963
0.00247876
5.13467e-05
0.00713891
0.00247093
0.0031847
0.00155399
0.00276853
0.000211194
9.86325e-10
0.00113716
7.30469e-10
0.00133565
0.000238666
2.88576e-09
0.00156951
0.109692
0.00032255
3.92451e-05
0.000607904
1.44946e-09
0.00243047
0.00382822
4.25911e-07
0.00238777
3.50747e-08
1.74155e-09
0.000439476
7.96623e-09
0.00829445
0.000795332
0.000575591
4.53921e-09
9.53467e-10
7.97829e-06
0.000327397
0.00202935
0.000316121
0.000812251
0.000896191
0.0197548
0.0915185
0.001361
1.17616e-05
0.00240216
0.00319826
0.0415872
3.8679e-09
0.000512942
1.6327e-09
0.00377281
3.26859e-10
0.00166496
0.000428464
0.0108015
0.0473242
1.65418e-09
0.000421491
0.000425136
3.53432e-07
0.000378102
0.00140746
1.22849e-10
0.00215015
8.05335e-10
0.000190966
0.0114723
0.00439851
0.0394628
0.000804324
0.00138634
0.00211576
0.00279351
0.000412228
0.00117887
0.000650647
1.33918e-09
2.30899e-10
1.04104e-09
0.00660489
0.00082201
4.69223e-09
1.49581e-09
0.00642264
6.9714e-08
7.07046e-06
2.71998e-09
0.0034317
4.17925e-08
0.000706714
0.000362116
9.98478e-09
0.00198745
0.00918933
2.02034e-09
1.38034e-09
0.000646943
0.0616934
0.00323686
4.02437e-09
0.0009338
0.0014507
0.025773
0.00882694
1.35353e-09
0.055161
2.68507e-08
0.00257874
0.000344565
0.00942438
6.73053e-05
1.48102e-07
0.0112561
0.00473369
0.00053217
0.00307417
0.0606036
3.59389e-09
0.000324739
0.246548
0.00232621
0.000732572
0.00240367
0.00191513
0.00174296
0.000420647
0.0152153
2.42611e-09
0.0600687
0.00317001
0.0247283
7.11939e-10
0.000488325
0.105172
0.236881
0.000599785
1.13196e-07
0.0497423
0.000383644
0.00224492
0.00521265
0.00201378
0.00833904
0.00412146
8.01385e-09
0.000401561
0.00196571
0.0141752
0.000373922
3.51224e-10
0.00275786
2.52934e-09
0.00435849
1.8829e-07
9.30257e-06
0.00609912
0.00522278
1.22843
3.75445e-09
0.0245409
0.00969589
0.0210702
0.00106299
0.00472907
0.000326089
0.000963185
0.00163926
0.00145192
0.00670748
0.0111306
0.1063
0.00218264
0.00547601
0.000541473
6.96587e-09
0.000383103
1.74597e-07
5.9821e-08
1.54843e-09
0.00324504
3.92568e-07
0.00944367
0.00021354
0.000703029
0.00158247
1.70101e-07
0.00688731
3.57409e-09
0.00100439
3.27284e-09
0.00130383
0.000113764
0.013698
0.000651796
0.00185409
0.0201461
0.210244
4.25126e-09
0.00880372
2.60409e-08
0.00071018
0.000444798
0.000428778
0.00379738
0.000845015
0.00744122
0.000561237
0.00627735
0.0023535
7.14997e-10
0.000401152
2.36164e-09
2.76175e-09
3.33937e-05
0.000503639
0.000275019
0.000320719
7.69059e-09
5.16261e-09
1.86719e-09
0.000487189
2.02476e-09
0.00558185
0.00490109
0.00153534
0.000499722
0.00406044
7.88152e-10
2.93059e-09
0.0155599
0.000469634
3.00296e-09
1.31233e-09
0.0359276
0.00489707
0.000878474
3.93468e-09
3.08532e-09
0.0105992
2.63823e-07
0.00980734
1.0749e-08
0.000532569
0.000484237
0.000128429
2.84389e-10
2.46839e-09
0.00133944
1.50763e-09
0.00880001
8.98247e-08
0.00209917
0.000108822
1.29389e-08
0.00163687
0.00165111
0.000595942
0.0019245
5.89716e-09
0.00202737
0.000307133
1.24497e-09
0.00212914
1.74402e-08
1.48253e-09
0.00438025
3.05415e-09
0.000267198
0.00373113
0.0183081
0.000319936
0.00106182
0.00299434
1.7088e-07
0.00460233
0.000633466
0.000584031
0.00449507
0.000149464
0.000379941
0.00245135
0.0016156
8.57571e-09
0.00260871
1.19819e-08
3.00428e-09
0.0651863
0.000412241
0.00149987
0.00271709
1.49193e-07
2.03681e-09
0.00276337
0.00414755
0.00538748
0.0202352
0.00397937
1.1989e-06
0.0409101
9.5372e-05
0.00132547
0.115137
2.91398e-08
0.00459132
0.00450331
0.032673
0.0584215
7.39068e-09
0.00254343
1.7043e-09
0.0246916
0.000270587
0.000347943
0.0014139
3.8957e-10
0.000761137
0.00245529
0.000580217
0.00195318
0.0067925
0.00283681
0.00328177
8.27788e-05
0.0250028
0.000730134
2.06431e-08
2.5012e-08
0.000826067
0.000128783
0.00227655
0.00106196
2.05319e-07
3.80125e-08
0.00552452
0.000294942
4.77969e-09
2.26997e-08
0.00539711
1.45444e-09
1.50475e-08
0.00958447
0.00367384
0.000292921
0.000413338
0.000265068
0.000126242
0.000421244
2.39215e-08
7.54018e-09
0.000429222
0.00233995
0.000466222
0.000398551
0.0141558
0.0190107
0.017807
3.16542e-07
0.00184186
0.00291908
0.00270839
0.00483914
0.00598593
0.000400085
6.09226e-08
0.00255963
4.38125e-05
0.0110115
0.0564818
0.00209579
0.000443685
2.17536e-08
0.000538421
0.000103253
0.00112016
0.00226833
0.00234364
0.000608726
6.87273e-09
4.46482e-08
0.00236912
0.00235596
0.00230987
0.00377531
0.0472281
0.000395621
0.00190312
0.00140179
0.0227251
5.67209e-10
0.000397056
1.42126e-05
0.00460623
0.000437324
0.00157938
0.00467978
5.70897e-09
0.00359798
0.00356364
0.00379137
0.00549159
0.00948077
0.0100882
0.00817787
0.00524171
0.00577024
1.32681e-08
0.000661437
0.000475232
0.00598566
0.00473611
0.00221066
5.26458e-10
0.00174584
0.00391928
4.79495e-09
0.0016233
2.8085e-10
0.0145974
4.07126e-09
0.0405716
0.00314838
0.738689
9.26337e-10
1.55994e-08
0.0021144
0.00317228
1.78524e-07
0.000760254
0.00399094
0.00700244
0.00429975
0.000631859
0.00684905
0.000542245
1.04712e-09
0.0197751
0.000765797
0.000927729
0.00116051
0.00267804
0.000323141
0.00112111
3.12297e-09
0.000534597
0.00824125
0.00271252
0.0924085
9.37232e-09
0.00241281
0.0820973
2.53418e-10
0.00884042
0.0027765
0.0252095
0.0013102
0.00362528
9.68579e-10
1.17394e-08
0.00132748
1.54753e-08
0.0012484
4.22176e-05
1.03553e-06
9.78346e-10
1.31974e-09
0.00176108
0.00322478
0.00968776
2.94626e-08
0.00255922
0.000521604
9.81737e-06
0.036021
0.0545901
0.00506968
0.000370733
0.00427643
0.455722
0.0241127
0.0263072
2.57149e-08
0.000449091
0.102323
0.000152156
2.28917e-07
3.61752e-09
0.0165121
4.84848e-09
0.00170448
0.000320022
0.00174628
2.99244e-08
0.00462084
0.00900134
0.00288477
0.000645764
0.000545365
0.000477736
2.27424e-09
5.36639e-09
0.00365316
2.46392e-10
0.000859931
0.000554744
0.00777996
1.41553e-08
0.11612
1.1855e-08
0.00118487
2.59287e-09
0.00564097
1.29463e-08
0.00109953
0.0025756
0.000380628
0.00250646
1.59476e-08
8.24632e-09
0.00285965
1.70611e-09
0.0187622
0.0121333
5.11983e-09
0.00150379
0.0835713
0.00296982
0.00401077
3.30153e-08
2.2527e-07
0.00371897
0.0361864
0.00877888
0.00264275
9.37786e-05
0.00193565
0.0033645
0.00300768
0.0037189
0.0053763
7.56217e-09
0.116431
0.0513433
0.000493686
1.76483e-07
1.32729e-07
0.00313122
0.0025375
0.0262858
0.00113195
3.39175e-08
0.00230092
0.000370921
2.9011e-09
0.00355304
4.22107e-09
0.00268585
2.09707e-09
0.0014803
0.00375447
3.40657e-09
0.0197746
2.91202e-09
0.00043443
0.00364354
0.00413473
0.0020453
0.00210108
0.0119284
0.0005797
0.000345168
0.000374286
0.000264334
9.24463e-06
2.27742e-09
1.94349e-09
6.21678e-05
9.67784e-05
0.000781453
0.00064697
0.000861117
1.22124e-08
8.0583e-09
3.44717e-07
0.0003113
0.00275992
0.000496399
4.33942e-05
0.000238786
7.20202e-09
0.000315442
0.00023217
0.000223585
0.00392372
0.103629
1.84059e-09
0.00477609
0.00165907
0.00412796
4.90107e-09
4.29328e-08
6.95678e-09
0.00845024
0.0195991
0.0047929
0.00235686
2.20768e-08
3.07949e-08
0.000377616
0.00474699
0.00957767
1.04414e-08
0.00516258
0.00281654
0.00105893
0.00349742
0.00263914
0.0145537
0.00185932
0.00383886
9.36338e-05
4.641e-10
1.3903e-09
5.2937e-05
0.00560576
8.34726e-06
6.30684e-10
2.32486e-08
0.0050234
0.00021109
0.00100487
0.0010135
6.04311e-05
0.00191188
2.93329e-09
0.0039111
5.84541e-08
0.00208575
0.0284798
0.00210354
0.00121992
2.99356e-09
2.2516e-07
0.00101163
0.000983776
0.0145938
3.21531e-10
1.22029e-07
0.00126999
1.22679e-07
0.000864529
3.00016e-09
1.49241e-07
6.88396e-09
0.000214571
8.11833e-10
0.000584265
0.00219035
0.00208099
1.36132e-09
0.000314139
2.50306e-05
1.0738e-08
0.00551071
0.000205395
6.762e-10
0.0471276
6.60461e-05
5.02843e-09
0.000284247
6.10881e-08
7.68713e-08
0.000547246
3.08509e-09
0.000563699
3.27791e-08
0.000948584
0.000341902
0.00276051
0.00429171
0.00129688
3.24494e-07
0.0633
0.00246759
2.18498e-07
0.00606784
0.00289034
0.00668074
1.21345e-05
2.20425e-07
0.351296
3.95169e-09
2.49418e-08
3.08057e-08
0.0255729
0.00305063
0.000635587
0.000492191
2.8734e-09
0.00322196
0.0359389
0.00482295
0.00871474
0.0142513
5.59455e-08
0.000340314
1.61459e-09
3.47326e-05
0.00830889
0.000746741
0.0747705
4.17022e-10
0.000484875
6.34445e-10
0.000532964
0.000313628
0.00037718
0.0105002
0.0181439
0.000544605
0.00183428
0.00450011
6.07065e-09
0.000236251
0.000992895
0.00203963
0.000412732
0.000803967
0.0075079
0.0107071
0.000592953
0.001714
0.00267175
3.70476e-05
6.45331e-09
0.00043245
0.0138312
0.0116123
0.00504323
0.0474746
0.00273421
7.77971e-09
0.00523737
1.74517e-06
0.000681651
0.00106642
0.0222757
0.000282947
0.0203835
0.0115025
0.0343357
1.82148e-09
0.102253
0.00876486
0.00173974
0.00462821
0.0641626
0.000387353
0.00282106
0.0024664
0.00229009
0.00807248
0.00112226
1.16698e-09
3.4164e-08
0.00203049
0.0249144
0.296726
4.10321e-05
0.00908484
0.000291564
0.00125508
0.000444878
0.189764
0.000619181
0.286354
0.782015
0.000103963
2.22755e-09
1.87717e-08
0.00136172
0.0106238
0.00567574
0.0101872
0.0637533
0.0341782
0.00186783
0.00163844
0.0104787
0.0113606
1.21699e-08
0.000527812
0.000427673
0.000355327
0.000419479
0.000637652
0.138601
0.000272711
0.00292483
0.000398953
0.00307712
0.00201974
0.00221777
4.55594e-10
0.479328
0.0314971
0.184523
0.147549
0.0021629
2.0186e-09
0.00651109
0.00125107
3.31765e-07
0.000761567
0.0853506
9.11552e-10
0.00178732
1.44338e-07
0.000207824
0.0166624
4.26121e-07
0.00853914
4.01643e-07
2.19785e-07
0.00156795
0.000621216
0.00113828
0.0129646
2.93813e-05
0.0024414
0.0013624
0.0180268
4.81674e-09
0.000502802
0.00155109
0.0152356
0.00164899
0.000194114
0.00224789
0.0313368
0.000498782
0.000232295
6.49618e-09
0.00152556
0.00183349
0.00303714
1.44828e-08
2.93043e-05
4.23276e-07
0.000298096
0.00380797
0.00140419
8.24596e-08
0.0026927
8.59463e-10
0.0107299
0.0011293
0.000804576
0.00191732
0.0017382
0.00953945
0.00057781
0.013765
0.000305444
0.000423294
1.17388e-09
0.00037871
0.000405407
0.000581335
0.00196146
3.36762e-07
0.00163275
0.00947338
0.00173186
0.000460545
0.0188839
0.00225167
0.00130929
0.0145329
0.00749789
0.0122631
0.0131147
0.00624326
1.64011e-07
0.323813
0.0622572
0.000807495
0.000573395
0.0147729
0.000908698
0.0242315
0.000103244
0.000403309
0.0143202
2.82719e-07
0.00678191
0.000614686
1.93007e-08
0.00756941
5.28935e-08
0.031262
0.356943
0.00114678
0.0575811
8.42199e-10
0.000256111
0.00435173
1.68018e-06
0.1036
0.00244208
0.00167615
0.000483674
2.45944e-09
0.00340048
0.00279623
5.17255e-10
0.000489103
0.0260029
0.000618779
5.75501e-05
0.0618415
5.12267e-07
0.00273497
7.66543e-11
0.000345761
0.00241371
0.000211237
1.22408e-09
0.00218545
1.11187e-08
0.00251028
0.000517673
1.87585e-09
7.87418e-08
0.00438647
0.00209986
0.00279815
5.475e-10
0.00221562
0.00045159
0.0027976
5.06646e-05
0.031635
4.56454e-08
5.69719e-05
2.74746e-09
0.0016364
0.0372224
5.03683e-09
2.8015e-07
0.000274721
0.00254527
0.000453091
0.00196771
0.29645
2.56766e-09
0.000231903
0.00232315
9.06238e-10
3.74685e-09
3.9775e-08
0.000174086
0.00050253
0.000851086
0.000529724
0.000103861
0.000199666
5.87105e-11
0.0114124
0.0002211
0.000394062
0.00148178
0.0039488
0.00383819
0.044548
2.9853e-10
0.00028228
0.000122107
8.50363e-05
9.44495e-05
0.00277922
0.000619957
0.000514084
0.000120241
0.000348197
0.00038168
2.89349e-09
4.27106e-08
0.00027118
0.0226448
1.89458e-08
0.00848968
0.00011064
0.0155054
0.00115947
0.00011872
7.98668e-08
0.00433042
1.75107e-09
0.00409473
0.0192885
0.00221434
7.66584e-05
1.48873e-08
0.000201567
0.000857199
0.000230117
0.0038445
0.0164226
0.000104196
0.0103956
1.04289e-09
0.878698
0.442091
0.000350501
0.0414978
9.75193e-05
0.000357643
0.00939127
1.03829e-05
0.5995
0.0442111
0.00754638
0.000249544
0.0283274
0.393902
0.00339136
0.0250134
0.00436671
0.0022288
0.126967
0.0439891
0.00030314
0.000949045
0.0260427
0.0486889
0.00413519
0.00030921
0.0333995
0.00100989
0.0141179
1.0719e-08
6.77716e-10
0.00661665
0.000124475
0.00421584
0.0039292
2.01049e-09
0.00013
4.4619e-05
1.0814e-09
0.00782138
0.00605941
2.83352e-09
0.000334221
0.00171071
0.00228556
0.00405505
0.000384391
0.011579
0.0631198
2.14224e-08
0.0332237
0.00014015
0.0043129
1.51724e-08
0.00223764
0.0302927
0.00413294
3.03154e-06
0.0271071
0.000300211
2.88504e-07
0.000365516
0.0002591
0.000626659
0.00757063
0.0258077
0.0147345
0.00737806
0.00549938
0.00105353
1.42989e-08
2.97892e-07
1.32373e-07
0.00425432
2.8103e-06
0.00481482
2.40812e-08
8.00205e-09
0.00159398
0.00149243
0.00180577
1.71146e-08
0.0103284
0.0022342
1.73052e-09
0.00338299
0.000277389
0.00183786
0.000459334
0.0067972
0.00238718
0.00505751
0.000440716
0.00634919
0.00224342
1.98632e-08
0.00238891
0.00311894
0.00186944
0.001536
4.39389e-09
6.38562e-09
8.19459e-10
0.0346671
0.00179595
0.00703061
0.00183986
2.65039e-09
0.00334406
0.00839194
0.00228102
0.00257926
0.00362497
1.31923e-05
0.00170966
0.00189359
1.36932e-08
4.17918e-05
0.00300557
0.00264666
0.00798567
0.0288797
0.00167193
3.84969e-09
0.00301007
0.00034962
0.0042566
7.57315e-05
0.00615541
0.000349688
0.002783
1.48387e-08
0.000732809
0.000930162
0.00721414
3.82603e-10
0.0199146
0.00615803
1.20238e-08
0.00135979
0.00159037
0.000487283
1.5722e-09
0.00248306
0.0219045
1.64445e-09
0.0378192
0.00208023
3.5294e-08
5.35494e-09
0.00183921
3.12719e-09
0.000870876
0.0137929
0.0230692
0.00208954
0.011769
0.00153822
1.73971e-08
0.00439575
0.0145507
0.000250302
0.00163041
4.99224e-08
0.0829188
0.0419249
3.00583e-08
0.00243819
0.00154755
1.95256e-09
3.22428e-09
0.0337644
0.00856931
0.015862
7.52352e-09
0.00100114
5.42913e-09
0.0192765
2.49258e-09
0.00338249
6.55281e-09
0.00136052
0.0202013
8.10647e-09
0.000400023
0.00444225
0.00150093
0.00265778
0.00160671
0.0234324
0.000222268
0.00208228
0.0199907
2.09035e-05
0.000410058
0.000432576
0.000363899
0.00236897
0.0134342
0.000464054
2.30302e-08
5.23437e-05
0.00141101
8.44345e-09
1.03189e-09
2.11148e-07
2.65188e-09
4.8587e-07
3.67209e-05
0.0116968
0.00500268
0.000373484
0.000460475
0.00029554
0.0623576
4.01134e-10
5.03407e-09
0.0180806
0.00279753
0.00186031
0.00331643
0.000518342
1.49303e-07
0.0184442
0.00221646
0.0229625
0.000773563
0.049607
0.014197
0.000134799
0.0257173
0.00326285
0.0895505
0.00748628
5.65221e-09
0.000242015
0.256517
0.00673023
0.00099655
0.00309667
0.000161629
0.00332191
0.030867
0.0108589
0.0029185
0.144294
0.00635081
1.35777e-09
0.0178121
0.063902
0.0347317
0.00132839
0.00261886
0.000443064
0.0028606
0.000671511
0.0189762
0.0197274
0.00089422
0.0522113
0.0229777
0.000624723
0.00262187
0.0136683
0.00324452
0.000703032
0.0503838
0.00261315
0.000111285
0.0108484
0.0108209
0.0217869
0.00261587
0.000270654
0.00280963
0.016304
0.000358074
1.801e-08
0.173263
0.00335253
0.00122735
0.00159969
4.64621e-05
0.00435442
2.64055e-09
0.0185969
0.00261856
0.0140856
2.60134e-09
0.0055315
1.12554e-08
0.0164592
0.000301462
2.8642e-09
0.00868274
0.00251948
0.00666728
0.00772125
0.0021094
0.0158273
0.000129866
0.0156219
0.00666501
0.00924575
0.0563843
0.00557485
0.0290834
0.0344936
0.0169995
0.00114042
0.00453157
0.00265289
0.000984867
0.000922224
0.00397672
0.0021717
0.000645333
9.90367e-09
1.34006e-07
0.00244878
0.00133272
0.00128453
0.0536597
0.00324837
0.0027604
1.43834e-09
2.61849e-05
0.000235237
9.54074e-09
0.002586
0.0298224
0.00255137
0.00193311
1.44582e-08
0.0170511
0.00255099
4.8662e-09
4.67458e-09
0.000215654
0.0347443
0.00674814
0.000515314
0.0023036
0.00447384
0.000219881
6.58982e-09
0.00487672
0.000429645
6.72675e-07
1.60903e-10
1.00464e-09
0.00187281
0.00221622
0.00104367
0.00861651
0.102813
0.000243451
8.60546e-10
0.00356752
9.38376e-09
0.0111051
0.00241097
1.80418e-08
1.9872e-08
0.00319951
9.59767e-09
0.0101111
0.0728201
0.045351
0.000172255
0.000522756
5.65801e-08
5.5856e-09
0.00275822
0.0039285
0.000451058
0.00273299
0.0142769
0.00194632
0.000276549
0.00230993
0.00043346
0.0298103
3.45226e-09
3.70043e-08
0.0109939
0.00234369
0.000564713
0.00462783
0.000613447
0.000437436
6.19097e-06
0.00241671
0.0226996
3.94353e-10
0.000309858
0.000337749
0.00702455
4.25602e-06
0.000697232
3.52917e-09
0.00128639
0.00963946
3.693e-05
0.0285807
1.03077e-09
0.000317958
0.00236895
7.49598e-05
0.000217299
0.00345523
0.00119089
0.00239744
7.21051e-07
0.00181026
2.13733e-09
9.37099e-10
0.00226725
0.00331061
0.00339713
0.300235
0.00163986
0.000952193
0.00222977
0.0029572
0.000282869
0.000246424
0.00372246
0.00215311
0.00309186
7.03937e-05
0.000903292
0.0139856
0.00279205
0.111963
0.000862946
0.0101637
0.0102798
0.0124289
0.00125732
9.31016e-10
6.42421e-09
9.66424e-09
0.000112033
5.06666e-09
0.000257799
0.0116588
3.18835e-11
3.35861e-09
0.00375986
5.88202e-09
1.54461e-09
0.0148784
0.00196502
0.00289299
0.00191385
0.0023091
1.45112e-08
0.00158814
4.65167e-09
0.0241915
0.0134292
0.0101534
0.00192658
0.000137902
0.00159141
8.22206e-09
5.80106e-06
1.32622e-08
1.41365e-07
0.00164355
0.0110592
0.00694504
0.0014537
0.00184792
0.00227219
0.0023247
0.00176678
0.000340597
0.0041198
2.94669e-09
8.10154e-09
7.59936e-09
1.39057e-06
0.00276706
6.72424e-05
0.000336274
0.00227786
2.39046e-09
2.76407e-09
7.67223e-07
3.15506e-06
0.0532821
0.000490291
0.000675191
3.29915e-09
0.00294767
0.00221158
0.00192107
0.00343756
3.85534e-05
7.52477e-07
0.00105424
2.76484e-05
0.0194739
0.00321267
0.0241806
0.00158983
0.0511843
8.51385e-10
0.0011449
3.52315e-10
4.18235e-08
0.00373556
3.02307e-09
0.0013795
0.000103658
0.00223978
0.019315
0.00152067
0.00232892
0.00879429
0.00239324
0.0108373
0.00359183
0.00163496
0.000895929
0.00503559
0.0296503
0.000304522
5.06402e-10
0.063307
0.00891259
0.00650947
4.14399e-05
0.0652178
0.00193504
0.0151333
3.19245e-05
0.0172246
0.00316046
0.00136147
0.00245212
0.00247368
5.34804e-09
0.0404061
0.0144875
0.0145861
0.00314665
0.00232112
0.00153947
0.00333291
0.000927934
3.28827e-09
0.00166399
0.00313832
2.93092e-08
9.7894e-09
0.00169074
0.0362939
0.00308102
0.000347085
9.57565e-08
0.00040684
0.00169022
0.000454244
0.00147018
0.000718403
1.32849e-06
0.0140852
0.000199086
0.000654971
0.00206251
0.00125878
0.000131022
1.42978e-05
0.000176223
0.00205101
0.00293932
3.45399e-10
0.00010274
0.000673292
8.32462e-09
1.18601e-06
0.0167134
0.000692689
0.0032857
0.00156007
0.00150446
0.00211305
0.00695192
0.00426123
0.000593319
0.00390737
7.58411e-10
0.00235667
0.00433821
2.8589e-05
0.00748343
0.000326468
0.00296678
0.00187116
0.100033
6.18724e-09
5.12166e-09
9.41937e-09
9.21167e-09
0.00137814
0.00297249
2.07076e-07
3.29593e-08
0.00137637
0.00539141
0.000581728
0.00287619
3.52446e-07
0.000208216
0.00952256
0.00241572
2.97684e-06
0.00221568
8.46679e-08
0.00400064
0.00331579
8.00496e-08
2.56439e-08
0.00365708
8.91139e-09
8.51634e-07
0.000344637
2.31585e-06
0.120287
6.99353e-06
0.000562146
0.00311326
2.06648e-08
0.0117941
2.16041e-07
0.00274298
1.00139e-08
1.20003e-08
0.000524388
1.85278e-05
4.15612e-06
0.00295146
1.15383e-05
3.32769e-08
0.000354226
0.0184939
0.000601736
7.96256e-08
0.000353832
0.0021777
1.79246e-08
0.00304061
0.00456819
5.02515e-09
0.000360672
2.97018e-09
0.00116619
8.34021e-06
0.0124875
4.72313e-06
0.00158142
0.00209963
0.000210944
0.0847373
0.000374092
0.00306183
0.00110984
4.8198e-08
0.00236966
0.00470979
0.026767
0.0112191
0.000410463
6.69833e-09
0.0380383
0.0398708
0.000563895
0.0179809
0.00844358
0.000393659
2.4116e-09
0.000636526
0.000341714
0.000350292
0.000460438
0.00431057
1.07761e-07
0.000162557
2.67055e-05
5.40237e-05
0.00603009
0.000256869
0.00247011
1.34247e-08
1.38981e-08
0.000193934
1.22007e-07
1.65523e-09
1.00206
0.000184891
0.0194026
0.00306069
1.69052e-07
0.00029709
0.0176834
0.00188651
7.12814e-09
0.00238245
0.00566471
3.69968e-08
2.35152e-08
1.11593e-05
3.16305e-09
0.00222691
0.000168587
0.00247664
0.00468658
0.000545023
0.000156895
0.01969
0.00283161
0.0027907
0.000394486
0.00357172
9.22836e-05
0.000533199
0.00237106
0.00932894
0.0126714
0.0060381
0.000757373
0.000544968
0.00257335
0.00191527
0.00203596
0.00266793
0.000235331
0.000310606
0.00366678
0.00169116
0.00332979
0.00270868
0.000751763
0.00464403
1.08178e-09
1.47222e-09
0.0227176
5.04731e-09
0.000853315
0.00212295
0.00329959
0.00983183
0.00385155
1.45679e-08
0.00713083
0.00311591
9.25762e-05
0.00330376
1.4808e-08
1.31462e-08
1.83818e-08
0.00360923
0.0129749
4.63667e-08
0.00603971
0.00159057
0.15086
0.000168173
0.00373359
3.23872e-05
0.0121084
8.37766e-10
8.49845e-05
5.40175e-09
0.0221338
8.78875e-09
0.00275035
0.00260704
0.00311753
0.0067452
0.0021578
0.0022053
0.0168472
0.0068819
7.98371e-09
1.2745e-08
0.012309
1.47349e-07
2.94534e-07
0.00189971
0.00359003
0.00188763
0.000104755
9.98437e-10
0.00467127
0.00326939
0.00206855
3.80898e-08
0.00319991
0.00188981
0.000624963
7.61085e-05
3.63941e-09
0.00269216
0.0186517
0.00286761
0.00155935
0.00707443
0.000489921
0.0313964
0.00131982
0.00746315
0.00042848
1.38253e-08
0.000234344
1.41628e-08
0.00044953
6.13479e-08
2.70135e-08
0.0036557
5.68922e-07
0.0373866
0.000769248
0.00784119
0.00214051
0.00743464
0.00331493
0.0149222
0.0174464
0.00140931
0.00973254
1.05951e-05
8.02592e-06
0.00130013
0.00182268
8.37841e-09
0.00404106
2.49811e-08
0.00287927
0.000101387
0.00264696
3.06118e-09
0.00265047
0.00132454
0.000427455
0.026625
0.000161891
0.00133732
5.51946e-09
3.45088e-08
9.64857e-09
0.00542651
0.00245421
0.00209634
1.82259e-08
0.00159765
0.00312778
4.16369e-09
0.0156592
0.0132218
6.18478e-09
0.000509134
0.00173986
0.00013061
0.000287342
0.000471122
0.000451418
0.00017165
0.00319897
0.000447682
0.00530515
0.000526665
0.00115897
0.000542174
0.0083771
0.00526669
0.00879258
2.48523e-08
0.0539717
0.021967
0.0971256
0.00186412
0.000146158
1.62445e-09
0.000299991
0.00672914
0.0100739
0.0300758
0.024678
2.31931e-08
5.72348e-06
0.00774921
0.000400845
0.0174358
0.301617
0.0178208
0.000343397
0.000448143
0.015943
0.00161098
2.82144e-07
0.000723817
0.162605
1.37029
9.59358e-05
5.48156e-08
2.1088e-08
0.00483026
0.00104525
0.00178833
0.00269644
0.00196966
0.00438698
0.000887497
0.00272052
5.07823e-09
0.00243353
0.00273706
0.00256355
0.000506818
9.88548e-09
7.23086e-09
0.00469536
0.0145433
0.00403131
0.00258519
2.39607e-08
0.00159754
0.00137054
4.54437e-05
2.10324e-09
0.00866777
5.26498e-09
0.0312672
0.000347519
0.0485871
0.0149688
0.000246392
0.0049583
1.01141e-05
0.00238206
6.36457e-08
0.000873338
0.0836282
2.14337e-07
3.11071e-08
8.28683e-06
0.00388123
0.00342187
0.0015111
0.00100407
0.000975384
0.00126124
0.00104028
0.00178637
1.52621e-07
0.0680972
0.0265478
0.00285785
0.00150579
0.00287971
0.0668724
0.0120214
0.00411869
0.000287594
0.00725523
0.00268499
0.000149763
1.30553e-07
0.00481949
0.00681871
0.0172586
0.0052234
6.63753e-09
0.00456123
0.0374558
0.0242734
0.00323956
7.65376e-05
3.00884e-08
0.0397834
0.00145986
0.0102446