/*--------------------------------*- C++ -*----------------------------------*\
  =========                 |
  \\      /  F ield         | OpenFOAM: The Open Source CFD Toolbox
   \\    /   O peration     | Website:  https://openfoam.org
    \\  /    A nd           | Version:  10
     \\/     M anipulation  |
\*---------------------------------------------------------------------------*/
FoamFile
{
    format      ascii;
    class       volScalarField;
    location    "35";
    object      T;
}
// * * * * * * * * * * * * * * * * * * * * * * * * * * * * * * * * * * * * * //

dimensions      [0 0 0 1 0 0 0];

internalField   nonuniform List<scalar> 
111485
(
303.15
285.234
301.178
303.15
298.74
283.15
299.233
293.583
296.717
286.437
300.738
296.448
300.462
284.666
300.214
286.915
299.381
300.895
294.509
303.15
303.15
283.15
297.608
288.889
301.552
303.15
293.484
300.711
289.288
303.15
300.818
294.451
303.15
283.15
283.495
283.15
302.329
297.885
283.149
296.968
283.15
290.082
297.371
302.938
303.181
303.15
287.679
288.744
290.132
303.15
303.15
283.15
303.15
299.323
303.15
293.917
288.089
283.15
283.338
295.859
296.252
303.15
302.155
300.529
283.15
284.662
301.548
291.807
302.213
302.603
303.172
302.023
303.15
302.204
303.15
295.508
283.15
293.872
283.15
283.15
283.255
293.938
283.15
303.15
300.541
284.303
283.15
301.743
303.142
299.337
283.518
289.913
301.067
300.457
290.275
303.15
303.15
301.743
303.15
283.452
303.15
286.904
283.15
285.425
285.873
283.15
283.15
293.203
301.627
283.145
299.117
288.455
301.479
301.866
303.15
302.084
303.15
283.15
300.339
303.15
303.15
283.15
283.15
283.15
283.451
303.153
283.15
301.928
303.15
283.186
303.065
302.138
303.15
283.15
283.15
292.949
283.15
294.598
299.06
301.243
303.142
297.162
299.227
284.891
302.353
298.082
283.15
303.15
283.15
297.484
285.063
303.15
303.145
287.596
283.156
294.16
296.014
302.579
283.153
303.15
303.15
292.622
286.429
283.151
283.156
301.332
283.751
283.15
283.152
283.16
283.15
303.15
283.21
283.15
291.716
287.37
283.15
303.15
303.15
283.15
303.15
303.15
297.974
293.926
296.184
290.142
301.583
300.619
283.195
303.15
301.583
303.15
303.15
300.367
286.464
301.628
301.396
296.061
303.15
300.998
284.705
283.163
301.057
297.207
303.15
300.612
288.579
303.15
283.247
300.352
284.928
300.863
303.15
303.15
300.877
283.15
293.353
283.15
300.786
298.974
290.704
303.15
301.863
300.753
283.15
283.15
283.15
289.963
283.158
283.15
303.15
298.912
291.787
290.344
283.15
303.15
303.112
303.15
284.412
300.304
299.512
299.745
299.622
283.15
283.143
299.104
283.15
283.15
289.003
288.736
283.15
301.321
299.127
303.15
283.15
301.035
303.15
303.15
303.12
303.15
288.464
285.993
291.211
303.15
298.602
303.15
303.15
303.15
283.148
298.41
301.141
299.668
291.415
299.729
296.589
283.217
290.68
292.018
283.15
303.15
283.149
292.648
299.032
286.614
303.15
298.282
297.587
299.161
302.987
283.164
297.432
299.612
302.044
283.15
283.678
283.15
283.148
303.15
284.087
290.474
286.632
303.15
283.15
297.886
285.441
303.15
303.15
303.15
284.753
290.623
301.249
284.509
293.465
283.15
283.15
303.15
298.621
303.15
283.922
290.097
283.151
283.15
303.15
303.15
283.15
294.753
290.168
283.15
296.077
283.15
303.15
301.325
297.614
294.178
296.178
283.15
283.15
283.15
296.948
291.424
302.408
283.15
283.15
283.147
290.306
297.261
283.234
290.918
283.15
293.236
299.788
284.314
299.074
285.392
283.15
303.15
283.15
303.15
290.861
296.686
288.319
292.401
283.15
286.532
283.15
303.15
294.242
303.15
302.201
303.15
283.15
292.368
283.15
289.137
284.734
283.15
284.04
298.323
283.15
300.346
284.798
299.104
303.051
291.471
286.131
283.15
303.15
303.147
283.15
301.178
301.111
283.15
283.15
294.836
284.462
298.453
296.847
283.15
295.625
296.444
283.15
302.167
283.958
303.15
303.15
288.608
298.911
283.15
303.15
303.15
303.15
300.837
283.15
303.15
294.146
283.172
287.425
300.248
283.15
283.15
302.689
283.15
302.557
301.656
298.328
291.04
283.15
294.285
303.393
303.15
299.056
292.571
303.15
283.15
283.317
283.15
290.395
286.417
292.052
283.15
293.258
296.788
293.439
303.147
283.15
303.15
303.15
283.17
293.131
283.15
284.407
303.137
283.15
303.15
303.15
303.15
301.818
290.909
286.183
284.267
284.438
283.15
285.876
303.15
300.967
283.15
303.15
303.15
300.914
303.15
303.15
283.151
303.15
283.15
300.953
283.15
283.15
283.15
303.15
283.15
303.15
283.15
283.699
283.15
303.132
301.873
283.86
283.15
303.095
283.15
303.15
284.825
284.793
286.302
298.066
283.15
297.911
298.011
292.656
287.106
285.409
303.15
292.14
283.15
300.167
283.15
297.224
283.15
292.461
298.922
303.15
283.15
287.085
303.15
296.02
299.437
283.15
283.15
283.15
283.15
303.15
294.191
283.15
283.15
283.249
283.15
300.129
283.15
284.948
303.15
283.461
303.128
284.759
292.303
283.15
301.585
283.15
283.15
285.866
283.15
283.26
283.15
299.99
303.15
291.111
303.15
283.15
302.532
284.575
300.369
285.828
300.374
289.681
283.15
300.872
284.665
283.15
283.138
300.725
301.76
283.15
282.26
301.264
303.078
283.132
303.15
287.778
302.265
284.507
285.564
288.556
282.34
283.15
303.15
301.357
303.15
283.581
283.15
283.15
292.137
282.622
303.15
303.125
283.15
286.501
299.825
283.15
283.15
299.832
303.15
283.15
283.15
283.15
286.367
283.15
303.15
284.963
284.312
303.15
299.912
283.15
289.407
303.15
283.15
286.369
283.15
283.15
283.15
285.563
283.15
285.621
292.329
303.15
300.665
283.482
299.041
301.141
283.414
283.479
283.15
289.335
298.774
303.15
302.318
296.564
297.27
284.8
297.815
297.567
303.15
300.434
303.141
283.15
297.553
284.956
283.15
292.746
296.157
284.973
299.102
300.83
292.713
283.15
299.22
283.501
303.15
300.802
302.072
294.463
283.15
286.764
303.15
283.15
283.15
283.15
283.313
283.15
303.15
303.15
283.15
300.603
299.591
303.15
285.816
303.15
303.15
303.15
290.277
283.432
283.15
303.15
283.15
283.15
287.34
292.76
283.15
295.616
283.13
283.15
295.779
302.337
288.122
283.15
283.15
300.443
292.488
283.15
283.15
283.15
294.323
303.15
303.15
283.15
296.683
302.476
283.15
282.921
301.824
286.828
283.15
283.15
287.667
303.011
283.15
283.161
288.213
283.802
289.05
283.15
285.862
300.571
283.15
303.15
283.15
283.15
283.15
283.15
296.147
303.15
283.15
283.15
295.772
292.203
303.15
303.15
290.245
298.696
298.593
303.15
283.15
298.277
303.15
283.936
299.073
298.613
303.15
303.15
303.15
283.15
286.227
283.15
283.15
302.736
303.15
298.114
302.402
283.15
294.427
283.208
296.776
292.212
283.457
290.19
283.15
283.15
297.214
288.471
291.023
283.15
283.15
299.521
295.305
283.15
283.982
284.724
283.515
303.15
303.15
303.15
290.927
283.15
300.255
283.15
284.457
297.8
298.776
292.658
283.15
283.15
303.15
295.727
283.15
283.15
303.11
283.15
283.15
303.15
283.15
299.552
283.15
283.15
283.15
283.15
283.15
303.15
283.15
283.174
298.93
303.15
302.584
283.125
283.429
283.086
285.674
283.15
284.555
290.865
283.429
303.15
283.15
299.956
283.15
300.446
283.184
283.142
286.377
297.776
283.244
292.005
298.048
283.15
283.15
299.293
299.991
283.15
297.637
291.518
297.614
283.15
283.257
283.15
297.941
297.057
283.15
300.265
297.699
283.148
299.976
283.15
295.976
283.143
303.116
283.163
283.159
283.15
283.15
284.535
283.15
302.997
283.646
283.158
303.147
303.148
303.147
283.15
283.15
294.208
303.15
303.135
283.955
283.15
283.15
303.153
303.15
283.15
303.162
283.15
283.15
303.15
303.15
303.15
303.15
283.382
283.15
283.15
283.15
303.159
283.324
283.942
293.862
283.15
283.15
283.365
283.15
283.15
283.15
287.483
293.986
283.15
283.15
283.15
283.15
283.15
283.15
284.1
283.15
303.151
291.896
283.15
303.15
303.15
303.15
303.15
303.15
283.15
303.166
283.15
283.768
283.143
303.152
283.15
303.071
284.549
292.54
303.15
303.131
284.631
303.15
283.15
303.15
283.15
294.435
293.852
284.827
303.148
283.15
293.638
283.15
283.15
303.15
283.15
295.243
283.15
303.15
283.162
298.359
303.15
284.554
283.15
283.649
283.15
283.15
283.15
303.15
286.106
283.497
285.024
283.15
283.15
285.879
283.15
283.15
303.15
284.476
303.161
298.905
303.15
303.132
303.133
283.15
303.135
283.15
283.489
289.523
301.009
283.916
283.172
283.15
283.15
283.15
303.177
283.15
302.961
303.15
293.856
303.15
288.893
283.873
303.15
283.15
303.15
283.15
302.004
303.15
303.15
286.687
300.891
283.15
283.15
283.15
283.15
283.15
283.15
301.139
283.622
303.15
303.15
303.155
303.15
300.56
284.492
283.15
302.247
303.15
301.748
283.15
302.629
283.15
283.147
303.152
283.346
302.261
300.56
283.147
283.15
289.643
303.15
293.804
303.15
283.15
303.15
283.15
283.15
283.15
301.099
302.189
303.15
303.15
303.15
302.941
283.148
303.15
293.326
283.078
303.15
297.67
298.359
296.842
283.4
283.15
283.15
283.15
283.15
295.046
283.15
295.435
283.15
303.077
290.037
283.15
302.907
283.15
283.15
302.812
283.147
302.896
283.15
303.15
283.15
302.472
283.15
303.15
283.15
283.147
283.15
283.176
283.15
283.15
303.15
293.127
301.184
296.506
297.378
303.15
303.124
283.15
283.15
285.94
283.15
283.159
302.897
298.882
302.986
303.15
283.398
283.15
303.15
283.15
303.018
283.382
298.342
283.15
303.15
288.34
303.15
283.15
283.113
295.497
283.147
283.15
283.15
283.146
303.15
283.15
303.144
303.15
303.15
290.369
303.021
303.029
289.416
293.653
283.15
283.15
303.116
289.488
283.15
303.15
284.935
283.15
303.15
283.15
283.15
283.15
298.449
283.15
302.971
283.15
300.893
283.15
283.15
283.15
283.15
283.15
283.15
285.233
283.15
283.15
283.15
283.15
283.15
283.15
292.433
283.15
298.404
302.989
283.15
302.339
283.15
302.594
303.146
292.439
288.956
303.15
292.305
284.984
303.122
303.15
303.14
295.17
288.865
283.15
288.079
283.15
283.15
283.15
283.15
287.717
283.15
283.15
291.792
303.139
285.421
283.15
283.15
302.547
283.15
283.2
303.15
299.985
283.15
283.15
302.849
283.15
303.175
303.15
283.15
289.312
298.054
292.861
285.926
293.072
294.44
283.15
283.15
302.392
290.77
293.196
284.543
283.15
294.466
283.15
303.15
300.969
298.922
283.15
297.531
283.15
292.948
297.516
303.15
283.15
283.15
301.926
283.15
283.15
300.747
296.277
283.198
291.399
283.15
283.15
302.854
300.764
283.15
300.863
283.15
300.728
283.15
283.15
301.022
283.15
283.233
301.742
283.15
283.15
302.504
283.15
288.112
303.15
290.965
303.15
303.15
303.15
301.154
283.15
283.15
299.806
283.15
303.011
283.15
283.15
303.15
283.149
288.407
283.15
283.15
288.264
288.446
283.15
283.758
283.15
303.15
302.498
283.802
301.694
283.15
283.15
283.15
283.15
283.15
283.15
283.15
283.15
283.15
283.15
283.15
303.15
283.15
283.15
283.15
283.15
283.15
283.15
283.15
283.15
303.15
287.151
283.15
283.15
283.15
295.103
283.15
303.15
303.067
283.15
283.15
295.114
283.15
283.15
302.184
295.583
283.15
303.475
303.521
283.15
301.745
294.376
297.889
301.62
298.414
303.15
283.15
296.416
292.199
301.567
283.15
302.243
302.48
301.055
288.212
287.458
301.233
301.862
301.907
303.15
286.04
297.858
285.798
297.576
283.15
283.15
283.15
303.15
283.15
292.415
298.21
283.15
283.15
283.15
283.15
283.15
303.15
283.15
303.15
292.305
303.157
299.275
302.867
283.15
283.15
285.588
283.172
283.15
283.15
301.699
303.15
283.15
298.436
299.739
297.833
298.998
301.06
303.15
291.21
302.656
303.15
303.15
300.562
303.15
283.15
282.802
296.198
302.978
283.15
303.15
290.239
286.349
297.215
292.612
302.61
303.15
303.141
303.15
303.15
283.15
298.952
283.15
292.229
290.715
299.945
284.871
303.15
302.035
303.15
283.15
303.15
303.15
291.741
300.452
283.15
303.15
303.14
292.208
303.069
299.582
293.237
288.497
293.33
283.15
303.15
283.15
291.726
298.586
303.15
303.15
303.15
303.15
297.938
302.582
283.15
300.175
301.392
285.079
299.742
303.15
303.15
298.949
293.378
283.15
302.942
300.071
302.652
292.397
297.62
298.538
303.15
287.136
298.234
291.702
283.15
289.451
303.15
288.589
301.233
303.15
288.903
301.441
300.32
293.592
283.148
283.158
283.244
302.065
301.104
303.15
288.975
301.626
303.15
283.15
303.15
303.203
299.048
292.303
297.004
303.234
283.149
298.156
303.15
303.15
293.214
303.15
300.425
283.34
301.475
291.676
303.15
283.714
293.636
303.15
282.964
298.95
303.15
300.872
286.413
303.15
303.15
284.049
303.15
283.15
283.15
286.027
299.976
291.664
303.15
285.473
297.792
283.15
299.098
299.132
289.16
303.138
283.15
301.555
299.658
299.098
300.29
288.814
291.506
302.512
303.15
301.679
288.894
303.15
299.109
283.15
283.15
303.15
283.15
303.15
297.867
283.15
300.709
283.681
303.15
283.878
283.15
290.054
303.15
303.147
303.15
294.49
303.012
303.128
300.088
290.586
289.654
290.748
298.714
303.15
299.644
292.603
299.206
303.15
283.922
283.519
299.502
287.402
283.558
303.15
283.15
303.15
285.584
303.15
303.249
284.773
303.266
302.977
303.15
303.15
283.15
300.75
300.656
285.736
303.103
287.14
296.047
301.946
292.928
288.493
302.151
296.46
283.15
283.15
303.15
285.975
289.923
283.15
283.15
303.15
302.064
289.015
303.15
296.739
303.15
283.155
285.432
301.02
303.15
303.15
292.714
303.15
283.335
290.786
283.15
297.48
294.895
296.177
303.15
302.779
283.15
302.723
293.878
303.15
303.15
288.959
283.15
303.15
301.923
284.547
303.15
303.15
283.15
302.426
303.24
289.926
300.062
298.065
303.15
303.157
302.698
303.15
283.15
303.15
303.15
303.15
303.15
303.15
303.15
303.15
283.15
303.15
303.15
283.383
303.15
303.263
303.15
303.162
303.15
303.15
301.225
303.65
303.15
292.494
303.15
303.15
283.15
302.635
303.15
302.24
303.123
283.3
283.15
303.15
302.958
283.149
303.15
303.15
291.815
283.15
293.033
283.15
283.15
283.147
291.656
284.947
303.15
296.902
283.15
303.52
303.136
284.388
302.671
283.15
292.613
303.092
301.843
283.15
303.15
283.15
303.776
284.919
297.019
303.15
303.15
303.15
303.15
303.15
303.15
302.45
302.854
297.879
292.725
303.15
287.459
293.086
285.085
303.201
283.15
287.088
302.804
284.877
283.147
287.641
303.15
283.409
302.951
292.974
302.887
302.102
303.15
302.262
303.15
303.15
298.237
303.15
284.617
303.15
303.15
283.15
303.15
303.15
302.887
303.15
283.307
283.15
283.15
286.068
285.156
300.959
286.32
303.15
295.796
303.15
290.767
303.15
287.484
300.948
301.688
293.724
303.15
303.15
303.15
289.97
283.15
303.15
289.723
283.15
283.15
302.004
303.15
286.334
283.147
283.15
303.15
303.15
300.807
298.519
303.15
293.798
303.058
283.15
298.734
303.15
286.544
288.44
302.224
303.15
296.68
296.846
302.983
302.033
301.778
303.15
303.15
303.147
303.15
283.15
303.15
289.733
300.037
294.602
302.253
283.15
300.594
291.842
298.531
283.678
298.686
290.106
302.279
283.15
283.15
283.15
302.318
283.15
290.957
283.15
301.469
303.158
289.887
298.186
283.15
303.15
301.458
301.44
303.15
283.15
303.15
286.549
301.628
303
302.433
298.205
288.6
303.15
303.15
303.15
294.615
286.197
290.129
296.279
284.011
302.98
303.15
303.15
283.15
283.15
285.529
299.83
303.15
303.15
283.15
303.15
303.15
303.15
300.559
303.15
285.572
294.075
283.15
283.254
293.691
285.809
303.15
303.15
302.034
303.15
299.577
283.145
297.824
303.15
303.15
283.15
303.15
303.15
303.15
305.825
303.15
301.991
301.193
303.15
303.15
301.798
303.15
283.15
287.445
303.139
303.15
303.15
303.15
298.223
303.15
303.15
302.737
302.573
301.943
303.15
283.15
303.15
302.173
302.585
301.695
302.597
283.15
300.834
287.785
297.642
283.15
303.15
303.15
303.15
303.15
294.749
287.722
299.722
303.15
303.15
303.15
303.15
283.15
303.149
284.932
285.249
283.15
303.15
303.15
283.147
299.975
295.635
283.15
303.15
303.15
303.15
303.15
289.784
290.009
303.15
303.15
302.43
303.15
301.498
284.006
292.665
303.15
283.15
301.215
303.133
303.15
303.814
301.461
287.141
303.15
303.15
303.15
303.15
293.501
284.253
303.15
302.767
298.523
291.862
303.15
303.15
303.15
303.15
299.792
303.151
303.15
303.15
298.544
302.6
288.676
303.15
303.15
298.213
303.15
303.15
303.15
303.15
289.049
303.15
283.15
283.15
296.29
291.455
303.15
303.15
303.15
297.358
303.148
303.15
303.15
303.15
303.15
303.497
301.11
303.15
287.571
302.698
299.655
303.15
303.15
303.15
303.15
283.15
285.918
303.15
302.818
283.15
302.3
303.15
303.14
303.15
283.15
301.942
287.008
283.15
302.87
303.15
302.514
283.15
303.15
303.15
303.152
303.15
283.28
303.15
291.106
283.15
283.15
303.15
303.15
299.093
302.489
283.15
302.566
283.15
284.261
288.391
302.771
283.15
303.154
303.015
303.138
284.551
283.157
303.006
283.15
283.15
283.155
302.181
302.4
303.15
283.15
283.15
296.865
303.15
283.15
303.15
303.15
303.15
303.1
303.061
302.977
302.532
303.15
302.973
303.15
285.031
303.15
303.15
283.15
303.15
303.114
303.15
283.15
303.15
288.506
303.15
303.15
303.201
283.15
303.418
302.916
298.508
303.15
291.684
297.435
284.594
292.075
283.15
283.15
287.379
284.497
283.15
303.581
283.15
286.566
303.15
283.15
303.159
303.15
303.15
303.03
303.154
303.15
283.15
303.142
303.15
283.15
283.1
299.097
302.763
303.15
302.002
303.15
285.821
303.151
301.471
303.15
303.15
301.258
303.15
303.15
303.15
287.884
303.15
285.274
303.15
303.148
303.15
283.15
283.15
303.15
303.15
303.15
288.965
302.648
303.15
303.15
288.936
286.674
292.613
303.15
302.764
287.858
287.786
303.15
303.15
288.784
283.15
292.714
303.15
303.151
303.15
303.15
300.733
283.15
302.347
283.15
303.15
303.15
303.15
303.15
303.15
284.513
302.34
291.835
303.15
303.15
291.354
303.15
303.15
303.15
303.15
303.15
300.351
303.15
303.15
283.15
299.684
303.15
283.15
303.15
301.511
283.15
300.174
291.136
302.745
300.232
299.674
303.15
303.15
303.15
301.004
288.818
283.15
303.15
300.511
303.15
303.15
292.79
303.15
287.723
303.15
298.119
284.466
303.15
283.15
303.15
303.15
303.15
285.501
303.15
300.666
303.15
303.15
299.935
283.15
284.956
303.15
303.15
288.487
301.585
297.164
303.15
303.15
303.15
301.604
293.026
303.15
283.15
303.15
300.855
303.15
284.98
297.059
303.15
303.15
301.298
303.15
303.15
283.15
303.15
283.15
295.524
303.15
283.15
303.15
303.15
303.15
303.15
303.15
303.15
283.15
301.55
283.15
302.18
303.15
303.15
296.503
300.675
303.15
283.15
303.15
301.056
283.15
303.15
303.15
303.15
300.87
303.15
298.35
303.15
286.139
283.15
286.958
303.15
303.15
298.833
283.15
303.15
288.189
283.251
303.15
303.15
285.24
283.994
301.029
301.857
301.342
293.404
301.859
283.919
303.15
298.404
283.15
283.15
303.15
303.15
303.15
301.366
303.15
303.15
303.15
303.135
283.173
283.15
283.593
303.15
302.137
283.15
303.144
296.453
283.15
294.991
303.15
303.15
283.15
300.12
283.993
303.15
283.15
300.145
303.15
298.221
303.15
296.076
303.15
283.15
303.15
283.15
299.617
283.15
283.257
283.15
286.395
303.15
303.15
283.15
283.15
303.15
303.15
303.15
303.15
285.007
285.227
283.15
303.15
283.237
283.15
283.15
303.155
290.307
283.588
283.15
301.635
285.014
300.566
288.564
303.15
303.15
303.15
303.15
283.15
283.15
283.15
303.15
283.15
283.15
303.15
283.15
297.828
283.15
303.15
283.15
303.15
303.15
283.966
283.15
303.15
302.086
303.15
303.15
303.15
303.15
288.926
283.15
303.15
303.149
283.15
303.15
303.15
303.15
295.495
283.15
283.21
303.15
303.15
303.15
303.15
303.15
303.15
303.146
284.176
303.15
283.15
303.15
303.15
303.15
303.148
303.15
283.15
283.15
283.15
303.15
303.15
283.15
303.15
283.15
287.936
283.15
301.992
283.15
303.154
303.15
284.718
283.15
284.552
297.918
303.15
284.807
303.169
303.15
297.94
283.15
303.15
303.15
303.15
303.15
283.15
303.15
303.15
299.506
283.15
303.15
303.15
303.15
303.15
292.487
292.057
303.166
283.174
303.15
301.952
302.403
303.15
283.15
283.15
303.15
303.15
303.15
283.15
283.15
283.876
303.15
303.15
303.18
303.15
283.15
289.275
303.15
283.15
303.15
288.667
303.15
283.15
302.264
283.15
283.15
283.15
303.15
299.975
303.15
303.15
303.15
283.15
284.62
294.297
295.932
290.015
303.133
303.044
283.15
283.15
301.374
283.74
283.15
303.149
303.15
303.15
283.15
295.259
303.15
283.15
303.011
303.15
303.15
283.863
303.15
303.15
289.014
290.245
303.15
283.15
303.15
283.15
303.15
303.15
303.15
303.15
284.005
303.15
303.15
303.15
302.97
303.15
303.15
283.15
283.15
283.15
283.15
302.983
283.15
283.15
301.191
303.15
284.91
285.081
303.15
301.327
303.15
283.15
303.15
283.15
283.15
303.15
303.15
303.15
302.716
303.15
303.15
303.15
283.15
303.15
283.15
286.603
303.15
303.15
292.227
303.15
283.15
283.15
302.498
303.15
303.148
283.15
303.206
286.853
283.15
283.15
299.496
283.15
283.15
303.068
303.158
293.543
303.164
303.151
303.152
283.15
283.15
302.719
283.523
286.145
301.023
283.164
283.15
291.239
301.722
301.607
283.15
300.443
290.852
300.243
302.298
302.905
284.903
295.838
299.508
286.378
293.727
300.333
303.15
298.019
297.859
302.844
283.702
292.727
301.301
287.482
303.15
301.372
303.15
300.841
301.666
283.674
285.12
303.15
283.15
302.315
301.837
283.146
303.168
288.718
302.73
302.085
301.051
303.15
303.192
301.378
295.607
300.495
289.741
302.971
301.651
302.23
302.355
284.295
302.577
301.713
283.181
303.15
302.929
303.15
303.15
302.225
302.134
294.54
303.15
284.83
292.893
292.539
301.705
303.15
284.152
285.296
284.459
303.15
299.04
303.15
296.449
295.726
301.008
303.145
303.15
303.15
302.127
301.455
302.835
303.15
292.863
302.79
290.5
283.15
298.419
294.242
303.15
300.571
283.15
283.207
283.15
302.685
303.124
303.15
302.998
298.644
283.147
300.719
302.319
295.497
283.602
296.289
297.352
283.527
303.138
284.939
296.4
283.331
297.404
300.735
300.556
300.559
302.125
290.979
301.704
303.15
302.773
302.711
302.695
296.526
302.915
283.15
302.152
293.61
303.15
283.473
286.968
301.377
302.677
290.733
284.91
287.959
302.702
296.9
303.15
303.15
295.564
283.15
293.252
283.474
303.15
290.735
290.842
283.962
303.15
297.52
298.527
284.338
301.523
294.348
290.342
300.588
303.115
303.15
303.15
283.657
302.692
283.382
285.998
303.15
303.033
303.053
303.15
285.548
300.817
298.131
283.292
299.861
302.488
300.679
287.204
283.15
303.115
301.944
283.842
283.168
303.15
303.088
303.15
303.15
284.264
302.602
296.427
283.083
283.151
303.15
283.15
302.974
303.059
302.57
301.566
303.15
283.15
283.15
301.941
301.992
283.259
295.922
303.15
303.15
301.762
285.708
283.268
301.819
301.905
301.883
284.528
303.15
283.15
298.555
297.978
303.15
302.773
302.207
285.282
285.124
302.231
303.052
303.15
298.446
284.532
283.15
303.15
300.669
301.364
302.121
289.892
302.198
285.871
300.348
300.291
290.532
297.833
303.15
303.15
301.084
284.574
302.218
283.152
300.781
301.86
283.668
288.465
302.51
283.15
283.15
283.02
303.15
303.15
300.188
299.102
302.395
283.145
283.15
284.026
283.149
283.15
283.153
303.09
301.154
299.506
296.21
283.411
303.116
300.337
303.15
283.15
302.658
289.443
300.956
292.847
283.548
303.077
283.147
283.15
302.88
301.358
302.688
283.163
291.788
285.045
303.15
284.403
301.171
283.15
283.324
285.122
284.94
283.15
283.15
301.779
283.15
289.679
302.6
302.766
301.869
283.536
300.007
291.25
283.15
303.269
292.677
283.15
283.15
283.15
303.15
301.27
302.499
299.359
301.617
300.009
289.299
283.154
291.169
290.324
303.074
291.511
300.205
292.273
283.15
286.557
301.257
301.669
283.15
284.089
299.881
283.15
303.15
283.197
301.438
303.15
284.094
302.31
303.044
303.15
283.15
293.051
303.152
301.849
283.15
283.15
283.15
302.327
298.051
303.14
302.276
303.162
303.15
288.743
303.162
290.633
300.41
300.371
296.905
283.158
301.82
283.15
290.828
301.554
289.778
290.693
299.222
300.873
301.727
287.339
291.305
285.26
283.184
302.329
286.33
283.145
283.147
300.396
283.076
300.491
287.245
296.197
299.68
289.69
299.524
283.125
299.165
283.15
290.454
291.083
298.904
283.365
283.15
300.847
283.15
302.854
283.15
303.15
286.636
286.692
283.15
299.252
298.622
287.332
303.15
303.15
301.942
289.958
303.075
283.778
301.709
287.426
303.147
284.357
288.536
303.15
301.61
283.15
283.15
287.76
287.346
283.144
285.399
301.637
286.487
301.181
303.15
285.509
301.87
291.486
303.15
303.15
301.792
302.177
303.15
293.94
294.459
283.797
296.728
287.11
290.358
303.15
303.059
297.36
285.285
283.15
287.918
292.978
299.995
283.176
283.804
282.856
302.083
303.134
283.15
303.138
303.15
300.705
293.498
299.082
294.209
283.15
292.111
296.493
285.803
283.218
294.625
283.15
300.285
303.162
293.042
284.169
303.146
292.068
298.859
288.563
300.435
291.48
287.688
283.15
303.143
285.498
290.234
293.897
283.15
283.15
283.15
303.142
283.15
283.135
286.686
303.15
283.15
303.161
283.172
291.243
290.599
303.198
302.953
290.221
303.15
297.294
303.167
302.121
287.514
283.15
293.321
303.147
303.105
286.466
283.15
283.15
283.511
286.335
303.075
303.145
287.8
289.761
283.574
283.162
290.074
293.415
303.15
283.15
303.117
303.15
302.433
285.126
302.396
303.104
284.13
283.832
284.125
302.871
302.312
297.531
294.203
303.09
291.659
291.2
303.15
303.108
302.674
285.618
283.424
303.15
286.111
283.405
302.959
301.686
302.28
283.15
300.555
301.973
303.15
302.235
285.562
303.15
298.249
303.15
283.15
300.86
302.755
286.567
302.562
283.15
285.315
303.04
283.15
302.401
285.497
295.186
284.446
303.15
303.03
302.887
286.701
283.15
287.331
284.334
290.104
285.983
302.344
303.15
283.15
283.15
293.282
283.15
301.133
302.263
290.534
283.15
294.212
283.15
303.15
283.15
300.077
298.818
283.151
285.438
301.772
303.122
303.155
292.524
294.8
301.365
283.301
301.85
283.145
303.15
303.158
300.293
283.15
302.691
295.091
303.15
301.041
287.533
301.986
284.989
288.589
283.15
302.319
287.991
298.81
303.08
283.15
303.15
291.935
302.261
283.093
283.145
287.227
298.758
303.15
284.88
301.19
301.143
301.402
303.151
300.123
287.911
285.076
301.713
300.12
283.835
283.083
303.158
303.15
303.15
297.653
283.161
283.15
303.15
303.15
290.152
299.027
300.374
288.034
302.849
303.15
286.554
301.695
303.15
301.052
283.841
301.625
303.15
284.669
301.452
295.614
302.797
303.15
303.15
285.329
295.422
296.7
287.647
303.15
303.15
283.15
287.432
302.499
296.493
303.15
285.716
303.15
303.15
300.515
288.914
283.15
295.889
296.211
299.147
283.15
303.15
292.87
287.443
303.15
298.231
300.681
300.591
303.15
303.15
303.15
300.408
298.588
302.866
300.089
283.15
293.025
287.937
291.239
300.852
303.15
303.15
300.919
303.116
286.851
296.484
303.15
303.148
283.15
286.595
299.441
285.739
303.15
303.15
283.373
303.13
303.15
303.15
283.15
290.692
303.15
303.15
284.765
299.377
283.15
303.15
284.72
301.462
300.355
287.197
295.023
303.15
283.515
303.15
303.15
283.191
300.734
290.642
300.569
303.15
303.137
302.285
293.474
300.093
301.575
284.54
283.503
300.863
298.646
303.15
302.795
284.235
299.94
301.523
288.02
303.15
297.61
301.549
301.632
301.666
293.025
303.15
283.15
299.402
283.15
283.15
287.936
283.15
284.06
283.15
283.15
283.15
283.15
302.809
288.266
302.76
283.15
296.017
291.102
284.847
283.15
303.15
302.736
301.871
303.201
302.702
283.15
295.091
300.447
290.35
283.15
283.15
300.008
286.042
283.15
283.15
303.149
290.814
283.15
287.466
303.15
303.152
284.389
283.15
288.585
294.59
300.868
294.688
302.992
285.845
302.573
295.517
286.453
283.15
283.564
291.966
303.12
289.616
302.73
283.15
292.531
287.936
301.108
301.239
285.079
303.13
285.05
297.494
302.991
303.149
285.223
303.146
303.027
293.606
302.691
283.15
303.15
303.15
295.118
291.424
283.156
301.391
284.812
284.222
284.717
303.145
288.532
300.639
283.15
283.15
302.609
303.151
294.894
302.954
303.177
300.222
303.206
302.934
283.15
301.425
302.928
283.15
303.15
301.394
303.15
284.412
299.169
283.171
291.978
283.15
287.755
303.045
299.95
283.15
303.049
291.054
301.354
303.137
303.09
283.15
283.15
301.97
302.119
283.841
302.848
302.503
302.451
303.141
283.15
294.063
283.15
302.827
288.042
303.013
303.15
283.15
302.885
285.27
291.635
302.161
283.15
302.663
302.125
301.679
302.572
303.057
303.183
303.032
303.15
283.15
301.617
298.289
303.096
303.15
290.311
285.458
303.15
283.15
285.461
303.181
303.161
302.952
301.347
284.394
303.108
291.034
294.354
303.148
289.318
303.16
283.15
290.251
283.15
300.253
298.559
284.887
288.452
299.928
296.72
295.546
299.481
294.077
303.151
294.016
296.83
283.152
299.698
293.999
303.15
299.137
299.467
303.15
291.553
303.166
301.841
303.15
287.109
286.129
302.855
289.839
283.15
283.15
300.592
301.135
283.817
283.15
303.15
300.378
302.421
300.792
300.079
302.835
292.778
289.826
286.78
292.665
284.418
290.794
283.314
295.767
290.588
294.453
287.431
284.34
303.16
283.278
303.147
285.847
300.962
283.151
300.385
298.439
288.913
302.155
285.517
299.304
283.15
302.982
283.155
283.102
288.405
299.979
303.15
300.406
303.038
300.069
302.816
303.15
301.469
285.085
295.244
302.183
303.15
283.765
283.15
290.711
285.328
285.928
303.165
303.149
283.15
283.15
283.18
303.15
293.979
303.15
303.164
296.408
303.439
303.15
300.481
303.15
303.15
294.191
290.816
303.15
290.006
302.164
289.731
303.15
303.15
286.37
283.349
290.602
303.205
303.15
303.147
285.647
283.323
283.15
289.223
287.908
303.15
284.369
303.15
303.15
303.133
287.522
303.15
303.147
283.312
303.152
302.734
288.099
283.147
283.736
297.394
291.238
303.15
286.051
284.545
301.479
287.266
302.381
290.725
294.17
303.15
303.15
284.077
303.154
302.976
295.898
302.972
302.793
287.329
283.15
285.455
283.229
297.406
302.662
285.596
303.15
283.887
286.887
303.132
283.181
303.15
286.618
283.15
300.15
303.15
300.064
300.314
283.276
283.399
302.407
291.255
301.317
303.15
301.593
301.911
303.15
303.15
298.542
293.9
283.15
289.018
303.15
295.248
283.398
303.15
297.129
298.995
289.191
303.15
302.82
294.559
295.759
284.563
303.161
298.906
296.598
284.03
303.133
302.85
287.672
298.852
289.967
290.996
289.907
283.15
302.987
303.151
303.15
303.165
293.626
296.771
302.996
301.473
303.15
284.512
303.15
303.064
302.9
303.15
293.932
296.417
303.15
285.577
303.106
303.15
303.106
303.154
286.367
293.734
291.359
288.577
293.517
303.15
301.345
291.992
295.675
293.972
303.142
303.15
300.703
303.179
284.379
303.18
303.15
303.15
303.143
303.15
285.127
303.15
284.387
303.146
303.15
290.579
303.145
292.89
295.973
303.136
295.679
286.091
283.48
303.131
302.955
284.784
283.15
297.307
303.15
285.655
302.957
302.138
303.031
298.461
287.31
303.15
298.819
290.082
299.657
283.15
283.655
303.15
303.144
303.184
294.197
303.15
292.705
289.564
303.188
303.15
285.014
298.977
293.627
299.778
302.575
301.622
300.535
303.15
284.806
296.952
302.419
285.77
298.355
292.527
284.629
292.032
303.15
287.089
292.208
290.253
299.621
303.15
286.577
284.131
303.15
302.5
288.327
302.155
283.15
303.15
300.06
301.808
289.326
302.084
301.911
301.919
303.15
289.678
285.269
302.058
302.319
297.383
303.15
283.209
303.15
302.085
303.15
302.875
303.15
292.099
303.15
296.998
283.15
290.094
303.15
283.15
292.291
301.567
300.592
289.408
300.664
303.15
302.57
303.15
302.418
285.408
303.15
300.579
290.637
303.15
300.964
303.15
303.15
293.313
283.15
285.836
293.492
301.078
303.15
291.537
294.175
288.516
289.8
288.252
299.193
300.269
300.957
287.55
287.282