/*--------------------------------*- C++ -*----------------------------------*\
  =========                 |
  \\      /  F ield         | OpenFOAM: The Open Source CFD Toolbox
   \\    /   O peration     | Website:  https://openfoam.org
    \\  /    A nd           | Version:  10
     \\/     M anipulation  |
\*---------------------------------------------------------------------------*/
FoamFile
{
    format      ascii;
    class       volScalarField;
    location    "29";
    object      SgRate;
}
// * * * * * * * * * * * * * * * * * * * * * * * * * * * * * * * * * * * * * //

dimensions      [1 -1 -3 -1 0 0 0];

internalField   nonuniform List<scalar> 
111485
(
1.42652e-09
0.00902094
0.0210331
5.80803e-12
0.0450101
2.50306e-09
0.041691
0.00586835
0.0184058
0.00112951
0.0418556
0.00915914
0.00424931
0.00600957
0.00593352
0.0316568
0.00491839
1.99817
0.0100324
2.52095e-08
0.000692771
2.32794e-10
0.0234556
0.0355209
0.00848041
2.17097e-09
0.0401164
0.00174318
0.0159431
0.000902595
0.0434584
0.0175463
6.31392e-09
2.55522e-08
0.00968408
1.80201e-06
0.0129653
0.00546869
4.26713e-05
0.0215751
0.000722329
0.0720111
0.0144309
0.000999485
3.69999e-05
3.90994e-08
0.0328199
0.000720908
0.0475794
1.45365e-08
2.92258e-08
3.57669e-07
1.042e-08
0.0444505
3.48907e-08
0.0430916
0.00355152
4.18568e-10
2.79168e-05
0.00449356
0.0149369
5.82303e-09
0.00402491
0.0886166
1.50032e-07
0.00359066
0.300868
0.0973274
0.000924631
0.00512133
7.57618e-06
0.00547657
2.14404e-07
0.00245023
5.78056e-09
0.000633401
1.10747e-09
0.0425227
1.9818e-09
5.14561e-07
0.00501976
0.0408222
9.26842e-10
2.17991e-09
0.00813046
0.00442728
0.00249482
0.0225291
5.08189e-05
0.00675023
0.000868461
0.0410811
0.0103476
0.000127288
0.0559787
4.24146e-10
0.000505002
0.0014514
3.08071e-05
0.00148658
6.34807e-10
0.0195194
3.54575e-08
0.0214679
0.00482958
2.56336e-07
1.9161e-10
0.0074722
0.00318795
1.18907e-05
0.00117594
0.00503953
0.00313801
0.00264365
5.58191e-09
1.94694e-05
1.55629e-09
1.64877e-07
0.0113668
1.56049e-10
1.14292e-09
3.35947e-06
0.00124904
4.51686e-08
0.0023356
0.000533236
1.97667e-06
0.00168222
1.76251e-11
0.00017824
0.000991121
0.0280554
0.00088479
3.17044e-06
1.47947e-06
0.0491655
2.01983e-10
0.0410109
0.0225523
0.00255923
0.000173364
0.00186858
0.0236242
0.0031073
0.00379402
0.00951947
2.3298e-10
8.40249e-10
2.22179e-09
0.0262477
0.00183124
0.000530779
0.00197887
0.00521059
1.66557e-06
0.0106185
0.0154991
0.00943532
1.63454e-05
1.09078e-07
7.02247e-11
0.0526866
0.0252329
6.29321e-06
1.58027e-06
0.00493003
0.00369318
0.000451772
3.74469e-05
6.79513e-05
4.09158e-11
2.10806e-09
0.00362194
2.73956e-11
0.00519804
0.00201406
8.01664e-09
1.61389e-07
4.10049e-09
9.67369e-08
1.49133e-07
5.00132e-09
0.00134064
0.00671963
0.0277054
0.00291249
0.00642073
0.00355235
0.000101367
5.55088e-09
0.00422947
9.09699e-08
1.31592e-07
0.00580545
0.011073
0.0228088
0.0103631
0.00234987
2.00857e-08
0.00604472
0.000573846
7.32098e-05
0.011184
0.00229177
3.05504e-08
0.00324095
0.0275419
2.00781e-07
0.000230564
0.00653806
0.00228141
0.000307521
1.41521e-07
1.19514e-10
0.0072667
5.05727e-06
0.123841
3.05607e-10
0.00601962
0.0189259
0.121847
1.35315e-09
0.00268143
0.0120168
5.06192e-06
1.16112e-10
2.22074e-11
0.166688
7.42036e-05
4.09456e-07
1.7277e-06
0.00905425
0.0086885
0.01846
6.52482e-07
2.51428e-07
0.00285529
1.39096e-09
0.00272736
0.00828479
0.0149031
0.0107493
0.00917601
7.49337e-08
3.3316e-05
0.00055916
1.44423e-07
1.48744e-09
0.0307029
0.0237266
3.58405e-07
0.00192212
0.00978535
2.52572e-11
3.63582e-06
0.000153147
5.71344e-09
1.20926e-06
0.00184362
1.56031e-09
0.0155771
0.0117322
0.00335842
6.55696e-11
0.0108703
1.64651e-11
9.67603e-10
1.24521e-08
0.00297148
0.0225655
0.00553816
0.00466432
0.0400762
0.0109744
0.00150433
0.000595647
0.0330502
0.00978853
9.4174e-09
1.83588e-09
0.00203551
0.0222403
0.0215247
0.0131596
2.6078e-11
0.0101633
0.00661723
0.00276075
1.24051e-05
4.97055e-06
0.0122082
0.00211929
0.00186497
1.64566e-10
0.00077917
3.19866e-10
6.83113e-06
4.94536e-06
0.266628
0.0682564
0.0198948
6.03877e-09
0.00144089
0.00832715
0.00191558
2.25829e-10
2.20218e-09
0.00046198
0.000380798
0.0593701
0.00333911
0.0154466
0.0182904
4.57427e-07
7.73398e-10
3.91559e-09
0.00352158
7.32076e-05
0.00573619
0.187062
1.44354e-05
1.75458e-10
1.01953e-09
4.48414e-10
1.49242e-06
0.0572782
0.0123208
5.71653e-08
0.00485438
1.32137e-06
0.00112863
0.0672679
0.00537291
0.0107212
0.00854503
0.000795788
9.26846e-07
1.07581e-08
0.00871267
0.0198567
0.00468276
2.69168e-09
0.00264765
0.000229467
0.00177969
0.00735339
6.81625e-05
0.0284665
0.000652051
0.0370372
0.00315831
0.00784112
0.0230843
0.0147317
1.75632e-07
6.85938e-09
9.12777e-09
2.11278e-08
0.0320996
0.0149052
0.0370928
0.0669749
0.00088231
0.0201478
4.20244e-10
8.77538e-09
0.0161195
0.000880181
0.0398115
0.000856222
0.000824261
0.0237435
2.16556e-10
0.0133838
0.000335911
3.45615e-11
0.00112236
0.0150834
2.83882e-07
0.0079541
0.0106803
0.00742324
0.000447796
0.00259546
0.00567111
8.78484e-07
1.23031e-08
0.00137706
5.51639e-09
0.0050038
0.112078
0.000503802
1.99465e-09
0.0256059
0.00284739
0.00449183
0.0278378
7.80603e-09
0.0390057
0.019767
1.32178e-10
0.000695985
0.00282037
1.68494e-09
0.000596811
0.0110716
0.00487811
1.66369e-08
3.29103e-10
1.31632e-05
3.45174e-10
0.0105523
6.68807e-08
1.27125e-12
0.0177303
3.38907e-06
0.0189643
0.0266771
3.91374e-11
1.44034e-06
0.0010848
1.75879e-06
0.000108435
0.0108344
0.121697
0.905629
9.19228e-07
0.0062913
0.000238487
3.80299e-09
0.0350144
0.0331136
1.94483e-09
2.43561e-05
0.00011244
1.3919e-06
0.0257063
0.0268845
0.0154542
3.64794e-09
0.00682759
0.0206393
0.0221571
8.50252e-05
1.69334e-06
2.50732e-05
1.23024e-09
0.00451397
0.0333918
4.13444e-10
0.00958072
7.32797e-05
1.99437e-06
6.1947e-11
4.80047e-07
4.38346e-10
0.00930132
0.0114235
0.00711224
0.00244422
0.00339111
4.64499e-09
0.00228413
1.35132e-08
0.0356282
2.93076e-09
1.79447e-08
0.000977566
0.0317891
1.78888e-09
2.05477e-09
7.62608e-06
1.54113e-09
3.14539e-08
0.000875946
6.74818e-11
1.061e-06
1.66806e-09
0.0013848
8.48834e-09
4.47079e-08
3.12637e-09
0.0081618
8.87445e-09
0.0043627
0.00166251
0.00678867
5.11599e-10
0.000625842
4.68536e-08
6.07313e-11
0.00957557
0.00456379
0.0294054
0.0222189
5.64997e-07
0.00187148
0.0726475
0.00882241
0.00108691
0.00873397
1.05576e-09
0.0217636
1.95424e-06
0.00428126
0.000986904
0.0691007
2.01878e-06
0.0208536
0.000323943
1.30842e-05
0.00136538
0.00229892
9.68278e-09
0.0759477
0.0443109
6.03232e-08
2.30981e-08
4.03441e-07
2.10272e-11
3.08259e-05
0.054603
6.52685e-09
4.7897e-09
0.00288395
5.00175e-10
0.0304012
4.122e-09
0.000351178
1.2813e-09
0.00263839
0.00198922
0.00112181
0.0121446
0.00108549
0.00687064
5.61082e-09
4.16182e-09
0.0162788
3.85384e-09
3.83991e-05
2.86891e-07
0.00147638
0.00079545
0.0661466
9.20272e-11
8.2511e-07
0.012164
0.00387844
0.00150449
0.00430812
0.00590966
0.0208887
1.87722e-08
0.0207283
0.0070842
1.67214e-10
0.00225845
0.0314457
0.0125481
3.41944e-08
0.00551922
0.00543598
0.00128605
0.00143258
6.1451e-06
0.0137841
0.000984782
0.000167075
0.0267822
0.0160301
0.00109572
1.31292e-06
6.52914e-05
0.621553
5.945e-09
0.000419572
8.13619e-08
6.15723e-07
0.00726297
0.00364675
4.96145e-05
1.76679e-05
2.9388e-06
0.0185116
0.00995269
6.59888e-09
3.54457e-06
0.00204108
1.45061e-09
5.33424e-11
9.05924e-09
7.69297e-10
0.0152607
3.00216e-11
0.000651099
0.00987432
0.00241138
0.0018129
0.0149986
1.01696e-06
0.0085651
0.000691462
6.91687e-10
0.0571303
3.29967e-09
9.89805e-09
8.02024e-07
0.00443311
0.00208422
0.0328241
0.00644268
6.43753e-08
0.0728876
0.00536074
0.0261361
0.0235857
0.000930072
0.00354572
0.000696086
0.0569194
0.0415932
1.31934e-07
0.000308994
0.0361878
0.00706441
0.00138305
0.0244483
0.0237633
2.15238e-08
0.0104674
1.64398e-05
5.42679e-07
0.0319699
0.000299214
1.22783e-05
0.0109833
0.0387506
0.00158829
0.0185333
0.0168454
0.0070645
6.8437e-08
0.00923433
0.000400576
3.15045e-06
0.0144645
0.0149016
0.034846
9.5109e-09
0.00237131
9.93213e-08
2.14504e-09
0.00129589
6.31595e-10
0.00243015
1.00965e-06
0.000234307
1.31009e-08
0.000492524
5.129e-05
0.0396555
3.26223e-10
0.0366048
6.00079e-09
4.13991e-10
2.00993e-08
0.0446461
0.000498531
5.65316e-07
0.000762504
2.27882e-09
4.16039e-10
0.238796
0.0683963
1.48941e-06
0.00177068
7.07222e-06
6.48505e-10
0.0349057
0.00649597
0.0164804
9.17431e-12
3.68153e-09
0.000393306
0.00107312
2.27312e-06
9.11046e-09
0.00104526
0.00705127
1.12949e-09
4.47229e-09
0.000759281
0.0384939
0.00161709
1.86479e-11
4.12142
0.142985
0.0142588
2.53234e-10
2.56278e-09
0.0568173
0.000304889
7.52097e-07
1.71755e-05
0.170106
0.00291715
0.0129738
0.00105399
0.0578112
0.00152102
1.45571e-09
2.47604e-08
4.93611e-09
3.76488e-09
1.14111e-09
2.62234e-11
0.0193309
1.36186e-09
8.44286e-09
1.97466e-08
0.0119254
0.0234901
4.7653e-09
1.48685e-08
0.105657
0.0132885
0.0085086
8.78084e-09
7.24095e-10
0.0344912
2.14617e-11
0.0022763
0.0023866
0.00352551
2.9625e-09
8.45994e-11
2.2351e-10
4.52948e-11
0.0158588
2.09259e-09
1.18398e-08
0.000816443
2.21102e-10
0.0210996
0.00140735
6.94488e-08
0.0358363
0.599459
0.00235757
0.0338732
0.000202272
0.0480185
0.00376524
1.47719e-06
0.0219025
0.0766439
0.00437316
3.45425e-07
0.00169264
0.517813
0.00767464
3.91662e-09
0.00291645
0.00313749
0.00143628
1.36435e-06
7.65688e-11
4.74387e-13
0.0126862
6.72804e-07
0.00365143
6.93778e-08
0.00145899
0.00152448
0.0268266
0.000533965
2.85907e-09
0.000558346
2.00159e-07
0.0197695
2.09003e-09
8.88287e-07
4.46605e-05
3.38363e-08
8.19116e-09
0.000759995
3.62778e-11
0.00621483
0.00106067
6.46227e-10
0.00125272
7.65078e-07
0.000617688
8.86337e-06
5.53688e-09
3.78287e-06
0.0013709
0.000852504
0.00333435
3.49253e-05
0.00285772
8.72624e-05
0.00437934
2.11221e-08
1.00721e-05
0.0178184
0.00323274
3.18721e-09
0.0041872
0.000818177
2.9577e-06
0.00668195
0.000300652
2.27961e-05
0.0253204
0.00478622
0.00216156
0.00379594
0.00179507
0.000765769
3.69072e-09
0.008253
0.00968919
9.86688e-10
0.00639232
0.0575259
0.0272502
6.26984e-09
0.00167165
8.16265e-10
0.00997516
0.0169093
7.83148e-09
0.00329651
0.00647074
2.43711e-05
0.00195779
1.8854e-08
0.0471653
2.03882e-05
0.00186523
6.06424e-05
1.91532e-05
7.88637e-08
0.0007628
0.00833748
6.0567e-10
9.58181e-05
0.000333885
2.22628e-05
8.41395e-06
1.60716e-05
4.29284e-06
1.0391e-10
1.30818e-06
0.0216449
1.38045e-08
0.00118558
0.00848969
4.34494e-09
5.60975e-09
5.79354e-05
6.2418e-05
4.20547e-11
1.45316e-05
9.87781e-09
2.28716e-10
3.46027e-10
7.69947e-09
1.06269e-07
8.23768e-09
0.000331946
0.000856336
5.60506e-11
1.36583e-08
8.38114e-05
0.00212684
0.00204372
0.00908312
0.000544609
6.94065e-11
0.0002352
5.29556e-10
8.49523e-10
1.07784e-05
0.021777
0.0413366
2.00206e-09
3.26812e-09
0.000593827
8.50939e-09
0.000388429
4.6456e-09
0.00845722
1.39381e-10
3.8613e-05
0.0269245
4.29259e-11
1.79262e-08
9.83319e-09
4.25605e-05
1.61497e-08
3.52463e-09
3.52937e-08
9.09404e-05
0.000907105
0.00530504
1.15469e-05
2.04058e-05
4.01321e-09
6.9175e-05
0.00260517
0.0434708
4.95902e-08
9.77987e-06
0.00721379
4.61176e-09
1.56619e-07
2.78271e-06
4.13874e-09
0.00789981
0.00174834
0.00395843
0.00125632
9.58707e-11
0.0223297
0.00101242
2.11921e-06
1.36356e-06
2.91889e-10
0.02529
2.85852e-09
1.96093e-08
3.07962e-06
0.0487982
1.77794e-08
0.00300272
4.42277e-07
0.00112567
3.95489e-07
9.2565e-11
6.24093e-08
8.05897e-11
0.00268272
0.000684892
0.339085
3.63592e-09
8.64611e-09
0.00219807
8.16664e-11
7.80025e-07
9.30221e-09
0.0422379
2.08852e-05
0.0286759
4.78656e-09
3.33909e-05
3.17853e-05
1.31963e-06
7.21758e-05
8.86575e-10
0.00182626
0.0276322
0.0220712
0.00164602
0.00032858
8.95055e-09
1.29083e-11
1.30089e-09
0.00329894
0.00125597
0.00544189
8.16778e-12
0.17599
6.46087e-10
0.0447631
0.00354627
1.51822e-08
2.53385e-09
4.85086e-08
1.55982e-08
0.0313099
4.41044e-08
2.09942e-06
0.0185613
0.00535656
1.28523e-06
5.27057e-07
1.33808e-06
9.22321e-07
7.87671e-09
1.15468e-11
0.0203975
0.000520156
4.74834e-09
3.75743e-09
1.1083e-05
6.84167e-09
0.00132814
0.0075022
2.70802e-08
0.0027123
1.22736e-11
0.000560306
3.78755e-09
0.00673136
3.90179e-10
0.00214961
0.000107429
0.000878722
0.0143899
0.0274
1.88531e-05
4.60056e-08
0.000447863
4.83079e-08
0.00436038
1.29246e-08
3.82993e-08
1.52724e-06
5.64425e-08
0.00118882
4.63508e-09
0.00569152
0.00627584
9.31733e-11
7.33281e-06
4.58363e-09
0.000534406
3.17411e-05
2.35043e-09
0.0184452
0.000214274
9.80086e-09
0.0216712
0.010105
0.0033249
0.0134509
1.32167e-10
0.000778553
1.5913e-07
1.22203e-08
0.0362025
8.10082e-08
0.103872
1.41688e-09
0.0029213
0.000729248
5.05203e-11
0.000671254
8.18926e-09
1.35704e-10
0.002272
1.59417e-05
0.00592172
4.39521e-10
3.41039e-08
8.41287e-10
0.000695719
8.68839e-07
0.000643251
1.06677e-07
1.50393e-05
1.25443e-06
3.25538e-05
5.24291e-07
5.3944e-08
2.20543e-08
0.0178801
0.000938285
0.0176887
0.0342917
0.000820171
1.48843e-05
0.000801461
4.27056e-11
0.0108444
1.79218e-09
4.52002e-06
0.000256832
0.00564855
0.000241426
8.81744e-06
0.00242717
1.54372e-11
0.000116426
0.000144173
9.50001e-05
0.00123624
0.0134746
1.54701e-05
3.69368e-08
0.0311696
7.13359e-09
1.18361e-09
3.40183e-05
0.0745105
1.65814e-05
1.5178e-08
0.000792903
1.19367e-05
1.60589e-08
1.97413e-08
2.13211e-05
5.88228e-08
0.00104031
0.0465363
0.000143973
0.000110016
0.0233153
0.00718498
4.93526e-10
2.9143e-09
4.95993e-06
0.00419765
0.000582786
0.00102663
0.0112379
5.7213e-09
5.67685e-06
0.000704158
4.61037e-07
2.11129e-05
2.52255
0.000739208
0.00233475
0.000859547
0.0153207
1.5815e-10
3.58932e-05
3.17637e-08
3.45109e-09
4.58639e-09
5.5323e-09
0.00336616
1.29239e-09
3.30677e-09
1.58827e-06
2.33753e-09
2.47222e-10
1.71507e-08
0.00995289
0.00100099
0.0110287
0.00233814
0.00129166
0.0063772
1.9931e-09
0.00373557
4.65214e-06
0.0107995
0.0136188
1.36187e-09
8.90388e-05
0.00933769
0.00465081
3.76671e-11
2.3926e-05
0.0169553
0.00502953
2.90094e-07
0.0273762
2.70013e-08
5.83666e-09
0.0013117
2.59081e-09
0.00847218
4.7474e-09
9.23131e-09
0.00804665
8.97739e-06
0.00328927
1.98462e-08
6.55494e-06
0.000676382
9.89888e-09
0.000149691
2.20608e-08
0.015058
3.76565e-09
2.29749e-09
0.00456443
0.000743948
0.000109397
6.01016e-09
6.7578e-10
0.00532527
0.00383727
0.00489582
0.0174676
0.217384
0.0197338
5.33933e-10
0.00059676
0.0023721
0.00667954
0.0350556
0.0133435
3.16382e-09
0.0144657
3.64346e-10
0.000756225
0.00763204
0.00959541
3.37661e-10
0.0124324
2.49542e-08
0.00282734
0.00821569
7.51426e-08
2.25723e-11
1.21916e-10
0.00232515
0.00136758
2.60782e-10
0.00354741
0.0199375
5.81811e-06
0.00733111
0.000821964
3.21228e-08
5.58709e-05
0.000656626
7.66317e-09
0.00924529
4.58021e-08
0.00243912
3.45924e-09
6.45396e-09
0.0111188
1.39981e-09
4.83126e-05
0.00296475
1.23665e-09
5.76582e-09
0.00365164
9.49752e-06
0.0593737
2.49779e-09
0.285245
3.95371e-08
6.64588e-06
3.67139e-06
0.00642751
1.55348e-06
0.0013597
0.00500998
9.53514e-07
0.000175807
0.0011544
1.54462e-08
9.33888e-10
7.51425e-06
0.00077412
0.000707508
4.90253e-09
0.0359728
0.000941108
4.34667e-09
0.0046965
1.18261e-09
1.08781e-08
1.22428e-06
0.00369189
0.019188
0.000971275
8.75758e-09
2.45726e-09
7.44363e-11
1.11159e-08
1.06733e-08
1.74673e-08
2.98741e-09
1.35051e-10
3.90657e-09
1.92469e-10
5.3944e-09
0.00106599
0.000635182
2.12481e-10
2.61706e-07
4.08764e-09
8.40768e-09
2.09831e-09
0.000622969
0.0015455
0.0183594
4.36139e-09
1.38177e-09
1.65514e-08
0.00618919
8.82732e-08
5.81908e-09
0.19498
5.00991e-09
5.40715e-08
0.021897
3.19018e-06
9.92155e-08
0.00438911
0.0232755
4.88252e-09
0.00127787
0.00217088
6.11552e-09
0.0110982
0.0373745
0.0165103
0.00287885
0.00976112
7.39132e-08
3.46417e-09
0.00858184
0.010271
0.00268728
0.00106923
0.00560017
0.00135235
0.0186478
0.0103966
0.000693452
0.0135976
5.42238e-05
0.00844325
8.03865e-08
0.0265727
0.0075723
0.00181926
0.00116618
1.48669e-10
7.91893e-09
5.61137e-10
1.02921e-11
2.75786e-09
0.00878138
0.0122196
2.37383e-09
3.53141e-11
8.11333e-09
3.10085e-07
6.46252e-09
2.14735e-10
1.47168e-08
4.15443e-08
0.00410207
8.82181e-05
0.0194975
0.00442789
2.24461e-09
2.05149e-07
0.0331688
2.92384e-06
4.04575e-10
1.04642e-08
0.010973
9.40549e-09
2.90748e-10
3.89706e-06
0.0110096
0.012275
0.0293493
0.0270262
2.99151e-08
0.0136587
0.000261273
6.91327e-06
2.6728e-10
0.0102101
1.05574e-07
3.60442e-09
0.0276762
0.99395
0.00361801
1.36034e-07
3.03672e-08
0.015788
0.022208
0.0139765
0.00573
0.00203489
3.96278e-09
1.35656e-05
6.88397e-06
0.00113131
1.42647e-07
0.0215395
4.87412e-09
0.00194786
0.028036
0.0155099
0.0119919
7.15818e-08
0.00523675
9.62493e-10
1.66132e-07
4.18988e-10
2.17513e-10
0.00259651
0.709953
5.47505e-09
3.62781e-10
1.24423e-05
0.0225602
0.00047298
0.00618082
0.0311871
0.00473158
0.019527
3.67395e-07
9.84335e-08
3.7476e-06
0.030643
0.00512968
6.32147e-05
3.11211e-08
3.09905e-10
2.70005e-06
0.0187011
0.00269055
9.03979e-10
0.00686648
0.0450702
0.00816952
0.00544613
6.16476e-09
3.74177e-06
0.00613263
0.0214865
7.96024e-11
0.000239532
0.0120412
0.000858271
0.0124178
0.00411866
0.00748143
4.71351e-06
0.00343319
0.018683
0.0370357
1.23807e-06
0.0229926
2.26376e-06
0.01917
0.000146432
3.1687e-13
0.00263027
0.00633067
0.000313245
0.010618
1.15174e-05
0.000206888
2.58504e-05
0.0245908
0.0031083
9.02042e-07
0.0378372
0.00105294
6.38184e-09
4.18934e-10
0.00187377
1.44648e-05
0.000897549
1.01323
0.0325065
0.00778962
9.18374e-06
0.0370974
4.97765e-08
5.96339e-08
0.00383769
7.82446e-07
0.00231458
0.00615682
0.00180426
0.00442479
8.50398e-09
0.000238774
0.102068
5.50332e-10
0.0596076
0.00650474
1.82477e-07
0.00330288
0.000172695
2.81304e-09
9.78035e-06
0.00252469
1.34528e-08
4.15244e-10
1.02649e-10
0.00721428
0.00888093
0.013246
0.00100116
0.00560406
0.0282311
1.45335e-07
0.00709309
0.0107955
0.0239938
0.00130017
0.00195957
0.00660984
0.00844933
0.00898355
0.00654616
0.0365516
0.146442
0.00960025
6.27015e-10
0.00455488
0.0496745
5.89523e-10
0.000368455
1.01568e-08
7.40086e-09
1.44826e-09
3.73061e-09
1.19521e-09
0.00508241
1.22919e-09
0.00401513
0.00144569
4.29706e-10
0.00408637
1.24396e-07
0.0138596
2.05114e-09
1.78099e-05
1.02343e-07
0.0206316
0.000112689
1.37054e-06
0.00261209
0.0276814
0.0165592
0.00364754
0.0227427
5.66613e-05
0.0163564
0.0494955
0.00637728
1.96551e-08
0.00118908
0.00036061
0.00405468
0.011303
0.000755862
2.22849e-08
1.0594e-06
8.83909e-09
0.0040452
0.000764461
5.5189e-05
0.00601951
0.000550376
0.000273613
2.65755e-10
0.00114893
7.83679e-10
0.00738098
0.0199818
0.00137178
8.95151e-06
0.00182826
0.00611402
0.00196415
0.000725984
0.00613405
0.00529967
0.00230955
4.60783e-07
0.00131566
4.52957e-09
0.0138063
0.0102463
2.20687e-08
3.02268e-10
4.25246e-06
0.00706656
0.0182032
7.10037e-09
0.0018874
0.000831517
4.32297e-06
0.0052494
0.0740555
6.44369e-11
3.8466e-12
0.00342588
3.09101e-10
8.56246e-05
0.0109285
3.93975e-07
0.00939071
0.0313422
0.0160981
6.46336e-10
0.000661509
1.5337e-06
5.79134e-05
0.0454489
2.08485e-09
1.99029e-08
0.0106496
9.9212e-06
2.8904e-08
0.00287021
0.0010726
3.97871e-09
6.23773e-09
4.08971e-06
4.60196e-05
0.0012563
0.00305333
0.0201943
0.0135744
2.88368e-10
6.08389e-06
0.00042157
0.000796128
2.88463e-08
0.000886361
0.00154926
2.18906e-06
1.36519e-07
3.25936e-07
8.06797e-10
2.77402e-07
4.66201e-07
6.41135e-06
3.26119e-07
0.000410078
4.41346e-07
9.31583e-05
6.34283e-06
7.14751e-05
2.74439e-06
1.81829e-09
0.0220098
0.00805789
1.03955e-07
0.0867208
4.17594e-06
3.59553e-06
2.85989e-07
0.00104511
4.52373e-06
0.00218867
1.17962e-05
0.000977387
3.83938e-07
6.54024e-10
0.000634779
8.1216e-06
0.00123983
4.74077e-08
0.0368964
7.98271e-07
0.033902
1.41663e-06
1.51296e-08
7.92318e-06
0.0266679
0.00844479
4.48218e-09
0.00040006
2.3901e-07
0.00104676
3.52059e-05
0.00780412
0.000646057
2.95629e-08
0.0190149
0.000766629
0.0048109
0.000562509
0.00131328
1.84185e-11
0.00521856
0.00398969
0.0440853
1.04491e-08
2.2961e-05
2.02481e-08
0.000799702
4.05038e-09
2.71882e-10
0.00237843
0.00156617
0.00236771
0.279338
0.00073695
0.0286963
0.032954
0.0175136
0.00510939
0.00071926
0.00540925
0.00327024
0.00476676
1.09173e-05
0.00962588
0.000698373
0.00172443
0.000893667
0.0303747
8.152e-07
0.00241178
1.39069e-08
0.0166123
3.26112e-08
1.22119e-08
0.00143091
8.35962e-08
0.00695574
5.47782e-10
1.2011e-08
0.00134083
1.64672e-10
1.63478e-09
0.000591541
8.53768e-09
0.000603959
6.24368e-07
0.00110274
0.0187863
0.0105134
0.00719676
0.00808753
0.000745019
0.555534
9.27711e-12
0.0666533
0.000523456
0.0185452
0.0180524
0.00183352
0.0534038
1.32154e-07
1.49591e-07
1.98906e-08
0.00429784
3.55865e-08
2.28823e-08
0.0167123
1.23402e-08
1.09199e-09
0.00404047
5.92844e-08
0.017387
1.74335e-06
6.4268e-07
7.84704e-07
1.004e-06
0.00143344
0.00574921
1.14004e-10
0.0184457
0.000243981
3.81994e-07
0.0941465
5.63099e-09
0.0153594
0.0170206
0.00285891
6.23832e-09
0.0154925
0.00824014
0.000598606
0.00410515
0.0111014
4.77943e-09
3.56051e-09
3.38216e-05
7.09144e-09
1.49382e-09
1.59936e-10
0.0182437
0.0412669
0.00400072
0.00175788
1.28997e-06
0.0416505
0.0429943
0.00365641
0.00300161
0.00796268
0.0200885
0.00204114
2.18643e-09
1.67557e-09
5.78456e-10
0.00505047
4.88614e-09
0.0299334
9.31017e-06
0.000628702
3.48966e-05
0.00236507
0.0189563
9.64272e-10
0.00110659
0.00197812
0.00027891
3.35461e-08
2.09804e-08
1.25707e-09
0.00842157
0.000257954
0.000114948
0.000635902
0.00838775
0.0857769
1.57178e-08
6.42721e-09
1.05884e-08
0.00305007
0.0188297
0.0115672
0.0310556
0.00190619
0.00212149
5.58935e-08
3.62517e-10
3.21151e-06
9.6462e-09
0.0124688
0.0190762
5.86854e-09
2.77976e-08
3.59169e-07
0.00114294
0.000558916
3.37335e-07
0.0109396
0.00167384
0.00108712
0.291682
0.000784306
1.57469e-05
0.00940439
0.00366762
0.000348769
1.70442e-07
0.00368162
1.71061e-09
0.0116042
3.16483e-05
0.0218141
1.78659e-07
6.49908e-06
3.37925e-10
0.000430889
2.56636e-09
4.95174e-07
0.176974
2.59949e-09
0.00441046
0.0010592
9.01025e-09
1.00611e-08
0.00146413
1.22264e-08
2.80038e-09
0.01422
5.11317e-05
8.78232e-10
0.000432125
0.000820523
0.0147701
6.83243e-12
1.3825e-10
0.000249197
0.00196808
0.00224751
5.21397e-09
9.9915e-09
2.49102e-06
0.00295235
0.00140677
0.0103575
0.009336
1.22146e-10
0.00284765
0.0119805
0.00233249
0.000939761
2.8596e-08
9.86362e-10
0.000426421
7.50337e-11
0.0282171
0.00717084
0.00426381
1.72485e-08
6.47107e-09
1.8034e-10
6.31352e-10
3.69377e-07
0.00231384
0.00410052
0.00238904
6.75041e-08
4.92768e-12
0.00104275
0.00397873
0.0275322
0.0946913
6.39209e-09
2.18383e-05
4.05649e-06
3.64339e-09
5.85174e-10
0.00326425
0.0067652
2.39172e-09
1.75752e-07
0.00243736
0.00111284
0.00427349
0.00114783
2.00888
2.2686e-10
1.18589e-08
0.0119909
0.000363358
5.29106e-07
0.635003
0.00622491
0.0067281
2.05786e-09
9.66828e-09
2.76934e-07
0.00108574
0.00685283
0.00322826
7.82544e-10
0.0217556
0.0159791
0.838358
5.8262e-10
3.30645e-11
1.0994e-08
1.17099e-09
0.00536514
6.0591e-06
6.60212e-09
0.000690481
0.0160197
0.00386635
0.00476764
4.61998e-08
3.04368e-08
0.0256272
2.02015e-07
2.33958e-10
1.01424e-09
8.52948e-10
0.0227091
1.52244e-07
0.000963346
0.000937465
0.0227587
0.0126262
1.06668e-10
5.38529e-11
4.36328e-10
0.0133848
3.69388e-06
7.27087e-09
3.03382e-10
1.04479e-10
0.000407938
0.00217312
0.00863823
0.000756395
0.00205684
0.00633514
0.00392719
1.44541e-08
1.79538e-11
4.84075e-09
0.00100054
1.57331e-11
0.0213842
8.99995e-10
0.0155348
7.73584e-07
0.00115486
2.42155e-06
0.00169919
6.66537e-10
4.54057e-10
0.0165436
0.261508
6.09466e-07
0.00259773
1.62854e-08
0.000287626
1.58398e-06
5.14419e-08
9.24161e-08
5.90782e-06
6.28027e-09
0.000370856
0.000728454
0.0334998
6.9608e-09
1.45715e-06
1.46531e-08
0.000635789
0.00320651
0.000111466
7.59865e-10
0.00383403
5.82855e-09
0.00351797
0.0195538
0.000891792
4.85188e-11
2.02423e-05
0.000307108
3.89907e-06
0.00491259
2.62185e-06
0.001195
1.1774e-07
2.67428e-11
3.53218e-06
0.00470505
0.000170156
2.08043e-08
1.71454e-07
2.10751e-06
0.431481
1.93267e-10
4.30521e-10
1.62048e-09
1.91555e-11
2.18034e-09
0.000480767
0.000129745
0.000755129
5.30394e-05
3.75242e-06
0.000913491
6.31923e-12
0.00632518
3.81755e-10
9.48062e-09
1.46425e-09
4.09815e-07
6.2014e-05
4.15843e-07
2.38976e-09
4.74552e-09
0.0145118
7.51842e-09
2.60297e-09
0.0132053
1.94012e-07
0.0364852
0.0656096
0.384401
1.30869e-09
0.204486
1.27465
1.8052
0.668967
6.40383e-10
4.27903e-11
0.00473306
0.00523629
1.18731e-06
0.00293411
0.000705775
0.0310508
5.62712e-07
7.23661e-08
0.000480586
3.94023e-09
9.94798e-11
8.93545e-06
3.49165e-05
0.000488565
2.01124e-10
0.00207979
2.0861e-06
1.43962e-08
2.1609e-05
0.00737992
0.00113188
4.91744e-08
0.00605598
5.46119e-09
0.00337754
4.02211e-05
0.00511354
1.47335e-08
3.22627e-05
0.00465721
1.83006e-07
5.99072e-05
1.35705e-09
0.0317532
9.40487e-07
0.0101953
1.25091e-08
0.00338196
2.69861e-09
2.88732e-08
4.13427e-09
0.00209157
0.0020664
4.50691e-08
0.0119454
0.00670806
0.00102865
1.08301e-08
0.0327025
0.0171599
0.173654
2.62813e-08
0.00344829
0.0240854
0.045584
7.70953e-05
1.50095e-09
0.0647056
3.40871e-08
0.213524
5.17439e-10
4.57027e-05
6.62712e-05
1.66414e-09
3.68619e-05
3.19959e-08
0.0198113
3.51638e-10
0.000737172
1.08865e-08
2.26057e-07
1.46255e-08
1.37196e-08
0.00036559
0.00147837
0.137705
9.28594e-08
4.24516e-06
0.0407976
2.60826e-08
0.000800092
2.17103e-08
5.55337e-08
5.90342e-08
0.00366326
3.38705e-11
4.69322e-10
4.49208e-11
0.00155881
1.17506e-08
0.00112138
3.59637e-07
0.000515259
8.88938e-10
0.000964948
0.198126
0.00380991
0.00783678
0.0107874
2.05345e-07
6.26408e-09
7.01936e-09
0.00511463
0.00166273
4.75598e-08
8.82988e-06
0.000799605
2.08503e-09
5.67502e-09
0.311781
1.32708e-08
0.0215543
9.53385e-10
0.00099101
0.0036575
5.06335e-09
2.62327e-11
0.000852917
1.43018e-10
1.08308e-10
0.0200099
0.00105457
0.000121867
3.96221e-08
6.22342e-10
0.00572029
1.02623e-07
0.0137732
9.54034e-08
1.90332e-09
0.00220111
7.79052e-05
0.123601
1.10724e-09
6.6853e-10
8.23495e-09
0.00360709
0.171005
2.56517e-08
3.60361e-09
1.28986e-07
0.00117628
2.63834e-09
0.0212736
0.0233208
1.71257e-08
5.86441e-10
0.0055528
2.94979e-09
3.64799e-07
5.36332e-11
4.54412e-07
5.36728e-10
0.0601641
6.0677e-06
2.41746e-09
1.09486e-09
0.00126564
9.71879e-10
0.00104159
1.00216e-08
1.17293e-08
2.01894e-07
0.00753779
0.000774574
0.00654709
0.00092266
0.00112103
0.542949
0.00210486
0.00075215
1.91825e-07
5.06434e-10
0.0018171
0.00236722
0.000688219
0.000781388
5.60619e-10
0.00574096
1.52414e-10
0.00292787
1.79494e-08
0.0100145
3.13273e-06
0.055164
1.97691e-08
3.92322e-09
0.0170908
5.39971e-06
1.18765e-09
0.0258225
0.00026966
3.95828e-08
1.26139e-11
0.0385735
0.0118401
0.00518643
0.00061015
0.00139985
0.0156318
0.000779508
0.00543948
1.57007e-07
0.0199429
2.22847e-06
8.30461e-06
1.40607e-10
1.77866e-08
3.87275e-09
0.00814143
1.86414e-09
4.95833e-08
6.28075e-12
7.91121e-06
0.00694505
0.00150825
0.00280897
3.85448e-10
0.00408069
0.000918463
0.00179314
0.00323019
4.88477e-06
0.039907
1.07564e-08
7.61126e-09
2.39761e-09
0.00236076
0.00142229
8.71449e-09
8.60496e-10
0.00198835
1.05495e-08
0.625606
0.00100849
0.0801378
2.30731e-10
3.0623e-09
0.000786964
4.77765e-10
0.00817185
1.01129e-08
7.15452e-05
3.25756e-10
0.00932649
8.12356e-09
3.84147e-09
2.00057e-05
0.0026843
0.0012055
2.65362e-08
0.0012792
7.01202e-10
0.00435613
0.227589
0.0020101
7.81519e-09
0.000398835
4.30997e-10
5.40557e-08
6.77599e-06
0.016568
0.000172722
4.83555e-09
6.6078e-05
0.00368071
0.00442899
0.00842876
1.08533e-08
7.12512e-09
6.05366e-08
2.41299e-08
4.18041e-09
2.48775e-09
0.00125139
0.000691147
2.81938e-09
0.00139195
1.5245e-10
5.59985e-09
0.070661
1.18474e-08
1.03443e-10
0.00064798
2.3754e-09
6.95522e-11
1.05409
1.59113e-10
3.02501e-11
0.00139657
0.00156495
3.74936e-09
0.000694135
7.80424e-10
0.0206993
0.00083276
1.24153e-07
1.67898e-05
2.07908e-11
3.01964e-09
2.30399e-08
3.89357e-09
0.104744
0.000756754
0.000250306
8.65652e-10
0.000864209
1.64052e-10
6.50362e-09
8.54303e-10
0.00174416
3.41874e-05
0.000125194
2.48934e-11
1.71898e-08
0.000899342
1.87525e-05
7.58902e-09
4.87301e-06
0.00185233
0.00143098
6.48982e-07
0.00144912
1.81643e-05
0.000795308
7.26059e-07
0.00113754
6.00376e-06
0.0302517
3.51852e-08
0.00546229
7.82923e-06
1.81481e-05
1.15793e-10
0.00156237
1.85438e-09
0.00448704
0.0193345
2.7839e-08
0.00264503
1.43942e-05
4.61362e-09
0.0081823
6.88792e-09
4.75622e-10
1.87631e-09
8.8935e-10
8.94506e-08
1.99619e-09
1.33109e-08
2.06004e-09
0.239152
7.62287e-07
7.70796e-11
4.80364e-11
1.07006e-09
2.1813e-09
0.029316
0.779509
4.20927e-05
1.85121e-05
1.3448e-10
0.00156558
0.00104516
0.000861649
5.27875e-07
3.0031e-07
9.41404e-09
1.6777e-08
5.01354e-08
3.92504e-06
2.01626e-06
0.00356823
0.00124968
1.46566e-09
0.000109129
7.05683e-06
8.63764e-10
0.0263858
9.07247e-08
2.14757e-09
3.88437e-08
0.165415
0.00115008
2.69683e-11
0.02156
3.06322e-09
0.000814037
9.77718e-07
0.000664158
0.0481788
8.57351e-10
1.16252e-09
8.85972e-09
4.85081e-07
0.0064459
0.230675
0.0268501
0.0452119
0.0026752
0.000159413
2.57613e-10
2.01509e-06
0.106036
0.00156907
1.70556e-06
5.72291e-05
8.09722e-08
0.00169809
5.68327e-09
0.210816
0.000713293
7.07786e-10
0.000170662
0.000141417
2.12015e-09
0.0116493
5.42707e-10
4.40891e-09
0.20221
0.0279894
1.60499e-09
2.34679e-09
2.44912e-08
3.07397e-10
1.78276e-09
1.99158e-06
4.40923e-10
1.92989e-11
0.00344122
9.12512e-11
2.55991e-09
3.55629e-09
1.44212e-05
8.90742e-09
3.01936e-06
1.3425e-08
2.10475e-09
3.95704e-07
1.23749e-06
0.00242562
0.000714577
1.38403e-06
0.00419305
4.42593e-08
0.00603665
0.0105596
6.03021e-09
0.0027691
3.86277e-09
0.000768287
0.000710893
6.9289e-06
0.00150373
0.00127909
9.87352e-08
1.74603e-11
0.00183913
3.04075e-09
3.53199e-10
1.30684e-08
2.91537e-07
3.23108e-09
3.42592e-07
0.0402114
1.79125e-10
8.23324e-10
0.32685
6.09896e-11
0.000287446
1.76293e-07
0.000957379
4.41159e-10
1.12178e-05
2.55297e-06
0.00430511
0.00807242
0.00040035
3.40694e-06
0.0375684
4.55031e-06
0.00126106
8.79116e-05
4.72208e-06
0.00930487
0.000988863
5.3959e-06
2.10466e-05
8.55391e-08
2.81907e-09
0.000743086
0.000219524
0.0206234
0.0106458
3.74305e-05
3.39475e-08
0.00534682
0.00412736
0.0159538
2.91051e-12
0.0108034
0.0158889
0.00239669
0.0011187
0.000409746
0.00451592
0.018021
0.0356618
0.00485417
0.0107181
0.00716776
1.43907e-06
0.00455266
0.00275752
0.000576225
0.00309909
0.0128286
0.0121507
0.0185323
1.90722e-06
0.00734153
7.78644e-06
0.00442585
0.00231744
0.000313736
0.00281379
3.22807e-06
0.00126211
0.00450538
0.00101829
6.38039e-06
1.71103e-05
0.0166398