/*--------------------------------*- C++ -*----------------------------------*\
  =========                 |
  \\      /  F ield         | OpenFOAM: The Open Source CFD Toolbox
   \\    /   O peration     | Website:  https://openfoam.org
    \\  /    A nd           | Version:  10
     \\/     M anipulation  |
\*---------------------------------------------------------------------------*/
FoamFile
{
    format      ascii;
    class       volScalarField;
    location    "19";
    object      p;
}
// * * * * * * * * * * * * * * * * * * * * * * * * * * * * * * * * * * * * * //

dimensions      [0 2 -2 0 0 0 0];

internalField   nonuniform List<scalar> 
111485
(
7.87128
0.0301207
0.0212227
7.87247
0.0143413
7.61403
0.0138901
0.0219254
0.0142559
0.00332857
0.0132368
0.0119481
0.0175653
0.00257481
0.0154105
0.0415522
0.0272167
8.79277
0.0191426
7.87317
7.8734
7.61714
0.0115896
0.0303685
0.00952177
7.84717
0.0182308
0.04767
0.0199101
7.87223
-0.0757102
0.0169592
7.87501
7.61328
8.57283
7.57418
-0.0527635
0.0519677
-0.105415
0.0246362
7.66061
0.00331188
0.02533
-0.0256677
-0.251632
7.88541
-0.00987103
0.0261521
-0.00179409
7.91522
7.91335
7.36457
7.92182
-0.0405585
7.92679
0.0270652
0.0194489
7.62227
-0.0896797
0.02202
0.0232385
7.87179
0.0212925
-0.0664829
7.66106
0.0270318
5.1055
0.0201625
0.00741086
0.0198808
-0.132513
0.0331914
7.72526
0.00789979
7.87732
0.032982
7.61697
-0.000320094
7.6156
8.0593
-0.105432
-0.027708
7.61682
7.8737
0.0265712
0.012765
1.75503
-0.0465608
-0.0974314
0.0391208
-0.204409
0.0147376
0.0252556
0.0463549
0.00348228
7.87341
7.87179
-0.0301754
-0.727879
0.0739845
7.87168
0.0108296
7.60297
-0.00448792
0.0138106
7.91548
7.62044
0.0162233
0.0124988
-0.339006
0.0215328
0.0352799
0.0203221
0.0106313
7.84377
0.0325564
7.86016
7.61454
0.0138001
7.87415
7.84615
6.66495
7.61762
7.62247
0.00251528
8.9561
6.62755
0.0198097
7.87415
0.397162
-0.0965677
-0.0315629
7.87783
6.51166
6.80015
0.0149005
7.61689
0.0335866
0.0102591
0.0299477
-0.0336487
0.0131575
0.0180588
0.0210332
-0.0176383
0.0329297
7.61685
7.8729
7.62698
0.0201588
0.0176013
7.87106
-0.0650158
0.00919294
-0.654281
0.02206
0.0175113
0.0126765
-0.511378
7.87876
7.87275
0.0192875
0.0112575
-0.471113
-0.591453
0.0264546
-0.0578799
7.64937
-0.432645
-0.400087
7.62171
7.87242
0.0101673
7.61874
0.0296178
0.0170177
7.67118
7.70401
7.86293
7.8147
7.67507
7.87181
0.0269784
0.0222793
0.0289869
0.0698882
0.00615498
0.0294326
-0.0427156
7.87244
0.0171294
7.69911
7.86005
0.0374253
-0.00303905
-0.0419815
0.0339898
0.0162511
7.87816
0.0257697
0.0216828
5.2908
-0.0167839
0.0261532
7.86833
0.0333036
-0.00541907
7.69786
-0.0477362
-0.0141147
0.0194045
0.0159542
7.66788
7.87128
0.0297232
4.96149
-0.0312051
7.61839
0.0323248
0.0351681
0.00137535
7.87042
0.0219394
-0.0572641
5.99264
7.61846
7.62185
-0.111434
-0.57977
7.72821
7.29679
0.0333098
0.0230993
-0.0795791
7.72621
7.8047
-0.0642481
7.87502
0.0102955
0.0306664
0.0310618
0.0185782
0.0302263
7.62306
-0.0976543
0.0188638
7.62599
7.61689
-0.0458603
0.0343473
7.7857
0.0310871
0.0306098
7.87308
6.3571
-0.0210937
7.88746
8.02377
7.18868
7.87316
0.0266527
0.0200097
-0.0104486
7.87473
0.030586
7.87229
7.87049
7.87779
-0.0716037
-0.00670771
0.0279183
0.0190647
0.00499797
0.0218092
0.0191881
-0.0736627
0.0102614
0.0208279
7.5755
7.87281
-0.0796051
0.0203691
-0.0891699
0.0260478
7.87367
0.028584
0.0155236
0.021976
0.0216199
-0.102616
0.0170282
0.0205469
-0.0187008
7.61883
-0.00861324
7.61879
8.73991
8.09071
-0.110698
-0.00637843
0.0123761
7.86639
7.68276
0.0292196
0.0267325
7.87078
7.8691
7.93052
0.0196596
0.0298664
0.0230821
0.0208013
0.0160071
7.22822
7.62473
7.87419
0.0313701
3.2363
-0.00167461
-0.105524
-0.0810711
7.6176
7.87098
7.87172
6.79438
0.0261642
0.0222034
7.61126
0.0290184
7.78319
7.8631
-0.0278801
0.0266538
0.00689263
0.029146
7.98941
6.75861
7.61424
0.0263596
0.0198633
-0.0773511
7.65421
0.458318
-0.144739
0.0219148
0.0310157
1.28048
0.0144646
7.61534
0.00952139
0.032441
-0.0943251
-0.0344292
0.0113194
7.61605
7.87555
7.6192
7.8757
0.0286589
0.0262211
-0.00926412
0.0191814
7.63386
0.0154608
7.62155
7.87883
0.0157125
8.13868
6.95161
7.91463
7.56961
0.0212206
7.62092
0.0172738
0.0204019
7.61538
0.00847629
0.0283828
7.85643
0.0280615
0.0154761
0.034307
-0.0426757
0.0408102
0.0303603
7.9962
7.87352
-0.0145599
7.63885
0.00890595
-0.0410364
7.66978
7.62136
0.0284111
0.0125038
-0.000469458
0.0272914
7.61669
-0.074183
0.00724552
7.61196
-0.0286579
-0.00747408
7.8703
7.87203
0.0248116
0.00929944
7.59946
7.86407
5.86015
7.87103
0.0150254
7.61862
7.87196
0.00413898
-0.0902871
-0.00390426
0.0224163
7.61519
6.81211
-0.00139941
6.90964
-0.0241527
0.00303476
0.0092902
5.27893
6.98166
-0.488592
-0.285199
7.86973
-0.0447421
0.0141428
7.86851
-0.501092
0.00279264
6.94859
0.00916975
0.0104577
0.0387156
7.61646
0.268321
0.00783245
0.0491287
-0.129133
6.60503
-0.596585
7.87082
-0.0354684
-0.168653
7.62226
-0.00164605
-0.00496514
6.42316
7.87368
7.47119
7.87236
0.0162004
0.0783145
0.014674
0.0146209
-0.0503515
7.61878
-0.0414959
7.88362
0.027195
7.60302
7.88098
7.88809
0.00504219
7.87437
7.87122
8.34717
7.87018
7.63032
-0.0139062
7.62032
7.41934
7.61607
7.85872
7.60876
7.88044
7.61753
0.00283859
7.61459
-0.0171813
0.00544988
-0.0878188
7.62314
-0.014529
7.62369
7.87101
-0.000631496
0.000655607
0.0459634
-0.117005
7.32517
-0.00988174
-0.0204759
0.0232189
-0.0141619
0.00148233
7.87352
-0.00405777
6.43438
0.00737419
7.61831
-0.0162358
6.65849
0.0229414
0.0193497
8.29098
7.68305
-0.0322805
7.87114
-0.00864499
-0.0163659
7.6291
7.63606
7.92413
7.62107
-0.971953
-0.00897697
7.61187
7.62655
0.0117552
7.6171
-0.0123114
7.61621
-0.0135306
7.87132
0.01279
0.0113049
0.0535684
0.0218083
7.59512
-0.128166
7.6102
7.61832
0.00761265
7.61943
0.00302318
7.93032
-0.0300691
7.87277
0.0271075
7.87343
6.95756
-0.101848
-0.0438982
-0.012852
0.011771
-0.025215
-0.000276741
7.62602
-0.0202501
-0.0242992
7.61779
-0.0446724
-0.0577185
-0.00518184
7.68513
8.03851
0.0350618
-0.0349456
3.68144
7.71985
0.00363786
0.0235853
0.00831591
0.00606621
0.15609
2.53198
6.86391
-0.69485
3.14323
7.87263
0.0137451
7.63813
6.98844
0.0309077
2.48801
-0.714658
1.42819
6.86269
-0.00905014
0.0188259
7.63116
7.44664
0.0259068
7.8788
7.61709
7.61791
7.62158
0.00319101
7.62013
7.82891
0.00985579
0.0275264
6.01337
-0.0264703
7.31166
0.0287457
7.92069
7.62398
-0.0017851
7.61746
7.62165
6.95532
0.0458386
4.64212
-0.0202222
0.0384883
7.88701
-0.218264
-0.0634962
0.00787094
-0.00848623
0.259346
0.00366214
7.62078
-0.00302684
0.0106338
7.8759
0.0226819
-0.0156185
0.0168738
0.0349709
0.016865
0.0159251
7.88576
0.00438244
-0.0491181
6.93285
0.0175964
0.0180184
4.84154
0.0396232
0.0180516
0.00892981
0.0110717
0.0195964
0.0337959
7.76079
0.0135597
0.0032912
8.2295
-0.000785299
-0.0148467
0.0374423
7.62042
0.0492583
7.89043
7.61728
7.63046
7.61967
0.0199867
7.04855
-1.04067
7.86825
7.55762
0.00855766
0.00285342
7.87
-0.00560948
7.86953
7.87288
7.92303
-0.00280217
0.0115129
6.98446
7.81975
7.61966
7.62007
-0.0588765
0.021313
6.80297
0.00645819
-0.404098
7.62469
0.0140129
-0.0118022
0.0831237
7.61627
7.61798
0.0243696
0.0319549
6.91882
7.62236
7.60723
0.0176382
7.87583
7.86974
7.61965
0.0104617
0.0236866
7.61649
8.47972
8.21304
0.149106
7.62396
7.61569
-0.0177746
-0.0681087
6.90294
5.94938
1.14061
-0.00653947
0.0024412
7.59415
-0.0164883
0.00135645
7.61732
7.92043
7.61637
7.61879
7.62265
7.61585
0.0275882
7.87072
7.61711
7.67584
0.0184366
0.0168791
7.87732
7.93369
-0.0192461
0.0262262
0.0354965
7.86903
7.61774
0.0262727
7.87345
-0.00371269
0.0201535
0.042529
7.84991
7.87177
7.87162
7.61922
0.0388705
7.61776
7.61681
-0.027106
7.87172
0.0361383
0.0115301
7.63975
0.0357052
7.84152
0.0258595
-0.000770614
-0.0192412
-0.0120321
-1.27472
7.23186
0.0237996
-0.0136326
0.000975638
7.78896
-2.1067
7.14763
0.0239571
7.62197
-0.0228347
-0.00823056
-0.026214
8.07896
7.87181
7.87383
0.0298475
7.30885
-0.0257637
7.4462
0.0282561
0.0343619
0.0102445
0.024972
7.6155
7.64254
7.74745
0.0277469
7.61894
7.22995
-0.149663
7.62121
7.6281
7.87327
7.61686
0.0108278
7.60502
7.61898
-1.56782
7.29126
7.64071
7.06687
7.61894
-0.0313807
0.0141712
7.87094
0.0200498
1.01321
-0.031121
-0.377088
0.024852
7.62432
-0.00479839
-0.0236286
-0.0302033
7.87308
-2.62995
0.010889
6.47146
-0.00332318
-0.109434
-0.0946827
0.00651788
0.0274057
-0.131923
0.0387917
0.0283418
7.59776
7.63268
0.0116589
8.68159e-05
7.62323
0.0142495
0.010167
0.022643
7.61441
-0.112922
7.61776
0.0202806
0.0141733
7.61632
-0.0659097
0.0279564
-0.15103
-0.0216264
7.57284
0.0184115
-0.145264
-0.0671035
-0.148705
-0.0333138
7.60832
7.62837
-0.017268
7.61683
0.0330612
-0.0713184
6.72166
-0.464799
-0.818273
-0.295773
7.61677
6.38352
0.027131
7.87342
9.46097
-0.0407211
7.61143
7.61527
-0.717002
-0.855001
7.61695
-0.114648
7.61879
7.61745
7.87514
7.87029
7.95469
7.87252
-0.019323
7.62049
7.62208
7.6286
-1.43399
0.0207472
0.00445019
0.0281133
7.6306
7.61517
-0.0425285
7.61822
7.61904
5.81486
-0.047641
0.026756
7.61647
7.61119
7.62767
7.61543
7.5644
7.61437
-0.0659668
7.62076
-0.195138
0.0163676
7.6197
7.88217
7.93036
-0.116693
7.92253
7.87317
7.6353
-0.204198
7.61681
-0.0589073
-0.0628002
-0.172536
7.61407
5.29241
-0.0343442
0.0109986
7.66325
-0.191253
-0.00886406
7.88129
7.59175
6.89891
7.61195
0.0256351
0.0165879
-0.0582604
-0.340645
7.61722
0.0283847
7.57075
6.82945
6.85581
7.62197
0.0231116
7.61823
7.94094
-0.0581446
0.0316302
7.93805
0.00482362
7.31575
-0.0772544
7.98063
7.61815
7.59019
7.87205
0.0261079
0.024707
0.365448
7.61823
7.66684
0.0162289
7.61711
7.07363
7.87132
0.00108604
-0.328632
0.0489683
7.86269
-0.0653403
-0.053302
8.24406
-0.0529585
7.62451
-0.0341826
-0.0200022
0.0139333
-0.0800165
-0.172218
7.61758
7.6188
7.61842
-0.0650758
7.68966
-0.101872
7.87528
0.741404
7.87183
0.0227282
0.0243989
7.94259
7.61645
7.95993
7.62852
-0.103589
7.96804
6.90695
0.00565581
-0.0967339
7.91392
7.03877
7.70646
7.05951
7.61757
7.61736
-0.0951982
0.01206
7.87251
7.86567
-0.620684
7.87777
-0.0949387
0.0242061
7.70041
-0.0279987
7.87198
0.0183054
7.62554
0.0197227
7.61614
-0.576249
-0.300047
-0.138753
-0.0334559
-0.0378785
4.69024
7.54602
-0.0245094
7.91701
0.0170749
7.87053
7.6479
7.62315
7.6293
7.65334
7.62323
-0.0481642
-0.0595792
7.87224
6.65344
7.87844
-0.0469336
-0.115658
7.86851
0.0285532
-0.141677
7.93078
0.0274158
0.0269134
0.0197396
-0.138349
7.6171
7.61689
7.64694
7.61722
0.0229302
7.54823
-0.027986
7.61772
-0.0384493
0.0241039
7.62109
-0.0459996
7.60951
7.61678
-0.0389926
-0.0759802
2.13953
7.6184
7.95413
7.60926
0.0254278
7.50806
7.9225
7.52591
0.873321
6.72813
-0.520289
7.0305
7.48939
7.76851
0.0202445
0.00662244
0.0168952
0.0230318
7.85756
-0.021833
7.62036
7.62159
0.0175338
7.59325
-0.634965
-0.0344908
0.0330002
-0.0393562
-0.954396
0.00188539
7.6206
-1.40952
-2.96669
-0.0030872
-0.028833
0.0230214
5.50989
7.86715
0.00555966
7.87612
7.61506
-0.234912
0.00363162
-1.08969
7.60226
7.44643
-0.0673148
7.93043
7.61747
-0.0452991
7.94928
7.9382
0.114633
-0.0451524
-0.0858725
0.0503266
0.0279755
7.62044
7.61715
-0.266767
0.0285947
7.61787
7.94348
0.0377491
7.62816
6.61049
6.76282
6.79942
4.36587
6.6277
7.61942
0.0250388
7.60403
-0.0714808
7.61758
3.43527
7.67539
7.64083
7.62099
7.61774
0.033442
7.61753
7.61722
6.91981
7.6129
7.62161
7.61469
0.02719
7.63489
0.02318
-0.075837
7.6432
0.0463852
7.61739
-0.0215162
-0.200377
0.0182091
0.0269455
7.84596
0.0238704
0.0292481
-0.142627
7.87451
-0.100544
0.0272932
0.0268094
7.33156
0.0183038
7.68782
7.61932
7.61963
7.61647
0.0239703
7.61865
7.60681
0.0205249
-0.127833
0.00869109
7.63051
5.43247
0.0351106
7.62355
-0.359461
7.92762
0.0135129
7.61333
7.61593
-0.000642196
7.61359
-0.0128794
7.87493
7.61715
0.029764
-0.0320243
0.0258619
0.0229677
-0.126039
0.0208489
7.61751
8.02095
0.0180256
0.0308284
0.0330474
-0.0867718
7.61702
0.0244275
7.61681
7.7986
0.00863897
-0.0632035
7.62886
0.0249637
7.60684
0.0205214
0.0325261
7.71225
7.61633
7.61933
0.0171177
7.62001
7.61847
0.0205283
0.0207534
-0.0356885
0.0232838
7.63848
7.63019
0.0157031
0.0330438
7.62228
0.015399
7.70441
0.0114268
7.61745
7.61702
-0.00308137
7.61656
-0.0177383
0.0347245
7.62284
7.61571
0.00807167
6.47582
0.0359916
7.87139
-0.0530798
7.88184
6.67936
6.45609
0.0315502
6.9669
6.89053
0.0149265
6.85007
4.26136
6.3357
7.67788
7.87712
-0.170664
0.0296475
7.65828
7.61673
0.00608455
0.0175772
7.62716
0.0181171
7.61549
7.88216
0.00940633
-0.00059452
0.125802
7.61627
7.61973
7.61843
7.61693
7.61115
7.61435
7.61181
7.61174
7.61559
7.61473
7.61745
7.87844
7.6206
7.61556
7.61795
7.78867
7.61605
7.61642
7.61716
7.64542
7.81713
0.0241608
7.6191
7.61636
7.63032
0.0303424
7.6227
7.88215
2.95242
7.60548
7.51306
0.0217391
8.24566
7.56882
3.48579
0.0174523
7.6183
6.7617
7.26002
7.61532
-0.0229692
0.0186623
0.0175928
0.00719741
0.034091
7.90211
7.61024
0.0200281
0.026318
0.00610699
7.6145
0.0250341
-0.00902178
0.0299941
0.022196
0.0232263
0.0071092
0.0268845
0.0188518
7.88577
0.0256617
0.0292192
0.0178988
0.022104
7.61756
7.6169
7.61773
7.87207
7.61514
0.0281624
0.0277906
7.62059
7.61556
7.61603
7.82182
7.61789
7.87402
7.62232
7.87864
0.031689
-0.218374
0.0284622
0.03599
7.59201
7.63233
-0.0270379
-0.255036
7.61641
7.61757
0.0133517
7.88449
7.61746
0.0675883
0.00145724
0.0184728
0.0366437
-0.0234161
7.89846
0.0144181
0.0246118
6.90863
7.87587
0.0146515
7.89526
7.62921
2.3881
1.28065
-0.00461463
7.76902
7.84909
-0.0361555
0.0254747
0.0328836
0.0272937
3.3962
7.87166
-0.0112445
8.23542
7.8733
7.56249
0.00309139
7.6174
0.0298538
0.0106277
0.0157349
0.0168173
7.87912
0.0386514
7.87501
7.45739
7.87311
7.86539
0.0226147
4.49268
7.61718
7.87246
8.35832
0.0291929
6.8585
0.0134177
0.0229183
0.0221773
0.0255038
7.8272
7.86782
6.63205
0.0178493
0.0286127
-0.914036
7.91992
7.87139
6.82424
-0.0172137
-0.0202939
7.61578
-0.0314685
2.49573
0.0185675
0.0220453
7.87194
6.64343
0.014221
0.0278356
7.61894
0.0111026
0.00999028
0.00190142
-0.00227846
0.022548
0.0400666
6.91148
0.0320332
0.0269622
0.0308719
7.96702
0.0208893
6.99793
0.0379493
0.0228852
7.8736
0.0216014
0.0183664
0.0140134
0.0281005
8.74042
2.082
-0.0453864
4.28223
0.0203003
7.64766
0.0228467
0.0201447
7.87976
7.61736
-0.360872
-0.107992
0.0232779
8.73024
0.011655
-0.198971
-1.1584
-0.0760672
7.88051
7.89177
0.0259517
8.34511
0.0269542
-0.210301
0.0196271
0.0335623
7.87204
0.00426492
0.0273007
7.87121
6.93355
0.0375127
7.88661
0.0295452
0.0337828
7.87276
8.7875
0.025807
7.87219
7.61595
7.61918
0.0298805
0.043964
0.0177038
7.9259
0.0148191
0.0297243
7.67659
0.0326762
0.0206584
0.0251772
-0.122177
7.61721
0.0212233
0.0543083
0.0324304
0.0209338
0.0272963
-0.15103
0.0341516
7.87115
-0.0494
0.0231655
7.8716
0.027922
7.62498
7.61869
7.87459
7.62919
7.87376
0.00774722
7.6195
0.0280688
-0.0129419
7.87526
0.019465
7.80768
0.0180847
7.87871
-0.15961
7.65309
0.0118703
0.00922265
-0.179747
0.0431865
0.0244722
0.0226076
0.0294311
0.0412538
2.76831
0.0352388
0.00850025
0.0439891
7.87264
0.0435433
-0.113561
0.0390126
0.0180672
-0.159394
7.87485
6.77239
7.8764
0.0182713
7.87137
6.16895
0.0255663
8.38874
0.0145396
7.86367
7.83995
7.61722
0.0208965
0.0491209
0.0242803
-0.0382421
0.0254295
0.0262877
0.0350526
0.0123456
0.0163556
0.0331623
0.0236686
7.88352
7.57242
7.8653
0.0211344
0.0314535
7.65301
7.61712
6.30601
0.0477239
0.0193802
7.87186
0.0256751
7.86934
-0.425519
0.0221516
-0.0601469
7.87283
7.87098
0.0138453
7.87164
-0.00209668
0.03129
7.45796
0.0238652
0.0202748
0.0278158
7.87145
-0.104084
6.9847
-0.0208182
0.0147065
7.87437
7.88368
0.0281672
5.53042
7.90355
0.0365208
0.0320746
7.87191
7.85481
6.94074
0.0159137
6.28606
0.019322
-0.0285632
0.00418966
7.87132
7.0353
-0.029849
7.87009
7.62416
7.87348
7.87526
7.1472
7.72537
7.57212
7.87268
7.88938
7.30101
8.39769
7.64088
0.00743774
7.65037
6.75559
6.39179
8.90546
6.89661
7.87145
-0.0279649
7.38977
7.70989
-0.0277344
8.20839
8.57249
7.77459
-0.0373947
8.3668
-0.0264184
-0.0786517
0.0172398
7.16917
7.87485
-0.0181352
-0.449049
7.83541
7.86488
0.0241315
7.08964
0.0239187
7.01407
7.60045
7.73121
0.0226396
0.0261176
7.87017
0.00988114
7.90065
7.38898
-0.180506
0.0451807
-0.0258709
7.61567
0.0253282
7.23076
-0.0184724
7.61801
7.87176
7.61622
6.98837
0.0429707
0.03392
7.87367
-0.761951
7.88126
7.89431
7.88094
7.87296
-0.0198982
-0.0342632
0.0354314
-0.0104013
7.83232
0.01582
0.0163373
0.0384557
-0.0258764
7.66831
0.0293378
0.00527085
-0.000951344
-0.422439
0.0260163
7.92352
-0.00959651
-0.0186099
0.026236
-0.0181134
-0.0412979
7.9023
-0.0341805
7.77847
7.87566
0.02372
7.879
0.0303656
7.86913
7.93855
7.55493
7.87919
7.87276
-0.0416077
7.87786
-0.00718672
7.19969
7.62225
0.0265935
0.00249465
0.03254
-0.0115058
7.8896
0.707044
7.87379
-0.0150127
7.93972
0.0199488
-0.0247829
-0.011206
0.000507866
7.97024
7.97719
7.87972
0.0303911
7.63319
7.86541
0.0259959
7.60837
7.61564
0.00673783
7.96992
0.0120009
-0.429237
7.15027
7.49975
7.4384
0.0138074
0.016623
7.87207
0.00746094
-0.00687986
6.99196
-0.0147736
7.87003
0.0224889
0.0274948
0.0409715
7.87423
0.0160655
0.0229018
-0.0221263
0.00232871
0.0126088
7.87351
7.87179
-0.0977555
7.86767
7.61483
7.86969
0.0159753
-0.0119062
0.0213175
-0.0323234
6.87108
0.000723481
0.019544
0.0158745
-0.0558527
0.0230571
-0.0132045
0.0177577
7.61688
7.61726
7.61703
0.0372267
7.61902
-0.0279202
5.24912
0.00788153
-0.550846
0.00979986
0.0143786
7.61531
7.87243
0.00884839
0.00806017
7.8865
7.61122
7.8732
0.0130525
0.0104575
0.00724053
0.013168
0.0299712
0.017991
7.87289
7.87278
7.87126
0.0401548
0.00912268
0.00256135
0.019615
0.035103
0.0091015
7.84861
7.87147
6.34326
7.6597
0.0249189
0.0316674
7.86708
7.90576
7.87048
7.87488
7.83584
7.71666
-0.00124427
7.87417
-0.0433016
-0.108534
7.62362
0.00413313
0.0272904
0.0236882
7.9172
7.76279
-0.00048789
7.87221
-0.00198561
-1.19868
0.0213386
7.66688
5.95606
7.61659
7.87637
7.86805
7.6048
2.11362
7.8859
0.0135761
-0.000724423
7.87459
7.87205
-0.00411296
7.87841
7.6187
0.0158204
-0.19537
7.8615
7.86203
7.6733
0.0429376
7.87174
7.87148
1.17246
-0.0192298
-0.00513783
7.87179
7.62298
7.20724
-0.00962982
-0.00486346
-0.0071083
0.0100037
7.61689
0.0550006
0.01288
-0.000489417
7.56318
7.86864
7.87131
7.82453
7.87192
0.0269975
0.0233725
0.00320286
7.88919
7.87195
7.87152
7.86903
7.68985
-0.0328375
0.10982
0.0184413
7.62008
7.87235
7.92614
-0.996509
-0.035887
-0.0629143
7.61634
-1.93949
8.25624
7.83869
7.8708
0.0259272
0.0376981
7.87451
7.90664
0.0158764
7.87284
0.016072
0.0323138
2.74093
7.87032
7.66599
0.0252908
-0.0542982
7.91068
2.55183
0.0543624
0.0360202
7.8735
7.87637
7.88158
7.88056
0.0264683
0.0279829
7.87667
-0.0439763
-0.00817121
0.212847
7.87228
7.87154
7.87298
7.87696
0.0130731
8.38286
7.8735
7.76776
0.0253302
-0.00354361
0.0305972
7.84527
7.87142
-0.0143172
7.62494
7.87227
7.87455
7.87371
0.0237532
7.69567
7.60174
7.61932
0.021204
0.0296111
7.86895
7.87358
7.85529
0.0189691
8.15096
7.87785
7.8573
7.87362
7.87314
-0.192005
0.0273627
7.91388
0.0239323
0.0196178
0.0238421
7.87782
7.87436
7.87357
7.83315
7.61661
0.036446
7.87319
7.37988
7.33674
-0.0115021
7.6528
-0.0193999
7.87168
7.62049
-0.0148575
0.300008
7.0363
-0.000177643
7.87455
-0.00454352
8.12712
7.89124
7.92224
9.10514
7.87966
-0.0308354
7.87026
0.0133324
7.62029
6.93754
7.87887
7.8676
0.016465
0.039065
7.61683
2.65054
7.616
-0.0695617
-0.0338018
0.0215446
7.62066
-0.342904
-0.0184762
-0.0429201
0.0274156
-0.615689
-0.0246014
7.59688
7.61674
-0.739246
0.0238053
0.00298276
7.90941
7.51866
6.37504
3.26024
7.87374
7.62161
7.87407
7.87443
7.87516
8.30233
0.040031
-0.0666249
0.032666
6.96854
-0.0855
7.87366
0.0145017
7.87118
7.87992
7.61838
7.71249
-0.0987721
7.69283
7.61266
7.87196
0.0204146
7.87049
7.8718
-0.0490916
7.83093
5.75408
4.9301
4.59105
7.87596
4.81118
4.65122
4.76102
5.46273
7.61654
7.61688
0.0145193
-0.00831088
6.9612
7.14002
7.61277
0.00969269
8.19039
7.71589
-0.0946594
7.87458
7.87222
-0.0314944
-0.0816737
7.83749
7.61778
-0.0239973
7.03321
7.60937
-0.395623
0.0110908
0.0556667
7.81192
0.0261559
7.87406
0.0181059
-0.387209
0.0206175
7.87245
-0.381392
0.0253148
7.96681
-1.03269
7.86435
0.0239714
7.53102
0.0309959
7.8042
-0.0417404
7.87356
7.57644
7.61948
-1.45662
-1.46395
7.88509
0.0136709
0.0186203
7.91846
7.8721
-0.00209629
0.0180899
-0.115854
7.8796
0.0193336
0.0136273
-0.0407727
-0.843645
7.87531
-0.163291
7.62555
-0.143158
7.87123
-1.72222
-1.99801
7.85283
0.0247338
7.67894
-0.03805
7.61605
7.85699
7.88535
7.88987
7.85076
7.85846
0.00314005
0.0317333
-0.14713
7.88186
6.34908
-0.135176
7.88015
7.82855
7.90546
7.86597
7.90386
0.0229666
7.87255
7.87378
7.61658
0.0160278
7.85791
7.61746
7.5411
0.0372522
7.6181
0.00924682
-0.776968
-0.0467934
0.0348703
-0.0146507
8.22067
7.87752
7.87091
0.070084
0.0319242
7.54639
6.31121
0.011052
7.87203
7.87492
-0.125121
7.86338
0.0201514
7.87469
-0.0118018
-0.0487077
7.88086
7.61615
7.87425
7.87435
7.86974
-0.0180998
7.87092
0.012274
7.94328
7.8749
0.0257071
7.61203
0.0122116
7.77474
7.87172
-0.00678011
0.0338893
-0.110549
7.87337
7.87375
7.87243
0.0324345
-0.0793126
7.95078
7.61629
7.64259
0.0147018
7.8659
0.0188933
-0.126168
7.87159
7.86815
0.023499
7.86591
7.64527
7.61824
7.959
7.61855
-0.144107
6.21913
7.64143
7.87271
6.38157
7.8678
6.60298
7.84695
7.86703
7.73212
0.020775
7.79171
0.012717
7.86094
7.86708
-0.0472479
0.00702181
7.86241
7.82854
7.87423
0.027944
6.70474
7.87375
7.73317
7.87042
0.0205626
7.86367
-0.171719
7.87359
-0.00463003
6.91945
-0.0200228
7.88918
7.86977
0.0104636
6.54744
7.87973
0.0300502
-0.00289025
7.89191
7.87443
-0.0122962
-0.0466429
0.021895
0.0183919
0.00855754
-0.00158381
0.0236791
-0.0321305
7.94831
-0.181554
6.26156
6.1472
7.87327
7.87114
7.87014
0.0367784
7.87413
7.8672
7.87434
-0.11406
-0.0354844
5.95322
-0.0322845
7.87513
-0.00952518
7.6145
-0.0524486
0.0242795
6.33518
0.00763406
7.86614
7.84589
7.61758
0.0431079
-0.00639732
7.87259
7.61809
0.0336809
7.87317
-0.123622
7.91406
-0.0739723
7.87146
7.61808
7.85201
7.61691
0.0263811
7.61713
0.283319
7.6204
-2.16304e-05
7.87243
7.86882
4.31784
3.99324
7.89067
7.86924
7.87186
7.87242
-0.00195155
-0.134181
5.21687
7.87621
0.0057279
7.61527
7.62796
-0.418386
0.0159786
-0.0598452
7.61821
0.0267528
-0.0152283
0.0281667
0.0193233
7.87206
7.87469
7.87891
7.87534
7.61803
7.61686
7.61759
7.84045
7.61854
7.61779
7.87172
7.61747
-0.0998913
7.61681
7.87247
8.61773
7.87371
7.87276
2.71198
7.61669
7.87164
-0.00100871
-0.082272
7.84867
7.85092
7.87236
0.0219874
7.65318
7.85974
-0.100108
7.61886
7.8731
7.86807
7.87575
-0.0395462
7.6171
-0.165246
7.87598
7.85664
7.87124
7.87201
7.86983
-0.0931261
-0.136452
0.0232416
7.87395
7.64009
7.90865
-0.115018
7.87215
-0.13621
-0.0688982
7.61573
7.84573
5.94356
-0.39652
7.85531
7.01939
-0.383788
6.02137
-0.00512232
7.65067
-0.0324398
5.98851
5.61473
7.87151
0.00448559
7.61884
-0.0082309
-0.046505
7.8812
0.00376129
-0.274882
7.86967
-0.0605731
7.6192
7.85651
7.86538
7.85241
7.8675
7.61533
7.8722
7.87131
-0.144437
7.10942
7.87229
7.86945
7.87102
7.87509
0.0226908
4.04548
-0.123292
-0.294956
7.87134
0.0189882
0.00823423
7.87221
6.99688
7.79143
7.8622
7.89934
7.96165
6.43572
7.16811
-0.0282159
7.87398
7.8772
6.10059
6.6398
7.61683
-0.0016265
7.88045
7.63062
7.87375
-0.071137
7.87575
7.61661
-0.0101491
7.61774
7.57943
7.76692
7.91946
-0.0101414
7.87331
7.87177
7.8717
7.84616
-0.00861373
-0.0573439
-0.0482698
0.00216484
-0.0234864
-0.0319955
7.61848
6.54598
-0.153344
-0.0257035
6.53621
-0.142443
7.86776
-1.07651
7.63857
-0.0806447
7.87431
7.62129
-0.0242801
-1.38797
7.87689
-0.0259761
7.87556
7.87554
-0.0870077
-0.0488583
7.87184
7.61726
7.91724
7.6169
7.86921
6.86045
7.87312
7.87121
-0.026282
7.87266
7.86786
7.8708
-0.0171694
7.88405
6.90237
7.61782
7.61693
7.30225
6.92441
-0.0187133
7.62065
6.93305
0.00898019
7.86564
-0.0355635
-0.0185349
7.87413
0.00419956
7.87071
7.45795
7.9342
6.78766
7.62057
7.85078
7.86471
7.87519
0.024318
7.87422
7.87259
7.87086
7.7372
7.87164
7.78769
-0.107727
7.87167
7.87656
-0.062054
7.87274
7.61798
7.61826
0.0358469
7.87417
-0.154525
6.70645
-0.372344
0.0161296
7.61412
6.54102
0.0116264
6.27076
7.61816
-0.188249
-0.370363
-0.00265046
-0.0496945
-0.249287
-1.15844
7.64286
7.62189
0.0130281
-0.0940285
-0.0757069
0.0211402
-0.387772
7.61648
0.0204364
0.00325307
0.00963908
7.62163
0.012248
0.0229526
0.0257385
0.00862502
-0.114626
0.0198567
0.0431203
-0.000115748
0.0109022
0.0283905
0.0151292
6.916
0.0910658
0.00616571
0.00327089
-0.0186911
0.0237269
0.01678
0.015767
7.07675
-0.105811
7.0254
0.0373323
0.0152783
-0.0438651
0.00606387
7.01409
7.61543
0.0167312
0.0184093
-0.1187
-0.0556303
0.0261687
0.00387612
4.8307
0.013494
7.87167
0.0100939
-0.104391
-0.0410937
0.0329963
-0.131888
-0.167585
0.0031374
0.0100722
0.000853949
0.0343744
0.0063063
0.123493
6.1423
5.39755
0.00646793
7.87613
7.87235
0.00559366
0.0261876
0.0236257
7.87339
-0.0655636
-0.0486463
0.0212352
5.58756
7.87115
-0.190882
0.00735089
-0.110254
7.87486
0.0299115
7.87154
0.0113538
0.000303208
-0.0394061
-0.0387735
7.87193
7.87364
-0.0302671
0.0167411
0.0315961
7.86508
0.0115964
0.0317814
-0.0206444
7.62541
0.0287409
0.0492304
7.00743
0.0252047
-1.49247
-0.0980854
7.5845
-0.0550524
-0.0919506
7.87157
0.00860165
0.0182633
1.39832
-0.00820185
0.0139696
0.0238656
0.0262903
-0.0284828
-0.0227691
-0.213974
-0.10235
0.0376975
0.023076
-0.00982993
-0.167607
0.0242521
-0.0144743
0.0621231
0.0191183
-0.15095
0.0412117
7.87164
0.00283916
-0.00724103
-0.0976795
0.0391944
-0.0334258
7.64361
0.000561866
0.0267901
7.86705
-0.0673714
-0.0161558
0.000514963
0.00797086
0.0231899
-0.0453713
0.0176196
-0.011713
-0.0461882
7.87123
7.87189
-0.0422938
7.62268
-0.0388661
0.00268144
7.7058
0.0230745
-0.0143762
0.0437911
7.8709
0.0287017
0.0143401
-0.0556807
-0.134936
0.0238381
0.0458882
0.0119724
-0.00361479
7.87184
7.85507
-0.0879127
-0.0263063
-0.051592
0.0247595
7.85476
-0.0263477
0.0210803
7.70631
0.00443418
0.0154804
-0.0831772
-0.215271
-0.0238694
-0.0332796
0.039476
-0.00107328
7.62764
0.00905047
0.00606441
0.00547278
-0.19317
7.85597
-0.0149563
8.01277
7.87267
0.0157493
-0.00697202
0.00852059
0.13401
-0.110343
1.4934
7.61985
-0.0259036
0.0311515
0.0690767
0.0124677
7.87927
7.62048
7.60997
0.00129044
0.00616116
-0.220139
0.0275357
7.62685
7.85927
-0.00632812
0.00859071
-0.0360692
0.0167416
0.0116755
0.0337503
-0.0415627
4.37771
7.61639
0.000702947
0.0235781
7.85875
0.00107004
0.0292847
-0.0646108
0.0162563
0.0140468
-0.0350346
7.85891
0.0297422
0.0105736
7.62102
7.64329
0.029035
0.079733
0.0165634
0.0215761
0.0225561
0.0174967
0.0342921
0.0323916
0.0277991
0.0145614
7.85475
7.84719
0.00993189
0.0315748
0.0217156
-0.0899466
0.0251156
0.00101903
0.00374322
0.0271913
0.0214562
7.61971
7.62861
-0.104495
7.85349
6.86249
0.0175711
0.0225157
0.00509879
-0.086845
7.1659
-0.0278281
-0.0711245
7.29692
-0.0927448
-0.200054
0.0245065
0.026734
0.0202847
0.031888
-0.13633
0.0214147
7.8722
7.23982
-0.0721564
0.028506
0.00834435
0.0275434
-0.101127
-0.0262978
-0.101837
7.2659
0.0298053
0.0538028
0.0180221
-0.113834
-0.0301509
-0.0869432
-0.194727
0.0076962
0.0234259
7.15737
0.00224592
0.0312488
2.79452
6.79243
6.24109
0.0418082
6.637
0.0139229
0.0271292
0.0109097
0.0275102
-0.100513
5.04736
3.04906
8.06309
6.73121
-0.0403196
7.61679
7.61651
-1.27669
7.86982
0.0309887
0.0151465
0.0265197
0.0253102
0.0260396
0.0104333
6.27223
0.0255134
0.025986
-0.0242985
0.0194357
0.0376741
0.0178831
7.61701
-0.195949
0.0325561
-0.0907711
7.61695
-0.00285241
-0.000950174
7.61685
7.86411
-0.0734317
0.021799
7.90767
0.0177009
0.0178346
-0.0768404
7.87287
7.61682
0.0209129
-0.200348
0.0275661
7.61699
7.60297
7.61695
0.00423061
2.55632
2.32645
-0.000634554
-0.360699
7.88063
0.0282256
-0.33794
0.0224022
0.0240923
0.00760485
0.0200154
-0.491682
0.0288354
7.66816
0.012592
0.0409644
0.018123
0.0236927
0.0148325
0.0358637
0.0181898
0.0105709
0.0304912
-0.0554616
-0.376334
0.0163903
-0.0777933
-0.124317
-0.447709
0.0103054
-0.361318
0.020225
0.0304023
0.0245603
0.0405643
-0.0465026
0.0361034
-0.367079
0.024251
7.47333
0.0148308
3.81734
0.0169293
-0.00146666
7.62172
-0.0103818
7.4728
0.000909707
7.50085
7.90399
0.0469432
-0.0196917
6.84955
0.0253323
0.0239777
-0.0176398
7.86008
7.87345
0.0219544
0.00269787
-0.172933
0.0192647
0.0333949
-0.0184284
-0.0562857
-0.00256853
-0.0112159
6.50923
0.0141947
7.61668
7.81007
0.0335498
0.0313507
-0.0879137
0.0325332
0.0333669
-0.00356049
-0.0148877
7.78124
-0.103544
0.0235964
-0.00676424
7.79354
7.87945
0.0143205
0.00366223
6.16145
-0.0351869
0.0291726
0.00590952
-0.134957
0.0339177
0.0263746
7.86345
4.57728
0.0247141
-0.0664269
7.68569
0.0425815
-0.0414599
-0.00735274
-0.109566
0.0195949
-0.139779
0.0140059
-0.0317177
4.83768
-0.0412668
7.87333
0.00490227
-0.014478
0.03239
0.00976962
6.57648
0.0146136
-0.0725278
-0.00790162
-0.101765
7.42415
7.61702
0.0321879
-0.0651659
0.00192924
0.00910459
-0.0354587
0.0232749
-0.00206258
0.0123962
0.0419963
0.026738
-0.0431991
7.03541
-0.126097
-0.016889
-0.000732323
-0.0330305
7.23071
7.61621
-2.37513
-0.107441
8.15648
-0.133442
-0.0179972
7.37039
5.00185
5.4602
-0.0381264
0.0265267
0.183896
5.84266
-0.0703944
0.0341602
7.61641
0.227221
6.8879
-0.00792674
0.0237866
7.65102
-0.0280682
-0.0192906
-0.0231403
0.0286695
7.61617
-0.259626
-0.0338336
-0.0691032
-0.0136008
-0.0128942
-0.0351022
-0.00341374
-0.167319
-0.0165385
0.0226917
0.0259595
7.87206
6.44954
6.55786
7.72683
-0.0257094
0.0288199
0.034043
-0.0572115
0.0225089
0.0324285
-0.00125288
-0.0140681
-0.0105551
0.0255925
-0.00772732
-0.0789352
0.00841452
0.0273143
7.87249
-0.0356773
-0.0543225
-0.0111752
-0.0038376
7.60995
0.00484395
0.00726159
0.0404418
0.00751839
0.0169088
7.63534
0.027354
0.0162449
6.87853
0.0283588
-0.00318352
7.7208
0.00264234
7.7125
7.61627
0.00611495
-0.0556549
-0.000497754
0.0184623
7.61921
0.0352485
-0.0324156
7.62061
0.0330689
0.016373
0.0217991
-0.00689413
7.75215
-0.0264284
-0.0214294
0.0161205
7.69819
0.0495399
0.0213156
0.00332713
0.0298196
0.0159139
7.90076
7.45678
7.06224
0.0269184
7.19722
0.0315935
0.0180452
0.0256363
7.8378
0.0221482
7.65847
7.87309
7.81121
0.0259628
-0.0125667
-0.200172
0.00821952
0.0373529
7.5171
6.88475
-0.0336669
-0.0388109
0.0388369
-0.157886
0.0273591
-0.392611
7.8753
5.73899
5.85221
7.61562
5.92821
0.0182188
7.87204
0.040354
-0.00347906
0.030396