/*--------------------------------*- C++ -*----------------------------------*\
  =========                 |
  \\      /  F ield         | OpenFOAM: The Open Source CFD Toolbox
   \\    /   O peration     | Website:  https://openfoam.org
    \\  /    A nd           | Version:  10
     \\/     M anipulation  |
\*---------------------------------------------------------------------------*/
FoamFile
{
    format      ascii;
    class       volVectorField;
    location    "19";
    object      U;
}
// * * * * * * * * * * * * * * * * * * * * * * * * * * * * * * * * * * * * * //

dimensions      [0 1 -1 0 0 0 0];

internalField   nonuniform List<vector> 
111485
(
(1.45918 -1.45903 0.000364134)
(4.28166 -0.0101769 -0.0257408)
(4.2146 0.0111009 0.0127263)
(1.4586 -1.45886 0.000132444)
(4.37817 0.0207311 0.000267726)
(1.54074 1.53959 -0.000168999)
(4.30075 0.0129861 0.00121167)
(4.43107 -0.013182 0.00537605)
(4.29799 -0.00212125 0.00353008)
(4.41281 -0.0483463 -0.0195776)
(4.23827 0.0102039 0.0127465)
(4.43418 -0.0119851 0.0205762)
(4.17482 0.00392426 0.00949897)
(4.23679 -0.00902729 -0.0296615)
(4.27704 0.0172859 0.00865078)
(4.38085 -0.0300237 -0.0229778)
(4.31778 -0.0051126 0.00708635)
(1.51254 -0.0985621 0.217427)
(4.38462 0.0134055 -0.0094843)
(1.45544 -1.4538 6.05683e-05)
(1.45711 -1.45673 -0.00137507)
(1.54217 1.54188 -0.000234913)
(4.33827 0.0164056 -0.00386378)
(4.42004 -0.0291015 -0.0099929)
(4.33724 0.0131972 -0.00304663)
(1.46904 -1.46355 -0.00217468)
(4.45201 -0.0215213 0.0215417)
(4.22038 -0.00803299 0.00170497)
(4.40079 0.00646404 -0.011316)
(1.45696 -1.45691 -7.5131e-05)
(4.44533 0.0687876 -0.0175959)
(4.39507 -0.00993282 0.00127836)
(1.45205 -1.45465 0.00202383)
(1.54153 1.54497 -0.00356435)
(1.54539 0.652712 0.244193)
(1.55134 1.56198 -0.0225989)
(4.42273 0.0687281 -0.0271774)
(4.28599 0.00990822 0.0394115)
(4.40193 1.33224 0.0737197)
(4.39248 0.0210576 0.00118921)
(1.5241 1.53812 -0.0108583)
(4.43182 0.00700233 -0.0273584)
(4.39227 0.0217174 0.00739124)
(4.2213 -0.0256573 0.00182634)
(4.41795 -0.0751196 -0.0385116)
(1.45975 -1.44787 0.00534387)
(4.42773 -0.0187496 0.018028)
(4.41329 -0.0277538 -0.00906147)
(4.43414 0.000676792 -0.0226473)
(1.44881 -1.42995 0.00795402)
(1.44558 -1.43217 0.00834847)
(1.7508 1.47394 0.0264755)
(1.44059 -1.43571 0.00481889)
(4.42401 0.0203971 -0.0355985)
(1.4373 -1.43203 0.000811345)
(4.37313 0.0116722 -0.00499294)
(4.37941 -0.0193085 -0.0105045)
(1.54349 1.54045 0.000969302)
(3.99656 -0.00802294 -0.0700009)
(4.39832 0.0182967 -0.00255832)
(4.39654 0.0202189 -0.000843859)
(1.45421 -1.45735 0.0021546)
(4.09568 0.00413504 0.026692)
(4.44735 -0.0118402 0.0343324)
(1.59577 1.44757 0.0038193)
(4.01154 0.00921186 -0.00871601)
(3.08646 -0.238811 0.105106)
(4.40992 -0.0158604 0.0060292)
(3.98393 0.00170269 0.0151547)
(3.77004 -0.00571045 0.003157)
(4.24969 0.0355449 -0.0132582)
(3.94261 -0.0106711 0.0214772)
(1.57918 -1.42286 -0.0316329)
(4.04952 0.00648267 0.0313746)
(1.45853 -1.45773 -0.000141794)
(4.3939 -0.0101655 0.00801323)
(1.54194 1.54232 4.44088e-05)
(4.42357 -0.00907639 0.0229316)
(1.54174 1.54065 6.73103e-05)
(1.39738 1.36611 -0.0447626)
(4.27327 -0.0643995 0.0432831)
(4.42282 0.0153831 0.00152824)
(1.53944 1.53689 -0.000120051)
(1.45853 -1.45824 0.00075687)
(4.1493 -0.000353601 0.00931818)
(3.97865 0.0110905 -0.0176382)
(3.42272 2.2243 -0.594369)
(4.36959 0.0532608 0.0044625)
(4.21028 0.106432 0.0908401)
(4.2728 0.00637727 0.0144721)
(4.50728 0.0884132 -0.0561041)
(4.37602 -0.00762555 0.00691383)
(4.09911 -0.00666766 0.0145475)
(4.1811 -0.0048418 0.00508625)
(4.43438 0.0144799 -0.0248845)
(1.4587 -1.45823 -0.000264505)
(1.45819 -1.45789 0.000702783)
(4.36709 0.0493334 0.0155105)
(4.49552 -0.880722 0.0624641)
(4.08969 0.014055 0.0264926)
(1.45876 -1.45848 0.000476957)
(4.38684 -0.0232249 0.0019454)
(1.54995 1.55272 0.00857907)
(4.35444 0.000537645 -0.00250688)
(4.33001 -0.0236853 -0.0285827)
(1.51304 1.35565 -0.0312991)
(1.54219 1.54187 -0.000219235)
(4.40215 -0.0133876 -0.0013541)
(4.05341 -0.0222457 0.00488617)
(3.88734 -0.114917 -0.120376)
(4.14502 -0.00387966 0.00906303)
(4.3671 0.00627152 -0.00275254)
(4.06736 -0.0021175 0.0155749)
(4.00251 -0.0199888 0.00914076)
(1.47209 -1.46455 0.000505129)
(3.86177 -0.00521846 0.0119424)
(1.46397 -1.45906 -0.00219214)
(1.55021 1.54377 0.00627122)
(4.29397 0.0176434 0.0140606)
(1.45818 -1.45724 0.000539361)
(1.47015 -1.46399 -0.00160703)
(2.02626 1.59674 0.0957925)
(1.53306 1.53794 -0.0030209)
(1.54668 1.54292 -0.00355679)
(4.19614 -0.0097464 0.0192972)
(1.16861 -0.822477 -0.21725)
(1.93328 1.66456 0.0581828)
(3.90016 -0.00108554 0.0188234)
(1.45833 -1.45767 -0.000455093)
(4.41081 0.331092 -0.11866)
(4.40559 0.0806602 -0.0425483)
(4.35918 0.0503188 0.0163582)
(1.4546 -1.45106 -0.00697959)
(1.98469 1.72898 0.173428)
(1.85531 1.65625 0.077618)
(4.4001 0.013937 -0.00708371)
(1.54265 1.54289 -0.00041463)
(4.37581 0.0108197 0.000859181)
(4.34381 0.0154282 0.00715401)
(4.27828 0.0185141 0.0156706)
(3.35836 0.000409789 0.014673)
(4.38821 0.022929 0.00462411)
(4.35061 0.0277127 0.0157073)
(4.13358 0.00351154 -0.0173374)
(4.3198 -0.00881232 0.00424987)
(4.27517 -0.000617861 0.00821953)
(1.54296 1.54315 -0.000369522)
(1.4583 -1.4584 0.000109231)
(1.53981 1.54054 0.00285535)
(4.37603 0.0175168 0.00224669)
(4.13558 0.00670331 -0.0163614)
(1.45709 -1.45606 0.000537121)
(2.87287 -0.0165842 0.0283993)
(4.26919 0.0204557 0.00991121)
(4.67786 0.187447 0.0835324)
(4.39942 0.0125813 -0.00880346)
(4.37625 0.0136891 -0.00326458)
(4.06355 0.000300987 -0.00545067)
(4.72054 0.229694 0.0579341)
(1.45086 -1.46441 0.00580468)
(1.45656 -1.45792 0.0012343)
(4.38842 0.0124794 -0.0095359)
(4.30154 -0.0149104 -0.0154425)
(4.75086 0.25894 0.0630002)
(4.6849 0.227073 0.0867814)
(4.09221 0.00759635 0.0215918)
(4.38251 0.0533415 -0.019717)
(1.52438 1.53703 0.000347956)
(4.80781 0.32117 0.0776437)
(4.58358 0.229682 0.0716349)
(1.54167 1.54243 0.000372883)
(1.45687 -1.4566 -0.0002052)
(3.51699 0.00402424 -0.0260652)
(1.54247 1.54325 9.94132e-05)
(4.35678 -0.00967335 -0.00168953)
(4.18801 0.00280317 -0.00995516)
(1.54264 1.50713 -0.00709869)
(1.57476 -1.44475 0.0131556)
(1.46185 -1.45415 -0.0024322)
(1.51892 1.43525 -0.0141542)
(1.58558 -1.45923 0.0247797)
(1.45663 -1.45763 0.000938415)
(4.36917 0.0172913 0.00451079)
(4.36672 0.0110757 -0.00824484)
(4.3516 0.0144176 -0.00373657)
(4.31707 -0.0101643 0.015628)
(4.14694 -0.00930844 0.00323482)
(4.1642 0.00878117 0.013962)
(3.6929 0.0465304 0.00507848)
(1.4577 -1.45249 -0.000147571)
(4.04486 0.000918403 0.00414351)
(1.57127 -1.45865 0.0143831)
(1.47052 -1.47299 -0.000837115)
(4.20401 0.00964134 0.0145213)
(4.41456 -0.0540074 -0.0193608)
(4.36451 0.00952453 -0.0199139)
(4.19423 -0.0042649 0.00656941)
(4.25976 -0.00218974 0.00516941)
(1.45584 -1.45317 0.00321908)
(4.18286 -0.0198395 0.00378265)
(4.17834 -0.00548141 -0.0259225)
(2.92626 0.938096 0.12126)
(4.27999 -0.0330938 0.00267624)
(4.3403 -0.00753126 0.00402792)
(1.46365 -1.45555 -0.00217819)
(4.18666 0.0121604 0.0149186)
(4.38162 0.00942672 -0.00333187)
(1.59776 -1.44268 0.00585179)
(4.20974 0.0100588 0.0152909)
(4.41495 -0.00556181 0.025291)
(4.13365 0.00369144 -0.019051)
(4.17601 0.0106767 0.0190237)
(1.58297 -1.46354 0.0195795)
(1.45733 -1.45782 -0.000213614)
(4.17685 0.0106358 0.0189176)
(2.73699 1.72018 -0.168932)
(4.46604 0.0194294 -0.0426175)
(1.54199 1.54281 -0.000876148)
(4.20119 0.00788015 0.0160552)
(4.19242 0.00660778 0.00461687)
(4.4401 -0.0143042 0.0274409)
(1.45991 -1.45919 0.000595586)
(3.91761 -0.000206748 0.0110325)
(4.39641 0.061517 0.0304079)
(2.41945 1.62856 -0.17676)
(1.54268 1.54276 -0.00118669)
(1.5416 1.54238 0.000352026)
(4.49492 -0.0290272 0.0410718)
(4.19566 0.0991539 -0.0104784)
(1.62333 1.37243 -0.0306665)
(1.81277 -1.40293 0.0554667)
(4.20742 0.00318281 0.00556999)
(4.33573 0.00834525 0.000657676)
(4.40451 0.0110571 0.00242442)
(1.60124 1.39705 -0.0404199)
(1.5418 -1.42528 -0.0054674)
(4.2302 0.0483363 -0.0561297)
(1.45834 -1.45794 0.000872959)
(4.00402 0.00453457 -0.0239769)
(4.15749 0.00461116 0.0135012)
(4.2046 0.00167582 0.00722993)
(4.21242 0.0106559 0.00885813)
(4.2283 0.0085569 0.0119896)
(1.53801 1.53805 0.00487376)
(3.18618 -0.00986537 -0.121501)
(4.29078 0.0102221 0.0166793)
(1.53514 1.53819 -0.0020145)
(1.5416 1.5424 -0.000249551)
(4.46615 -0.0524446 -0.00593718)
(4.36622 0.0183285 -0.00736398)
(1.58052 1.35035 -0.0412513)
(3.97098 -0.00239009 0.012081)
(4.27401 0.0121444 0.0126218)
(1.45891 -1.45808 -0.000500661)
(1.95014 1.8373 -0.0121357)
(4.39648 0.0380667 -0.016879)
(1.46238 -1.44348 0.000654729)
(1.61859 -1.14577 -0.0277272)
(2.23886 -0.781568 -0.0796156)
(1.45933 -1.45538 -0.000216182)
(4.29251 -0.00767293 -0.00773634)
(4.17518 -0.00758626 -0.0103506)
(4.35516 0.00701463 -0.0126201)
(1.45779 -1.45801 -7.80893e-05)
(4.31362 0.0131636 0.011009)
(1.45864 -1.45892 0.000147091)
(1.4586 -1.45927 0.000256072)
(1.4562 -1.45077 0.00250606)
(2.94483 0.0110088 -0.0447921)
(4.41757 -0.0206708 0.0245445)
(4.22024 0.0150211 0.0196683)
(4.28838 0.0139818 0.0107682)
(4.45092 -0.0290223 -0.000764361)
(4.26465 0.00955567 0.00973246)
(4.38266 0.0159951 0.00560815)
(4.40593 0.0732739 -0.00789325)
(4.30363 0.00948568 0.000567457)
(4.34676 0.0101318 0.000598692)
(1.5671 1.54162 -0.000801689)
(1.45662 -1.45646 -0.00162974)
(2.68739 0.0161001 -0.0643714)
(4.36976 -0.0102257 0.00136455)
(4.42021 0.033677 0.0373647)
(4.15767 -0.00520789 -0.00744482)
(1.45838 -1.45757 0.000371794)
(4.36236 0.0133375 0.0083983)
(4.3851 0.0215796 0.0103976)
(4.27788 0.00827432 0.00712598)
(3.76938 -0.00387918 -0.0181073)
(3.94857 -0.0449533 -0.0976833)
(4.34361 0.0149446 0.00251266)
(4.26914 0.0111909 0.00971493)
(4.35835 0.0322045 -0.0194853)
(1.54319 1.54321 0.000160756)
(3.9923 0.0209218 -0.000513387)
(1.54175 1.54216 -0.000579602)
(1.25947 0.965932 -0.195962)
(1.64419 -1.04896 -0.106455)
(4.52461 -0.0398118 0.0583762)
(4.45329 -0.029406 -0.00104603)
(4.34786 -0.00205199 0.000290439)
(1.46072 -1.45713 -0.000535398)
(1.53733 1.54604 0.0125084)
(4.3539 0.0144573 0.00814203)
(4.16689 0.00755894 -0.00663253)
(1.45776 -1.45679 0.000121972)
(1.45904 -1.45824 0.00131557)
(1.42818 -1.43554 0.0112071)
(4.14209 0.00595187 -0.00324902)
(4.32784 0.0059483 -0.00518987)
(4.13189 0.000780715 0.0147517)
(3.99197 0.00679168 -0.0229674)
(4.41286 0.0103007 -0.0102189)
(1.76617 1.51983 0.0395705)
(1.53932 1.54295 0.00303266)
(1.45861 -1.45645 -0.000866647)
(4.33916 0.0144178 0.0118568)
(2.80341 -2.3765 -0.169026)
(4.13515 -0.00486605 0.00420433)
(4.49336 -0.0313247 0.0953704)
(3.6169 0.00251805 -0.0738308)
(1.54229 1.5423 -0.000211426)
(1.45704 -1.45843 0.000791915)
(1.45865 -1.45951 -0.000807839)
(1.94189 1.63165 0.0985604)
(4.38828 0.0142338 -0.000414672)
(4.42952 -0.0254272 0.00146038)
(1.54614 1.54994 0.000554496)
(4.35061 0.0117917 -0.00112167)
(1.62916 1.3234 0.0921399)
(1.46588 -1.44946 -0.00215249)
(4.45998 -0.0156743 0.0363096)
(4.34403 0.0154337 0.00677546)
(4.44724 -0.00685307 0.0108706)
(4.3538 0.0123482 -0.000786527)
(1.48811 1.32355 0.0791828)
(1.92294 1.65592 0.105071)
(1.53958 1.54167 -0.0023711)
(4.34734 0.0150285 0.00579328)
(4.34365 0.0129947 -0.000274694)
(4.42848 0.0747262 -0.0243479)
(1.52931 1.52625 0.00334034)
(3.04033 2.69608 -0.641738)
(4.14869 0.0405057 0.0367625)
(4.42652 -0.0210208 0.0107591)
(4.36528 0.0162956 0.0104401)
(4.14486 0.427904 -0.0347488)
(4.411 0.0105015 -0.0102341)
(1.53927 1.53926 0.000336625)
(4.41426 0.0121358 -0.00865025)
(4.23633 0.00557346 0.00855409)
(4.46848 -0.104217 4.33141e-05)
(4.47295 -0.0264074 0.0531783)
(4.33634 -0.0331353 -0.0298863)
(1.53757 1.54405 -0.00602908)
(1.45714 -1.45896 -0.00273189)
(1.54571 1.5374 0.00563551)
(1.44923 -1.45333 -0.000536017)
(4.42329 -0.0214067 -0.000107536)
(4.39732 -0.00799354 0.00280782)
(4.3718 0.0205767 -0.0144124)
(4.40736 0.0122969 -0.0130323)
(1.53303 1.53474 -0.00632929)
(4.36878 -0.0288024 -0.00949994)
(1.54075 1.54144 0.000589168)
(1.45219 -1.45653 0.000246962)
(4.40926 0.0124416 -0.00950794)
(1.3455 -1.34723 0.0196423)
(2.42346 -0.423092 -0.0355316)
(1.44251 -1.43709 0.00128764)
(1.5564 1.53569 0.0122572)
(4.3613 0.00829351 -0.00581894)
(1.54259 1.54176 0.00060655)
(4.31944 0.0109542 -0.00314891)
(4.10276 0.00247954 -0.0190544)
(1.54352 1.5434 -0.000334132)
(3.96273 -0.00169159 -0.0194572)
(4.28998 0.00701931 0.00800629)
(1.55285 1.36407 -0.0502612)
(4.28446 0.0188705 0.0194003)
(4.0404 0.0206116 -0.00303937)
(4.30795 0.0243509 0.00632107)
(4.00926 0.0151415 0.0494251)
(4.35093 0.0128214 0.00204787)
(4.14671 0.000611856 -0.00947104)
(1.52167 1.30434 -0.00564992)
(1.45758 -1.45217 0.00547486)
(3.72415 0.00826208 0.0880826)
(1.53253 1.5378 -0.00888838)
(4.29966 0.0224826 0.0198356)
(4.46191 -0.0227723 0.0434652)
(1.55393 1.4864 0.0124818)
(1.53939 1.54577 -0.000285382)
(4.41218 -0.00918687 0.00315109)
(4.24719 -0.0194495 -0.0393122)
(4.26468 0.0223309 0.00242036)
(4.42786 0.0088143 -0.00208545)
(1.54221 1.54056 -0.000455175)
(4.48169 -0.0130971 0.070632)
(4.41012 -0.0150864 0.0220037)
(1.54546 1.54264 1.09198e-05)
(4.33276 0.0656714 0.0535115)
(4.12985 -0.0169277 -0.0427728)
(1.45755 -1.45646 -0.00025973)
(1.4575 -1.4573 0.000275724)
(4.31593 0.0138468 -0.00378056)
(4.33273 0.00415553 -0.00606397)
(1.54943 1.54968 -0.00195086)
(1.46076 -1.45609 -0.00152718)
(2.58268 -1.38854 0.315952)
(1.45826 -1.45921 0.000529734)
(4.33359 -0.00251878 0.00914895)
(1.53456 1.53948 0.00364415)
(1.45871 -1.45908 9.62528e-05)
(4.44862 -0.00501842 0.0143402)
(4.02532 -0.0471904 -0.114796)
(4.40169 -0.0247948 0.00642837)
(4.24036 0.000222696 0.00802761)
(1.54402 1.54297 4.54172e-05)
(1.99841 1.54373 0.074656)
(4.24569 0.0538897 0.0794321)
(1.87438 1.65521 0.0873061)
(4.22934 0.0183602 0.0330257)
(4.2131 -0.0347765 0.00344001)
(4.39218 -0.0120009 -0.0103328)
(3.06392 0.104304 0.107124)
(1.84263 1.58805 0.0785634)
(4.40602 0.00768115 -0.0414416)
(4.45233 0.133964 -0.0474913)
(1.45666 -1.45943 0.00246137)
(4.43285 0.0113193 -0.043197)
(4.44166 -0.021441 0.0159377)
(1.46044 -1.46011 0.00153085)
(4.28128 0.245197 -0.135627)
(3.74632 -0.000691349 -0.0526341)
(1.94389 1.5313 0.062706)
(4.4167 -0.0085812 0.0187565)
(4.36625 0.00612641 -0.00619048)
(4.35447 0.0119593 -0.00225149)
(1.5418 1.54068 -0.000420383)
(4.34308 -0.00699329 0.0298571)
(4.43985 -0.00388044 0.0145213)
(4.32633 0.0417263 -0.00453302)
(2.73302 -0.036433 0.0467374)
(1.87365 1.76973 -0.0370189)
(2.57503 -0.0649233 0.0852221)
(1.45693 -1.45871 0.00102135)
(3.99905 -0.129834 -0.12935)
(4.34413 -0.00760652 -0.0285358)
(1.54311 1.54198 0.00216023)
(4.11662 0.00983218 -0.0307545)
(3.40159 -0.00840835 0.0605152)
(1.99691 1.76711 -0.0185682)
(1.45869 -1.45771 0.00015997)
(1.7099 -1.44932 0.0458706)
(1.45828 -1.45772 0.000109928)
(4.31941 0.0220718 -0.000361311)
(4.35272 0.0226488 -0.00760189)
(4.29647 -0.0131228 -0.0123349)
(4.04024 0.0102437 -0.0223919)
(4.40547 -0.0902316 -0.0182947)
(1.54182 1.53569 -0.00307235)
(4.27217 0.000326653 -0.00957713)
(1.46206 -1.45132 0.000495736)
(4.2272 0.0163276 0.00971104)
(1.54713 1.54677 -0.000897014)
(1.45764 -1.45652 -2.42256e-05)
(1.44669 -1.45073 -0.00204438)
(4.15382 -0.0283773 0.00610983)
(1.45519 -1.45571 -0.000961795)
(1.45908 -1.45866 0.000498951)
(1.51864 1.01468 -0.0628456)
(1.45849 -1.45963 0.000457807)
(1.52745 1.54857 0.0143928)
(4.25809 -0.0149459 -0.00657463)
(1.54369 1.54147 0.00063848)
(1.82594 1.35038 0.00232615)
(1.54386 1.5439 0.001647)
(1.45631 -1.45224 -0.00100766)
(1.54333 1.5395 -0.00106686)
(1.45436 -1.44695 -0.00762181)
(1.53815 1.53797 -0.000217858)
(3.87932 0.000136348 -0.0325942)
(1.54584 1.53746 0.00630078)
(3.98272 0.0554979 0.0783132)
(4.35137 0.00419117 0.000733183)
(4.49689 -0.176769 -0.0279237)
(1.54381 1.53731 -0.000377452)
(3.79231 0.0116884 0.0613337)
(1.54565 1.54007 0.00178761)
(1.45869 -1.45954 -0.00071141)
(4.30633 -0.0415186 -0.0462516)
(4.30323 -0.0345141 -0.0357465)
(4.29987 -0.00921644 -0.0122359)
(4.49541 0.0119323 -0.0751618)
(1.77014 1.49087 -0.0481259)
(4.39985 0.0037007 -0.0231888)
(4.39853 0.00176944 -0.0210496)
(4.35796 0.00954856 3.28538e-05)
(4.29016 0.00482839 0.000844063)
(4.37512 -0.0446811 -0.0291474)
(1.45545 -1.4557 -0.000541015)
(4.36426 0.00778425 -0.00139477)
(2.01384 1.75409 -0.0117579)
(4.3378 0.0079404 -0.00912798)
(1.54269 1.54154 0.000240032)
(4.42201 0.015703 -0.0241105)
(1.99225 1.65512 0.0155007)
(4.36179 0.00426917 -0.00608839)
(4.36754 -0.0201008 0.0158979)
(1.68525 -0.842111 -0.00983866)
(1.54506 1.54682 0.0169704)
(4.29713 0.00775709 0.00686268)
(1.45843 -1.45732 0.000175398)
(4.4362 0.0182978 -0.0258845)
(4.40118 0.021905 -0.0180061)
(1.54229 1.53808 -0.0125883)
(1.54033 1.53958 0.00372612)
(1.51028 1.35388 -0.0384559)
(1.54171 1.54272 0.000914782)
(3.08549 -0.163617 0.0829826)
(4.43851 0.0159201 -0.025827)
(1.56199 1.52561 -0.00118725)
(1.53988 1.54264 0.00179178)
(3.79792 0.00209171 -0.0109357)
(1.54271 1.54253 -7.54588e-05)
(4.37024 0.0150241 -0.0174244)
(1.54255 1.54181 0.000123115)
(4.33051 -0.0264491 -0.0183729)
(1.45947 -1.45864 0.000403685)
(4.06901 -0.0216454 -0.0601482)
(3.36741 -0.0127249 0.00475991)
(4.06789 0.0123374 -0.00964342)
(4.36401 0.00578618 -0.00745546)
(1.55188 1.54027 -0.00469678)
(3.9678 0.00382435 -0.000433413)
(1.54533 1.54 0.00132596)
(1.54247 1.54363 -0.003775)
(4.30467 -0.0165818 -0.010344)
(1.54293 1.54151 -0.000166383)
(3.67573 0.000193869 -0.0376783)
(1.49292 1.37435 -0.0434191)
(4.38114 0.0233918 -0.0141655)
(1.45752 -1.458 -0.000290149)
(4.40896 0.0104957 -0.0094015)
(1.45881 -1.45762 0.000174093)
(1.82714 1.61893 0.0458816)
(4.46736 0.157033 -0.0100735)
(4.30136 -0.0358197 -0.0467416)
(4.34834 0.0164824 0.000521664)
(4.39942 -0.0526281 -0.032842)
(4.32838 0.00902752 -0.00531958)
(4.44502 -0.0302229 -0.0041209)
(1.53276 1.54462 -0.00683976)
(4.3461 0.0221681 0.0144952)
(4.31314 -0.0394819 -0.0461449)
(1.54196 1.54265 -0.000696465)
(3.65157 -0.046201 -0.157236)
(4.44723 -0.0308541 -0.0222926)
(4.27244 0.0193656 0.0159005)
(1.52915 1.50777 -0.00887772)
(1.89781 0.386986 -0.296468)
(4.18135 0.0113023 0.012862)
(3.43201 -0.0136589 0.0343223)
(3.55102 0.918938 -0.00681079)
(1.89374 -0.959126 -0.0799288)
(4.43138 -0.0475632 -0.00670019)
(4.16013 0.016145 0.0294664)
(4.29756 -0.041369 -0.0445896)
(4.36683 -0.0243894 -0.00936621)
(4.31139 0.0257763 0.0104777)
(3.8178 0.498129 -0.0253338)
(1.90369 1.61723 0.0133235)
(3.88064 -0.141768 0.0315763)
(3.75004 -0.327399 0.0774473)
(1.45669 -1.45728 0.000849027)
(3.82302 0.0257502 -0.0112579)
(1.55128 1.52251 -0.00776571)
(1.80961 1.64553 0.0151134)
(4.3231 0.00509428 -0.00221562)
(3.84127 0.652673 -0.0206625)
(4.62413 -0.389469 -0.0725064)
(4.16487 -0.715309 0.0148079)
(1.8045 1.71574 -0.124024)
(4.40502 -0.0258513 -0.00728639)
(4.35807 0.0249452 0.0187825)
(1.53904 1.53462 -0.000484763)
(1.98037 1.10428 -0.0445384)
(4.36032 0.0316745 0.0186358)
(1.45709 -1.45184 0.00096631)
(1.54235 1.54209 -0.000135066)
(1.54067 1.54022 0.000225142)
(1.54362 1.53566 0.00161517)
(4.40882 -0.0455173 -0.0205882)
(1.54278 1.54251 0.00089881)
(1.46444 -1.46438 0.00786325)
(4.3264 -0.0267323 -0.0221628)
(3.98806 -0.000585342 -0.0125096)
(2.1525 -1.88371 -0.0990567)
(4.36112 0.0309871 0.0181188)
(1.79026 1.44882 0.032333)
(4.38276 -0.0173782 -0.00889902)
(1.43413 -1.43305 -0.0064169)
(1.53946 1.5425 -0.00068985)
(4.39149 -0.0271651 -0.00793777)
(1.54263 1.53404 -0.0061752)
(1.54212 1.53871 0.00104749)
(1.76684 1.69276 0.0494955)
(4.13982 -0.00305097 -0.0029558)
(2.53572 2.12554 -0.279673)
(4.32775 -0.0186446 -0.00937999)
(4.31984 0.00463019 -0.00291094)
(1.44777 -1.43843 -0.0117069)
(4.49404 -0.0136248 0.140521)
(4.12342 -0.0242019 -0.0600316)
(4.30879 0.00140848 -0.00224996)
(4.37687 0.0776488 0.00990684)
(4.39207 0.0445132 -0.0941188)
(3.78753 0.00185088 -0.0359026)
(1.54084 1.54004 0.000580896)
(4.39419 0.0045871 0.0110884)
(4.36385 0.0177081 7.41624e-05)
(1.44525 -1.46423 0.00297011)
(4.07414 -0.00274654 0.000330749)
(4.41311 0.025983 -0.00834472)
(4.40381 0.0203262 -0.00691969)
(4.01693 -0.0173556 -0.0406321)
(4.4005 0.0214757 -0.00552492)
(4.40578 0.0219032 -0.00421289)
(1.46281 -1.44351 0.00866207)
(4.40122 -0.00947587 0.02202)
(3.65615 -0.0220265 -0.0055658)
(1.85893 1.61612 0.0999228)
(4.39869 0.0178401 -0.00934254)
(4.19998 0.00504567 -0.00977021)
(2.46656 2.01141 -0.300961)
(4.32363 0.005937 -0.00150978)
(4.40135 0.0151947 -0.0132585)
(4.20191 0.0014972 -0.0172004)
(4.3699 0.0218906 8.47436e-05)
(4.32091 0.0464882 0.0178251)
(4.32992 0.00562266 0.000447657)
(1.50912 1.47625 0.00193398)
(4.36931 0.0225188 -0.000553463)
(4.10453 -0.0250354 -0.0542564)
(1.63219 -0.974724 0.0386741)
(4.34936 0.0341026 0.0224513)
(4.30182 0.0351213 0.0348664)
(4.35504 0.0141104 -0.00237107)
(1.54141 1.53863 0.0016791)
(4.23759 0.02535 -0.0405739)
(1.45862 -1.45225 0.00377371)
(1.54246 1.54292 -0.000807401)
(1.53783 1.52576 -9.59534e-05)
(1.54421 1.53603 0.000843827)
(3.66999 0.00200824 -0.0175199)
(1.83355 1.58205 0.0629428)
(3.32251 -0.229403 0.273583)
(1.45479 -1.45475 0.000245232)
(1.54176 1.56046 3.55482e-06)
(4.36459 0.0421028 0.0235356)
(4.37492 0.0105992 -0.0171379)
(1.45927 -1.45909 4.03684e-05)
(4.38422 -0.0272184 -0.00384867)
(1.45831 -1.45699 0.00484225)
(1.4595 -1.45836 -0.000740936)
(1.43668 -1.437 0.00444961)
(4.45642 -0.0371711 -0.00771848)
(3.70716 0.0194839 -0.0104683)
(1.81527 1.63695 0.02027)
(1.47376 -1.45738 0.00389868)
(1.54045 1.54512 -0.00199019)
(1.5414 1.5426 -0.000289527)
(4.47607 0.00874736 -0.0487568)
(4.34007 0.00750478 -0.00318445)
(1.83365 1.72486 0.079376)
(4.42436 0.014258 -0.0229742)
(4.12203 -0.0573748 -0.167677)
(1.54003 1.54058 -0.000848915)
(4.41249 0.0122171 -0.0199538)
(4.04913 0.00362309 0.0215097)
(4.31534 0.0237934 -0.0285123)
(1.54366 1.54268 -0.000220761)
(1.54114 1.54053 -4.55808e-05)
(4.27762 0.0190172 0.0227622)
(4.36069 0.00861433 -0.00138884)
(1.8209 1.65736 0.0258237)
(1.53677 1.53731 5.73409e-05)
(1.56531 1.51951 -0.00307476)
(4.32239 -0.0087034 0.00497843)
(1.45683 -1.45699 -0.00195453)
(1.45882 -1.45409 0.00126647)
(1.53792 1.53857 0.00073756)
(4.41013 0.0135742 -0.0168802)
(3.8649 -0.0184976 0.00667465)
(1.54308 1.54317 0.000225073)
(1.71208 0.35334 0.294789)
(1.85917 -0.187928 -0.0681212)
(4.29001 0.0226895 -0.00218624)
(1.54015 1.54276 -0.000738872)
(1.54251 1.53959 -0.000780859)
(4.44122 -0.0449442 -0.0102072)
(4.24539 0.072098 0.0653247)
(1.84737 1.65223 0.0771528)
(2.68431 0.882403 0.0628688)
(4.185 0.0992646 0.119149)
(4.00357 0.011632 -0.0286069)
(4.24628 0.00350655 -0.00335318)
(1.60017 1.50205 -0.00280283)
(4.22897 0.0112012 0.000457643)
(4.38336 -0.0292614 0.0303994)
(1.54624 1.54223 -0.00178094)
(1.44875 -1.42559 0.00191379)
(1.53811 1.53897 -0.000188379)
(1.54077 1.54114 -0.000545788)
(1.54287 1.54505 -0.00168514)
(1.54348 1.54381 -0.000132589)
(4.42032 0.014717 -0.0183682)
(1.45743 -1.45734 0.00106217)
(1.54097 1.54132 -5.12791e-05)
(1.53356 1.51345 -0.000195204)
(4.4239 0.0148552 -0.0239055)
(4.35632 0.00958754 -0.00322614)
(1.46461 -1.44542 -0.000534207)
(1.44171 -1.42693 0.00223407)
(4.45907 -0.0211842 0.0379781)
(4.2394 0.00363243 0.00551301)
(4.23258 0.00514109 0.00702797)
(1.45935 -1.4553 -0.000780691)
(1.54013 1.54072 0.000819362)
(4.2362 0.00304574 0.00664214)
(1.45888 -1.45784 -1.18231e-05)
(4.18524 0.0111482 0.00100235)
(4.2955 0.00744261 0.0148338)
(4.30421 0.0148028 0.00753975)
(1.46832 -1.45766 0.00464228)
(1.45819 -1.45876 0.000439369)
(1.458 -1.45889 0.000446702)
(1.54259 1.54284 0.000404321)
(4.34512 -0.0188397 -0.0122632)
(1.54092 1.54199 0.000183655)
(1.53996 1.54036 0.000384133)
(4.3216 0.0114691 -0.015549)
(1.45803 -1.45874 0.000628228)
(4.2518 -0.00160231 0.00531854)
(3.89063 -0.0320443 0.0130921)
(1.55536 1.50557 0.00744607)
(4.35491 0.0140326 -0.002739)
(2.05883 0.312576 -0.0531113)
(4.29097 0.00326037 0.00402726)
(4.45381 -0.0163912 0.00912204)
(3.92145 0.0158117 0.00461233)
(4.43921 -0.000484339 0.0284266)
(3.21068 0.0710067 -0.120144)
(1.83343 1.47021 0.0298822)
(4.28135 0.000155918 0.00247393)
(4.45662 0.0345243 0.00561983)
(4.35334 -0.012548 -0.00518805)
(1.57946 1.376 -0.0466844)
(1.95172 0.193844 -0.0987132)
(2.32649 -0.150919 0.0754358)
(4.28162 0.006784 0.00382453)
(1.54017 1.54241 0.00206388)
(4.20965 -0.00962344 -0.0312016)
(4.29804 -0.003733 -0.0105386)
(4.17651 -0.0376117 -0.0668239)
(1.59587 -1.12499 -0.0855478)
(1.45861 -1.45874 0.000783289)
(1.45815 -1.45815 -1.82092e-05)
(4.37976 -0.0143362 -0.00266557)
(1.79477 1.48976 -0.0184172)
(4.15189 0.0140783 0.00671269)
(1.67154 1.52397 0.020571)
(4.13637 -0.00830424 -0.0279101)
(4.24108 -0.00648392 0.00524412)
(4.2013 -0.00346898 0.015613)
(4.35726 0.0110012 -0.00406581)
(1.5415 1.54042 -0.000470864)
(1.53303 1.52887 -0.00226944)
(1.55958 -1.4212 0.00671162)
(4.35214 0.0162176 0.000954055)
(1.5431 1.53897 -0.000236372)
(1.77624 1.53122 -0.0662601)
(4.45155 0.0784394 -0.0678816)
(1.54849 1.54668 -0.000781939)
(1.53623 1.5436 0.00452429)
(1.45544 -1.44959 -0.00377621)
(1.54275 1.54331 0.00042421)
(4.15594 -0.00240239 0.014968)
(1.58006 1.49814 0.00498463)
(1.5427 1.54095 0.000166648)
(3.53719 0.499569 -0.366224)
(1.80042 1.45844 -0.0198299)
(1.53678 1.53763 -0.0128322)
(2.10461 -1.24466 0.0763248)
(1.54224 1.54013 -0.00126793)
(3.40386 0.0129268 -0.0300216)
(4.23826 -0.00530981 0.01188)
(1.45739 -1.45719 -0.000557483)
(4.16743 0.00468629 -0.00965726)
(4.21368 0.683544 -0.0966819)
(4.14902 -0.0406567 -0.0651948)
(4.55878 0.169944 0.0044111)
(4.09318 0.00480441 -0.00743053)
(1.54263 1.53187 0.00486031)
(4.31071 -0.0419652 -0.0469097)
(4.46706 -0.0176864 0.00974397)
(4.14823 -0.0408327 -0.065795)
(1.45791 -1.45841 -2.25403e-05)
(4.5237 1.19668 0.314712)
(4.14641 0.00575867 0.00808554)
(2.04942 1.63979 -0.0959356)
(4.11946 0.00194489 0.00603657)
(4.49755 0.055422 -0.0422272)
(4.29418 0.0848203 0.00477126)
(4.25682 -0.0138984 -0.0177573)
(4.25766 0.013723 0.00100747)
(4.53241 0.0648599 -0.0243685)
(4.37786 -0.00706674 -0.00744971)
(4.34159 -0.0076608 0.00491937)
(1.53236 1.53734 0.00608077)
(1.53818 1.5308 0.00481804)
(4.17525 0.0110662 0.00556991)
(4.10662 0.00431961 0.00574771)
(1.5395 1.5432 -0.000290145)
(4.23146 0.00566666 0.00038041)
(4.44924 -0.0179419 0.00541379)
(4.36518 -0.012037 0.00459859)
(1.54686 1.53162 9.72782e-05)
(4.27907 0.0845786 0.0193206)
(1.54031 1.53894 0.000279916)
(4.3452 -0.00676521 0.00355341)
(4.36996 -0.00833191 0.00330811)
(1.54133 1.54061 -0.000191338)
(4.1627 0.018886 -0.0147215)
(4.36008 -0.00598857 0.00136658)
(4.26205 0.0791827 0.00661356)
(4.20449 0.0014544 0.0139563)
(1.57084 1.54143 -0.00234012)
(4.37471 -0.0132941 0.0146237)
(4.27515 0.0964526 0.00112809)
(4.5067 -0.104952 0.0265509)
(3.79511 0.0488941 0.0149489)
(3.38782 0.0101981 -0.0473618)
(1.54428 1.52839 -0.00278403)
(1.53902 1.53775 0.00148061)
(4.2028 0.0563692 0.00742632)
(1.54256 1.54296 -0.000436175)
(3.67838 -0.0104992 -0.00986239)
(4.22109 -0.0213474 -0.0321953)
(2.57896 0.364593 -0.0903832)
(4.67573 -0.296938 0.11182)
(4.12795 -0.183721 0.0524309)
(4.59596 -0.163537 0.0436412)
(1.5426 1.54292 -0.000419918)
(2.08986 1.77466 0.015025)
(4.36883 0.0125861 -0.00360691)
(1.45245 -1.45767 -0.00442754)
(0.799098 -0.555122 0.242624)
(4.33651 -0.0815141 -0.0657688)
(1.54257 1.53852 -0.00286893)
(1.54299 1.54134 -2.27268e-05)
(3.86376 -0.0762115 -0.00434559)
(3.16232 -0.202731 0.0408862)
(1.54309 1.54309 -0.00023926)
(3.91588 -0.0713331 0.0116348)
(1.54139 1.5399 0.000220439)
(1.54162 1.54379 -0.00256123)
(1.4577 -1.45789 -0.000260808)
(1.45958 -1.45599 0.00353301)
(1.43107 -1.42019 0.00518934)
(1.45764 -1.455 2.4242e-07)
(3.9027 0.0310217 -0.014484)
(1.54014 1.53132 -0.00126524)
(1.54155 1.54213 0.000459572)
(1.53382 1.54261 0.00299937)
(3.63473 -0.803457 -0.210882)
(4.12337 -0.0345165 -0.0759508)
(3.99349 -0.000925091 -0.0398838)
(4.36901 0.0128124 -0.00397035)
(1.53698 1.52692 0.000284119)
(1.54589 1.54032 -3.08083e-05)
(4.18914 -0.0710235 -0.0864083)
(1.54235 1.54323 -0.00139895)
(1.54184 1.54056 0.000672042)
(2.44635 1.41028 0.0520541)
(4.46312 -0.0598264 -0.00466607)
(4.35506 0.0107325 -0.00326374)
(1.54073 1.54075 -0.000160054)
(1.54253 1.53947 0.00177964)
(1.53836 1.53437 -0.00203595)
(1.54064 1.53811 -0.000319372)
(1.54458 1.54439 -0.0016818)
(1.54518 1.5411 0.000173097)
(4.37319 -0.101076 -0.0634706)
(1.54336 1.53906 -0.000413019)
(3.03267 0.0439625 0.10014)
(4.39443 -0.0100229 0.0112344)
(1.54132 1.54346 -0.000330845)
(1.4491 -1.45502 -0.00394839)
(1.4391 -1.42562 0.00164685)
(3.6929 0.0426699 0.197745)
(1.4318 -1.43005 -0.00571566)
(1.45649 -1.45748 0.00143998)
(1.53465 1.53695 -0.00964915)
(3.9606 -0.0601676 0.00257035)
(1.5394 1.53937 -0.000379806)
(4.33707 -0.0561077 -0.0356673)
(3.45928 0.055105 -0.0176516)
(2.85876 0.00407058 0.112722)
(1.53977 1.54011 0.000478698)
(2.96646 -0.756125 0.0603571)
(4.37108 -0.00854472 0.000691432)
(4.40129 0.0101682 -0.0118073)
(1.56479 -1.49106 -0.0181555)
(4.24015 -0.0676766 -0.0117964)
(4.325 -0.00866365 -0.00672925)
(1.45847 -1.44846 0.00145806)
(1.59063 1.50927 0.00750561)
(2.06394 -1.58823 -0.130179)
(1.53783 1.53681 0.000212068)
(4.37987 0.00971268 -0.00197445)
(4.36165 -0.0060274 0.00662388)
(4.44347 -0.0524739 0.0217562)
(2.93131 -0.00185194 0.159403)
(1.5429 1.54226 -0.000170823)
(4.3822 0.00993452 -0.00300782)
(1.58762 1.511 -0.00197299)
(1.92403 1.62944 -0.00756102)
(1.96281 -1.52521 -0.0618751)
(1.54172 1.54221 0.000607496)
(4.3832 0.0127232 -0.00371659)
(1.53929 1.53599 0.00131156)
(1.44331 -1.41921 0.000386518)
(3.9987 -0.0546955 -0.0987161)
(4.28374 -0.00976955 0.00555482)
(1.44336 -1.42012 -0.00448571)
(4.30996 0.00753663 -0.00216162)
(1.64414 1.607 -0.0102696)
(4.37668 -0.0370819 -0.0190637)
(1.45462 1.39229 0.0159301)
(1.54303 1.54382 -0.000728212)
(1.55101 1.54575 0.0051941)
(1.45875 -1.45898 0.000438344)
(4.25609 0.00890608 -0.00750619)
(3.80754 0.00632569 -0.0165227)
(4.41253 -0.0021792 0.080151)
(1.53766 1.53803 0.000944076)
(1.53828 1.50953 0.00986758)
(4.23679 0.0095449 -0.0071321)
(1.54269 1.54303 -0.000524499)
(1.7856 1.62016 0.0221831)
(1.45792 -1.45679 0.000667653)
(4.19031 0.026325 -0.00271397)
(4.45979 -0.113003 -0.0315519)
(4.36849 0.0115126 -0.00435326)
(1.46098 -1.45738 0.00240322)