/*--------------------------------*- C++ -*----------------------------------*\
  =========                 |
  \\      /  F ield         | OpenFOAM: The Open Source CFD Toolbox
   \\    /   O peration     | Website:  https://openfoam.org
    \\  /    A nd           | Version:  10
     \\/     M anipulation  |
\*---------------------------------------------------------------------------*/
FoamFile
{
    format      ascii;
    class       volScalarField;
    location    "1";
    object      p;
}
// * * * * * * * * * * * * * * * * * * * * * * * * * * * * * * * * * * * * * //

dimensions      [0 2 -2 0 0 0 0];

internalField   nonuniform List<scalar> 
111485
(
9.50349
3.56404
4.14115
9.36623
4.28611
9.19402
3.63085
3.15564
3.64035
5.37317
3.59563
4.631
3.66216
3.56451
3.67986
3.74051
1.17864
8.82157
3.63154
9.31425
9.27804
9.30595
3.67933
3.69867
4.27034
9.05816
5.1531
2.01885
4.13112
9.59165
7.13722
0.820868
9.3955
9.63728
8.8119
9.87223
7.06445
0.195185
8.27184
3.79008
9.77564
5.37366
3.78577
6.24025
7.96297
9.88733
5.89472
3.68693
5.36077
9.02462
9.03102
8.8318
9.02568
6.36322
9.0221
2.28173
3.67939
9.88101
5.8998
3.78345
3.79388
9.49893
2.93731
6.97568
8.88484
2.57818
8.54837
3.36187
2.96154
3.17431
7.63214
2.66077
8.87972
2.95467
9.74948
1.52401
9.38256
5.15977
9.30449
8.89342
7.27501
6.06761
9.47308
9.69807
2.9153
3.90352
8.4093
6.39215
7.40362
1.08044
7.95055
3.91199
2.9306
0.422181
5.38086
9.68922
9.51086
6.37941
8.19277
6.65186
9.4556
5.18551
9.78155
5.08421
3.45298
8.88839
9.68948
0.95685
3.99677
7.92827
0.651538
2.64278
3.90343
4.82297
9.0556
1.43134
9.10393
9.8876
2.98529
9.31933
9.0538
8.7463
9.47074
9.88603
5.60907
8.86113
8.75529
1.10657
9.78897
8.18658
7.09882
6.36765
9.73488
8.73369
8.77327
3.5445
9.40856
1.51972
3.25268
3.28303
5.44488
3.29084
3.28143
4.09301
5.72489
0.135345
9.40343
9.66698
9.7704
3.46494
4.10488
9.28545
7.13724
0.0100474
8.04654
3.43946
3.4015
3.64265
8.04168
9.85583
9.36746
3.42916
4.11697
8.05824
8.06516
1.32975
6.83545
9.86562
8.07934
8.07383
9.77287
9.64592
4.46251
9.57054
0.243168
0.0452139
8.97959
8.88761
9.07379
8.91829
8.89136
9.35739
3.4701
3.47843
3.44108
0.0146999
5.16512
1.8303
7.02922
9.4407
1.60019
8.89731
9.52967
1.84518
5.35801
6.79882
2.44096
0.19755
9.74748
3.48613
4.05267
8.58761
6.04507
1.04659
9.81272
1.85614
4.92722
8.88339
6.76575
5.87107
4.07159
1.81575
8.87976
9.54476
1.83077
8.60326
6.37863
9.55382
1.85119
1.5773
5.46102
9.89335
2.06019
6.66381
8.68183
9.56595
9.78176
7.59586
8.04565
8.87683
8.77416
1.59159
0.406778
2.64948
8.87205
8.90408
6.96709
9.77577
3.45585
1.5835
1.59494
1.58459
1.59526
9.79678
7.31566
1.2563
9.82837
9.45386
6.39658
2.65438
8.87019
0.79053
1.17912
9.65682
8.73487
5.97568
9.03157
8.83357
8.68112
9.17807
1.38362
1.5689
0.125375
9.9011
1.20871
9.38536
9.49097
9.79431
7.0152
5.18017
2.78607
2.82592
4.83078
2.79315
2.85189
7.31801
0.400584
0.416328
8.99805
9.64531
7.38024
0.960855
5.46416
0.498425
9.33793
2.83409
3.48562
2.77917
4.91632
7.36938
2.76589
2.81261
6.03519
9.89128
5.14197
9.57285
8.85517
8.82014
7.58844
4.84888
3.75332
9.13187
9.86863
2.18769
0.686085
9.27009
9.56121
9.0338
1.56205
0.420422
3.39111
3.55158
3.85619
8.82379
9.70523
9.721
2.19399
8.48635
3.77706
7.44367
6.93696
9.45904
9.49073
9.5086
8.76382
2.36218
4.24176
9.885
2.32994
8.85108
9.04314
6.51586
2.34663
4.77605
2.31236
8.86458
8.76769
9.80657
2.33821
0.118069
7.20699
9.03092
8.34322
7.21883
4.30379
2.0769
8.29433
3.88083
9.36704
3.88519
2.38599
7.37095
6.49566
4.34612
9.66883
9.72293
9.73552
9.3718
3.35438
2.02046
4.80826
3.8835
9.62297
4.54008
9.71166
9.50831
3.88251
8.91544
8.67887
9.87061
9.89708
3.44583
9.88831
0.0905519
4.48274
9.30893
3.11185
2.46199
8.8805
2.41327
4.57517
2.42416
6.78828
0.191604
0.442231
8.87481
9.6609
6.21051
9.84097
4.72707
6.60494
8.94148
9.82947
2.29677
4.67279
0.396168
4.49463
9.39021
7.12886
4.62831
9.15355
6.23867
4.69976
9.54814
9.34138
0.0926278
4.28085
9.84764
9.10993
8.61782
9.45123
4.37537
9.55594
9.42644
4.65138
7.12308
5.72679
4.27371
9.20732
8.7602
6.23771
8.78874
6.23838
6.26273
5.31078
8.55482
8.79516
0.752382
7.98849
9.58378
6.51129
4.50656
9.89978
8.18658
5.43988
8.78341
4.77736
4.63297
0.214825
9.24514
0.198174
4.89401
0.203643
7.73319
8.76398
7.98963
9.7459
7.13968
0.19681
9.75955
4.77823
5.94406
8.74114
9.8916
8.82018
9.27625
4.29226
0.201015
4.71955
4.75071
6.74073
9.57196
4.851
9.50479
4.28359
9.11698
9.50624
9.63557
4.76269
9.67984
9.54371
8.83016
9.51466
9.80166
5.97279
9.89143
8.8053
9.7206
9.5586
9.18575
9.73014
9.33563
4.79892
9.72923
6.03038
4.92854
7.9844
9.10872
6.02041
9.72488
9.49608
4.75837
4.72331
4.79132
7.45263
8.83534
5.49855
5.50905
0.292502
0.5394
4.90879
9.63326
0.308248
8.73699
5.56142
9.59859
5.56011
8.76277
0.606381
4.70486
8.8031
9.72602
0.555057
9.24086
5.49692
5.54298
9.81655
9.71492
8.88417
9.7461
8.04419
5.48292
9.00543
9.86221
4.3012
9.30801
5.5157
9.36454
5.79957
9.50588
5.38245
5.49491
2.37878
0.584996
9.05802
0.151403
9.09008
9.60849
5.05609
9.60645
5.4132
8.88931
5.5724
9.60501
5.05329
9.26635
8.79677
7.9985
5.10106
5.49506
5.08408
5.51887
4.68706
9.76446
5.51385
5.08693
9.52798
7.52272
6.93819
5.50792
8.97816
8.7585
4.24604
5.65811
8.46702
8.76241
5.08444
4.2543
5.16121
5.18096
0.563318
8.37718
8.78407
8.00782
8.43661
9.38841
5.46605
9.84542
8.81086
1.07435
8.3764
8.06819
8.3013
8.79295
5.21452
4.26731
9.08878
8.7703
4.25154
9.13534
9.2934
9.33596
9.08072
5.21721
9.70901
9.81452
5.25627
1.62708
8.67664
4.2588
8.81614
1.60216
9.02292
9.78208
5.249
9.5962
9.12298
8.80771
0.131258
8.58869
5.39163
1.08747
9.10909
7.99393
5.41601
4.4208
6.78759
8.12971
4.32595
9.61981
5.37114
4.40597
9.80945
2.50307
6.05638
4.51903
0.137454
4.54105
4.52536
9.73211
5.50191
6.7695
8.78761
4.53649
5.52547
8.60171
1.08079
4.52483
5.54558
4.78044
4.80919
1.08778
8.95063
4.81515
5.43345
8.8213
5.14044
5.15339
1.16091
9.61556
0.114803
9.83317
9.42567
9.6608
9.08242
4.40168
8.80907
8.05873
9.53123
9.19724
5.15279
5.17482
9.23712
5.52893
9.49952
9.79595
9.03534
5.65565
5.48253
8.80361
9.89852
9.59163
9.6351
6.9541
1.16503
8.78369
5.0422
7.9852
9.81828
5.0401
5.87362
0.582155
9.26175
9.55716
2.60503
1.14143
8.79731
9.76039
8.96906
1.9185
9.65271
9.11643
9.53728
4.99368
3.94352
9.31577
8.77938
8.77189
0.576118
9.85652
9.16188
5.69184
6.97958
8.78715
8.62066
8.24292
5.80271
0.0302798
8.90777
4.23265
5.96215
9.89344
9.01474
9.42112
9.57281
9.72459
9.34211
5.00331
9.49454
9.41508
8.99892
5.0174
1.13429
9.03367
9.01361
5.82417
1.14548
1.17709
9.15366
9.42919
1.15641
9.6764
5.05836
1.14554
1.19062
9.04833
9.44876
9.44875
9.65803
4.28368
9.45672
9.36669
6.35645
9.43577
2.01904
5.93068
8.94748
1.10114
8.7552
2.01661
5.25292
5.44181
5.76323
8.10298
8.80868
2.00184
5.83681
0.0272558
8.87565
8.06617
8.6925
0.330432
9.6744
6.01058
5.87515
6.00307
8.83885
9.46817
9.89921
1.14809
8.8318
0.786887
8.8836
3.84983
0.307491
0.817496
1.15336
9.347
9.05908
8.87803
1.17233
9.12276
8.82701
7.84939
9.85829
9.85128
9.44172
9.42708
0.837841
8.92059
9.55141
8.08215
8.82016
9.8671
8.73741
9.52238
6.00111
0.80708
9.29258
4.32067
8.30638
6.01413
8.05995
1.00974
9.74189
5.29863
6.86024
6.03039
9.71294
8.1831
0.841116
8.73517
0.785185
7.4622
7.72312
3.14015
0.555676
7.57733
0.140045
0.723532
9.66284
9.05859
0.550046
0.548024
9.80652
0.557868
4.71989
0.711518
9.01661
7.66004
9.67732
0.757818
0.726478
9.23273
0.376491
0.703548
7.68959
0.219065
8.99617
3.38585
7.70664
8.14755
7.65104
6.52214
9.63135
9.67603
6.37001
9.41672
4.84652
6.59845
8.67223
8.12783
8.10903
8.11946
9.42685
8.73275
1.7273
9.78723
8.8769
6.49607
9.09712
9.19303
8.10731
8.0224
9.4214
7.72909
9.56808
9.59208
9.80574
9.51126
8.9953
9.6667
6.57038
9.05516
9.77221
9.81644
8.17336
6.48508
4.00973
1.71133
9.25701
9.12853
6.79045
9.50809
9.19065
8.6581
6.64773
2.24115
9.27422
9.17814
9.09233
9.16255
9.75191
9.13548
6.75328
9.12346
7.73026
3.8649
9.63173
9.47254
9.0074
7.71426
9.0129
9.37156
9.64263
7.80235
9.69841
6.74095
7.03861
7.6497
9.32452
8.56575
6.76163
3.72371
8.90648
7.76092
5.59433
9.12156
8.9379
8.72981
9.17332
1.72555
3.35413
6.92586
7.90114
9.24376
1.71574
8.92054
8.78407
8.73152
9.78252
3.03605
9.53479
8.99861
7.17608
2.24121
9.00074
5.44837
8.88628
6.93918
8.90101
9.60215
9.73192
9.42134
0.790684
3.31977
8.14276
9.26504
8.98244
0.809208
9.4231
8.82096
9.51835
4.98709
7.94607
4.28077
9.12388
7.25608
7.21361
8.87869
7.22448
9.08177
6.2756
5.63171
3.25663
7.21744
7.21382
9.46604
9.57643
9.57989
7.22392
9.89529
7.33928
9.83695
8.2028
9.0976
3.74952
3.86589
9.00609
9.38082
8.99083
9.84516
7.34099
8.98625
8.72937
0.807515
7.33343
8.8682
8.81691
8.80141
8.82121
9.08759
9.48025
7.36064
5.64595
9.3605
9.03634
8.05363
9.51675
7.35317
0.810307
8.95416
6.37802
9.43647
0.486884
9.03872
4.154
9.22065
8.03071
7.83402
7.55262
6.40631
6.40328
8.5525
8.94427
6.44888
9.0232
3.02911
9.19048
9.71057
8.79815
9.71023
9.74921
9.79941
6.40968
6.41367
9.4405
8.70289
9.12272
6.50985
7.68452
9.55711
3.04357
7.66455
9.01321
1.05702
0.737677
2.89938
7.58995
9.41811
9.52619
9.63869
9.3521
3.05587
9.72867
6.53369
9.48556
6.575
4.16824
9.69355
6.54383
9.80253
9.40221
6.60701
6.97497
8.37278
9.48717
8.98283
9.1573
3.15659
8.85859
9.82869
8.95434
8.30239
8.76483
8.01079
8.8197
8.94613
8.94018
0.905343
0.799132
4.68433
3.47994
9.83488
6.59985
9.60754
9.80925
0.777481
9.05385
8.05546
6.57823
0.55659
6.64988
8.05974
4.63998
9.7587
8.072
8.05746
5.66404
6.76578
2.32275
8.6059
9.49644
4.47541
9.14512
9.18088
8.03266
5.36325
8.10889
9.60874
9.60788
7.16605
9.00985
9.05968
6.70365
8.99495
9.00795
2.70701
6.72357
6.88709
2.70759
1.37473
9.11322
9.45567
8.05287
2.68979
9.33489
8.99954
4.77365
9.08071
8.69954
8.77788
8.78793
8.56727
8.64288
9.33467
4.53746
9.15554
6.85186
9.21973
8.50946
9.00206
9.02749
9.76837
9.41217
4.20503
9.42228
9.41266
8.80439
9.18616
9.75145
9.59527
2.55482
9.43094
2.31889
6.89665
9.02465
4.59483
9.28793
5.80064
7.72862
0.599866
0.613461
9.05326
0.667086
4.21847
7.53866
9.79023
7.04567
2.01487
0.299837
8.88349
0.382089
8.98239
9.75539
9.19333
9.32073
0.381924
9.56762
9.20626
0.299824
7.04953
0.290624
9.81221
8.64302
4.60091
9.67454
8.0777
9.00969
0.649505
9.03145
9.07651
4.56634
9.21816
7.0165
9.5221
9.21946
1.99341
5.93752
1.45927
3.2572
7.79248
2.58399
9.22879
8.89042
3.9149
1.51598
2.52786
7.0229
9.41978
2.33957
9.38616
9.16159
3.9853
7.08282
9.09048
1.54987
9.76123
1.47406
1.3532
8.90003
9.32771
9.65698
3.90548
9.55883
9.55961
3.94132
1.4681
6.75902
0.355322
9.22671
9.72607
4.88046
3.95711
9.23599
3.93662
8.97765
3.91697
9.29075
9.25611
3.91505
9.43238
5.63947
3.5933
9.10686
9.3325
3.59985
8.69016
4.35682
9.49312
6.82917
9.51402
8.70632
8.70358
3.62614
8.80102
8.77274
3.34717
8.78539
8.49798
8.72478
8.98094
9.13747
7.56938
4.36154
9.54983
9.61184
4.32215
4.34059
9.10029
3.95254
9.35105
9.13029
5.03721
4.8008
0.023805
9.28441
9.61363
9.5695
9.41494
9.09423
9.10012
9.62687
9.1374
9.15755
9.33405
9.57993
9.14155
9.47827
9.26312
9.16244
8.89683
9.25798
9.32963
9.44908
9.5203
9.78421
4.42416
9.52621
9.2658
9.80001
3.00826
9.89559
9.12624
8.4004
8.97714
8.95163
3.02865
8.83936
8.9121
8.43907
3.04724
9.48137
8.66661
8.70414
9.18711
6.23058
3.06525
3.07948
2.96231
1.80625
9.10901
9.20615
2.26161
2.37811
2.95893
9.38483
2.69069
6.01301
2.91619
0.463946
0.527305
2.9806
0.92596
2.91309
9.79894
3.31321
2.68294
4.1513
2.69911
9.66734
9.59477
9.74365
9.44162
9.65901
2.35652
2.73225
9.65049
9.16428
9.12731
8.88546
9.20838
9.18721
9.00449
9.14392
2.69345
7.71994
2.72215
4.54279
9.04733
8.86888
6.15544
7.91204
9.31937
9.41689
4.3581
9.83985
9.5389
2.65567
2.71466
2.7071
4.30019
6.10705
9.14744
0.0277015
3.2391
8.73386
9.14965
3.20505
9.12037
9.05081
8.34815
8.25225
4.59012
8.90144
9.83444
6.97407
3.29059
0.0350002
2.37056
8.449
9.45224
6.49038
8.82288
9.83709
8.91531
4.30315
9.1987
2.3511
0.099533
3.1614
3.26959
9.63473
2.06828
9.70663
8.91212
9.65807
9.09412
0.752889
8.50143
9.42581
9.34582
8.7975
2.36386
8.67887
2.11809
2.36182
0.730105
2.36573
8.88245
8.94803
8.76366
4.25826
1.77244
8.09582
9.01886
9.4975
8.72967
6.20402
4.57848
9.42174
1.77028
8.36734
3.29128
1.76157
9.39805
8.70956
1.77542
2.3535
9.59958
5.35275
5.19929
4.58956
2.10175
1.85456
1.90905
8.72158
0.687083
1.91387
1.61701
8.80538
3.15366
8.73315
4.17635
2.00312
9.89828
0.481594
1.91356
2.08821
2.48979
8.84911
8.34707
6.86951
8.48797
1.92491
8.8142
0.582584
1.90511
9.05331
9.45423
8.20231
7.56488
2.75807
8.82348
4.67451
7.82264
8.09209
7.1239
9.00267
9.82925
2.3438
8.89015
2.11042
7.68072
1.90933
0.56246
9.30168
5.69938
2.32751
9.13374
8.68226
1.46761
9.6389
1.47546
1.38122
9.51148
8.85016
3.30503
9.21395
9.27022
9.90182
0.556043
8.06393
4.28025
9.8234
4.16162
1.00919
8.9159
1.00307
1.05339
0.628533
7.63463
9.34999
2.09579
0.390622
1.02747
1.04256
0.655952
7.48577
3.80509
9.49032
0.111156
0.715619
9.40059
1.04086
9.81291
9.54322
9.73901
9.86708
9.33267
6.18452
9.73005
1.00439
5.02658
9.81547
4.8198
8.91903
0.710554
9.12227
7.43682
8.89372
4.01558
6.4277
7.80599
1.08703
0.710493
4.15024
0.630217
1.10647
8.45806
1.08717
2.65657
1.11445
9.81855
2.35239
7.58657
1.12875
3.70911
7.68256
9.78716
8.76109
9.06255
4.2035
9.32133
8.6232
0.706516
8.79164
5.16359
9.13168
9.78392
9.42057
2.60425
4.38967
1.21491
6.59154
0.58084
2.23105
2.10531
2.6743
0.833995
2.09768
2.19135
8.89595
9.71728
9.89929
3.3121
2.30309
8.97967
9.41867
8.67327
2.1118
0.854947
9.27494
2.19099
9.55121
8.02735
4.21804
6.8465
9.39094
9.50866
2.62599
9.43582
5.61987
1.11531
8.85246
2.94705
3.71503
0.452911
9.08022
7.09731
8.77507
5.38135
4.27714
9.40788
9.76003
1.07508
8.65086
9.67037
1.3921
0.516932
9.4828
9.08904
8.75014
2.12849
8.63174
3.34338
6.22121
5.28188
9.50303
8.70931
6.08637
9.51946
9.58247
9.61924
9.3159
8.7699
8.88494
8.8595
9.12558
8.89885
8.88158
8.82233
8.8692
5.61876
8.86138
8.67406
8.69045
8.84556
8.7244
9.5075
6.20431
8.71103
8.87142
6.36141
8.80441
8.83942
8.89406
6.22532
8.83566
6.19991
6.86314
5.28127
8.83455
9.26979
6.18401
8.02473
8.99558
9.82025
3.3045
8.8102
3.2855
8.80127
9.62172
8.77123
3.28044
3.25445
9.58403
4.78799
8.89652
8.71257
7.43375
1.68549
6.18914
9.83613
3.29161
8.70702
5.17405
9.34312
9.09575
9.26227
8.68268
1.68652
2.05621
9.68924
8.05578
9.1155
9.11469
9.11195
9.33189
5.82162
5.83674
2.09981
8.02792
9.89846
4.23706
3.35748
1.54328
5.82749
9.82219
1.65466
5.79614
2.98237
8.03307
3.11618
9.03795
3.99462
5.91384
3.32596
5.94102
6.2362
9.04932
6.29577
8.96712
9.5216
2.72509
9.69153
4.20291
9.61309
9.01016
8.89678
9.08538
9.75594
5.92842
9.05873
4.91311
8.82369
9.6477
4.10118
5.67703
2.20626
4.75082
9.73082
8.1699
9.69666
5.19418
9.00847
4.09998
5.80382
5.89169
5.23807
8.98219
8.9825
8.97179
1.78569
9.64981
9.13913
1.7856
9.02078
9.20831
5.87309
8.97894
3.20452
8.00166
8.83192
8.81957
8.80043
2.10085
3.53808
9.32003
0.0676314
5.08362
8.81744
5.98702
9.64098
1.82698
4.16021
1.56533
9.28004
4.38681
2.28615
6.19927
5.74799
4.86358
9.41302
9.46589
7.58429
9.17532
9.34622
9.56728
1.84393
6.01406
2.40215
3.81193
8.77502
4.37775
3.33666
3.58104
4.31245
4.37884
5.50641
4.816
9.41569
9.40142
9.40555
4.83147
9.65756
5.11716
8.63648
4.8338
8.06758
1.85145
0.899762
9.21928
9.58301
4.84755
4.81594
9.51944
9.46767
9.85927
1.99574
4.8142
4.98357
5.0294
0.47826
3.33539
9.17293
9.71998
9.49287
0.382806
3.20802
0.0511847
3.63597
2.07475
5.04646
8.91688
9.48957
8.70026
9.01113
0.501987
4.29564
9.4507
9.04481
8.89177
9.81053
9.87438
8.86707
5.2333
9.25317
6.41368
8.02055
9.14521
5.12849
0.147855
1.94653
9.63881
8.8972
5.20853
9.42744
5.22896
8.12328
2.11561
8.85646
8.65012
9.36406
9.24756
9.18565
8.85782
8.34667
9.06074
5.24818
2.39666
9.49383
9.47864
5.3494
9.16101
9.55205
2.90909
7.84035
9.12205
9.11568
8.9159
1.07822
9.44118
9.45705
8.25446
5.37113
5.35372
9.29656
9.13881
8.78265
5.37048
5.31849
5.35719
3.78614
9.29131
0.892598
0.179538
0.22215
9.81902
9.7536
9.49635
9.80291
9.44284
2.90504
2.97916
2.39089
9.82448
9.62924
9.43138
9.58375
8.8852
6.5353
0.328469
0.0832625
9.08214
9.40392
9.82243
8.06588
6.10524
7.03758
9.58475
8.10778
8.82959
9.04503
9.46036
2.8959
3.21723
9.13869
8.99486
3.95679
9.46362
2.12631
2.64205
8.37222
9.129
9.01691
2.1334
6.57942
8.87249
8.37266
0.290292
4.25829
9.2599
9.15735
9.80803
9.48588
0.573137
1.46921
9.15976
6.59919
5.65487
8.10442
9.32281
9.17539
9.14741
9.16004
4.37403
8.80817
9.33391
8.96901
0.967294
4.95965
1.19825
8.94805
9.76703
5.66117
8.86827
9.47202
9.18507
9.25729
3.09071
8.90183
9.21259
9.21767
1.1927
3.22155
9.17116
9.67477
9.07772
3.74596
8.79384
9.03247
9.08518
9.7018
9.64049
7.95856
4.33988
9.89522
3.42725
4.31095
3.00445
9.84147
9.79042
9.39572
9.81182
9.1983
4.09391
9.32097
8.70069
8.82967
5.67373
8.79481
5.64179
9.44788
9.64872
6.79812
8.12065
8.8251
5.69442
9.31152
5.66906
8.8645
9.06753
9.14955
8.8707
9.11886
6.4774
9.13398
3.61886
9.7003
8.78089
9.64237
9.17474
1.12899
5.20202
9.39294
8.4008
9.88234
5.81012
6.4795
5.1945
9.89842
7.92638
5.18527
6.54164
4.3973
8.03239
5.25312
8.88132
9.24417
8.07896
1.80865
5.20802
9.02486
8.85412
8.73338
8.41666
9.8537
9.09939
9.68531
9.80421
9.8861
8.78296
5.14134
6.89233
2.4051
8.71924
7.29196
9.68578
4.15423
9.49996
9.86841
9.51895
8.86726
6.90102
8.91782
9.88992
9.31239
3.55416
9.34691
9.5818
6.76968
8.89014
8.59068
8.53186
8.50742
9.81041
8.52426
8.50791
8.52148
8.57213
9.26685
9.26712
3.52752
5.4227
8.79259
8.69244
9.32047
3.58027
8.88864
8.92778
6.84069
9.1957
9.42115
5.78718
6.89629
9.87469
9.14882
7.35235
8.76999
9.02555
8.02091
3.85362
3.74459
8.93196
3.80035
9.74735
2.35166
7.93826
3.78025
9.34381
7.93858
3.79598
8.88295
8.05568
9.06339
3.56252
8.82529
3.52453
8.96502
6.47359
9.08979
8.9655
9.69621
8.07277
8.08849
9.75251
3.88026
6.47342
9.89623
9.33301
2.92563
0.144382
7.87892
9.82761
3.99486
3.9325
6.80616
8.05103
9.88164
7.89305
9.2239
7.61189
9.50022
8.09527
8.08418
9.07028
2.45152
8.98218
6.72627
9.39875
9.07142
9.12592
9.50517
9.16959
9.48704
5.40863
2.95214
7.57346
9.11045
8.6854
7.54752
9.13823
9.89743
9.01991
9.8328
9.07273
0.114542
9.3427
9.72654
9.23642
0.103588
9.09938
9.44174
8.85581
0.553993
9.51551
0.568647
7.97885
5.28916
0.556479
0.596796
8.89911
9.13727
9.37237
0.559041
1.22141
8.95513
8.70247
0.607762
9.56718
9.75096
7.53536
9.06281
3.92754
9.11868
0.613144
6.72058
9.12836
9.25774
9.12501
9.6912
9.56211
6.73771
9.13819
0.626034
9.00071
9.27512
1.38764
9.71509
4.16889
8.90913
9.57935
5.46996
2.45291
7.60802
9.68779
9.70322
9.38737
2.44283
7.31957
8.98134
9.44069
8.88609
1.51829
9.12853
4.20293
7.58664
9.26424
9.18626
1.54341
9.4886
8.85172
9.51513
8.88883
9.60729
7.5923
8.67034
9.02989
9.64349
8.69598
9.19498
8.70922
9.02976
9.09914
8.90039
2.46183
8.89703
1.50226
8.86254
9.16182
8.01419
1.51889
9.13051
8.88693
9.16803
1.47175
8.78552
9.32832
8.9421
9.15912
1.6607
9.12596
7.70592
9.86234
5.08481
8.79439
6.12548
9.0178
9.55059
4.83013
8.7505
9.11735
1.21429
4.97819
9.79732
9.68596
5.4488
6.25622
1.49338
1.50587
1.52154
5.46154
1.48299
6.36532
8.965
7.71946
8.69986
8.69536
9.29774
8.97115
9.53362
1.46823
9.82548
9.88646
9.79731
7.20815
6.33481
8.66887
5.74998
9.72623
5.87709
8.9956
6.87091
1.60489
8.69893
4.98359
9.00416
9.04719
9.40021
1.64815
5.11541
9.38063
9.56707
1.66597
9.6855
7.81272
9.49781
7.36174
9.46752
9.39776
9.78149
9.38742
1.31802
9.38566
8.12831
9.69963
5.2513
9.29973
9.20318
8.56047
8.54368
9.17282
9.2243
9.49529
9.74068
4.97436
7.78349
8.62259
9.65811
5.10705
9.30996
9.65081
8.04907
3.84195
7.14865
9.41019
0.907385
5.43233
2.61331
4.08754
9.51264
9.88503
9.88545
9.70908
9.42681
9.38983
9.38934
9.02578
9.41042
9.38983
9.43982
9.37271
7.36442
9.40013
9.16529
8.87195
9.70993
9.30654
8.40334
9.29239
9.22531
4.09664
7.61586
9.03903
9.8665
9.42556
3.56607
9.84844
9.48941
7.5826
9.54363
9.13454
9.56169
9.64471
6.85894
9.49147
7.88497
9.6494
9.56681
9.23886
9.31358
9.19496
7.6047
7.64953
1.96616
9.7227
8.94158
9.75617
7.65162
9.12609
7.63578
7.64152
9.52724
8.85216
8.67755
7.92171
9.05645
8.79693
7.91402
8.70006
5.5935
9.67062
6.47057
8.69378
8.59804
9.44558
4.91309
9.56062
4.95431
6.84724
9.07113
4.97449
7.77853
9.47472
6.90015
9.19679
9.09135
9.15355
9.07378
8.92145
9.35454
9.12334
9.81928
7.65345
8.80783
9.34972
9.55482
9.08784
9.03899
3.60187
8.47315
7.74277
8.10036
9.13797
4.67506
4.69295
9.38984
8.80897
8.89364
8.99059
8.9978
8.96753
8.72678
8.78227
5.88895
9.265
9.83365
8.61562
8.6724
9.44191
4.89968
8.92933
9.09098
9.69625
7.24782
9.80196
9.30154
5.52688
9.50298
9.86691
8.86975
9.87143
5.56729
9.28743
9.25246
9.20355
8.87042
5.92922
7.24577
7.23168
4.90891
6.25616
6.28187
9.56835
8.75255
7.93538
6.10525
8.75352
7.92615
9.65534
8.09743
9.06632
7.26728
9.3543
9.12739
6.28692
8.05828
9.07398
6.09258
9.33531
9.5126
7.27035
6.88556
9.72009
9.35114
9.01403
9.41672
9.18839
8.74012
9.72847
9.50746
6.06806
9.73787
9.45818
9.31302
6.29689
9.13568
8.74143
9.47191
9.37558
8.85761
8.75741
6.29681
9.09387
8.77832
3.66985
9.6992
6.0994
6.02141
9.18331
3.79565
9.47464
8.90349
9.59834
8.79892
9.71416
9.85014
9.90249
9.85595
3.73841
9.76096
9.59022
9.76251
8.89078
9.33781
8.87935
7.36929
9.44916
9.66581
6.88081
9.38508
9.43921
9.89383
3.69296
9.25965
7.23202
8.75901
8.05969
0.434395
9.41243
8.75647
3.6242
8.72782
9.4017
7.79297
7.91969
0.0266326
6.62995
8.10311
8.11185
9.76199
9.05307
4.5629
7.42651
7.19395
4.43368
8.03634
9.68167
0.810792
4.56695
4.55292
9.89917
4.5418
0.684963
2.59779
4.31471
7.41439
4.73224
0.959279
4.23134
0.153964
1.92241
4.33222
8.74389
0.108194
0.0338421
4.92794
5.74553
0.23046
4.31468
0.157932
8.74374
7.55352
8.73895
2.30598
4.58139
5.84992
3.43017
8.74596
9.42883
4.23152
3.46035
7.46692
7.22582
1.17229
4.58827
8.5288
4.60192
9.4475
8.13468
7.48597
6.59252
2.62259
7.53866
7.68998
5.28924
3.25196
3.28934
2.36171
4.62098
0.108401
8.62726
8.62411
4.63319
9.16746
9.438
4.38156
4.42884
0.354549
9.21494
6.69781
6.899
3.15875
8.58543
9.44618
7.5588
0.096729
7.50096
9.88625
1.13923
9.55957
3.40767
5.227
6.39961
6.45231
9.19886
9.4709
6.98522
4.44831
4.43606
9.48219
3.57694
4.46627
5.76552
9.5367
3.21418
0.257756
8.71516
2.61887
8.133
7.14447
9.03528
6.80404
8.01396
9.46868
5.52093
0.487227
8.32597
5.62701
5.62107
1.00377
4.88966
5.70328
0.350467
7.55185
7.22924
5.34406
0.898035
4.75648
7.72288
3.43742
5.6545
1.93357
4.33248
7.72635
1.01874
9.51231
5.62428
5.61067
7.33226
1.3679
6.55493
9.03969
5.60173
2.60924
9.53393
6.69246
0.112964
5.63912
5.43235
0.655142
0.130696
4.82994
5.4388
6.74526
9.52638
9.42916
6.77954
9.80065
6.79746
6.5974
8.91047
0.669175
5.78126
3.5896
9.76149
2.60755
2.98043
6.68186
7.5066
2.93188
1.26025
3.62965
6.10289
9.44085
9.08619
7.32641
6.08688
6.67077
3.79792
9.08606
6.13867
5.22773
8.90007
3.59883
4.62453
0.341168
7.95654
6.30063
5.27043
1.07413
4.0186
9.79649
5.63498
2.87595
5.35992
7.91506
9.09144
6.35504
8.94965
9.37343
3.02263
5.22674
3.28004
8.08793
6.93392
8.39325
9.45849
5.23425
5.24108
3.34832
3.34507
9.12595
9.90018
9.88461
3.36778
3.35519
7.90923
2.57638
8.88297
9.10859
3.36195
3.73464
6.49323
3.34043
3.33623
4.015
6.27037
8.53875
9.26665
5.13639
0.362038
9.10272
4.83939
3.98851
8.0118
5.1078
4.00001
6.74498
9.10542
3.44679
4.14837
9.77693
8.89377
0.216942
0.336292
1.40401
0.575462
4.00789
4.04024
0.977744
2.57455
3.69646
0.573362
9.08148
9.05958
0.0225921
0.63961
3.996
7.75927
3.87721
3.81999
5.31637
3.25619
3.85529
9.34209
9.77447
7.72134
9.06557
8.75965
4.18886
2.65128
4.1059
7.55212
8.78586
6.37211
7.77466
8.82436
7.79515
7.83964
3.84841
3.87842
0.253772
4.48468
7.4671
0.65261
9.4
8.82206
7.10977
1.2495
3.35389
1.29066
6.68862
6.04333
7.35066
8.83097
4.09375
0.863632
3.55778
7.79115
6.35389
7.18488
7.84949
4.11618
0.932633
8.80688
5.8364
3.94842
8.37465
8.75831
8.70518
3.55642
8.74221
0.195952
3.5416
3.31932
4.48185
6.97795
8.54063
8.39642
8.8377
8.66253
6.75801
9.39978
9.40106
8.10228
9.4178
2.5888
3.4517
3.17634
2.42408
2.56897
4.5955
8.65009
1.23534
0.53728
5.98497
4.34767
2.41538
4.08647
9.43968
7.84573
2.36642
5.42035
9.40508
5.49511
4.27383
9.39545
9.14828
6.64496
2.33663
9.59458
4.82624
4.34717
6.65359
9.65438
9.38646
0.375775
7.77653
4.53736
9.41786
9.73415
9.39553
5.22719
8.364
8.39345
1.62973
7.88719
9.84997
1.62321
7.87076
3.67412
0.417188
0.394416
1.75889
8.11005
0.451548
9.89485
1.85187
0.95033
0.141049
2.95077
0.684455
0.665198
0.701655
0.749443
0.166822
6.89486
8.06218
4.03947
6.75331
7.4961
8.0152
0.731904
8.0381
0.736209
0.168487
2.13757
1.29976
6.65184
1.28846
8.09754
1.51911
8.83519
4.13238
8.4479
3.05453
4.60023
9.7788
5.65666
8.84201
4.80933
8.85439
8.91328
3.17215
5.79897
8.74088
1.25097
3.34592
5.77947
9.11132
9.69616
6.73007
1.83704
7.73423
3.02921
1.0042
5.64696
7.24796
5.36947
5.68507
8.67989
4.09606
9.46072
8.93819
2.28148
1.64265
7.61371
2.18657
1.44933
5.6694
5.88286
8.95926
7.33258
1.41988
5.60128
8.94068
9.78912
4.11083
4.81744
8.66893
6.59072
0.121357
4.9567
0.388881
1.17654
3.06098
9.1509
8.50977
2.43463
7.11757
9.89619
2.28786
6.60249
5.20287
8.11483
2.43195
8.09584
4.11159
6.84264
8.58131
7.00005
9.28242
4.75712
5.7511
1.12008
0.0594387
8.73377
0.0846693
7.15145
5.44536
6.95073
8.71295
9.3895
2.56039
7.04867
5.45902
4.70824
6.54056
1.84917
0.348584
3.54007
0.39021
0.269015
6.62831
8.77197
7.66583
5.38614
0.0265393
6.45632
8.77356
9.23155
8.03323
7.55541
8.86573
7.58212
5.98965
8.81683
8.59516
8.57975
5.87104
2.38446
8.08954
8.6019
6.56638
2.71211
8.83631
0.57197
8.68486
5.19778
1.85783
9.64632
0.541058
6.48411
6.48329
1.64829
9.31342
7.8581
6.21773
6.93622
6.4712
6.7363
6.90689
5.89953
7.90813
6.08429
0.959033
2.42164
9.08272
8.72006
8.66115
8.88272
5.56787
2.81481
2.46331
6.50031
1.41422
2.48749
4.94736
5.78956
5.53948
1.79537
5.95383
6.50892
5.22382
1.32014
9.3237
6.4508
6.44386
5.65438
5.9982
8.85263
3.33086
3.4092
4.66383
4.67599
3.74289
9.03273
3.70085
3.72454
8.73286
3.76716
5.34202
8.88974
3.76591
8.86545
9.89756
3.33568
5.81152
5.36674
3.72489
9.20533
0.576721
6.00552
9.88959
3.01603
3.84662
3.15494
5.48892
8.86364
5.82625
5.80451
5.06912
8.89159
2.64229
1.0009
5.17682
2.26859
2.85964
9.73608
8.92634
8.79361
0.184021
8.82995
2.57564
2.14125
0.695557
8.92119
0.783223
8.85836
9.32376
8.86648
3.1681
0.0817124
7.82265
5.17199
2.76843
8.7253
8.68758
6.5623
6.45825
2.11416
7.47497
2.78891
7.89642
9.30445
8.6028
8.59738
9.33175
8.60584
0.111616
9.42922
2.57489
4.90871
2.78486
0.531923
3.32312
8.71975
2.18553
4.91231
5.74105
6.80172
8.73426
9.26375
5.94622
2.17628
8.03339
8.03061
7.38669
7.67146
7.92203
7.86014
1.63459
0.365938
1.64485
8.04335
1.60914
4.93618
5.31755
1.08369
1.61067
7.37201
8.0682
8.02373
8.04646
8.05426
1.12083
6.87157
9.86418
8.05648
8.08467
0.603946
0.358326
0.130323
4.94323
3.70631
8.08049
0.389862
7.57246
9.1127
2.59063
3.54774
4.03261
9.11986
3.00186
1.66082
0.41472
3.63201
9.83655
9.04232
5.39366
1.02432
0.979104
0.196843
8.87927
9.53188
9.58472
4.01778
4.81376
0.920883
9.51465
2.65599
9.02753
8.99831
0.396262
0.278517
9.11755
0.931185
0.956563
0.191594
9.88214
9.67423
1.71204
4.94296
9.02359
0.844137
0.753617
0.77012
8.98424
8.9786
8.99665
0.770822
0.846866
6.53414
0.751656
9.83614
0.701553
4.65474
6.59212
6.01865
8.87369
9.25241
0.670874
6.9702
6.78593
3.39527
8.89356
7.82605
9.44734
1.14225
7.43612
4.70533
8.90859
8.7603
7.05306
7.29242
8.73809
8.75118
9.47605
3.04867
8.81709
8.72993
4.87734
4.7714
9.46879
8.71104
4.14601
0.718092
0.740819
3.17001
2.66063
8.72071
4.93719
8.67212
8.66997
8.75983
3.34991
5.49113
0.753858
8.68757
8.7961
4.75994
7.3789
5.04704
5.54654
4.36431
3.78894
4.31662
0.724633
8.68095
4.67664
3.45954
0.733426
3.11389
5.51369
8.54269
3.08523
3.08885
3.07793
3.08266
1.04637
8.66122
8.84145
3.58788
8.82773
8.84104
4.32995
8.84345
2.56883
8.8241
8.83964
8.89662
8.75436
3.4246
1.11624
3.44469
8.78026
1.63516
3.26572
4.64301
8.80877
9.51106
3.42832
3.64947
7.65516
3.43455
8.79689
0.0356467
0.728597
0.581935
9.21766
8.88123
2.02494
1.7089
8.89711
8.83132
6.39928
0.0494495
8.7949
7.05653
6.38614
6.40118
3.79615
8.82988
4.32138
8.2139
0.371772
0.0773397
6.40658
6.3385
5.85451
2.40902
4.4086
8.75725
4.94466
4.41177
7.62969
6.91024
6.39711
8.77154
3.02246
4.50457
2.52498
3.84477
4.45065
7.44824
0.292501
6.77259
5.92988
6.40967
1.78893
6.44041
6.76334
4.38815
5.3925
8.85895
7.94217
9.88696
4.35156
4.53838
6.45572
6.78263
6.19778
4.41824
4.42408
7.17292
3.42264
1.13511
9.15284
8.67001
6.78287
6.78968
5.2513
6.77338
7.57433
7.06148
7.56689
7.53073
8.68839
1.10313
7.54703
8.21386
8.68031
0.114352
8.65073
3.36271
4.42256
7.96568
2.99413
9.87665
4.27084
7.5375
0.518461
9.41831
7.55535
0.964128
5.79945
7.5198
7.52909
8.67989
9.37585
3.10282
4.66374
2.45955
4.66026
4.19243
4.73568
7.64631
8.7465
0.117673
8.7345
4.69445
1.10755
5.01672
9.63074
8.64046
7.05607
4.7118
3.39422
5.08364
9.39996
5.02911
5.08676
0.133125
5.07539
8.42748
8.34377
5.03058
9.2893
9.24153
3.00295
8.38396
6.98588
9.69154
2.249
8.75532
7.99109
9.74359
1.39524
6.69189
7.90563
5.0499
5.32205
4.56017
6.4216
7.74868
0.405414
7.91473
2.80244
7.86215
8.89768
1.60953
9.18812
5.32967
5.40022
4.23606
3.74493
5.29242
0.111064
3.3146
5.27892
5.148
8.11712
6.26442
7.05678
8.75943
5.27038
1.17022
8.02579
1.08342
5.30166
8.05012
1.62735
7.46543
4.71747
8.05651
4.74863
2.8524
5.35057
4.30258
9.24282
9.2135
4.54319
4.6351
5.85444
9.48918
8.05689
0.327945
4.40864
3.33305
2.0939
3.50691
2.98468
4.61932
0.0129823
2.62388
6.21684
2.20519
4.01002
3.58556
3.28657
6.20603
5.28814
2.18133
8.10274
4.9514
8.11757
1.9212
5.619
8.09416
2.4709
0.0183037
3.51899
4.62748
1.96681
1.62489
9.07058
5.51308
8.09474
8.0624
8.3685
5.52263
8.69439
3.02928
5.5151
0.766246
5.92567
9.07577
5.37582
6.25814
0.149135
5.61326
8.12235
6.19956
9.39433
3.62222
0.467052
5.96244
7.77901
8.20229
9.07108
9.43233
8.24146
8.76956
6.2157
9.18752
7.96161
8.17681
8.69556
8.73675
0.415849
8.74885
9.43121
6.19694
3.49284
9.7065
4.18075
3.16498
4.38457
8.10099
9.43317
7.14464
6.27847
5.94376
8.16626
9.4473
7.56408
6.06672
6.82968
9.38228
3.56232
6.02784
9.05312
3.12359
9.33635
8.87066
7.59078
5.96779
9.51606
7.57813
7.49147
7.6017
7.45802
5.13131
7.31576
7.26795
5.39897
6.19968
9.82292
2.8399
1.00217
2.15556
0.302815
7.42272
0.949059
3.07654
9.53278
9.16445
4.75818
7.43694
6.14516
2.89813
6.15595
3.28602
0.331632
9.45953
0.0236223
7.31817
0.82285
6.15654
1.9319
9.53014
7.1215
5.40278
7.12843
8.23199
9.50221
2.70153
9.84811