/*--------------------------------*- C++ -*----------------------------------*\
  =========                 |
  \\      /  F ield         | OpenFOAM: The Open Source CFD Toolbox
   \\    /   O peration     | Website:  https://openfoam.org
    \\  /    A nd           | Version:  10
     \\/     M anipulation  |
\*---------------------------------------------------------------------------*/
FoamFile
{
    format      ascii;
    class       volScalarField;
    location    "1.3";
    object      p;
}
// * * * * * * * * * * * * * * * * * * * * * * * * * * * * * * * * * * * * * //

dimensions      [0 2 -2 0 0 0 0];

internalField   nonuniform List<scalar> 
111485
(
37.3605
12.9539
15.0464
36.8655
15.5713
36.2317
13.1933
11.469
13.229
19.5171
13.0656
16.823
13.3071
12.9486
13.3722
13.5907
4.28272
35.2808
13.195
36.6767
36.5454
36.6388
13.3695
13.4385
15.517
35.7433
18.7205
7.34078
15.0094
37.6755
25.9147
2.98888
36.9718
37.8387
35.174
38.6665
25.6577
0.724073
30.0032
13.7698
38.3489
19.5218
13.7576
22.6679
28.8296
38.7549
21.4124
13.3978
19.4739
35.6492
35.6703
34.8264
35.6562
23.1141
35.6452
8.29333
13.3701
38.7224
21.4349
13.7463
13.7837
37.3473
10.6692
25.331
35.1199
9.36932
32.9058
12.2154
10.7659
11.5365
27.6854
9.67241
35.049
10.7347
38.2527
5.5453
36.9151
18.7438
36.6329
35.3115
26.4013
22.0368
37.24
38.0655
10.5952
14.1835
31.2013
23.2171
26.8801
3.93225
28.7951
14.2126
10.653
1.54727
19.5473
38.0332
37.3878
23.1727
29.4084
24.1657
37.1862
18.8383
38.3585
18.4711
12.547
35.2325
38.0278
3.4827
14.5213
28.6636
2.37342
9.60652
14.1824
17.5222
35.734
5.21358
35.9122
38.7415
10.8501
36.6962
35.7272
34.2593
37.2353
38.7403
20.3762
35.4492
34.2744
4.02585
38.3937
29.8714
25.7751
23.1305
38.1951
34.1543
34.3939
12.8784
37.0093
5.52753
11.8213
11.9381
19.7793
11.9556
11.9285
14.8686
20.7946
0.511413
36.9916
37.9514
38.3258
12.5907
14.9139
36.575
25.9317
0.0433963
28.99
12.4992
12.3606
13.2449
29.05
38.6369
36.8686
12.4614
14.9561
29.1154
29.0943
4.84158
24.828
38.6789
29.1735
29.1691
38.333
37.876
16.2122
37.599
0.894907
0.166656
35.4766
35.076
35.8046
35.3038
35.0773
36.8316
12.6086
12.6409
12.5041
0.0815221
18.7627
6.6562
25.531
37.1337
5.82936
35.1029
37.4537
6.70959
19.4632
24.6956
8.87597
0.724716
38.246
12.6663
14.7247
33.1669
21.9595
3.80815
38.4767
6.75134
17.9016
35.0556
24.5734
21.3258
14.7938
6.59819
35.0328
37.5093
6.65565
33.1016
23.1698
37.5366
6.73761
5.7393
19.8388
38.7691
7.49026
24.2083
33.7685
37.5817
38.3658
27.5542
29.0365
35.1264
34.5066
5.7913
1.48763
9.59246
35.1088
35.1669
25.296
38.3468
12.5571
5.76144
5.80451
5.76591
5.80504
38.4193
26.5891
4.56727
38.5363
37.1761
23.2341
9.65144
35.1249
2.87514
4.28939
37.9155
34.1032
21.7082
35.6597
34.9966
34.1691
36.1839
5.03463
5.70626
0.455981
38.7985
4.38156
36.9327
37.315
38.4137
25.4805
18.8186
10.1291
10.2706
17.5481
10.1524
10.3612
26.5716
1.46354
1.52489
35.5065
37.8734
26.7808
3.49922
19.8226
1.82433
36.7636
10.3032
12.6606
10.1006
17.8592
26.745
10.0524
10.223
21.9205
38.7589
18.6795
37.6055
35.4199
34.9699
27.5301
17.6147
13.6325
36.0152
38.7014
7.9546
2.49985
36.5148
37.5649
35.6877
5.6821
1.5419
12.3238
12.9071
14.0133
34.7377
38.0888
38.147
7.97683
31.9601
13.7212
27.0086
25.2026
37.1918
37.3131
37.3759
34.3741
8.5867
15.4121
38.7335
8.46815
35.0482
35.6913
23.6684
8.52782
17.3512
8.40526
35.1789
34.3741
38.4548
8.49772
0.434993
26.173
35.6556
30.457
26.2208
15.6369
7.55035
30.5947
14.1027
36.8608
14.1164
8.67409
26.758
23.5949
15.7938
37.9544
38.1568
38.1973
36.8874
12.1829
7.34782
17.4645
14.1107
37.7944
16.4933
38.1096
37.381
14.1073
35.3382
34.0627
38.705
38.7606
12.5206
38.7494
0.335206
16.2859
36.6482
11.3148
8.94706
35.1793
8.77364
16.6219
8.81377
24.6581
0.70852
1.61409
35.2251
37.9305
22.5645
38.586
17.1741
23.9933
35.3342
38.539
8.35251
16.9901
1.44474
16.3322
36.9441
25.8873
16.813
36.0853
22.6628
17.0742
37.5233
36.7744
0.33932
15.5543
38.5959
35.9334
33.4076
37.1704
15.8964
37.5461
37.0819
16.9006
25.867
20.8069
15.5286
36.2828
34.3671
22.6611
34.4928
22.6627
22.7493
19.2926
32.9916
34.5538
2.56356
28.8933
37.6504
23.6499
16.3745
38.792
29.5365
19.756
34.5006
17.355
16.8317
0.795487
36.4202
0.803723
17.7807
0.75861
28.0553
34.2945
28.8074
38.2386
25.9165
0.67337
38.2846
17.3601
21.5924
34.1475
38.7647
34.7398
36.5402
15.603
0.754773
17.148
17.2591
24.4913
37.6015
17.626
37.3736
15.562
35.947
37.3747
37.8425
17.302
37.9984
37.5031
35.1984
37.3992
38.44
21.6963
38.7596
34.7477
38.1421
37.5583
36.1996
38.1836
36.7452
17.432
38.1735
21.9066
17.9034
28.966
35.9252
21.8731
38.1624
37.332
17.2832
17.1602
17.4081
27.0439
34.8177
19.9747
20.0133
1.06966
1.94267
17.8398
37.829
1.1225
34.1353
20.2021
37.7078
20.1979
34.3088
2.20758
17.0942
34.9952
38.1817
1.98984
36.4139
19.9688
20.136
38.4959
38.1282
35.2192
38.2346
28.8254
19.9178
35.5482
38.6568
15.6257
36.6465
20.0378
36.8498
21.0675
37.3685
19.5562
19.9614
8.64906
2.12853
35.7295
0.490714
35.8545
37.7355
18.3693
37.7335
19.665
35.2411
20.2422
37.7285
18.3642
36.5046
34.5457
29.0081
18.5329
19.9638
18.473
20.0493
17.0201
38.3037
20.0319
18.486
37.4446
27.3015
25.2012
20.0133
35.4736
34.7806
15.4273
20.5559
32.1193
34.6406
18.4722
15.4571
18.7539
18.821
2.0893
31.3615
34.468
28.83
31.7724
36.9443
19.857
38.6007
34.6008
3.91104
31.3305
28.9998
30.6242
34.485
18.9446
15.5073
35.8548
34.6232
15.4428
36.0332
36.5955
36.7458
35.8239
18.956
38.1014
38.4656
19.0949
5.92199
33.6911
15.4642
34.7513
5.83004
35.6434
38.3652
19.0695
37.6909
35.9784
34.5784
0.497082
32.9252
19.5863
3.95925
35.9405
28.953
19.6737
16.0622
24.6792
29.6214
15.7175
37.7747
19.5135
16.0075
38.4721
9.09647
21.9983
16.4197
0.516452
16.4985
16.4419
38.1983
19.9884
24.5907
34.5088
16.4807
20.0722
33.0411
3.93463
16.4411
20.1453
17.3683
17.4761
3.96022
35.3982
17.4963
19.737
35.0381
18.6786
18.7176
4.22582
37.762
0.434936
38.5615
37.0737
37.9293
35.8302
15.9924
34.6161
28.8859
37.4578
36.2175
18.715
18.7988
36.3952
20.0866
37.3471
38.4181
35.6897
20.5424
19.9161
34.5821
38.771
37.6736
37.8323
25.2598
4.24125
34.4437
18.3178
28.8581
38.4971
18.3107
21.3349
2.14752
36.479
37.5493
9.46437
4.15684
34.5328
38.2879
35.4139
6.97475
37.9011
35.9601
37.4766
18.1418
14.3292
36.6739
35.0153
34.8855
2.15518
38.6324
36.1157
20.6813
25.3624
34.4948
33.5228
30.3201
21.0797
0.110009
35.1854
15.3783
21.6592
38.7677
35.6142
37.053
37.6031
38.1576
36.7704
18.1781
37.3286
37.033
35.5486
18.2285
4.12771
35.6654
35.6135
21.1551
4.16945
4.28161
36.0956
37.0887
4.20935
37.9866
18.3764
4.17314
4.33446
35.7079
37.1634
37.1619
37.9142
15.5632
37.1843
36.8605
23.0921
37.1167
7.34169
21.5431
35.3487
4.00649
34.712
7.33246
19.0816
19.7684
20.935
28.9672
34.6891
7.28015
21.2036
0.100166
35.1437
28.5873
34.1922
1.20872
37.975
21.8328
21.3456
21.8091
35.0418
37.2333
38.7909
4.17669
34.8037
2.84904
35.0444
13.9871
1.1258
2.97672
4.2011
36.7862
35.7479
35.044
4.26674
35.9753
34.7501
28.4352
38.6393
38.6179
37.1371
37.0785
3.04879
35.2332
37.53
28.7276
34.7559
38.6805
34.304
37.4213
21.8
2.93743
36.596
15.6979
30.547
21.8551
29.1397
3.67508
38.2235
19.2488
24.92
21.9193
38.1184
28.7395
3.05846
34.1387
2.8539
27.084
28.0105
11.4132
2.02313
27.4834
0.527063
2.63657
37.9314
35.7456
2.00148
1.99463
38.4557
2.03084
17.1542
2.59226
35.5904
27.7803
37.9853
2.75973
2.63982
36.3731
1.35529
2.56541
27.8897
0.780134
35.4981
12.3027
27.9432
29.5325
27.7365
23.6907
37.8139
37.9834
23.1394
37.0386
17.6078
23.9674
33.9845
29.3159
29.1015
29.3483
37.077
34.105
6.2803
38.3869
35.7172
23.5933
35.8778
36.2282
29.1369
28.8113
37.0583
28.0271
37.5861
37.6757
38.456
37.3883
35.5565
37.9513
23.8657
35.7287
38.3317
38.4927
29.0848
23.5515
14.566
6.22414
36.4661
35.9922
24.6742
37.3713
36.2206
33.6226
24.1464
8.14704
36.5252
36.1689
35.8789
36.1178
38.2369
36.02
24.5319
35.9766
28.0132
14.0432
37.8201
37.2525
35.5902
27.9879
35.6133
36.8839
37.8661
28.2678
38.0596
24.4854
25.5633
27.7218
36.7063
33.0355
24.5615
13.5297
35.1315
28.1202
20.3242
35.9849
35.295
34.2029
36.1531
6.27182
12.1888
25.161
28.5471
36.4127
6.23943
35.2218
34.4549
34.1961
38.3682
11.0352
37.469
35.563
26.0617
8.14702
35.5686
19.7914
35.0073
25.2039
35.3071
37.7108
38.1744
37.0632
2.88076
12.0618
29.6887
36.4891
35.4849
2.94724
37.0624
34.6719
37.4126
18.1182
28.7286
15.5533
35.9856
26.3582
26.1868
35.3184
26.2417
35.8285
22.7958
20.4581
11.8347
26.2111
26.1877
37.22
37.6179
37.633
26.2237
38.7954
26.6414
38.5681
30.0059
35.8924
13.6186
14.045
35.5936
36.9097
35.5361
38.5964
26.6454
35.5282
34.2083
2.94488
26.6222
35.1649
34.6466
34.8357
34.6696
35.847
37.2696
26.7231
20.5128
36.847
35.669
28.9834
37.4085
26.6959
2.95165
35.3945
23.1701
37.1164
1.77491
35.6717
15.0817
36.3294
28.9424
28.3313
27.3981
23.2689
23.2595
32.8067
35.2975
23.4257
35.6436
11.0079
36.2298
38.1168
34.7255
38.1119
38.2539
38.4276
23.2842
23.2975
37.1302
34.0135
35.9897
23.6449
27.8681
37.5523
11.0626
27.7835
35.6117
3.84774
2.69176
10.5366
27.5259
37.0434
37.4369
37.8558
36.8041
11.107
38.1498
23.7291
37.289
23.8721
15.1475
38.0446
23.7752
38.4417
36.9864
23.9979
25.3274
31.1833
37.2953
35.5119
36.0975
11.468
34.9634
38.5562
35.3338
30.4912
34.3537
28.91
34.6524
35.2882
35.285
3.29552
2.90872
17.0182
12.6447
38.5552
23.9709
37.7297
38.4644
2.82843
35.7169
29.04
23.8874
2.02881
24.1551
28.8659
16.8589
38.2824
28.7084
28.2829
20.5707
24.5751
8.4456
33.3227
37.3342
16.2603
36.065
36.1846
29.0904
19.4828
29.0681
37.7288
37.6723
26.0353
35.6017
35.7466
24.3546
35.5499
35.6047
9.87236
24.4206
25.0185
9.84513
5.00274
35.9421
37.1814
29.1247
9.77444
36.7437
35.5732
17.3448
35.8236
34.0016
34.4033
34.4564
32.7413
33.8242
36.7396
16.4915
36.0871
24.8846
36.3267
32.1832
35.5595
35.6387
38.3177
37.0227
15.279
37.0597
37.0251
34.5492
36.198
38.2561
37.6882
9.2908
37.0975
8.42534
25.053
35.6279
16.6989
36.575
21.0703
28.0081
2.18604
2.24048
35.7245
2.43373
15.3271
27.33
38.3982
25.584
7.32854
1.09599
35.0007
1.39449
35.4906
38.2674
36.2298
36.6902
1.39468
37.5861
36.2742
1.0969
25.585
1.05849
38.4805
33.4159
16.7098
37.9745
29.1886
35.5974
2.36931
35.6413
35.8004
16.6015
36.3194
25.4824
37.425
36.3235
7.24954
21.5629
5.31005
11.8376
28.2513
9.39297
36.3588
35.2853
14.2237
5.51865
9.18916
25.505
37.0507
8.4917
36.9292
36.0964
14.4792
25.721
35.8599
5.63927
38.2886
5.36092
4.92815
35.1136
36.7183
37.9112
14.19
37.5571
37.5593
14.3196
5.33895
24.5535
1.29809
36.3592
38.1639
17.7256
14.3769
36.3878
14.304
35.4807
14.2321
36.5851
36.4579
14.2251
37.0956
20.4824
13.0614
35.9185
36.7326
13.0879
33.9647
15.8338
37.3236
24.8026
37.404
34.0309
33.9371
13.1773
34.5665
34.4264
12.1626
34.4663
32.4003
34.0946
35.4804
36.0392
27.4137
15.8496
37.5306
37.7468
15.7008
15.7707
35.8981
14.3635
36.8016
36.0151
18.301
17.4389
0.147445
36.5593
37.7558
37.5934
37.0343
35.8682
35.8923
37.7995
36.0244
36.0977
36.7382
37.6305
36.0543
37.266
36.4808
36.1191
35.2121
36.4662
36.7238
37.1511
37.4225
38.3526
16.0736
37.4378
36.4937
38.4343
10.9333
38.7788
36.0012
31.5882
35.443
35.3161
11.0074
35.1805
35.1918
31.9185
11.074
37.2751
33.9445
34.2618
36.2084
22.6341
11.1394
11.1912
10.7681
6.56523
35.9454
36.275
8.22048
8.64513
10.7508
36.9195
9.77951
21.8432
10.5995
1.69074
1.92768
10.8333
3.36836
10.5889
38.4312
12.0425
9.75503
15.0832
9.80747
37.9484
37.6844
38.2246
37.1336
37.9166
8.56867
9.93209
37.8877
36.1245
35.9906
35.1809
36.2847
36.2205
35.5464
36.0614
9.78963
27.9881
9.89131
16.5062
35.692
35.0559
22.354
28.638
36.6868
37.0389
15.8312
38.5808
37.4827
9.65642
9.86464
9.83745
15.6238
22.1829
36.0829
0.102916
11.7704
34.2259
36.0834
11.6464
35.9871
35.7189
31.2102
30.4265
16.6752
35.2233
38.552
25.3269
11.9582
0.137676
8.62156
31.9028
37.1746
23.577
35.0585
38.5646
35.1972
15.634
36.2533
8.54828
0.366789
11.4896
11.885
37.8416
7.51811
38.0968
35.1477
37.9201
35.8784
2.7425
32.5067
37.0738
36.7902
35.0134
8.59399
34.0173
7.699
8.5864
2.66068
8.6014
35.1672
35.3511
34.3112
15.4693
6.44494
29.0124
35.6271
37.3383
34.1748
22.5387
16.6378
37.058
6.42995
31.3013
11.9599
6.4089
36.9803
34.0305
6.4553
8.55797
37.7042
19.4481
18.8885
16.6775
7.63408
6.74196
6.94381
34.182
2.5008
6.95828
5.88109
34.9434
11.4584
34.251
15.1699
7.28197
38.7875
1.7573
6.95819
7.59317
9.05111
35.3872
31.0813
24.9534
32.3841
7.00079
34.7906
2.12414
6.92648
35.7388
37.1758
29.5761
27.4513
10.0239
35.2617
16.9819
28.3436
28.9382
25.8711
35.5508
38.5495
8.52061
35.3193
7.67499
27.8362
6.94112
2.05222
36.6315
20.706
8.46038
36.0238
34.1051
5.34177
37.8566
5.37386
5.02464
37.3899
35.3592
12.012
36.3175
36.5078
38.7977
2.02926
29.2768
15.5509
38.5415
15.1198
3.6753
35.239
3.65204
3.83702
2.29096
27.6769
36.7959
7.60928
1.43658
3.74204
3.7933
2.39346
27.1581
13.8295
37.3131
0.383158
2.6078
36.9884
3.78966
38.4775
37.5002
38.2127
38.6741
36.7431
22.4658
38.1771
3.65829
18.2616
38.4895
17.5108
35.3028
2.5891
35.9859
26.9812
35.0739
14.5868
23.3495
28.2886
3.95711
2.59235
15.0792
2.30004
4.02608
31.6662
3.95812
9.64937
4.05544
38.4971
8.55418
27.5401
4.10819
13.4811
27.8361
38.3862
34.3548
35.7691
15.2756
36.7057
33.5737
2.57458
35.0024
18.7567
36.0136
38.3619
37.0532
9.46472
15.9473
4.42273
23.9469
2.11526
8.10869
7.64822
9.71633
3.03564
7.62487
7.96829
35.2444
38.1141
38.7886
12.0323
8.37174
35.4707
37.0458
33.7767
7.67711
3.11174
36.5335
7.96562
37.5343
28.9869
15.3266
24.8668
36.9555
37.3806
9.5404
37.1155
20.4177
4.06077
34.9324
10.7113
13.5005
1.65098
35.8294
25.7721
34.4805
19.5502
15.5409
37.0171
38.2966
3.91112
33.4768
37.9741
5.06903
1.88802
37.2855
35.856
34.3728
7.73732
33.6248
12.1488
22.5993
19.1821
37.3575
34.1876
22.1115
37.4064
37.6421
37.7791
36.6874
34.4372
35.071
34.9175
35.9946
35.181
34.9842
35.0983
34.9825
20.4142
34.9558
33.9617
33.8605
35.3937
34.189
37.3764
22.5385
34.3491
35.0133
23.1096
34.9672
35.2323
35.1901
22.613
35.1425
22.5257
24.9255
19.1877
34.7582
36.5164
22.4646
29.0002
35.5132
38.505
12.0057
34.645
11.9401
34.5733
37.779
34.7373
11.9208
11.8265
37.6512
17.3911
35.2562
34.3423
26.9664
6.13871
22.4824
38.5565
11.961
34.2561
18.7953
36.7726
35.8812
36.4781
34.0856
6.13265
7.4773
38.0352
28.9212
35.962
35.97
35.947
36.7398
21.1481
21.2013
7.63519
29.1487
38.7765
15.3939
12.2008
5.614
21.1665
38.5226
6.01827
21.0547
10.8376
29.0361
11.3261
35.6954
14.5114
21.4819
12.0859
21.5806
22.6529
35.7287
22.8664
35.3889
37.4272
9.91136
38.0429
15.2723
37.7573
35.6008
35.1282
35.8493
38.2711
21.533
35.754
17.8527
34.7263
37.879
14.8998
20.6259
8.02027
17.2609
38.1889
29.9312
38.0597
18.8717
35.596
14.8958
21.082
21.4019
19.03
35.5112
35.5086
35.4419
6.48186
37.8897
36.0432
6.48433
35.6017
36.2848
21.3339
35.5023
11.6424
28.9184
34.7418
34.7486
34.6623
7.63931
12.8564
36.6977
0.243968
18.4676
34.6344
21.7477
37.8583
6.64711
15.1137
5.70206
36.5535
15.9408
8.31126
22.5186
20.8801
17.6686
37.0344
37.223
27.5054
36.1721
36.7834
37.5892
6.70791
21.8485
8.733
13.8503
34.4398
15.9062
12.1252
13.011
15.6689
15.9115
20.0035
17.4967
37.0344
36.9841
36.9981
17.5562
37.9099
18.5746
33.3213
17.5627
29.0525
6.73292
3.27464
36.3239
37.6478
17.6126
17.4968
37.4245
37.2213
38.6491
7.25684
17.4904
18.0972
18.2717
1.74753
12.0979
36.1645
38.145
37.3212
1.40764
11.6561
0.187807
13.211
7.54185
18.3377
35.2305
37.3096
33.971
35.5861
1.8325
15.6122
37.1709
35.7144
35.2274
38.4784
38.6961
34.9972
19.0111
36.4561
23.2975
29.0885
36.059
18.6309
0.545273
7.08357
37.8667
35.1303
18.9212
37.0874
18.9949
29.0749
7.69183
34.9399
33.5631
36.8493
36.4391
36.2112
34.9224
31.056
35.767
19.062
8.71218
37.3285
37.2698
19.4323
36.124
37.5305
10.5733
28.4016
35.9782
35.9538
35.1663
3.92622
37.1366
37.1914
30.3807
19.5134
19.4466
36.6115
36.0299
34.5044
19.5097
19.3169
19.4584
13.7538
36.5851
3.25194
0.660186
0.812772
38.471
38.2617
37.3355
38.4245
37.1393
10.5571
10.8263
8.69136
38.5288
37.8129
37.0997
37.6493
35.1269
23.7367
1.23948
0.311244
35.8251
36.9983
38.5429
28.9229
22.1742
25.5602
37.6526
28.6425
35.0707
35.6915
37.2048
10.5232
11.6958
36.0422
35.5353
14.3766
37.2171
7.72893
9.59576
31.3868
36.0054
35.608
7.75766
23.9003
35.0901
31.3055
1.07711
15.4704
36.48
36.1095
38.4652
37.3006
2.09021
5.3476
36.1201
23.9703
20.5408
29.4804
36.7084
36.1749
36.0719
36.122
15.893
35.0595
36.7484
35.389
3.52261
18.0095
4.36153
35.3447
38.311
20.5652
34.9734
37.2457
36.2115
36.4698
11.2318
35.1178
36.2964
36.3192
4.34178
11.7088
36.1572
37.9796
35.8157
13.6113
34.9208
35.6622
35.8432
38.0774
37.851
28.8283
15.7701
38.7906
12.4577
15.6733
10.9213
38.5867
38.3992
36.9712
38.4556
36.2503
14.8736
36.7011
34.3046
34.8039
20.6107
34.7162
20.4898
37.1593
37.882
24.6989
29.5764
34.6779
20.686
36.667
20.5968
35.2206
35.7897
36.0987
35.5555
35.9729
23.529
36.0216
13.1518
38.0684
34.4868
37.8658
36.1705
4.11061
18.8983
36.9538
31.4621
38.7252
21.107
23.5393
18.8673
38.7855
28.6587
18.8377
23.756
15.9748
28.9583
19.0851
35.0867
36.4148
29.0877
6.57293
18.9208
35.6466
34.9566
34.1003
31.7605
38.631
35.8917
38.0188
38.4496
38.7451
34.945
18.6709
25.036
8.74096
34.201
26.4851
38.0203
15.0932
37.3468
38.6825
37.4086
34.9949
25.0644
35.175
38.7524
36.6703
12.915
36.7977
37.6423
24.5825
35.2055
33.3001
32.7878
32.5926
38.4728
32.7269
32.5971
32.706
33.1297
36.4978
36.4972
12.8138
19.6993
34.5253
34.1783
36.6894
13.0133
35.2611
35.3036
24.8454
36.2494
37.0622
21.0257
25.0394
38.69
36.068
26.6801
34.3951
35.6168
28.9908
14.002
13.6093
35.271
13.8087
38.2445
8.54923
28.6863
13.7349
36.7837
28.7005
13.793
35.15
28.83
35.7679
12.9509
34.7822
12.8108
35.3898
23.5088
35.8652
35.3892
38.0541
28.7022
28.7791
38.2638
14.0981
23.5153
38.7942
36.7457
10.6335
0.526482
28.5796
38.5374
14.5114
14.2895
24.7189
28.8608
38.7268
28.6122
36.3406
27.6133
37.3475
28.6959
28.5503
35.7876
8.91011
35.4894
24.4349
36.9756
35.7954
36.0024
37.3757
36.1452
37.2978
19.6486
10.7304
27.4676
35.9377
33.8237
27.3743
36.0432
38.7674
35.6241
38.5523
35.8177
0.427007
36.7799
38.1682
36.3872
0.385101
35.897
37.1319
34.8938
2.02571
37.3971
2.06736
28.6888
19.2151
2.03552
2.16576
35.3092
36.0382
36.886
2.06373
4.44702
35.3403
33.8825
2.21529
37.5891
38.2573
27.3279
35.7648
14.2712
35.9716
2.22445
24.4116
36.0081
36.4629
35.9901
38.0393
37.5703
24.4758
36.037
2.2796
35.5713
36.5367
5.04861
38.1176
15.1459
35.1735
37.6323
19.8686
8.91959
27.6097
38.0278
38.0834
36.9395
8.88438
26.5719
35.5049
37.1267
35.0431
5.52427
36.005
15.2728
27.5254
36.4953
36.2106
5.61542
37.3056
34.9219
37.3959
35.1762
37.7313
27.5406
33.7361
35.6479
37.8687
33.8827
36.2453
34.0237
35.637
35.8966
35.2044
8.9495
35.2163
5.46239
35.0248
36.1225
29.0587
5.52485
36.0057
35.1998
36.1487
5.35792
34.413
36.7264
35.281
36.116
6.03891
35.9949
27.9345
38.6593
18.4719
34.5177
22.251
35.6136
37.5278
17.5481
34.2193
35.9666
4.42025
18.0836
38.4346
38.0204
19.7969
22.7237
5.43273
5.47427
5.53391
19.8431
5.39802
23.1174
35.4391
27.9891
33.9324
33.8787
36.6197
35.4394
37.468
5.34344
38.5258
38.7389
38.4247
26.1708
23.014
33.7086
20.8882
38.1682
21.3479
35.5107
24.9545
5.843
33.9626
18.1056
35.553
35.7045
36.9804
5.99592
18.5899
36.9166
37.5838
6.05941
38.0175
28.3193
37.3635
26.7289
37.2298
36.9705
38.3584
36.9357
4.79738
36.9275
29.622
38.0658
19.074
36.6253
36.2725
32.6993
32.518
36.1674
36.3495
37.3282
38.2189
18.0711
28.2163
33.2613
37.9198
18.5418
36.6523
37.8924
29.0511
13.9607
25.9625
37.0162
3.30346
19.7336
9.5001
14.8488
37.3931
38.7409
38.7434
38.1053
37.075
36.9431
36.9395
35.6205
37.0187
36.9403
37.1303
36.878
26.7368
36.9805
36.1395
35.4282
38.1081
36.6512
31.5054
36.5899
36.358
14.8844
27.6315
35.674
38.6669
37.0779
12.9584
38.6192
37.3073
27.5043
37.5005
36.027
37.5713
37.8709
24.9118
37.3097
28.5839
37.8876
37.5873
36.4091
36.6767
36.2462
27.5823
27.7401
7.15081
38.1544
35.3267
38.282
27.7579
35.9975
27.6993
27.7494
37.4401
35.0768
33.7251
28.6482
35.7408
34.5645
28.6153
33.8421
20.3176
37.9727
23.5045
33.8087
33.2692
37.1497
17.8498
37.5617
18.0009
24.8674
35.7983
18.0709
28.1483
37.2558
25.0633
36.2446
35.8665
36.094
35.8017
35.254
36.8149
35.9857
38.5045
27.7666
34.6384
36.8062
37.545
35.8572
35.6831
13.0869
32.2509
28.0739
29.292
36.0401
16.9814
17.0419
36.9513
34.5995
35.2076
35.5056
35.5446
35.4544
34.0936
34.5635
21.3865
36.4979
38.5564
33.5244
33.9008
37.1298
17.8012
35.2897
35.8635
38.0578
26.317
38.4419
36.6209
20.0769
37.3529
38.6627
35.1057
38.7138
20.226
36.5813
36.4535
36.2827
35.1464
21.539
26.3092
26.2592
17.8371
22.7261
22.8187
37.5912
34.2356
28.7457
22.1818
34.2342
28.7546
37.91
28.9536
35.7761
26.3812
36.8235
35.9935
22.8368
28.6714
35.8078
22.1325
36.7521
37.3926
26.3924
25.0125
38.1435
36.8031
35.6091
37.0407
36.2213
34.2235
38.1755
37.3751
22.0471
38.209
37.1943
36.6699
22.8774
36.0326
34.2542
37.2398
36.8907
34.898
34.3824
22.8744
35.8671
34.4706
13.3355
38.0629
22.1529
21.8798
36.2065
13.7926
37.2558
35.1171
37.7188
34.4882
38.1169
38.6063
38.7973
38.6362
13.5839
38.2942
37.6741
38.2952
35.1742
36.7588
35.1574
26.7496
37.1624
37.9497
24.9896
36.9325
37.1216
38.7661
13.4248
36.4801
26.2541
34.3165
29.0874
1.58606
37.025
34.2379
13.1692
34.0462
36.9823
28.2302
28.6124
0.0977629
24.0839
29.3081
28.9792
38.3025
35.7225
16.5754
26.9636
26.1284
16.1084
29.0631
38
2.95226
16.5917
16.5453
38.7879
16.5055
2.49603
9.44232
15.6791
26.913
17.193
3.49998
15.3757
0.564991
6.99028
15.7403
34.2561
0.420892
0.129073
17.9027
20.8724
0.845439
15.6795
0.586447
34.3239
27.4029
34.2816
8.38687
16.6432
21.249
12.4641
34.3053
37.0823
15.3712
12.573
27.0887
26.2347
4.26485
16.6709
32.7347
16.7193
37.1581
29.5116
27.1673
23.9469
9.53427
27.3438
27.881
19.2078
11.8178
11.9347
8.58531
16.7863
0.455279
33.613
33.268
16.8331
36.147
37.1258
15.919
16.0915
1.29883
36.3171
24.3276
25.0588
11.4805
33.2181
37.1532
27.4127
0.354722
27.216
38.7457
4.14761
37.5643
12.3819
18.9887
23.2462
23.438
36.2593
37.2437
25.3724
16.1639
16.118
37.2806
12.9991
16.2274
20.9435
37.4757
11.6842
0.944907
34.2005
9.52095
28.9841
25.9481
35.6437
24.7133
29.0671
37.234
20.0698
1.77906
30.7639
20.4382
20.4171
3.6549
17.7666
20.7198
1.28144
27.3802
26.2623
19.4164
3.265
17.2702
27.9992
12.4903
20.5396
7.0321
15.7419
28.0171
3.72217
37.3923
20.4292
20.3773
26.6188
4.98123
23.8085
35.6835
20.3503
9.47947
37.466
24.3015
0.4099
20.4845
19.7354
2.38693
0.458229
17.5502
19.7585
24.5024
37.4428
37.0934
24.6325
38.4317
24.6935
23.9621
35.1565
2.43826
20.9786
13.0423
38.2917
9.47877
10.8306
24.2694
27.2367
10.6516
4.58468
13.1895
22.1583
37.1335
35.8479
26.5985
22.1111
24.2155
13.7995
35.8467
22.2939
18.9933
35.1164
13.077
16.7996
1.21067
28.808
22.8865
19.1457
3.9092
14.6002
38.4221
20.4698
10.4527
19.4706
28.6627
35.8668
23.0785
35.4069
36.8864
10.9836
18.9827
11.9229
29.4048
25.1779
30.9412
37.1918
19.0069
19.0494
12.174
12.1545
35.9983
38.7913
38.7313
12.2476
12.2007
28.6605
9.36044
35.0256
35.9288
12.2072
13.57
23.5856
12.1343
12.119
14.5852
22.7702
32.5768
36.4964
18.6593
1.32462
35.9075
17.5839
14.4905
29.0766
18.5552
14.5294
24.5001
35.9162
12.528
15.0645
38.3491
35.0732
0.795994
1.27091
5.10589
2.10005
14.5582
14.6803
3.56003
9.36506
13.4333
2.08118
35.8288
35.7491
0.0855304
2.33334
14.5165
28.1318
14.0858
13.8797
19.3136
11.8268
14.0072
36.7681
38.3395
28.0052
35.7722
34.291
15.2182
9.63478
14.9154
27.3945
34.5787
23.1467
28.2034
34.7703
28.2795
28.4013
13.9827
14.0909
0.930166
16.2888
27.0876
2.36746
36.9864
34.7361
25.8143
4.54632
12.1842
4.69518
24.2943
21.9503
26.6552
34.7785
14.8754
3.15812
12.9283
28.2518
23.0786
26.0926
28.4314
14.956
3.394
34.6603
21.2058
14.3464
31.4423
34.35
33.9474
12.9245
34.2312
0.717466
12.8695
12.0631
16.2861
25.341
32.8589
31.6043
35.1033
33.9231
24.553
36.9772
36.9812
28.9483
37.0493
9.41058
12.5434
11.5451
8.812
9.33723
16.6947
33.7481
4.49489
1.96252
21.7378
15.7942
8.77659
14.8465
37.1238
28.4337
8.60945
19.6619
36.9967
19.9611
15.5302
36.9635
36.0719
24.137
8.49701
37.7037
17.5346
15.7936
24.1666
37.9062
36.9299
1.37349
28.1706
16.4859
37.0428
38.1847
36.9625
18.9858
31.3059
31.2943
5.92208
28.5131
38.6173
5.90266
28.4425
13.3523
1.52255
1.44601
6.39674
29.2589
1.64685
38.7873
6.73625
3.46201
0.518413
10.7257
2.49113
2.42151
2.56378
2.7278
0.619086
25.0439
29.139
14.6767
24.5302
27.2036
28.9509
2.66403
29.0725
2.68189
0.621975
7.77623
4.72929
24.1612
4.68754
29.264
5.52019
34.8738
15.0171
32.0854
11.1005
16.7146
38.3554
20.5371
34.9017
17.4813
34.9521
35.2348
11.5246
21.0655
34.2981
4.5526
12.1587
20.9947
35.94
38.0597
24.4472
6.67594
28.0255
11.0123
3.65892
20.5129
26.3203
19.5062
20.6507
33.8863
14.88
37.1979
35.373
8.29357
5.97553
27.6185
7.9496
5.27615
20.5954
21.3677
35.3605
26.6205
5.16052
20.3485
35.298
38.3972
14.9363
17.5038
33.6973
23.9418
0.451407
18.011
1.36055
4.28191
11.1241
36.0852
32.5662
8.85075
25.847
38.8024
8.31773
23.9844
18.9017
29.416
8.84204
29.339
14.9381
24.8717
32.9723
25.4289
36.5623
17.2836
20.8907
4.0781
0.219209
34.1755
0.31368
25.9656
19.7831
25.2467
34.404
36.9434
9.30938
25.6058
19.8327
17.1047
23.7574
6.72549
1.27307
12.8633
1.4279
0.983964
24.073
34.4743
27.7993
19.5622
0.0962007
23.452
34.5644
36.3691
27.9724
27.4334
35.2318
27.5141
21.7597
34.6893
33.081
33.1467
21.3283
8.66881
29.4378
33.3589
23.8496
9.86028
34.8478
2.16212
34.043
18.8786
6.75654
37.8804
1.95197
23.5515
23.5495
5.99619
36.664
28.4664
22.5883
25.1931
23.5016
24.4738
25.0864
21.4295
28.6604
22.1053
3.48959
8.80253
35.8401
34.0757
33.8318
35.0634
20.2261
10.2314
8.95952
23.6131
5.14475
9.04631
17.9766
21.0354
20.1223
6.52922
21.628
23.6431
18.9786
4.80396
36.7098
23.4261
23.4052
20.5406
21.7897
34.9113
12.1029
12.3807
16.943
16.988
13.6019
35.655
13.448
13.5326
34.2118
13.6875
19.41
35.0866
13.6848
34.9953
38.7816
12.1072
21.1119
19.4934
13.5305
36.2742
2.10617
21.816
38.7533
10.9614
13.9809
11.4654
19.9386
35.0051
21.1648
21.0854
18.4169
35.1628
9.60374
3.64271
18.8075
8.24888
10.3944
38.208
35.2035
34.5743
0.680625
34.7488
9.36324
7.78688
2.53784
35.3233
2.8509
35.0246
36.7126
35.1178
11.5143
0.293105
28.3392
18.7886
10.0613
34.4292
34.0545
23.8373
23.4595
7.68634
27.1101
10.1342
28.5418
36.6423
33.3204
33.3732
36.7326
33.4198
0.411208
37.0921
9.35923
17.8354
10.1177
1.94073
12.0745
34.0367
7.9434
17.8469
20.8517
24.7112
34.0995
36.4937
21.5996
7.9091
29.0757
28.9683
26.8159
27.8249
28.6902
28.4797
5.94431
1.33493
5.97956
28.8686
5.85474
17.9329
19.3133
3.94543
5.86013
26.7535
29.0823
28.9434
28.8209
28.7305
4.08069
24.9585
38.66
28.8619
28.5406
2.20271
1.31279
0.483278
17.9566
13.4718
28.4508
1.425
27.4781
35.9679
9.41796
12.8935
14.6498
35.9769
10.9117
6.03861
1.51752
13.2006
38.5667
35.7106
19.5918
3.73085
3.5612
0.723795
35.0829
37.4609
37.6503
14.5971
17.487
3.3498
37.4012
9.65373
35.6584
35.5623
1.44867
1.02241
35.9547
3.38579
3.47861
0.692854
38.7249
37.9836
6.22585
17.9597
35.6507
3.06967
2.75262
2.77205
35.5263
35.5048
35.5607
2.78459
3.07703
23.7345
2.74352
38.5576
2.55872
16.9098
23.944
21.8608
35.014
36.4544
2.45756
25.3179
24.6492
12.3378
35.088
28.3623
37.1508
4.15782
26.982
17.0909
35.1546
34.3928
25.6165
26.4852
34.2686
34.3348
37.255
11.0928
34.7675
34.1275
17.7202
17.3344
37.2288
34.1386
15.0581
2.63242
2.7023
11.5181
9.67039
34.2207
17.937
33.8191
33.7424
34.7469
12.1715
19.9509
2.74596
33.8191
35.0581
17.2913
26.7855
18.3373
20.1475
15.8537
13.7665
15.6806
2.67041
33.7552
16.9943
12.5709
2.69568
11.3162
20.0282
32.6236
11.2118
11.2258
11.1849
11.2019
3.80833
33.6133
34.7708
13.0376
34.7384
34.8254
15.7278
34.806
9.33984
34.6699
34.756
35.1703
34.3334
12.4461
4.0594
12.5144
34.5017
5.945
11.8651
16.8665
34.6497
37.3887
12.4593
13.2603
27.7508
12.4804
34.4824
0.131865
2.66261
2.12269
36.3178
35.1357
7.36333
6.21364
35.1988
34.7428
23.2412
0.184713
34.5568
25.6221
23.1992
23.2485
13.7942
34.7073
15.7012
30.1829
1.36342
0.318541
23.2718
23.0227
21.2697
8.75819
16.0185
34.3723
17.9663
16.0288
27.6709
25.0995
23.2391
34.5182
10.9788
16.3672
9.17743
13.9534
16.1698
27.0111
1.12084
24.5998
21.541
23.2831
6.50956
23.3942
24.5617
15.9428
19.5918
35.1186
28.6942
38.745
15.8084
16.4895
23.4514
24.6387
22.5145
16.0502
16.0721
26.0583
12.4374
4.13426
36.0815
33.6471
24.6385
24.6593
19.0755
24.6029
27.4809
25.6427
27.4451
27.3457
33.8198
4.01995
27.4145
29.1591
33.8297
0.407853
33.553
12.2215
16.0692
28.8072
10.8892
38.7083
15.514
27.3234
1.76254
37.0437
27.3942
3.5107
21.0704
27.2889
27.3124
33.729
36.8947
11.2796
16.9409
8.91267
16.9244
15.2311
17.211
27.7607
34.2178
0.449208
34.0616
17.0609
4.03175
18.2224
37.817
33.3497
25.6277
17.119
12.3332
18.4695
36.9785
18.2709
18.4807
0.514495
18.437
31.6001
30.7428
18.2726
36.5907
36.409
10.9135
31.4416
25.3663
38.041
8.17635
34.7048
28.686
38.2299
5.07443
24.3116
28.584
18.3475
19.3326
16.5683
23.3233
28.0959
1.48142
28.6443
10.1856
28.3994
35.0977
5.85767
36.2097
19.3614
19.6175
15.3901
13.6068
19.2268
0.454817
12.0421
19.1769
18.7017
29.3235
22.7569
25.6215
34.7819
19.1464
4.25822
28.8608
3.94048
19.2606
28.9016
5.91856
27.0973
17.1402
28.9545
17.2516
10.3664
19.4394
15.6336
36.4111
36.3068
16.5062
16.8365
21.2673
37.3025
28.7825
1.1989
16.019
12.1094
7.61012
12.7408
10.845
16.7798
0.0505963
9.53886
22.584
8.01336
14.5679
13.0256
11.9462
22.5499
19.2123
7.92983
29.3134
17.9872
29.2646
6.98196
20.4148
29.1071
8.98396
0.124036
12.7872
16.8113
7.15331
5.91032
35.7838
20.0248
29.1624
29.0879
31.3409
20.062
33.9041
11.0102
20.0369
2.78885
21.5226
35.8084
19.5304
22.7243
0.469979
20.3881
29.0903
22.5254
36.9579
13.1595
1.71492
21.6653
28.1845
29.5207
35.7812
37.0947
30.2022
34.487
22.5821
36.2184
28.8192
29.9212
34.2477
34.3888
1.52226
34.482
37.0997
22.5172
12.6911
38.1101
15.1896
11.5035
15.9283
28.7573
37.1078
25.9419
22.7965
21.5928
29.6805
37.156
27.4603
22.0382
24.8094
36.9153
12.9447
21.8969
35.7291
11.3556
36.7581
35.1009
27.5188
21.6806
37.4018
27.5444
27.1793
27.5842
27.073
18.6433
26.5701
26.3877
19.6129
22.5259
38.5185
10.3238
3.64845
7.83704
1.1035
26.9399
3.4508
11.1811
37.4652
36.1344
17.2811
26.9884
22.3202
10.5268
22.358
11.94
1.20394
37.1943
0.0836217
26.584
2.98875
22.3621
7.02243
37.4602
25.8699
19.625
25.8882
29.9927
37.3619
9.81872
38.6057
3.93921
38.385
22.4142
25.8599
21.3107
16.2146
19.422
0.981584
21.1761
37.3981
22.4884
22.4903
35.4764
35.5391
1.41367
19.2469
37.6364
0.0413183
35.5622
8.3843
25.8935
35.5951
2.29106
16.4147
18.3551
35.6228
22.3821
3.81445