/*--------------------------------*- C++ -*----------------------------------*\
  =========                 |
  \\      /  F ield         | OpenFOAM: The Open Source CFD Toolbox
   \\    /   O peration     | Website:  https://openfoam.org
    \\  /    A nd           | Version:  10
     \\/     M anipulation  |
\*---------------------------------------------------------------------------*/
FoamFile
{
    format      ascii;
    class       surfaceScalarField;
    location    "1.3";
    object      phi;
}
// * * * * * * * * * * * * * * * * * * * * * * * * * * * * * * * * * * * * * //

dimensions      [0 3 -1 0 0 0 0];

internalField   nonuniform List<scalar> 
214403
(
-0.00254823
0.00194901
0.000109977
0.000489237
-0.00118841
-0.00406956
0.000308072
0.0049499
-0.00377578
8.46208e-06
-4.35306e-05
0.00381084
0.00333653
-0.00221905
-0.00560505
0.00448758
0.00440249
-0.00555038
0.00129457
-0.000146684
-0.0019312
0.00201502
-2.81634e-05
-5.56575e-05
-0.000305888
-0.000603191
-0.00332838
0.00423746
-0.00600213
0.00342433
-0.000896508
0.00347431
-0.00847088
0.00595991
0.00606704
-0.00355607
0.0049708
0.000601718
-0.0056236
5.10814e-05
0.00185995
-0.00367137
0.000766631
0.00104479
-0.00363064
0.00112378
0.00188702
0.000619843
0.000173389
-0.00425102
0.00514652
-0.00106889
-0.00367513
0.00366252
1.26056e-05
0.000716269
0.00434287
-0.00559121
0.000532076
-0.00427731
0.00355399
0.00107091
-0.00034759
-0.00437143
0.00425067
0.000120754
0.00143634
-5.19324e-06
-0.00038154
-0.00104961
0.00555925
-0.00331663
-0.00741784
0.00517522
-2.93039e-05
-0.00117294
3.34781e-05
0.00116876
0.00239817
-0.00232457
-7.35996e-05
-0.00443355
-0.00153087
0.00152365
0.00444077
-0.000828388
0.00489927
-0.00393747
-0.000133416
0.00239374
0.000234222
0.000813951
-0.00344191
-0.00367719
-0.00175113
0.00475446
0.00067386
0.0034705
-0.0043894
3.47782e-05
0.00088412
0.00112786
-0.000968135
0.0036983
-0.00385803
0.00283474
0.00368655
-0.0044536
-0.00206769
0.00397255
-0.00248003
-0.000121696
-0.00137082
-0.00220754
0.00225031
-4.27657e-05
0.00090634
-0.00182769
0.00475133
-0.00382998
0.00501101
0.000239914
-0.000868671
-0.00438226
-0.00212009
-0.00216671
0.00222629
0.00206051
-0.00042821
-0.00242129
0.00213652
0.000712984
0.00157666
-0.0010302
-0.00350244
0.00295598
-0.000613411
0.00306448
-0.00110972
-0.00134135
0.0056412
-8.63265e-05
-0.00555488
-0.00248912
0.00489571
-0.00240659
0.000447909
-0.00539861
0.00314549
0.00180521
0.000859498
-0.000349204
0.00214506
-0.00265536
0.00204379
-1.7755e-05
-0.00202603
0.00358488
-8.93837e-05
0.000661715
-0.00415721
-0.00461582
0.000558356
0.00491696
0.000339713
0.000346182
0.00314118
-0.00382707
-0.00141916
-0.00979484
0.00945332
0.00176067
0.00215512
0.000402359
0.000469181
-0.00302666
0.00147661
0.00115324
-0.00365448
0.00102464
0.00473633
0.00282192
-0.00516451
0.000414798
0.00398954
-0.000819456
0.000688393
-0.00255398
-0.00151139
0.00337698
0.0011881
0.00179523
0.000524298
-0.00350762
0.000676009
-0.000510795
-0.00154833
0.00138312
0.00261607
-0.00472534
0.00329737
0.00418552
-0.00397786
-0.00132234
0.00111468
0.00402143
-0.000716969
-0.00307449
0.00415982
-0.000165304
-0.000920036
0.00314141
-0.00404091
6.11589e-05
0.000838349
-0.00299037
0.000210352
0.00477005
-0.00199003
-0.0058437
-0.00580481
0.00470849
0.00694001
-0.00291594
0.00292365
0.000573936
-0.000581645
0.000446807
-0.00371195
-0.00323396
-6.78145e-05
0.00167948
0.0016223
-0.00515176
0.00220303
0.00330102
-0.00035228
0.00555591
-0.00443981
0.000230415
-0.00134652
0.000259251
0.000106216
-0.00373612
0.00337065
0.000214925
-0.00112087
0.00549074
-0.0045848
-0.0131391
0.00160394
0.00142456
0.0101106
-0.00111816
0.00335765
-0.0010667
-0.0011728
0.00184206
-0.000952185
-0.00390462
0.00301475
0.000447882
0.00288421
-0.00364712
0.000315025
-3.90344e-05
0.00313989
0.00104812
-0.00414898
-0.000653956
-0.0001076
-0.00139409
0.00215565
-0.00337531
0.00369576
-0.000140817
-0.000179628
0.000143558
-0.00345327
-0.00239124
0.00212532
0.000643166
-0.000377239
-0.00602655
-0.00038241
0.00292909
0.00347987
-0.00184814
-0.000777598
0.00155248
0.00107325
0.00264733
-0.00889154
0.00118841
0.0050558
-0.00142566
0.00285348
-0.00156302
0.000135192
0.00199401
-0.00155409
0.000198906
-0.000638829
7.52437e-05
-0.00387093
0.00379569
5.10068e-06
0.00303351
-0.00303861
0.00273722
-0.000534391
0.000350668
-0.0025535
-0.00171245
0.00244616
0.000810673
-0.00154439
-0.00118761
0.00512837
-0.0012464
-0.00269437
0.00249898
-0.00431505
-0.000132839
0.00194892
0.0027174
0.00283879
-0.00555618
0.00387901
-0.00437126
0.00115753
-0.000665276
0.000326899
-0.000715092
0.00521319
-0.004825
0.000166093
-0.000829678
0.00373159
-0.003068
0.000953799
0.00775646
0.00217166
-0.0108819
-0.00667652
0.00585533
0.00381015
-0.00298897
0.000321604
0.00253135
-0.00337674
0.000523784
0.00325372
0.00361204
-0.00116649
-0.00569927
0.00571699
-0.00350922
-8.56118e-05
-0.00212215
0.000260637
-0.000775513
-0.00244645
0.00296133
-0.0024649
5.7763e-06
0.00245912
0.00355717
0.000106308
0.000215531
0.00455078
0.000400666
-0.00692721
0.00197576
-0.00373323
0.000758644
0.000661382
0.00231321
-0.00234243
0.00058181
0.000286626
0.00147399
0.000505069
0.000414664
-0.00461594
0.0036962
-0.000967942
-0.00558244
0.00356633
0.00298406
0.00222546
-0.00262958
-0.00172789
0.00213201
0.00362247
-1.08381e-05
-0.00362281
1.11711e-05
0.00276619
-0.00391383
-0.00131306
0.0024607
0.00716977
-0.0021879
-0.00112025
-0.00386162
0.00399493
-8.22493e-06
-0.00366557
-0.000321134
-0.00221678
0.00259926
0.00536716
-0.00574964
0.00455565
-0.00150526
-0.00440315
0.00135276
0.000857769
-0.0012553
0.00540133
-0.0050038
-0.00574506
0.00522615
0.0049674
-0.00444848
0.000286881
-0.00481558
0.00185123
0.00267747
0.00609356
-0.00030387
-0.000158261
-0.00563143
0.00418584
-0.000808067
0.000797705
-0.00417548
-0.00516098
-0.0047243
0.00558094
0.00430434
-0.000916016
0.00263081
0.000716164
-0.00243095
-0.00197209
0.000106786
0.00382055
-0.00195524
-0.000421822
0.0050198
-0.00464513
4.71555e-05
-0.00449659
0.00417159
0.00081705
-0.000492059
-0.000146423
-0.00260032
0.00621725
0.000794413
-0.00261457
-0.00193588
0.00375604
-0.00208004
2.28824e-05
0.00205716
0.000645482
0.00291387
-0.00269683
-0.00086253
0.004782
-0.00279685
-0.000741261
-0.00124389
6.39374e-05
-0.00145572
0.00139178
-0.00264669
-0.000731551
0.00102162
0.00235662
0.000301034
0.00166728
-0.00370821
0.00173989
0.00598423
-0.00053976
0.00231989
-0.00776436
0.000404349
-0.000588173
-0.00693979
0.00712361
0.000453161
-0.00191609
-0.00264021
0.00410315
0.000144372
0.0035583
-0.000145504
1.27417e-05
-0.0021797
0.00216696
0.0043982
-0.00163199
-0.0019718
-0.00266111
0.00221512
-0.00220069
0.0047407
-0.00395679
-0.000488995
-0.000294909
0.000490659
-0.00228208
0.00100286
0.000788566
-0.00389643
-0.00119072
0.000799712
0.00428744
0.00327616
-0.00527053
0.00351539
-0.00152102
-0.000109171
0.00491723
-0.00491611
0.000108044
1.87151e-05
0.00552693
-0.00552864
-1.70023e-05
-0.0060094
0.00483001
-0.00388732
0.00506671
0.00506331
-0.00493699
-0.000126327
-0.00492089
0.00656235
-0.00116348
-0.00047798
-0.0042039
0.00102326
-0.000313338
0.00349397
-0.00696999
0.00051914
0.00448983
0.00196102
0.00121819
-0.00166494
0.000937409
-0.00177246
0.00199666
0.00323563
-0.00345983
-0.00181846
-0.000823306
0.00103916
0.00160261
-0.00248089
0.00161879
-0.00309272
0.00395482
0.000748089
7.51308e-05
-0.00574411
-0.00255304
0.00254713
5.91809e-06
0.00377937
-0.00367334
-0.000106027
-0.00410217
-0.0002674
-0.00108604
0.000947463
-0.00536646
0.00622083
-0.00180184
0.00236686
0.00404841
-0.00516154
-0.00125373
0.0045128
-0.00491613
0.000149767
0.000253562
0.00258393
0.000669279
-0.00267725
-0.000575957
-0.00390963
-0.000194417
0.00505151
0.00231939
-0.00016517
-0.00282481
0.000670585
0.00261281
-0.00221195
0.0025464
-0.00294725
-0.00427564
0.000805176
0.00583733
-0.00153109
-0.00203078
0.00683708
-0.00327521
-0.00207199
-0.00232827
0.000490626
0.000567195
0.0017183
-0.00435748
-0.00313787
-0.000256372
0.00502971
-0.00163547
0.000444535
0.000850514
0.0025556
-0.00385064
-0.00141645
0.0034513
-0.00203485
0.00100114
-0.00535546
0.00202606
0.00317548
0.0022572
-0.00486548
-0.00453997
6.58458e-05
0.00563652
-0.00116239
0.000781304
0.000688117
0.0021472
-0.00361662
0.00368586
-0.00367892
-6.93831e-06
0.00115046
-0.000438919
0.00383129
-0.00454284
0.00400528
-0.00126142
0.00192323
-0.00466709
0.00769442
-0.0024799
0.00573397
-0.0109485
0.00121682
0.00225597
-0.000939725
-0.00253307
-0.00348491
0.00143163
0.001826
0.000227273
0.0024997
-0.00187673
-6.29878e-05
-0.000559979
-0.00156092
-0.0019724
0.00574332
-0.00221001
-0.00279469
0.00362962
0.00144929
-0.00228422
0.0042319
-0.000228727
-0.00139037
-0.00624817
0.00412355
-0.000356269
-0.00593294
0.00550197
0.0025393
-0.00210833
0.00379894
-0.00428513
-0.000604354
0.00109055
0.0021552
-0.00391172
-0.00202794
-0.00232834
-0.00214659
0.00120433
0.00327059
-0.00327726
0.00103244
0.0032555
-0.00101068
0.00419775
-0.00399535
-0.00279804
0.00259565
2.5138e-05
-3.11774e-05
-0.00360859
0.00361463
9.94261e-05
-0.00328145
-0.00011213
0.00329415
-0.000901305
-0.00537829
0.000847541
-0.00313044
0.00281107
-0.000528174
-0.002091
-0.000873001
-0.000313262
-4.88969e-06
0.00496824
7.44516e-06
-0.0120971
0.00849021
0.00613349
-0.00252656
-0.00371449
0.000249899
0.000128783
0.00333581
-0.000739762
0.0115688
-0.0136334
0.00280439
0.000588418
0.000920203
-0.00205608
0.000547455
-0.00797494
0.00428832
0.000572617
0.00311401
-8.72591e-05
-0.0053071
-0.000785099
0.00617946
-0.00207863
0.0078624
-0.00548554
-0.000298228
0.00354056
0.00511728
-0.00475394
-0.00390391
-0.00413739
0.00394475
0.00488041
-0.00468778
0.00167941
0.00232979
-0.00291544
-0.00109376
0.00165358
-0.00109888
-0.00264569
-0.00811269
-0.000311322
0.0066089
0.00181511
0.00249483
0.000402291
-0.00146549
0.00252802
0.00342297
-0.00314242
-0.00280857
-0.00403865
0.000915797
0.00392021
-0.000797359
0.000478927
0.00138304
0.00470038
-0.0049325
0.00484212
0.000467789
-0.000377411
0.00305445
0.00240118
-0.00216186
-7.83586e-05
-0.000620864
0.00286108
-0.00322576
-0.000674299
0.00184758
-0.00609378
0.00250588
0.00174031
0.000137395
0.00318778
-0.00351165
0.000186474
-0.00126703
0.000250504
-0.00117195
0.00218847
0.00520347
-0.00372175
0.000171859
-0.00294381
-0.00232187
0.00311898
0.0021467
0.0105129
-0.0113487
0.00377101
-0.00293527
-0.00217765
0.00270656
0.00108563
-0.00161455
-0.00527937
0.00227079
0.00458568
-0.0015771
-0.00211977
0.00303661
0.0038192
-0.00473604
0.00581434
-0.00217488
-0.00390633
0.000266875
0.000103091
-0.00142678
0.00342286
-0.00209917
-0.000588802
0.000551798
-0.00450297
0.00414154
0.00130163
-0.00444974
-0.000993428
0.00536793
-0.00441946
-0.00114288
0.00107974
0.00162406
-0.00382609
0.0011223
-0.0022746
-0.00408474
0.00371275
0.00264659
-0.000673727
-0.00175787
-0.00051221
0.00214601
-0.00227686
0.0049042
-0.00477335
0.000522234
-0.00586629
0.00534405
0.00201755
-0.00265327
0.00171546
0.00114595
0.000673624
0.000932494
-0.00275207
-3.19564e-05
-0.00506942
0.00510138
-0.00281909
0.000379149
-0.000923477
0.00336342
-0.000368334
0.00407067
-0.00368606
-1.62808e-05
-0.00263329
-0.00142042
0.00153842
0.00251529
-0.000962673
-0.00234434
-0.00214626
-0.00316079
0.00263691
0.00267014
0.000126985
-0.00323592
0.00542944
-0.00222387
-0.000296577
-0.00290899
0.00355967
-0.000446967
-0.00256394
-0.000548767
-0.000449703
0.00408255
-0.00510847
0.00147563
0.00261479
0.000101889
0.00127023
-0.00398691
-0.000101159
-0.0021631
0.00104751
0.00121675
-0.00147764
0.00191418
0.00360747
-0.00404401
-0.00522283
-0.00138796
-0.00146345
0.00486896
-0.00490715
0.000128091
0.00152571
0.00325335
0.000454683
-0.00165483
-0.00287681
0.00407695
-0.00217075
-0.00424708
0.0010737
0.00534413
-0.00189597
-0.00209551
0.00216083
0.00183065
-0.00483528
0.00464998
0.00484327
-0.00465796
-0.000687882
-0.00120038
-0.00365733
0.00554559
-0.00494287
0.000501549
0.00504208
-0.000600758
-0.000876175
0.00228971
-0.00141354
-0.00203014
0.0037613
-0.0028253
0.00109415
-7.22261e-05
0.00647844
-0.00243397
-0.00397224
-0.0023716
-0.00117615
0.0047468
-0.00119905
0.000738462
-0.00194545
0.00439388
-0.00318689
0.000213506
0.00299157
-0.000523379
1.12921e-05
-0.00473335
0.00472598
-3.92594e-06
0.00560217
-0.00100865
-0.00820638
0.00361286
-0.00518765
-0.0005048
0.00647859
-0.000786138
-0.00279412
0.00424316
0.000338187
-0.00178723
0.00329206
-0.00330781
1.57535e-05
-0.00281636
0.000300523
-0.0023922
0.00490804
-0.00419348
0.00579219
-0.00116474
-0.000433972
0.00259938
-0.00107277
-0.00315007
0.00162346
-0.00484647
0.00488226
-3.57865e-05
0.00416754
-0.00603617
0.000466507
0.00140212
-0.00457127
-0.00126227
0.00785285
-0.0020193
0.00346566
-0.000214626
-0.000695649
-0.00255539
-0.00196022
-0.00332426
0.00743049
-0.00034182
-0.00488356
0.00294851
0.00765935
-0.00854863
-0.000821553
0.00171083
0.00213752
0.00102195
-0.00237817
-0.00310148
0.00317192
-7.04334e-05
-0.000868533
0.00487632
-0.000319478
-0.00368831
-0.00101026
0.00120794
0.00417735
-0.00437504
0.00288049
0.00681702
-0.00393901
-0.00575851
0.00502902
-0.00601047
0.00192005
-0.000938606
0.00431845
3.54739e-05
-0.00435392
5.80897e-05
0.00418131
-0.0042394
0.00482568
-0.00582599
0.00516784
7.68734e-05
-4.97959e-05
0.00423723
-0.0042643
7.46623e-06
0.00710725
-0.00711531
5.8636e-07
-0.000564041
-0.00168902
-0.00347947
0.00573253
-0.00217063
-0.00126616
0.000435543
0.00395636
-0.0069656
0.0025737
-0.00337744
-0.000883263
0.00361596
0.000644749
-0.00433915
0.00477466
-0.00128057
0.000845053
0.00063415
0.00327719
-0.00111443
-0.00279691
-0.00152525
0.0003374
0.00268865
-0.0015008
7.03554e-06
0.00122889
-0.00160095
0.000365027
-0.00170727
0.00413313
-0.00238008
-4.57774e-05
0.00120416
-0.00382851
-0.00222212
2.35417e-05
-0.00362682
0.00360328
-0.00142271
-0.00135878
0.000627696
0.0021538
0.0020478
-0.00117918
-0.000868624
0.00507805
-0.005072
-0.00100933
0.00100328
-0.000478787
-0.00314412
0.00290344
0.000719463
-1.56339e-05
2.15666e-05
0.0028609
-0.00286684
0.00141204
-0.0011696
-0.00454274
0.0043003
0.00331648
-0.000109683
-0.0032068
-0.00481438
-0.00313064
0.00464771
0.00329731
0.00272395
0.00423808
-0.00730385
0.00268955
-0.000951805
0.00150793
-0.00324567
-0.00110412
0.00109294
-0.0061546
0.00616579
0.001559
-0.00309295
-0.00300465
0.00453861
-0.000322734
-0.000750341
0.003437
-0.00236392
0.0023778
-0.00291775
0.00106469
-0.000524733
0.00135466
-0.00226123
-0.00217572
0.00308229
-0.00422426
0.00474748
-0.00124155
0.00071833
0.00492616
0.00634576
-0.0069863
-0.00428562
-0.00387638
0.00385726
1.91206e-05
-0.000444984
0.00429877
-0.00542855
0.00157476
0.000116633
-0.000158552
-0.00492098
0.0049629
0.00413606
0.000180883
-0.00475607
0.00043912
-0.00185896
-0.00312035
0.00392851
0.00105081
-0.00443559
0.0062888
-0.0022356
0.000382392
-0.0017446
-0.00216578
0.00129581
-0.000248099
-5.42307e-05
-0.0029911
0.00329343
-0.00966979
5.55805e-05
0.000834483
0.00877972
0.000393334
-0.00251268
-0.00130419
0.00342353
0.00615006
-0.000510915
-0.00200158
-0.00363756
-0.00108181
-0.00239785
0.00047694
0.00300272
0.00181508
3.9581e-06
-0.00181904
0.00283917
0.00147733
-0.000961182
-0.00335533
0.00225946
-0.00178321
0.00441667
-0.00489292
0.00013841
0.00448782
-0.00147339
-0.00315284
0.00111022
0.00160545
0.00343439
-0.00221429
0.000172564
0.00204173
-0.00290082
0.000424674
0.00075841
0.000480812
-0.0039704
0.00273117
-0.00372192
0.00547047
0.00165952
0.00566971
-0.00119068
-0.00613855
-0.00353915
0.00349098
-0.00552943
0.00557761
-0.000532946
-0.00271862
0.000948833
0.00230273
-0.00303343
0.00575083
0.00177705
-0.00205749
0.000478552
-0.000198112
-0.00182074
-0.0057815
0.00179253
0.00580972
0.00385123
-0.00382617
-6.21326e-05
3.70726e-05
0.00316738
-0.00373784
0.000781633
-0.000211177
0.0007743
0.00308792
-0.00551218
0.00164995
2.10614e-05
0.00271117
-0.00273223
0.0017345
-0.00442866
0.00346847
-0.00173609
0.00465666
0.00393503
-0.00685559
0.00117831
-0.00130426
-0.00600367
0.00612962
-0.00169919
0.00290152
-0.0059623
0.00475997
-0.00444168
0.00350189
0.0045769
-0.0036371
-0.00274934
0.00375863
-0.00242603
0.00141674
-0.000600673
0.00264436
0.000428962
-0.00247265
0.00128063
-0.00187485
0.00192609
-0.00133187
0.00252993
0.000948056
0.000845825
-0.00432381
0.0067696
-0.00458632
-0.000291293
-0.00189199
-3.26085e-06
-0.00329432
0.00329758
0.00205438
-0.00304246
-0.00928209
0.0102702
-0.000441403
-0.00446947
-0.00134662
0.00625749
-0.000279303
-0.00208826
0.00236756
0.000638764
0.00300106
-0.000513515
-0.00312631
-0.000842283
-0.00305038
0.00245312
0.00143954
0.00246049
-0.00207196
-0.00362249
0.00590067
-0.00460757
0.00138387
0.00148389
-0.00286776
0.00465625
6.23732e-05
-0.000571012
-0.00414761
-0.000907603
-0.00155166
0.00245927
0.00161648
0.00108296
0.00904551
-0.0108623
-0.0038176
0.00563443
0.00137536
0.00298334
-0.00227012
-0.00208858
-0.00318966
0.00613359
0.00403422
-0.00697814
0.00378847
0.00131131
-0.000498308
-0.00460147
0.00593385
-0.00397514
0.00254042
-0.00449914
-0.00355443
0.00163005
-0.0045756
0.00649998
-0.00550344
0.00978042
-0.00382611
-0.000450863
-0.000190897
-0.00228646
-0.00318206
0.00565942
0.00446714
0.0018504
-0.0052003
-0.00111724
0.00251461
-0.00665836
0.00415209
-8.34478e-06
-0.00557427
-0.000217689
0.00363379
0.00215817
-0.0012158
0.00312381
0.00136937
-0.00327738
-0.000700384
0.00280811
0.00227066
-0.00437838
-0.00603599
0.00308734
-0.000262954
0.00321161
0.000505968
-0.001546
0.00308945
-0.00204942
0.00254345
-0.00127367
0.000900892
-0.00217067
0.00268512
0.000590053
0.00026202
-0.00353719
-0.00347884
0.00374911
0.00138497
-0.00165524
-0.000857791
0.00447198
7.89901e-05
-0.00369318
0.00347518
-0.00200858
-0.00132714
-0.000139461
0.00310817
1.56486e-05
-0.00312382
0.00225395
0.00175064
-0.000395945
-0.00360865
0.00105673
0.00274105
0.00232871
-0.0061265
6.22392e-05
-0.00514775
0.00508551
-0.00269124
0.0103188
-0.00151697
-0.00611059
-5.86783e-05
0.00369221
-0.00363353
-0.000249147
-0.00272102
0.000491867
0.0024783
-0.00484913
0.00252372
0.00187196
0.000453449
0.00101564
0.000793044
-0.00568515
0.00387647
0.00294564
0.00463008
-0.00172466
-0.00585105
0.00436859
-0.00141734
-0.00418218
0.00123093
-0.00562587
0.00327543
0.00885895
-0.0065085
-1.00071e-05
0.00221739
-0.00222392
1.65366e-05
-0.00227403
0.0022542
1.98283e-05
-0.00566432
7.90803e-05
0.00239558
0.000638961
0.00135205
0.00373034
-0.00572136
0.00290907
-0.00346929
0.00225699
-0.00169676
-0.00292849
0.00255283
-8.3496e-05
0.000459155
-0.000574221
-0.00480907
0.00611723
-0.000733943
-0.00217067
0.00103176
0.00343467
-0.00229576
0.00360952
-0.00139478
0.000523285
-0.00273803
-0.00238964
-0.000411046
0.00278629
1.43997e-05
-0.000430589
-1.14978e-05
0.00406831
-0.00362622
0.000476301
-0.000391262
0.00378128
-0.00386632
-0.00361743
0.00508704
-0.00542802
0.00395842
-1.65283e-05
-0.00433806
0.00435459
-0.00159337
0.000134901
0.00407775
-0.00261928
-0.00300991
0.00352945
-0.00482421
0.00430467
-0.00309591
0.00022942
0.000930609
-0.0013703
0.00397275
0.000212372
-0.00281482
-0.00103796
0.000134345
-0.0017575
-0.00150225
-0.00510935
0.00510837
0.00150323
-0.00230609
-0.000257959
-0.000621076
0.00318512
-0.00747113
0.00251327
0.000729408
0.00422844
-0.00244566
0.00567356
-0.00282331
-0.000404591
0.00167302
0.00068943
-0.00340041
0.00329949
0.00332951
-0.006629
0.000503568
0.00726171
-0.00170962
-0.00605567
-9.34253e-05
-0.000137063
-0.00335333
0.00358382
-0.00341467
0.00557147
-0.00228334
0.000126543
0.00323844
-0.00202276
-0.0029248
0.00170912
0.000861887
-0.000114433
0.00105659
0.00519981
0.00143907
-0.00749136
0.000852472
-0.00408737
-0.000435722
0.00128422
0.00323888
0.00129778
-0.00148055
-0.00198301
0.0059668
-0.00403832
0.00319521
-0.0051237
-0.000675262
0.00391379
-0.00678334
0.00354482
0.00235249
-0.00298807
-0.000299713
0.000935299
-0.00262392
-0.000921032
-8.27683e-05
0.00362772
-0.00195533
-0.00183006
0.00378539
0.000462156
-0.00512336
0.00454522
0.000115981
0.00199791
-0.00194387
-0.00200936
-0.00420205
0.00529125
-0.000960383
-0.000128814
0.00474505
0.0013064
-0.00508468
-0.000966768
-0.0020771
-0.00342079
-0.000454597
0.00595249
0.00313402
-0.000961219
0.00363959
-0.00581239
-0.00353518
-8.2256e-05
-0.00394858
0.00211852
0.00050945
-0.00445137
0.00142295
0.00251897
0.00134971
-0.0048924
0.00266932
0.000873378
0.000907372
0.000157581
-0.00434721
0.00328226
0.000541183
0.00230789
-0.000155696
0.0040928
-0.000811149
-0.00312596
-0.00161971
-0.00015385
-0.00149098
0.00326454
-0.000952564
-0.00127956
0.00244518
-0.000213058
-0.00361305
-6.41416e-05
-0.00613413
0.00220973
0.00322402
0.00880767
-0.000103164
0.00122424
-0.00992874
-0.00422305
0.00639456
0.00134958
-0.00352109
-0.00117554
0.000591681
0.0037108
-0.00312694
0.000456752
0.00129208
-0.00100157
-0.000747258
-0.006672
-0.00138013
0.00574877
0.00230335
0.000147833
0.00290167
-0.000589018
0.000108113
0.00142717
-0.00449325
0.00295797
-0.00271827
-3.38474e-06
0.00100612
0.00171553
-0.00388151
0.00479651
-0.00076717
0.00218683
-0.00196115
-0.000225686
-0.00324659
0.000394013
-0.00249
0.00534258
-0.00145235
0.00219251
-0.00169837
0.000958217
-0.00315576
0.00355809
-0.00147098
0.00106865
0.00138139
-0.000247058
-0.00316705
0.00203272
-0.00140801
0.00885222
-0.0118798
-0.00122354
-0.000853953
0.000834428
0.00124306
0.0041197
-0.00639332
-0.000287851
0.00256147
-0.00168545
0.00125577
0.00217587
-0.00174618
-0.000520999
0.00269782
-0.000750788
-0.00142604
-0.00300933
0.000665519
0.000710875
0.00163293
-0.00174649
0.0001461
0.00160039
0.00389369
-0.00184937
-0.00197964
-6.46808e-05
0.000309985
0.0020157
-0.00307358
0.000747893
-0.00207482
-0.0025024
0.00255474
0.00202247
-0.00123196
0.00310624
-0.00262108
0.000746797
0.00100587
-0.00189654
0.00130396
-0.000413286
0.00391336
1.22246e-05
-0.00392558
0.00311462
-0.00384099
0.00190266
-0.00117629
-0.00496392
-6.67046e-05
0.00503062
0.00200006
-0.00166586
0.000404629
-0.000738825
-9.49547e-05
0.00391222
-0.00434304
0.000525781
-0.00174842
0.00219078
0.000563509
-0.00203227
0.00431294
0.00400812
-0.00333213
0.00326567
6.64634e-05
3.6733e-06
-0.00521888
0.00521521
0.00708099
0.000837478
-0.00146934
-0.00644913
0.00151412
-0.00570818
-0.000748499
0.00494256
0.00107928
0.00132175
0.000780483
-0.00318152
-0.00194786
-0.00192906
4.55269e-06
0.00387237
-0.000945411
0.0012817
-0.00228415
-0.00432765
0.000789846
0.00567954
-0.00214174
-0.00861965
0.00632238
0.00277311
-0.000475845
0.00374715
-3.1244e-05
-0.00371591
-0.00223138
-0.00302416
0.00194634
0.0033092
-0.00214978
-0.00310382
0.000925953
-0.0031247
0.00169416
0.00197172
0.00124986
-0.00166069
-0.00297976
0.00339058
-0.00210816
-8.12715e-06
0.00211629
-0.00485971
0.00200397
0.00199417
0.000861576
0.00125931
-0.00335341
-0.0010306
0.00422825
-0.00134323
-9.83295e-05
-0.00278669
-0.00284036
0.00472668
0.00273439
-0.0046207
-0.000888283
-0.00185881
0.00074376
0.00200333
-0.00119597
-0.000964206
0.00216018
-0.00210472
-0.00446982
-0.00204511
0.00103071
1.42471e-05
0.00206888
-0.00311383
0.00397363
-0.00285817
-0.00417136
0.0030559
-0.00149492
0.000545074
0.00297427
-0.00202443
0.00283921
-0.00200585
-0.000270563
-0.000562794
-0.00323527
0.00054269
0.00252523
0.000167351
-0.00202186
0.00459716
-0.0050283
0.00197325
0.000136537
0.00291851
0.00511752
-0.00393164
-0.00324291
0.00205703
-0.00366087
0.000809971
0.00682452
-0.0036109
-0.00239953
0.00389291
0.00211752
-0.000420521
0.00379244
-0.00144498
-0.00192694
0.00023547
-0.0025595
-0.00166727
0.0039913
0.0043251
-0.00285474
-0.000173869
-0.00129649
0.00131898
0.000986387
-0.00325078
-0.000919195
0.00104006
0.00253388
-0.00265475
-0.000751306
0.00390083
-0.00484347
0.00169394
-0.00246588
0.000600088
0.00059235
0.00127344
-0.00556204
0.00555756
4.47336e-06
0.00459969
-0.00454076
-5.893e-05
0.00154977
-0.00592679
-0.00228945
0.00666647
0.00125946
0.00239473
0.000574056
-5.40111e-05
0.00211357
-0.00205955
0.0037226
0.00329848
-0.00702108
-0.00376958
0.00229966
0.00162653
-0.000156601
-0.00211539
0.000694564
0.00171909
-0.000298266
-0.00632436
0.0029612
0.00346864
-0.000105482
-0.00203067
-0.00227484
0.00219735
0.00382322
-0.000657013
-0.00238473
-0.000781478
-0.00347796
0.00376346
-0.00230736
0.000588492
-0.00387029
-0.000184252
0.00346605
-1.32455e-05
-0.00199297
0.00200621
0.0091941
9.49267e-05
0.000985124
-0.0102741
-0.000359772
-0.000751155
-0.00534161
0.00645254
0.00165261
-0.00224945
-0.00103169
0.00162853
0.000654481
0.0048924
-0.00199342
-0.00355347
0.00534999
-0.00531461
5.98593e-05
-9.52424e-05
-0.002987
-0.00268384
0.00420409
0.00146674
0.00173492
0.00127079
-0.00341055
0.000404843
1.38974e-05
0.00324491
-0.00330629
4.7484e-05
-0.00434946
0.00140501
0.0035228
-0.000578347
0.00340446
0.0020598
-0.00344607
-0.00201819
6.2831e-05
-0.00303593
0.00146345
-0.000763736
0.00465028
-0.00247316
-0.000322901
-0.000384456
0.00318052
-0.00437602
0.000151368
0.00422465
0.00587026
0.00268048
-0.00195687
-0.00659387
-0.00399169
6.761e-05
0.00398691
-0.000362105
-0.00092995
-0.00237087
0.00366292
-0.000466294
-0.000498733
-0.0012721
0.00223712
0.0010299
-0.00521027
0.00393532
0.000245051
0.00390909
-0.0005486
-0.00383484
0.000474352
-0.0039155
0.00080055
0.000309457
0.00280549
-0.00146196
0.000976323
-0.00208426
0.00256989
0.000823088
0.000586287
-0.00490394
0.00349457
0.00014371
-0.00351734
-0.000192434
0.00356606
0.00332668
0.000492664
-0.000120044
-0.0036993
-0.00396239
0.000903138
0.00356432
-0.00286114
-0.00380035
0.0066615
0.00561055
-0.00284966
0.00122799
-0.00398887
0.000448575
0.0031049
-0.00190087
-0.00457114
0.000936717
0.00153092
0.0021035
0.00566609
-0.0057783
0.000112215
-0.00348448
-0.00118164
0.00244222
0.0022239
-0.00498048
-0.00381954
0.00258945
0.00621057
0.00451863
-0.00470884
-0.000582546
0.000772761
-0.00067971
0.00220635
-0.00173722
0.000210578
-0.00566049
0.00185095
0.00130165
0.0025079
-0.00847125
0.0103788
0.00181997
-0.00372749
0.00378681
-0.00825397
-0.00031284
0.00478
-0.00344219
0.00436261
-0.00796461
0.00704419
-0.00351696
0.00770941
0.000764461
-0.00495691
0.000294823
0.00359076
-0.000880227
-0.00300536
0.00546436
-0.00412215
-0.000103466
-0.00123875
-0.000961125
-0.000918367
0.00141374
0.00046575
-0.00257822
-0.00537508
0.00462951
0.00332379
-0.0036903
0.00490566
0.00424901
0.00316547
-0.00231612
-0.00290161
0.00205226
0.00110995
-0.00144061
-0.000631058
0.000961712
0.00244684
-0.00243098
-0.00321672
0.00320087
-0.000997254
0.00285283
-0.000206169
-0.0016494
-0.00383899
-0.000691685
0.0048255
-0.00298531
-0.000740697
0.00368809
3.79183e-05
0.00127872
-0.00285294
0.00157422
0.000999567
-0.00128586
0.00481189
-0.0045256
0.00409386
-0.00577277
0.0008557
0.000823205
0.00249017
-0.00270152
0.000211352
-0.00374963
5.93232e-05
0.00338267
-0.00131172
-0.00327606
0.00120511
0.00107423
0.000854544
0.00373659
-0.00566537
0.00243386
-0.0026548
0.000220931
-3.00953e-05
0.00295208
-0.00334179
0.000419806
-0.00411562
-0.000359074
0.00547426
-0.00179506
-0.000300756
0.00041078
0.00168504
0.000253494
-0.00204135
0.0015145
0.000273361
0.00337732
-0.00325038
-0.000806653
0.000407521
0.00579257
-0.0036597
-0.00254039
-0.00197878
0.00412484
-0.00214606
-0.0052367
0.00198031
-0.00116724
0.00442364
0.00409252
-0.00369708
-0.00605594
-0.00208349
-0.0024863
0.00855383
-0.00398404
-0.00594498
0.00372924
0.00544433
-0.00322859
-3.1842e-05
-0.00523086
0.0052627
0.00792144
1.60017e-06
-0.00457834
-0.0033447
0.00457324
-0.00295387
-0.000491763
-0.00112761
-0.00336634
0.00239659
-0.00059624
0.00156599
1.54724e-05
-0.0038688
0.00385333
-0.00250935
0.0025894
-8.00402e-05
-0.00183924
-0.00188003
-0.00482167
0.00854093
-0.00461838
0.000987962
-0.000497817
0.00412824
0.00111761
0.00184052
0.00506104
-0.00457586
-0.00376575
0.00328057
-0.00126753
-0.0026961
0.00297694
0.000986685
-0.00271991
-0.00136892
0.00408855
2.74306e-07
0.00097819
-0.00055823
-0.00273528
0.00231532
0.00298813
0.000160232
-0.00382195
0.00067359
0.000904895
-0.000636679
0.00105021
-0.00126693
0.00125322
-0.0010365
0.00246682
0.00237301
-0.00245084
-0.00238899
0.00138954
0.00346014
-0.00355378
-0.0012959
0.00260058
0.00112986
-0.00205742
0.00318124
-0.0038215
0.000800492
-0.00439566
0.00306443
0.0016795
-0.000348267
0.00512242
-0.00169724
-0.00540395
-0.0013588
0.00362434
0.00182698
0.00349203
-0.00167971
-0.00304914
-0.000867943
-0.000478574
-0.00470589
0.00438856
0.000390913
-7.35864e-05
-0.000246206
0.00593801
-0.000599482
-0.00509233
-0.00388031
0.000795865
0.00172565
-0.00063168
-0.00391508
0.00111403
0.00343273
0.00352616
0.000475926
-1.86789e-05
-0.0039834
-0.00561375
5.45376e-05
-4.24556e-05
0.00560167
-0.00141546
0.00153133
-0.00254813
0.00243226
-0.00368464
0.00458157
-0.000414806
-0.000482118
0.00479866
-0.00444864
-0.00403466
-0.00353231
0.00317499
-0.00100272
0.00136004
0.00285244
-0.000126769
-0.000897202
-0.00182847
-0.00546935
0.0052631
0.00259528
-0.00238903
0.00266653
0.0010137
-0.000339761
-0.00334046
0.000895129
0.00231087
-0.00290021
-0.000305792
-0.00171111
0.0017286
-1.74861e-05
-0.00100547
-0.00257584
0.00258406
0.00455019
-0.00452849
-2.16946e-05
-0.00219712
-0.0017653
0.00171296
-8.8621e-05
-0.00294662
-0.0003973
0.00343254
-0.000305962
-0.00237625
0.00209418
0.000588031
0.00358754
-0.00407888
0.00049134
-0.00460262
0.00466313
0.00431407
-0.00437458
-0.00307602
0.0023731
-0.00160094
0.00230385
-0.00129344
0.00055345
0.00116963
-0.000429631
-9.60833e-05
0.00554776
-8.4571e-05
-0.00536711
-0.00295398
0.00142862
0.00145755
0.00169341
0.00214869
-0.00374565
-9.64586e-05
0.000166039
-0.00469971
-0.000191673
-0.00391
0.00393962
-2.9616e-05
-0.0031505
0.00161194
-0.00344191
0.000913173
-0.00205925
0.000114391
0.0018497
0.000805977
0.00267505
5.41698e-05
-0.00228812
-0.0004411
0.00225161
-0.00559927
0.00448727
-0.00113961
0.000929865
-0.00125828
0.00455168
-0.00422327
0.0057561
0.00168166
-0.000883563
-0.00655419
-0.00147775
-0.00240624
-0.000780832
0.00466482
0.00172323
0.00711396
-0.00638343
-0.00245376
0.000835815
0.00537208
-0.00520944
-0.000998454
-0.00181468
0.000239972
0.00371374
-0.00213904
-0.000644111
0.00508775
-0.0027204
0.00401345
-0.00319498
-0.00122017
0.000401693
0.00122366
0.00319859
-0.00442225
0.00297898
0.000652924
-0.00038811
-0.00324379
-0.0027312
0.00219149
0.000213022