/*--------------------------------*- C++ -*----------------------------------*\
  =========                 |
  \\      /  F ield         | OpenFOAM: The Open Source CFD Toolbox
   \\    /   O peration     | Website:  https://openfoam.org
    \\  /    A nd           | Version:  10
     \\/     M anipulation  |
\*---------------------------------------------------------------------------*/
FoamFile
{
    format      ascii;
    class       volScalarField;
    location    "1.3";
    object      SgT;
}
// * * * * * * * * * * * * * * * * * * * * * * * * * * * * * * * * * * * * * //

dimensions      [1 -1 -3 -1 0 0 0];

internalField   nonuniform List<scalar> 
111485
(
1.79026e-05
4.79891e-14
4.51274e-15
1.11914e-11
3.00764e-14
5.7878e-15
4.1768e-16
1.29149e-15
1.19061e-15
1.31439e-15
9.89959e-16
1.51206e-15
4.80577e-15
5.2009e-16
9.59419e-16
2.45509e-15
1.90937e-15
3.13242e-13
6.87678e-16
4.49055e-14
2.61688e-14
9.46742e-16
1.54434e-15
1.90358e-14
8.36321e-15
1.0585e-14
2.11944e-15
2.03361e-15
6.42048e-15
4.22488e-05
3.74959e-15
8.2881e-15
8.63078e-12
1.53899e-13
2.81036e-14
2.5462e-14
3.01473e-15
2.19745e-14
1.90792e-14
1.68514e-14
7.85507e-16
1.36727e-15
8.25037e-15
1.68961e-14
4.88834e-14
3.71665e-14
9.04601e-15
9.70739e-16
1.69052e-15
6.11645e-15
1.35872e-14
2.44466e-15
3.55738e-15
9.85695e-15
6.9023e-14
2.18078e-16
1.08105e-14
1.00726e-15
1.24083e-14
1.18142e-14
1.22011e-14
1.26675e-05
1.15481e-15
3.4956e-14
8.38559e-15
2.65169e-15
7.97566e-15
1.56854e-14
3.45833e-16
2.54017e-15
1.79796e-15
1.33741e-16
4.38402e-16
5.77763e-16
4.44417e-13
1.24898e-15
3.41583e-15
1.34092e-15
3.63832e-15
2.13391e-13
3.59191e-14
5.30075e-15
3.91779e-14
1.60318e-09
1.25837e-15
5.85917e-16
1.32268e-13
1.3229e-14
6.50764e-14
5.09381e-15
3.2074e-14
8.14685e-15
9.55905e-16
3.70216e-15
1.73348e-15
1.19513e-09
7.3212e-06
1.17395e-14
1.09107e-13
3.02925e-14
1.12566e-07
1.48529e-15
2.12397e-16
1.31826e-14
3.81972e-15
2.71618e-15
4.45473e-15
1.67724e-14
6.68819e-16
7.6968e-14
7.49591e-14
3.37796e-16
2.12427e-15
4.03243e-15
1.6078e-13
3.33424e-16
5.04653e-14
1.70068e-14
1.58631e-15
5.99567e-15
2.06834e-14
6.7435e-15
1.93978e-13
3.15378e-15
1.24285e-14
2.83601e-15
6.61673e-15
5.32419e-14
2.51011e-12
1.81271e-13
3.68016e-14
3.01706e-15
6.24899e-12
1.96085e-14
3.27258e-14
1.67985e-15
2.12528e-15
4.04754e-14
9.65167e-16
1.12125e-15
1.45967e-14
1.95304e-15
1.43382e-15
2.85705e-15
1.15035e-14
4.60233e-14
1.1495e-14
1.42039e-07
1.41202e-14
3.89523e-16
2.23167e-15
4.23151e-15
1.32515e-14
3.71383e-13
8.47603e-13
2.44068e-15
1.2963e-15
5.91449e-15
2.94135e-13
7.61671e-15
3.79057e-13
3.5263e-15
2.57824e-15
4.99607e-14
2.10331e-13
1.83642e-14
1.00093e-14
1.01342e-15
4.21176e-14
8.99258e-14
1.54402e-15
2.52823e-07
8.51298e-16
3.37531e-14
2.83491e-14
1.66136e-14
2.71374e-14
3.6654e-14
2.73056e-14
6.09543e-15
1.63717e-13
6.69758e-14
7.06736e-16
7.9396e-16
3.48479e-15
1.70532e-14
3.90383e-16
5.95538e-15
3.98286e-15
1.09319e-08
1.52696e-15
9.84961e-14
2.53351e-05
1.49946e-14
1.1059e-14
1.50086e-15
2.72421e-15
1.89551e-16
1.26253e-13
7.15529e-15
4.02948e-16
4.98475e-15
1.91651e-14
3.28719e-16
2.31624e-16
1.83801e-15
5.86079e-15
1.16824e-14
1.21505e-14
2.13769e-14
7.24975e-16
1.12364e-15
5.34206e-14
5.07658e-05
8.7668e-16
6.55075e-15
1.11501e-14
2.48308e-13
7.87919e-15
2.49634e-15
7.14172e-16
5.02718e-15
2.26045e-16
4.35693e-15
5.64753e-14
3.59316e-14
1.39053e-15
1.82398e-14
4.0335e-14
1.20391e-15
2.90662e-14
6.81929e-15
5.36262e-15
5.85253e-16
4.35074e-16
1.08646e-15
6.07375e-15
8.64291e-13
2.15172e-15
1.21979e-14
1.44149e-14
7.62262e-15
1.72295e-15
1.27391e-15
2.45014e-15
3.52306e-15
2.50536e-14
1.12245e-13
4.73288e-15
1.44041e-16
5.12774e-15
8.82517e-14
4.03205e-14
6.43014e-08
8.16102e-14
8.33282e-15
1.4039e-14
8.25802e-14
1.65555e-14
5.79393e-14
2.31199e-15
1.41963e-14
4.97084e-15
2.39065e-14
3.45741e-14
1.68606e-10
4.96465e-06
1.35739e-16
3.46362e-14
1.68763e-16
7.03076e-15
7.72451e-16
3.89027e-15
1.051e-15
2.35432e-15
2.22604e-14
8.65646e-15
8.69969e-15
8.01201e-16
5.56845e-07
3.20074e-14
1.72782e-15
6.22018e-15
2.03699e-14
8.93629e-14
2.10593e-15
3.10852e-16
2.59135e-17
2.33166e-14
1.94121e-14
9.76179e-16
1.05616e-15
7.57516e-14
3.16559e-15
3.28644e-16
1.20508e-13
7.4383e-14
5.05539e-14
8.67739e-15
1.90803e-14
2.43352e-15
2.20822e-14
1.10045e-14
1.5673e-14
8.11915e-14
1.21152e-14
0.000136963
5.67148e-13
2.91727e-15
6.07954e-15
4.75009e-16
3.21062e-15
2.40395e-14
4.98993e-15
3.67962e-14
1.54378e-10
4.64353e-16
1.00189e-15
2.29841e-14
7.86793e-15
4.79194e-14
6.85686e-15
2.69967e-06
7.59222e-06
5.75544e-14
2.32757e-14
7.62414e-16
2.36772e-15
7.29499e-15
3.32758e-14
7.9344e-14
2.02478e-13
3.20661e-15
1.84637e-14
1.5672e-14
2.56314e-14
3.41989e-14
8.63819e-15
1.265e-14
5.50789e-15
4.43255e-15
9.21852e-15
6.23608e-13
5.64885e-14
1.46351e-15
1.23122e-14
6.05441e-14
5.03258e-15
4.80982e-15
1.87764e-14
4.01602e-15
2.92396e-14
6.55643e-14
3.73499e-15
8.81651e-15
7.46733e-12
3.99817e-14
5.86695e-13
7.29889e-15
3.13757e-17
2.00002e-14
7.86945e-15
2.81859e-14
2.17937e-15
6.84037e-15
2.03989e-05
2.58143e-14
1.93791e-15
2.25155e-14
4.65314e-15
2.19397e-15
5.38566e-16
1.55308e-15
1.40894e-13
2.72552e-15
1.96791e-15
1.00767e-15
4.5151e-15
2.49138e-15
1.36058e-14
7.90293e-15
6.12082e-16
3.59846e-14
1.32235e-14
1.43425e-13
1.19407e-13
3.76247e-08
1.03862e-14
2.61088e-15
1.00647e-14
7.82368e-14
1.88187e-15
1.8876e-14
2.74485e-15
1.82056e-14
3.23478e-14
1.76907e-14
9.94537e-15
1.89313e-14
1.35491e-15
5.17425e-15
1.8413e-14
4.03301e-15
0.000100023
5.76804e-15
1.32862e-13
1.17869e-14
1.8576e-14
3.64342e-14
1.1478e-13
5.04892e-08
9.4986e-15
3.61282e-14
1.37371e-08
1.58306e-15
6.92969e-15
1.45722e-14
2.10626e-16
1.36129e-14
4.17494e-15
1.12624e-14
3.77782e-14
1.9836e-14
2.05992e-14
1.63359e-16
7.58101e-14
3.63395e-15
2.07283e-15
6.5232e-15
6.74925e-05
6.99125e-15
1.50679e-15
3.20667e-14
1.44362e-14
4.30091e-15
3.06707e-15
6.32348e-15
8.3379e-16
3.08801e-16
1.36038e-14
5.62879e-15
2.89486e-14
2.08126e-14
6.76245e-14
3.08023e-14
2.31422e-14
2.59166e-12
7.80522e-14
7.57912e-15
7.83105e-15
3.49798e-16
1.48674e-14
3.05509e-14
9.77268e-16
7.17801e-14
1.46391e-14
1.20035e-15
3.15888e-14
2.24129e-14
6.94956e-17
1.21884e-14
4.6789e-14
8.12941e-15
7.97712e-06
6.93102e-15
1.56174e-15
7.69877e-06
4.55294e-07
2.30707e-14
7.69875e-08
7.38634e-05
2.82457e-13
2.54978e-05
4.63285e-16
8.74477e-16
6.86535e-15
1.89337e-15
2.73708e-14
0.000104062
4.80855e-14
1.05712e-12
2.83966e-15
8.02553e-16
4.50044e-14
1.9724e-14
1.02892e-15
3.84466e-14
3.00157e-15
5.82047e-15
3.99561e-14
3.41534e-06
1.13024e-14
2.17417e-14
6.51203e-15
5.16577e-15
8.5178e-15
8.33431e-17
1.15191e-14
5.63906e-16
3.53768e-14
1.02231e-15
6.03734e-06
4.71708e-15
7.57796e-14
1.6558e-14
1.26158e-13
4.74347e-15
7.83352e-14
3.09429e-15
2.75051e-15
3.48192e-14
1.1187e-14
2.40458e-14
9.01146e-15
8.44543e-16
2.28948e-15
1.21578e-15
4.64916e-15
1.15877e-14
3.11574e-15
1.88084e-14
6.54836e-16
2.6166e-15
2.40164e-15
1.14592e-13
2.13631e-15
5.25199e-15
2.0934e-14
1.82775e-15
5.55152e-06
7.55753e-15
3.07566e-15
8.70387e-17
8.40592e-15
1.10421e-13
1.71931e-14
8.26457e-15
1.30318e-13
3.15134e-15
1.07909e-14
6.61247e-14
4.47566e-15
5.30822e-15
2.09069e-05
9.88312e-15
9.23098e-15
1.54619e-14
2.05427e-14
3.85767e-15
8.67294e-15
1.26666e-14
1.77426e-14
5.18748e-15
7.59009e-15
1.77126e-15
4.74957e-15
1.3911e-13
2.87062e-14
2.95523e-14
6.23171e-14
5.15734e-15
6.05166e-13
2.74338e-14
6.66596e-14
2.79637e-13
3.89204e-15
5.96549e-15
4.63766e-14
1.6825e-14
1.85649e-15
5.94152e-14
1.22371e-14
2.85846e-15
2.53922e-14
1.39383e-14
3.05249e-12
2.10079e-15
8.61448e-16
6.81482e-14
1.5153e-15
1.31899e-13
3.81533e-14
2.18496e-14
2.75631e-13
3.7051e-15
1.25576e-14
1.04196e-14
7.63064e-15
8.08798e-15
1.34144e-14
9.80364e-16
9.454e-16
1.39121e-13
3.7565e-14
9.95535e-15
4.10373e-15
7.7599e-16
2.63627e-15
2.55538e-14
1.85609e-14
1.7461e-14
2.16973e-14
8.93966e-16
9.58205e-15
4.34125e-15
8.99857e-15
3.10461e-14
2.38843e-13
2.07031e-13
4.03596e-13
8.89091e-16
1.49494e-15
3.18689e-14
2.58658e-14
1.33757e-15
1.12661e-14
1.87981e-14
8.76352e-14
1.4603e-14
1.96961e-13
1.65262e-15
1.74465e-15
8.22913e-15
7.80932e-16
8.75385e-15
9.22463e-16
4.49132e-16
1.10027e-14
3.2161e-15
1.13733e-12
3.21631e-15
5.54705e-15
1.01769e-15
3.57468e-15
4.52955e-16
1.85401e-13
1.06179e-14
5.34379e-15
3.86549e-16
1.64654e-14
1.04159e-14
3.38435e-14
7.40824e-14
4.71494e-15
5.09391e-14
2.84664e-15
1.28803e-14
7.98183e-16
4.65763e-14
8.05762e-14
1.77133e-13
2.49419e-16
2.0854e-13
1.27307e-13
4.03137e-14
1.07501e-15
2.72678e-14
5.65469e-14
4.7548e-05
3.17935e-15
1.53896e-15
3.34806e-16
1.23875e-14
2.53963e-16
6.89674e-06
1.31729e-14
1.23138e-13
2.7425e-14
3.72325e-16
1.62282e-15
5.36666e-14
1.10517e-13
1.50379e-14
3.27009e-14
3.24649e-14
8.08911e-15
7.51747e-16
4.7667e-14
6.61185e-16
1.02369e-15
6.9131e-14
8.03608e-14
1.39592e-15
6.08022e-13
2.14364e-15
3.94262e-16
8.45603e-15
8.56841e-15
6.83763e-15
6.44783e-15
1.67889e-07
1.65298e-13
1.7358e-13
3.38661e-15
9.65605e-15
1.15068e-14
5.28138e-14
4.84531e-15
5.30063e-14
1.4108e-15
1.36146e-14
1.62959e-14
1.09413e-14
7.3845e-14
2.26614e-14
7.63469e-14
5.81802e-15
7.29842e-15
3.07533e-14
3.7978e-16
8.53636e-16
2.86927e-15
5.1813e-14
1.58466e-15
2.79265e-13
1.68469e-14
7.68625e-15
5.3505e-15
5.17289e-06
1.33528e-14
3.36576e-14
6.71822e-15
3.05413e-14
1.63562e-14
3.88155e-14
1.03046e-15
3.77488e-14
4.86777e-14
1.05051e-13
2.35047e-14
2.2486e-14
3.08814e-08
3.12299e-15
8.01821e-15
7.39808e-15
1.63968e-14
3.15593e-08
5.25695e-08
1.15795e-14
2.12487e-15
1.62438e-14
6.49354e-15
7.48936e-15
4.84682e-09
9.21708e-16
2.57857e-14
5.14898e-15
3.14302e-14
8.28116e-14
1.19527e-15
3.5932e-15
1.16717e-15
8.50918e-15
1.09768e-14
1.74872e-15
5.76245e-17
4.7845e-16
2.33304e-14
5.93617e-15
1.73835e-13
5.40782e-14
3.24934e-15
4.24061e-14
5.94165e-15
6.17825e-15
2.29314e-14
2.45826e-14
1.10082e-06
9.92183e-15
7.35489e-15
5.38969e-15
4.53548e-14
1.94107e-14
2.22113e-14
1.88822e-14
5.74135e-14
1.24502e-16
2.25913e-15
6.16186e-15
5.86161e-14
4.06348e-14
4.96185e-15
3.3664e-15
1.26504e-14
5.15608e-15
1.78521e-15
1.11925e-08
4.76445e-14
4.57165e-14
3.57948e-14
5.85873e-14
8.4679e-14
1.06857e-14
2.06951e-15
2.7073e-13
2.85667e-13
1.48295e-14
7.15518e-16
3.88289e-16
1.33894e-14
1.72984e-14
1.04408e-15
5.11242e-14
1.26634e-14
6.64547e-15
2.33389e-15
8.15563e-16
9.7112e-16
9.85979e-11
1.18553e-15
1.46968e-14
7.44574e-14
1.49722e-14
1.64566e-13
5.30931e-14
3.43118e-15
5.56996e-15
2.37837e-14
5.4115e-14
4.29272e-15
2.46993e-13
1.88364e-15
2.2111e-14
1.71604e-14
8.98414e-15
3.87238e-15
1.38904e-14
7.08337e-15
5.07537e-15
7.16095e-14
1.03993e-13
2.71394e-15
1.239e-14
2.17966e-14
3.57483e-14
4.77483e-15
7.57901e-14
6.04749e-14
1.15911e-14
4.68993e-16
1.00578e-14
1.74163e-14
1.99406e-14
2.92295e-14
2.07061e-14
5.84219e-14
2.16333e-14
8.11367e-14
1.70095e-14
2.78618e-14
5.89364e-14
8.58322e-14
3.16134e-14
8.23526e-14
5.11497e-14
1.78382e-13
5.4911e-14
9.29369e-15
4.39263e-14
7.2671e-15
9.11761e-15
7.81212e-15
1.30021e-13
1.53711e-14
6.01899e-15
6.27485e-15
2.34121e-13
2.1329e-14
3.50554e-16
6.11661e-06
8.23504e-14
2.29502e-10
2.85748e-15
4.70267e-15
1.56022e-15
2.19389e-14
3.19274e-14
7.99427e-15
1.64197e-15
5.7052e-15
1.38885e-15
8.83456e-15
1.49902e-14
3.07516e-13
3.61796e-15
8.3297e-15
4.47064e-15
1.83794e-14
4.79321e-15
6.8186e-16
1.09797e-14
2.85294e-14
8.88897e-16
8.80812e-15
2.0931e-14
1.88501e-14
5.31954e-14
6.54796e-15
9.04112e-14
7.44622e-07
2.82736e-14
7.0509e-14
6.0008e-14
2.47667e-13
3.94839e-14
6.27919e-14
5.69197e-14
2.24818e-15
1.37634e-13
7.78875e-16
4.92835e-16
2.92799e-14
8.54529e-15
7.23715e-16
8.93708e-15
2.45376e-15
2.82013e-14
5.13037e-15
5.82113e-15
1.80374e-13
2.37882e-14
8.75776e-15
1.39583e-14
1.46455e-14
6.23421e-15
1.08542e-15
1.4207e-14
1.78894e-14
4.89425e-15
9.49968e-14
2.22681e-15
3.45566e-15
1.75665e-13
4.87278e-14
6.7618e-14
9.51806e-15
3.09285e-15
2.07533e-14
1.05704e-13
2.04792e-14
2.08973e-13
2.3117e-14
8.47016e-15
1.06016e-08
2.20375e-15
3.48517e-15
1.32575e-14
1.63922e-14
8.82816e-15
7.45601e-14
2.10423e-14
1.74361e-15
1.91675e-05
1.95804e-14
1.82187e-14
8.27229e-16
5.88178e-15
1.84846e-14
2.00912e-13
2.42194e-13
5.19732e-14
2.48733e-14
2.42863e-14
1.83119e-15
1.88956e-15
1.07218e-14
2.11729e-14
1.47974e-13
1.08914e-13
5.7328e-13
2.56162e-13
1.83398e-15
1.54336e-14
1.27188e-15
2.79577e-14
3.67706e-14
2.85775e-15
2.50954e-14
8.23397e-14
4.17251e-15
2.95384e-14
1.30387e-14
7.48668e-15
2.03946e-14
6.93938e-14
4.55552e-14
2.75641e-15
9.49271e-14
7.55212e-15
1.22759e-15
3.41639e-15
9.27498e-15
9.08335e-15
6.46044e-15
5.29481e-15
2.73873e-14
2.60526e-14
1.67625e-14
4.32632e-05
7.94147e-15
1.73291e-15
2.66684e-16
7.0962e-15
3.13158e-08
2.35089e-14
7.85769e-15
1.23317e-14
8.2859e-15
3.33334e-13
5.8841e-14
1.3614e-15
7.47008e-15
4.00393e-15
2.28802e-14
1.41563e-14
2.07209e-15
1.90851e-14
2.28648e-15
5.65568e-14
6.07719e-14
1.39552e-15
3.70214e-14
4.09647e-15
1.60659e-14
8.02927e-15
1.63321e-14
1.12681e-07
3.61849e-14
4.63339e-14
3.30947e-16
5.23577e-14
4.31708e-05
2.62967e-15
1.6057e-14
2.80046e-15
6.5245e-15
2.09416e-15
3.90675e-15
1.32634e-15
2.09929e-14
1.93181e-13
2.86043e-14
7.69196e-16
8.22027e-15
7.25032e-15
1.18247e-14
4.26027e-14
4.48197e-15
1.08235e-15
4.20822e-14
2.88744e-15
1.13967e-15
5.64571e-14
1.22868e-14
1.25654e-15
3.94968e-15
1.99721e-13
2.65331e-14
1.37884e-15
1.12861e-15
8.75693e-15
3.13178e-16
2.88022e-14
2.22084e-14
1.49129e-14
3.10169e-14
5.15438e-15
6.81662e-15
1.24436e-14
1.55022e-14
7.66128e-15
1.65035e-15
4.09326e-15
3.98654e-15
5.77977e-15
1.83706e-13
6.298e-16
4.06119e-14
4.99486e-15
2.13994e-13
1.38682e-15
2.14191e-14
6.01444e-15
9.6292e-16
8.45758e-15
3.63596e-15
8.08825e-15
1.3988e-13
5.88612e-14
3.48666e-14
1.04261e-15
7.65809e-15
4.76952e-06
9.7235e-16
1.38645e-14
1.83953e-15
1.25571e-14
3.61483e-15
1.27404e-13
4.24427e-14
8.96114e-15
2.14495e-13
5.57979e-15
1.30738e-14
6.69099e-14
6.63947e-15
9.55419e-14
9.79884e-16
3.77928e-15
2.03181e-14
1.73832e-15
1.12569e-14
2.0968e-15
8.57279e-14
4.20662e-14
6.44312e-15
2.31457e-14
1.20452e-14
2.56016e-15
1.3108e-13
3.678e-14
3.08439e-13
1.57994e-13
5.17992e-14
2.2594e-14
8.65434e-17
1.61522e-16
1.72215e-15
2.11806e-14
6.82414e-15
4.22927e-13
6.43624e-14
1.44368e-14
7.19056e-15
4.61361e-14
1.55712e-15
2.31004e-14
5.04687e-14
3.81756e-14
1.33742e-14
1.13997e-15
2.68777e-13
1.74934e-15
9.22611e-14
2.17091e-17
6.31752e-15
3.47043e-16
3.31428e-15
7.24087e-16
7.2449e-14
1.6196e-14
9.8479e-15
1.36812e-15
6.94976e-15
2.03478e-15
2.57338e-15
1.34226e-14
6.41526e-12
2.812e-14
2.76071e-15
6.18864e-15
8.00321e-14
1.58405e-14
5.38148e-14
1.57137e-15
1.96258e-14
1.53797e-15
1.8261e-14
1.01432e-13
1.42957e-15
6.50247e-14
2.16457e-14
1.23681e-13
1.87207e-15
1.83349e-14
3.98822e-15
6.08272e-14
5.73859e-14
4.05779e-14
4.77574e-15
3.85875e-14
2.24964e-14
7.64972e-15
9.02265e-15
1.49609e-14
3.73512e-05
5.5715e-15
3.93752e-15
3.75117e-15
5.14265e-15
6.37849e-17
3.52819e-14
2.15902e-14
1.25675e-14
2.48042e-13
9.93917e-16
6.35403e-15
8.30376e-16
3.12337e-14
6.92339e-14
5.43392e-17
2.07001e-14
4.93101e-15
1.78099e-15
1.3584e-14
1.06487e-15
3.28663e-15
3.48712e-15
7.04966e-15
4.57245e-14
2.55951e-15
4.55839e-15
1.17852e-14
2.93082e-15
2.30773e-13
7.83928e-16
2.99155e-15
6.02249e-15
9.26764e-15
1.81417e-14
6.89591e-15
1.80108e-14
1.21675e-14
2.32853e-15
6.16317e-15
3.61138e-15
1.97401e-13
5.0763e-16
1.01535e-14
7.41214e-14
5.54506e-16
4.66233e-13
1.02155e-14
5.19743e-15
1.62223e-14
4.53559e-15
4.42839e-15
1.07591e-15
1.73237e-14
2.6718e-06
2.28693e-15
1.15936e-05
8.9957e-14
7.35565e-15
2.15908e-15
8.20719e-15
1.64759e-14
1.2006e-15
5.26677e-15
1.82201e-14
8.34428e-14
3.21804e-14
1.7229e-15
1.18322e-13
9.199e-16
1.33154e-13
1.12181e-13
7.01559e-15
2.18152e-16
4.95977e-15
9.85166e-16
2.87155e-15
1.5567e-14
1.69896e-15
4.47184e-15
9.52128e-15
3.63666e-15
9.05639e-14
2.85285e-13
1.04273e-14
1.05066e-14
5.84092e-15
4.02966e-13
3.24539e-15
4.09773e-14
2.67087e-16
2.03367e-14
2.09814e-14
1.10746e-14
2.01378e-15
2.29184e-15
1.09103e-14
6.93786e-15
1.56245e-14
9.43152e-14
9.02254e-14
3.55089e-15
2.52094e-14
7.91059e-14
5.57591e-15
2.86724e-15
3.58861e-15
6.7045e-15
1.40388e-15
6.99266e-14
1.3753e-13
1.16817e-15
2.92665e-16
5.03818e-14
1.54109e-15
1.93919e-14
5.35911e-15
4.84757e-14
1.05344e-13
2.91404e-14
3.51033e-14
2.85768e-16
3.27451e-15
2.90593e-15
7.36332e-16
7.56827e-16
1.12666e-13
8.78454e-15
7.7093e-17
4.74639e-16
4.8947e-16
5.80658e-15
1.57482e-15
2.76736e-14
1.41812e-15
1.73456e-14
1.76833e-13
9.02338e-16
4.26748e-14
2.21214e-15
1.13811e-15
2.0004e-15
7.54407e-17
5.31999e-15
4.84369e-16
2.36201e-14
3.46522e-13
8.10419e-16
2.77431e-08
2.54948e-14
1.75056e-15
5.3577e-16
1.6292e-14
5.29801e-15
3.86345e-15
3.01961e-15
1.6791e-14
9.88614e-15
2.30908e-15
3.6226e-14
1.48531e-14
6.0421e-15
1.85802e-16
3.77375e-15
1.04043e-14
2.68036e-14
1.66058e-14
3.71231e-14
1.57471e-15
1.1287e-14
1.03168e-14
5.5486e-16
3.30572e-13
7.06922e-17
5.01787e-17
1.17798e-14
2.23402e-15
2.18278e-14
3.1826e-14
1.49356e-13
2.21836e-15
9.8138e-14
1.43991e-15
1.00498e-15
6.28412e-14
3.41149e-15
4.98122e-14
2.14452e-15
3.3374e-16
2.84391e-14
6.424e-16
5.55311e-14
1.26083e-15
9.14536e-15
9.13124e-16
3.28837e-14
5.23817e-08
1.09621e-14
1.40048e-14
1.54718e-14
6.16582e-15
2.87486e-14
5.84251e-15
1.28703e-15
3.72326e-14
1.65811e-15
1.05233e-15
7.5643e-07
1.02682e-15
1.47832e-11
1.40264e-14
2.02608e-07
3.36426e-14
7.84874e-16
6.72053e-14
1.72262e-14
7.31811e-15
2.66305e-14
1.46587e-15
2.3124e-13
5.52744e-16
1.92615e-14
1.32455e-14
1.72572e-15
2.34889e-15
1.67778e-14
2.59126e-14
8.92747e-16
7.37901e-16
1.0016e-13
8.27167e-15
3.40362e-06
8.69944e-14
1.91085e-16
3.59762e-15
6.15649e-14
1.18508e-14
1.22835e-14
8.62641e-15
1.39545e-15
5.21287e-11
2.00035e-14
7.77812e-16
3.31409e-15
2.01824e-13
8.53836e-15
3.65474e-16
9.495e-15
1.43707e-16
7.98662e-16
2.08539e-15
2.22312e-14
8.00567e-14
3.01904e-16
1.49294e-14
2.51233e-14
8.16744e-17
7.9935e-14
6.85829e-16
1.35722e-15
6.11452e-15
2.32485e-15
9.99789e-16
5.82281e-16
1.15072e-15
1.98157e-13
1.27933e-13
1.17588e-14
9.76319e-14
7.58816e-16
1.10133e-15
1.10059e-15
7.83932e-16
1.31074e-14
3.62301e-14
9.65864e-14
2.51426e-14
2.40521e-16
1.65188e-13
1.99779e-14
5.12445e-15
1.13167e-13
2.04071e-13
3.49326e-14
1.04909e-14
2.33975e-15
2.29601e-15
7.42074e-15
1.37403e-15
1.40327e-15
1.19721e-14
1.77103e-14
2.82564e-15
1.66214e-14
2.26407e-14
1.09076e-13
1.00023e-15
5.92875e-07
1.1591e-14
2.95418e-15
3.74301e-06
1.86379e-13
5.02677e-16
1.23252e-14
1.94356e-15
4.99049e-15
2.82432e-14
2.0164e-14
4.82914e-16
7.6414e-16
4.94708e-15
1.86189e-14
4.37719e-14
1.03374e-14
1.02169e-14
5.22293e-14
1.9874e-15
2.74802e-15
7.213e-16
7.53021e-14
1.13523e-14
8.72731e-14
2.50267e-15
4.46492e-15
1.03511e-15
2.41931e-06
8.52995e-16
1.3616e-14
3.71326e-11
2.76077e-15
8.4921e-16
2.75614e-13
4.54742e-12
1.15563e-15
2.00772e-15
2.50709e-15
1.10836e-15
9.56734e-14
1.3217e-16
4.22407e-15
7.49497e-16
1.16891e-14
1.98197e-14
1.53048e-15
1.58353e-14
1.30004e-13
3.12036e-15
3.28918e-15
2.73903e-14
1.58522e-14
1.12561e-15
3.3968e-16
2.63629e-14
2.17697e-14
5.98521e-15
3.58681e-14
2.21742e-15
2.87554e-14
9.34746e-15
6.3421e-15
2.71794e-15
2.29945e-14
4.16496e-14
6.71698e-15
1.38275e-13
2.10035e-14
1.91154e-14
2.97886e-15
1.80143e-14
1.49244e-13
1.02498e-14
1.60083e-14
6.28595e-15
2.53892e-15
4.4404e-14
5.06091e-14
3.86631e-15
3.14977e-14
1.59498e-15
2.15484e-15
6.14084e-14
1.13096e-14
4.66242e-16
1.9414e-16
4.58416e-15
3.10483e-16
5.49056e-15
1.1226e-13
6.87523e-14
1.90015e-14
5.37942e-15
6.414e-15
4.032e-14
4.88189e-14
1.01459e-13
9.09673e-16
2.17921e-14
2.26551e-14
2.71821e-15
9.52623e-05
2.31937e-13
4.10433e-15
3.28945e-15
9.31552e-11
2.38288e-05
1.91743e-16
1.81397e-09
1.51611e-15
1.06505e-15
1.27752e-14
1.90215e-14
2.86643e-15
9.03076e-15
3.80675e-14
6.05542e-15
5.73696e-15
6.95401e-15
9.22925e-15
3.61326e-11
7.63922e-15
1.31772e-14
2.42018e-13
4.48907e-08
1.30537e-15
2.94761e-14
1.29914e-06
6.06374e-15
3.99686e-15
8.45394e-17
1.0373e-13
5.99704e-15
5.18139e-14
1.7236e-14
3.83048e-06
6.55668e-14
1.53082e-14
2.38478e-05
1.07783e-13
5.21005e-06
3.96162e-15
6.79782e-15
4.02499e-15
1.80885e-13
9.56515e-15
4.10854e-14
1.071e-13
2.31398e-14
4.44619e-14
2.37931e-15
6.89058e-15
1.11652e-14
1.95429e-14
2.04501e-13
1.92063e-14
1.15677e-05
4.19183e-15
2.0192e-14
2.88232e-14
1.69551e-15
4.7161e-15
5.35851e-14
4.17408e-15
3.45243e-14
1.08999e-13
3.1726e-14
1.42081e-15
1.46716e-14
1.55146e-14
1.94903e-14
9.34707e-15
1.50172e-14
2.07634e-15
8.25767e-15
3.64717e-15
1.77427e-14
6.89848e-15
5.23151e-15
7.6532e-14
2.20247e-13
9.20834e-16
3.33043e-15
0.000233325
2.9573e-15
1.90748e-14
2.89303e-14
4.51993e-14
8.28037e-15
5.40899e-15
6.4597e-15
6.85224e-16
1.76276e-13
3.48658e-15
1.04194e-14
4.59231e-15
3.10374e-15
2.53227e-14
1.87089e-14
8.08452e-16
1.0673e-08
5.51587e-14
2.4706e-14
1.46532e-13
2.3132e-14
1.73494e-14
6.36971e-14
2.90508e-14
6.0528e-15
4.09686e-14
4.81033e-14
1.17451e-14
2.68446e-15
1.8783e-14
8.65458e-14
5.16323e-16
8.79552e-15
9.56601e-14
1.24489e-15
5.40491e-15
7.73372e-16
5.75728e-14
9.88015e-15
4.68428e-14
1.48426e-15
3.80475e-14
2.20834e-16
8.3474e-14
5.03314e-14
7.17727e-14
2.90631e-05
2.07458e-16
1.41115e-10
8.05391e-16
4.56425e-06
3.44631e-14
1.81557e-13
2.02807e-15
3.84415e-13
4.04047e-14
4.27396e-14
9.65978e-15
3.03453e-14
8.16803e-14
5.30784e-15
9.54913e-15
1.89204e-15
1.53001e-15
9.4225e-14
1.40814e-14
1.18762e-08
2.63503e-15
1.5086e-14
1.06093e-14
1.86448e-14
8.59436e-16
3.64366e-16
6.75046e-14
2.35854e-14
4.51483e-15
6.79968e-16
9.67371e-14
5.89554e-16
2.96853e-14
4.55066e-15
1.85447e-14
1.65128e-14
2.63119e-14
4.71879e-15
5.8475e-15
1.32308e-14
2.88924e-14
3.90597e-14
1.83813e-15
2.58238e-15
1.31746e-14
1.86248e-14
2.71861e-15
3.31839e-14
1.20882e-13
1.14494e-07
1.20297e-14
3.36807e-16
2.41353e-15
4.07779e-15
4.22569e-15
2.57643e-15
1.84007e-14
2.57594e-14
2.32436e-15
3.97995e-10
2.97516e-07
9.82697e-15
5.87212e-14
4.41559e-16
7.29229e-05
9.38076e-16
1.30031e-13
1.09433e-15
3.59575e-15
5.11268e-15
8.25922e-16
5.85689e-16
2.50772e-15
2.39311e-16
4.69223e-15
1.33374e-16
8.87332e-15
1.46526e-13
6.3531e-15
2.76867e-14
5.44715e-15
1.51035e-13
1.72873e-14
2.07293e-13
4.17207e-15
1.11912e-13
2.07988e-15
2.47068e-16
6.43423e-15
8.79149e-05
2.40174e-15
1.19062e-15
9.40887e-06
4.74574e-14
5.7201e-15
2.26752e-15
3.10159e-15
7.05869e-15
8.80837e-15
6.20942e-15
9.75613e-15
2.60337e-14
2.46866e-11
2.9725e-06
5.35114e-15
7.00394e-16
2.22025e-15
1.09335e-15
8.43999e-15
2.18669e-14
7.78391e-15
1.86946e-06
7.49752e-15
1.77234e-14
3.62641e-15
7.19481e-15
3.20779e-08
1.94628e-15
1.52569e-14
1.00654e-14
9.51469e-15
1.50073e-14
6.40449e-15
7.84521e-14
1.10279e-14
1.01513e-14
5.6544e-15
5.10639e-16
4.57259e-14
1.03435e-15
2.07704e-07
1.0511e-14
1.51238e-14
3.31012e-09
1.5493e-15
8.18202e-14
5.41183e-16
1.58315e-14
7.32594e-15
4.17045e-15
8.30545e-15
1.09231e-14
2.18269e-13
5.03116e-15
1.73913e-14
1.67358e-15
2.88793e-16
5.19823e-06
7.48094e-07
2.37608e-14
2.50644e-14
4.67367e-14
3.0752e-15
3.50425e-14
1.77689e-14
5.70707e-14
6.85839e-16
6.21106e-15
1.05005e-07
1.84417e-07
8.7339e-15
1.92091e-14
7.32939e-15
5.70332e-15
8.28751e-15
3.14284e-14
5.19304e-14
5.67271e-14
2.07778e-14
4.82834e-15
4.37395e-16
7.23047e-14
1.07395e-13
5.74953e-14
2.28058e-15
8.63369e-14
4.84315e-06
1.27065e-15
1.45065e-07
5.99675e-15
1.22279e-15
6.34053e-16
2.94854e-15
1.82969e-06
4.29819e-09
3.21707e-05
3.22201e-14
1.1566e-14
3.69853e-13
4.08491e-14
2.81354e-15
2.29757e-10
9.06895e-15
2.82845e-14
1.8489e-14
2.96161e-14
2.34007e-14
1.49996e-14
1.74899e-14
5.03847e-15
1.85437e-07
2.76276e-15
7.76612e-16
1.84806e-14
5.71505e-14
1.92389e-14
1.88615e-07
2.45287e-16
9.02492e-15
2.55602e-15
5.61317e-14
6.14098e-14
1.42556e-15
2.1558e-14
3.46468e-15
5.98676e-14
1.5279e-14
6.41774e-15
7.33942e-15
3.68029e-14
8.55561e-15
7.22428e-07
4.65306e-15
4.30321e-15
3.60224e-14
7.23109e-14
2.68188e-15
2.5389e-15
2.82595e-14
1.38888e-15
1.50563e-14
3.51118e-15
3.56106e-15
1.69259e-13
2.0147e-15
8.72523e-15
3.1686e-14
8.11431e-15
4.76352e-14
1.40122e-15
2.01652e-12
4.24055e-15
3.50292e-14
2.86347e-07
1.39747e-15
1.00278e-14
7.95363e-16
7.1178e-15
2.01978e-15
6.91167e-15
8.66042e-14
1.86538e-15
1.11905e-14
3.58256e-09
5.88416e-15
3.16162e-15
3.44054e-14
3.75599e-14
8.78081e-15
6.13376e-09
4.84735e-08
3.02372e-15
2.95686e-14
4.17401e-15
1.41462e-15
1.52812e-14
4.28735e-15
1.10852e-13
1.31755e-13
8.33807e-12
3.28381e-15
5.70686e-16
8.36256e-15
3.61431e-15
7.29617e-14
1.36907e-14
3.90572e-14
6.32042e-14
1.12982e-14
3.19022e-08
2.83556e-14
1.11595e-14
3.10479e-14
1.06586e-14
9.94952e-14
3.94417e-15
7.75308e-14
7.62251e-14
2.67885e-14
6.43748e-14
6.65918e-14
2.63776e-14
2.69474e-15
2.32892e-14
5.89821e-15
3.83589e-14
3.47963e-15
4.16327e-07
3.62468e-15
5.96237e-15
5.02025e-16
5.66745e-14
1.82558e-14
9.10096e-16
1.53055e-14
1.64819e-15
1.57336e-15
3.05034e-15
8.20542e-15
2.44311e-14
9.81081e-15
2.67144e-15
3.2549e-13
2.62902e-14
1.83826e-14
5.24918e-15
1.59726e-13
2.07895e-15
6.94623e-16
8.57455e-14
8.84137e-15
2.10719e-15
7.7909e-14
3.35464e-15
1.81522e-15
3.11245e-08
1.0151e-13
5.5252e-15
1.83938e-14
1.48276e-14
6.79307e-15
1.29224e-15
2.96651e-14
9.79047e-15
4.19003e-09
4.22387e-15
4.7561e-06
4.0325e-15
3.23732e-14
1.58451e-14
6.14186e-15
9.0652e-15
1.85427e-14
3.99579e-15
1.57423e-15
7.66881e-14
6.29894e-05
2.20196e-14
1.68192e-14
1.55744e-14
8.9292e-15
1.00002e-14
9.75178e-15
3.57538e-15
1.12126e-14
3.91476e-14
9.93512e-15
6.95074e-15
4.58965e-16
1.2606e-14
4.65223e-15
1.22748e-15
2.71869e-15
1.2059e-14
1.31146e-14
9.72653e-14
2.8386e-14
2.7334e-14
3.12224e-14
2.5915e-09
8.00803e-16
1.06806e-14
4.5563e-15
3.05187e-15
4.94831e-16
8.48769e-15
4.58975e-14
9.46042e-14
7.46584e-16
1.03487e-14
1.76861e-14
2.61987e-15
4.7309e-11
1.84796e-17
1.48213e-14
5.51396e-15
1.67681e-14
4.21485e-15
7.0975e-16
1.86383e-14
4.01794e-15
5.49618e-15
2.76515e-14
1.59822e-15
2.49174e-14
4.10076e-15
7.37129e-15
2.57523e-14
4.40579e-15
1.11429e-13
5.43326e-16
2.49982e-16
1.49347e-13
3.32199e-15
1.66199e-14
8.65743e-15
8.79155e-15
6.78369e-15
2.43848e-14
1.18277e-14
1.56921e-15
2.40595e-14
3.44691e-15
2.4652e-15
1.05471e-14
5.0098e-15
8.22013e-15
1.81106e-14
1.61655e-14
4.29222e-06
1.07302e-13
3.02131e-14
2.04637e-15
1.00389e-15
1.47521e-14
5.41103e-14
1.70407e-14
3.17289e-14
6.52758e-15
9.40809e-06
8.39562e-14
1.54661e-06
8.31567e-15
2.82709e-16
1.04829e-14
1.5658e-14
4.87016e-14
2.3922e-15
8.05489e-14
3.63059e-16
1.51469e-15
3.90979e-15
3.54365e-14
1.42677e-14
1.07855e-14
1.85041e-10
9.00601e-16
1.48053e-14
2.63065e-14
3.76541e-14
1.71457e-14
3.81518e-14
1.92645e-13
3.41245e-15
7.12141e-15
1.16782e-14
2.69004e-15
5.35372e-14
9.71147e-15
2.85732e-14
8.41047e-14
1.27426e-15
3.8245e-14
5.17357e-15
2.94225e-13
5.10855e-15
0.000140921
1.18917e-11
2.3745e-14
7.71624e-15
3.17537e-15
1.91146e-14
7.05586e-15
3.51592e-15
5.09007e-14
2.09235e-15
6.56907e-16
3.5382e-09
9.39354e-05
2.08081e-14
4.5934e-14
3.41255e-16
2.53683e-14
9.27493e-15
8.93274e-15
3.83805e-14
1.07232e-14
1.63056e-14
0.000101828
1.56928e-16
8.39832e-16
7.51256e-15
6.9048e-10
7.69458e-10
9.79885e-12
2.30611e-15
3.89492e-14
2.16161e-14
1.88274e-14
2.04278e-13
2.37578e-14
4.6173e-14
1.08721e-14
2.60344e-15
4.97648e-14
3.19778e-14
1.06829e-16
2.88141e-06
3.56773e-13
8.38207e-14
2.16482e-15
4.1777e-13
1.10907e-14
5.79747e-14
1.17816e-14
1.61938e-06
3.33744e-14
3.88575e-15
4.19211e-14
6.17552e-15
1.01481e-14
4.34188e-15
1.5029e-15
5.3888e-15
1.41612e-14
1.00443e-14
1.52759e-14
3.90603e-15
1.42889e-15
1.04144e-14
2.11606e-14
6.66194e-15
2.14216e-14
1.54146e-15
1.4361e-15
4.85633e-14
4.64657e-14
4.18698e-15
2.26832e-15
4.2899e-15
8.94696e-15
5.64596e-15
2.96153e-14
2.44167e-15
5.06603e-14
0.00013727
9.71903e-15
7.18506e-15
2.17687e-14
2.17987e-14
3.78508e-15
3.94681e-15
1.61917e-08
9.46823e-16
2.48082e-15
1.12945e-15
1.15538e-15
2.04613e-15
1.43468e-14
2.25456e-15
2.20768e-14
1.67302e-13
2.23605e-15
3.52608e-15
1.51638e-14
5.78217e-16
4.51528e-15
3.99778e-05
1.278e-14
2.91409e-14
7.96464e-16
8.83561e-14
7.08314e-15
3.77921e-14
3.5288e-15
3.81949e-15
1.1702e-10
7.04e-14
1.22325e-14
1.14788e-14
1.70606e-15
2.65761e-15
9.77311e-15
3.05759e-15
1.22932e-14
2.62607e-14
1.52297e-15
1.08456e-14
8.73446e-13
1.0638e-12
1.18277e-14
1.40978e-09
1.17794e-14
5.55086e-06
9.34465e-15
3.48248e-07
5.67301e-14
5.56179e-15
5.82979e-15
6.61299e-15
9.32105e-15
5.84153e-15
6.46884e-14
7.6368e-15
1.95706e-14
1.0196e-14
2.99679e-14
1.07012e-12
1.03266e-14
2.96788e-14
6.01783e-06
3.58278e-12
2.68876e-15
4.80724e-14
1.73e-14
8.84076e-08
2.44449e-14
9.51743e-16
1.81994e-14
6.38768e-14
7.36817e-16
2.85346e-14
8.29233e-14
3.85222e-14
2.11192e-16
3.19199e-15
7.72304e-15
1.44487e-05
3.96447e-15
4.88377e-14
2.67108e-10
8.74436e-15
5.58175e-15
7.0726e-14
4.579e-15
7.78077e-14
4.67772e-14
1.16614e-08
8.39288e-15
2.13173e-14
7.54051e-15
3.0566e-14
2.45157e-13
2.26165e-10
1.97444e-14
9.41788e-14
5.13274e-15
7.58522e-16
2.10615e-14
7.86008e-16
1.69891e-14
1.32932e-14
5.93273e-09
9.91526e-15
4.58447e-15
4.83032e-06
2.07418e-14
4.60302e-14
6.0126e-15
9.44626e-05
5.0594e-07
2.90563e-16
8.64287e-14
3.1669e-14
1.67646e-07
7.17924e-05
4.33366e-15
7.29018e-16
1.0336e-14
3.85477e-14
3.57918e-14
5.73009e-14
2.47847e-11
1.6484e-14
1.71702e-14
2.98513e-14
9.01565e-15
2.0266e-15
2.61459e-14
1.02963e-13
3.93793e-17
1.27797e-15
5.81095e-15
5.74814e-15
6.36457e-15
3.41128e-15
2.42038e-13
3.13028e-14
1.42513e-13
1.06455e-15
1.17428e-13
2.01346e-13
8.08626e-09
8.17378e-16
6.47022e-14
1.08647e-14
2.47885e-15
2.34157e-14
5.72556e-16
1.39811e-14
9.86373e-07
5.30653e-15
8.43284e-15
3.19469e-15
1.68359e-14
2.49313e-14
7.31689e-16
2.04232e-15
4.66285e-15
8.83987e-15
1.01543e-14
3.63315e-15
2.58263e-14
0.000163982
1.15285e-15
9.26339e-15
2.93287e-14
1.21026e-13
5.21192e-14
1.61541e-14
4.86393e-15
1.06624e-14
2.39874e-16
6.50425e-12
1.21329e-13
1.58135e-13
7.86788e-15
1.42175e-14
2.78969e-13
6.23681e-14
7.19593e-15
1.18488e-15
5.23339e-14
8.97947e-16
1.4363e-13
1.03452e-14
1.33811e-14
6.12183e-15
3.40908e-15
1.34028e-14
1.19828e-10
3.49601e-14
2.05205e-15
3.82743e-15
2.02058e-15
2.33941e-14
1.53311e-14
2.44939e-15
1.29937e-14
2.05351e-15
2.40522e-14